/*--------------------------------*- C++ -*----------------------------------*\
| =========                 |                                                 |
| \\      /  F ield         | foam-extend: Open Source CFD                    |
|  \\    /   O peration     | Version:     4.0                                |
|   \\  /    A nd           | Web:         http://www.foam-extend.org         |
|    \\/     M anipulation  |                                                 |
\*---------------------------------------------------------------------------*/
FoamFile
{
    version     2.0;
    format      ascii;
    class       volScalarField;
    location    "3";
    object      dC1;
}
// * * * * * * * * * * * * * * * * * * * * * * * * * * * * * * * * * * * * * //

dimensions      [0 -1 0 0 0 0 0];

internalField   nonuniform List<scalar> 
6960
(
-8.893e-10
8.64178e-10
3.77617e-11
-8.04997e-12
-2.74851e-12
-6.6987e-13
-3.80321e-13
-1.60788e-13
-1.16122e-13
-7.39513e-14
-5.23713e-14
-4.5644e-14
-1.79232e-14
-8.69096e-15
-2.26416e-14
-1.01655e-14
-9.01362e-15
-1.32602e-14
2.26555e-15
-1.63064e-14
-8.06646e-15
1.08177e-14
-1.5675e-14
1.07726e-14
-1.0901e-14
-1.00822e-14
-3.50414e-15
-1.35759e-14
-1.18586e-14
3.6221e-15
5.06539e-16
-2.93862e-15
1.72432e-15
-2.66107e-15
-4.21885e-15
8.96852e-15
-1.66533e-15
4.95784e-15
-2.7929e-15
-6.57807e-15
-7.11237e-15
1.80758e-15
-5.86337e-15
-1.82111e-14
-1.96093e-14
-1.06894e-14
-2.33251e-14
-2.03587e-14
-2.07057e-14
-5.07858e-14
-5.33636e-14
-1.00336e-13
-1.74e-13
-3.67057e-13
-6.66269e-13
-2.75802e-12
-8.04857e-12
3.77624e-11
8.64168e-10
-8.89567e-10
-7.5329e-10
8.09747e-10
-3.60547e-11
-1.32555e-11
-4.58971e-12
-1.10902e-12
-6.23116e-13
-2.81265e-13
-1.78791e-13
-1.03868e-13
-7.78544e-14
-5.47964e-14
-4.1387e-14
-2.79984e-14
-2.84356e-14
-1.32151e-14
-8.5626e-15
-5.64132e-15
-6.78971e-15
-8.37871e-15
1.1692e-15
-5.17988e-15
1.60288e-15
-2.5431e-15
-1.80064e-15
-4.04884e-15
-6.20337e-15
-2.18575e-16
4.61436e-16
-2.2933e-15
3.83027e-15
1.10675e-15
-3.89272e-15
-9.33975e-15
-8.95117e-16
-5.22499e-15
-6.8695e-15
-6.54685e-15
-1.60635e-15
-9.8567e-15
-1.06651e-14
-1.402e-14
-8.01789e-15
-7.04298e-15
-1.0672e-14
-1.60254e-14
-2.52715e-14
-3.88786e-14
-4.88012e-14
-7.50476e-14
-1.09208e-13
-1.84332e-13
-2.83568e-13
-6.23671e-13
-1.10932e-12
-4.59318e-12
-1.32535e-11
-3.60507e-11
8.09747e-10
-7.53253e-10
2.26203e-10
-1.13998e-10
-1.02027e-10
-6.5456e-12
-2.33257e-12
-5.52166e-13
-3.20407e-13
-1.41265e-13
-9.56249e-14
-5.37244e-14
-3.44273e-14
-2.03414e-14
-2.01228e-14
-1.40651e-14
-8.22606e-15
-8.74995e-15
-2.49453e-15
-5.8703e-15
-4.91968e-15
-4.27436e-15
-1.38084e-15
-7.2338e-15
-6.22766e-15
-2.6576e-15
-4.56579e-15
-7.79238e-15
1.21778e-15
-2.76862e-15
-2.18575e-16
7.87564e-16
-3.2821e-15
-5.78357e-15
-3.57353e-16
2.46331e-16
-2.05738e-15
-3.42434e-15
-3.41741e-15
-7.70217e-16
-2.99066e-15
-4.10783e-15
1.72432e-15
-1.52656e-16
-1.54043e-15
-3.60822e-15
-1.93942e-15
-9.6971e-15
-1.42178e-14
-1.6865e-14
-2.60278e-14
-4.08978e-14
-5.48693e-14
-9.42718e-14
-1.38604e-13
-3.20279e-13
-5.54581e-13
-2.32993e-12
-6.54891e-12
-1.02028e-10
-1.13998e-10
2.26208e-10
4.21426e-11
-2.30534e-11
-1.75544e-11
-9.86537e-13
-3.57089e-13
-8.67501e-14
-4.996e-14
-2.17708e-14
-1.48527e-14
-3.61516e-15
-1.16296e-14
1.63064e-16
2.22045e-16
-1.61329e-15
9.74915e-16
1.13798e-15
-4.9509e-15
-1.06859e-15
3.11209e-15
9.74915e-16
-1.37043e-15
2.16493e-15
1.47798e-15
-2.2482e-15
3.38271e-15
3.98986e-16
-1.1241e-15
-3.01842e-15
-1.4988e-15
-2.81719e-15
1.1692e-15
5.87724e-15
-2.668e-15
5.37764e-16
2.71658e-15
7.14706e-15
6.32827e-15
2.3731e-15
-2.2482e-15
2.42861e-15
-1.85268e-15
-2.04697e-16
-5.8599e-15
-1.76595e-15
-3.747e-16
-5.69336e-15
1.31839e-16
-7.31012e-15
-1.37043e-15
-5.06539e-15
-8.33708e-15
-1.79926e-14
-2.03379e-14
-4.88429e-14
-8.57404e-14
-3.58741e-13
-9.82551e-13
-1.75522e-11
-2.30564e-11
4.21401e-11
-6.95859e-11
3.44473e-11
3.17395e-11
2.123e-12
8.0851e-13
1.97842e-13
1.17545e-13
4.97449e-14
3.30361e-14
1.62856e-14
1.02106e-14
5.63438e-15
1.37043e-15
1.12722e-14
2.40433e-15
3.8268e-15
9.63812e-15
4.17374e-15
3.46945e-18
2.17187e-15
1.31145e-15
6.45317e-16
1.09288e-15
1.93595e-15
4.26742e-16
3.08087e-15
-6.8695e-16
4.29171e-15
-1.04083e-17
-2.82413e-15
2.13024e-15
-3.27863e-15
4.30211e-16
-3.69843e-15
-1.87697e-15
5.39499e-15
-3.09475e-15
2.38004e-15
-1.21431e-15
-1.00614e-15
5.4956e-15
-1.2941e-15
4.06619e-15
2.49106e-15
2.16493e-15
5.7454e-15
1.50574e-15
8.78811e-15
1.11959e-14
1.43913e-14
1.54807e-14
3.62245e-14
4.51479e-14
1.16518e-13
1.97294e-13
8.12277e-13
2.1259e-12
3.17353e-11
3.44473e-11
-6.9585e-11
-1.24316e-10
6.00768e-11
5.74193e-11
4.23547e-12
1.64471e-12
4.04832e-13
2.34073e-13
1.04437e-13
6.6603e-14
3.80564e-14
3.09509e-14
1.98175e-14
1.63654e-14
7.68482e-15
3.60822e-15
5.16601e-15
1.4988e-15
2.5327e-15
1.08247e-15
9.4022e-16
8.38218e-15
7.32053e-16
2.38351e-15
-2.78944e-15
-7.1991e-15
-3.08087e-15
5.14519e-15
4.32293e-15
5.44703e-16
-1.05471e-15
-9.61037e-16
3.81292e-15
-2.97679e-15
7.00828e-16
3.2023e-15
1.97758e-16
-1.17614e-15
2.72352e-15
5.89806e-17
-2.96638e-15
-1.72432e-15
5.10703e-15
-2.04003e-15
1.09496e-14
1.0339e-15
4.10436e-15
8.64586e-15
1.32672e-14
1.37772e-14
2.94209e-14
3.58602e-14
6.84418e-14
1.06592e-13
2.39933e-13
4.09513e-13
1.646e-12
4.2272e-12
5.74176e-11
6.00794e-11
-1.24318e-10
-1.63048e-10
7.6964e-11
7.59158e-11
6.24929e-12
2.46537e-12
6.2312e-13
3.69205e-13
1.52458e-13
1.05013e-13
6.05974e-14
3.77372e-14
1.96856e-14
1.68129e-14
1.67019e-14
8.7326e-15
6.13398e-15
6.33174e-15
2.83107e-15
3.46598e-15
-1.02696e-15
-1.18655e-15
3.81292e-15
5.27703e-15
3.64292e-16
1.08594e-15
3.32373e-15
-1.45023e-15
-9.02056e-17
2.73392e-15
2.89005e-15
-3.29251e-15
-1.17961e-15
2.95944e-15
-2.21351e-15
-1.29757e-15
1.1692e-15
-7.97973e-16
-1.50574e-15
3.21965e-15
3.23006e-15
7.93116e-15
2.74086e-16
8.38218e-15
4.22926e-15
1.07518e-14
1.10259e-14
1.00475e-14
1.64625e-14
2.97262e-14
4.37012e-14
5.27217e-14
1.08084e-13
1.53585e-13
3.62623e-13
6.18696e-13
2.46342e-12
6.24717e-12
7.59148e-11
7.69583e-11
-1.63051e-10
-1.98331e-10
9.14617e-11
9.28742e-11
8.50537e-12
3.41843e-12
8.78908e-13
5.15348e-13
2.23207e-13
1.45987e-13
7.44682e-14
5.91818e-14
3.75047e-14
2.95215e-14
1.94567e-14
1.60254e-14
1.01655e-14
7.75074e-15
1.27606e-14
2.39392e-15
6.48093e-15
7.24767e-15
3.26128e-15
2.9178e-15
1.02973e-14
3.31332e-15
4.27783e-15
3.50414e-15
1.76942e-16
1.6237e-15
2.51882e-15
-7.18176e-16
5.59622e-15
2.668e-15
2.59862e-15
7.11237e-16
4.17028e-15
2.27596e-15
9.22873e-16
-1.03043e-15
3.35149e-15
6.34562e-15
7.5738e-15
2.4529e-15
1.05263e-14
8.53137e-15
1.79579e-14
1.85581e-14
3.26267e-14
3.63251e-14
5.99659e-14
8.13447e-14
1.51032e-13
2.22749e-13
5.1352e-13
8.86593e-13
3.4208e-12
8.51064e-12
9.28775e-11
9.1468e-11
-1.98331e-10
-2.33131e-10
1.05059e-10
1.09596e-10
1.11215e-11
4.55127e-12
1.19641e-12
6.91436e-13
2.94698e-13
2.05117e-13
1.10616e-13
7.65256e-14
5.26038e-14
4.19595e-14
2.55733e-14
1.7545e-14
1.22923e-14
1.317e-14
7.33441e-15
7.45237e-15
8.82627e-15
6.26235e-15
1.00614e-15
4.59008e-15
-6.59195e-16
2.89352e-15
4.9509e-15
5.41234e-16
4.57273e-15
4.92661e-16
4.67681e-15
5.82173e-15
-9.92262e-16
4.96478e-15
4.04538e-15
9.71445e-16
4.4513e-15
-3.1572e-16
8.35443e-15
5.37764e-15
9.26342e-16
4.61783e-15
1.08386e-14
1.38292e-14
1.35066e-14
1.33053e-14
2.20553e-14
2.89942e-14
4.02837e-14
4.77569e-14
7.81007e-14
1.12906e-13
2.04833e-13
2.98706e-13
6.97303e-13
1.19047e-12
4.55025e-12
1.1123e-11
1.09595e-10
1.05059e-10
-2.33135e-10
-2.68041e-10
1.18046e-10
1.26293e-10
1.41297e-11
5.8797e-12
1.5744e-12
9.166e-13
3.96367e-13
2.6975e-13
1.44471e-13
1.15508e-13
6.53227e-14
4.70873e-14
3.8955e-14
2.96672e-14
2.19026e-14
1.27606e-14
1.3059e-14
1.12445e-14
8.86097e-15
9.54792e-15
1.011e-14
1.47451e-15
8.95117e-16
6.98747e-15
5.59622e-15
4.39232e-15
2.51535e-15
3.32373e-15
1.38778e-15
-2.64025e-15
1.66187e-15
2.10942e-15
3.59782e-15
4.54498e-15
2.83107e-15
5.59622e-15
1.59248e-15
4.17028e-15
6.20684e-15
7.26155e-15
9.22526e-15
1.05402e-14
1.64382e-14
2.41925e-14
2.58335e-14
3.21687e-14
4.94396e-14
6.66793e-14
1.10415e-13
1.41914e-13
2.7053e-13
3.91392e-13
9.15552e-13
1.58107e-12
5.8765e-12
1.41288e-11
1.26295e-10
1.18049e-10
-2.68041e-10
-3.0311e-10
1.30435e-10
1.42949e-10
1.75349e-11
7.42083e-12
2.03385e-12
1.18321e-12
5.13853e-13
3.49189e-13
1.90823e-13
1.39475e-13
8.44325e-14
6.72795e-14
4.27471e-14
3.14609e-14
2.89872e-14
2.22877e-14
1.6296e-14
1.71668e-14
1.26982e-14
8.56953e-16
2.9525e-15
5.27356e-15
9.29812e-15
5.30131e-15
-2.58821e-15
3.94129e-15
1.25594e-15
-2.06779e-15
1.42941e-15
7.07767e-15
4.75661e-15
3.64292e-16
7.03257e-15
3.38965e-15
1.94289e-15
3.42087e-15
1.53003e-15
6.36297e-15
1.3007e-14
9.38485e-15
1.73542e-14
1.85164e-14
1.75276e-14
2.11706e-14
3.38514e-14
4.70873e-14
6.64295e-14
8.80129e-14
1.38389e-13
1.88665e-13
3.48787e-13
5.15539e-13
1.18603e-12
2.03437e-12
7.41549e-12
1.7542e-11
1.42944e-10
1.30433e-10
-3.03107e-10
-3.38263e-10
1.42179e-10
1.59501e-10
2.13646e-11
9.17662e-12
2.57925e-12
1.49272e-12
6.48731e-13
4.38774e-13
2.35204e-13
1.78246e-13
1.11619e-13
8.80684e-14
5.91992e-14
4.86729e-14
3.18114e-14
2.49245e-14
1.88634e-14
1.62613e-14
9.31547e-15
1.47694e-14
1.07588e-14
5.15213e-15
1.11022e-15
5.55112e-16
6.64399e-15
-2.4182e-15
4.2015e-15
6.32133e-15
1.57513e-15
-7.87564e-16
2.15106e-15
4.88845e-15
6.57807e-15
4.28824e-15
7.03257e-15
6.7446e-15
1.01898e-14
1.21257e-14
7.87564e-15
1.31319e-14
1.72501e-14
2.23051e-14
3.23318e-14
3.22312e-14
5.08447e-14
6.01082e-14
8.43908e-14
1.04292e-13
1.80213e-13
2.42691e-13
4.44093e-13
6.46795e-13
1.49383e-12
2.57216e-12
9.18155e-12
2.13581e-11
1.59501e-10
1.42176e-10
-3.38263e-10
-3.73404e-10
1.53209e-10
1.75877e-10
2.56011e-11
1.11813e-11
3.20695e-12
1.8584e-12
8.13911e-13
5.55053e-13
3.01436e-13
2.22971e-13
1.35218e-13
1.06717e-13
6.67799e-14
5.79467e-14
4.1217e-14
3.49512e-14
2.7818e-14
1.96787e-14
2.14967e-14
1.13902e-14
7.73687e-15
7.78197e-15
8.73954e-15
5.55112e-15
1.82493e-15
1.16573e-14
3.50414e-16
8.67362e-16
2.09208e-15
5.72112e-15
6.99094e-15
3.08434e-15
4.82253e-16
3.08434e-15
7.71605e-15
7.99361e-15
1.1411e-14
1.31006e-14
1.09253e-14
1.65076e-14
2.08583e-14
2.79082e-14
3.01703e-14
4.00235e-14
5.56846e-14
6.92536e-14
1.0655e-13
1.40721e-13
2.21663e-13
2.98969e-13
5.51156e-13
8.15268e-13
1.85606e-12
3.20927e-12
1.11826e-11
2.56011e-11
1.75874e-10
1.53205e-10
-3.73402e-10
-4.08422e-10
1.63441e-10
1.92e-10
3.02611e-11
1.34358e-11
3.94233e-12
2.28221e-12
1.01196e-12
6.81403e-13
3.69083e-13
2.74562e-13
1.6669e-13
1.30632e-13
9.50177e-14
7.01175e-14
5.22915e-14
4.23099e-14
2.65066e-14
2.45741e-14
1.62821e-14
1.94532e-14
1.15671e-14
1.2261e-14
8.81586e-15
1.10675e-14
6.27276e-15
4.31252e-15
8.67015e-15
5.70377e-15
6.10276e-15
4.05925e-15
4.7809e-15
6.00214e-15
1.21465e-14
1.07345e-14
3.52149e-15
7.30666e-15
9.78037e-15
1.24449e-14
2.05946e-14
1.63619e-14
2.58751e-14
2.96638e-14
3.68663e-14
5.27148e-14
7.06171e-14
9.04797e-14
1.29643e-13
1.63404e-13
2.70405e-13
3.69489e-13
6.80903e-13
1.00737e-12
2.28172e-12
3.94438e-12
1.3433e-11
3.02643e-11
1.92003e-10
1.63444e-10
-4.08423e-10
-4.43207e-10
1.72821e-10
2.07807e-10
3.53505e-11
1.59479e-11
4.79453e-12
2.77285e-12
1.22576e-12
8.38385e-13
4.5142e-13
3.3425e-13
2.08476e-13
1.63175e-13
1.0485e-13
8.7097e-14
6.02296e-14
5.3596e-14
4.00027e-14
3.12667e-14
2.74364e-14
1.34719e-14
1.9356e-14
1.81105e-14
1.27294e-14
1.41276e-14
1.14249e-14
7.80279e-15
2.2031e-15
8.47239e-15
7.5738e-15
6.76889e-15
8.39606e-15
8.98587e-15
3.16067e-15
3.37577e-15
1.03563e-14
1.45335e-14
1.32221e-14
1.61607e-14
1.98418e-14
2.3849e-14
3.40908e-14
4.06723e-14
4.81837e-14
6.05765e-14
8.77944e-14
1.07803e-13
1.63529e-13
2.11098e-13
3.38313e-13
4.54522e-13
8.34201e-13
1.2343e-12
2.77574e-12
4.78887e-12
1.59395e-11
3.53468e-11
2.07805e-10
1.72819e-10
-4.43207e-10
-4.77642e-10
1.81266e-10
2.23204e-10
4.08474e-11
1.87208e-11
5.75051e-12
3.32899e-12
1.49591e-12
1.00323e-12
5.52527e-13
4.07313e-13
2.5006e-13
1.97418e-13
1.33241e-13
1.06973e-13
7.89473e-14
5.92096e-14
4.52277e-14
3.29875e-14
3.03334e-14
3.20126e-14
1.55813e-14
1.59907e-14
1.20876e-14
9.36057e-15
7.67442e-15
9.38485e-15
8.94423e-15
5.00294e-15
-2.56739e-16
1.14041e-14
2.50494e-15
5.87377e-15
1.36662e-14
1.1182e-14
1.1293e-14
1.24345e-14
1.71564e-14
2.04663e-14
2.48204e-14
2.6746e-14
3.33622e-14
4.74516e-14
6.49931e-14
7.63591e-14
1.09322e-13
1.28095e-13
1.91333e-13
2.4912e-13
4.05457e-13
5.50927e-13
1.0128e-12
1.48924e-12
3.32663e-12
5.75501e-12
1.8726e-11
4.08499e-11
2.23199e-10
1.81266e-10
-4.77644e-10
-5.11609e-10
1.88703e-10
2.38116e-10
4.67565e-11
2.1777e-11
6.85583e-12
3.96594e-12
1.79165e-12
1.20147e-12
6.63705e-13
4.84088e-13
3.02647e-13
2.3042e-13
1.58699e-13
1.25459e-13
8.15355e-14
7.41317e-14
5.17711e-14
4.76494e-14
3.5999e-14
2.65586e-14
3.08156e-14
2.0671e-14
1.67227e-14
1.55084e-14
1.16088e-14
1.17718e-14
1.31319e-14
1.45231e-14
1.55778e-14
4.89539e-15
9.47506e-15
8.31279e-15
1.01585e-14
1.12202e-14
1.56195e-14
1.91201e-14
1.67297e-14
2.64198e-14
3.61343e-14
3.46702e-14
5.39013e-14
5.21666e-14
7.0919e-14
9.26134e-14
1.26871e-13
1.59567e-13
2.37893e-13
3.0205e-13
4.90458e-13
6.61592e-13
1.19888e-12
1.7966e-12
3.96635e-12
6.85363e-12
2.17757e-11
4.67577e-11
2.3812e-10
1.88707e-10
-5.11611e-10
-5.44984e-10
1.95089e-10
2.52466e-10
5.30674e-11
2.51254e-11
8.09139e-12
4.69127e-12
2.13721e-12
1.43404e-12
7.9085e-13
5.86427e-13
3.63251e-13
2.82351e-13
1.80387e-13
1.53183e-13
1.16716e-13
9.00391e-14
6.57703e-14
5.64097e-14
4.33403e-14
3.60614e-14
2.4248e-14
2.19963e-14
1.68823e-14
1.43809e-14
1.76317e-14
9.70404e-15
1.05228e-14
9.89833e-15
6.88685e-15
1.00926e-14
1.38292e-14
1.181e-14
1.0953e-14
1.50505e-14
2.09277e-14
1.52933e-14
2.99726e-14
2.43278e-14
3.35565e-14
4.66016e-14
4.83155e-14
6.67695e-14
8.87762e-14
1.05336e-13
1.51937e-13
1.86868e-13
2.76206e-13
3.61142e-13
5.77413e-13
7.95058e-13
1.43362e-12
2.12813e-12
4.68596e-12
8.09173e-12
2.51276e-11
5.30636e-11
2.52473e-10
1.95083e-10
-5.44983e-10
-5.77649e-10
2.00334e-10
2.66178e-10
5.97493e-11
2.87577e-11
9.48021e-12
5.49051e-12
2.52337e-12
1.69129e-12
9.4097e-13
6.83242e-13
4.2857e-13
3.3119e-13
2.24203e-13
1.83322e-13
1.18711e-13
1.09773e-13
8.25728e-14
5.73604e-14
4.95576e-14
4.72816e-14
3.62418e-14
2.51674e-14
2.73288e-14
2.56531e-14
1.23027e-14
1.99181e-14
1.12514e-14
9.17669e-15
1.49325e-14
1.84887e-14
1.12792e-14
1.3399e-14
1.67887e-14
1.07622e-14
1.39923e-14
2.35333e-14
2.61978e-14
3.46945e-14
4.54775e-14
4.98074e-14
6.86499e-14
8.13169e-14
1.08386e-13
1.3024e-13
1.78638e-13
2.25341e-13
3.36772e-13
4.28657e-13
6.87683e-13
9.38871e-13
1.68869e-12
2.5293e-12
5.49816e-12
9.47753e-12
2.87553e-11
5.97508e-11
2.66178e-10
2.0034e-10
-5.77652e-10
-6.09481e-10
2.04401e-10
2.79155e-10
6.68001e-11
3.26859e-11
1.10322e-11
6.41151e-12
2.96721e-12
1.98574e-12
1.10036e-12
8.12378e-13
5.03188e-13
3.95874e-13
2.6645e-13
2.05683e-13
1.54616e-13
1.25278e-13
8.98691e-14
8.55878e-14
6.1371e-14
4.46726e-14
3.98293e-14
4.01797e-14
2.74086e-14
1.95156e-14
2.10214e-14
1.2778e-14
2.25028e-14
2.25896e-14
8.76382e-15
1.48492e-14
1.61364e-14
1.76803e-14
1.33331e-14
2.29261e-14
2.79533e-14
2.90185e-14
3.11938e-14
4.75557e-14
5.0359e-14
5.60975e-14
7.26329e-14
9.29118e-14
1.17455e-13
1.47202e-13
2.10408e-13
2.63563e-13
3.81382e-13
5.05977e-13
8.06851e-13
1.10814e-12
1.98542e-12
2.96582e-12
6.40643e-12
1.1035e-11
3.26884e-11
6.67989e-11
2.79153e-10
2.04398e-10
-6.09479e-10
-6.4036e-10
2.07241e-10
2.91327e-10
7.4168e-11
3.69092e-11
1.27545e-11
7.41459e-12
3.47499e-12
2.31651e-12
1.30275e-12
9.39776e-13
5.9272e-13
4.56822e-13
3.07403e-13
2.4962e-13
1.79173e-13
1.46258e-13
1.09749e-13
8.47308e-14
6.60964e-14
5.85747e-14
4.22822e-14
3.34732e-14
3.08573e-14
3.2873e-14
2.40363e-14
2.47614e-14
2.38767e-14
1.75138e-14
2.84217e-14
1.67227e-14
1.25178e-14
2.09069e-14
2.9126e-14
2.79533e-14
2.83003e-14
3.3442e-14
4.03184e-14
4.46899e-14
5.85192e-14
7.3587e-14
9.82339e-14
1.0944e-13
1.47837e-13
1.80304e-13
2.48291e-13
3.08458e-13
4.66422e-13
5.89306e-13
9.47013e-13
1.30093e-12
2.32118e-12
3.46981e-12
7.42013e-12
1.27587e-11
3.69066e-11
7.41726e-11
2.91329e-10
2.07239e-10
-6.40361e-10
-6.70168e-10
2.08798e-10
3.02621e-10
8.1863e-11
4.14189e-11
1.46708e-11
8.54852e-12
4.02793e-12
2.68924e-12
1.51135e-12
1.10821e-12
6.88463e-13
5.29583e-13
3.60628e-13
2.91926e-13
2.00576e-13
1.65378e-13
1.2754e-13
1.06391e-13
7.83817e-14
6.5694e-14
5.6774e-14
5.14658e-14
3.67761e-14
2.60833e-14
2.56184e-14
2.49557e-14
1.48978e-14
1.85719e-14
8.85056e-15
1.93005e-14
2.98858e-14
2.11983e-14
2.04108e-14
2.59306e-14
3.22034e-14
3.85317e-14
4.49848e-14
5.94802e-14
6.6034e-14
7.80209e-14
1.00833e-13
1.22242e-13
1.6805e-13
2.07799e-13
2.904e-13
3.62654e-13
5.34489e-13
6.96356e-13
1.10375e-12
1.51311e-12
2.68673e-12
4.032e-12
8.5425e-12
1.46603e-11
4.14263e-11
8.18604e-11
3.02616e-10
2.08799e-10
-6.70171e-10
-6.98791e-10
2.09047e-10
3.12941e-10
8.9814e-11
4.62367e-11
1.67481e-11
9.79667e-12
4.66671e-12
3.11058e-12
1.75712e-12
1.2723e-12
8.07771e-13
6.20323e-13
4.21878e-13
3.29348e-13
2.45817e-13
2.04121e-13
1.4953e-13
1.18995e-13
1.02238e-13
8.31939e-14
6.32827e-14
4.8999e-14
5.11258e-14
4.02733e-14
3.68074e-14
2.57155e-14
2.77139e-14
2.64615e-14
2.73011e-14
2.47129e-14
2.23432e-14
2.70825e-14
2.5549e-14
3.68178e-14
4.49363e-14
4.79512e-14
4.89886e-14
5.91194e-14
8.00783e-14
9.84456e-14
1.2397e-13
1.49991e-13
1.95701e-13
2.3943e-13
3.34059e-13
4.22565e-13
6.16188e-13
8.03319e-13
1.27041e-12
1.75505e-12
3.10568e-12
4.66531e-12
9.7995e-12
1.67531e-11
4.62298e-11
8.98065e-11
3.12939e-10
2.09049e-10
-6.98789e-10
-7.2611e-10
2.07959e-10
3.22225e-10
9.79829e-11
5.1317e-11
1.90471e-11
1.11671e-11
5.36977e-12
3.57461e-12
2.03494e-12
1.48152e-12
9.31942e-13
7.17398e-13
4.8991e-13
3.8395e-13
2.77382e-13
2.21448e-13
1.69923e-13
1.44312e-13
1.13062e-13
9.01466e-14
7.5856e-14
6.31613e-14
4.8319e-14
4.85549e-14
3.67935e-14
3.83166e-14
2.73115e-14
2.74399e-14
3.46181e-14
2.40988e-14
2.37588e-14
3.00003e-14
4.11927e-14
3.50137e-14
4.01276e-14
5.07962e-14
6.53436e-14
8.0564e-14
9.76233e-14
1.08188e-13
1.40225e-13
1.72043e-13
2.28501e-13
2.81667e-13
3.85369e-13
4.84685e-13
7.20837e-13
9.35679e-13
1.47243e-12
2.03388e-12
3.57683e-12
5.37427e-12
1.11708e-11
1.90527e-11
5.13154e-11
9.79878e-11
3.22225e-10
2.07961e-10
-7.26107e-10
-7.52008e-10
2.05506e-10
3.30399e-10
1.06354e-10
5.66828e-11
2.15522e-11
1.26805e-11
6.16256e-12
4.09234e-12
2.34214e-12
1.68736e-12
1.0716e-12
8.25246e-13
5.62096e-13
4.58605e-13
3.21847e-13
2.67376e-13
1.99576e-13
1.67377e-13
1.25767e-13
1.05697e-13
8.92307e-14
7.20361e-14
5.5695e-14
4.98594e-14
4.17652e-14
3.74076e-14
3.47188e-14
2.68327e-14
3.1336e-14
3.71925e-14
3.81639e-14
3.65021e-14
3.76227e-14
4.67786e-14
4.88498e-14
5.72771e-14
6.90177e-14
8.1643e-14
1.04368e-13
1.2931e-13
1.6619e-13
1.95816e-13
2.5998e-13
3.2083e-13
4.48579e-13
5.67373e-13
8.20712e-13
1.07769e-12
1.70285e-12
2.33994e-12
4.09585e-12
6.15324e-12
1.26811e-11
2.1551e-11
5.66918e-11
1.06352e-10
3.30397e-10
2.05506e-10
-7.52023e-10
-7.76417e-10
2.0169e-10
3.37405e-10
1.1485e-10
6.23166e-11
2.42602e-11
1.43374e-11
7.02971e-12
4.67859e-12
2.69101e-12
1.94457e-12
1.24439e-12
9.44123e-13
6.55673e-13
5.0656e-13
3.75273e-13
2.93741e-13
2.30031e-13
1.80515e-13
1.4435e-13
1.20955e-13
9.37445e-14
8.68437e-14
7.56756e-14
5.63299e-14
5.19029e-14
4.6612e-14
4.34444e-14
4.32293e-14
3.47916e-14
3.48437e-14
3.87433e-14
3.29355e-14
3.62974e-14
4.4912e-14
6.31335e-14
7.51066e-14
8.53484e-14
9.5271e-14
1.19897e-13
1.43767e-13
1.87968e-13
2.29816e-13
3.02387e-13
3.76345e-13
5.13086e-13
6.42351e-13
9.41931e-13
1.24004e-12
1.93502e-12
2.69035e-12
4.67735e-12
7.03181e-12
1.43397e-11
2.42573e-11
6.23068e-11
1.14846e-10
3.37404e-10
2.01693e-10
-7.76405e-10
-7.992e-10
1.96504e-10
3.43164e-10
1.23425e-10
6.81757e-11
2.71931e-11
1.6135e-11
7.99304e-12
5.31167e-12
3.06952e-12
2.21367e-12
1.41828e-12
1.08019e-12
7.39225e-13
5.81726e-13
4.24723e-13
3.476e-13
2.62346e-13
2.23873e-13
1.6917e-13
1.40495e-13
1.19797e-13
9.50698e-14
7.32886e-14
6.96006e-14
6.15931e-14
4.78159e-14
4.65565e-14
4.53595e-14
4.54983e-14
3.88509e-14
3.56312e-14
5.2694e-14
5.87377e-14
5.71765e-14
6.59403e-14
7.75456e-14
9.79564e-14
1.18967e-13
1.46001e-13
1.75252e-13
2.13652e-13
2.64167e-13
3.45619e-13
4.21971e-13
5.91745e-13
7.4565e-13
1.09126e-12
1.42191e-12
2.22386e-12
3.07108e-12
5.31961e-12
8.00197e-12
1.61324e-11
2.71937e-11
6.81833e-11
1.23427e-10
3.43165e-10
1.96501e-10
-7.99203e-10
-8.20289e-10
1.89938e-10
3.47645e-10
1.32021e-10
7.42685e-11
3.03452e-11
1.81053e-11
9.05892e-12
6.02984e-12
3.50944e-12
2.52599e-12
1.6212e-12
1.23264e-12
8.51322e-13
6.8048e-13
4.87447e-13
3.97321e-13
3.00031e-13
2.4462e-13
2.0018e-13
1.64802e-13
1.26121e-13
1.07227e-13
9.43585e-14
7.87287e-14
6.52846e-14
6.34597e-14
5.09939e-14
4.97102e-14
4.58626e-14
5.01925e-14
5.63959e-14
5.57054e-14
6.17804e-14
7.27994e-14
8.04981e-14
9.01085e-14
1.07237e-13
1.31044e-13
1.6339e-13
1.89536e-13
2.47729e-13
2.92807e-13
3.91354e-13
4.97012e-13
6.67365e-13
8.49397e-13
1.22741e-12
1.61972e-12
2.52432e-12
3.49999e-12
6.02721e-12
9.05478e-12
1.81034e-11
3.03482e-11
7.42648e-11
1.32028e-10
3.4764e-10
1.89941e-10
-8.20289e-10
-8.396e-10
1.8205e-10
3.50772e-10
1.40583e-10
8.05617e-11
3.37201e-11
2.0216e-11
1.02363e-11
6.80506e-12
3.97308e-12
2.86125e-12
1.84646e-12
1.40028e-12
9.76334e-13
7.62786e-13
5.58619e-13
4.51909e-13
3.41619e-13
2.83804e-13
2.14467e-13
1.86479e-13
1.46574e-13
1.3485e-13
1.01596e-13
9.21034e-14
7.62758e-14
6.63775e-14
6.37546e-14
5.86128e-14
5.29507e-14
5.59101e-14
5.18023e-14
5.68295e-14
6.70124e-14
7.29417e-14
8.53449e-14
1.12941e-13
1.24064e-13
1.45085e-13
1.79048e-13
2.17226e-13
2.75401e-13
3.52527e-13
4.55691e-13
5.55642e-13
7.74342e-13
9.69193e-13
1.40267e-12
1.84361e-12
2.86023e-12
3.98045e-12
6.8068e-12
1.02395e-11
2.02215e-11
3.37227e-11
8.05601e-11
1.40582e-10
3.50778e-10
1.82049e-10
-8.39603e-10
-8.57059e-10
1.72824e-10
3.52536e-10
1.49034e-10
8.70136e-11
3.7329e-11
2.2504e-11
1.15211e-11
7.67415e-12
4.50614e-12
3.24639e-12
2.09655e-12
1.5974e-12
1.1053e-12
8.68354e-13
6.3663e-13
5.12562e-13
3.88831e-13
3.10054e-13
2.56687e-13
2.07428e-13
1.70773e-13
1.3688e-13
1.20959e-13
9.77378e-14
8.99454e-14
7.85691e-14
6.38517e-14
6.43201e-14
6.23009e-14
6.4497e-14
6.52464e-14
7.02355e-14
7.55056e-14
9.16975e-14
9.70404e-14
1.10113e-13
1.44849e-13
1.65184e-13
2.11709e-13
2.55618e-13
3.22638e-13
3.86299e-13
5.11421e-13
6.3359e-13
8.61013e-13
1.10559e-12
1.59669e-12
2.10456e-12
3.24443e-12
4.49974e-12
7.66582e-12
1.1513e-11
2.25074e-11
3.73294e-11
8.70164e-11
1.49034e-10
3.5253e-10
1.72828e-10
-8.57054e-10
-8.72599e-10
1.62334e-10
3.52873e-10
1.57306e-10
9.36317e-11
4.11416e-11
2.49659e-11
1.29114e-11
8.60629e-12
5.09184e-12
3.65715e-12
2.37413e-12
1.80339e-12
1.24991e-12
9.85958e-13
7.19657e-13
5.81538e-13
4.44273e-13
3.75228e-13
2.85719e-13
2.36876e-13
1.93137e-13
1.63404e-13
1.36318e-13
1.22485e-13
9.9365e-14
9.00599e-14
7.99187e-14
7.02355e-14
7.42947e-14
7.14498e-14
7.73097e-14
7.45515e-14
9.46465e-14
9.36473e-14
1.13961e-13
1.40145e-13
1.62145e-13
1.9543e-13
2.40332e-13
2.8413e-13
3.65295e-13
4.4011e-13
5.85202e-13
7.2432e-13
9.92071e-13
1.25665e-12
1.79668e-12
2.37485e-12
3.66089e-12
5.09381e-12
8.61077e-12
1.29188e-11
2.49613e-11
4.11403e-11
9.36307e-11
1.57307e-10
3.52873e-10
1.62323e-10
-8.72604e-10
-8.86181e-10
1.50611e-10
3.51783e-10
1.65346e-10
1.00324e-10
4.51867e-11
2.75964e-11
1.44448e-11
9.6369e-12
5.73704e-12
4.12394e-12
2.68992e-12
2.03571e-12
1.42769e-12
1.11867e-12
8.21794e-13
6.5686e-13
5.02268e-13
4.08992e-13
3.26038e-13
2.70707e-13
2.15231e-13
1.8277e-13
1.47722e-13
1.26395e-13
1.12989e-13
9.63743e-14
9.62667e-14
8.56155e-14
8.17124e-14
8.3409e-14
8.09387e-14
9.49692e-14
9.36438e-14
1.20598e-13
1.42383e-13
1.46057e-13
1.8251e-13
2.13291e-13
2.65222e-13
3.24317e-13
4.13461e-13
5.06529e-13
6.57099e-13
8.21589e-13
1.11053e-12
1.41445e-12
2.03841e-12
2.68705e-12
4.11737e-12
5.73721e-12
9.64301e-12
1.44408e-11
2.76029e-11
4.51872e-11
1.00321e-10
1.65348e-10
3.51785e-10
1.50619e-10
-8.86177e-10
-8.97749e-10
1.37719e-10
3.49231e-10
1.73055e-10
1.07092e-10
4.94354e-11
3.04116e-11
1.61029e-11
1.07592e-11
6.43959e-12
4.61506e-12
3.02937e-12
2.29005e-12
1.59997e-12
1.25369e-12
9.24302e-13
7.46549e-13
5.72865e-13
4.71782e-13
3.71279e-13
3.0579e-13
2.53915e-13
2.07369e-13
1.72477e-13
1.4648e-13
1.29119e-13
1.17125e-13
9.618e-14
9.56527e-14
9.24781e-14
9.16385e-14
9.82374e-14
9.67143e-14
1.09777e-13
1.25393e-13
1.4001e-13
1.74766e-13
2.08684e-13
2.50657e-13
3.0459e-13
3.72674e-13
4.6969e-13
5.70287e-13
7.47392e-13
9.24993e-13
1.26315e-12
1.60819e-12
2.29153e-12
3.03139e-12
4.63424e-12
6.43949e-12
1.0757e-11
1.60976e-11
3.04003e-11
4.9432e-11
1.07106e-10
1.73057e-10
3.49227e-10
1.37714e-10
-8.97755e-10
-9.07283e-10
1.23731e-10
3.45247e-10
1.80381e-10
1.13893e-10
5.3883e-11
3.33846e-11
1.7887e-11
1.19811e-11
7.21147e-12
5.19611e-12
3.40488e-12
2.57815e-12
1.80843e-12
1.4181e-12
1.04651e-12
8.37976e-13
6.42444e-13
5.23453e-13
4.11612e-13
3.4444e-13
2.7928e-13
2.37279e-13
1.95972e-13
1.73351e-13
1.44131e-13
1.19873e-13
1.18131e-13
1.06037e-13
1.0306e-13
1.05162e-13
1.05669e-13
1.20518e-13
1.36714e-13
1.45217e-13
1.69715e-13
1.97179e-13
2.37692e-13
2.7885e-13
3.50883e-13
4.15657e-13
5.2405e-13
6.36862e-13
8.3742e-13
1.04658e-12
1.41227e-12
1.80225e-12
2.57705e-12
3.41336e-12
5.18611e-12
7.21789e-12
1.1986e-11
1.78883e-11
3.33934e-11
5.38885e-11
1.13881e-10
1.8038e-10
3.45248e-10
1.23732e-10
-9.07283e-10
-9.14764e-10
1.08712e-10
3.39787e-10
1.87237e-10
1.20655e-10
5.85186e-11
3.65428e-11
1.98142e-11
1.33062e-11
8.07784e-12
5.79113e-12
3.82832e-12
2.89177e-12
2.03467e-12
1.58245e-12
1.17716e-12
9.4777e-13
7.24198e-13
6.00395e-13
4.69524e-13
3.86469e-13
3.17642e-13
2.66769e-13
2.27422e-13
1.90986e-13
1.55081e-13
1.53353e-13
1.2948e-13
1.22454e-13
1.12563e-13
1.18097e-13
1.25691e-13
1.26545e-13
1.33112e-13
1.6246e-13
1.92815e-13
2.19727e-13
2.58252e-13
3.17864e-13
3.8277e-13
4.70898e-13
5.89754e-13
7.27175e-13
9.44869e-13
1.17304e-12
1.59391e-12
2.04223e-12
2.89121e-12
3.82252e-12
5.79406e-12
8.06726e-12
1.33002e-11
1.98248e-11
3.65462e-11
5.85082e-11
1.20663e-10
1.87242e-10
3.39788e-10
1.08718e-10
-9.14767e-10
-9.20189e-10
9.27758e-11
3.3292e-10
1.93558e-10
1.27356e-10
6.33224e-11
3.98828e-11
2.18966e-11
1.4728e-11
8.98761e-12
6.46419e-12
4.28209e-12
3.23155e-12
2.28137e-12
1.79861e-12
1.32295e-12
1.0617e-12
8.1616e-13
6.62078e-13
5.25642e-13
4.36786e-13
3.51958e-13
2.96457e-13
2.42039e-13
2.07969e-13
1.92537e-13
1.53925e-13
1.4749e-13
1.40853e-13
1.35177e-13
1.3281e-13
1.31246e-13
1.45429e-13
1.73528e-13
1.7927e-13
2.12611e-13
2.46702e-13
3.01866e-13
3.48839e-13
4.42469e-13
5.22523e-13
6.71029e-13
8.1745e-13
1.06892e-12
1.32912e-12
1.79034e-12
2.28353e-12
3.23727e-12
4.28067e-12
6.46153e-12
8.99834e-12
1.4737e-11
2.18881e-11
3.98765e-11
6.33274e-11
1.27345e-10
1.93548e-10
3.32917e-10
9.27756e-11
-9.20187e-10
-9.23548e-10
7.59887e-11
3.24632e-10
1.99267e-10
1.3391e-10
6.82696e-11
4.33714e-11
2.41129e-11
1.6277e-11
1.00135e-11
7.19008e-12
4.78484e-12
3.61949e-12
2.56323e-12
1.99809e-12
1.48127e-12
1.18791e-12
9.18876e-13
7.57505e-13
5.97057e-13
4.97238e-13
4.06637e-13
3.35235e-13
2.86347e-13
2.39544e-13
1.98792e-13
1.88474e-13
1.65912e-13
1.51219e-13
1.47968e-13
1.47406e-13
1.58734e-13
1.72893e-13
1.79665e-13
2.09725e-13
2.39246e-13
2.7707e-13
3.3851e-13
4.11258e-13
4.89792e-13
5.91943e-13
7.50656e-13
9.12097e-13
1.18625e-12
1.47976e-12
1.99849e-12
2.55259e-12
3.61885e-12
4.79778e-12
7.19801e-12
1.00018e-11
1.62717e-11
2.41176e-11
4.33783e-11
6.82729e-11
1.33917e-10
1.99279e-10
3.24642e-10
7.59832e-11
-9.23548e-10
-9.24899e-10
5.84818e-11
3.14997e-10
2.04294e-10
1.40305e-10
7.33611e-11
4.70371e-11
2.64785e-11
1.79311e-11
1.10987e-11
7.99207e-12
5.34964e-12
4.02765e-12
2.86312e-12
2.23199e-12
1.6664e-12
1.33318e-12
1.02563e-12
8.29142e-13
6.68712e-13
5.50712e-13
4.43437e-13
3.76584e-13
3.10592e-13
2.74159e-13
2.33921e-13
2.02869e-13
1.84408e-13
1.74836e-13
1.70593e-13
1.75828e-13
1.74718e-13
1.76869e-13
2.13368e-13
2.36585e-13
2.65957e-13
3.26555e-13
3.76317e-13
4.42216e-13
5.51299e-13
6.75016e-13
8.36352e-13
1.03111e-12
1.32826e-12
1.67435e-12
2.23777e-12
2.86536e-12
4.02656e-12
5.33703e-12
7.98052e-12
1.11093e-11
1.79367e-11
2.64761e-11
4.70331e-11
7.33527e-11
1.40294e-10
2.04287e-10
3.14991e-10
5.8485e-11
-9.24896e-10
-9.24224e-10
4.03329e-11
3.04037e-10
2.08593e-10
1.46446e-10
7.85256e-11
5.08371e-11
2.90069e-11
1.97054e-11
1.22828e-11
8.85053e-12
5.94067e-12
4.48932e-12
3.19601e-12
2.49507e-12
1.87352e-12
1.49384e-12
1.1553e-12
9.45671e-13
7.42625e-13
6.17558e-13
5.09849e-13
4.26534e-13
3.55972e-13
3.05821e-13
2.62675e-13
2.29136e-13
2.10301e-13
1.9942e-13
1.81844e-13
1.7459e-13
1.91271e-13
2.16986e-13
2.19411e-13
2.56361e-13
3.03455e-13
3.51254e-13
4.24681e-13
5.13443e-13
6.1269e-13
7.40449e-13
9.4063e-13
1.15135e-12
1.49277e-12
1.85112e-12
2.48978e-12
3.19603e-12
4.48618e-12
5.94558e-12
8.85639e-12
1.22835e-11
1.97042e-11
2.90091e-11
5.0844e-11
7.85325e-11
1.46458e-10
2.08585e-10
3.04033e-10
4.03344e-11
-9.24234e-10
-9.21605e-10
2.16903e-11
2.91824e-10
2.12048e-10
1.52303e-10
8.37859e-11
5.47928e-11
3.16657e-11
2.16064e-11
1.35728e-11
9.78164e-12
6.6015e-12
4.98109e-12
3.56175e-12
2.7844e-12
2.06628e-12
1.66401e-12
1.28232e-12
1.05327e-12
8.32778e-13
6.9425e-13
5.64937e-13
4.73066e-13
3.94896e-13
3.31707e-13
2.90028e-13
2.60264e-13
2.27773e-13
2.09999e-13
2.187e-13
2.19366e-13
2.23665e-13
2.21e-13
2.63893e-13
2.93265e-13
3.41598e-13
3.90122e-13
4.72049e-13
5.59514e-13
7.01248e-13
8.34607e-13
1.04939e-12
1.28603e-12
1.66618e-12
2.08459e-12
2.78783e-12
3.56075e-12
4.98587e-12
6.60631e-12
9.78015e-12
1.35738e-11
2.16074e-11
3.16643e-11
5.47928e-11
8.37884e-11
1.52301e-10
2.12058e-10
2.91828e-10
2.16925e-11
-9.21597e-10
-9.17092e-10
2.6563e-12
2.78436e-10
2.14685e-10
1.57812e-10
8.90709e-11
5.88469e-11
3.44906e-11
2.36277e-11
1.49573e-11
1.08008e-11
7.33192e-12
5.53199e-12
3.96038e-12
3.09506e-12
2.3253e-12
1.85196e-12
1.43938e-12
1.16819e-12
9.37108e-13
7.72125e-13
6.26776e-13
5.32172e-13
4.46095e-13
3.82264e-13
3.27228e-13
2.9178e-13
2.61888e-13