/*--------------------------------*- C++ -*----------------------------------*\
| =========                 |                                                 |
| \\      /  F ield         | foam-extend: Open Source CFD                    |
|  \\    /   O peration     | Version:     4.0                                |
|   \\  /    A nd           | Web:         http://www.foam-extend.org         |
|    \\/     M anipulation  |                                                 |
\*---------------------------------------------------------------------------*/
FoamFile
{
    version     2.0;
    format      ascii;
    class       volScalarField;
    location    "3";
    object      dC2;
}
// * * * * * * * * * * * * * * * * * * * * * * * * * * * * * * * * * * * * * //

dimensions      [0 -1 0 0 0 0 0];

internalField   nonuniform List<scalar> 
6960
(
6.50831e-10
-6.32065e-10
-2.76225e-11
5.8845e-12
2.00617e-12
4.90184e-13
2.72392e-13
1.25666e-13
7.82044e-14
4.67753e-14
3.7051e-14
2.59574e-14
1.5085e-14
1.27267e-14
6.20955e-15
9.57506e-16
7.39707e-15
5.2776e-15
1.4878e-15
7.53812e-15
-3.09766e-16
2.43225e-15
-1.12162e-15
3.41099e-15
6.35004e-15
1.67852e-15
2.9248e-15
-7.02218e-16
5.1944e-15
-3.18938e-15
1.68457e-15
2.77141e-15
1.84269e-15
-2.29706e-15
3.92884e-16
2.17355e-15
8.11655e-17
6.73977e-15
2.7433e-15
3.36074e-15
5.59618e-15
3.12692e-15
5.61799e-15
8.87013e-15
7.80316e-15
6.38836e-15
1.04081e-14
1.44583e-14
1.87346e-14
3.53925e-14
4.80358e-14
7.74258e-14
1.26726e-13
2.70091e-13
4.90303e-13
2.01082e-12
5.88266e-12
-2.76228e-11
-6.32063e-10
6.50635e-10
5.00098e-10
-5.67178e-10
4.9758e-11
1.12404e-11
3.90909e-12
9.34004e-13
5.29156e-13
2.33991e-13
1.52088e-13
8.43188e-14
5.87093e-14
4.37394e-14
3.05768e-14
2.6334e-14
1.79759e-14
1.56546e-14
2.65518e-16
7.92902e-15
1.01316e-14
5.58258e-15
3.94445e-15
8.15198e-15
2.58019e-15
5.02393e-16
1.51663e-15
2.16599e-16
4.96414e-15
8.2934e-15
-3.78694e-15
4.66347e-15
-7.55969e-16
2.30913e-15
-7.02531e-16
6.09209e-15
4.53662e-15
2.72698e-15
3.34391e-15
2.07158e-15
4.65902e-15
1.00778e-14
2.93615e-15
6.58152e-15
7.21501e-15
7.31455e-15
1.64802e-14
2.12668e-14
2.65935e-14
2.40198e-14
4.60458e-14
6.18138e-14
8.36185e-14
1.55714e-13
2.3802e-13
5.39563e-13
9.33497e-13
3.90936e-12
1.12485e-11
4.97531e-11
-5.67178e-10
5.0007e-10
-2.82522e-10
1.43845e-10
1.26264e-10
7.97136e-12
2.84972e-12
6.76614e-13
3.9625e-13
1.72045e-13
1.09535e-13
6.02938e-14
4.66938e-14
3.08472e-14
2.29638e-14
1.54955e-14
1.14629e-14
6.54713e-15
8.42348e-15
1.06579e-14
2.94962e-15
2.5161e-15
-2.39039e-15
8.00631e-15
-5.33962e-15
8.62843e-15
5.85202e-15
6.80472e-15
2.40535e-15
-8.95396e-15
-8.76139e-16
1.3924e-15
9.60051e-15
-2.43813e-15
1.21714e-14
-3.71713e-15
9.33666e-16
-5.19167e-16
3.75358e-16
5.14987e-15
1.5288e-15
9.83208e-16
8.91694e-15
3.18563e-16
-1.1778e-15
1.09909e-14
1.27684e-14
6.8142e-15
1.25885e-14
1.63449e-14
2.57832e-14
4.80529e-14
6.76302e-14
1.15974e-13
1.76249e-13
3.90748e-13
6.80689e-13
2.85989e-12
7.97067e-12
1.2626e-10
1.43844e-10
-2.82518e-10
-1.73483e-10
9.11854e-11
7.52894e-11
4.45522e-12
1.64534e-12
3.93056e-13
2.24648e-13
1.01482e-13
6.6073e-14
4.21532e-14
2.33546e-14
1.91182e-14
2.004e-14
3.42579e-15
1.17346e-14
4.9368e-15
-3.09876e-15
7.71345e-16
3.54865e-15
6.16589e-15
-3.93736e-15
-1.59547e-15
1.13666e-14
-4.96045e-15
2.80346e-15
-5.84396e-15
-3.19906e-15
4.14616e-15
1.91109e-15
2.43046e-15
-2.34673e-15
1.96196e-15
-3.18746e-15
-2.57336e-15
-3.30734e-15
4.41436e-15
2.74264e-15
-3.06004e-15
-1.60809e-15
-1.53801e-15
-1.99905e-15
7.22431e-15
9.19164e-15
2.85381e-15
7.70497e-15
8.95826e-15
6.90625e-15
1.1502e-14
1.68973e-14
3.07918e-14
3.75689e-14
5.99158e-14
1.00833e-13
2.25099e-13
4.02901e-13
1.63761e-12
4.45469e-12
7.52845e-11
9.11862e-11
-1.73497e-10
-1.26067e-10
6.29686e-11
5.71465e-11
3.72409e-12
1.4131e-12
3.49563e-13
2.02421e-13
8.7226e-14
5.96062e-14
2.25606e-14
2.20952e-14
1.43945e-14
1.22244e-14
9.17039e-15
1.09954e-14
3.0121e-15
4.17816e-15
1.98466e-16
3.87465e-15
1.18299e-15
6.70702e-15
5.65383e-15
-4.25625e-15
7.49066e-15
5.04357e-15
7.4146e-15
1.46567e-15
5.34237e-15
4.48941e-16
-8.37153e-15
1.74651e-15
-9.53449e-16
4.6411e-16
-4.06696e-15
-4.7248e-15
1.84129e-15
6.83937e-15
-1.8983e-15
1.25234e-15
-4.90873e-16
1.13203e-14
3.25494e-15
-3.41415e-15
4.50139e-15
9.88911e-15
5.16168e-15
1.48228e-14
1.3149e-14
1.20506e-14
1.86923e-14
2.88835e-14
6.20744e-14
7.93253e-14
1.99489e-13
3.39485e-13
1.41799e-12
3.71632e-12
5.71465e-11
6.29641e-11
-1.26052e-10
-1.36718e-10
6.61408e-11
6.31175e-11
4.63657e-12
1.79518e-12
4.43678e-13
2.61695e-13
1.02831e-13
7.20353e-14
4.88884e-14
3.36869e-14
1.86271e-14
9.6084e-15
6.38007e-15
1.42171e-14
9.24271e-15
1.02084e-14
8.73637e-15
-2.24776e-15
-2.74291e-15
-6.35348e-18
-8.83503e-16
-4.02625e-16
-6.46475e-15
2.70114e-15
2.16011e-15
-1.17218e-15
-5.75985e-15
1.74804e-15
7.61684e-15
1.07404e-15
-2.66095e-16
-9.97941e-16
6.2498e-15
2.1988e-15
-1.18787e-15
3.5299e-15
8.40299e-15
3.34974e-15
-2.0904e-15
-1.81981e-17
1.37691e-15
1.38776e-15
6.57556e-16
1.37358e-15
9.20733e-15
1.5562e-15
1.15877e-14
1.2829e-14
2.30533e-14
4.14787e-14
7.62121e-14
1.11994e-13
2.64029e-13
4.44605e-13
1.79676e-12
4.63487e-12
6.31238e-11
6.61412e-11
-1.36729e-10
-1.65495e-10
7.81257e-11
7.70554e-11
6.3403e-12
2.50127e-12
6.3137e-13
3.61109e-13
1.62885e-13
1.06346e-13
5.82535e-14
4.06883e-14
2.32983e-14
2.2095e-14
1.24915e-14
1.16514e-14
1.78204e-15
3.53041e-15
1.08781e-14
6.36192e-15
8.35166e-15
6.36611e-15
1.09321e-15
-3.41757e-16
8.51971e-15
-2.51283e-15
-5.24191e-15
2.18072e-15
-1.22237e-15
6.86346e-15
-1.13775e-15
-1.76854e-15
3.84507e-16
2.96833e-15
4.54813e-15
-1.47948e-15
-2.43269e-15
-6.18271e-15
-5.57412e-15
4.33946e-15
-1.56702e-15
1.23296e-14
5.82517e-15
4.58369e-15
5.1327e-15
9.48688e-15
2.69748e-15
1.69762e-14
1.4011e-14
2.44031e-14
4.83926e-14
5.82968e-14
1.02729e-13
1.60863e-13
3.66153e-13
6.28395e-13
2.4956e-12
6.34263e-12
7.70495e-11
7.81116e-11
-1.65483e-10
-1.9877e-10
9.16637e-11
9.30785e-11
8.5216e-12
3.43252e-12
8.82988e-13
5.23002e-13
2.18497e-13
1.4959e-13
7.91668e-14
5.56154e-14
3.8371e-14
3.20397e-14
2.10062e-14
1.2387e-14
1.09173e-14
5.32653e-15
1.18666e-14
3.59453e-15
-3.82751e-15
2.05809e-15
4.50828e-15
8.25208e-15
4.17586e-15
1.06846e-14
2.18609e-15
1.4029e-15
9.38157e-15
-4.09037e-15
8.56731e-16
2.01069e-15
1.39469e-14
-8.29422e-15
-1.56389e-15
1.45278e-17
8.25529e-15
1.17058e-14
2.30926e-15
2.1388e-15
5.64781e-15
6.48411e-16
1.07616e-14
1.03159e-14
1.64076e-14
8.32684e-15
1.76529e-14
1.82602e-14
3.22228e-14
3.03737e-14
5.91393e-14
8.14958e-14
1.5046e-13
2.21893e-13
5.16953e-13
8.89831e-13
3.43126e-12
8.5224e-12
9.30873e-11
9.16633e-11
-1.98769e-10
-2.3321e-10
1.05091e-10
1.09632e-10
1.11341e-11
4.55052e-12
1.19122e-12
6.93345e-13
2.98634e-13
2.04542e-13
1.12893e-13
8.0538e-14
5.17542e-14
4.02351e-14
2.45961e-14
1.58677e-14
1.30304e-14
1.1662e-14
9.48911e-15
6.80356e-15
8.95241e-15
6.90753e-15
2.02474e-15
-1.18197e-15
-7.58235e-15
1.38618e-15
5.32792e-16
1.24778e-15
-7.78423e-15
3.16972e-15
-4.25628e-15
6.20618e-15
4.93344e-15
9.55842e-16
-6.2457e-15
2.28368e-15
-5.75245e-16
-6.121e-17
6.82401e-15
7.49696e-15
3.11255e-15
1.25532e-14
6.58354e-15
8.77238e-15
1.13259e-14
1.4604e-14
2.40663e-14
2.85812e-14
3.43479e-14
5.75638e-14
8.85669e-14
1.12271e-13
2.06239e-13
2.9796e-13
6.93256e-13
1.19706e-12
4.55438e-12
1.1131e-11
1.09621e-10
1.05102e-10
-2.33209e-10
-2.68058e-10
1.18056e-10
1.26306e-10
1.4128e-11
5.87671e-12
1.58206e-12
9.19355e-13
3.92968e-13
2.70363e-13
1.41645e-13
1.13175e-13
6.52736e-14
5.1308e-14
3.08506e-14
2.74896e-14
2.24474e-14
1.57435e-14
1.51653e-14
1.14223e-14
5.62535e-15
2.82999e-15
5.09688e-15
-8.5345e-16
5.15062e-15
8.51067e-15
4.05623e-15
2.1416e-15
2.92746e-15
-7.25983e-15
-8.50246e-16
3.30083e-15
-3.9994e-15
7.89857e-15
1.02913e-14
3.67578e-15
5.6731e-15
1.14804e-14
2.22456e-15
3.49477e-15
3.69996e-15
-3.63216e-15
1.25106e-14
1.53131e-14
1.32469e-14
2.07914e-14
2.34765e-14
3.05768e-14
5.61881e-14
6.26769e-14
1.05613e-13
1.33483e-13
2.73499e-13
4.00891e-13
9.15937e-13
1.57947e-12
5.88437e-12
1.41319e-11
1.26303e-10
1.18051e-10
-2.68047e-10
-3.03117e-10
1.30436e-10
1.42952e-10
1.7538e-11
7.42021e-12
2.02624e-12
1.17162e-12
5.12665e-13
3.54142e-13
1.90159e-13
1.33766e-13
7.80221e-14
5.99784e-14
4.68974e-14
3.4207e-14
3.13121e-14
2.39657e-14
1.89302e-14
1.35158e-14
1.02713e-14
9.31975e-15
8.43723e-15
8.31362e-15
6.26221e-15
2.91646e-15
1.84681e-15
-1.98353e-15
3.65712e-15
1.83461e-15
7.95956e-15
6.39813e-15
7.49024e-15
-4.41609e-15
9.88836e-17
3.08016e-15
6.99416e-15
7.12383e-17
5.86873e-15
5.28583e-15
1.74618e-14
1.90173e-14
1.08054e-14
1.39863e-14
2.36015e-14
2.65172e-14
3.31734e-14
4.693e-14
6.52339e-14
8.67892e-14
1.40462e-13
1.90917e-13
3.42671e-13
5.14808e-13
1.18839e-12
2.03699e-12
7.41509e-12
1.75352e-11
1.42947e-10
1.30436e-10
-3.03118e-10
-3.38263e-10
1.42184e-10
1.59501e-10
2.13609e-11
9.18538e-12
2.58262e-12
1.4928e-12
6.5611e-13
4.35984e-13
2.39222e-13
1.75025e-13
1.12652e-13
8.55917e-14
5.27853e-14
4.55165e-14
3.18268e-14
2.61744e-14
2.28067e-14
1.83576e-14
8.87804e-15
1.229e-14
1.00098e-14
7.10998e-15
4.60685e-15
6.23641e-15
-9.63823e-16
9.19378e-16
-1.71602e-15
6.15179e-15
8.85897e-16
7.15986e-15
3.57652e-15
6.2401e-15
8.9096e-15
8.4877e-15
4.58472e-15
1.33941e-14
3.46382e-15
1.11605e-14
7.29781e-15
9.11324e-15
1.66272e-14
2.68652e-14
1.92952e-14
3.61328e-14
4.92778e-14
5.55121e-14
8.82569e-14
1.06812e-13
1.72693e-13
2.41813e-13
4.44081e-13
6.49447e-13
1.49372e-12
2.57409e-12
9.18264e-12
2.13656e-11
1.59498e-10
1.42174e-10
-3.38266e-10
-3.7341e-10
1.53209e-10
1.75876e-10
2.55924e-11
1.11788e-11
3.20571e-12
1.85765e-12
8.08058e-13
5.52218e-13
3.05814e-13
2.17738e-13
1.35535e-13
1.05996e-13
6.80925e-14
6.25305e-14
4.51446e-14
2.79275e-14
2.56449e-14
1.62199e-14
1.5551e-14
1.90239e-14
9.79197e-15
1.00131e-14
1.20544e-14
-3.5661e-16
8.14505e-15
2.51079e-15
-2.24087e-16
3.17027e-15
5.44232e-16
3.92824e-15
5.96155e-15
5.65342e-15
1.68276e-15
1.79748e-16
5.4661e-15
5.13204e-15
1.50874e-14
8.15783e-15
1.88288e-14
1.29225e-14
1.80471e-14
3.00199e-14
3.30385e-14
4.20619e-14
5.45617e-14
6.9816e-14
1.06317e-13
1.37696e-13
2.1813e-13
3.03053e-13
5.51549e-13
8.12805e-13
1.85678e-12
3.20972e-12
1.1176e-11
2.55986e-11
1.75877e-10
1.5321e-10
-3.73408e-10
-4.08418e-10
1.63437e-10
1.92006e-10
3.02692e-11
1.34353e-11
3.94684e-12
2.28151e-12
1.01287e-12
6.73514e-13
3.61208e-13
2.81938e-13
1.70555e-13
1.32375e-13
8.96078e-14
6.71011e-14
4.61982e-14
3.8333e-14
2.85862e-14
3.28532e-14
1.80055e-14
1.65434e-14
1.00879e-14
9.41562e-15
9.19723e-15
9.59469e-15
6.25305e-15
9.31174e-15
2.21031e-15
-9.70474e-16
7.59351e-15
1.32829e-15
1.07967e-14
1.77722e-15
9.25575e-15
1.21813e-14
1.12712e-14
1.02955e-14
8.46627e-15
1.15512e-14
1.69438e-14
2.16621e-14
2.31612e-14
2.10737e-14
3.41377e-14
5.25787e-14
7.4384e-14
8.82628e-14
1.30265e-13
1.64131e-13
2.75461e-13
3.6345e-13
6.80288e-13
1.0103e-12
2.27939e-12
3.94202e-12
1.34325e-11
3.02667e-11
1.92002e-10
1.63441e-10
-4.08427e-10
-4.43212e-10
1.72829e-10
2.07802e-10
3.53487e-11
1.59408e-11
4.78624e-12
2.78082e-12
1.22862e-12
8.37647e-13
4.55125e-13
3.29645e-13
2.07176e-13
1.59885e-13
1.09795e-13
8.64615e-14
5.94248e-14
5.03083e-14
3.92385e-14
2.92691e-14
2.47862e-14
1.53016e-14
2.09764e-14
1.48126e-14
1.7781e-14
1.13644e-14
7.4893e-15
6.88898e-15
1.30572e-14
5.71511e-15
2.81802e-15
6.25683e-15
7.88557e-15
8.69036e-15
8.44325e-15
2.48148e-15
8.53191e-15
1.58711e-14
1.38722e-14
1.66929e-14
1.78636e-14
2.30006e-14
2.88429e-14
3.87203e-14
5.53604e-14
5.77276e-14
8.15045e-14
1.02286e-13
1.57489e-13
2.14202e-13
3.41624e-13
4.56779e-13
8.315e-13
1.2324e-12
2.77689e-12
4.78121e-12
1.59332e-11
3.53482e-11
2.07797e-10
1.72825e-10
-4.43206e-10
-4.77643e-10
1.81271e-10
2.23205e-10
4.08514e-11
1.87229e-11
5.75377e-12
3.32313e-12
1.49658e-12
9.98644e-13
5.49521e-13
4.09866e-13
2.52544e-13
1.96458e-13
1.33269e-13
1.03094e-13
7.6507e-14
5.907e-14
4.46122e-14
3.64092e-14
3.38916e-14
2.56363e-14
1.79737e-14
1.43881e-14
1.21979e-14
1.0767e-14
1.59131e-14
8.44857e-15
1.02653e-15
1.55525e-15
7.29026e-15
1.31262e-14
2.59285e-15
1.06184e-14
7.31471e-15
9.59579e-15
1.31031e-14
9.14142e-15
1.07162e-14
2.47601e-14
2.35976e-14
3.3895e-14
3.53822e-14
4.91265e-14
5.93465e-14
7.71749e-14
1.04674e-13
1.3511e-13
1.93523e-13
2.39281e-13
3.97957e-13
5.54606e-13
1.00417e-12
1.49512e-12
3.32411e-12
5.75468e-12
1.87288e-11
4.08533e-11
2.23209e-10
1.81267e-10
-4.77648e-10
-5.1161e-10
1.88711e-10
2.38121e-10
4.6756e-11
2.17825e-11
6.86043e-12
3.97175e-12
1.78909e-12
1.20779e-12
6.61309e-13
4.79296e-13
3.06477e-13
2.33436e-13
1.60276e-13
1.26374e-13
8.26859e-14
6.96263e-14
5.64571e-14
4.24238e-14
3.8275e-14
2.24801e-14
2.53532e-14
2.45704e-14
1.67913e-14
1.87615e-14
1.01248e-14
1.20867e-14
1.30332e-14
1.89457e-14
1.26856e-14
2.28928e-15
7.43572e-15
4.53321e-15
7.0825e-15
1.89846e-14
1.57155e-14
1.47875e-14
1.93375e-14
3.18257e-14
2.77468e-14
3.6091e-14
5.41467e-14
4.81615e-14
7.66872e-14
8.87271e-14
1.25365e-13
1.56055e-13
2.34853e-13
2.99741e-13
4.9758e-13
6.60756e-13
1.20098e-12
1.78864e-12
3.96919e-12
6.85534e-12
2.17791e-11
4.67529e-11
2.38119e-10
1.88711e-10
-5.11612e-10
-5.44983e-10
1.95092e-10
2.5247e-10
5.30674e-11
2.5131e-11
8.09386e-12
4.68508e-12
2.13823e-12
1.42956e-12
7.92359e-13
5.86396e-13
3.60245e-13
2.78848e-13
1.81307e-13
1.50125e-13
1.16012e-13
9.1595e-14
6.60247e-14
5.77008e-14
4.34221e-14
4.00307e-14
3.5238e-14
2.3523e-14
2.21186e-14
1.95092e-14
1.74078e-14
7.28204e-15
1.08245e-14
2.36299e-15
7.16132e-15
1.00025e-14
8.39957e-15
9.25346e-15
1.82585e-14
6.93391e-15
1.20902e-14
2.23205e-14
2.58416e-14
2.40721e-14
3.71973e-14
4.0709e-14
5.12286e-14
7.19743e-14
9.23163e-14
1.13087e-13
1.56792e-13
1.88034e-13
2.74571e-13
3.61973e-13
5.76295e-13
7.92542e-13
1.43136e-12
2.12743e-12
4.6812e-12
8.08834e-12
2.51315e-11
5.30673e-11
2.52479e-10
1.95084e-10
-5.44982e-10
-5.77655e-10
2.00336e-10
2.66181e-10
5.97511e-11
2.87596e-11
9.47738e-12
5.48928e-12
2.52293e-12
1.69328e-12
9.40967e-13
6.82902e-13
4.23851e-13
3.33401e-13
2.30228e-13
1.79736e-13
1.24595e-13
1.06892e-13
7.9474e-14
6.01711e-14
4.8727e-14
4.04682e-14
3.34277e-14
2.65538e-14
2.27742e-14
2.17567e-14
1.69559e-14
1.99154e-14
1.19934e-14
1.35437e-14
1.32457e-14
1.18372e-14
1.35564e-14
1.65416e-14
1.67546e-14
1.02963e-14
1.62946e-14
2.33238e-14
3.08653e-14
3.26039e-14
4.3491e-14
4.85447e-14
7.0927e-14
7.96971e-14
1.03114e-13
1.33556e-13
1.75749e-13
2.26972e-13
3.34898e-13
4.28647e-13
6.95931e-13
9.42123e-13
1.69372e-12
2.52782e-12
5.49461e-12
9.4814e-12
2.87576e-11
5.97487e-11
2.66177e-10
2.00336e-10
-5.77655e-10
-6.09484e-10
2.04402e-10
2.79158e-10
6.67974e-11
3.269e-11
1.1036e-11
6.41068e-12
2.96356e-12
1.98321e-12
1.1056e-12
8.08522e-13
5.07946e-13
3.95522e-13
2.59091e-13
2.06886e-13
1.53764e-13
1.18672e-13
9.06867e-14
7.92568e-14
5.98375e-14
4.86717e-14
4.31126e-14
4.14875e-14
2.43398e-14
2.43822e-14
2.09459e-14
1.18753e-14
2.32382e-14
2.0582e-14
1.60464e-14
1.42973e-14
1.48159e-14
1.54024e-14
1.60002e-14
2.42515e-14
2.71434e-14
2.74977e-14
2.91936e-14
4.92387e-14
4.94483e-14
6.07894e-14
7.38479e-14
9.39886e-14
1.20476e-13
1.45768e-13
2.0866e-13
2.63628e-13
3.86915e-13
5.00495e-13
8.01668e-13
1.10739e-12
1.98479e-12
2.97144e-12
6.40536e-12
1.10306e-11
3.26838e-11
6.67998e-11
2.7916e-10
2.04397e-10
-6.09484e-10
-6.40362e-10
2.0724e-10
2.91325e-10
7.41717e-11
3.69066e-11
1.27552e-11
7.4138e-12
3.47055e-12
2.31419e-12
1.30004e-12
9.46282e-13
5.95042e-13
4.54256e-13
3.06068e-13
2.48748e-13
1.75605e-13
1.49868e-13
1.07338e-13
8.6111e-14
7.25178e-14
5.7782e-14
4.18061e-14
3.5075e-14
3.71792e-14
2.94003e-14
2.8728e-14
2.90873e-14
2.41628e-14
1.61421e-14
2.58274e-14
1.64412e-14
1.16727e-14
1.97562e-14
2.53649e-14
2.47203e-14
2.99179e-14
3.30991e-14
4.19929e-14
4.2638e-14
6.06547e-14
7.0854e-14
9.94234e-14
1.09853e-13
1.43615e-13
1.85562e-13
2.50009e-13
3.14871e-13
4.56925e-13
5.94959e-13
9.49147e-13
1.29954e-12
2.3211e-12
3.46389e-12
7.41968e-12
1.27588e-11
3.69062e-11
7.41718e-11
2.9133e-10
2.07242e-10
-6.40359e-10
-6.70177e-10
2.08803e-10
3.0262e-10
8.18616e-11
4.14226e-11
1.4667e-11
8.54781e-12
4.034e-12
2.68657e-12
1.51516e-12
1.10717e-12
6.85164e-13
5.28408e-13
3.60353e-13
2.94742e-13
2.0635e-13
1.61862e-13
1.27051e-13
1.03258e-13
7.68662e-14
6.80572e-14
5.61971e-14
5.35894e-14
3.60807e-14
3.16442e-14
3.12551e-14
2.34388e-14
1.55657e-14
1.60668e-14
6.46208e-15
1.81657e-14
2.89015e-14
2.18531e-14
1.49112e-14
2.18391e-14
3.17115e-14
4.12884e-14
4.29576e-14
6.07927e-14
6.7593e-14
7.7056e-14
1.08147e-13
1.24359e-13
1.71722e-13
2.09775e-13
2.85936e-13
3.53053e-13
5.37877e-13
6.89971e-13
1.10544e-12
1.51876e-12
2.68927e-12
4.02993e-12
8.54365e-12
1.46611e-11
4.1428e-11
8.18646e-11
3.02621e-10
2.08799e-10
-6.70177e-10
-6.98789e-10
2.09049e-10
3.1294e-10
8.98131e-11
4.6237e-11
1.67503e-11
9.78948e-12
4.66121e-12
3.11291e-12
1.75287e-12
1.26782e-12
8.06132e-13
6.22817e-13
4.26228e-13
3.31895e-13
2.42649e-13
2.0289e-13
1.51719e-13
1.17474e-13
9.53446e-14
7.74548e-14
6.54409e-14
4.50877e-14
4.44523e-14
4.25182e-14
3.51471e-14
2.91177e-14
2.41551e-14
2.36438e-14
2.46192e-14
2.45366e-14
2.33392e-14
2.60572e-14
2.46938e-14
3.95495e-14
4.34368e-14
4.09656e-14
4.87128e-14
5.98523e-14
8.20079e-14
9.5166e-14
1.21636e-13
1.48891e-13
1.94458e-13
2.39143e-13
3.34728e-13
4.28548e-13
6.11913e-13
8.00192e-13
1.26917e-12
1.7512e-12
3.10173e-12
4.66336e-12
9.79673e-12
1.67513e-11
4.62253e-11
8.98108e-11
3.12942e-10
2.09053e-10
-6.98791e-10
-7.26114e-10
2.07959e-10
3.22231e-10
9.79828e-11
5.13217e-11
1.90484e-11
1.11735e-11
5.37065e-12
3.57294e-12
2.03214e-12
1.4809e-12
9.37335e-13
7.15786e-13
4.92776e-13
3.83697e-13
2.78257e-13
2.27466e-13
1.66507e-13
1.48679e-13
1.09081e-13
9.33972e-14
7.4735e-14
6.9932e-14
5.47284e-14
4.30773e-14
3.73905e-14
3.40032e-14
2.97405e-14
3.46171e-14
3.03419e-14
2.57464e-14
2.29567e-14
3.33965e-14
3.91736e-14
2.98914e-14
4.3349e-14
5.61552e-14
6.24917e-14
7.71854e-14
9.42398e-14
1.02907e-13
1.37321e-13
1.76245e-13
2.28291e-13
2.81494e-13
3.87916e-13
4.81782e-13
7.18772e-13
9.31563e-13
1.47331e-12
2.04029e-12
3.58082e-12
5.37156e-12
1.11688e-11
1.90511e-11
5.13208e-11
9.79921e-11
3.22226e-10
2.07963e-10
-7.2611e-10
-7.52012e-10
2.05507e-10
3.304e-10
1.06357e-10
5.6682e-11
2.15516e-11
1.26783e-11
6.16339e-12
4.09556e-12
2.345e-12
1.69014e-12
1.06967e-12
8.24705e-13
5.54254e-13
4.56154e-13
3.20374e-13
2.61084e-13
2.02082e-13
1.64986e-13
1.23712e-13
1.11065e-13
9.23704e-14
7.23856e-14
5.89248e-14
5.64968e-14
4.04331e-14
4.17358e-14
3.12616e-14
2.2552e-14
3.54436e-14
3.06853e-14
4.19823e-14
3.29311e-14
4.03874e-14
4.70379e-14
4.79205e-14
5.91785e-14
7.19859e-14
8.47675e-14
1.06328e-13
1.31377e-13
1.64007e-13
1.92079e-13
2.58683e-13
3.19462e-13
4.47631e-13
5.75331e-13
8.17207e-13
1.0769e-12
1.7007e-12
2.3395e-12
4.09143e-12
6.15244e-12
1.26803e-11
2.15561e-11
5.66855e-11
1.06352e-10
3.30403e-10
2.05506e-10
-7.52021e-10
-7.76423e-10
2.0169e-10
3.37407e-10
1.1485e-10
6.23172e-11
2.42593e-11
1.4333e-11
7.02546e-12
4.67556e-12
2.69015e-12
1.94521e-12
1.24438e-12
9.45663e-13
6.57892e-13
5.09831e-13
3.76256e-13
2.94447e-13
2.25039e-13
1.87336e-13
1.47415e-13
1.21972e-13
9.15228e-14
8.48515e-14
7.645e-14
5.73368e-14
5.37289e-14
4.23197e-14
4.03476e-14
4.19966e-14
3.49051e-14
3.46616e-14
3.46339e-14
3.28162e-14
3.90961e-14
4.48132e-14
5.81641e-14
7.13894e-14
8.58828e-14
9.7931e-14
1.2283e-13
1.46027e-13
1.86474e-13
2.3119e-13
3.06449e-13
3.78774e-13
5.10078e-13
6.39189e-13
9.4404e-13
1.23981e-12
1.92849e-12
2.68687e-12
4.67975e-12
7.03467e-12
1.43424e-11
2.4257e-11
6.23131e-11
1.14848e-10
3.37408e-10
2.01691e-10
-7.76411e-10
-7.99209e-10
1.96504e-10
3.43166e-10
1.23425e-10
6.81722e-11
2.71947e-11
1.61392e-11
7.9972e-12
5.31197e-12
3.06681e-12
2.21193e-12
1.4204e-12
1.07933e-12
7.38316e-13
5.82534e-13
4.18418e-13
3.47876e-13
2.66401e-13
2.24214e-13
1.72625e-13
1.40913e-13
1.17257e-13
9.18685e-14
7.35903e-14
7.22281e-14
5.82109e-14
5.07471e-14
4.99823e-14
4.29591e-14
4.66249e-14
4.36307e-14
3.36209e-14
5.14075e-14
5.68848e-14
5.62567e-14
6.66417e-14
7.90111e-14
9.84661e-14
1.16125e-13
1.43483e-13
1.71539e-13
2.17082e-13
2.68381e-13
3.47803e-13
4.24676e-13
5.96376e-13
7.46383e-13
1.08946e-12
1.41849e-12
2.22761e-12
3.07261e-12
5.31594e-12
7.99819e-12
1.61345e-11
2.71932e-11
6.81789e-11
1.2343e-10
3.43165e-10
1.96503e-10
-7.99208e-10
-8.2029e-10
1.89943e-10
3.47649e-10
1.32021e-10
7.42699e-11
3.03465e-11
1.81033e-11
9.05631e-12
6.03069e-12
3.51301e-12
2.52745e-12
1.6157e-12
1.23241e-12
8.50756e-13
6.82356e-13
4.93024e-13
3.92496e-13
2.99778e-13
2.44748e-13
1.95043e-13
1.61212e-13
1.25751e-13
1.07466e-13
9.82412e-14
7.6512e-14
6.76774e-14
5.6383e-14
5.36566e-14
5.16599e-14
4.65946e-14
4.68739e-14
5.75008e-14
5.06412e-14
6.28277e-14
7.10809e-14
7.79225e-14
8.62727e-14
1.02139e-13
1.31341e-13
1.62403e-13
1.91931e-13
2.48053e-13
2.95935e-13
3.92363e-13
4.92604e-13
6.66498e-13
8.54469e-13
1.22704e-12
1.6213e-12
2.52036e-12
3.49572e-12
6.02724e-12
9.05507e-12
1.81057e-11
3.03477e-11
7.42695e-11
1.32026e-10
3.47647e-10
1.89939e-10
-8.20286e-10
-8.39602e-10
1.82044e-10
3.50773e-10
1.4058e-10
8.05654e-11
3.3723e-11
2.0218e-11
1.02371e-11
6.80417e-12
3.97278e-12
2.85796e-12
1.85109e-12
1.40011e-12
9.7342e-13
7.60946e-13
5.53625e-13
4.56687e-13
3.41791e-13
2.8848e-13
2.16318e-13
1.88324e-13
1.5067e-13
1.35316e-13
9.76802e-14
9.79069e-14
7.5957e-14
6.55118e-14
6.32855e-14
6.07625e-14
5.09605e-14
5.18924e-14
5.37478e-14
5.91806e-14
6.51531e-14
7.66596e-14
8.51418e-14
1.1287e-13
1.28128e-13
1.4452e-13
1.74503e-13
2.18078e-13
2.80664e-13
3.53782e-13
4.48826e-13
5.48785e-13
7.73549e-13
9.69303e-13
1.40534e-12
1.84442e-12
2.86198e-12
3.97984e-12
6.8088e-12
1.02392e-11
2.02211e-11
3.37219e-11
8.0557e-11
1.40581e-10
3.50778e-10
1.82055e-10
-8.39608e-10
-8.57064e-10
1.72828e-10
3.52542e-10
1.49034e-10
8.70129e-11
3.73259e-11
2.25043e-11
1.15182e-11
7.67594e-12
4.50694e-12
3.24814e-12
2.09905e-12
1.5998e-12
1.10234e-12
8.69157e-13
6.3867e-13
5.11852e-13
3.91075e-13
3.07566e-13
2.55899e-13
2.07871e-13
1.69161e-13
1.3639e-13
1.2851e-13
9.2385e-14
9.00061e-14
7.78331e-14
6.18415e-14
6.30901e-14
6.11419e-14
6.50905e-14
6.28939e-14
7.03959e-14
7.9543e-14
8.89892e-14
9.45317e-14
1.11311e-13
1.40679e-13
1.68031e-13
2.18802e-13
2.53257e-13
3.25103e-13
3.9328e-13
5.18096e-13
6.36065e-13
8.66912e-13
1.10594e-12
1.59734e-12
2.09968e-12
3.24445e-12
4.50128e-12
7.65993e-12
1.15143e-11
2.25117e-11
3.73326e-11
8.70223e-11
1.49032e-10
3.52532e-10
1.72827e-10
-8.57058e-10
-8.726e-10
1.62331e-10
3.52871e-10
1.57311e-10
9.36284e-11
4.11441e-11
2.49674e-11
1.29148e-11
8.60202e-12
5.09462e-12
3.65823e-12
2.37268e-12
1.80217e-12
1.25184e-12
9.87996e-13
7.20936e-13
5.82552e-13
4.40578e-13
3.74167e-13
2.87995e-13
2.36054e-13
1.93715e-13
1.62538e-13
1.28876e-13
1.2241e-13
1.00009e-13
9.26428e-14
8.19048e-14
6.95015e-14
7.68916e-14
7.38097e-14
7.9613e-14
7.62405e-14
8.98951e-14
9.68859e-14
1.16042e-13
1.3978e-13
1.63906e-13
1.95343e-13
2.33368e-13
2.84693e-13
3.64379e-13
4.34267e-13
5.81148e-13
7.21933e-13
9.93261e-13
1.25359e-12
1.79801e-12
2.3768e-12
3.65968e-12
5.09528e-12
8.61081e-12
1.29185e-11
2.49599e-11
4.11402e-11
9.36272e-11
1.57305e-10
3.5287e-10
1.62327e-10
-8.72611e-10
-8.86184e-10
1.50612e-10
3.51783e-10
1.65343e-10
1.0033e-10
4.51894e-11
2.75952e-11
1.44408e-11
9.63431e-12
5.73333e-12
4.12022e-12
2.69031e-12
2.03687e-12
1.42374e-12
1.11761e-12
8.18274e-13
6.61063e-13
5.0399e-13
4.10616e-13
3.22134e-13
2.73448e-13
2.16254e-13
1.82424e-13
1.50319e-13
1.26342e-13
1.10753e-13
9.75986e-14
9.64102e-14
8.73949e-14
7.57024e-14
8.35412e-14
7.79113e-14
9.42374e-14
9.35092e-14
1.19041e-13
1.42307e-13
1.43494e-13
1.82982e-13
2.15198e-13
2.68071e-13
3.18361e-13
4.16088e-13
5.10245e-13
6.58623e-13
8.23155e-13
1.10574e-12
1.41955e-12
2.03507e-12
2.68845e-12
4.11526e-12
5.73785e-12
9.63968e-12
1.44401e-11
2.76063e-11
4.51872e-11
1.00323e-10
1.65355e-10
3.51788e-10
1.50619e-10
-8.86181e-10
-8.97755e-10
1.37717e-10
3.49231e-10
1.73059e-10
1.07089e-10
4.94341e-11
3.04132e-11
1.61022e-11
1.07618e-11
6.44235e-12
4.6198e-12
3.02796e-12
2.28874e-12
1.60096e-12
1.25526e-12
9.24801e-13
7.43765e-13
5.7265e-13
4.73198e-13
3.70081e-13
3.06274e-13
2.51741e-13
2.08892e-13
1.70296e-13
1.47755e-13
1.31204e-13
1.17093e-13
9.61272e-14
9.44748e-14
9.56924e-14
9.06308e-14
9.82961e-14
9.40853e-14
1.13013e-13
1.23286e-13
1.39671e-13
1.74885e-13
2.09478e-13
2.42462e-13
3.05586e-13
3.76479e-13
4.64697e-13
5.73207e-13
7.4352e-13
9.2325e-13
1.2607e-12
1.60776e-12
2.29451e-12
3.03187e-12
4.63339e-12
6.44027e-12
1.07548e-11
1.60961e-11
3.03964e-11
4.94346e-11
1.07098e-10
1.73053e-10
3.4923e-10
1.37716e-10
-8.97756e-10
-9.07282e-10
1.2373e-10
3.45246e-10
1.80379e-10
1.13895e-10
5.38835e-11
3.33821e-11
1.7885e-11
1.19811e-11
7.21307e-12
5.19663e-12
3.40882e-12
2.57815e-12
1.80929e-12
1.41786e-12
1.04538e-12
8.37772e-13
6.42408e-13
5.23748e-13
4.14053e-13
3.45562e-13
2.83227e-13
2.34645e-13
1.95559e-13
1.74239e-13
1.44574e-13
1.19696e-13
1.16783e-13
1.07597e-13
1.03541e-13
9.94072e-14
1.02462e-13
1.22419e-13
1.35448e-13
1.47445e-13
1.71449e-13
1.97323e-13
2.36206e-13
2.80846e-13
3.49835e-13
4.16341e-13
5.26466e-13
6.36699e-13
8.39032e-13
1.0497e-12
1.4142e-12
1.80267e-12
2.57501e-12
3.41063e-12
5.18307e-12
7.21781e-12
1.19825e-11
1.78924e-11
3.33916e-11
5.3884e-11
1.13884e-10
1.80384e-10
3.45248e-10
1.23728e-10
-9.07287e-10
-9.14768e-10
1.08713e-10
3.3979e-10
1.87236e-10
1.20653e-10
5.85152e-11
3.65455e-11
1.98145e-11
1.33046e-11
8.07821e-12
5.78499e-12
3.82783e-12
2.89237e-12
2.0328e-12
1.58455e-12
1.17734e-12
9.45519e-13
7.27142e-13
6.00325e-13
4.67015e-13
3.83799e-13
3.17603e-13
2.67344e-13
2.29209e-13
1.91055e-13
1.61923e-13
1.56191e-13
1.32775e-13
1.22392e-13
1.12666e-13
1.19321e-13
1.24964e-13
1.27346e-13
1.35377e-13
1.63869e-13
1.92949e-13
2.16894e-13
2.62405e-13
3.1932e-13
3.8697e-13
4.69538e-13
5.93112e-13
7.31911e-13
9.46593e-13
1.17262e-12
1.59405e-12
2.04108e-12
2.89167e-12
3.82212e-12
5.79257e-12
8.06682e-12
1.32973e-11
1.98258e-11
3.65471e-11
5.85129e-11
1.20664e-10
1.87241e-10
3.39792e-10
1.08717e-10
-9.1477e-10
-9.20196e-10
9.27765e-11
3.3292e-10
1.93562e-10
1.27349e-10
6.33237e-11
3.98798e-11
2.1895e-11
1.47313e-11
8.98595e-12
6.46841e-12
4.28638e-12
3.23366e-12
2.27842e-12
1.79593e-12
1.32137e-12
1.06374e-12
8.15132e-13
6.60062e-13
5.30346e-13
4.39604e-13
3.55466e-13
2.96435e-13
2.44454e-13
2.08129e-13
1.92514e-13
1.52499e-13
1.46294e-13
1.40288e-13
1.36421e-13
1.32847e-13
1.30874e-13
1.43087e-13
1.71399e-13
1.79593e-13
2.11771e-13
2.49024e-13
3.01637e-13
3.44384e-13
4.38996e-13
5.23794e-13
6.65566e-13
8.15822e-13
1.06829e-12
1.33035e-12
1.79425e-12
2.28777e-12
3.23822e-12
4.28009e-12
6.46338e-12
8.99734e-12
1.474e-11
2.18833e-11
3.98773e-11
6.33219e-11
1.27346e-10
1.93549e-10
3.32917e-10
9.27761e-11
-9.2019e-10
-9.23555e-10
7.59862e-11
3.2463e-10
1.99267e-10
1.33915e-10
6.82723e-11
4.33703e-11
2.41139e-11
1.62782e-11
1.00149e-11
7.18797e-12
4.77445e-12
3.61956e-12
2.56269e-12
1.99866e-12
1.47893e-12
1.18363e-12
9.20923e-13
7.57691e-13
5.96228e-13
4.96858e-13
4.01721e-13
3.36259e-13
2.83358e-13
2.36123e-13
2.01611e-13
1.88681e-13
1.68823e-13
1.48429e-13
1.45787e-13
1.47219e-13
1.52204e-13
1.72403e-13
1.81996e-13
2.0936e-13
2.39272e-13
2.78129e-13
3.37331e-13
4.12923e-13
4.90069e-13
5.87882e-13
7.4952e-13
9.12566e-13
1.18924e-12
1.47714e-12
1.99667e-12
2.55033e-12
3.61701e-12
4.79698e-12
7.19627e-12
9.99975e-12
1.62662e-11
2.41202e-11
4.33776e-11
6.82739e-11
1.33918e-10
1.99278e-10
3.24645e-10
7.5984e-11
-9.23553e-10
-9.24903e-10
5.84834e-11
3.14999e-10
2.04294e-10
1.40306e-10
7.33593e-11
4.70394e-11
2.64778e-11
1.79335e-11
1.11035e-11
7.98941e-12
5.35181e-12
4.02713e-12
2.86061e-12
2.22828e-12
1.6696e-12
1.33798e-12
1.02459e-12
8.31599e-13
6.67992e-13
5.53234e-13
4.45161e-13
3.76289e-13
3.10029e-13
2.7343e-13
2.36073e-13
2.00342e-13
1.81635e-13
1.77943e-13
1.68405e-13
1.7467e-13
1.78588e-13
1.79016e-13
2.09217e-13
2.34254e-13
2.65342e-13
3.22532e-13
3.77345e-13
4.39416e-13
5.48446e-13
6.77843e-13
8.41393e-13
1.03629e-12
1.32743e-12
1.67369e-12
2.23847e-12
2.86996e-12
4.02794e-12
5.33618e-12
7.97879e-12
1.11106e-11
1.79416e-11
2.64765e-11
4.70279e-11
7.33529e-11
1.40294e-10
2.04286e-10
3.14991e-10
5.84839e-11
-9.24897e-10
-9.24228e-10
4.0332e-11
3.0404e-10
2.08593e-10
1.4645e-10
7.85263e-11
5.08363e-11
2.90022e-11
1.9704e-11
1.22788e-11
8.85786e-12
5.94345e-12
4.49194e-12
3.2007e-12
2.49434e-12
1.87418e-12
1.49192e-12
1.15845e-12
9.5015e-13
7.45779e-13
6.17131e-13
5.09387e-13
4.25523e-13
3.58053e-13
3.0701e-13
2.60431e-13
2.35423e-13
2.1111e-13
1.98917e-13
1.79786e-13
1.77014e-13
1.91724e-13
2.1931e-13
2.19967e-13
2.63913e-13
3.05632e-13
3.53817e-13
4.23804e-13
5.1112e-13
6.13611e-13
7.41981e-13
9.39274e-13
1.15348e-12
1.4923e-12
1.85323e-12
2.49231e-12
3.19582e-12
4.48739e-12
5.9424e-12
8.85875e-12
1.22847e-11
1.97035e-11
2.90131e-11
5.08467e-11
7.85318e-11
1.46456e-10
2.08583e-10
3.04037e-10
4.03359e-11
-9.24231e-10
-9.21608e-10
2.16874e-11
2.91824e-10
2.12047e-10
1.52298e-10
8.37837e-11
5.47914e-11
3.16691e-11
2.16069e-11
1.35756e-11
9.78106e-12
6.60305e-12
4.97856e-12
3.55705e-12
2.78297e-12
2.0672e-12
1.66416e-12
1.27981e-12
1.04801e-12
8.31337e-13
6.96545e-13
5.63407e-13
4.72844e-13
3.95731e-13
3.3105e-13
2.91775e-13
2.55531e-13
2.26638e-13
2.13696e-13
2.19729e-13
2.18161e-13
2.25768e-13
2.19831e-13
2.65163e-13
2.90999e-13
3.40554e-13
3.9163e-13
4.75471e-13
5.57448e-13
7.04703e-13
8.29344e-13
1.04833e-12
1.28235e-12
1.66869e-12
2.08497e-12
2.78349e-12
3.56106e-12
4.98559e-12
6.60754e-12
9.78035e-12
1.35762e-11
2.16112e-11
3.16643e-11
5.47906e-11
8.37915e-11
1.52308e-10
2.12063e-10
2.91827e-10
2.16879e-11
-9.21603e-10
-9.17095e-10
2.66232e-12
2.78436e-10
2.14688e-10
1.57813e-10
8.90712e-11
5.8848e-11
3.44886e-11
2.36289e-11
1.49565e-11
1.0802e-11
7.326e-12
5.53319e-12
3.96112e-12
3.09711e-12
2.32985e-12
1.851e-12
1.44058e-12
1.17086e-12
9.4134e-13
7.68062e-13
6.24868e-13
5.34049e-13
4.47255e-13
3.81582e-13
3.26711e-13
2.94098e-13
2.62026e-13
2.46805e-13
2.39989e-13
2.32847e-13
2.44389e-13
2.74666e-13
3.00164e-13
3.25905e-13
3.75558e-13