/*--------------------------------*- C++ -*----------------------------------*\
| =========                 |                                                 |
| \\      /  F ield         | foam-extend: Open Source CFD                    |
|  \\    /   O peration     | Version:     4.0                                |
|   \\  /    A nd           | Web:         http://www.foam-extend.org         |
|    \\/     M anipulation  |                                                 |
\*---------------------------------------------------------------------------*/
FoamFile
{
    version     2.0;
    format      ascii;
    class       surfaceScalarField;
    location    "3";
    object      phi;
}
// * * * * * * * * * * * * * * * * * * * * * * * * * * * * * * * * * * * * * //

dimensions      [0 3 -1 0 0 0 0];

internalField   nonuniform List<scalar> 
13744
(
-9.13232e-09
9.13124e-09
5.37869e-09
-1.4511e-08
6.50419e-11
5.31365e-09
1.29783e-11
5.20596e-11
-4.00417e-12
1.6984e-11
-5.13328e-12
1.12843e-12
-5.29309e-12
1.60039e-13
-4.67374e-12
-6.19726e-13
-4.04386e-12
-6.29552e-13
-3.42364e-12
-6.18727e-13
-2.87496e-12
-5.49394e-13
-2.3991e-12
-4.74953e-13
-1.98752e-12
-4.12392e-13
-1.63964e-12
-3.48332e-13
-1.34079e-12
-2.99649e-13
-1.08889e-12
-2.51466e-13
-8.76078e-13
-2.11942e-13
-6.97209e-13
-1.76636e-13
-5.47322e-13
-1.52989e-13
-4.24578e-13
-1.23845e-13
-3.22924e-13
-1.03306e-13
-2.40894e-13
-8.51541e-14
-1.76471e-13
-6.2117e-14
-1.25457e-13
-5.06262e-14
-8.63086e-14
-3.80251e-14
-5.80536e-14
-2.53131e-14
-3.65597e-14
-2.12608e-14
-2.08294e-14
-1.16018e-14
-9.91294e-15
-7.54952e-15
-1.29459e-15
-7.66054e-15
1.30567e-14
-1.52656e-14
1.80453e-14
-5.4956e-15
3.66611e-14
-1.87628e-14
6.10615e-14
-2.34812e-14
8.34397e-14
-2.25375e-14
1.25463e-13
-4.08007e-14
1.79487e-13
-5.31242e-14
2.3807e-13
-5.79536e-14
3.22972e-13
-8.4821e-14
4.27535e-13
-1.04861e-13
5.44429e-13
-1.17906e-13
6.97316e-13
-1.53766e-13
8.79223e-13
-1.81521e-13
1.0861e-12
-2.06002e-13
1.34088e-12
-2.56128e-13
1.64267e-12
-3.01315e-13
1.98471e-12
-3.42504e-13
2.39919e-12
-4.12725e-13
2.87798e-12
-4.81282e-13
3.42075e-12
-5.414e-13
4.04397e-12
-6.22224e-13
4.67679e-12
-6.31328e-13
5.2903e-12
-6.12566e-13
5.13343e-12
1.58151e-13
4.0074e-12
1.12493e-12
-1.29808e-11
1.69895e-11
-6.50416e-11
5.20595e-11
-5.37869e-09
5.31365e-09
9.13232e-09
-1.4511e-08
9.13232e-09
4.95693e-08
-4.04381e-08
8.23464e-09
2.68236e-08
2.65623e-10
1.32827e-08
7.95395e-11
2.38152e-10
1.55236e-11
8.09962e-11
5.29892e-12
1.1355e-11
-2.58233e-13
5.71826e-12
-1.64366e-12
7.68774e-13
-2.34432e-12
7.04992e-14
-2.34779e-12
-6.20948e-13
-2.231e-12
-6.66411e-13
-1.98034e-12
-7.27196e-13
-1.73105e-12
-6.58529e-13
-1.46594e-12
-6.1573e-13
-1.2305e-12
-5.33906e-13
-1.01194e-12
-4.71789e-13
-8.20062e-13
-4.06952e-13
-6.53653e-13
-3.46834e-13
-5.13332e-13
-2.911e-13
-3.91658e-13
-2.44027e-13
-2.94345e-13
-1.97509e-13
-2.15216e-13
-1.61926e-13
-1.50387e-13
-1.31839e-13
-1.02661e-13
-1.0103e-13
-6.75254e-14
-7.56617e-14
-3.98875e-14
-5.79536e-14
-2.34118e-14
-3.93019e-14
-1.30151e-14
-3.14193e-14
-3.17634e-15
-2.44249e-14
6.44888e-16
-1.19904e-14
-3.21782e-15
-1.12133e-14
2.1636e-14
-2.84217e-14
2.34969e-14
-2.03171e-14
3.15933e-14
-3.26961e-14
7.59679e-14
-6.56697e-14
1.02667e-13
-7.07212e-14
1.42066e-13
-9.4369e-14
2.23709e-13
-1.39277e-13
2.94401e-13
-1.56819e-13
3.83283e-13
-1.97231e-13
5.2176e-13
-2.55684e-13
6.53804e-13
-2.81275e-13
8.11925e-13
-3.40561e-13
1.02052e-12
-4.1267e-13
1.23063e-12
-4.61853e-13
1.45767e-12
-5.26468e-13
1.73961e-12
-6.23335e-13
1.98047e-12
-6.55698e-13
2.22274e-12
-7.17981e-13
2.35625e-12
-6.78291e-13
2.34444e-12
-6.13065e-13
1.63546e-12
7.66609e-14
2.66799e-13
7.52343e-13
-5.29869e-12
5.72048e-12
-1.55316e-11
1.13591e-11
-7.95305e-11
8.09873e-11
-2.65622e-10
2.38152e-10
-8.23465e-09
1.32827e-08
-4.95693e-08
2.68236e-08
-4.0437e-08
3.14164e-08
-7.18545e-08
1.21399e-08
4.61002e-08
4.74205e-10
2.49484e-08
1.56037e-10
5.56313e-10
4.10971e-11
1.95939e-10
1.98802e-11
3.25726e-11
7.68213e-12
1.79145e-11
3.6112e-12
4.83896e-12
1.05408e-12
2.62735e-12
8.61086e-14
3.51712e-13
-5.15806e-13
-6.10068e-14
-6.91367e-13
-5.54362e-13
-7.74209e-13
-5.77018e-13
-7.25687e-13
-6.57231e-13
-6.62924e-13
-5.96814e-13
-5.63339e-13
-5.68746e-13
-4.70099e-13
-5.00412e-13
-3.73855e-13
-4.39579e-13
-2.91384e-13
-3.71682e-13
-2.14553e-13
-3.21881e-13
-1.53185e-13
-2.55955e-13
-1.01833e-13
-2.08361e-13
-6.16534e-14
-1.72494e-13
-3.23754e-14
-1.28904e-13
-1.28399e-14
-9.11701e-14
4.02992e-16
-6.97775e-14
5.61429e-15
-4.73996e-14
6.22163e-15
-2.52715e-14
5.36333e-15
-1.80758e-14
-7.25888e-16
-5.62744e-15
-7.49934e-15
-4.81559e-15
-1.95155e-15
-3.60822e-14
-5.55109e-15
-1.43774e-14
-4.24417e-15
-3.47153e-14
1.68005e-14
-9.24191e-14
3.23466e-14
-8.47794e-14
5.77352e-14
-1.18641e-13
1.05819e-13
-1.89133e-13
1.53201e-13
-2.02685e-13
2.10601e-13
-2.50626e-13
2.95339e-13
-3.4299e-13
3.74006e-13
-3.68545e-13
4.66402e-13
-4.32966e-13
5.67472e-13
-5.17829e-13
6.63073e-13
-5.56694e-13
7.21892e-13
-5.90583e-13
7.78336e-13
-6.83106e-13
6.91503e-13
-5.68739e-13
5.11992e-13
-5.41324e-13
-8.21084e-14
-8.04218e-14
-1.05398e-12
3.61593e-13
-3.61495e-12
2.6391e-12
-7.67801e-12
4.82277e-12
-1.988e-11
1.79263e-11
-4.11006e-11
3.25821e-11
-1.56032e-10
1.95914e-10
-4.74205e-10
5.56325e-10
-1.21399e-08
2.49484e-08
-3.14164e-08
4.61002e-08
-7.18534e-08
1.11531e-08
-8.30076e-08
9.60711e-09
4.76462e-08
6.7405e-10
3.38814e-08
2.35604e-10
9.94759e-10
6.93642e-11
3.62179e-10
3.59647e-11
6.59668e-11
1.65589e-11
3.73235e-11
9.49649e-12
1.18967e-11
4.89653e-12
7.22722e-12
2.84625e-12
2.40495e-12
1.44499e-12
1.33563e-12
7.86714e-13
1.10715e-13
3.30041e-13
-1.20072e-13
1.31236e-13
-4.65778e-13
-2.63725e-15
-4.62103e-13
-4.06024e-14
-5.31991e-13
-6.04726e-14
-4.80983e-13
-4.61809e-14
-4.59903e-13
-3.1094e-14
-3.89151e-13
-6.52529e-15
-3.45314e-13
1.25925e-14
-2.80562e-13
3.09821e-14
-2.32271e-13
4.25648e-14
-1.79452e-13
4.98864e-14
-1.32314e-13
5.08852e-14
-9.61401e-14
4.75696e-14
-6.31422e-14
3.94363e-14
-3.31662e-14
2.83228e-14
-1.5191e-14
1.52022e-14
-5.25274e-15
-1.05066e-15
7.67442e-15
-1.45262e-14
1.21674e-14
-2.77135e-14
-2.17847e-14
-3.93967e-14
-7.5339e-15
-4.78542e-14
-2.30562e-14
-5.05222e-14
-7.9485e-14
-4.99394e-14
-8.20611e-14
-4.29561e-14
-1.20718e-13
-3.06271e-14
-1.96471e-13
-1.25982e-14
-2.21505e-13
6.12351e-15
-2.70308e-13
3.14459e-14
-3.62958e-13
4.63358e-14
-3.80878e-13
6.0352e-14
-4.44788e-13
4.11681e-14
-4.94518e-13
2.78557e-15
-5.24339e-13
-1.31444e-13
-4.5736e-13
-3.2947e-13
-4.83681e-13
-7.86565e-13
-1.0948e-13
-1.44521e-12
1.18853e-13
-2.84583e-12
1.31865e-12
-4.89644e-12
2.41512e-12
-9.49664e-12
7.23627e-12
-1.65583e-11
1.18801e-11
-3.59645e-11
3.73317e-11
-6.9364e-11
6.59791e-11
-2.35603e-10
3.62156e-10
-6.74049e-10
9.9477e-10
-9.60711e-09
3.38814e-08
-1.11531e-08
4.76462e-08
-8.30065e-08
9.69865e-09
-9.27063e-08
7.47614e-09
4.98687e-08
8.73266e-10
4.04843e-08
3.17671e-10
1.55036e-09
1.00078e-10
5.79773e-10
5.33776e-11
1.12668e-10
2.62343e-11
6.44683e-11
1.58995e-11
2.22382e-11
9.08914e-12
1.40352e-11
5.85414e-12
5.63622e-12
3.58636e-12
3.60585e-12
2.39929e-12
1.29101e-12
1.53571e-12
7.4675e-13
1.06706e-12
6.00778e-15
7.18607e-13
-1.20186e-13
5.296e-13
-3.4056e-13
3.87314e-13
-3.39715e-13
3.11452e-13
-3.76192e-13
2.52578e-13
-3.26524e-13
2.20843e-13
-3.13393e-13
1.93405e-13
-2.49672e-13
1.75314e-13
-2.12694e-13
1.56582e-13
-1.64304e-13
1.39459e-13
-1.18007e-13
1.19817e-13
-7.56764e-14
9.93417e-14
-4.739e-14
7.62184e-14
-1.28478e-14
5.19155e-14
5.68512e-15
2.66479e-14
2.4872e-14
-6.78554e-16
3.46251e-14
-2.63523e-14
3.41094e-14
-5.12345e-14
3.73139e-15
-7.62022e-14
2.06606e-14
-9.97905e-14
-2.8714e-15
-1.19328e-13
-6.96552e-14
-1.39548e-13
-6.7453e-14
-1.57175e-13
-1.10042e-13
-1.74862e-13
-1.86352e-13
-1.93439e-13
-2.01752e-13
-2.21427e-13
-2.43797e-13
-2.52099e-13
-3.34192e-13
-3.11293e-13
-3.203e-13
-3.87591e-13
-3.72194e-13
-5.28886e-13
-3.5135e-13
-7.1846e-13
-3.34325e-13
-1.0674e-12
-1.02178e-13
-1.53497e-12
-1.51728e-14
-2.39914e-12
7.51925e-13
-3.58671e-12
1.30499e-12
-5.85357e-12
3.58536e-12
-9.08906e-12
5.64799e-12
-1.58997e-11
1.40444e-11
-2.62336e-11
2.22161e-11
-5.33773e-11
6.44716e-11
-1.00078e-10
1.12676e-10
-3.1767e-10
5.79749e-10
-8.73265e-10
1.55037e-09
-7.47614e-09
4.04843e-08
-9.69866e-09
4.98687e-08
-9.27052e-08
1.11511e-08
-1.03857e-07
6.85467e-09
5.41651e-08
1.0741e-09
4.62649e-08
4.02498e-10
2.22196e-09
1.33334e-10
8.48932e-10
7.22006e-11
1.73801e-10
3.67742e-11
9.98926e-11
2.28675e-11
3.61433e-11
1.36687e-11
2.32369e-11
9.13875e-12
1.01683e-11
5.93076e-12
6.81322e-12
4.16479e-12
3.06233e-12
2.85823e-12
2.04859e-12
2.09375e-12
7.6572e-13
1.51107e-12
4.69657e-13
1.15613e-12
1.32977e-14
8.79943e-13
-5.69662e-14
7.04884e-13
-2.0549e-13
5.64843e-13
-1.91239e-13
4.71173e-13
-2.19555e-13
3.92535e-13
-1.71823e-13
3.34204e-13
-1.55385e-13
2.82176e-13
-1.12214e-13
2.3808e-13
-6.9565e-14
1.95673e-13
-3.19656e-14
1.56357e-13
-2.58322e-15
1.16701e-13
2.68865e-14
7.78809e-14
4.4337e-14
3.9379e-14
5.44319e-14
-4.55441e-16
7.65909e-14
-3.95459e-14
7.33166e-14
-7.67927e-14
3.96885e-14
-1.16716e-13
6.25962e-14
-1.57257e-13
4.3794e-14
-1.9478e-13
-2.50533e-14
-2.38206e-13
-1.86694e-14
-2.83258e-13
-5.96662e-14
-3.33373e-13
-1.29208e-13
-3.92605e-13
-1.43198e-13
-4.72222e-13
-1.63762e-13
-5.63958e-13
-2.45849e-13
-7.04727e-13
-1.79392e-13
-8.80645e-13
-1.93435e-13
-1.15499e-12
-8.19628e-14
-1.5109e-12
2.5836e-14
-2.09452e-12
4.81923e-13
-2.85705e-12
7.44313e-13
-4.16463e-12
2.06346e-12
-5.93152e-12
3.07483e-12
-9.13775e-12
6.78861e-12
-1.36687e-11
1.0181e-11
-2.28683e-11
2.32524e-11
-3.67731e-11
3.61181e-11
-7.22003e-11
9.99063e-11
-1.33335e-10
1.73817e-10
-4.02496e-10
8.48913e-10
-1.0741e-09
2.22197e-09
-6.85467e-09
4.62649e-08
-1.11511e-08
5.41651e-08
-1.03856e-07
1.11659e-08
-1.15023e-07
6.72662e-09
5.86044e-08
1.27446e-09
5.1717e-08
4.90131e-10
3.00628e-09
1.69169e-10
1.1699e-09
9.24714e-11
2.50504e-10
4.82099e-11
1.44157e-10
3.04199e-11
5.39343e-11
1.86481e-11
3.50059e-11
1.27083e-11
1.61088e-11
8.48353e-12
1.10418e-11
6.08672e-12
5.45386e-12
4.30008e-12
3.83671e-12
3.21283e-12
1.85632e-12
2.3758e-12
1.30654e-12
1.8398e-12
5.46852e-13
1.41784e-12
3.6446e-13
1.13448e-12
8.37859e-14
9.06069e-13
3.93298e-14
7.44609e-13
-5.83816e-14
6.10165e-13
-3.85005e-14
5.07889e-13
-5.08848e-14
4.19414e-13
-1.88437e-14
3.45861e-13
-6.0795e-15
2.78642e-13
3.75968e-14
2.18614e-13
5.29109e-14
1.60951e-13
8.56905e-14
1.06301e-13
1.05554e-13
5.32639e-14
1.14318e-13
-3.77992e-16
1.32924e-13
-5.34869e-14
1.25458e-13
-1.05193e-13
9.29949e-14
-1.60997e-13
1.15339e-13
-2.19583e-13
9.82661e-14
-2.77733e-13
2.9047e-14
-3.46032e-13
4.18215e-14
-4.2059e-13
9.48081e-15
-5.07082e-13
-4.61732e-14
-6.10275e-13
-4.05327e-14
-7.4574e-13
-2.55585e-14
-9.0516e-13
-8.30306e-14
-1.13433e-12
4.5184e-14
-1.4186e-12
8.7795e-14
-1.83862e-12
3.37604e-13
-2.37563e-12
5.57627e-13
-3.21363e-12
1.31638e-12
-4.29884e-12
1.83298e-12
-6.08655e-12
3.84445e-12
-8.48432e-12
5.4696e-12
-1.27072e-11
1.10174e-11
-1.86481e-11
1.61169e-11
-3.04206e-11
3.50149e-11
-4.82087e-11
5.39108e-11
-9.24711e-11
1.44163e-10
-1.6917e-10
2.50515e-10
-4.9013e-10
1.16987e-09
-1.27445e-09
3.0063e-09
-6.72662e-09
5.1717e-08
-1.11659e-08
5.86044e-08
-1.15022e-07
1.05322e-08
-1.25555e-07
6.60685e-09
6.25298e-08
1.47241e-09
5.68515e-08
5.80405e-10
3.89829e-09
2.07625e-10
1.54268e-09
1.14242e-10
3.43883e-10
6.0586e-11
1.9781e-10
3.8587e-11
7.59287e-11
2.40496e-11
4.95456e-11
1.65786e-11
2.35748e-11
1.12566e-11
1.63536e-11
8.17396e-12
8.54489e-12
5.86804e-12
6.14607e-12
4.42956e-12
3.29746e-12
3.31694e-12
2.41759e-12
2.58383e-12
1.28444e-12
2.00363e-12
9.37287e-13
1.60231e-12
4.79177e-13
1.27788e-12
3.65084e-13
1.04251e-12
1.78307e-13
8.47382e-13
1.58355e-13
6.97213e-13
9.67109e-14
5.69e-13
1.00989e-13
4.63371e-13
1.05799e-13
3.69109e-13
1.31646e-13
2.86481e-13
1.35555e-13
2.0921e-13
1.61814e-13
1.37303e-13
1.70665e-13
6.83764e-14
1.83979e-13
-3.3431e-16
2.00123e-13
-6.85355e-14
1.96297e-13
-1.36316e-13
1.5838e-13
-2.0928e-13
1.91523e-13
-2.87379e-13
1.79012e-13
-3.68336e-13
1.13258e-13
-4.63569e-13
1.46269e-13
-5.70159e-13
1.18378e-13
-6.9656e-13
7.97883e-14
-8.47529e-13
1.12458e-13
-1.0436e-12
1.66666e-13
-1.2771e-12
1.50388e-13
-1.60217e-12
3.74548e-13
-2.00431e-12
4.90908e-13
-2.58272e-12
9.17633e-13
-3.31677e-12
1.29539e-12
-4.43025e-12
2.43292e-12
-5.86688e-12
3.26343e-12
-8.17378e-12
6.15375e-12
-1.12573e-11
8.5558e-12
-1.65777e-11
1.63347e-11
-2.40496e-11
2.35951e-11
-3.85877e-11
4.95599e-11
-6.05848e-11
7.59039e-11
-1.14241e-10
1.97822e-10
-2.07626e-10
3.43897e-10
-5.80404e-10
1.54265e-09
-1.4724e-09
3.8983e-09
-6.60686e-09
5.68515e-08
-1.05322e-08
6.25298e-08
-1.25554e-07
9.86495e-09
-1.3542e-07
6.45776e-09
6.59369e-08
1.66685e-09
6.16424e-08
6.73077e-10
4.89206e-09
2.48738e-10
1.96701e-09
1.37565e-10
4.55056e-10
7.39507e-11
2.61425e-10
4.74032e-11
1.02477e-10
2.98986e-11
6.70479e-11
2.07683e-11
3.27196e-11
1.4264e-11
2.28656e-11
1.04371e-11
1.23641e-11
7.57035e-12
9.0041e-12
5.75039e-12
5.11892e-12
4.33959e-12
3.82514e-12
3.39222e-12
2.2249e-12
2.64058e-12
1.68915e-12
2.11099e-12
1.01206e-12
1.68238e-12
7.94541e-13
1.3666e-12
4.94294e-13
1.10554e-12
4.18968e-13
9.03239e-13
3.00324e-13
7.31855e-13
2.786e-13
5.91278e-13
2.4707e-13
4.67609e-13
2.45522e-13
3.6037e-13
2.46946e-13
2.61751e-13
2.58753e-13
1.71071e-13
2.62852e-13
8.48352e-14
2.7132e-13
-2.82393e-16
2.82611e-13
-8.49382e-14
2.81497e-13
-1.70189e-13
2.46664e-13
-2.61856e-13
2.79471e-13
-3.61197e-13
2.78312e-13
-4.66965e-13
2.11485e-13
-5.91522e-13
2.6463e-13
-7.32988e-13
2.58388e-13
-9.02749e-13
2.52102e-13
-1.10574e-12
3.10711e-13
-1.36763e-12
4.29237e-13
-1.68171e-12
4.65117e-13
-2.11084e-12
8.01843e-13
-2.64117e-12
1.01779e-12
-3.39121e-12
1.66993e-12
-4.33941e-12
2.23561e-12
-5.75099e-12
3.84509e-12
-7.56926e-12
5.08563e-12
-1.04369e-11
9.01853e-12
-1.42646e-11
1.23833e-11
-2.07674e-11
2.28314e-11
-2.98986e-11
3.27157e-11
-4.74038e-11
6.70652e-11
-7.39496e-11
1.02447e-10
-1.37565e-10
2.61437e-10
-2.48738e-10
4.55071e-10
-6.73075e-10
1.96699e-09
-1.66685e-09
4.89207e-09
-6.45776e-09
6.16424e-08
-9.86495e-09
6.59369e-08
-1.35419e-07
9.22368e-09
-1.44644e-07
6.29465e-09
6.8866e-08
1.85685e-09
6.60802e-08
7.67868e-10
5.98104e-09
2.92527e-10
2.44236e-09
1.62491e-10
5.85093e-10
8.83529e-11
3.35568e-10
5.69038e-11
1.33931e-10
3.62218e-11
8.77259e-11
2.52968e-11
4.36344e-11
1.75207e-11
3.06384e-11
1.28876e-11
1.70017e-11
9.41589e-12
1.24875e-11
7.18224e-12
7.3463e-12
5.44923e-12
5.55763e-12
4.26937e-12
3.41055e-12
3.3322e-12
2.63304e-12
2.66332e-12
1.68328e-12
2.12182e-12
1.33516e-12
1.71869e-12
8.92912e-13
1.38613e-12
7.52683e-13
1.12717e-12
5.63195e-13
9.08908e-13
4.9692e-13
7.30322e-13
4.23363e-13
5.74734e-13
4.12884e-13
4.40709e-13
3.7894e-13
3.189e-13
3.83732e-13
2.07796e-13
3.77799e-13
1.02731e-13
3.69124e-13
-2.20917e-16
3.88375e-13
-1.02789e-13
3.80703e-13
-2.07018e-13
3.47857e-13
-3.19032e-13
3.96642e-13
-4.41495e-13
3.98353e-13
-5.74194e-13
3.51307e-13
-7.30622e-13
4.27433e-13
-9.10028e-13
4.3688e-13
-1.12685e-12
4.65343e-13
-1.38638e-12
5.7447e-13
-1.71969e-12
7.65418e-13
-2.12127e-12
8.67516e-13
-2.66319e-12
1.34123e-12
-3.3327e-12
1.69469e-12
-4.26846e-12
2.60578e-12
-5.44904e-12
3.42037e-12
-7.18276e-12
5.5764e-12
-9.41486e-12
7.32412e-12
-1.28874e-11
1.24959e-11
-1.75212e-11
1.70201e-11
-2.5296e-11
3.06076e-11
-3.62217e-11
4.36536e-11
-5.69042e-11
8.77459e-11
-8.83519e-11
1.33893e-10
-1.62491e-10
3.35575e-10
-2.92527e-10
5.85107e-10
-7.67867e-10
2.44233e-09
-1.85685e-09
5.98106e-09
-6.29465e-09
6.60802e-08
-9.22369e-09
6.8866e-08
-1.44643e-07
8.58494e-09
-1.53229e-07
6.12177e-09
7.13291e-08
2.04142e-09
7.01605e-08
8.64467e-10
7.15799e-09
3.38994e-10
2.96783e-09
1.89065e-10
7.35021e-10
1.03841e-10
4.20785e-10
6.71246e-11
1.70647e-10
4.30467e-11
1.11807e-10
3.01847e-11
5.64937e-11
2.10424e-11
3.97755e-11
1.55373e-11
2.25087e-11
1.1414e-11
1.66034e-11
8.73244e-12
1.00276e-11
6.65172e-12
7.63819e-12
5.21992e-12
4.83935e-12
4.08221e-12
3.76485e-12
3.26231e-12
2.49735e-12
2.59864e-12
1.99148e-12
2.10075e-12
1.39555e-12
1.69073e-12
1.15986e-12
1.37027e-12
8.74419e-13
1.10117e-12
7.62838e-13
8.81336e-13
6.42724e-13
6.91067e-13
5.94437e-13
5.27983e-13
5.46352e-13
3.8099e-13
5.33296e-13
2.47675e-13
5.01574e-13
1.22197e-13
5.00171e-13
-1.62861e-16
5.10871e-13
-1.22196e-13
5.02198e-13
-2.47006e-13
4.74345e-13
-3.81162e-13
5.26862e-13
-5.28708e-13
5.49041e-13
-6.90657e-13
5.09184e-13
-8.81685e-13
6.16225e-13
-1.10229e-12
6.59491e-13
-1.3701e-12
7.40621e-13
-1.69102e-12
8.93466e-13
-2.10172e-12
1.17387e-12
-2.59822e-12
1.36139e-12
-3.26217e-12
2.00701e-12
-4.08264e-12
2.51165e-12
-5.21909e-12
3.73749e-12
-6.65152e-12
4.85796e-12
-8.73286e-12
7.66123e-12
-1.1413e-11
1.00022e-11
-1.55371e-11
1.66157e-11
-2.10427e-11
2.25213e-11
-3.0184e-11
3.9749e-11
-4.30467e-11
5.65075e-11
-6.71249e-11
1.11825e-10
-1.0384e-10
1.70617e-10
-1.89065e-10
4.20801e-10
-3.38994e-10
7.35032e-10
-8.64466e-10
2.9678e-09
-2.04142e-09
7.15801e-09
-6.12177e-09
7.01606e-08
-8.58495e-09
7.13292e-08
-1.53228e-07
7.93845e-09
-1.61167e-07
5.93812e-09
7.33295e-08
2.21956e-09
7.38791e-08
9.62526e-10
8.41503e-09
3.88123e-10
3.54224e-09
2.17327e-10
9.05819e-10
1.20463e-10
5.17651e-10
7.8102e-11
2.13004e-10
5.04016e-11
1.39507e-10
3.5453e-11
7.14516e-11
2.48452e-11
5.0391e-11
1.83987e-11
2.89566e-11
1.35745e-11
2.14337e-11
1.04087e-11
1.31954e-11
7.95317e-12
1.00949e-11
6.24873e-12
6.54345e-12
4.89455e-12
5.1185e-12
3.91111e-12
3.48451e-12
3.11542e-12
2.79139e-12
2.51485e-12
1.9902e-12
2.02098e-12
1.65611e-12
1.63387e-12
1.2671e-12
1.30972e-12
1.09359e-12
1.04514e-12
9.06968e-13
8.17311e-13
8.29874e-13
6.22676e-13
7.33404e-13
4.48352e-13
7.02915e-13
2.90982e-13
6.66365e-13
1.43315e-13
6.48975e-13
-1.10329e-16
6.52173e-13
-1.43259e-13
6.43678e-13
-2.90398e-13
6.2184e-13
-4.4857e-13
6.84699e-13
-6.23358e-13
7.2168e-13
-8.17009e-13
7.04652e-13
-1.04554e-12
8.40505e-13
-1.31083e-12
9.228e-13
-1.63388e-12
1.05591e-12
-2.02135e-12
1.27995e-12
-2.51579e-12
1.66567e-12
-3.11509e-12
1.95873e-12
-3.91098e-12
2.80801e-12
-4.89493e-12
3.49673e-12
-6.24799e-12
5.09427e-12
-7.95296e-12
6.55901e-12
-1.0409e-11
1.01083e-11
-1.35736e-11
1.31667e-11
-1.83985e-11
2.14399e-11
-2.48454e-11
2.89691e-11
-3.54523e-11
5.03532e-11
-5.04016e-11
7.1462e-11
-7.81023e-11
1.39523e-10
-1.20462e-10
2.12972e-10
-2.17326e-10
5.17661e-10
-3.88123e-10
9.05834e-10
-9.62525e-10
3.5422e-09
-2.21956e-09
8.41505e-09
-5.93812e-09
7.38791e-08
-7.93846e-09
7.33295e-08
-1.61166e-07
7.28387e-09
-1.68451e-07
5.74246e-09
7.48709e-08
2.39022e-09
7.72313e-08
1.06166e-09
9.74359e-09
4.39874e-10
4.16401e-09
2.47309e-10
1.09839e-09
1.38265e-10
6.26696e-10
8.98727e-11
2.61396e-10
5.83157e-11
1.71064e-10
4.11236e-11
8.8638e-11
2.89463e-11
6.25658e-11
2.14849e-11
3.64179e-11
1.59076e-11
2.70052e-11
1.22191e-11
1.68827e-11
9.36006e-12
1.29571e-11
7.36098e-12
8.54191e-12
5.7734e-12
6.70898e-12
4.61309e-12
4.65021e-12
3.67483e-12
3.7313e-12
2.96317e-12
2.70808e-12
2.37869e-12
2.23598e-12
1.91942e-12
1.73053e-12
1.53569e-12
1.47452e-12
1.22264e-12
1.21318e-12
9.54114e-13
1.09308e-12
7.25326e-13
9.60438e-13
5.21403e-13
9.12308e-13
3.37925e-13
8.56229e-13
1.66213e-13
8.11668e-13
-5.05994e-17
8.22409e-13
-1.66103e-13
8.13099e-13
-3.37444e-13
7.98083e-13
-5.21655e-13
8.6992e-13
-7.25956e-13
9.23688e-13
-9.53961e-13
9.33439e-13
-1.22309e-12
1.11601e-12
-1.53681e-12
1.22874e-12
-1.91958e-12
1.44486e-12
-2.37913e-12
1.74236e-12
-2.96408e-12
2.25007e-12
-3.67462e-12
2.66767e-12
-4.61298e-12
3.73794e-12
-5.7737e-12
4.65715e-12
-7.36034e-12
6.67856e-12
-9.35985e-12
8.55946e-12
-1.22193e-11
1.29755e-11
-1.59068e-11
1.68497e-11
-2.14847e-11
2.70169e-11
-2.89464e-11
3.64381e-11
-4.11231e-11
6.25312e-11
-5.83157e-11
8.86486e-11
-8.98729e-11
1.71081e-10
-1.38264e-10
2.61357e-10
-2.47309e-10
6.2671e-10
-4.39874e-10
1.0984e-09
-1.06166e-09
4.16398e-09
-2.39022e-09
9.7436e-09
-5.74246e-09
7.72314e-08
-7.28387e-09
7.48709e-08
-1.6845e-07
6.62341e-09
-1.75075e-07
5.53423e-09
7.59601e-08
2.55237e-09
8.02132e-08
1.16144e-09
1.11345e-08
4.94185e-10
4.83127e-09
2.79036e-10
1.31353e-09
1.5729e-10
7.48442e-10
1.02473e-10
3.16223e-10
6.68185e-11
2.06717e-10
4.72192e-11
1.08242e-10
3.33632e-11
7.64179e-11
2.48096e-11
4.49638e-11
1.84242e-11
3.33975e-11
1.41721e-11
2.11442e-11
1.08792e-11
1.62503e-11
8.56212e-12
1.08625e-11
6.72314e-12
8.54954e-12
5.37178e-12
5.99946e-12
4.27978e-12
4.82498e-12
3.44802e-12
3.53978e-12
2.76574e-12
2.92264e-12
2.22839e-12
2.26756e-12
1.78028e-12
1.92181e-12
1.41482e-12
1.58954e-12
1.10226e-12
1.4092e-12
8.36503e-13
1.23809e-12
6.00531e-13
1.13899e-12
3.88745e-13
1.06131e-12
1.91044e-13
1.02091e-12
2.01857e-18
1.01296e-12
-1.90855e-13
1.00754e-12
-3.88394e-13
9.85299e-13
-6.00816e-13
1.08347e-12
-8.37067e-13
1.16323e-12
-1.10225e-12
1.19655e-12
-1.41533e-12
1.42501e-12
-1.78141e-12
1.60335e-12
-2.22873e-12
1.88806e-12
-2.76624e-12
2.28307e-12
-3.44893e-12
2.9407e-12
-4.27968e-12
3.50532e-12
-5.37168e-12
4.83602e-12
-6.72338e-12
6.00651e-12
-8.56156e-12
8.5273e-12
-1.0879e-11
1.08764e-11
-1.41722e-11
1.62616e-11
-1.84235e-11
2.11039e-11
-2.48094e-11
3.3404e-11
-3.33632e-11
4.49791e-11
-4.72187e-11
7.63862e-11
-6.68185e-11
1.08246e-10
-1.02473e-10
2.06746e-10
-1.5729e-10
3.16181e-10
-2.79036e-10
7.48451e-10
-4.94185e-10
1.31354e-09
-1.16144e-09
4.83124e-09
-2.55237e-09
1.11345e-08
-5.53424e-09
8.02132e-08
-6.62342e-09
7.59601e-08
-1.75074e-07
5.95958e-09
-1.81034e-07
5.31342e-09
7.66062e-08
2.70497e-09
8.28216e-08
1.2614e-09
1.25781e-08
5.50965e-10
5.54171e-09
3.12525e-10
1.55197e-09
1.77582e-10
8.83384e-10
1.15939e-10
3.77857e-10
7.59401e-11
2.4672e-10
5.37629e-11
1.30415e-10
3.81143e-11
9.20737e-11
2.8387e-11
5.46987e-11
2.11356e-11
4.06403e-11
1.62767e-11
2.59961e-11
1.25177e-11
2.00081e-11
9.85787e-12
1.35217e-11
7.7484e-12
1.06585e-11
6.19094e-12
7.5539e-12
4.9333e-12
6.0827e-12
3.97189e-12
4.49682e-12
3.1841e-12
3.71241e-12
2.56241e-12
2.8836e-12
2.04483e-12
2.43304e-12
1.62265e-12
2.00666e-12
1.26254e-12
1.76758e-12
9.5675e-13
1.5368e-12
6.86167e-13
1.4129e-12
4.43786e-13
1.30441e-12
2.17903e-13
1.24531e-12
6.06594e-17
1.22721e-12
-2.17683e-13
1.22186e-12
-4.43504e-13
1.21826e-12
-6.86484e-13
1.3257e-12
-9.573e-13
1.42911e-12
-1.26266e-12
1.49597e-12
-1.62322e-12
1.78589e-12
-2.04596e-12
2.02638e-12
-2.56292e-12
2.40346e-12
-3.18468e-12
2.90169e-12
-3.97279e-12
3.72715e-12
-4.93331e-12
4.46026e-12
-6.19087e-12
6.08718e-12
-7.74856e-12
7.5705e-12
-9.85743e-12
1.06234e-11
-1.25175e-11
1.3541e-11
-1.62767e-11
2.00306e-11
-2.11349e-11
2.59598e-11
-2.83868e-11
4.06576e-11
-3.81142e-11
5.47166e-11
-5.37625e-11
9.2032e-11
-7.59401e-11
1.3043e-10
-1.15939e-10
2.46737e-10
-1.77581e-10
3.77821e-10
-3.12524e-10
8.83396e-10
-5.50965e-10
1.55199e-09
-1.2614e-09
5.54168e-09
-2.70497e-09
1.25781e-08
-5.31342e-09
8.28217e-08
-5.95959e-09
7.66063e-08
-1.81033e-07
5.29475e-09
-1.86329e-07
5.08023e-09
7.68208e-08
2.84699e-09
8.50549e-08
1.36106e-09
1.4064e-08
6.10099e-10
6.29267e-09
3.47778e-10
1.8143e-09
1.99177e-10
1.03199e-09
1.30306e-10
4.46728e-10
8.57109e-11
2.91312e-10
6.07785e-11
1.55346e-10
4.32185e-11
1.0963e-10
3.22319e-11
6.56804e-11
2.40535e-11
4.88288e-11
1.85422e-11
3.15083e-11
1.42831e-11
2.42572e-11
1.12543e-11
1.65512e-11
8.85408e-12
1.30636e-11
7.07452e-12
9.33516e-12
5.63859e-12
7.51508e-12
4.53738e-12
5.59854e-12
3.63587e-12
4.61026e-12
2.92318e-12
3.60263e-12
2.33066e-12
3.03121e-12
1.84724e-12
2.48824e-12
1.43579e-12
2.18543e-12
1.08677e-12
1.89169e-12
7.78755e-13
1.72625e-12
5.03294e-13
1.58066e-12
2.46947e-13
1.49971e-12
1.24069e-16
1.4781e-12
-2.46687e-13
1.45857e-12
-5.03098e-13
1.47784e-12
-7.79111e-13
1.599e-12
-1.08729e-12
1.73669e-12
-1.43604e-12
1.85116e-12
-1.84787e-12
2.20666e-12
-2.33181e-12
2.50522e-12
-2.92387e-12
2.99924e-12
-3.63654e-12
3.60894e-12
-4.53827e-12
4.62675e-12
-5.63874e-12
5.56628e-12
-7.07444e-12
7.52749e-12
-8.85421e-12
9.34415e-12
-1.12539e-11
1.30273e-11
-1.42829e-11
1.65646e-11
-1.85421e-11
2.42864e-11
-2.40529e-11
3.1471e-11
-3.22318e-11
4.8828e-11
-4.32183e-11
6.57006e-11
-6.07781e-11
1.09591e-10
-8.57108e-11
1.55362e-10
-1.30306e-10
2.91336e-10
-1.99176e-10
4.46691e-10
-3.47777e-10
1.032e-09
-6.10099e-10
1.81431e-09
-1.36106e-09
6.29264e-09
-2.84699e-09
1.4064e-08
-5.08023e-09
8.50549e-08
-5.29476e-09
7.68208e-08
-1.86328e-07
4.63125e-09
-1.9096e-07
4.83504e-09
7.6617e-08
2.97744e-09
8.69125e-08
1.45986e-09
1.55816e-08
6.71439e-10
7.08108e-09
3.84789e-10
2.10094e-09
2.2211e-10
1.19467e-09
1.45609e-10
5.23232e-10
9.61612e-11
3.40759e-10
6.82901e-11
1.83225e-10
4.86952e-11
1.29228e-10
3.63597e-11
7.80244e-11
2.71903e-11
5.79924e-11
2.09784e-11
3.77228e-11
1.61834e-11
2.90635e-11
1.27577e-11
1.99758e-11
1.00453e-11
1.57696e-11
8.02667e-12
1.13565e-11
6.39906e-12
9.14678e-12
5.14722e-12
6.85097e-12
4.12333e-12
5.63781e-12
3.31251e-12
4.40742e-12
2.6392e-12
3.7032e-12
2.08976e-12
3.04152e-12
1.62289e-12
2.64447e-12
1.2272e-12
2.27406e-12
8.78779e-13
2.06656e-12
5.67594e-13
1.89458e-12
2.78345e-13
1.78615e-12
1.47845e-16
1.75839e-12
-2.78004e-13
1.75593e-12
-5.67487e-13
1.76041e-12
-8.79183e-13
1.91357e-12
-1.22769e-12
2.09024e-12
-1.62328e-12
2.24861e-12
-2.09046e-12
2.6636e-12
-2.64038e-12
3.04944e-12
-3.31338e-12
3.66974e-12
-4.12407e-12
4.42122e-12
-5.1481e-12
5.65399e-12
-6.39933e-12
6.81437e-12
-8.02663e-12
9.15736e-12
-1.00454e-11
1.13653e-11
-1.27574e-11
1.57432e-11
-1.61832e-11
1.99906e-11
-2.09783e-11
2.90856e-11
-2.71897e-11
3.76863e-11
-3.63595e-11
5.79995e-11
-4.8695e-11
7.8035e-11
-6.82898e-11
1.29187e-10
-9.61612e-11
1.8324e-10
-1.45609e-10
3.40782e-10
-2.22109e-10
5.23197e-10
-3.84789e-10
1.19468e-09
-6.71439e-10
2.10095e-09
-1.45986e-09
7.08106e-09
-2.97744e-09
1.55816e-08
-4.83504e-09
8.69125e-08
-4.63126e-09
7.6617e-08
-1.90959e-07
3.97138e-09
-1.94932e-07
4.57833e-09
7.601e-08
3.09534e-09
8.83955e-08
1.55724e-09
1.71197e-08
7.34808e-10
7.90352e-09
4.23537e-10
2.41222e-09
2.46409e-10
1.37179e-09
1.6188e-10
6.07753e-10
1.07321e-10
3.95322e-10
7.63224e-11
2.14216e-10
5.45646e-11
1.50986e-10
4.07861e-11
9.17939e-11
3.05586e-11
6.82267e-11
2.35955e-11
4.46791e-11
1.82267e-11
3.44246e-11
1.43747e-11
2.38214e-11
1.13276e-11
1.88217e-11
9.0518e-12
1.36374e-11
7.21828e-12
1.09773e-11
5.80433e-12
8.26855e-12
4.64878e-12
6.801e-12
3.7323e-12
5.33195e-12
2.97203e-12
4.46726e-12
2.35137e-12
3.65952e-12
1.8248e-12
3.17228e-12
1.3788e-12
2.72782e-12
9.86783e-13
2.46161e-12
6.36993e-13
2.24016e-12
3.12272e-13
2.11058e-12
2.18152e-16
2.06201e-12
-3.11896e-13
2.05793e-12
-6.36969e-13
2.09727e-12
-9.87208e-13
2.25765e-12
-1.37923e-12
2.47982e-12
-1.82537e-12
2.69551e-12
-2.35216e-12
3.20119e-12
-2.97322e-12
3.68219e-12
-3.73335e-12
4.43358e-12
-4.64962e-12
5.34057e-12
-5.80522e-12
6.8049e-12
-7.21867e-12
8.22799e-12
-9.05179e-12
1.09891e-11
-1.13276e-11
1.36447e-11
-1.43746e-11
1.87921e-11
-1.82265e-11
2.38415e-11
-2.35953e-11
3.4453e-11
-3.05582e-11
4.46464e-11
-4.07859e-11
6.82293e-11
-5.45642e-11
9.18059e-11
-7.63221e-11
1.50946e-10
-1.07321e-10
2.14231e-10
-1.6188e-10
3.95343e-10
-2.46409e-10
6.07719e-10
-4.23537e-10
1.37181e-09
-7.34807e-10
2.41223e-09
-1.55724e-09
7.90349e-09
-3.09534e-09
1.71197e-08
-4.57833e-09
8.83955e-08
-3.97139e-09
7.60101e-08
-1.94931e-07
3.31746e-09
-1.98249e-07
4.31066e-09
7.50168e-08
3.19975e-09
8.95064e-08
1.65261e-09
1.86668e-08
7.99993e-10
8.75614e-09
4.63986e-10
2.74822e-09
2.72097e-10
1.56368e-09
1.79149e-10
7.00706e-10
1.19221e-10
4.55249e-10
8.49002e-11
2.4854e-10
6.08469e-11
1.75038e-10
4.55276e-11
1.07114e-10
3.41718e-11
7.95752e-11
2.64041e-11
5.24478e-11
2.04217e-11
4.04122e-11
1.61124e-11
2.81389e-11
1.27065e-11
2.22178e-11
1.01545e-11
1.61817e-11
8.10004e-12
1.30375e-11
6.51179e-12
9.85426e-12
5.21476e-12
8.08686e-12
4.18455e-12
6.35607e-12
3.33073e-12
5.31599e-12
2.63339e-12
4.36193e-12
2.04254e-12
3.76524e-12
1.54228e-12
3.22951e-12
1.10328e-12
2.90397e-12
7.11878e-13
2.63453e-12
3.48864e-13
2.4756e-12
2.70186e-16
2.40749e-12
-3.4842e-13
2.40181e-12
-7.11968e-13
2.45775e-12
-1.10374e-12
2.65459e-12
-1.54268e-12
2.93089e-12
-2.04326e-12
3.18695e-12
-2.63426e-12
3.78219e-12
-3.33197e-12
4.37937e-12
-4.1858e-12
5.28526e-12
-5.21571e-12
6.37092e-12
-6.51267e-12
8.1069e-12
-8.10053e-12
9.81986e-12
-1.01545e-11
1.3044e-11
-1.27064e-11
1.61969e-11
-1.61124e-11
2.21839e-11
-2.04215e-11
2.81498e-11
-2.64039e-11
4.04316e-11
-3.41714e-11
5.2414e-11
-4.55275e-11
7.95847e-11
-6.08465e-11
1.07136e-10
-8.48999e-11
1.74999e-10
-1.19221e-10
2.48555e-10
-1.79149e-10
4.5527e-10
-2.72097e-10
7.00668e-10
-4.63986e-10
1.5637e-09
-7.99993e-10
2.74823e-09
-1.65261e-09
8.75611e-09
-3.19975e-09
1.86669e-08
-4.31067e-09
8.95064e-08
-3.31748e-09
7.50169e-08
-1.98248e-07
2.67185e-09
-2.00921e-07
4.03269e-09
7.3656e-08
3.2898e-09
9.02493e-08
1.74533e-09
2.02113e-08
8.66749e-10
9.63472e-09
5.06083e-10
3.10888e-09
2.99189e-10
1.77057e-09
1.97445e-10
8.02453e-10
1.3189e-10
5.20804e-10
9.40482e-11
2.86389e-10
6.75631e-11
2.01521e-10
5.0601e-11
1.24077e-10
3.80435e-11
9.21367e-11
2.94154e-11
6.10761e-11
2.27774e-11
4.70482e-11
1.7978e-11
3.29355e-11
1.4188e-11
2.60221e-11
1.13397e-11
1.90331e-11
9.04827e-12
1.53216e-11
7.27278e-12
1.16303e-11
5.8239e-12
9.54385e-12
4.6714e-12
7.50711e-12
3.71705e-12
6.27141e-12
2.93717e-12
5.13224e-12
2.27717e-12
4.42007e-12
1.71848e-12
3.78582e-12
1.22887e-12
3.38553e-12
7.92606e-13
3.06975e-12
3.88297e-13
2.8846e-12
3.20658e-16
2.80217e-12
-3.87802e-13
2.7939e-12
-7.92791e-13
2.85586e-12
-1.22932e-12
3.09026e-12
-1.71888e-12
3.41379e-12
-2.27803e-12
3.75248e-12
-2.93813e-12
4.44445e-12
-3.71833e-12
5.15722e-12
-4.67286e-12
6.24026e-12
-5.82495e-12
7.51991e-12
-7.2737e-12
9.55193e-12
-9.0489e-12
1.15887e-11
-1.13397e-11
1.53335e-11
-1.41879e-11
1.90461e-11
-1.79781e-11
2.59858e-11
-2.27772e-11
3.29463e-11
-2.9415e-11
4.70696e-11
-3.80432e-11
6.10448e-11
-5.06009e-11
9.21475e-11
-6.75626e-11
1.24097e-10
-9.4048e-11
2.01485e-10
-1.3189e-10
2.86401e-10
-1.97444e-10
5.20826e-10
-2.99189e-10
8.02411e-10
-5.06082e-10
1.77059e-09
-8.66748e-10
3.1089e-09
-1.74533e-09
9.63469e-09
-3.2898e-09
2.02113e-08
-4.0327e-09
9.02493e-08
-2.67186e-09