/*--------------------------------*- C++ -*----------------------------------*\
| =========                 |                                                 |
| \\      /  F ield         | foam-extend: Open Source CFD                    |
|  \\    /   O peration     | Version:     4.0                                |
|   \\  /    A nd           | Web:         http://www.foam-extend.org         |
|    \\/     M anipulation  |                                                 |
\*---------------------------------------------------------------------------*/
FoamFile
{
    version     2.0;
    format      ascii;
    class       volVectorField;
    location    "3";
    object      U;
}
// * * * * * * * * * * * * * * * * * * * * * * * * * * * * * * * * * * * * * //

dimensions      [0 1 -1 0 0 0 0];

internalField   nonuniform List<vector> 
6960
(
(-3.32761e-06 -316.814 0)
(-2.64273e-06 -316.804 0)
(1.09402e-06 -316.804 0)
(3.8439e-07 -316.804 0)
(-1.29381e-08 -316.804 0)
(-1.65459e-08 -316.804 0)
(-4.10074e-08 -316.804 0)
(-3.33129e-08 -316.804 0)
(-3.34369e-08 -316.804 0)
(-2.71089e-08 -316.804 0)
(-2.42925e-08 -316.804 0)
(-1.97548e-08 -316.804 0)
(-1.69981e-08 -316.804 0)
(-1.37937e-08 -316.804 0)
(-1.15709e-08 -316.804 0)
(-9.30824e-09 -316.804 0)
(-7.62563e-09 -316.804 0)
(-6.03816e-09 -316.804 0)
(-4.81598e-09 -316.804 0)
(-3.7221e-09 -316.804 0)
(-2.87179e-09 -316.804 0)
(-2.14432e-09 -316.804 0)
(-1.58557e-09 -316.804 0)
(-1.13034e-09 -316.804 0)
(-7.90706e-10 -316.804 0)
(-5.28542e-10 -316.804 0)
(-3.42202e-10 -316.804 0)
(-2.0485e-10 -316.804 0)
(-1.0919e-10 -316.804 0)
(-3.33901e-11 -316.804 0)
(3.4136e-11 -316.804 0)
(1.09152e-10 -316.804 0)
(2.04279e-10 -316.804 0)
(3.43627e-10 -316.804 0)
(5.2908e-10 -316.804 0)
(7.9022e-10 -316.804 0)
(1.13158e-09 -316.804 0)
(1.58666e-09 -316.804 0)
(2.14436e-09 -316.804 0)
(2.873e-09 -316.804 0)
(3.72245e-09 -316.804 0)
(4.81572e-09 -316.804 0)
(6.04061e-09 -316.804 0)
(7.62738e-09 -316.804 0)
(9.30833e-09 -316.804 0)
(1.15722e-08 -316.804 0)
(1.37946e-08 -316.804 0)
(1.69982e-08 -316.804 0)
(1.97565e-08 -316.804 0)
(2.42933e-08 -316.804 0)
(2.71087e-08 -316.804 0)
(3.34389e-08 -316.804 0)
(3.3314e-08 -316.804 0)
(4.10076e-08 -316.804 0)
(1.65483e-08 -316.804 0)
(1.29408e-08 -316.804 0)
(-3.84388e-07 -316.804 0)
(-1.09402e-06 -316.804 0)
(2.64274e-06 -316.804 0)
(3.3276e-06 -316.814 0)
(0.000288883 35.2422 0)
(0.000291372 35.2518 0)
(3.86575e-06 35.2518 0)
(1.44313e-06 35.2518 0)
(1.93987e-07 35.2518 0)
(1.15415e-07 35.2518 0)
(4.14807e-09 35.2518 0)
(-1.33496e-09 35.2518 0)
(-2.16121e-08 35.2518 0)
(-1.82844e-08 35.2518 0)
(-2.17066e-08 35.2518 0)
(-1.77144e-08 35.2518 0)
(-1.71067e-08 35.2518 0)
(-1.38068e-08 35.2518 0)
(-1.22788e-08 35.2518 0)
(-9.79652e-09 35.2518 0)
(-8.27801e-09 35.2518 0)
(-6.45738e-09 35.2518 0)
(-5.23448e-09 35.2518 0)
(-3.95721e-09 35.2518 0)
(-3.04176e-09 35.2518 0)
(-2.20922e-09 35.2518 0)
(-1.59577e-09 35.2518 0)
(-1.07063e-09 35.2518 0)
(-7.23988e-10 35.2518 0)
(-4.36154e-10 35.2518 0)
(-2.51399e-10 35.2518 0)
(-1.39261e-10 35.2518 0)
(-6.04937e-11 35.2518 0)
(5.83055e-12 35.2518 0)
(-3.242e-11 35.2518 0)
(6.84461e-11 35.2518 0)
(1.97589e-10 35.2518 0)
(1.94258e-10 35.2518 0)
(4.36911e-10 35.2518 0)
(7.82182e-10 35.2518 0)
(1.01285e-09 35.2518 0)
(1.59685e-09 35.2518 0)
(2.26815e-09 35.2518 0)
(2.98401e-09 35.2518 0)
(3.95741e-09 35.2518 0)
(5.29319e-09 35.2518 0)
(6.40168e-09 35.2518 0)
(8.28034e-09 35.2518 0)
(9.85603e-09 35.2518 0)
(1.22215e-08 35.2518 0)
(1.38083e-08 35.2518 0)
(1.71662e-08 35.2518 0)
(1.76576e-08 35.2518 0)
(2.17077e-08 35.2518 0)
(1.8343e-08 35.2518 0)
(2.15558e-08 35.2518 0)
(1.33664e-09 35.2518 0)
(-4.08834e-09 35.2518 0)
(-1.1547e-07 35.2518 0)
(-1.93982e-07 35.2518 0)
(-1.44306e-06 35.2518 0)
(-3.86581e-06 35.2518 0)
(-0.000291372 35.2518 0)
(-0.000288883 35.2422 0)
(0.000260245 44.7936 0)
(0.000264309 44.7901 0)
(6.41318e-06 44.7901 0)
(2.55202e-06 44.7901 0)
(4.72679e-07 44.7901 0)
(2.94979e-07 44.7901 0)
(8.58621e-08 44.7901 0)
(5.8366e-08 44.7901 0)
(1.22679e-08 44.7901 0)
(8.04531e-09 44.7901 0)
(-4.93545e-09 44.7901 0)
(-4.22709e-09 44.7901 0)
(-7.86422e-09 44.7901 0)
(-6.23996e-09 44.7901 0)
(-6.82506e-09 44.7901 0)
(-5.29521e-09 44.7901 0)
(-4.91398e-09 44.7901 0)
(-3.6777e-09 44.7901 0)
(-3.10264e-09 44.7901 0)
(-2.20047e-09 44.7901 0)
(-1.67533e-09 44.7901 0)
(-1.08975e-09 44.7901 0)
(-7.21714e-10 44.7901 0)
(-3.67144e-10 44.7901 0)
(-1.80915e-10 44.7901 0)
(-1.53082e-11 44.7901 0)
(5.38586e-11 44.7901 0)
(7.37607e-11 44.7901 0)
(6.10074e-11 44.7901 0)
(4.50655e-11 44.7901 0)
(-6.8753e-11 44.7901 0)
(-5.37704e-11 44.7901 0)
(-2.16164e-11 44.7901 0)
(-1.04959e-10 44.7901 0)
(1.60352e-11 44.7901 0)
(2.32696e-10 44.7901 0)
(3.15063e-10 44.7901 0)
(7.22214e-10 44.7901 0)
(1.14224e-09 44.7901 0)
(1.62333e-09 44.7901 0)
(2.20031e-09 44.7901 0)
(3.15519e-09 44.7901 0)
(3.62811e-09 44.7901 0)
(4.91615e-09 44.7901 0)
(5.34886e-09 44.7901 0)
(6.77395e-09 44.7901 0)
(6.24179e-09 44.7901 0)
(7.91782e-09 44.7901 0)
(4.17625e-09 44.7901 0)
(4.9367e-09 44.7901 0)
(-7.99316e-09 44.7901 0)
(-1.2318e-08 44.7901 0)
(-5.83642e-08 44.7901 0)
(-8.58083e-08 44.7901 0)
(-2.95028e-07 44.7901 0)
(-4.72673e-07 44.7901 0)
(-2.55197e-06 44.7901 0)
(-6.41323e-06 44.7901 0)
(-0.000264309 44.7901 0)
(-0.000260245 44.7936 0)
(0.000154884 10.0932 0)
(0.000160336 10.0892 0)
(8.71574e-06 10.0892 0)
(3.61757e-06 10.0892 0)
(7.72474e-07 10.0892 0)
(4.85542e-07 10.0892 0)
(1.76258e-07 10.0892 0)
(1.23992e-07 10.0892 0)
(5.08573e-08 10.0892 0)
(3.79101e-08 10.0892 0)
(1.46981e-08 10.0892 0)
(1.14942e-08 10.0892 0)
(3.20568e-09 10.0892 0)
(2.77801e-09 10.0892 0)
(-1.88693e-10 10.0892 0)
(1.53153e-10 10.0892 0)
(-7.84152e-10 10.0892 0)
(-2.91542e-10 10.0892 0)
(-4.83141e-10 10.0892 0)
(-6.28237e-11 10.0892 0)
(-1.21638e-11 10.0892 0)
(2.60606e-10 10.0892 0)
(3.27184e-10 10.0892 0)
(4.65075e-10 10.0892 0)
(4.59853e-10 10.0892 0)
(4.73961e-10 10.0892 0)
(4.04728e-10 10.0892 0)
(3.19004e-10 10.0892 0)
(1.98632e-10 10.0892 0)
(8.39639e-11 10.0892 0)
(-9.74556e-11 10.0892 0)
(-1.94199e-10 10.0892 0)
(-2.88635e-10 10.0892 0)
(-4.34406e-10 10.0892 0)
(-4.73368e-10 10.0892 0)
(-4.29953e-10 10.0892 0)
(-4.95907e-10 10.0892 0)
(-3.27306e-10 10.0892 0)
(-2.30033e-10 10.0892 0)
(-1.85208e-11 10.0892 0)
(6.23336e-11 10.0892 0)
(5.14021e-10 10.0892 0)
(2.63514e-10 10.0892 0)
(7.8612e-10 10.0892 0)
(-1.20978e-10 10.0892 0)
(1.59124e-10 10.0892 0)
(-2.77598e-09 10.0892 0)
(-3.17358e-09 10.0892 0)
(-1.15235e-08 10.0892 0)
(-1.46967e-08 10.0892 0)
(-3.78798e-08 10.0892 0)
(-5.08858e-08 10.0892 0)
(-1.2399e-07 10.0892 0)
(-1.76226e-07 10.0892 0)
(-4.8557e-07 10.0892 0)
(-7.72468e-07 10.0892 0)
(-3.61754e-06 10.0892 0)
(-8.71576e-06 10.0892 0)
(-0.000160336 10.0892 0)
(-0.000154884 10.0932 0)
(0.000109994 0.545945 0)
(0.000116768 0.544752 0)
(1.08916e-05 0.544747 0)
(4.63376e-06 0.544736 0)
(1.08399e-06 0.544736 0)
(6.80691e-07 0.544736 0)
(2.70615e-07 0.544736 0)
(1.91877e-07 0.544736 0)
(9.1263e-08 0.544735 0)
(6.89822e-08 0.544735 0)
(3.53169e-08 0.544735 0)
(2.79271e-08 0.544735 0)
(1.48591e-08 0.544735 0)
(1.2237e-08 0.544735 0)
(6.81321e-09 0.544735 0)
(5.8818e-09 0.544735 0)
(3.57756e-09 0.544735 0)
(3.27761e-09 0.544735 0)
(2.28335e-09 0.544735 0)
(2.19133e-09 0.544735 0)
(1.74641e-09 0.544735 0)
(1.68307e-09 0.544735 0)
(1.43434e-09 0.544735 0)
(1.34347e-09 0.544735 0)
(1.13379e-09 0.544735 0)
(9.88845e-10 0.544735 0)
(7.75555e-10 0.544735 0)
(5.7529e-10 0.544735 0)
(3.44308e-10 0.544735 0)
(1.29814e-10 0.544735 0)
(-1.38805e-10 0.544735 0)
(-3.41041e-10 0.544735 0)
(-5.54467e-10 0.544735 0)
(-7.96111e-10 0.544735 0)
(-9.88411e-10 0.544735 0)
(-1.11351e-09 0.544735 0)
(-1.36528e-09 0.544735 0)
(-1.43509e-09 0.544735 0)
(-1.66213e-09 0.544735 0)
(-1.76801e-09 0.544735 0)
(-2.19214e-09 0.544735 0)
(-2.26188e-09 0.544735 0)
(-3.29632e-09 0.544735 0)
(-3.57578e-09 0.544735 0)
(-5.85887e-09 0.544735 0)
(-6.83351e-09 0.544735 0)
(-1.22348e-08 0.544735 0)
(-1.48363e-08 0.544735 0)
(-2.79471e-08 0.544735 0)
(-3.53153e-08 0.544735 0)
(-6.89616e-08 0.544735 0)
(-9.12821e-08 0.544735 0)
(-1.91875e-07 0.544736 0)
(-2.70592e-07 0.544736 0)
(-6.80709e-07 0.544736 0)
(-1.08398e-06 0.544736 0)
(-4.63373e-06 0.544736 0)
(-1.08916e-05 0.544747 0)
(-0.000116768 0.544752 0)
(-0.000109994 0.545945 0)
(9.68931e-05 -0.119037 0)
(0.000104905 -0.119116 0)
(1.29323e-05 -0.119119 0)
(5.60772e-06 -0.119131 0)
(1.40517e-06 -0.119132 0)
(8.79393e-07 -0.119132 0)
(3.68334e-07 -0.119132 0)
(2.61572e-07 -0.119132 0)
(1.33149e-07 -0.119132 0)
(1.00996e-07 -0.119132 0)
(5.67107e-08 -0.119132 0)
(4.49012e-08 -0.119132 0)
(2.69604e-08 -0.119132 0)
(2.20267e-08 -0.119132 0)
(1.40916e-08 -0.119132 0)
(1.18203e-08 -0.119132 0)
(8.11462e-09 -0.119132 0)
(6.98432e-09 -0.119132 0)
(5.16247e-09 -0.119132 0)
(4.53489e-09 -0.119132 0)
(3.57912e-09 -0.119132 0)
(3.16283e-09 -0.119132 0)
(2.58846e-09 -0.119132 0)
(2.2593e-09 -0.119132 0)
(1.83596e-09 -0.119132 0)
(1.52557e-09 -0.119132 0)
(1.16327e-09 -0.119132 0)
(8.41825e-10 -0.119132 0)
(4.96871e-10 -0.119132 0)
(1.80179e-10 -0.119132 0)
(-1.87656e-10 -0.119132 0)
(-4.93906e-10 -0.119132 0)
(-8.24105e-10 -0.119132 0)
(-1.18118e-09 -0.119132 0)
(-1.5253e-09 -0.119132 0)
(-1.81884e-09 -0.119132 0)
(-2.27854e-09 -0.119132 0)
(-2.58983e-09 -0.119132 0)
(-3.14508e-09 -0.119132 0)
(-3.5981e-09 -0.119132 0)
(-4.53602e-09 -0.119132 0)
(-5.14397e-09 -0.119132 0)
(-7.00017e-09 -0.119132 0)
(-8.11303e-09 -0.119132 0)
(-1.18002e-08 -0.119132 0)
(-1.41091e-08 -0.119132 0)
(-2.20244e-08 -0.119132 0)
(-2.69405e-08 -0.119132 0)
(-4.49183e-08 -0.119132 0)
(-5.67088e-08 -0.119132 0)
(-1.00979e-07 -0.119132 0)
(-1.33166e-07 -0.119132 0)
(-2.6157e-07 -0.119132 0)
(-3.68314e-07 -0.119132 0)
(-8.79409e-07 -0.119132 0)
(-1.40516e-06 -0.119132 0)
(-5.6077e-06 -0.119131 0)
(-1.29323e-05 -0.119119 0)
(-0.000104905 -0.119116 0)
(-9.68931e-05 -0.119037 0)
(8.88348e-05 0.0522941 0)
(9.79673e-05 0.0523464 0)
(1.48072e-05 0.0523441 0)
(6.54044e-06 0.05233 0)
(1.73466e-06 0.0523295 0)
(1.08114e-06 0.0523293 0)
(4.6922e-07 0.0523293 0)
(3.32944e-07 0.0523292 0)
(1.76426e-07 0.0523292 0)
(1.3388e-07 0.0523292 0)
(7.88226e-08 0.0523292 0)
(6.23685e-08 0.0523292 0)
(3.94719e-08 0.0523292 0)
(3.2115e-08 0.0523292 0)
(2.16193e-08 0.0523292 0)
(1.79473e-08 0.0523292 0)
(1.28089e-08 0.0523292 0)
(1.08131e-08 0.0523292 0)
(8.14278e-09 0.0523292 0)
(6.95811e-09 0.0523292 0)
(5.47757e-09 0.0523292 0)
(4.69428e-09 0.0523292 0)
(3.78467e-09 0.0523292 0)
(3.20822e-09 0.0523292 0)
(2.56412e-09 0.0523292 0)
(2.08206e-09 0.0523292 0)
(1.56581e-09 0.0523292 0)
(1.11821e-09 0.0523292 0)
(6.55393e-10 0.0523292 0)
(2.32829e-10 0.0523292 0)
(-2.39268e-10 0.0523292 0)
(-6.52594e-10 0.0523292 0)
(-1.10255e-09 0.0523292 0)
(-1.5821e-09 0.0523292 0)
(-2.08197e-09 0.0523292 0)
(-2.54913e-09 0.0523292 0)
(-3.22592e-09 0.0523292 0)
(-3.78669e-09 0.0523292 0)
(-4.67871e-09 0.0523292 0)
(-5.495e-09 0.0523292 0)
(-6.95955e-09 0.0523292 0)
(-8.12619e-09 0.0523292 0)
(-1.08271e-08 0.0523292 0)
(-1.28075e-08 0.0523292 0)
(-1.79289e-08 0.0523292 0)
(-2.1635e-08 0.0523292 0)
(-3.21125e-08 0.0523292 0)
(-3.94537e-08 0.0523292 0)
(-6.23838e-08 0.0523292 0)
(-7.88205e-08 0.0523292 0)
(-1.33865e-07 0.0523292 0)
(-1.7644e-07 0.0523292 0)
(-3.32942e-07 0.0523292 0)
(-4.69201e-07 0.0523293 0)
(-1.08116e-06 0.0523293 0)
(-1.73465e-06 0.0523295 0)
(-6.54042e-06 0.05233 0)
(-1.48072e-05 0.0523441 0)
(-9.79673e-05 0.0523464 0)
(-8.88348e-05 0.0522941 0)
(8.05198e-05 0.0544899 0)
(9.06474e-05 0.0545271 0)
(1.65059e-05 0.0545251 0)
(7.42947e-06 0.0545097 0)
(2.07115e-06 0.054509 0)
(1.28554e-06 0.0545087 0)
(5.73167e-07 0.0545087 0)
(4.05938e-07 0.0545087 0)
(2.21067e-07 0.0545087 0)
(1.67615e-07 0.0545087 0)
(1.0164e-07 0.0545087 0)
(8.03178e-08 0.0545087 0)
(5.23848e-08 0.0545087 0)
(4.24942e-08 0.0545087 0)
(2.93902e-08 0.0545087 0)
(2.42574e-08 0.0545087 0)
(1.76562e-08 0.0545087 0)
(1.47601e-08 0.0545087 0)
(1.12214e-08 0.0545087 0)
(9.45853e-09 0.0545087 0)
(7.43967e-09 0.0545087 0)
(6.27597e-09 0.0545087 0)
(5.02177e-09 0.0545087 0)
(4.18914e-09 0.0545087 0)
(3.31768e-09 0.0545087 0)
(2.6578e-09 0.0545087 0)
(1.98266e-09 0.0545087 0)
(1.40431e-09 0.0545087 0)
(8.19679e-10 0.0545087 0)
(2.87294e-10 0.0545087 0)
(-2.92695e-10 0.0545087 0)
(-8.17023e-10 0.0545087 0)
(-1.39076e-09 0.0545087 0)
(-1.99732e-09 0.0545087 0)
(-2.65788e-09 0.0545087 0)
(-3.30484e-09 0.0545087 0)
(-4.20529e-09 0.0545087 0)
(-5.02445e-09 0.0545087 0)
(-6.2626e-09 0.0545087 0)
(-7.45553e-09 0.0545087 0)
(-9.46026e-09 0.0545087 0)
(-1.12068e-08 0.0545087 0)
(-1.47723e-08 0.0545087 0)
(-1.7655e-08 0.0545087 0)
(-2.42408e-08 0.0545087 0)
(-2.94041e-08 0.0545087 0)
(-4.24916e-08 0.0545087 0)
(-5.23685e-08 0.0545087 0)
(-8.03312e-08 0.0545087 0)
(-1.01638e-07 0.0545087 0)
(-1.67602e-07 0.0545087 0)
(-2.21079e-07 0.0545087 0)
(-4.05936e-07 0.0545087 0)
(-5.7315e-07 0.0545087 0)
(-1.28555e-06 0.0545087 0)
(-2.07114e-06 0.054509 0)
(-7.42945e-06 0.0545097 0)
(-1.65059e-05 0.0545251 0)
(-9.06474e-05 0.0545271 0)
(-8.05199e-05 0.0544899 0)
(7.23729e-05 0.0251061 0)
(8.33709e-05 0.025148 0)
(1.80277e-05 0.0251464 0)
(8.27201e-06 0.0251298 0)
(2.41332e-06 0.025129 0)
(1.49218e-06 0.0251286 0)
(6.80088e-07 0.0251286 0)
(4.8052e-07 0.0251285 0)
(2.67068e-07 0.0251285 0)
(2.022e-07 0.0251285 0)
(1.25165e-07 0.0251285 0)
(9.87515e-08 0.0251285 0)
(6.57019e-08 0.0251285 0)
(5.31663e-08 0.0251285 0)
(3.74059e-08 0.0251285 0)
(3.07521e-08 0.0251285 0)
(2.26576e-08 0.0251285 0)
(1.88264e-08 0.0251285 0)
(1.43991e-08 0.0251285 0)
(1.20368e-08 0.0251285 0)
(9.46601e-09 0.0251285 0)
(7.90839e-09 0.0251285 0)
(6.30021e-09 0.0251285 0)
(5.20243e-09 0.0251285 0)
(4.09691e-09 0.0251285 0)
(3.253e-09 0.0251285 0)
(2.41405e-09 0.0251285 0)
(1.70027e-09 0.0251285 0)
(9.8981e-10 0.0251285 0)
(3.4363e-10 0.0251285 0)
(-3.48008e-10 0.0251285 0)
(-9.87259e-10 0.0251285 0)
(-1.68876e-09 0.0251285 0)
(-2.42714e-09 0.0251285 0)
(-3.25327e-09 0.0251285 0)
(-4.08618e-09 0.0251285 0)
(-5.21711e-09 0.0251285 0)
(-6.30353e-09 0.0251285 0)
(-7.89719e-09 0.0251285 0)
(-9.48038e-09 0.0251285 0)
(-1.20388e-08 0.0251285 0)
(-1.43864e-08 0.0251285 0)
(-1.88368e-08 0.0251285 0)
(-2.26565e-08 0.0251285 0)
(-3.07372e-08 0.0251285 0)
(-3.7418e-08 0.0251285 0)
(-5.31636e-08 0.0251285 0)
(-6.56874e-08 0.0251285 0)
(-9.8763e-08 0.0251285 0)
(-1.25163e-07 0.0251285 0)
(-2.02188e-07 0.0251285 0)
(-2.67078e-07 0.0251285 0)
(-4.80518e-07 0.0251285 0)
(-6.80073e-07 0.0251286 0)
(-1.49219e-06 0.0251286 0)
(-2.41331e-06 0.025129 0)
(-8.27199e-06 0.0251298 0)
(-1.80277e-05 0.0251464 0)
(-8.33709e-05 0.025148 0)
(-7.23729e-05 0.0251061 0)
(6.47016e-05 0.0087154 0)
(7.64476e-05 0.00876915 0)
(1.93733e-05 0.00876801 0)
(9.06547e-06 0.00875029 0)
(2.75975e-06 0.00874934 0)
(1.70065e-06 0.00874884 0)
(7.89886e-07 0.00874877 0)
(5.56656e-07 0.00874872 0)
(3.14426e-07 0.00874871 0)
(2.37637e-07 0.0087487 0)
(1.49405e-07 0.00874869 0)
(1.17676e-07 0.00874869 0)
(7.9429e-08 0.00874869 0)
(6.41362e-08 0.00874869 0)
(4.56708e-08 0.00874869 0)
(3.74349e-08 0.00874869 0)
(2.78161e-08 0.00874869 0)
(2.30143e-08 0.00874869 0)
(1.76781e-08 0.00874869 0)
(1.46947e-08 0.00874869 0)
(1.15581e-08 0.00874869 0)
(9.59279e-09 0.00874869 0)
(7.62098e-09 0.00874869 0)
(6.24896e-09 0.00874869 0)
(4.9025e-09 0.00874869 0)
(3.86819e-09 0.00874869 0)
(2.86036e-09 0.00874869 0)
(2.00636e-09 0.00874869 0)
(1.16593e-09 0.00874869 0)
(4.01925e-10 0.00874869 0)
(-4.05327e-10 0.00874869 0)
(-1.16348e-09 0.00874869 0)
(-1.99676e-09 0.00874869 0)
(-2.87201e-09 0.00874869 0)
(-3.86865e-09 0.00874869 0)
(-4.89375e-09 0.00874869 0)
(-6.26225e-09 0.00874869 0)
(-7.62494e-09 0.00874869 0)
(-9.58362e-09 0.00874869 0)
(-1.15711e-08 0.00874869 0)
(-1.4697e-08 0.00874869 0)
(-1.76672e-08 0.00874869 0)
(-2.30232e-08 0.00874869 0)
(-2.78152e-08 0.00874869 0)
(-3.74216e-08 0.00874869 0)
(-4.56813e-08 0.00874869 0)
(-6.41335e-08 0.00874869 0)
(-7.94162e-08 0.00874869 0)
(-1.17685e-07 0.00874869 0)
(-1.49402e-07 0.00874869 0)
(-2.37628e-07 0.0087487 0)
(-3.14435e-07 0.00874871 0)
(-5.56654e-07 0.00874872 0)
(-7.89873e-07 0.00874877 0)
(-1.70066e-06 0.00874884 0)
(-2.75975e-06 0.00874934 0)
(-9.06546e-06 0.00875029 0)
(-1.93733e-05 0.00876801 0)
(-7.64476e-05 0.00876915 0)
(-6.47016e-05 0.0087154 0)
(5.74907e-05 0.00257536 0)
(6.98644e-05 0.00263796 0)
(2.05433e-05 0.00263731 0)
(9.80742e-06 0.00261865 0)
(3.10894e-06 0.00261751 0)
(1.91048e-06 0.0026169 0)
(9.02445e-07 0.00261682 0)
(6.34307e-07 0.00261675 0)
(3.63139e-07 0.00261674 0)
(2.73932e-07 0.00261672 0)
(1.74367e-07 0.00261672 0)
(1.37097e-07 0.00261672 0)
(9.35729e-08 0.00261671 0)
(7.54097e-08 0.00261671 0)
(5.419e-08 0.00261671 0)
(4.431e-08 0.00261671 0)
(3.31354e-08 0.00261671 0)
(2.7327e-08 0.00261671 0)
(2.10609e-08 0.00261671 0)
(1.74343e-08 0.00261671 0)
(1.37177e-08 0.00261671 0)
(1.13306e-08 0.00261671 0)
(8.98528e-09 0.00261671 0)
(7.32969e-09 0.00261671 0)
(5.73524e-09 0.00261671 0)
(4.50399e-09 0.00261671 0)
(3.32208e-09 0.00261671 0)
(2.32289e-09 0.00261671 0)
(1.34825e-09 0.00261671 0)
(4.62248e-10 0.00261671 0)
(-4.64723e-10 0.00261671 0)
(-1.34587e-09 0.00261671 0)
(-2.31509e-09 0.00261671 0)
(-3.33239e-09 0.00261671 0)
(-4.50467e-09 0.00261671 0)
(-5.72835e-09 0.00261671 0)
(-7.34172e-09 0.00261671 0)
(-8.98989e-09 0.00261671 0)
(-1.13233e-08 0.00261671 0)
(-1.37295e-08 0.00261671 0)
(-1.74369e-08 0.00261671 0)
(-2.10516e-08 0.00261671 0)
(-2.73344e-08 0.00261671 0)
(-3.31347e-08 0.00261671 0)
(-4.42983e-08 0.00261671 0)
(-5.4199e-08 0.00261671 0)
(-7.54069e-08 0.00261671 0)
(-9.35617e-08 0.00261671 0)
(-1.37105e-07 0.00261672 0)
(-1.74364e-07 0.00261672 0)
(-2.73924e-07 0.00261672 0)
(-3.63146e-07 0.00261674 0)
(-6.34305e-07 0.00261675 0)
(-9.02433e-07 0.00261682 0)
(-1.91049e-06 0.0026169 0)
(-3.10894e-06 0.00261751 0)
(-9.80741e-06 0.00261865 0)
(-2.05433e-05 0.00263731 0)
(-6.98644e-05 0.00263796 0)
(-5.74908e-05 0.00257536 0)
(5.0676e-05 0.000663953 0)
(6.35594e-05 0.000732105 0)
(2.15392e-05 0.00073196 0)
(1.04955e-05 0.000712495 0)
(3.45928e-06 0.000711152 0)
(2.12116e-06 0.000710426 0)
(1.01762e-06 0.000710323 0)
(7.13424e-07 0.000710242 0)
(4.13195e-07 0.000710222 0)
(3.11083e-07 0.000710204 0)
(2.00057e-07 0.000710199 0)
(1.57022e-07 0.000710193 0)
(1.0814e-07 0.000710191 0)
(8.69924e-08 0.000710189 0)
(6.29685e-08 0.000710188 0)
(5.13817e-08 0.000710187 0)
(3.86191e-08 0.000710187 0)
(3.17676e-08 0.000710186 0)
(2.455e-08 0.000710186 0)
(2.02579e-08 0.000710186 0)
(1.59466e-08 0.000710186 0)
(1.31234e-08 0.000710186 0)
(1.03944e-08 0.000710186 0)
(8.44563e-09 0.000710186 0)
(6.59595e-09 0.000710186 0)
(5.16106e-09 0.000710186 0)
(3.79969e-09 0.000710186 0)
(2.65019e-09 0.000710186 0)
(1.53696e-09 0.000710186 0)
(5.24663e-10 0.000710186 0)
(-5.26243e-10 0.000710186 0)
(-1.53467e-09 0.000710186 0)
(-2.64409e-09 0.000710186 0)
(-3.80873e-09 0.000710186 0)
(-5.16195e-09 0.000710186 0)
(-6.59084e-09 0.000710186 0)
(-8.45653e-09 0.000710186 0)
(-1.03996e-08 0.000710186 0)
(-1.31179e-08 0.000710186 0)
(-1.59574e-08 0.000710186 0)
(-2.02608e-08 0.000710186 0)
(-2.45424e-08 0.000710186 0)
(-3.17735e-08 0.000710186 0)
(-3.86186e-08 0.000710187 0)
(-5.13715e-08 0.000710187 0)
(-6.2976e-08 0.000710188 0)
(-8.69896e-08 0.000710189 0)
(-1.0813e-07 0.000710191 0)
(-1.57029e-07 0.000710193 0)
(-2.00054e-07 0.000710199 0)
(-3.11077e-07 0.000710204 0)
(-4.13201e-07 0.000710222 0)
(-7.13422e-07 0.000710242 0)
(-1.01761e-06 0.000710323 0)
(-2.12116e-06 0.000710426 0)
(-3.45928e-06 0.000711152 0)
(-1.04955e-05 0.000712495 0)
(-2.15392e-05 0.00073196 0)
(-6.35595e-05 0.000732105 0)
(-5.06761e-05 0.000663954 0)
(4.42205e-05 0.000130663 0)
(5.74988e-05 0.000202503 0)
(2.2363e-05 0.000202891 0)
(1.11276e-05 0.000182753 0)
(3.80908e-06 0.000181201 0)
(2.33212e-06 0.000180349 0)
(1.13526e-06 0.000180223 0)
(7.93945e-07 0.000180124 0)
(4.64581e-07 0.0001801 0)
(3.4909e-07 0.000180077 0)
(2.26479e-07 0.000180071 0)
(1.77457e-07 0.000180064 0)
(1.23136e-07 0.000180061 0)
(9.88899e-08 0.000180058 0)
(7.20113e-08 0.000180057 0)
(5.86543e-08 0.000180056 0)
(4.42709e-08 0.000180056 0)
(3.6339e-08 0.000180055 0)
(2.81483e-08 0.000180055 0)
(2.31676e-08 0.000180055 0)
(1.82468e-08 0.000180055 0)
(1.49726e-08 0.000180054 0)
(1.18496e-08 0.000180054 0)
(9.59788e-09 0.000180054 0)
(7.48548e-09 0.000180054 0)
(5.84004e-09 0.000180054 0)
(4.29369e-09 0.000180054 0)
(2.98865e-09 0.000180054 0)
(1.73228e-09 0.000180054 0)
(5.89225e-10 0.000180054 0)
(-5.89966e-10 0.000180054 0)
(-1.73005e-09 0.000180054 0)
(-2.98413e-09 0.000180054 0)
(-4.30153e-09 0.000180054 0)
(-5.84116e-09 0.000180054 0)
(-7.48207e-09 0.000180054 0)
(-9.60772e-09 0.000180054 0)
(-1.18555e-08 0.000180054 0)
(-1.49689e-08 0.000180054 0)
(-1.82565e-08 0.000180055 0)
(-2.31708e-08 0.000180055 0)
(-2.8142e-08 0.000180055 0)
(-3.63437e-08 0.000180055 0)
(-4.42706e-08 0.000180056 0)
(-5.86455e-08 0.000180056 0)
(-7.20173e-08 0.000180057 0)
(-9.8887e-08 0.000180058 0)
(-1.23128e-07 0.000180061 0)
(-1.77462e-07 0.000180064 0)
(-2.26475e-07 0.000180071 0)
(-3.49085e-07 0.000180077 0)
(-4.64586e-07 0.0001801 0)
(-7.93943e-07 0.000180124 0)
(-1.13525e-06 0.000180223 0)
(-2.33213e-06 0.000180349 0)
(-3.80908e-06 0.000181201 0)
(-1.11276e-05 0.000182753 0)
(-2.23629e-05 0.000202891 0)
(-5.74988e-05 0.000202503 0)
(-4.42205e-05 0.000130663 0)
(3.81097e-05 -8.36413e-06 0)
(5.16716e-05 6.62408e-05 0)
(2.30174e-05 6.71851e-05 0)
(1.17016e-05 4.65051e-05 0)
(4.15658e-06 4.47376e-05 0)
(2.54277e-06 4.37525e-05 0)
(1.25515e-06 4.36001e-05 0)
(8.75796e-07 4.34817e-05 0)
(5.17275e-07 4.34525e-05 0)
(3.87946e-07 4.34257e-05 0)
(2.53635e-07 4.34172e-05 0)
(1.98405e-07 4.34087e-05 0)
(1.38567e-07 4.34056e-05 0)
(1.11107e-07 4.34023e-05 0)
(8.13229e-08 4.34011e-05 0)
(6.61319e-08 4.33996e-05 0)
(5.00944e-08 4.3399e-05 0)
(4.10445e-08 4.33983e-05 0)
(3.18581e-08 4.3398e-05 0)
(2.61657e-08 4.33977e-05 0)
(2.06201e-08 4.33975e-05 0)
(1.68799e-08 4.33974e-05 0)
(1.33522e-08 4.33973e-05 0)
(1.07875e-08 4.33972e-05 0)
(8.40473e-09 4.33972e-05 0)
(6.54163e-09 4.33971e-05 0)
(4.80459e-09 4.33971e-05 0)
(3.3386e-09 4.33971e-05 0)
(1.93441e-09 4.33971e-05 0)
(6.55995e-10 4.33971e-05 0)
(-6.55968e-10 4.33971e-05 0)
(-1.93223e-09 4.3397e-05 0)
(-3.33556e-09 4.33971e-05 0)
(-4.81133e-09 4.33971e-05 0)
(-6.543e-09 4.33971e-05 0)
(-8.40293e-09 4.33972e-05 0)
(-1.07964e-08 4.33972e-05 0)
(-1.33587e-08 4.33973e-05 0)
(-1.68779e-08 4.33974e-05 0)
(-2.06289e-08 4.33975e-05 0)
(-2.61692e-08 4.33977e-05 0)
(-3.18533e-08 4.3398e-05 0)
(-4.1048e-08 4.33983e-05 0)
(-5.00943e-08 4.3399e-05 0)
(-6.61245e-08 4.33996e-05 0)
(-8.13277e-08 4.34011e-05 0)
(-1.11104e-07 4.34023e-05 0)
(-1.3856e-07 4.34056e-05 0)
(-1.98409e-07 4.34087e-05 0)
(-2.53631e-07 4.34172e-05 0)
(-3.87943e-07 4.34257e-05 0)
(-5.17279e-07 4.34525e-05 0)
(-8.75794e-07 4.34817e-05 0)
(-1.25514e-06 4.36001e-05 0)
(-2.54277e-06 4.37525e-05 0)
(-4.15657e-06 4.47376e-05 0)
(-1.17016e-05 4.65051e-05 0)
(-2.30174e-05 6.71851e-05 0)
(-5.16716e-05 6.62408e-05 0)
(-3.81098e-05 -8.36382e-06 0)
(3.23395e-05 -4.3674e-05 0)
(4.60777e-05 3.31657e-05 0)
(2.35062e-05 3.46887e-05 0)
(1.22157e-05 1.35956e-05 0)
(4.49991e-06 1.16091e-05 0)
(2.75245e-06 1.04843e-05 0)
(1.37708e-06 1.03025e-05 0)
(9.58889e-07 1.0163e-05 0)
(5.71248e-07 1.01277e-05 0)
(4.27644e-07 1.00958e-05 0)
(2.81525e-07 1.00855e-05 0)
(2.19871e-07 1.00753e-05 0)
(1.54436e-07 1.00716e-05 0)
(1.23649e-07 1.00676e-05 0)
(9.09078e-08 1.0066e-05 0)
(7.38185e-08 1.00643e-05 0)
(5.60931e-08 1.00635e-05 0)
(4.5887e-08 1.00627e-05 0)
(3.56823e-08 1.00623e-05 0)
(2.92545e-08 1.00619e-05 0)
(2.30684e-08 1.00617e-05 0)
(1.88469e-08 1.00614e-05 0)
(1.49036e-08 1.00613e-05 0)
(1.20156e-08 1.00612e-05 0)
(9.35456e-09 1.00612e-05 0)
(7.26652e-09 1.00611e-05 0)
(5.33289e-09 1.00611e-05 0)
(3.70041e-09 1.0061e-05 0)
(2.14355e-09 1.0061e-05 0)
(7.25058e-10 1.0061e-05 0)
(-7.24306e-10 1.0061e-05 0)
(-2.14144e-09 1.0061e-05 0)
(-3.69875e-09 1.0061e-05 0)
(-5.33861e-09 1.00611e-05 0)
(-7.26818e-09 1.00611e-05 0)
(-9.35427e-09 1.00612e-05 0)
(-1.20236e-08 1.00612e-05 0)
(-1.49107e-08 1.00613e-05 0)
(-1.88465e-08 1.00614e-05 0)
(-2.30764e-08 1.00617e-05 0)
(-2.92582e-08 1.00619e-05 0)
(-3.56788e-08 1.00623e-05 0)
(-4.58895e-08 1.00627e-05 0)
(-5.60931e-08 1.00635e-05 0)
(-7.38124e-08 1.00643e-05 0)
(-9.09114e-08 1.0066e-05 0)
(-1.23646e-07 1.00676e-05 0)
(-1.54431e-07 1.00716e-05 0)
(-2.19874e-07 1.00753e-05 0)
(-2.81522e-07 1.00855e-05 0)
(-4.27642e-07 1.00958e-05 0)
(-5.7125e-07 1.01277e-05 0)
(-9.58887e-07 1.0163e-05 0)
(-1.37707e-06 1.03025e-05 0)
(-2.75245e-06 1.04843e-05 0)
(-4.49991e-06 1.16091e-05 0)
(-1.22157e-05 1.35956e-05 0)
(-2.35062e-05 3.46887e-05 0)
(-4.60778e-05 3.31657e-05 0)
(-3.23396e-05 -4.36737e-05 0)
(2.69088e-05 -5.31846e-05 0)
(4.07207e-05 2.54996e-05 0)
(2.38336e-05 2.76199e-05 0)
(1.26682e-05 6.24078e-06 0)
(4.83718e-06 4.0335e-06 0)
(2.96045e-06 2.76333e-06 0)
(1.50078e-06 2.54913e-06 0)
(1.04312e-06 2.38663e-06 0)
(6.26462e-07 2.34445e-06 0)
(4.6817e-07 2.30697e-06 0)
(3.10148e-07 2.29461e-06 0)
(2.41857e-07 2.28254e-06 0)
(1.70749e-07 2.27801e-06 0)
(1.3652e-07 2.27327e-06 0)
(1.0077e-07 2.27133e-06 0)
(8.1718e-08 2.26922e-06 0)
(6.22704e-08 2.26829e-06 0)
(5.08697e-08 2.26728e-06 0)
(3.96233e-08 2.2668e-06 0)
(3.24361e-08 2.26629e-06 0)
(2.55935e-08 2.26603e-06 0)
(2.08752e-08 2.26576e-06 0)
(1.6505e-08 2.26561e-06 0)
(1.32832e-08 2.26547e-06 0)
(1.03358e-08 2.26539e-06 0)
(8.0154e-09 2.26531e-06 0)
(5.87914e-09 2.26527e-06 0)
(4.07446e-09 2.26523e-06 0)
(2.35993e-09 2.26521e-06 0)
(7.96481e-10 2.2652e-06 0)
(-7.95035e-10 2.2652e-06 0)
(-2.3579e-09 2.2652e-06 0)
(-4.07406e-09 2.26524e-06 0)
(-5.88391e-09 2.26527e-06 0)
(-8.0174e-09 2.2653e-06 0)
(-1.0337e-08 2.26539e-06 0)
(-1.32904e-08 2.26547e-06 0)
(-1.65127e-08 2.2656e-06 0)
(-2.08762e-08 2.26576e-06 0)
(-2.56009e-08 2.26603e-06 0)
(-3.24401e-08 2.26627e-06 0)
(-3.96211e-08 2.26681e-06 0)
(-5.08711e-08 2.26729e-06 0)
(-6.22706e-08 2.26828e-06 0)
(-8.17131e-08 2.26923e-06 0)
(-1.00773e-07 2.27133e-06 0)
(-1.36517e-07 2.27326e-06 0)
(-1.70745e-07 2.27801e-06 0)
(-2.41859e-07 2.28255e-06 0)
(-3.10144e-07 2.2946e-06 0)
(-4.68169e-07 2.30697e-06 0)
(-6.26463e-07 2.34446e-06 0)
(-1.04312e-06 2.38662e-06 0)
(-1.50077e-06 2.54913e-06 0)
(-2.96045e-06 2.76333e-06 0)
(-4.83718e-06 4.03349e-06 0)
(-1.26682e-05 6.24078e-06 0)
(-2.38336e-05 2.76199e-05 0)
(-4.07207e-05 2.54996e-05 0)
(-2.69089e-05 -5.31843e-05 0)
(2.18167e-05 -5.6446e-05 0)
(3.56045e-05 2.37386e-05 0)
(2.40046e-05 2.64709e-05 0)
(1.30578e-05 4.92989e-06 0)
(5.16642e-06 2.50242e-06 0)
(3.16603e-06 1.0824e-06 0)
(1.62597e-06 8.3269e-07 0)
(1.12838e-06 6.45215e-07 0)
(6.82871e-07 5.95398e-07 0)
(5.09506e-07 5.51724e-07 0)
(3.39498e-07 5.37041e-07 0)
(2.64363e-07 5.22899e-07 0)
(1.87507e-07 5.17474e-07 0)
(1.49724e-07 5.11892e-07 0)
(1.10914e-07 5.09555e-07 0)
(8.9834e-08 5.07063e-07 0)
(6.86296e-08 5.05933e-07 0)
(5.59953e-08 5.04728e-07 0)
(4.36837e-08 5.04136e-07 0)
(3.57128e-08 5.03514e-07 0)
(2.81973e-08 5.03191e-07 0)
(2.29663e-08 5.0286e-07 0)
(1.81579e-08 5.02673e-07 0)
(1.45916e-08 5.02496e-07 0)
(1.13495e-08 5.02393e-07 0)
(8.78903e-09 5.02296e-07 0)
(6.44388e-09 5.02242e-07 0)
(4.4611e-09 5.02195e-07 0)
(2.5838e-09 5.02167e-07 0)
(8.70329e-10 5.02159e-07 0)
(-8.68232e-10 5.02157e-07 0)
(-2.58183e-09 5.02161e-07 0)
(-4.46187e-09 5.022e-07 0)
(-6.44776e-09 5.02247e-07 0)
(-8.79136e-09 5.02285e-07 0)
(-1.1352e-08 5.02399e-07 0)
(-1.4598e-08 5.02501e-07 0)
(-1.81661e-08 5.02663e-07 0)
(-2.29688e-08 5.02864e-07 0)
(-2.82042e-08 5.03195e-07 0)
(-3.5717e-08 5.03502e-07 0)
(-4.36827e-08 5.04139e-07 0)
(-5.59959e-08 5.04731e-07 0)
(-6.86299e-08 5.05924e-07 0)
(-8.98303e-08 5.07067e-07 0)
(-1.10915e-07 5.09562e-07 0)
(-1.49721e-07 5.11881e-07 0)
(-1.87504e-07 5.17476e-07 0)
(-2.64364e-07 5.22904e-07 0)
(-3.39494e-07 5.3703e-07 0)
(-5.09506e-07 5.51728e-07 0)
(-6.82871e-07 5.95405e-07 0)
(-1.12838e-06 6.45204e-07 0)
(-1.62597e-06 8.32695e-07 0)
(-3.16603e-06 1.0824e-06 0)
(-5.16642e-06 2.50242e-06 0)
(-1.30578e-05 4.9299e-06 0)
(-2.40045e-05 2.64709e-05 0)
(-3.56046e-05 2.37386e-05 0)
(-2.18168e-05 -5.64457e-05 0)
(1.70616e-05 -5.81289e-05 0)
(3.07329e-05 2.32291e-05 0)
(2.40248e-05 2.65842e-05 0)
(1.33834e-05 5.00208e-06 0)
(5.48564e-06 2.3573e-06 0)
(3.36839e-06 7.83979e-07 0)
(1.75233e-06 4.95696e-07 0)
(1.21452e-06 2.81299e-07 0)
(7.4042e-07 2.22991e-07 0)
(5.5163e-07 1.72536e-07 0)
(3.69568e-07 1.55249e-07 0)
(2.87388e-07 1.3882e-07 0)
(2.04712e-07 1.32396e-07 0)
(1.63263e-07 1.25881e-07 0)
(1.21342e-07 1.23096e-07 0)
(9.81699e-08 1.20172e-07 0)
(7.51735e-08 1.18817e-07 0)
(6.12667e-08 1.17392e-07 0)
(4.7866e-08 1.16677e-07 0)
(3.90867e-08 1.15935e-07 0)
(3.08818e-08 1.1554e-07 0)
(2.51219e-08 1.15141e-07 0)
(1.98635e-08 1.14911e-07 0)
(1.59416e-08 1.14694e-07 0)
(1.23965e-08 1.14565e-07 0)
(9.5881e-09 1.14445e-07 0)
(7.02766e-09 1.14375e-07 0)
(4.86073e-09 1.14317e-07 0)
(2.81536e-09 1.14283e-07 0)
(9.46652e-10 1.14271e-07 0)
(-9.43991e-10 1.14268e-07 0)
(-2.81345e-09 1.14276e-07 0)
(-4.86256e-09 1.14323e-07 0)
(-7.03067e-09 1.14381e-07 0)
(-9.59078e-09 1.14435e-07 0)
(-1.24003e-08 1.14571e-07 0)
(-1.59474e-08 1.147e-07 0)
(-1.98722e-08 1.149e-07 0)
(-2.51257e-08 1.15144e-07 0)
(-3.08881e-08 1.15544e-07 0)
(-3.90912e-08 1.15923e-07 0)
(-4.7866e-08 1.1668e-07 0)
(-6.12665e-08 1.17395e-07 0)
(-7.51741e-08 1.18808e-07 0)
(-9.81672e-08 1.20177e-07 0)
(-1.21342e-07 1.23104e-07 0)
(-1.6326e-07 1.2587e-07 0)
(-2.0471e-07 1.32399e-07 0)
(-2.87388e-07 1.38825e-07 0)
(-3.69563e-07 1.55237e-07 0)
(-5.5163e-07 1.7254e-07 0)
(-7.40419e-07 2.22997e-07 0)
(-1.21452e-06 2.81287e-07 0)
(-1.75233e-06 4.95701e-07 0)
(-3.36838e-06 7.83983e-07 0)
(-5.48563e-06 2.35729e-06 0)
(-1.33834e-05 5.00209e-06 0)
(-2.40248e-05 2.65842e-05 0)
(-3.0733e-05 2.32291e-05 0)
(-1.70617e-05 -5.81286e-05 0)
(1.2641e-05 -5.93085e-05 0)
(2.61091e-05 2.29055e-05 0)
(2.39006e-05 2.68898e-05 0)
(1.36441e-05 5.38338e-06 0)
(5.7928e-06 2.52647e-06 0)
(3.56669e-06 7.97571e-07 0)
(1.8795e-06 4.67685e-07 0)