/*--------------------------------*- C++ -*----------------------------------*\
| =========                 |                                                 |
| \\      /  F ield         | foam-extend: Open Source CFD                    |
|  \\    /   O peration     | Version:     4.0                                |
|   \\  /    A nd           | Web:         http://www.foam-extend.org         |
|    \\/     M anipulation  |                                                 |
\*---------------------------------------------------------------------------*/
FoamFile
{
    version     2.0;
    format      ascii;
    class       volScalarField;
    location    "1110";
    object      cMinus;
}
// * * * * * * * * * * * * * * * * * * * * * * * * * * * * * * * * * * * * * //

dimensions      [0 0 0 0 0 0 0];

internalField   nonuniform List<scalar> 
6960
(
3.94683e-23
3.94719e-23
3.94536e-23
3.94327e-23
3.94133e-23
3.93963e-23
3.93816e-23
3.9369e-23
3.93583e-23
3.93491e-23
3.93412e-23
3.93345e-23
3.93287e-23
3.93237e-23
3.93194e-23
3.93157e-23
3.93125e-23
3.93097e-23
3.93072e-23
3.93051e-23
3.93033e-23
3.93017e-23
3.93004e-23
3.92993e-23
3.92983e-23
3.92976e-23
3.9297e-23
3.92966e-23
3.92963e-23
3.92961e-23
3.92961e-23
3.92963e-23
3.92966e-23
3.9297e-23
3.92976e-23
3.92983e-23
3.92993e-23
3.93004e-23
3.93017e-23
3.93033e-23
3.93051e-23
3.93072e-23
3.93097e-23
3.93125e-23
3.93157e-23
3.93194e-23
3.93237e-23
3.93287e-23
3.93345e-23
3.93412e-23
3.93491e-23
3.93583e-23
3.9369e-23
3.93816e-23
3.93963e-23
3.94133e-23
3.94327e-23
3.94536e-23
3.94719e-23
3.94683e-23
1.87467e-22
1.87529e-22
1.87462e-22
1.87382e-22
1.87306e-22
1.8724e-22
1.87183e-22
1.87134e-22
1.87092e-22
1.87057e-22
1.87027e-22
1.87001e-22
1.8698e-22
1.86961e-22
1.86946e-22
1.86932e-22
1.86921e-22
1.86911e-22
1.86902e-22
1.86895e-22
1.86889e-22
1.86884e-22
1.8688e-22
1.86876e-22
1.86873e-22
1.86871e-22
1.86869e-22
1.86868e-22
1.86867e-22
1.86866e-22
1.86866e-22
1.86867e-22
1.86868e-22
1.86869e-22
1.86871e-22
1.86873e-22
1.86876e-22
1.8688e-22
1.86884e-22
1.86889e-22
1.86895e-22
1.86902e-22
1.86911e-22
1.86921e-22
1.86932e-22
1.86946e-22
1.86961e-22
1.8698e-22
1.87001e-22
1.87027e-22
1.87057e-22
1.87092e-22
1.87134e-22
1.87183e-22
1.8724e-22
1.87306e-22
1.87382e-22
1.87462e-22
1.87529e-22
1.87467e-22
6.66209e-22
6.66529e-22
6.66394e-22
6.662e-22
6.66011e-22
6.65839e-22
6.65689e-22
6.65557e-22
6.65443e-22
6.65345e-22
6.6526e-22
6.65186e-22
6.65122e-22
6.65067e-22
6.65019e-22
6.64978e-22
6.64942e-22
6.64912e-22
6.64885e-22
6.64862e-22
6.64843e-22
6.64826e-22
6.64812e-22
6.648e-22
6.64791e-22
6.64783e-22
6.64777e-22
6.64773e-22
6.6477e-22
6.64768e-22
6.64768e-22
6.6477e-22
6.64773e-22
6.64777e-22
6.64783e-22
6.64791e-22
6.648e-22
6.64812e-22
6.64826e-22
6.64843e-22
6.64862e-22
6.64885e-22
6.64912e-22
6.64942e-22
6.64978e-22
6.65019e-22
6.65067e-22
6.65122e-22
6.65186e-22
6.6526e-22
6.65345e-22
6.65443e-22
6.65557e-22
6.65689e-22
6.65839e-22
6.66011e-22
6.662e-22
6.66394e-22
6.66529e-22
6.66209e-22
2.24423e-21
2.24566e-21
2.2456e-21
2.2453e-21
2.24496e-21
2.24464e-21
2.24433e-21
2.24405e-21
2.2438e-21
2.24356e-21
2.24336e-21
2.24317e-21
2.24301e-21
2.24286e-21
2.24273e-21
2.24261e-21
2.24251e-21
2.24242e-21
2.24234e-21
2.24227e-21
2.24221e-21
2.24216e-21
2.24212e-21
2.24208e-21
2.24205e-21
2.24202e-21
2.242e-21
2.24199e-21
2.24198e-21
2.24198e-21
2.24198e-21
2.24198e-21
2.24199e-21
2.242e-21
2.24202e-21
2.24205e-21
2.24208e-21
2.24212e-21
2.24216e-21
2.24221e-21
2.24227e-21
2.24234e-21
2.24242e-21
2.24251e-21
2.24261e-21
2.24273e-21
2.24286e-21
2.24301e-21
2.24317e-21
2.24336e-21
2.24356e-21
2.2438e-21
2.24405e-21
2.24433e-21
2.24464e-21
2.24496e-21
2.2453e-21
2.2456e-21
2.24566e-21
2.24423e-21
7.59237e-21
7.59851e-21
7.59974e-21
7.60003e-21
7.59999e-21
7.59979e-21
7.5995e-21
7.59914e-21
7.59875e-21
7.59834e-21
7.59793e-21
7.59753e-21
7.59715e-21
7.59678e-21
7.59645e-21
7.59614e-21
7.59585e-21
7.5956e-21
7.59537e-21
7.59517e-21
7.59499e-21
7.59484e-21
7.5947e-21
7.59459e-21
7.5945e-21
7.59442e-21
7.59436e-21
7.59432e-21
7.59429e-21
7.59427e-21
7.59427e-21
7.59429e-21
7.59432e-21
7.59436e-21
7.59442e-21
7.5945e-21
7.59459e-21
7.5947e-21
7.59484e-21
7.59499e-21
7.59517e-21
7.59537e-21
7.5956e-21
7.59585e-21
7.59614e-21
7.59645e-21
7.59678e-21
7.59715e-21
7.59753e-21
7.59793e-21
7.59834e-21
7.59875e-21
7.59914e-21
7.5995e-21
7.59979e-21
7.59999e-21
7.60003e-21
7.59974e-21
7.59851e-21
7.59237e-21
2.6251e-20
2.62769e-20
2.62863e-20
2.6292e-20
2.62958e-20
2.62985e-20
2.63001e-20
2.6301e-20
2.63014e-20
2.63013e-20
2.6301e-20
2.63004e-20
2.62997e-20
2.6299e-20
2.62982e-20
2.62975e-20
2.62967e-20
2.6296e-20
2.62954e-20
2.62948e-20
2.62943e-20
2.62938e-20
2.62934e-20
2.62931e-20
2.62928e-20
2.62925e-20
2.62923e-20
2.62922e-20
2.62921e-20
2.62921e-20
2.62921e-20
2.62921e-20
2.62922e-20
2.62923e-20
2.62925e-20
2.62928e-20
2.62931e-20
2.62934e-20
2.62938e-20
2.62943e-20
2.62948e-20
2.62954e-20
2.6296e-20
2.62967e-20
2.62975e-20
2.62982e-20
2.6299e-20
2.62997e-20
2.63004e-20
2.6301e-20
2.63013e-20
2.63014e-20
2.6301e-20
2.63001e-20
2.62985e-20
2.62958e-20
2.6292e-20
2.62863e-20
2.62769e-20
2.6251e-20
9.32814e-20
9.33906e-20
9.3443e-20
9.34803e-20
9.35087e-20
9.35301e-20
9.35458e-20
9.3557e-20
9.35646e-20
9.35694e-20
9.3572e-20
9.35731e-20
9.35731e-20
9.35723e-20
9.35711e-20
9.35695e-20
9.35678e-20
9.3566e-20
9.35643e-20
9.35626e-20
9.35611e-20
9.35597e-20
9.35585e-20
9.35574e-20
9.35565e-20
9.35558e-20
9.35552e-20
9.35547e-20
9.35544e-20
9.35543e-20
9.35543e-20
9.35544e-20
9.35547e-20
9.35552e-20
9.35558e-20
9.35565e-20
9.35574e-20
9.35585e-20
9.35597e-20
9.35611e-20
9.35626e-20
9.35643e-20
9.3566e-20
9.35678e-20
9.35695e-20
9.35711e-20
9.35723e-20
9.35731e-20
9.35731e-20
9.3572e-20
9.35694e-20
9.35646e-20
9.3557e-20
9.35458e-20
9.35301e-20
9.35087e-20
9.34803e-20
9.3443e-20
9.33906e-20
9.32814e-20
3.41277e-19
3.41741e-19
3.42004e-19
3.42205e-19
3.42363e-19
3.42487e-19
3.42581e-19
3.42652e-19
3.42703e-19
3.4274e-19
3.42764e-19
3.4278e-19
3.42789e-19
3.42793e-19
3.42794e-19
3.42793e-19
3.4279e-19
3.42787e-19
3.42782e-19
3.42778e-19
3.42774e-19
3.4277e-19
3.42766e-19
3.42763e-19
3.4276e-19
3.42758e-19
3.42756e-19
3.42754e-19
3.42753e-19
3.42753e-19
3.42753e-19
3.42753e-19
3.42754e-19
3.42756e-19
3.42758e-19
3.4276e-19
3.42763e-19
3.42766e-19
3.4277e-19
3.42774e-19
3.42778e-19
3.42782e-19
3.42787e-19
3.4279e-19
3.42793e-19
3.42794e-19
3.42793e-19
3.42789e-19
3.4278e-19
3.42764e-19
3.4274e-19
3.42703e-19
3.42652e-19
3.42581e-19
3.42487e-19
3.42363e-19
3.42205e-19
3.42004e-19
3.41741e-19
3.41277e-19
1.28623e-18
1.28823e-18
1.28949e-18
1.29049e-18
1.2913e-18
1.29194e-18
1.29244e-18
1.29282e-18
1.29311e-18
1.29332e-18
1.29347e-18
1.29357e-18
1.29364e-18
1.29369e-18
1.29371e-18
1.29373e-18
1.29373e-18
1.29373e-18
1.29372e-18
1.29371e-18
1.2937e-18
1.29369e-18
1.29368e-18
1.29367e-18
1.29366e-18
1.29365e-18
1.29365e-18
1.29364e-18
1.29364e-18
1.29364e-18
1.29364e-18
1.29364e-18
1.29364e-18
1.29365e-18
1.29365e-18
1.29366e-18
1.29367e-18
1.29368e-18
1.29369e-18
1.2937e-18
1.29371e-18
1.29372e-18
1.29373e-18
1.29373e-18
1.29373e-18
1.29371e-18
1.29369e-18
1.29364e-18
1.29357e-18
1.29347e-18
1.29332e-18
1.29311e-18
1.29282e-18
1.29244e-18
1.29194e-18
1.2913e-18
1.29049e-18
1.28949e-18
1.28823e-18
1.28623e-18
4.99412e-18
5.00286e-18
5.00883e-18
5.01372e-18
5.01769e-18
5.02087e-18
5.02337e-18
5.02531e-18
5.02678e-18
5.02789e-18
5.0287e-18
5.02928e-18
5.02969e-18
5.02998e-18
5.03016e-18
5.03028e-18
5.03035e-18
5.03038e-18
5.03039e-18
5.03038e-18
5.03036e-18
5.03033e-18
5.03031e-18
5.03028e-18
5.03026e-18
5.03023e-18
5.03022e-18
5.0302e-18
5.03019e-18
5.03019e-18
5.03019e-18
5.03019e-18
5.0302e-18
5.03022e-18
5.03023e-18
5.03026e-18
5.03028e-18
5.03031e-18
5.03033e-18
5.03036e-18
5.03038e-18
5.03039e-18
5.03038e-18
5.03035e-18
5.03028e-18
5.03016e-18
5.02998e-18
5.02969e-18
5.02928e-18
5.0287e-18
5.02789e-18
5.02678e-18
5.02531e-18
5.02337e-18
5.02087e-18
5.01769e-18
5.01372e-18
5.00883e-18
5.00286e-18
4.99412e-18
1.9973e-17
2.00119e-17
2.00402e-17
2.00637e-17
2.0083e-17
2.00985e-17
2.01108e-17
2.01204e-17
2.01278e-17
2.01334e-17
2.01376e-17
2.01406e-17
2.01429e-17
2.01445e-17
2.01456e-17
2.01463e-17
2.01468e-17
2.01471e-17
2.01473e-17
2.01474e-17
2.01474e-17
2.01474e-17
2.01473e-17
2.01472e-17
2.01472e-17
2.01471e-17
2.01471e-17
2.0147e-17
2.0147e-17
2.0147e-17
2.0147e-17
2.0147e-17
2.0147e-17
2.01471e-17
2.01471e-17
2.01472e-17
2.01472e-17
2.01473e-17
2.01474e-17
2.01474e-17
2.01474e-17
2.01473e-17
2.01471e-17
2.01468e-17
2.01463e-17
2.01456e-17
2.01445e-17
2.01429e-17
2.01406e-17
2.01376e-17
2.01334e-17
2.01278e-17
2.01204e-17
2.01108e-17
2.00985e-17
2.0083e-17
2.00637e-17
2.00402e-17
2.00119e-17
1.9973e-17
8.22411e-17
8.24179e-17
8.25525e-17
8.26659e-17
8.27595e-17
8.28353e-17
8.28956e-17
8.29429e-17
8.29794e-17
8.30074e-17
8.30285e-17
8.30442e-17
8.30558e-17
8.30643e-17
8.30703e-17
8.30746e-17
8.30776e-17
8.30796e-17
8.30809e-17
8.30817e-17
8.30821e-17
8.30823e-17
8.30824e-17
8.30823e-17
8.30822e-17
8.30821e-17
8.3082e-17
8.30819e-17
8.30818e-17
8.30818e-17
8.30818e-17
8.30818e-17
8.30819e-17
8.3082e-17
8.30821e-17
8.30822e-17
8.30823e-17
8.30824e-17
8.30823e-17
8.30821e-17
8.30817e-17
8.30809e-17
8.30796e-17
8.30776e-17
8.30746e-17
8.30703e-17
8.30643e-17
8.30558e-17
8.30442e-17
8.30285e-17
8.30074e-17
8.29794e-17
8.29429e-17
8.28956e-17
8.28353e-17
8.27595e-17
8.26659e-17
8.25525e-17
8.24179e-17
8.22411e-17
3.48423e-16
3.49242e-16
3.4989e-16
3.50442e-16
3.50899e-16
3.51271e-16
3.51568e-16
3.51801e-16
3.51983e-16
3.52122e-16
3.52228e-16
3.52308e-16
3.52368e-16
3.52412e-16
3.52444e-16
3.52467e-16
3.52484e-16
3.52495e-16
3.52504e-16
3.52509e-16
3.52512e-16
3.52515e-16
3.52516e-16
3.52516e-16
3.52517e-16
3.52517e-16
3.52517e-16
3.52516e-16
3.52516e-16
3.52516e-16
3.52516e-16
3.52516e-16
3.52516e-16
3.52517e-16
3.52517e-16
3.52517e-16
3.52516e-16
3.52516e-16
3.52515e-16
3.52512e-16
3.52509e-16
3.52504e-16
3.52495e-16
3.52484e-16
3.52467e-16
3.52444e-16
3.52412e-16
3.52368e-16
3.52308e-16
3.52228e-16
3.52122e-16
3.51983e-16
3.51801e-16
3.51568e-16
3.51271e-16
3.50899e-16
3.50442e-16
3.4989e-16
3.49242e-16
3.48423e-16
1.51734e-15
1.52122e-15
1.52438e-15
1.5271e-15
1.52936e-15
1.5312e-15
1.53267e-15
1.53383e-15
1.53474e-15
1.53544e-15
1.53597e-15
1.53638e-15
1.53669e-15
1.53691e-15
1.53708e-15
1.53721e-15
1.5373e-15
1.53736e-15
1.53741e-15
1.53744e-15
1.53746e-15
1.53748e-15
1.53749e-15
1.53749e-15
1.5375e-15
1.5375e-15
1.5375e-15
1.5375e-15
1.5375e-15
1.5375e-15
1.5375e-15
1.5375e-15
1.5375e-15
1.5375e-15
1.5375e-15
1.5375e-15
1.53749e-15
1.53749e-15
1.53748e-15
1.53746e-15
1.53744e-15
1.53741e-15
1.53736e-15
1.5373e-15
1.53721e-15
1.53708e-15
1.53691e-15
1.53669e-15
1.53638e-15
1.53597e-15
1.53544e-15
1.53474e-15
1.53383e-15
1.53267e-15
1.5312e-15
1.52936e-15
1.5271e-15
1.52438e-15
1.52122e-15
1.51734e-15
6.78368e-15
6.80238e-15
6.81805e-15
6.83158e-15
6.84288e-15
6.85209e-15
6.85949e-15
6.86534e-15
6.86991e-15
6.87346e-15
6.87618e-15
6.87825e-15
6.87982e-15
6.881e-15
6.88188e-15
6.88253e-15
6.88301e-15
6.88337e-15
6.88362e-15
6.88381e-15
6.88394e-15
6.88403e-15
6.8841e-15
6.88414e-15
6.88417e-15
6.88419e-15
6.8842e-15
6.88421e-15
6.88421e-15
6.88422e-15
6.88422e-15
6.88421e-15
6.88421e-15
6.8842e-15
6.88419e-15
6.88417e-15
6.88414e-15
6.8841e-15
6.88403e-15
6.88394e-15
6.88381e-15
6.88362e-15
6.88337e-15
6.88301e-15
6.88253e-15
6.88188e-15
6.881e-15
6.87982e-15
6.87825e-15
6.87618e-15
6.87346e-15
6.86991e-15
6.86534e-15
6.85949e-15
6.85209e-15
6.84288e-15
6.83158e-15
6.81805e-15
6.80238e-15
6.78368e-15
3.10833e-14
3.11751e-14
3.12539e-14
3.13223e-14
3.13795e-14
3.14262e-14
3.14638e-14
3.14936e-14
3.15169e-14
3.15351e-14
3.1549e-14
3.15597e-14
3.15678e-14
3.15739e-14
3.15785e-14
3.1582e-14
3.15846e-14
3.15865e-14
3.15879e-14
3.15889e-14
3.15896e-14
3.15902e-14
3.15906e-14
3.15908e-14
3.1591e-14
3.15912e-14
3.15912e-14
3.15913e-14
3.15913e-14
3.15914e-14
3.15914e-14
3.15913e-14
3.15913e-14
3.15912e-14
3.15912e-14
3.1591e-14
3.15908e-14
3.15906e-14
3.15902e-14
3.15896e-14
3.15889e-14
3.15879e-14
3.15865e-14
3.15846e-14
3.1582e-14
3.15785e-14
3.15739e-14
3.15678e-14
3.15597e-14
3.1549e-14
3.15351e-14
3.15169e-14
3.14936e-14
3.14638e-14
3.14262e-14
3.13795e-14
3.13223e-14
3.12539e-14
3.11751e-14
3.10833e-14
1.45663e-13
1.46122e-13
1.46524e-13
1.46873e-13
1.47167e-13
1.47406e-13
1.476e-13
1.47753e-13
1.47873e-13
1.47967e-13
1.48039e-13
1.48095e-13
1.48137e-13
1.48169e-13
1.48194e-13
1.48212e-13
1.48225e-13
1.48236e-13
1.48243e-13
1.48249e-13
1.48253e-13
1.48256e-13
1.48258e-13
1.4826e-13
1.48261e-13
1.48262e-13
1.48263e-13
1.48263e-13
1.48263e-13
1.48263e-13
1.48263e-13
1.48263e-13
1.48263e-13
1.48263e-13
1.48262e-13
1.48261e-13
1.4826e-13
1.48258e-13
1.48256e-13
1.48253e-13
1.48249e-13
1.48243e-13
1.48236e-13
1.48225e-13
1.48212e-13
1.48194e-13
1.48169e-13
1.48137e-13
1.48095e-13
1.48039e-13
1.47967e-13
1.47873e-13
1.47753e-13
1.476e-13
1.47406e-13
1.47167e-13
1.46873e-13
1.46524e-13
1.46122e-13
1.45663e-13
6.96293e-13
6.98621e-13
7.00692e-13
7.02502e-13
7.04021e-13
7.05265e-13
7.06268e-13
7.07066e-13
7.07693e-13
7.08182e-13
7.0856e-13
7.0885e-13
7.09072e-13
7.09242e-13
7.0937e-13
7.09467e-13
7.0954e-13
7.09595e-13
7.09636e-13
7.09667e-13
7.0969e-13
7.09707e-13
7.09719e-13
7.09729e-13
7.09735e-13
7.0974e-13
7.09743e-13
7.09746e-13
7.09747e-13
7.09748e-13
7.09748e-13
7.09747e-13
7.09746e-13
7.09743e-13
7.0974e-13
7.09735e-13
7.09729e-13
7.09719e-13
7.09707e-13
7.0969e-13
7.09667e-13
7.09636e-13
7.09595e-13
7.0954e-13
7.09467e-13
7.0937e-13
7.09242e-13
7.09072e-13
7.0885e-13
7.0856e-13
7.08182e-13
7.07693e-13
7.07066e-13
7.06268e-13
7.05265e-13
7.04021e-13
7.02502e-13
7.00692e-13
6.98621e-13
6.96293e-13
3.38427e-12
3.39621e-12
3.40698e-12
3.41642e-12
3.42436e-12
3.43087e-12
3.43612e-12
3.44029e-12
3.44358e-12
3.44615e-12
3.44814e-12
3.44967e-12
3.45084e-12
3.45174e-12
3.45242e-12
3.45294e-12
3.45333e-12
3.45363e-12
3.45385e-12
3.45402e-12
3.45414e-12
3.45424e-12
3.45431e-12
3.45436e-12
3.4544e-12
3.45442e-12
3.45444e-12
3.45446e-12
3.45446e-12
3.45447e-12
3.45447e-12
3.45446e-12
3.45446e-12
3.45444e-12
3.45442e-12
3.4544e-12
3.45436e-12
3.45431e-12
3.45424e-12
3.45414e-12
3.45402e-12
3.45385e-12
3.45363e-12
3.45333e-12
3.45294e-12
3.45242e-12
3.45174e-12
3.45084e-12
3.44967e-12
3.44814e-12
3.44615e-12
3.44358e-12
3.44029e-12
3.43612e-12
3.43087e-12
3.42436e-12
3.41642e-12
3.40698e-12
3.39621e-12
3.38427e-12
1.66606e-11
1.67223e-11
1.67787e-11
1.68282e-11
1.68698e-11
1.6904e-11
1.69316e-11
1.69536e-11
1.69709e-11
1.69845e-11
1.6995e-11
1.70031e-11
1.70093e-11
1.7014e-11
1.70177e-11
1.70204e-11
1.70225e-11
1.70241e-11
1.70253e-11
1.70262e-11
1.70269e-11
1.70274e-11
1.70278e-11
1.70281e-11
1.70283e-11
1.70285e-11
1.70286e-11
1.70286e-11
1.70287e-11
1.70287e-11
1.70287e-11
1.70287e-11
1.70286e-11
1.70286e-11
1.70285e-11
1.70283e-11
1.70281e-11
1.70278e-11
1.70274e-11
1.70269e-11
1.70262e-11
1.70253e-11
1.70241e-11
1.70225e-11
1.70204e-11
1.70177e-11
1.7014e-11
1.70093e-11
1.70031e-11
1.6995e-11
1.69845e-11
1.69709e-11
1.69536e-11
1.69316e-11
1.6904e-11
1.68698e-11
1.68282e-11
1.67787e-11
1.67223e-11
1.66606e-11
8.26947e-11
8.30147e-11
8.33101e-11
8.35699e-11
8.37886e-11
8.39682e-11
8.41133e-11
8.42289e-11
8.43201e-11
8.43915e-11
8.44469e-11
8.44897e-11
8.45226e-11
8.45478e-11
8.45671e-11
8.45818e-11
8.45929e-11
8.46014e-11
8.46079e-11
8.46128e-11
8.46165e-11
8.46193e-11
8.46214e-11
8.4623e-11
8.46242e-11
8.4625e-11
8.46257e-11
8.46261e-11
8.46263e-11
8.46265e-11
8.46265e-11
8.46263e-11
8.46261e-11
8.46257e-11
8.4625e-11
8.46242e-11
8.4623e-11
8.46214e-11
8.46193e-11
8.46165e-11
8.46128e-11
8.46079e-11
8.46014e-11
8.45929e-11
8.45818e-11
8.45671e-11
8.45478e-11
8.45226e-11
8.44897e-11
8.44469e-11
8.43915e-11
8.43201e-11
8.42289e-11
8.41133e-11
8.39682e-11
8.37886e-11
8.35699e-11
8.33101e-11
8.30147e-11
8.26947e-11
4.11615e-10
4.13271e-10
4.14811e-10
4.16168e-10
4.17311e-10
4.1825e-10
4.19008e-10
4.19613e-10
4.20091e-10
4.20465e-10
4.20756e-10
4.20981e-10
4.21154e-10
4.21287e-10
4.21388e-10
4.21466e-10
4.21525e-10
4.2157e-10
4.21605e-10
4.21631e-10
4.21651e-10
4.21666e-10
4.21677e-10
4.21686e-10
4.21692e-10
4.21697e-10
4.217e-10
4.21703e-10
4.21704e-10
4.21705e-10
4.21705e-10
4.21704e-10
4.21703e-10
4.217e-10
4.21697e-10
4.21692e-10
4.21686e-10
4.21677e-10
4.21666e-10
4.21651e-10
4.21631e-10
4.21605e-10
4.2157e-10
4.21525e-10
4.21466e-10
4.21388e-10
4.21287e-10
4.21154e-10
4.20981e-10
4.20756e-10
4.20465e-10
4.20091e-10
4.19613e-10
4.19008e-10
4.1825e-10
4.17311e-10
4.16168e-10
4.14811e-10
4.13271e-10
4.11615e-10
2.04183e-09
2.05032e-09
2.05827e-09
2.06528e-09
2.07118e-09
2.07603e-09
2.07995e-09
2.08309e-09
2.08556e-09
2.0875e-09
2.089e-09
2.09017e-09
2.09107e-09
2.09176e-09
2.09229e-09
2.09269e-09
2.093e-09
2.09324e-09
2.09342e-09
2.09356e-09
2.09366e-09
2.09374e-09
2.0938e-09
2.09385e-09
2.09388e-09
2.09391e-09
2.09393e-09
2.09394e-09
2.09395e-09
2.09395e-09
2.09395e-09
2.09395e-09
2.09394e-09
2.09393e-09
2.09391e-09
2.09388e-09
2.09385e-09
2.0938e-09
2.09374e-09
2.09366e-09
2.09356e-09
2.09342e-09
2.09324e-09
2.093e-09
2.09269e-09
2.09229e-09
2.09176e-09
2.09107e-09
2.09017e-09
2.089e-09
2.0875e-09
2.08556e-09
2.08309e-09
2.07995e-09
2.07603e-09
2.07118e-09
2.06528e-09
2.05827e-09
2.05032e-09
2.04183e-09
1.0022e-08
1.00648e-08
1.01051e-08
1.01406e-08
1.01705e-08
1.01951e-08
1.0215e-08
1.02309e-08
1.02435e-08
1.02533e-08
1.0261e-08
1.02669e-08
1.02715e-08
1.0275e-08
1.02777e-08
1.02798e-08
1.02814e-08
1.02826e-08
1.02835e-08
1.02842e-08
1.02848e-08
1.02852e-08
1.02855e-08
1.02857e-08
1.02859e-08
1.0286e-08
1.02861e-08
1.02862e-08
1.02862e-08
1.02863e-08
1.02863e-08
1.02862e-08
1.02862e-08
1.02861e-08
1.0286e-08
1.02859e-08
1.02857e-08
1.02855e-08
1.02852e-08
1.02848e-08
1.02842e-08
1.02835e-08
1.02826e-08
1.02814e-08
1.02798e-08
1.02777e-08
1.0275e-08
1.02715e-08
1.02669e-08
1.0261e-08
1.02533e-08
1.02435e-08
1.02309e-08
1.0215e-08
1.01951e-08
1.01705e-08
1.01406e-08
1.01051e-08
1.00648e-08
1.0022e-08
4.82795e-08
4.84898e-08
4.86886e-08
4.88637e-08
4.90114e-08
4.91328e-08
4.92311e-08
4.93095e-08
4.93716e-08
4.94202e-08
4.94581e-08
4.94875e-08
4.95102e-08
4.95276e-08
4.9541e-08
4.95513e-08
4.95592e-08
4.95653e-08
4.95699e-08
4.95734e-08
4.95762e-08
4.95782e-08
4.95798e-08
4.9581e-08
4.95819e-08
4.95826e-08
4.9583e-08
4.95834e-08
4.95836e-08
4.95837e-08
4.95837e-08
4.95836e-08
4.95834e-08
4.9583e-08
4.95826e-08
4.95819e-08
4.9581e-08
4.95798e-08
4.95782e-08
4.95762e-08
4.95734e-08
4.95699e-08
4.95653e-08
4.95592e-08
4.95513e-08
4.9541e-08
4.95276e-08
4.95102e-08
4.94875e-08
4.94581e-08
4.94202e-08
4.93716e-08
4.93095e-08
4.92311e-08
4.91328e-08
4.90114e-08
4.88637e-08
4.86886e-08
4.84898e-08
4.82795e-08
2.26193e-07
2.27191e-07
2.28136e-07
2.28969e-07
2.29671e-07
2.30249e-07
2.30716e-07
2.31089e-07
2.31384e-07
2.31616e-07
2.31796e-07
2.31936e-07
2.32044e-07
2.32128e-07
2.32192e-07
2.32241e-07
2.32279e-07
2.32308e-07
2.3233e-07
2.32347e-07
2.3236e-07
2.3237e-07
2.32378e-07
2.32384e-07
2.32388e-07
2.32391e-07
2.32394e-07
2.32395e-07
2.32396e-07
2.32397e-07
2.32397e-07
2.32396e-07
2.32395e-07
2.32394e-07
2.32391e-07
2.32388e-07
2.32384e-07
2.32378e-07
2.3237e-07
2.3236e-07
2.32347e-07
2.3233e-07
2.32308e-07
2.32279e-07
2.32241e-07
2.32192e-07
2.32128e-07
2.32044e-07
2.31936e-07
2.31796e-07
2.31616e-07
2.31384e-07
2.31089e-07
2.30716e-07
2.30249e-07
2.29671e-07
2.28969e-07
2.28136e-07
2.27191e-07
2.26193e-07
1.0202e-06
1.02473e-06
1.02902e-06
1.03279e-06
1.03597e-06
1.03859e-06
1.0407e-06
1.04239e-06
1.04373e-06
1.04478e-06
1.0456e-06
1.04624e-06
1.04673e-06
1.04711e-06
1.0474e-06
1.04763e-06
1.0478e-06
1.04793e-06
1.04803e-06
1.04811e-06
1.04817e-06
1.04822e-06
1.04825e-06
1.04828e-06
1.0483e-06
1.04831e-06
1.04832e-06
1.04833e-06
1.04834e-06
1.04834e-06
1.04834e-06
1.04834e-06
1.04833e-06
1.04832e-06
1.04831e-06
1.0483e-06
1.04828e-06
1.04825e-06
1.04822e-06
1.04817e-06
1.04811e-06
1.04803e-06
1.04793e-06
1.0478e-06
1.04763e-06
1.0474e-06
1.04711e-06
1.04673e-06
1.04624e-06
1.0456e-06
1.04478e-06
1.04373e-06
1.04239e-06
1.0407e-06
1.03859e-06
1.03597e-06
1.03279e-06
1.02902e-06
1.02473e-06
1.0202e-06
4.38032e-06
4.39966e-06
4.41797e-06
4.43407e-06
4.44764e-06
4.45879e-06
4.46782e-06
4.47504e-06
4.48075e-06
4.48524e-06
4.48874e-06
4.49145e-06
4.49355e-06
4.49517e-06
4.49642e-06
4.49738e-06
4.49812e-06
4.49869e-06
4.49913e-06
4.49946e-06
4.49972e-06
4.49992e-06
4.50007e-06
4.50019e-06
4.50027e-06
4.50034e-06
4.50039e-06
4.50042e-06
4.50044e-06
4.50045e-06
4.50045e-06
4.50044e-06
4.50042e-06
4.50039e-06
4.50034e-06
4.50027e-06
4.50019e-06
4.50007e-06
4.49992e-06
4.49972e-06
4.49946e-06
4.49913e-06
4.49869e-06
4.49812e-06
4.49738e-06
4.49642e-06
4.49517e-06
4.49355e-06
4.49145e-06
4.48874e-06
4.48524e-06
4.48075e-06
4.47504e-06
4.46782e-06
4.45879e-06
4.44764e-06
4.43407e-06
4.41797e-06
4.39966e-06
4.38032e-06
1.76836e-05
1.77604e-05
1.78331e-05
1.78968e-05
1.79505e-05
1.79947e-05
1.80305e-05
1.80591e-05
1.80817e-05
1.80994e-05
1.81133e-05
1.81241e-05
1.81324e-05
1.81388e-05
1.81438e-05
1.81476e-05
1.81506e-05
1.81528e-05
1.81546e-05
1.81559e-05
1.81569e-05
1.81577e-05
1.81583e-05
1.81588e-05
1.81592e-05
1.81594e-05
1.81596e-05
1.81597e-05
1.81598e-05
1.81599e-05
1.81599e-05
1.81598e-05
1.81597e-05
1.81596e-05
1.81594e-05
1.81592e-05
1.81588e-05
1.81583e-05
1.81577e-05
1.81569e-05
1.81559e-05
1.81546e-05
1.81528e-05
1.81506e-05
1.81476e-05
1.81438e-05
1.81388e-05
1.81324e-05
1.81241e-05
1.81133e-05
1.80994e-05
1.80817e-05
1.80591e-05
1.80305e-05
1.79947e-05
1.79505e-05
1.78968e-05
1.78331e-05
1.77604e-05
1.76836e-05
6.62215e-05
6.65012e-05
6.67645e-05
6.69954e-05
6.71897e-05
6.73495e-05
6.74789e-05
6.75823e-05
6.76642e-05
6.77285e-05
6.77787e-05
6.78177e-05
6.78479e-05
6.78712e-05
6.78893e-05
6.79031e-05
6.79138e-05
6.7922e-05
6.79284e-05
6.79333e-05
6.7937e-05
6.79399e-05
6.79422e-05
6.79438e-05
6.79451e-05
6.79461e-05
6.79468e-05
6.79473e-05
6.79476e-05
6.79477e-05
6.79477e-05
6.79476e-05
6.79473e-05
6.79468e-05
6.79461e-05
6.79451e-05
6.79438e-05
6.79422e-05
6.79399e-05
6.7937e-05
6.79333e-05
6.79284e-05
6.7922e-05
6.79138e-05
6.79031e-05
6.78893e-05
6.78712e-05
6.78479e-05
6.78177e-05
6.77787e-05
6.77285e-05
6.76642e-05
6.75823e-05
6.74789e-05
6.73495e-05
6.71897e-05
6.69954e-05
6.67645e-05
6.65012e-05
6.62215e-05
0.000226668
0.000227583
0.000228441
0.000229191
0.000229822
0.000230341
0.000230761
0.000231097
0.000231363
0.000231572
0.000231735
0.000231862
0.000231961
0.000232037
0.000232095
0.00023214
0.000232175
0.000232202
0.000232223
0.000232239
0.000232251
0.000232261
0.000232268
0.000232274
0.000232278
0.000232281
0.000232283
0.000232285
0.000232286
0.000232286
0.000232286
0.000232286
0.000232285
0.000232283
0.000232281
0.000232278
0.000232274
0.000232268
0.000232261
0.000232251
0.000232239
0.000232223
0.000232202
0.000232175
0.00023214
0.000232095
0.000232037
0.000231961
0.000231862
0.000231735
0.000231572
0.000231363
0.000231097
0.000230761
0.000230341
0.000229822
0.000229191
0.000228441
0.000227583
0.000226668
0.000698086
0.000700726
0.000703186
0.000705334
0.000707139
0.000708623
0.000709824
0.000710784
0.000711545
0.000712143
0.00071261
0.000712973
0.000713254
0.000713472
0.00071364
0.00071377
0.00071387
0.000713947
0.000714007
0.000714053
0.000714088
0.000714116
0.000714137
0.000714153
0.000714165
0.000714174
0.000714181
0.000714185
0.000714188
0.00071419
0.00071419
0.000714188
0.000714185
0.000714181
0.000714174
0.000714165
0.000714153
0.000714137
0.000714116
0.000714088
0.000714053
0.000714007
0.000713947
0.00071387
0.00071377
0.00071364
0.000713472
0.000713254
0.000712973
0.00071261
0.000712143
0.000711545
0.000710784
0.000709824
0.000708623
0.000707139
0.000705334
0.000703186
0.000700726
0.000698086
0.0019041
0.00191069
0.00191677
0.00192208
0.00192653
0.00193019
0.00193315
0.00193552
0.00193739
0.00193887
0.00194002
0.00194092
0.00194161
0.00194215
0.00194256
0.00194289
0.00194313
0.00194333
0.00194347
0.00194359
0.00194368
0.00194374
0.0019438
0.00194384
0.00194387
0.00194389
0.00194391
0.00194392
0.00194393
0.00194393
0.00194393
0.00194393
0.00194392
0.00194391
0.00194389
0.00194387
0.00194384
0.0019438
0.00194374
0.00194368
0.00194359
0.00194347
0.00194333
0.00194313
0.00194289
0.00194256
0.00194215
0.00194161
0.00194092
0.00194002
0.00193887
0.00193739
0.00193552
0.00193315
0.00193019
0.00192653
0.00192208
0.00191677
0.00191069
0.0019041
0.00453754
0.00455147
0.00456424
0.00457533
0.00458464
0.00459229
0.00459847
0.00460342
0.00460734
0.00461042
0.00461283
0.00461471
0.00461617
0.00461729
0.00461816
0.00461884
0.00461936
0.00461976
0.00462007
0.00462031
0.0046205
0.00462064
0.00462075
0.00462084
0.0046209
0.00462095
0.00462099
0.00462101
0.00462103
0.00462103
0.00462103
0.00462103
0.00462101
0.00462099
0.00462095
0.0046209
0.00462084
0.00462075
0.00462064
0.0046205
0.00462031
0.00462007
0.00461976
0.00461936
0.00461884
0.00461816
0.00461729
0.00461617
0.00461471
0.00461283
0.00461042
0.00460734
0.00460342
0.00459847
0.00459229
0.00458464
0.00457533
0.00456424
0.00455147
0.00453754
0.0093754
0.00940019
0.00942272
0.00944223
0.00945858
0.00947201
0.00948287
0.00949156
0.00949844
0.00950386
0.0095081
0.0095114
0.00951396
0.00951594
0.00951748
0.00951867
0.00951959
0.0095203
0.00952085
0.00952128
0.00952161
0.00952186
0.00952206
0.00952221
0.00952232
0.00952241
0.00952247
0.00952252
0.00952255
0.00952256
0.00952256
0.00952255
0.00952252
0.00952247
0.00952241
0.00952232
0.00952221
0.00952206
0.00952186
0.00952161
0.00952128
0.00952085
0.0095203
0.00951959
0.00951867
0.00951748
0.00951594
0.00951396
0.0095114
0.0095081
0.00950386
0.00949844
0.00949156
0.00948287
0.00947201
0.00945858
0.00944223
0.00942272
0.00940019
0.0093754
0.0168366
0.0168741
0.0169078
0.0169368
0.0169611
0.0169811
0.0169973
0.0170102
0.0170205
0.0170285
0.0170348
0.0170398
0.0170436
0.0170466
0.0170489
0.0170506
0.017052
0.0170531
0.0170539
0.0170545
0.017055
0.0170554
0.0170557
0.0170559
0.0170561
0.0170563
0.0170563
0.0170564
0.0170565
0.0170565
0.0170565
0.0170565
0.0170564
0.0170563
0.0170563
0.0170561
0.0170559
0.0170557
0.0170554
0.017055
0.0170545
0.0170539
0.0170531
0.017052
0.0170506
0.0170489
0.0170466
0.0170436
0.0170398
0.0170348
0.0170285
0.0170205
0.0170102
0.0169973
0.0169811
0.0169611
0.0169368
0.0169078
0.0168741
0.0168366
0.0266499
0.0266992
0.026743
0.0267807
0.0268122
0.0268381
0.026859
0.0268758
0.0268891
0.0268996
0.0269078
0.0269142
0.0269191
0.026923
0.026926
0.0269283
0.0269301
0.0269315
0.0269326
0.0269334
0.0269341
0.0269346
0.026935
0.0269353
0.0269355
0.0269357
0.0269358
0.0269359
0.0269359
0.026936
0.026936
0.0269359
0.0269359
0.0269358
0.0269357
0.0269355
0.0269353
0.026935
0.0269346
0.0269341
0.0269334
0.0269326
0.0269315
0.0269301
0.0269283
0.026926
0.026923
0.0269191
0.0269142
0.0269078
0.0268996
0.0268891
0.0268758
0.026859
0.0268381
0.0268122
0.0267807
0.026743
0.0266992
0.0266499
0.0380305
0.0380893
0.038141
0.0381854
0.0382224
0.0382528
0.0382774
0.0382972
0.0383128
0.0383251
0.0383348
0.0383424
0.0383483
0.0383528
0.0383564
0.0383591
0.0383613
0.0383629
0.0383642
0.0383652
0.038366
0.0383666
0.0383671
0.0383674
0.0383677
0.0383679
0.0383681
0.0383682
0.0383682
0.0383683
0.0383683
0.0383682
0.0383682
0.0383681
0.0383679
0.0383677
0.0383674
0.0383671
0.0383666
0.038366
0.0383652
0.0383642
0.0383629
0.0383613
0.0383591
0.0383564
0.0383528
0.0383483
0.0383424
0.0383348
0.0383251
0.0383128
0.0382972
0.0382774
0.0382528
0.0382224
0.0381854
0.038141
0.0380893
0.0380305
0.0501798
0.0502461
0.0503038
0.050353
0.0503942
0.050428
0.0504554
0.0504773
0.0504947
0.0505085
0.0505193
0.0505277
0.0505343
0.0505394
0.0505434
0.0505465
0.0505489
0.0505508
0.0505522
0.0505534
0.0505542
0.0505549
0.0505555
0.0505559
0.0505562
0.0505564
0.0505566
0.0505567
0.0505568
0.0505568
0.0505568
0.0505568
0.0505567
0.0505566
0.0505564
0.0505562
0.0505559
0.0505555
0.0505549
0.0505542
0.0505534
0.0505522
0.0505508
0.0505489
0.0505465
0.0505434
0.0505394
0.0505343
0.0505277
0.0505193
0.0505085
0.0504947
0.0504773
0.0504554
0.050428
0.0503942
0.050353
0.0503038
0.0502461
0.0501798
0.0626055
0.0626781
0.0627407
0.0627941
0.0628387
0.0628752
0.0629049
0.0629287
0.0629476
0.0629626
0.0629744
0.0629836
0.0629907
0.0629963
0.0630007
0.0630041
0.0630067
0.0630088
0.0630104
0.0630116
0.0630126
0.0630134
0.0630139
0.0630144
0.0630147
0.063015
0.0630152
0.0630153
0.0630154
0.0630155
0.0630155
0.0630154
0.0630153
0.0630152
0.063015
0.0630147
0.0630144
0.0630139
0.0630134
0.0630126
0.0630116
0.0630104
0.0630088
0.0630067
0.0630041
0.0630007
0.0629963
0.0629907
0.0629836
0.0629744
0.0629626
0.0629476
0.0629287
0.0629049
0.0628752
0.0628387
0.0627941
0.0627407
0.0626781
0.0626055
0.0751169
0.0751954
0.0752628
0.07532
0.0753677
0.075407
0.0754388
0.0754644
0.0754848
0.0755009
0.0755136
0.0755235
0.0755313
0.0755374
0.0755421
0.0755458
0.0755486
0.0755509
0.0755526
0.075554
0.0755551
0.0755559
0.0755565
0.075557
0.0755574
0.0755577
0.0755579
0.0755581
0.0755582
0.0755582
0.0755582
0.0755582
0.0755581
0.0755579
0.0755577
0.0755574
0.075557
0.0755565
0.0755559
0.0755551
0.075554
0.0755526
0.0755509
0.0755486
0.0755458
0.0755421
0.0755374
0.0755313
0.0755235
0.0755136
0.0755009
0.0754848
0.0754644
0.0754388
0.075407
0.0753677
0.07532
0.0752628
0.0751954
0.0751169
0.0876845
0.0877689
0.0878409
0.0879021
0.0879531
0.087995
0.0880291
0.0880564
0.0880783
0.0880956
0.0881092
0.0881199
0.0881283
0.0881349
0.08814
0.088144
0.0881471
0.0881496
0.0881515
0.0881529
0.0881541
0.088155
0.0881557
0.0881563
0.0881567
0.088157
0.0881572
0.0881574
0.0881575
0.0881575
0.0881575
0.0881575
0.0881574
0.0881572
0.088157
0.0881567
0.0881563
0.0881557
0.088155
0.0881541
0.0881529
0.0881515
0.0881496
0.0881471
0.088144
0.08814
0.0881349
0.0881283
0.0881199
0.0881092
0.0880956
0.0880783
0.0880564
0.0880291
0.087995
0.0879531
0.0879021
0.0878409
0.0877689
0.0876845
0.100328
0.100419
0.100496
0.100561
0.100615
0.10066
0.100696
0.100725
0.100749
0.100767
0.100782
0.100793
0.100802
0.10081
0.100815
0.100819
0.100823
0.100825
0.100827
0.100829
0.10083
0.100831
0.100832