/*--------------------------------*- C++ -*----------------------------------*\
| =========                 |                                                 |
| \\      /  F ield         | foam-extend: Open Source CFD                    |
|  \\    /   O peration     | Version:     4.0                                |
|   \\  /    A nd           | Web:         http://www.foam-extend.org         |
|    \\/     M anipulation  |                                                 |
\*---------------------------------------------------------------------------*/
FoamFile
{
    version     2.0;
    format      ascii;
    class       volScalarField;
    location    "1110";
    object      cPlus;
}
// * * * * * * * * * * * * * * * * * * * * * * * * * * * * * * * * * * * * * //

dimensions      [0 0 0 0 0 0 0];

internalField   nonuniform List<scalar> 
6960
(
0.183458
0.18337
0.183329
0.183313
0.183306
0.183303
0.183302
0.183302
0.183302
0.183302
0.183302
0.183302
0.183302
0.183302
0.183302
0.183302
0.183302
0.183303
0.183303
0.183303
0.183303
0.183303
0.183303
0.183303
0.183303
0.183303
0.183303
0.183303
0.183303
0.183303
0.183303
0.183303
0.183303
0.183303
0.183303
0.183303
0.183303
0.183303
0.183303
0.183303
0.183303
0.183303
0.183303
0.183302
0.183302
0.183302
0.183302
0.183302
0.183302
0.183302
0.183302
0.183302
0.183302
0.183302
0.183303
0.183306
0.183313
0.183329
0.18337
0.183458
0.0497417
0.0497293
0.0497225
0.0497197
0.0497185
0.0497181
0.049718
0.049718
0.0497181
0.0497181
0.0497182
0.0497183
0.0497184
0.0497184
0.0497185
0.0497186
0.0497186
0.0497187
0.0497188
0.0497188
0.0497188
0.0497189
0.0497189
0.0497189
0.049719
0.049719
0.049719
0.049719
0.049719
0.049719
0.049719
0.049719
0.049719
0.049719
0.049719
0.049719
0.0497189
0.0497189
0.0497189
0.0497188
0.0497188
0.0497188
0.0497187
0.0497186
0.0497186
0.0497185
0.0497184
0.0497184
0.0497183
0.0497182
0.0497181
0.0497181
0.049718
0.049718
0.0497181
0.0497185
0.0497197
0.0497225
0.0497293
0.0497417
0.0324688
0.0324803
0.0324842
0.0324858
0.0324865
0.0324868
0.032487
0.0324871
0.0324872
0.0324873
0.0324874
0.0324874
0.0324875
0.0324875
0.0324876
0.0324876
0.0324877
0.0324877
0.0324878
0.0324878
0.0324878
0.0324879
0.0324879
0.0324879
0.0324879
0.0324879
0.032488
0.032488
0.032488
0.032488
0.032488
0.032488
0.032488
0.032488
0.0324879
0.0324879
0.0324879
0.0324879
0.0324879
0.0324878
0.0324878
0.0324878
0.0324877
0.0324877
0.0324876
0.0324876
0.0324875
0.0324875
0.0324874
0.0324874
0.0324873
0.0324872
0.0324871
0.032487
0.0324868
0.0324865
0.0324858
0.0324842
0.0324803
0.0324688
0.0306595
0.0306768
0.0306834
0.030686
0.0306871
0.0306876
0.0306879
0.030688
0.0306881
0.0306882
0.0306883
0.0306883
0.0306884
0.0306885
0.0306885
0.0306886
0.0306886
0.0306886
0.0306887
0.0306887
0.0306887
0.0306888
0.0306888
0.0306888
0.0306888
0.0306888
0.0306889
0.0306889
0.0306889
0.0306889
0.0306889
0.0306889
0.0306889
0.0306889
0.0306888
0.0306888
0.0306888
0.0306888
0.0306888
0.0306887
0.0306887
0.0306887
0.0306886
0.0306886
0.0306886
0.0306885
0.0306885
0.0306884
0.0306883
0.0306883
0.0306882
0.0306881
0.030688
0.0306879
0.0306876
0.0306871
0.030686
0.0306834
0.0306768
0.0306595
0.0310427
0.0310618
0.0310691
0.031072
0.0310732
0.0310738
0.0310741
0.0310742
0.0310743
0.0310744
0.0310745
0.0310746
0.0310746
0.0310747
0.0310747
0.0310748
0.0310748
0.0310749
0.0310749
0.0310749
0.031075
0.031075
0.031075
0.0310751
0.0310751
0.0310751
0.0310751
0.0310751
0.0310751
0.0310751
0.0310751
0.0310751
0.0310751
0.0310751
0.0310751
0.0310751
0.0310751
0.031075
0.031075
0.031075
0.0310749
0.0310749
0.0310749
0.0310748
0.0310748
0.0310747
0.0310747
0.0310746
0.0310746
0.0310745
0.0310744
0.0310743
0.0310742
0.0310741
0.0310738
0.0310732
0.031072
0.0310691
0.0310618
0.0310427
0.0317957
0.0318157
0.0318235
0.0318266
0.0318279
0.0318284
0.0318287
0.0318289
0.031829
0.0318291
0.0318292
0.0318293
0.0318293
0.0318294
0.0318295
0.0318295
0.0318296
0.0318296
0.0318296
0.0318297
0.0318297
0.0318297
0.0318298
0.0318298
0.0318298
0.0318298
0.0318298
0.0318298
0.0318298
0.0318298
0.0318298
0.0318298
0.0318298
0.0318298
0.0318298
0.0318298
0.0318298
0.0318298
0.0318297
0.0318297
0.0318297
0.0318296
0.0318296
0.0318296
0.0318295
0.0318295
0.0318294
0.0318293
0.0318293
0.0318292
0.0318291
0.031829
0.0318289
0.0318287
0.0318284
0.0318279
0.0318266
0.0318235
0.0318157
0.0317957
0.0326828
0.0327039
0.0327119
0.0327152
0.0327166
0.0327172
0.0327175
0.0327177
0.0327178
0.0327179
0.032718
0.0327181
0.0327182
0.0327182
0.0327183
0.0327183
0.0327184
0.0327184
0.0327185
0.0327185
0.0327185
0.0327186
0.0327186
0.0327186
0.0327186
0.0327187
0.0327187
0.0327187
0.0327187
0.0327187
0.0327187
0.0327187
0.0327187
0.0327187
0.0327187
0.0327186
0.0327186
0.0327186
0.0327186
0.0327185
0.0327185
0.0327185
0.0327184
0.0327184
0.0327183
0.0327183
0.0327182
0.0327182
0.0327181
0.032718
0.0327179
0.0327178
0.0327177
0.0327175
0.0327172
0.0327166
0.0327152
0.0327119
0.0327039
0.0326828
0.0336887
0.0337109
0.0337194
0.0337229
0.0337243
0.033725
0.0337253
0.0337255
0.0337256
0.0337257
0.0337258
0.0337259
0.033726
0.033726
0.0337261
0.0337262
0.0337262
0.0337263
0.0337263
0.0337264
0.0337264
0.0337264
0.0337265
0.0337265
0.0337265
0.0337265
0.0337265
0.0337265
0.0337266
0.0337266
0.0337266
0.0337266
0.0337265
0.0337265
0.0337265
0.0337265
0.0337265
0.0337265
0.0337264
0.0337264
0.0337264
0.0337263
0.0337263
0.0337262
0.0337262
0.0337261
0.033726
0.033726
0.0337259
0.0337258
0.0337257
0.0337256
0.0337255
0.0337253
0.033725
0.0337243
0.0337229
0.0337194
0.0337109
0.0336887
0.0348321
0.0348557
0.0348647
0.0348684
0.0348699
0.0348706
0.034871
0.0348712
0.0348713
0.0348714
0.0348715
0.0348716
0.0348717
0.0348718
0.0348718
0.0348719
0.034872
0.034872
0.0348721
0.0348721
0.0348721
0.0348722
0.0348722
0.0348722
0.0348723
0.0348723
0.0348723
0.0348723
0.0348723
0.0348723
0.0348723
0.0348723
0.0348723
0.0348723
0.0348723
0.0348723
0.0348722
0.0348722
0.0348722
0.0348721
0.0348721
0.0348721
0.034872
0.034872
0.0348719
0.0348718
0.0348718
0.0348717
0.0348716
0.0348715
0.0348714
0.0348713
0.0348712
0.034871
0.0348706
0.0348699
0.0348684
0.0348647
0.0348557
0.0348321
0.0361428
0.0361679
0.0361776
0.0361815
0.0361832
0.0361839
0.0361843
0.0361845
0.0361847
0.0361848
0.0361849
0.036185
0.0361851
0.0361852
0.0361852
0.0361853
0.0361854
0.0361854
0.0361855
0.0361855
0.0361856
0.0361856
0.0361856
0.0361857
0.0361857
0.0361857
0.0361857
0.0361858
0.0361858
0.0361858
0.0361858
0.0361858
0.0361858
0.0361857
0.0361857
0.0361857
0.0361857
0.0361856
0.0361856
0.0361856
0.0361855
0.0361855
0.0361854
0.0361854
0.0361853
0.0361852
0.0361852
0.0361851
0.036185
0.0361849
0.0361848
0.0361847
0.0361845
0.0361843
0.0361839
0.0361832
0.0361815
0.0361776
0.0361679
0.0361428
0.0376609
0.0376879
0.0376983
0.0377026
0.0377043
0.0377051
0.0377055
0.0377058
0.037706
0.0377061
0.0377062
0.0377063
0.0377064
0.0377065
0.0377066
0.0377067
0.0377067
0.0377068
0.0377069
0.0377069
0.037707
0.037707
0.037707
0.0377071
0.0377071
0.0377071
0.0377071
0.0377072
0.0377072
0.0377072
0.0377072
0.0377072
0.0377072
0.0377071
0.0377071
0.0377071
0.0377071
0.037707
0.037707
0.037707
0.0377069
0.0377069
0.0377068
0.0377067
0.0377067
0.0377066
0.0377065
0.0377064
0.0377063
0.0377062
0.0377061
0.037706
0.0377058
0.0377055
0.0377051
0.0377043
0.0377026
0.0376983
0.0376879
0.0376609
0.039441
0.0394705
0.0394818
0.0394864
0.0394884
0.0394892
0.0394897
0.0394899
0.0394901
0.0394903
0.0394904
0.0394905
0.0394907
0.0394907
0.0394908
0.0394909
0.039491
0.0394911
0.0394911
0.0394912
0.0394912
0.0394913
0.0394913
0.0394914
0.0394914
0.0394914
0.0394914
0.0394915
0.0394915
0.0394915
0.0394915
0.0394915
0.0394915
0.0394914
0.0394914
0.0394914
0.0394914
0.0394913
0.0394913
0.0394912
0.0394912
0.0394911
0.0394911
0.039491
0.0394909
0.0394908
0.0394907
0.0394907
0.0394905
0.0394904
0.0394903
0.0394901
0.0394899
0.0394897
0.0394892
0.0394884
0.0394864
0.0394818
0.0394705
0.039441
0.0415598
0.0415923
0.0416048
0.0416099
0.041612
0.041613
0.0416135
0.0416138
0.041614
0.0416142
0.0416143
0.0416144
0.0416146
0.0416147
0.0416148
0.0416149
0.041615
0.041615
0.0416151
0.0416152
0.0416152
0.0416153
0.0416153
0.0416154
0.0416154
0.0416154
0.0416155
0.0416155
0.0416155
0.0416155
0.0416155
0.0416155
0.0416155
0.0416155
0.0416154
0.0416154
0.0416154
0.0416153
0.0416153
0.0416152
0.0416152
0.0416151
0.041615
0.041615
0.0416149
0.0416148
0.0416147
0.0416146
0.0416144
0.0416143
0.0416142
0.041614
0.0416138
0.0416135
0.041613
0.041612
0.0416099
0.0416048
0.0415923
0.0415598
0.0441274
0.0441637
0.0441777
0.0441834
0.0441858
0.0441869
0.0441875
0.0441878
0.0441881
0.0441883
0.0441885
0.0441886
0.0441888
0.0441889
0.044189
0.0441891
0.0441892
0.0441893
0.0441894
0.0441895
0.0441895
0.0441896
0.0441896
0.0441897
0.0441897
0.0441898
0.0441898
0.0441898
0.0441898
0.0441898
0.0441898
0.0441898
0.0441898
0.0441898
0.0441898
0.0441897
0.0441897
0.0441896
0.0441896
0.0441895
0.0441895
0.0441894
0.0441893
0.0441892
0.0441891
0.044189
0.0441889
0.0441888
0.0441886
0.0441885
0.0441883
0.0441881
0.0441878
0.0441875
0.0441869
0.0441858
0.0441834
0.0441777
0.0441637
0.0441274
0.0473072
0.0473487
0.0473648
0.0473713
0.0473741
0.0473753
0.047376
0.0473764
0.0473767
0.0473769
0.0473771
0.0473773
0.0473774
0.0473776
0.0473777
0.0473779
0.047378
0.0473781
0.0473782
0.0473783
0.0473784
0.0473784
0.0473785
0.0473785
0.0473786
0.0473786
0.0473787
0.0473787
0.0473787
0.0473787
0.0473787
0.0473787
0.0473787
0.0473787
0.0473786
0.0473786
0.0473785
0.0473785
0.0473784
0.0473784
0.0473783
0.0473782
0.0473781
0.047378
0.0473779
0.0473777
0.0473776
0.0473774
0.0473773
0.0473771
0.0473769
0.0473767
0.0473764
0.047376
0.0473753
0.0473741
0.0473713
0.0473648
0.0473487
0.0473072
0.0513478
0.0513964
0.0514153
0.051423
0.0514262
0.0514277
0.0514285
0.051429
0.0514293
0.0514296
0.0514298
0.0514301
0.0514302
0.0514304
0.0514306
0.0514308
0.0514309
0.051431
0.0514312
0.0514313
0.0514314
0.0514314
0.0514315
0.0514316
0.0514316
0.0514317
0.0514317
0.0514318
0.0514318
0.0514318
0.0514318
0.0514318
0.0514318
0.0514317
0.0514317
0.0514316
0.0514316
0.0514315
0.0514314
0.0514314
0.0514313
0.0514312
0.051431
0.0514309
0.0514308
0.0514306
0.0514304
0.0514302
0.0514301
0.0514298
0.0514296
0.0514293
0.051429
0.0514285
0.0514277
0.0514262
0.051423
0.0514153
0.0513964
0.0513478
0.0566282
0.0566868
0.0567096
0.056719
0.056723
0.0567248
0.0567257
0.0567263
0.0567267
0.0567271
0.0567274
0.0567277
0.0567279
0.0567281
0.0567284
0.0567285
0.0567287
0.0567289
0.056729
0.0567292
0.0567293
0.0567294
0.0567295
0.0567296
0.0567297
0.0567297
0.0567298
0.0567298
0.0567298
0.0567298
0.0567298
0.0567298
0.0567298
0.0567298
0.0567297
0.0567297
0.0567296
0.0567295
0.0567294
0.0567293
0.0567292
0.056729
0.0567289
0.0567287
0.0567285
0.0567284
0.0567281
0.0567279
0.0567277
0.0567274
0.0567271
0.0567267
0.0567263
0.0567257
0.0567248
0.056723
0.056719
0.0567096
0.0566868
0.0566282
0.0637053
0.0637783
0.0638069
0.0638186
0.0638236
0.0638259
0.0638271
0.0638278
0.0638284
0.0638288
0.0638292
0.0638295
0.0638299
0.0638302
0.0638304
0.0638307
0.0638309
0.0638311
0.0638313
0.0638315
0.0638316
0.0638318
0.0638319
0.063832
0.0638321
0.0638322
0.0638322
0.0638323
0.0638323
0.0638323
0.0638323
0.0638323
0.0638323
0.0638322
0.0638322
0.0638321
0.063832
0.0638319
0.0638318
0.0638316
0.0638315
0.0638313
0.0638311
0.0638309
0.0638307
0.0638304
0.0638302
0.0638299
0.0638295
0.0638292
0.0638288
0.0638284
0.0638278
0.0638271
0.0638259
0.0638236
0.0638186
0.0638069
0.0637783
0.0637053
0.0733211
0.0734142
0.0734508
0.0734659
0.0734723
0.0734753
0.0734768
0.0734778
0.0734785
0.073479
0.0734795
0.07348
0.0734804
0.0734808
0.0734811
0.0734815
0.0734818
0.073482
0.0734823
0.0734825
0.0734827
0.0734829
0.0734831
0.0734832
0.0734833
0.0734834
0.0734835
0.0734836
0.0734836
0.0734836
0.0734836
0.0734836
0.0734836
0.0734835
0.0734834
0.0734833
0.0734832
0.0734831
0.0734829
0.0734827
0.0734825
0.0734823
0.073482
0.0734818
0.0734815
0.0734811
0.0734808
0.0734804
0.07348
0.0734795
0.073479
0.0734785
0.0734778
0.0734768
0.0734753
0.0734723
0.0734659
0.0734508
0.0734142
0.0733211
0.0862932
0.0864128
0.0864601
0.0864795
0.0864878
0.0864917
0.0864937
0.0864949
0.0864958
0.0864966
0.0864972
0.0864978
0.0864983
0.0864988
0.0864993
0.0864997
0.0865001
0.0865004
0.0865007
0.086501
0.0865013
0.0865015
0.0865017
0.0865019
0.0865021
0.0865022
0.0865023
0.0865024
0.0865024
0.0865025
0.0865025
0.0865024
0.0865024
0.0865023
0.0865022
0.0865021
0.0865019
0.0865017
0.0865015
0.0865013
0.086501
0.0865007
0.0865004
0.0865001
0.0864997
0.0864993
0.0864988
0.0864983
0.0864978
0.0864972
0.0864966
0.0864958
0.0864949
0.0864937
0.0864917
0.0864878
0.0864795
0.0864601
0.0864128
0.0862932
0.10325
0.103401
0.103461
0.103486
0.103497
0.103502
0.103504
0.103506
0.103507
0.103508
0.103509
0.103509
0.10351
0.103511
0.103511
0.103512
0.103512
0.103513
0.103513
0.103513
0.103514
0.103514
0.103514
0.103515
0.103515
0.103515
0.103515
0.103515
0.103515
0.103515
0.103515
0.103515
0.103515
0.103515
0.103515
0.103515
0.103515
0.103514
0.103514
0.103514
0.103513
0.103513
0.103513
0.103512
0.103512
0.103511
0.103511
0.10351
0.103509
0.103509
0.103508
0.103507
0.103506
0.103504
0.103502
0.103497
0.103486
0.103461
0.103401
0.10325
0.124314
0.1245
0.124574
0.124604
0.124617
0.124623
0.124627
0.124628
0.12463
0.124631
0.124632
0.124633
0.124634
0.124634
0.124635
0.124636
0.124636
0.124637
0.124637
0.124638
0.124638
0.124638
0.124639
0.124639
0.124639
0.124639
0.124639
0.12464
0.12464
0.12464
0.12464
0.12464
0.12464
0.124639
0.124639
0.124639
0.124639
0.124639
0.124638
0.124638
0.124638
0.124637
0.124637
0.124636
0.124636
0.124635
0.124634
0.124634
0.124633
0.124632
0.124631
0.12463
0.124628
0.124627
0.124623
0.124617
0.124604
0.124574
0.1245
0.124314
0.148973
0.149191
0.149279
0.149315
0.149331
0.149338
0.149341
0.149344
0.149345
0.149346
0.149348
0.149348
0.149349
0.14935
0.149351
0.149352
0.149352
0.149353
0.149353
0.149354
0.149354
0.149355
0.149355
0.149355
0.149356
0.149356
0.149356
0.149356
0.149356
0.149356
0.149356
0.149356
0.149356
0.149356
0.149356
0.149356
0.149355
0.149355
0.149355
0.149354
0.149354
0.149353
0.149353
0.149352
0.149352
0.149351
0.14935
0.149349
0.149348
0.149348
0.149346
0.149345
0.149344
0.149341
0.149338
0.149331
0.149315
0.149279
0.149191
0.148973
0.176261
0.176508
0.176608
0.17665
0.176668
0.176676
0.17668
0.176683
0.176685
0.176686
0.176687
0.176688
0.176689
0.17669
0.176691
0.176692
0.176692
0.176693
0.176693
0.176694
0.176694
0.176695
0.176695
0.176696
0.176696
0.176696
0.176696
0.176696
0.176696
0.176696
0.176696
0.176696
0.176696
0.176696
0.176696
0.176696
0.176696
0.176695
0.176695
0.176694
0.176694
0.176693
0.176693
0.176692
0.176692
0.176691
0.17669
0.176689
0.176688
0.176687
0.176686
0.176685
0.176683
0.17668
0.176676
0.176668
0.17665
0.176608
0.176508
0.176261
0.205123
0.205395
0.205506
0.205552
0.205572
0.205581
0.205586
0.205589
0.205591
0.205592
0.205593
0.205594
0.205595
0.205596
0.205597
0.205598
0.205599
0.205599
0.2056
0.2056
0.205601
0.205601
0.205602
0.205602
0.205602
0.205603
0.205603
0.205603
0.205603
0.205603
0.205603
0.205603
0.205603
0.205603
0.205603
0.205602
0.205602
0.205602
0.205601
0.205601
0.2056
0.2056
0.205599
0.205599
0.205598
0.205597
0.205596
0.205595
0.205594
0.205593
0.205592
0.205591
0.205589
0.205586
0.205581
0.205572
0.205552
0.205506
0.205395
0.205123
0.234689
0.234982
0.235102
0.235153
0.235175
0.235185
0.23519
0.235193
0.235195
0.235196
0.235197
0.235198
0.235199
0.2352
0.235201
0.235202
0.235203
0.235203
0.235204
0.235205
0.235205
0.235206
0.235206
0.235206
0.235207
0.235207
0.235207
0.235207
0.235207
0.235207
0.235207
0.235207
0.235207
0.235207
0.235207
0.235207
0.235206
0.235206
0.235206
0.235205
0.235205
0.235204
0.235203
0.235203
0.235202
0.235201
0.2352
0.235199
0.235198
0.235197
0.235196
0.235195
0.235193
0.23519
0.235185
0.235175
0.235153
0.235102
0.234982
0.234689
0.264366
0.264675
0.264804
0.264859
0.264883
0.264893
0.264899
0.264902
0.264904
0.264905
0.264907
0.264908
0.264909
0.26491
0.264911
0.264911
0.264912
0.264913
0.264913
0.264914
0.264914
0.264915
0.264915
0.264916
0.264916
0.264916
0.264916
0.264916
0.264917
0.264917
0.264917
0.264917
0.264916
0.264916
0.264916
0.264916
0.264916
0.264915
0.264915
0.264914
0.264914
0.264913
0.264913
0.264912
0.264911
0.264911
0.26491
0.264909
0.264908
0.264907
0.264905
0.264904
0.264902
0.264899
0.264893
0.264883
0.264859
0.264804
0.264675
0.264366
0.29379
0.294114
0.294251
0.29431
0.294335
0.294347
0.294352
0.294356
0.294358
0.294359
0.294361
0.294362
0.294363
0.294364
0.294365
0.294365
0.294366
0.294367
0.294367
0.294368
0.294368
0.294369
0.294369
0.294369
0.29437
0.29437
0.29437
0.29437
0.29437
0.29437
0.29437
0.29437
0.29437
0.29437
0.29437
0.29437
0.294369
0.294369
0.294369
0.294368
0.294368
0.294367
0.294367
0.294366
0.294365
0.294365
0.294364
0.294363
0.294362
0.294361
0.294359
0.294358
0.294356
0.294352
0.294347
0.294335
0.29431
0.294251
0.294114
0.29379
0.322753
0.32309
0.323234
0.323296
0.323323
0.323336
0.323342
0.323345
0.323348
0.323349
0.32335
0.323352
0.323353
0.323354
0.323354
0.323355
0.323356
0.323356
0.323357
0.323358
0.323358
0.323358
0.323359
0.323359
0.323359
0.32336
0.32336
0.32336
0.32336
0.32336
0.32336
0.32336
0.32336
0.32336
0.32336
0.323359
0.323359
0.323359
0.323358
0.323358
0.323358
0.323357
0.323356
0.323356
0.323355
0.323354
0.323354
0.323353
0.323352
0.32335
0.323349
0.323348
0.323345
0.323342
0.323336
0.323323
0.323296
0.323234
0.32309
0.322753
0.351132
0.35148
0.351631
0.351697
0.351726
0.351739
0.351746
0.351749
0.351752
0.351753
0.351755
0.351756
0.351757
0.351758
0.351758
0.351759
0.35176
0.351761
0.351761
0.351762
0.351762
0.351763
0.351763
0.351763
0.351763
0.351764
0.351764
0.351764
0.351764
0.351764
0.351764
0.351764
0.351764
0.351764
0.351764
0.351763
0.351763
0.351763
0.351763
0.351762
0.351762
0.351761
0.351761
0.35176
0.351759
0.351758
0.351758
0.351757
0.351756
0.351755
0.351753
0.351752
0.351749
0.351746
0.351739
0.351726
0.351697
0.351631
0.35148
0.351132
0.378854
0.379212
0.37937
0.379439
0.37947
0.379484
0.379491
0.379494
0.379497
0.379498
0.3795
0.379501
0.379502
0.379503
0.379503
0.379504
0.379505
0.379505
0.379506
0.379507
0.379507
0.379507
0.379508
0.379508
0.379508
0.379509
0.379509
0.379509
0.379509
0.379509
0.379509
0.379509
0.379509
0.379509
0.379509
0.379508
0.379508
0.379508
0.379507
0.379507
0.379507
0.379506
0.379505
0.379505
0.379504
0.379503
0.379503
0.379502
0.379501
0.3795
0.379498
0.379497
0.379494
0.379491
0.379484
0.37947
0.379439
0.37937
0.379212
0.378854
0.405873
0.406238
0.406402
0.406475
0.406507
0.406522
0.40653
0.406534
0.406536
0.406538
0.406539
0.40654
0.406541
0.406542
0.406543
0.406543
0.406544
0.406545
0.406545
0.406546
0.406546
0.406546
0.406547
0.406547
0.406547
0.406548
0.406548
0.406548
0.406548
0.406548
0.406548
0.406548
0.406548
0.406548
0.406548
0.406547
0.406547
0.406547
0.406546
0.406546
0.406546
0.406545
0.406545
0.406544
0.406543
0.406543
0.406542
0.406541
0.40654
0.406539
0.406538
0.406536
0.406534
0.40653
0.406522
0.406507
0.406475
0.406402
0.406238
0.405873
0.432157
0.432529
0.432698
0.432774
0.432809
0.432825
0.432832
0.432837
0.432839
0.432841
0.432842
0.432843
0.432844
0.432845
0.432846
0.432846
0.432847
0.432848
0.432848
0.432849
0.432849
0.432849
0.43285
0.43285
0.43285
0.43285
0.432851
0.432851
0.432851
0.432851
0.432851
0.432851
0.432851
0.432851
0.43285
0.43285
0.43285
0.43285
0.432849
0.432849
0.432849
0.432848
0.432848
0.432847
0.432846
0.432846
0.432845
0.432844
0.432843
0.432842
0.432841
0.432839
0.432837
0.432832
0.432825
0.432809
0.432774
0.432698
0.432529
0.432157
0.457687
0.458064
0.458239
0.458318
0.458354
0.458371
0.458379
0.458383
0.458386
0.458388
0.458389
0.45839
0.458391
0.458392
0.458393
0.458393
0.458394
0.458394
0.458395
0.458395
0.458396
0.458396
0.458396
0.458397
0.458397
0.458397
0.458397
0.458397
0.458398
0.458398
0.458398
0.458398
0.458397
0.458397
0.458397
0.458397
0.458397
0.458396
0.458396
0.458396
0.458395
0.458395
0.458394
0.458394
0.458393
0.458393
0.458392
0.458391
0.45839
0.458389
0.458388
0.458386
0.458383
0.458379
0.458371
0.458354
0.458318
0.458239
0.458064
0.457687
0.48245
0.482831
0.48301
0.483093
0.483131
0.483148
0.483157
0.483161
0.483164
0.483166
0.483167
0.483168
0.483169
0.48317
0.483171
0.483171
0.483172
0.483172
0.483173
0.483173
0.483174
0.483174
0.483174
0.483175
0.483175
0.483175
0.483175
0.483175
0.483175
0.483175
0.483175
0.483175
0.483175
0.483175
0.483175
0.483175
0.483175
0.483174
0.483174
0.483174
0.483173
0.483173
0.483172
0.483172
0.483171
0.483171
0.48317
0.483169
0.483168
0.483167
0.483166
0.483164
0.483161
0.483157
0.483148
0.483131
0.483093
0.48301
0.482831
0.48245
0.506438
0.506822
0.507005
0.507091
0.507131
0.50715
0.507159
0.507164
0.507166
0.507168
0.507169
0.50717
0.507171
0.507172
0.507173
0.507173
0.507174
0.507174
0.507175
0.507175
0.507176
0.507176
0.507176
0.507177
0.507177
0.507177
0.507177
0.507177
0.507177
0.507177
0.507177
0.507177
0.507177
0.507177
0.507177
0.507177
0.507177
0.507176
0.507176
0.507176
0.507175
0.507175
0.507174
0.507174
0.507173
0.507173
0.507172
0.507171
0.50717
0.507169
0.507168
0.507166
0.507164
0.507159
0.50715
0.507131
0.507091
0.507005
0.506822
0.506438
0.52965
0.530035
0.530222
0.530311
0.530353
0.530372
0.530382
0.530387
0.53039
0.530392
0.530393
0.530394
0.530395
0.530396
0.530396
0.530397
0.530397
0.530398
0.530398
0.530399
0.530399
0.530399
0.5304
0.5304
0.5304
0.5304
0.5304
0.530401
0.530401
0.530401
0.530401
0.530401
0.530401
0.5304
0.5304
0.5304
0.5304
0.5304
0.530399
0.530399
0.530399
0.530398
0.530398
0.530397
0.530397
0.530396
0.530396
0.530395
0.530394
0.530393
0.530392
0.53039
0.530387
0.530382
0.530372
0.530353
0.530311
0.530222
0.530035
0.52965
0.552085
0.55247
0.552661
0.552753
0.552796
0.552817
0.552827
0.552832
0.552835
0.552837
0.552838
0.552839
0.55284
0.552841
0.552841
0.552842
0.552843
0.552843
0.552843
0.552844
0.552844
0.552845
0.552845
0.552845
0.552845
0.552845
0.552846
0.552846
0.552846
0.552846
0.552846
0.552846
0.552846
0.552846
0.552845
0.552845
0.552845
0.552845
0.552845
0.552844
0.552844
0.552843
0.552843
0.552843
0.552842
0.552841
0.552841
0.55284
0.552839
0.552838
0.552837
0.552835
0.552832
0.552827
0.552817
0.552796
0.552753
0.552661
0.55247
0.552085
0.573746
0.574131
0.574325
0.574419
0.574465
0.574486
0.574497
0.574503
0.574506
0.574508
0.574509
0.57451
0.574511
0.574511
0.574512
0.574513
0.574513
0.574514
0.574514
0.574514
0.574515
0.574515
0.574515
0.574515
0.574516
0.574516
0.574516
0.574516
0.574516
0.574516
0.574516
0.574516
0.574516
0.574516
0.574516
0.574516
0.574515
0.574515
0.574515
0.574515
0.574514
0.574514
0.574514
0.574513
0.574513
0.574512
0.574511
0.574511
0.57451
0.574509
0.574508
0.574506
0.574503
0.574497
0.574486
0.574465
0.574419
0.574325
0.574131
0.573746
0.594641
0.595024
0.595221
0.595317
0.595364
0.595387
0.595398
0.595404
0.595408
0.59541
0.595411
0.595412
0.595413
0.595413
0.595414
0.595414
0.595415
0.595415
0.595416
0.595416
0.595416
0.595417
0.595417
0.595417
0.595417
0.595418
0.595418
0.595418
0.595418
0.595418
0.595418
0.595418
0.595418
0.595418
0.595418
0.595417
0.595417
0.595417
0.595417
0.595416
0.595416
0.595416
0.595415
0.595415
0.595414
0.595414
0.595413
0.595413
0.595412
0.595411
0.59541
0.595408
0.595404
0.595398
0.595387
0.595364
0.595317
0.595221
0.595024
0.594641
0.614776
0.615157
0.615355
0.615455
0.615503
0.615527
0.615539
0.615545
0.615549
0.615551
0.615552
0.615553
0.615554
0.615554
0.615555
0.615556
0.615556
0.615556
0.615557
0.615557
0.615557
0.615558
0.615558
0.615558
0.615558
0.615558
0.615559
0.615559
0.615559
0.615559
0.615559
0.615559
0.615559
0.615559
0.615558
0.615558
0.615558
0.615558
0.615558
0.615557
0.615557
0.615557
0.615556
0.615556
0.615556
0.615555
0.615554
0.615554
0.615553
0.615552
0.615551
0.615549
0.615545
0.615539
0.615527
0.615503
0.615455
0.615355
0.615157
0.614776
0.634161
0.634539
0.634739
0.634841
0.634891
0.634916
0.634929
0.634935
0.634939
0.634941
0.634942
0.634943
0.634944
0.634945
0.634945
0.634946
0.634946
0.634946
0.634947
0.634947
0.634947
0.634948
0.634948
0.634948
0.634948
0.634948
0.634948
0.634948
0.634948
0.634949
0.634949
0.634948
0.634948
0.634948
0.634948
0.634948
0.634948
0.634948
0.634948
0.634947
0.634947
0.634947
0.634946
0.634946
0.634946
0.634945
0.634945
0.634944
0.634943
0.634942
0.634941
0.634939
0.634935
0.634929
0.634916
0.634891
0.634841
0.634739
0.634539
0.634161
0.652808
0.653182
0.653383
0.653487
0.653539
0.653565
0.653578
0.653585
0.653589
0.653591
0.653592
0.653593
0.653594
0.653595
0.653595
0.653596
0.653596
0.653596
0.653597
0.653597
0.653597
0.653598
0.653598
0.653598
0.653598
0.653598
0.653598
0.653598
0.653599
0.653599
0.653599
0.653599
0.653598
0.653598
0.653598
0.653598
0.653598
0.653598
0.653598
0.653597
0.653597
0.653597
0.653596
0.653596
0.653596
0.653595
0.653595
0.653594
0.653593
0.653592
0.653591
0.653589
0.653585
0.653578
0.653565
0.653539
0.653487
0.653383
0.653182
0.652808
0.670729
0.671098
0.6713
0.671406
0.67146
0.671487
0.671501
0.671508
0.671512
0.671514
0.671515
0.671516
0.671517
0.671518
0.671518
0.671519
0.671519
0.671519
0.67152
0.67152
0.67152
0.67152
0.671521
0.671521
0.671521
0.671521
0.671521
0.671521
0.671521
0.671521
0.671521
0.671521
0.671521
0.671521
0.671521
0.671521
0.671521
0.671521
0.67152
0.67152
0.67152
0.67152
0.671519
0.671519
0.671519
0.671518
0.671518
0.671517
0.671516
0.671515
0.671514
0.671512
0.671508
0.671501
0.671487
0.67146
0.671406
0.6713
0.671098
0.670729
0.687937
0.688301
0.688504
0.688611
0.688666
0.688695
0.688709
0.688717
0.688721
0.688723
0.688725
0.688726
0.688726
0.688727
0.688728
0.688728
0.688728
0.688729
0.688729
0.688729
0.688729
0.68873
0.68873
0.68873
0.68873
0.68873
0.68873
0.68873
0.68873
0.68873
0.68873
0.68873
0.68873
0.68873
0.68873
0.68873
0.68873
0.68873
0.68873
0.688729
0.688729
0.688729
0.688729
0.688728
0.688728
0.688728
0.688727
0.688726
0.688726
0.688725
0.688723
0.688721
0.688717
0.688709
0.688695
0.688666
0.688611
0.688504
0.688301
0.687937
0.704448
0.704806
0.705009
0.705117
0.705174
0.705204
0.705219
0.705227
0.705231
0.705234
0.705235
0.705236
0.705237
0.705237
0.705238
0.705238
0.705239
0.705239
0.705239
0.705239
0.70524
0.70524
0.70524
0.70524
0.70524
0.70524
0.70524
0.705241
0.705241
0.705241
0.705241
0.705241
0.705241
0.70524
0.70524
0.70524
0.70524
0.70524
0.70524
0.70524
0.705239
0.705239
0.705239
0.705239
0.705238
0.705238
0.705237
0.705237
0.705236
0.705235
0.705234
0.705231
0.705227
0.705219
0.705204
0.705174
0.705117
0.705009
0.704806
0.704448
0.720276
0.720628
0.72083
0.72094
0.720998
0.721029
0.721045
0.721053
0.721058
0.72106
0.721062
0.721063
0.721064
0.721064
0.721065
0.721065
0.721065
0.721066
0.721066
0.721066
0.721066
0.721066
0.721067
0.721067
0.721067
0.721067
0.721067
0.721067
0.721067
0.721067
0.721067
0.721067
0.721067
0.721067
0.721067
0.721067
0.721067
0.721067
0.721066
0.721066
0.721066
0.721066
0.721066
0.721065
0.721065
0.721065
0.721064
0.721064
0.721063
0.721062
0.72106
0.721058
0.721053
0.721045
0.721029
0.720998
0.72094
0.72083
0.720628
0.720276
0.735438
0.735783
0.735984
0.736095
0.736155
0.736187
0.736203
0.736212
0.736217
0.736219
0.736221
0.736222
0.736223
0.736223
0.736224
0.736224
0.736224
0.736225
0.736225
0.736225
0.736225
0.736226
0.736226
0.736226
0.736226
0.736226
0.736226
0.736226
0.736226
0.736226
0.736226
0.736226
0.736226
0.736226
0.736226
0.736226
0.736226
0.736226
0.736226
0.736225
0.736225
0.736225
0.736225
0.736224
0.736224
0.736224
0.736223
0.736223
0.736222
0.736221
0.736219
0.736217
0.736212
0.736203
0.736187
0.736155
0.736095
0.735984
0.735783
0.735438
0.74995
0.750287
0.750488
0.7506
0.750661
0.750693
0.75071
0.75072
0.750725
0.750728
0.750729
0.75073
0.750731
0.750732
0.750732
0.750732
0.750733
0.750733
0.750733
0.750733
0.750734
0.750734
0.750734
0.750734
0.750734
0.750734
0.750734
0.750734
0.750734
0.750734
0.750734
0.750734
0.750734
0.750734
0.750734
0.750734
0.750734
0.750734
0.750734
0.750734
0.750733
0.750733
0.750733
0.750733
0.750732
0.750732
0.750732
0.750731
0.75073
0.750729
0.750728
0.750725
0.75072
0.75071
0.750693
0.750661
0.7506
0.750488
0.750287
0.74995
0.763829
0.764159
0.764357
0.76447
0.764532
0.764566
0.764584
0.764594
0.764599
0.764602
0.764604
0.764605
0.764606
0.764606
0.764607
0.764607
0.764607
0.764607
0.764608
0.764608
0.764608
0.764608
0.764608
0.764608
0.764608
0.764608
0.764609
0.764609
0.764609
0.764609
0.764609
0.764609
0.764609
0.764609
0.764608
0.764608
0.764608
0.764608
0.764608
0.764608
0.764608
0.764608
0.764607
0.764607
0.764607
0.764607
0.764606
0.764606
0.764605
0.764604
0.764602
0.764599
0.764594
0.764584
0.764566
0.764532
0.76447
0.764357
0.764159
0.763829
0.777092
0.777414
0.777611
0.777725
0.777788
0.777822
0.777841
0.777851
0.777857
0.77786
0.777862
0.777863
0.777864
0.777864
0.777865
0.777865
0.777865
0.777865
0.777866
0.777866
0.777866
0.777866
0.777866
0.777866
0.777866
0.777866
0.777866
0.777866
0.777867
0.777867
0.777867
0.777867
0.777866
0.777866
0.777866
0.777866
0.777866
0.777866
0.777866
0.777866
0.777866
0.777866
0.777865
0.777865
0.777865
0.777865
0.777864
0.777864
0.777863
0.777862
0.77786
0.777857
0.777851
0.777841
0.777822
0.777788
0.777725
0.777611
0.777414
0.777092
0.789758
0.790072
0.790266
0.79038
0.790444
0.79048
0.790499
0.79051
0.790516
0.790519
0.790521
0.790522
0.790523
0.790524
0.790524
0.790524
0.790524
0.790525
0.790525
0.790525
0.790525
0.790525
0.790525
0.790525
0.790525
0.790525
0.790526
0.790526
0.790526
0.790526
0.790526
0.790526
0.790526
0.790526
0.790525
0.790525
0.790525
0.790525
0.790525
0.790525
0.790525
0.790525
0.790525
0.790524
0.790524
0.790524
0.790524
0.790523
0.790522
0.790521
0.790519
0.790516
0.79051
0.790499
0.79048
0.790444
0.79038
0.790266
0.790072
0.789758
0.801843
0.802149
0.802341
0.802455
0.80252
0.802556
0.802576
0.802587
0.802594
0.802597
0.802599
0.8026
0.802601
0.802602
0.802602
0.802602
0.802603
0.802603
0.802603
0.802603
0.802603
0.802603
0.802603
0.802604
0.802604
0.802604
0.802604