/*--------------------------------*- C++ -*----------------------------------*\
| =========                 |                                                 |
| \\      /  F ield         | foam-extend: Open Source CFD                    |
|  \\    /   O peration     | Version:     4.0                                |
|   \\  /    A nd           | Web:         http://www.foam-extend.org         |
|    \\/     M anipulation  |                                                 |
\*---------------------------------------------------------------------------*/
FoamFile
{
    version     2.0;
    format      ascii;
    class       regIOobject;
    location    "1380/uniform";
    object      profilingInfo;
}
// * * * * * * * * * * * * * * * * * * * * * * * * * * * * * * * * * * * * * //

profilingInfo
(

    {
        id              6;
        parentId        4;
        description     "Foam::Time::writeObject - outputTime";
        calls           138;
        totalTime       1.86759;
        childTime       0;
        onStack         1;
    }

    {
        id              4;
        parentId        1;
        description     "Foam::Time::writeObject";
        calls           1380;
        totalTime       1.86975;
        childTime       1.86759;
        onStack         1;
    }

    {
        id              1;
        description     "application::main";
        calls           1;
        totalTime       147.561;
        childTime       1.87068;
        onStack         1;
    }

    {
        id              3;
        parentId        2;
        description     "functionObjectList::read";
        calls           1;
        totalTime       4e-06;
        childTime       0;
        onStack         0;
    }

    {
        id              5;
        parentId        1;
        description     "functionObjects_.execute()";
        calls           1379;
        totalTime       0.000907;
        childTime       0;
        onStack         0;
    }

    {
        id              2;
        parentId        1;
        description     "functionObjects_.start()";
        calls           1;
        totalTime       1.7e-05;
        childTime       4e-06;
        onStack         0;
    }
);


// ************************************************************************* //
