/*--------------------------------*- C++ -*----------------------------------*\
| =========                 |                                                 |
| \\      /  F ield         | foam-extend: Open Source CFD                    |
|  \\    /   O peration     | Version:     4.0                                |
|   \\  /    A nd           | Web:         http://www.foam-extend.org         |
|    \\/     M anipulation  |                                                 |
\*---------------------------------------------------------------------------*/
FoamFile
{
    version     2.0;
    format      ascii;
    class       volScalarField;
    location    "1060";
    object      cMinus;
}
// * * * * * * * * * * * * * * * * * * * * * * * * * * * * * * * * * * * * * //

dimensions      [0 0 0 0 0 0 0];

internalField   nonuniform List<scalar> 
6960
(
4.78917e-23
4.78834e-23
4.78599e-23
4.78335e-23
4.78092e-23
4.77878e-23
4.77693e-23
4.77532e-23
4.77394e-23
4.77273e-23
4.77169e-23
4.77077e-23
4.76996e-23
4.76925e-23
4.76862e-23
4.76806e-23
4.76756e-23
4.76712e-23
4.76673e-23
4.76638e-23
4.76608e-23
4.76581e-23
4.76558e-23
4.76538e-23
4.76522e-23
4.76508e-23
4.76497e-23
4.76489e-23
4.76484e-23
4.76481e-23
4.76481e-23
4.76484e-23
4.76489e-23
4.76497e-23
4.76508e-23
4.76522e-23
4.76538e-23
4.76558e-23
4.76581e-23
4.76608e-23
4.76638e-23
4.76673e-23
4.76712e-23
4.76756e-23
4.76806e-23
4.76862e-23
4.76925e-23
4.76996e-23
4.77077e-23
4.77169e-23
4.77273e-23
4.77394e-23
4.77532e-23
4.77693e-23
4.77878e-23
4.78092e-23
4.78335e-23
4.78599e-23
4.78834e-23
4.78917e-23
2.30577e-22
2.30626e-22
2.3053e-22
2.30421e-22
2.3032e-22
2.30232e-22
2.30156e-22
2.30093e-22
2.30039e-22
2.29993e-22
2.29954e-22
2.29921e-22
2.29892e-22
2.29868e-22
2.29847e-22
2.29829e-22
2.29813e-22
2.298e-22
2.29788e-22
2.29778e-22
2.2977e-22
2.29762e-22
2.29756e-22
2.29751e-22
2.29746e-22
2.29743e-22
2.2974e-22
2.29738e-22
2.29737e-22
2.29736e-22
2.29736e-22
2.29737e-22
2.29738e-22
2.2974e-22
2.29743e-22
2.29746e-22
2.29751e-22
2.29756e-22
2.29762e-22
2.2977e-22
2.29778e-22
2.29788e-22
2.298e-22
2.29813e-22
2.29829e-22
2.29847e-22
2.29868e-22
2.29892e-22
2.29921e-22
2.29954e-22
2.29993e-22
2.30039e-22
2.30093e-22
2.30156e-22
2.30232e-22
2.3032e-22
2.30421e-22
2.3053e-22
2.30626e-22
2.30577e-22
8.41236e-22
8.41557e-22
8.41346e-22
8.41066e-22
8.408e-22
8.40562e-22
8.40354e-22
8.40174e-22
8.40018e-22
8.39884e-22
8.39767e-22
8.39666e-22
8.39579e-22
8.39502e-22
8.39436e-22
8.39378e-22
8.39328e-22
8.39284e-22
8.39245e-22
8.39212e-22
8.39184e-22
8.39159e-22
8.39138e-22
8.3912e-22
8.39106e-22
8.39094e-22
8.39085e-22
8.39078e-22
8.39073e-22
8.39071e-22
8.39071e-22
8.39073e-22
8.39078e-22
8.39085e-22
8.39094e-22
8.39106e-22
8.3912e-22
8.39138e-22
8.39159e-22
8.39184e-22
8.39212e-22
8.39245e-22
8.39284e-22
8.39328e-22
8.39378e-22
8.39436e-22
8.39502e-22
8.39579e-22
8.39666e-22
8.39767e-22
8.39884e-22
8.40018e-22
8.40174e-22
8.40354e-22
8.40562e-22
8.408e-22
8.41066e-22
8.41346e-22
8.41557e-22
8.41236e-22
2.92079e-21
2.92242e-21
2.92223e-21
2.92175e-21
2.92123e-21
2.92073e-21
2.92027e-21
2.91985e-21
2.91947e-21
2.91913e-21
2.91882e-21
2.91855e-21
2.9183e-21
2.91808e-21
2.91788e-21
2.9177e-21
2.91755e-21
2.91741e-21
2.91729e-21
2.91718e-21
2.91709e-21
2.91701e-21
2.91694e-21
2.91688e-21
2.91683e-21
2.91679e-21
2.91676e-21
2.91674e-21
2.91672e-21
2.91672e-21
2.91672e-21
2.91672e-21
2.91674e-21
2.91676e-21
2.91679e-21
2.91683e-21
2.91688e-21
2.91694e-21
2.91701e-21
2.91709e-21
2.91718e-21
2.91729e-21
2.91741e-21
2.91755e-21
2.9177e-21
2.91788e-21
2.91808e-21
2.9183e-21
2.91855e-21
2.91882e-21
2.91913e-21
2.91947e-21
2.91985e-21
2.92027e-21
2.92073e-21
2.92123e-21
2.92175e-21
2.92223e-21
2.92242e-21
2.92079e-21
1.02066e-20
1.02142e-20
1.02156e-20
1.02157e-20
1.02154e-20
1.02149e-20
1.02143e-20
1.02136e-20
1.02129e-20
1.02121e-20
1.02114e-20
1.02107e-20
1.02101e-20
1.02095e-20
1.02089e-20
1.02084e-20
1.02079e-20
1.02075e-20
1.02071e-20
1.02068e-20
1.02065e-20
1.02062e-20
1.0206e-20
1.02058e-20
1.02056e-20
1.02055e-20
1.02054e-20
1.02053e-20
1.02053e-20
1.02053e-20
1.02053e-20
1.02053e-20
1.02053e-20
1.02054e-20
1.02055e-20
1.02056e-20
1.02058e-20
1.0206e-20
1.02062e-20
1.02065e-20
1.02068e-20
1.02071e-20
1.02075e-20
1.02079e-20
1.02084e-20
1.02089e-20
1.02095e-20
1.02101e-20
1.02107e-20
1.02114e-20
1.02121e-20
1.02129e-20
1.02136e-20
1.02143e-20
1.02149e-20
1.02154e-20
1.02157e-20
1.02156e-20
1.02142e-20
1.02066e-20
3.64979e-20
3.65323e-20
3.6545e-20
3.65523e-20
3.65569e-20
3.65597e-20
3.65612e-20
3.65617e-20
3.65614e-20
3.65605e-20
3.65593e-20
3.65579e-20
3.65564e-20
3.65549e-20
3.65533e-20
3.65518e-20
3.65504e-20
3.65492e-20
3.6548e-20
3.65469e-20
3.6546e-20
3.65451e-20
3.65444e-20
3.65437e-20
3.65432e-20
3.65428e-20
3.65424e-20
3.65422e-20
3.6542e-20
3.65419e-20
3.65419e-20
3.6542e-20
3.65422e-20
3.65424e-20
3.65428e-20
3.65432e-20
3.65437e-20
3.65444e-20
3.65451e-20
3.6546e-20
3.65469e-20
3.6548e-20
3.65492e-20
3.65504e-20
3.65518e-20
3.65533e-20
3.65549e-20
3.65564e-20
3.65579e-20
3.65593e-20
3.65605e-20
3.65614e-20
3.65617e-20
3.65612e-20
3.65597e-20
3.65569e-20
3.65523e-20
3.6545e-20
3.65323e-20
3.64979e-20
1.34246e-19
1.344e-19
1.34476e-19
1.34529e-19
1.34567e-19
1.34595e-19
1.34615e-19
1.34627e-19
1.34635e-19
1.34639e-19
1.3464e-19
1.34638e-19
1.34636e-19
1.34633e-19
1.34629e-19
1.34625e-19
1.34621e-19
1.34617e-19
1.34614e-19
1.3461e-19
1.34607e-19
1.34604e-19
1.34602e-19
1.346e-19
1.34598e-19
1.34597e-19
1.34595e-19
1.34594e-19
1.34594e-19
1.34594e-19
1.34594e-19
1.34594e-19
1.34594e-19
1.34595e-19
1.34597e-19
1.34598e-19
1.346e-19
1.34602e-19
1.34604e-19
1.34607e-19
1.3461e-19
1.34614e-19
1.34617e-19
1.34621e-19
1.34625e-19
1.34629e-19
1.34633e-19
1.34636e-19
1.34638e-19
1.3464e-19
1.34639e-19
1.34635e-19
1.34627e-19
1.34615e-19
1.34595e-19
1.34567e-19
1.34529e-19
1.34476e-19
1.344e-19
1.34246e-19
5.0872e-19
5.0941e-19
5.09809e-19
5.10108e-19
5.10338e-19
5.10513e-19
5.10641e-19
5.10732e-19
5.10795e-19
5.10835e-19
5.10859e-19
5.10871e-19
5.10874e-19
5.10871e-19
5.10865e-19
5.10856e-19
5.10845e-19
5.10834e-19
5.10824e-19
5.10813e-19
5.10803e-19
5.10794e-19
5.10787e-19
5.1078e-19
5.10774e-19
5.10769e-19
5.10765e-19
5.10762e-19
5.1076e-19
5.10759e-19
5.10759e-19
5.1076e-19
5.10762e-19
5.10765e-19
5.10769e-19
5.10774e-19
5.1078e-19
5.10787e-19
5.10794e-19
5.10803e-19
5.10813e-19
5.10824e-19
5.10834e-19
5.10845e-19
5.10856e-19
5.10865e-19
5.10871e-19
5.10874e-19
5.10871e-19
5.10859e-19
5.10835e-19
5.10795e-19
5.10732e-19
5.10641e-19
5.10513e-19
5.10338e-19
5.10108e-19
5.09809e-19
5.0941e-19
5.0872e-19
1.98696e-18
1.99009e-18
1.99209e-18
1.99366e-18
1.99489e-18
1.99584e-18
1.99656e-18
1.99709e-18
1.99747e-18
1.99774e-18
1.99791e-18
1.99802e-18
1.99809e-18
1.99811e-18
1.99812e-18
1.99811e-18
1.99809e-18
1.99806e-18
1.99803e-18
1.998e-18
1.99797e-18
1.99794e-18
1.99791e-18
1.99789e-18
1.99787e-18
1.99785e-18
1.99784e-18
1.99783e-18
1.99782e-18
1.99782e-18
1.99782e-18
1.99782e-18
1.99783e-18
1.99784e-18
1.99785e-18
1.99787e-18
1.99789e-18
1.99791e-18
1.99794e-18
1.99797e-18
1.998e-18
1.99803e-18
1.99806e-18
1.99809e-18
1.99811e-18
1.99812e-18
1.99811e-18
1.99809e-18
1.99802e-18
1.99791e-18
1.99774e-18
1.99747e-18
1.99709e-18
1.99656e-18
1.99584e-18
1.99489e-18
1.99366e-18
1.99209e-18
1.99009e-18
1.98696e-18
7.99893e-18
8.01327e-18
8.02315e-18
8.0311e-18
8.03744e-18
8.0424e-18
8.04619e-18
8.04904e-18
8.05113e-18
8.05263e-18
8.05368e-18
8.05439e-18
8.05485e-18
8.05513e-18
8.05528e-18
8.05533e-18
8.05533e-18
8.05528e-18
8.05521e-18
8.05513e-18
8.05504e-18
8.05495e-18
8.05487e-18
8.0548e-18
8.05473e-18
8.05467e-18
8.05463e-18
8.05459e-18
8.05457e-18
8.05456e-18
8.05456e-18
8.05457e-18
8.05459e-18
8.05463e-18
8.05467e-18
8.05473e-18
8.0548e-18
8.05487e-18
8.05495e-18
8.05504e-18
8.05513e-18
8.05521e-18
8.05528e-18
8.05533e-18
8.05533e-18
8.05528e-18
8.05513e-18
8.05485e-18
8.05439e-18
8.05368e-18
8.05263e-18
8.05113e-18
8.04904e-18
8.04619e-18
8.0424e-18
8.03744e-18
8.0311e-18
8.02315e-18
8.01327e-18
7.99893e-18
3.31806e-17
3.32475e-17
3.32962e-17
3.3336e-17
3.33681e-17
3.33934e-17
3.3413e-17
3.34278e-17
3.34388e-17
3.34469e-17
3.34527e-17
3.34568e-17
3.34596e-17
3.34614e-17
3.34626e-17
3.34632e-17
3.34635e-17
3.34636e-17
3.34636e-17
3.34634e-17
3.34632e-17
3.34629e-17
3.34627e-17
3.34624e-17
3.34622e-17
3.3462e-17
3.34619e-17
3.34618e-17
3.34617e-17
3.34616e-17
3.34616e-17
3.34617e-17
3.34618e-17
3.34619e-17
3.3462e-17
3.34622e-17
3.34624e-17
3.34627e-17
3.34629e-17
3.34632e-17
3.34634e-17
3.34636e-17
3.34636e-17
3.34635e-17
3.34632e-17
3.34626e-17
3.34614e-17
3.34596e-17
3.34568e-17
3.34527e-17
3.34469e-17
3.34388e-17
3.34278e-17
3.3413e-17
3.33934e-17
3.33681e-17
3.3336e-17
3.32962e-17
3.32475e-17
3.31806e-17
1.41748e-16
1.42065e-16
1.42306e-16
1.42506e-16
1.42669e-16
1.42797e-16
1.42897e-16
1.42973e-16
1.43031e-16
1.43073e-16
1.43104e-16
1.43127e-16
1.43142e-16
1.43153e-16
1.43161e-16
1.43165e-16
1.43168e-16
1.4317e-16
1.4317e-16
1.4317e-16
1.4317e-16
1.43169e-16
1.43169e-16
1.43168e-16
1.43167e-16
1.43167e-16
1.43166e-16
1.43166e-16
1.43166e-16
1.43165e-16
1.43165e-16
1.43166e-16
1.43166e-16
1.43166e-16
1.43167e-16
1.43167e-16
1.43168e-16
1.43169e-16
1.43169e-16
1.4317e-16
1.4317e-16
1.4317e-16
1.4317e-16
1.43168e-16
1.43165e-16
1.43161e-16
1.43153e-16
1.43142e-16
1.43127e-16
1.43104e-16
1.43073e-16
1.43031e-16
1.42973e-16
1.42897e-16
1.42797e-16
1.42669e-16
1.42506e-16
1.42306e-16
1.42065e-16
1.41748e-16
6.23116e-16
6.24649e-16
6.25858e-16
6.26871e-16
6.27696e-16
6.28352e-16
6.28864e-16
6.29258e-16
6.29556e-16
6.29778e-16
6.29943e-16
6.30062e-16
6.30148e-16
6.30209e-16
6.30252e-16
6.3028e-16
6.30299e-16
6.30311e-16
6.30318e-16
6.30322e-16
6.30323e-16
6.30323e-16
6.30322e-16
6.3032e-16
6.30318e-16
6.30316e-16
6.30315e-16
6.30314e-16
6.30313e-16
6.30312e-16
6.30312e-16
6.30313e-16
6.30314e-16
6.30315e-16
6.30316e-16
6.30318e-16
6.3032e-16
6.30322e-16
6.30323e-16
6.30323e-16
6.30322e-16
6.30318e-16
6.30311e-16
6.30299e-16
6.3028e-16
6.30252e-16
6.30209e-16
6.30148e-16
6.30062e-16
6.29943e-16
6.29778e-16
6.29556e-16
6.29258e-16
6.28864e-16
6.28352e-16
6.27696e-16
6.26871e-16
6.25858e-16
6.24649e-16
6.23116e-16
2.81543e-15
2.82298e-15
2.82912e-15
2.8343e-15
2.83853e-15
2.84191e-15
2.84456e-15
2.8466e-15
2.84815e-15
2.84932e-15
2.85019e-15
2.85082e-15
2.85129e-15
2.85162e-15
2.85186e-15
2.85203e-15
2.85214e-15
2.85222e-15
2.85227e-15
2.8523e-15
2.85232e-15
2.85233e-15
2.85233e-15
2.85233e-15
2.85233e-15
2.85232e-15
2.85232e-15
2.85231e-15
2.85231e-15
2.85231e-15
2.85231e-15
2.85231e-15
2.85231e-15
2.85232e-15
2.85232e-15
2.85233e-15
2.85233e-15
2.85233e-15
2.85233e-15
2.85232e-15
2.8523e-15
2.85227e-15
2.85222e-15
2.85214e-15
2.85203e-15
2.85186e-15
2.85162e-15
2.85129e-15
2.85082e-15
2.85019e-15
2.84932e-15
2.84815e-15
2.8466e-15
2.84456e-15
2.84191e-15
2.83853e-15
2.8343e-15
2.82912e-15
2.82298e-15
2.81543e-15
1.3055e-14
1.30929e-14
1.31245e-14
1.31513e-14
1.31732e-14
1.31908e-14
1.32046e-14
1.32153e-14
1.32235e-14
1.32296e-14
1.32342e-14
1.32377e-14
1.32402e-14
1.3242e-14
1.32433e-14
1.32443e-14
1.32449e-14
1.32454e-14
1.32457e-14
1.32459e-14
1.3246e-14
1.32461e-14
1.32462e-14
1.32462e-14
1.32462e-14
1.32462e-14
1.32462e-14
1.32462e-14
1.32462e-14
1.32462e-14
1.32462e-14
1.32462e-14
1.32462e-14
1.32462e-14
1.32462e-14
1.32462e-14
1.32462e-14
1.32462e-14
1.32461e-14
1.3246e-14
1.32459e-14
1.32457e-14
1.32454e-14
1.32449e-14
1.32443e-14
1.32433e-14
1.3242e-14
1.32402e-14
1.32377e-14
1.32342e-14
1.32296e-14
1.32235e-14
1.32153e-14
1.32046e-14
1.31908e-14
1.31732e-14
1.31513e-14
1.31245e-14
1.30929e-14
1.3055e-14
6.2002e-14
6.21953e-14
6.236e-14
6.25005e-14
6.2616e-14
6.27085e-14
6.27813e-14
6.28378e-14
6.2881e-14
6.29138e-14
6.29385e-14
6.29568e-14
6.29704e-14
6.29803e-14
6.29876e-14
6.29928e-14
6.29966e-14
6.29993e-14
6.30012e-14
6.30025e-14
6.30034e-14
6.30039e-14
6.30043e-14
6.30045e-14
6.30047e-14
6.30048e-14
6.30048e-14
6.30048e-14
6.30048e-14
6.30048e-14
6.30048e-14
6.30048e-14
6.30048e-14
6.30048e-14
6.30048e-14
6.30047e-14
6.30045e-14
6.30043e-14
6.30039e-14
6.30034e-14
6.30025e-14
6.30012e-14
6.29993e-14
6.29966e-14
6.29928e-14
6.29876e-14
6.29803e-14
6.29704e-14
6.29568e-14
6.29385e-14
6.29138e-14
6.2881e-14
6.28378e-14
6.27813e-14
6.27085e-14
6.2616e-14
6.25005e-14
6.236e-14
6.21953e-14
6.2002e-14
3.00852e-13
3.01854e-13
3.02723e-13
3.03468e-13
3.04081e-13
3.04573e-13
3.0496e-13
3.05262e-13
3.05493e-13
3.05669e-13
3.05801e-13
3.05901e-13
3.05974e-13
3.06029e-13
3.06069e-13
3.06098e-13
3.06119e-13
3.06134e-13
3.06145e-13
3.06153e-13
3.06158e-13
3.06162e-13
3.06165e-13
3.06166e-13
3.06168e-13
3.06168e-13
3.06169e-13
3.06169e-13
3.06169e-13
3.06169e-13
3.06169e-13
3.06169e-13
3.06169e-13
3.06169e-13
3.06168e-13
3.06168e-13
3.06166e-13
3.06165e-13
3.06162e-13
3.06158e-13
3.06153e-13
3.06145e-13
3.06134e-13
3.06119e-13
3.06098e-13
3.06069e-13
3.06029e-13
3.05974e-13
3.05901e-13
3.05801e-13
3.05669e-13
3.05493e-13
3.05262e-13
3.0496e-13
3.04573e-13
3.04081e-13
3.03468e-13
3.02723e-13
3.01854e-13
3.00852e-13
1.48692e-12
1.49218e-12
1.49681e-12
1.5008e-12
1.50408e-12
1.50672e-12
1.5088e-12
1.51042e-12
1.51167e-12
1.51262e-12
1.51333e-12
1.51387e-12
1.51427e-12
1.51457e-12
1.51479e-12
1.51495e-12
1.51507e-12
1.51516e-12
1.51522e-12
1.51527e-12
1.5153e-12
1.51532e-12
1.51534e-12
1.51535e-12
1.51536e-12
1.51536e-12
1.51537e-12
1.51537e-12
1.51537e-12
1.51537e-12
1.51537e-12
1.51537e-12
1.51537e-12
1.51537e-12
1.51536e-12
1.51536e-12
1.51535e-12
1.51534e-12
1.51532e-12
1.5153e-12
1.51527e-12
1.51522e-12
1.51516e-12
1.51507e-12
1.51495e-12
1.51479e-12
1.51457e-12
1.51427e-12
1.51387e-12
1.51333e-12
1.51262e-12
1.51167e-12
1.51042e-12
1.5088e-12
1.50672e-12
1.50408e-12
1.5008e-12
1.49681e-12
1.49218e-12
1.48692e-12
7.45765e-12
7.48549e-12
7.51037e-12
7.5318e-12
7.54948e-12
7.56371e-12
7.57495e-12
7.58371e-12
7.59046e-12
7.5956e-12
7.5995e-12
7.60243e-12
7.60463e-12
7.60626e-12
7.60747e-12
7.60837e-12
7.60903e-12
7.60952e-12
7.60987e-12
7.61013e-12
7.61032e-12
7.61045e-12
7.61055e-12
7.61062e-12
7.61066e-12
7.6107e-12
7.61072e-12
7.61073e-12
7.61074e-12
7.61075e-12
7.61075e-12
7.61074e-12
7.61073e-12
7.61072e-12
7.6107e-12
7.61066e-12
7.61062e-12
7.61055e-12
7.61045e-12
7.61032e-12
7.61013e-12
7.60987e-12
7.60952e-12
7.60903e-12
7.60837e-12
7.60747e-12
7.60626e-12
7.60463e-12
7.60243e-12
7.5995e-12
7.5956e-12
7.59046e-12
7.58371e-12
7.57495e-12
7.56371e-12
7.54948e-12
7.5318e-12
7.51037e-12
7.48549e-12
7.45765e-12
3.77895e-11
3.79376e-11
3.80714e-11
3.81869e-11
3.82824e-11
3.83592e-11
3.842e-11
3.84674e-11
3.85039e-11
3.85318e-11
3.8553e-11
3.8569e-11
3.8581e-11
3.85899e-11
3.85966e-11
3.86015e-11
3.86052e-11
3.86079e-11
3.86099e-11
3.86114e-11
3.86124e-11
3.86132e-11
3.86138e-11
3.86142e-11
3.86145e-11
3.86147e-11
3.86148e-11
3.86149e-11
3.8615e-11
3.8615e-11
3.8615e-11
3.8615e-11
3.86149e-11
3.86148e-11
3.86147e-11
3.86145e-11
3.86142e-11
3.86138e-11
3.86132e-11
3.86124e-11
3.86114e-11
3.86099e-11
3.86079e-11
3.86052e-11
3.86015e-11
3.85966e-11
3.85899e-11
3.8581e-11
3.8569e-11
3.8553e-11
3.85318e-11
3.85039e-11
3.84674e-11
3.842e-11
3.83592e-11
3.82824e-11
3.81869e-11
3.80714e-11
3.79376e-11
3.77895e-11
1.92453e-10
1.9324e-10
1.93959e-10
1.9458e-10
1.95093e-10
1.95507e-10
1.95834e-10
1.96089e-10
1.96287e-10
1.96437e-10
1.96552e-10
1.96638e-10
1.96704e-10
1.96752e-10
1.96789e-10
1.96816e-10
1.96836e-10
1.96851e-10
1.96862e-10
1.9687e-10
1.96876e-10
1.9688e-10
1.96884e-10
1.96886e-10
1.96888e-10
1.96889e-10
1.9689e-10
1.9689e-10
1.96891e-10
1.96891e-10
1.96891e-10
1.96891e-10
1.9689e-10
1.9689e-10
1.96889e-10
1.96888e-10
1.96886e-10
1.96884e-10
1.9688e-10
1.96876e-10
1.9687e-10
1.96862e-10
1.96851e-10
1.96836e-10
1.96816e-10
1.96789e-10
1.96752e-10
1.96704e-10
1.96638e-10
1.96552e-10
1.96437e-10
1.96287e-10
1.96089e-10
1.95834e-10
1.95507e-10
1.95093e-10
1.9458e-10
1.93959e-10
1.9324e-10
1.92453e-10
9.79083e-10
9.83241e-10
9.87063e-10
9.9037e-10
9.93105e-10
9.9531e-10
9.97056e-10
9.98419e-10
9.99473e-10
1.00028e-09
1.00089e-09
1.00136e-09
1.00171e-09
1.00197e-09
1.00216e-09
1.00231e-09
1.00242e-09
1.0025e-09
1.00256e-09
1.00261e-09
1.00264e-09
1.00267e-09
1.00268e-09
1.0027e-09
1.00271e-09
1.00271e-09
1.00272e-09
1.00272e-09
1.00272e-09
1.00272e-09
1.00272e-09
1.00272e-09
1.00272e-09
1.00272e-09
1.00271e-09
1.00271e-09
1.0027e-09
1.00268e-09
1.00267e-09
1.00264e-09
1.00261e-09
1.00256e-09
1.0025e-09
1.00242e-09
1.00231e-09
1.00216e-09
1.00197e-09
1.00171e-09
1.00136e-09
1.00089e-09
1.00028e-09
9.99473e-10
9.98419e-10
9.97056e-10
9.9531e-10
9.93105e-10
9.9037e-10
9.87063e-10
9.83241e-10
9.79083e-10
4.94095e-09
4.96259e-09
4.98261e-09
4.99993e-09
5.01427e-09
5.02583e-09
5.03499e-09
5.04214e-09
5.04768e-09
5.05192e-09
5.05515e-09
5.05759e-09
5.05943e-09
5.06082e-09
5.06186e-09
5.06264e-09
5.06322e-09
5.06365e-09
5.06398e-09
5.06422e-09
5.0644e-09
5.06453e-09
5.06463e-09
5.0647e-09
5.06476e-09
5.06479e-09
5.06482e-09
5.06484e-09
5.06485e-09
5.06486e-09
5.06486e-09
5.06485e-09
5.06484e-09
5.06482e-09
5.06479e-09
5.06476e-09
5.0647e-09
5.06463e-09
5.06453e-09
5.0644e-09
5.06422e-09
5.06398e-09
5.06365e-09
5.06322e-09
5.06264e-09
5.06186e-09
5.06082e-09
5.05943e-09
5.05759e-09
5.05515e-09
5.05192e-09
5.04768e-09
5.04214e-09
5.03499e-09
5.02583e-09
5.01427e-09
4.99993e-09
4.98261e-09
4.96259e-09
4.94095e-09
2.45375e-08
2.46476e-08
2.47499e-08
2.48384e-08
2.49117e-08
2.49708e-08
2.50177e-08
2.50543e-08
2.50827e-08
2.51044e-08
2.5121e-08
2.51335e-08
2.5143e-08
2.51501e-08
2.51555e-08
2.51595e-08
2.51625e-08
2.51648e-08
2.51665e-08
2.51677e-08
2.51687e-08
2.51694e-08
2.51699e-08
2.51703e-08
2.51706e-08
2.51708e-08
2.51709e-08
2.5171e-08
2.51711e-08
2.51711e-08
2.51711e-08
2.51711e-08
2.5171e-08
2.51709e-08
2.51708e-08
2.51706e-08
2.51703e-08
2.51699e-08
2.51694e-08
2.51687e-08
2.51677e-08
2.51665e-08
2.51648e-08
2.51625e-08
2.51595e-08
2.51555e-08
2.51501e-08
2.5143e-08
2.51335e-08
2.5121e-08
2.51044e-08
2.50827e-08
2.50543e-08
2.50177e-08
2.49708e-08
2.49117e-08
2.48384e-08
2.47499e-08
2.46476e-08
2.45375e-08
1.18843e-07
1.19385e-07
1.1989e-07
1.20328e-07
1.2069e-07
1.20982e-07
1.21213e-07
1.21395e-07
1.21535e-07
1.21642e-07
1.21724e-07
1.21787e-07
1.21834e-07
1.21869e-07
1.21896e-07
1.21916e-07
1.21931e-07
1.21942e-07
1.21951e-07
1.21957e-07
1.21962e-07
1.21965e-07
1.21968e-07
1.2197e-07
1.21971e-07
1.21972e-07
1.21973e-07
1.21974e-07
1.21974e-07
1.21974e-07
1.21974e-07
1.21974e-07
1.21974e-07
1.21973e-07
1.21972e-07
1.21971e-07
1.2197e-07
1.21968e-07
1.21965e-07
1.21962e-07
1.21957e-07
1.21951e-07
1.21942e-07
1.21931e-07
1.21916e-07
1.21896e-07
1.21869e-07
1.21834e-07
1.21787e-07
1.21724e-07
1.21642e-07
1.21535e-07
1.21395e-07
1.21213e-07
1.20982e-07
1.2069e-07
1.20328e-07
1.1989e-07
1.19385e-07
1.18843e-07
5.55754e-07
5.58314e-07
5.60701e-07
5.62767e-07
5.64476e-07
5.65855e-07
5.66949e-07
5.67805e-07
5.68468e-07
5.68977e-07
5.69365e-07
5.6966e-07
5.69882e-07
5.70051e-07
5.70177e-07
5.70273e-07
5.70345e-07
5.70399e-07
5.70439e-07
5.7047e-07
5.70493e-07
5.7051e-07
5.70523e-07
5.70532e-07
5.70539e-07
5.70544e-07
5.70548e-07
5.7055e-07
5.70552e-07
5.70553e-07
5.70553e-07
5.70552e-07
5.7055e-07
5.70548e-07
5.70544e-07
5.70539e-07
5.70532e-07
5.70523e-07
5.7051e-07
5.70493e-07
5.7047e-07
5.70439e-07
5.70399e-07
5.70345e-07
5.70273e-07
5.70177e-07
5.70051e-07
5.69882e-07
5.6966e-07
5.69365e-07
5.68977e-07
5.68468e-07
5.67805e-07
5.66949e-07
5.65855e-07
5.64476e-07
5.62767e-07
5.60701e-07
5.58314e-07
5.55754e-07
2.48169e-06
2.49312e-06
2.50378e-06
2.51299e-06
2.52061e-06
2.52676e-06
2.53164e-06
2.53546e-06
2.53842e-06
2.54069e-06
2.54242e-06
2.54374e-06
2.54474e-06
2.54549e-06
2.54606e-06
2.54649e-06
2.54681e-06
2.54706e-06
2.54724e-06
2.54738e-06
2.54748e-06
2.54756e-06
2.54762e-06
2.54766e-06
2.54769e-06
2.54772e-06
2.54773e-06
2.54774e-06
2.54775e-06
2.54776e-06
2.54776e-06
2.54775e-06
2.54774e-06
2.54773e-06
2.54772e-06
2.54769e-06
2.54766e-06
2.54762e-06
2.54756e-06
2.54748e-06
2.54738e-06
2.54724e-06
2.54706e-06
2.54681e-06
2.54649e-06
2.54606e-06
2.54549e-06
2.54474e-06
2.54374e-06
2.54242e-06
2.54069e-06
2.53842e-06
2.53546e-06
2.53164e-06
2.52676e-06
2.52061e-06
2.51299e-06
2.50378e-06
2.49312e-06
2.48169e-06
1.04539e-05
1.05015e-05
1.05459e-05
1.05842e-05
1.06158e-05
1.06414e-05
1.06616e-05
1.06775e-05
1.06898e-05
1.06993e-05
1.07065e-05
1.0712e-05
1.07161e-05
1.07193e-05
1.07216e-05
1.07234e-05
1.07248e-05
1.07258e-05
1.07266e-05
1.07272e-05
1.07276e-05
1.07279e-05
1.07282e-05
1.07283e-05
1.07285e-05
1.07286e-05
1.07287e-05
1.07287e-05
1.07287e-05
1.07288e-05
1.07288e-05
1.07287e-05
1.07287e-05
1.07287e-05
1.07286e-05
1.07285e-05
1.07283e-05
1.07282e-05
1.07279e-05
1.07276e-05
1.07272e-05
1.07266e-05
1.07258e-05
1.07248e-05
1.07234e-05
1.07216e-05
1.07193e-05
1.07161e-05
1.0712e-05
1.07065e-05
1.06993e-05
1.06898e-05
1.06775e-05
1.06616e-05
1.06414e-05
1.06158e-05
1.05842e-05
1.05459e-05
1.05015e-05
1.04539e-05
4.09909e-05
4.11734e-05
4.13428e-05
4.14888e-05
4.16095e-05
4.17069e-05
4.17842e-05
4.18447e-05
4.18916e-05
4.19277e-05
4.19552e-05
4.19762e-05
4.19921e-05
4.20041e-05
4.20132e-05
4.20201e-05
4.20252e-05
4.20292e-05
4.20321e-05
4.20343e-05
4.2036e-05
4.20373e-05
4.20383e-05
4.2039e-05
4.20395e-05
4.20399e-05
4.20402e-05
4.20404e-05
4.20405e-05
4.20406e-05
4.20406e-05
4.20405e-05
4.20404e-05
4.20402e-05
4.20399e-05
4.20395e-05
4.2039e-05
4.20383e-05
4.20373e-05
4.2036e-05
4.20343e-05
4.20321e-05
4.20292e-05
4.20252e-05
4.20201e-05
4.20132e-05
4.20041e-05
4.19921e-05
4.19762e-05
4.19552e-05
4.19277e-05
4.18916e-05
4.18447e-05
4.17842e-05
4.17069e-05
4.16095e-05
4.14888e-05
4.13428e-05
4.11734e-05
4.09909e-05
0.000147458
0.00014809
0.000148674
0.000149176
0.000149591
0.000149926
0.000150192
0.0001504
0.000150562
0.000150686
0.00015078
0.000150853
0.000150907
0.000150949
0.00015098
0.000151004
0.000151022
0.000151036
0.000151046
0.000151054
0.000151059
0.000151064
0.000151067
0.00015107
0.000151072
0.000151073
0.000151074
0.000151075
0.000151075
0.000151075
0.000151075
0.000151075
0.000151075
0.000151074
0.000151073
0.000151072
0.00015107
0.000151067
0.000151064
0.000151059
0.000151054
0.000151046
0.000151036
0.000151022
0.000151004
0.00015098
0.000150949
0.000150907
0.000150853
0.00015078
0.000150686
0.000150562
0.0001504
0.000150192
0.000149926
0.000149591
0.000149176
0.000148674
0.00014809
0.000147458
0.000479113
0.000481051
0.000482832
0.000484362
0.000485625
0.000486644
0.000487452
0.000488086
0.000488577
0.000488954
0.000489243
0.000489463
0.000489631
0.000489757
0.000489853
0.000489926
0.00048998
0.000490022
0.000490053
0.000490077
0.000490095
0.000490109
0.000490119
0.000490127
0.000490133
0.000490137
0.00049014
0.000490143
0.000490144
0.000490145
0.000490145
0.000490144
0.000490143
0.00049014
0.000490137
0.000490133
0.000490127
0.000490119
0.000490109
0.000490095
0.000490077
0.000490053
0.000490022
0.00048998
0.000489926
0.000489853
0.000489757
0.000489631
0.000489463
0.000489243
0.000488954
0.000488577
0.000488086
0.000487452
0.000486644
0.000485625
0.000484362
0.000482832
0.000481051
0.000479113
0.00138351
0.00138867
0.00139338
0.00139742
0.00140075
0.00140344
0.00140557
0.00140724
0.00140853
0.00140953
0.00141029
0.00141087
0.00141132
0.00141165
0.0014119
0.0014121
0.00141224
0.00141235
0.00141244
0.0014125
0.00141255
0.00141258
0.00141261
0.00141263
0.00141265
0.00141266
0.00141267
0.00141267
0.00141268
0.00141268
0.00141268
0.00141268
0.00141267
0.00141267
0.00141266
0.00141265
0.00141263
0.00141261
0.00141258
0.00141255
0.0014125
0.00141244
0.00141235
0.00141224
0.0014121
0.0014119
0.00141165
0.00141132
0.00141087
0.00141029
0.00140953
0.00140853
0.00140724
0.00140557
0.00140344
0.00140075
0.00139742
0.00139338
0.00138867
0.00138351
0.00349794
0.00350964
0.00352024
0.0035293
0.00353677
0.0035428
0.00354757
0.00355132
0.00355422
0.00355646
0.00355817
0.00355947
0.00356047
0.00356122
0.00356179
0.00356222
0.00356255
0.0035628
0.00356299
0.00356314
0.00356324
0.00356333
0.00356339
0.00356344
0.00356347
0.0035635
0.00356352
0.00356353
0.00356354
0.00356354
0.00356354
0.00356354
0.00356353
0.00356352
0.0035635
0.00356347
0.00356344
0.00356339
0.00356333
0.00356324
0.00356314
0.00356299
0.0035628
0.00356255
0.00356222
0.00356179
0.00356122
0.00356047
0.00355947
0.00355817
0.00355646
0.00355422
0.00355132
0.00354757
0.0035428
0.00353677
0.0035293
0.00352024
0.00350964
0.00349794
0.00766355
0.00768585
0.00770587
0.00772294
0.007737
0.00774833
0.00775732
0.00776436
0.00776983
0.00777404
0.00777726
0.00777973
0.0077816
0.00778302
0.0077841
0.00778492
0.00778554
0.00778602
0.00778638
0.00778665
0.00778686
0.00778702
0.00778714
0.00778723
0.0077873
0.00778735
0.00778738
0.00778741
0.00778742
0.00778743
0.00778743
0.00778742
0.00778741
0.00778738
0.00778735
0.0077873
0.00778723
0.00778714
0.00778702
0.00778686
0.00778665
0.00778638
0.00778602
0.00778554
0.00778492
0.0077841
0.00778302
0.0077816
0.00777973
0.00777726
0.00777404
0.00776983
0.00776436
0.00775732
0.00774833
0.007737
0.00772294
0.00770587
0.00768585
0.00766355
0.0145279
0.0145637
0.0145955
0.0146225
0.0146448
0.0146627
0.0146769
0.0146881
0.0146967
0.0147034
0.0147085
0.0147124
0.0147154
0.0147176
0.0147194
0.0147207
0.0147217
0.0147224
0.014723
0.0147234
0.0147238
0.014724
0.0147242
0.0147243
0.0147245
0.0147245
0.0147246
0.0147246
0.0147247
0.0147247
0.0147247
0.0147247
0.0147246
0.0147246
0.0147245
0.0147245
0.0147243
0.0147242
0.014724
0.0147238
0.0147234
0.014723
0.0147224
0.0147217
0.0147207
0.0147194
0.0147176
0.0147154
0.0147124
0.0147085
0.0147034
0.0146967
0.0146881
0.0146769
0.0146627
0.0146448
0.0146225
0.0145955
0.0145637
0.0145279
0.0240768
0.0241261
0.0241695
0.0242062
0.0242364
0.0242608
0.0242801
0.0242952
0.024307
0.0243161
0.024323
0.0243284
0.0243324
0.0243355
0.0243379
0.0243397
0.024341
0.0243421
0.0243429
0.0243435
0.0243439
0.0243443
0.0243445
0.0243447
0.0243449
0.024345
0.0243451
0.0243451
0.0243452
0.0243452
0.0243452
0.0243452
0.0243451
0.0243451
0.024345
0.0243449
0.0243447
0.0243445
0.0243443
0.0243439
0.0243435
0.0243429
0.0243421
0.024341
0.0243397
0.0243379
0.0243355
0.0243324
0.0243284
0.024323
0.0243161
0.024307
0.0242952
0.0242801
0.0242608
0.0242364
0.0242062
0.0241695
0.0241261
0.0240768
0.0356104
0.0356711
0.0357239
0.0357685
0.0358051
0.0358345
0.035858
0.0358763
0.0358906
0.0359017
0.0359101
0.0359166
0.0359216
0.0359253
0.0359282
0.0359304
0.0359321
0.0359334
0.0359343
0.0359351
0.0359356
0.0359361
0.0359364
0.0359367
0.0359369
0.035937
0.0359371
0.0359372
0.0359372
0.0359372
0.0359372
0.0359372
0.0359372
0.0359371
0.035937
0.0359369
0.0359367
0.0359364
0.0359361
0.0359356
0.0359351
0.0359343
0.0359334
0.0359321
0.0359304
0.0359282
0.0359253
0.0359216
0.0359166
0.0359101
0.0359017
0.0358906
0.0358763
0.035858
0.0358345
0.0358051
0.0357685
0.0357239
0.0356711
0.0356104
0.0482221
0.0482916
0.0483514
0.0484017
0.048443
0.0484763
0.0485028
0.0485236
0.0485398
0.0485523
0.0485619
0.0485693
0.0485749
0.0485792
0.0485825
0.048585
0.0485869
0.0485884
0.0485895
0.0485903
0.048591
0.0485915
0.0485919
0.0485922
0.0485924
0.0485926
0.0485927
0.0485928
0.0485928
0.0485928
0.0485928
0.0485928
0.0485928
0.0485927
0.0485926
0.0485924
0.0485922
0.0485919
0.0485915
0.048591
0.0485903
0.0485895
0.0485884
0.0485869
0.048585
0.0485825
0.0485792
0.0485749
0.0485693
0.0485619
0.0485523
0.0485398
0.0485236
0.0485028
0.0484763
0.048443
0.0484017
0.0483514
0.0482916
0.0482221
0.0612569
0.0613336
0.061399
0.0614539
0.061499
0.0615353
0.0615641
0.0615868
0.0616046
0.0616183
0.0616288
0.0616369
0.0616431
0.0616478
0.0616515
0.0616542
0.0616564
0.061658
0.0616592
0.0616602
0.0616609
0.0616615
0.0616619
0.0616622
0.0616625
0.0616627
0.0616628
0.0616629
0.0616629
0.061663
0.061663
0.0616629
0.0616629
0.0616628
0.0616627
0.0616625
0.0616622
0.0616619
0.0616615
0.0616609
0.0616602
0.0616592
0.061658
0.0616564
0.0616542
0.0616515
0.0616478
0.0616431
0.0616369
0.0616288
0.0616183
0.0616046
0.0615868
0.0615641
0.0615353
0.061499
0.0614539
0.061399
0.0613336
0.0612569
0.074415
0.0744982
0.0745687
0.0746277
0.0746761
0.0747152
0.0747462
0.0747707
0.0747898
0.0748046
0.0748161
0.0748248
0.0748316
0.0748367
0.0748407
0.0748437
0.074846
0.0748478
0.0748492
0.0748502
0.074851
0.0748516
0.0748521
0.0748525
0.0748527
0.074853
0.0748531
0.0748532
0.0748533
0.0748533
0.0748533
0.0748533
0.0748532
0.0748531
0.074853
0.0748527
0.0748525
0.0748521
0.0748516
0.074851
0.0748502
0.0748492
0.0748478
0.074846
0.0748437
0.0748407
0.0748367
0.0748316
0.0748248
0.0748161
0.0748046
0.0747898
0.0747707
0.0747462
0.0747152
0.0746761
0.0746277
0.0745687
0.0744982
0.074415
0.0876225
0.087712
0.0877876
0.0878506
0.0879024
0.0879442
0.0879775
0.0880037
0.0880243
0.0880402
0.0880525
0.088062
0.0880693
0.0880749
0.0880791
0.0880824
0.088085
0.0880869
0.0880884
0.0880895
0.0880904
0.0880911
0.0880916
0.088092
0.0880923
0.0880925
0.0880927
0.0880928
0.0880929
0.0880929
0.0880929
0.0880929
0.0880928
0.0880927
0.0880925
0.0880923
0.088092
0.0880916
0.0880911
0.0880904
0.0880895
0.0880884
0.0880869
0.088085
0.0880824
0.0880791
0.0880749
0.0880693
0.088062
0.0880525
0.0880402
0.0880243
0.0880037
0.0879775
0.0879442
0.0879024
0.0878506
0.0877876
0.087712
0.0876225
0.100891
0.100987
0.101068
0.101135
0.10119
0.101235
0.10127
0.101298
0.10132
0.101337
0.101351
0.101361
0.101369
0.101375
0.101379
0.101383
0.101386
0.101388
0.101389
0.101391
0.101392
0.101392
0.101393
0.101393
0.101394
0.101394
0.101394
0.101394
0.101394
0.101394
0.101394
0.101394
0.101394
0.101394
0.101394
0.101394
0.101393
0.101393
0.101392
0.101392
0.101391
0.101389
0.101388
0.101386
0.101383
0.101379
0.101375
0.101369
0.101361
0.101351
0.101337
0.10132
0.101298
0.10127
0.101235
0.10119
0.101135
0.101068
0.100987
0.100891
0.114245
0.114347
0.114433
0.114504
0.114563
0.114611
0.114649
0.114679
0.114702
0.11472
0.114735
0.114746
0.114754
0.114761
0.114766
0.114769
0.114772
0.114775
0.114776
0.114778
0.114779
0.11478
0.11478
0.114781
0.114781
0.114781
0.114782
0.114782
0.114782
0.114782
0.114782
0.114782
0.114782
0.114782
0.114781
0.114781
0.114781
0.11478
0.11478
0.114779
0.114778
0.114776