/*--------------------------------*- C++ -*----------------------------------*\
| =========                 |                                                 |
| \\      /  F ield         | foam-extend: Open Source CFD                    |
|  \\    /   O peration     | Version:     4.0                                |
|   \\  /    A nd           | Web:         http://www.foam-extend.org         |
|    \\/     M anipulation  |                                                 |
\*---------------------------------------------------------------------------*/
FoamFile
{
    version     2.0;
    format      ascii;
    class       volScalarField;
    location    "1060";
    object      cPlus;
}
// * * * * * * * * * * * * * * * * * * * * * * * * * * * * * * * * * * * * * //

dimensions      [0 0 0 0 0 0 0];

internalField   nonuniform List<scalar> 
6960
(
0.283074
0.283045
0.283013
0.282985
0.282961
0.282942
0.282927
0.282915
0.282905
0.282898
0.282892
0.282888
0.282885
0.282882
0.28288
0.282879
0.282877
0.282877
0.282876
0.282875
0.282875
0.282875
0.282874
0.282874
0.282874
0.282874
0.282874
0.282874
0.282874
0.282874
0.282874
0.282874
0.282874
0.282874
0.282874
0.282874
0.282874
0.282874
0.282875
0.282875
0.282875
0.282876
0.282877
0.282877
0.282879
0.28288
0.282882
0.282885
0.282888
0.282892
0.282898
0.282905
0.282915
0.282927
0.282942
0.282961
0.282985
0.283013
0.283045
0.283074
0.0800363
0.0800201
0.0800024
0.0799865
0.0799733
0.0799626
0.079954
0.0799473
0.079942
0.0799379
0.0799347
0.0799323
0.0799304
0.079929
0.0799279
0.079927
0.0799264
0.0799259
0.0799255
0.0799252
0.0799249
0.0799247
0.0799246
0.0799245
0.0799244
0.0799243
0.0799243
0.0799243
0.0799242
0.0799242
0.0799242
0.0799242
0.0799243
0.0799243
0.0799243
0.0799244
0.0799245
0.0799246
0.0799247
0.0799249
0.0799252
0.0799255
0.0799259
0.0799264
0.079927
0.0799279
0.079929
0.0799304
0.0799323
0.0799347
0.0799379
0.079942
0.0799473
0.079954
0.0799626
0.0799733
0.0799865
0.0800024
0.0800201
0.0800363
0.0289907
0.0289849
0.028978
0.0289719
0.0289667
0.0289624
0.0289591
0.0289564
0.0289543
0.0289527
0.0289514
0.0289504
0.0289497
0.0289491
0.0289487
0.0289483
0.0289481
0.0289479
0.0289477
0.0289476
0.0289475
0.0289474
0.0289473
0.0289473
0.0289473
0.0289472
0.0289472
0.0289472
0.0289472
0.0289472
0.0289472
0.0289472
0.0289472
0.0289472
0.0289472
0.0289473
0.0289473
0.0289473
0.0289474
0.0289475
0.0289476
0.0289477
0.0289479
0.0289481
0.0289483
0.0289487
0.0289491
0.0289497
0.0289504
0.0289514
0.0289527
0.0289543
0.0289564
0.0289591
0.0289624
0.0289667
0.0289719
0.028978
0.0289849
0.0289907
0.0146332
0.0146328
0.0146317
0.0146305
0.0146296
0.0146287
0.0146281
0.0146275
0.0146271
0.0146268
0.0146265
0.0146263
0.0146262
0.014626
0.0146259
0.0146259
0.0146258
0.0146258
0.0146257
0.0146257
0.0146257
0.0146257
0.0146256
0.0146256
0.0146256
0.0146256
0.0146256
0.0146256
0.0146256
0.0146256
0.0146256
0.0146256
0.0146256
0.0146256
0.0146256
0.0146256
0.0146256
0.0146256
0.0146257
0.0146257
0.0146257
0.0146257
0.0146258
0.0146258
0.0146259
0.0146259
0.014626
0.0146262
0.0146263
0.0146265
0.0146268
0.0146271
0.0146275
0.0146281
0.0146287
0.0146296
0.0146305
0.0146317
0.0146328
0.0146332
0.0105921
0.0105941
0.0105954
0.0105965
0.0105974
0.010598
0.0105986
0.010599
0.0105993
0.0105995
0.0105997
0.0105998
0.0105999
0.0106
0.0106
0.0106001
0.0106001
0.0106001
0.0106002
0.0106002
0.0106002
0.0106002
0.0106002
0.0106002
0.0106002
0.0106002
0.0106002
0.0106002
0.0106002
0.0106002
0.0106002
0.0106002
0.0106002
0.0106002
0.0106002
0.0106002
0.0106002
0.0106002
0.0106002
0.0106002
0.0106002
0.0106002
0.0106001
0.0106001
0.0106001
0.0106
0.0106
0.0105999
0.0105998
0.0105997
0.0105995
0.0105993
0.010599
0.0105986
0.010598
0.0105974
0.0105965
0.0105954
0.0105941
0.0105921
0.00952517
0.00952809
0.00953046
0.0095324
0.00953398
0.00953524
0.00953623
0.009537
0.00953759
0.00953805
0.0095384
0.00953866
0.00953886
0.00953901
0.00953913
0.00953922
0.00953928
0.00953933
0.00953937
0.0095394
0.00953942
0.00953944
0.00953945
0.00953946
0.00953947
0.00953947
0.00953948
0.00953948
0.00953948
0.00953948
0.00953948
0.00953948
0.00953948
0.00953948
0.00953947
0.00953947
0.00953946
0.00953945
0.00953944
0.00953942
0.0095394
0.00953937
0.00953933
0.00953928
0.00953922
0.00953913
0.00953901
0.00953886
0.00953866
0.0095384
0.00953805
0.00953759
0.009537
0.00953623
0.00953524
0.00953398
0.0095324
0.00953046
0.00952809
0.00952517
0.00930589
0.00930919
0.00931193
0.0093142
0.00931605
0.00931753
0.0093187
0.00931961
0.00932032
0.00932086
0.00932127
0.00932159
0.00932182
0.00932201
0.00932214
0.00932225
0.00932233
0.00932239
0.00932243
0.00932247
0.0093225
0.00932252
0.00932253
0.00932255
0.00932256
0.00932256
0.00932257
0.00932257
0.00932257
0.00932257
0.00932257
0.00932257
0.00932257
0.00932257
0.00932256
0.00932256
0.00932255
0.00932253
0.00932252
0.0093225
0.00932247
0.00932243
0.00932239
0.00932233
0.00932225
0.00932214
0.00932201
0.00932182
0.00932159
0.00932127
0.00932086
0.00932032
0.00931961
0.0093187
0.00931753
0.00931605
0.0093142
0.00931193
0.00930919
0.00930589
0.00932531
0.00932877
0.00933166
0.00933408
0.00933604
0.00933762
0.00933886
0.00933983
0.00934058
0.00934115
0.00934159
0.00934193
0.00934218
0.00934238
0.00934252
0.00934264
0.00934272
0.00934279
0.00934284
0.00934287
0.0093429
0.00934293
0.00934294
0.00934296
0.00934297
0.00934297
0.00934298
0.00934298
0.00934298
0.00934299
0.00934299
0.00934298
0.00934298
0.00934298
0.00934297
0.00934297
0.00934296
0.00934294
0.00934293
0.0093429
0.00934287
0.00934284
0.00934279
0.00934272
0.00934264
0.00934252
0.00934238
0.00934218
0.00934193
0.00934159
0.00934115
0.00934058
0.00933983
0.00933886
0.00933762
0.00933604
0.00933408
0.00933166
0.00932877
0.00932531
0.00941401
0.00941757
0.00942055
0.00942304
0.00942507
0.00942669
0.00942798
0.00942898
0.00942975
0.00943035
0.0094308
0.00943115
0.00943141
0.00943161
0.00943177
0.00943188
0.00943197
0.00943204
0.00943209
0.00943213
0.00943216
0.00943218
0.0094322
0.00943221
0.00943222
0.00943223
0.00943224
0.00943224
0.00943224
0.00943225
0.00943225
0.00943224
0.00943224
0.00943224
0.00943223
0.00943222
0.00943221
0.0094322
0.00943218
0.00943216
0.00943213
0.00943209
0.00943204
0.00943197
0.00943188
0.00943177
0.00943161
0.00943141
0.00943115
0.0094308
0.00943035
0.00942975
0.00942898
0.00942798
0.00942669
0.00942507
0.00942304
0.00942055
0.00941757
0.00941401
0.00952674
0.00953039
0.00953345
0.00953599
0.00953807
0.00953974
0.00954105
0.00954208
0.00954287
0.00954348
0.00954395
0.00954431
0.00954458
0.00954478
0.00954494
0.00954506
0.00954515
0.00954522
0.00954527
0.00954531
0.00954534
0.00954537
0.00954538
0.0095454
0.00954541
0.00954542
0.00954542
0.00954543
0.00954543
0.00954543
0.00954543
0.00954543
0.00954543
0.00954542
0.00954542
0.00954541
0.0095454
0.00954538
0.00954537
0.00954534
0.00954531
0.00954527
0.00954522
0.00954515
0.00954506
0.00954494
0.00954478
0.00954458
0.00954431
0.00954395
0.00954348
0.00954287
0.00954208
0.00954105
0.00953974
0.00953807
0.00953599
0.00953345
0.00953039
0.00952674
0.00965232
0.00965605
0.00965918
0.00966178
0.00966391
0.00966561
0.00966696
0.00966801
0.00966882
0.00966945
0.00966992
0.00967029
0.00967057
0.00967078
0.00967094
0.00967106
0.00967115
0.00967123
0.00967128
0.00967132
0.00967135
0.00967138
0.0096714
0.00967141
0.00967142
0.00967143
0.00967144
0.00967144
0.00967144
0.00967144
0.00967144
0.00967144
0.00967144
0.00967144
0.00967143
0.00967142
0.00967141
0.0096714
0.00967138
0.00967135
0.00967132
0.00967128
0.00967123
0.00967115
0.00967106
0.00967094
0.00967078
0.00967057
0.00967029
0.00966992
0.00966945
0.00966882
0.00966801
0.00966696
0.00966561
0.00966391
0.00966178
0.00965918
0.00965605
0.00965232
0.00978862
0.00979245
0.00979565
0.00979832
0.00980049
0.00980224
0.00980362
0.00980469
0.00980553
0.00980617
0.00980666
0.00980703
0.00980732
0.00980753
0.0098077
0.00980782
0.00980792
0.00980799
0.00980805
0.00980809
0.00980812
0.00980815
0.00980817
0.00980818
0.00980819
0.0098082
0.00980821
0.00980821
0.00980822
0.00980822
0.00980822
0.00980822
0.00980821
0.00980821
0.0098082
0.00980819
0.00980818
0.00980817
0.00980815
0.00980812
0.00980809
0.00980805
0.00980799
0.00980792
0.00980782
0.0098077
0.00980753
0.00980732
0.00980703
0.00980666
0.00980617
0.00980553
0.00980469
0.00980362
0.00980224
0.00980049
0.00979832
0.00979565
0.00979245
0.00978862
0.009936
0.00993993
0.00994321
0.00994594
0.00994818
0.00994997
0.00995138
0.00995248
0.00995334
0.009954
0.0099545
0.00995489
0.00995518
0.0099554
0.00995557
0.0099557
0.0099558
0.00995587
0.00995593
0.00995597
0.00995601
0.00995603
0.00995605
0.00995607
0.00995608
0.00995609
0.00995609
0.0099561
0.0099561
0.0099561
0.0099561
0.0099561
0.0099561
0.00995609
0.00995609
0.00995608
0.00995607
0.00995605
0.00995603
0.00995601
0.00995597
0.00995593
0.00995587
0.0099558
0.0099557
0.00995557
0.0099554
0.00995518
0.00995489
0.0099545
0.009954
0.00995334
0.00995248
0.00995138
0.00994997
0.00994818
0.00994594
0.00994321
0.00993993
0.009936
0.0100955
0.0100996
0.0101029
0.0101057
0.010108
0.0101099
0.0101113
0.0101125
0.0101133
0.010114
0.0101145
0.0101149
0.0101152
0.0101155
0.0101156
0.0101158
0.0101159
0.0101159
0.010116
0.0101161
0.0101161
0.0101161
0.0101161
0.0101162
0.0101162
0.0101162
0.0101162
0.0101162
0.0101162
0.0101162
0.0101162
0.0101162
0.0101162
0.0101162
0.0101162
0.0101162
0.0101162
0.0101161
0.0101161
0.0101161
0.0101161
0.010116
0.0101159
0.0101159
0.0101158
0.0101156
0.0101155
0.0101152
0.0101149
0.0101145
0.010114
0.0101133
0.0101125
0.0101113
0.0101099
0.010108
0.0101057
0.0101029
0.0100996
0.0100955
0.0102686
0.0102728
0.0102763
0.0102792
0.0102815
0.0102834
0.0102849
0.0102861
0.010287
0.0102877
0.0102882
0.0102886
0.0102889
0.0102892
0.0102893
0.0102895
0.0102896
0.0102897
0.0102897
0.0102898
0.0102898
0.0102898
0.0102899
0.0102899
0.0102899
0.0102899
0.0102899
0.0102899
0.0102899
0.0102899
0.0102899
0.0102899
0.0102899
0.0102899
0.0102899
0.0102899
0.0102899
0.0102899
0.0102898
0.0102898
0.0102898
0.0102897
0.0102897
0.0102896
0.0102895
0.0102893
0.0102892
0.0102889
0.0102886
0.0102882
0.0102877
0.010287
0.0102861
0.0102849
0.0102834
0.0102815
0.0102792
0.0102763
0.0102728
0.0102686
0.010457
0.0104613
0.0104649
0.0104679
0.0104703
0.0104723
0.0104738
0.010475
0.010476
0.0104767
0.0104772
0.0104776
0.010478
0.0104782
0.0104784
0.0104785
0.0104786
0.0104787
0.0104788
0.0104788
0.0104789
0.0104789
0.0104789
0.0104789
0.010479
0.010479
0.010479
0.010479
0.010479
0.010479
0.010479
0.010479
0.010479
0.010479
0.010479
0.010479
0.0104789
0.0104789
0.0104789
0.0104789
0.0104788
0.0104788
0.0104787
0.0104786
0.0104785
0.0104784
0.0104782
0.010478
0.0104776
0.0104772
0.0104767
0.010476
0.010475
0.0104738
0.0104723
0.0104703
0.0104679
0.0104649
0.0104613
0.010457
0.0106628
0.0106672
0.0106709
0.010674
0.0106765
0.0106785
0.0106801
0.0106814
0.0106823
0.0106831
0.0106836
0.0106841
0.0106844
0.0106847
0.0106849
0.010685
0.0106851
0.0106852
0.0106853
0.0106853
0.0106853
0.0106854
0.0106854
0.0106854
0.0106854
0.0106854
0.0106854
0.0106855
0.0106855
0.0106855
0.0106855
0.0106855
0.0106855
0.0106854
0.0106854
0.0106854
0.0106854
0.0106854
0.0106854
0.0106853
0.0106853
0.0106853
0.0106852
0.0106851
0.010685
0.0106849
0.0106847
0.0106844
0.0106841
0.0106836
0.0106831
0.0106823
0.0106814
0.0106801
0.0106785
0.0106765
0.010674
0.0106709
0.0106672
0.0106628
0.0108882
0.0108929
0.0108967
0.0108999
0.0109025
0.0109046
0.0109062
0.0109075
0.0109085
0.0109093
0.0109099
0.0109104
0.0109107
0.010911
0.0109112
0.0109113
0.0109114
0.0109115
0.0109116
0.0109116
0.0109117
0.0109117
0.0109117
0.0109118
0.0109118
0.0109118
0.0109118
0.0109118
0.0109118
0.0109118
0.0109118
0.0109118
0.0109118
0.0109118
0.0109118
0.0109118
0.0109118
0.0109117
0.0109117
0.0109117
0.0109116
0.0109116
0.0109115
0.0109114
0.0109113
0.0109112
0.010911
0.0109107
0.0109104
0.0109099
0.0109093
0.0109085
0.0109075
0.0109062
0.0109046
0.0109025
0.0108999
0.0108967
0.0108929
0.0108882
0.0111364
0.0111412
0.0111452
0.0111485
0.0111513
0.0111534
0.0111552
0.0111565
0.0111575
0.0111584
0.011159
0.0111594
0.0111598
0.0111601
0.0111603
0.0111604
0.0111606
0.0111607
0.0111607
0.0111608
0.0111608
0.0111608
0.0111609
0.0111609
0.0111609
0.0111609
0.0111609
0.0111609
0.0111609
0.0111609
0.0111609
0.0111609
0.0111609
0.0111609
0.0111609
0.0111609
0.0111609
0.0111609
0.0111608
0.0111608
0.0111608
0.0111607
0.0111607
0.0111606
0.0111604
0.0111603
0.0111601
0.0111598
0.0111594
0.011159
0.0111584
0.0111575
0.0111565
0.0111552
0.0111534
0.0111513
0.0111485
0.0111452
0.0111412
0.0111364
0.0114109
0.0114159
0.0114201
0.0114235
0.0114264
0.0114286
0.0114304
0.0114318
0.0114329
0.0114338
0.0114344
0.0114349
0.0114353
0.0114356
0.0114358
0.011436
0.0114361
0.0114362
0.0114363
0.0114363
0.0114364
0.0114364
0.0114364
0.0114364
0.0114364
0.0114365
0.0114365
0.0114365
0.0114365
0.0114365
0.0114365
0.0114365
0.0114365
0.0114365
0.0114365
0.0114364
0.0114364
0.0114364
0.0114364
0.0114364
0.0114363
0.0114363
0.0114362
0.0114361
0.011436
0.0114358
0.0114356
0.0114353
0.0114349
0.0114344
0.0114338
0.0114329
0.0114318
0.0114304
0.0114286
0.0114264
0.0114235
0.0114201
0.0114159
0.0114109
0.011716
0.0117213
0.0117256
0.0117293
0.0117322
0.0117346
0.0117365
0.011738
0.0117391
0.01174
0.0117407
0.0117412
0.0117416
0.0117419
0.0117421
0.0117423
0.0117424
0.0117425
0.0117426
0.0117427
0.0117427
0.0117427
0.0117428
0.0117428
0.0117428
0.0117428
0.0117428
0.0117428
0.0117428
0.0117428
0.0117428
0.0117428
0.0117428
0.0117428
0.0117428
0.0117428
0.0117428
0.0117428
0.0117427
0.0117427
0.0117427
0.0117426
0.0117425
0.0117424
0.0117423
0.0117421
0.0117419
0.0117416
0.0117412
0.0117407
0.01174
0.0117391
0.011738
0.0117365
0.0117346
0.0117322
0.0117293
0.0117256
0.0117213
0.011716
0.0120573
0.0120628
0.0120674
0.0120712
0.0120743
0.0120769
0.0120788
0.0120804
0.0120816
0.0120825
0.0120832
0.0120838
0.0120842
0.0120845
0.0120848
0.0120849
0.0120851
0.0120852
0.0120853
0.0120853
0.0120854
0.0120854
0.0120854
0.0120855
0.0120855
0.0120855
0.0120855
0.0120855
0.0120855
0.0120855
0.0120855
0.0120855
0.0120855
0.0120855
0.0120855
0.0120855
0.0120855
0.0120854
0.0120854
0.0120854
0.0120853
0.0120853
0.0120852
0.0120851
0.0120849
0.0120848
0.0120845
0.0120842
0.0120838
0.0120832
0.0120825
0.0120816
0.0120804
0.0120788
0.0120769
0.0120743
0.0120712
0.0120674
0.0120628
0.0120573
0.0124415
0.0124474
0.0124523
0.0124563
0.0124596
0.0124623
0.0124644
0.012466
0.0124673
0.0124683
0.0124691
0.0124696
0.0124701
0.0124704
0.0124707
0.0124709
0.012471
0.0124711
0.0124712
0.0124713
0.0124713
0.0124714
0.0124714
0.0124714
0.0124714
0.0124714
0.0124715
0.0124715
0.0124715
0.0124715
0.0124715
0.0124715
0.0124715
0.0124715
0.0124714
0.0124714
0.0124714
0.0124714
0.0124714
0.0124713
0.0124713
0.0124712
0.0124711
0.012471
0.0124709
0.0124707
0.0124704
0.0124701
0.0124696
0.0124691
0.0124683
0.0124673
0.012466
0.0124644
0.0124623
0.0124596
0.0124563
0.0124523
0.0124474
0.0124415
0.0128777
0.0128839
0.0128891
0.0128934
0.012897
0.0128998
0.012902
0.0129038
0.0129052
0.0129062
0.012907
0.0129076
0.0129081
0.0129084
0.0129087
0.0129089
0.0129091
0.0129092
0.0129093
0.0129094
0.0129094
0.0129095
0.0129095
0.0129095
0.0129095
0.0129096
0.0129096
0.0129096
0.0129096
0.0129096
0.0129096
0.0129096
0.0129096
0.0129096
0.0129096
0.0129095
0.0129095
0.0129095
0.0129095
0.0129094
0.0129094
0.0129093
0.0129092
0.0129091
0.0129089
0.0129087
0.0129084
0.0129081
0.0129076
0.012907
0.0129062
0.0129052
0.0129038
0.012902
0.0128998
0.012897
0.0128934
0.0128891
0.0128839
0.0128777
0.0133772
0.0133839
0.0133895
0.0133941
0.0133979
0.013401
0.0134034
0.0134052
0.0134067
0.0134078
0.0134087
0.0134094
0.0134099
0.0134103
0.0134105
0.0134108
0.0134109
0.0134111
0.0134112
0.0134112
0.0134113
0.0134113
0.0134114
0.0134114
0.0134114
0.0134114
0.0134115
0.0134115
0.0134115
0.0134115
0.0134115
0.0134115
0.0134115
0.0134115
0.0134114
0.0134114
0.0134114
0.0134114
0.0134113
0.0134113
0.0134112
0.0134112
0.0134111
0.0134109
0.0134108
0.0134105
0.0134103
0.0134099
0.0134094
0.0134087
0.0134078
0.0134067
0.0134052
0.0134034
0.013401
0.0133979
0.0133941
0.0133895
0.0133839
0.0133772
0.0139554
0.0139627
0.0139688
0.0139738
0.0139779
0.0139812
0.0139838
0.0139858
0.0139874
0.0139886
0.0139896
0.0139903
0.0139909
0.0139913
0.0139916
0.0139918
0.013992
0.0139922
0.0139923
0.0139923
0.0139924
0.0139925
0.0139925
0.0139925
0.0139925
0.0139926
0.0139926
0.0139926
0.0139926
0.0139926
0.0139926
0.0139926
0.0139926
0.0139926
0.0139926
0.0139925
0.0139925
0.0139925
0.0139925
0.0139924
0.0139923
0.0139923
0.0139922
0.013992
0.0139918
0.0139916
0.0139913
0.0139909
0.0139903
0.0139896
0.0139886
0.0139874
0.0139858
0.0139838
0.0139812
0.0139779
0.0139738
0.0139688
0.0139627
0.0139554
0.0146333
0.0146412
0.0146478
0.0146533
0.0146578
0.0146615
0.0146643
0.0146666
0.0146683
0.0146697
0.0146707
0.0146715
0.0146721
0.0146725
0.0146729
0.0146731
0.0146733
0.0146735
0.0146736
0.0146737
0.0146738
0.0146738
0.0146739
0.0146739
0.0146739
0.0146739
0.014674
0.014674
0.014674
0.014674
0.014674
0.014674
0.014674
0.014674
0.0146739
0.0146739
0.0146739
0.0146739
0.0146738
0.0146738
0.0146737
0.0146736
0.0146735
0.0146733
0.0146731
0.0146729
0.0146725
0.0146721
0.0146715
0.0146707
0.0146697
0.0146683
0.0146666
0.0146643
0.0146615
0.0146578
0.0146533
0.0146478
0.0146412
0.0146333
0.0154398
0.0154486
0.015456
0.0154621
0.0154671
0.0154711
0.0154743
0.0154768
0.0154787
0.0154802
0.0154813
0.0154822
0.0154829
0.0154834
0.0154838
0.0154841
0.0154843
0.0154845
0.0154846
0.0154847
0.0154848
0.0154848
0.0154849
0.0154849
0.0154849
0.015485
0.015485
0.015485
0.015485
0.015485
0.015485
0.015485
0.015485
0.015485
0.015485
0.0154849
0.0154849
0.0154849
0.0154848
0.0154848
0.0154847
0.0154846
0.0154845
0.0154843
0.0154841
0.0154838
0.0154834
0.0154829
0.0154822
0.0154813
0.0154802
0.0154787
0.0154768
0.0154743
0.0154711
0.0154671
0.0154621
0.015456
0.0154486
0.0154398
0.0164168
0.0164267
0.016435
0.0164419
0.0164476
0.0164521
0.0164557
0.0164586
0.0164607
0.0164624
0.0164637
0.0164647
0.0164655
0.0164661
0.0164665
0.0164668
0.0164671
0.0164673
0.0164674
0.0164675
0.0164676
0.0164677
0.0164677
0.0164678
0.0164678
0.0164678
0.0164679
0.0164679
0.0164679
0.0164679
0.0164679
0.0164679
0.0164679
0.0164679
0.0164678
0.0164678
0.0164678
0.0164677
0.0164677
0.0164676
0.0164675
0.0164674
0.0164673
0.0164671
0.0164668
0.0164665
0.0164661
0.0164655
0.0164647
0.0164637
0.0164624
0.0164607
0.0164586
0.0164557
0.0164521
0.0164476
0.0164419
0.016435
0.0164267
0.0164168
0.0176258
0.0176373
0.0176469
0.0176548
0.0176614
0.0176666
0.0176708
0.017674
0.0176766
0.0176785
0.01768
0.0176812
0.017682
0.0176827
0.0176832
0.0176836
0.0176839
0.0176841
0.0176843
0.0176844
0.0176845
0.0176846
0.0176847
0.0176847
0.0176847
0.0176848
0.0176848
0.0176848
0.0176848
0.0176848
0.0176848
0.0176848
0.0176848
0.0176848
0.0176848
0.0176847
0.0176847
0.0176847
0.0176846
0.0176845
0.0176844
0.0176843
0.0176841
0.0176839
0.0176836
0.0176832
0.0176827
0.017682
0.0176812
0.01768
0.0176785
0.0176766
0.017674
0.0176708
0.0176666
0.0176614
0.0176548
0.0176469
0.0176373
0.0176258
0.0191593
0.0191728
0.0191841
0.0191936
0.0192013
0.0192076
0.0192125
0.0192164
0.0192194
0.0192217
0.0192235
0.0192248
0.0192259
0.0192266
0.0192272
0.0192277
0.0192281
0.0192283
0.0192285
0.0192287
0.0192288
0.0192289
0.019229
0.019229
0.0192291
0.0192291
0.0192291
0.0192291
0.0192291
0.0192291
0.0192291
0.0192291
0.0192291
0.0192291
0.0192291
0.0192291
0.019229
0.019229
0.0192289
0.0192288
0.0192287
0.0192285
0.0192283
0.0192281
0.0192277
0.0192272
0.0192266
0.0192259
0.0192248
0.0192235
0.0192217
0.0192194
0.0192164
0.0192125
0.0192076
0.0192013
0.0191936
0.0191841
0.0191728
0.0191593
0.0211556
0.0211719
0.0211857
0.0211972
0.0212067
0.0212143
0.0212203
0.021225
0.0212287
0.0212315
0.0212337
0.0212353
0.0212366
0.0212376
0.0212383
0.0212389
0.0212393
0.0212396
0.0212399
0.0212401
0.0212402
0.0212403
0.0212404
0.0212405
0.0212405
0.0212405
0.0212406
0.0212406
0.0212406
0.0212406
0.0212406
0.0212406
0.0212406
0.0212406
0.0212405
0.0212405
0.0212405
0.0212404
0.0212403
0.0212402
0.0212401
0.0212399
0.0212396
0.0212393
0.0212389
0.0212383
0.0212376
0.0212366
0.0212353
0.0212337
0.0212315
0.0212287
0.021225
0.0212203
0.0212143
0.0212067
0.0211972
0.0211857
0.0211719
0.0211556
0.0238139
0.0238343
0.0238516
0.023866
0.0238779
0.0238874
0.023895
0.0239009
0.0239055
0.0239091
0.0239118
0.0239139
0.0239155
0.0239167
0.0239176
0.0239183
0.0239188
0.0239193
0.0239196
0.0239198
0.02392
0.0239201
0.0239202
0.0239203
0.0239204
0.0239204
0.0239205
0.0239205
0.0239205
0.0239205
0.0239205
0.0239205
0.0239205
0.0239205
0.0239204
0.0239204
0.0239203
0.0239202
0.0239201
0.02392
0.0239198
0.0239196
0.0239193
0.0239188
0.0239183
0.0239176
0.0239167
0.0239155
0.0239139
0.0239118
0.0239091
0.0239055
0.0239009
0.023895
0.0238874
0.0238779
0.023866
0.0238516
0.0238343
0.0238139
0.0273976
0.0274236
0.0274456
0.0274641
0.0274793
0.0274915
0.0275012
0.0275088
0.0275147
0.0275192
0.0275227
0.0275254
0.0275274
0.027529
0.0275302
0.0275311
0.0275318
0.0275323
0.0275327
0.027533
0.0275332
0.0275334
0.0275336
0.0275337
0.0275337
0.0275338
0.0275338
0.0275339
0.0275339
0.0275339
0.0275339
0.0275339
0.0275339
0.0275338
0.0275338
0.0275337
0.0275337
0.0275336
0.0275334
0.0275332
0.027533
0.0275327
0.0275323
0.0275318
0.0275311
0.0275302
0.027529
0.0275274
0.0275254
0.0275227
0.0275192
0.0275147
0.0275088
0.0275012
0.0274915
0.0274793
0.0274641
0.0274456
0.0274236
0.0273976
0.0322026
0.0322359
0.0322642
0.032288
0.0323075
0.0323231
0.0323356
0.0323454
0.032353
0.0323588
0.0323633
0.0323668
0.0323694
0.0323714
0.0323729
0.0323741
0.032375
0.0323757
0.0323762
0.0323766
0.0323769
0.0323771
0.0323773
0.0323774
0.0323775
0.0323776
0.0323777
0.0323777
0.0323777
0.0323777
0.0323777
0.0323777
0.0323777
0.0323777
0.0323776
0.0323775
0.0323774
0.0323773
0.0323771
0.0323769
0.0323766
0.0323762
0.0323757
0.032375
0.0323741
0.0323729
0.0323714
0.0323694
0.0323668
0.0323633
0.0323588
0.032353
0.0323454
0.0323356
0.0323231
0.0323075
0.032288
0.0322642
0.0322359
0.0322026
0.0384806
0.0385228
0.0385586
0.0385887
0.0386134
0.0386332
0.038649
0.0386614
0.038671
0.0386785
0.0386842
0.0386886
0.0386919
0.0386945
0.0386964
0.0386979
0.038699
0.0386999
0.0387006
0.0387011
0.0387015
0.0387017
0.038702
0.0387021
0.0387023
0.0387024
0.0387024
0.0387025
0.0387025
0.0387025
0.0387025
0.0387025
0.0387025
0.0387024
0.0387024
0.0387023
0.0387021
0.038702
0.0387017
0.0387015
0.0387011
0.0387006
0.0386999
0.038699
0.0386979
0.0386964
0.0386945
0.0386919
0.0386886
0.0386842
0.0386785
0.038671
0.0386614
0.038649
0.0386332
0.0386134
0.0385887
0.0385586
0.0385228
0.0384806
0.0463406
0.0463925
0.0464366
0.0464735
0.0465039
0.0465283
0.0465477
0.0465629
0.0465748
0.046584
0.046591
0.0465964
0.0466006
0.0466037
0.0466061
0.046608
0.0466094
0.0466104
0.0466113
0.0466119
0.0466124
0.0466127
0.046613
0.0466132
0.0466134
0.0466135
0.0466136
0.0466137
0.0466137
0.0466137
0.0466137
0.0466137
0.0466137
0.0466136
0.0466135
0.0466134
0.0466132
0.046613
0.0466127
0.0466124
0.0466119
0.0466113
0.0466104
0.0466094
0.046608
0.0466061
0.0466037
0.0466006
0.0465964
0.046591
0.046584
0.0465748
0.0465629
0.0465477
0.0465283
0.0465039
0.0464735
0.0464366
0.0463925
0.0463406
0.0556933
0.0557551
0.0558074
0.0558512
0.0558872
0.0559161
0.0559392
0.0559573
0.0559714
0.0559823
0.0559907
0.0559971
0.056002
0.0560058
0.0560087
0.0560109
0.0560126
0.0560138
0.0560148
0.0560156
0.0560162
0.0560166
0.0560169
0.0560172
0.0560174
0.0560176
0.0560177
0.0560177
0.0560178
0.0560178
0.0560178
0.0560178
0.0560177
0.0560177
0.0560176
0.0560174
0.0560172
0.0560169
0.0560166
0.0560162
0.0560156
0.0560148
0.0560138
0.0560126
0.0560109
0.0560087
0.0560058
0.056002
0.0559971
0.0559907
0.0559823
0.0559714
0.0559573
0.0559392
0.0559161
0.0558872
0.0558512
0.0558074
0.0557551
0.0556933
0.0662872
0.0663583
0.0664183
0.0664685
0.0665097
0.0665429
0.0665693
0.0665901
0.0666063
0.0666189
0.0666285
0.066636
0.0666416
0.066646
0.0666493
0.0666519
0.0666538
0.0666553
0.0666565
0.0666573
0.066658
0.0666585
0.0666589
0.0666592
0.0666595
0.0666596
0.0666598
0.0666599
0.0666599
0.0666599
0.0666599
0.0666599
0.0666599
0.0666598
0.0666596
0.0666595
0.0666592
0.0666589
0.0666585
0.066658
0.0666573
0.0666565
0.0666553
0.0666538
0.0666519
0.0666493
0.066646
0.0666416
0.066636
0.0666285
0.0666189
0.0666063
0.0665901
0.0665693
0.0665429
0.0665097
0.0664685
0.0664183
0.0663583
0.0662872
0.0778092
0.0778888
0.0779558
0.0780118
0.0780577
0.0780947
0.0781242
0.0781474
0.0781656
0.0781796
0.0781905
0.0781988
0.0782052
0.0782101
0.0782139
0.0782168
0.078219
0.0782207
0.078222
0.078223
0.0782237
0.0782243
0.0782248
0.0782251
0.0782254
0.0782256
0.0782257
0.0782258
0.0782259
0.0782259
0.0782259
0.0782259
0.0782258
0.0782257
0.0782256
0.0782254
0.0782251
0.0782248
0.0782243
0.0782237
0.078223
0.078222
0.0782207
0.078219
0.0782168
0.0782139
0.0782101
0.0782052
0.0781988
0.0781905
0.0781796
0.0781656
0.0781474
0.0781242
0.0780947
0.0780577
0.0780118
0.0779558
0.0778888
0.0778092
0.0899794
0.0900667
0.0901401
0.0902013
0.0902515
0.0902921
0.0903244
0.0903499
0.0903698
0.0903853
0.0903972
0.0904064
0.0904135
0.0904189
0.0904231
0.0904263
0.0904288
0.0904307
0.0904321
0.0904332
0.0904341
0.0904347
0.0904353
0.0904356
0.0904359
0.0904362
0.0904363
0.0904364
0.0904365
0.0904365
0.0904365
0.0904365
0.0904364
0.0904363
0.0904362
0.0904359
0.0904356
0.0904353
0.0904347
0.0904341
0.0904332
0.0904321
0.0904307
0.0904288
0.0904263
0.0904231
0.0904189
0.0904135
0.0904064
0.0903972
0.0903853
0.0903698
0.0903499
0.0903244
0.0902921
0.0902515
0.0902013
0.0901401
0.0900667
0.0899794
0.102594
0.102689
0.102768
0.102834
0.102889
0.102932
0.102967
0.102995
0.103017
0.103034
0.103047
0.103057
0.103064
0.10307
0.103075
0.103078
0.103081
0.103083
0.103085
0.103086
0.103087
0.103088
0.103088
0.103089
0.103089
0.103089
0.103089
0.10309
0.10309
0.10309
0.10309
0.10309
0.10309
0.103089
0.103089
0.103089
0.103089
0.103088
0.103088
0.103087
0.103086
0.103085
0.103083
0.103081
0.103078
0.103075
0.10307
0.103064
0.103057
0.103047
0.103034
0.103017
0.102995
0.102967
0.102932
0.102889
0.102834
0.102768
0.102689
0.102594
0.115525
0.115626
0.115711
0.115782
0.11584
0.115887
0.115924
0.115954
0.115977
0.115995
0.11601
0.11602
0.116029
0.116035
0.11604
0.116044
0.116047
0.116049
0.116051
0.116052
0.116053
0.116054
0.116055
0.116055
0.116056
0.116056
0.116056
0.116056
0.116056
0.116056
0.116056
0.116056
0.116056
0.116056
0.116056
0.116056
0.116055
0.116055
0.116054
0.116053
0.116052
0.116051
0.116049
0.116047
0.116044
0.11604
0.116035
0.116029
0.11602
0.11601
0.115995
0.115977
0.115954
0.115924
0.115887
0.11584
0.115782
0.115711
0.115626
0.115525
0.128692
0.1288
0.12889
0.128965
0.129027
0.129077
0.129117
0.129149
0.129174
0.129193
0.129209
0.12922
0.129229
0.129236
0.129242
0.129246
0.129249
0.129251
0.129253
0.129255
0.129256
0.129257
0.129258
0.129258
0.129258
0.129259
0.129259
0.129259
0.129259
0.129259
0.129259
0.129259
0.129259
0.129259
0.129259
0.129258
0.129258
0.129258
0.129257
0.129256
0.129255
0.129253
0.129251
0.129249
0.129246
0.129242
0.129236
0.129229
0.12922
0.129209
0.129193
0.129174
0.129149
0.129117
0.129077
0.129027
0.128965
0.12889
0.1288
0.128692
0.142048
0.142162
0.142258
0.142337
0.142403
0.142456
0.142499
0.142532
0.142559
0.14258
0.142596
0.142609
0.142618
0.142626
0.142632
0.142636
0.14264
0.142642
0.142644
0.142646
0.142647
0.142648
0.142649
0.14265
0.14265
0.14265
0.142651
0.142651
0.142651
0.142651
0.142651
0.142651
0.142651
0.142651
0.14265
0.14265
0.14265
0.142649
0.142648
0.142647
0.142646
0.142644
0.142642
0.14264
0.142636
0.142632
0.142626
0.142618
0.142609
0.142596
0.14258
0.142559
0.142532
0.142499
0.142456
0.142403
0.142337
0.142258
0.142162
0.142048
0.155562
0.155682
0.155783
0.155867
0.155936
0.155992
0.156038
0.156074
0.156102
0.156124
0.156141
0.156155
0.156165
0.156173
0.156179
0.156184
0.156188
0.156191
0.156193
0.156195
0.156196
0.156197
0.156198
0.156199
0.156199
0.1562
0.1562
0.1562
0.1562
0.1562
0.1562
0.1562
0.1562
0.1562
0.1562
0.156199
0.156199
0.156198
0.156197
0.156196
0.156195
0.156193
0.156191
0.156188
0.156184
0.156179
0.156173
0.156165
0.156155
0.156141
0.156124
0.156102
0.156074
0.156038
0.155992
0.155936
0.155867
0.155783
0.155682
0.155562
0.169211
0.169337
0.169444
0.169532
0.169605
0.169664
0.169712
0.16975
0.16978
0.169803
0.169822
0.169836
0.169847
0.169856
0.169863
0.169868
0.169872
0.169875
0.169877
0.169879
0.169881
0.169882
0.169883
0.169883
0.169884
0.169884
0.169885
0.169885
0.169885
0.169885
0.169885
0.169885
0.169885
0.169885
0.169884
0.169884
0.169883
0.169883
0.169882
0.169881
0.169879
0.169877
0.169875
0.169872
0.169868
0.169863
0.169856
0.169847
0.169836
0.169822
0.169803
0.16978
0.16975
0.169712
0.169664
0.169605
0.169532
0.169444
0.169337
0.169211
0.182978
0.183111
0.183222
0.183315
0.183391
0.183453
0.183504
0.183544
0.183575
0.1836
0.18362
0.183635
0.183647
0.183656
0.183664
0.183669
0.183673
0.183677
0.183679
0.183682
0.183683
0.183684
0.183685
0.183686
0.183687
0.183687
0.183687
0.183688
0.183688
0.183688
0.183688
0.183688
0.183688
0.183687
0.183687
0.183687
0.183686
0.183685
0.183684
0.183683
0.183682
0.183679
0.183677
0.183673
0.183669
0.183664
0.183656
0.183647
0.183635
0.18362
0.1836
0.183575
0.183544
0.183504
0.183453
0.183391
0.183315
0.183222
0.183111
0.182978
0.196849
0.196987
0.197103
0.1972
0.19728
0.197345
0.197398
0.19744
0.197474
0.1975
0.197521
0.197537
0.19755
0.19756
0.197568
0.197573
0.197578
0.197582
0.197585
0.197587
0.197589
0.19759
0.197591
0.197592
0.197592
0.197593
0.197593
0.197593
0.197594
0.197594
0.197594
0.197594
0.197593
0.197593
0.197593
0.197592
0.197592
0.197591
0.19759
0.197589
0.197587
0.197585
0.197582
0.197578
0.197573
0.197568
0.19756
0.19755
0.197537
0.197521
0.1975
0.197474
0.19744
0.197398
0.197345
0.19728
0.1972
0.197103
0.196987
0.196849
0.210809
0.210953
0.211074
0.211175
0.211259
0.211327
0.211382
0.211427
0.211462
0.21149
0.211512
0.211529