/*--------------------------------*- C++ -*----------------------------------*\
| =========                 |                                                 |
| \\      /  F ield         | foam-extend: Open Source CFD                    |
|  \\    /   O peration     | Version:     4.0                                |
|   \\  /    A nd           | Web:         http://www.foam-extend.org         |
|    \\/     M anipulation  |                                                 |
\*---------------------------------------------------------------------------*/
FoamFile
{
    version     2.0;
    format      ascii;
    class       volScalarField;
    location    "1750";
    object      cPlus;
}
// * * * * * * * * * * * * * * * * * * * * * * * * * * * * * * * * * * * * * //

dimensions      [0 0 0 0 0 0 0];

internalField   nonuniform List<scalar> 
6960
(
0.283089
0.283059
0.283027
0.282999
0.282975
0.282956
0.282941
0.282929
0.282919
0.282912
0.282906
0.282902
0.282899
0.282896
0.282894
0.282892
0.282891
0.28289
0.28289
0.282889
0.282888
0.282888
0.282888
0.282888
0.282887
0.282887
0.282887
0.282887
0.282887
0.282887
0.282887
0.282887
0.282887
0.282887
0.282887
0.282887
0.282888
0.282888
0.282888
0.282888
0.282889
0.28289
0.28289
0.282891
0.282892
0.282894
0.282896
0.282899
0.282902
0.282906
0.282912
0.282919
0.282929
0.282941
0.282956
0.282975
0.282999
0.283027
0.283059
0.283089
0.0800353
0.080019
0.0800012
0.0799854
0.0799721
0.0799614
0.0799528
0.079946
0.0799408
0.0799367
0.0799335
0.079931
0.0799291
0.0799277
0.0799265
0.0799257
0.079925
0.0799245
0.079924
0.0799237
0.0799235
0.0799233
0.0799231
0.079923
0.0799229
0.0799228
0.0799228
0.0799227
0.0799227
0.0799227
0.0799227
0.0799227
0.0799227
0.0799228
0.0799228
0.0799229
0.079923
0.0799231
0.0799233
0.0799235
0.0799237
0.079924
0.0799245
0.079925
0.0799257
0.0799265
0.0799277
0.0799291
0.079931
0.0799335
0.0799367
0.0799408
0.079946
0.0799528
0.0799614
0.0799721
0.0799854
0.0800012
0.080019
0.0800353
0.0289863
0.0289804
0.0289736
0.0289674
0.0289622
0.0289579
0.0289546
0.0289519
0.0289498
0.0289482
0.0289469
0.0289459
0.0289452
0.0289446
0.0289441
0.0289438
0.0289435
0.0289433
0.0289431
0.028943
0.0289429
0.0289428
0.0289427
0.0289427
0.0289427
0.0289426
0.0289426
0.0289426
0.0289426
0.0289426
0.0289426
0.0289426
0.0289426
0.0289426
0.0289426
0.0289427
0.0289427
0.0289427
0.0289428
0.0289429
0.028943
0.0289431
0.0289433
0.0289435
0.0289438
0.0289441
0.0289446
0.0289452
0.0289459
0.0289469
0.0289482
0.0289498
0.0289519
0.0289546
0.0289579
0.0289622
0.0289674
0.0289736
0.0289804
0.0289863
0.0146296
0.0146292
0.0146281
0.014627
0.014626
0.0146252
0.0146245
0.014624
0.0146236
0.0146232
0.014623
0.0146228
0.0146226
0.0146225
0.0146224
0.0146223
0.0146222
0.0146222
0.0146222
0.0146221
0.0146221
0.0146221
0.0146221
0.0146221
0.014622
0.014622
0.014622
0.014622
0.014622
0.014622
0.014622
0.014622
0.014622
0.014622
0.014622
0.014622
0.0146221
0.0146221
0.0146221
0.0146221
0.0146221
0.0146222
0.0146222
0.0146222
0.0146223
0.0146224
0.0146225
0.0146226
0.0146228
0.014623
0.0146232
0.0146236
0.014624
0.0146245
0.0146252
0.014626
0.014627
0.0146281
0.0146292
0.0146296
0.01059
0.010592
0.0105934
0.0105944
0.0105953
0.010596
0.0105965
0.0105969
0.0105972
0.0105974
0.0105976
0.0105978
0.0105979
0.0105979
0.010598
0.010598
0.0105981
0.0105981
0.0105981
0.0105981
0.0105981
0.0105981
0.0105982
0.0105982
0.0105982
0.0105982
0.0105982
0.0105982
0.0105982
0.0105982
0.0105982
0.0105982
0.0105982
0.0105982
0.0105982
0.0105982
0.0105982
0.0105982
0.0105981
0.0105981
0.0105981
0.0105981
0.0105981
0.0105981
0.010598
0.010598
0.0105979
0.0105979
0.0105978
0.0105976
0.0105974
0.0105972
0.0105969
0.0105965
0.010596
0.0105953
0.0105944
0.0105934
0.010592
0.01059
0.00952406
0.009527
0.00952937
0.00953132
0.0095329
0.00953416
0.00953516
0.00953593
0.00953652
0.00953698
0.00953733
0.0095376
0.0095378
0.00953796
0.00953808
0.00953817
0.00953823
0.00953829
0.00953833
0.00953836
0.00953839
0.0095384
0.00953842
0.00953843
0.00953844
0.00953845
0.00953845
0.00953846
0.00953846
0.00953846
0.00953846
0.00953846
0.00953846
0.00953845
0.00953845
0.00953844
0.00953843
0.00953842
0.0095384
0.00953839
0.00953836
0.00953833
0.00953829
0.00953823
0.00953817
0.00953808
0.00953796
0.0095378
0.0095376
0.00953733
0.00953698
0.00953652
0.00953593
0.00953516
0.00953416
0.0095329
0.00953132
0.00952937
0.009527
0.00952406
0.00930527
0.00930858
0.00931132
0.0093136
0.00931545
0.00931694
0.00931811
0.00931902
0.00931973
0.00932027
0.00932068
0.009321
0.00932124
0.00932143
0.00932157
0.00932168
0.00932176
0.00932182
0.00932187
0.00932191
0.00932194
0.00932197
0.00932198
0.009322
0.00932201
0.00932202
0.00932202
0.00932203
0.00932203
0.00932203
0.00932203
0.00932203
0.00932203
0.00932202
0.00932202
0.00932201
0.009322
0.00932198
0.00932197
0.00932194
0.00932191
0.00932187
0.00932182
0.00932176
0.00932168
0.00932157
0.00932143
0.00932124
0.009321
0.00932068
0.00932027
0.00931973
0.00931902
0.00931811
0.00931694
0.00931545
0.0093136
0.00931132
0.00930858
0.00930527
0.00932486
0.00932833
0.00933123
0.00933365
0.00933562
0.0093372
0.00933844
0.00933941
0.00934016
0.00934074
0.00934118
0.00934152
0.00934178
0.00934198
0.00934213
0.00934224
0.00934233
0.0093424
0.00934245
0.00934249
0.00934253
0.00934255
0.00934257
0.00934259
0.0093426
0.00934261
0.00934261
0.00934262
0.00934262
0.00934262
0.00934262
0.00934262
0.00934262
0.00934261
0.00934261
0.0093426
0.00934259
0.00934257
0.00934255
0.00934253
0.00934249
0.00934245
0.0093424
0.00934233
0.00934224
0.00934213
0.00934198
0.00934178
0.00934152
0.00934118
0.00934074
0.00934016
0.00933941
0.00933844
0.0093372
0.00933562
0.00933365
0.00933123
0.00932833
0.00932486
0.00941359
0.00941717
0.00942016
0.00942265
0.00942468
0.00942631
0.0094276
0.0094286
0.00942937
0.00942997
0.00943043
0.00943078
0.00943105
0.00943125
0.00943141
0.00943153
0.00943162
0.00943169
0.00943175
0.00943179
0.00943182
0.00943185
0.00943187
0.00943188
0.0094319
0.0094319
0.00943191
0.00943192
0.00943192
0.00943192
0.00943192
0.00943192
0.00943192
0.00943191
0.0094319
0.0094319
0.00943188
0.00943187
0.00943185
0.00943182
0.00943179
0.00943175
0.00943169
0.00943162
0.00943153
0.00943141
0.00943125
0.00943105
0.00943078
0.00943043
0.00942997
0.00942937
0.0094286
0.0094276
0.00942631
0.00942468
0.00942265
0.00942016
0.00941717
0.00941359
0.00952631
0.00952997
0.00953303
0.00953559
0.00953767
0.00953933
0.00954065
0.00954168
0.00954247
0.00954309
0.00954356
0.00954391
0.00954419
0.0095444
0.00954456
0.00954468
0.00954478
0.00954485
0.00954491
0.00954495
0.00954498
0.00954501
0.00954503
0.00954505
0.00954506
0.00954507
0.00954508
0.00954508
0.00954508
0.00954509
0.00954509
0.00954508
0.00954508
0.00954508
0.00954507
0.00954506
0.00954505
0.00954503
0.00954501
0.00954498
0.00954495
0.00954491
0.00954485
0.00954478
0.00954468
0.00954456
0.0095444
0.00954419
0.00954391
0.00954356
0.00954309
0.00954247
0.00954168
0.00954065
0.00953933
0.00953767
0.00953559
0.00953303
0.00952997
0.00952631
0.00965184
0.00965559
0.00965872
0.00966133
0.00966346
0.00966517
0.00966651
0.00966757
0.00966838
0.00966901
0.00966949
0.00966986
0.00967014
0.00967035
0.00967052
0.00967064
0.00967074
0.00967082
0.00967087
0.00967092
0.00967095
0.00967098
0.009671
0.00967102
0.00967103
0.00967104
0.00967105
0.00967105
0.00967106
0.00967106
0.00967106
0.00967106
0.00967105
0.00967105
0.00967104
0.00967103
0.00967102
0.009671
0.00967098
0.00967095
0.00967092
0.00967087
0.00967082
0.00967074
0.00967064
0.00967052
0.00967035
0.00967014
0.00966986
0.00966949
0.00966901
0.00966838
0.00966757
0.00966651
0.00966517
0.00966346
0.00966133
0.00965872
0.00965559
0.00965184
0.00978809
0.00979193
0.00979514
0.00979781
0.00979999
0.00980174
0.00980312
0.0098042
0.00980503
0.00980568
0.00980617
0.00980655
0.00980684
0.00980706
0.00980723
0.00980736
0.00980746
0.00980753
0.00980759
0.00980764
0.00980767
0.0098077
0.00980772
0.00980774
0.00980775
0.00980776
0.00980777
0.00980778
0.00980778
0.00980778
0.00980778
0.00980778
0.00980778
0.00980777
0.00980776
0.00980775
0.00980774
0.00980772
0.0098077
0.00980767
0.00980764
0.00980759
0.00980753
0.00980746
0.00980736
0.00980723
0.00980706
0.00980684
0.00980655
0.00980617
0.00980568
0.00980503
0.0098042
0.00980312
0.00980174
0.00979999
0.00979781
0.00979514
0.00979193
0.00978809
0.00993541
0.00993935
0.00994264
0.00994538
0.00994762
0.00994941
0.00995083
0.00995193
0.00995279
0.00995345
0.00995396
0.00995434
0.00995464
0.00995487
0.00995504
0.00995517
0.00995528
0.00995535
0.00995542
0.00995546
0.0099555
0.00995553
0.00995555
0.00995557
0.00995558
0.00995559
0.0099556
0.0099556
0.00995561
0.00995561
0.00995561
0.00995561
0.0099556
0.0099556
0.00995559
0.00995558
0.00995557
0.00995555
0.00995553
0.0099555
0.00995546
0.00995542
0.00995535
0.00995528
0.00995517
0.00995504
0.00995487
0.00995464
0.00995434
0.00995396
0.00995345
0.00995279
0.00995193
0.00995083
0.00994941
0.00994762
0.00994538
0.00994264
0.00993935
0.00993541
0.0100949
0.0100989
0.0101023
0.0101051
0.0101074
0.0101093
0.0101107
0.0101119
0.0101127
0.0101134
0.0101139
0.0101143
0.0101146
0.0101149
0.010115
0.0101152
0.0101153
0.0101154
0.0101154
0.0101155
0.0101155
0.0101156
0.0101156
0.0101156
0.0101156
0.0101156
0.0101156
0.0101156
0.0101156
0.0101156
0.0101156
0.0101156
0.0101156
0.0101156
0.0101156
0.0101156
0.0101156
0.0101156
0.0101156
0.0101155
0.0101155
0.0101154
0.0101154
0.0101153
0.0101152
0.010115
0.0101149
0.0101146
0.0101143
0.0101139
0.0101134
0.0101127
0.0101119
0.0101107
0.0101093
0.0101074
0.0101051
0.0101023
0.0100989
0.0100949
0.0102679
0.0102721
0.0102756
0.0102785
0.0102808
0.0102827
0.0102842
0.0102854
0.0102863
0.010287
0.0102875
0.0102879
0.0102883
0.0102885
0.0102887
0.0102888
0.0102889
0.010289
0.0102891
0.0102891
0.0102892
0.0102892
0.0102892
0.0102892
0.0102893
0.0102893
0.0102893
0.0102893
0.0102893
0.0102893
0.0102893
0.0102893
0.0102893
0.0102893
0.0102893
0.0102893
0.0102892
0.0102892
0.0102892
0.0102892
0.0102891
0.0102891
0.010289
0.0102889
0.0102888
0.0102887
0.0102885
0.0102883
0.0102879
0.0102875
0.010287
0.0102863
0.0102854
0.0102842
0.0102827
0.0102808
0.0102785
0.0102756
0.0102721
0.0102679
0.0104562
0.0104605
0.0104641
0.0104671
0.0104696
0.0104715
0.0104731
0.0104743
0.0104752
0.0104759
0.0104765
0.0104769
0.0104772
0.0104775
0.0104777
0.0104778
0.0104779
0.010478
0.0104781
0.0104781
0.0104782
0.0104782
0.0104782
0.0104782
0.0104783
0.0104783
0.0104783
0.0104783
0.0104783
0.0104783
0.0104783
0.0104783
0.0104783
0.0104783
0.0104783
0.0104783
0.0104782
0.0104782
0.0104782
0.0104782
0.0104781
0.0104781
0.010478
0.0104779
0.0104778
0.0104777
0.0104775
0.0104772
0.0104769
0.0104765
0.0104759
0.0104752
0.0104743
0.0104731
0.0104715
0.0104696
0.0104671
0.0104641
0.0104605
0.0104562
0.0106619
0.0106663
0.01067
0.0106731
0.0106757
0.0106777
0.0106793
0.0106805
0.0106815
0.0106822
0.0106828
0.0106833
0.0106836
0.0106838
0.010684
0.0106842
0.0106843
0.0106844
0.0106845
0.0106845
0.0106846
0.0106846
0.0106846
0.0106846
0.0106847
0.0106847
0.0106847
0.0106847
0.0106847
0.0106847
0.0106847
0.0106847
0.0106847
0.0106847
0.0106847
0.0106847
0.0106846
0.0106846
0.0106846
0.0106846
0.0106845
0.0106845
0.0106844
0.0106843
0.0106842
0.010684
0.0106838
0.0106836
0.0106833
0.0106828
0.0106822
0.0106815
0.0106805
0.0106793
0.0106777
0.0106757
0.0106731
0.01067
0.0106663
0.0106619
0.0108873
0.0108919
0.0108958
0.010899
0.0109016
0.0109037
0.0109053
0.0109066
0.0109076
0.0109084
0.010909
0.0109094
0.0109098
0.0109101
0.0109103
0.0109104
0.0109105
0.0109106
0.0109107
0.0109108
0.0109108
0.0109108
0.0109109
0.0109109
0.0109109
0.0109109
0.0109109
0.0109109
0.0109109
0.0109109
0.0109109
0.0109109
0.0109109
0.0109109
0.0109109
0.0109109
0.0109109
0.0109109
0.0109108
0.0109108
0.0109108
0.0109107
0.0109106
0.0109105
0.0109104
0.0109103
0.0109101
0.0109098
0.0109094
0.010909
0.0109084
0.0109076
0.0109066
0.0109053
0.0109037
0.0109016
0.010899
0.0108958
0.0108919
0.0108873
0.0111354
0.0111402
0.0111442
0.0111475
0.0111502
0.0111524
0.0111541
0.0111555
0.0111565
0.0111573
0.011158
0.0111584
0.0111588
0.0111591
0.0111593
0.0111595
0.0111596
0.0111597
0.0111598
0.0111598
0.0111599
0.0111599
0.0111599
0.0111599
0.01116
0.01116
0.01116
0.01116
0.01116
0.01116
0.01116
0.01116
0.01116
0.01116
0.01116
0.01116
0.0111599
0.0111599
0.0111599
0.0111599
0.0111598
0.0111598
0.0111597
0.0111596
0.0111595
0.0111593
0.0111591
0.0111588
0.0111584
0.011158
0.0111573
0.0111565
0.0111555
0.0111541
0.0111524
0.0111502
0.0111475
0.0111442
0.0111402
0.0111354
0.0114097
0.0114147
0.0114189
0.0114224
0.0114252
0.0114275
0.0114293
0.0114307
0.0114318
0.0114327
0.0114333
0.0114338
0.0114342
0.0114345
0.0114347
0.0114349
0.011435
0.0114351
0.0114352
0.0114352
0.0114353
0.0114353
0.0114354
0.0114354
0.0114354
0.0114354
0.0114354
0.0114354
0.0114354
0.0114354
0.0114354
0.0114354
0.0114354
0.0114354
0.0114354
0.0114354
0.0114354
0.0114354
0.0114353
0.0114353
0.0114352
0.0114352
0.0114351
0.011435
0.0114349
0.0114347
0.0114345
0.0114342
0.0114338
0.0114333
0.0114327
0.0114318
0.0114307
0.0114293
0.0114275
0.0114252
0.0114224
0.0114189
0.0114147
0.0114097
0.0117147
0.01172
0.0117244
0.011728
0.011731
0.0117334
0.0117353
0.0117367
0.0117379
0.0117388
0.0117394
0.01174
0.0117404
0.0117407
0.0117409
0.0117411
0.0117412
0.0117413
0.0117414
0.0117415
0.0117415
0.0117416
0.0117416
0.0117416
0.0117416
0.0117416
0.0117417
0.0117417
0.0117417
0.0117417
0.0117417
0.0117417
0.0117417
0.0117417
0.0117416
0.0117416
0.0117416
0.0117416
0.0117416
0.0117415
0.0117415
0.0117414
0.0117413
0.0117412
0.0117411
0.0117409
0.0117407
0.0117404
0.01174
0.0117394
0.0117388
0.0117379
0.0117367
0.0117353
0.0117334
0.011731
0.011728
0.0117244
0.01172
0.0117147
0.0120558
0.0120614
0.012066
0.0120698
0.0120729
0.0120755
0.0120774
0.012079
0.0120802
0.0120811
0.0120819
0.0120824
0.0120828
0.0120832
0.0120834
0.0120836
0.0120837
0.0120838
0.0120839
0.012084
0.0120841
0.0120841
0.0120841
0.0120841
0.0120842
0.0120842
0.0120842
0.0120842
0.0120842
0.0120842
0.0120842
0.0120842
0.0120842
0.0120842
0.0120842
0.0120842
0.0120841
0.0120841
0.0120841
0.0120841
0.012084
0.0120839
0.0120838
0.0120837
0.0120836
0.0120834
0.0120832
0.0120828
0.0120824
0.0120819
0.0120811
0.0120802
0.012079
0.0120774
0.0120755
0.0120729
0.0120698
0.012066
0.0120614
0.0120558
0.0124399
0.0124458
0.0124507
0.0124547
0.0124581
0.0124607
0.0124628
0.0124645
0.0124658
0.0124667
0.0124675
0.0124681
0.0124685
0.0124689
0.0124691
0.0124693
0.0124695
0.0124696
0.0124697
0.0124698
0.0124698
0.0124699
0.0124699
0.0124699
0.0124699
0.01247
0.01247
0.01247
0.01247
0.01247
0.01247
0.01247
0.01247
0.01247
0.01247
0.0124699
0.0124699
0.0124699
0.0124699
0.0124698
0.0124698
0.0124697
0.0124696
0.0124695
0.0124693
0.0124691
0.0124689
0.0124685
0.0124681
0.0124675
0.0124667
0.0124658
0.0124645
0.0124628
0.0124607
0.0124581
0.0124547
0.0124507
0.0124458
0.0124399
0.0128759
0.0128821
0.0128873
0.0128917
0.0128952
0.012898
0.0129003
0.012902
0.0129034
0.0129044
0.0129053
0.0129059
0.0129063
0.0129067
0.012907
0.0129072
0.0129074
0.0129075
0.0129076
0.0129077
0.0129077
0.0129078
0.0129078
0.0129078
0.0129079
0.0129079
0.0129079
0.0129079
0.0129079
0.0129079
0.0129079
0.0129079
0.0129079
0.0129079
0.0129079
0.0129079
0.0129078
0.0129078
0.0129078
0.0129077
0.0129077
0.0129076
0.0129075
0.0129074
0.0129072
0.012907
0.0129067
0.0129063
0.0129059
0.0129053
0.0129044
0.0129034
0.012902
0.0129003
0.012898
0.0128952
0.0128917
0.0128873
0.0128821
0.0128759
0.0133751
0.0133819
0.0133875
0.0133921
0.0133959
0.0133989
0.0134014
0.0134032
0.0134047
0.0134058
0.0134067
0.0134074
0.0134079
0.0134083
0.0134086
0.0134088
0.013409
0.0134091
0.0134092
0.0134093
0.0134094
0.0134094
0.0134095
0.0134095
0.0134095
0.0134095
0.0134095
0.0134096
0.0134096
0.0134096
0.0134096
0.0134096
0.0134096
0.0134095
0.0134095
0.0134095
0.0134095
0.0134095
0.0134094
0.0134094
0.0134093
0.0134092
0.0134091
0.013409
0.0134088
0.0134086
0.0134083
0.0134079
0.0134074
0.0134067
0.0134058
0.0134047
0.0134032
0.0134014
0.0133989
0.0133959
0.0133921
0.0133875
0.0133819
0.0133751
0.0139531
0.0139604
0.0139664
0.0139715
0.0139756
0.0139789
0.0139815
0.0139835
0.0139851
0.0139864
0.0139873
0.013988
0.0139886
0.013989
0.0139893
0.0139896
0.0139898
0.0139899
0.01399
0.0139901
0.0139902
0.0139902
0.0139903
0.0139903
0.0139903
0.0139904
0.0139904
0.0139904
0.0139904
0.0139904
0.0139904
0.0139904
0.0139904
0.0139904
0.0139904
0.0139903
0.0139903
0.0139903
0.0139902
0.0139902
0.0139901
0.01399
0.0139899
0.0139898
0.0139896
0.0139893
0.013989
0.0139886
0.013988
0.0139873
0.0139864
0.0139851
0.0139835
0.0139815
0.0139789
0.0139756
0.0139715
0.0139664
0.0139604
0.0139531
0.0146305
0.0146385
0.0146451
0.0146506
0.0146552
0.0146588
0.0146616
0.0146639
0.0146656
0.014667
0.014668
0.0146688
0.0146694
0.0146699
0.0146702
0.0146705
0.0146707
0.0146709
0.014671
0.0146711
0.0146712
0.0146712
0.0146713
0.0146713
0.0146713
0.0146714
0.0146714
0.0146714
0.0146714
0.0146714
0.0146714
0.0146714
0.0146714
0.0146714
0.0146714
0.0146713
0.0146713
0.0146713
0.0146712
0.0146712
0.0146711
0.014671
0.0146709
0.0146707
0.0146705
0.0146702
0.0146699
0.0146694
0.0146688
0.014668
0.014667
0.0146656
0.0146639
0.0146616
0.0146588
0.0146552
0.0146506
0.0146451
0.0146385
0.0146305
0.0154365
0.0154454
0.0154527
0.0154589
0.0154639
0.0154679
0.0154711
0.0154736
0.0154755
0.015477
0.0154782
0.0154791
0.0154797
0.0154803
0.0154806
0.015481
0.0154812
0.0154814
0.0154815
0.0154816
0.0154817
0.0154818
0.0154818
0.0154819
0.0154819
0.0154819
0.0154819
0.0154819
0.0154819
0.015482
0.015482
0.0154819
0.0154819
0.0154819
0.0154819
0.0154819
0.0154819
0.0154818
0.0154818
0.0154817
0.0154816
0.0154815
0.0154814
0.0154812
0.015481
0.0154806
0.0154803
0.0154797
0.0154791
0.0154782
0.015477
0.0154755
0.0154736
0.0154711
0.0154679
0.0154639
0.0154589
0.0154527
0.0154454
0.0154365
0.0164128
0.0164228
0.0164311
0.0164381
0.0164437
0.0164483
0.0164519
0.0164547
0.0164569
0.0164586
0.0164599
0.0164609
0.0164617
0.0164622
0.0164627
0.016463
0.0164633
0.0164635
0.0164637
0.0164638
0.0164639
0.016464
0.016464
0.0164641
0.0164641
0.0164641
0.0164641
0.0164642
0.0164642
0.0164642
0.0164642
0.0164642
0.0164642
0.0164641
0.0164641
0.0164641
0.0164641
0.016464
0.016464
0.0164639
0.0164638
0.0164637
0.0164635
0.0164633
0.016463
0.0164627
0.0164622
0.0164617
0.0164609
0.0164599
0.0164586
0.0164569
0.0164547
0.0164519
0.0164483
0.0164437
0.0164381
0.0164311
0.0164228
0.0164128
0.0176209
0.0176324
0.017642
0.01765
0.0176565
0.0176618
0.0176659
0.0176692
0.0176717
0.0176737
0.0176752
0.0176764
0.0176772
0.0176779
0.0176784
0.0176788
0.0176791
0.0176794
0.0176796
0.0176797
0.0176798
0.0176799
0.01768
0.01768
0.0176801
0.0176801
0.0176801
0.0176801
0.0176801
0.0176801
0.0176801
0.0176801
0.0176801
0.0176801
0.0176801
0.0176801
0.01768
0.01768
0.0176799
0.0176798
0.0176797
0.0176796
0.0176794
0.0176791
0.0176788
0.0176784
0.0176779
0.0176772
0.0176764
0.0176752
0.0176737
0.0176717
0.0176692
0.0176659
0.0176618
0.0176565
0.01765
0.017642
0.0176324
0.0176209
0.019153
0.0191665
0.0191778
0.0191873
0.0191951
0.0192013
0.0192062
0.0192101
0.0192131
0.0192154
0.0192172
0.0192186
0.0192196
0.0192204
0.019221
0.0192215
0.0192219
0.0192222
0.0192224
0.0192225
0.0192227
0.0192228
0.0192229
0.0192229
0.019223
0.019223
0.019223
0.019223
0.0192231
0.0192231
0.0192231
0.0192231
0.019223
0.019223
0.019223
0.019223
0.0192229
0.0192229
0.0192228
0.0192227
0.0192225
0.0192224
0.0192222
0.0192219
0.0192215
0.019221
0.0192204
0.0192196
0.0192186
0.0192172
0.0192154
0.0192131
0.0192101
0.0192062
0.0192013
0.0191951
0.0191873
0.0191778
0.0191665
0.019153
0.0211469
0.0211633
0.0211771
0.0211887
0.0211981
0.0212057
0.0212118
0.0212165
0.0212202
0.021223
0.0212252
0.0212268
0.0212281
0.0212291
0.0212299
0.0212304
0.0212309
0.0212312
0.0212315
0.0212317
0.0212319
0.021232
0.0212321
0.0212322
0.0212322
0.0212323
0.0212323
0.0212323
0.0212323
0.0212323
0.0212323
0.0212323
0.0212323
0.0212323
0.0212323
0.0212322
0.0212322
0.0212321
0.021232
0.0212319
0.0212317
0.0212315
0.0212312
0.0212309
0.0212304
0.0212299
0.0212291
0.0212281
0.0212268
0.0212252
0.021223
0.0212202
0.0212165
0.0212118
0.0212057
0.0211981
0.0211887
0.0211771
0.0211633
0.0211469
0.0238018
0.0238222
0.0238395
0.023854
0.0238659
0.0238754
0.023883
0.0238889
0.0238935
0.0238971
0.0238998
0.0239019
0.0239035
0.0239048
0.0239057
0.0239064
0.023907
0.0239074
0.0239077
0.023908
0.0239082
0.0239084
0.0239085
0.0239086
0.0239087
0.0239087
0.0239087
0.0239088
0.0239088
0.0239088
0.0239088
0.0239088
0.0239088
0.0239087
0.0239087
0.0239087
0.0239086
0.0239085
0.0239084
0.0239082
0.023908
0.0239077
0.0239074
0.023907
0.0239064
0.0239057
0.0239048
0.0239035
0.0239019
0.0238998
0.0238971
0.0238935
0.0238889
0.023883
0.0238754
0.0238659
0.023854
0.0238395
0.0238222
0.0238018
0.0273803
0.0274064
0.0274284
0.027447
0.0274621
0.0274743
0.027484
0.0274916
0.0274975
0.0275021
0.0275056
0.0275083
0.0275104
0.027512
0.0275132
0.0275141
0.0275148
0.0275154
0.0275158
0.0275162
0.0275164
0.0275166
0.0275168
0.0275169
0.027517
0.027517
0.0275171
0.0275171
0.0275172
0.0275172
0.0275172
0.0275172
0.0275171
0.0275171
0.027517
0.027517
0.0275169
0.0275168
0.0275166
0.0275164
0.0275162
0.0275158
0.0275154
0.0275148
0.0275141
0.0275132
0.027512
0.0275104
0.0275083
0.0275056
0.0275021
0.0274975
0.0274916
0.027484
0.0274743
0.0274621
0.027447
0.0274284
0.0274064
0.0273803
0.0321786
0.032212
0.0322403
0.0322641
0.0322836
0.0322993
0.0323118
0.0323215
0.0323291
0.032335
0.0323395
0.032343
0.0323457
0.0323477
0.0323493
0.0323505
0.0323514
0.0323521
0.0323527
0.0323531
0.0323534
0.0323537
0.0323539
0.0323541
0.0323542
0.0323543
0.0323543
0.0323544
0.0323544
0.0323544
0.0323544
0.0323544
0.0323544
0.0323543
0.0323543
0.0323542
0.0323541
0.0323539
0.0323537
0.0323534
0.0323531
0.0323527
0.0323521
0.0323514
0.0323505
0.0323493
0.0323477
0.0323457
0.032343
0.0323395
0.032335
0.0323291
0.0323215
0.0323118
0.0322993
0.0322836
0.0322641
0.0322403
0.032212
0.0321786
0.038449
0.0384913
0.0385272
0.0385573
0.038582
0.0386019
0.0386177
0.0386301
0.0386397
0.0386472
0.0386529
0.0386574
0.0386607
0.0386633
0.0386653
0.0386668
0.038668
0.0386689
0.0386696
0.0386702
0.0386706
0.0386709
0.0386712
0.0386714
0.0386715
0.0386717
0.0386718
0.0386718
0.0386719
0.0386719
0.0386719
0.0386719
0.0386718
0.0386718
0.0386717
0.0386715
0.0386714
0.0386712
0.0386709
0.0386706
0.0386702
0.0386696
0.0386689
0.038668
0.0386668
0.0386653
0.0386633
0.0386607
0.0386574
0.0386529
0.0386472
0.0386397
0.0386301
0.0386177
0.0386019
0.038582
0.0385573
0.0385272
0.0384913
0.038449
0.046302
0.0463541
0.0463982
0.0464353
0.0464656
0.0464901
0.0465095
0.0465247
0.0465366
0.0465458
0.0465529
0.0465584
0.0465625
0.0465657
0.0465682
0.0465701
0.0465716
0.0465727
0.0465736
0.0465742
0.0465748
0.0465752
0.0465755
0.0465757
0.0465759
0.0465761
0.0465762
0.0465763
0.0465763
0.0465763
0.0465763
0.0465763
0.0465763
0.0465762
0.0465761
0.0465759
0.0465757
0.0465755
0.0465752
0.0465748
0.0465742
0.0465736
0.0465727
0.0465716
0.0465701
0.0465682
0.0465657
0.0465625
0.0465584
0.0465529
0.0465458
0.0465366
0.0465247
0.0465095
0.0464901
0.0464656
0.0464353
0.0463982
0.0463541
0.046302
0.0556496
0.0557116
0.055764
0.0558079
0.0558439
0.0558729
0.0558959
0.0559141
0.0559282
0.0559391
0.0559476
0.0559541
0.055959
0.0559629
0.0559658
0.0559681
0.0559698
0.0559712
0.0559722
0.055973
0.0559737
0.0559742
0.0559746
0.0559748
0.0559751
0.0559753
0.0559754
0.0559755
0.0559755
0.0559756
0.0559756
0.0559755
0.0559755
0.0559754
0.0559753
0.0559751
0.0559748
0.0559746
0.0559742
0.0559737
0.055973
0.0559722
0.0559712
0.0559698
0.0559681
0.0559658
0.0559629
0.055959
0.0559541
0.0559476
0.0559391
0.0559282
0.0559141
0.0558959
0.0558729
0.0558439
0.0558079
0.055764
0.0557116
0.0556496
0.0662407
0.066312
0.0663722
0.0664225
0.0664638
0.066497
0.0665234
0.0665442
0.0665605
0.066573
0.0665828
0.0665903
0.066596
0.0666004
0.0666038
0.0666065
0.0666085
0.0666101
0.0666113
0.0666122
0.066613
0.0666135
0.066614
0.0666143
0.0666146
0.0666148
0.066615
0.0666151
0.0666151
0.0666152
0.0666152
0.0666151
0.0666151
0.066615
0.0666148
0.0666146
0.0666143
0.066614
0.0666135
0.066613
0.0666122
0.0666113
0.0666101
0.0666085
0.0666065
0.0666038
0.0666004
0.066596
0.0665903
0.0665828
0.066573
0.0665605
0.0665442
0.0665234
0.066497
0.0664638
0.0664225
0.0663722
0.066312
0.0662407
0.0777618
0.0778417
0.0779089
0.077965
0.078011
0.078048
0.0780775
0.0781008
0.078119
0.0781331
0.078144
0.0781524
0.0781589
0.0781639
0.0781677
0.0781707
0.078173
0.0781747
0.0781761
0.0781772
0.078178
0.0781787
0.0781792
0.0781796
0.0781799
0.0781801
0.0781803
0.0781804
0.0781805
0.0781805
0.0781805
0.0781805
0.0781804
0.0781803
0.0781801
0.0781799
0.0781796
0.0781792
0.0781787
0.078178
0.0781772
0.0781761
0.0781747
0.078173
0.0781707
0.0781677
0.0781639
0.0781589
0.0781524
0.078144
0.0781331
0.078119
0.0781008
0.0780775
0.078048
0.078011
0.077965
0.0779089
0.0778417
0.0777618
0.0899324
0.09002
0.0900936
0.0901549
0.0902052
0.0902458
0.0902782
0.0903037
0.0903236
0.0903391
0.0903512
0.0903604
0.0903676
0.0903731
0.0903774
0.0903807
0.0903832
0.0903852
0.0903867
0.0903879
0.0903889
0.0903896
0.0903901
0.0903906
0.0903909
0.0903912
0.0903914
0.0903915
0.0903916
0.0903917
0.0903917
0.0903916
0.0903915
0.0903914
0.0903912
0.0903909
0.0903906
0.0903901
0.0903896
0.0903889
0.0903879
0.0903867
0.0903852
0.0903832
0.0903807
0.0903774
0.0903731
0.0903676
0.0903604
0.0903512
0.0903391
0.0903236
0.0903037
0.0902782
0.0902458
0.0902052
0.0901549
0.0900936
0.09002
0.0899324
0.102548
0.102643
0.102723
0.102789
0.102843
0.102887
0.102922
0.10295
0.102971
0.102988
0.103001
0.103011
0.103019
0.103025
0.10303
0.103034
0.103036
0.103039
0.10304
0.103042
0.103043
0.103043
0.103044
0.103044
0.103045
0.103045
0.103045
0.103046
0.103046
0.103046
0.103046
0.103046
0.103046
0.103045
0.103045
0.103045
0.103044
0.103044
0.103043
0.103043
0.103042
0.10304
0.103039
0.103036
0.103034
0.10303
0.103025
0.103019
0.103011
0.103001
0.102988
0.102971
0.10295
0.102922
0.102887
0.102843
0.102789
0.102723
0.102643
0.102548
0.115479
0.115581
0.115666
0.115737
0.115795
0.115842
0.11588
0.115909
0.115933
0.115951
0.115965
0.115976
0.115984
0.115991
0.115996
0.116
0.116003
0.116005
0.116007
0.116009
0.11601
0.116011
0.116011
0.116012
0.116012
0.116013
0.116013
0.116013
0.116013
0.116013
0.116013
0.116013
0.116013
0.116013
0.116013
0.116012
0.116012
0.116011
0.116011
0.11601
0.116009
0.116007
0.116005
0.116003
0.116
0.115996
0.115991
0.115984
0.115976
0.115965
0.115951
0.115933
0.115909
0.11588
0.115842
0.115795
0.115737
0.115666
0.115581
0.115479
0.128646
0.128755
0.128845
0.128921
0.128983
0.129033
0.129073
0.129105
0.12913
0.129149
0.129164
0.129176
0.129185
0.129192
0.129198
0.129202
0.129205
0.129208
0.12921
0.129212
0.129213
0.129214
0.129214
0.129215
0.129216
0.129216
0.129216
0.129216
0.129216
0.129217
0.129217
0.129216
0.129216
0.129216
0.129216
0.129216
0.129215
0.129214
0.129214
0.129213
0.129212
0.12921
0.129208
0.129205
0.129202
0.129198
0.129192
0.129185
0.129176
0.129164
0.129149
0.12913
0.129105
0.129073
0.129033
0.128983
0.128921
0.128845
0.128755
0.128646
0.142002
0.142117
0.142213
0.142292
0.142358
0.142411
0.142454
0.142488
0.142514
0.142535
0.142552
0.142564
0.142574
0.142582
0.142588
0.142592
0.142596
0.142599
0.142601
0.142602
0.142604
0.142605
0.142606
0.142606
0.142607
0.142607
0.142607
0.142608
0.142608
0.142608
0.142608
0.142608
0.142608
0.142607
0.142607
0.142607
0.142606
0.142606
0.142605
0.142604
0.142602
0.142601
0.142599
0.142596
0.142592
0.142588
0.142582
0.142574
0.142564
0.142552
0.142535
0.142514
0.142488
0.142454
0.142411
0.142358
0.142292
0.142213
0.142117
0.142002
0.155515
0.155636
0.155737
0.155821
0.15589
0.155947
0.155992
0.156028
0.156056
0.156078
0.156096
0.156109
0.15612
0.156128
0.156134
0.156139
0.156143
0.156146
0.156148
0.15615
0.156152
0.156153
0.156154
0.156155
0.156155
0.156155
0.156156
0.156156
0.156156
0.156156
0.156156
0.156156
0.156156
0.156156
0.156155
0.156155
0.156155
0.156154
0.156153
0.156152
0.15615
0.156148
0.156146
0.156143
0.156139
0.156134
0.156128
0.15612
0.156109
0.156096
0.156078
0.156056
0.156028
0.155992
0.155947
0.15589
0.155821
0.155737
0.155636
0.155515
0.169162
0.169289
0.169396
0.169484
0.169557
0.169616
0.169664
0.169702
0.169732
0.169756
0.169774
0.169789
0.1698
0.169809
0.169815
0.169821
0.169825
0.169828
0.169831
0.169833
0.169834
0.169836
0.169837
0.169837
0.169838
0.169838
0.169839
0.169839
0.169839
0.169839
0.169839
0.169839
0.169839
0.169839
0.169838
0.169838
0.169837
0.169837
0.169836
0.169834
0.169833
0.169831
0.169828
0.169825
0.169821
0.169815
0.169809
0.1698
0.169789
0.169774
0.169756
0.169732
0.169702
0.169664
0.169616
0.169557
0.169484
0.169396
0.169289
0.169162
0.182927
0.18306
0.183171
0.183264
0.18334
0.183403
0.183453
0.183493
0.183525
0.18355
0.18357
0.183585
0.183597
0.183606
0.183614
0.183619
0.183624
0.183627
0.18363
0.183632
0.183634
0.183635
0.183636
0.183637
0.183638
0.183638
0.183639
0.183639
0.183639
0.183639
0.183639
0.183639
0.183639
0.183639
0.183638
0.183638
0.183637
0.183636
0.183635
0.183634
0.183632
0.18363
0.183627
0.183624
0.183619
0.183614
0.183606
0.183597
0.183585
0.18357
0.18355
0.183525
0.183493
0.183453
0.183403
0.18334
0.183264
0.183171
0.18306
0.182927
0.196794
0.196932
0.197048
0.197145
0.197225
0.197291
0.197344
0.197386
0.197419
0.197446
0.197467
0.197483
0.197496
0.197506
0.197514
0.19752
0.197524
0.197528
0.197531
0.197534
0.197535
0.197537
0.197538
0.197539
0.19754
0.19754
0.19754
0.197541
0.197541
0.197541
0.197541
0.197541
0.197541
0.19754
0.19754
0.19754
0.197539
0.197538
0.197537
0.197535
0.197534
0.197531
0.197528
0.197524
0.19752
0.197514
0.197506
0.197496
0.197483
0.197467
0.197446
0.197419
0.197386
0.197344
0.197291
0.197225
0.197145
0.197048
0.196932
0.196794
0.210749
0.210893
0.211014
0.211115
0.211199
0.211268
0.211323
0.211367
0.211403
0.211431
0.211453
0.21147
0.211483
0.211494
0.211502
0.211509
0.211514
0.211518