/*--------------------------------*- C++ -*----------------------------------*\
| =========                 |                                                 |
| \\      /  F ield         | foam-extend: Open Source CFD                    |
|  \\    /   O peration     | Version:     4.0                                |
|   \\  /    A nd           | Web:         http://www.foam-extend.org         |
|    \\/     M anipulation  |                                                 |
\*---------------------------------------------------------------------------*/
FoamFile
{
    version     2.0;
    format      ascii;
    class       volScalarField;
    location    "80";
    object      psiE;
}
// * * * * * * * * * * * * * * * * * * * * * * * * * * * * * * * * * * * * * //

dimensions      [0 0 0 0 0 0 0];

internalField   nonuniform List<scalar> 
6960
(
0.0999966
0.0999764
0.0999748
0.099975
0.0999757
0.0999767
0.0999778
0.0999792
0.0999806
0.0999822
0.0999838
0.0999855
0.0999871
0.0999888
0.0999904
0.099992
0.0999935
0.099995
0.0999963
0.0999976
0.0999987
0.0999998
0.100001
0.100002
0.100002
0.100003
0.100003
0.100004
0.100004
0.100004
0.100004
0.100004
0.100004
0.100003
0.100003
0.100002
0.100002
0.100001
0.0999998
0.0999987
0.0999976
0.0999963
0.099995
0.0999935
0.099992
0.0999904
0.0999888
0.0999871
0.0999855
0.0999838
0.0999822
0.0999806
0.0999792
0.0999778
0.0999767
0.0999757
0.099975
0.0999748
0.0999764
0.0999966
0.178825
0.178789
0.178787
0.178788
0.17879
0.178793
0.178797
0.178801
0.178806
0.17881
0.178815
0.17882
0.178825
0.17883
0.178835
0.17884
0.178845
0.178849
0.178853
0.178857
0.178861
0.178864
0.178867
0.178869
0.178871
0.178873
0.178875
0.178876
0.178876
0.178877
0.178877
0.178876
0.178876
0.178875
0.178873
0.178871
0.178869
0.178867
0.178864
0.178861
0.178857
0.178853
0.178849
0.178845
0.17884
0.178835
0.17883
0.178825
0.17882
0.178815
0.17881
0.178806
0.178801
0.178797
0.178793
0.17879
0.178788
0.178787
0.178789
0.178825
0.219443
0.219403
0.2194
0.219402
0.219406
0.219412
0.219418
0.219425
0.219432
0.21944
0.219449
0.219457
0.219466
0.219475
0.219483
0.219491
0.219499
0.219506
0.219513
0.21952
0.219526
0.219531
0.219536
0.21954
0.219544
0.219547
0.219549
0.219551
0.219552
0.219553
0.219553
0.219552
0.219551
0.219549
0.219547
0.219544
0.21954
0.219536
0.219531
0.219526
0.21952
0.219513
0.219506
0.219499
0.219491
0.219483
0.219475
0.219466
0.219457
0.219449
0.21944
0.219432
0.219425
0.219418
0.219412
0.219406
0.219402
0.2194
0.219403
0.219443
0.248076
0.248034
0.248031
0.248035
0.248041
0.248048
0.248057
0.248067
0.248078
0.24809
0.248101
0.248114
0.248126
0.248138
0.24815
0.248162
0.248173
0.248183
0.248193
0.248202
0.248211
0.248219
0.248225
0.248231
0.248237
0.248241
0.248244
0.248247
0.248249
0.24825
0.24825
0.248249
0.248247
0.248244
0.248241
0.248237
0.248231
0.248225
0.248219
0.248211
0.248202
0.248193
0.248183
0.248173
0.248162
0.24815
0.248138
0.248126
0.248114
0.248101
0.24809
0.248078
0.248067
0.248057
0.248048
0.248041
0.248035
0.248031
0.248034
0.248076
0.272946
0.272905
0.272902
0.272907
0.272915
0.272925
0.272936
0.27295
0.272964
0.272979
0.272994
0.27301
0.273026
0.273042
0.273058
0.273073
0.273087
0.273101
0.273114
0.273126
0.273137
0.273147
0.273156
0.273164
0.273171
0.273176
0.273181
0.273184
0.273187
0.273188
0.273188
0.273187
0.273184
0.273181
0.273176
0.273171
0.273164
0.273156
0.273147
0.273137
0.273126
0.273114
0.273101
0.273087
0.273073
0.273058
0.273042
0.273026
0.27301
0.272994
0.272979
0.272964
0.27295
0.272936
0.272925
0.272915
0.272907
0.272902
0.272905
0.272946
0.296571
0.29653
0.296528
0.296534
0.296544
0.296556
0.296571
0.296587
0.296605
0.296623
0.296643
0.296662
0.296682
0.296702
0.296721
0.29674
0.296758
0.296775
0.296791
0.296806
0.29682
0.296832
0.296844
0.296853
0.296862
0.296869
0.296874
0.296878
0.296881
0.296883
0.296883
0.296881
0.296878
0.296874
0.296869
0.296862
0.296853
0.296844
0.296832
0.29682
0.296806
0.296791
0.296775
0.296758
0.29674
0.296721
0.296702
0.296682
0.296662
0.296643
0.296623
0.296605
0.296587
0.296571
0.296556
0.296544
0.296534
0.296528
0.29653
0.296571
0.319758
0.319718
0.319717
0.319724
0.319736
0.319751
0.319769
0.319788
0.319809
0.319831
0.319855
0.319878
0.319902
0.319926
0.319949
0.319972
0.319993
0.320014
0.320033
0.320051
0.320068
0.320083
0.320096
0.320108
0.320118
0.320126
0.320133
0.320138
0.320141
0.320143
0.320143
0.320141
0.320138
0.320133
0.320126
0.320118
0.320108
0.320096
0.320083
0.320068
0.320051
0.320033
0.320014
0.319993
0.319972
0.319949
0.319926
0.319902
0.319878
0.319855
0.319831
0.319809
0.319788
0.319769
0.319751
0.319736
0.319724
0.319717
0.319718
0.319758
0.342826
0.342787
0.342787
0.342796
0.34281
0.342827
0.342848
0.34287
0.342895
0.342921
0.342949
0.342976
0.343004
0.343032
0.343059
0.343086
0.343111
0.343135
0.343158
0.343179
0.343198
0.343216
0.343231
0.343245
0.343257
0.343267
0.343275
0.34328
0.343284
0.343286
0.343286
0.343284
0.34328
0.343275
0.343267
0.343257
0.343245
0.343231
0.343216
0.343198
0.343179
0.343158
0.343135
0.343111
0.343086
0.343059
0.343032
0.343004
0.342976
0.342949
0.342921
0.342895
0.34287
0.342848
0.342827
0.34281
0.342796
0.342787
0.342787
0.342826
0.36595
0.365913
0.365913
0.365923
0.36594
0.36596
0.365983
0.36601
0.366038
0.366068
0.3661
0.366132
0.366164
0.366196
0.366227
0.366258
0.366287
0.366315
0.366341
0.366365
0.366387
0.366407
0.366425
0.366441
0.366454
0.366466
0.366475
0.366482
0.366486
0.366488
0.366488
0.366486
0.366482
0.366475
0.366466
0.366454
0.366441
0.366425
0.366407
0.366387
0.366365
0.366341
0.366315
0.366287
0.366258
0.366227
0.366196
0.366164
0.366132
0.3661
0.366068
0.366038
0.36601
0.365983
0.36596
0.36594
0.365923
0.365913
0.365913
0.36595
0.389258
0.389222
0.389223
0.389235
0.389254
0.389277
0.389303
0.389333
0.389366
0.3894
0.389436
0.389472
0.389509
0.389545
0.38958
0.389615
0.389648
0.38968
0.389709
0.389737
0.389762
0.389785
0.389805
0.389823
0.389838
0.389851
0.389862
0.389869
0.389874
0.389877
0.389877
0.389874
0.389869
0.389862
0.389851
0.389838
0.389823
0.389805
0.389785
0.389762
0.389737
0.389709
0.38968
0.389648
0.389615
0.38958
0.389545
0.389509
0.389472
0.389436
0.3894
0.389366
0.389333
0.389303
0.389277
0.389254
0.389235
0.389223
0.389222
0.389258
0.412856
0.412821
0.412823
0.412837
0.412858
0.412884
0.412914
0.412947
0.412984
0.413022
0.413062
0.413103
0.413144
0.413185
0.413225
0.413264
0.413301
0.413336
0.413369
0.4134
0.413428
0.413454
0.413477
0.413497
0.413514
0.413529
0.41354
0.413549
0.413555
0.413558
0.413558
0.413555
0.413549
0.41354
0.413529
0.413514
0.413497
0.413477
0.413454
0.413428
0.4134
0.413369
0.413336
0.413301
0.413264
0.413225
0.413185
0.413144
0.413103
0.413062
0.413022
0.412984
0.412947
0.412914
0.412884
0.412858
0.412837
0.412823
0.412821
0.412856
0.436835
0.436802
0.436805
0.43682
0.436843
0.436872
0.436905
0.436943
0.436983
0.437026
0.437071
0.437116
0.437162
0.437207
0.437252
0.437295
0.437336
0.437375
0.437412
0.437447
0.437478
0.437507
0.437532
0.437555
0.437574
0.43759
0.437603
0.437612
0.437619
0.437622
0.437622
0.437619
0.437612
0.437603
0.43759
0.437574
0.437555
0.437532
0.437507
0.437478
0.437447
0.437412
0.437375
0.437336
0.437295
0.437252
0.437207
0.437162
0.437116
0.437071
0.437026
0.436983
0.436943
0.436905
0.436872
0.436843
0.43682
0.436805
0.436802
0.436835
0.461274
0.461243
0.461247
0.461264
0.46129
0.461321
0.461358
0.4614
0.461444
0.461492
0.461541
0.461591
0.461641
0.461691
0.461741
0.461788
0.461834
0.461877
0.461918
0.461956
0.461991
0.462022
0.46205
0.462075
0.462097
0.462114
0.462128
0.462139
0.462146
0.46215
0.46215
0.462146
0.462139
0.462128
0.462114
0.462097
0.462075
0.46205
0.462022
0.461991
0.461956
0.461918
0.461877
0.461834
0.461788
0.461741
0.461691
0.461641
0.461591
0.461541
0.461492
0.461444
0.4614
0.461358
0.461321
0.46129
0.461264
0.461247
0.461243
0.461274
0.486244
0.486214
0.48622
0.486239
0.486267
0.486302
0.486343
0.486388
0.486437
0.486489
0.486543
0.486598
0.486653
0.486708
0.486762
0.486814
0.486864
0.486912
0.486957
0.486998
0.487037
0.487071
0.487102
0.487129
0.487153
0.487172
0.487188
0.487199
0.487207
0.487211
0.487211
0.487207
0.487199
0.487188
0.487172
0.487153
0.487129
0.487102
0.487071
0.487037
0.486998
0.486957
0.486912
0.486864
0.486814
0.486762
0.486708
0.486653
0.486598
0.486543
0.486489
0.486437
0.486388
0.486343
0.486302
0.486267
0.486239
0.48622
0.486214
0.486244
0.511806
0.511779
0.511786
0.511807
0.511837
0.511875
0.51192
0.511969
0.512023
0.512079
0.512138
0.512198
0.512259
0.512319
0.512378
0.512435
0.512489
0.512541
0.51259
0.512636
0.512677
0.512715
0.512749
0.512778
0.512804
0.512825
0.512842
0.512855
0.512863
0.512868
0.512868
0.512863
0.512855
0.512842
0.512825
0.512804
0.512778
0.512749
0.512715
0.512677
0.512636
0.51259
0.512541
0.512489
0.512435
0.512378
0.512319
0.512259
0.512198
0.512138
0.512079
0.512023
0.511969
0.51192
0.511875
0.511837
0.511807
0.511786
0.511779
0.511806
0.538016
0.537991
0.537999
0.538022
0.538055
0.538097
0.538145
0.538199
0.538257
0.538318
0.538382
0.538448
0.538513
0.538578
0.538642
0.538704
0.538764
0.53882
0.538873
0.538923
0.538968
0.539009
0.539045
0.539078
0.539105
0.539128
0.539147
0.539161
0.53917
0.539175
0.539175
0.53917
0.539161
0.539147
0.539128
0.539105
0.539078
0.539045
0.539009
0.538968
0.538923
0.538873
0.53882
0.538764
0.538704
0.538642
0.538578
0.538513
0.538448
0.538382
0.538318
0.538257
0.538199
0.538145
0.538097
0.538055
0.538022
0.537999
0.537991
0.538016
0.564922
0.564899
0.564908
0.564934
0.56497
0.565015
0.565067
0.565125
0.565188
0.565254
0.565324
0.565394
0.565465
0.565536
0.565605
0.565672
0.565736
0.565797
0.565855
0.565908
0.565957
0.566001
0.566041
0.566076
0.566106
0.566131
0.566151
0.566166
0.566176
0.566181
0.566181
0.566176
0.566166
0.566151
0.566131
0.566106
0.566076
0.566041
0.566001
0.565957
0.565908
0.565855
0.565797
0.565736
0.565672
0.565605
0.565536
0.565465
0.565394
0.565324
0.565254
0.565188
0.565125
0.565067
0.565015
0.56497
0.564934
0.564908
0.564899
0.564922
0.592568
0.592548
0.592558
0.592586
0.592625
0.592673
0.592729
0.592792
0.59286
0.592932
0.593006
0.593083
0.593159
0.593235
0.59331
0.593382
0.593451
0.593517
0.593579
0.593636
0.593689
0.593737
0.59378
0.593817
0.593849
0.593876
0.593898
0.593914
0.593925
0.59393
0.59393
0.593925
0.593914
0.593898
0.593876
0.593849
0.593817
0.59378
0.593737
0.593689
0.593636
0.593579
0.593517
0.593451
0.593382
0.59331
0.593235
0.593159
0.593083
0.593006
0.592932
0.59286
0.592792
0.592729
0.592673
0.592625
0.592586
0.592558
0.592548
0.592568
0.620995
0.620977
0.620989
0.621019
0.621061
0.621113
0.621173
0.62124
0.621313
0.62139
0.621471
0.621552
0.621635
0.621716
0.621796
0.621874
0.621949
0.622019
0.622086
0.622147
0.622204
0.622256
0.622301
0.622342
0.622376
0.622405
0.622429
0.622446
0.622457
0.622463
0.622463
0.622457
0.622446
0.622429
0.622405
0.622376
0.622342
0.622301
0.622256
0.622204
0.622147
0.622086
0.622019
0.621949
0.621874
0.621796
0.621716
0.621635
0.621552
0.621471
0.62139
0.621313
0.62124
0.621173
0.621113
0.621061
0.621019
0.620989
0.620977
0.620995
0.650239
0.650223
0.650237
0.650269
0.650314
0.65037
0.650434
0.650507
0.650585
0.650667
0.650753
0.650841
0.650929
0.651017
0.651103
0.651186
0.651266
0.651341
0.651413
0.651479
0.651539
0.651594
0.651644
0.651687
0.651724
0.651755
0.65178
0.651798
0.651811
0.651817
0.651817
0.651811
0.651798
0.65178
0.651755
0.651724
0.651687
0.651644
0.651594
0.651539
0.651479
0.651413
0.651341
0.651266
0.651186
0.651103
0.651017
0.650929
0.650841
0.650753
0.650667
0.650585
0.650507
0.650434
0.65037
0.650314
0.650269
0.650237
0.650223
0.650239
0.680335
0.680322
0.680337
0.680372
0.68042
0.680479
0.680549
0.680626
0.680709
0.680798
0.680889
0.680983
0.681077
0.681171
0.681263
0.681352
0.681437
0.681518
0.681594
0.681665
0.681729
0.681788
0.681841
0.681887
0.681927
0.68196
0.681986
0.682006
0.682019
0.682026
0.682026
0.682019
0.682006
0.681986
0.68196
0.681927
0.681887
0.681841
0.681788
0.681729
0.681665
0.681594
0.681518
0.681437
0.681352
0.681263
0.681171
0.681077
0.680983
0.680889
0.680798
0.680709
0.680626
0.680549
0.680479
0.68042
0.680372
0.680337
0.680322
0.680335
0.711316
0.711305
0.711323
0.71136
0.711411
0.711475
0.711549
0.711631
0.71172
0.711814
0.711912
0.712012
0.712113
0.712212
0.71231
0.712405
0.712496
0.712582
0.712663
0.712739
0.712808
0.71287
0.712926
0.712976
0.713018
0.713053
0.713082
0.713103
0.713117
0.713124
0.713124
0.713117
0.713103
0.713082
0.713053
0.713018
0.712976
0.712926
0.71287
0.712808
0.712739
0.712663
0.712582
0.712496
0.712405
0.71231
0.712212
0.712113
0.712012
0.711912
0.711814
0.71172
0.711631
0.711549
0.711475
0.711411
0.71136
0.711323
0.711305
0.711316
0.743215
0.743207
0.743226
0.743266
0.74332
0.743388
0.743467
0.743554
0.743649
0.743749
0.743853
0.74396
0.744067
0.744173
0.744277
0.744378
0.744475
0.744566
0.744653
0.744733
0.744806
0.744873
0.744933
0.744985
0.74503
0.745068
0.745098
0.74512
0.745135
0.745143
0.745143
0.745135
0.74512
0.745098
0.745068
0.74503
0.744985
0.744933
0.744873
0.744806
0.744733
0.744653
0.744566
0.744475
0.744378
0.744277
0.744173
0.744067
0.74396
0.743853
0.743749
0.743649
0.743554
0.743467
0.743388
0.74332
0.743266
0.743226
0.743207
0.743215
0.776062
0.776057
0.776078
0.77612
0.776179
0.77625
0.776334
0.776427
0.776528
0.776634
0.776745
0.776858
0.776971
0.777084
0.777195
0.777302
0.777404
0.777502
0.777594
0.777679
0.777757
0.777828
0.777891
0.777947
0.777994
0.778034
0.778066
0.77809
0.778106
0.778114
0.778114
0.778106
0.77809
0.778066
0.778034
0.777994
0.777947
0.777891
0.777828
0.777757
0.777679
0.777594
0.777502
0.777404
0.777302
0.777195
0.777084
0.776971
0.776858
0.776745
0.776634
0.776528
0.776427
0.776334
0.77625
0.776179
0.77612
0.776078
0.776057
0.776062
0.80989
0.809887
0.80991
0.809955
0.810017
0.810094
0.810182
0.810281
0.810387
0.8105
0.810618
0.810737
0.810858
0.810977
0.811095
0.811208
0.811317
0.811421
0.811518
0.811608
0.811691
0.811766
0.811833
0.811892
0.811942
0.811985
0.812019
0.812044
0.812061
0.812069
0.812069
0.812061
0.812044
0.812019
0.811985
0.811942
0.811892
0.811833
0.811766
0.811691
0.811608
0.811518
0.811421
0.811317
0.811208
0.811095
0.810977
0.810858
0.810737
0.810618
0.8105
0.810387
0.810281
0.810182
0.810094
0.810017
0.809955
0.80991
0.809887
0.80989
0.84473
0.844729
0.844754
0.844802
0.844868
0.844948
0.845042
0.845147
0.84526
0.845379
0.845503
0.84563
0.845758
0.845884
0.846008
0.846128
0.846244
0.846353
0.846456
0.846552
0.846639
0.846719
0.84679
0.846852
0.846906
0.84695
0.846986
0.847013
0.847031
0.84704
0.84704
0.847031
0.847013
0.846986
0.84695
0.846906
0.846852
0.84679
0.846719
0.846639
0.846552
0.846456
0.846353
0.846244
0.846128
0.846008
0.845884
0.845758
0.84563
0.845503
0.845379
0.84526
0.845147
0.845042
0.844948
0.844868
0.844802
0.844754
0.844729
0.84473
0.880612
0.880613
0.880641
0.880692
0.880762
0.880847
0.880946
0.881056
0.881176
0.881303
0.881434
0.881568
0.881703
0.881836
0.881967
0.882094
0.882216
0.882332
0.882441
0.882542
0.882634
0.882718
0.882793
0.882859
0.882916
0.882963
0.883001
0.883029
0.883048
0.883058
0.883058
0.883048
0.883029
0.883001
0.882963
0.882916
0.882859
0.882793
0.882718
0.882634
0.882542
0.882441
0.882332
0.882216
0.882094
0.881967
0.881836
0.881703
0.881568
0.881434
0.881303
0.881176
0.881056
0.880946
0.880847
0.880762
0.880692
0.880641
0.880613
0.880612
0.91757
0.917574
0.917604
0.917658
0.917731
0.917821
0.917926
0.918043
0.918169
0.918302
0.918441
0.918582
0.918725
0.918866
0.919004
0.919138
0.919267
0.919389
0.919504
0.91961
0.919708
0.919797
0.919876
0.919946
0.920005
0.920055
0.920095
0.920125
0.920145
0.920155
0.920155
0.920145
0.920125
0.920095
0.920055
0.920005
0.919946
0.919876
0.919797
0.919708
0.91961
0.919504
0.919389
0.919267
0.919138
0.919004
0.918866
0.918725
0.918582
0.918441
0.918302
0.918169
0.918043
0.917926
0.917821
0.917731
0.917658
0.917604
0.917574
0.91757
0.955636
0.955642
0.955675
0.955732
0.955809
0.955905
0.956015
0.956138
0.956271
0.956412
0.956558
0.956707
0.956857
0.957006
0.957152
0.957293
0.957429
0.957558
0.957678
0.957791
0.957894
0.957987
0.958071
0.958144
0.958207
0.95826
0.958302
0.958333
0.958354
0.958365
0.958365
0.958354
0.958333
0.958302
0.95826
0.958207
0.958144
0.958071
0.957987
0.957894
0.957791
0.957678
0.957558
0.957429
0.957293
0.957152
0.957006
0.956857
0.956707
0.956558
0.956412
0.956271
0.956138
0.956015
0.955905
0.955809
0.955732
0.955675
0.955642
0.955636
0.994844
0.994853
0.994888
0.994948
0.99503
0.99513
0.995246
0.995376
0.995516
0.995664
0.995818
0.995975
0.996133
0.99629
0.996444
0.996593
0.996736
0.996871
0.996998
0.997117
0.997225
0.997323
0.997411
0.997489
0.997555
0.99761
0.997655
0.997688
0.99771
0.997721
0.997721
0.99771
0.997688
0.997655
0.99761
0.997555
0.997489
0.997411
0.997323
0.997225
0.997117
0.996998
0.996871
0.996736
0.996593
0.996444
0.99629
0.996133
0.995975
0.995818
0.995664
0.995516
0.995376
0.995246
0.99513
0.99503
0.994948
0.994888
0.994853
0.994844
1.03523
1.03524
1.03528
1.03534
1.03543
1.03553
1.03565
1.03579
1.03594
1.03609
1.03626
1.03642
1.03659
1.03675
1.03691
1.03707
1.03722
1.03736
1.0375
1.03762
1.03774
1.03784
1.03793
1.03801
1.03808
1.03814
1.03819
1.03822
1.03825
1.03826
1.03826
1.03825
1.03822
1.03819
1.03814
1.03808
1.03801
1.03793
1.03784
1.03774
1.03762
1.0375
1.03736
1.03722
1.03707
1.03691
1.03675
1.03659
1.03642
1.03626
1.03609
1.03594
1.03579
1.03565
1.03553
1.03543
1.03534
1.03528
1.03524
1.03523
1.07683
1.07684
1.07688
1.07695
1.07704
1.07715
1.07728
1.07742
1.07757
1.07774
1.07791
1.07808
1.07826
1.07843
1.0786
1.07877
1.07892
1.07907
1.07921
1.07934
1.07946
1.07957
1.07967
1.07976
1.07983
1.07989
1.07994
1.07998
1.08
1.08001
1.08001
1.08
1.07998
1.07994
1.07989
1.07983
1.07976
1.07967
1.07957
1.07946
1.07934
1.07921
1.07907
1.07892
1.07877
1.0786
1.07843
1.07826
1.07808
1.07791
1.07774
1.07757
1.07742
1.07728
1.07715
1.07704
1.07695
1.07688
1.07684
1.07683
1.11967
1.11969
1.11973
1.1198
1.11989
1.12001
1.12015
1.1203
1.12046
1.12063
1.12081
1.12099
1.12118
1.12136
1.12154
1.12171
1.12188
1.12203
1.12218
1.12232
1.12244
1.12256
1.12266
1.12275
1.12283
1.12289
1.12294
1.12298
1.12301
1.12302
1.12302
1.12301
1.12298
1.12294
1.12289
1.12283
1.12275
1.12266
1.12256
1.12244
1.12232
1.12218
1.12203
1.12188
1.12171
1.12154
1.12136
1.12118
1.12099
1.12081
1.12063
1.12046
1.1203
1.12015
1.12001
1.11989
1.1198
1.11973
1.11969
1.11967
1.1638
1.16382
1.16386
1.16394
1.16404
1.16416
1.1643
1.16446
1.16463
1.16481
1.165
1.16519
1.16538
1.16558
1.16576
1.16594
1.16612
1.16628
1.16644
1.16658
1.16671
1.16683
1.16694
1.16703
1.16711
1.16718
1.16724
1.16728
1.1673
1.16732
1.16732
1.1673
1.16728
1.16724
1.16718
1.16711
1.16703
1.16694
1.16683
1.16671
1.16658
1.16644
1.16628
1.16612
1.16594
1.16576
1.16558
1.16538
1.16519
1.165
1.16481
1.16463
1.16446
1.1643
1.16416
1.16404
1.16394
1.16386
1.16382
1.1638
1.20926
1.20928
1.20932
1.2094
1.20951
1.20964
1.20979
1.20995
1.21013
1.21032
1.21052
1.21072
1.21092
1.21112
1.21132
1.21151
1.21169
1.21186
1.21202
1.21217
1.21231
1.21244
1.21255
1.21265
1.21273
1.2128
1.21286
1.2129
1.21293
1.21294
1.21294
1.21293
1.2129
1.21286
1.2128
1.21273
1.21265
1.21255
1.21244
1.21231
1.21217
1.21202
1.21186
1.21169
1.21151
1.21132
1.21112
1.21092
1.21072
1.21052
1.21032
1.21013
1.20995
1.20979
1.20964
1.20951
1.2094
1.20932
1.20928
1.20926
1.25608
1.2561
1.25615
1.25623
1.25634
1.25648
1.25663
1.25681
1.25699
1.25719
1.2574
1.25761
1.25782
1.25803
1.25824
1.25844
1.25863
1.25881
1.25898
1.25914
1.25928
1.25941
1.25953
1.25963
1.25972
1.25979
1.25985
1.2599
1.25993
1.25994
1.25994
1.25993
1.2599
1.25985
1.25979
1.25972
1.25963
1.25953
1.25941
1.25928
1.25914
1.25898
1.25881
1.25863
1.25844
1.25824
1.25803
1.25782
1.25761
1.2574
1.25719
1.25699
1.25681
1.25663
1.25648
1.25634
1.25623
1.25615
1.2561
1.25608
1.3043
1.30432
1.30438
1.30447
1.30458
1.30472
1.30489
1.30507
1.30527
1.30547
1.30569
1.30591
1.30613
1.30635
1.30657
1.30677
1.30697
1.30716
1.30734
1.30751
1.30766
1.3078
1.30792
1.30803
1.30812
1.3082
1.30826
1.3083
1.30833
1.30835
1.30835
1.30833
1.3083
1.30826
1.3082
1.30812
1.30803
1.30792
1.3078
1.30766
1.30751
1.30734
1.30716
1.30697
1.30677
1.30657
1.30635
1.30613
1.30591
1.30569
1.30547
1.30527
1.30507
1.30489
1.30472
1.30458
1.30447
1.30438
1.30432
1.3043
1.35397
1.354
1.35406
1.35415
1.35427
1.35442
1.35459
1.35478
1.35498
1.3552
1.35543
1.35566
1.35589
1.35612
1.35634
1.35656
1.35677
1.35697
1.35716
1.35733
1.35749
1.35763
1.35776
1.35787
1.35797
1.35805
1.35811
1.35816
1.3582
1.35821
1.35821
1.3582
1.35816
1.35811
1.35805
1.35797
1.35787
1.35776
1.35763
1.35749
1.35733
1.35716
1.35697
1.35677
1.35656
1.35634
1.35612
1.35589
1.35566
1.35543
1.3552
1.35498
1.35478
1.35459
1.35442
1.35427
1.35415
1.35406
1.354
1.35397
1.40514
1.40516
1.40523
1.40532
1.40545
1.4056
1.40578
1.40598
1.4062
1.40642
1.40666
1.4069
1.40714
1.40738
1.40762
1.40785
1.40807
1.40827
1.40847
1.40865
1.40881
1.40896
1.4091
1.40922
1.40932
1.4094
1.40947
1.40952
1.40955
1.40957
1.40957
1.40955
1.40952
1.40947
1.4094
1.40932
1.40922
1.4091
1.40896
1.40881
1.40865
1.40847
1.40827
1.40807
1.40785
1.40762
1.40738
1.40714
1.4069
1.40666
1.40642
1.4062
1.40598
1.40578
1.4056
1.40545
1.40532
1.40523
1.40516
1.40514
1.45783
1.45786
1.45793
1.45803
1.45816
1.45832
1.45851
1.45872
1.45895
1.45918
1.45943
1.45968
1.45994
1.46019
1.46043
1.46067
1.4609
1.46111
1.46132
1.46151
1.46168
1.46184
1.46198
1.4621
1.46221
1.46229
1.46236
1.46242
1.46245
1.46247
1.46247
1.46245
1.46242
1.46236
1.46229
1.46221
1.4621
1.46198
1.46184
1.46168
1.46151
1.46132
1.46111
1.4609
1.46067
1.46043
1.46019
1.45994
1.45968
1.45943
1.45918
1.45895
1.45872
1.45851
1.45832
1.45816
1.45803
1.45793
1.45786
1.45783
1.51211
1.51215
1.51222
1.51232
1.51246
1.51263
1.51282
1.51304
1.51328
1.51353
1.51378
1.51405
1.51431
1.51457
1.51483
1.51508
1.51532
1.51554
1.51576
1.51595
1.51613
1.5163
1.51644
1.51657
1.51668
1.51677
1.51685
1.5169
1.51694
1.51696
1.51696
1.51694
1.5169
1.51685
1.51677
1.51668
1.51657
1.51644
1.5163
1.51613
1.51595
1.51576
1.51554
1.51532
1.51508
1.51483
1.51457
1.51431
1.51405
1.51378
1.51353
1.51328
1.51304
1.51282
1.51263
1.51246
1.51232
1.51222
1.51215
1.51211
1.56802
1.56806
1.56813
1.56824
1.56839
1.56856
1.56877
1.56899
1.56924
1.5695
1.56977
1.57004
1.57032
1.57059
1.57086
1.57112
1.57137
1.57161
1.57183
1.57203
1.57222
1.57239
1.57254
1.57268
1.57279
1.57289
1.57297
1.57302
1.57306
1.57308
1.57308
1.57306
1.57302
1.57297
1.57289
1.57279
1.57268
1.57254
1.57239
1.57222
1.57203
1.57183
1.57161
1.57137
1.57112
1.57086
1.57059
1.57032
1.57004
1.56977
1.5695
1.56924
1.56899
1.56877
1.56856
1.56839
1.56824
1.56813
1.56806
1.56802
1.62561
1.62565
1.62572
1.62584
1.62599
1.62618
1.62639
1.62663
1.62688
1.62715
1.62744
1.62772
1.62801
1.6283
1.62858
1.62885
1.62911
1.62935
1.62958
1.6298
1.62999
1.63017
1.63033
1.63047
1.63059
1.63069
1.63077
1.63083
1.63087
1.63089
1.63089
1.63087
1.63083
1.63077
1.63069
1.63059
1.63047
1.63033
1.63017
1.62999
1.6298
1.62958
1.62935
1.62911
1.62885
1.62858
1.6283
1.62801
1.62772
1.62744
1.62715
1.62688
1.62663
1.62639
1.62618
1.62599
1.62584
1.62572
1.62565
1.62561
1.68493
1.68496
1.68504
1.68517
1.68532
1.68552
1.68574
1.68599
1.68626
1.68654
1.68683
1.68713
1.68743
1.68773
1.68802
1.6883
1.68857
1.68883
1.68907
1.6893
1.6895
1.68969
1.68985
1.69
1.69012
1.69023
1.69031
1.69037
1.69041
1.69043
1.69043
1.69041
1.69037
1.69031
1.69023
1.69012
1.69
1.68985
1.68969
1.6895
1.6893
1.68907
1.68883
1.68857
1.6883
1.68802
1.68773
1.68743
1.68713
1.68683
1.68654
1.68626
1.68599
1.68574
1.68552
1.68532
1.68517
1.68504
1.68496
1.68493
1.74602
1.74606
1.74615
1.74627
1.74644
1.74664
1.74687
1.74713
1.74741
1.74771
1.74801
1.74832
1.74864
1.74895
1.74925
1.74955
1.74983
1.7501
1.75035
1.75058
1.75079
1.75099
1.75116
1.75131
1.75144
1.75155
1.75164
1.7517
1.75174
1.75177
1.75177
1.75174
1.7517
1.75164
1.75155
1.75144
1.75131
1.75116
1.75099
1.75079
1.75058
1.75035
1.7501
1.74983
1.74955
1.74925
1.74895
1.74864
1.74832
1.74801
1.74771
1.74741
1.74713
1.74687
1.74664
1.74644
1.74627
1.74615
1.74606
1.74602
1.80895
1.80899
1.80908
1.80921
1.80939
1.8096
1.80984
1.81011
1.8104
1.81071
1.81103
1.81135
1.81168
1.812
1.81232
1.81263
1.81292
1.8132
1.81346
1.8137
1.81393
1.81413
1.81431
1.81447
1.8146
1.81471
1.8148
1.81487
1.81492
1.81494
1.81494
1.81492
1.81487
1.8148
1.81471
1.8146
1.81447
1.81431
1.81413
1.81393
1.8137
1.81346
1.8132
1.81292
1.81263
1.81232
1.812
1.81168
1.81135
1.81103
1.81071
1.8104
1.81011
1.80984
1.8096
1.80939
1.80921
1.80908
1.80899
1.80895
1.87377
1.87381
1.8739
1.87404
1.87422
1.87444
1.8747
1.87498
1.87528
1.8756
1.87594
1.87627
1.87662
1.87695
1.87728
1.8776
1.87791
1.8782
1.87847
1.87872
1.87895
1.87916
1.87935
1.87952
1.87966
1.87977
1.87987
1.87994
1.87999
1.88001
1.88001
1.87999
1.87994
1.87987
1.87977
1.87966
1.87952
1.87935
1.87916
1.87895
1.87872
1.87847
1.8782
1.87791
1.8776
1.87728
1.87695
1.87662
1.87627
1.87594
1.8756
1.87528
1.87498
1.8747
1.87444
1.87422
1.87404
1.8739
1.87381
1.87377
1.94053
1.94058
1.94067
1.94082
1.94101
1.94124
1.9415
1.94179
1.94211
1.94244
1.94279
1.94314
1.9435
1.94385
1.94419
1.94453
1.94485
1.94515
1.94543
1.94569
1.94593
1.94615
1.94635
1.94652
1.94667
1.94679
1.94689
1.94696
1.94701
1.94703
1.94703
1.94701
1.94696
1.94689
1.94679
1.94667
1.94652
1.94635
1.94615
1.94593
1.94569
1.94543
1.94515
1.94485
1.94453
1.94419
1.94385
1.9435
1.94314
1.94279
1.94244
1.94211
1.94179
1.9415
1.94124
1.94101
1.94082
1.94067
1.94058
1.94053
2.00929
2.00934
2.00945
2.0096
2.00979
2.01003
2.01031
2.01061
2.01094
2.01129
2.01165
2.01202
2.01239
2.01276
2.01312
2.01346
2.01379
2.01411
2.0144
2.01468
2.01493
2.01515
2.01536
2.01553
2.01569
2.01581
2.01592
2.01599
2.01604
2.01607
2.01607
2.01604
2.01599
2.01592
2.01581
2.01569
2.01553
2.01536
2.01515
2.01493
2.01468
2.0144
2.01411
2.01379
2.01346
2.01312
2.01276
2.01239
2.01202
2.01165
2.01129
2.01094
2.01061
2.01031
2.01003
2.00979
2.0096
2.00945
2.00934
2.00929
2.08012
2.08018
2.08028
2.08044
2.08064
2.08089
2.08118
2.0815
2.08184
2.08221
2.08258
2.08297
2.08335
2.08373
2.08411
2.08447
2.08481
2.08514
2.08544
2.08573
2.08599
2.08623
2.08644
2.08662
2.08678
2.08691
2.08702
2.0871
2.08715
2.08718
2.08718
2.08715
2.0871
2.08702
2.08691
2.08678
2.08662
2.08644
2.08623
2.08599
2.08573
2.08544
2.08514
2.08481
2.08447
2.08411
2.08373
2.08335
2.08297
2.08258
2.08221
2.08184
2.0815
2.08118
2.08089
2.08064
2.08044
2.08028
2.08018
2.08012
2.15308
2.15313
2.15324
2.15341
2.15362
2.15388
2.15418
2.15451
2.15487
2.15525
2.15564
2.15604
2.15644
2.15684
2.15723
2.1576
2.15796
2.1583
2.15862
2.15891
2.15919
2.15943
2.15965
2.15984
2.16001
2.16014
2.16025
2.16034
2.16039
2.16042
2.16042
2.16039
2.16034
2.16025
2.16014
2.16001
2.15984
2.15965
2.15943
2.15919
2.15891
2.15862
2.1583
2.15796
2.1576
2.15723
2.15684
2.15644
2.15604
2.15564
2.15525
2.15487
2.15451
2.15418
2.15388
2.15362
2.15341
2.15324
2.15313
2.15308
2.22822
2.22828
2.22839
2.22857
2.22879
2.22906
2.22937
2.22972
2.23009
2.23049
2.23089
2.23131
2.23173
2.23214
2.23254
2.23293
2.23331
2.23366
2.23399
2.2343
2.23458
2.23483
2.23506
2.23526
2.23543
2.23558
2.23569
2.23578
2.23583
2.23586
2.23586
2.23583
2.23578
2.23569
2.23558
2.23543
2.23526
2.23506
2.23483
2.23458
2.2343
2.23399
2.23366
2.23331
2.23293
2.23254
2.23214
2.23173
2.23131
2.23089
2.23049
2.23009
2.22972
2.22937
2.22906
2.22879
2.22857
2.22839
2.22828
2.22822
2.30562
2.30568
2.3058
2.30598
2.30621
2.30649
2.30682
2.30718
2.30757
2.30798
2.3084
2.30884
2.30927
2.3097
2.31012
2.31052
2.31091
2.31128
2.31163
2.31194
2.31224
2.3125
2.31274
2.31295
2.31312
2.31327
2.31339
2.31348
2.31354
2.31357
2.31357
2.31354
2.31348
2.31339
2.31327
2.31312
2.31295
2.31274
2.3125
2.31224
2.31194
2.31163
2.31128
2.31091
2.31052
2.31012
2.3097
2.30927
2.30884
2.3084
2.30798
2.30757
2.30718
2.30682
2.30649
2.30621
2.30598
2.3058
2.30568
2.30562
2.38534
2.3854
2.38553
2.38571
2.38596
2.38625
2.38659
2.38696
2.38737
2.3878
2.38824
2.38869
2.38914
2.38959
2.39002
2.39045
2.39085
2.39123
2.39159
2.39192
2.39223
2.3925
2.39275
2.39296
2.39315
2.3933
2.39342
2.39352
2.39358
2.39361
2.39361
2.39358
2.39352
2.39342
2.3933
2.39315
2.39296
2.39275
2.3925
2.39223
2.39192
2.39159
2.39123
2.39085
2.39045
2.39002
2.38959
2.38914
2.38869
2.38824
2.3878
2.38737
2.38696
2.38659
2.38625
2.38596
2.38571
2.38553
2.3854
2.38534
2.46745
2.46751
2.46765
2.46784
2.46809
2.4684
2.46875
2.46915
2.46957
2.47001
2.47047
2.47094
2.47141
2.47188
2.47233
2.47277
2.47319
2.47359
2.47396
2.4743
2.47462
2.4749
2.47516
2.47538
2.47557
2.47573
2.47586
2.47596
2.47602
2.47605
2.47605
2.47602
2.47596
2.47586
2.47573
2.47557
2.47538
2.47516
2.4749
2.47462
2.4743
2.47396
2.47359
2.47319
2.47277
2.47233
2.47188
2.47141
2.47094
2.47047
2.47001
2.46957
2.46915
2.46875
2.4684
2.46809
2.46784
2.46765
2.46751
2.46745
2.55202
2.55209
2.55223
2.55243
2.5527
2.55302
2.55338
2.55379
2.55423
2.5547
2.55517
2.55566
2.55615
2.55663
2.55711
2.55756
2.558
2.55841
2.5588
2.55915
2.55948
2.55978
2.56004
2.56028
2.56047
2.56064
2.56077
2.56087
2.56094
2.56097
2.56097
2.56094
2.56087
2.56077
2.56064
2.56047
2.56028
2.56004
2.55978
2.55948
2.55915
2.5588
2.55841
2.558
2.55756
2.55711
2.55663
2.55615
2.55566
2.55517
2.5547
2.55423
2.55379
2.55338
2.55302
2.5527
2.55243
2.55223
2.55209
2.55202
2.63913
2.63921
2.63935
2.63956
2.63984
2.64017
2.64055
2.64098
2.64144
2.64192
2.64242
2.64292
2.64343
2.64394
2.64443
2.6449
2.64535
2.64578
2.64618
2.64655
2.6469
2.6472
2.64748
2.64772
2.64792
2.6481
2.64823
2.64834
2.64841
2.64844
2.64844
2.64841
2.64834
2.64823
2.6481
2.64792
2.64772
2.64748
2.6472
2.6469
2.64655
2.64618
2.64578
2.64535
2.6449
2.64443
2.64394
2.64343
2.64292
2.64242
2.64192
2.64144
2.64098
2.64055
2.64017
2.63984
2.63956
2.63935
2.63921
2.63913
2.72886
2.72893
2.72908
2.72931
2.72959
2.72994
2.73034
2.73078
2.73126
2.73176
2.73228
2.73281
2.73334
2.73386
2.73437
2.73486
2.73533
2.73578
2.73619
2.73658
2.73693
2.73725
2.73754
2.73779
2.738
2.73818
2.73832
2.73843
2.7385
2.73854
2.73854
2.7385
2.73843
2.73832
2.73818
2.738
2.73779