/*--------------------------------*- C++ -*----------------------------------*\
| =========                 |                                                 |
| \\      /  F ield         | foam-extend: Open Source CFD                    |
|  \\    /   O peration     | Version:     4.0                                |
|   \\  /    A nd           | Web:         http://www.foam-extend.org         |
|    \\/     M anipulation  |                                                 |
\*---------------------------------------------------------------------------*/
FoamFile
{
    version     2.0;
    format      ascii;
    class       volScalarField;
    location    "3";
    object      dC2;
}
// * * * * * * * * * * * * * * * * * * * * * * * * * * * * * * * * * * * * * //

dimensions      [0 -1 0 0 0 0 0];

internalField   nonuniform List<scalar> 
6960
(
1.15287e-11
-1.72974e-11
5.66853e-12
6.20333e-14
2.02358e-14
3.98223e-15
2.25649e-15
1.04939e-15
5.72781e-16
3.41985e-16
1.78499e-16
1.64161e-16
2.65166e-16
-1.20317e-16
2.02348e-16
9.5943e-17
1.5027e-16
-1.595e-16
-4.09927e-17
-1.13804e-16
1.67558e-16
1.59411e-16
8.09974e-17
1.25977e-16
-9.763e-18
-5.60946e-17
-1.62194e-16
-1.23355e-16
1.10757e-16
-1.27577e-16
1.8439e-17
1.5512e-16
1.95144e-16
1.20655e-16
2.71916e-17
8.01692e-17
8.14313e-17
4.48251e-18
-2.02638e-16
-1.64406e-16
-2.45732e-17
6.78932e-17
-1.39843e-16
1.5822e-16
-7.96399e-17
-3.24425e-17
-1.74579e-17
9.29356e-17
1.8163e-16
2.72505e-16
3.81299e-16
6.2757e-16
8.97742e-16
2.37465e-15
4.04428e-15
2.00165e-14
6.22868e-14
5.66852e-12
-1.72974e-11
1.15373e-11
1.43018e-12
-1.01038e-11
8.49521e-12
1.19466e-13
3.90987e-14
8.6652e-15
4.84293e-15
2.38177e-15
1.43386e-15
8.57838e-16
2.80411e-16
5.09858e-16
-1.11813e-16
2.49071e-16
-3.29119e-16
-2.37947e-16
7.79024e-17
2.44997e-16
1.2558e-16
2.13858e-16
-2.50796e-16
1.13812e-16
-2.37392e-16
-4.01562e-16
1.24984e-16
1.17007e-16
4.02908e-16
-8.53995e-17
4.96128e-17
-4.15681e-16
1.45805e-16
-2.43167e-16
-9.30071e-17
-3.54238e-17
1.42697e-16
-1.85526e-16
1.89863e-16
-3.48603e-17
7.97498e-17
-1.62224e-16
-2.30094e-17
1.92666e-16
1.865e-16
-9.59222e-17
7.24701e-17
3.35516e-16
1.41302e-16
1.68461e-16
1.01337e-16
3.62284e-16
6.61627e-16
1.22526e-15
2.0436e-15
4.29367e-15
8.62546e-15
3.93004e-14
1.19129e-13
8.49532e-12
-1.01033e-11
1.43147e-12
-1.46653e-11
1.06034e-11
3.93352e-12
8.51537e-14
2.89701e-14
5.78019e-15
3.40192e-15
1.70069e-15
9.45216e-16
6.7353e-16
3.34593e-16
-2.55835e-16
5.09743e-16
-2.12312e-16
4.49684e-16
2.17517e-16
-9.65425e-17
6.44026e-17
-4.53121e-18
4.05405e-16
-1.86873e-16
-1.14457e-17
5.05125e-16
1.0298e-16
-2.12244e-16
-1.09626e-17
1.37312e-17
6.04755e-16
9.64962e-17
2.99866e-16
-3.34837e-16
-6.51744e-18
1.78874e-16
9.98454e-17
2.89742e-16
3.07849e-16
-1.95303e-18
-3.91402e-16
-1.62595e-16
3.49269e-16
2.92592e-16
1.2789e-16
1.54564e-16
-2.67093e-16
7.59985e-17
-1.99976e-16
-4.56369e-17
5.99392e-16
3.24258e-16
3.80671e-16
7.15936e-16
1.37611e-15
1.59237e-15
3.37819e-15
6.06224e-15
2.91131e-14
8.49776e-14
3.93346e-12
1.06034e-11
-1.4665e-11
-5.51452e-12
3.60098e-12
1.84246e-12
4.68204e-14
1.66165e-14
3.96633e-15
2.05893e-15
8.22476e-16
4.80913e-16
-3.71465e-17
3.92467e-16
4.17394e-16
-5.99311e-17
2.66412e-16
-4.0706e-17
-2.92874e-16
9.90665e-17
6.47303e-17
1.23936e-16
-2.71425e-16
4.9855e-16
-1.05138e-16
-1.1767e-16
1.93197e-16
1.06146e-16
1.14585e-16
-2.34695e-16
-8.26831e-16
2.64675e-18
-1.25789e-16
7.73435e-17
2.40613e-16
-1.53548e-16
-3.50962e-16
-4.68225e-16
-3.90487e-16
3.57159e-16
4.20568e-16
-2.25145e-16
-2.0658e-16
-1.34232e-16
1.37117e-16
-3.16779e-16
-3.02917e-16
-1.59185e-16
3.54138e-16
-9.36431e-17
-4.28069e-16
-2.29061e-17
-1.73709e-18
4.39078e-16
5.04133e-16
8.3177e-16
1.94799e-15
3.23626e-15
1.63487e-14
4.73716e-14
1.84204e-12
3.60119e-12
-5.51442e-12
-2.6847e-12
1.49294e-12
1.13134e-12
3.89564e-14
1.41965e-14
3.13261e-15
1.4549e-15
8.88192e-16
5.72266e-16
2.89835e-16
2.95422e-16
1.36225e-16
3.1004e-17
3.31097e-17
2.35726e-16
3.03973e-16
2.54538e-16
-7.59558e-18
2.11627e-16
3.69425e-16
-2.04255e-16
-3.84295e-17
-1.09567e-16
-1.4682e-17
-2.17012e-17
-3.84109e-16
2.65148e-16
2.61765e-16
-8.28979e-18
-2.75719e-16
-1.0236e-16
-2.14742e-16
-7.8497e-17
1.95957e-17
1.17269e-16
1.73249e-16
-2.82595e-17
-1.12196e-16
1.6919e-17
1.70271e-16
5.01838e-17
1.93288e-16
4.85294e-16
1.6516e-16
3.16579e-16
2.97272e-17
1.70089e-16
2.86955e-16
1.49197e-16
5.88413e-16
1.91933e-16
3.00603e-16
4.07252e-16
2.32335e-15
3.47214e-15
1.39114e-14
3.87368e-14
1.13128e-12
1.49259e-12
-2.68455e-12
-2.40669e-12
1.27222e-12
1.0583e-12
4.77795e-14
1.80132e-14
4.34572e-15
2.69196e-15
1.19102e-15
5.50248e-16
3.99602e-16
1.10472e-16
-1.56753e-16
4.13126e-16
1.62342e-16
-7.76379e-17
1.05455e-16
-1.34413e-16
-1.9678e-17
2.24704e-16
-2.67615e-16
-1.87888e-16
1.04363e-16
-3.9405e-16
-2.57828e-17
2.14604e-16
2.48707e-16
7.05498e-17
-6.49186e-17
5.88215e-18
1.55604e-16
1.44177e-16
1.77772e-16
6.13907e-16
2.76238e-17
3.1225e-16
-2.78118e-16
-1.2069e-16
-4.12909e-17
-4.43242e-17
-3.61763e-16
1.07297e-16
-3.40353e-16
1.45947e-16
-1.60601e-16
-3.65553e-16
-3.81776e-16
-4.85408e-18
3.79473e-17
1.54155e-16
2.65722e-16
3.1703e-16
7.42282e-16
1.3396e-15
1.90577e-15
3.72429e-15
1.83467e-14
4.78226e-14
1.05873e-12
1.27271e-12
-2.40674e-12
-2.66813e-12
1.39958e-12
1.16586e-12
6.52569e-14
2.49107e-14
5.55963e-15
3.42361e-15
1.59042e-15
9.16938e-16
5.50445e-16
5.22826e-16
4.18346e-16
2.79936e-17
1.68876e-16
1.77304e-16
-7.0118e-17
1.47346e-16
4.00939e-16
-1.15801e-16
8.91915e-17
-7.59432e-17
-9.44252e-17
1.9933e-16
-3.73727e-16
-3.02848e-17
-1.47057e-16
7.4108e-17
2.00433e-17
-8.96832e-19
6.59074e-17
-8.24139e-17
-2.82566e-16
-3.48894e-16
1.36183e-16
-3.22168e-16
2.54809e-16
-2.44421e-17
3.82007e-16
-4.94813e-16
2.93601e-16
6.25601e-17
1.91933e-16
1.42521e-16
-2.56869e-17
-4.35044e-17
4.25517e-16
4.12192e-17
5.71285e-17
4.67514e-17
6.01273e-16
4.04107e-16
8.29881e-16
1.19938e-15
3.61704e-15
5.97332e-15
2.46028e-14
6.53058e-14
1.16563e-12
1.39902e-12
-2.66845e-12
-3.0122e-12
1.5511e-12
1.32001e-12
8.78451e-14
3.41061e-14
8.31809e-15
4.48437e-15
1.73923e-15
1.14592e-15
9.98273e-16
5.7217e-16
3.31047e-16
4.60248e-16
-1.11281e-17
2.613e-16
1.30922e-16
-1.86564e-16
-8.94999e-17
8.3601e-17
-2.42456e-16
1.01209e-16
2.72079e-16
4.4058e-16
3.20058e-17
3.55964e-16
3.0829e-17
-1.28317e-16
-1.14268e-16
1.19473e-16
-2.22418e-16
2.32439e-16
2.14111e-16
-1.59536e-16
-2.04451e-16
3.06096e-16
2.64557e-17
1.30755e-16
-6.30162e-17
3.63546e-16
1.23383e-16
1.68223e-16
-7.14212e-17
-5.77191e-17
1.01978e-16
4.82501e-16
8.97195e-17
7.38612e-17
4.9428e-16
4.13561e-16
3.91672e-16
7.16245e-16
1.33864e-15
2.09322e-15
4.89874e-15
8.21785e-15
3.41181e-14
8.75706e-14
1.32039e-12
1.55168e-12
-3.01246e-12
-3.35402e-12
1.68557e-12
1.48372e-12
1.14295e-13
4.49552e-14
1.11148e-14
6.48253e-15
2.85176e-15
2.32753e-15
8.53308e-16
6.81646e-16
4.80927e-16
5.73458e-16
4.67004e-16
3.21359e-16
-1.69066e-16
1.57692e-16
1.38822e-16
-1.79526e-17
3.17209e-17
3.51881e-18
-3.25345e-16
-3.39626e-16
5.6841e-17
-3.21886e-16
-4.53719e-17
1.14683e-16
1.01818e-16
-1.88645e-16
3.09265e-16
3.38573e-17
-6.65063e-17
2.33811e-16
2.46113e-16
-1.06105e-16
-5.03698e-17
-1.26992e-16
-2.53173e-16
1.14248e-16
-1.74566e-16
1.07285e-16
-1.3728e-16
-2.94892e-16
7.2047e-17
-3.52882e-16
4.51564e-16
5.1706e-16
1.77038e-16
1.82962e-16
7.16024e-16
8.69501e-16
1.77343e-15
2.3721e-15
6.48184e-15
1.1292e-14
4.50727e-14
1.13925e-13
1.48307e-12
1.68538e-12
-3.35375e-12
-3.69452e-12
1.81113e-12
1.64599e-12
1.4516e-13
5.81157e-14
1.49372e-14
8.26416e-15
3.65853e-15
2.47582e-15
1.3786e-15
1.37889e-15
6.38889e-16
-4.17081e-17
1.00808e-16
3.85922e-16
4.81732e-16
3.41488e-16
1.36506e-16
4.04484e-16
1.08277e-16
1.42951e-17
4.29772e-16
4.60325e-16
-2.23302e-16
-1.24043e-16
3.47392e-16
-6.14711e-17
6.22217e-17
1.76881e-16
-3.84145e-16
1.43219e-16
1.77252e-16
3.12225e-17
2.47506e-16
3.22111e-16
3.92184e-16
1.29749e-16
3.84877e-16
-1.72771e-16
2.75757e-16
-1.90289e-18
3.5099e-16
6.07495e-16
-1.41382e-16
3.57545e-16
1.8889e-16
4.52568e-16
3.32126e-16
6.17255e-16
7.68528e-16
1.50212e-15
2.35954e-15
4.02318e-15
8.40485e-15
1.46916e-14
5.81698e-14
1.45161e-13
1.64595e-12
1.81124e-12
-3.69437e-12
-4.03773e-12
1.93354e-12
1.80717e-12
1.79599e-13
7.34409e-14
1.91352e-14
1.07127e-14
4.59722e-15
2.81203e-15
1.8287e-15
1.12683e-15
6.84465e-16
9.09767e-16
4.26177e-16
2.73734e-16
7.35926e-17
1.50846e-16
2.45421e-16
-5.25713e-17
3.1431e-16
7.25507e-17
-2.93905e-16
-2.05363e-16
1.79541e-16
3.76897e-16
-2.03948e-16
2.04725e-16
-2.65701e-17
-2.62871e-16
1.87666e-16
-1.38986e-16
-1.84333e-16
-1.67571e-16
5.60374e-17
-4.94586e-16
1.61202e-16
1.52088e-16
-1.21169e-16
-5.32709e-17
-4.29255e-17
3.62383e-16
-2.33924e-17
4.94641e-17
5.59301e-16
2.94317e-16
4.50006e-16
3.76068e-16
4.7364e-16
6.59472e-16
1.36507e-15
1.8511e-15
3.32606e-15
4.80885e-15
1.04578e-14
1.9187e-14
7.29372e-14
1.79487e-13
1.8071e-12
1.93368e-12
-4.0376e-12
-4.38241e-12
2.05023e-12
1.96666e-12
2.18814e-13
9.03572e-14
2.41217e-14
1.39708e-14
6.18738e-15
4.3522e-15
2.0797e-15
1.58896e-15
1.05035e-15
3.7714e-16
4.17243e-16
4.197e-16
2.73055e-16
1.51059e-16
2.1823e-16
1.06334e-16
-8.49266e-17
1.02301e-16
2.29004e-16
1.71259e-16
-8.51478e-17
-3.08574e-16
3.6088e-16
-1.58221e-16
3.05161e-17
3.46658e-16
1.29127e-16
2.71375e-16
5.82588e-16
9.99495e-17
-5.46658e-17
3.33669e-16
-1.09446e-16
-3.0959e-16
5.59483e-17
1.27298e-16
1.93647e-16
-1.70686e-16
3.24432e-16
1.21851e-16
6.32879e-17
3.2037e-16
5.57431e-16
4.99744e-16
8.48229e-16
8.82782e-16
1.50147e-15
2.09475e-15
3.51705e-15
5.70892e-15
1.41049e-14
2.38045e-14
9.06885e-14
2.19115e-13
1.96681e-12
2.05036e-12
-4.38251e-12
-4.72605e-12
2.15932e-12
2.12409e-12
2.62017e-13
1.10171e-13
3.00955e-14
1.69454e-14
7.56891e-15
4.70087e-15
2.93163e-15
2.04553e-15
1.6298e-15
1.49487e-15
5.7281e-16
3.04955e-16
3.96884e-16
3.24706e-16
-8.25162e-17
4.43491e-16
1.30292e-16
1.35416e-16
7.48957e-17
-2.46714e-17
2.59168e-16
1.74475e-16
-2.03942e-16
2.9393e-16
1.56238e-16
-1.90169e-16
-7.14761e-17
-3.47252e-17
-1.21846e-16
2.45512e-16
1.61109e-16
7.73713e-17
2.00329e-16
5.42158e-16
-7.62136e-17
7.30593e-17
9.43943e-17
5.1395e-16
-2.70496e-16
3.24461e-16
2.41506e-16
4.13275e-16
5.58992e-16
9.0572e-16
8.45622e-16
1.39458e-15
2.18062e-15
3.04107e-15
5.31907e-15
8.08118e-15
1.68199e-14
3.0331e-14
1.10225e-13
2.61927e-13
2.12425e-12
2.15934e-12
-4.72572e-12
-5.06679e-12
2.2594e-12
2.27909e-12
3.0965e-13
1.32303e-13
3.74469e-14
2.10891e-14
9.61708e-15
6.28969e-15
3.35803e-15
2.18114e-15
1.48863e-15
8.97665e-16
7.9895e-16
6.34806e-16
4.95668e-16
7.1084e-16
5.11523e-16
-3.27917e-16
-2.09926e-16
2.86294e-16
2.9839e-17
5.91386e-17
8.78525e-17
1.81908e-16
-2.63744e-17
-1.14329e-16
-1.52148e-16
1.58252e-16
7.75294e-17
-5.62003e-17
5.02783e-18
-1.56564e-16
-2.43466e-16
-2.78013e-18
-1.16401e-16
-1.41917e-16
1.72669e-16
-6.81105e-17
-1.06236e-16
1.50195e-16
4.65445e-16
3.96617e-17
3.66831e-16
3.9e-16
3.89714e-16
5.76235e-16
8.54341e-16
1.5522e-15
2.30105e-15
3.25331e-15
6.04299e-15
9.0866e-15
2.12194e-14
3.67743e-14
1.31963e-13
3.09865e-13
2.27869e-12
2.25956e-12
-5.06666e-12
-5.40391e-12
2.35057e-12
2.42992e-12
3.62057e-13
1.56493e-13
4.51877e-14
2.54961e-14
1.1335e-14
7.49327e-15
4.23571e-15
3.31723e-15
1.81746e-15
1.23311e-15
1.25858e-15
7.87175e-16
6.52565e-16
2.45929e-16
3.08607e-16
5.93725e-16
6.71716e-16
2.03695e-16
2.27517e-16
-3.27163e-16
2.09837e-17
-1.76029e-16
2.43202e-16
1.82227e-16
9.48175e-17
-8.45385e-17
-1.00291e-17
5.22464e-17
4.52436e-17
7.70421e-17
2.37163e-16
1.86513e-16
2.57023e-16
3.6398e-17
2.3131e-16
-1.57063e-17
5.90965e-16
1.63308e-16
2.69932e-16
3.57784e-16
4.60459e-16
6.45489e-16
1.12653e-15
9.70102e-16
1.75446e-15
1.80787e-15
2.66978e-15
4.2225e-15
7.29786e-15
1.18445e-14
2.54507e-14
4.54055e-14
1.56924e-13
3.61621e-13
2.43019e-12
2.3504e-12
-5.40426e-12
-5.73695e-12
2.43151e-12
2.57634e-12
4.17495e-13
1.83977e-13
5.42021e-14
3.07485e-14
1.43755e-14
9.23756e-15
5.21858e-15
3.38643e-15
2.53851e-15
2.1763e-15
1.08384e-15
1.06931e-15
6.52955e-16
6.26291e-16
3.12265e-16
2.22759e-16
2.2557e-16
-2.14364e-16
8.19771e-17
6.54817e-16
1.72342e-16
6.0024e-16
-1.29354e-16
-1.43305e-17
4.88666e-17
2.54573e-16
1.68583e-16
-1.01273e-16
-1.19894e-16
2.64441e-16
-1.61023e-16
1.32129e-16
5.89931e-17
3.3798e-16
-2.32414e-16
2.68805e-16
3.60621e-17
2.62201e-16
1.08663e-16
7.35037e-16
6.77781e-16
7.01898e-16
6.65805e-16
1.19375e-15
1.39308e-15
2.44189e-15
3.77804e-15
5.45612e-15
9.30298e-15
1.40562e-14
3.08717e-14
5.45302e-14
1.83776e-13
4.1819e-13
2.57629e-12
2.43179e-12
-5.73681e-12
-6.0634e-12
2.50223e-12
2.71753e-12
4.78573e-13
2.13703e-13
6.52113e-14
3.6759e-14
1.69537e-14
1.05544e-14
6.26192e-15
4.51801e-15
2.81554e-15
2.03534e-15
1.52635e-15
1.04852e-15
9.14778e-16
6.12046e-16
7.44596e-16
1.97062e-16
1.76435e-16
9.46149e-16
2.4962e-16
-1.41124e-16
6.07912e-17
-2.38261e-16
2.91337e-16
1.322e-16
4.48671e-17
-2.81221e-16
9.95688e-17
1.35181e-16
4.80097e-16
-3.78069e-16
6.81743e-17
-1.00097e-16
3.10223e-16
-5.00273e-19
4.11037e-16
4.08219e-16
2.30141e-16
2.70492e-16
5.67071e-16
4.76177e-16
4.547e-16
6.46331e-16
1.27591e-15
1.76407e-15
2.52373e-15
3.04038e-15
4.24512e-15
6.0324e-15
1.10888e-14
1.69189e-14
3.67228e-14
6.51332e-14
2.13346e-13
4.78231e-13
2.71733e-12
2.50203e-12
-6.06373e-12
-6.38362e-12
2.56063e-12
2.85294e-12
5.429e-13
2.46485e-13
7.7039e-14
4.34236e-14
1.99364e-14
1.32599e-14
7.4127e-15
5.34866e-15
3.67464e-15
2.35749e-15
1.81618e-15
1.29274e-15
8.55412e-16
9.65549e-16
3.02204e-16
6.96474e-16
1.6445e-16
-1.33172e-16
2.861e-16
4.50385e-16
-1.27552e-16
3.29496e-16
3.84857e-18
1.58034e-16
-3.45838e-17
4.84111e-16
-3.75453e-17
1.44136e-16
-2.22761e-16
5.6183e-16
2.27962e-16
2.32734e-16
-1.57766e-16
-2.64771e-17
1.24793e-16
1.81862e-16
1.13215e-16
6.10689e-16
3.18319e-16
5.23854e-16
8.63165e-16
1.17768e-15
1.3171e-15
1.88531e-15
2.39634e-15
3.0565e-15
5.0945e-15
7.71122e-15
1.25439e-14
2.01747e-14
4.35773e-14
7.67725e-14
2.46806e-13
5.42765e-13
2.85312e-12
2.56066e-12
-6.38309e-12
-6.6946e-12
2.60815e-12
2.98155e-12
6.11037e-13
2.82006e-13
9.01168e-14
5.11584e-14
2.39722e-14
1.51882e-14
9.04224e-15
5.98311e-15
3.72149e-15
2.96157e-15
2.00693e-15
1.8801e-15
1.26649e-15
8.47247e-16
1.00578e-15
4.68839e-16
8.473e-16
5.38563e-16
-1.18019e-16
1.12105e-16
4.62755e-16
3.60413e-16
1.80949e-16
-2.90954e-17
2.9932e-16
8.2831e-17
2.14332e-16
2.01249e-16
2.20456e-16
4.38475e-17
-4.16002e-17
5.93583e-17
3.57535e-16
4.41802e-16
3.98627e-16
4.76391e-16
8.01546e-16
3.81536e-16
5.18976e-16
6.11258e-16
7.58643e-16
9.30397e-16
1.70104e-15
2.18822e-15
2.68002e-15
3.93626e-15
6.25394e-15
8.65959e-15
1.58182e-14
2.39808e-14
5.09774e-14
9.04759e-14
2.82213e-13
6.11213e-13
2.98116e-12
2.60802e-12
-6.69478e-12
-6.99639e-12
2.64259e-12
3.10177e-12
6.83379e-13
3.20332e-13
1.05585e-13
5.91197e-14
2.79071e-14
1.8097e-14
1.03186e-14
7.31958e-15
4.87024e-15
3.7374e-15
2.7042e-15
1.83895e-15
1.65016e-15
1.19733e-15
9.39658e-16
7.07802e-16
6.42462e-17
6.317e-16
4.22572e-16
-8.2363e-17
-3.04131e-17
-7.17918e-17
3.59678e-16
5.89479e-16
-2.03782e-16
-6.05217e-17
8.04861e-17
-2.86238e-17
-1.12203e-16
-1.97377e-16
2.69807e-16
2.76163e-16
3.04608e-16
3.12856e-16
3.67049e-16
2.19548e-16
2.27435e-16
6.90272e-16
8.12989e-16
1.20394e-15
9.0911e-16
1.52053e-15
1.61133e-15
2.55658e-15
3.96517e-15
4.63185e-15
7.20497e-15
1.07259e-14
1.78117e-14
2.8322e-14
5.96101e-14
1.0537e-13
3.20117e-13
6.83093e-13
3.10194e-12
2.64262e-12
-6.99666e-12
-7.28758e-12
2.66405e-12
3.21446e-12
7.58317e-13
3.61801e-13
1.21572e-13
6.91517e-14
3.28185e-14
2.11293e-14
1.20891e-14
8.86112e-15
5.91515e-15
3.8337e-15
2.43662e-15
2.34707e-15
1.34795e-15
9.90781e-16
1.13121e-15
9.01282e-16
1.03365e-15
7.50133e-16
6.45948e-16
3.71553e-16
5.99687e-16
3.80401e-16
-1.6355e-16
-5.76018e-17
-1.27686e-16
4.7591e-17
3.54279e-16
-7.70147e-17
4.08317e-16
6.1666e-16
2.03939e-16
1.83322e-16
2.1325e-16
-6.62281e-17
1.83977e-16
7.19838e-16
5.37618e-16
4.93649e-16
7.30335e-16
9.6089e-16
1.82961e-15
1.81841e-15
2.66542e-15
2.61226e-15
3.89418e-15
5.84076e-15
8.39783e-15
1.20965e-14
2.14323e-14
3.26147e-14
6.85267e-14
1.21627e-13
3.61469e-13
7.58767e-13
3.21465e-12
2.66416e-12
-7.28756e-12
-7.56697e-12
2.6725e-12
3.31755e-12
8.37825e-13
4.05524e-13
1.40534e-13
7.96685e-14
3.82898e-14
2.41801e-14
1.47651e-14
9.86917e-15
6.36061e-15
4.73432e-15
3.90719e-15
2.40852e-15
2.32649e-15
1.92732e-15
1.01388e-15
8.85157e-16
5.4936e-16
2.75627e-16
2.91354e-16
5.87642e-16
-1.9657e-17
4.50733e-16
2.79695e-16
6.08832e-16
4.97912e-16
5.22221e-17
2.30564e-18
2.4021e-16
-4.46993e-16
-2.33288e-16
3.30597e-16
-7.73785e-17
4.70935e-16
5.85595e-16
6.21101e-16
2.79733e-16
2.71964e-16
7.42058e-16
1.05531e-15
8.88136e-16
1.13169e-15
1.55085e-15
2.41677e-15
3.85691e-15
5.00926e-15
6.4874e-15
9.81552e-15
1.41617e-14
2.43974e-14
3.80182e-14
7.97713e-14
1.40777e-13
4.05827e-13
8.37298e-13
3.31757e-12
2.67221e-12
-7.56697e-12
-7.83348e-12
2.6667e-12
3.41096e-12
9.18366e-13
4.52785e-13
1.60723e-13
9.1012e-14
4.42346e-14
2.86144e-14
1.63735e-14
1.18296e-14
7.65121e-15
5.92416e-15
3.7197e-15
3.01525e-15
1.92304e-15
1.44591e-15
1.22676e-15
1.27144e-15
9.74153e-16
9.97649e-16
8.0611e-16
3.87242e-16
6.30729e-16
-1.4509e-16
4.64377e-16
1.11679e-16
1.66603e-16
2.87291e-16
6.62823e-16
6.59569e-17
5.49464e-16
3.10223e-16
1.5936e-16
4.62218e-16
1.59964e-16
3.91593e-16
2.88887e-16
9.11047e-16
1.06417e-15
7.1783e-16
1.01552e-15
1.67508e-15
2.05957e-15
2.48795e-15
3.1088e-15
3.65018e-15
5.42184e-15
7.64878e-15
1.18371e-14
1.71955e-14
2.83518e-14
4.43866e-14
9.09224e-14
1.60822e-13
4.52887e-13
9.18806e-13
3.41103e-12
2.66693e-12
-7.83334e-12
-8.086e-12
2.64725e-12
3.49371e-12
1.00251e-12
5.02031e-13
1.82879e-13
1.04447e-13
5.10786e-14
3.26227e-14
1.91387e-14
1.30789e-14
8.53952e-15
6.60009e-15
4.86715e-15
3.99676e-15
3.06173e-15
2.06775e-15
1.90555e-15
1.39166e-15
8.80685e-16
8.83043e-16
3.44271e-16
6.25457e-16
2.37157e-16
5.67506e-16
1.97772e-16
2.82937e-16
2.41932e-16
2.9801e-16
-2.99787e-16
5.10277e-16
8.90094e-17
2.76335e-16
-4.41829e-17
2.18052e-16
5.95263e-16
4.87424e-16
4.27346e-16
7.64088e-16
9.43243e-16
1.28301e-15
1.66064e-15
1.43095e-15
1.48572e-15
2.63394e-15
3.3662e-15
4.95345e-15
6.56349e-15
8.84732e-15
1.34183e-14
1.92525e-14
3.25852e-14
5.13728e-14
1.04359e-13
1.82752e-13
5.01958e-13
1.00282e-12
3.49359e-12
2.6469e-12
-8.08578e-12
-8.3226e-12
2.61332e-12
3.56529e-12
1.08835e-12
5.54843e-13
2.07338e-13
1.18358e-13
5.8401e-14
3.74613e-14
2.24813e-14
1.54481e-14
1.05283e-14
7.28187e-15
5.03398e-15
3.77494e-15
2.7547e-15
2.52845e-15
1.66842e-15
1.36404e-15
1.17288e-15
8.9246e-16
7.95567e-16
4.1465e-16
7.54399e-16
5.4601e-16
4.273e-16
2.66003e-16
2.65967e-16
2.16519e-16
4.83171e-16
5.43686e-17
3.67967e-16
2.5084e-16
5.4035e-16
8.2041e-16
2.53827e-17
7.19797e-16
5.45127e-16
8.61208e-16
8.3982e-16
1.04303e-15
1.3291e-15
1.90345e-15
3.00758e-15
3.10737e-15
4.58731e-15
5.13266e-15
7.33265e-15
1.04735e-14
1.52688e-14
2.21756e-14
3.75158e-14
5.80695e-14
1.18368e-13
2.07419e-13
5.55083e-13
1.08801e-12
3.56531e-12
2.61354e-12
-8.32286e-12
-8.54421e-12
2.56576e-12
3.6244e-12
1.17532e-12
6.10024e-13
2.3402e-13
1.33579e-13
6.6948e-14
4.30247e-14
2.56752e-14
1.77961e-14
1.15014e-14
8.57205e-15
6.34165e-15
4.58293e-15
3.56484e-15
2.81348e-15
2.01279e-15
1.69263e-15
1.27513e-15
1.44218e-15
8.70893e-16
8.16219e-16
4.74489e-16
2.58293e-16
9.0589e-17
3.63266e-16
2.99767e-16
5.82356e-16
4.42189e-16
7.64953e-17
2.45731e-16
3.71522e-16
-1.63095e-17
3.0149e-17
8.59098e-16
6.37553e-16
8.65319e-16
7.1043e-16
1.19696e-15
1.36365e-15
1.41616e-15
1.9352e-15
2.52593e-15
3.20005e-15
4.21948e-15
5.9204e-15
8.63164e-15
1.15448e-14
1.78357e-14
2.51233e-14
4.29036e-14
6.68109e-14
1.34095e-13
2.33696e-13
6.09571e-13
1.17511e-12
3.62446e-12
2.56574e-12
-8.54377e-12
-8.74754e-12
2.50288e-12
3.67154e-12
1.26284e-12
6.66503e-13
2.62125e-13
1.51412e-13
7.60819e-14
4.88324e-14
2.8957e-14
2.02526e-14
1.37283e-14
9.9589e-15
7.151e-15
5.58589e-15
3.92434e-15
3.24137e-15
2.60181e-15
1.73003e-15
1.81001e-15
1.06489e-15
9.21425e-16
8.16139e-16
7.48669e-16
6.26823e-16
9.81738e-16
8.86677e-16
4.40477e-16
4.20346e-16
1.94998e-16
6.87222e-16
2.50104e-16
5.59173e-16
8.9648e-16
9.17254e-16
5.53091e-16
1.54039e-16
9.74401e-16
8.63689e-16
1.10122e-15
1.50098e-15
2.33698e-15
2.57754e-15
3.17275e-15
3.89169e-15
5.71025e-15
7.41755e-15
1.04588e-14
1.35834e-14
2.02699e-14
2.98571e-14
4.85441e-14
7.62552e-14
1.50721e-13
2.62839e-13
6.67052e-13
1.26305e-12
3.67183e-12
2.50264e-12
-8.74766e-12
-8.93444e-12
2.42695e-12
3.70571e-12
1.35151e-12
7.26624e-13
2.93575e-13
1.69198e-13
8.63961e-14
5.5504e-14
3.32908e-14
2.2933e-14
1.54806e-14
1.12181e-14
7.60795e-15
5.66107e-15
4.92393e-15
3.0574e-15
3.08543e-15
2.38541e-15
1.83101e-15
1.16762e-15
1.17457e-15
9.37781e-16
8.10109e-16
8.60889e-16
5.74763e-16
-8.30772e-17
5.65905e-16
3.65188e-16
3.41305e-16
1.88563e-16
3.05918e-16
2.49924e-16
3.10571e-16
1.64021e-16
5.56895e-16
1.45898e-15
7.54812e-16
1.62081e-15
1.40618e-15
1.9562e-15
1.9226e-15
2.94299e-15
3.43722e-15
4.85129e-15
6.42281e-15
7.94841e-15
1.06323e-14
1.51071e-14
2.28503e-14
3.30095e-14
5.5691e-14
8.60305e-14
1.69345e-13
2.92997e-13
7.26591e-13
1.35122e-12
3.70552e-12
2.42711e-12
-8.9348e-12
-9.10168e-12
2.3365e-12
3.72592e-12
1.43893e-12
7.8792e-13
3.26116e-13
1.89607e-13
9.74773e-14
6.26587e-14
3.78834e-14
2.61942e-14
1.74667e-14
1.30589e-14
9.44251e-15
7.47764e-15
4.87259e-15
4.44369e-15
2.7495e-15
2.79634e-15
1.9051e-15
1.99801e-15
1.45194e-15
1.19448e-15
7.78898e-16
7.93926e-16
4.48001e-16
8.84306e-16
4.54814e-16
6.28379e-16
8.81526e-16
6.61565e-16
8.79761e-16
7.23647e-16
5.9907e-16
9.27089e-16
9.44907e-16
8.30856e-16
1.21614e-15
1.01235e-15
1.81621e-15
2.05618e-15
3.02476e-15
2.64112e-15
4.08297e-15
5.38007e-15
6.71812e-15
8.8619e-15
1.31912e-14
1.78951e-14
2.64483e-14
3.76721e-14
6.24605e-14
9.76513e-14
1.89449e-13
3.25916e-13
7.8811e-13
1.43929e-12
3.72602e-12
2.3363e-12
-9.10156e-12
-9.25012e-12
2.23246e-12
3.73288e-12
1.52604e-12
8.51137e-13
3.61713e-13
2.10317e-13
1.09702e-13
7.03221e-14
4.32539e-14
2.98285e-14
2.0267e-14
1.43621e-14
1.0443e-14
7.72537e-15
5.8534e-15
4.54133e-15
3.97847e-15
2.5205e-15
2.4743e-15
1.9706e-15
1.32189e-15
1.32158e-15
1.18722e-15
4.89394e-16
6.5388e-16
3.58944e-16
7.73386e-16
7.19958e-16
2.20612e-17
5.4455e-16
5.0134e-18
5.4426e-16
3.044e-16
8.44215e-16
7.02443e-16
8.97881e-16
1.61068e-15
1.66066e-15
1.98731e-15
2.38916e-15
2.61663e-15
3.95631e-15
4.70385e-15
5.80438e-15
8.21843e-15
1.05893e-14
1.43197e-14
1.97445e-14
2.97001e-14
4.28765e-14
7.09852e-14
1.10064e-13
2.10993e-13
3.61952e-13
8.50493e-13
1.52586e-12
3.73259e-12
2.23279e-12
-9.25034e-12
-9.37892e-12
2.11569e-12
3.72517e-12
1.61118e-12
9.1557e-13
3.99005e-13
2.35437e-13
1.23375e-13
7.97943e-14
4.78142e-14
3.36014e-14
2.18105e-14
1.6844e-14
1.1965e-14
9.48152e-15
6.90248e-15
5.38476e-15
3.78417e-15
3.57269e-15
2.59466e-15
1.88831e-15
1.75926e-15
1.51222e-15
1.07588e-15
1.29286e-15
1.08586e-15
8.86176e-16
6.24327e-16
2.3707e-16
8.87035e-16
3.08728e-16
7.23052e-16
7.64207e-16
1.17536e-15
9.34622e-16
1.45816e-15
1.17634e-15
7.75849e-16
1.65513e-15
1.97244e-15
2.23845e-15
3.50848e-15
4.12975e-15
5.14364e-15
7.04719e-15
9.19298e-15
1.18281e-14
1.67745e-14
2.25468e-14
3.36352e-14
4.84278e-14
7.92176e-14
1.22838e-13
2.34598e-13
3.98878e-13
9.16029e-13
1.61123e-12
3.72557e-12
2.11497e-12
-9.37846e-12
-9.48698e-12
1.98531e-12
3.70381e-12
1.693e-12
9.80589e-13
4.38877e-13
2.58661e-13
1.3798e-13
8.88858e-14
5.49683e-14
3.78593e-14
2.61593e-14
1.88152e-14
1.3524e-14
9.85992e-15
7.85704e-15
6.31991e-15
5.02412e-15
3.77728e-15
3.21485e-15
2.36919e-15
1.91643e-15
1.73757e-15
1.14411e-15
9.33713e-16
6.8104e-16
6.76825e-16
6.75773e-16
8.74257e-16
6.03095e-16
1.08005e-15
7.60663e-16
6.31117e-16
6.84885e-16
1.07534e-15
6.03989e-16
1.40853e-15
2.29558e-15
2.05739e-15
2.42974e-15
3.49979e-15
3.91749e-15
4.88069e-15
6.24931e-15
7.55028e-15
9.85416e-15
1.36375e-14
1.86569e-14
2.5694e-14
3.73911e-14
5.47234e-14
8.89901e-14
1.37988e-13
2.58985e-13
4.38696e-13
9.80603e-13
1.69356e-12
3.70368e-12
1.98613e-12
-9.48705e-12
-9.57513e-12
1.84424e-12
3.66784e-12
1.77383e-12
1.04703e-12
4.80501e-13
2.86128e-13
1.53534e-13
9.95871e-14
6.1067e-14
4.30676e-14
2.84222e-14
2.09029e-14
1.51834e-14
1.17351e-14
8.78664e-15
7.13494e-15
4.7306e-15
4.24802e-15
3.29766e-15
3.24808e-15
2.63927e-15
1.52741e-15
1.9184e-15
1.37803e-15
1.30745e-15
1.23807e-15
1.06924e-15
1.09174e-15
5.09543e-16
7.29777e-16
6.66648e-16
1.15662e-15
7.55969e-16
1.10673e-15
1.70615e-15
1.54074e-15
1.36397e-15
1.99931e-15
2.27281e-15
3.03881e-15
4.34134e-15
5.15403e-15
6.92929e-15
8.6237e-15
1.19735e-14
1.50739e-14
2.10919e-14
2.86285e-14
4.30844e-14
6.16125e-14
9.97551e-14
1.54093e-13
2.8612e-13
4.80335e-13
1.04732e-12
1.77325e-12
3.66768e-12
1.84392e-12
-9.57508e-12
-9.64252e-12
1.69107e-12
3.61723e-12
1.84814e-12
1.11317e-12
5.24153e-13
3.14089e-13
1.71164e-13
1.10881e-13
6.86975e-14
4.7127e-14
3.20612e-14
2.36654e-14
1.6917e-14
1.29664e-14
9.66943e-15
7.26018e-15
6.56383e-15
4.91771e-15
3.73673e-15
3.10289e-15
2.01939e-15
2.55069e-15
1.36622e-15
1.44128e-15
9.88742e-16
8.44455e-16
5.0737e-16
3.34675e-16
1.1159e-15
8.33868e-16
1.10749e-15
8.78681e-16
1.59056e-15
9.66593e-16
1.27185e-15
1.79974e-15
2.43741e-15
2.44288e-15
3.63616e-15
4.00817e-15
4.68724e-15
5.98252e-15
7.61667e-15
1.00364e-14
1.26421e-14
1.70248e-14
2.38248e-14
3.25531e-14
4.76039e-14
6.82186e-14
1.10611e-13
1.70545e-13
3.14004e-13
5.24635e-13
1.11273e-12
1.84827e-12
3.617e-12
1.69118e-12
-9.64211e-12
-9.68781e-12
1.5276e-12
3.55253e-12
1.92007e-12
1.17937e-12
5.70218e-13
3.44613e-13
1.89887e-13
1.2325e-13
7.7233e-14
5.39255e-14
3.69733e-14
2.67965e-14
1.95561e-14
1.49439e-14
1.11305e-14
9.07273e-15
6.6511e-15
5.37004e-15
4.70077e-15
3.10655e-15
3.03821e-15
2.08187e-15
2.12632e-15
2.06241e-15
1.60466e-15
1.23964e-15
1.30293e-15
1.29901e-15
7.42879e-16
1.22751e-15
7.93887e-16
1.00283e-15
9.39207e-16
1.61711e-15
1.52355e-15
1.61725e-15
1.95369e-15
2.92691e-15
3.1564e-15
4.33385e-15
5.24625e-15
6.71842e-15
8.59453e-15
1.10155e-14
1.47595e-14
1.92975e-14
2.66361e-14
3.65224e-14
5.33427e-14
7.71748e-14
1.23271e-13
1.89996e-13
3.44755e-13
5.69659e-13
1.17965e-12
1.9201e-12
3.55301e-12
1.52739e-12
-9.68848e-12
-9.71418e-12
1.35525e-12
3.47386e-12
1.9842e-12
1.24483e-12
6.17514e-13
3.75997e-13
2.0922e-13
1.36657e-13
8.557e-14
5.92579e-14
4.04607e-14
2.98134e-14
2.14173e-14
1.65065e-14
1.24384e-14
9.24947e-15
7.54906e-15
5.99135e-15
4.78784e-15
4.44523e-15
3.1309e-15
2.80951e-15
2.16857e-15
1.3791e-15
1.47968e-15
1.27512e-15
1.42059e-15
8.66432e-16
1.22457e-15
8.97993e-16
1.4872e-15
1.41726e-15
1.22609e-15
1.45147e-15
1.58315e-15
2.79545e-15
2.76013e-15
3.64585e-15
4.34694e-15
4.94157e-15
6.05881e-15
7.95788e-15
9.98465e-15
1.26163e-14
1.67643e-14
2.17207e-14
2.93266e-14
4.05008e-14
5.99065e-14
8.55672e-14
1.37275e-13
2.09581e-13
3.75853e-13
6.17657e-13
1.2449e-12
1.98501e-12
3.47409e-12
1.35563e-12
-9.71407e-12
-9.71925e-12
1.17315e-12
3.38193e-12
2.04504e-12
1.30852e-12
6.66475e-13
4.0935e-13
2.30996e-13
1.5154e-13
9.49297e-14
6.66389e-14
4.54675e-14
3.33094e-14
2.44855e-14
1.78664e-14
1.37348e-14
1.16383e-14
8.62795e-15
7.10171e-15
5.36325e-15
3.84843e-15
3.70902e-15
2.97543e-15
2.64955e-15
2.33462e-15
1.89376e-15
1.83991e-15
1.57701e-15
1.58417e-15
9.82033e-16
1.18797e-15
8.37958e-16
1.3938e-15
1.99674e-15
1.94891e-15
2.06413e-15
1.96833e-15
3.35316e-15
2.82333e-15
4.35133e-15
5.64977e-15
7.05045e-15
8.15284e-15
1.10459e-14
1.38649e-14
1.8529e-14
2.43618e-14
3.42438e-14
4.61081e-14
6.67006e-14
9.51392e-14
1.50855e-13
2.31244e-13
4.09407e-13
6.66457e-13
1.30857e-12
2.04375e-12
3.38142e-12
1.17342e-12
-9.71845e-12
-9.7035e-12
9.85401e-13
3.27573e-12
2.09596e-12
1.37203e-12
7.16273e-13
4.44029e-13
2.54225e-13
1.66748e-13
1.06259e-13
7.41053e-14
5.0543e-14
3.75369e-14
2.68531e-14
2.10908e-14
1.61914e-14
1.18279e-14
9.38711e-15
7.69346e-15
6.61896e-15
5.63403e-15
3.92874e-15
3.05233e-15
2.68424e-15
2.31376e-15
2.20781e-15
1.5406e-15
1.4735e-15
1.72122e-15
2.09827e-15
1.4632e-15
1.58427e-15
1.27701e-15
1.48557e-15
1.57098e-15
2.53383e-15
3.27831e-15
3.28451e-15
4.8502e-15
4.88223e-15
5.59209e-15
7.69057e-15
9.86422e-15
1.19626e-14
1.58248e-14
2.07047e-14
2.66728e-14
3.69518e-14
5.03118e-14
7.36812e-14
1.06005e-13
1.66657e-13
2.53172e-13
4.44112e-13
7.16941e-13
1.37104e-12
2.09653e-12
3.27596e-12
9.8463e-13
-9.70378e-12
-9.66808e-12
7.89845e-13
3.15757e-12
2.1422e-12
1.43143e-12
7.68527e-13
4.8108e-13
2.77927e-13
1.83256e-13
1.1654e-13
8.20471e-14
5.66648e-14
4.13949e-14
3.05022e-14
2.33946e-14
1.78461e-14
1.43306e-14
1.11477e-14
8.45629e-15
6.48904e-15
5.41957e-15
5.06624e-15
4.36058e-15
3.22405e-15
2.90854e-15
1.85525e-15
1.79468e-15
1.6454e-15
1.1895e-15
7.33124e-16
1.73062e-15
2.0248e-15
2.2157e-15
1.84367e-15
2.53173e-15
2.66266e-15
3.05587e-15
3.7912e-15
4.22485e-15
5.87638e-15
7.07226e-15
8.34154e-15
1.09884e-14
1.41782e-14
1.71655e-14
2.2551e-14
3.07327e-14
4.17868e-14
5.64122e-14
8.20016e-14
1.16965e-13
1.84012e-13
2.78471e-13
4.81191e-13
7.67752e-13
1.43182e-12
2.14232e-12
3.15725e-12
7.90616e-13
-9.66873e-12
-9.6145e-12
5.90063e-13
3.02659e-12
2.17808e-12
1.48752e-12
8.20076e-13
5.18637e-13
3.03985e-13
2.01459e-13
1.29562e-13
9.06577e-14
6.32831e-14
4.61698e-14
3.35127e-14
2.56762e-14
1.89517e-14
1.5091e-14
1.1792e-14
9.77355e-15
7.89846e-15
6.1284e-15
4.8434e-15
4.05664e-15
3.25619e-15
2.71542e-15
2.79262e-15
2.5982e-15
2.22218e-15
1.94708e-15
1.97931e-15
1.70873e-15
1.38017e-15
1.78686e-15
2.36567e-15
2.63893e-15
3.12361e-15
3.6207e-15
4.35158e-15
5.24928e-15
6.00547e-15
8.0187e-15
9.89076e-15
1.19624e-14
1.53631e-14
2.00329e-14
2.6566e-14
3.34115e-14
4.66529e-14
6.3138e-14
9.11711e-14
1.29449e-13
2.01237e-13
3.04074e-13
5.18015e-13
8.19819e-13
1.4881e-12
2.17759e-12
3.0269e-12
5.90364e-13
-9.61401e-12
-9.54098e-12
3.86711e-13
2.88493e-12
2.20688e-12
1.54274e-12
8.72316e-13
5.571e-13
3.31081e-13
2.20965e-13
1.42632e-13
1.00421e-13
6.88714e-14
5.16679e-14
3.74047e-14
2.86782e-14
2.21467e-14
1.71937e-14
1.39179e-14
1.09496e-14
8.652e-15
6.99542e-15
5.56389e-15
4.30046e-15
4.09786e-15
3.4179e-15