/*--------------------------------*- C++ -*----------------------------------*\
| =========                 |                                                 |
| \\      /  F ield         | foam-extend: Open Source CFD                    |
|  \\    /   O peration     | Version:     4.0                                |
|   \\  /    A nd           | Web:         http://www.foam-extend.org         |
|    \\/     M anipulation  |                                                 |
\*---------------------------------------------------------------------------*/
FoamFile
{
    version     2.0;
    format      ascii;
    class       volScalarField;
    location    "21";
    object      dC1;
}
// * * * * * * * * * * * * * * * * * * * * * * * * * * * * * * * * * * * * * //

dimensions      [0 -1 0 0 0 0 0];

internalField   nonuniform List<scalar> 
6960
(
7.95915e-13
7.91023e-13
7.91426e-13
7.93542e-13
7.9026e-13
7.8882e-13
7.97227e-13
7.94941e-13
7.96318e-13
7.89858e-13
7.84806e-13
7.92939e-13
7.91724e-13
7.89004e-13
8.07521e-13
7.91527e-13
8.05408e-13
7.94691e-13
7.90982e-13
7.93147e-13
7.96318e-13
7.99201e-13
8.02521e-13
7.99069e-13
7.96165e-13
7.91124e-13
7.91731e-13
7.98771e-13
7.96675e-13
7.9018e-13
7.9672e-13
7.99017e-13
7.96561e-13
7.91065e-13
7.96318e-13
7.97258e-13
7.99853e-13
7.9782e-13
7.97029e-13
7.93574e-13
7.91651e-13
7.85632e-13
7.93934e-13
7.89851e-13
7.87183e-13
7.88467e-13
7.80438e-13
7.93136e-13
7.94021e-13
7.86777e-13
7.9068e-13
8.01734e-13
8.02667e-13
7.86204e-13
7.97914e-13
7.96932e-13
7.9212e-13
8.07125e-13
7.86298e-13
7.99125e-13
1.12445e-14
1.20147e-14
1.18308e-14
1.29237e-14
1.31006e-14
1.21188e-14
1.2032e-14
1.20494e-14
1.249e-14
1.17371e-14
1.1928e-14
1.21118e-14
1.21604e-14
1.1071e-14
1.21743e-14
1.28196e-14
1.21604e-14
1.18378e-14
1.18031e-14
1.23651e-14
1.16331e-14
1.18308e-14
1.08732e-14
1.18412e-14
1.20147e-14
1.25802e-14
1.16712e-14
1.29653e-14
1.25906e-14
1.29063e-14
1.20667e-14
1.17406e-14
1.18378e-14
1.23582e-14
1.18759e-14
1.25455e-14
1.23998e-14
1.05332e-14
1.08594e-14
1.30729e-14
1.20633e-14
1.17822e-14
1.21222e-14
1.24865e-14
1.1522e-14
1.20216e-14
1.18482e-14
1.24172e-14
1.20841e-14
1.26357e-14
1.181e-14
1.08975e-14
1.23096e-14
1.24692e-14
1.15567e-14
1.19939e-14
1.25976e-14
1.18308e-14
1.21396e-14
1.18829e-14
-1.94306e-13
-1.94195e-13
-1.93821e-13
-1.94691e-13
-1.9458e-13
-1.94345e-13
-1.944e-13
-1.9449e-13
-1.94435e-13
-1.94206e-13
-1.94317e-13
-1.93567e-13
-1.94626e-13
-1.94809e-13
-1.94109e-13
-1.94272e-13
-1.9431e-13
-1.94976e-13
-1.94386e-13
-1.94036e-13
-1.94539e-13
-1.94723e-13
-1.94272e-13
-1.94234e-13
-1.9449e-13
-1.9492e-13
-1.94254e-13
-1.93949e-13
-1.9456e-13
-1.94497e-13
-1.9405e-13
-1.94515e-13
-1.94428e-13
-1.94549e-13
-1.94532e-13
-1.94268e-13
-1.94188e-13
-1.94421e-13
-1.94584e-13
-1.94261e-13
-1.93852e-13
-1.9406e-13
-1.94206e-13
-1.9414e-13
-1.94272e-13
-1.94327e-13
-1.94719e-13
-1.944e-13
-1.94386e-13
-1.94695e-13
-1.9405e-13
-1.95084e-13
-1.94674e-13
-1.94803e-13
-1.94796e-13
-1.94379e-13
-1.94546e-13
-1.94306e-13
-1.94556e-13
-1.94386e-13
-2.59855e-13
-2.59986e-13
-2.60094e-13
-2.59931e-13
-2.60091e-13
-2.59643e-13
-2.59757e-13
-2.60039e-13
-2.60087e-13
-2.59855e-13
-2.5983e-13
-2.60184e-13
-2.59924e-13
-2.59733e-13
-2.59959e-13
-2.6015e-13
-2.59879e-13
-2.59796e-13
-2.59855e-13
-2.5999e-13
-2.59969e-13
-2.59626e-13
-2.59636e-13
-2.59938e-13
-2.59771e-13
-2.59671e-13
-2.59633e-13
-2.59886e-13
-2.60032e-13
-2.59674e-13
-2.59896e-13
-2.5965e-13
-2.59823e-13
-2.59768e-13
-2.59712e-13
-2.59914e-13
-2.59771e-13
-2.59369e-13
-2.59782e-13
-2.59716e-13
-2.59869e-13
-2.59764e-13
-2.60049e-13
-2.59754e-13
-2.59886e-13
-2.59969e-13
-2.5981e-13
-2.59938e-13
-2.60042e-13
-2.59938e-13
-2.60118e-13
-2.59445e-13
-2.59848e-13
-2.59692e-13
-2.5981e-13
-2.59973e-13
-2.59882e-13
-2.59966e-13
-2.59757e-13
-2.59882e-13
-2.24775e-13
-2.25011e-13
-2.24928e-13
-2.24754e-13
-2.2498e-13
-2.24966e-13
-2.24942e-13
-2.25094e-13
-2.24799e-13
-2.24883e-13
-2.25132e-13
-2.25032e-13
-2.24834e-13
-2.24844e-13
-2.24966e-13
-2.24962e-13
-2.249e-13
-2.24869e-13
-2.25101e-13
-2.24931e-13
-2.24973e-13
-2.25014e-13
-2.25014e-13
-2.24987e-13
-2.24813e-13
-2.25125e-13
-2.24994e-13
-2.2489e-13
-2.24962e-13
-2.24935e-13
-2.24688e-13
-2.25028e-13
-2.24775e-13
-2.2498e-13
-2.25084e-13
-2.24945e-13
-2.25014e-13
-2.24955e-13
-2.25087e-13
-2.2508e-13
-2.24779e-13
-2.24872e-13
-2.24806e-13
-2.24976e-13
-2.24883e-13
-2.2489e-13
-2.25112e-13
-2.25063e-13
-2.25004e-13
-2.24952e-13
-2.24792e-13
-2.24924e-13
-2.24914e-13
-2.25219e-13
-2.25049e-13
-2.25146e-13
-2.25025e-13
-2.24851e-13
-2.24928e-13
-2.24931e-13
-1.5303e-13
-1.53072e-13
-1.53186e-13
-1.53249e-13
-1.53051e-13
-1.53249e-13
-1.53245e-13
-1.53193e-13
-1.53232e-13
-1.5328e-13
-1.53155e-13
-1.53107e-13
-1.53273e-13
-1.53148e-13
-1.5318e-13
-1.53138e-13
-1.5328e-13
-1.53155e-13
-1.53134e-13
-1.53134e-13
-1.53072e-13
-1.53311e-13
-1.53211e-13
-1.53232e-13
-1.53114e-13
-1.5318e-13
-1.53263e-13
-1.5302e-13
-1.53225e-13
-1.53232e-13
-1.53311e-13
-1.53214e-13
-1.53103e-13
-1.53225e-13
-1.53155e-13
-1.53343e-13
-1.53169e-13
-1.53218e-13
-1.5301e-13
-1.53093e-13
-1.53315e-13
-1.53232e-13
-1.53391e-13
-1.53388e-13
-1.53245e-13
-1.53242e-13
-1.53256e-13
-1.53134e-13
-1.53405e-13
-1.53266e-13
-1.53193e-13
-1.53315e-13
-1.53211e-13
-1.52982e-13
-1.53287e-13
-1.53034e-13
-1.53166e-13
-1.53239e-13
-1.53152e-13
-1.53266e-13
-9.09758e-14
-9.10938e-14
-9.09169e-14
-9.07954e-14
-9.10695e-14
-9.10765e-14
-9.09897e-14
-9.09585e-14
-9.10313e-14
-9.08232e-14
-9.11389e-14
-9.09342e-14
-9.09099e-14
-9.10036e-14
-9.09585e-14
-9.09307e-14
-9.07885e-14
-9.10487e-14
-9.09724e-14
-9.0962e-14
-9.08926e-14
-9.08926e-14
-9.08475e-14
-9.08787e-14
-9.10418e-14
-9.10313e-14
-9.09967e-14
-9.10452e-14
-9.08336e-14
-9.09307e-14
-9.09758e-14
-9.10071e-14
-9.09134e-14
-9.08995e-14
-9.0844e-14
-9.09481e-14
-9.10071e-14
-9.0955e-14
-9.12222e-14
-9.09724e-14
-9.08752e-14
-9.0903e-14
-9.09411e-14
-9.10071e-14
-9.09585e-14
-9.09516e-14
-9.09203e-14
-9.12811e-14
-9.09342e-14
-9.09169e-14
-9.09689e-14
-9.08718e-14
-9.1014e-14
-9.09724e-14
-9.1073e-14
-9.10244e-14
-9.11007e-14
-9.08752e-14
-9.09862e-14
-9.08648e-14
-5.63646e-14
-5.61912e-14
-5.63993e-14
-5.66665e-14
-5.63438e-14
-5.63473e-14
-5.63438e-14
-5.63403e-14
-5.62536e-14
-5.63161e-14
-5.63265e-14
-5.63508e-14
-5.6323e-14
-5.64514e-14
-5.62744e-14
-5.64722e-14
-5.66769e-14
-5.63542e-14
-5.63508e-14
-5.6323e-14
-5.62987e-14
-5.63716e-14
-5.6434e-14
-5.64132e-14
-5.61183e-14
-5.62536e-14
-5.62987e-14
-5.64965e-14
-5.65104e-14
-5.63889e-14
-5.64375e-14
-5.63022e-14
-5.63161e-14
-5.64652e-14
-5.64618e-14
-5.63057e-14
-5.63265e-14
-5.63091e-14
-5.61079e-14
-5.64063e-14
-5.62918e-14
-5.62467e-14
-5.65381e-14
-5.63785e-14
-5.6271e-14
-5.63993e-14
-5.64028e-14
-5.61357e-14
-5.63369e-14
-5.64028e-14
-5.63195e-14
-5.64479e-14
-5.63855e-14
-5.6441e-14
-5.64028e-14
-5.62536e-14
-5.62952e-14
-5.61808e-14
-5.6323e-14
-5.63646e-14
-4.96304e-14
-4.94882e-14
-4.93008e-14
-4.91898e-14
-4.94292e-14
-4.96547e-14
-4.95194e-14
-4.95749e-14
-4.92592e-14
-4.94431e-14
-4.96929e-14
-4.9398e-14
-4.94778e-14
-4.94917e-14
-4.96235e-14
-4.90857e-14
-4.91412e-14
-4.96513e-14
-4.96235e-14
-4.98351e-14
-4.95576e-14
-4.93668e-14
-4.928e-14
-4.94292e-14
-4.94015e-14
-4.95159e-14
-4.9509e-14
-4.94743e-14
-4.93702e-14
-4.95472e-14
-4.95229e-14
-4.96894e-14
-4.94466e-14
-4.94674e-14
-4.95298e-14
-4.93876e-14
-4.93876e-14
-4.9568e-14
-4.96235e-14
-4.94084e-14
-4.94119e-14
-4.96096e-14
-4.92904e-14
-4.95229e-14
-4.94431e-14
-4.95229e-14
-4.94466e-14
-4.9509e-14
-4.95472e-14
-4.95264e-14
-4.96998e-14
-4.94292e-14
-4.93945e-14
-4.96374e-14
-4.94015e-14
-4.9398e-14
-4.96998e-14
-4.96755e-14
-4.95368e-14
-4.96131e-14
-6.68042e-14
-6.68528e-14
-6.7224e-14
-6.70748e-14
-6.7054e-14
-6.6884e-14
-6.67938e-14
-6.71858e-14
-6.7054e-14
-6.6936e-14
-6.67071e-14
-6.68875e-14
-6.71928e-14
-6.70679e-14
-6.71026e-14
-6.71477e-14
-6.7113e-14
-6.68007e-14
-6.69499e-14
-6.64468e-14
-6.68979e-14
-6.70679e-14
-6.69222e-14
-6.69256e-14
-6.69811e-14
-6.67799e-14
-6.69256e-14
-6.69777e-14
-6.68771e-14
-6.67764e-14
-6.68979e-14
-6.68771e-14
-6.71373e-14
-6.68771e-14
-6.67175e-14
-6.70575e-14
-6.71407e-14
-6.67903e-14
-6.68562e-14
-6.69152e-14
-6.70505e-14
-6.6832e-14
-6.67487e-14
-6.69846e-14
-6.69048e-14
-6.70367e-14
-6.70158e-14
-6.69881e-14
-6.70575e-14
-6.68493e-14
-6.66134e-14
-6.69499e-14
-6.7113e-14
-6.69846e-14
-6.71685e-14
-6.69742e-14
-6.70505e-14
-6.67452e-14
-6.67903e-14
-6.69291e-14
-1.09551e-13
-1.09471e-13
-1.09347e-13
-1.09565e-13
-1.09489e-13
-1.09527e-13
-1.09652e-13
-1.09336e-13
-1.09725e-13
-1.09683e-13
-1.09582e-13
-1.09607e-13
-1.09392e-13
-1.0944e-13
-1.09517e-13
-1.09419e-13
-1.09482e-13
-1.09839e-13
-1.09364e-13
-1.09756e-13
-1.09589e-13
-1.09593e-13
-1.09811e-13
-1.09468e-13
-1.09596e-13
-1.09617e-13
-1.09589e-13
-1.09433e-13
-1.09694e-13
-1.09777e-13
-1.09475e-13
-1.09617e-13
-1.0943e-13
-1.09576e-13
-1.09628e-13
-1.09586e-13
-1.09433e-13
-1.09662e-13
-1.09288e-13
-1.09576e-13
-1.09576e-13
-1.09655e-13
-1.09773e-13
-1.0961e-13
-1.09635e-13
-1.09465e-13
-1.09537e-13
-1.09444e-13
-1.09537e-13
-1.09614e-13
-1.09624e-13
-1.09638e-13
-1.09471e-13
-1.09496e-13
-1.09524e-13
-1.09478e-13
-1.0936e-13
-1.09756e-13
-1.09655e-13
-1.09551e-13
-1.83391e-13
-1.83391e-13
-1.83558e-13
-1.8327e-13
-1.83471e-13
-1.83603e-13
-1.83478e-13
-1.83301e-13
-1.83194e-13
-1.83371e-13
-1.83558e-13
-1.83513e-13
-1.83301e-13
-1.83267e-13
-1.83652e-13
-1.83714e-13
-1.83617e-13
-1.83457e-13
-1.83433e-13
-1.83471e-13
-1.83523e-13
-1.83461e-13
-1.83391e-13
-1.83513e-13
-1.83204e-13
-1.83489e-13
-1.83457e-13
-1.83634e-13
-1.83679e-13
-1.83454e-13
-1.8369e-13
-1.83516e-13
-1.83513e-13
-1.83437e-13
-1.83492e-13
-1.83333e-13
-1.8361e-13
-1.83506e-13
-1.83697e-13
-1.83579e-13
-1.8318e-13
-1.83208e-13
-1.83166e-13
-1.83461e-13
-1.83201e-13
-1.83676e-13
-1.836e-13
-1.83367e-13
-1.83447e-13
-1.83471e-13
-1.83586e-13
-1.83329e-13
-1.83509e-13
-1.83541e-13
-1.83478e-13
-1.83381e-13
-1.83659e-13
-1.83048e-13
-1.8345e-13
-1.83371e-13
-2.87353e-13
-2.86982e-13
-2.87055e-13
-2.8719e-13
-2.87107e-13
-2.86774e-13
-2.87326e-13
-2.87312e-13
-2.87225e-13
-2.87124e-13
-2.86906e-13
-2.86857e-13
-2.87194e-13
-2.87301e-13
-2.87038e-13
-2.8702e-13
-2.86739e-13
-2.87024e-13
-2.87201e-13
-2.86899e-13
-2.86968e-13
-2.86743e-13
-2.8683e-13
-2.86958e-13
-2.87183e-13
-2.87027e-13
-2.8726e-13
-2.87027e-13
-2.86594e-13
-2.86726e-13
-2.87277e-13
-2.86944e-13
-2.87308e-13
-2.86923e-13
-2.87201e-13
-2.87569e-13
-2.87017e-13
-2.86739e-13
-2.86899e-13
-2.87298e-13
-2.8736e-13
-2.87215e-13
-2.87288e-13
-2.87118e-13
-2.86826e-13
-2.8693e-13
-2.86833e-13
-2.87201e-13
-2.86614e-13
-2.87027e-13
-2.86778e-13
-2.87045e-13
-2.87038e-13
-2.87059e-13
-2.8693e-13
-2.86757e-13
-2.87159e-13
-2.87163e-13
-2.86677e-13
-2.8709e-13
-3.74999e-13
-3.75661e-13
-3.75436e-13
-3.7564e-13
-3.75418e-13
-3.76015e-13
-3.7545e-13
-3.75543e-13
-3.75259e-13
-3.75457e-13
-3.75391e-13
-3.75876e-13
-3.7564e-13
-3.7562e-13
-3.75429e-13
-3.75623e-13
-3.75838e-13
-3.75658e-13
-3.75675e-13
-3.75741e-13
-3.75942e-13
-3.76119e-13
-3.75838e-13
-3.75831e-13
-3.75609e-13
-3.75422e-13
-3.75699e-13
-3.7606e-13
-3.75602e-13
-3.75307e-13
-3.74895e-13
-3.75658e-13
-3.75564e-13
-3.76157e-13
-3.75748e-13
-3.75391e-13
-3.75557e-13
-3.75672e-13
-3.75557e-13
-3.75481e-13
-3.75398e-13
-3.75571e-13
-3.758e-13
-3.75814e-13
-3.76112e-13
-3.7579e-13
-3.75831e-13
-3.7589e-13
-3.76012e-13
-3.75783e-13
-3.76442e-13
-3.76057e-13
-3.7581e-13
-3.75575e-13
-3.75866e-13
-3.76088e-13
-3.75623e-13
-3.75679e-13
-3.76126e-13
-3.75699e-13
-3.14911e-13
-3.14523e-13
-3.14672e-13
-3.14491e-13
-3.14859e-13
-3.14172e-13
-3.14606e-13
-3.14242e-13
-3.14703e-13
-3.15005e-13
-3.14779e-13
-3.14585e-13
-3.14793e-13
-3.14356e-13
-3.14651e-13
-3.14831e-13
-3.14408e-13
-3.14346e-13
-3.14269e-13
-3.14668e-13
-3.14571e-13
-3.1445e-13
-3.1462e-13
-3.1436e-13
-3.14384e-13
-3.14738e-13
-3.14582e-13
-3.14374e-13
-3.1472e-13
-3.15126e-13
-3.14866e-13
-3.14804e-13
-3.14703e-13
-3.14245e-13
-3.14592e-13
-3.14176e-13
-3.14658e-13
-3.14238e-13
-3.14453e-13
-3.14835e-13
-3.14943e-13
-3.14734e-13
-3.14332e-13
-3.14391e-13
-3.14394e-13
-3.14679e-13
-3.14443e-13
-3.14294e-13
-3.14516e-13
-3.14259e-13
-3.13652e-13
-3.14391e-13
-3.14446e-13
-3.15067e-13
-3.14557e-13
-3.14367e-13
-3.1446e-13
-3.14034e-13
-3.14422e-13
-3.14193e-13
7.12763e-14
7.14151e-14
7.12347e-14
7.08322e-14
7.12173e-14
7.08496e-14
7.15261e-14
7.12382e-14
7.1311e-14
7.20431e-14
7.17724e-14
7.17273e-14
7.13457e-14
7.14429e-14
7.14637e-14
7.15955e-14
7.11549e-14
7.11306e-14
7.14012e-14
7.15157e-14
7.13873e-14
7.18037e-14
7.1141e-14
7.17655e-14
7.16302e-14
7.14047e-14
7.1422e-14
7.14429e-14
7.16094e-14
7.14394e-14
7.11965e-14
7.18071e-14
7.16302e-14
7.12451e-14
7.13422e-14
7.07212e-14
7.13353e-14
7.10126e-14
7.14671e-14
7.13665e-14
7.17308e-14
7.1311e-14
7.07386e-14
7.15573e-14
7.17516e-14
7.12104e-14
7.11653e-14
7.12035e-14
7.13318e-14
7.12451e-14
7.08635e-14
7.13145e-14
7.07732e-14
7.19771e-14
7.14463e-14
7.16302e-14
7.12104e-14
7.12867e-14
7.14186e-14
7.09953e-14
6.84199e-13
6.83807e-13
6.83998e-13
6.84112e-13
6.83925e-13
6.84126e-13
6.83117e-13
6.83582e-13
6.83904e-13
6.8345e-13
6.83523e-13
6.83342e-13
6.83682e-13
6.83495e-13
6.83266e-13
6.83623e-13
6.83356e-13
6.8387e-13
6.8338e-13
6.84057e-13
6.83956e-13
6.83193e-13
6.84112e-13
6.83887e-13
6.83443e-13
6.83491e-13
6.83304e-13
6.8406e-13
6.83349e-13
6.8422e-13
6.83856e-13
6.83224e-13
6.83179e-13
6.84067e-13
6.83946e-13
6.83786e-13
6.83963e-13
6.83412e-13
6.83873e-13
6.83599e-13
6.83766e-13
6.83755e-13
6.84241e-13
6.83675e-13
6.83429e-13
6.83894e-13
6.83648e-13
6.83644e-13
6.83859e-13
6.83887e-13
6.83731e-13
6.84112e-13
6.84591e-13
6.84255e-13
6.83856e-13
6.83443e-13
6.83772e-13
6.83485e-13
6.83613e-13
6.83845e-13
7.72181e-13
7.72549e-13
7.72493e-13
7.7267e-13
7.72087e-13
7.72583e-13
7.73034e-13
7.72764e-13
7.72479e-13
7.72618e-13
7.72878e-13
7.73513e-13
7.73395e-13
7.72986e-13
7.73225e-13
7.72472e-13
7.72639e-13
7.72962e-13
7.72844e-13
7.73066e-13
7.72635e-13
7.73267e-13
7.72493e-13
7.72809e-13
7.73492e-13
7.73062e-13
7.73388e-13
7.72233e-13
7.73048e-13
7.72757e-13
7.72861e-13
7.73007e-13
7.72965e-13
7.72413e-13
7.72951e-13
7.72903e-13
7.72601e-13
7.73496e-13
7.72622e-13
7.73256e-13
7.72972e-13
7.72927e-13
7.72833e-13
7.72913e-13
7.72982e-13
7.72854e-13
7.73236e-13
7.72722e-13
7.73114e-13
7.72663e-13
7.72857e-13
7.72694e-13
7.72042e-13
7.72587e-13
7.72687e-13
7.72802e-13
7.72153e-13
7.72885e-13
7.7293e-13
7.72511e-13
-5.42007e-13
-5.41771e-13
-5.4199e-13
-5.42125e-13
-5.41189e-13
-5.41896e-13
-5.41369e-13
-5.41921e-13
-5.41539e-13
-5.41771e-13
-5.42587e-13
-5.4258e-13
-5.42427e-13
-5.42271e-13
-5.42191e-13
-5.41529e-13
-5.41102e-13
-5.42354e-13
-5.42018e-13
-5.42476e-13
-5.42056e-13
-5.42018e-13
-5.41314e-13
-5.42375e-13
-5.42139e-13
-5.42167e-13
-5.42153e-13
-5.41709e-13
-5.42167e-13
-5.42594e-13
-5.41751e-13
-5.41681e-13
-5.42087e-13
-5.41896e-13
-5.42563e-13
-5.4208e-13
-5.41969e-13
-5.41765e-13
-5.4149e-13
-5.42091e-13
-5.42018e-13
-5.41633e-13
-5.41921e-13
-5.42726e-13
-5.42236e-13
-5.42445e-13
-5.41945e-13
-5.41678e-13
-5.41626e-13
-5.41466e-13
-5.42344e-13
-5.42018e-13
-5.41508e-13
-5.42386e-13
-5.41883e-13
-5.41619e-13
-5.41119e-13
-5.42344e-13
-5.41817e-13
-5.42056e-13
-2.66007e-12
-2.66038e-12
-2.66047e-12
-2.66084e-12
-2.66186e-12
-2.6609e-12
-2.66119e-12
-2.66109e-12
-2.66099e-12
-2.66066e-12
-2.65965e-12
-2.661e-12
-2.66114e-12
-2.6605e-12
-2.66078e-12
-2.66098e-12
-2.66155e-12
-2.66065e-12
-2.66039e-12
-2.6607e-12
-2.66057e-12
-2.66027e-12
-2.66078e-12
-2.66027e-12
-2.66126e-12
-2.66014e-12
-2.66053e-12
-2.66115e-12
-2.66054e-12
-2.66015e-12
-2.66109e-12
-2.6607e-12
-2.6606e-12
-2.66101e-12
-2.66024e-12
-2.66083e-12
-2.6606e-12
-2.6614e-12
-2.66092e-12
-2.66069e-12
-2.66099e-12
-2.66055e-12
-2.66049e-12
-2.66083e-12
-2.66065e-12
-2.66121e-12
-2.66095e-12
-2.66116e-12
-2.6611e-12
-2.66084e-12
-2.66114e-12
-2.66009e-12
-2.66102e-12
-2.66036e-12
-2.66061e-12
-2.66075e-12
-2.66072e-12
-2.66017e-12
-2.66068e-12
-2.6605e-12
-3.37823e-12
-3.37832e-12
-3.37876e-12
-3.37858e-12
-3.37858e-12
-3.37915e-12
-3.37932e-12
-3.37901e-12
-3.37941e-12
-3.37941e-12
-3.38009e-12
-3.37904e-12
-3.37901e-12
-3.37969e-12
-3.37976e-12
-3.37881e-12
-3.37888e-12
-3.37933e-12
-3.37925e-12
-3.37927e-12
-3.37923e-12
-3.37928e-12
-3.37918e-12
-3.37966e-12
-3.37846e-12
-3.37909e-12
-3.37964e-12
-3.3788e-12
-3.37889e-12
-3.37931e-12
-3.37899e-12
-3.37926e-12
-3.37879e-12
-3.379e-12
-3.37929e-12
-3.37904e-12
-3.37904e-12
-3.37849e-12
-3.37901e-12
-3.37894e-12
-3.37906e-12
-3.37961e-12
-3.37928e-12
-3.37869e-12
-3.37938e-12
-3.37833e-12
-3.37916e-12
-3.37874e-12
-3.37965e-12
-3.37928e-12
-3.37809e-12
-3.37994e-12
-3.37888e-12
-3.3796e-12
-3.37902e-12
-3.3789e-12
-3.37907e-12
-3.37883e-12
-3.37834e-12
-3.37812e-12
-1.65816e-12
-1.65811e-12
-1.65844e-12
-1.65921e-12
-1.65772e-12
-1.65855e-12
-1.659e-12
-1.65878e-12
-1.65921e-12
-1.65831e-12
-1.65906e-12
-1.658e-12
-1.65821e-12
-1.65905e-12
-1.65773e-12
-1.65974e-12
-1.65896e-12
-1.65911e-12
-1.65862e-12
-1.65754e-12
-1.6584e-12
-1.65789e-12
-1.65796e-12
-1.65807e-12
-1.65948e-12
-1.65829e-12
-1.65825e-12
-1.65825e-12
-1.6579e-12
-1.6581e-12
-1.65837e-12
-1.65835e-12
-1.65834e-12
-1.65807e-12
-1.65875e-12
-1.65806e-12
-1.6582e-12
-1.65829e-12
-1.65836e-12
-1.65829e-12
-1.65943e-12
-1.65824e-12
-1.65815e-12
-1.65914e-12
-1.65923e-12
-1.65884e-12
-1.65831e-12
-1.6592e-12
-1.65823e-12
-1.65878e-12
-1.65967e-12
-1.65916e-12
-1.65924e-12
-1.65843e-12
-1.65912e-12
-1.65872e-12
-1.65903e-12
-1.65752e-12
-1.65838e-12
-1.65809e-12
8.82381e-13
8.82266e-13
8.82554e-13
8.81604e-13
8.80206e-13
8.81791e-13
8.81968e-13
8.81597e-13
8.80636e-13
8.80896e-13
8.82041e-13
8.80112e-13
8.79255e-13
8.81014e-13
8.80119e-13
8.8194e-13
8.80726e-13
8.80854e-13
8.80119e-13
8.80393e-13
8.80913e-13
8.81208e-13
8.80452e-13
8.79165e-13
8.80712e-13
8.81007e-13
8.81576e-13
8.80455e-13
8.80147e-13
8.80431e-13
8.80535e-13
8.82249e-13
8.81392e-13
8.81614e-13
8.81881e-13
8.81462e-13
8.81527e-13
8.81715e-13
8.79248e-13
8.81163e-13
8.81843e-13
8.8134e-13
8.8075e-13
8.8134e-13
8.81954e-13
8.80157e-13
8.80691e-13
8.80258e-13
8.80331e-13
8.81618e-13
8.81552e-13
8.81625e-13
8.82055e-13
8.81146e-13
8.81396e-13
8.80983e-13
8.82964e-13
8.79945e-13
8.80282e-13
8.8143e-13
2.25539e-12
2.25471e-12
2.25478e-12
2.25578e-12
2.25657e-12
2.25584e-12
2.25545e-12
2.25496e-12
2.25647e-12
2.25612e-12
2.25598e-12
2.2564e-12
2.25923e-12
2.25644e-12
2.25709e-12
2.25523e-12
2.25619e-12
2.25635e-12
2.25608e-12
2.25628e-12
2.25545e-12
2.25495e-12
2.25637e-12
2.25819e-12
2.25755e-12
2.25546e-12
2.25647e-12
2.25735e-12
2.25711e-12
2.25737e-12
2.25665e-12
2.25554e-12
2.25658e-12
2.25511e-12
2.2559e-12
2.25524e-12
2.25502e-12
2.25445e-12
2.25853e-12
2.2553e-12
2.25568e-12
2.25599e-12
2.2566e-12
2.25582e-12
2.25524e-12
2.25575e-12
2.25596e-12
2.25649e-12
2.25614e-12
2.25595e-12
2.25728e-12
2.25671e-12
2.25415e-12
2.25691e-12
2.25599e-12
2.2557e-12
2.25446e-12
2.25628e-12
2.25585e-12
2.25521e-12
2.187e-12
2.18894e-12
2.18972e-12
2.18921e-12
2.18933e-12
2.18896e-12
2.19094e-12
2.19048e-12
2.18899e-12
2.19134e-12
2.18938e-12
2.18957e-12
2.18855e-12
2.18998e-12
2.19039e-12
2.19007e-12
2.19015e-12
2.18851e-12
2.19e-12
2.18851e-12
2.1912e-12
2.19037e-12
2.18871e-12
2.19059e-12
2.18864e-12
2.19118e-12
2.18991e-12
2.18974e-12
2.18857e-12
2.18996e-12
2.18881e-12
2.19112e-12
2.18869e-12
2.19046e-12
2.188e-12
2.19226e-12
2.19002e-12
2.19199e-12
2.18904e-12
2.19027e-12
2.18959e-12
2.1901e-12
2.19064e-12
2.19045e-12
2.19068e-12
2.19172e-12
2.18867e-12
2.19013e-12
2.19012e-12
2.18837e-12
2.18871e-12
2.18905e-12
2.19121e-12
2.18896e-12
2.1901e-12
2.19067e-12
2.19031e-12
2.19138e-12
2.18927e-12
2.18842e-12
1.50105e-12
1.49854e-12
1.49834e-12
1.49948e-12
1.49857e-12
1.4991e-12
1.49685e-12
1.49771e-12
1.50062e-12
1.49634e-12
1.50189e-12
1.50169e-12
1.5011e-12
1.49824e-12
1.49962e-12
1.49781e-12
1.4986e-12
1.50028e-12
1.49891e-12
1.50074e-12
1.49724e-12
1.49937e-12
1.50042e-12
1.49851e-12
1.49917e-12
1.49673e-12
1.49864e-12
1.49849e-12
1.49837e-12
1.49832e-12
1.50109e-12
1.49673e-12
1.49909e-12
1.49684e-12
1.50046e-12
1.4971e-12
1.49823e-12
1.49771e-12
1.49856e-12
1.49847e-12
1.50028e-12
1.49896e-12
1.49844e-12
1.4973e-12
1.49742e-12
1.49751e-12
1.50113e-12
1.49983e-12
1.50155e-12
1.50204e-12
1.50061e-12
1.5e-12
1.49836e-12
1.50078e-12
1.49827e-12
1.49802e-12
1.49804e-12
1.49728e-12
1.49782e-12
1.50081e-12
8.41244e-13
8.44907e-13
8.45626e-13
8.41528e-13
8.45664e-13
8.45341e-13
8.45012e-13
8.45837e-13
8.43315e-13
8.45185e-13
8.4099e-13
8.42031e-13
8.4106e-13
8.44515e-13
8.43249e-13
8.4573e-13
8.42569e-13
8.43881e-13
8.42441e-13
8.44286e-13
8.43423e-13
8.44529e-13
8.44977e-13
8.42836e-13
8.44633e-13
8.44241e-13
8.42951e-13
8.44425e-13
8.45893e-13
8.43926e-13
8.43051e-13
8.45615e-13
8.45018e-13
8.46195e-13
8.43735e-13
8.44335e-13
8.44821e-13
8.43801e-13
8.44734e-13
8.4429e-13
8.42219e-13
8.44717e-13
8.4234e-13
8.46431e-13
8.4591e-13
8.44897e-13
8.41775e-13
8.42697e-13
8.42094e-13
8.42288e-13
8.42843e-13
8.42174e-13
8.4523e-13
8.43405e-13
8.43516e-13
8.42049e-13
8.45619e-13
8.42895e-13
8.44602e-13
8.43457e-13
4.24168e-13
4.21455e-13
4.2023e-13
4.26978e-13
4.19418e-13
4.20768e-13
4.22166e-13
4.22284e-13
4.20153e-13
4.22808e-13
4.22509e-13
4.22336e-13
4.21926e-13
4.21614e-13
4.20834e-13
4.20292e-13
4.2288e-13
4.21638e-13
4.24501e-13
4.20775e-13
4.24119e-13
4.20983e-13
4.22499e-13
4.22783e-13
4.19845e-13
4.23661e-13
4.23567e-13
4.2176e-13
4.21409e-13
4.22842e-13
4.21222e-13
4.23522e-13
4.24227e-13
4.2185e-13
4.21371e-13
4.21174e-13
4.21059e-13
4.23144e-13
4.20226e-13
4.24272e-13
4.2337e-13
4.20951e-13
4.2389e-13
4.22957e-13
4.20552e-13
4.22423e-13
4.23255e-13
4.24352e-13
4.2168e-13
4.2356e-13
4.24012e-13
4.21781e-13
4.21083e-13
4.23449e-13
4.2355e-13
4.25663e-13
4.21361e-13
4.22308e-13
4.22426e-13
4.22058e-13
1.95319e-13
1.94657e-13
1.9397e-13
1.90865e-13
1.95864e-13
1.95031e-13
1.92263e-13
1.93238e-13
1.96967e-13
1.95146e-13
1.95257e-13
1.96041e-13
1.95233e-13
1.95281e-13
1.97821e-13
1.9517e-13
1.94164e-13
1.94494e-13
1.93179e-13
1.9643e-13
1.94244e-13
1.95094e-13
1.94015e-13
1.93939e-13
1.97356e-13
1.93498e-13
1.93994e-13
1.94497e-13
1.93661e-13
1.93474e-13
1.95986e-13
1.91291e-13
1.91149e-13
1.90105e-13
1.94771e-13
1.94785e-13
1.96908e-13
1.92939e-13
1.97811e-13
1.92946e-13
1.91857e-13
1.97078e-13
1.94608e-13
1.904e-13
1.95715e-13
1.9202e-13
1.92613e-13
1.93508e-13
1.93078e-13
1.94782e-13
1.93019e-13
1.96388e-13
1.94528e-13
1.93897e-13
1.91774e-13
1.94275e-13
1.95403e-13
1.93439e-13
1.93987e-13
1.93741e-13
7.99603e-14
8.02934e-14
8.07097e-14
8.22398e-14
8.04565e-14
8.33465e-14
8.40751e-14
7.97001e-14
8.18547e-14
8.1251e-14
7.99222e-14
7.63729e-14
8.14834e-14
8.06195e-14
7.83575e-14
8.26075e-14
7.86315e-14
8.06057e-14
8.216e-14
8.11885e-14
8.14383e-14
7.95267e-14
8.49425e-14
8.386e-14
7.82846e-14
7.93983e-14
7.94607e-14
8.2323e-14
8.19657e-14
8.16673e-14
7.90756e-14
8.19032e-14
8.3579e-14
8.4821e-14
8.04148e-14
8.03524e-14
7.96689e-14
8.28573e-14
7.84893e-14
8.10532e-14
8.13308e-14
7.82222e-14
8.15355e-14
8.57023e-14
8.13655e-14
8.2493e-14
8.30863e-14
8.21808e-14
8.32424e-14
7.89542e-14
8.17471e-14
8.15806e-14
8.15528e-14
7.92144e-14
8.50431e-14
8.08589e-14
7.82985e-14
8.17887e-14
7.86766e-14
7.98181e-14
2.76931e-14
2.38733e-14
2.84911e-14
2.59341e-14
2.5431e-14
2.44423e-14
2.61388e-14
2.74884e-14
2.57815e-14
2.35957e-14
2.68466e-14
3.13256e-14
2.44735e-14
2.61111e-14
2.84182e-14
2.63331e-14
2.98025e-14
2.87131e-14
2.5889e-14
2.5948e-14
2.41439e-14
2.85535e-14
2.58057e-14
2.39427e-14
2.9473e-14
2.58543e-14
2.7936e-14
2.95597e-14
2.58682e-14
2.72248e-14
3.00697e-14
2.66245e-14
2.62741e-14
2.70027e-14
2.47684e-14
2.49939e-14
2.69264e-14
2.55733e-14
2.90289e-14
2.54033e-14
2.97436e-14
2.71935e-14
2.67564e-14
2.64198e-14
2.59584e-14
2.71762e-14
2.44839e-14
2.61804e-14
2.34951e-14
2.80921e-14
2.73878e-14
2.68049e-14
2.48968e-14
2.94244e-14
2.5157e-14
2.69541e-14
2.88033e-14
2.70478e-14
2.9237e-14
2.79464e-14
2.2482e-15
5.80785e-15
1.17614e-15
2.01575e-15
6.44276e-15
2.74086e-15
2.53617e-15
6.43235e-15
4.19456e-15
6.30399e-15
3.00107e-15
3.13985e-15
5.7801e-15
6.26929e-15
5.82867e-16
5.64479e-15
3.10862e-15
-1.68615e-15
4.27783e-15
5.83214e-15
4.05231e-15
7.25114e-16
6.13745e-15
4.90927e-15
1.2837e-15
8.16361e-15
4.90233e-15
1.93595e-15
2.69576e-15
2.56045e-15
3.78517e-15
5.58928e-15
3.06699e-15
5.12437e-15
4.59355e-15
4.44436e-15
5.02029e-15
6.1999e-15
6.00561e-15
2.89352e-15
6.93889e-18
3.62557e-15
4.66641e-15
-7.97973e-16
5.91888e-15
4.45477e-15
7.76809e-15
2.35922e-15
4.49987e-15
5.63438e-15
2.13718e-15
1.72778e-15
7.20257e-15
1.55778e-15
4.16681e-15
4.0766e-15
1.38778e-15
2.53617e-15
4.43048e-15
4.15293e-15
-7.17829e-15
-3.54231e-15
-2.69923e-15
-7.63972e-15
-8.33708e-15
-4.37844e-15
-6.53644e-15
-8.78117e-15
-7.83401e-15
-6.52256e-15
-6.36297e-15
-5.64132e-15
-9.86711e-15
-8.95811e-15
-3.89272e-15
-7.88952e-15
-5.76275e-15
-2.158e-15
-6.68909e-15
-9.38485e-15
-4.92661e-15
-4.56579e-15
-1.17406e-14
-6.71338e-15
-6.3595e-15
-1.13728e-14
-1.04881e-14
-9.00321e-15
-5.90153e-15
-4.45477e-15
-7.79238e-15
-8.75341e-15
-3.9968e-15
-8.12198e-15
-7.33788e-15
-5.01335e-15
-7.154e-15
-7.14706e-15
-7.70564e-15
-3.05658e-15
-3.92394e-15
-7.53564e-15
-6.87644e-15
-2.56739e-15
-5.55805e-15
-8.62851e-15
-8.34749e-15
-4.26742e-15
-7.14012e-15
-6.38378e-15
-4.59355e-15
-3.18148e-15
-9.60343e-15
-4.88151e-15
-5.38458e-15
-9.03097e-15
-5.32907e-15
-7.24074e-15
-7.97973e-15
-8.20177e-15
-6.84522e-15
-1.24623e-14
-1.02418e-14
-1.01134e-14
-6.4844e-15
-7.74728e-15
-6.71685e-15
-9.62425e-15
-8.26422e-15
-1.02626e-14
-1.03112e-14
-1.09288e-14
-6.78277e-15
-6.24154e-15
-1.0561e-14
-6.57807e-15
-1.24276e-14
-1.27225e-14
-7.62237e-15
-7.18522e-15
-9.8567e-15
-1.00857e-14
-5.52336e-15
-8.4481e-15
-8.67362e-15
-5.65173e-15
-6.30052e-15
-7.25461e-15
-6.12704e-15
-1.31735e-14
-1.19731e-14
-6.2797e-15
-9.38832e-15
-9.6069e-15
-8.85056e-15
-1.04153e-14
-8.33708e-15
-9.37098e-15
-1.13208e-14
-1.20425e-14
-9.42996e-15
-8.59382e-15
-9.25995e-15
-9.36404e-15
-9.64159e-15
-8.11851e-15
-9.95731e-15
-1.0051e-14
-5.63785e-15
-1.48805e-14
-1.19418e-14
-9.82894e-15
-7.33788e-15
-1.23478e-14
-1.07553e-14
-9.32934e-15
-9.14199e-15
-8.23647e-15
-1.03528e-14
-7.92075e-15
-1.21674e-14
-1.09669e-14
-1.27849e-14
-1.01863e-14
-1.40409e-14
-1.19453e-14
-1.35204e-14
-1.25906e-14
-1.00579e-14
-1.39437e-14
-1.32498e-14
-1.045e-14
-1.21569e-14
-1.40131e-14
-1.45821e-14
-1.41796e-14
-9.49935e-15
-7.59462e-15
-1.35586e-14
-1.56715e-14
-1.30868e-14
-1.11022e-14
-1.43253e-14
-1.37078e-14
-1.46098e-14
-1.16157e-14
-1.3621e-14
-1.16539e-14
-1.76976e-14
-8.74301e-15
-6.88685e-15
-1.55674e-14
-1.28821e-14
-1.18239e-14
-1.03112e-14
-1.45127e-14
-1.26947e-14
-1.28647e-14
-9.25302e-15
-1.30902e-14
-1.19904e-14
-1.09773e-14
-1.08351e-14
-1.52933e-14
-1.05124e-14
-1.24102e-14
-1.20355e-14
-1.164e-14
-1.53766e-14
-7.47319e-15
-1.59699e-14
-1.46688e-14
-1.03424e-14
-8.33014e-15
-9.46812e-15
-7.44543e-15
-1.14075e-14
-1.28161e-14
-1.10467e-14
-1.3229e-14
-8.08381e-15
-9.70404e-15
-1.0103e-14
-7.94503e-15
-9.86711e-15
-1.57548e-14
-1.38708e-14
-8.46198e-15
-1.19835e-14
-6.80012e-15
-9.89486e-15
-8.93383e-15
-1.28647e-14
-9.86364e-15
-9.68323e-15
-8.64239e-15
-8.57994e-15
-1.21778e-14
-9.41608e-15
-4.02456e-15
-8.20524e-15
-1.18863e-14
-8.04912e-15
-9.65547e-15
-4.21191e-15
-1.13798e-14
-7.28931e-15
-1.20216e-14
-6.82787e-15
-9.96078e-15
-1.58554e-14
-9.66588e-15
-6.01949e-15
-1.11612e-14
-1.39715e-14
-7.14359e-15
-8.28851e-15
-7.38645e-15
-1.26149e-14
-1.04187e-14
-7.31706e-15
-9.23914e-15
-1.15047e-14
-9.38832e-15
-1.05853e-14
-7.29972e-15
-1.1019e-14
-9.312e-15
-6.99094e-15
-1.13312e-14
-3.72966e-15
-9.29465e-15
-1.08559e-14
-1.20563e-14
-9.62425e-15
-1.24727e-14
-8.96158e-15
-6.81746e-15
-9.10383e-15
-1.02938e-14
-1.32776e-14
-7.66748e-15
-5.00641e-15
-1.23998e-14
-7.01522e-15
-3.02189e-15
-6.10623e-15
-1.17857e-14
-1.1293e-14
-1.16192e-14
-8.36831e-15
-9.55486e-15
-4.61089e-15
-1.07379e-14
-9.63812e-15
-1.08663e-14
-8.87485e-15
-8.72913e-15
-1.22714e-14
-1.36315e-14
-1.02626e-14
-9.23914e-15
-7.96238e-15
-5.91541e-15
-1.29376e-14
-1.12271e-14
-1.10363e-14
-7.1991e-15
-9.75262e-15
-7.11931e-15
-6.22766e-15
-8.56953e-15
-1.50054e-14
-7.00828e-15
-9.62078e-15
-1.27259e-14
-7.00828e-15
-1.14249e-14
-8.41341e-15
-1.20737e-14
-8.79852e-15
-1.11404e-14
-1.0273e-14
-8.56953e-15
-9.63118e-15
-1.08906e-14
-8.60076e-15
-1.11369e-14
-9.67976e-15
-6.27276e-15
-1.03077e-14
-9.42996e-15
-8.82627e-15
-9.04138e-15
-1.16955e-14
-9.22873e-15
-1.10259e-14
-1.18655e-14
-5.57193e-15
-9.83241e-15
-3.41394e-15
-7.9485e-15
-1.40513e-14
-8.72913e-15
-1.09426e-14
-1.48458e-14
-9.33628e-15
-8.55913e-15
-8.47586e-15
-1.0103e-14
-1.20737e-14
-8.00401e-15
-1.26565e-14
-1.03112e-14
-6.68562e-15
-6.08541e-15
-9.18016e-15
-5.89112e-15
-4.20497e-15
-9.1975e-15
-1.13139e-14
-8.35443e-15
-9.90874e-15
-1.16539e-14
-3.99333e-15
-5.18682e-15
-6.88338e-15
-7.06726e-15
-4.00027e-15
-1.09149e-14
-1.03598e-14
-1.01238e-14
-5.32907e-15
-1.36176e-14
-6.06806e-15
-3.17454e-15
-1.23859e-14
-7.7785e-15
-7.78197e-15
-3.67761e-15
-1.07692e-14
-6.14092e-15
-2.7027e-15
-6.984e-15
-8.06646e-15
-6.42195e-15
-1.07657e-14
-8.53484e-15
-8.17402e-15
-1.39819e-14
-1.05888e-14
-7.14012e-15
-1.03147e-14
-8.26422e-15
-8.11157e-15
-8.62158e-15
-9.82547e-15
-7.27543e-15
-1.20494e-14
-5.29438e-15
-1.09253e-14
-1.06581e-14
-2.9976e-15
-8.03871e-15
-7.65707e-15
-1.30451e-15
-7.77503e-15
-1.2202e-14
-3.1572e-15
-3.56312e-15
-6.55725e-15
-8.21218e-15
-1.57166e-15
-3.87884e-15
-1.18169e-14
-9.70751e-15
-7.97626e-15
-1.03563e-14
-8.28157e-15
-3.51455e-15
-3.63598e-15
-5.15213e-15
-8.39606e-15
-8.26075e-15
-1.09253e-14
-9.74568e-15
-8.02136e-15
-1.26288e-14
-9.86711e-15
-8.19136e-15
-4.26742e-15
-7.28584e-15
-5.31172e-15
-2.27249e-15
-9.06913e-15
-1.25282e-14
-5.66561e-15
-9.09689e-15
-7.3587e-15
-1.04916e-14
-1.80758e-15
-5.89112e-15
-1.05436e-14
-9.0275e-15
-8.76382e-15
-1.32776e-14
-7.52176e-15
-6.23113e-15
-8.94076e-15
-5.5754e-15
-8.9824e-15