/*--------------------------------*- C++ -*----------------------------------*\
| =========                 |                                                 |
| \\      /  F ield         | foam-extend: Open Source CFD                    |
|  \\    /   O peration     | Version:     4.0                                |
|   \\  /    A nd           | Web:         http://www.foam-extend.org         |
|    \\/     M anipulation  |                                                 |
\*---------------------------------------------------------------------------*/
FoamFile
{
    version     2.0;
    format      ascii;
    class       volScalarField;
    location    "4";
    object      p;
}
// * * * * * * * * * * * * * * * * * * * * * * * * * * * * * * * * * * * * * //

dimensions      [0 2 -2 0 0 0 0];

internalField   nonuniform List<scalar> 
6960
(
4.64843e-24
7.27482e-24
7.17333e-24
7.19773e-24
7.2293e-24
7.29135e-24
7.26077e-24
7.21826e-24
7.19789e-24
7.26255e-24
7.38126e-24
7.46061e-24
7.41773e-24
7.32777e-24
7.26225e-24
7.16436e-24
7.05183e-24
7.05308e-24
7.16265e-24
7.23595e-24
7.18718e-24
7.10495e-24
7.09074e-24
7.10262e-24
7.06944e-24
7.01446e-24
7.04092e-24
7.1717e-24
7.28409e-24
7.28081e-24
7.23213e-24
7.26271e-24
7.34643e-24
7.36347e-24
7.30482e-24
7.26589e-24
7.27705e-24
7.28288e-24
7.27217e-24
7.266e-24
7.24223e-24
7.21726e-24
7.21678e-24
7.20597e-24
7.19772e-24
7.20712e-24
7.18884e-24
7.17209e-24
7.20382e-24
7.22611e-24
7.20676e-24
7.18395e-24
7.17352e-24
7.18402e-24
7.21745e-24
7.23927e-24
7.25341e-24
7.33637e-24
7.40632e-24
7.40274e-24
6.8541e-24
7.21222e-24
7.09784e-24
7.09081e-24
7.10886e-24
7.19968e-24
7.1982e-24
7.15828e-24
7.13115e-24
7.18855e-24
7.29703e-24
7.37236e-24
7.33083e-24
7.23747e-24
7.1677e-24
7.07967e-24
6.99285e-24
7.0093e-24
7.10561e-24
7.15949e-24
7.1121e-24
7.04008e-24
7.0183e-24
7.01225e-24
6.97504e-24
6.93426e-24
6.98101e-24
7.11604e-24
7.21627e-24
7.21101e-24
7.16565e-24
7.19607e-24
7.27756e-24
7.29408e-24
7.25137e-24
7.21944e-24
7.20882e-24
7.19827e-24
7.18653e-24
7.18181e-24
7.16342e-24
7.13667e-24
7.12844e-24
7.12823e-24
7.14056e-24
7.15208e-24
7.12695e-24
7.10495e-24
7.11601e-24
7.11803e-24
7.10476e-24
7.10083e-24
7.10991e-24
7.12838e-24
7.14579e-24
7.14893e-24
7.15494e-24
7.22784e-24
7.2956e-24
7.29644e-24
7.24089e-24
7.18196e-24
7.0655e-24
7.04788e-24
7.06008e-24
7.16036e-24
7.16931e-24
7.13064e-24
7.09999e-24
7.15183e-24
7.25424e-24
7.32922e-24
7.29186e-24
7.19946e-24
7.12689e-24
7.04051e-24
6.96199e-24
6.98222e-24
7.07183e-24
7.11885e-24
7.07398e-24
7.00715e-24
6.98312e-24
6.97188e-24
6.93495e-24
6.89902e-24
6.94952e-24
7.08129e-24
7.17434e-24
7.16844e-24
7.12461e-24
7.15466e-24
7.23583e-24
7.25305e-24
7.21596e-24
7.1856e-24
7.16637e-24
7.14961e-24
7.13745e-24
7.13368e-24
7.11845e-24
7.09237e-24
7.08245e-24
7.08735e-24
7.10873e-24
7.12268e-24
7.09523e-24
7.06845e-24
7.06809e-24
7.06157e-24
7.05214e-24
7.0575e-24
7.07708e-24
7.10258e-24
7.11703e-24
7.11433e-24
7.11657e-24
7.18353e-24
7.24863e-24
7.25038e-24
6.99243e-24
7.18357e-24
7.07397e-24
7.06657e-24
7.08272e-24
7.17383e-24
7.17521e-24
7.1383e-24
7.11017e-24
7.16222e-24
7.26479e-24
7.33856e-24
7.30023e-24
7.21005e-24
7.14055e-24
7.05207e-24
6.96536e-24
6.98051e-24
7.07371e-24
7.12528e-24
7.07821e-24
7.0079e-24
6.98781e-24
6.9837e-24
6.948e-24
6.90588e-24
6.94754e-24
7.07609e-24
7.17193e-24
7.16549e-24
7.11928e-24
7.14732e-24
7.22693e-24
7.24428e-24
7.20479e-24
7.17623e-24
7.16742e-24
7.15749e-24
7.14632e-24
7.1429e-24
7.12624e-24
7.1005e-24
7.09319e-24
7.09567e-24
7.11216e-24
7.127e-24
7.10208e-24
7.07578e-24
7.07958e-24
7.07584e-24
7.0614e-24
7.06104e-24
7.07753e-24
7.10497e-24
7.12933e-24
7.13506e-24
7.139e-24
7.20634e-24
7.26774e-24
7.26394e-24
6.90041e-24
7.18214e-24
7.07725e-24
7.07516e-24
7.09274e-24
7.17932e-24
7.17788e-24
7.14276e-24
7.11532e-24
7.16502e-24
7.26515e-24
7.33826e-24
7.30192e-24
7.21474e-24
7.14606e-24
7.05498e-24
6.96335e-24
6.97503e-24
7.06867e-24
7.12201e-24
7.07471e-24
7.00384e-24
6.98647e-24
6.98692e-24
6.95298e-24
6.90755e-24
6.94176e-24
7.06373e-24
7.15708e-24
7.14944e-24
7.10284e-24
7.13038e-24
7.20897e-24
7.22612e-24
7.18577e-24
7.1585e-24
7.15509e-24
7.14949e-24
7.14012e-24
7.13752e-24
7.12029e-24
7.09485e-24
7.08965e-24
7.09319e-24
7.11013e-24
7.12705e-24
7.10309e-24
7.07496e-24
7.07783e-24
7.07329e-24
7.05589e-24
7.05396e-24
7.07214e-24
7.10487e-24
7.13761e-24
7.14914e-24
7.15336e-24
7.21819e-24
7.27441e-24
7.26582e-24
6.88889e-24
7.17668e-24
7.0756e-24
7.07637e-24
7.09336e-24
7.17754e-24
7.17597e-24
7.14332e-24
7.1167e-24
7.16325e-24
7.25877e-24
7.33067e-24
7.2978e-24
7.21432e-24
7.14565e-24
7.05263e-24
6.95914e-24
6.96835e-24
7.0596e-24
7.1125e-24
7.06629e-24
6.99642e-24
6.98037e-24
6.9835e-24
6.95221e-24
6.906e-24
6.9341e-24
7.04772e-24
7.13537e-24
7.12593e-24
7.07944e-24
7.10684e-24
7.18482e-24
7.20208e-24
7.16275e-24
7.13715e-24
7.13615e-24
7.13304e-24
7.12551e-24
7.12372e-24
7.10668e-24
7.0818e-24
7.07822e-24
7.08457e-24
7.10493e-24
7.12465e-24
7.10099e-24
7.06987e-24
7.06883e-24
7.06203e-24
7.04402e-24
7.04303e-24
7.06451e-24
7.10269e-24
7.1411e-24
7.15606e-24
7.15973e-24
7.22038e-24
7.27102e-24
7.25872e-24
6.88838e-24
7.1688e-24
7.07098e-24
7.07404e-24
7.08998e-24
7.17215e-24
7.17125e-24
7.14163e-24
7.1161e-24
7.15922e-24
7.24941e-24
7.3197e-24
7.29056e-24
7.21108e-24
7.14257e-24
7.04829e-24
6.95409e-24
6.96119e-24
7.04916e-24
7.10067e-24
7.05547e-24
6.98674e-24
6.97156e-24
6.97695e-24
6.9488e-24
6.90293e-24
6.92554e-24
7.0302e-24
7.11112e-24
7.09969e-24
7.05375e-24
7.08138e-24
7.159e-24
7.17669e-24
7.13896e-24
7.1152e-24
7.11591e-24
7.11482e-24
7.10905e-24
7.10772e-24
7.09041e-24
7.06559e-24
7.06331e-24
7.07295e-24
7.09765e-24
7.12075e-24
7.09788e-24
7.06434e-24
7.05953e-24
7.05055e-24
7.03217e-24
7.03192e-24
7.05602e-24
7.09859e-24
7.14121e-24
7.15842e-24
7.16075e-24
7.21632e-24
7.261e-24
7.24506e-24
6.88407e-24
7.15732e-24
7.06222e-24
7.06752e-24
7.08224e-24
7.16216e-24
7.16208e-24
7.13604e-24
7.11213e-24
7.15194e-24
7.23635e-24
7.30438e-24
7.27862e-24
7.20327e-24
7.13551e-24
7.04105e-24
6.94722e-24
6.95246e-24
7.03658e-24
7.08599e-24
7.04147e-24
6.97374e-24
6.9591e-24
6.96655e-24
6.94195e-24
6.89742e-24
6.91536e-24
7.01115e-24
7.08506e-24
7.07159e-24
7.02645e-24
7.05459e-24
7.13216e-24
7.15077e-24
7.1152e-24
7.09347e-24
7.09561e-24
7.0961e-24
7.0916e-24
7.09009e-24
7.07176e-24
7.04634e-24
7.04496e-24
7.05777e-24
7.08692e-24
7.11374e-24
7.09241e-24
7.0576e-24
7.05021e-24
7.03988e-24
7.02126e-24
7.02094e-24
7.04604e-24
7.09108e-24
7.13627e-24
7.15463e-24
7.15493e-24
7.20479e-24
7.24351e-24
7.22447e-24
6.87745e-24
7.1407e-24
7.0478e-24
7.05539e-24
7.06869e-24
7.1459e-24
7.14657e-24
7.12458e-24
7.10296e-24
7.13977e-24
7.21802e-24
7.28293e-24
7.25986e-24
7.18858e-24
7.1223e-24
7.029e-24
6.93677e-24
6.94048e-24
7.02019e-24
7.06683e-24
7.0228e-24
6.95602e-24
6.94168e-24
6.95093e-24
6.93022e-24
6.88809e-24
6.9024e-24
6.98978e-24
7.05673e-24
7.04129e-24
6.9971e-24
7.0259e-24
7.10374e-24
7.12393e-24
7.09118e-24
7.07167e-24
7.07488e-24
7.0763e-24
7.07233e-24
7.06984e-24
7.0497e-24
7.02308e-24
7.02209e-24
7.03765e-24
7.0709e-24
7.10144e-24
7.08235e-24
7.04755e-24
7.03904e-24
7.02851e-24
7.01003e-24
7.00887e-24
7.03315e-24
7.07843e-24
7.1244e-24
7.14292e-24
7.14071e-24
7.18454e-24
7.21768e-24
7.1961e-24
6.86829e-24
7.11793e-24
7.02668e-24
7.03663e-24
7.04826e-24
7.12229e-24
7.12358e-24
7.10605e-24
7.08742e-24
7.12164e-24
7.19344e-24
7.25434e-24
7.2331e-24
7.16566e-24
7.10145e-24
7.01062e-24
6.92125e-24
6.92378e-24
6.99857e-24
7.04191e-24
6.99834e-24
6.93272e-24
6.91856e-24
6.92936e-24
6.91278e-24
6.87398e-24
6.88572e-24
6.96531e-24
7.02556e-24
7.00835e-24
6.96526e-24
6.99476e-24
7.07309e-24
7.09545e-24
7.06616e-24
7.04901e-24
7.05287e-24
7.0545e-24
7.05024e-24
7.04594e-24
7.02338e-24
6.99508e-24
6.99401e-24
7.01167e-24
7.04835e-24
7.08228e-24
7.06586e-24
7.0322e-24
7.0239e-24
7.01435e-24
6.99656e-24
6.99404e-24
7.01589e-24
7.05937e-24
7.10453e-24
7.12251e-24
7.11772e-24
7.15558e-24
7.18369e-24
7.16026e-24
6.85545e-24
7.08878e-24
6.99862e-24
7.01094e-24
7.02076e-24
7.09123e-24
7.09307e-24
7.08036e-24
7.06539e-24
7.09754e-24
7.16278e-24
7.2189e-24
7.19858e-24
7.13454e-24
7.07279e-24
6.98554e-24
6.90008e-24
6.90168e-24
6.97112e-24
7.01078e-24
6.96785e-24
6.90384e-24
6.88999e-24
6.90215e-24
6.88975e-24
6.85489e-24
6.86496e-24
6.93743e-24
6.9914e-24
6.97274e-24
6.93089e-24
6.96105e-24
7.0399e-24
7.06479e-24
7.0394e-24
7.02474e-24
7.02885e-24
7.03002e-24
7.02475e-24
7.01806e-24
6.99273e-24
6.96257e-24
6.96104e-24
6.98004e-24
7.01919e-24
7.05582e-24
7.04211e-24
7.01033e-24
7.00329e-24
6.9957e-24
6.9792e-24
6.97511e-24
6.99338e-24
7.03347e-24
7.07666e-24
7.09386e-24
7.08685e-24
7.11917e-24
7.14304e-24
7.1186e-24
6.83846e-24
7.05385e-24
6.96426e-24
6.97896e-24
6.98696e-24
7.05371e-24
7.0561e-24
7.04855e-24
7.03793e-24
7.06869e-24
7.12749e-24
7.17822e-24
7.15793e-24
7.09676e-24
7.0377e-24
6.95478e-24
6.87392e-24
6.87467e-24
6.93835e-24
6.97409e-24
6.93216e-24
6.87042e-24
6.85727e-24
6.87069e-24
6.86228e-24
6.83158e-24
6.84051e-24
6.90644e-24
6.95463e-24
6.93493e-24
6.89454e-24
6.92523e-24
7.0044e-24
7.03186e-24
7.01058e-24
6.99845e-24
7.0026e-24
7.00286e-24
6.99614e-24
6.9868e-24
6.95874e-24
6.92686e-24
6.92468e-24
6.9443e-24
6.98472e-24
7.02292e-24
7.01145e-24
6.98185e-24
6.97673e-24
6.97183e-24
6.95718e-24
6.95153e-24
6.96556e-24
7.00132e-24
7.04195e-24
7.05853e-24
7.05003e-24
7.0777e-24
7.09838e-24
7.07343e-24
6.81768e-24
7.01448e-24
6.92504e-24
6.94218e-24
6.94852e-24
7.01157e-24
7.01458e-24
7.01256e-24
7.00705e-24
7.03728e-24
7.08998e-24
7.13489e-24
7.11384e-24
7.05506e-24
6.99878e-24
6.92067e-24
6.84469e-24
6.84438e-24
6.90187e-24
6.93353e-24
6.89304e-24
6.83441e-24
6.82251e-24
6.83717e-24
6.83239e-24
6.80561e-24
6.81354e-24
6.87329e-24
6.91617e-24
6.89593e-24
6.85722e-24
6.88824e-24
6.96735e-24
6.99715e-24
6.97998e-24
6.97044e-24
6.97458e-24
6.97384e-24
6.96558e-24
6.95371e-24
6.92336e-24
6.89022e-24
6.88743e-24
6.90698e-24
6.94733e-24
6.98558e-24
6.97539e-24
6.94776e-24
6.94484e-24
6.94316e-24
6.93086e-24
6.92383e-24
6.93338e-24
6.96439e-24
7.00237e-24
7.01887e-24
7.00991e-24
7.03408e-24
7.05258e-24
7.02777e-24
6.79382e-24
6.97244e-24
6.88307e-24
6.90276e-24
6.90765e-24
6.9671e-24
6.97088e-24
6.97482e-24
6.97526e-24
7.00589e-24
7.05297e-24
7.09183e-24
7.06945e-24
7.01272e-24
6.95931e-24
6.88622e-24
6.81504e-24
6.81322e-24
6.86402e-24
6.89143e-24
6.85283e-24
6.79816e-24
6.78821e-24
6.80416e-24
6.8025e-24
6.77906e-24
6.78568e-24
6.83934e-24
6.8773e-24
6.85699e-24
6.82022e-24
6.85134e-24
6.92989e-24
6.96167e-24
6.94852e-24
6.94166e-24
6.94598e-24
6.94444e-24
6.93491e-24
6.92099e-24
6.88908e-24
6.85537e-24
6.85215e-24
6.871e-24
6.90984e-24
6.94641e-24
6.93615e-24
6.9099e-24
6.90918e-24
6.91102e-24
6.90148e-24
6.89337e-24
6.8985e-24
6.92476e-24
6.96036e-24
6.97754e-24
6.96928e-24
6.9912e-24
7.00846e-24
6.98412e-24
6.76789e-24
6.92962e-24
6.84066e-24
6.86313e-24
6.86672e-24
6.92263e-24
6.92736e-24
6.93766e-24
6.94482e-24
6.97677e-24
7.01882e-24
7.05165e-24
7.02767e-24
6.97291e-24
6.92249e-24
6.85443e-24
6.78765e-24
6.78368e-24
6.82726e-24
6.85025e-24
6.81385e-24
6.76389e-24
6.75658e-24
6.77399e-24
6.77493e-24
6.754e-24
6.75869e-24
6.80611e-24
6.83941e-24
6.81943e-24
6.78477e-24
6.81576e-24
6.89329e-24
6.92669e-24
6.91746e-24
6.91347e-24
6.91836e-24
6.91646e-24
6.90615e-24
6.89088e-24
6.85831e-24
6.82481e-24
6.82135e-24
6.83886e-24
6.8748e-24
6.90795e-24
6.89621e-24
6.87059e-24
6.8718e-24
6.87721e-24
6.87071e-24
6.86187e-24
6.86293e-24
6.88477e-24
6.91841e-24
6.937e-24
6.93054e-24
6.95138e-24
6.96803e-24
6.94402e-24
6.74086e-24
6.88779e-24
6.79986e-24
6.82534e-24
6.82777e-24
6.8802e-24
6.88596e-24
6.90282e-24
6.91723e-24
6.95127e-24
6.98895e-24
7.01607e-24
6.99061e-24
6.93798e-24
6.89075e-24
6.82754e-24
6.76454e-24
6.7577e-24
6.79358e-24
6.81193e-24
6.77783e-24
6.73309e-24
6.7291e-24
6.74824e-24
6.75135e-24
6.73203e-24
6.73405e-24
6.775e-24
6.80377e-24
6.78433e-24
6.75185e-24
6.78254e-24
6.85867e-24
6.89339e-24
6.88806e-24
6.88724e-24
6.8932e-24
6.89144e-24
6.88092e-24
6.86505e-24
6.83273e-24
6.80009e-24
6.79645e-24
6.81201e-24
6.84385e-24
6.87213e-24
6.85775e-24
6.83206e-24
6.83477e-24
6.8435e-24
6.84009e-24
6.8309e-24
6.82849e-24
6.84649e-24
6.87863e-24
6.89915e-24
6.89522e-24
6.91579e-24
6.93209e-24
6.90846e-24
6.71367e-24
6.84828e-24
6.76215e-24
6.7908e-24
6.79218e-24
6.84113e-24
6.84783e-24
6.87114e-24
6.89294e-24
6.92961e-24
6.96362e-24
6.9856e-24
6.95912e-24
6.90909e-24
6.86529e-24
6.80663e-24
6.74661e-24
6.73614e-24
6.76392e-24
6.77737e-24
6.74546e-24
6.70622e-24
6.70611e-24
6.72735e-24
6.73235e-24
6.7139e-24
6.71265e-24
6.74696e-24
6.77128e-24
6.75244e-24
6.72206e-24
6.75223e-24
6.82671e-24
6.86258e-24
6.86119e-24
6.86387e-24
6.87138e-24
6.87024e-24
6.85998e-24
6.84417e-24
6.8128e-24
6.78141e-24
6.77747e-24
6.79051e-24
6.81743e-24
6.83999e-24
6.82231e-24
6.79606e-24
6.79973e-24
6.81124e-24
6.8107e-24
6.80153e-24
6.79646e-24
6.81143e-24
6.84245e-24
6.86495e-24
6.86371e-24
6.88441e-24
6.90056e-24
6.87717e-24
6.68722e-24
6.81196e-24
6.72824e-24
6.7601e-24
6.76043e-24
6.80585e-24
6.81322e-24
6.84253e-24
6.87149e-24
6.91101e-24
6.94198e-24
6.95957e-24
6.93281e-24
6.88605e-24
6.84597e-24
6.79142e-24
6.73346e-24
6.71861e-24
6.73796e-24
6.74629e-24
6.71635e-24
6.68264e-24
6.6868e-24
6.71052e-24
6.71739e-24
6.69941e-24
6.69461e-24
6.72235e-24
6.74236e-24
6.72401e-24
6.6955e-24
6.7249e-24
6.79757e-24
6.8345e-24
6.83705e-24
6.84342e-24
6.85283e-24
6.85264e-24
6.84296e-24
6.82763e-24
6.7976e-24
6.76755e-24
6.763e-24
6.77314e-24
6.79483e-24
6.81153e-24
6.79052e-24
6.76355e-24
6.76764e-24
6.78119e-24
6.78307e-24
6.77422e-24
6.76742e-24
6.78023e-24
6.81032e-24
6.83436e-24
6.83543e-24
6.85631e-24
6.87232e-24
6.84943e-24
6.6619e-24
6.77912e-24
6.69821e-24
6.73301e-24
6.73211e-24
6.77386e-24
6.78155e-24
6.81623e-24
6.85178e-24
6.89406e-24
6.92243e-24
6.93641e-24
6.91024e-24
6.86752e-24
6.83145e-24
6.78052e-24
6.72362e-24
6.70366e-24
6.71437e-24
6.71744e-24
6.68916e-24
6.66081e-24
6.6694e-24
6.696e-24
6.70495e-24
6.68749e-24
6.67929e-24
6.70087e-24
6.71681e-24
6.6988e-24
6.67176e-24
6.7001e-24
6.77081e-24
6.8087e-24
6.81508e-24
6.82509e-24
6.83648e-24
6.83737e-24
6.82842e-24
6.81376e-24
6.78517e-24
6.75624e-24
6.75072e-24
6.75779e-24
6.77453e-24
6.78595e-24
6.76221e-24
6.7347e-24
6.73875e-24
6.7535e-24
6.7573e-24
6.749e-24
6.74127e-24
6.7526e-24
6.78164e-24
6.80644e-24
6.80911e-24
6.82997e-24
6.84588e-24
6.82412e-24
6.63786e-24
6.74944e-24
6.67161e-24
6.70882e-24
6.70624e-24
6.74405e-24
6.75172e-24
6.79111e-24
6.83249e-24
6.87713e-24
6.90312e-24
6.91414e-24
6.88936e-24
6.85137e-24
6.81957e-24
6.77172e-24
6.71493e-24
6.6893e-24
6.69133e-24
6.68909e-24
6.66214e-24
6.63878e-24
6.65177e-24
6.68157e-24
6.69303e-24
6.67647e-24
6.66547e-24
6.68162e-24
6.6939e-24
6.67602e-24
6.64997e-24
6.67692e-24
6.74552e-24
6.78418e-24
6.79403e-24
6.80732e-24
6.82047e-24
6.82234e-24
6.81414e-24
6.80024e-24
6.77303e-24
6.74488e-24
6.73802e-24
6.7421e-24
6.7546e-24
6.76191e-24
6.73655e-24
6.70902e-24
6.71273e-24
6.72792e-24
6.73313e-24
6.72551e-24
6.71743e-24
6.72761e-24
6.75517e-24
6.77973e-24
6.78325e-24
6.80391e-24
6.81979e-24
6.79959e-24
6.61465e-24
6.72219e-24
6.64746e-24
6.6864e-24
6.68162e-24
6.71523e-24
6.72258e-24
6.76596e-24
6.81228e-24
6.8587e-24
6.88233e-24
6.89087e-24
6.86806e-24
6.83528e-24
6.80779e-24
6.76251e-24
6.70509e-24
6.67347e-24
6.66705e-24
6.65963e-24
6.63363e-24
6.61473e-24
6.63191e-24
6.66515e-24
6.67958e-24
6.66451e-24
6.65158e-24
6.66328e-24
6.67243e-24
6.65445e-24
6.62889e-24
6.65412e-24
6.72046e-24
6.75959e-24
6.77231e-24
6.78821e-24
6.80263e-24
6.80522e-24
6.79772e-24
6.78467e-24
6.75883e-24
6.73117e-24
6.72269e-24
6.72399e-24
6.73322e-24
6.7379e-24
6.71238e-24
6.68563e-24
6.68891e-24
6.70396e-24
6.7101e-24
6.70317e-24
6.69501e-24
6.70403e-24
6.72946e-24
6.75279e-24
6.75651e-24
6.7768e-24
6.79264e-24
6.77462e-24
6.59148e-24
6.69615e-24
6.6245e-24
6.66454e-24
6.65721e-24
6.68653e-24
6.69329e-24
6.73985e-24
6.79006e-24
6.83752e-24
6.8587e-24
6.86509e-24
6.84458e-24
6.81715e-24
6.79383e-24
6.75062e-24
6.69211e-24
6.65461e-24
6.64027e-24
6.62792e-24
6.60256e-24
6.58752e-24
6.60851e-24
6.64524e-24
6.663e-24
6.65e-24
6.63605e-24
6.64437e-24
6.65093e-24
6.63267e-24
6.60714e-24
6.63038e-24
6.69432e-24
6.73354e-24
6.74835e-24
6.76594e-24
6.78099e-24
6.78398e-24
6.77718e-24
6.76518e-24
6.74086e-24
6.71362e-24
6.70335e-24
6.70212e-24
6.70905e-24
6.71269e-24
6.68856e-24
6.66352e-24
6.66644e-24
6.68089e-24
6.68756e-24
6.68123e-24
6.67305e-24
6.68076e-24
6.70343e-24
6.72463e-24
6.72792e-24
6.7477e-24
6.76356e-24
6.74811e-24
6.56759e-24
6.66995e-24
6.60132e-24
6.64217e-24
6.63235e-24
6.6576e-24
6.66351e-24
6.71228e-24
6.76508e-24
6.8127e-24
6.83132e-24
6.83583e-24
6.81776e-24
6.79553e-24
6.77604e-24
6.73446e-24
6.6747e-24
6.63178e-24
6.61036e-24
6.59358e-24
6.56866e-24
6.55688e-24
6.58116e-24
6.62121e-24
6.64242e-24
6.63187e-24
6.61765e-24
6.6235e-24
6.62801e-24
6.60936e-24
6.58348e-24
6.60451e-24
6.66594e-24
6.70488e-24
6.72092e-24
6.7392e-24
6.75419e-24
6.75736e-24
6.75139e-24
6.74078e-24
6.7183e-24
6.69159e-24
6.67956e-24
6.67605e-24
6.68154e-24
6.68553e-24
6.66421e-24
6.64172e-24
6.64438e-24
6.65785e-24
6.66469e-24
6.65886e-24
6.65072e-24
6.65703e-24
6.67651e-24
6.69484e-24
6.69716e-24
6.71622e-24
6.73204e-24
6.71935e-24
6.54222e-24
6.64243e-24
6.5768e-24
6.61848e-24
6.60671e-24
6.62842e-24
6.63335e-24
6.6832e-24
6.73707e-24
6.78377e-24
6.79967e-24
6.80265e-24
6.78713e-24
6.76981e-24
6.75368e-24
6.71336e-24
6.65236e-24
6.60473e-24
6.57732e-24
6.55685e-24
6.53239e-24
6.52337e-24
6.55032e-24
6.59328e-24
6.61774e-24
6.60968e-24
6.59565e-24
6.59973e-24
6.60264e-24
6.58354e-24
6.55707e-24
6.57579e-24
6.63465e-24
6.67294e-24
6.6894e-24
6.70742e-24
6.72177e-24
6.72503e-24
6.72016e-24
6.7114e-24
6.69118e-24
6.6653e-24
6.65168e-24
6.6462e-24
6.65095e-24
6.65635e-24
6.63886e-24
6.61942e-24
6.62173e-24
6.63386e-24
6.64062e-24
6.63535e-24
6.62745e-24
6.63248e-24
6.64859e-24
6.66363e-24
6.66452e-24
6.68251e-24
6.69805e-24
6.68841e-24
6.5151e-24
6.61283e-24
6.55034e-24
6.59313e-24
6.58018e-24
6.59913e-24
6.60312e-24
6.65292e-24
6.70617e-24
6.75074e-24
6.76373e-24
6.76558e-24
6.75283e-24
6.74017e-24
6.72695e-24
6.68754e-24
6.6254e-24
6.57384e-24
6.54162e-24
6.51837e-24
6.4946e-24
6.48798e-24
6.517e-24
6.5623e-24
6.58951e-24
6.58363e-24
6.56991e-24
6.57272e-24
6.5744e-24
6.5549e-24
6.52773e-24
6.54411e-24
6.60032e-24
6.63763e-24
6.65376e-24
6.67077e-24
6.68412e-24
6.68757e-24
6.68418e-24
6.6777e-24
6.66017e-24
6.63552e-24
6.62068e-24
6.61362e-24
6.61816e-24
6.62563e-24
6.61241e-24
6.59601e-24
6.59761e-24
6.60802e-24
6.61464e-24
6.61022e-24
6.60295e-24
6.60698e-24
6.61986e-24
6.63151e-24
6.63075e-24
6.64731e-24
6.6622e-24
6.65544e-24
6.48641e-24
6.58102e-24
6.52183e-24
6.56611e-24
6.55283e-24
6.56989e-24
6.57305e-24
6.62183e-24
6.67288e-24
6.71411e-24
6.72399e-24
6.72518e-24
6.71552e-24
6.70738e-24
6.69671e-24
6.65789e-24
6.5947e-24
6.53994e-24
6.50406e-24
6.47898e-24
6.45625e-24
6.4518e-24
6.48236e-24
6.52935e-24
6.55859e-24
6.55433e-24
6.54085e-24
6.54273e-24
6.54356e-24
6.5238e-24
6.49599e-24
6.51002e-24
6.56347e-24
6.59939e-24
6.61457e-24
6.63001e-24
6.64225e-24
6.64617e-24
6.64465e-24
6.64079e-24
6.62632e-24
6.60337e-24
6.58783e-24
6.57964e-24
6.58434e-24
6.59406e-24
6.58496e-24
6.57109e-24
6.57141e-24
6.57978e-24
6.58638e-24
6.58325e-24
6.57705e-24
6.58049e-24
6.59053e-24
6.59911e-24
6.59677e-24
6.61166e-24
6.62535e-24
6.62117e-24
6.4565e-24
6.54733e-24
6.49156e-24
6.53763e-24
6.5248e-24
6.54072e-24
6.5432e-24
6.5902e-24
6.6378e-24
6.67475e-24
6.68145e-24
6.68246e-24
6.67619e-24
6.67247e-24
6.66405e-24
6.62558e-24
6.56144e-24
6.50411e-24
6.46553e-24
6.43944e-24
6.41809e-24
6.41568e-24
6.44734e-24
6.49538e-24
6.52585e-24
6.52256e-24
6.50916e-24
6.51045e-24
6.51087e-24
6.49117e-24
6.46288e-24
6.47454e-24
6.52497e-24
6.55905e-24
6.57273e-24
6.58625e-24
6.59747e-24
6.60227e-24
6.60296e-24
6.60193e-24
6.59079e-24
6.57007e-24
6.55444e-24
6.54555e-24
6.55049e-24
6.56221e-24
6.5566e-24
6.54448e-24
6.54294e-24
6.54913e-24
6.55594e-24
6.55447e-24
6.54971e-24
6.55294e-24
6.56074e-24
6.56691e-24
6.56332e-24
6.5764e-24
6.58844e-24
6.58653e-24
6.42608e-24
6.5121e-24
6.45979e-24
6.50785e-24
6.49606e-24
6.51145e-24
6.51339e-24
6.55809e-24
6.60145e-24
6.63363e-24
6.63731e-24
6.63861e-24
6.63593e-24
6.6364e-24
6.6299e-24
6.59165e-24
6.52673e-24
6.46739e-24
6.42687e-24
6.40034e-24
6.38053e-24
6.38e-24
6.41236e-24
6.46086e-24
6.49185e-24
6.48895e-24
6.47556e-24
6.47664e-24
6.47719e-24
6.45802e-24
6.42951e-24
6.43872e-24
6.48573e-24
6.51746e-24
6.52918e-24
6.54058e-24
6.551e-24
6.55714e-24
6.56039e-24
6.56227e-24
6.55464e-24
6.53663e-24
6.52149e-24
6.51218e-24
6.51713e-24
6.5302e-24
6.52721e-24
6.5161e-24
6.51238e-24
6.51643e-24
6.52366e-24
6.52407e-24
6.52087e-24
6.52419e-24
6.53039e-24
6.53488e-24
6.53051e-24
6.54186e-24
6.55207e-24
6.55207e-24
6.39556e-24
6.47567e-24
6.42645e-24
6.47642e-24
6.46614e-24
6.48149e-24
6.48306e-24
6.52521e-24
6.56402e-24
6.59143e-24
6.59249e-24
6.59452e-24
6.5954e-24
6.59964e-24
6.5947e-24
6.5566e-24
6.49117e-24
6.43038e-24
6.38854e-24
6.36192e-24
6.34361e-24
6.34462e-24
6.37723e-24
6.42566e-24
6.45659e-24
6.45365e-24
6.44033e-24
6.44166e-24
6.44295e-24
6.42488e-24
6.39647e-24
6.40314e-24
6.44626e-24
6.4751e-24
6.48453e-24
6.49378e-24
6.50371e-24
6.51164e-24
6.51775e-24
6.5226e-24
6.51855e-24
6.50359e-24
6.48933e-24
6.47959e-24
6.48403e-24
6.49753e-24
6.4963e-24
6.48574e-24
6.47986e-24
6.48203e-24
6.48989e-24
6.49218e-24
6.49044e-24
6.49387e-24
6.49885e-24
6.50224e-24
6.49754e-24
6.50747e-24
6.51611e-24
6.51823e-24
6.36501e-24
6.43804e-24
6.39126e-24
6.44253e-24
6.43384e-24
6.44955e-24
6.45108e-24
6.49083e-24
6.5252e-24
6.54815e-24
6.54711e-24
6.55022e-24
6.55447e-24
6.56194e-24
6.55816e-24
6.5202e-24
6.45462e-24
6.39297e-24
6.35038e-24
6.32389e-24
6.30681e-24
6.30883e-24
6.34118e-24
6.38905e-24
6.41939e-24
6.41615e-24
6.40308e-24
6.40515e-24
6.40772e-24
6.39129e-24
6.36335e-24
6.36744e-24
6.40628e-24
6.43183e-24
6.43881e-24
6.44604e-24
6.45582e-24
6.46598e-24
6.47522e-24
6.48305e-24
6.48252e-24
6.47068e-24
6.45735e-24
6.44692e-24
6.45009e-24
6.46306e-24
6.46283e-24
6.45268e-24
6.44507e-24
6.44586e-24
6.45456e-24
6.45863e-24
6.45796e-24
6.46111e-24
6.46475e-24
6.46728e-24
6.46271e-24
6.47201e-24
6.47998e-24
6.4846e-24
6.33432e-24
6.39916e-24
6.35387e-24
6.40527e-24
6.39762e-24
6.41375e-24
6.41568e-24
6.45356e-24
6.48408e-24
6.5031e-24
6.50042e-24
6.50475e-24
6.51205e-24
6.5222e-24
6.51925e-24
6.48148e-24
6.41616e-24
6.35432e-24
6.3116e-24
6.28538e-24
6.26914e-24
6.27156e-24
6.30305e-24
6.34983e-24
6.37913e-24
6.3754e-24
6.36278e-24
6.36597e-24
6.37021e-24
6.35582e-24
6.32871e-24
6.33033e-24
6.36471e-24
6.38685e-24
6.39149e-24
6.39699e-24
6.407e-24
6.41975e-24
6.4323e-24
6.44299e-24
6.44572e-24
6.43679e-24
6.42415e-24
6.41253e-24
6.41361e-24
6.42512e-24
6.42532e-24
6.4157e-24
6.40706e-24
6.4072e-24
6.41706e-24
6.42269e-24
6.42242e-24
6.42439e-24
6.42611e-24
6.42785e-24
6.42416e-24
6.43412e-24
6.44274e-24
6.45023e-24
6.30306e-24
6.35917e-24
6.31453e-24
6.36451e-24
6.3566e-24
6.37245e-24
6.3749e-24
6.41165e-24
6.4393e-24
6.45519e-24
6.45122e-24
6.45665e-24
6.46656e-24
6.47895e-24
6.47669e-24
6.4393e-24
6.3747e-24
6.31334e-24
6.27109e-24
6.24531e-24
6.22953e-24
6.23174e-24
6.26181e-24
6.30697e-24
6.33478e-24
6.33038e-24
6.31836e-24
6.32282e-24
6.3288e-24
6.31666e-24
6.29073e-24
6.29016e-24
6.32024e-24
6.33921e-24
6.34194e-24
6.34617e-24
6.35675e-24
6.37227e-24
6.38809e-24
6.40134e-24
6.40685e-24
6.40036e-24
6.38802e-24
6.37471e-24
6.37295e-24
6.38218e-24
6.38234e-24
6.37351e-24
6.36476e-24
6.36513e-24
6.37643e-24
6.38321e-24
6.38234e-24
6.382e-24
6.38124e-24
6.38258e-24
6.38091e-24
6.39303e-24
6.40359e-24
6.41443e-24
6.27156e-24
6.31857e-24
6.27442e-24
6.32177e-24
6.31191e-24
6.32585e-24
6.32803e-24
6.36399e-24
6.38992e-24
6.40376e-24
6.39893e-24
6.40519e-24
6.41712e-24
6.43138e-24
6.42991e-24
6.39325e-24
6.32984e-24
6.26958e-24
6.22838e-24
6.20325e-24
6.18764e-24
6.18914e-24
6.21734e-24
6.26044e-24
6.28636e-24
6.28113e-24
6.26972e-24
6.27537e-24
6.28288e-24
6.27293e-24
6.24851e-24
6.24621e-24
6.27247e-24
6.28885e-24
6.29033e-24
6.29381e-24
6.30515e-24
6.32333e-24
6.34211e-24
6.3574e-24
6.36503e-24
6.36043e-24
6.34802e-24
6.33268e-24
6.32754e-24
6.33379e-24
6.3335e-24
6.32584e-24
6.318e-24
6.31941e-24
6.33212e-24
6.33926e-24
6.33671e-24
6.33339e-24
6.33039e-24
6.33234e-24
6.3339e-24
6.34927e-24
6.36253e-24
6.37689e-24
6.24102e-24
6.27868e-24
6.2356e-24
6.28022e-24
6.26728e-24
6.27726e-24
6.27727e-24
6.31174e-24
6.33662e-24
6.34961e-24
6.34463e-24
6.35154e-24
6.36489e-24
6.38067e-24
6.38017e-24
6.34472e-24
6.28296e-24
6.2243e-24
6.18464e-24
6.16035e-24
6.14474e-24
6.14522e-24
6.17131e-24
6.21208e-24
6.23583e-24
6.22969e-24
6.21888e-24
6.22546e-24
6.23404e-24
6.22606e-24
6.20338e-24
6.19995e-24
6.22306e-24
6.2376e-24
6.23856e-24
6.2417e-24
6.25375e-24
6.2741e-24
6.29519e-24
6.31185e-24
6.32091e-24
6.3177e-24
6.30508e-24
6.2877e-24
6.27892e-24
6.28171e-24
6.2807e-24
6.27464e-24
6.26858e-24
6.2714e-24
6.2849e-24
6.2914e-24
6.28668e-24
6.28088e-24
6.27699e-24
6.28086e-24
6.28617e-24
6.30468e-24
6.32048e-24
6.33873e-24
6.21288e-24
6.24131e-24
6.20049e-24
6.24347e-24
6.22785e-24
6.23274e-24
6.22844e-24
6.25958e-24
6.28294e-24
6.29576e-24
6.29143e-24
6.29913e-24
6.3135e-24
6.33051e-24
6.33111e-24
6.29724e-24
6.23748e-24
6.18078e-24
6.14303e-24
6.11973e-24
6.10402e-24
6.10338e-24
6.12733e-24
6.16571e-24
6.1873e-24
6.18037e-24
6.17025e-24
6.17747e-24
6.18658e-24
6.18018e-24
6.15942e-24
6.15545e-24
6.17612e-24
6.18951e-24
6.19048e-24
6.19342e-24
6.20576e-24
6.22744e-24
6.24995e-24
6.26725e-24
6.27717e-24
6.27507e-24
6.2624e-24
6.24332e-24
6.23105e-24
6.23025e-24
6.22847e-24
6.22434e-24
6.22046e-24
6.22436e-24
6.23761e-24
6.24289e-24
6.23674e-24
6.23031e-24
6.22732e-24
6.2336e-24
6.24163e-24
6.26183e-24
6.27935e-24
6.30177e-24
6.18792e-24
6.20783e-24
6.17052e-24
6.21361e-24
6.19737e-24
6.19817e-24
6.18887e-24
6.21487e-24
6.23508e-24
6.24714e-24
6.24369e-24
6.25247e-24
6.26787e-24
6.28599e-24
6.28773e-24
6.25553e-24
6.19786e-24
6.14329e-24
6.10764e-24
6.08543e-24
6.06962e-24
6.0679e-24
6.08985e-24
6.12603e-24
6.14573e-24
6.13845e-24
6.12934e-24
6.13705e-24
6.14617e-24
6.14095e-24
6.12217e-24
6.11812e-24
6.13691e-24
6.14959e-24
6.1507e-24
6.15318e-24
6.16505e-24
6.18695e-24
6.20987e-24
6.22716e-24
6.23759e-24
6.23661e-24
6.22436e-24
6.20432e-24
6.18919e-24
6.18513e-24
6.1827e-24
6.18051e-24
6.17853e-24
6.18267e-24
6.19492e-24
6.19952e-24
6.19392e-24
6.18898e-24
6.18757e-24
6.19482e-24
6.20297e-24
6.22282e-24
6.24101e-24
6.26701e-24
6.16425e-24
6.17785e-24
6.14484e-24
6.18933e-24
6.17513e-24
6.17502e-24
6.16286e-24
6.18381e-24
6.1994e-24
6.20889e-24
6.2052e-24
6.21479e-24
6.2314e-24
6.25082e-24
6.25369e-24
6.22301e-24
6.16724e-24
6.11468e-24
6.08111e-24
6.06003e-24
6.04416e-24
6.04152e-24
6.06173e-24
6.09606e-24
6.11444e-24
6.10756e-24
6.09999e-24
6.10822e-24
6.11697e-24
6.11253e-24
6.09568e-24
6.09186e-24
6.10909e-24
6.12108e-24
6.12205e-24
6.12342e-24
6.13381e-24
6.15474e-24
6.17713e-24
6.19395e-24
6.20481e-24
6.20522e-24
6.19412e-24
6.17422e-24
6.15731e-24
6.15066e-24
6.14766e-24
6.14695e-24
6.14612e-24
6.14993e-24
6.16158e-24
6.16719e-24
6.16409e-24
6.16111e-24
6.15952e-24
6.16454e-24
6.16981e-24
6.18762e-24
6.20559e-24
6.2336e-24
6.1376e-24
6.14809e-24
6.11965e-24
6.16556e-24
6.15496e-24
6.15757e-24
6.14712e-24
6.16635e-24
6.17803e-24
6.18329e-24
6.17695e-24
6.18574e-24
6.2032e-24
6.22418e-24
6.22834e-24
6.19898e-24
6.14472e-24
6.09378e-24
6.06203e-24
6.04199e-24
6.02622e-24
6.02288e-24
6.04164e-24
6.07453e-24
6.09235e-24
6.0868e-24
6.08144e-24
6.09032e-24
6.09845e-24
6.09444e-24
6.07936e-24
6.07588e-24
6.09159e-24
6.10264e-24
6.10285e-24
6.10228e-24
6.11017e-24
6.12904e-24
6.15015e-24
6.16627e-24
6.17767e-24
6.17992e-24
6.1709e-24
6.1525e-24
6.13512e-24
6.12658e-24
6.12285e-24
6.12291e-24
6.1228e-24
6.12686e-24
6.13949e-24
6.14759e-24
6.14681e-24
6.14334e-24
6.13786e-24
6.13743e-24
6.13808e-24
6.15335e-24
6.17061e-24
6.19794e-24
6.1032e-24
6.11323e-24
6.08894e-24
6.13522e-24
6.12762e-24
6.13461e-24
6.13031e-24
6.15337e-24
6.16515e-24
6.16682e-24
6.15564e-24
6.16082e-24
6.17748e-24
6.1997e-24
6.20536e-24
6.17735e-24
6.12428e-24
6.07443e-24
6.04399e-24
6.02485e-24
6.00935e-24
6.00564e-24
6.02321e-24
6.05507e-24
6.07305e-24
6.06969e-24
6.06711e-24
6.07674e-24
6.08402e-24
6.08012e-24
6.06658e-24
6.06341e-24
6.07756e-24
6.08725e-24
6.08601e-24
6.08278e-24
6.08739e-24
6.10346e-24
6.12281e-24
6.13815e-24
6.15034e-24
6.15494e-24
6.14895e-24
6.13337e-24
6.11671e-24
6.10674e-24
6.10196e-24
6.10248e-24
6.10381e-24
6.10988e-24
6.12484e-24
6.13463e-24
6.13273e-24
6.12434e-24
6.11179e-24
6.10504e-24
6.1017e-24
6.11498e-24
6.13135e-24
6.15577e-24
6.05843e-24
6.06875e-24
6.04747e-24
6.09257e-24
6.08568e-24
6.09553e-24
6.09862e-24
6.12997e-24
6.14766e-24
6.14968e-24
6.13392e-24
6.13308e-24
6.14623e-24
6.16819e-24
6.17505e-24
6.14861e-24
6.09678e-24
6.04764e-24
6.01794e-24
5.99944e-24
5.98442e-24
5.98068e-24
5.9973e-24
6.02838e-24
6.04705e-24
6.04644e-24
6.0469e-24
6.05718e-24
6.06332e-24
6.05918e-24
6.0469e-24
6.044e-24
6.05657e-24
6.0646e-24
6.06146e-24
6.05519e-24
6.05626e-24
6.06925e-24
6.08666e-24
6.10126e-24
6.11445e-24
6.12182e-24
6.1196e-24
6.10777e-24
6.09253e-24
6.08131e-24
6.07554e-24
6.07733e-24
6.08188e-24
6.09139e-24
6.1077e-24
6.11509e-24
6.10688e-24
6.09038e-24
6.07107e-24
6.06062e-24
6.05572e-24
6.06786e-24
6.08368e-24
6.10501e-24
6.00531e-24
6.01407e-24
5.99413e-24
6.03684e-24
6.02832e-24
6.03751e-24
6.04491e-24
6.08438e-24
6.11164e-24
6.11943e-24
6.10286e-24
6.09633e-24
6.10385e-24
6.12309e-24
6.12987e-24
6.10493e-24
6.05471e-24
6.00629e-24
5.97694e-24
5.95885e-24
5.9445e-24
5.94106e-24
5.95687e-24
5.98722e-24
6.00673e-24
6.00898e-24
6.01228e-24
6.02281e-24
6.02743e-24
6.02267e-24
6.01136e-24
6.00873e-24
6.01987e-24
6.02623e-24
6.02116e-24
6.01207e-24
6.00997e-24
6.02014e-24
6.03572e-24
6.04963e-24
6.06389e-24
6.07414e-24
6.07586e-24
6.06802e-24
6.0544e-24
6.04232e-24
6.03661e-24
6.04144e-24
6.05053e-24
6.06243e-24
6.07586e-24