/*--------------------------------*- C++ -*----------------------------------*\
| =========                 |                                                 |
| \\      /  F ield         | foam-extend: Open Source CFD                    |
|  \\    /   O peration     | Version:     4.0                                |
|   \\  /    A nd           | Web:         http://www.foam-extend.org         |
|    \\/     M anipulation  |                                                 |
\*---------------------------------------------------------------------------*/
FoamFile
{
    version     2.0;
    format      ascii;
    class       volScalarField;
    location    "1770";
    object      cPlus;
}
// * * * * * * * * * * * * * * * * * * * * * * * * * * * * * * * * * * * * * //

dimensions      [0 0 0 0 0 0 0];

internalField   nonuniform List<scalar> 
6960
(
0.330557
0.330547
0.330535
0.330522
0.33051
0.330499
0.330489
0.33048
0.330471
0.330464
0.330457
0.330451
0.330445
0.33044
0.330436
0.330433
0.330429
0.330426
0.330424
0.330422
0.33042
0.330418
0.330417
0.330416
0.330415
0.330414
0.330414
0.330413
0.330413
0.330413
0.330413
0.330413
0.330413
0.330414
0.330414
0.330415
0.330416
0.330417
0.330418
0.33042
0.330422
0.330424
0.330426
0.330429
0.330433
0.330436
0.33044
0.330445
0.330451
0.330457
0.330464
0.330471
0.33048
0.330489
0.330499
0.33051
0.330522
0.330535
0.330547
0.330557
0.110816
0.110809
0.1108
0.11079
0.110781
0.110773
0.110765
0.110758
0.110752
0.110746
0.110741
0.110737
0.110733
0.110729
0.110726
0.110723
0.110721
0.110719
0.110717
0.110715
0.110714
0.110713
0.110712
0.110711
0.11071
0.110709
0.110709
0.110709
0.110709
0.110708
0.110708
0.110709
0.110709
0.110709
0.110709
0.11071
0.110711
0.110712
0.110713
0.110714
0.110715
0.110717
0.110719
0.110721
0.110723
0.110726
0.110729
0.110733
0.110737
0.110741
0.110746
0.110752
0.110758
0.110765
0.110773
0.110781
0.11079
0.1108
0.110809
0.110816
0.0440702
0.0440661
0.0440607
0.0440552
0.0440499
0.044045
0.0440404
0.0440363
0.0440326
0.0440292
0.0440262
0.0440235
0.0440211
0.044019
0.0440172
0.0440155
0.0440141
0.0440129
0.0440118
0.0440108
0.04401
0.0440093
0.0440087
0.0440082
0.0440078
0.0440075
0.0440072
0.0440071
0.0440069
0.0440069
0.0440069
0.0440069
0.0440071
0.0440072
0.0440075
0.0440078
0.0440082
0.0440087
0.0440093
0.04401
0.0440108
0.0440118
0.0440129
0.0440141
0.0440155
0.0440172
0.044019
0.0440211
0.0440235
0.0440262
0.0440292
0.0440326
0.0440363
0.0440404
0.044045
0.0440499
0.0440552
0.0440607
0.0440661
0.0440702
0.0199422
0.0199403
0.0199378
0.0199351
0.0199325
0.0199301
0.0199279
0.0199258
0.019924
0.0199224
0.0199209
0.0199196
0.0199184
0.0199174
0.0199165
0.0199157
0.019915
0.0199144
0.0199138
0.0199134
0.019913
0.0199126
0.0199123
0.0199121
0.0199119
0.0199117
0.0199116
0.0199115
0.0199114
0.0199114
0.0199114
0.0199114
0.0199115
0.0199116
0.0199117
0.0199119
0.0199121
0.0199123
0.0199126
0.019913
0.0199134
0.0199138
0.0199144
0.019915
0.0199157
0.0199165
0.0199174
0.0199184
0.0199196
0.0199209
0.0199224
0.019924
0.0199258
0.0199279
0.0199301
0.0199325
0.0199351
0.0199378
0.0199403
0.0199422
0.0107567
0.0107562
0.0107554
0.0107545
0.0107536
0.0107527
0.010752
0.0107512
0.0107506
0.01075
0.0107495
0.010749
0.0107486
0.0107482
0.0107479
0.0107476
0.0107474
0.0107472
0.010747
0.0107468
0.0107467
0.0107466
0.0107465
0.0107464
0.0107463
0.0107462
0.0107462
0.0107462
0.0107461
0.0107461
0.0107461
0.0107461
0.0107462
0.0107462
0.0107462
0.0107463
0.0107464
0.0107465
0.0107466
0.0107467
0.0107468
0.010747
0.0107472
0.0107474
0.0107476
0.0107479
0.0107482
0.0107486
0.010749
0.0107495
0.01075
0.0107506
0.0107512
0.010752
0.0107527
0.0107536
0.0107545
0.0107554
0.0107562
0.0107567
0.00725056
0.00725093
0.00725107
0.00725112
0.00725115
0.00725117
0.00725118
0.00725119
0.0072512
0.00725121
0.00725121
0.00725122
0.00725122
0.00725123
0.00725123
0.00725123
0.00725123
0.00725123
0.00725123
0.00725123
0.00725123
0.00725123
0.00725123
0.00725123
0.00725123
0.00725123
0.00725123
0.00725123
0.00725123
0.00725123
0.00725123
0.00725123
0.00725123
0.00725123
0.00725123
0.00725123
0.00725123
0.00725123
0.00725123
0.00725123
0.00725123
0.00725123
0.00725123
0.00725123
0.00725123
0.00725123
0.00725123
0.00725122
0.00725122
0.00725121
0.00725121
0.0072512
0.00725119
0.00725118
0.00725117
0.00725115
0.00725112
0.00725107
0.00725093
0.00725056
0.00594473
0.0059455
0.00594613
0.00594668
0.00594718
0.00594764
0.00594806
0.00594844
0.00594878
0.00594908
0.00594935
0.0059496
0.00594981
0.00595
0.00595017
0.00595032
0.00595045
0.00595056
0.00595066
0.00595074
0.00595081
0.00595087
0.00595093
0.00595097
0.00595101
0.00595104
0.00595106
0.00595108
0.00595109
0.00595109
0.00595109
0.00595109
0.00595108
0.00595106
0.00595104
0.00595101
0.00595097
0.00595093
0.00595087
0.00595081
0.00595074
0.00595066
0.00595056
0.00595045
0.00595032
0.00595017
0.00595
0.00594981
0.0059496
0.00594935
0.00594908
0.00594878
0.00594844
0.00594806
0.00594764
0.00594718
0.00594668
0.00594613
0.0059455
0.00594473
0.00548577
0.00548674
0.0054876
0.00548839
0.00548912
0.00548979
0.0054904
0.00549095
0.00549145
0.0054919
0.0054923
0.00549266
0.00549298
0.00549326
0.0054935
0.00549372
0.00549391
0.00549408
0.00549422
0.00549435
0.00549445
0.00549454
0.00549462
0.00549469
0.00549474
0.00549478
0.00549482
0.00549484
0.00549486
0.00549487
0.00549487
0.00549486
0.00549484
0.00549482
0.00549478
0.00549474
0.00549469
0.00549462
0.00549454
0.00549445
0.00549435
0.00549422
0.00549408
0.00549391
0.00549372
0.0054935
0.00549326
0.00549298
0.00549266
0.0054923
0.0054919
0.00549145
0.00549095
0.0054904
0.00548979
0.00548912
0.00548839
0.0054876
0.00548674
0.00548577
0.00534776
0.00534882
0.00534979
0.00535069
0.00535153
0.0053523
0.005353
0.00535364
0.00535421
0.00535473
0.00535519
0.0053556
0.00535596
0.00535629
0.00535657
0.00535682
0.00535704
0.00535723
0.0053574
0.00535754
0.00535766
0.00535777
0.00535786
0.00535793
0.00535799
0.00535804
0.00535808
0.00535811
0.00535813
0.00535814
0.00535814
0.00535813
0.00535811
0.00535808
0.00535804
0.00535799
0.00535793
0.00535786
0.00535777
0.00535766
0.00535754
0.0053574
0.00535723
0.00535704
0.00535682
0.00535657
0.00535629
0.00535596
0.0053556
0.00535519
0.00535473
0.00535421
0.00535364
0.005353
0.0053523
0.00535153
0.00535069
0.00534979
0.00534882
0.00534776
0.00532971
0.00533082
0.00533184
0.0053328
0.00533369
0.00533451
0.00533525
0.00533593
0.00533654
0.00533709
0.00533758
0.00533802
0.00533841
0.00533875
0.00533905
0.00533932
0.00533955
0.00533976
0.00533993
0.00534008
0.00534022
0.00534033
0.00534042
0.0053405
0.00534057
0.00534062
0.00534066
0.00534069
0.00534071
0.00534072
0.00534072
0.00534071
0.00534069
0.00534066
0.00534062
0.00534057
0.0053405
0.00534042
0.00534033
0.00534022
0.00534008
0.00533993
0.00533976
0.00533955
0.00533932
0.00533905
0.00533875
0.00533841
0.00533802
0.00533758
0.00533709
0.00533654
0.00533593
0.00533525
0.00533451
0.00533369
0.0053328
0.00533184
0.00533082
0.00532971
0.00535665
0.00535779
0.00535884
0.00535983
0.00536075
0.0053616
0.00536237
0.00536307
0.0053637
0.00536427
0.00536477
0.00536523
0.00536563
0.00536598
0.00536629
0.00536657
0.00536681
0.00536702
0.0053672
0.00536736
0.0053675
0.00536761
0.00536771
0.00536779
0.00536786
0.00536792
0.00536796
0.00536799
0.00536801
0.00536802
0.00536802
0.00536801
0.00536799
0.00536796
0.00536792
0.00536786
0.00536779
0.00536771
0.00536761
0.0053675
0.00536736
0.0053672
0.00536702
0.00536681
0.00536657
0.00536629
0.00536598
0.00536563
0.00536523
0.00536477
0.00536427
0.0053637
0.00536307
0.00536237
0.0053616
0.00536075
0.00535983
0.00535884
0.00535779
0.00535665
0.00540142
0.00540259
0.00540367
0.00540468
0.00540562
0.00540648
0.00540727
0.00540798
0.00540863
0.00540921
0.00540973
0.00541019
0.0054106
0.00541096
0.00541128
0.00541156
0.00541181
0.00541203
0.00541221
0.00541237
0.00541251
0.00541263
0.00541273
0.00541282
0.00541289
0.00541294
0.00541299
0.00541302
0.00541304
0.00541305
0.00541305
0.00541304
0.00541302
0.00541299
0.00541294
0.00541289
0.00541282
0.00541273
0.00541263
0.00541251
0.00541237
0.00541221
0.00541203
0.00541181
0.00541156
0.00541128
0.00541096
0.0054106
0.00541019
0.00540973
0.00540921
0.00540863
0.00540798
0.00540727
0.00540648
0.00540562
0.00540468
0.00540367
0.00540259
0.00540142
0.00545459
0.00545577
0.00545687
0.0054579
0.00545886
0.00545974
0.00546054
0.00546127
0.00546193
0.00546252
0.00546305
0.00546352
0.00546394
0.00546431
0.00546463
0.00546492
0.00546517
0.00546539
0.00546558
0.00546575
0.00546589
0.00546601
0.00546611
0.0054662
0.00546627
0.00546633
0.00546637
0.00546641
0.00546643
0.00546644
0.00546644
0.00546643
0.00546641
0.00546637
0.00546633
0.00546627
0.0054662
0.00546611
0.00546601
0.00546589
0.00546575
0.00546558
0.00546539
0.00546517
0.00546492
0.00546463
0.00546431
0.00546394
0.00546352
0.00546305
0.00546252
0.00546193
0.00546127
0.00546054
0.00545974
0.00545886
0.0054579
0.00545687
0.00545577
0.00545459
0.00551309
0.0055143
0.00551542
0.00551646
0.00551744
0.00551834
0.00551915
0.0055199
0.00552057
0.00552117
0.00552171
0.00552218
0.00552261
0.00552299
0.00552332
0.00552361
0.00552387
0.00552409
0.00552429
0.00552445
0.0055246
0.00552472
0.00552483
0.00552492
0.00552499
0.00552505
0.00552509
0.00552513
0.00552515
0.00552516
0.00552516
0.00552515
0.00552513
0.00552509
0.00552505
0.00552499
0.00552492
0.00552483
0.00552472
0.0055246
0.00552445
0.00552429
0.00552409
0.00552387
0.00552361
0.00552332
0.00552299
0.00552261
0.00552218
0.00552171
0.00552117
0.00552057
0.0055199
0.00551915
0.00551834
0.00551744
0.00551646
0.00551542
0.0055143
0.00551309
0.00557614
0.00557737
0.00557851
0.00557958
0.00558057
0.00558149
0.00558232
0.00558308
0.00558376
0.00558437
0.00558492
0.00558541
0.00558584
0.00558623
0.00558657
0.00558686
0.00558713
0.00558735
0.00558755
0.00558772
0.00558787
0.005588
0.0055881
0.00558819
0.00558827
0.00558833
0.00558837
0.00558841
0.00558843
0.00558844
0.00558844
0.00558843
0.00558841
0.00558837
0.00558833
0.00558827
0.00558819
0.0055881
0.005588
0.00558787
0.00558772
0.00558755
0.00558735
0.00558713
0.00558686
0.00558657
0.00558623
0.00558584
0.00558541
0.00558492
0.00558437
0.00558376
0.00558308
0.00558232
0.00558149
0.00558057
0.00557958
0.00557851
0.00557737
0.00557614
0.00564375
0.00564502
0.00564618
0.00564727
0.00564828
0.00564921
0.00565006
0.00565083
0.00565153
0.00565215
0.00565271
0.00565321
0.00565365
0.00565405
0.00565439
0.0056547
0.00565496
0.0056552
0.0056554
0.00565557
0.00565572
0.00565585
0.00565596
0.00565605
0.00565613
0.00565619
0.00565624
0.00565627
0.00565629
0.00565631
0.00565631
0.00565629
0.00565627
0.00565624
0.00565619
0.00565613
0.00565605
0.00565596
0.00565585
0.00565572
0.00565557
0.0056554
0.0056552
0.00565496
0.0056547
0.00565439
0.00565405
0.00565365
0.00565321
0.00565271
0.00565215
0.00565153
0.00565083
0.00565006
0.00564921
0.00564828
0.00564727
0.00564618
0.00564502
0.00564375
0.00571626
0.00571754
0.00571873
0.00571984
0.00572088
0.00572183
0.0057227
0.00572348
0.00572419
0.00572483
0.0057254
0.00572591
0.00572637
0.00572677
0.00572712
0.00572743
0.0057277
0.00572794
0.00572815
0.00572833
0.00572848
0.00572861
0.00572872
0.00572882
0.00572889
0.00572896
0.005729
0.00572904
0.00572906
0.00572907
0.00572907
0.00572906
0.00572904
0.005729
0.00572896
0.00572889
0.00572882
0.00572872
0.00572861
0.00572848
0.00572833
0.00572815
0.00572794
0.0057277
0.00572743
0.00572712
0.00572677
0.00572637
0.00572591
0.0057254
0.00572483
0.00572419
0.00572348
0.0057227
0.00572183
0.00572088
0.00571984
0.00571873
0.00571754
0.00571626
0.0057941
0.00579542
0.00579664
0.00579777
0.00579883
0.0057998
0.00580069
0.00580149
0.00580222
0.00580287
0.00580346
0.00580398
0.00580444
0.00580485
0.00580521
0.00580553
0.00580581
0.00580605
0.00580626
0.00580645
0.0058066
0.00580674
0.00580685
0.00580695
0.00580703
0.00580709
0.00580714
0.00580718
0.0058072
0.00580721
0.00580721
0.0058072
0.00580718
0.00580714
0.00580709
0.00580703
0.00580695
0.00580685
0.00580674
0.0058066
0.00580645
0.00580626
0.00580605
0.00580581
0.00580553
0.00580521
0.00580485
0.00580444
0.00580398
0.00580346
0.00580287
0.00580222
0.00580149
0.00580069
0.0057998
0.00579883
0.00579777
0.00579664
0.00579542
0.0057941
0.00587785
0.00587921
0.00588045
0.00588161
0.0058827
0.00588369
0.0058846
0.00588542
0.00588617
0.00588684
0.00588744
0.00588797
0.00588844
0.00588886
0.00588923
0.00588956
0.00588984
0.00589009
0.00589031
0.0058905
0.00589066
0.0058908
0.00589091
0.00589101
0.00589109
0.00589116
0.00589121
0.00589125
0.00589127
0.00589128
0.00589128
0.00589127
0.00589125
0.00589121
0.00589116
0.00589109
0.00589101
0.00589091
0.0058908
0.00589066
0.0058905
0.00589031
0.00589009
0.00588984
0.00588956
0.00588923
0.00588886
0.00588844
0.00588797
0.00588744
0.00588684
0.00588617
0.00588542
0.0058846
0.00588369
0.0058827
0.00588161
0.00588045
0.00587921
0.00587785
0.00596816
0.00596955
0.00597083
0.00597202
0.00597313
0.00597415
0.00597508
0.00597593
0.00597669
0.00597738
0.00597799
0.00597854
0.00597903
0.00597946
0.00597984
0.00598017
0.00598047
0.00598072
0.00598094
0.00598114
0.0059813
0.00598144
0.00598156
0.00598166
0.00598175
0.00598181
0.00598187
0.00598191
0.00598193
0.00598194
0.00598194
0.00598193
0.00598191
0.00598187
0.00598181
0.00598175
0.00598166
0.00598156
0.00598144
0.0059813
0.00598114
0.00598094
0.00598072
0.00598047
0.00598017
0.00597984
0.00597946
0.00597903
0.00597854
0.00597799
0.00597738
0.00597669
0.00597593
0.00597508
0.00597415
0.00597313
0.00597202
0.00597083
0.00596955
0.00596816
0.00606579
0.00606722
0.00606854
0.00606976
0.0060709
0.00607195
0.00607291
0.00607378
0.00607456
0.00607527
0.0060759
0.00607646
0.00607696
0.0060774
0.00607779
0.00607814
0.00607844
0.0060787
0.00607893
0.00607913
0.0060793
0.00607944
0.00607957
0.00607967
0.00607976
0.00607983
0.00607988
0.00607992
0.00607995
0.00607996
0.00607996
0.00607995
0.00607992
0.00607988
0.00607983
0.00607976
0.00607967
0.00607957
0.00607944
0.0060793
0.00607913
0.00607893
0.0060787
0.00607844
0.00607814
0.00607779
0.0060774
0.00607696
0.00607646
0.0060759
0.00607527
0.00607456
0.00607378
0.00607291
0.00607195
0.0060709
0.00606976
0.00606854
0.00606722
0.00606579
0.00617164
0.00617311
0.00617446
0.00617573
0.0061769
0.00617798
0.00617896
0.00617986
0.00618067
0.00618139
0.00618204
0.00618262
0.00618314
0.00618359
0.006184
0.00618435
0.00618466
0.00618493
0.00618517
0.00618537
0.00618555
0.0061857
0.00618582
0.00618593
0.00618602
0.00618609
0.00618615
0.00618619
0.00618621
0.00618623
0.00618623
0.00618621
0.00618619
0.00618615
0.00618609
0.00618602
0.00618593
0.00618582
0.0061857
0.00618555
0.00618537
0.00618517
0.00618493
0.00618466
0.00618435
0.006184
0.00618359
0.00618314
0.00618262
0.00618204
0.00618139
0.00618067
0.00617986
0.00617896
0.00617798
0.0061769
0.00617573
0.00617446
0.00617311
0.00617164
0.00628674
0.00628826
0.00628966
0.00629096
0.00629217
0.00629329
0.0062943
0.00629523
0.00629606
0.00629681
0.00629748
0.00629808
0.00629861
0.00629908
0.0062995
0.00629986
0.00630018
0.00630046
0.00630071
0.00630092
0.0063011
0.00630125
0.00630138
0.00630149
0.00630159
0.00630166
0.00630172
0.00630176
0.00630179
0.0063018
0.0063018
0.00630179
0.00630176
0.00630172
0.00630166
0.00630159
0.00630149
0.00630138
0.00630125
0.0063011
0.00630092
0.00630071
0.00630046
0.00630018
0.00629986
0.0062995
0.00629908
0.00629861
0.00629808
0.00629748
0.00629681
0.00629606
0.00629523
0.0062943
0.00629329
0.00629217
0.00629096
0.00628966
0.00628826
0.00628674
0.00641234
0.00641392
0.00641536
0.00641671
0.00641796
0.00641912
0.00642017
0.00642112
0.00642199
0.00642276
0.00642346
0.00642408
0.00642463
0.00642511
0.00642554
0.00642592
0.00642625
0.00642654
0.00642679
0.00642701
0.0064272
0.00642736
0.0064275
0.00642761
0.00642771
0.00642778
0.00642784
0.00642788
0.00642791
0.00642793
0.00642793
0.00642791
0.00642788
0.00642784
0.00642778
0.00642771
0.00642761
0.0064275
0.00642736
0.0064272
0.00642701
0.00642679
0.00642654
0.00642625
0.00642592
0.00642554
0.00642511
0.00642463
0.00642408
0.00642346
0.00642276
0.00642199
0.00642112
0.00642017
0.00641912
0.00641796
0.00641671
0.00641536
0.00641392
0.00641234
0.00654992
0.00655156
0.00655306
0.00655446
0.00655576
0.00655695
0.00655805
0.00655904
0.00655993
0.00656074
0.00656146
0.0065621
0.00656267
0.00656318
0.00656362
0.00656402
0.00656436
0.00656466
0.00656492
0.00656515
0.00656534
0.00656551
0.00656565
0.00656577
0.00656587
0.00656595
0.00656601
0.00656605
0.00656608
0.0065661
0.0065661
0.00656608
0.00656605
0.00656601
0.00656595
0.00656587
0.00656577
0.00656565
0.00656551
0.00656534
0.00656515
0.00656492
0.00656466
0.00656436
0.00656402
0.00656362
0.00656318
0.00656267
0.0065621
0.00656146
0.00656074
0.00655993
0.00655904
0.00655805
0.00655695
0.00655576
0.00655446
0.00655306
0.00655156
0.00654992
0.00670126
0.00670297
0.00670453
0.00670599
0.00670734
0.00670859
0.00670972
0.00671076
0.00671169
0.00671253
0.00671328
0.00671394
0.00671454
0.00671507
0.00671553
0.00671594
0.0067163
0.00671661
0.00671688
0.00671712
0.00671732
0.0067175
0.00671764
0.00671777
0.00671787
0.00671795
0.00671802
0.00671806
0.00671809
0.00671811
0.00671811
0.00671809
0.00671806
0.00671802
0.00671795
0.00671787
0.00671777
0.00671764
0.0067175
0.00671732
0.00671712
0.00671688
0.00671661
0.0067163
0.00671594
0.00671553
0.00671507
0.00671454
0.00671394
0.00671328
0.00671253
0.00671169
0.00671076
0.00670972
0.00670859
0.00670734
0.00670599
0.00670453
0.00670297
0.00670126
0.00686854
0.00687033
0.00687196
0.00687348
0.00687489
0.00687619
0.00687738
0.00687846
0.00687943
0.00688031
0.00688109
0.00688179
0.00688241
0.00688296
0.00688345
0.00688388
0.00688425
0.00688458
0.00688486
0.00688511
0.00688532
0.0068855
0.00688566
0.00688579
0.00688589
0.00688598
0.00688605
0.0068861
0.00688613
0.00688614
0.00688614
0.00688613
0.0068861
0.00688605
0.00688598
0.00688589
0.00688579
0.00688566
0.0068855
0.00688532
0.00688511
0.00688486
0.00688458
0.00688425
0.00688388
0.00688345
0.00688296
0.00688241
0.00688179
0.00688109
0.00688031
0.00687943
0.00687846
0.00687738
0.00687619
0.00687489
0.00687348
0.00687196
0.00687033
0.00686854
0.00705441
0.00705629
0.007058
0.0070596
0.00706108
0.00706244
0.00706369
0.00706482
0.00706584
0.00706676
0.00706758
0.00706832
0.00706897
0.00706955
0.00707006
0.0070705
0.0070709
0.00707124
0.00707154
0.0070718
0.00707202
0.00707221
0.00707238
0.00707251
0.00707262
0.00707271
0.00707278
0.00707284
0.00707287
0.00707289
0.00707289
0.00707287
0.00707284
0.00707278
0.00707271
0.00707262
0.00707251
0.00707238
0.00707221
0.00707202
0.0070718
0.00707154
0.00707124
0.0070709
0.0070705
0.00707006
0.00706955
0.00706897
0.00706832
0.00706758
0.00706676
0.00706584
0.00706482
0.00706369
0.00706244
0.00706108
0.0070596
0.007058
0.00705629
0.00705441
0.0072622
0.00726418
0.00726598
0.00726767
0.00726923
0.00727067
0.00727198
0.00727317
0.00727425
0.00727522
0.00727608
0.00727686
0.00727755
0.00727816
0.00727869
0.00727917
0.00727958
0.00727994
0.00728026
0.00728053
0.00728077
0.00728097
0.00728114
0.00728129
0.0072814
0.0072815
0.00728157
0.00728163
0.00728166
0.00728168
0.00728168
0.00728166
0.00728163
0.00728157
0.0072815
0.0072814
0.00728129
0.00728114
0.00728097
0.00728077
0.00728053
0.00728026
0.00727994
0.00727958
0.00727917
0.00727869
0.00727816
0.00727755
0.00727686
0.00727608
0.00727522
0.00727425
0.00727317
0.00727198
0.00727067
0.00726923
0.00726767
0.00726598
0.00726418
0.0072622
0.00749609
0.00749819
0.0075001
0.00750188
0.00750354
0.00750506
0.00750645
0.00750772
0.00750886
0.00750989
0.00751081
0.00751163
0.00751236
0.007513
0.00751357
0.00751408
0.00751452
0.0075149
0.00751524
0.00751553
0.00751578
0.00751599
0.00751617
0.00751632
0.00751645
0.00751655
0.00751663
0.00751669
0.00751673
0.00751674
0.00751674
0.00751673
0.00751669
0.00751663
0.00751655
0.00751645
0.00751632
0.00751617
0.00751599
0.00751578
0.00751553
0.00751524
0.0075149
0.00751452
0.00751408
0.00751357
0.007513
0.00751236
0.00751163
0.00751081
0.00750989
0.00750886
0.00750772
0.00750645
0.00750506
0.00750354
0.00750188
0.0075001
0.00749819
0.00749609
0.00776143
0.00776367
0.00776571
0.00776761
0.00776938
0.007771
0.00777249
0.00777384
0.00777506
0.00777615
0.00777714
0.00777801
0.00777879
0.00777948
0.00778009
0.00778063
0.0077811
0.00778151
0.00778187
0.00778218
0.00778244
0.00778267
0.00778287
0.00778303
0.00778316
0.00778327
0.00778336
0.00778342
0.00778346
0.00778348
0.00778348
0.00778346
0.00778342
0.00778336
0.00778327
0.00778316
0.00778303
0.00778287
0.00778267
0.00778244
0.00778218
0.00778187
0.00778151
0.0077811
0.00778063
0.00778009
0.00777948
0.00777879
0.00777801
0.00777714
0.00777615
0.00777506
0.00777384
0.00777249
0.007771
0.00776938
0.00776761
0.00776571
0.00776367
0.00776143
0.00806521
0.00806761
0.00806981
0.00807185
0.00807375
0.0080755
0.0080771
0.00807855
0.00807986
0.00808104
0.0080821
0.00808304
0.00808388
0.00808462
0.00808528
0.00808586
0.00808636
0.0080868
0.00808719
0.00808752
0.00808781
0.00808806
0.00808827
0.00808844
0.00808858
0.0080887
0.00808879
0.00808886
0.0080889
0.00808892
0.00808892
0.0080889
0.00808886
0.00808879
0.0080887
0.00808858
0.00808844
0.00808827
0.00808806
0.00808781
0.00808752
0.00808719
0.0080868
0.00808636
0.00808586
0.00808528
0.00808462
0.00808388
0.00808304
0.0080821
0.00808104
0.00807986
0.00807855
0.0080771
0.0080755
0.00807375
0.00807185
0.00806981
0.00806761
0.00806521
0.00841669
0.0084193
0.00842168
0.0084239
0.00842597
0.00842786
0.0084296
0.00843117
0.0084326
0.00843388
0.00843503
0.00843605
0.00843696
0.00843777
0.00843848
0.00843911
0.00843966
0.00844014
0.00844056
0.00844092
0.00844123
0.0084415
0.00844173
0.00844192
0.00844207
0.0084422
0.0084423
0.00844237
0.00844242
0.00844244
0.00844244
0.00844242
0.00844237
0.0084423
0.0084422
0.00844207
0.00844192
0.00844173
0.0084415
0.00844123
0.00844092
0.00844056
0.00844014
0.00843966
0.00843911
0.00843848
0.00843777
0.00843696
0.00843605
0.00843503
0.00843388
0.0084326
0.00843117
0.0084296
0.00842786
0.00842597
0.0084239
0.00842168
0.0084193
0.00841669
0.00882847
0.00883133
0.00883394
0.00883638
0.00883865
0.00884073
0.00884263
0.00884436
0.00884593
0.00884734
0.0088486
0.00884972
0.00885072
0.00885161
0.00885239
0.00885308
0.00885368
0.00885421
0.00885467
0.00885507
0.00885541
0.00885571
0.00885596
0.00885617
0.00885634
0.00885648
0.00885659
0.00885667
0.00885672
0.00885675
0.00885675
0.00885672
0.00885667
0.00885659
0.00885648
0.00885634
0.00885617
0.00885596
0.00885571
0.00885541
0.00885507
0.00885467
0.00885421
0.00885368
0.00885308
0.00885239
0.00885161
0.00885072
0.00884972
0.0088486
0.00884734
0.00884593
0.00884436
0.00884263
0.00884073
0.00883865
0.00883638
0.00883394
0.00883133
0.00882847
0.00931805
0.00932123
0.00932412
0.00932684
0.00932936
0.00933168
0.0093338
0.00933573
0.00933747
0.00933904
0.00934044
0.00934169
0.00934281
0.00934379
0.00934467
0.00934544
0.00934611
0.0093467
0.00934721
0.00934765
0.00934804
0.00934837
0.00934864
0.00934888
0.00934907
0.00934922
0.00934935
0.00934943
0.00934949
0.00934952
0.00934952
0.00934949
0.00934943
0.00934935
0.00934922
0.00934907
0.00934888
0.00934864
0.00934837
0.00934804
0.00934765
0.00934721
0.0093467
0.00934611
0.00934544
0.00934467
0.00934379
0.00934281
0.00934169
0.00934044
0.00933904
0.00933747
0.00933573
0.0093338
0.00933168
0.00932936
0.00932684
0.00932412
0.00932123
0.00931805
0.00991035
0.00991393
0.00991721
0.00992028
0.00992313
0.00992576
0.00992816
0.00993035
0.00993232
0.00993409
0.00993568
0.0099371
0.00993837
0.00993949
0.00994047
0.00994135
0.00994211
0.00994278
0.00994336
0.00994386
0.0099443
0.00994467
0.00994498
0.00994525
0.00994547
0.00994564
0.00994578
0.00994588
0.00994595
0.00994598
0.00994598
0.00994595
0.00994588
0.00994578
0.00994564
0.00994547
0.00994525
0.00994498
0.00994467
0.0099443
0.00994386
0.00994336
0.00994278
0.00994211
0.00994135
0.00994047
0.00993949
0.00993837
0.0099371
0.00993568
0.00993409
0.00993232
0.00993035
0.00992816
0.00992576
0.00992313
0.00992028
0.00991721
0.00991393
0.00991035
0.0106416
0.0106457
0.0106495
0.0106531
0.0106564
0.0106594
0.0106622
0.0106647
0.010667
0.010669
0.0106709
0.0106725
0.010674
0.0106753
0.0106764
0.0106774
0.0106783
0.0106791
0.0106797
0.0106803
0.0106808
0.0106813
0.0106816
0.0106819
0.0106822
0.0106824
0.0106825
0.0106827
0.0106827
0.0106828
0.0106828
0.0106827
0.0106827
0.0106825
0.0106824
0.0106822
0.0106819
0.0106816
0.0106813
0.0106808
0.0106803
0.0106797
0.0106791
0.0106783
0.0106774
0.0106764
0.0106753
0.010674
0.0106725
0.0106709
0.010669
0.010667
0.0106647
0.0106622
0.0106594
0.0106564
0.0106531
0.0106495
0.0106457
0.0106416
0.011565
0.0115699
0.0115743
0.0115785
0.0115824
0.011586
0.0115893
0.0115923
0.011595
0.0115974
0.0115996
0.0116016
0.0116033
0.0116048
0.0116062
0.0116074
0.0116084
0.0116094
0.0116102
0.0116108
0.0116114
0.011612
0.0116124
0.0116128
0.0116131
0.0116133
0.0116135
0.0116136
0.0116137
0.0116138
0.0116138
0.0116137
0.0116136
0.0116135
0.0116133
0.0116131
0.0116128
0.0116124
0.011612
0.0116114
0.0116108
0.0116102
0.0116094
0.0116084
0.0116074
0.0116062
0.0116048
0.0116033
0.0116016
0.0115996
0.0115974
0.011595
0.0115923
0.0115893
0.011586
0.0115824
0.0115785
0.0115743
0.0115699
0.011565
0.0127579
0.0127637
0.0127691
0.0127742
0.012779
0.0127833
0.0127873
0.012791
0.0127943
0.0127972
0.0127999
0.0128022
0.0128043
0.0128062
0.0128079
0.0128093
0.0128106
0.0128117
0.0128127
0.0128135
0.0128142
0.0128149
0.0128154
0.0128158
0.0128162
0.0128165
0.0128167
0.0128169
0.012817
0.0128171
0.0128171
0.012817
0.0128169
0.0128167
0.0128165
0.0128162
0.0128158
0.0128154
0.0128149
0.0128142
0.0128135
0.0128127
0.0128117
0.0128106
0.0128093
0.0128079
0.0128062
0.0128043
0.0128022
0.0127999
0.0127972
0.0127943
0.012791
0.0127873
0.0127833
0.012779
0.0127742
0.0127691
0.0127637
0.0127579
0.0143277
0.0143349
0.0143416
0.0143479
0.0143539
0.0143593
0.0143643
0.0143688
0.0143729
0.0143766
0.0143799
0.0143828
0.0143854
0.0143878
0.0143898
0.0143916
0.0143932
0.0143946
0.0143958
0.0143969
0.0143978
0.0143986
0.0143992
0.0143998
0.0144002
0.0144006
0.0144009
0.0144011
0.0144012
0.0144013
0.0144013
0.0144012
0.0144011
0.0144009
0.0144006
0.0144002
0.0143998
0.0143992
0.0143986
0.0143978
0.0143969
0.0143958
0.0143946
0.0143932
0.0143916
0.0143898
0.0143878
0.0143854
0.0143828
0.0143799
0.0143766
0.0143729
0.0143688
0.0143643
0.0143593
0.0143539
0.0143479
0.0143416
0.0143349
0.0143277
0.0164116
0.0164206
0.0164291
0.0164371
0.0164446
0.0164515
0.0164578
0.0164635
0.0164687
0.0164733
0.0164775
0.0164812
0.0164845
0.0164875
0.0164901
0.0164924
0.0164944
0.0164961
0.0164977
0.016499
0.0165002
0.0165011
0.016502
0.0165027
0.0165032
0.0165037
0.0165041
0.0165043
0.0165045
0.0165046
0.0165046
0.0165045
0.0165043
0.0165041
0.0165037
0.0165032
0.0165027
0.016502
0.0165011
0.0165002
0.016499
0.0164977
0.0164961
0.0164944
0.0164924
0.0164901
0.0164875
0.0164845
0.0164812
0.0164775
0.0164733
0.0164687
0.0164635
0.0164578
0.0164515
0.0164446
0.0164371
0.0164291
0.0164206
0.0164116
0.0191603
0.0191718
0.0191825
0.0191926
0.0192021
0.0192108
0.0192188
0.019226
0.0192325
0.0192384
0.0192437
0.0192485
0.0192527
0.0192564
0.0192597
0.0192626
0.0192651
0.0192674
0.0192693
0.019271
0.0192724
0.0192737
0.0192747
0.0192756
0.0192764
0.019277
0.0192774
0.0192778
0.019278
0.0192781
0.0192781
0.019278
0.0192778
0.0192774
0.019277
0.0192764
0.0192756
0.0192747
0.0192737
0.0192724
0.019271
0.0192693
0.0192674
0.0192651
0.0192626
0.0192597
0.0192564
0.0192527
0.0192485
0.0192437
0.0192384
0.0192325
0.019226
0.0192188
0.0192108
0.0192021
0.0191926
0.0191825
0.0191718
0.0191603
0.0227026
0.0227169
0.0227303
0.022743
0.0227548
0.0227657
0.0227756
0.0227847
0.0227929
0.0228002
0.0228068
0.0228127
0.022818
0.0228226
0.0228268
0.0228304
0.0228336
0.0228364
0.0228388
0.0228409
0.0228427
0.0228443
0.0228456
0.0228467
0.0228476
0.0228484
0.0228489
0.0228493
0.0228496
0.0228498
0.0228498
0.0228496
0.0228493
0.0228489
0.0228484
0.0228476
0.0228467
0.0228456
0.0228443
0.0228427
0.0228409
0.0228388
0.0228364
0.0228336
0.0228304
0.0228268
0.0228226
0.022818
0.0228127
0.0228068
0.0228002
0.0227929
0.0227847
0.0227756
0.0227657
0.0227548
0.022743
0.0227303
0.0227169
0.0227026
0.0271013
0.0271188
0.0271352
0.0271506
0.0271649
0.0271782
0.0271903
0.0272013
0.0272112
0.0272202
0.0272282
0.0272354
0.0272418
0.0272475
0.0272525
0.0272569
0.0272608
0.0272642
0.0272671
0.0272697
0.0272719
0.0272738
0.0272754
0.0272768
0.0272779
0.0272788
0.0272795
0.02728
0.0272803
0.0272805
0.0272805
0.0272803
0.02728
0.0272795
0.0272788
0.0272779
0.0272768
0.0272754
0.0272738
0.0272719
0.0272697
0.0272671
0.0272642
0.0272608
0.0272569
0.0272525
0.0272475
0.0272418
0.0272354
0.0272282
0.0272202
0.0272112
0.0272013
0.0271903
0.0271782
0.0271649
0.0271506
0.0271352
0.0271188
0.0271013
0.032327
0.0323477
0.0323671
0.0323853
0.0324022
0.0324178
0.0324321
0.032445
0.0324567
0.0324673
0.0324768
0.0324852
0.0324928
0.0324994
0.0325054
0.0325106
0.0325151
0.0325191
0.0325226
0.0325256
0.0325283
0.0325305
0.0325324
0.032534
0.0325353
0.0325364
0.0325372
0.0325378
0.0325382
0.0325384
0.0325384
0.0325382
0.0325378
0.0325372
0.0325364
0.0325353
0.032534
0.0325324
0.0325305
0.0325283
0.0325256
0.0325226
0.0325191
0.0325151
0.0325106
0.0325054
0.0324994
0.0324928
0.0324852
0.0324768
0.0324673
0.0324567
0.032445
0.0324321
0.0324178
0.0324022
0.0323853
0.0323671
0.0323477
0.032327
0.0382701
0.0382939
0.0383161
0.0383369
0.0383562
0.038374
0.0383903
0.0384051
0.0384185
0.0384306
0.0384414
0.038451
0.0384597
0.0384673
0.0384741
0.03848
0.0384852
0.0384898
0.0384938
0.0384973
0.0385002
0.0385028
0.038505
0.0385068
0.0385083
0.0385095
0.0385105
0.0385112
0.0385116
0.0385119
0.0385119
0.0385116
0.0385112
0.0385105
0.0385095
0.0385083
0.0385068
0.038505
0.0385028
0.0385002
0.0384973
0.0384938
0.0384898
0.0384852
0.03848
0.0384741
0.0384673
0.0384597
0.038451
0.0384414
0.0384306
0.0384185
0.0384051
0.0383903
0.038374
0.0383562
0.0383369
0.0383161
0.0382939
0.0382701
0.0447834
0.0448101
0.0448349
0.0448581
0.0448796
0.0448995
0.0449176
0.0449341
0.044949
0.0449624