/*--------------------------------*- C++ -*----------------------------------*\
| =========                 |                                                 |
| \\      /  F ield         | foam-extend: Open Source CFD                    |
|  \\    /   O peration     | Version:     4.0                                |
|   \\  /    A nd           | Web:         http://www.foam-extend.org         |
|    \\/     M anipulation  |                                                 |
\*---------------------------------------------------------------------------*/
FoamFile
{
    version     2.0;
    format      ascii;
    class       volScalarField;
    location    "510";
    object      cMinus;
}
// * * * * * * * * * * * * * * * * * * * * * * * * * * * * * * * * * * * * * //

dimensions      [0 0 0 0 0 0 0];

internalField   nonuniform List<scalar> 
6960
(
2.52307e-17
2.51602e-17
2.52223e-17
2.52478e-17
2.52537e-17
2.52494e-17
2.52396e-17
2.52267e-17
2.52118e-17
2.51956e-17
2.51786e-17
2.51612e-17
2.51436e-17
2.51261e-17
2.5109e-17
2.50923e-17
2.50763e-17
2.50612e-17
2.5047e-17
2.50338e-17
2.50216e-17
2.50107e-17
2.50009e-17
2.49923e-17
2.49849e-17
2.49787e-17
2.49738e-17
2.49701e-17
2.49677e-17
2.49664e-17
2.49664e-17
2.49677e-17
2.49701e-17
2.49738e-17
2.49787e-17
2.49849e-17
2.49923e-17
2.50009e-17
2.50107e-17
2.50216e-17
2.50338e-17
2.5047e-17
2.50612e-17
2.50763e-17
2.50923e-17
2.5109e-17
2.51261e-17
2.51436e-17
2.51612e-17
2.51786e-17
2.51956e-17
2.52118e-17
2.52267e-17
2.52396e-17
2.52494e-17
2.52537e-17
2.52478e-17
2.52223e-17
2.51602e-17
2.52307e-17
4.10234e-17
4.09307e-17
4.10267e-17
4.10659e-17
4.10747e-17
4.10679e-17
4.10526e-17
4.10325e-17
4.10094e-17
4.09842e-17
4.09579e-17
4.09308e-17
4.09034e-17
4.08762e-17
4.08496e-17
4.08237e-17
4.07989e-17
4.07753e-17
4.07532e-17
4.07327e-17
4.07139e-17
4.06968e-17
4.06816e-17
4.06682e-17
4.06568e-17
4.06472e-17
4.06395e-17
4.06338e-17
4.063e-17
4.06281e-17
4.06281e-17
4.063e-17
4.06338e-17
4.06395e-17
4.06472e-17
4.06568e-17
4.06682e-17
4.06816e-17
4.06968e-17
4.07139e-17
4.07327e-17
4.07532e-17
4.07753e-17
4.07989e-17
4.08237e-17
4.08496e-17
4.08762e-17
4.09034e-17
4.09308e-17
4.09579e-17
4.09842e-17
4.10094e-17
4.10325e-17
4.10526e-17
4.10679e-17
4.10747e-17
4.10659e-17
4.10267e-17
4.09307e-17
4.10234e-17
1.37029e-16
1.36777e-16
1.37078e-16
1.372e-16
1.37227e-16
1.37205e-16
1.37156e-16
1.37092e-16
1.37019e-16
1.36939e-16
1.36855e-16
1.36769e-16
1.36682e-16
1.36596e-16
1.36512e-16
1.36429e-16
1.36351e-16
1.36276e-16
1.36206e-16
1.36141e-16
1.36081e-16
1.36027e-16
1.35979e-16
1.35936e-16
1.359e-16
1.3587e-16
1.35845e-16
1.35827e-16
1.35815e-16
1.35809e-16
1.35809e-16
1.35815e-16
1.35827e-16
1.35845e-16
1.3587e-16
1.359e-16
1.35936e-16
1.35979e-16
1.36027e-16
1.36081e-16
1.36141e-16
1.36206e-16
1.36276e-16
1.36351e-16
1.36429e-16
1.36512e-16
1.36596e-16
1.36682e-16
1.36769e-16
1.36855e-16
1.36939e-16
1.37019e-16
1.37092e-16
1.37156e-16
1.37205e-16
1.37227e-16
1.372e-16
1.37078e-16
1.36777e-16
1.37029e-16
5.14016e-16
5.13289e-16
5.14333e-16
5.14754e-16
5.14846e-16
5.14767e-16
5.14598e-16
5.14376e-16
5.14122e-16
5.13845e-16
5.13556e-16
5.13258e-16
5.12958e-16
5.12659e-16
5.12366e-16
5.12082e-16
5.11809e-16
5.1155e-16
5.11308e-16
5.11082e-16
5.10876e-16
5.10688e-16
5.10521e-16
5.10375e-16
5.10249e-16
5.10144e-16
5.1006e-16
5.09997e-16
5.09955e-16
5.09934e-16
5.09934e-16
5.09955e-16
5.09997e-16
5.1006e-16
5.10144e-16
5.10249e-16
5.10375e-16
5.10521e-16
5.10688e-16
5.10876e-16
5.11082e-16
5.11308e-16
5.1155e-16
5.11809e-16
5.12082e-16
5.12366e-16
5.12659e-16
5.12958e-16
5.13258e-16
5.13556e-16
5.13845e-16
5.14122e-16
5.14376e-16
5.14598e-16
5.14767e-16
5.14846e-16
5.14754e-16
5.14333e-16
5.13289e-16
5.14016e-16
2.05486e-15
2.05312e-15
2.05685e-15
2.05835e-15
2.05869e-15
2.05843e-15
2.05784e-15
2.05708e-15
2.0562e-15
2.05524e-15
2.05424e-15
2.05321e-15
2.05217e-15
2.05113e-15
2.05012e-15
2.04913e-15
2.04819e-15
2.04729e-15
2.04645e-15
2.04567e-15
2.04495e-15
2.0443e-15
2.04372e-15
2.04322e-15
2.04278e-15
2.04242e-15
2.04213e-15
2.04191e-15
2.04176e-15
2.04169e-15
2.04169e-15
2.04176e-15
2.04191e-15
2.04213e-15
2.04242e-15
2.04278e-15
2.04322e-15
2.04372e-15
2.0443e-15
2.04495e-15
2.04567e-15
2.04645e-15
2.04729e-15
2.04819e-15
2.04913e-15
2.05012e-15
2.05113e-15
2.05217e-15
2.05321e-15
2.05424e-15
2.05524e-15
2.0562e-15
2.05708e-15
2.05784e-15
2.05843e-15
2.05869e-15
2.05835e-15
2.05685e-15
2.05312e-15
2.05486e-15
9.01757e-15
9.01691e-15
9.03125e-15
9.03713e-15
9.03862e-15
9.03788e-15
9.03595e-15
9.03337e-15
9.03037e-15
9.02711e-15
9.02368e-15
9.02016e-15
9.0166e-15
9.01306e-15
9.00959e-15
9.00622e-15
9.00298e-15
8.99992e-15
8.99704e-15
8.99437e-15
8.99192e-15
8.9897e-15
8.98772e-15
8.98598e-15
8.98449e-15
8.98324e-15
8.98225e-15
8.9815e-15
8.98101e-15
8.98076e-15
8.98076e-15
8.98101e-15
8.9815e-15
8.98225e-15
8.98324e-15
8.98449e-15
8.98598e-15
8.98772e-15
8.9897e-15
8.99192e-15
8.99437e-15
8.99704e-15
8.99992e-15
9.00298e-15
9.00622e-15
9.00959e-15
9.01306e-15
9.0166e-15
9.02016e-15
9.02368e-15
9.02711e-15
9.03037e-15
9.03337e-15
9.03595e-15
9.03788e-15
9.03862e-15
9.03713e-15
9.03125e-15
9.01691e-15
9.01757e-15
4.48959e-14
4.49363e-14
4.50013e-14
4.50292e-14
4.50382e-14
4.50376e-14
4.50321e-14
4.5024e-14
4.50142e-14
4.50035e-14
4.49922e-14
4.49805e-14
4.49688e-14
4.4957e-14
4.49455e-14
4.49343e-14
4.49235e-14
4.49134e-14
4.49038e-14
4.48949e-14
4.48868e-14
4.48794e-14
4.48728e-14
4.4867e-14
4.48621e-14
4.4858e-14
4.48547e-14
4.48522e-14
4.48505e-14
4.48497e-14
4.48497e-14
4.48505e-14
4.48522e-14
4.48547e-14
4.4858e-14
4.48621e-14
4.4867e-14
4.48728e-14
4.48794e-14
4.48868e-14
4.48949e-14
4.49038e-14
4.49134e-14
4.49235e-14
4.49343e-14
4.49455e-14
4.4957e-14
4.49688e-14
4.49805e-14
4.49922e-14
4.50035e-14
4.50142e-14
4.5024e-14
4.50321e-14
4.50376e-14
4.50382e-14
4.50292e-14
4.50013e-14
4.49363e-14
4.48959e-14
2.56335e-13
2.56835e-13
2.57214e-13
2.57388e-13
2.57458e-13
2.57477e-13
2.57469e-13
2.57448e-13
2.57421e-13
2.57389e-13
2.57355e-13
2.57319e-13
2.57283e-13
2.57247e-13
2.57212e-13
2.57177e-13
2.57144e-13
2.57112e-13
2.57083e-13
2.57055e-13
2.5703e-13
2.57007e-13
2.56987e-13
2.56969e-13
2.56954e-13
2.56941e-13
2.56931e-13
2.56923e-13
2.56918e-13
2.56916e-13
2.56916e-13
2.56918e-13
2.56923e-13
2.56931e-13
2.56941e-13
2.56954e-13
2.56969e-13
2.56987e-13
2.57007e-13
2.5703e-13
2.57055e-13
2.57083e-13
2.57112e-13
2.57144e-13
2.57177e-13
2.57212e-13
2.57247e-13
2.57283e-13
2.57319e-13
2.57355e-13
2.57389e-13
2.57421e-13
2.57448e-13
2.57469e-13
2.57477e-13
2.57458e-13
2.57388e-13
2.57214e-13
2.56835e-13
2.56335e-13
1.64307e-12
1.64791e-12
1.65068e-12
1.65202e-12
1.65263e-12
1.65289e-12
1.65297e-12
1.65297e-12
1.65292e-12
1.65286e-12
1.65278e-12
1.6527e-12
1.65261e-12
1.65252e-12
1.65244e-12
1.65235e-12
1.65227e-12
1.65219e-12
1.65211e-12
1.65205e-12
1.65198e-12
1.65193e-12
1.65188e-12
1.65183e-12
1.65179e-12
1.65176e-12
1.65174e-12
1.65172e-12
1.65171e-12
1.6517e-12
1.6517e-12
1.65171e-12
1.65172e-12
1.65174e-12
1.65176e-12
1.65179e-12
1.65183e-12
1.65188e-12
1.65193e-12
1.65198e-12
1.65205e-12
1.65211e-12
1.65219e-12
1.65227e-12
1.65235e-12
1.65244e-12
1.65252e-12
1.65261e-12
1.6527e-12
1.65278e-12
1.65286e-12
1.65292e-12
1.65297e-12
1.65297e-12
1.65289e-12
1.65263e-12
1.65202e-12
1.65068e-12
1.64791e-12
1.64307e-12
1.1368e-11
1.14113e-11
1.1434e-11
1.14454e-11
1.14509e-11
1.14535e-11
1.14547e-11
1.14553e-11
1.14556e-11
1.14557e-11
1.14557e-11
1.14558e-11
1.14558e-11
1.14557e-11
1.14557e-11
1.14557e-11
1.14556e-11
1.14556e-11
1.14556e-11
1.14555e-11
1.14555e-11
1.14555e-11
1.14555e-11
1.14554e-11
1.14554e-11
1.14554e-11
1.14554e-11
1.14554e-11
1.14554e-11
1.14554e-11
1.14554e-11
1.14554e-11
1.14554e-11
1.14554e-11
1.14554e-11
1.14554e-11
1.14554e-11
1.14555e-11
1.14555e-11
1.14555e-11
1.14555e-11
1.14556e-11
1.14556e-11
1.14556e-11
1.14557e-11
1.14557e-11
1.14557e-11
1.14558e-11
1.14558e-11
1.14557e-11
1.14557e-11
1.14556e-11
1.14553e-11
1.14547e-11
1.14535e-11
1.14509e-11
1.14454e-11
1.1434e-11
1.14113e-11
1.1368e-11
8.17e-11
8.20706e-11
8.22622e-11
8.23596e-11
8.24077e-11
8.24315e-11
8.24437e-11
8.24505e-11
8.24549e-11
8.24582e-11
8.24609e-11
8.24633e-11
8.24655e-11
8.24676e-11
8.24695e-11
8.24714e-11
8.24731e-11
8.24747e-11
8.24762e-11
8.24776e-11
8.24789e-11
8.24801e-11
8.24812e-11
8.24821e-11
8.24829e-11
8.24836e-11
8.24842e-11
8.24846e-11
8.24849e-11
8.2485e-11
8.2485e-11
8.24849e-11
8.24846e-11
8.24842e-11
8.24836e-11
8.24829e-11
8.24821e-11
8.24812e-11
8.24801e-11
8.24789e-11
8.24776e-11
8.24762e-11
8.24747e-11
8.24731e-11
8.24714e-11
8.24695e-11
8.24676e-11
8.24655e-11
8.24633e-11
8.24609e-11
8.24582e-11
8.24549e-11
8.24505e-11
8.24437e-11
8.24315e-11
8.24077e-11
8.23596e-11
8.22622e-11
8.20706e-11
8.17e-11
5.91881e-10
5.94928e-10
5.96517e-10
5.9733e-10
5.97735e-10
5.97937e-10
5.98043e-10
5.98105e-10
5.98146e-10
5.98179e-10
5.98206e-10
5.98232e-10
5.98255e-10
5.98278e-10
5.98299e-10
5.9832e-10
5.98339e-10
5.98357e-10
5.98374e-10
5.9839e-10
5.98405e-10
5.98418e-10
5.9843e-10
5.9844e-10
5.98449e-10
5.98457e-10
5.98463e-10
5.98467e-10
5.9847e-10
5.98472e-10
5.98472e-10
5.9847e-10
5.98467e-10
5.98463e-10
5.98457e-10
5.98449e-10
5.9844e-10
5.9843e-10
5.98418e-10
5.98405e-10
5.9839e-10
5.98374e-10
5.98357e-10
5.98339e-10
5.9832e-10
5.98299e-10
5.98278e-10
5.98255e-10
5.98232e-10
5.98206e-10
5.98179e-10
5.98146e-10
5.98105e-10
5.98043e-10
5.97937e-10
5.97735e-10
5.9733e-10
5.96517e-10
5.94928e-10
5.91881e-10
4.22462e-09
4.24851e-09
4.26113e-09
4.26761e-09
4.27083e-09
4.27245e-09
4.2733e-09
4.2738e-09
4.27413e-09
4.27439e-09
4.27462e-09
4.27482e-09
4.27502e-09
4.2752e-09
4.27538e-09
4.27554e-09
4.2757e-09
4.27585e-09
4.27599e-09
4.27612e-09
4.27624e-09
4.27634e-09
4.27644e-09
4.27653e-09
4.2766e-09
4.27666e-09
4.27671e-09
4.27675e-09
4.27677e-09
4.27678e-09
4.27678e-09
4.27677e-09
4.27675e-09
4.27671e-09
4.27666e-09
4.2766e-09
4.27653e-09
4.27644e-09
4.27634e-09
4.27624e-09
4.27612e-09
4.27599e-09
4.27585e-09
4.2757e-09
4.27554e-09
4.27538e-09
4.2752e-09
4.27502e-09
4.27482e-09
4.27462e-09
4.27439e-09
4.27413e-09
4.2738e-09
4.2733e-09
4.27245e-09
4.27083e-09
4.26761e-09
4.26113e-09
4.24851e-09
4.22462e-09
2.9153e-08
2.93297e-08
2.94242e-08
2.94727e-08
2.94968e-08
2.95089e-08
2.95153e-08
2.95189e-08
2.95214e-08
2.95233e-08
2.95249e-08
2.95264e-08
2.95278e-08
2.95291e-08
2.95304e-08
2.95316e-08
2.95327e-08
2.95338e-08
2.95348e-08
2.95357e-08
2.95365e-08
2.95373e-08
2.9538e-08
2.95386e-08
2.95391e-08
2.95396e-08
2.95399e-08
2.95402e-08
2.95403e-08
2.95404e-08
2.95404e-08
2.95403e-08
2.95402e-08
2.95399e-08
2.95396e-08
2.95391e-08
2.95386e-08
2.9538e-08
2.95373e-08
2.95365e-08
2.95357e-08
2.95348e-08
2.95338e-08
2.95327e-08
2.95316e-08
2.95304e-08
2.95291e-08
2.95278e-08
2.95264e-08
2.95249e-08
2.95233e-08
2.95214e-08
2.95189e-08
2.95153e-08
2.95089e-08
2.94968e-08
2.94727e-08
2.94242e-08
2.93297e-08
2.9153e-08
1.91203e-07
1.9242e-07
1.93076e-07
1.93413e-07
1.93581e-07
1.93664e-07
1.93708e-07
1.93733e-07
1.9375e-07
1.93762e-07
1.93773e-07
1.93783e-07
1.93792e-07
1.93801e-07
1.93809e-07
1.93816e-07
1.93824e-07
1.93831e-07
1.93837e-07
1.93843e-07
1.93849e-07
1.93854e-07
1.93858e-07
1.93862e-07
1.93865e-07
1.93868e-07
1.9387e-07
1.93872e-07
1.93873e-07
1.93874e-07
1.93874e-07
1.93873e-07
1.93872e-07
1.9387e-07
1.93868e-07
1.93865e-07
1.93862e-07
1.93858e-07
1.93854e-07
1.93849e-07
1.93843e-07
1.93837e-07
1.93831e-07
1.93824e-07
1.93816e-07
1.93809e-07
1.93801e-07
1.93792e-07
1.93783e-07
1.93773e-07
1.93762e-07
1.9375e-07
1.93733e-07
1.93708e-07
1.93664e-07
1.93581e-07
1.93413e-07
1.93076e-07
1.9242e-07
1.91203e-07
1.17236e-06
1.18005e-06
1.18422e-06
1.18636e-06
1.18742e-06
1.18795e-06
1.18822e-06
1.18838e-06
1.18848e-06
1.18856e-06
1.18863e-06
1.18868e-06
1.18874e-06
1.18879e-06
1.18884e-06
1.18888e-06
1.18893e-06
1.18897e-06
1.18901e-06
1.18904e-06
1.18907e-06
1.1891e-06
1.18913e-06
1.18915e-06
1.18917e-06
1.18919e-06
1.1892e-06
1.18921e-06
1.18922e-06
1.18922e-06
1.18922e-06
1.18922e-06
1.18921e-06
1.1892e-06
1.18919e-06
1.18917e-06
1.18915e-06
1.18913e-06
1.1891e-06
1.18907e-06
1.18904e-06
1.18901e-06
1.18897e-06
1.18893e-06
1.18888e-06
1.18884e-06
1.18879e-06
1.18874e-06
1.18868e-06
1.18863e-06
1.18856e-06
1.18848e-06
1.18838e-06
1.18822e-06
1.18795e-06
1.18742e-06
1.18636e-06
1.18422e-06
1.18005e-06
1.17236e-06
6.6111e-06
6.65494e-06
6.67879e-06
6.69102e-06
6.69709e-06
6.7001e-06
6.70166e-06
6.70255e-06
6.70311e-06
6.70354e-06
6.70389e-06
6.7042e-06
6.70449e-06
6.70476e-06
6.70502e-06
6.70527e-06
6.7055e-06
6.70572e-06
6.70593e-06
6.70611e-06
6.70629e-06
6.70644e-06
6.70658e-06
6.70671e-06
6.70681e-06
6.7069e-06
6.70697e-06
6.70703e-06
6.70706e-06
6.70708e-06
6.70708e-06
6.70706e-06
6.70703e-06
6.70697e-06
6.7069e-06
6.70681e-06
6.70671e-06
6.70658e-06
6.70644e-06
6.70629e-06
6.70611e-06
6.70593e-06
6.70572e-06
6.7055e-06
6.70527e-06
6.70502e-06
6.70476e-06
6.70449e-06
6.7042e-06
6.70389e-06
6.70354e-06
6.70311e-06
6.70255e-06
6.70166e-06
6.7001e-06
6.69709e-06
6.69102e-06
6.67879e-06
6.65494e-06
6.6111e-06
3.37263e-05
3.39482e-05
3.4069e-05
3.41309e-05
3.41616e-05
3.41768e-05
3.41847e-05
3.41891e-05
3.41919e-05
3.41939e-05
3.41956e-05
3.41971e-05
3.41985e-05
3.41998e-05
3.42011e-05
3.42023e-05
3.42034e-05
3.42044e-05
3.42054e-05
3.42063e-05
3.42071e-05
3.42078e-05
3.42085e-05
3.42091e-05
3.42096e-05
3.421e-05
3.42103e-05
3.42106e-05
3.42107e-05
3.42108e-05
3.42108e-05
3.42107e-05
3.42106e-05
3.42103e-05
3.421e-05
3.42096e-05
3.42091e-05
3.42085e-05
3.42078e-05
3.42071e-05
3.42063e-05
3.42054e-05
3.42044e-05
3.42034e-05
3.42023e-05
3.42011e-05
3.41998e-05
3.41985e-05
3.41971e-05
3.41956e-05
3.41939e-05
3.41919e-05
3.41891e-05
3.41847e-05
3.41768e-05
3.41616e-05
3.41309e-05
3.4069e-05
3.39482e-05
3.37263e-05
0.000153058
0.000154036
0.000154569
0.000154842
0.000154977
0.000155044
0.000155078
0.000155097
0.000155109
0.000155118
0.000155125
0.000155132
0.000155137
0.000155143
0.000155148
0.000155153
0.000155157
0.000155162
0.000155166
0.000155169
0.000155173
0.000155176
0.000155179
0.000155181
0.000155183
0.000155185
0.000155186
0.000155187
0.000155188
0.000155188
0.000155188
0.000155188
0.000155187
0.000155186
0.000155185
0.000155183
0.000155181
0.000155179
0.000155176
0.000155173
0.000155169
0.000155166
0.000155162
0.000155157
0.000155153
0.000155148
0.000155143
0.000155137
0.000155132
0.000155125
0.000155118
0.000155109
0.000155097
0.000155078
0.000155044
0.000154977
0.000154842
0.000154569
0.000154036
0.000153058
0.0006074
0.000611087
0.00061309
0.000614114
0.000614621
0.000614872
0.000615001
0.000615072
0.000615116
0.000615148
0.000615174
0.000615196
0.000615217
0.000615237
0.000615255
0.000615272
0.000615288
0.000615304
0.000615318
0.000615331
0.000615343
0.000615354
0.000615364
0.000615372
0.00061538
0.000615386
0.000615391
0.000615394
0.000615397
0.000615398
0.000615398
0.000615397
0.000615394
0.000615391
0.000615386
0.00061538
0.000615372
0.000615364
0.000615354
0.000615343
0.000615331
0.000615318
0.000615304
0.000615288
0.000615272
0.000615255
0.000615237
0.000615217
0.000615196
0.000615174
0.000615148
0.000615116
0.000615072
0.000615001
0.000614872
0.000614621
0.000614114
0.00061309
0.000611087
0.0006074
0.0020718
0.00208342
0.0020897
0.00209292
0.00209451
0.00209529
0.00209569
0.00209591
0.00209605
0.00209615
0.00209623
0.00209629
0.00209636
0.00209641
0.00209647
0.00209652
0.00209657
0.00209661
0.00209666
0.0020967
0.00209673
0.00209676
0.00209679
0.00209682
0.00209684
0.00209686
0.00209687
0.00209688
0.00209689
0.00209689
0.00209689
0.00209689
0.00209688
0.00209687
0.00209686
0.00209684
0.00209682
0.00209679
0.00209676
0.00209673
0.0020967
0.00209666
0.00209661
0.00209657
0.00209652
0.00209647
0.00209641
0.00209636
0.00209629
0.00209623
0.00209615
0.00209605
0.00209591
0.00209569
0.00209529
0.00209451
0.00209292
0.0020897
0.00208342
0.0020718
0.00597998
0.00600994
0.0060261
0.00603435
0.00603843
0.00604045
0.00604147
0.00604203
0.00604238
0.00604262
0.00604282
0.00604298
0.00604314
0.00604328
0.00604341
0.00604354
0.00604365
0.00604376
0.00604387
0.00604396
0.00604405
0.00604413
0.0060442
0.00604426
0.00604431
0.00604436
0.00604439
0.00604442
0.00604444
0.00604445
0.00604445
0.00604444
0.00604442
0.00604439
0.00604436
0.00604431
0.00604426
0.0060442
0.00604413
0.00604405
0.00604396
0.00604387
0.00604376
0.00604365
0.00604354
0.00604341
0.00604328
0.00604314
0.00604298
0.00604282
0.00604262
0.00604238
0.00604203
0.00604147
0.00604045
0.00603843
0.00603435
0.0060261
0.00600994
0.00597998
0.0144589
0.0145214
0.0145549
0.014572
0.0145805
0.0145847
0.0145868
0.0145879
0.0145886
0.0145891
0.0145895
0.0145899
0.0145902
0.0145904
0.0145907
0.0145909
0.0145912
0.0145914
0.0145916
0.0145918
0.014592
0.0145921
0.0145922
0.0145924
0.0145925
0.0145926
0.0145926
0.0145927
0.0145927
0.0145927
0.0145927
0.0145927
0.0145927
0.0145926
0.0145926
0.0145925
0.0145924
0.0145922
0.0145921
0.014592
0.0145918
0.0145916
0.0145914
0.0145912
0.0145909
0.0145907
0.0145904
0.0145902
0.0145899
0.0145895
0.0145891
0.0145886
0.0145879
0.0145868
0.0145847
0.0145805
0.014572
0.0145549
0.0145214
0.0144589
0.0293086
0.0294144
0.0294709
0.0294997
0.029514
0.029521
0.0295246
0.0295265
0.0295277
0.0295285
0.0295291
0.0295297
0.0295301
0.0295306
0.029531
0.0295314
0.0295318
0.0295321
0.0295324
0.0295327
0.029533
0.0295332
0.0295335
0.0295337
0.0295338
0.029534
0.0295341
0.0295342
0.0295342
0.0295342
0.0295342
0.0295342
0.0295342
0.0295341
0.029534
0.0295338
0.0295337
0.0295335
0.0295332
0.029533
0.0295327
0.0295324
0.0295321
0.0295318
0.0295314
0.029531
0.0295306
0.0295301
0.0295297
0.0295291
0.0295285
0.0295277
0.0295265
0.0295246
0.029521
0.029514
0.0294997
0.0294709
0.0294144
0.0293086
0.0505736
0.0507231
0.0508025
0.0508429
0.050863
0.0508729
0.0508779
0.0508806
0.0508823
0.0508834
0.0508842
0.0508849
0.0508856
0.0508862
0.0508867
0.0508873
0.0508877
0.0508882
0.0508886
0.050889
0.0508894
0.0508897
0.05089
0.0508902
0.0508904
0.0508906
0.0508908
0.0508909
0.050891
0.050891
0.050891
0.050891
0.0508909
0.0508908
0.0508906
0.0508904
0.0508902
0.05089
0.0508897
0.0508894
0.050889
0.0508886
0.0508882
0.0508877
0.0508873
0.0508867
0.0508862
0.0508856
0.0508849
0.0508842
0.0508834
0.0508823
0.0508806
0.0508779
0.0508729
0.050863
0.0508429
0.0508025
0.0507231
0.0505736
0.0763731
0.0765577
0.0766553
0.0767051
0.0767299
0.0767421
0.0767483
0.0767516
0.0767536
0.0767549
0.0767559
0.0767567
0.0767575
0.0767582
0.0767588
0.0767594
0.07676
0.0767605
0.076761
0.0767614
0.0767618
0.0767622
0.0767625
0.0767628
0.0767631
0.0767633
0.0767634
0.0767636
0.0767637
0.0767637
0.0767637
0.0767637
0.0767636
0.0767634
0.0767633
0.0767631
0.0767628
0.0767625
0.0767622
0.0767618
0.0767614
0.076761
0.0767605
0.07676
0.0767594
0.0767588
0.0767582
0.0767575
0.0767567
0.0767559
0.0767549
0.0767536
0.0767516
0.0767483
0.0767421
0.0767299
0.0767051
0.0766553
0.0765577
0.0763731
0.104282
0.104492
0.104603
0.104659
0.104687
0.104701
0.104708
0.104712
0.104714
0.104716
0.104717
0.104718
0.104718
0.104719
0.10472
0.104721
0.104721
0.104722
0.104722
0.104723
0.104723
0.104723
0.104724
0.104724
0.104724
0.104725
0.104725
0.104725
0.104725
0.104725
0.104725
0.104725
0.104725
0.104725
0.104725
0.104724
0.104724
0.104724
0.104723
0.104723
0.104723
0.104722
0.104722
0.104721
0.104721
0.10472
0.104719
0.104718
0.104718
0.104717
0.104716
0.104714
0.104712
0.104708
0.104701
0.104687
0.104659
0.104603
0.104492
0.104282
0.132618
0.132847
0.132968
0.13303
0.13306
0.133076
0.133084
0.133088
0.13309
0.133092
0.133093
0.133094
0.133095
0.133095
0.133096
0.133097
0.133097
0.133098
0.133098
0.133099
0.133099
0.1331
0.1331
0.1331
0.133101
0.133101
0.133101
0.133101
0.133101
0.133101
0.133101
0.133101
0.133101
0.133101
0.133101
0.133101
0.1331
0.1331
0.1331
0.133099
0.133099
0.133098
0.133098
0.133097
0.133097
0.133096
0.133095
0.133095
0.133094
0.133093
0.133092
0.13309
0.133088
0.133084
0.133076
0.13306
0.13303
0.132968
0.132847
0.132618
0.160652
0.160898
0.161028
0.161094
0.161128
0.161144
0.161153
0.161157
0.16116
0.161161
0.161162
0.161163
0.161164
0.161165
0.161166
0.161166
0.161167
0.161168
0.161168
0.161168
0.161169
0.161169
0.16117
0.16117
0.16117
0.16117
0.161171
0.161171
0.161171
0.161171
0.161171
0.161171
0.161171
0.161171
0.16117
0.16117
0.16117
0.16117
0.161169
0.161169
0.161168
0.161168
0.161168
0.161167
0.161166
0.161166
0.161165
0.161164
0.161163
0.161162
0.161161
0.16116
0.161157
0.161153
0.161144
0.161128
0.161094
0.161028
0.160898
0.160652
0.188212
0.188474
0.188612
0.188683
0.188719
0.188737
0.188746
0.188751
0.188754
0.188755
0.188757
0.188758
0.188758
0.188759
0.18876
0.188761
0.188761
0.188762
0.188762
0.188763
0.188763
0.188764
0.188764
0.188764
0.188764
0.188765
0.188765
0.188765
0.188765
0.188765
0.188765
0.188765
0.188765
0.188765
0.188765
0.188764
0.188764
0.188764
0.188764
0.188763
0.188763
0.188762
0.188762
0.188761
0.188761
0.18876
0.188759
0.188758
0.188758
0.188757
0.188755
0.188754
0.188751
0.188746
0.188737
0.188719
0.188683
0.188612
0.188474
0.188212
0.215315
0.215591
0.215738
0.215814
0.215852
0.215871
0.215881
0.215886
0.215889
0.215891
0.215892
0.215893
0.215894
0.215895
0.215896
0.215896
0.215897
0.215898
0.215898
0.215899
0.215899
0.215899
0.2159
0.2159
0.2159
0.215901
0.215901
0.215901
0.215901
0.215901
0.215901
0.215901
0.215901
0.215901
0.215901
0.2159
0.2159
0.2159
0.215899
0.215899
0.215899
0.215898
0.215898
0.215897
0.215896
0.215896
0.215895
0.215894
0.215893
0.215892
0.215891
0.215889
0.215886
0.215881
0.215871
0.215852
0.215814
0.215738
0.215591
0.215315
0.241997
0.242287
0.242442
0.242523
0.242564
0.242585
0.242595
0.242601
0.242604
0.242606
0.242607
0.242608
0.242609
0.24261
0.242611
0.242611
0.242612
0.242612
0.242613
0.242613
0.242614
0.242614
0.242615
0.242615
0.242615
0.242615
0.242616
0.242616
0.242616
0.242616
0.242616
0.242616
0.242616
0.242616
0.242615
0.242615
0.242615
0.242615
0.242614
0.242614
0.242613
0.242613
0.242612
0.242612
0.242611
0.242611
0.24261
0.242609
0.242608
0.242607
0.242606
0.242604
0.242601
0.242595
0.242585
0.242564
0.242523
0.242442
0.242287
0.241997
0.268276
0.268579
0.268742
0.268827
0.268871
0.268893
0.268904
0.26891
0.268914
0.268916
0.268917
0.268918
0.268919
0.26892
0.268921
0.268921
0.268922
0.268922
0.268923
0.268923
0.268924
0.268924
0.268925
0.268925
0.268925
0.268925
0.268926
0.268926
0.268926
0.268926
0.268926
0.268926
0.268926
0.268926
0.268925
0.268925
0.268925
0.268925
0.268924
0.268924
0.268923
0.268923
0.268922
0.268922
0.268921
0.268921
0.26892
0.268919
0.268918
0.268917
0.268916
0.268914
0.26891
0.268904
0.268893
0.268871
0.268827
0.268742
0.268579
0.268276
0.294148
0.294463
0.294634
0.294724
0.29477
0.294794
0.294806
0.294813
0.294816
0.294819
0.29482
0.294821
0.294822
0.294823
0.294823
0.294824
0.294825
0.294825
0.294826
0.294826
0.294827
0.294827
0.294827
0.294828
0.294828
0.294828
0.294828
0.294828
0.294828
0.294828
0.294828
0.294828
0.294828
0.294828
0.294828
0.294828
0.294828
0.294827
0.294827
0.294827
0.294826
0.294826
0.294825
0.294825
0.294824
0.294823
0.294823
0.294822
0.294821
0.29482
0.294819
0.294816
0.294813
0.294806
0.294794
0.29477
0.294724
0.294634
0.294463
0.294148
0.319602
0.319928
0.320106
0.320201
0.32025
0.320275
0.320288
0.320295
0.320299
0.320301
0.320303
0.320304
0.320305
0.320305
0.320306
0.320307
0.320307
0.320308
0.320308
0.320309
0.320309
0.32031
0.32031
0.32031
0.32031
0.320311
0.320311
0.320311
0.320311
0.320311
0.320311
0.320311
0.320311
0.320311
0.320311
0.32031
0.32031
0.32031
0.32031
0.320309
0.320309
0.320308
0.320308
0.320307
0.320307
0.320306
0.320305
0.320305
0.320304
0.320303
0.320301
0.320299
0.320295
0.320288
0.320275
0.32025
0.320201
0.320106
0.319928
0.319602
0.34462
0.344955
0.345141
0.34524
0.345292
0.345319
0.345333
0.34534
0.345344
0.345347
0.345348
0.345349
0.34535
0.345351
0.345352
0.345352
0.345353
0.345353
0.345354
0.345354
0.345355
0.345355
0.345355
0.345356
0.345356
0.345356
0.345356
0.345356
0.345357
0.345357
0.345357
0.345357
0.345356
0.345356
0.345356
0.345356
0.345356
0.345355
0.345355
0.345355
0.345354
0.345354
0.345353
0.345353
0.345352
0.345352
0.345351
0.34535
0.345349
0.345348
0.345347
0.345344
0.34534
0.345333
0.345319
0.345292
0.34524
0.345141
0.344955
0.34462
0.369184
0.369528
0.36972
0.369824
0.369879
0.369907
0.369922
0.36993
0.369934
0.369937
0.369938
0.36994
0.36994
0.369941
0.369942
0.369942
0.369943
0.369944
0.369944
0.369944
0.369945
0.369945
0.369945
0.369946
0.369946
0.369946
0.369946
0.369946
0.369947
0.369947
0.369947
0.369947
0.369946
0.369946
0.369946
0.369946
0.369946
0.369945
0.369945
0.369945
0.369944
0.369944
0.369944
0.369943
0.369942
0.369942
0.369941
0.36994
0.36994
0.369938
0.369937
0.369934
0.36993
0.369922
0.369907
0.369879
0.369824
0.36972
0.369528
0.369184
0.393276
0.393627
0.393826
0.393934
0.393992
0.394022
0.394037
0.394046
0.394051
0.394053
0.394055
0.394056
0.394057
0.394058
0.394059
0.394059
0.39406
0.39406
0.394061
0.394061
0.394061
0.394062
0.394062
0.394062
0.394063
0.394063
0.394063
0.394063
0.394063
0.394063
0.394063
0.394063
0.394063
0.394063
0.394063
0.394063
0.394062
0.394062
0.394062
0.394061
0.394061
0.394061
0.39406
0.39406
0.394059
0.394059
0.394058
0.394057
0.394056
0.394055
0.394053
0.394051
0.394046
0.394037
0.394022
0.393992
0.393934
0.393826
0.393627
0.393276
0.416879
0.417237
0.417441
0.417554
0.417614
0.417646
0.417663
0.417672
0.417677
0.41768
0.417681
0.417683
0.417684
0.417684
0.417685
0.417686
0.417686
0.417687
0.417687
0.417687
0.417688
0.417688
0.417688
0.417689
0.417689
0.417689
0.417689
0.417689
0.417689
0.417689
0.417689
0.417689
0.417689
0.417689
0.417689
0.417689
0.417689
0.417688
0.417688
0.417688
0.417687
0.417687
0.417687
0.417686
0.417686
0.417685
0.417684
0.417684
0.417683
0.417681
0.41768
0.417677
0.417672
0.417663
0.417646
0.417614
0.417554
0.417441
0.417237
0.416879
0.439978
0.440341
0.440551
0.440668
0.440731
0.440764
0.440782
0.440792
0.440797
0.4408
0.440802
0.440803
0.440804
0.440805
0.440806
0.440806
0.440807
0.440807
0.440808
0.440808
0.440808
0.440809
0.440809
0.440809
0.440809
0.44081
0.44081
0.44081
0.44081
0.44081
0.44081
0.44081
0.44081
0.44081
0.44081
0.440809
0.440809
0.440809
0.440809
0.440808
0.440808
0.440808
0.440807
0.440807
0.440806
0.440806
0.440805
0.440804
0.440803
0.440802
0.4408
0.440797
0.440792
0.440782
0.440764
0.440731
0.440668
0.440551
0.440341
0.439978
0.462559
0.462926
0.463142
0.463262
0.463328
0.463363
0.463382
0.463392
0.463398
0.463401
0.463403
0.463404
0.463405
0.463406
0.463407
0.463407
0.463408
0.463408
0.463409
0.463409
0.463409
0.46341
0.46341
0.46341
0.46341
0.46341
0.463411
0.463411
0.463411
0.463411
0.463411
0.463411
0.463411
0.463411
0.46341
0.46341
0.46341
0.46341
0.46341
0.463409
0.463409
0.463409
0.463408
0.463408
0.463407
0.463407
0.463406
0.463405
0.463404
0.463403
0.463401
0.463398
0.463392
0.463382
0.463363
0.463328
0.463262
0.463142
0.462926
0.462559
0.484609
0.484981
0.4852
0.485325
0.485393
0.48543
0.48545
0.485461
0.485467
0.48547
0.485473
0.485474
0.485475
0.485476
0.485476
0.485477
0.485477
0.485478
0.485478
0.485478
0.485479
0.485479
0.485479
0.485479
0.48548
0.48548
0.48548
0.48548
0.48548
0.48548
0.48548
0.48548
0.48548
0.48548
0.48548
0.48548
0.485479
0.485479
0.485479
0.485479
0.485478
0.485478
0.485478
0.485477
0.485477
0.485476
0.485476
0.485475
0.485474
0.485473
0.48547
0.485467
0.485461
0.48545
0.48543
0.485393
0.485325
0.4852
0.484981
0.484609
0.50612
0.506493
0.506717
0.506845
0.506916
0.506955
0.506976
0.506988
0.506994
0.506998
0.507
0.507001
0.507002
0.507003
0.507004
0.507004
0.507005
0.507005
0.507005
0.507006
0.507006
0.507006
0.507007
0.507007
0.507007
0.507007
0.507007
0.507007
0.507007
0.507007
0.507007
0.507007
0.507007
0.507007
0.507007
0.507007
0.507007
0.507007
0.507006
0.507006
0.507006
0.507005
0.507005
0.507005
0.507004
0.507004
0.507003
0.507002
0.507001
0.507
0.506998
0.506994
0.506988
0.506976
0.506955
0.506916
0.506845
0.506717
0.506493
0.50612
0.527081
0.527456
0.527684
0.527815
0.527889
0.52793
0.527952
0.527964
0.527971
0.527975
0.527977
0.527978
0.527979
0.52798
0.527981
0.527981
0.527982
0.527982
0.527982
0.527983
0.527983
0.527983
0.527983
0.527984
0.527984
0.527984
0.527984
0.527984
0.527984
0.527984
0.527984
0.527984
0.527984
0.527984
0.527984
0.527984
0.527984
0.527983
0.527983
0.527983
0.527983
0.527982
0.527982
0.527982
0.527981
0.527981
0.52798
0.527979
0.527978
0.527977
0.527975
0.527971
0.527964
0.527952
0.52793
0.527889
0.527815
0.527684
0.527456
0.527081
0.547486
0.547862
0.548093
0.548228
0.548304
0.548346
0.54837
0.548383
0.54839
0.548394
0.548396
0.548398
0.548399
0.5484
0.5484
0.548401
0.548401
0.548401
0.548402
0.548402
0.548402
0.548403
0.548403
0.548403
0.548403
0.548403
0.548403
0.548403
0.548404
0.548404
0.548404
0.548404
0.548403
0.548403
0.548403
0.548403
0.548403
0.548403
0.548403
0.548402
0.548402
0.548402
0.548401
0.548401
0.548401
0.5484
0.5484
0.548399
0.548398
0.548396
0.548394
0.54839
0.548383
0.54837
0.548346
0.548304
0.548228
0.548093
0.547862
0.547486
0.56733
0.567707
0.56794
0.568078
0.568156
0.5682
0.568225
0.568239
0.568246
0.568251
0.568253
0.568255
0.568256
0.568257
0.568257
0.568258
0.568258
0.568258
0.568259
0.568259
0.568259
0.568259
0.568259
0.56826
0.56826
0.56826
0.56826
0.56826
0.56826
0.56826
0.56826
0.56826
0.56826
0.56826
0.56826
0.56826
0.56826
0.568259
0.568259
0.568259
0.568259
0.568259
0.568258
0.568258
0.568258
0.568257
0.568257
0.568256
0.568255
0.568253
0.568251
0.568246
0.568239
0.568225
0.5682
0.568156
0.568078
0.56794
0.567707
0.56733
0.586609
0.586985
0.58722
0.587361
0.587442
0.587488
0.587514
0.587528
0.587536
0.587541
0.587544
0.587545
0.587546
0.587547
0.587548
0.587548
0.587548
0.587549
0.587549
0.587549
0.587549
0.58755
0.58755
0.58755
0.58755
0.58755
0.58755
0.58755
0.58755
0.58755
0.58755
0.58755
0.58755
0.58755
0.58755
0.58755
0.58755
0.58755
0.58755
0.587549
0.587549
0.587549
0.587549
0.587548
0.587548
0.587548
0.587547
0.587546
0.587545
0.587544
0.587541
0.587536
0.587528
0.587514
0.587488
0.587442
0.587361
0.58722
0.586985
0.586609
0.605322
0.605696
0.605933
0.606076