/*--------------------------------*- C++ -*----------------------------------*\
| =========                 |                                                 |
| \\      /  F ield         | foam-extend: Open Source CFD                    |
|  \\    /   O peration     | Version:     4.0                                |
|   \\  /    A nd           | Web:         http://www.foam-extend.org         |
|    \\/     M anipulation  |                                                 |
\*---------------------------------------------------------------------------*/
FoamFile
{
    version     2.0;
    format      ascii;
    class       volVectorField;
    location    "29";
    object      U;
}
// * * * * * * * * * * * * * * * * * * * * * * * * * * * * * * * * * * * * * //

dimensions      [0 1 -1 0 0 0 0];

internalField   nonuniform List<vector> 
6960
(
(0.000143476 -208.97 0)
(0.000394272 -208.963 0)
(0.000560874 -208.963 0)
(0.000638519 -208.964 0)
(0.000643343 -208.964 0)
(0.000594885 -208.964 0)
(0.000513308 -208.964 0)
(0.000415609 -208.964 0)
(0.000314222 -208.965 0)
(0.000217283 -208.965 0)
(0.000129487 -208.965 0)
(5.30909e-05 -208.965 0)
(-1.12406e-05 -208.965 0)
(-6.37866e-05 -208.965 0)
(-0.000105332 -208.965 0)
(-0.000136885 -208.965 0)
(-0.000159515 -208.965 0)
(-0.000174258 -208.964 0)
(-0.000182084 -208.964 0)
(-0.000183872 -208.964 0)
(-0.000180417 -208.964 0)
(-0.000172435 -208.964 0)
(-0.000160571 -208.964 0)
(-0.000145409 -208.964 0)
(-0.000127484 -208.964 0)
(-0.000107287 -208.964 0)
(-8.52769e-05 -208.964 0)
(-6.18833e-05 -208.964 0)
(-3.75163e-05 -208.964 0)
(-1.2571e-05 -208.964 0)
(1.25662e-05 -208.964 0)
(3.75117e-05 -208.964 0)
(6.18788e-05 -208.964 0)
(8.52727e-05 -208.964 0)
(0.000107283 -208.964 0)
(0.000127481 -208.964 0)
(0.000145406 -208.964 0)
(0.000160569 -208.964 0)
(0.000172434 -208.964 0)
(0.000180416 -208.964 0)
(0.000183871 -208.964 0)
(0.000182084 -208.964 0)
(0.000174259 -208.964 0)
(0.000159517 -208.965 0)
(0.000136888 -208.965 0)
(0.000105336 -208.965 0)
(6.37907e-05 -208.965 0)
(1.12453e-05 -208.965 0)
(-5.30856e-05 -208.965 0)
(-0.000129481 -208.965 0)
(-0.000217276 -208.965 0)
(-0.000314215 -208.965 0)
(-0.000415603 -208.964 0)
(-0.000513301 -208.964 0)
(-0.000594879 -208.964 0)
(-0.000643338 -208.964 0)
(-0.000638514 -208.964 0)
(-0.00056087 -208.963 0)
(-0.00039427 -208.963 0)
(-0.000143475 -208.97 0)
(0.000627525 14.5501 0)
(0.00136787 14.5563 0)
(0.00165635 14.5563 0)
(0.00188694 14.5563 0)
(0.00190246 14.5563 0)
(0.00176028 14.5563 0)
(0.00151987 14.5563 0)
(0.00123143 14.5563 0)
(0.000931736 14.5563 0)
(0.00064494 14.5563 0)
(0.000385003 14.5563 0)
(0.000158677 14.5563 0)
(-3.20147e-05 14.5563 0)
(-0.000187853 14.5563 0)
(-0.000311131 14.5563 0)
(-0.000404811 14.5563 0)
(-0.000472044 14.5563 0)
(-0.000515895 14.5563 0)
(-0.000539226 14.5563 0)
(-0.000544646 14.5563 0)
(-0.000534508 14.5563 0)
(-0.000510932 14.5563 0)
(-0.00047583 14.5563 0)
(-0.000430939 14.5563 0)
(-0.000377842 14.5563 0)
(-0.000318 14.5563 0)
(-0.000252772 14.5563 0)
(-0.000183436 14.5563 0)
(-0.000111209 14.5563 0)
(-3.72642e-05 14.5563 0)
(3.72502e-05 14.5563 0)
(0.000111195 14.5563 0)
(0.000183423 14.5563 0)
(0.000252759 14.5563 0)
(0.000317988 14.5563 0)
(0.000377831 14.5563 0)
(0.00043093 14.5563 0)
(0.000475823 14.5563 0)
(0.000510926 14.5563 0)
(0.000534504 14.5563 0)
(0.000544645 14.5563 0)
(0.000539227 14.5563 0)
(0.000515898 14.5563 0)
(0.000472049 14.5563 0)
(0.000404819 14.5563 0)
(0.000311141 14.5563 0)
(0.000187866 14.5563 0)
(3.20288e-05 14.5563 0)
(-0.000158662 14.5563 0)
(-0.000384986 14.5563 0)
(-0.000644921 14.5563 0)
(-0.000931717 14.5563 0)
(-0.00123141 14.5563 0)
(-0.00151985 14.5563 0)
(-0.00176027 14.5563 0)
(-0.00190244 14.5563 0)
(-0.00188693 14.5563 0)
(-0.00165634 14.5563 0)
(-0.00136786 14.5563 0)
(-0.000627522 14.5501 0)
(0.000868847 37.9641 0)
(0.00207981 37.9607 0)
(0.00271083 37.9607 0)
(0.00309098 37.9608 0)
(0.00311884 37.9608 0)
(0.00288801 37.9609 0)
(0.00249554 37.9609 0)
(0.00202361 37.9609 0)
(0.00153259 37.961 0)
(0.00106217 37.961 0)
(0.000635427 37.961 0)
(0.000263567 37.961 0)
(-4.99669e-05 37.961 0)
(-0.000306365 37.961 0)
(-0.000509323 37.961 0)
(-0.000663663 37.9609 0)
(-0.000774527 37.9609 0)
(-0.000846936 37.9609 0)
(-0.000885579 37.9609 0)
(-0.000894737 37.9609 0)
(-0.000878278 37.9609 0)
(-0.000839687 37.9609 0)
(-0.00078211 37.9609 0)
(-0.000708403 37.9609 0)
(-0.000621175 37.9609 0)
(-0.000522831 37.9609 0)
(-0.000415611 37.9608 0)
(-0.00030162 37.9608 0)
(-0.000182863 37.9608 0)
(-6.12751e-05 37.9608 0)
(6.1252e-05 37.9608 0)
(0.00018284 37.9608 0)
(0.000301598 37.9608 0)
(0.00041559 37.9608 0)
(0.000522812 37.9609 0)
(0.000621158 37.9609 0)
(0.000708388 37.9609 0)
(0.000782098 37.9609 0)
(0.000839678 37.9609 0)
(0.000878273 37.9609 0)
(0.000894735 37.9609 0)
(0.000885581 37.9609 0)
(0.000846941 37.9609 0)
(0.000774536 37.9609 0)
(0.000663676 37.9609 0)
(0.00050934 37.961 0)
(0.000306385 37.961 0)
(4.999e-05 37.961 0)
(-0.000263541 37.961 0)
(-0.000635399 37.961 0)
(-0.00106214 37.961 0)
(-0.00153256 37.961 0)
(-0.00202358 37.9609 0)
(-0.00249551 37.9609 0)
(-0.00288798 37.9609 0)
(-0.00311882 37.9608 0)
(-0.00309096 37.9608 0)
(-0.00271082 37.9607 0)
(-0.0020798 37.9607 0)
(-0.000868843 37.9641 0)
(0.00103111 8.90882 0)
(0.00268713 8.90537 0)
(0.00370949 8.90541 0)
(0.00423394 8.90545 0)
(0.004276 8.90549 0)
(0.00396311 8.90552 0)
(0.0034277 8.90555 0)
(0.00278222 8.90556 0)
(0.00210949 8.90557 0)
(0.00146415 8.90558 0)
(0.000878092 8.90558 0)
(0.000366935 8.90557 0)
(-6.44092e-05 8.90557 0)
(-0.000417424 8.90556 0)
(-0.000697079 8.90556 0)
(-0.000909921 8.90555 0)
(-0.00106297 8.90554 0)
(-0.00116309 8.90554 0)
(-0.00121671 8.90553 0)
(-0.00122971 8.90552 0)
(-0.00120741 8.90551 0)
(-0.0011546 8.90551 0)
(-0.00107561 8.9055 0)
(-0.000974374 8.9055 0)
(-0.000854488 8.90549 0)
(-0.000719267 8.90549 0)
(-0.000571799 8.90549 0)
(-0.000414989 8.90549 0)
(-0.000251603 8.90548 0)
(-8.43103e-05 8.90548 0)
(8.42785e-05 8.90548 0)
(0.000251572 8.90548 0)
(0.000414959 8.90549 0)
(0.00057177 8.90549 0)
(0.000719241 8.90549 0)
(0.000854464 8.90549 0)
(0.000974354 8.9055 0)
(0.00107559 8.9055 0)
(0.00115459 8.90551 0)
(0.00120741 8.90551 0)
(0.00122971 8.90552 0)
(0.00121671 8.90553 0)
(0.0011631 8.90554 0)
(0.00106298 8.90554 0)
(0.000909939 8.90555 0)
(0.000697102 8.90556 0)
(0.000417452 8.90556 0)
(6.44411e-05 8.90557 0)
(-0.000366899 8.90557 0)
(-0.000878053 8.90558 0)
(-0.00146411 8.90558 0)
(-0.00210944 8.90557 0)
(-0.00278218 8.90556 0)
(-0.00342766 8.90555 0)
(-0.00396307 8.90552 0)
(-0.00427597 8.90549 0)
(-0.00423391 8.90545 0)
(-0.00370946 8.90541 0)
(-0.00268711 8.90537 0)
(-0.00103111 8.90882 0)
(0.00124058 -1.55205 0)
(0.00331324 -1.55246 0)
(0.00464583 -1.5524 0)
(0.00530836 -1.55235 0)
(0.00536654 -1.5523 0)
(0.00497885 -1.55227 0)
(0.00431065 -1.55225 0)
(0.00350272 -1.55224 0)
(0.00265909 -1.55224 0)
(0.00184865 -1.55224 0)
(0.00111176 -1.55224 0)
(0.00046838 -1.55225 0)
(-7.50517e-05 -1.55226 0)
(-0.000520189 -1.55226 0)
(-0.000873129 -1.55227 0)
(-0.001142 -1.55228 0)
(-0.00133556 -1.55229 0)
(-0.00146241 -1.55229 0)
(-0.00153062 -1.5523 0)
(-0.00154757 -1.5523 0)
(-0.00151995 -1.55231 0)
(-0.00145381 -1.55231 0)
(-0.00135461 -1.55232 0)
(-0.0012273 -1.55232 0)
(-0.00107642 -1.55232 0)
(-0.000906164 -1.55233 0)
(-0.00072043 -1.55233 0)
(-0.000522887 -1.55233 0)
(-0.000317031 -1.55233 0)
(-0.000106237 -1.55233 0)
(0.000106197 -1.55233 0)
(0.000316992 -1.55233 0)
(0.000522849 -1.55233 0)
(0.000720394 -1.55233 0)
(0.000906131 -1.55233 0)
(0.00107639 -1.55232 0)
(0.00122727 -1.55232 0)
(0.00135459 -1.55232 0)
(0.0014538 -1.55231 0)
(0.00151994 -1.55231 0)
(0.00154756 -1.5523 0)
(0.00153062 -1.5523 0)
(0.00146242 -1.55229 0)
(0.00133557 -1.55229 0)
(0.00114202 -1.55228 0)
(0.000873157 -1.55227 0)
(0.000520223 -1.55226 0)
(7.50918e-05 -1.55226 0)
(-0.000468334 -1.55225 0)
(-0.00111171 -1.55224 0)
(-0.00184859 -1.55224 0)
(-0.00265903 -1.55224 0)
(-0.00350267 -1.55224 0)
(-0.0043106 -1.55225 0)
(-0.0049788 -1.55227 0)
(-0.00536649 -1.5523 0)
(-0.00530833 -1.55235 0)
(-0.0046458 -1.5524 0)
(-0.00331322 -1.55246 0)
(-0.00124058 -1.55205 0)
(0.00146588 -0.952758 0)
(0.00392477 -0.952214 0)
(0.00551546 -0.952133 0)
(0.00630929 -0.952063 0)
(0.00638545 -0.952 0)
(0.00593067 -0.951956 0)
(0.00514049 -0.95193 0)
(0.00418201 -0.951917 0)
(0.0031791 -0.951916 0)
(0.00221412 -0.95192 0)
(0.00133556 -0.951929 0)
(0.000567605 -0.95194 0)
(-8.17137e-05 -0.951951 0)
(-0.000614096 -0.951962 0)
(-0.00103661 -0.951972 0)
(-0.00135882 -0.951982 0)
(-0.00159106 -0.951991 0)
(-0.00174357 -0.951999 0)
(-0.00182592 -0.952006 0)
(-0.00184692 -0.952012 0)
(-0.00181456 -0.952018 0)
(-0.00173605 -0.952022 0)
(-0.00161792 -0.952027 0)
(-0.0014661 -0.95203 0)
(-0.00128604 -0.952033 0)
(-0.00108274 -0.952036 0)
(-0.000860882 -0.952038 0)
(-0.000624863 -0.95204 0)
(-0.000378874 -0.95204 0)
(-0.000126962 -0.952041 0)
(0.000126915 -0.952041 0)
(0.000378827 -0.95204 0)
(0.000624817 -0.95204 0)
(0.000860839 -0.952038 0)
(0.0010827 -0.952036 0)
(0.001286 -0.952033 0)
(0.00146607 -0.95203 0)
(0.00161789 -0.952027 0)
(0.00173603 -0.952022 0)
(0.00181455 -0.952018 0)
(0.00184692 -0.952012 0)
(0.00182592 -0.952006 0)
(0.00174358 -0.951999 0)
(0.00159108 -0.951991 0)
(0.00135884 -0.951982 0)
(0.00103665 -0.951972 0)
(0.000614138 -0.951962 0)
(8.17616e-05 -0.951951 0)
(-0.000567551 -0.95194 0)
(-0.0013355 -0.951929 0)
(-0.00221405 -0.95192 0)
(-0.00317903 -0.951916 0)
(-0.00418195 -0.951917 0)
(-0.00514043 -0.95193 0)
(-0.00593061 -0.951956 0)
(-0.00638539 -0.952 0)
(-0.00630924 -0.952063 0)
(-0.00551543 -0.952133 0)
(-0.00392475 -0.952214 0)
(-0.00146587 -0.952758 0)
(0.0016687 0.12842 0)
(0.00448172 0.128697 0)
(0.00631459 0.128808 0)
(0.00723242 0.128905 0)
(0.00732843 0.12899 0)
(0.00681459 0.129049 0)
(0.00591383 0.129084 0)
(0.00481738 0.129099 0)
(0.0036675 0.1291 0)
(0.0025592 0.129092 0)
(0.00154871 0.129079 0)
(0.00066434 0.129064 0)
(-8.42498e-05 0.129048 0)
(-0.000698667 0.129033 0)
(-0.00118679 0.129019 0)
(-0.00155944 0.129006 0)
(-0.00182842 0.128995 0)
(-0.00200541 0.128984 0)
(-0.00210143 0.128975 0)
(-0.00212658 0.128967 0)
(-0.00209006 0.12896 0)
(-0.0020002 0.128954 0)
(-0.00186451 0.128949 0)
(-0.00168986 0.128944 0)
(-0.00148253 0.12894 0)
(-0.00124831 0.128937 0)
(-0.000992614 0.128935 0)
(-0.000720525 0.128933 0)
(-0.000436895 0.128932 0)
(-0.000146408 0.128931 0)
(0.000146353 0.128931 0)
(0.000436841 0.128932 0)
(0.000720472 0.128933 0)
(0.000992565 0.128935 0)
(0.00124827 0.128937 0)
(0.00148249 0.12894 0)
(0.00168983 0.128944 0)
(0.00186448 0.128949 0)
(0.00200017 0.128954 0)
(0.00209005 0.12896 0)
(0.00212657 0.128967 0)
(0.00210143 0.128975 0)
(0.00200543 0.128984 0)
(0.00182844 0.128995 0)
(0.00155947 0.129006 0)
(0.00118683 0.129019 0)
(0.000698714 0.129033 0)
(8.4305e-05 0.129048 0)
(-0.000664278 0.129064 0)
(-0.00154864 0.129079 0)
(-0.00255913 0.129092 0)
(-0.00366743 0.1291 0)
(-0.0048173 0.129099 0)
(-0.00591376 0.129084 0)
(-0.00681452 0.129049 0)
(-0.00732836 0.12899 0)
(-0.00723237 0.128905 0)
(-0.00631455 0.128808 0)
(-0.00448169 0.128697 0)
(-0.00166869 0.12842 0)
(0.00184505 0.18632 0)
(0.0049786 0.186411 0)
(0.00703989 0.186558 0)
(0.00807396 0.186688 0)
(0.00819163 0.186799 0)
(0.00762707 0.186877 0)
(0.00662762 0.186922 0)
(0.00540637 0.186941 0)
(0.00412247 0.186942 0)
(0.00288266 0.186931 0)
(0.00175051 0.186914 0)
(0.000758328 0.186894 0)
(-8.25411e-05 0.186873 0)
(-0.000773478 0.186852 0)
(-0.00132301 0.186834 0)
(-0.00174304 0.186817 0)
(-0.00204667 0.186802 0)
(-0.00224691 0.186788 0)
(-0.00235607 0.186776 0)
(-0.00238547 0.186766 0)
(-0.00234541 0.186757 0)
(-0.00224526 0.186749 0)
(-0.00209346 0.186743 0)
(-0.00189774 0.186737 0)
(-0.00166516 0.186732 0)
(-0.00140227 0.186728 0)
(-0.00111514 0.186725 0)
(-0.000809518 0.186723 0)
(-0.000490879 0.186722 0)
(-0.000164503 0.186721 0)
(0.000164441 0.186721 0)
(0.000490818 0.186722 0)
(0.000809459 0.186723 0)
(0.00111508 0.186725 0)
(0.00140221 0.186728 0)
(0.00166512 0.186732 0)
(0.0018977 0.186737 0)
(0.00209343 0.186743 0)
(0.00224523 0.186749 0)
(0.0023454 0.186757 0)
(0.00238546 0.186766 0)
(0.00235607 0.186776 0)
(0.00224693 0.186788 0)
(0.00204669 0.186802 0)
(0.00174307 0.186817 0)
(0.00132305 0.186834 0)
(0.000773531 0.186852 0)
(8.26032e-05 0.186873 0)
(-0.000758258 0.186894 0)
(-0.00175044 0.186914 0)
(-0.00288258 0.186931 0)
(-0.00412238 0.186942 0)
(-0.00540628 0.186941 0)
(-0.00662754 0.186922 0)
(-0.00762699 0.186877 0)
(-0.00819156 0.1868 0)
(-0.0080739 0.186688 0)
(-0.00703985 0.186558 0)
(-0.00497857 0.186411 0)
(-0.00184504 0.18632 0)
(0.0020001 0.041102 0)
(0.00541931 0.0412308 0)
(0.00768845 0.0414181 0)
(0.00883051 0.0415862 0)
(0.00897161 0.0417286 0)
(0.00836491 0.0418276 0)
(0.0072791 0.0418853 0)
(0.00594676 0.0419098 0)
(0.00454232 0.0419108 0)
(0.00318336 0.0418968 0)
(0.0019403 0.0418744 0)
(0.000849316 0.0418484 0)
(-7.64935e-05 0.0418215 0)
(-0.000838157 0.0417957 0)
(-0.00144467 0.0417717 0)
(-0.00190885 0.0417499 0)
(-0.00224494 0.0417305 0)
(-0.00246712 0.0417134 0)
(-0.00258887 0.0416983 0)
(-0.0026226 0.0416851 0)
(-0.00257966 0.0416737 0)
(-0.00247032 0.0416639 0)
(-0.00230392 0.0416554 0)
(-0.00208897 0.0416483 0)
(-0.00183327 0.0416424 0)
(-0.00154404 0.0416376 0)
(-0.00122801 0.0416338 0)
(-0.000891519 0.041631 0)
(-0.000540629 0.0416292 0)
(-0.000181179 0.0416283 0)
(0.000181111 0.0416283 0)
(0.000540562 0.0416292 0)
(0.000891455 0.041631 0)
(0.00122794 0.0416338 0)
(0.00154398 0.0416376 0)
(0.00183322 0.0416424 0)
(0.00208892 0.0416483 0)
(0.00230388 0.0416554 0)
(0.00247029 0.0416639 0)
(0.00257964 0.0416737 0)
(0.00262259 0.0416851 0)
(0.00258887 0.0416983 0)
(0.00246714 0.0417134 0)
(0.00224497 0.0417305 0)
(0.00190889 0.0417499 0)
(0.00144472 0.0417717 0)
(0.000838216 0.0417957 0)
(7.6562e-05 0.0418215 0)
(-0.000849239 0.0418484 0)
(-0.00194021 0.0418744 0)
(-0.00318327 0.0418968 0)
(-0.00454223 0.0419108 0)
(-0.00594667 0.0419098 0)
(-0.00727901 0.0418853 0)
(-0.00836482 0.0418276 0)
(-0.00897153 0.0417286 0)
(-0.00883044 0.0415862 0)
(-0.0076884 0.0414181 0)
(-0.00541928 0.0412308 0)
(-0.00200009 0.041102 0)
(0.00213503 -0.00681878 0)
(0.0058039 -0.00661763 0)
(0.00825768 -0.00638467 0)
(0.00949906 -0.00617397 0)
(0.00966528 -0.00599649 0)
(0.00902523 -0.00587294 0)
(0.00786578 -0.00580073 0)
(0.00643653 -0.00576986 0)
(0.00492554 -0.00576839 0)
(0.00346023 -0.00578567 0)
(0.00211744 -0.00581342 0)
(0.000937061 -0.00584588 0)
(-6.6037e-05 -0.00587934 0)
(-0.000892378 -0.00591162 0)
(-0.00155125 -0.00594159 0)
(-0.00205622 -0.00596876 0)
(-0.00242246 -0.00599302 0)
(-0.0026652 -0.00601447 0)
(-0.00279894 -0.0060333 0)
(-0.0028371 -0.00604974 0)
(-0.00279192 -0.00606401 0)
(-0.00267456 -0.00607631 0)
(-0.00249512 -0.00608683 0)
(-0.00226286 -0.00609572 0)
(-0.00198624 -0.00610311 0)
(-0.00167312 -0.00610912 0)
(-0.00133081 -0.00611382 0)
(-0.000966235 -0.00611729 0)
(-0.000585969 -0.00611957 0)
(-0.000196379 -0.0061207 0)
(0.000196305 -0.0061207 0)
(0.000585896 -0.00611957 0)
(0.000966165 -0.00611729 0)
(0.00133075 -0.00611382 0)
(0.00167306 -0.00610912 0)
(0.00198618 -0.00610312 0)
(0.00226281 -0.00609572 0)
(0.00249508 -0.00608683 0)
(0.00267453 -0.00607631 0)
(0.00279191 -0.00606401 0)
(0.00283709 -0.00604974 0)
(0.00279895 -0.0060333 0)
(0.00266522 -0.00601447 0)
(0.00242249 -0.00599302 0)
(0.00205626 -0.00596876 0)
(0.0015513 -0.0059416 0)
(0.000892442 -0.00591163 0)
(6.61112e-05 -0.00587934 0)
(-0.000936978 -0.00584588 0)
(-0.00211735 -0.00581342 0)
(-0.00346013 -0.00578567 0)
(-0.00492544 -0.0057684 0)
(-0.00643642 -0.00576986 0)
(-0.00786568 -0.00580073 0)
(-0.00902513 -0.00587293 0)
(-0.0096652 -0.00599648 0)
(-0.00949899 -0.00617397 0)
(-0.00825763 -0.00638467 0)
(-0.00580387 -0.00661763 0)
(-0.00213501 -0.00681878 0)
(0.0022487 -0.0046496 0)
(0.00613031 -0.00440244 0)
(0.00874544 -0.00411971 0)
(0.010077 -0.00386196 0)
(0.01027 -0.00364577 0)
(0.00960552 -0.00349489 0)
(0.00838545 -0.00340639 0)
(0.00687387 -0.00336822 0)
(0.00527074 -0.00336596 0)
(0.00371233 -0.00338666 0)
(0.00228137 -0.00342026 0)
(0.00102133 -0.0034597 0)
(-5.1128e-05 -0.00350045 0)
(-0.00093587 -0.00353983 0)
(-0.0016423 -0.00357643 0)
(-0.00218454 -0.00360964 0)
(-0.00257854 -0.00363931 0)
(-0.0028404 -0.00366555 0)
(-0.00298552 -0.00368861 0)
(-0.00302817 -0.00370874 0)
(-0.00298144 -0.00372621 0)
(-0.00285724 -0.00374129 0)
(-0.00266639 -0.00375417 0)
(-0.00241879 -0.00376507 0)
(-0.00212354 -0.00377413 0)
(-0.00178905 -0.00378148 0)
(-0.0014232 -0.00378725 0)
(-0.00103341 -0.00379149 0)
(-0.00062674 -0.00379429 0)
(-0.000210048 -0.00379568 0)
(0.000209969 -0.00379568 0)
(0.000626662 -0.00379429 0)
(0.00103333 -0.00379149 0)
(0.00142313 -0.00378725 0)
(0.00178899 -0.00378149 0)
(0.00212348 -0.00377413 0)
(0.00241874 -0.00376507 0)
(0.00266635 -0.00375418 0)
(0.00285721 -0.00374129 0)
(0.00298143 -0.00372622 0)
(0.00302817 -0.00370874 0)
(0.00298552 -0.00368861 0)
(0.00284042 -0.00366556 0)
(0.00257857 -0.00363931 0)
(0.00218458 -0.00360964 0)
(0.00164236 -0.00357643 0)
(0.000935939 -0.00353984 0)
(5.12073e-05 -0.00350046 0)
(-0.00102124 -0.00345971 0)
(-0.00228128 -0.00342026 0)
(-0.00371223 -0.00338666 0)
(-0.00527063 -0.00336596 0)
(-0.00687376 -0.00336822 0)
(-0.00838534 -0.00340638 0)
(-0.00960542 -0.00349489 0)
(-0.0102699 -0.00364576 0)
(-0.010077 -0.00386196 0)
(-0.00874538 -0.0041197 0)
(-0.00613027 -0.00440243 0)
(-0.00224869 -0.00464959 0)
(0.0023403 -0.000937572 0)
(0.00639698 -0.00065417 0)
(0.00915002 -0.000317929 0)
(0.0105624 -9.16173e-06 0)
(0.0107836 0.000249123 0)
(0.0101037 0.000429859 0)
(0.00883629 0.000536332 0)
(0.00725727 0.000582681 0)
(0.00557677 0.000586016 0)
(0.00393883 0.000561749 0)
(0.00243159 0.0005219 0)
(0.00110188 0.000474916 0)
(-3.17537e-05 0.000426255 0)
(-0.000968425 0.000379149 0)
(-0.00171746 0.000335312 0)
(-0.00229334 0.000295497 0)
(-0.00271261 0.000259891 0)
(-0.0029921 0.000228373 0)
(-0.00314794 0.000200674 0)
(-0.00319517 0.000176477 0)
(-0.00314758 0.000155462 0)
(-0.00301775 0.000137332 0)
(-0.00281714 0.000121825 0)
(-0.00255624 0.000108716 0)
(-0.00224471 9.78127e-05 0)
(-0.00189147 8.89577e-05 0)
(-0.00150487 8.20225e-05 0)
(-0.00109281 7.6907e-05 0)
(-0.000662808 7.35372e-05 0)
(-0.000222143 7.18644e-05 0)
(0.00022206 7.18642e-05 0)
(0.000662726 7.35367e-05 0)
(0.00109273 7.69062e-05 0)
(0.0015048 8.20213e-05 0)
(0.0018914 8.8956e-05 0)
(0.00224465 9.78107e-05 0)
(0.00255619 0.000108714 0)
(0.0028171 0.000121823 0)
(0.00301772 0.000137329 0)
(0.00314756 0.000155459 0)
(0.00319516 0.000176474 0)
(0.00314795 0.000200671 0)
(0.00299212 0.000228369 0)
(0.00271264 0.000259888 0)
(0.00229338 0.000295494 0)
(0.00171752 0.000335309 0)
(0.000968497 0.000379146 0)
(3.18377e-05 0.000426253 0)
(-0.00110179 0.000474914 0)
(-0.00243149 0.000521898 0)
(-0.00393872 0.000561747 0)
(-0.00557665 0.000586015 0)
(-0.00725715 0.000582681 0)
(-0.00883618 0.000536333 0)
(-0.0101036 0.000429861 0)
(-0.0107835 0.000249126 0)
(-0.0105623 -9.15754e-06 0)
(-0.00914996 -0.000317924 0)
(-0.00639694 -0.000654164 0)
(-0.00234029 -0.000937566 0)
(0.00240961 -0.00172774 0)
(0.00660323 -0.00140468 0)
(0.00947031 -0.00101161 0)
(0.0109538 -0.000648225 0)
(0.0112046 -0.000344736 0)
(0.0105184 -0.000131754 0)
(0.00921692 -5.7296e-06 0)
(0.00758555 4.96732e-05 0)
(0.00584268 5.43917e-05 0)
(0.00413906 2.64642e-05 0)
(0.00256766 -1.99907e-05 0)
(0.00117852 -7.50206e-05 0)
(-7.93718e-06 -0.000132167 0)
(-0.000989907 -0.000187593 0)
(-0.00177647 -0.000239245 0)
(-0.00238226 -0.000286209 0)
(-0.00282426 -0.000328247 0)
(-0.00311983 -0.000365487 0)
(-0.00328572 -0.000398233 0)
(-0.00333759 -0.000426853 0)
(-0.00328983 -0.000451719 0)
(-0.00315561 -0.000473179 0)
(-0.00294694 -0.000491538 0)
(-0.00267483 -0.000507062 0)
(-0.0023494 -0.000519976 0)
(-0.00198005 -0.000530466 0)
(-0.00157558 -0.000538683 0)
(-0.00114427 -0.000544744 0)
(-0.00069407 -0.000548737 0)
(-0.000232629 -0.000550719 0)
(0.000232541 -0.000550719 0)
(0.000693984 -0.000548737 0)
(0.00114419 -0.000544745 0)
(0.0015755 -0.000538684 0)
(0.00197998 -0.000530468 0)
(0.00234933 -0.000519979 0)
(0.00267477 -0.000507065 0)
(0.0029469 -0.000491541 0)
(0.00315558 -0.000473182 0)
(0.00328981 -0.000451723 0)
(0.00333758 -0.000426856 0)
(0.00328573 -0.000398236 0)
(0.00311985 -0.000365491 0)
(0.00282429 -0.000328251 0)
(0.00238231 -0.000286213 0)
(0.00177653 -0.000239248 0)
(0.000989983 -0.000187596 0)
(8.02514e-06 -0.00013217 0)
(-0.00117842 -7.50234e-05 0)
(-0.00256755 -1.9993e-05 0)
(-0.00413895 2.64626e-05 0)
(-0.00584256 5.43909e-05 0)
(-0.00758543 4.96734e-05 0)
(-0.0092168 -5.72822e-06 0)
(-0.0105182 -0.000131751 0)
(-0.0112045 -0.000344732 0)
(-0.0109537 -0.00064822 0)
(-0.00947025 -0.00101161 0)
(-0.00660319 -0.00140467 0)
(-0.0024096 -0.00172773 0)
(0.00245666 -0.00342213 0)
(0.00674896 -0.00305574 0)
(0.00970589 -0.002603 0)
(0.0112505 -0.00218179 0)
(0.0115321 -0.00183026 0)
(0.0108485 -0.0015828 0)
(0.00952648 -0.0014357 0)
(0.00785796 -0.00137037 0)
(0.00606786 -0.00136392 0)
(0.00431254 -0.00139555 0)
(0.00268925 -0.00144891 0)
(0.00125105 -0.00151243 0)
(2.02569e-05 -0.00157859 0)
(-0.00100028 -0.00164288 0)
(-0.00181919 -0.00170288 0)
(-0.0024511 -0.00175751 0)
(-0.00291322 -0.00180645 0)
(-0.0032233 -0.00184984 0)
(-0.00339854 -0.00188801 0)
(-0.00345511 -0.0019214 0)
(-0.00340788 -0.00195042 0)
(-0.00327052 -0.00197547 0)
(-0.0030555 -0.0019969 0)
(-0.00277427 -0.00201504 0)
(-0.00243738 -0.00203012 0)
(-0.00205462 -0.00204238 0)
(-0.00163517 -0.00205198 0)
(-0.00118769 -0.00205906 0)
(-0.000720457 -0.00206373 0)
(-0.000241482 -0.00206604 0)
(0.000241391 -0.00206604 0)
(0.000720368 -0.00206373 0)
(0.0011876 -0.00205906 0)
(0.00163509 -0.00205198 0)
(0.00205455 -0.00204238 0)
(0.00243731 -0.00203012 0)
(0.00277421 -0.00201504 0)
(0.00305546 -0.00199691 0)
(0.00327049 -0.00197547 0)
(0.00340786 -0.00195042 0)
(0.0034551 -0.0019214 0)
(0.00339855 -0.00188802 0)
(0.00322332 -0.00184984 0)
(0.00291326 -0.00180645 0)
(0.00245115 -0.00175751 0)
(0.00181925 -0.00170289 0)
(0.00100035 -0.00164288 0)
(-2.01656e-05 -0.00157859 0)
(-0.00125095 -0.00151243 0)
(-0.00268914 -0.00144891 0)
(-0.00431242 -0.00139555 0)
(-0.00606774 -0.00136392 0)
(-0.00785783 -0.00137037 0)
(-0.00952636 -0.0014357 0)
(-0.0108484 -0.0015828 0)
(-0.011532 -0.00183025 0)
(-0.0112504 -0.00218179 0)
(-0.00970583 -0.002603 0)
(-0.00674892 -0.00305573 0)
(-0.00245664 -0.00342212 0)
(0.00248166 -0.00502477 0)
(0.0068346 -0.00461355 0)
(0.00985713 -0.00409881 0)
(0.0114527 -0.00361699 0)
(0.0117661 -0.00321486 0)
(0.011094 -0.00293087 0)
(0.00976474 -0.00276123 0)
(0.0080742 -0.00268509 0)
(0.006252 -0.00267652 0)
(0.00445899 -0.00271182 0)
(0.00279614 -0.0027723 0)
(0.0013193 -0.00284469 0)
(5.27158e-05 -0.00292033 0)
(-0.00099959 -0.00299398 0)
(-0.00184564 -0.00306284 0)
(-0.00249984 -0.0031256 0)
(-0.00297945 -0.00318189 0)
(-0.00330243 -0.00323184 0)
(-0.00348632 -0.00327581 0)
(-0.00354762 -0.00331428 0)
(-0.00350163 -0.00334774 0)
(-0.00336237 -0.00337664 0)
(-0.00314272 -0.00340137 0)
(-0.00285448 -0.0034223 0)
(-0.00250856 -0.00343971 0)
(-0.0021151 -0.00345386 0)
(-0.00168359 -0.00346495 0)
(-0.00122301 -0.00347313 0)
(-0.000741944 -0.00347851 0)
(-0.000248693 -0.00348119 0)
(0.0002486 -0.00348119 0)
(0.000741852 -0.00347852 0)
(0.00122292 -0.00347313 0)
(0.00168351 -0.00346495 0)
(0.00211503 -0.00345386 0)
(0.00250849 -0.00343971 0)
(0.00285442 -0.0034223 0)
(0.00314267 -0.00340138 0)
(0.00336234 -0.00337664 0)
(0.00350161 -0.00334775 0)
(0.00354761 -0.00331429 0)
(0.00348633 -0.00327581 0)
(0.00330245 -0.00323184 0)
(0.00297949 -0.0031819 0)
(0.00249989 -0.00312561 0)
(0.00184571 -0.00306284 0)
(0.000999671 -0.00299399 0)
(-5.26217e-05 -0.00292033 0)
(-0.0013192 -0.0028447 0)
(-0.00279602 -0.0027723 0)
(-0.00445887 -0.00271182 0)
(-0.00625188 -0.00267652 0)
(-0.00807407 -0.00268509 0)
(-0.00976462 -0.00276123 0)
(-0.0110939 -0.00293087 0)
(-0.011766 -0.00321485 0)
(-0.0114526 -0.00361699 0)
(-0.00985706 -0.00409881 0)
(-0.00683456 -0.00461354 0)
(-0.00248164 -0.00502476 0)
(0.00248506 -0.00711834 0)
(0.00686124 -0.00666164 0)
(0.00992534 -0.00608312 0)
(0.0115617 -0.00553835 0)
(0.0119078 -0.00508337 0)
(0.0112557 -0.00476096 0)
(0.00993222 -0.00456737 0)
(0.00823458 -0.00447952 0)
(0.00639524 -0.00446837 0)
(0.00457842 -0.00450723 0)
(0.00288823 -0.00457498 0)
(0.00138314 -0.00465656 0)
(8.92706e-05 -0.00474207 0)
(-0.000988035 -0.00482554 0)
(-0.00185602 -0.0049037 0)
(-0.00252867 -0.00497504 0)
(-0.00302313 -0.0050391 0)
(-0.00335741 -0.00509599 0)
(-0.00354921 -0.00514611 0)
(-0.00361529 -0.00519 0)
(-0.00357121 -0.00522817 0)
(-0.00343129 -0.00526116 0)
(-0.0032087 -0.00528941 0)
(-0.00291555 -0.00531331 0)
(-0.00256304 -0.00533321 0)
(-0.00216156 -0.00534938 0)
(-0.0017209 -0.00536205 0)
(-0.00125028 -0.0053714 0)
(-0.000758553 -0.00537756 0)
(-0.000254272 -0.00538062 0)
(0.000254176 -0.00538062 0)
(0.000758459 -0.00537756 0)
(0.00125019 -0.0053714 0)
(0.00172081 -0.00536205 0)
(0.00216148 -0.00534938 0)
(0.00256297 -0.00533321 0)
(0.00291549 -0.00531331 0)
(0.00320865 -0.00528941 0)
(0.00343126 -0.00526117 0)
(0.00357119 -0.00522818 0)
(0.00361528 -0.00519 0)
(0.00354922 -0.00514612 0)
(0.00335743 -0.00509599 0)
(0.00302317 -0.00503911 0)
(0.00252873 -0.00497505 0)
(0.00185609 -0.00490371 0)
(0.000988118 -0.00482554 0)
(-8.91743e-05 -0.00474207 0)
(-0.00138303 -0.00465657 0)
(-0.00288812 -0.00457499 0)
(-0.00457829 -0.00450723 0)
(-0.00639511 -0.00446837 0)
(-0.00823445 -0.00447952 0)
(-0.0099321 -0.00456737 0)
(-0.0112556 -0.00476095 0)
(-0.0119077 -0.00508336 0)
(-0.0115616 -0.00553834 0)
(-0.00992527 -0.00608311 0)
(-0.0068612 -0.00666163 0)
(-0.00248504 -0.00711833 0)
(0.0024676 -0.0105383 0)
(0.00683078 -0.0100356 0)
(0.00991293 -0.00939207 0)
(0.0115799 -0.00878243 0)
(0.0119593 -0.00827265 0)
(0.0113354 -0.00791007 0)
(0.0100303 -0.00769116 0)
(0.00834005 -0.00759066 0)
(0.00649816 -0.00757638 0)
(0.00467113 -0.00761861 0)
(0.00296562 -0.00769368 0)
(0.00144246 -0.00778466 0)
(0.000129688 -0.00788038 0)
(-0.00096594 -0.00797405 0)
(-0.00185071 -0.00806194 0)
(-0.00253803 -0.00814228 0)
(-0.00304472 -0.0082145 0)
(-0.0033887 -0.00827871 0)
(-0.00358769 -0.00833533 0)
(-0.00365856 -0.00838494 0)
(-0.00361705 -0.00842812 0)
(-0.00347768 -0.00846545 0)
(-0.00325383 -0.00849743 0)
(-0.00295782 -0.0085245 0)
(-0.00260108 -0.00854704 0)
(-0.00219424 -0.00856536 0)
(-0.00174727 -0.00857972 0)
(-0.00126963 -0.00859032 0)
(-0.000770367 -0.0085973 0)
(-0.000258244 -0.00860077 0)
(0.000258147 -0.00860077 0)
(0.000770272 -0.00859731 0)
(0.00126954 -0.00859032 0)
(0.00174718 -0.00857972 0)
(0.00219416 -0.00856537 0)
(0.00260101 -0.00854704 0)
(0.00295776 -0.0085245 0)
(0.00325378 -0.00849743 0)
(0.00347765 -0.00846546 0)
(0.00361703 -0.00842813 0)
(0.00365856 -0.00838494 0)
(0.0035877 -0.00833534 0)
(0.00338872 -0.00827872 0)
(0.00304476 -0.00821451 0)
(0.00253808 -0.00814228 0)
(0.00185078 -0.00806194 0)
(0.000966024 -0.00797406 0)
(-0.00012959 -0.00788039 0)
(-0.00144235 -0.00778467 0)
(-0.0029655 -0.00769368 0)
(-0.004671 -0.00761861 0)
(-0.00649803 -0.00757638 0)
(-0.00833992 -0.00759066 0)
(-0.0100302 -0.00769116 0)
(-0.0113353 -0.00791006 0)
(-0.0119592 -0.00827264 0)
(-0.0115798 -0.00878242 0)
(-0.00991286 -0.00939206 0)
(-0.00683074 -0.0100356 0)
(-0.00246759 -0.0105383 0)
(0.00243039 -0.0167214 0)
(0.00674604 -0.0161722 0)
(0.00982357 -0.0154628 0)
(0.0115112 -0.0147868 0)
(0.0119242 -0.0142205 0)
(0.0113361 -0.0138161 0)
(0.0100614 -0.0135704 0)
(0.00839236 -0.0134563 0)
(0.00656194 -0.0134382 0)
(0.00473778 -0.0134835 0)
(0.00302856 -0.0135658 0)
(0.0014972 -0.0136663 0)
(0.000173661 -0.0137725 0)
(-0.000933797 -0.0138767 0)
(-0.00183035 -0.0139747 0)
(-0.00252863 -0.0140644 0)
(-0.003045 -0.0141452 0)
(-0.00339711 -0.0142171 0)
(-0.00360257 -0.0142806 0)
(-0.00367825 -0.0143363 0)
(-0.00363994 -0.0143848 0)
(-0.00350227 -0.0144267 0)
(-0.00327876 -0.0144627 0)
(-0.00298189 -0.0144931 0)
(-0.00262323 -0.0145185 0)
(-0.00221357 -0.0145391 0)
(-0.00176306 -0.0145553 0)
(-0.00128131 -0.0145672 0)
(-0.000777536 -0.0145751 0)
(-0.000260661 -0.014579 0)
(0.000260563 -0.014579 0)
(0.000777439 -0.0145751 0)
(0.00128122 -0.0145672 0)
(0.00176297 -0.0145553 0)
(0.00221349 -0.0145391 0)
(0.00262315 -0.0145185 0)
(0.00298183 -0.0144931 0)
(0.00327871 -0.0144627 0)
(0.00350223 -0.0144267 0)
(0.00363991 -0.0143848 0)
(0.00367824 -0.0143363 0)
(0.00360258 -0.0142806 0)
(0.00339713 -0.0142171 0)
(0.00304504 -0.0141452 0)
(0.00252868 -0.0140644 0)
(0.00183042 -0.0139747 0)
(0.000933882 -0.0138767 0)
(-0.000173562 -0.0137725 0)
(-0.00149709 -0.0136663 0)
(-0.00302844 -0.0135658 0)
(-0.00473766 -0.0134835 0)
(-0.0065618 -0.0134382 0)
(-0.00839222 -0.0134563 0)
(-0.0100612 -0.0135704 0)
(-0.011336 -0.0138161 0)
(-0.0119241 -0.0142205 0)
(-0.0115111 -0.0147868 0)
(-0.0098235 -0.0154628 0)
(-0.006746 -0.0161722 0)
(-0.00243037 -0.0167214 0)
(0.00237494 -0.0286027 0)
(0.00661094 -0.028005 0)
(0.00966239 -0.0272295 0)
(0.011361 -0.0264859 0)
(0.0118076 -0.0258615 0)
(0.0112623 -0.0254136 0)
(0.0100289 -0.0251398 0)
(0.00839413 -0.0250108 0)
(0.00658836 -0.0249881 0)
(0.00477946 -0.0250359 0)
(0.00307752 -0.0251253 0)
(0.00154736 -0.0252354 0)
(0.000220798 -0.0253522 0)
(-0.00089229 -0.0254672 0)
(-0.00179582 -0.0255757 0)
(-0.00250153 -0.0256752 0)
(-0.00302512 -0.025765 0)
(-0.00338384 -0.025845 0)
(-0.00359507 -0.0259157 0)
(-0.00367554 -0.0259778 0)
(-0.00364101 -0.026032 0)
(-0.00350614 -0.0260788 0)
(-0.0032845 -0.026119 0)
(-0.00298864 -0.0261531 0)
(-0.00263024 -0.0261815 0)
(-0.0022202 -0.0262046 0)
(-0.00176877 -0.0262227 0)
(-0.00128569 -0.0262361 0)
(-0.000780286 -0.0262449 0)
(-0.000261598 -0.0262493 0)
(0.000261499 -0.0262493 0)
(0.000780189 -0.0262449 0)
(0.0012856 -0.0262361 0)
(0.00176869 -0.0262227 0)
(0.00222012 -0.0262046 0)
(0.00263017 -0.0261815 0)
(0.00298858 -0.0261531 0)
(0.00328445 -0.026119 0)
(0.00350611 -0.0260788 0)
(0.00364099 -0.026032 0)
(0.00367553 -0.0259778 0)
(0.00359508 -0.0259157 0)