/*--------------------------------*- C++ -*----------------------------------*\
| =========                 |                                                 |
| \\      /  F ield         | foam-extend: Open Source CFD                    |
|  \\    /   O peration     | Version:     4.0                                |
|   \\  /    A nd           | Web:         http://www.foam-extend.org         |
|    \\/     M anipulation  |                                                 |
\*---------------------------------------------------------------------------*/
FoamFile
{
    version     2.0;
    format      ascii;
    class       volScalarField;
    location    "590";
    object      cMinus;
}
// * * * * * * * * * * * * * * * * * * * * * * * * * * * * * * * * * * * * * //

dimensions      [0 0 0 0 0 0 0];

internalField   nonuniform List<scalar> 
6960
(
7.00019e-19
6.96971e-19
6.98992e-19
6.99985e-19
7.00323e-19
7.00278e-19
7.0001e-19
6.99608e-19
6.99124e-19
6.98589e-19
6.98022e-19
6.97437e-19
6.96847e-19
6.96259e-19
6.95683e-19
6.95124e-19
6.94588e-19
6.94079e-19
6.93602e-19
6.9316e-19
6.92753e-19
6.92385e-19
6.92057e-19
6.91768e-19
6.91521e-19
6.91314e-19
6.91149e-19
6.91025e-19
6.90943e-19
6.90902e-19
6.90902e-19
6.90943e-19
6.91025e-19
6.91149e-19
6.91314e-19
6.91521e-19
6.91768e-19
6.92057e-19
6.92385e-19
6.92753e-19
6.9316e-19
6.93602e-19
6.94079e-19
6.94588e-19
6.95124e-19
6.95683e-19
6.96259e-19
6.96847e-19
6.97437e-19
6.98022e-19
6.98589e-19
6.99124e-19
6.99608e-19
7.0001e-19
7.00278e-19
7.00323e-19
6.99985e-19
6.98992e-19
6.96971e-19
7.00019e-19
1.15812e-18
1.15381e-18
1.15693e-18
1.15845e-18
1.15896e-18
1.15888e-18
1.15845e-18
1.15782e-18
1.15706e-18
1.15622e-18
1.15533e-18
1.15442e-18
1.15349e-18
1.15257e-18
1.15167e-18
1.1508e-18
1.14996e-18
1.14916e-18
1.14842e-18
1.14772e-18
1.14709e-18
1.14651e-18
1.146e-18
1.14555e-18
1.14516e-18
1.14484e-18
1.14458e-18
1.14439e-18
1.14426e-18
1.14419e-18
1.14419e-18
1.14426e-18
1.14439e-18
1.14458e-18
1.14484e-18
1.14516e-18
1.14555e-18
1.146e-18
1.14651e-18
1.14709e-18
1.14772e-18
1.14842e-18
1.14916e-18
1.14996e-18
1.1508e-18
1.15167e-18
1.15257e-18
1.15349e-18
1.15442e-18
1.15533e-18
1.15622e-18
1.15706e-18
1.15782e-18
1.15845e-18
1.15888e-18
1.15896e-18
1.15845e-18
1.15693e-18
1.15381e-18
1.15812e-18
3.88513e-18
3.87256e-18
3.88241e-18
3.88718e-18
3.88875e-18
3.88846e-18
3.88708e-18
3.88504e-18
3.88261e-18
3.87993e-18
3.87709e-18
3.87417e-18
3.87122e-18
3.86829e-18
3.86541e-18
3.86262e-18
3.85995e-18
3.85742e-18
3.85504e-18
3.85283e-18
3.8508e-18
3.84897e-18
3.84733e-18
3.84589e-18
3.84466e-18
3.84363e-18
3.84281e-18
3.84219e-18
3.84178e-18
3.84157e-18
3.84157e-18
3.84178e-18
3.84219e-18
3.84281e-18
3.84363e-18
3.84466e-18
3.84589e-18
3.84733e-18
3.84897e-18
3.8508e-18
3.85283e-18
3.85504e-18
3.85742e-18
3.85995e-18
3.86262e-18
3.86541e-18
3.86829e-18
3.87122e-18
3.87417e-18
3.87709e-18
3.87993e-18
3.88261e-18
3.88504e-18
3.88708e-18
3.88846e-18
3.88875e-18
3.88718e-18
3.88241e-18
3.87256e-18
3.88513e-18
1.44402e-17
1.44006e-17
1.44348e-17
1.44513e-17
1.44567e-17
1.44556e-17
1.44508e-17
1.44437e-17
1.44352e-17
1.44258e-17
1.4416e-17
1.44058e-17
1.43955e-17
1.43853e-17
1.43753e-17
1.43656e-17
1.43563e-17
1.43475e-17
1.43392e-17
1.43315e-17
1.43245e-17
1.43181e-17
1.43124e-17
1.43074e-17
1.43031e-17
1.42996e-17
1.42967e-17
1.42945e-17
1.42931e-17
1.42924e-17
1.42924e-17
1.42931e-17
1.42945e-17
1.42967e-17
1.42996e-17
1.43031e-17
1.43074e-17
1.43124e-17
1.43181e-17
1.43245e-17
1.43315e-17
1.43392e-17
1.43475e-17
1.43563e-17
1.43656e-17
1.43753e-17
1.43853e-17
1.43955e-17
1.44058e-17
1.4416e-17
1.44258e-17
1.44352e-17
1.44437e-17
1.44508e-17
1.44556e-17
1.44567e-17
1.44513e-17
1.44348e-17
1.44006e-17
1.44402e-17
5.60587e-17
5.59394e-17
5.6061e-17
5.61195e-17
5.61387e-17
5.6135e-17
5.6118e-17
5.60931e-17
5.60634e-17
5.60307e-17
5.59961e-17
5.59605e-17
5.59246e-17
5.5889e-17
5.5854e-17
5.58201e-17
5.57876e-17
5.57568e-17
5.57279e-17
5.57011e-17
5.56765e-17
5.56542e-17
5.56343e-17
5.56169e-17
5.56019e-17
5.55894e-17
5.55794e-17
5.55719e-17
5.55669e-17
5.55644e-17
5.55644e-17
5.55669e-17
5.55719e-17
5.55794e-17
5.55894e-17
5.56019e-17
5.56169e-17
5.56343e-17
5.56542e-17
5.56765e-17
5.57011e-17
5.57279e-17
5.57568e-17
5.57876e-17
5.58201e-17
5.5854e-17
5.5889e-17
5.59246e-17
5.59605e-17
5.59961e-17
5.60307e-17
5.60634e-17
5.60931e-17
5.6118e-17
5.6135e-17
5.61387e-17
5.61195e-17
5.6061e-17
5.59394e-17
5.60587e-17
2.31122e-16
2.30814e-16
2.31264e-16
2.31482e-16
2.31555e-16
2.31545e-16
2.31487e-16
2.31401e-16
2.31298e-16
2.31183e-16
2.31063e-16
2.30939e-16
2.30813e-16
2.30689e-16
2.30567e-16
2.30449e-16
2.30336e-16
2.30229e-16
2.30128e-16
2.30035e-16
2.29949e-16
2.29871e-16
2.29802e-16
2.29742e-16
2.29689e-16
2.29646e-16
2.29611e-16
2.29585e-16
2.29568e-16
2.29559e-16
2.29559e-16
2.29568e-16
2.29585e-16
2.29611e-16
2.29646e-16
2.29689e-16
2.29742e-16
2.29802e-16
2.29871e-16
2.29949e-16
2.30035e-16
2.30128e-16
2.30229e-16
2.30336e-16
2.30449e-16
2.30567e-16
2.30689e-16
2.30813e-16
2.30939e-16
2.31063e-16
2.31183e-16
2.31298e-16
2.31401e-16
2.31487e-16
2.31545e-16
2.31555e-16
2.31482e-16
2.31264e-16
2.30814e-16
2.31122e-16
1.03652e-15
1.03615e-15
1.03797e-15
1.03886e-15
1.03919e-15
1.0392e-15
1.03901e-15
1.03872e-15
1.03837e-15
1.03797e-15
1.03755e-15
1.03712e-15
1.03669e-15
1.03626e-15
1.03584e-15
1.03543e-15
1.03504e-15
1.03467e-15
1.03432e-15
1.03399e-15
1.0337e-15
1.03343e-15
1.03319e-15
1.03298e-15
1.0328e-15
1.03265e-15
1.03253e-15
1.03244e-15
1.03238e-15
1.03235e-15
1.03235e-15
1.03238e-15
1.03244e-15
1.03253e-15
1.03265e-15
1.0328e-15
1.03298e-15
1.03319e-15
1.03343e-15
1.0337e-15
1.03399e-15
1.03432e-15
1.03467e-15
1.03504e-15
1.03543e-15
1.03584e-15
1.03626e-15
1.03669e-15
1.03712e-15
1.03755e-15
1.03797e-15
1.03837e-15
1.03872e-15
1.03901e-15
1.0392e-15
1.03919e-15
1.03886e-15
1.03797e-15
1.03615e-15
1.03652e-15
5.15143e-15
5.15517e-15
5.16376e-15
5.16814e-15
5.16999e-15
5.17037e-15
5.16993e-15
5.16902e-15
5.16784e-15
5.16651e-15
5.16508e-15
5.16361e-15
5.16213e-15
5.16066e-15
5.15921e-15
5.15782e-15
5.15648e-15
5.15521e-15
5.15403e-15
5.15293e-15
5.15192e-15
5.15101e-15
5.1502e-15
5.14948e-15
5.14887e-15
5.14836e-15
5.14796e-15
5.14765e-15
5.14745e-15
5.14735e-15
5.14735e-15
5.14745e-15
5.14765e-15
5.14796e-15
5.14836e-15
5.14887e-15
5.14948e-15
5.1502e-15
5.15101e-15
5.15192e-15
5.15293e-15
5.15403e-15
5.15521e-15
5.15648e-15
5.15782e-15
5.15921e-15
5.16066e-15
5.16213e-15
5.16361e-15
5.16508e-15
5.16651e-15
5.16784e-15
5.16902e-15
5.16993e-15
5.17037e-15
5.16999e-15
5.16814e-15
5.16376e-15
5.15517e-15
5.15143e-15
2.84629e-14
2.85141e-14
2.85634e-14
2.85898e-14
2.86024e-14
2.86071e-14
2.86074e-14
2.86052e-14
2.86017e-14
2.85974e-14
2.85928e-14
2.85879e-14
2.8583e-14
2.85781e-14
2.85733e-14
2.85687e-14
2.85643e-14
2.85601e-14
2.85562e-14
2.85525e-14
2.85492e-14
2.85462e-14
2.85436e-14
2.85412e-14
2.85392e-14
2.85376e-14
2.85362e-14
2.85352e-14
2.85346e-14
2.85342e-14
2.85342e-14
2.85346e-14
2.85352e-14
2.85362e-14
2.85376e-14
2.85392e-14
2.85412e-14
2.85436e-14
2.85462e-14
2.85492e-14
2.85525e-14
2.85562e-14
2.85601e-14
2.85643e-14
2.85687e-14
2.85733e-14
2.85781e-14
2.8583e-14
2.85879e-14
2.85928e-14
2.85974e-14
2.86017e-14
2.86052e-14
2.86074e-14
2.86071e-14
2.86024e-14
2.85898e-14
2.85634e-14
2.85141e-14
2.84629e-14
1.72334e-13
1.72809e-13
1.73144e-13
1.73331e-13
1.73428e-13
1.73473e-13
1.7349e-13
1.73491e-13
1.73484e-13
1.73473e-13
1.73459e-13
1.73444e-13
1.73429e-13
1.73414e-13
1.73399e-13
1.73385e-13
1.73371e-13
1.73358e-13
1.73346e-13
1.73335e-13
1.73325e-13
1.73316e-13
1.73308e-13
1.73301e-13
1.73295e-13
1.7329e-13
1.73286e-13
1.73283e-13
1.73281e-13
1.7328e-13
1.7328e-13
1.73281e-13
1.73283e-13
1.73286e-13
1.7329e-13
1.73295e-13
1.73301e-13
1.73308e-13
1.73316e-13
1.73325e-13
1.73335e-13
1.73346e-13
1.73358e-13
1.73371e-13
1.73385e-13
1.73399e-13
1.73414e-13
1.73429e-13
1.73444e-13
1.73459e-13
1.73473e-13
1.73484e-13
1.73491e-13
1.7349e-13
1.73473e-13
1.73428e-13
1.73331e-13
1.73144e-13
1.72809e-13
1.72334e-13
1.11581e-12
1.1198e-12
1.12231e-12
1.12375e-12
1.12453e-12
1.12493e-12
1.12512e-12
1.1252e-12
1.12522e-12
1.1252e-12
1.12518e-12
1.12514e-12
1.12511e-12
1.12507e-12
1.12503e-12
1.125e-12
1.12496e-12
1.12493e-12
1.1249e-12
1.12487e-12
1.12485e-12
1.12483e-12
1.12481e-12
1.12479e-12
1.12478e-12
1.12477e-12
1.12476e-12
1.12475e-12
1.12475e-12
1.12474e-12
1.12474e-12
1.12475e-12
1.12475e-12
1.12476e-12
1.12477e-12
1.12478e-12
1.12479e-12
1.12481e-12
1.12483e-12
1.12485e-12
1.12487e-12
1.1249e-12
1.12493e-12
1.12496e-12
1.125e-12
1.12503e-12
1.12507e-12
1.12511e-12
1.12514e-12
1.12518e-12
1.1252e-12
1.12522e-12
1.1252e-12
1.12512e-12
1.12493e-12
1.12453e-12
1.12375e-12
1.12231e-12
1.1198e-12
1.11581e-12
7.53358e-12
7.56563e-12
7.58525e-12
7.59666e-12
7.60296e-12
7.60632e-12
7.60805e-12
7.60892e-12
7.60934e-12
7.60953e-12
7.6096e-12
7.60962e-12
7.60961e-12
7.60959e-12
7.60957e-12
7.60954e-12
7.60952e-12
7.6095e-12
7.60949e-12
7.60948e-12
7.60947e-12
7.60946e-12
7.60946e-12
7.60946e-12
7.60946e-12
7.60946e-12
7.60946e-12
7.60946e-12
7.60946e-12
7.60946e-12
7.60946e-12
7.60946e-12
7.60946e-12
7.60946e-12
7.60946e-12
7.60946e-12
7.60946e-12
7.60946e-12
7.60946e-12
7.60947e-12
7.60948e-12
7.60949e-12
7.6095e-12
7.60952e-12
7.60954e-12
7.60957e-12
7.60959e-12
7.60961e-12
7.60962e-12
7.6096e-12
7.60953e-12
7.60934e-12
7.60892e-12
7.60805e-12
7.60632e-12
7.60296e-12
7.59666e-12
7.58525e-12
7.56563e-12
7.53358e-12
5.19095e-11
5.21604e-11
5.2314e-11
5.24041e-11
5.24543e-11
5.24815e-11
5.2496e-11
5.25038e-11
5.2508e-11
5.25104e-11
5.2512e-11
5.2513e-11
5.25139e-11
5.25146e-11
5.25153e-11
5.25159e-11
5.25165e-11
5.25171e-11
5.25177e-11
5.25183e-11
5.25188e-11
5.25193e-11
5.25197e-11
5.25201e-11
5.25204e-11
5.25207e-11
5.2521e-11
5.25212e-11
5.25213e-11
5.25213e-11
5.25213e-11
5.25213e-11
5.25212e-11
5.2521e-11
5.25207e-11
5.25204e-11
5.25201e-11
5.25197e-11
5.25193e-11
5.25188e-11
5.25183e-11
5.25177e-11
5.25171e-11
5.25165e-11
5.25159e-11
5.25153e-11
5.25146e-11
5.25139e-11
5.2513e-11
5.2512e-11
5.25104e-11
5.2508e-11
5.25038e-11
5.2496e-11
5.24815e-11
5.24543e-11
5.24041e-11
5.2314e-11
5.21604e-11
5.19095e-11
3.5859e-10
3.605e-10
3.61681e-10
3.62376e-10
3.62765e-10
3.62978e-10
3.63093e-10
3.63156e-10
3.63191e-10
3.63213e-10
3.63228e-10
3.63239e-10
3.63248e-10
3.63256e-10
3.63264e-10
3.63271e-10
3.63278e-10
3.63285e-10
3.63291e-10
3.63297e-10
3.63303e-10
3.63308e-10
3.63312e-10
3.63317e-10
3.6332e-10
3.63323e-10
3.63326e-10
3.63327e-10
3.63329e-10
3.63329e-10
3.63329e-10
3.63329e-10
3.63327e-10
3.63326e-10
3.63323e-10
3.6332e-10
3.63317e-10
3.63312e-10
3.63308e-10
3.63303e-10
3.63297e-10
3.63291e-10
3.63285e-10
3.63278e-10
3.63271e-10
3.63264e-10
3.63256e-10
3.63248e-10
3.63239e-10
3.63228e-10
3.63213e-10
3.63191e-10
3.63156e-10
3.63093e-10
3.62978e-10
3.62765e-10
3.62376e-10
3.61681e-10
3.605e-10
3.5859e-10
2.44518e-09
2.45923e-09
2.468e-09
2.47318e-09
2.47609e-09
2.47768e-09
2.47854e-09
2.47902e-09
2.4793e-09
2.47947e-09
2.47959e-09
2.47968e-09
2.47975e-09
2.47982e-09
2.47988e-09
2.47994e-09
2.48e-09
2.48005e-09
2.4801e-09
2.48015e-09
2.48019e-09
2.48023e-09
2.48027e-09
2.4803e-09
2.48033e-09
2.48035e-09
2.48037e-09
2.48039e-09
2.4804e-09
2.4804e-09
2.4804e-09
2.4804e-09
2.48039e-09
2.48037e-09
2.48035e-09
2.48033e-09
2.4803e-09
2.48027e-09
2.48023e-09
2.48019e-09
2.48015e-09
2.4801e-09
2.48005e-09
2.48e-09
2.47994e-09
2.47988e-09
2.47982e-09
2.47975e-09
2.47968e-09
2.47959e-09
2.47947e-09
2.4793e-09
2.47902e-09
2.47854e-09
2.47768e-09
2.47609e-09
2.47318e-09
2.468e-09
2.45923e-09
2.44518e-09
1.62195e-08
1.63182e-08
1.63804e-08
1.64172e-08
1.64378e-08
1.64492e-08
1.64553e-08
1.64588e-08
1.64607e-08
1.6462e-08
1.64628e-08
1.64635e-08
1.6464e-08
1.64645e-08
1.64649e-08
1.64654e-08
1.64658e-08
1.64661e-08
1.64665e-08
1.64668e-08
1.64671e-08
1.64674e-08
1.64677e-08
1.64679e-08
1.64681e-08
1.64682e-08
1.64684e-08
1.64685e-08
1.64685e-08
1.64686e-08
1.64686e-08
1.64685e-08
1.64685e-08
1.64684e-08
1.64682e-08
1.64681e-08
1.64679e-08
1.64677e-08
1.64674e-08
1.64671e-08
1.64668e-08
1.64665e-08
1.64661e-08
1.64658e-08
1.64654e-08
1.64649e-08
1.64645e-08
1.6464e-08
1.64635e-08
1.64628e-08
1.6462e-08
1.64607e-08
1.64588e-08
1.64553e-08
1.64492e-08
1.64378e-08
1.64172e-08
1.63804e-08
1.63182e-08
1.62195e-08
1.03147e-07
1.03802e-07
1.04217e-07
1.04462e-07
1.046e-07
1.04676e-07
1.04717e-07
1.0474e-07
1.04753e-07
1.04762e-07
1.04767e-07
1.04771e-07
1.04775e-07
1.04778e-07
1.04781e-07
1.04784e-07
1.04786e-07
1.04789e-07
1.04791e-07
1.04793e-07
1.04795e-07
1.04797e-07
1.04799e-07
1.048e-07
1.04801e-07
1.04802e-07
1.04803e-07
1.04804e-07
1.04804e-07
1.04804e-07
1.04804e-07
1.04804e-07
1.04804e-07
1.04803e-07
1.04802e-07
1.04801e-07
1.048e-07
1.04799e-07
1.04797e-07
1.04795e-07
1.04793e-07
1.04791e-07
1.04789e-07
1.04786e-07
1.04784e-07
1.04781e-07
1.04778e-07
1.04775e-07
1.04771e-07
1.04767e-07
1.04762e-07
1.04753e-07
1.0474e-07
1.04717e-07
1.04676e-07
1.046e-07
1.04462e-07
1.04217e-07
1.03802e-07
1.03147e-07
6.19595e-07
6.2363e-07
6.26199e-07
6.27717e-07
6.28571e-07
6.29041e-07
6.29297e-07
6.29439e-07
6.29521e-07
6.29572e-07
6.29607e-07
6.29633e-07
6.29654e-07
6.29673e-07
6.29691e-07
6.29707e-07
6.29722e-07
6.29736e-07
6.2975e-07
6.29762e-07
6.29774e-07
6.29785e-07
6.29794e-07
6.29802e-07
6.2981e-07
6.29816e-07
6.29821e-07
6.29825e-07
6.29827e-07
6.29828e-07
6.29828e-07
6.29827e-07
6.29825e-07
6.29821e-07
6.29816e-07
6.2981e-07
6.29802e-07
6.29794e-07
6.29785e-07
6.29774e-07
6.29762e-07
6.2975e-07
6.29736e-07
6.29722e-07
6.29707e-07
6.29691e-07
6.29673e-07
6.29654e-07
6.29633e-07
6.29607e-07
6.29572e-07
6.29521e-07
6.29439e-07
6.29297e-07
6.29041e-07
6.28571e-07
6.27717e-07
6.26199e-07
6.2363e-07
6.19595e-07
3.46194e-06
3.48472e-06
3.49926e-06
3.50784e-06
3.51268e-06
3.51533e-06
3.51678e-06
3.51758e-06
3.51805e-06
3.51833e-06
3.51853e-06
3.51867e-06
3.51879e-06
3.5189e-06
3.51899e-06
3.51908e-06
3.51916e-06
3.51924e-06
3.51931e-06
3.51938e-06
3.51944e-06
3.5195e-06
3.51955e-06
3.51959e-06
3.51963e-06
3.51966e-06
3.51969e-06
3.51971e-06
3.51972e-06
3.51973e-06
3.51973e-06
3.51972e-06
3.51971e-06
3.51969e-06
3.51966e-06
3.51963e-06
3.51959e-06
3.51955e-06
3.5195e-06
3.51944e-06
3.51938e-06
3.51931e-06
3.51924e-06
3.51916e-06
3.51908e-06
3.51899e-06
3.5189e-06
3.51879e-06
3.51867e-06
3.51853e-06
3.51833e-06
3.51805e-06
3.51758e-06
3.51678e-06
3.51533e-06
3.51268e-06
3.50784e-06
3.49926e-06
3.48472e-06
3.46194e-06
1.77095e-05
1.78254e-05
1.78993e-05
1.79429e-05
1.79675e-05
1.79809e-05
1.79883e-05
1.79924e-05
1.79948e-05
1.79962e-05
1.79972e-05
1.79979e-05
1.79985e-05
1.7999e-05
1.79995e-05
1.79999e-05
1.80003e-05
1.80007e-05
1.8001e-05
1.80013e-05
1.80016e-05
1.80019e-05
1.80022e-05
1.80024e-05
1.80026e-05
1.80027e-05
1.80028e-05
1.80029e-05
1.8003e-05
1.8003e-05
1.8003e-05
1.8003e-05
1.80029e-05
1.80028e-05
1.80027e-05
1.80026e-05
1.80024e-05
1.80022e-05
1.80019e-05
1.80016e-05
1.80013e-05
1.8001e-05
1.80007e-05
1.80003e-05
1.79999e-05
1.79995e-05
1.7999e-05
1.79985e-05
1.79979e-05
1.79972e-05
1.79962e-05
1.79948e-05
1.79924e-05
1.79883e-05
1.79809e-05
1.79675e-05
1.79429e-05
1.78993e-05
1.78254e-05
1.77095e-05
8.15901e-05
8.21109e-05
8.24428e-05
8.26386e-05
8.27487e-05
8.28092e-05
8.28423e-05
8.28606e-05
8.28711e-05
8.28776e-05
8.28819e-05
8.28851e-05
8.28877e-05
8.28899e-05
8.28919e-05
8.28937e-05
8.28955e-05
8.28971e-05
8.28986e-05
8.29e-05
8.29012e-05
8.29024e-05
8.29035e-05
8.29044e-05
8.29052e-05
8.29059e-05
8.29064e-05
8.29068e-05
8.29071e-05
8.29072e-05
8.29072e-05
8.29071e-05
8.29068e-05
8.29064e-05
8.29059e-05
8.29052e-05
8.29044e-05
8.29035e-05
8.29024e-05
8.29012e-05
8.29e-05
8.28986e-05
8.28971e-05
8.28955e-05
8.28937e-05
8.28919e-05
8.28899e-05
8.28877e-05
8.28851e-05
8.28819e-05
8.28776e-05
8.28711e-05
8.28606e-05
8.28423e-05
8.28092e-05
8.27487e-05
8.26386e-05
8.24428e-05
8.21109e-05
8.15901e-05
0.000332818
0.000334849
0.000336139
0.0003369
0.000337327
0.000337562
0.000337691
0.000337762
0.000337803
0.000337828
0.000337844
0.000337857
0.000337866
0.000337875
0.000337882
0.000337889
0.000337896
0.000337902
0.000337907
0.000337912
0.000337917
0.000337921
0.000337925
0.000337929
0.000337932
0.000337934
0.000337936
0.000337938
0.000337939
0.000337939
0.000337939
0.000337939
0.000337938
0.000337936
0.000337934
0.000337932
0.000337929
0.000337925
0.000337921
0.000337917
0.000337912
0.000337907
0.000337902
0.000337896
0.000337889
0.000337882
0.000337875
0.000337866
0.000337857
0.000337844
0.000337828
0.000337803
0.000337762
0.000337691
0.000337562
0.000337327
0.0003369
0.000336139
0.000334849
0.000332818
0.00118118
0.0011879
0.00119215
0.00119465
0.00119606
0.00119683
0.00119726
0.00119749
0.00119762
0.00119771
0.00119776
0.0011978
0.00119783
0.00119786
0.00119788
0.0011979
0.00119792
0.00119794
0.00119796
0.00119798
0.00119799
0.00119801
0.00119802
0.00119803
0.00119804
0.00119805
0.00119805
0.00119806
0.00119806
0.00119806
0.00119806
0.00119806
0.00119806
0.00119805
0.00119805
0.00119804
0.00119803
0.00119802
0.00119801
0.00119799
0.00119798
0.00119796
0.00119794
0.00119792
0.0011979
0.00119788
0.00119786
0.00119783
0.0011978
0.00119776
0.00119771
0.00119762
0.00119749
0.00119726
0.00119683
0.00119606
0.00119465
0.00119215
0.0011879
0.00118118
0.00358613
0.00360459
0.00361621
0.00362305
0.00362689
0.003629
0.00363016
0.0036308
0.00363116
0.00363139
0.00363153
0.00363164
0.00363172
0.0036318
0.00363186
0.00363192
0.00363197
0.00363202
0.00363207
0.00363211
0.00363215
0.00363218
0.00363221
0.00363224
0.00363227
0.00363229
0.0036323
0.00363232
0.00363233
0.00363233
0.00363233
0.00363233
0.00363232
0.0036323
0.00363229
0.00363227
0.00363224
0.00363221
0.00363218
0.00363215
0.00363211
0.00363207
0.00363202
0.00363197
0.00363192
0.00363186
0.0036318
0.00363172
0.00363164
0.00363153
0.00363139
0.00363116
0.0036308
0.00363016
0.003629
0.00362689
0.00362305
0.00361621
0.00360459
0.00358613
0.00919085
0.00923222
0.00925813
0.00927333
0.00928188
0.00928658
0.00928916
0.00929059
0.0092914
0.0092919
0.00929222
0.00929246
0.00929264
0.0092928
0.00929293
0.00929306
0.00929317
0.00929328
0.00929337
0.00929346
0.00929355
0.00929362
0.00929369
0.00929375
0.0092938
0.00929385
0.00929388
0.00929391
0.00929393
0.00929394
0.00929394
0.00929393
0.00929391
0.00929388
0.00929385
0.0092938
0.00929375
0.00929369
0.00929362
0.00929355
0.00929346
0.00929337
0.00929328
0.00929317
0.00929306
0.00929293
0.0092928
0.00929264
0.00929246
0.00929222
0.0092919
0.0092914
0.00929059
0.00928916
0.00928658
0.00928188
0.00927333
0.00925813
0.00923222
0.00919085
0.0197903
0.0198656
0.0199125
0.0199399
0.0199554
0.0199639
0.0199686
0.0199711
0.0199726
0.0199735
0.0199741
0.0199745
0.0199748
0.0199751
0.0199753
0.0199756
0.0199758
0.0199759
0.0199761
0.0199763
0.0199764
0.0199765
0.0199767
0.0199768
0.0199769
0.0199769
0.019977
0.019977
0.0199771
0.0199771
0.0199771
0.0199771
0.019977
0.019977
0.0199769
0.0199769
0.0199768
0.0199767
0.0199765
0.0199764
0.0199763
0.0199761
0.0199759
0.0199758
0.0199756
0.0199753
0.0199751
0.0199748
0.0199745
0.0199741
0.0199735
0.0199726
0.0199711
0.0199686
0.0199639
0.0199554
0.0199399
0.0199125
0.0198656
0.0197903
0.036116
0.0362292
0.0362991
0.0363401
0.0363632
0.0363759
0.0363829
0.0363867
0.0363889
0.0363903
0.0363911
0.0363918
0.0363922
0.0363926
0.036393
0.0363933
0.0363935
0.0363938
0.0363941
0.0363943
0.0363945
0.0363947
0.0363948
0.036395
0.0363951
0.0363952
0.0363953
0.0363954
0.0363954
0.0363954
0.0363954
0.0363954
0.0363954
0.0363953
0.0363952
0.0363951
0.036395
0.0363948
0.0363947
0.0363945
0.0363943
0.0363941
0.0363938
0.0363935
0.0363933
0.036393
0.0363926
0.0363922
0.0363918
0.0363911
0.0363903
0.0363889
0.0363867
0.0363829
0.0363759
0.0363632
0.0363401
0.0362991
0.0362292
0.036116
0.0571367
0.057283
0.0573728
0.0574253
0.0574549
0.0574712
0.0574802
0.0574852
0.0574881
0.0574898
0.0574909
0.0574917
0.0574923
0.0574928
0.0574932
0.0574936
0.0574939
0.0574942
0.0574945
0.0574948
0.057495
0.0574953
0.0574955
0.0574956
0.0574958
0.0574959
0.057496
0.0574961
0.0574962
0.0574962
0.0574962
0.0574962
0.0574961
0.057496
0.0574959
0.0574958
0.0574956
0.0574955
0.0574953
0.057495
0.0574948
0.0574945
0.0574942
0.0574939
0.0574936
0.0574932
0.0574928
0.0574923
0.0574917
0.0574909
0.0574898
0.0574881
0.0574852
0.0574802
0.0574712
0.0574549
0.0574253
0.0573728
0.057283
0.0571367
0.0808218
0.0809929
0.0810972
0.0811583
0.0811928
0.0812119
0.0812224
0.0812282
0.0812316
0.0812336
0.0812348
0.0812357
0.0812364
0.081237
0.0812374
0.0812379
0.0812382
0.0812386
0.0812389
0.0812392
0.0812395
0.0812397
0.0812399
0.0812401
0.0812403
0.0812404
0.0812406
0.0812406
0.0812407
0.0812407
0.0812407
0.0812407
0.0812406
0.0812406
0.0812404
0.0812403
0.0812401
0.0812399
0.0812397
0.0812395
0.0812392
0.0812389
0.0812386
0.0812382
0.0812379
0.0812374
0.081237
0.0812364
0.0812357
0.0812348
0.0812336
0.0812316
0.0812282
0.0812224
0.0812119
0.0811928
0.0811583
0.0810972
0.0809929
0.0808218
0.105436
0.105625
0.105741
0.105808
0.105846
0.105867
0.105879
0.105885
0.105889
0.105891
0.105893
0.105894
0.105894
0.105895
0.105896
0.105896
0.105896
0.105897
0.105897
0.105897
0.105898
0.105898
0.105898
0.105898
0.105899
0.105899
0.105899
0.105899
0.105899
0.105899
0.105899
0.105899
0.105899
0.105899
0.105899
0.105899
0.105898
0.105898
0.105898
0.105898
0.105897
0.105897
0.105897
0.105896
0.105896
0.105896
0.105895
0.105894
0.105894
0.105893
0.105891
0.105889
0.105885
0.105879
0.105867
0.105846
0.105808
0.105741
0.105625
0.105436
0.130077
0.130282
0.130406
0.130479
0.13052
0.130543
0.130556
0.130563
0.130567
0.13057
0.130571
0.130572
0.130573
0.130574
0.130574
0.130575
0.130575
0.130576
0.130576
0.130576
0.130576
0.130577
0.130577
0.130577
0.130577
0.130577
0.130578
0.130578
0.130578
0.130578
0.130578
0.130578
0.130578
0.130578
0.130577
0.130577
0.130577
0.130577
0.130577
0.130576
0.130576
0.130576
0.130576
0.130575
0.130575
0.130574
0.130574
0.130573
0.130572
0.130571
0.13057
0.130567
0.130563
0.130556
0.130543
0.13052
0.130479
0.130406
0.130282
0.130077
0.154465
0.154685
0.154817
0.154895
0.15494
0.154965
0.154978
0.154986
0.154991
0.154993
0.154995
0.154996
0.154997
0.154997
0.154998
0.154998
0.154999
0.154999
0.155
0.155
0.155
0.155
0.155001
0.155001
0.155001
0.155001
0.155001
0.155001
0.155001
0.155001
0.155001
0.155001
0.155001
0.155001
0.155001
0.155001
0.155001
0.155001
0.155
0.155
0.155
0.155
0.154999
0.154999
0.154998
0.154998
0.154997
0.154997
0.154996
0.154995
0.154993
0.154991
0.154986
0.154978
0.154965
0.15494
0.154895
0.154817
0.154685
0.154465
0.178581
0.178814
0.178955
0.179038
0.179086
0.179113
0.179128
0.179136
0.179141
0.179144
0.179145
0.179147
0.179147
0.179148
0.179149
0.179149
0.17915
0.17915
0.17915
0.179151
0.179151
0.179151
0.179151
0.179152
0.179152
0.179152
0.179152
0.179152
0.179152
0.179152
0.179152
0.179152
0.179152
0.179152
0.179152
0.179152
0.179152
0.179151
0.179151
0.179151
0.179151
0.17915
0.17915
0.17915
0.179149
0.179149
0.179148
0.179147
0.179147
0.179145
0.179144
0.179141
0.179136
0.179128
0.179113
0.179086
0.179038
0.178955
0.178814
0.178581
0.202459
0.202705
0.202854
0.202943
0.202994
0.203022
0.203038
0.203047
0.203053
0.203056
0.203058
0.203059
0.20306
0.203061
0.203061
0.203062
0.203062
0.203062
0.203063
0.203063
0.203063
0.203064
0.203064
0.203064
0.203064
0.203064
0.203065
0.203065
0.203065
0.203065
0.203065
0.203065
0.203065
0.203065
0.203064
0.203064
0.203064
0.203064
0.203064
0.203063
0.203063
0.203063
0.203062
0.203062
0.203062
0.203061
0.203061
0.20306
0.203059
0.203058
0.203056
0.203053
0.203047
0.203038
0.203022
0.202994
0.202943
0.202854
0.202705
0.202459
0.22612
0.226378
0.226536
0.22663
0.226684
0.226715
0.226732
0.226742
0.226748
0.226751
0.226753
0.226754
0.226755
0.226756
0.226757
0.226757
0.226758
0.226758
0.226758
0.226759
0.226759
0.226759
0.226759
0.22676
0.22676
0.22676
0.22676
0.22676
0.22676
0.22676
0.22676
0.22676
0.22676
0.22676
0.22676
0.22676
0.22676
0.226759
0.226759
0.226759
0.226759
0.226758
0.226758
0.226758
0.226757
0.226757
0.226756
0.226755
0.226754
0.226753
0.226751
0.226748
0.226742
0.226732
0.226715
0.226684
0.22663
0.226536
0.226378
0.22612
0.249566
0.249837
0.250003
0.250102
0.250159
0.250192
0.25021
0.250221
0.250227
0.25023
0.250233
0.250234
0.250235
0.250236
0.250237
0.250237
0.250238
0.250238
0.250238
0.250239
0.250239
0.250239
0.250239
0.25024
0.25024
0.25024
0.25024
0.25024
0.25024
0.25024
0.25024
0.25024
0.25024
0.25024
0.25024
0.25024
0.25024
0.250239
0.250239
0.250239
0.250239
0.250238
0.250238
0.250238
0.250237
0.250237
0.250236
0.250235
0.250234
0.250233
0.25023
0.250227
0.250221
0.25021
0.250192
0.250159
0.250102
0.250003
0.249837
0.249566
0.272787
0.273068
0.273242
0.273346
0.273407
0.273442
0.273462
0.273473
0.27348
0.273484
0.273486
0.273488
0.273489
0.273489
0.27349
0.273491
0.273491
0.273491
0.273492
0.273492
0.273492
0.273493
0.273493
0.273493
0.273493
0.273493
0.273493
0.273494
0.273494
0.273494
0.273494
0.273494
0.273494
0.273493
0.273493
0.273493
0.273493
0.273493
0.273493
0.273492
0.273492
0.273492
0.273491
0.273491
0.273491
0.27349
0.273489
0.273489
0.273488
0.273486
0.273484
0.27348
0.273473
0.273462
0.273442
0.273407
0.273346
0.273242
0.273068
0.272787
0.295765
0.296057
0.296238
0.296348
0.296412
0.296449
0.29647
0.296482
0.296489
0.296493
0.296496
0.296497
0.296499
0.296499
0.2965
0.296501
0.296501
0.296501
0.296502
0.296502
0.296502
0.296503
0.296503
0.296503
0.296503
0.296503
0.296503
0.296503
0.296504
0.296504
0.296504
0.296504
0.296503
0.296503
0.296503
0.296503
0.296503
0.296503
0.296503
0.296502
0.296502
0.296502
0.296501
0.296501
0.296501
0.2965
0.296499
0.296499
0.296497
0.296496
0.296493
0.296489
0.296482
0.29647
0.296449
0.296412
0.296348
0.296238
0.296057
0.295765
0.318481
0.318782
0.318971
0.319085
0.319153
0.319192
0.319215
0.319228
0.319235
0.31924
0.319242
0.319244
0.319245
0.319246
0.319247
0.319247
0.319248
0.319248
0.319249
0.319249
0.319249
0.31925
0.31925
0.31925
0.31925
0.31925
0.31925
0.31925
0.31925
0.319251
0.319251
0.31925
0.31925
0.31925
0.31925
0.31925
0.31925
0.31925
0.31925
0.319249
0.319249
0.319249
0.319248
0.319248
0.319247
0.319247
0.319246
0.319245
0.319244
0.319242
0.31924
0.319235
0.319228
0.319215
0.319192
0.319153
0.319085
0.318971
0.318782
0.318481
0.340916
0.341225
0.341421
0.34154
0.341611
0.341653
0.341676
0.34169
0.341698
0.341703
0.341706
0.341708
0.341709
0.34171
0.341711
0.341711
0.341712
0.341712
0.341713
0.341713
0.341713
0.341713
0.341714
0.341714
0.341714
0.341714
0.341714
0.341714
0.341714
0.341714
0.341714
0.341714
0.341714
0.341714
0.341714
0.341714
0.341714
0.341714
0.341713
0.341713
0.341713
0.341713
0.341712
0.341712
0.341711
0.341711
0.34171
0.341709
0.341708
0.341706
0.341703
0.341698
0.34169
0.341676
0.341653
0.341611
0.34154
0.341421
0.341225
0.340916
0.363048
0.363366
0.363568
0.363692
0.363766
0.36381
0.363835
0.36385
0.363859
0.363864
0.363867
0.363869
0.36387
0.363871
0.363872
0.363872
0.363873
0.363873
0.363874
0.363874
0.363874
0.363874
0.363875
0.363875
0.363875
0.363875
0.363875
0.363875
0.363875
0.363875
0.363875
0.363875
0.363875
0.363875
0.363875
0.363875
0.363875
0.363875
0.363874
0.363874
0.363874
0.363874
0.363873
0.363873
0.363872
0.363872
0.363871
0.36387
0.363869
0.363867
0.363864
0.363859
0.36385
0.363835
0.36381
0.363766
0.363692
0.363568
0.363366
0.363048
0.38486
0.385184
0.385393
0.385522
0.385599
0.385645
0.385672
0.385688
0.385697
0.385702
0.385706
0.385708
0.385709
0.38571
0.385711
0.385712
0.385712
0.385712
0.385713
0.385713
0.385713
0.385714
0.385714
0.385714
0.385714
0.385714
0.385714
0.385714
0.385714
0.385714
0.385714
0.385714
0.385714
0.385714
0.385714
0.385714
0.385714
0.385714
0.385714
0.385713
0.385713
0.385713
0.385712
0.385712
0.385712
0.385711
0.38571
0.385709
0.385708
0.385706
0.385702
0.385697
0.385688
0.385672
0.385645
0.385599
0.385522
0.385393
0.385184
0.38486
0.406333
0.406664
0.406878
0.407011
0.407092
0.40714
0.407169
0.407185
0.407195
0.407201
0.407205
0.407207
0.407208
0.40721
0.40721
0.407211
0.407211
0.407212
0.407212
0.407212
0.407213
0.407213
0.407213
0.407213
0.407213
0.407213
0.407213
0.407214
0.407214
0.407214
0.407214
0.407214
0.407214
0.407213
0.407213
0.407213
0.407213
0.407213
0.407213
0.407213
0.407212
0.407212
0.407212
0.407211
0.407211
0.40721
0.40721
0.407208
0.407207
0.407205
0.407201
0.407195
0.407185
0.407169
0.40714
0.407092
0.407011
0.406878
0.406664
0.406333
0.427451
0.427787
0.428006
0.428144
0.428228
0.428278
0.428308
0.428326
0.428337
0.428343
0.428347
0.428349
0.428351
0.428352
0.428353
0.428353
0.428354
0.428354
0.428354
0.428355
0.428355
0.428355
0.428355
0.428355
0.428356
0.428356
0.428356
0.428356
0.428356
0.428356
0.428356
0.428356
0.428356
0.428356
0.428356
0.428356
0.428355
0.428355
0.428355
0.428355
0.428355
0.428354
0.428354
0.428354
0.428353
0.428353
0.428352
0.428351
0.428349
0.428347
0.428343
0.428337
0.428326
0.428308
0.428278
0.428228
0.428144
0.428006
0.427787
0.427451
0.448197
0.448538
0.448762
0.448904
0.448991
0.449044
0.449076
0.449094
0.449106
0.449112
0.449116
0.449119
0.449121
0.449122
0.449123
0.449123
0.449124
0.449124
0.449124
0.449125
0.449125
0.449125
0.449125
0.449125
0.449126
0.449126
0.449126
0.449126
0.449126
0.449126
0.449126
0.449126
0.449126
0.449126
0.449126
0.449126
0.449125
0.449125
0.449125
0.449125
0.449125
0.449124
0.449124
0.449124
0.449123
0.449123
0.449122
0.449121
0.449119
0.449116
0.449112
0.449106
0.449094
0.449076
0.449044
0.448991
0.448904
0.448762
0.448538
0.448197
0.468559
0.468903
0.469131
0.469277
0.469368
0.469423
0.469456
0.469476
0.469488
0.469495
0.469499
0.469502
0.469504
0.469505
0.469506
0.469507
0.469507
0.469507
0.469508
0.469508
0.469508
0.469508
0.469509
0.469509
0.469509
0.469509
0.469509
0.469509
0.469509
0.469509
0.469509
0.469509
0.469509
0.469509
0.469509
0.469509
0.469509
0.469509
0.469508
0.469508
0.469508
0.469508
0.469507
0.469507
0.469507
0.469506
0.469505
0.469504
0.469502
0.469499
0.469495
0.469488
0.469476
0.469456
0.469423
0.469368
0.469277
0.469131
0.468903
0.468559
0.488522
0.488869
0.489101
0.489251
0.489345