/*--------------------------------*- C++ -*----------------------------------*\
| =========                 |                                                 |
| \\      /  F ield         | foam-extend: Open Source CFD                    |
|  \\    /   O peration     | Version:     4.0                                |
|   \\  /    A nd           | Web:         http://www.foam-extend.org         |
|    \\/     M anipulation  |                                                 |
\*---------------------------------------------------------------------------*/
FoamFile
{
    version     2.0;
    format      ascii;
    class       volScalarField;
    location    "590";
    object      cPlus;
}
// * * * * * * * * * * * * * * * * * * * * * * * * * * * * * * * * * * * * * //

dimensions      [0 0 0 0 0 0 0];

internalField   nonuniform List<scalar> 
6960
(
0.210717
0.210645
0.210594
0.210562
0.210545
0.210535
0.210529
0.210526
0.210524
0.210524
0.210523
0.210523
0.210522
0.210522
0.210522
0.210522
0.210522
0.210522
0.210522
0.210522
0.210522
0.210522
0.210522
0.210522
0.210522
0.210522
0.210522
0.210522
0.210522
0.210522
0.210522
0.210522
0.210522
0.210522
0.210522
0.210522
0.210522
0.210522
0.210522
0.210522
0.210522
0.210522
0.210522
0.210522
0.210522
0.210522
0.210522
0.210522
0.210523
0.210523
0.210524
0.210524
0.210526
0.210529
0.210535
0.210545
0.210562
0.210594
0.210645
0.210717
0.0504257
0.0504055
0.0503899
0.0503803
0.0503748
0.0503717
0.05037
0.0503691
0.0503686
0.0503683
0.0503681
0.050368
0.050368
0.0503679
0.0503679
0.0503679
0.0503679
0.0503679
0.0503679
0.0503679
0.0503679
0.0503679
0.0503679
0.0503679
0.0503679
0.0503679
0.0503679
0.0503679
0.0503679
0.0503679
0.0503679
0.0503679
0.0503679
0.0503679
0.0503679
0.0503679
0.0503679
0.0503679
0.0503679
0.0503679
0.0503679
0.0503679
0.0503679
0.0503679
0.0503679
0.0503679
0.0503679
0.050368
0.050368
0.0503681
0.0503683
0.0503686
0.0503691
0.05037
0.0503717
0.0503748
0.0503803
0.0503899
0.0504055
0.0504257
0.0236381
0.0236396
0.0236394
0.0236391
0.0236389
0.0236388
0.0236387
0.0236386
0.0236386
0.0236386
0.0236386
0.0236386
0.0236386
0.0236386
0.0236386
0.0236386
0.0236386
0.0236386
0.0236387
0.0236387
0.0236387
0.0236387
0.0236387
0.0236387
0.0236387
0.0236387
0.0236387
0.0236387
0.0236387
0.0236387
0.0236387
0.0236387
0.0236387
0.0236387
0.0236387
0.0236387
0.0236387
0.0236387
0.0236387
0.0236387
0.0236387
0.0236387
0.0236386
0.0236386
0.0236386
0.0236386
0.0236386
0.0236386
0.0236386
0.0236386
0.0236386
0.0236386
0.0236386
0.0236387
0.0236388
0.0236389
0.0236391
0.0236394
0.0236396
0.0236381
0.0191408
0.0191489
0.0191533
0.0191559
0.0191573
0.019158
0.0191584
0.0191586
0.0191588
0.0191588
0.0191589
0.0191589
0.019159
0.019159
0.019159
0.019159
0.019159
0.0191591
0.0191591
0.0191591
0.0191591
0.0191591
0.0191591
0.0191591
0.0191591
0.0191591
0.0191591
0.0191591
0.0191591
0.0191591
0.0191591
0.0191591
0.0191591
0.0191591
0.0191591
0.0191591
0.0191591
0.0191591
0.0191591
0.0191591
0.0191591
0.0191591
0.0191591
0.019159
0.019159
0.019159
0.019159
0.019159
0.0191589
0.0191589
0.0191588
0.0191588
0.0191586
0.0191584
0.019158
0.0191573
0.0191559
0.0191533
0.0191489
0.0191408
0.0186001
0.01861
0.0186157
0.018619
0.0186209
0.0186219
0.0186224
0.0186227
0.0186229
0.018623
0.018623
0.0186231
0.0186231
0.0186231
0.0186231
0.0186232
0.0186232
0.0186232
0.0186232
0.0186232
0.0186232
0.0186232
0.0186233
0.0186233
0.0186233
0.0186233
0.0186233
0.0186233
0.0186233
0.0186233
0.0186233
0.0186233
0.0186233
0.0186233
0.0186233
0.0186233
0.0186233
0.0186233
0.0186232
0.0186232
0.0186232
0.0186232
0.0186232
0.0186232
0.0186232
0.0186231
0.0186231
0.0186231
0.0186231
0.018623
0.018623
0.0186229
0.0186227
0.0186224
0.0186219
0.0186209
0.018619
0.0186157
0.01861
0.0186001
0.0187636
0.0187741
0.0187803
0.0187838
0.0187857
0.0187868
0.0187874
0.0187877
0.0187879
0.018788
0.0187881
0.0187881
0.0187882
0.0187882
0.0187882
0.0187882
0.0187882
0.0187883
0.0187883
0.0187883
0.0187883
0.0187883
0.0187883
0.0187883
0.0187883
0.0187884
0.0187884
0.0187884
0.0187884
0.0187884
0.0187884
0.0187884
0.0187884
0.0187884
0.0187884
0.0187883
0.0187883
0.0187883
0.0187883
0.0187883
0.0187883
0.0187883
0.0187883
0.0187882
0.0187882
0.0187882
0.0187882
0.0187882
0.0187881
0.0187881
0.018788
0.0187879
0.0187877
0.0187874
0.0187868
0.0187857
0.0187838
0.0187803
0.0187741
0.0187636
0.0190671
0.019078
0.0190844
0.0190881
0.0190901
0.0190912
0.0190918
0.0190921
0.0190923
0.0190924
0.0190925
0.0190926
0.0190926
0.0190926
0.0190927
0.0190927
0.0190927
0.0190927
0.0190927
0.0190927
0.0190928
0.0190928
0.0190928
0.0190928
0.0190928
0.0190928
0.0190928
0.0190928
0.0190928
0.0190928
0.0190928
0.0190928
0.0190928
0.0190928
0.0190928
0.0190928
0.0190928
0.0190928
0.0190928
0.0190928
0.0190927
0.0190927
0.0190927
0.0190927
0.0190927
0.0190927
0.0190926
0.0190926
0.0190926
0.0190925
0.0190924
0.0190923
0.0190921
0.0190918
0.0190912
0.0190901
0.0190881
0.0190844
0.019078
0.0190671
0.0194188
0.01943
0.0194366
0.0194404
0.0194425
0.0194437
0.0194443
0.0194446
0.0194448
0.019445
0.019445
0.0194451
0.0194451
0.0194451
0.0194452
0.0194452
0.0194452
0.0194452
0.0194453
0.0194453
0.0194453
0.0194453
0.0194453
0.0194453
0.0194453
0.0194453
0.0194453
0.0194453
0.0194453
0.0194453
0.0194453
0.0194453
0.0194453
0.0194453
0.0194453
0.0194453
0.0194453
0.0194453
0.0194453
0.0194453
0.0194453
0.0194453
0.0194452
0.0194452
0.0194452
0.0194452
0.0194451
0.0194451
0.0194451
0.019445
0.019445
0.0194448
0.0194446
0.0194443
0.0194437
0.0194425
0.0194404
0.0194366
0.01943
0.0194188
0.0198072
0.0198188
0.0198257
0.0198296
0.0198318
0.019833
0.0198336
0.019834
0.0198342
0.0198343
0.0198344
0.0198344
0.0198345
0.0198345
0.0198345
0.0198345
0.0198346
0.0198346
0.0198346
0.0198346
0.0198346
0.0198346
0.0198347
0.0198347
0.0198347
0.0198347
0.0198347
0.0198347
0.0198347
0.0198347
0.0198347
0.0198347
0.0198347
0.0198347
0.0198347
0.0198347
0.0198347
0.0198347
0.0198346
0.0198346
0.0198346
0.0198346
0.0198346
0.0198346
0.0198345
0.0198345
0.0198345
0.0198345
0.0198344
0.0198344
0.0198343
0.0198342
0.019834
0.0198336
0.019833
0.0198318
0.0198296
0.0198257
0.0198188
0.0198072
0.0202349
0.0202469
0.020254
0.0202581
0.0202604
0.0202616
0.0202623
0.0202626
0.0202628
0.020263
0.0202631
0.0202631
0.0202631
0.0202632
0.0202632
0.0202632
0.0202633
0.0202633
0.0202633
0.0202633
0.0202633
0.0202633
0.0202634
0.0202634
0.0202634
0.0202634
0.0202634
0.0202634
0.0202634
0.0202634
0.0202634
0.0202634
0.0202634
0.0202634
0.0202634
0.0202634
0.0202634
0.0202634
0.0202633
0.0202633
0.0202633
0.0202633
0.0202633
0.0202633
0.0202632
0.0202632
0.0202632
0.0202631
0.0202631
0.0202631
0.020263
0.0202628
0.0202626
0.0202623
0.0202616
0.0202604
0.0202581
0.020254
0.0202469
0.0202349
0.0207073
0.0207199
0.0207273
0.0207315
0.0207339
0.0207352
0.0207359
0.0207362
0.0207365
0.0207366
0.0207367
0.0207367
0.0207368
0.0207368
0.0207368
0.0207369
0.0207369
0.0207369
0.0207369
0.0207369
0.020737
0.020737
0.020737
0.020737
0.020737
0.020737
0.020737
0.020737
0.020737
0.020737
0.020737
0.020737
0.020737
0.020737
0.020737
0.020737
0.020737
0.020737
0.020737
0.020737
0.0207369
0.0207369
0.0207369
0.0207369
0.0207369
0.0207368
0.0207368
0.0207368
0.0207367
0.0207367
0.0207366
0.0207365
0.0207362
0.0207359
0.0207352
0.0207339
0.0207315
0.0207273
0.0207199
0.0207073
0.0212318
0.0212449
0.0212526
0.0212571
0.0212595
0.0212609
0.0212616
0.021262
0.0212622
0.0212624
0.0212625
0.0212625
0.0212626
0.0212626
0.0212626
0.0212627
0.0212627
0.0212627
0.0212627
0.0212627
0.0212628
0.0212628
0.0212628
0.0212628
0.0212628
0.0212628
0.0212628
0.0212628
0.0212628
0.0212628
0.0212628
0.0212628
0.0212628
0.0212628
0.0212628
0.0212628
0.0212628
0.0212628
0.0212628
0.0212628
0.0212627
0.0212627
0.0212627
0.0212627
0.0212627
0.0212626
0.0212626
0.0212626
0.0212625
0.0212625
0.0212624
0.0212622
0.021262
0.0212616
0.0212609
0.0212595
0.0212571
0.0212526
0.0212449
0.0212318
0.0218173
0.0218311
0.0218391
0.0218438
0.0218464
0.0218478
0.0218485
0.021849
0.0218492
0.0218494
0.0218494
0.0218495
0.0218496
0.0218496
0.0218496
0.0218497
0.0218497
0.0218497
0.0218497
0.0218497
0.0218498
0.0218498
0.0218498
0.0218498
0.0218498
0.0218498
0.0218498
0.0218498
0.0218498
0.0218498
0.0218498
0.0218498
0.0218498
0.0218498
0.0218498
0.0218498
0.0218498
0.0218498
0.0218498
0.0218498
0.0218497
0.0218497
0.0218497
0.0218497
0.0218497
0.0218496
0.0218496
0.0218496
0.0218495
0.0218494
0.0218494
0.0218492
0.021849
0.0218485
0.0218478
0.0218464
0.0218438
0.0218391
0.0218311
0.0218173
0.022475
0.0224896
0.0224981
0.022503
0.0225057
0.0225072
0.022508
0.0225084
0.0225087
0.0225088
0.0225089
0.022509
0.0225091
0.0225091
0.0225091
0.0225092
0.0225092
0.0225092
0.0225092
0.0225093
0.0225093
0.0225093
0.0225093
0.0225093
0.0225093
0.0225093
0.0225094
0.0225094
0.0225094
0.0225094
0.0225094
0.0225094
0.0225094
0.0225094
0.0225093
0.0225093
0.0225093
0.0225093
0.0225093
0.0225093
0.0225093
0.0225092
0.0225092
0.0225092
0.0225092
0.0225091
0.0225091
0.0225091
0.022509
0.0225089
0.0225088
0.0225087
0.0225084
0.022508
0.0225072
0.0225057
0.022503
0.0224981
0.0224896
0.022475
0.0232194
0.0232348
0.0232438
0.023249
0.0232519
0.0232535
0.0232544
0.0232549
0.0232551
0.0232553
0.0232554
0.0232555
0.0232555
0.0232556
0.0232556
0.0232556
0.0232557
0.0232557
0.0232557
0.0232557
0.0232557
0.0232558
0.0232558
0.0232558
0.0232558
0.0232558
0.0232558
0.0232558
0.0232558
0.0232558
0.0232558
0.0232558
0.0232558
0.0232558
0.0232558
0.0232558
0.0232558
0.0232558
0.0232558
0.0232557
0.0232557
0.0232557
0.0232557
0.0232557
0.0232556
0.0232556
0.0232556
0.0232555
0.0232555
0.0232554
0.0232553
0.0232551
0.0232549
0.0232544
0.0232535
0.0232519
0.023249
0.0232438
0.0232348
0.0232194
0.0240691
0.0240855
0.0240951
0.0241006
0.0241037
0.0241054
0.0241064
0.0241069
0.0241072
0.0241073
0.0241075
0.0241075
0.0241076
0.0241076
0.0241077
0.0241077
0.0241077
0.0241078
0.0241078
0.0241078
0.0241078
0.0241079
0.0241079
0.0241079
0.0241079
0.0241079
0.0241079
0.0241079
0.0241079
0.0241079
0.0241079
0.0241079
0.0241079
0.0241079
0.0241079
0.0241079
0.0241079
0.0241079
0.0241079
0.0241078
0.0241078
0.0241078
0.0241078
0.0241077
0.0241077
0.0241077
0.0241076
0.0241076
0.0241075
0.0241075
0.0241073
0.0241072
0.0241069
0.0241064
0.0241054
0.0241037
0.0241006
0.0240951
0.0240855
0.0240691
0.0250485
0.0250662
0.0250765
0.0250825
0.0250858
0.0250876
0.0250886
0.0250892
0.0250895
0.0250897
0.0250898
0.0250899
0.0250899
0.02509
0.02509
0.0250901
0.0250901
0.0250901
0.0250902
0.0250902
0.0250902
0.0250902
0.0250902
0.0250903
0.0250903
0.0250903
0.0250903
0.0250903
0.0250903
0.0250903
0.0250903
0.0250903
0.0250903
0.0250903
0.0250903
0.0250903
0.0250903
0.0250902
0.0250902
0.0250902
0.0250902
0.0250902
0.0250901
0.0250901
0.0250901
0.02509
0.02509
0.0250899
0.0250899
0.0250898
0.0250897
0.0250895
0.0250892
0.0250886
0.0250876
0.0250858
0.0250825
0.0250765
0.0250662
0.0250485
0.0261907
0.02621
0.0262212
0.0262277
0.0262313
0.0262333
0.0262344
0.026235
0.0262353
0.0262355
0.0262357
0.0262358
0.0262358
0.0262359
0.0262359
0.026236
0.026236
0.026236
0.0262361
0.0262361
0.0262361
0.0262361
0.0262362
0.0262362
0.0262362
0.0262362
0.0262362
0.0262362
0.0262362
0.0262362
0.0262362
0.0262362
0.0262362
0.0262362
0.0262362
0.0262362
0.0262362
0.0262362
0.0262361
0.0262361
0.0262361
0.0262361
0.026236
0.026236
0.026236
0.0262359
0.0262359
0.0262358
0.0262358
0.0262357
0.0262355
0.0262353
0.026235
0.0262344
0.0262333
0.0262313
0.0262277
0.0262212
0.02621
0.0261907
0.0275417
0.0275628
0.0275752
0.0275823
0.0275863
0.0275885
0.0275897
0.0275903
0.0275907
0.0275909
0.0275911
0.0275912
0.0275913
0.0275913
0.0275914
0.0275914
0.0275915
0.0275915
0.0275915
0.0275916
0.0275916
0.0275916
0.0275916
0.0275917
0.0275917
0.0275917
0.0275917
0.0275917
0.0275917
0.0275917
0.0275917
0.0275917
0.0275917
0.0275917
0.0275917
0.0275917
0.0275917
0.0275916
0.0275916
0.0275916
0.0275916
0.0275915
0.0275915
0.0275915
0.0275914
0.0275914
0.0275913
0.0275913
0.0275912
0.0275911
0.0275909
0.0275907
0.0275903
0.0275897
0.0275885
0.0275863
0.0275823
0.0275752
0.0275628
0.0275417
0.0291664
0.02919
0.0292038
0.0292117
0.0292162
0.0292187
0.02922
0.0292208
0.0292212
0.0292214
0.0292216
0.0292217
0.0292218
0.0292219
0.0292219
0.029222
0.029222
0.0292221
0.0292221
0.0292221
0.0292222
0.0292222
0.0292222
0.0292222
0.0292223
0.0292223
0.0292223
0.0292223
0.0292223
0.0292223
0.0292223
0.0292223
0.0292223
0.0292223
0.0292223
0.0292223
0.0292222
0.0292222
0.0292222
0.0292222
0.0292221
0.0292221
0.0292221
0.029222
0.029222
0.0292219
0.0292219
0.0292218
0.0292217
0.0292216
0.0292214
0.0292212
0.0292208
0.02922
0.0292187
0.0292162
0.0292117
0.0292038
0.02919
0.0291664
0.0311606
0.0311874
0.0312032
0.0312123
0.0312174
0.0312202
0.0312217
0.0312226
0.031223
0.0312233
0.0312235
0.0312236
0.0312237
0.0312238
0.0312239
0.031224
0.031224
0.0312241
0.0312241
0.0312241
0.0312242
0.0312242
0.0312242
0.0312243
0.0312243
0.0312243
0.0312243
0.0312243
0.0312244
0.0312244
0.0312244
0.0312244
0.0312243
0.0312243
0.0312243
0.0312243
0.0312243
0.0312242
0.0312242
0.0312242
0.0312241
0.0312241
0.0312241
0.031224
0.031224
0.0312239
0.0312238
0.0312237
0.0312236
0.0312235
0.0312233
0.031223
0.0312226
0.0312217
0.0312202
0.0312174
0.0312123
0.0312032
0.0311874
0.0311606
0.0336693
0.0337006
0.0337189
0.0337296
0.0337355
0.0337388
0.0337406
0.0337416
0.0337422
0.0337425
0.0337427
0.0337429
0.033743
0.0337431
0.0337431
0.0337432
0.0337433
0.0337433
0.0337434
0.0337434
0.0337435
0.0337435
0.0337436
0.0337436
0.0337436
0.0337436
0.0337437
0.0337437
0.0337437
0.0337437
0.0337437
0.0337437
0.0337437
0.0337437
0.0337436
0.0337436
0.0337436
0.0337436
0.0337435
0.0337435
0.0337434
0.0337434
0.0337433
0.0337433
0.0337432
0.0337431
0.0337431
0.033743
0.0337429
0.0337427
0.0337425
0.0337422
0.0337416
0.0337406
0.0337388
0.0337355
0.0337296
0.0337189
0.0337006
0.0336693
0.0369155
0.0369529
0.036975
0.0369878
0.036995
0.036999
0.0370011
0.0370023
0.037003
0.0370034
0.0370037
0.0370039
0.037004
0.0370041
0.0370042
0.0370043
0.0370044
0.0370045
0.0370045
0.0370046
0.0370046
0.0370047
0.0370047
0.0370048
0.0370048
0.0370048
0.0370049
0.0370049
0.0370049
0.0370049
0.0370049
0.0370049
0.0370049
0.0370049
0.0370048
0.0370048
0.0370048
0.0370047
0.0370047
0.0370046
0.0370046
0.0370045
0.0370045
0.0370044
0.0370043
0.0370042
0.0370041
0.037004
0.0370039
0.0370037
0.0370034
0.037003
0.0370023
0.0370011
0.036999
0.036995
0.0369878
0.036975
0.0369529
0.0369155
0.0412381
0.0412844
0.0413119
0.0413278
0.0413368
0.0413417
0.0413444
0.0413459
0.0413468
0.0413473
0.0413476
0.0413478
0.041348
0.0413482
0.0413483
0.0413484
0.0413485
0.0413486
0.0413487
0.0413487
0.0413488
0.0413489
0.0413489
0.041349
0.041349
0.0413491
0.0413491
0.0413491
0.0413491
0.0413491
0.0413491
0.0413491
0.0413491
0.0413491
0.0413491
0.041349
0.041349
0.0413489
0.0413489
0.0413488
0.0413487
0.0413487
0.0413486
0.0413485
0.0413484
0.0413483
0.0413482
0.041348
0.0413478
0.0413476
0.0413473
0.0413468
0.0413459
0.0413444
0.0413417
0.0413368
0.0413278
0.0413119
0.0412844
0.0412381
0.0471204
0.0471794
0.0472146
0.047235
0.0472465
0.0472528
0.0472563
0.0472582
0.0472593
0.04726
0.0472604
0.0472607
0.0472609
0.0472611
0.0472613
0.0472614
0.0472615
0.0472616
0.0472618
0.0472619
0.0472619
0.047262
0.0472621
0.0472622
0.0472622
0.0472623
0.0472623
0.0472623
0.0472624
0.0472624
0.0472624
0.0472624
0.0472623
0.0472623
0.0472623
0.0472622
0.0472622
0.0472621
0.047262
0.0472619
0.0472619
0.0472618
0.0472616
0.0472615
0.0472614
0.0472613
0.0472611
0.0472609
0.0472607
0.0472604
0.04726
0.0472593
0.0472582
0.0472563
0.0472528
0.0472465
0.047235
0.0472146
0.0471794
0.0471204
0.0551632
0.0552396
0.0552853
0.0553119
0.0553269
0.0553351
0.0553397
0.0553422
0.0553436
0.0553445
0.055345
0.0553454
0.0553457
0.0553459
0.0553461
0.0553463
0.0553465
0.0553467
0.0553468
0.0553469
0.055347
0.0553471
0.0553472
0.0553473
0.0553474
0.0553475
0.0553475
0.0553475
0.0553476
0.0553476
0.0553476
0.0553476
0.0553475
0.0553475
0.0553475
0.0553474
0.0553473
0.0553472
0.0553471
0.055347
0.0553469
0.0553468
0.0553467
0.0553465
0.0553463
0.0553461
0.0553459
0.0553457
0.0553454
0.055345
0.0553445
0.0553436
0.0553422
0.0553397
0.0553351
0.0553269
0.0553119
0.0552853
0.0552396
0.0551632
0.0659497
0.0660481
0.0661071
0.0661415
0.0661609
0.0661716
0.0661775
0.0661807
0.0661826
0.0661837
0.0661844
0.0661849
0.0661853
0.0661856
0.0661859
0.0661861
0.0661863
0.0661865
0.0661867
0.0661869
0.066187
0.0661872
0.0661873
0.0661874
0.0661875
0.0661876
0.0661876
0.0661877
0.0661877
0.0661877
0.0661877
0.0661877
0.0661877
0.0661876
0.0661876
0.0661875
0.0661874
0.0661873
0.0661872
0.066187
0.0661869
0.0661867
0.0661865
0.0661863
0.0661861
0.0661859
0.0661856
0.0661853
0.0661849
0.0661844
0.0661837
0.0661826
0.0661807
0.0661775
0.0661716
0.0661609
0.0661415
0.0661071
0.0660481
0.0659497
0.0798153
0.0799388
0.0800129
0.0800562
0.0800806
0.0800941
0.0801015
0.0801057
0.080108
0.0801094
0.0801103
0.080111
0.0801114
0.0801118
0.0801122
0.0801124
0.0801127
0.0801129
0.0801132
0.0801134
0.0801136
0.0801137
0.0801139
0.080114
0.0801141
0.0801142
0.0801143
0.0801144
0.0801144
0.0801144
0.0801144
0.0801144
0.0801144
0.0801143
0.0801142
0.0801141
0.080114
0.0801139
0.0801137
0.0801136
0.0801134
0.0801132
0.0801129
0.0801127
0.0801124
0.0801122
0.0801118
0.0801114
0.080111
0.0801103
0.0801094
0.080108
0.0801057
0.0801015
0.0800941
0.0800806
0.0800562
0.0800129
0.0799388
0.0798153
0.0966609
0.0968101
0.0968997
0.096952
0.0969816
0.096998
0.0970071
0.0970121
0.097015
0.0970167
0.0970178
0.0970185
0.0970191
0.0970196
0.0970199
0.0970203
0.0970206
0.0970209
0.0970211
0.0970214
0.0970216
0.0970218
0.097022
0.0970221
0.0970223
0.0970224
0.0970225
0.0970225
0.0970226
0.0970226
0.0970226
0.0970226
0.0970225
0.0970225
0.0970224
0.0970223
0.0970221
0.097022
0.0970218
0.0970216
0.0970214
0.0970211
0.0970209
0.0970206
0.0970203
0.0970199
0.0970196
0.0970191
0.0970185
0.0970178
0.0970167
0.097015
0.0970121
0.0970071
0.096998
0.0969816
0.096952
0.0968997
0.0968101
0.0966609
0.115971
0.116145
0.116249
0.116309
0.116344
0.116363
0.116374
0.11638
0.116383
0.116385
0.116386
0.116387
0.116388
0.116388
0.116389
0.116389
0.11639
0.11639
0.11639
0.11639
0.116391
0.116391
0.116391
0.116391
0.116391
0.116391
0.116392
0.116392
0.116392
0.116392
0.116392
0.116392
0.116392
0.116392
0.116391
0.116391
0.116391
0.116391
0.116391
0.116391
0.11639
0.11639
0.11639
0.11639
0.116389
0.116389
0.116388
0.116388
0.116387
0.116386
0.116385
0.116383
0.11638
0.116374
0.116363
0.116344
0.116309
0.116249
0.116145
0.115971
0.137033
0.137227
0.137344
0.137413
0.137452
0.137473
0.137485
0.137492
0.137496
0.137498
0.1375
0.137501
0.137501
0.137502
0.137502
0.137503
0.137503
0.137504
0.137504
0.137504
0.137504
0.137505
0.137505
0.137505
0.137505
0.137505
0.137505
0.137506
0.137506
0.137506
0.137506
0.137506
0.137506
0.137505
0.137505
0.137505
0.137505
0.137505
0.137505
0.137504
0.137504
0.137504
0.137504
0.137503
0.137503
0.137502
0.137502
0.137501
0.137501
0.1375
0.137498
0.137496
0.137492
0.137485
0.137473
0.137452
0.137413
0.137344
0.137227
0.137033
0.159177
0.15939
0.159519
0.159594
0.159637
0.159661
0.159674
0.159682
0.159686
0.159689
0.15969
0.159691
0.159692
0.159693
0.159693
0.159694
0.159694
0.159694
0.159695
0.159695
0.159695
0.159695
0.159696
0.159696
0.159696
0.159696
0.159696
0.159696
0.159696
0.159696
0.159696
0.159696
0.159696
0.159696
0.159696
0.159696
0.159696
0.159696
0.159695
0.159695
0.159695
0.159695
0.159694
0.159694
0.159694
0.159693
0.159693
0.159692
0.159691
0.15969
0.159689
0.159686
0.159682
0.159674
0.159661
0.159637
0.159594
0.159519
0.15939
0.159177
0.18191
0.182139
0.182278
0.182359
0.182406
0.182432
0.182447
0.182455
0.18246
0.182462
0.182464
0.182465
0.182466
0.182467
0.182467
0.182468
0.182468
0.182469
0.182469
0.182469
0.18247
0.18247
0.18247
0.18247
0.18247
0.182471
0.182471
0.182471
0.182471
0.182471
0.182471
0.182471
0.182471
0.182471
0.182471
0.18247
0.18247
0.18247
0.18247
0.18247
0.182469
0.182469
0.182469
0.182468
0.182468
0.182467
0.182467
0.182466
0.182465
0.182464
0.182462
0.18246
0.182455
0.182447
0.182432
0.182406
0.182359
0.182278
0.182139
0.18191
0.204913
0.205156
0.205304
0.205392
0.205442
0.20547
0.205486
0.205495
0.2055
0.205503
0.205505
0.205507
0.205507
0.205508
0.205509
0.205509
0.20551
0.20551
0.20551
0.205511
0.205511
0.205511
0.205511
0.205512
0.205512
0.205512
0.205512
0.205512
0.205512
0.205512
0.205512
0.205512
0.205512
0.205512
0.205512
0.205512
0.205512
0.205511
0.205511
0.205511
0.205511
0.20551
0.20551
0.20551
0.205509
0.205509
0.205508
0.205507
0.205507
0.205505
0.205503
0.2055
0.205495
0.205486
0.20547
0.205442
0.205392
0.205304
0.205156
0.204913
0.227994
0.228251
0.228408
0.228501
0.228555
0.228585
0.228602
0.228612
0.228617
0.228621
0.228623
0.228624
0.228625
0.228626
0.228626
0.228627
0.228627
0.228628
0.228628
0.228628
0.228629
0.228629
0.228629
0.228629
0.22863
0.22863
0.22863
0.22863
0.22863
0.22863
0.22863
0.22863
0.22863
0.22863
0.22863
0.22863
0.228629
0.228629
0.228629
0.228629
0.228628
0.228628
0.228628
0.228627
0.228627
0.228626
0.228626
0.228625
0.228624
0.228623
0.228621
0.228617
0.228612
0.228602
0.228585
0.228555
0.228501
0.228408
0.228251
0.227994
0.251037
0.251306
0.251472
0.25157
0.251627
0.25166
0.251678
0.251689
0.251695
0.251699
0.251701
0.251702
0.251703
0.251704
0.251705
0.251705
0.251706
0.251706
0.251706
0.251707
0.251707
0.251707
0.251707
0.251708
0.251708
0.251708
0.251708
0.251708
0.251708
0.251708
0.251708
0.251708
0.251708
0.251708
0.251708
0.251708
0.251708
0.251707
0.251707
0.251707
0.251707
0.251706
0.251706
0.251706
0.251705
0.251705
0.251704
0.251703
0.251702
0.251701
0.251699
0.251695
0.251689
0.251678
0.25166
0.251627
0.25157
0.251472
0.251306
0.251037
0.273966
0.274246
0.27442
0.274524
0.274584
0.274619
0.274639
0.27465
0.274657
0.274661
0.274663
0.274665
0.274666
0.274666
0.274667
0.274668
0.274668
0.274668
0.274669
0.274669
0.274669
0.27467
0.27467
0.27467
0.27467
0.27467
0.27467
0.274671
0.274671
0.274671
0.274671
0.274671
0.274671
0.27467
0.27467
0.27467
0.27467
0.27467
0.27467
0.274669
0.274669
0.274669
0.274668
0.274668
0.274668
0.274667
0.274666
0.274666
0.274665
0.274663
0.274661
0.274657
0.27465
0.274639
0.274619
0.274584
0.274524
0.27442
0.274246
0.273966
0.296726
0.297017
0.297198
0.297307
0.297371
0.297408
0.297429
0.297441
0.297448
0.297453
0.297455
0.297457
0.297458
0.297459
0.297459
0.29746
0.29746
0.297461
0.297461
0.297461
0.297462
0.297462
0.297462
0.297462
0.297463
0.297463
0.297463
0.297463
0.297463
0.297463
0.297463
0.297463
0.297463
0.297463
0.297463
0.297463
0.297462
0.297462
0.297462
0.297462
0.297461
0.297461
0.297461
0.29746
0.29746
0.297459
0.297459
0.297458
0.297457
0.297455
0.297453
0.297448
0.297441
0.297429
0.297408
0.297371
0.297307
0.297198
0.297017
0.296726
0.319275
0.319576
0.319764
0.319878
0.319946
0.319985
0.320008
0.32002
0.320028
0.320032
0.320035
0.320037
0.320038
0.320039
0.32004
0.32004
0.320041
0.320041
0.320041
0.320042
0.320042
0.320042
0.320042
0.320043
0.320043
0.320043
0.320043
0.320043
0.320043
0.320043
0.320043
0.320043
0.320043
0.320043
0.320043
0.320043
0.320043
0.320042
0.320042
0.320042
0.320042
0.320041
0.320041
0.320041
0.32004
0.32004
0.320039
0.320038
0.320037
0.320035
0.320032
0.320028
0.32002
0.320008
0.319985
0.319946
0.319878
0.319764
0.319576
0.319275
0.341579
0.341888
0.342083
0.342203
0.342274
0.342315
0.342339
0.342353
0.342361
0.342366
0.342369
0.34237
0.342372
0.342373
0.342373
0.342374
0.342374
0.342375
0.342375
0.342375
0.342376
0.342376
0.342376
0.342376
0.342376
0.342377
0.342377
0.342377
0.342377
0.342377
0.342377
0.342377
0.342377
0.342377
0.342377
0.342376
0.342376
0.342376
0.342376
0.342376
0.342375
0.342375
0.342375
0.342374
0.342374
0.342373
0.342373
0.342372
0.34237
0.342369
0.342366
0.342361
0.342353
0.342339
0.342315
0.342274
0.342203
0.342083
0.341888
0.341579
0.363608
0.363925
0.364127
0.364251
0.364325
0.364369
0.364394
0.364409
0.364417
0.364423
0.364426
0.364428
0.364429
0.36443
0.364431
0.364431
0.364432
0.364432
0.364433
0.364433
0.364433
0.364433
0.364434
0.364434
0.364434
0.364434
0.364434
0.364434
0.364434
0.364434
0.364434
0.364434
0.364434
0.364434
0.364434
0.364434
0.364434
0.364434
0.364433
0.364433
0.364433
0.364433
0.364432
0.364432
0.364431
0.364431
0.36443
0.364429
0.364428
0.364426
0.364423
0.364417
0.364409
0.364394
0.364369
0.364325
0.364251
0.364127
0.363925
0.363608
0.385336
0.38566
0.385868
0.385997
0.386075
0.386121
0.386147
0.386163
0.386172
0.386178
0.386181
0.386183
0.386185
0.386186
0.386186
0.386187
0.386187
0.386188
0.386188
0.386188
0.386189
0.386189
0.386189
0.386189
0.38619
0.38619
0.38619
0.38619
0.38619
0.38619
0.38619
0.38619
0.38619
0.38619
0.38619
0.38619
0.386189
0.386189
0.386189
0.386189
0.386188
0.386188
0.386188
0.386187
0.386187
0.386186
0.386186
0.386185
0.386183
0.386181
0.386178
0.386172
0.386163
0.386147
0.386121
0.386075
0.385997
0.385868
0.38566
0.385336
0.406741
0.407071
0.407285
0.407419
0.4075
0.407548
0.407576
0.407593
0.407603
0.407608
0.407612
0.407614
0.407616
0.407617
0.407618
0.407618
0.407619
0.407619
0.407619
0.40762
0.40762
0.40762
0.40762
0.40762
0.407621
0.407621
0.407621
0.407621
0.407621
0.407621
0.407621
0.407621
0.407621
0.407621
0.407621
0.407621
0.40762
0.40762
0.40762
0.40762
0.40762
0.407619
0.407619
0.407619
0.407618
0.407618
0.407617
0.407616
0.407614
0.407612
0.407608
0.407603
0.407593
0.407576
0.407548
0.4075
0.407419
0.407285
0.407071
0.406741
0.427803
0.428138
0.428357
0.428495
0.428579
0.42863
0.42866
0.428677
0.428688
0.428694
0.428698
0.4287
0.428702
0.428703
0.428704
0.428704
0.428705
0.428705
0.428706
0.428706
0.428706
0.428706
0.428707
0.428707
0.428707
0.428707
0.428707
0.428707
0.428707
0.428707
0.428707
0.428707
0.428707
0.428707
0.428707
0.428707
0.428707
0.428707
0.428706
0.428706
0.428706
0.428706
0.428705
0.428705
0.428704
0.428704
0.428703
0.428702
0.4287
0.428698
0.428694
0.428688
0.428677
0.42866
0.42863
0.428579
0.428495
0.428357
0.428138
0.427803
0.448502
0.448843
0.449067
0.449209
0.449296
0.449349
0.44938
0.449399
0.44941
0.449417
0.449421
0.449424
0.449425
0.449426
0.449427
0.449428
0.449428
0.449429
0.449429
0.449429
0.449429
0.44943
0.44943
0.44943
0.44943
0.44943
0.44943
0.44943
0.44943
0.44943
0.44943
0.44943
0.44943
0.44943
0.44943
0.44943
0.44943
0.44943
0.44943
0.449429
0.449429
0.449429
0.449429
0.449428
0.449428
0.449427
0.449426
0.449425
0.449424
0.449421
0.449417
0.44941
0.449399
0.44938
0.449349
0.449296
0.449209
0.449067
0.448843
0.448502
0.468824
0.469168
0.469397
0.469543
0.469633
0.469688
0.469722
0.469741
0.469753
0.46976
0.469765
0.469768
0.469769
0.469771
0.469771
0.469772
0.469773
0.469773
0.469773
0.469773
0.469774
0.469774
0.469774
0.469774
0.469774
0.469774
0.469774
0.469775
0.469775
0.469775
0.469775
0.469775
0.469775
0.469774
0.469774
0.469774
0.469774
0.469774
0.469774
0.469774
0.469773
0.469773
0.469773
0.469773
0.469772
0.469771
0.469771
0.469769
0.469768
0.469765
0.46976
0.469753
0.469741
0.469722
0.469688
0.469633
0.469543
0.469397
0.469168
0.468824
0.488754
0.489101
0.489334
0.489484
0.489577
0.489635
0.489669
0.48969
0.489703
0.48971
0.489715
0.489718
0.48972
0.489721
0.489722
0.489723
0.489723
0.489724
0.489724
0.489724
0.489724
0.489725
0.489725
0.489725
0.489725
0.489725
0.489725
0.489725
0.489725
0.489725
0.489725
0.489725
0.489725
0.489725
0.489725
0.489725
0.489725
0.489725
0.489725
0.489724
0.489724
0.489724
0.489724
0.489723
0.489723
0.489722
0.489721
0.48972
0.489718
0.489715
0.48971
0.489703
0.48969
0.489669
0.489635
0.489577
0.489484
0.489334
0.489101
0.488754
0.508279
0.508629
0.508865
0.509018
0.509115
0.509174
0.509211
0.509233
0.509246
0.509254
0.509259
0.509262
0.509264
0.509266
0.509267
0.509267
0.509268
0.509268
0.509268
0.509269
0.509269
0.509269
0.509269
0.509269
0.509269
0.509269
0.50927
0.50927
0.50927
0.50927
0.50927
0.50927
0.50927
0.50927
0.509269
0.509269
0.509269
0.509269
0.509269
0.509269
0.509269
0.509268
0.509268
0.509268
0.509267
0.509267
0.509266
0.509264
0.509262
0.509259
0.509254
0.509246
0.509233
0.509211
0.509174
0.509115
0.509018
0.508865
0.508629
0.508279
0.527389
0.527739
0.527979
0.528135
0.528235
0.528296
0.528335
0.528358
0.528372
0.528381
0.528386
0.528389
0.528391
0.528393
0.528394
0.528394
0.528395
0.528395
0.528396
0.528396
0.528396
0.528396
0.528396
0.528396
0.528396
0.528397
0.528397
0.528397
0.528397
0.528397
0.528397
0.528397
0.528397
0.528397
0.528397
0.528396
0.528396
0.528396
0.528396
0.528396
0.528396
0.528396
0.528395
0.528395
0.528394
0.528394
0.528393
0.528391
0.528389
0.528386
0.528381
0.528372
0.528358
0.528335
0.528296
0.528235
0.528135
0.527979
0.527739
0.527389
0.546072
0.546424
0.546665
0.546825
0.546927
0.546992
0.547031
0.547056
0.547071
0.54708
0.547086
0.547089
0.547091
0.547093
0.547094
0.547095
0.547095
0.547095
0.547096
0.547096
0.547096
0.547096
0.547096
0.547096
0.547096
0.547097
0.547097
0.547097
0.547097
0.547097
0.547097
0.547097
0.547097
0.547097
0.547097
0.547096
0.547096
0.547096
0.547096
0.547096
0.547096
0.547096
0.547095
0.547095
0.547095
0.547094
0.547093
0.547091
0.547089
0.547086
0.54708
0.547071
0.547056
0.547031
0.546992
0.546927
0.546825
0.546665
0.546424
0.546072
0.564322
0.564673
0.564917
0.56508
0.565185
0.565251
0.565292
0.565318
0.565334
0.565344
0.56535
0.565354
0.565356
0.565358
0.565359
0.565359
0.56536
0.56536
0.565361
0.565361
0.565361
0.565361
0.565361
0.565361
0.565361
0.565361
0.565361
0.565361
0.565361
0.565361
0.565361
0.565361
0.565361
0.565361
0.565361
0.565361
0.565361
0.565361
0.565361
0.565361
0.565361
0.565361
0.56536
0.56536
0.565359
0.565359
0.565358
0.565356
0.565354
0.56535
0.565344
0.565334
0.565318
0.565292
0.565251
0.565185
0.56508
0.564917
0.564673
0.564322
0.58213
0.582482
0.582727
0.582892
0.583
0.583068
0.583112
0.583138
0.583155
0.583165
0.583172
0.583176
0.583179
0.58318
0.583181
0.583182
0.583183
0.583183
0.583183
0.583183
0.583184
0.583184
0.583184
0.583184
0.583184
0.583184
0.583184
0.583184
0.583184