/*--------------------------------*- C++ -*----------------------------------*\
| =========                 |                                                 |
| \\      /  F ield         | foam-extend: Open Source CFD                    |
|  \\    /   O peration     | Version:     4.0                                |
|   \\  /    A nd           | Web:         http://www.foam-extend.org         |
|    \\/     M anipulation  |                                                 |
\*---------------------------------------------------------------------------*/
FoamFile
{
    version     2.0;
    format      ascii;
    class       surfaceScalarField;
    location    "12";
    object      phi;
}
// * * * * * * * * * * * * * * * * * * * * * * * * * * * * * * * * * * * * * //

dimensions      [0 3 -1 0 0 0 0];

internalField   nonuniform List<scalar> 
13744
(
-3.15703e-25
-3.9405e-22
8.42971e-26
-4.61048e-25
1.92967e-25
-1.46445e-25
1.58692e-25
-1.15381e-25
1.19031e-25
1.7142e-26
-5.413e-26
1.07492e-25
-1.57013e-25
1.37164e-25
-2.81426e-25
1.97155e-25
-3.33812e-25
1.31839e-25
-3.22343e-25
9.62617e-26
-2.66169e-25
-1.56257e-26
-1.48833e-25
-8.82564e-26
-4.69919e-26
-1.26567e-25
4.7177e-26
-1.38025e-25
8.65011e-26
-1.03279e-25
8.33628e-26
-7.0683e-26
4.09148e-26
7.49692e-28
-4.00321e-26
6.32331e-26
-1.22182e-25
1.02971e-25
-1.9901e-25
1.10943e-25
-2.3669e-25
8.47106e-26
-2.38904e-25
6.44565e-26
-2.09312e-25
2.10737e-26
-1.4483e-25
-3.24031e-26
-7.09024e-26
-7.56472e-26
5.59062e-27
-9.21948e-26
5.42952e-26
-6.85689e-26
6.59268e-26
-4.55406e-26
4.78334e-26
-1.533e-26
-6.60607e-28
2.40197e-26
-5.76632e-26
6.08212e-26
-1.16003e-25
8.22508e-26
-1.53185e-25
6.13229e-26
-1.55827e-25
3.33362e-26
-1.33143e-25
8.47575e-27
-8.69426e-26
-1.33187e-26
-3.84182e-26
-3.28168e-26
9.55138e-27
-5.26574e-26
4.53091e-26
-3.97074e-26
5.72087e-26
-1.87024e-26
5.29966e-26
9.20768e-29
2.87206e-26
9.95109e-27
1.48953e-27
1.39051e-26
-2.99304e-26
3.23141e-26
-6.19008e-26
3.21047e-26
-8.09219e-26
2.40907e-26
-8.97632e-26
1.05262e-26
-7.43675e-26
-2.57071e-27
-4.40241e-26
-6.74316e-27
-1.64202e-27
-2.44245e-26
4.85833e-26
-3.19644e-26
8.83738e-26
-2.83678e-26
1.13328e-25
-1.7709e-26
1.10559e-25
-5.82587e-28
7.96608e-26
7.01561e-27
4.00907e-26
1.31664e-26
-6.03723e-27
1.53439e-26
-1.9479e-26
-5.00892e-27
-3.4182e-26
5.78742e-27
-2.7775e-26
-6.14561e-25
-3.93363e-22
1.88876e-25
-1.26321e-24
5.26108e-25
-5.60889e-25
4.97911e-25
-4.54277e-25
3.94231e-25
-3.79565e-26
-9.80798e-26
2.7081e-25
-4.26533e-25
4.45236e-25
-8.16325e-25
6.72057e-25
-9.88658e-25
4.98987e-25
-9.81488e-25
3.86216e-25
-8.38144e-25
1.27928e-26
-5.17084e-25
-2.29958e-25
-1.99029e-25
-4.05614e-25
1.02631e-25
-4.71322e-25
2.40527e-25
-3.89525e-25
2.39957e-25
-2.79706e-25
1.24256e-25
-3.82863e-26
-9.11813e-26
1.65634e-25
-3.31204e-25
3.175e-25
-5.79211e-25
3.68123e-25
-7.1947e-25
3.15249e-25
-7.34243e-25
2.50741e-25
-6.41867e-25
9.37689e-26
-4.64695e-25
-8.47275e-26
-2.60203e-25
-2.3538e-25
-2.56854e-26
-3.03077e-25
1.48187e-25
-2.54837e-25
2.02718e-25
-1.90821e-25
1.43264e-25
-7.5259e-26
-2.29676e-27
6.76597e-26
-1.60438e-25
1.97752e-25
-3.2844e-25
2.69602e-25
-4.56593e-25
2.15329e-25
-4.89921e-25
1.35998e-25
-4.21098e-25
3.95368e-26
-2.70744e-25
-5.11979e-26
-1.2399e-25
-1.28888e-25
1.14356e-26
-1.87257e-25
1.20161e-25
-1.39363e-25
1.76216e-25
-7.49278e-26
1.69254e-25
-1.99926e-27
8.55163e-26
4.5137e-26
-6.71117e-27
7.3748e-26
-9.88939e-26
1.30199e-25
-1.86977e-25
1.15681e-25
-2.53908e-25
8.78345e-26
-2.88441e-25
3.44609e-26
-2.39262e-25
-1.79823e-26
-1.38143e-25
-4.71446e-26
-6.65432e-27
-1.08539e-25
1.39409e-25
-1.20997e-25
2.59632e-25
-9.61321e-26
3.41664e-25
-4.71075e-26
3.30103e-25
2.6454e-26
2.3877e-25
5.40879e-26
1.10058e-25
7.86727e-26
-1.81275e-26
5.93523e-26
-6.83942e-26
-1.48449e-26
-9.50104e-26
-6.74587e-28
-1.04403e-25
-9.75753e-25
-3.92189e-22
2.78403e-25
-2.3031e-24
8.30363e-25
-1.20536e-24
8.53622e-25
-9.79248e-25
6.98817e-25
-2.26814e-25
-1.03633e-25
3.944e-25
-6.70775e-25
8.47695e-25
-1.34522e-24
1.32836e-24
-1.65372e-24
1.07847e-24
-1.67155e-24
8.59718e-25
-1.45789e-24
1.27975e-25
-9.45787e-25
-3.6054e-25
-4.01232e-25
-7.71314e-25
1.25833e-25
-9.34372e-25
3.79081e-25
-8.32203e-25
3.90885e-25
-6.19421e-25
2.10512e-25
-1.44941e-25
-1.27216e-25
2.60917e-25
-5.25185e-25
5.8982e-25
-9.59167e-25
7.13396e-25
-1.22112e-24
6.56297e-25
-1.25703e-24
5.37872e-25
-1.10259e-24
2.21824e-25
-8.19847e-25
-1.36412e-25
-4.90473e-25
-4.51842e-25
-8.99185e-26
-5.96541e-25
2.2877e-25
-5.36188e-25
3.40787e-25
-4.24937e-25
2.40458e-25
-1.86746e-25
-2.39341e-27
1.08583e-25
-2.57444e-25
3.85229e-25
-5.35759e-25
5.2802e-25
-7.67741e-25
4.35285e-25
-8.4766e-25
2.87169e-25
-7.33994e-25
8.16048e-26
-4.72428e-25
-1.14945e-25
-2.23913e-25
-2.91455e-25
-1.1472e-27
-3.98563e-25
1.85731e-25
-2.94482e-25
2.99233e-25
-1.59986e-25
2.9441e-25
5.26802e-27
1.45613e-25
1.12738e-25
-1.85379e-26
1.92309e-25
-1.7312e-25
2.97234e-25
-3.16969e-25
2.49007e-25
-4.39611e-25
1.7906e-25
-5.06359e-25
4.74012e-26
-4.22606e-25
-7.07846e-26
-2.44571e-25
-1.51263e-25
-1.89053e-26
-2.73954e-25
2.25084e-25
-2.76524e-25
4.30859e-25
-1.97067e-25
5.77279e-25
-6.13147e-26
5.57803e-25
1.14933e-25
4.05588e-25
1.77207e-25
1.80896e-25
2.21813e-25
-2.93604e-26
1.38815e-25
-1.23027e-25
-3.46959e-26
-1.55737e-25
-3.68421e-26
-2.33087e-25
-1.4079e-24
-3.90509e-22
3.38346e-25
-3.62218e-24
1.11274e-24
-2.08837e-24
1.21565e-24
-1.69653e-24
1.02195e-24
-5.57444e-25
-8.59951e-26
4.76529e-25
-8.96582e-25
1.34722e-24
-1.87141e-24
2.17034e-24
-2.33084e-24
1.88278e-24
-2.39089e-24
1.52792e-24
-2.12046e-24
3.39245e-25
-1.42309e-24
-4.7902e-25
-6.47111e-25
-1.22751e-24
1.18549e-25
-1.53212e-24
5.00366e-25
-1.43895e-24
5.35294e-25
-1.09816e-24
2.98631e-25
-3.27742e-25
-1.55678e-25
3.46935e-25
-7.12696e-25
9.23387e-25
-1.3425e-24
1.15089e-24
-1.7384e-24
1.11087e-24
-1.80426e-24
9.28127e-25
-1.59257e-24
4.09475e-25
-1.20822e-24
-1.86242e-25
-7.55089e-25
-7.29732e-25
-1.81651e-25
-9.79657e-25
2.94211e-25
-9.18195e-25
4.74587e-25
-7.50454e-25
3.38395e-25
-3.53489e-25
2.16153e-28
1.42854e-25
-3.50611e-25
6.23192e-25
-7.42449e-25
8.60812e-25
-1.08713e-24
7.24415e-25
-1.22332e-24
4.857e-25
-1.06845e-24
1.3223e-25
-6.9381e-25
-2.05828e-25
-3.40713e-25
-5.2307e-25
-2.73081e-26
-6.91469e-25
2.43898e-25
-5.1136e-25
4.23213e-25
-2.76208e-25
4.25203e-25
2.31079e-26
2.10452e-25
2.13793e-25
-2.87169e-26
3.70396e-25
-2.48168e-25
5.34058e-25
-4.50743e-25
4.3373e-25
-6.34748e-25
2.96471e-25
-7.38903e-25
4.3318e-26
-6.22026e-25
-1.69056e-25
-3.65104e-25
-3.2784e-25
-4.18769e-26
-5.28639e-25
3.04092e-25
-5.06147e-25
6.01559e-25
-3.36603e-25
8.18976e-25
-6.0893e-26
7.95468e-25
2.67314e-25
5.82611e-25
3.81103e-25
2.58928e-25
4.46062e-25
-3.76709e-26
2.55723e-25
-1.79095e-25
-6.65644e-26
-2.19116e-25
-1.07562e-25
-4.19784e-25
-1.86706e-24
-3.88264e-22
3.59138e-25
-5.20328e-24
1.37001e-24
-3.2088e-24
1.58111e-24
-2.60739e-24
1.361e-24
-1.04438e-24
-4.58114e-26
5.03536e-25
-1.10289e-24
1.93073e-24
-2.39283e-24
3.19024e-24
-3.01802e-24
2.91497e-24
-3.13857e-24
2.39745e-24
-2.82577e-24
6.58851e-25
-1.9498e-24
-5.74079e-25
-9.3867e-25
-1.76495e-24
7.78951e-26
-2.25907e-24
6.01509e-25
-2.21116e-24
6.71355e-25
-1.72119e-24
3.87794e-25
-5.9541e-25
-1.7688e-25
4.15753e-25
-8.93542e-25
1.31159e-24
-1.72811e-24
1.67606e-24
-2.26962e-24
1.6786e-24
-2.37485e-24
1.42452e-24
-2.11192e-24
6.62953e-25
-1.63071e-24
-2.28415e-25
-1.0552e-24
-1.06476e-24
-3.02554e-25
-1.44957e-24
3.42113e-25
-1.4008e-24
6.01857e-25
-1.16979e-24
4.36033e-25
-5.80861e-25
5.7729e-27
1.64955e-25
-4.39174e-25
9.08016e-25
-9.47584e-25
1.26606e-24
-1.41344e-24
1.08283e-24
-1.61545e-24
7.32808e-25
-1.42389e-24
1.94302e-25
-9.35659e-25
-3.21023e-25
-4.75912e-25
-8.22957e-25
-6.8528e-26
-1.06704e-24
2.93323e-25
-7.92493e-25
5.46781e-25
-4.25669e-25
5.60735e-25
4.94458e-26
2.80279e-25
3.46694e-25
-3.59425e-26
6.07968e-25
-3.2229e-25
8.41804e-25
-5.8651e-25
6.72062e-25
-8.37372e-25
4.4147e-25
-9.84219e-25
2.28591e-26
-8.36468e-25
-3.12716e-25
-4.99892e-25
-5.78162e-25
-7.67106e-26
-8.74975e-25
3.7484e-25
-8.13476e-25
7.70082e-25
-5.18167e-25
1.06547e-24
-4.78038e-26
1.04274e-24
4.83187e-25
7.70668e-25
6.67924e-25
3.45905e-25
7.54896e-25
-4.10307e-26
4.14107e-25
-2.35023e-25
-1.07932e-25
-2.84497e-25
-2.13507e-25
-6.6821e-25
-2.34556e-24
-3.85432e-22
3.40805e-25
-7.0246e-24
1.59798e-24
-4.56089e-24
1.94692e-24
-3.71429e-24
1.71374e-24
-1.70355e-24
1.7175e-26
4.60573e-25
-1.28764e-24
2.5839e-24
-2.90647e-24
4.37986e-24
-3.71247e-24
4.17815e-24
-3.91322e-24
3.47564e-24
-3.57383e-24
1.1003e-24
-2.52747e-24
-6.3344e-25
-1.27881e-24
-2.37372e-24
2.25646e-28
-3.1098e-24
6.79063e-25
-3.15057e-24
7.96771e-25
-2.49435e-24
4.76987e-25
-9.57479e-25
-1.90825e-25
4.5871e-25
-1.0669e-24
1.74733e-24
-2.11442e-24
2.28454e-24
-2.81294e-24
2.3596e-24
-2.9677e-24
2.03059e-24
-2.66078e-24
9.8905e-25
-2.0885e-24
-2.56604e-25
-1.39265e-24
-1.45217e-24
-4.55042e-25
-2.00354e-24
3.69668e-25
-1.98449e-24
7.20208e-25
-1.68604e-24
5.32196e-25
-8.74848e-25
1.44123e-26
1.68884e-25
-5.22228e-25
1.23563e-24
-1.14992e-24
1.74182e-24
-1.74523e-24
1.51114e-24
-2.02282e-24
1.0305e-24
-1.80002e-24
2.71431e-25
-1.19891e-24
-4.57254e-25
-6.31198e-25
-1.19008e-24
-1.26604e-25
-1.5264e-24
3.32371e-25
-1.14098e-24
6.68534e-25
-6.11421e-25
7.00214e-25
8.12916e-26
3.55305e-25
5.09297e-25
-3.91282e-26
9.04906e-25
-3.93976e-25
1.22195e-24
-7.22689e-25
9.67022e-25
-1.04592e-24
6.16683e-25
-1.24102e-24
-1.20723e-26
-1.06543e-24
-5.00755e-25
-6.49484e-25
-9.03119e-25
-1.24821e-25
-1.31547e-24
4.35482e-25
-1.20276e-24
9.34596e-25
-7.46191e-25
1.31537e-24
-2.51209e-26
1.2992e-24
7.61414e-25
9.7043e-25
1.03961e-24
4.43333e-25
1.15231e-24
-3.76896e-26
6.18783e-25
-2.89482e-25
-1.55399e-25
-3.51313e-25
-3.54875e-25
-9.82358e-25
-2.84709e-24
-3.81986e-22
2.80908e-25
-9.06705e-24
1.79179e-24
-6.13407e-24
2.30969e-24
-5.01843e-24
2.07784e-24
-2.55117e-24
1.03499e-25
3.31463e-25
-1.44835e-24
3.28976e-24
-3.40883e-24
5.72844e-24
-4.41081e-24
5.67344e-24
-4.71303e-24
4.76878e-24
-4.36454e-24
1.67777e-24
-3.15786e-24
-6.43384e-25
-1.67084e-24
-3.0419e-24
-1.18552e-25
-4.07711e-24
7.29152e-25
-4.25765e-24
9.08859e-25
-3.42295e-24
5.64966e-25
-1.42397e-24
-1.97456e-25
4.65915e-25
-1.23167e-24
2.22185e-24
-2.49953e-24
2.97062e-24
-3.3663e-24
3.15305e-24
-3.58153e-24
2.74944e-24
-3.23916e-24
1.39485e-24
-2.58283e-24
-2.63597e-25
-1.76958e-24
-1.88588e-24
-6.41928e-25
-2.63767e-24
3.73764e-25
-2.66909e-24
8.2705e-25
-2.30208e-24
6.25524e-25
-1.24171e-24
2.61518e-26
1.47958e-25
-5.98818e-25
1.60092e-24
-1.34804e-24
2.28516e-24
-2.08092e-24
2.00949e-24
-2.44422e-24
1.3808e-24
-2.19661e-24
3.67622e-25
-1.48457e-24
-6.10655e-25
-8.08361e-25
-1.62266e-24
-2.03539e-25
-2.07005e-24
3.59182e-25
-1.55969e-24
7.86962e-25
-8.36764e-25
8.42819e-25
1.15049e-25
4.35696e-25
6.9881e-25
-3.72726e-26
1.26047e-24
-4.61776e-25
1.67545e-24
-8.57729e-25
1.32153e-24
-1.25894e-24
8.25052e-25
-1.50819e-24
-5.88192e-26
-1.30863e-24
-7.31254e-25
-8.14595e-25
-1.30275e-24
-1.87784e-25
-1.85194e-24
4.83975e-25
-1.67805e-24
1.09308e-24
-1.02545e-24
1.56715e-24
3.26031e-27
1.56427e-24
1.09986e-24
1.18246e-24
1.49737e-24
5.52629e-25
1.64211e-24
-2.59643e-26
8.74892e-25
-3.41192e-25
-2.04779e-25
-4.18985e-25
-5.31246e-25
-1.36593e-24
-3.37324e-24
-3.77896e-22
1.74969e-25
-1.13112e-23
1.94615e-24
-7.91502e-24
2.66561e-24
-6.51991e-24
2.45069e-24
-3.60341e-24
2.13697e-25
9.93953e-26
-1.58234e-24
4.02939e-24
-3.89602e-24
7.22341e-24
-5.1092e-24
7.40037e-24
-5.53576e-24
6.28222e-24
-5.19753e-24
2.40575e-24
-3.84275e-24
-5.89348e-25
-2.11829e-24
-3.75611e-24
-2.82855e-25
-5.15244e-24
7.47515e-25
-5.53175e-24
1.00456e-24
-4.51166e-24
6.50211e-25
-2.00507e-24
-1.96786e-25
4.26774e-25
-1.38663e-24
2.72527e-24
-2.88136e-24
3.72761e-24
-3.92744e-24
4.05738e-24
-4.21486e-24
3.58378e-24
-3.8469e-24
1.88751e-24
-3.11492e-24
-2.41682e-25
-2.18829e-24
-2.35894e-24
-8.66284e-25
-3.34734e-24
3.51014e-25
-3.45392e-24
9.19551e-25
-3.02055e-24
7.14442e-25
-1.68787e-24
4.08651e-26
9.50487e-26
-6.67989e-25
1.99801e-24
-1.54038e-24
2.89251e-24
-2.41878e-24
2.57769e-24
-2.87835e-24
1.78574e-24
-2.61339e-24
4.87224e-25
-1.7936e-24
-7.76908e-25
-1.00926e-24
-2.11834e-24
-3.01502e-25
-2.69803e-24
3.71694e-25
-2.05147e-24
9.00405e-25
-1.10532e-24
9.87632e-25
1.46519e-25
5.21552e-25
9.11855e-25
-2.94206e-26
1.67342e-24
-5.24236e-25
2.20294e-24
-9.90027e-25
1.73851e-24
-1.47491e-24
1.06991e-24
-1.78463e-24
-1.13984e-25
-1.56579e-24
-1.00148e-24
-9.96013e-25
-1.7764e-24
-2.67284e-25
-2.48573e-24
5.18109e-25
-2.24339e-24
1.24333e-24
-1.36119e-24
1.81909e-24
3.25413e-26
1.83726e-24
1.49543e-24
1.40723e-24
2.04176e-24
6.75173e-25
2.22798e-24
-4.1589e-27
1.18803e-24
-3.88837e-25
-2.51071e-25
-4.8688e-25
-7.41588e-25
-1.82248e-24
-3.92373e-24
-3.73138e-22
1.82342e-26
-1.37351e-23
2.05538e-24
-9.88771e-24
3.01041e-24
-8.21753e-24
2.82928e-24
-4.87628e-24
3.48148e-25
-2.53027e-25
-1.6869e-24
4.7818e-24
-4.36387e-24
8.85018e-24
-5.80335e-24
9.35672e-24
-6.37869e-24
8.02027e-24
-6.07207e-24
3.29902e-24
-4.58376e-24
-4.55933e-25
-2.62474e-24
-4.50144e-24
-4.97342e-25
-6.32581e-24
7.29542e-25
-6.97108e-24
1.08043e-24
-5.76452e-24
7.30896e-25
-2.71115e-24
-1.88974e-25
3.30021e-25
-1.53053e-24
3.24659e-24
-3.25766e-24
4.54782e-24
-4.49385e-24
5.07018e-24
-4.86597e-24
4.53582e-24
-4.4836e-24
2.47427e-24
-3.68587e-24
-1.82661e-25
-2.65113e-24
-2.86349e-24
-1.13137e-24
-4.12707e-24
2.9778e-25
-4.33774e-24
9.94616e-25
-3.84384e-24
7.97122e-25
-2.2199e-24
5.8254e-26
2.58398e-27
-7.28828e-25
2.42027e-24
-1.72531e-24
3.55961e-24
-2.75695e-24
3.21522e-24
-3.32375e-24
2.24735e-24
-3.04997e-24
6.34918e-25
-2.12693e-24
-9.51227e-25
-1.23577e-24
-2.6742e-24
-4.22794e-25
-3.40994e-24
3.67653e-25
-2.61908e-24
1.00702e-24
-1.42101e-24
1.1336e-24
1.70906e-25
6.12881e-25
1.14445e-24
-1.46539e-26
2.14194e-24
-5.79876e-25
2.80466e-24
-1.11791e-24
2.22094e-24
-1.69225e-24
1.35495e-24
-2.06918e-24
-1.73445e-25
-1.83665e-24
-1.30791e-24
-1.19453e-24
-2.32267e-24
-3.6508e-25
-3.2177e-24
5.35527e-25
-2.90281e-24
1.38293e-24
-1.75918e-24
2.06927e-24
5.7012e-26
2.1173e-24
1.94399e-24
1.6451e-24
2.67264e-24
8.12315e-25
2.91344e-24
2.9467e-26
1.56425e-24
-4.31021e-25
-2.88441e-25
-5.54292e-25
-9.84234e-25
-2.3553e-24
-4.49804e-24
-3.67688e-22
-1.93916e-25
-1.63145e-23
2.1135e-24
-1.20329e-23
3.33939e-24
-1.01086e-23
3.2101e-24
-6.38528e-24
5.0696e-25
-7.43573e-25
-1.75938e-24
5.52388e-24
-4.80804e-24
1.05921e-23
-6.48852e-24
1.15383e-23
-7.23865e-24
9.98593e-24
-6.98701e-24
4.37244e-24
-5.3823e-24
-2.27045e-25
-3.19379e-24
-5.26147e-24
-7.66864e-25
-7.58575e-24
6.70287e-25
-8.57246e-24
1.13266e-24
-7.1847e-24
8.04847e-25
-3.55254e-24
-1.7439e-25
1.63815e-25
-1.66218e-24
3.77368e-24
-3.62608e-24
5.42245e-24
-5.06283e-24
6.18811e-24
-5.53287e-24
5.60712e-24
-5.14864e-24
3.16232e-24
-4.29664e-24
-7.79185e-26
-3.16041e-24
-3.39077e-24
-1.44057e-24
-4.97056e-24
2.1019e-25
-5.31865e-24
1.04887e-24
-4.77396e-24
8.71461e-25
-2.84443e-24
7.78166e-26
-1.37401e-25
-7.80499e-25
2.86032e-24
-1.90113e-24
4.28145e-24
-3.09338e-24
3.92114e-24
-3.77881e-24
2.76759e-24
-3.50581e-24
8.15665e-25
-2.4854e-24
-1.12837e-24
-1.48982e-24
-3.2867e-24
-5.69833e-25
-4.20489e-24
3.44623e-25
-3.2652e-24
1.10479e-24
-1.788e-24
1.27952e-24
1.8284e-25
7.09584e-25
1.39201e-24
7.90234e-27
2.66366e-24
-6.27188e-25
3.48044e-24
-1.2396e-24
2.77174e-24
-1.90926e-24
1.68422e-24
-2.36056e-24
-2.32372e-25
-2.12082e-24
-1.64618e-24
-1.41093e-24
-2.93945e-24
-4.82979e-25
-4.04816e-24
5.33735e-25
-3.66029e-24
1.50927e-24
-2.22564e-24
2.31552e-24
7.00329e-26
2.40329e-24
2.44035e-24
1.89629e-24
3.38912e-24
9.65378e-25
3.70181e-24
7.67096e-26
2.01001e-24
-4.6625e-25
-3.10198e-25
-6.20418e-25
-1.25683e-24
-2.96744e-24
-5.0958e-24
-3.61525e-22
-4.66047e-25
-1.9023e-23
2.11428e-24
-1.43281e-23
3.64731e-24
-1.21888e-23
3.58906e-24
-8.14516e-24
6.89871e-25
-1.39019e-24
-1.7973e-24
6.23049e-24
-5.22401e-24
1.24305e-23
-7.15961e-24
1.39387e-23
-8.11195e-24
1.21807e-23
-7.9407e-24
5.64078e-24
-6.23943e-24
1.13974e-25
-3.82891e-24
-6.01829e-24
-1.0964e-24
-8.91919e-24
5.64489e-25
-1.03313e-23
1.15703e-24
-8.77437e-24
8.69508e-25
-4.53945e-24
-1.53665e-25
-8.41614e-26
-1.78046e-24
4.29332e-24
-3.98418e-24
6.3416e-24
-5.63146e-24
7.40676e-24
-6.21326e-24
6.79854e-24
-5.84106e-24
3.95868e-24
-4.94796e-24
8.15043e-26
-3.71839e-24
-3.93117e-24
-1.79734e-24
-5.8706e-24
8.41561e-26
-6.39403e-24
1.07864e-24
-5.81241e-24
9.35052e-25
-3.56807e-24
9.88136e-26
-3.33215e-25
-8.22283e-25
3.31004e-24
-2.06614e-24
5.0523e-24
-3.42591e-24
4.69401e-24
-4.2417e-24
3.34823e-24
-3.98017e-24
1.03467e-24
-2.86973e-24
-1.30267e-24
-1.77328e-24
-3.95166e-24
-7.45127e-25
-5.08147e-24
2.99988e-25
-3.99235e-24
1.19146e-24
-2.21066e-24
1.42398e-24
1.7638e-25
8.11426e-25
1.64933e-24
3.90658e-26
3.23557e-24
-6.64643e-25
4.22965e-24
-1.35325e-24
3.39379e-24
-2.12409e-24
2.06203e-24
-2.65735e-24
-2.85227e-25
-2.41784e-24
-2.01113e-24
-1.6459e-24
-3.62379e-24
-6.22804e-25
-4.97683e-24
5.10129e-25
-4.51972e-24
1.61954e-24
-2.76722e-24
2.55547e-24
6.40134e-26
2.69394e-24
2.97821e-24
2.16088e-24
4.18944e-24
1.13564e-24
4.59608e-24
1.39422e-25
2.53219e-24
-4.92915e-25
-3.08769e-25
-6.84351e-25
-1.55628e-24
-3.66151e-24
-5.7165e-24
-3.5463e-22
-8.02663e-25
-2.18323e-23
2.0513e-24
-1.67472e-23
3.92846e-24
-1.44519e-23
3.96148e-24
-1.01695e-23
8.96158e-25
-2.21075e-24
-1.79843e-24
6.87444e-24
-5.60722e-24
1.43446e-23
-7.81114e-24
1.65492e-23
-8.99437e-24
1.46044e-23
-8.93094e-24
7.11846e-24
-7.15583e-24
5.84188e-25
-4.53343e-24
-6.75249e-24
-1.49101e-24
-1.03115e-23
4.06599e-25
-1.22412e-23
1.14891e-24
-1.05346e-23
9.2191e-25
-5.68178e-24
-1.27752e-25
-4.2659e-25
-1.88442e-24
4.7912e-24
-4.3295e-24
7.29423e-24
-6.1966e-24
8.72058e-24
-6.90456e-24
8.11009e-24
-6.55962e-24
4.87017e-24
-5.64029e-24
3.0483e-25
-4.32719e-24
-4.47423e-24
-2.2052e-24
-6.81911e-24
-8.46063e-26
-7.56043e-24
1.07997e-24
-6.96016e-24
9.85163e-25
-4.39734e-24
1.20233e-25
-5.93453e-25
-8.53614e-25
3.76056e-24
-2.2186e-24
5.86566e-24
-3.75223e-24
5.53189e-24
-4.71038e-24
3.99084e-24
-4.47212e-24
1.29732e-24
-3.28046e-24
-1.46803e-24
-2.08799e-24
-4.66429e-24
-9.51257e-25
-6.03771e-24
2.30963e-25
-4.80284e-24
1.26457e-24
-2.69357e-24
1.56537e-24
1.45035e-25
9.18015e-25
1.91057e-24
7.95765e-26
3.85403e-24
-6.90702e-25
5.05118e-24
-1.45691e-24
4.08983e-24
-2.33476e-24
2.49301e-24
-2.95795e-24
-3.25772e-25
-2.72704e-24
-2.39671e-24
-1.90005e-24
-4.37192e-24
-7.86365e-25
-6.00277e-24
4.62008e-25
-5.48486e-24
1.71073e-24
-3.39101e-24
2.78645e-24
3.0397e-26
2.98768e-24
3.55008e-24
2.43876e-24
5.07092e-24
1.32431e-24
5.59886e-24
2.19504e-25
3.13803e-24
-5.09288e-25
-2.75676e-25
-7.45064e-25
-1.87868e-24
-4.43963e-24
-6.35944e-24
-3.46988e-22
-1.20812e-24
-2.47124e-23
1.91805e-24
-1.92606e-23
4.1766e-24
-1.689e-23
4.32198e-24
-1.24706e-23
1.12456e-24
-3.22285e-24
-1.76093e-24
7.4266e-24
-5.95312e-24
1.63114e-23
-8.43731e-24
1.93585e-23
-9.88119e-24
1.7255e-23
-9.95491e-24
8.8194e-24
-8.13167e-24
1.20089e-24
-5.31039e-24
-7.44326e-24
-1.95576e-24
-1.17463e-23
1.90808e-25
-1.42943e-23
1.10329e-24
-1.2465e-23
9.5863e-25
-6.98898e-24
-9.79759e-26
-8.76392e-25
-1.97333e-24
5.25202e-24
-4.65961e-24
8.26812e-24
-6.75498e-24
1.01228e-23
-7.60391e-24
9.54081e-24
-7.30268e-24
5.90319e-24
-6.3738e-24
6.01454e-25
-4.98874e-24
-5.00869e-24
-2.66764e-24
-7.80709e-24
-3.00552e-25
-8.81354e-24
1.04859e-24
-8.21753e-24
1.01871e-24
-5.3386e-24
1.4075e-25
-9.26931e-25
-8.74129e-25
4.20231e-24
-2.35687e-24
6.71426e-24
-4.06994e-24
6.43225e-24
-5.18261e-24
4.6967e-24
-4.98045e-24
1.60917e-24
-3.71799e-24
-1.61796e-24
-2.43571e-24
-5.41912e-24
-1.19085e-24
-7.07106e-24
1.34602e-25
-5.69876e-24
1.32144e-24
-3.2414e-24
1.70183e-24
8.17824e-26
1.02877e-24
2.16925e-24
1.30071e-25
4.51468e-24
-7.03838e-25
5.94335e-24
-1.54854e-24
4.86245e-24
-2.53914e-24
2.98197e-24
-3.26059e-24
-3.4708e-25
-3.04761e-24
-2.79602e-24
-2.17384e-24
-5.17915e-24
-9.75425e-25
-7.12433e-24
3.86609e-25
-6.55919e-24
1.77966e-24
-4.10446e-24
3.00555e-24
-4.03469e-26
3.28269e-24
4.14721e-24
2.7296e-24
6.02983e-24
1.5325e-24
6.71225e-24
3.18894e-25
3.83504e-24
-5.13514e-25
-2.01532e-25
-8.014e-25
-2.21925e-24
-5.30327e-24
-7.02368e-24
-3.38585e-22
-1.68656e-24
-2.76314e-23
1.70794e-24
-2.18349e-23
4.38499e-24
-1.94927e-23
4.66449e-24
-1.50585e-23
1.37319e-24
-4.44345e-24
-1.68342e-24
7.85603e-24
-6.25723e-24
1.8306e-23
-9.03204e-24
2.23525e-23
-1.07671e-23
2.01283e-23
-1.10092e-23
1.07567e-23
-9.16658e-24
1.98137e-24
-6.16251e-24
-8.06846e-24
-2.49566e-24
-1.32057e-23
-8.89161e-26
-1.64806e-23
1.01473e-24
-1.45639e-23
9.75768e-25
-8.46985e-24
-6.60871e-26
-1.44658e-24
-2.04673e-24
5.65952e-24
-4.9721e-24
9.24991e-24
-7.30312e-24
1.16052e-23
-8.30811e-24
1.10887e-23
-8.06826e-24
7.06366e-24
-7.1483e-24
9.8084e-25
-5.70472e-24
-5.52251e-24
-3.18807e-24
-8.82464e-24
-5.68272e-25
-1.01481e-23
9.79971e-25
-9.58411e-24
1.03223e-24
-6.39789e-24
1.58694e-25
-1.34261e-24
-8.83711e-25
4.62501e-24
-2.47936e-24
7.59003e-24
-4.37651e-24
7.39194e-24
-5.65593e-24
5.46678e-24
-5.50371e-24
1.97583e-24
-4.18244e-24
-1.74565e-24
-2.81808e-24
-6.21003e-24
-1.46653e-24
-8.17835e-24
7.80931e-27
-6.68188e-24
1.35913e-24
-3.85895e-24
1.83127e-24
-2.09079e-26
1.1429e-24
2.41824e-24
1.91056e-25
5.21241e-24
-7.02562e-25
6.90387e-24
-1.62608e-24
5.71401e-24
-2.73493e-24
3.53396e-24
-3.56328e-24
-3.41547e-25
-3.37849e-24
-3.20128e-24
-2.46757e-24
-6.0398e-24
-1.19166e-24
-8.33903e-24
2.81129e-25
-7.74592e-24
1.82298e-24
-4.91533e-24
3.20959e-24
-1.5872e-25
3.5768e-24
4.75956e-24
3.03283e-24
7.06128e-24
1.7612e-24
7.93772e-24
4.39545e-25
4.63098e-24
-5.03616e-25
-7.60333e-26
-8.52066e-25
-2.57225e-24
-6.25311e-24
-7.70798e-24
-3.29411e-22
-2.24179e-24
-3.05559e-23
1.41447e-24
-2.4433e-23
4.54642e-24
-2.22479e-23
4.9822e-24
-1.79414e-23
1.63946e-24
-5.88864e-24
-1.56509e-24
8.13017e-24
-6.51529e-24
2.03017e-23
-9.58906e-24
2.55143e-23
-1.16464e-23
2.32178e-23
-1.20895e-23
1.29423e-23
-1.02595e-23
2.94274e-24
-7.09205e-24
-8.60474e-24
-3.1156e-24
-1.46702e-23
-4.38778e-25
-1.87883e-23
8.77429e-25
-1.68278e-23
9.68913e-25
-1.01323e-23
-3.43162e-26
-2.15011e-24
-2.10451e-24
5.99658e-24
-5.26473e-24
1.02251e-23
-7.83749e-24
1.31583e-23
-9.01368e-24
1.27505e-23
-8.85394e-24
8.35684e-24
-7.96319e-24
1.4524e-24
-6.47653e-24
-6.00296e-24
-3.7698e-24
-9.86097e-24
-8.92463e-25
-1.15579e-23
8.69265e-25
-1.10587e-23
1.0219e-24
-7.58091e-24
1.72003e-25
-1.84949e-24
-8.8254e-25
5.01776e-24
-2.58463e-24
8.48413e-24
-4.66939e-24
8.4071e-24
-6.12765e-24
6.30161e-24
-6.04017e-24
2.40296e-24
-4.67372e-24
-1.84393e-24
-3.23659e-24
-7.03023e-24
-1.78094e-24
-9.35576e-24
-1.52637e-25
-7.75363e-24
1.37448e-24
-4.55101e-24
1.9513e-24
-1.71037e-25
1.25935e-24
2.64981e-24
2.62869e-25
5.94135e-24
-6.85447e-25
7.92979e-24
-1.68738e-24
6.64655e-24
-2.91971e-24
4.15411e-24
-3.86382e-24
-3.00922e-25
-3.7184e-24
-3.60379e-24
-2.78133e-24
-6.94717e-24
-1.43663e-24
-9.64349e-24
1.42765e-25
-9.04782e-24
1.83717e-24
-5.83159e-24
3.3951e-24
-3.36179e-25
3.86756e-24
5.37572e-24
3.34759e-24
8.15908e-24
2.01125e-24
9.27597e-24
5.83401e-25
5.53372e-24
-4.77498e-25
1.12017e-25
-8.95624e-25
-2.93093e-24
-7.28886e-24
-8.41083e-24
-3.19461e-22
-2.87721e-24
-3.3451e-23
1.03127e-24
-2.70143e-23
4.65323e-24
-2.5141e-23
5.26753e-24
-2.11244e-23
1.92e-24
-7.57323e-24
-1.40584e-24
8.21507e-24
-6.72331e-24
2.22698e-23
-1.01019e-23
2.88237e-23
-1.25128e-23
2.65145e-23
-1.31911e-23
1.5387e-23
-1.14087e-23
4.10159e-24
-8.10075e-24
-9.02771e-24
-3.82023e-24
-1.61189e-23
-8.65102e-25
-2.12034e-23
6.85192e-25
-1.92517e-23
9.33128e-25
-1.19833e-23
-5.42496e-27
-2.99964e-24
-2.14695e-24
6.24538e-24
-5.53541e-24
1.11781e-23
-8.35443e-24
1.47712e-23
-9.71685e-24
1.45218e-23
-9.65691e-24
9.7872e-24
-8.81742e-24
2.02535e-24
-7.30515e-24
-6.43671e-24
-4.41597e-24
-1.09044e-23
-1.27787e-24
-1.30357e-23
7.11382e-25
-1.26391e-23
9.83457e-25
-8.89287e-24
1.78191e-25
-2.45655e-24
-8.71143e-25
5.36904e-24
-2.67141e-24
9.38695e-24
-4.94597e-24
9.47317e-24
-6.59488e-24
7.20126e-24
-6.58776e-24
2.89617e-24
-5.1914e-24
-1.9054e-24
-3.69251e-24
-7.87226e-24
-2.13663e-24
-1.05988e-23
-3.50069e-25
-8.915e-24
1.3641e-24
-5.32239e-24
2.05925e-24
-3.77034e-25
1.37682e-24
2.85556e-24
3.45648e-25
6.69482e-24
-6.51169e-25
9.01744e-24
-1.73029e-24
7.66175e-24
-3.09089e-24
4.84764e-24
-4.15978e-24
-2.16346e-25
-4.06579e-24
-3.99397e-24
-3.11495e-24
-7.89347e-24
-1.71171e-24
-1.10333e-23
-3.12452e-26
-1.04671e-23
1.8186e-24
-6.86137e-24
3.55835e-24
-5.85099e-25
4.15214e-24
5.98291e-24
3.67267e-24
9.31568e-24
2.28324e-24
1.07268e-23
7.52368e-25
6.55115e-24
-4.32953e-25
3.74684e-25
-9.30485e-25
-3.28746e-24
-8.40909e-24
-9.13033e-24
-3.08731e-22
-3.59572e-24
-3.62807e-23
5.5222e-25
-2.95342e-23
4.69736e-24
-2.81552e-23
5.51214e-24
-2.46094e-23
2.21061e-24
-9.51045e-24
-1.20635e-24
8.07565e-24
-6.87769e-24
2.41801e-23
-1.05641e-23
3.22575e-23
-1.33595e-23
3.00068e-23
-1.43081e-23
1.80998e-23
-1.26117e-23
5.47375e-24
-9.18972e-24
-9.31211e-24
-4.6139e-24
-1.75292e-23
-1.37426e-24
-2.37098e-23
4.31486e-25
-2.18282e-23
8.62927e-25
-1.40284e-23
1.72442e-26
-4.0074e-24
-2.17484e-24
6.3875e-24
-5.78233e-24
1.20924e-23
-8.85031e-24
1.64313e-23
-1.04136e-23
1.63967e-23
-1.04739e-23
1.13582e-23
-9.70946e-24
2.7086e-24
-8.19117e-24
-6.80991e-24
-5.12943e-24
-1.19426e-23
-1.72925e-24
-1.4573e-23
5.00993e-25
-1.43222e-23
9.12255e-25
-1.03383e-23
1.74308e-25
-3.17261e-24
-8.50455e-25
5.6668e-24
-2.73869e-24
1.02882e-23
-5.20366e-24
1.05848e-23
-7.05454e-24
8.16526e-24
-7.14413e-24
3.46091e-24
-5.73476e-24
-1.92243e-24
-4.18688e-24
-8.72801e-24
-2.53607e-24
-1.19022e-23
-5.87897e-25
-1.01665e-23
1.32435e-24
-6.17779e-24
2.15211e-24
-6.47707e-25
1.49365e-24
3.02651e-24
4.39288e-25
7.4653e-24
-5.98544e-25
1.01624e-23
-1.75269e-24
8.76079e-24
-3.24581e-24
5.61975e-24
-4.44852e-24
-7.84011e-26
-4.41882e-24
-4.36133e-24
-3.46797e-24
-8.86978e-24
-2.01805e-24
-1.25031e-23
-2.4358e-25
-1.20054e-23
1.76354e-24
-8.01281e-24
3.69533e-24
-9.18727e-25
4.42733e-24
6.56691e-24
4.00652e-24
1.0522e-23
2.57755e-24
1.22888e-23
9.48276e-25
7.69103e-24
-3.67676e-25
7.24839e-25
-9.54907e-25
-3.63281e-24
-9.61098e-24
-9.86423e-24
-2.97224e-22
-4.39963e-24
-3.90079e-23
-2.83875e-26
-3.19449e-23
4.67039e-24
-3.12713e-23
5.70693e-24
-2.83949e-23
2.50617e-24
-1.17116e-23
-9.68271e-25
7.67611e-24
-6.97538e-24
2.60013e-23
-1.09693e-23
3.57891e-23
-1.41794e-23
3.36803e-23
-1.54342e-23
2.10875e-23
-1.3865e-23
7.07397e-24
-1.03593e-23
-9.43204e-24
-5.50053e-24
-1.88774e-23
-1.9726e-24
-2.62892e-23
1.09473e-25
-2.45484e-23
7.52272e-25
-1.62717e-23
2.97213e-26
-5.1849e-24
-2.1895e-24
6.40413e-24
-6.00398e-24
1.29504e-23
-9.32151e-24
1.81246e-23
-1.10997e-23
1.83679e-23
-1.13011e-23
1.30724e-23
-1.06372e-23
3.51055e-24
-9.13466e-24
-7.1083e-24
-5.91274e-24
-1.29624e-23
-2.25129e-24
-1.61605e-23
2.32563e-25
-1.6104e-23
8.03228e-25
-1.19212e-23
1.56909e-25
-4.0062e-24
-8.2187e-25
5.89856e-24
-2.78574e-24
1.11767e-23
-5.43992e-24
1.1736e-23
-7.50338e-24
9.19258e-24
-7.70659e-24
4.10248e-24
-6.30267e-24
-1.88727e-24
-4.72043e-24
-9.58872e-24
-2.98157e-24
-1.326e-23
-8.69581e-25
-1.15081e-23
1.25139e-24
-7.12173e-24
2.22659e-24
-9.92177e-25
1.60788e-24
3.15311e-24
5.434e-25
8.24439e-24
-5.2657e-25
1.13593e-23
-1.75248e-24
9.94433e-24
-3.38165e-24
6.47555e-24
-4.72715e-24
1.22823e-25
-4.77531e-24
-4.69456e-24
-3.8396e-24
-9.86598e-24
-2.35655e-24
-1.40462e-23
-4.96775e-25
-1.36634e-23
1.6682e-24
-9.29393e-24
3.80177e-24
-1.3511e-24
4.68953e-24
7.11204e-24
4.34714e-24
1.17672e-23
2.89422e-24
1.39594e-23
1.17284e-24
8.96081e-24
-2.79286e-25
1.17609e-24
-9.66997e-25
-3.95677e-24
-1.08902e-23
-1.06098e-23
-2.84945e-22
-5.29052e-24
-4.15948e-23
-7.15752e-25
-3.4195e-23
4.56368e-24
-3.44678e-23
5.84207e-24
-3.24749e-23
2.80062e-24
-1.41855e-23
-6.94259e-25
6.98025e-24
-7.01397e-24
2.77007e-23
-1.13111e-23
3.93887e-23
-1.49649e-23
3.75176e-23
-1.65621e-23
2.4355e-23
-1.51643e-23
8.91559e-24
-1.16091e-23
-9.36124e-24
-6.48352e-24
-2.01387e-23
-2.66633e-24
-2.89211e-23
-2.87943e-25
-2.74008e-23
5.94572e-25
-1.87156e-23
2.7368e-26
-6.54274e-24
-2.19287e-24
6.27623e-24
-6.19929e-24
1.37339e-23
-9.76456e-24
1.98356e-23
-1.17707e-23
2.04264e-23
-1.21345e-23
1.49307e-23
-1.15981e-23
4.43896e-24
-1.01351e-23
-7.31738e-24
-6.76806e-24
-1.39499e-23
-2.84857e-24
-1.77876e-23
-9.96041e-26
-1.79791e-23
6.50905e-25
-1.36445e-23
1.22018e-25
-4.9655e-24
-7.87301e-25
6.05142e-24
-2.81219e-24
1.20409e-23
-5.65235e-24
1.29196e-23
-7.938e-24
1.02815e-23
-8.2721e-24
4.82586e-24
-6.89364e-24
-1.79209e-24
-5.29357e-24
-1.0445e-23
-3.47524e-24
-1.46657e-23
-1.19859e-24
-1.29391e-23
1.14115e-24
-8.15852e-24
2.27904e-24
-1.41981e-24
1.71715e-24
3.22525e-24
6.57263e-25
9.02284e-24
-4.34479e-25
1.26021e-23
-1.72767e-24
1.12123e-23
-3.49557e-24
7.41993e-24
-4.99258e-24
3.97649e-25
-5.13278e-24
-4.98147e-24
-4.22869e-24
-1.08707e-23
-2.72776e-24
-1.56547e-23
-7.93172e-25
-1.5441e-23
1.52878e-24
-1.07125e-23
3.87318e-24
-1.89694e-24
4.93473e-24
7.60124e-24
4.6921e-24
1.30388e-23
3.23294e-24
1.57346e-23
1.4276e-24
1.03674e-23
-1.6535e-25
1.74267e-24
-9.64713e-25
-4.24785e-24
-1.22404e-23
-1.13639e-23
-2.71905e-22
-6.26918e-24
-4.40031e-23
-1.51439e-24
-3.62303e-23
4.36841e-24
-3.7721e-23
5.90707e-24
-3.68388e-23
3.08689e-24
-1.69383e-23
-3.88155e-25
5.95202e-24
-6.99185e-24
2.92454e-23
-1.15836e-23
4.3023e-23
-1.57083e-23
4.14986e-23
-1.76836e-23
2.79042e-23
-1.65044e-23
1.10102e-23
-1.29376e-23
-9.07336e-24
-7.56562e-24
-2.12874e-23
-3.46146e-24
-3.15828e-23
-7.68046e-25
-3.03717e-23
3.82697e-25
-2.13605e-23
4.84277e-27
-8.09035e-24
-2.18759e-24
5.98482e-24
-6.36766e-24
1.44239e-23
-1.01761e-23
2.15471e-23
-1.2422e-23
2.25618e-23
-1.29695e-23
1.69328e-23
-1.25887e-23
5.50074e-24
-1.11914e-23
-7.42254e-24
-7.69706e-24
-1.48908e-23
-3.52543e-24
-1.94425e-23
-5.0131e-25
-1.99412e-23
4.49422e-25
-1.55104e-23
6.51113e-26
-6.05812e-24
-7.49234e-25
6.11226e-24
-2.81813e-24
1.28684e-23
-5.83869e-24
1.41279e-23
-8.35491e-24
1.14295e-23
-8.83731e-24
5.63566e-24
-7.50573e-24
-1.62905e-24
-5.90627e-24