/*--------------------------------*- C++ -*----------------------------------*\
| =========                 |                                                 |
| \\      /  F ield         | foam-extend: Open Source CFD                    |
|  \\    /   O peration     | Version:     4.0                                |
|   \\  /    A nd           | Web:         http://www.foam-extend.org         |
|    \\/     M anipulation  |                                                 |
\*---------------------------------------------------------------------------*/
FoamFile
{
    version     2.0;
    format      ascii;
    class       volScalarField;
    location    "25";
    object      C2;
}
// * * * * * * * * * * * * * * * * * * * * * * * * * * * * * * * * * * * * * //

dimensions      [0 0 0 0 0 0 0];

internalField   nonuniform List<scalar> 
6960
(
3.35345e-10
3.35332e-10
3.35309e-10
3.35282e-10
3.35256e-10
3.35233e-10
3.35215e-10
3.35202e-10
3.35192e-10
3.35187e-10
3.35184e-10
3.35184e-10
3.35185e-10
3.35188e-10
3.35191e-10
3.35196e-10
3.35201e-10
3.35206e-10
3.35211e-10
3.35216e-10
3.35221e-10
3.35226e-10
3.3523e-10
3.35234e-10
3.35238e-10
3.35241e-10
3.35243e-10
3.35245e-10
3.35246e-10
3.35247e-10
3.35247e-10
3.35246e-10
3.35245e-10
3.35243e-10
3.35241e-10
3.35238e-10
3.35234e-10
3.3523e-10
3.35226e-10
3.35221e-10
3.35216e-10
3.35211e-10
3.35206e-10
3.35201e-10
3.35196e-10
3.35191e-10
3.35188e-10
3.35185e-10
3.35184e-10
3.35184e-10
3.35187e-10
3.35192e-10
3.35202e-10
3.35215e-10
3.35233e-10
3.35256e-10
3.35282e-10
3.35309e-10
3.35332e-10
3.35345e-10
1.15776e-09
1.15771e-09
1.15761e-09
1.15751e-09
1.1574e-09
1.15731e-09
1.15723e-09
1.15718e-09
1.15714e-09
1.15711e-09
1.1571e-09
1.1571e-09
1.1571e-09
1.15711e-09
1.15713e-09
1.15714e-09
1.15716e-09
1.15718e-09
1.15721e-09
1.15723e-09
1.15725e-09
1.15727e-09
1.15729e-09
1.15731e-09
1.15732e-09
1.15733e-09
1.15734e-09
1.15735e-09
1.15736e-09
1.15736e-09
1.15736e-09
1.15736e-09
1.15735e-09
1.15734e-09
1.15733e-09
1.15732e-09
1.15731e-09
1.15729e-09
1.15727e-09
1.15725e-09
1.15723e-09
1.15721e-09
1.15718e-09
1.15716e-09
1.15714e-09
1.15713e-09
1.15711e-09
1.1571e-09
1.1571e-09
1.1571e-09
1.15711e-09
1.15714e-09
1.15718e-09
1.15723e-09
1.15731e-09
1.1574e-09
1.15751e-09
1.15761e-09
1.15771e-09
1.15776e-09
3.16817e-09
3.168e-09
3.16771e-09
3.16736e-09
3.16702e-09
3.16671e-09
3.16646e-09
3.16627e-09
3.16613e-09
3.16604e-09
3.166e-09
3.16598e-09
3.166e-09
3.16603e-09
3.16608e-09
3.16614e-09
3.1662e-09
3.16627e-09
3.16635e-09
3.16642e-09
3.16649e-09
3.16656e-09
3.16662e-09
3.16668e-09
3.16673e-09
3.16678e-09
3.16681e-09
3.16684e-09
3.16686e-09
3.16687e-09
3.16687e-09
3.16686e-09
3.16684e-09
3.16681e-09
3.16678e-09
3.16673e-09
3.16668e-09
3.16662e-09
3.16656e-09
3.16649e-09
3.16642e-09
3.16635e-09
3.16627e-09
3.1662e-09
3.16614e-09
3.16608e-09
3.16603e-09
3.166e-09
3.16598e-09
3.166e-09
3.16604e-09
3.16613e-09
3.16627e-09
3.16646e-09
3.16671e-09
3.16702e-09
3.16736e-09
3.16771e-09
3.168e-09
3.16817e-09
8.0469e-09
8.0464e-09
8.04553e-09
8.04449e-09
8.04345e-09
8.04252e-09
8.04175e-09
8.04115e-09
8.04072e-09
8.04044e-09
8.04029e-09
8.04024e-09
8.04027e-09
8.04037e-09
8.04051e-09
8.04069e-09
8.0409e-09
8.04112e-09
8.04134e-09
8.04157e-09
8.04179e-09
8.04201e-09
8.0422e-09
8.04238e-09
8.04254e-09
8.04268e-09
8.04279e-09
8.04288e-09
8.04293e-09
8.04296e-09
8.04296e-09
8.04293e-09
8.04288e-09
8.04279e-09
8.04268e-09
8.04254e-09
8.04238e-09
8.0422e-09
8.04201e-09
8.04179e-09
8.04157e-09
8.04134e-09
8.04112e-09
8.0409e-09
8.04069e-09
8.04051e-09
8.04037e-09
8.04027e-09
8.04024e-09
8.04029e-09
8.04044e-09
8.04072e-09
8.04115e-09
8.04175e-09
8.04252e-09
8.04345e-09
8.04449e-09
8.04553e-09
8.0464e-09
8.0469e-09
1.99465e-08
1.99451e-08
1.99426e-08
1.99396e-08
1.99366e-08
1.99339e-08
1.99316e-08
1.99298e-08
1.99286e-08
1.99277e-08
1.99273e-08
1.99271e-08
1.99272e-08
1.99274e-08
1.99279e-08
1.99284e-08
1.9929e-08
1.99296e-08
1.99303e-08
1.9931e-08
1.99316e-08
1.99323e-08
1.99328e-08
1.99334e-08
1.99339e-08
1.99343e-08
1.99346e-08
1.99348e-08
1.9935e-08
1.99351e-08
1.99351e-08
1.9935e-08
1.99348e-08
1.99346e-08
1.99343e-08
1.99339e-08
1.99334e-08
1.99328e-08
1.99323e-08
1.99316e-08
1.9931e-08
1.99303e-08
1.99296e-08
1.9929e-08
1.99284e-08
1.99279e-08
1.99274e-08
1.99272e-08
1.99271e-08
1.99273e-08
1.99277e-08
1.99286e-08
1.99298e-08
1.99316e-08
1.99339e-08
1.99366e-08
1.99396e-08
1.99426e-08
1.99451e-08
1.99465e-08
4.91502e-08
4.91462e-08
4.91393e-08
4.91308e-08
4.91223e-08
4.91145e-08
4.9108e-08
4.91029e-08
4.90992e-08
4.90967e-08
4.90953e-08
4.90948e-08
4.9095e-08
4.90958e-08
4.90969e-08
4.90984e-08
4.91002e-08
4.9102e-08
4.91039e-08
4.91059e-08
4.91078e-08
4.91096e-08
4.91113e-08
4.91128e-08
4.91142e-08
4.91154e-08
4.91163e-08
4.91171e-08
4.91176e-08
4.91178e-08
4.91178e-08
4.91176e-08
4.91171e-08
4.91163e-08
4.91154e-08
4.91142e-08
4.91128e-08
4.91113e-08
4.91096e-08
4.91078e-08
4.91059e-08
4.91039e-08
4.9102e-08
4.91002e-08
4.90984e-08
4.90969e-08
4.90958e-08
4.9095e-08
4.90948e-08
4.90953e-08
4.90967e-08
4.90992e-08
4.91029e-08
4.9108e-08
4.91145e-08
4.91223e-08
4.91308e-08
4.91393e-08
4.91462e-08
4.91502e-08
1.21178e-07
1.21167e-07
1.21147e-07
1.21124e-07
1.211e-07
1.21078e-07
1.2106e-07
1.21046e-07
1.21035e-07
1.21028e-07
1.21024e-07
1.21023e-07
1.21023e-07
1.21025e-07
1.21028e-07
1.21033e-07
1.21037e-07
1.21043e-07
1.21048e-07
1.21054e-07
1.21059e-07
1.21064e-07
1.21069e-07
1.21073e-07
1.21077e-07
1.2108e-07
1.21083e-07
1.21085e-07
1.21087e-07
1.21087e-07
1.21087e-07
1.21087e-07
1.21085e-07
1.21083e-07
1.2108e-07
1.21077e-07
1.21073e-07
1.21069e-07
1.21064e-07
1.21059e-07
1.21054e-07
1.21048e-07
1.21043e-07
1.21037e-07
1.21033e-07
1.21028e-07
1.21025e-07
1.21023e-07
1.21023e-07
1.21024e-07
1.21028e-07
1.21035e-07
1.21046e-07
1.2106e-07
1.21078e-07
1.211e-07
1.21124e-07
1.21147e-07
1.21167e-07
1.21178e-07
2.99375e-07
2.99345e-07
2.99292e-07
2.99228e-07
2.99163e-07
2.99103e-07
2.99052e-07
2.99012e-07
2.98983e-07
2.98963e-07
2.98952e-07
2.98948e-07
2.98949e-07
2.98954e-07
2.98963e-07
2.98975e-07
2.98988e-07
2.99003e-07
2.99018e-07
2.99033e-07
2.99048e-07
2.99062e-07
2.99075e-07
2.99087e-07
2.99098e-07
2.99107e-07
2.99115e-07
2.99121e-07
2.99125e-07
2.99127e-07
2.99127e-07
2.99125e-07
2.99121e-07
2.99115e-07
2.99107e-07
2.99098e-07
2.99087e-07
2.99075e-07
2.99062e-07
2.99048e-07
2.99033e-07
2.99018e-07
2.99003e-07
2.98988e-07
2.98975e-07
2.98963e-07
2.98954e-07
2.98949e-07
2.98948e-07
2.98952e-07
2.98963e-07
2.98983e-07
2.99012e-07
2.99052e-07
2.99103e-07
2.99163e-07
2.99228e-07
2.99292e-07
2.99345e-07
2.99375e-07
7.40603e-07
7.40522e-07
7.40379e-07
7.40205e-07
7.40028e-07
7.39865e-07
7.39727e-07
7.39618e-07
7.39537e-07
7.39483e-07
7.39452e-07
7.39439e-07
7.39442e-07
7.39457e-07
7.39481e-07
7.39513e-07
7.39549e-07
7.39588e-07
7.3963e-07
7.39671e-07
7.39712e-07
7.39751e-07
7.39787e-07
7.39821e-07
7.3985e-07
7.39876e-07
7.39896e-07
7.39912e-07
7.39923e-07
7.39928e-07
7.39928e-07
7.39923e-07
7.39912e-07
7.39896e-07
7.39876e-07
7.3985e-07
7.39821e-07
7.39787e-07
7.39751e-07
7.39712e-07
7.39671e-07
7.3963e-07
7.39588e-07
7.39549e-07
7.39513e-07
7.39481e-07
7.39457e-07
7.39442e-07
7.39439e-07
7.39452e-07
7.39483e-07
7.39537e-07
7.39618e-07
7.39727e-07
7.39865e-07
7.40028e-07
7.40205e-07
7.40379e-07
7.40522e-07
7.40603e-07
1.83111e-06
1.83089e-06
1.83051e-06
1.83005e-06
1.82957e-06
1.82913e-06
1.82876e-06
1.82847e-06
1.82825e-06
1.8281e-06
1.82802e-06
1.82798e-06
1.82799e-06
1.82803e-06
1.8281e-06
1.82818e-06
1.82828e-06
1.82838e-06
1.82849e-06
1.82861e-06
1.82872e-06
1.82882e-06
1.82892e-06
1.82901e-06
1.82909e-06
1.82916e-06
1.82921e-06
1.82926e-06
1.82929e-06
1.8293e-06
1.8293e-06
1.82929e-06
1.82926e-06
1.82921e-06
1.82916e-06
1.82909e-06
1.82901e-06
1.82892e-06
1.82882e-06
1.82872e-06
1.82861e-06
1.82849e-06
1.82838e-06
1.82828e-06
1.82818e-06
1.8281e-06
1.82803e-06
1.82799e-06
1.82798e-06
1.82802e-06
1.8281e-06
1.82825e-06
1.82847e-06
1.82876e-06
1.82913e-06
1.82957e-06
1.83005e-06
1.83051e-06
1.83089e-06
1.83111e-06
4.5131e-06
4.51253e-06
4.51153e-06
4.5103e-06
4.50904e-06
4.50789e-06
4.5069e-06
4.50612e-06
4.50554e-06
4.50515e-06
4.50492e-06
4.50483e-06
4.50485e-06
4.50495e-06
4.50512e-06
4.50534e-06
4.5056e-06
4.50588e-06
4.50618e-06
4.50647e-06
4.50677e-06
4.50705e-06
4.50731e-06
4.50755e-06
4.50776e-06
4.50794e-06
4.50809e-06
4.5082e-06
4.50828e-06
4.50832e-06
4.50832e-06
4.50828e-06
4.5082e-06
4.50809e-06
4.50794e-06
4.50776e-06
4.50755e-06
4.50731e-06
4.50705e-06
4.50677e-06
4.50647e-06
4.50618e-06
4.50588e-06
4.5056e-06
4.50534e-06
4.50512e-06
4.50495e-06
4.50485e-06
4.50483e-06
4.50492e-06
4.50515e-06
4.50554e-06
4.50612e-06
4.5069e-06
4.50789e-06
4.50904e-06
4.5103e-06
4.51153e-06
4.51253e-06
4.5131e-06
1.10534e-05
1.10519e-05
1.10493e-05
1.10462e-05
1.10429e-05
1.10399e-05
1.10373e-05
1.10353e-05
1.10338e-05
1.10328e-05
1.10321e-05
1.10319e-05
1.10319e-05
1.10322e-05
1.10327e-05
1.10332e-05
1.10339e-05
1.10346e-05
1.10354e-05
1.10362e-05
1.10369e-05
1.10377e-05
1.10384e-05
1.1039e-05
1.10395e-05
1.104e-05
1.10404e-05
1.10407e-05
1.10409e-05
1.1041e-05
1.1041e-05
1.10409e-05
1.10407e-05
1.10404e-05
1.104e-05
1.10395e-05
1.1039e-05
1.10384e-05
1.10377e-05
1.10369e-05
1.10362e-05
1.10354e-05
1.10346e-05
1.10339e-05
1.10332e-05
1.10327e-05
1.10322e-05
1.10319e-05
1.10319e-05
1.10321e-05
1.10328e-05
1.10338e-05
1.10353e-05
1.10373e-05
1.10399e-05
1.10429e-05
1.10462e-05
1.10493e-05
1.10519e-05
1.10534e-05
2.68024e-05
2.67987e-05
2.67921e-05
2.6784e-05
2.67757e-05
2.6768e-05
2.67615e-05
2.67563e-05
2.67524e-05
2.67498e-05
2.67482e-05
2.67476e-05
2.67477e-05
2.67483e-05
2.67495e-05
2.6751e-05
2.67527e-05
2.67546e-05
2.67565e-05
2.67585e-05
2.67604e-05
2.67623e-05
2.6764e-05
2.67656e-05
2.67671e-05
2.67683e-05
2.67693e-05
2.677e-05
2.67705e-05
2.67708e-05
2.67708e-05
2.67705e-05
2.677e-05
2.67693e-05
2.67683e-05
2.67671e-05
2.67656e-05
2.6764e-05
2.67623e-05
2.67604e-05
2.67585e-05
2.67565e-05
2.67546e-05
2.67527e-05
2.6751e-05
2.67495e-05
2.67483e-05
2.67477e-05
2.67476e-05
2.67482e-05
2.67498e-05
2.67524e-05
2.67563e-05
2.67615e-05
2.6768e-05
2.67757e-05
2.6784e-05
2.67921e-05
2.67987e-05
2.68024e-05
6.40701e-05
6.40609e-05
6.40446e-05
6.40245e-05
6.40038e-05
6.39847e-05
6.39684e-05
6.39555e-05
6.39458e-05
6.39393e-05
6.39354e-05
6.39338e-05
6.3934e-05
6.39356e-05
6.39385e-05
6.39421e-05
6.39464e-05
6.39511e-05
6.3956e-05
6.39609e-05
6.39657e-05
6.39704e-05
6.39748e-05
6.39787e-05
6.39823e-05
6.39853e-05
6.39878e-05
6.39897e-05
6.3991e-05
6.39916e-05
6.39916e-05
6.3991e-05
6.39897e-05
6.39878e-05
6.39853e-05
6.39823e-05
6.39787e-05
6.39748e-05
6.39704e-05
6.39657e-05
6.39609e-05
6.3956e-05
6.39511e-05
6.39464e-05
6.39421e-05
6.39385e-05
6.39356e-05
6.3934e-05
6.39338e-05
6.39354e-05
6.39393e-05
6.39458e-05
6.39555e-05
6.39684e-05
6.39847e-05
6.40038e-05
6.40245e-05
6.40446e-05
6.40609e-05
6.40701e-05
0.000150251
0.000150229
0.00015019
0.000150142
0.000150092
0.000150046
0.000150006
0.000149975
0.000149951
0.000149935
0.000149926
0.000149922
0.000149923
0.000149927
0.000149933
0.000149942
0.000149953
0.000149964
0.000149976
0.000149988
0.000149999
0.000150011
0.000150021
0.000150031
0.000150039
0.000150047
0.000150053
0.000150057
0.00015006
0.000150062
0.000150062
0.00015006
0.000150057
0.000150053
0.000150047
0.000150039
0.000150031
0.000150021
0.000150011
0.000149999
0.000149988
0.000149976
0.000149964
0.000149953
0.000149942
0.000149933
0.000149927
0.000149923
0.000149922
0.000149926
0.000149935
0.000149951
0.000149975
0.000150006
0.000150046
0.000150092
0.000150142
0.00015019
0.000150229
0.000150251
0.000343748
0.000343696
0.000343605
0.000343493
0.000343376
0.000343269
0.000343177
0.000343104
0.000343049
0.000343012
0.00034299
0.000342981
0.000342982
0.000342991
0.000343007
0.000343028
0.000343052
0.000343078
0.000343105
0.000343133
0.000343161
0.000343187
0.000343212
0.000343234
0.000343254
0.000343271
0.000343285
0.000343296
0.000343303
0.000343307
0.000343307
0.000343303
0.000343296
0.000343285
0.000343271
0.000343254
0.000343234
0.000343212
0.000343187
0.000343161
0.000343133
0.000343105
0.000343078
0.000343052
0.000343028
0.000343007
0.000342991
0.000342982
0.000342981
0.00034299
0.000343012
0.000343049
0.000343104
0.000343177
0.000343269
0.000343376
0.000343493
0.000343605
0.000343696
0.000343748
0.000762394
0.000762279
0.000762076
0.000761826
0.000761567
0.000761327
0.000761122
0.000760959
0.000760837
0.000760753
0.000760704
0.000760683
0.000760685
0.000760706
0.000760741
0.000760787
0.000760841
0.0007609
0.000760961
0.000761023
0.000761084
0.000761143
0.000761198
0.000761249
0.000761293
0.000761332
0.000761363
0.000761387
0.000761403
0.000761411
0.000761411
0.000761403
0.000761387
0.000761363
0.000761332
0.000761293
0.000761249
0.000761198
0.000761143
0.000761084
0.000761023
0.000760961
0.0007609
0.000760841
0.000760787
0.000760741
0.000760706
0.000760685
0.000760683
0.000760704
0.000760753
0.000760837
0.000760959
0.000761122
0.000761327
0.000761567
0.000761826
0.000762076
0.000762279
0.000762394
0.00162774
0.0016275
0.00162707
0.00162654
0.00162599
0.00162549
0.00162505
0.0016247
0.00162444
0.00162427
0.00162416
0.00162412
0.00162412
0.00162416
0.00162424
0.00162434
0.00162445
0.00162458
0.00162471
0.00162484
0.00162497
0.00162509
0.00162521
0.00162532
0.00162541
0.00162549
0.00162556
0.00162561
0.00162564
0.00162566
0.00162566
0.00162564
0.00162561
0.00162556
0.00162549
0.00162541
0.00162532
0.00162521
0.00162509
0.00162497
0.00162484
0.00162471
0.00162458
0.00162445
0.00162434
0.00162424
0.00162416
0.00162412
0.00162412
0.00162416
0.00162427
0.00162444
0.0016247
0.00162505
0.00162549
0.00162599
0.00162654
0.00162707
0.0016275
0.00162774
0.00332018
0.0033197
0.00331884
0.00331779
0.0033167
0.00331568
0.00331482
0.00331412
0.00331361
0.00331325
0.00331304
0.00331295
0.00331296
0.00331304
0.00331319
0.00331339
0.00331361
0.00331386
0.00331412
0.00331439
0.00331465
0.00331489
0.00331513
0.00331534
0.00331553
0.00331569
0.00331583
0.00331593
0.003316
0.00331603
0.00331603
0.003316
0.00331593
0.00331583
0.00331569
0.00331553
0.00331534
0.00331513
0.00331489
0.00331465
0.00331439
0.00331412
0.00331386
0.00331361
0.00331339
0.00331319
0.00331304
0.00331296
0.00331295
0.00331304
0.00331325
0.00331361
0.00331412
0.00331482
0.00331568
0.0033167
0.00331779
0.00331884
0.0033197
0.00332018
0.00641999
0.00641909
0.00641751
0.00641555
0.00641353
0.00641164
0.00641003
0.00640874
0.00640778
0.00640712
0.00640672
0.00640655
0.00640657
0.00640673
0.006407
0.00640737
0.00640779
0.00640825
0.00640873
0.00640922
0.00640971
0.00641017
0.00641061
0.006411
0.00641136
0.00641166
0.00641191
0.00641209
0.00641222
0.00641229
0.00641229
0.00641222
0.00641209
0.00641191
0.00641166
0.00641136
0.006411
0.00641061
0.00641017
0.00640971
0.00640922
0.00640873
0.00640825
0.00640779
0.00640737
0.006407
0.00640673
0.00640657
0.00640655
0.00640672
0.00640712
0.00640778
0.00640874
0.00641003
0.00641164
0.00641353
0.00641555
0.00641751
0.00641909
0.00641999
0.0116834
0.0116819
0.0116792
0.0116758
0.0116723
0.0116691
0.0116663
0.0116641
0.0116625
0.0116613
0.0116607
0.0116604
0.0116604
0.0116607
0.0116611
0.0116618
0.0116625
0.0116633
0.0116641
0.0116649
0.0116658
0.0116666
0.0116673
0.011668
0.0116686
0.0116691
0.0116696
0.0116699
0.0116701
0.0116702
0.0116702
0.0116701
0.0116699
0.0116696
0.0116691
0.0116686
0.011668
0.0116673
0.0116666
0.0116658
0.0116649
0.0116641
0.0116633
0.0116625
0.0116618
0.0116611
0.0116607
0.0116604
0.0116604
0.0116607
0.0116613
0.0116625
0.0116641
0.0116663
0.0116691
0.0116723
0.0116758
0.0116792
0.0116819
0.0116834
0.0198992
0.0198968
0.0198926
0.0198873
0.0198818
0.0198767
0.0198723
0.0198688
0.0198662
0.0198644
0.0198633
0.0198629
0.0198629
0.0198633
0.0198641
0.0198651
0.0198662
0.0198675
0.0198688
0.0198701
0.0198714
0.0198727
0.0198739
0.0198749
0.0198759
0.0198767
0.0198774
0.0198779
0.0198782
0.0198784
0.0198784
0.0198782
0.0198779
0.0198774
0.0198767
0.0198759
0.0198749
0.0198739
0.0198727
0.0198714
0.0198701
0.0198688
0.0198675
0.0198662
0.0198651
0.0198641
0.0198633
0.0198629
0.0198629
0.0198633
0.0198644
0.0198662
0.0198688
0.0198723
0.0198767
0.0198818
0.0198873
0.0198926
0.0198968
0.0198992
0.0316318
0.0316283
0.0316222
0.0316146
0.0316066
0.0315993
0.0315929
0.0315879
0.0315841
0.0315815
0.0315799
0.0315792
0.0315793
0.0315799
0.031581
0.0315824
0.031584
0.0315858
0.0315877
0.0315897
0.0315916
0.0315934
0.0315951
0.0315967
0.0315981
0.0315992
0.0316002
0.031601
0.0316015
0.0316017
0.0316017
0.0316015
0.031601
0.0316002
0.0315992
0.0315981
0.0315967
0.0315951
0.0315934
0.0315916
0.0315897
0.0315877
0.0315858
0.031584
0.0315824
0.031581
0.0315799
0.0315793
0.0315792
0.0315799
0.0315815
0.0315841
0.0315879
0.0315929
0.0315993
0.0316066
0.0316146
0.0316222
0.0316283
0.0316318
0.046973
0.0469683
0.0469601
0.04695
0.0469394
0.0469296
0.0469211
0.0469144
0.0469093
0.0469058
0.0469037
0.0469028
0.0469029
0.0469037
0.0469051
0.046907
0.0469092
0.0469116
0.0469142
0.0469167
0.0469193
0.0469217
0.046924
0.0469261
0.0469279
0.0469295
0.0469308
0.0469318
0.0469325
0.0469328
0.0469328
0.0469325
0.0469318
0.0469308
0.0469295
0.0469279
0.0469261
0.046924
0.0469217
0.0469193
0.0469167
0.0469142
0.0469116
0.0469092
0.046907
0.0469051
0.0469037
0.0469029
0.0469028
0.0469037
0.0469058
0.0469093
0.0469144
0.0469211
0.0469296
0.0469394
0.04695
0.0469601
0.0469683
0.046973
0.0654811
0.0654753
0.0654652
0.0654526
0.0654395
0.0654272
0.0654167
0.0654083
0.065402
0.0653976
0.065395
0.0653938
0.0653939
0.0653949
0.0653967
0.0653991
0.0654018
0.0654048
0.065408
0.0654112
0.0654143
0.0654174
0.0654202
0.0654228
0.0654251
0.0654271
0.0654287
0.06543
0.0654308
0.0654312
0.0654312
0.0654308
0.06543
0.0654287
0.0654271
0.0654251
0.0654228
0.0654202
0.0654174
0.0654143
0.0654112
0.065408
0.0654048
0.0654018
0.0653991
0.0653967
0.0653949
0.0653939
0.0653938
0.065395
0.0653976
0.065402
0.0654083
0.0654167
0.0654272
0.0654395
0.0654526
0.0654652
0.0654753
0.0654811
0.0863738
0.0863671
0.0863551
0.0863403
0.0863249
0.0863105
0.0862981
0.0862882
0.0862807
0.0862756
0.0862725
0.0862711
0.0862711
0.0862724
0.0862744
0.0862772
0.0862804
0.086284
0.0862877
0.0862915
0.0862952
0.0862988
0.0863022
0.0863052
0.086308
0.0863103
0.0863122
0.0863137
0.0863146
0.0863151
0.0863151
0.0863146
0.0863137
0.0863122
0.0863103
0.086308
0.0863052
0.0863022
0.0862988
0.0862952
0.0862915
0.0862877
0.086284
0.0862804
0.0862772
0.0862744
0.0862724
0.0862711
0.0862711
0.0862725
0.0862756
0.0862807
0.0862882
0.0862981
0.0863105
0.0863249
0.0863403
0.0863551
0.0863671
0.0863738
0.108842
0.108835
0.108821
0.108804
0.108787
0.108771
0.108757
0.108745
0.108737
0.108731
0.108727
0.108726
0.108726
0.108727
0.10873
0.108733
0.108736
0.108741
0.108745
0.108749
0.108753
0.108757
0.108761
0.108765
0.108768
0.10877
0.108773
0.108774
0.108775
0.108776
0.108776
0.108775
0.108774
0.108773
0.10877
0.108768
0.108765
0.108761
0.108757
0.108753
0.108749
0.108745
0.108741
0.108736
0.108733
0.10873
0.108727
0.108726
0.108726
0.108727
0.108731
0.108737
0.108745
0.108757
0.108771
0.108787
0.108804
0.108821
0.108835
0.108842
0.132287
0.132279
0.132264
0.132245
0.132226
0.132208
0.132193
0.13218
0.132171
0.132164
0.13216
0.132158
0.132158
0.13216
0.132162
0.132166
0.13217
0.132174
0.132179
0.132184
0.132189
0.132193
0.132197
0.132201
0.132205
0.132208
0.13221
0.132212
0.132213
0.132214
0.132214
0.132213
0.132212
0.13221
0.132208
0.132205
0.132201
0.132197
0.132193
0.132189
0.132184
0.132179
0.132174
0.13217
0.132166
0.132162
0.13216
0.132158
0.132158
0.13216
0.132164
0.132171
0.13218
0.132193
0.132208
0.132226
0.132245
0.132264
0.132279
0.132287
0.156384
0.156375
0.156359
0.156339
0.156317
0.156298
0.156281
0.156267
0.156257
0.156249
0.156245
0.156243
0.156243
0.156245
0.156248
0.156251
0.156256
0.156261
0.156266
0.156271
0.156276
0.156281
0.156286
0.15629
0.156294
0.156297
0.1563
0.156302
0.156303
0.156304
0.156304
0.156303
0.156302
0.1563
0.156297
0.156294
0.15629
0.156286
0.156281
0.156276
0.156271
0.156266
0.156261
0.156256
0.156251
0.156248
0.156245
0.156243
0.156243
0.156245
0.156249
0.156257
0.156267
0.156281
0.156298
0.156317
0.156339
0.156359
0.156375
0.156384
0.181024
0.181014
0.180996
0.180974
0.180952
0.18093
0.180912
0.180897
0.180885
0.180878
0.180873
0.180871
0.180871
0.180872
0.180875
0.18088
0.180884
0.18089
0.180895
0.180901
0.180907
0.180912
0.180917
0.180922
0.180926
0.180929
0.180932
0.180934
0.180936
0.180937
0.180937
0.180936
0.180934
0.180932
0.180929
0.180926
0.180922
0.180917
0.180912
0.180907
0.180901
0.180895
0.18089
0.180884
0.18088
0.180875
0.180872
0.180871
0.180871
0.180873
0.180878
0.180885
0.180897
0.180912
0.18093
0.180952
0.180974
0.180996
0.181014
0.181024
0.206216
0.206206
0.206187
0.206163
0.206139
0.206116
0.206096
0.206079
0.206067
0.206059
0.206054
0.206051
0.206051
0.206053
0.206056
0.206061
0.206066
0.206072
0.206078
0.206084
0.20609
0.206096
0.206101
0.206106
0.206111
0.206115
0.206118
0.20612
0.206122
0.206123
0.206123
0.206122
0.20612
0.206118
0.206115
0.206111
0.206106
0.206101
0.206096
0.20609
0.206084
0.206078
0.206072
0.206066
0.206061
0.206056
0.206053
0.206051
0.206051
0.206054
0.206059
0.206067
0.206079
0.206096
0.206116
0.206139
0.206163
0.206187
0.206206
0.206216
0.232018
0.232007
0.231987
0.231962
0.231936
0.231911
0.231889
0.231872
0.231858
0.231849
0.231844
0.231841
0.231841
0.231843
0.231847
0.231851
0.231857
0.231863
0.23187
0.231876
0.231883
0.231889
0.231895
0.2319
0.231905
0.231909
0.231913
0.231915
0.231917
0.231918
0.231918
0.231917
0.231915
0.231913
0.231909
0.231905
0.2319
0.231895
0.231889
0.231883
0.231876
0.23187
0.231863
0.231857
0.231851
0.231847
0.231843
0.231841
0.231841
0.231844
0.231849
0.231858
0.231872
0.231889
0.231911
0.231936
0.231962
0.231987
0.232007
0.232018
0.258492
0.25848
0.258459
0.258432
0.258404
0.258377
0.258354
0.258335
0.258321
0.258311
0.258305
0.258302
0.258302
0.258304
0.258308
0.258313
0.258319
0.258326
0.258333
0.25834
0.258347
0.258354
0.25836
0.258366
0.258371
0.258375
0.258379
0.258382
0.258384
0.258385
0.258385
0.258384
0.258382
0.258379
0.258375
0.258371
0.258366
0.25836
0.258354
0.258347
0.25834
0.258333
0.258326
0.258319
0.258313
0.258308
0.258304
0.258302
0.258302
0.258305
0.258311
0.258321
0.258335
0.258354
0.258377
0.258404
0.258432
0.258459
0.25848
0.258492
0.285692
0.285679
0.285657
0.285628
0.285598
0.28557
0.285545
0.285525
0.285509
0.285499
0.285492
0.285489
0.285489
0.285491
0.285495
0.285501
0.285507
0.285514
0.285522
0.285529
0.285537
0.285544
0.285551
0.285557
0.285563
0.285567
0.285571
0.285574
0.285576
0.285577
0.285577
0.285576
0.285574
0.285571
0.285567
0.285563
0.285557
0.285551
0.285544
0.285537
0.285529
0.285522
0.285514
0.285507
0.285501
0.285495
0.285491
0.285489
0.285489
0.285492
0.285499
0.285509
0.285525
0.285545
0.28557
0.285598
0.285628
0.285657
0.285679
0.285692
0.313663
0.313649
0.313625
0.313595
0.313563
0.313533
0.313506
0.313485
0.313468
0.313457
0.31345
0.313446
0.313446
0.313448
0.313453
0.313459
0.313465
0.313473
0.313481
0.313489
0.313497
0.313505
0.313512
0.313519
0.313525
0.31353
0.313534
0.313537
0.313539
0.31354
0.31354
0.313539
0.313537
0.313534
0.31353
0.313525
0.313519
0.313512
0.313505
0.313497
0.313489
0.313481
0.313473
0.313465
0.313459
0.313453
0.313448
0.313446
0.313446
0.31345
0.313457
0.313468
0.313485
0.313506
0.313533
0.313563
0.313595
0.313625
0.313649
0.313663
0.342441
0.342427
0.342401
0.34237
0.342336
0.342304
0.342276
0.342253
0.342235
0.342223
0.342215
0.342212
0.342211
0.342214
0.342218
0.342224
0.342232
0.34224
0.342248
0.342257
0.342266
0.342274
0.342282
0.342289
0.342295
0.3423
0.342305
0.342308
0.34231
0.342312
0.342312
0.34231
0.342308
0.342305
0.3423
0.342295
0.342289
0.342282
0.342274
0.342266
0.342257
0.342248
0.34224
0.342232
0.342224
0.342218
0.342214
0.342211
0.342212
0.342215
0.342223
0.342235
0.342253
0.342276
0.342304
0.342336
0.34237
0.342401
0.342427
0.342441
0.372061
0.372046
0.37202
0.371986
0.37195
0.371916
0.371886
0.371862
0.371843
0.37183
0.371822
0.371818
0.371818
0.37182
0.371825
0.371832
0.371839
0.371848
0.371857
0.371866
0.371875
0.371884
0.371892
0.3719
0.371907
0.371912
0.371917
0.371921
0.371923
0.371924
0.371924
0.371923
0.371921
0.371917
0.371912
0.371907
0.3719
0.371892
0.371884
0.371875
0.371866
0.371857
0.371848
0.371839
0.371832
0.371825
0.37182
0.371818
0.371818
0.371822
0.37183
0.371843
0.371862
0.371886
0.371916
0.37195
0.371986
0.37202
0.372046
0.372061
0.402554
0.402538
0.40251
0.402475
0.402437
0.402402
0.40237
0.402344
0.402324
0.40231
0.402302
0.402297
0.402297
0.4023
0.402305
0.402311
0.40232
0.402329
0.402338
0.402348
0.402358
0.402367
0.402376
0.402384
0.402391
0.402397
0.402402
0.402406
0.402408
0.40241
0.40241
0.402408
0.402406
0.402402
0.402397
0.402391
0.402384
0.402376
0.402367
0.402358
0.402348
0.402338
0.402329
0.40232
0.402311
0.402305
0.4023
0.402297
0.402297
0.402302
0.40231
0.402324
0.402344
0.40237
0.402402
0.402437
0.402475
0.40251
0.402538
0.402554
0.43395
0.433933
0.433904
0.433867
0.433828
0.43379
0.433757
0.433729
0.433708
0.433693
0.433684
0.43368
0.433679
0.433682
0.433687
0.433694
0.433703
0.433712
0.433722
0.433733
0.433743
0.433753
0.433762
0.433771
0.433778
0.433785
0.43379
0.433794
0.433797
0.433798
0.433798
0.433797
0.433794
0.43379
0.433785
0.433778
0.433771
0.433762
0.433753
0.433743
0.433733
0.433722
0.433712
0.433703
0.433694
0.433687
0.433682
0.433679
0.43368
0.433684
0.433693
0.433708
0.433729
0.433757
0.43379
0.433828
0.433867
0.433904
0.433933
0.43395
0.466278
0.466261
0.466231
0.466192
0.466151
0.466111
0.466076
0.466047
0.466025
0.466009
0.465999
0.465994
0.465994
0.465996
0.466002
0.466009
0.466019
0.466029
0.466039
0.46605
0.466061
0.466071
0.466081
0.46609
0.466098
0.466105
0.466111
0.466115
0.466118
0.466119
0.466119
0.466118
0.466115
0.466111
0.466105
0.466098
0.46609
0.466081
0.466071
0.466061
0.46605
0.466039
0.466029
0.466019
0.466009
0.466002
0.465996
0.465994
0.465994
0.465999
0.466009
0.466025
0.466047
0.466076
0.466111
0.466151
0.466192
0.466231
0.466261
0.466278
0.49957
0.499552
0.49952
0.49948
0.499437
0.499395
0.499358
0.499328
0.499305
0.499288
0.499277
0.499272
0.499271
0.499274
0.49928
0.499288
0.499297
0.499308
0.499319
0.49933
0.499342
0.499353
0.499363
0.499372
0.499381
0.499388
0.499394
0.499399
0.499402
0.499403
0.499403
0.499402
0.499399
0.499394
0.499388
0.499381
0.499372
0.499363
0.499353
0.499342
0.49933
0.499319
0.499308
0.499297
0.499288
0.49928
0.499274
0.499271
0.499272
0.499277
0.499288
0.499305
0.499328
0.499358
0.499395
0.499437
0.49948
0.49952
0.499552
0.49957
0.533854
0.533836
0.533803
0.533761
0.533716
0.533673
0.533634
0.533602
0.533577
0.53356
0.533548
0.533543
0.533542
0.533544
0.53355
0.533559
0.533569
0.53358
0.533592
0.533604
0.533616
0.533627
0.533638
0.533648
0.533657
0.533664
0.533671
0.533675
0.533679
0.53368
0.53368
0.533679
0.533675
0.533671
0.533664
0.533657
0.533648
0.533638
0.533627
0.533616
0.533604
0.533592
0.53358
0.533569
0.533559
0.53355
0.533544
0.533542
0.533543
0.533548
0.53356
0.533577
0.533602
0.533634
0.533673
0.533716
0.533761
0.533803
0.533836
0.533854
0.569163
0.569144
0.56911
0.569066
0.56902
0.568974
0.568934
0.5689
0.568874
0.568856
0.568843
0.568837
0.568836
0.568839
0.568845
0.568854
0.568864
0.568876
0.568888
0.568901
0.568914
0.568926
0.568937
0.568948
0.568957
0.568965
0.568971
0.568976
0.56898
0.568982
0.568982
0.56898
0.568976
0.568971
0.568965
0.568957
0.568948
0.568937
0.568926
0.568914
0.568901
0.568888
0.568876
0.568864
0.568854
0.568845
0.568839
0.568836
0.568837
0.568843
0.568856
0.568874
0.5689
0.568934
0.568974
0.56902
0.569066
0.56911
0.569144
0.569163
0.605527
0.605508
0.605473
0.605428
0.605379
0.605332
0.60529
0.605254
0.605227
0.605207
0.605194
0.605188
0.605187
0.605189
0.605196
0.605205
0.605216
0.605228
0.605241
0.605254
0.605267
0.60528
0.605292
0.605303
0.605313
0.605321
0.605328
0.605333
0.605337
0.605339
0.605339
0.605337
0.605333
0.605328
0.605321
0.605313
0.605303
0.605292
0.60528
0.605267
0.605254
0.605241
0.605228
0.605216
0.605205
0.605196
0.605189
0.605187
0.605188
0.605194
0.605207
0.605227
0.605254
0.60529
0.605332
0.605379
0.605428
0.605473
0.605508
0.605527
0.64298
0.64296
0.642923
0.642877
0.642826
0.642777
0.642733
0.642697
0.642668
0.642647
0.642634
0.642626
0.642625
0.642628
0.642634
0.642644
0.642655
0.642668
0.642681
0.642695
0.642709
0.642722
0.642735
0.642746
0.642757
0.642765
0.642773
0.642778
0.642782
0.642784
0.642784
0.642782
0.642778
0.642773
0.642765
0.642757
0.642746
0.642735
0.642722
0.642709
0.642695
0.642681
0.642668
0.642655
0.642644
0.642634
0.642628
0.642625
0.642626
0.642634
0.642647
0.642668
0.642697
0.642733
0.642777
0.642826
0.642877
0.642923
0.64296
0.64298
0.681553
0.681533
0.681495
0.681447
0.681395
0.681344
0.681299
0.68126
0.68123
0.681208
0.681194
0.681186
0.681185
0.681188
0.681194
0.681204
0.681216
0.681229
0.681243
0.681257
0.681272
0.681286
0.681299
0.681311
0.681322
0.681331
0.681339
0.681344
0.681348
0.68135
0.68135
0.681348
0.681344
0.681339
0.681331
0.681322
0.681311
0.681299
0.681286
0.681272
0.681257
0.681243
0.681229
0.681216
0.681204
0.681194
0.681188
0.681185
0.681186
0.681194
0.681208
0.68123
0.68126
0.681299
0.681344
0.681395
0.681447
0.681495
0.681533
0.681553
0.721282
0.721261
0.721223
0.721173
0.72112
0.721067
0.721019
0.720979
0.720948
0.720925
0.72091
0.720902
0.7209
0.720903
0.720909
0.720919
0.720932
0.720945
0.72096
0.720975
0.72099
0.721005
0.721018
0.721031
0.721042
0.721052
0.72106
0.721066
0.72107
0.721072
0.721072
0.72107
0.721066
0.72106
0.721052
0.721042
0.721031
0.721018
0.721005
0.72099
0.720975
0.72096
0.720945
0.720932
0.720919
0.720909
0.720903
0.7209
0.720902
0.72091
0.720925
0.720948
0.720979
0.721019
0.721067
0.72112
0.721173
0.721223
0.721261
0.721282
0.762202
0.76218
0.762141
0.76209
0.762034
0.76198
0.761931
0.761889
0.761856
0.761832
0.761816
0.761807
0.761805
0.761808
0.761815
0.761825
0.761838
0.761852
0.761867
0.761883
0.761899
0.761914
0.761928
0.761941
0.761953
0.761963
0.761972
0.761978
0.761982
0.761984
0.761984
0.761982
0.761978