/*--------------------------------*- C++ -*----------------------------------*\
| =========                 |                                                 |
| \\      /  F ield         | foam-extend: Open Source CFD                    |
|  \\    /   O peration     | Version:     4.0                                |
|   \\  /    A nd           | Web:         http://www.foam-extend.org         |
|    \\/     M anipulation  |                                                 |
\*---------------------------------------------------------------------------*/
FoamFile
{
    version     2.0;
    format      ascii;
    class       volScalarField;
    location    "25";
    object      dC1;
}
// * * * * * * * * * * * * * * * * * * * * * * * * * * * * * * * * * * * * * //

dimensions      [0 -1 0 0 0 0 0];

internalField   nonuniform List<scalar> 
6960
(
2.7215e-13
2.67033e-13
2.69094e-13
2.74759e-13
2.64282e-13
2.8157e-13
2.71495e-13
2.78947e-13
2.80397e-13
2.66114e-13
2.84703e-13
2.81209e-13
2.70391e-13
2.69475e-13
2.77205e-13
2.81462e-13
2.72473e-13
2.78822e-13
2.76123e-13
2.57246e-13
2.79138e-13
2.77584e-13
2.6874e-13
2.68448e-13
2.6782e-13
2.71963e-13
2.80463e-13
2.74569e-13
2.73753e-13
2.73077e-13
2.69285e-13
2.61027e-13
2.67703e-13
2.7443e-13
2.77812e-13
2.70648e-13
2.7334e-13
2.81598e-13
2.82187e-13
2.66637e-13
2.61794e-13
2.75259e-13
2.78076e-13
2.76654e-13
2.84051e-13
2.76761e-13
2.78902e-13
2.79981e-13
2.7962e-13
2.76217e-13
2.71803e-13
2.76248e-13
2.61336e-13
2.74426e-13
2.63456e-13
2.6984e-13
2.68202e-13
2.77861e-13
2.68445e-13
2.66284e-13
-1.28543e-14
-1.32117e-14
-1.21431e-14
-1.33747e-14
-1.21535e-14
-1.23547e-14
-1.35586e-14
-1.27467e-14
-1.33227e-14
-1.29688e-14
-1.32117e-14
-1.27225e-14
-1.35933e-14
-1.34927e-14
-1.32047e-14
-1.39298e-14
-1.2889e-14
-1.25039e-14
-1.38257e-14
-1.26635e-14
-1.38188e-14
-1.30451e-14
-1.31943e-14
-1.419e-14
-1.24172e-14
-1.27953e-14
-1.3059e-14
-1.33504e-14
-1.21049e-14
-1.26253e-14
-1.21951e-14
-1.19696e-14
-1.17788e-14
-1.31214e-14
-1.23929e-14
-1.35621e-14
-1.44051e-14
-1.38084e-14
-1.21118e-14
-1.26843e-14
-1.28474e-14
-1.34476e-14
-1.32012e-14
-1.30937e-14
-1.41241e-14
-1.36384e-14
-1.34857e-14
-1.33643e-14
-1.25663e-14
-1.38084e-14
-1.42629e-14
-1.29202e-14
-1.25872e-14
-1.30104e-14
-1.26808e-14
-1.32394e-14
-1.27016e-14
-1.31978e-14
-1.1758e-14
-1.26531e-14
-7.27994e-14
-7.3188e-14
-7.34413e-14
-7.38402e-14
-7.41039e-14
-7.42809e-14
-7.42774e-14
-7.51621e-14
-7.52974e-14
-7.53841e-14
-7.5849e-14
-7.55958e-14
-7.56027e-14
-7.52974e-14
-7.5679e-14
-7.54327e-14
-7.54709e-14
-7.52211e-14
-7.47596e-14
-7.49401e-14
-7.49782e-14
-7.45237e-14
-7.45237e-14
-7.41178e-14
-7.41907e-14
-7.43849e-14
-7.426e-14
-7.44613e-14
-7.43294e-14
-7.42184e-14
-7.4489e-14
-7.41213e-14
-7.43641e-14
-7.42149e-14
-7.43954e-14
-7.41247e-14
-7.46868e-14
-7.46556e-14
-7.49609e-14
-7.51239e-14
-7.4829e-14
-7.51378e-14
-7.49574e-14
-7.54431e-14
-7.49366e-14
-7.51343e-14
-7.5287e-14
-7.54882e-14
-7.59288e-14
-7.5738e-14
-7.50927e-14
-7.47145e-14
-7.50372e-14
-7.46313e-14
-7.43329e-14
-7.40172e-14
-7.32539e-14
-7.33094e-14
-7.30284e-14
-7.32747e-14
-7.83262e-14
-7.84511e-14
-7.84789e-14
-7.90132e-14
-7.94573e-14
-7.97869e-14
-8.02761e-14
-8.04634e-14
-8.03246e-14
-8.06646e-14
-8.07653e-14
-8.09075e-14
-8.07063e-14
-8.06646e-14
-8.07375e-14
-8.08138e-14
-8.05016e-14
-8.07583e-14
-8.0394e-14
-8.03697e-14
-8.02414e-14
-8.02483e-14
-8.00436e-14
-8.00367e-14
-8.01408e-14
-7.99256e-14
-8.00089e-14
-7.97661e-14
-7.96099e-14
-7.98528e-14
-7.95683e-14
-7.97244e-14
-7.98181e-14
-7.97452e-14
-7.99222e-14
-7.99326e-14
-8.00852e-14
-8.0002e-14
-8.02171e-14
-8.03732e-14
-8.0342e-14
-8.05675e-14
-8.0512e-14
-8.05779e-14
-8.08797e-14
-8.10463e-14
-8.10671e-14
-8.07271e-14
-8.07895e-14
-8.08555e-14
-8.10602e-14
-8.08104e-14
-8.06057e-14
-8.02761e-14
-8.00332e-14
-7.9544e-14
-7.91138e-14
-7.87218e-14
-7.83887e-14
-7.85517e-14
-5.59379e-14
-5.61426e-14
-5.6434e-14
-5.64826e-14
-5.69024e-14
-5.69093e-14
-5.73118e-14
-5.74714e-14
-5.79398e-14
-5.76518e-14
-5.77038e-14
-5.7912e-14
-5.77836e-14
-5.77247e-14
-5.75685e-14
-5.75928e-14
-5.76171e-14
-5.75581e-14
-5.75061e-14
-5.73118e-14
-5.73569e-14
-5.72459e-14
-5.72598e-14
-5.71175e-14
-5.701e-14
-5.69683e-14
-5.6951e-14
-5.69059e-14
-5.701e-14
-5.68157e-14
-5.71695e-14
-5.67289e-14
-5.69197e-14
-5.7173e-14
-5.70412e-14
-5.68955e-14
-5.70238e-14
-5.71938e-14
-5.71002e-14
-5.73257e-14
-5.73569e-14
-5.72355e-14
-5.7513e-14
-5.73569e-14
-5.73569e-14
-5.75789e-14
-5.77385e-14
-5.78843e-14
-5.7742e-14
-5.77108e-14
-5.7624e-14
-5.76934e-14
-5.74506e-14
-5.72008e-14
-5.69857e-14
-5.67255e-14
-5.65242e-14
-5.61773e-14
-5.59934e-14
-5.59136e-14
-3.06734e-14
-3.04756e-14
-3.07844e-14
-3.10307e-14
-3.10758e-14
-3.12701e-14
-3.14193e-14
-3.1343e-14
-3.13291e-14
-3.16101e-14
-3.16136e-14
-3.17107e-14
-3.17316e-14
-3.17489e-14
-3.15373e-14
-3.14991e-14
-3.14748e-14
-3.14228e-14
-3.13707e-14
-3.14089e-14
-3.11591e-14
-3.12944e-14
-3.11313e-14
-3.1284e-14
-3.12909e-14
-3.13499e-14
-3.13256e-14
-3.12181e-14
-3.10967e-14
-3.12007e-14
-3.12042e-14
-3.11418e-14
-3.1173e-14
-3.11209e-14
-3.12389e-14
-3.13707e-14
-3.11487e-14
-3.13811e-14
-3.12979e-14
-3.15095e-14
-3.1513e-14
-3.14089e-14
-3.14158e-14
-3.1742e-14
-3.16795e-14
-3.15963e-14
-3.16344e-14
-3.15893e-14
-3.15893e-14
-3.15858e-14
-3.16309e-14
-3.14748e-14
-3.13916e-14
-3.12285e-14
-3.12875e-14
-3.1062e-14
-3.09024e-14
-3.06213e-14
-3.07671e-14
-3.06387e-14
-1.33227e-14
-1.34302e-14
-1.351e-14
-1.34927e-14
-1.35655e-14
-1.3798e-14
-1.35551e-14
-1.38188e-14
-1.39576e-14
-1.35308e-14
-1.39125e-14
-1.38257e-14
-1.37911e-14
-1.3798e-14
-1.37564e-14
-1.3909e-14
-1.38153e-14
-1.38847e-14
-1.38327e-14
-1.37355e-14
-1.37633e-14
-1.38049e-14
-1.36419e-14
-1.37459e-14
-1.37876e-14
-1.37008e-14
-1.37078e-14
-1.36662e-14
-1.35933e-14
-1.35794e-14
-1.35343e-14
-1.37598e-14
-1.37008e-14
-1.37425e-14
-1.37286e-14
-1.36002e-14
-1.37043e-14
-1.35204e-14
-1.36557e-14
-1.38188e-14
-1.38535e-14
-1.38882e-14
-1.38257e-14
-1.37425e-14
-1.38084e-14
-1.39055e-14
-1.38813e-14
-1.38466e-14
-1.38604e-14
-1.38951e-14
-1.39229e-14
-1.37702e-14
-1.37841e-14
-1.38119e-14
-1.35447e-14
-1.36453e-14
-1.351e-14
-1.35759e-14
-1.34268e-14
-1.34545e-14
-4.97866e-15
-4.7809e-15
-4.92315e-15
-5.08968e-15
-4.8711e-15
-5.14866e-15
-5.35683e-15
-4.97866e-15
-5.17295e-15
-5.34642e-15
-5.17295e-15
-5.15907e-15
-5.28744e-15
-5.28397e-15
-5.2354e-15
-5.09315e-15
-5.02723e-15
-5.05845e-15
-5.20764e-15
-5.27009e-15
-5.14172e-15
-5.14519e-15
-5.29091e-15
-5.0307e-15
-4.92315e-15
-5.01335e-15
-5.06539e-15
-5.27356e-15
-5.27009e-15
-5.00988e-15
-5.08274e-15
-5.10009e-15
-5.10703e-15
-5.04111e-15
-4.90233e-15
-5.09315e-15
-4.9856e-15
-5.24927e-15
-5.05151e-15
-5.00988e-15
-4.91621e-15
-5.10009e-15
-5.1105e-15
-5.21111e-15
-5.04805e-15
-5.15907e-15
-5.14519e-15
-5.25968e-15
-5.16948e-15
-5.06539e-15
-5.15213e-15
-5.23886e-15
-5.00294e-15
-5.09662e-15
-5.17641e-15
-5.01682e-15
-4.99253e-15
-5.0307e-15
-4.7462e-15
-4.92315e-15
-2.498e-15
-2.73392e-15
-2.5327e-15
-2.72699e-15
-3.01842e-15
-2.47025e-15
-2.50841e-15
-2.85882e-15
-2.76862e-15
-2.65066e-15
-2.58127e-15
-2.81025e-15
-2.73045e-15
-2.64719e-15
-2.71658e-15
-2.70617e-15
-2.73392e-15
-2.75474e-15
-2.53964e-15
-2.60555e-15
-2.7027e-15
-2.64719e-15
-2.5431e-15
-2.81372e-15
-2.61943e-15
-2.68882e-15
-2.68882e-15
-2.60555e-15
-2.72699e-15
-2.6229e-15
-2.83454e-15
-2.59515e-15
-2.61943e-15
-2.75474e-15
-2.77903e-15
-2.69229e-15
-2.79637e-15
-2.51882e-15
-2.8727e-15
-2.67494e-15
-2.75127e-15
-2.69229e-15
-2.90046e-15
-2.49106e-15
-2.60902e-15
-2.64372e-15
-2.65066e-15
-2.65066e-15
-2.52229e-15
-2.91087e-15
-2.73045e-15
-2.46331e-15
-2.77903e-15
-2.76862e-15
-2.60902e-15
-2.70964e-15
-2.6229e-15
-2.55004e-15
-2.92127e-15
-2.49106e-15
-3.48332e-15
-3.19883e-15
-3.46598e-15
-3.71925e-15
-3.38618e-15
-3.64986e-15
-3.50067e-15
-3.50761e-15
-3.62904e-15
-3.7817e-15
-3.577e-15
-3.577e-15
-3.58741e-15
-3.57353e-15
-3.85803e-15
-3.71578e-15
-3.40353e-15
-3.61863e-15
-3.83027e-15
-3.6221e-15
-3.65333e-15
-3.47639e-15
-3.74006e-15
-3.66374e-15
-3.61169e-15
-3.7817e-15
-3.38271e-15
-3.30638e-15
-3.3272e-15
-3.6568e-15
-3.49026e-15
-3.78517e-15
-3.63945e-15
-3.41741e-15
-3.66374e-15
-3.61516e-15
-3.35842e-15
-3.577e-15
-3.48332e-15
-3.48679e-15
-3.57006e-15
-3.63945e-15
-3.46945e-15
-3.78517e-15
-3.64986e-15
-3.72272e-15
-3.63251e-15
-3.66721e-15
-3.70884e-15
-3.7019e-15
-3.55271e-15
-3.67761e-15
-3.54231e-15
-3.77476e-15
-3.56659e-15
-3.62904e-15
-3.47292e-15
-3.63598e-15
-3.35149e-15
-3.60129e-15
-6.41154e-15
-6.54338e-15
-6.46011e-15
-6.31786e-15
-6.47746e-15
-6.28317e-15
-6.46705e-15
-6.40807e-15
-6.58501e-15
-6.43582e-15
-6.63358e-15
-6.77583e-15
-6.55725e-15
-6.55032e-15
-6.35256e-15
-6.35603e-15
-6.92155e-15
-6.42889e-15
-6.33868e-15
-6.70644e-15
-6.36297e-15
-6.73073e-15
-6.3595e-15
-6.1999e-15
-6.66481e-15
-6.22072e-15
-6.64052e-15
-6.63358e-15
-6.39419e-15
-6.54685e-15
-6.41848e-15
-6.19296e-15
-6.3595e-15
-6.58848e-15
-6.51215e-15
-6.57807e-15
-6.57807e-15
-6.59195e-15
-6.52603e-15
-6.70991e-15
-6.56072e-15
-6.31786e-15
-6.70991e-15
-6.22766e-15
-6.3699e-15
-6.43235e-15
-6.5295e-15
-6.51562e-15
-6.62664e-15
-6.38725e-15
-6.48787e-15
-6.62317e-15
-6.45317e-15
-6.41154e-15
-6.35603e-15
-6.29358e-15
-6.4497e-15
-6.46358e-15
-6.34909e-15
-6.45317e-15
-1.045e-14
-1.09045e-14
-1.08663e-14
-1.05853e-14
-1.08039e-14
-1.13486e-14
-1.05783e-14
-1.11647e-14
-1.09947e-14
-1.10953e-14
-1.1019e-14
-1.07969e-14
-1.11022e-14
-1.08524e-14
-1.1012e-14
-1.13173e-14
-1.09981e-14
-1.11057e-14
-1.10502e-14
-1.08594e-14
-1.07969e-14
-1.08351e-14
-1.1012e-14
-1.09808e-14
-1.08073e-14
-1.07726e-14
-1.09496e-14
-1.09322e-14
-1.09288e-14
-1.08108e-14
-1.09426e-14
-1.10051e-14
-1.07345e-14
-1.08386e-14
-1.07449e-14
-1.06859e-14
-1.079e-14
-1.0613e-14
-1.08108e-14
-1.07449e-14
-1.06373e-14
-1.09635e-14
-1.08975e-14
-1.09635e-14
-1.11265e-14
-1.08559e-14
-1.09669e-14
-1.10988e-14
-1.096e-14
-1.09357e-14
-1.10016e-14
-1.05714e-14
-1.10502e-14
-1.08871e-14
-1.0842e-14
-1.07032e-14
-1.07414e-14
-1.07865e-14
-1.06547e-14
-1.06581e-14
-1.76144e-14
-1.71391e-14
-1.70315e-14
-1.73923e-14
-1.74374e-14
-1.68962e-14
-1.77879e-14
-1.72119e-14
-1.75034e-14
-1.7656e-14
-1.7486e-14
-1.77081e-14
-1.79093e-14
-1.77636e-14
-1.7434e-14
-1.76317e-14
-1.75172e-14
-1.71668e-14
-1.7604e-14
-1.77219e-14
-1.79232e-14
-1.76179e-14
-1.75172e-14
-1.73785e-14
-1.75103e-14
-1.77393e-14
-1.73681e-14
-1.72362e-14
-1.74166e-14
-1.73299e-14
-1.73993e-14
-1.76248e-14
-1.74478e-14
-1.76213e-14
-1.75901e-14
-1.76942e-14
-1.72883e-14
-1.81175e-14
-1.78121e-14
-1.7833e-14
-1.81348e-14
-1.75103e-14
-1.74305e-14
-1.77844e-14
-1.76491e-14
-1.78607e-14
-1.77774e-14
-1.7715e-14
-1.75832e-14
-1.77566e-14
-1.78121e-14
-1.80377e-14
-1.73334e-14
-1.7833e-14
-1.75519e-14
-1.78191e-14
-1.75207e-14
-1.72744e-14
-1.72085e-14
-1.70211e-14
-2.75092e-14
-2.7825e-14
-2.80123e-14
-2.80019e-14
-2.7995e-14
-2.84009e-14
-2.80956e-14
-2.84911e-14
-2.83419e-14
-2.84842e-14
-2.85466e-14
-2.85362e-14
-2.83731e-14
-2.8158e-14
-2.88242e-14
-2.82205e-14
-2.85015e-14
-2.87062e-14
-2.82899e-14
-2.8217e-14
-2.80054e-14
-2.81303e-14
-2.81927e-14
-2.83489e-14
-2.83419e-14
-2.78978e-14
-2.83523e-14
-2.81337e-14
-2.7995e-14
-2.83419e-14
-2.81962e-14
-2.79464e-14
-2.83315e-14
-2.7825e-14
-2.7877e-14
-2.84078e-14
-2.84633e-14
-2.79013e-14
-2.81927e-14
-2.84286e-14
-2.78909e-14
-2.84599e-14
-2.85848e-14
-2.82656e-14
-2.88311e-14
-2.83454e-14
-2.84356e-14
-2.84633e-14
-2.84182e-14
-2.85258e-14
-2.8328e-14
-2.8158e-14
-2.88831e-14
-2.82101e-14
-2.82413e-14
-2.76931e-14
-2.78874e-14
-2.76966e-14
-2.78909e-14
-2.78388e-14
-4.60743e-14
-4.58002e-14
-4.62547e-14
-4.61992e-14
-4.69451e-14
-4.69139e-14
-4.69104e-14
-4.70908e-14
-4.70457e-14
-4.7462e-14
-4.72955e-14
-4.70422e-14
-4.72643e-14
-4.77222e-14
-4.68653e-14
-4.73371e-14
-4.724e-14
-4.69833e-14
-4.724e-14
-4.67924e-14
-4.71012e-14
-4.70145e-14
-4.70457e-14
-4.66883e-14
-4.67647e-14
-4.67092e-14
-4.68063e-14
-4.67057e-14
-4.67335e-14
-4.6553e-14
-4.68584e-14
-4.67681e-14
-4.64524e-14
-4.71775e-14
-4.70284e-14
-4.6782e-14
-4.67994e-14
-4.68237e-14
-4.69451e-14
-4.66086e-14
-4.70318e-14
-4.70665e-14
-4.72469e-14
-4.71047e-14
-4.68132e-14
-4.70561e-14
-4.73926e-14
-4.73475e-14
-4.77118e-14
-4.72157e-14
-4.73233e-14
-4.71255e-14
-4.64628e-14
-4.69937e-14
-4.67092e-14
-4.67473e-14
-4.63067e-14
-4.62269e-14
-4.59632e-14
-4.59216e-14
-7.54397e-14
-7.6307e-14
-7.56582e-14
-7.62931e-14
-7.58178e-14
-7.62446e-14
-7.69801e-14
-7.72958e-14
-7.74242e-14
-7.71848e-14
-7.76636e-14
-7.78752e-14
-7.74138e-14
-7.71015e-14
-7.79654e-14
-7.75109e-14
-7.70356e-14
-7.71605e-14
-7.70009e-14
-7.66991e-14
-7.70113e-14
-7.66748e-14
-7.65568e-14
-7.66297e-14
-7.63729e-14
-7.69419e-14
-7.64874e-14
-7.69662e-14
-7.6425e-14
-7.65533e-14
-7.60399e-14
-7.64354e-14
-7.68691e-14
-7.65603e-14
-7.62793e-14
-7.65499e-14
-7.6536e-14
-7.71362e-14
-7.70668e-14
-7.70599e-14
-7.69523e-14
-7.71189e-14
-7.73236e-14
-7.75768e-14
-7.74866e-14
-7.76115e-14
-7.74172e-14
-7.74936e-14
-7.74554e-14
-7.73409e-14
-7.72125e-14
-7.7497e-14
-7.72854e-14
-7.70772e-14
-7.67893e-14
-7.61856e-14
-7.6595e-14
-7.57588e-14
-7.5568e-14
-7.56027e-14
-1.09371e-13
-1.09274e-13
-1.10332e-13
-1.10374e-13
-1.11161e-13
-1.11484e-13
-1.11695e-13
-1.12042e-13
-1.12219e-13
-1.12559e-13
-1.12556e-13
-1.12514e-13
-1.1274e-13
-1.13125e-13
-1.12209e-13
-1.12327e-13
-1.12528e-13
-1.12351e-13
-1.11938e-13
-1.12008e-13
-1.11917e-13
-1.12105e-13
-1.12074e-13
-1.11609e-13
-1.11869e-13
-1.11453e-13
-1.11439e-13
-1.10939e-13
-1.11421e-13
-1.11352e-13
-1.11605e-13
-1.11241e-13
-1.11414e-13
-1.10963e-13
-1.11897e-13
-1.11359e-13
-1.11952e-13
-1.113e-13
-1.1147e-13
-1.12167e-13
-1.11966e-13
-1.12341e-13
-1.12278e-13
-1.12233e-13
-1.12306e-13
-1.1199e-13
-1.12858e-13
-1.12847e-13
-1.12139e-13
-1.12337e-13
-1.12778e-13
-1.12105e-13
-1.1189e-13
-1.11855e-13
-1.10818e-13
-1.11293e-13
-1.09985e-13
-1.10027e-13
-1.0977e-13
-1.09125e-13
-1.09183e-13
-1.09027e-13
-1.09409e-13
-1.0995e-13
-1.10332e-13
-1.10877e-13
-1.11595e-13
-1.11123e-13
-1.12202e-13
-1.11564e-13
-1.12278e-13
-1.12171e-13
-1.12316e-13
-1.11963e-13
-1.12577e-13
-1.12303e-13
-1.1198e-13
-1.12334e-13
-1.11695e-13
-1.11609e-13
-1.11113e-13
-1.11106e-13
-1.11133e-13
-1.11553e-13
-1.10825e-13
-1.11099e-13
-1.10741e-13
-1.11085e-13
-1.10731e-13
-1.10731e-13
-1.10696e-13
-1.10887e-13
-1.10675e-13
-1.11015e-13
-1.10807e-13
-1.11189e-13
-1.10925e-13
-1.1174e-13
-1.11765e-13
-1.11123e-13
-1.11567e-13
-1.11505e-13
-1.11647e-13
-1.12105e-13
-1.12545e-13
-1.12431e-13
-1.12254e-13
-1.12341e-13
-1.12292e-13
-1.12389e-13
-1.11775e-13
-1.12195e-13
-1.11494e-13
-1.11387e-13
-1.11678e-13
-1.10432e-13
-1.10547e-13
-1.09735e-13
-1.08892e-13
-1.09371e-13
3.747e-16
-2.42861e-17
-1.17961e-16
-1.42247e-16
-4.05925e-16
-3.46945e-17
-2.5327e-16
-1.05124e-15
-4.78784e-16
-7.70217e-16
-6.80012e-16
-7.91034e-16
-5.13478e-16
-8.46545e-16
-3.36536e-16
-7.04298e-16
-7.35523e-16
8.32667e-17
-8.60423e-16
-6.07153e-16
-6.21031e-16
-5.16948e-16
-1.11022e-16
5.86337e-16
-7.04298e-16
-3.05311e-16
-2.04697e-16
-1.52656e-16
-4.64906e-16
-1.00614e-16
-4.75314e-16
-1.45717e-16
-4.78784e-16
-1.35308e-16
4.51028e-17
-5.20417e-16
-6.66134e-16
-6.31439e-16
-5.93275e-16
-5.6205e-16
-6.8695e-16
-3.33067e-16
-4.996e-16
-8.08381e-16
-4.78784e-16
-9.12465e-16
-5.44703e-16
-5.37764e-16
-5.58581e-16
-6.83481e-16
-4.85723e-16
-3.43475e-16
-7.45931e-16
-2.35922e-16
1.70003e-16
1.2837e-16
8.63892e-16
-3.05311e-16
-1.31839e-16
3.33067e-16
2.08278e-13
2.0902e-13
2.0926e-13
2.09856e-13
2.11112e-13
2.11001e-13
2.12174e-13
2.1258e-13
2.12556e-13
2.12927e-13
2.13742e-13
2.13603e-13
2.13607e-13
2.13142e-13
2.12726e-13
2.13225e-13
2.13336e-13
2.12483e-13
2.131e-13
2.12504e-13
2.12115e-13
2.12642e-13
2.11303e-13
2.11029e-13
2.11844e-13
2.11563e-13
2.10623e-13
2.11175e-13
2.11237e-13
2.11144e-13
2.11033e-13
2.11057e-13
2.11348e-13
2.1104e-13
2.11609e-13
2.11772e-13
2.11497e-13
2.12459e-13
2.12295e-13
2.12341e-13
2.12379e-13
2.12337e-13
2.13208e-13
2.13052e-13
2.13041e-13
2.13916e-13
2.12868e-13
2.13277e-13
2.13451e-13
2.13871e-13
2.1308e-13
2.12965e-13
2.12667e-13
2.11907e-13
2.11019e-13
2.09919e-13
2.09551e-13
2.10144e-13
2.08517e-13
2.08698e-13
2.07376e-13
2.07126e-13
2.08701e-13
2.0994e-13
2.102e-13
2.11817e-13
2.12694e-13
2.13541e-13
2.14381e-13
2.14412e-13
2.14065e-13
2.15165e-13
2.13947e-13
2.14946e-13
2.13805e-13
2.13704e-13
2.13701e-13
2.14214e-13
2.12972e-13
2.12851e-13
2.12746e-13
2.1208e-13
2.12715e-13
2.12528e-13
2.12459e-13
2.11012e-13
2.11518e-13
2.11046e-13
2.11275e-13
2.11022e-13
2.11962e-13
2.12254e-13
2.11411e-13
2.11626e-13
2.11706e-13
2.11643e-13
2.12049e-13
2.12167e-13
2.12642e-13
2.12025e-13
2.13499e-13
2.14755e-13
2.13302e-13
2.14644e-13
2.14738e-13
2.1444e-13
2.15446e-13
2.15068e-13
2.14415e-13
2.13541e-13
2.13891e-13
2.13825e-13
2.13364e-13
2.12618e-13
2.11751e-13
2.10693e-13
2.09392e-13
2.07306e-13
2.08434e-13
2.06838e-13
-3.96315e-13
-3.96887e-13
-3.99125e-13
-3.99548e-13
-3.99888e-13
-4.01738e-13
-4.02213e-13
-4.03299e-13
-4.04066e-13
-4.02872e-13
-4.03941e-13
-4.04649e-13
-4.03452e-13
-4.03892e-13
-4.02803e-13
-4.0308e-13
-4.03736e-13
-4.03927e-13
-4.02539e-13
-4.02473e-13
-4.02383e-13
-4.01776e-13
-4.01245e-13
-4.02123e-13
-4.01325e-13
-4.006e-13
-4.00537e-13
-4.01089e-13
-4.00888e-13
-4.00079e-13
-4.01377e-13
-4.01432e-13
-4.00322e-13
-4.00482e-13
-4.00915e-13
-4.01641e-13
-4.01928e-13
-4.01516e-13
-4.02185e-13
-4.00961e-13
-4.03101e-13
-4.04034e-13
-4.03077e-13
-4.03639e-13
-4.04302e-13
-4.04145e-13
-4.04201e-13
-4.03878e-13
-4.03358e-13
-4.0316e-13
-4.03368e-13
-4.03334e-13
-4.02747e-13
-4.02074e-13
-3.99781e-13
-3.99594e-13
-3.98518e-13
-3.97227e-13
-3.97297e-13
-3.96478e-13
-1.23412e-12
-1.2352e-12
-1.23819e-12
-1.24401e-12
-1.24827e-12
-1.25309e-12
-1.25912e-12
-1.26161e-12
-1.26388e-12
-1.26652e-12
-1.26816e-12
-1.26818e-12
-1.26927e-12
-1.26737e-12
-1.26709e-12
-1.26665e-12
-1.26521e-12
-1.26334e-12
-1.26269e-12
-1.26104e-12
-1.25895e-12
-1.25902e-12
-1.25798e-12
-1.25543e-12
-1.25617e-12
-1.25561e-12
-1.25349e-12
-1.25275e-12
-1.25192e-12
-1.25198e-12
-1.25143e-12
-1.25308e-12
-1.25394e-12
-1.25432e-12
-1.25409e-12
-1.25533e-12
-1.25609e-12
-1.25713e-12
-1.25771e-12
-1.26091e-12
-1.26067e-12
-1.26191e-12
-1.26397e-12
-1.26534e-12
-1.267e-12
-1.26778e-12
-1.26962e-12
-1.26914e-12
-1.26925e-12
-1.26907e-12
-1.26622e-12
-1.26442e-12
-1.26087e-12
-1.25792e-12
-1.25618e-12
-1.24896e-12
-1.2446e-12
-1.23993e-12
-1.23559e-12
-1.23351e-12
-1.23491e-12
-1.23741e-12
-1.24208e-12
-1.24779e-12
-1.25639e-12
-1.26154e-12
-1.26637e-12
-1.27141e-12
-1.27539e-12
-1.27827e-12
-1.27805e-12
-1.27926e-12
-1.27934e-12
-1.2808e-12
-1.27964e-12
-1.27707e-12
-1.27557e-12
-1.27407e-12
-1.27181e-12
-1.27075e-12
-1.26926e-12
-1.26619e-12
-1.26399e-12
-1.26466e-12
-1.26192e-12
-1.26071e-12
-1.26057e-12
-1.25946e-12
-1.2608e-12
-1.26071e-12
-1.26014e-12
-1.25817e-12
-1.25994e-12
-1.26045e-12
-1.26155e-12
-1.26252e-12
-1.26456e-12
-1.26596e-12
-1.2675e-12
-1.26783e-12
-1.26917e-12
-1.27267e-12
-1.27446e-12
-1.27565e-12
-1.27642e-12
-1.27729e-12
-1.27747e-12
-1.27972e-12
-1.27906e-12
-1.27733e-12
-1.27788e-12
-1.27426e-12
-1.2719e-12
-1.26825e-12
-1.25954e-12
-1.25473e-12
-1.24779e-12
-1.2421e-12
-1.23739e-12
-1.23566e-12
-2.36065e-13
-2.38424e-13
-2.40197e-13
-2.43215e-13
-2.43847e-13
-2.46272e-13
-2.47097e-13
-2.49897e-13
-2.50543e-13
-2.51764e-13
-2.53134e-13
-2.53311e-13
-2.5259e-13
-2.5141e-13
-2.51105e-13
-2.51674e-13
-2.51563e-13
-2.5073e-13
-2.5099e-13
-2.49217e-13
-2.49245e-13
-2.4921e-13
-2.49613e-13
-2.46591e-13
-2.47073e-13
-2.46629e-13
-2.45783e-13
-2.47108e-13
-2.45852e-13
-2.4462e-13
-2.46105e-13
-2.47771e-13
-2.44863e-13
-2.45984e-13
-2.47084e-13
-2.47885e-13
-2.46643e-13
-2.46584e-13
-2.4818e-13
-2.48544e-13
-2.49804e-13
-2.50109e-13
-2.5184e-13
-2.50685e-13
-2.52218e-13
-2.53353e-13
-2.54168e-13
-2.52496e-13
-2.52815e-13
-2.53159e-13
-2.50404e-13
-2.51656e-13
-2.51219e-13
-2.47122e-13
-2.47521e-13
-2.44443e-13
-2.42018e-13
-2.39527e-13
-2.37373e-13
-2.35627e-13
7.28126e-13
7.30482e-13
7.32189e-13
7.35509e-13
7.36217e-13
7.40113e-13
7.38385e-13
7.42278e-13
7.43076e-13
7.44446e-13
7.44675e-13
7.45327e-13
7.45948e-13
7.45497e-13
7.42642e-13
7.44186e-13
7.44665e-13
7.44762e-13
7.43034e-13
7.41573e-13
7.43312e-13
7.44134e-13
7.40713e-13
7.38319e-13
7.39221e-13
7.37951e-13
7.38451e-13
7.38323e-13
7.39131e-13
7.37251e-13
7.39325e-13
7.39075e-13
7.3767e-13
7.37549e-13
7.39755e-13
7.40359e-13
7.39079e-13
7.39988e-13
7.39558e-13
7.41844e-13
7.42493e-13
7.43874e-13
7.44467e-13
7.43249e-13
7.44637e-13
7.4454e-13
7.45546e-13
7.4532e-13
7.44939e-13
7.45029e-13
7.43773e-13
7.44356e-13
7.44908e-13
7.41438e-13
7.40137e-13
7.36571e-13
7.33979e-13
7.32255e-13
7.2815e-13
7.2722e-13
9.7165e-13
9.72163e-13
9.76871e-13
9.80351e-13
9.85555e-13
9.88661e-13
9.95471e-13
9.96137e-13
9.99929e-13
1.00083e-12
1.00297e-12
1.00229e-12
1.00226e-12
1.00161e-12
1.00247e-12
9.99877e-13
9.97945e-13
9.96776e-13
9.96387e-13
9.97091e-13
9.92713e-13
9.90385e-13
9.92501e-13
9.93705e-13
9.90437e-13
9.9094e-13
9.88442e-13
9.89254e-13
9.8865e-13
9.88005e-13
9.87925e-13
9.86655e-13
9.89622e-13
9.89753e-13
9.90038e-13
9.90624e-13
9.92435e-13
9.91596e-13
9.97133e-13
9.94288e-13
9.94788e-13
9.96453e-13
9.97893e-13
1.00093e-12
9.99784e-13
1.00315e-12
1.00216e-12
1.00141e-12
1.00298e-12
1.00167e-12
1.00084e-12
9.98996e-13
9.94444e-13
9.93431e-13
9.88151e-13
9.86163e-13
9.80164e-13
9.7489e-13
9.74568e-13
9.72548e-13
7.2202e-13
7.21787e-13
7.23418e-13
7.29125e-13
7.32404e-13
7.37427e-13
7.3978e-13
7.44002e-13
7.43402e-13
7.46441e-13
7.46726e-13
7.48117e-13
7.47492e-13
7.46875e-13
7.47642e-13
7.46084e-13
7.46521e-13
7.44654e-13
7.44502e-13
7.39419e-13
7.40949e-13
7.42136e-13
7.37736e-13
7.37948e-13
7.38257e-13
7.35644e-13
7.37334e-13
7.34454e-13
7.3495e-13
7.36754e-13
7.36758e-13
7.38746e-13
7.35488e-13
7.35793e-13
7.36078e-13
7.37861e-13
7.37067e-13
7.40401e-13
7.36688e-13
7.4123e-13
7.43183e-13
7.43156e-13
7.44849e-13
7.42736e-13
7.46167e-13
7.45969e-13
7.48509e-13
7.46868e-13
7.47992e-13
7.48308e-13
7.46361e-13
7.43142e-13
7.42812e-13
7.38298e-13
7.36487e-13
7.30537e-13
7.29739e-13
7.27682e-13
7.21409e-13
7.21322e-13
4.04433e-13
4.05929e-13
4.07365e-13
4.08562e-13
4.10491e-13
4.14134e-13
4.13957e-13
4.131e-13
4.17884e-13
4.17073e-13
4.18627e-13
4.20278e-13
4.20768e-13
4.17888e-13
4.18957e-13
4.20001e-13
4.19116e-13
4.18259e-13
4.13995e-13
4.17513e-13
4.16882e-13
4.15376e-13
4.13409e-13
4.12826e-13
4.11657e-13
4.14727e-13
4.10651e-13
4.11789e-13
4.13055e-13
4.10318e-13
4.09395e-13
4.11473e-13
4.10661e-13
4.12968e-13
4.154e-13
4.13322e-13
4.14464e-13
4.12892e-13
4.16941e-13
4.14561e-13
4.17114e-13
4.16892e-13
4.16469e-13
4.18221e-13
4.18637e-13
4.19262e-13
4.16975e-13
4.19997e-13
4.18443e-13
4.18856e-13
4.18818e-13
4.19002e-13
4.18145e-13
4.14363e-13
4.13371e-13
4.12049e-13
4.08173e-13
4.03705e-13
4.05762e-13
4.03795e-13
1.91229e-13
1.90622e-13
1.95045e-13
1.95649e-13
1.95902e-13
1.93991e-13
1.9771e-13
2.01332e-13
1.99719e-13
2.01963e-13
1.99406e-13
1.98449e-13
1.98386e-13
2.0144e-13
2.0035e-13
2.00642e-13
1.96447e-13
1.98095e-13
2.01873e-13
2.00253e-13
1.97987e-13
1.96069e-13
2.00413e-13
1.98272e-13
2.00867e-13
1.96298e-13
1.96849e-13
1.9821e-13
1.95607e-13
1.95899e-13
1.97887e-13
1.9575e-13
1.99403e-13
1.97856e-13
1.94234e-13
1.9711e-13
1.9891e-13
1.97665e-13
1.96523e-13
1.98504e-13
1.96922e-13
1.983e-13
2.00839e-13
2.02234e-13
2.00607e-13
2.00687e-13
2.0289e-13
2.01512e-13
1.98987e-13
2.01512e-13
1.98425e-13
1.97179e-13
1.97242e-13
1.9916e-13
1.95937e-13
1.95594e-13
1.955e-13
1.94494e-13
1.92412e-13
1.92499e-13
8.20108e-14
8.5619e-14
8.09942e-14
8.11538e-14
8.32043e-14
8.58966e-14
8.38496e-14
8.24618e-14
8.48904e-14
8.42694e-14
8.53449e-14
8.70519e-14
8.53137e-14
8.79609e-14
8.42625e-14
8.64621e-14
8.78984e-14
8.79539e-14
8.29267e-14
8.10289e-14
8.45365e-14
8.65558e-14
8.49286e-14
8.62331e-14
8.20975e-14
8.64031e-14
8.68056e-14
8.27047e-14
8.3638e-14
8.55947e-14
8.55913e-14
8.27637e-14
8.49425e-14
8.386e-14
8.65419e-14
8.53033e-14
8.34229e-14
8.67917e-14
8.69721e-14
8.59347e-14
8.55531e-14
8.67223e-14
8.32945e-14
8.16812e-14
8.60943e-14
8.66876e-14
8.47898e-14
8.23126e-14
8.7895e-14
8.49147e-14
8.84605e-14
8.74127e-14
8.47725e-14
8.47551e-14
8.5796e-14
8.36033e-14
8.18755e-14
8.09179e-14
8.09595e-14
8.18061e-14
3.33171e-14
2.89838e-14
3.06387e-14
3.36536e-14
3.22832e-14
3.3383e-14
3.44932e-14
3.56937e-14
3.26336e-14
3.28834e-14
3.41845e-14
3.30673e-14
3.23942e-14
3.05207e-14
3.52114e-14
3.10585e-14
3.12979e-14
3.08573e-14
3.28036e-14
3.55618e-14
3.51455e-14
2.98199e-14
3.02779e-14
3.21861e-14
3.2651e-14
3.13811e-14
3.03299e-14
3.23457e-14
3.33969e-14
3.07254e-14
3.12875e-14
3.40006e-14
2.96395e-14
3.3383e-14
3.33795e-14
3.18461e-14
3.26579e-14
3.14852e-14
3.22069e-14
3.10203e-14
3.38202e-14
3.30118e-14
3.36814e-14
3.64049e-14
3.04305e-14
3.18842e-14
3.11452e-14
3.41324e-14
3.07879e-14
3.61274e-14
3.15026e-14
3.41671e-14
3.08191e-14
3.10516e-14
2.88727e-14
3.26093e-14
3.18669e-14
3.19397e-14
3.23248e-14
3.28522e-14
6.41848e-15
6.87644e-15
1.07657e-14
1.21743e-14
9.11771e-15
8.84362e-15
9.68323e-15
5.84949e-15
1.27502e-14
9.23914e-15
6.95277e-15
8.95811e-15
1.31006e-14
1.06443e-14
4.77396e-15
1.08871e-14
9.28771e-15
1.04014e-14
1.14318e-14
9.26342e-15
7.02563e-15
1.12202e-14
1.03771e-14
6.6093e-15
8.47239e-15
9.08995e-15
9.59996e-15
9.21138e-15
9.90527e-15
9.39873e-15
9.39873e-15
1.01655e-14
1.23131e-14
6.66481e-15
8.09075e-15
9.72833e-15
1.02106e-14
9.59996e-15
7.28237e-15
1.18343e-14
8.53137e-15
9.33975e-15
9.47159e-15
6.94236e-15
1.17857e-14
1.04743e-14
1.0672e-14
1.00753e-14
1.31423e-14
3.24393e-15
1.13347e-14
9.312e-15
1.35759e-14
7.29278e-15
1.33851e-14
7.50788e-15
8.91995e-15
9.79425e-15
9.49588e-15
7.27543e-15
3.06699e-15
3.35842e-15
7.35523e-16
-3.71231e-15
5.72459e-16
2.498e-16
1.97065e-15
2.39739e-15
-3.46251e-15
1.73819e-15
4.20844e-15
3.06005e-15
-9.95731e-16
2.01922e-15
3.17801e-15
2.04697e-15
-1.249e-16
1.70697e-15
-1.33574e-15
4.89192e-16
1.09288e-15
-1.87003e-15
-2.77556e-15
1.88738e-15
3.89272e-15
-1.56125e-15
-2.08167e-16
-1.48492e-15
-2.2829e-15
-1.30104e-15
-5.16948e-16
-3.10169e-15
-1.03736e-15
3.36536e-15
2.10248e-15
1.52656e-15
3.71231e-16
1.26982e-15
4.72539e-15
9.4369e-16
-1.56125e-16
-7.49401e-16
-8.63892e-16
-1.02002e-15
-2.73045e-15
1.38431e-15
-2.63678e-15
5.41234e-16
-1.07553e-15
6.88338e-15
6.83481e-16
-4.85723e-16
-2.91087e-15
4.00027e-15
-4.01415e-15
3.62904e-15
3.2023e-15
-5.48173e-16
-2.33147e-15
-3.36536e-16
-5.02723e-15
-5.12437e-15
-3.30638e-15
-1.5786e-15
-5.28397e-15
-2.99413e-15
-5.70377e-15
-3.73312e-15
-2.26555e-15
-3.38618e-15
-4.71498e-15
-8.17402e-15
-3.9968e-15
-5.54418e-15
8.56953e-16
-4.89886e-15
-1.46758e-15
-5.53724e-15
-1.74513e-15
-9.15934e-16
-2.73739e-15
-7.63278e-16
-2.84495e-16
-4.87804e-15
-6.96665e-15
-1.10675e-15
-1.76942e-15
-1.74166e-15
-2.99066e-15
-5.58581e-16
1.80411e-16
-1.13798e-15
-4.53804e-15
-5.81132e-15
-3.01495e-15
-2.92474e-15
-2.19616e-15
-1.7035e-15
-5.15213e-15
-3.80598e-15
-3.18495e-15
-2.10595e-15
3.01842e-16
1.14492e-16
-1.31839e-15
-4.05578e-15
7.91034e-16
-3.71578e-15
-5.03417e-15
-7.12971e-15
-6.06459e-15
-2.38351e-15
-1.31492e-15
-3.35496e-15
-1.3739e-15
-5.1209e-15
-6.43582e-15
-3.09128e-15
-1.73472e-15
-1.34615e-15
-2.70964e-15
-7.91034e-16
-4.20844e-15
-5.62744e-15
-1.95677e-15
-4.57967e-15
-2.8727e-15
-4.41314e-15
-1.97065e-15
-5.88765e-15
-6.1548e-15
1.2039e-15
-2.74086e-15
-1.55778e-15
-8.28504e-15
-6.36297e-15
-6.6093e-15
-1.34615e-15
-2.9976e-15
-6.29705e-15
-4.60049e-15
-3.67761e-15
-6.80705e-15
-2.63678e-15
-3.61516e-15
-4.72192e-15
-4.98213e-15
-5.51295e-15
-2.0782e-15
-7.78197e-15
-6.13398e-15
-1.8735e-15
-4.10089e-15
-1.53003e-15
-4.30905e-15
-3.51802e-15
-3.53884e-15
-5.89459e-15
-2.61596e-15
-7.21645e-16
-4.74273e-15
-3.23352e-15
-4.44089e-15
-7.324e-15
-6.20684e-15
-4.00374e-15
-3.52843e-15
-1.03736e-15
-3.05311e-15
-4.38538e-15
-3.37924e-15
-5.21805e-15
-5.05151e-15
-7.49401e-15
-3.38271e-15
-4.96131e-15
-1.98105e-15
-3.27169e-15
-2.9525e-15
-6.57113e-15
-6.27623e-15
-2.55004e-15
-9.08995e-16
-2.64719e-15
-7.65013e-15
-4.14946e-15
-2.67841e-15
-3.01842e-15
-7.20604e-15
-4.00721e-15
-2.69576e-15
-9.89486e-15
-4.35416e-15
-6.36644e-15
-5.14519e-15
-2.89005e-15
-3.16761e-15
-5.97439e-15
-5.21458e-15
-2.48065e-15
-2.68535e-15
-6.61277e-15
-2.67841e-15
-4.75661e-15
-5.48173e-16
-4.03497e-15
-3.9517e-15
-4.72539e-15
-9.88792e-15
-4.33681e-16
-5.43662e-15
-8.46198e-15
-2.48759e-15
-6.23113e-15
-4.46865e-15
-4.06966e-15
-4.39926e-15
-5.06192e-15
-6.87297e-15
-6.06806e-15
-3.29944e-15
-6.89379e-15
-4.25007e-15
-3.42781e-15
-2.73392e-15
-3.88925e-15
-3.12597e-15
-8.73954e-15
-3.33067e-15
-4.12864e-16
-3.29944e-15
-1.79717e-15
-4.45824e-15
-3.43822e-15
-3.37924e-15
1.1241e-15
-4.11129e-15
-3.48679e-15
-4.19456e-15
-1.22471e-15
-2.67147e-16
-7.56339e-15
-5.68295e-15
-4.41314e-15
-2.38351e-15
-4.7809e-15
-2.92821e-15
-3.64292e-15
1.60635e-15
-1.15533e-15
-5.8599e-15
1.36002e-15
-3.6568e-15
-1.71391e-15
9.08995e-16
-5.01682e-15
-2.53964e-15
-6.23807e-15
-3.91354e-15
-3.52843e-15
-6.36644e-15
-5.10009e-15
-5.55458e-15
-1.9533e-15
-6.9493e-15
-4.44089e-15
-4.85029e-15
5.13478e-16
8.74301e-16
-7.53911e-15
-2.34535e-15
-3.55965e-15
-4.40273e-15
3.36536e-16
-4.1217e-15
-4.25701e-15
-7.9034e-15
-2.06779e-15
-1.93248e-15
-4.60743e-15
-4.5311e-15
1.0339e-15
-4.81212e-15
-5.4956e-15
-4.94049e-15
-6.29358e-15
-5.75928e-15
-7.73687e-16
-7.51482e-15
-5.38458e-15
-3.16414e-15
-6.05418e-15
-3.58741e-15
-3.51108e-15
-4.54151e-15
-1.12618e-14
-4.50334e-15
-8.92342e-15
-5.04111e-15
-6.4948e-15
-3.30291e-15
-9.4022e-16
-2.46331e-15
-3.55271e-15
-6.05765e-15
-1.00267e-15
-8.71178e-15
-4.05231e-15
-1.06963e-14
-5.51989e-15
-9.57567e-16
-6.01602e-15
-4.41314e-15
-1.47451e-15
-9.66241e-15
-3.57006e-15
-7.14012e-15
-3.27863e-15
-5.02723e-15
-3.64639e-15
3.60129e-15
-2.25514e-15
-3.57006e-15
-7.95891e-15
-1.2837e-16
-3.42434e-15
-1.36002e-15
-6.62664e-15
-4.69763e-15
-3.08781e-16
-2.77209e-15
2.74086e-16
-2.17534e-15
-4.40273e-15
-1.9533e-15
-2.70617e-15