/*--------------------------------*- C++ -*----------------------------------*\
| =========                 |                                                 |
| \\      /  F ield         | foam-extend: Open Source CFD                    |
|  \\    /   O peration     | Version:     4.0                                |
|   \\  /    A nd           | Web:         http://www.foam-extend.org         |
|    \\/     M anipulation  |                                                 |
\*---------------------------------------------------------------------------*/
FoamFile
{
    version     2.0;
    format      ascii;
    class       volScalarField;
    location    "680";
    object      cPlus;
}
// * * * * * * * * * * * * * * * * * * * * * * * * * * * * * * * * * * * * * //

dimensions      [0 0 0 0 0 0 0];

internalField   nonuniform List<scalar> 
6960
(
0.347353
0.34735
0.347346
0.347341
0.347337
0.347333
0.34733
0.347326
0.347323
0.34732
0.347317
0.347314
0.347312
0.34731
0.347307
0.347306
0.347304
0.347302
0.347301
0.3473
0.347299
0.347298
0.347297
0.347296
0.347295
0.347295
0.347294
0.347294
0.347294
0.347294
0.347294
0.347294
0.347294
0.347294
0.347295
0.347295
0.347296
0.347297
0.347298
0.347299
0.3473
0.347301
0.347302
0.347304
0.347306
0.347307
0.34731
0.347312
0.347314
0.347317
0.34732
0.347323
0.347326
0.34733
0.347333
0.347337
0.347341
0.347346
0.34735
0.347353
0.123928
0.123925
0.123922
0.123919
0.123915
0.123912
0.123909
0.123906
0.123904
0.123901
0.123899
0.123897
0.123895
0.123893
0.123891
0.12389
0.123888
0.123887
0.123886
0.123885
0.123884
0.123883
0.123882
0.123882
0.123881
0.123881
0.12388
0.12388
0.12388
0.12388
0.12388
0.12388
0.12388
0.12388
0.123881
0.123881
0.123882
0.123882
0.123883
0.123884
0.123885
0.123886
0.123887
0.123888
0.12389
0.123891
0.123893
0.123895
0.123897
0.123899
0.123901
0.123904
0.123906
0.123909
0.123912
0.123915
0.123919
0.123922
0.123925
0.123928
0.0523027
0.0523011
0.052299
0.0522967
0.0522945
0.0522923
0.0522903
0.0522884
0.0522866
0.0522849
0.0522833
0.0522819
0.0522806
0.0522794
0.0522782
0.0522772
0.0522763
0.0522755
0.0522747
0.052274
0.0522734
0.0522729
0.0522724
0.052272
0.0522717
0.0522714
0.0522712
0.052271
0.0522709
0.0522708
0.0522708
0.0522709
0.052271
0.0522712
0.0522714
0.0522717
0.052272
0.0522724
0.0522729
0.0522734
0.052274
0.0522747
0.0522755
0.0522763
0.0522772
0.0522782
0.0522794
0.0522806
0.0522819
0.0522833
0.0522849
0.0522866
0.0522884
0.0522903
0.0522923
0.0522945
0.0522967
0.052299
0.0523011
0.0523027
0.024339
0.0243381
0.0243369
0.0243356
0.0243343
0.0243331
0.0243319
0.0243308
0.0243297
0.0243287
0.0243278
0.024327
0.0243262
0.0243255
0.0243249
0.0243243
0.0243238
0.0243233
0.0243228
0.0243224
0.0243221
0.0243218
0.0243215
0.0243213
0.0243211
0.0243209
0.0243208
0.0243207
0.0243206
0.0243206
0.0243206
0.0243206
0.0243207
0.0243208
0.0243209
0.0243211
0.0243213
0.0243215
0.0243218
0.0243221
0.0243224
0.0243228
0.0243233
0.0243238
0.0243243
0.0243249
0.0243255
0.0243262
0.024327
0.0243278
0.0243287
0.0243297
0.0243308
0.0243319
0.0243331
0.0243343
0.0243356
0.0243369
0.0243381
0.024339
0.0126082
0.0126079
0.0126073
0.0126067
0.012606
0.0126054
0.0126048
0.0126043
0.0126038
0.0126033
0.0126029
0.0126025
0.0126021
0.0126017
0.0126014
0.0126011
0.0126009
0.0126006
0.0126004
0.0126002
0.0126001
0.0125999
0.0125998
0.0125997
0.0125996
0.0125995
0.0125994
0.0125994
0.0125993
0.0125993
0.0125993
0.0125993
0.0125994
0.0125994
0.0125995
0.0125996
0.0125997
0.0125998
0.0125999
0.0126001
0.0126002
0.0126004
0.0126006
0.0126009
0.0126011
0.0126014
0.0126017
0.0126021
0.0126025
0.0126029
0.0126033
0.0126038
0.0126043
0.0126048
0.0126054
0.012606
0.0126067
0.0126073
0.0126079
0.0126082
0.00759262
0.00759258
0.00759242
0.00759222
0.00759201
0.0075918
0.00759161
0.00759143
0.00759125
0.00759109
0.00759095
0.00759081
0.00759068
0.00759057
0.00759046
0.00759036
0.00759027
0.00759019
0.00759012
0.00759006
0.00759
0.00758995
0.0075899
0.00758986
0.00758983
0.00758981
0.00758978
0.00758977
0.00758976
0.00758975
0.00758975
0.00758976
0.00758977
0.00758978
0.00758981
0.00758983
0.00758986
0.0075899
0.00758995
0.00759
0.00759006
0.00759012
0.00759019
0.00759027
0.00759036
0.00759046
0.00759057
0.00759068
0.00759081
0.00759095
0.00759109
0.00759125
0.00759143
0.00759161
0.0075918
0.00759201
0.00759222
0.00759242
0.00759258
0.00759262
0.00546333
0.00546348
0.00546355
0.0054636
0.00546363
0.00546367
0.00546369
0.00546372
0.00546374
0.00546377
0.00546379
0.00546381
0.00546383
0.00546384
0.00546386
0.00546387
0.00546388
0.0054639
0.00546391
0.00546392
0.00546392
0.00546393
0.00546394
0.00546394
0.00546395
0.00546395
0.00546396
0.00546396
0.00546396
0.00546396
0.00546396
0.00546396
0.00546396
0.00546396
0.00546395
0.00546395
0.00546394
0.00546394
0.00546393
0.00546392
0.00546392
0.00546391
0.0054639
0.00546388
0.00546387
0.00546386
0.00546384
0.00546383
0.00546381
0.00546379
0.00546377
0.00546374
0.00546372
0.00546369
0.00546367
0.00546363
0.0054636
0.00546355
0.00546348
0.00546333
0.00458176
0.004582
0.0045822
0.00458239
0.00458256
0.00458271
0.00458286
0.004583
0.00458314
0.00458326
0.00458337
0.00458348
0.00458357
0.00458366
0.00458374
0.00458382
0.00458389
0.00458395
0.004584
0.00458405
0.0045841
0.00458414
0.00458417
0.0045842
0.00458422
0.00458425
0.00458426
0.00458427
0.00458428
0.00458429
0.00458429
0.00458428
0.00458427
0.00458426
0.00458425
0.00458422
0.0045842
0.00458417
0.00458414
0.0045841
0.00458405
0.004584
0.00458395
0.00458389
0.00458382
0.00458374
0.00458366
0.00458357
0.00458348
0.00458337
0.00458326
0.00458314
0.004583
0.00458286
0.00458271
0.00458256
0.00458239
0.0045822
0.004582
0.00458176
0.00423458
0.00423487
0.00423514
0.00423539
0.00423563
0.00423586
0.00423607
0.00423627
0.00423646
0.00423663
0.00423679
0.00423694
0.00423708
0.0042372
0.00423732
0.00423743
0.00423752
0.00423761
0.00423769
0.00423776
0.00423782
0.00423788
0.00423793
0.00423797
0.00423801
0.00423803
0.00423806
0.00423808
0.00423809
0.00423809
0.00423809
0.00423809
0.00423808
0.00423806
0.00423803
0.00423801
0.00423797
0.00423793
0.00423788
0.00423782
0.00423776
0.00423769
0.00423761
0.00423752
0.00423743
0.00423732
0.0042372
0.00423708
0.00423694
0.00423679
0.00423663
0.00423646
0.00423627
0.00423607
0.00423586
0.00423563
0.00423539
0.00423514
0.00423487
0.00423458
0.00411287
0.00411319
0.00411349
0.00411378
0.00411406
0.00411432
0.00411456
0.00411479
0.004115
0.0041152
0.00411539
0.00411556
0.00411572
0.00411586
0.004116
0.00411612
0.00411623
0.00411633
0.00411642
0.0041165
0.00411658
0.00411664
0.0041167
0.00411674
0.00411679
0.00411682
0.00411685
0.00411687
0.00411688
0.00411688
0.00411688
0.00411688
0.00411687
0.00411685
0.00411682
0.00411679
0.00411674
0.0041167
0.00411664
0.00411658
0.0041165
0.00411642
0.00411633
0.00411623
0.00411612
0.004116
0.00411586
0.00411572
0.00411556
0.00411539
0.0041152
0.004115
0.00411479
0.00411456
0.00411432
0.00411406
0.00411378
0.00411349
0.00411319
0.00411287
0.00408495
0.00408529
0.00408561
0.00408592
0.00408621
0.00408649
0.00408675
0.004087
0.00408722
0.00408744
0.00408764
0.00408782
0.00408799
0.00408814
0.00408829
0.00408842
0.00408853
0.00408864
0.00408874
0.00408883
0.0040889
0.00408897
0.00408903
0.00408908
0.00408913
0.00408916
0.00408919
0.00408921
0.00408923
0.00408923
0.00408923
0.00408923
0.00408921
0.00408919
0.00408916
0.00408913
0.00408908
0.00408903
0.00408897
0.0040889
0.00408883
0.00408874
0.00408864
0.00408853
0.00408842
0.00408829
0.00408814
0.00408799
0.00408782
0.00408764
0.00408744
0.00408722
0.004087
0.00408675
0.00408649
0.00408621
0.00408592
0.00408561
0.00408529
0.00408495
0.00409591
0.00409626
0.00409659
0.0040969
0.00409721
0.00409749
0.00409776
0.00409802
0.00409825
0.00409847
0.00409868
0.00409887
0.00409904
0.00409921
0.00409935
0.00409949
0.00409961
0.00409972
0.00409982
0.00409991
0.00409999
0.00410006
0.00410013
0.00410018
0.00410022
0.00410026
0.00410029
0.00410031
0.00410033
0.00410033
0.00410033
0.00410033
0.00410031
0.00410029
0.00410026
0.00410022
0.00410018
0.00410013
0.00410006
0.00409999
0.00409991
0.00409982
0.00409972
0.00409961
0.00409949
0.00409935
0.00409921
0.00409904
0.00409887
0.00409868
0.00409847
0.00409825
0.00409802
0.00409776
0.00409749
0.00409721
0.0040969
0.00409659
0.00409626
0.00409591
0.00412339
0.00412375
0.00412408
0.00412441
0.00412472
0.00412501
0.00412529
0.00412555
0.00412579
0.00412601
0.00412622
0.00412642
0.0041266
0.00412676
0.00412691
0.00412705
0.00412717
0.00412729
0.00412739
0.00412748
0.00412757
0.00412764
0.0041277
0.00412776
0.0041278
0.00412784
0.00412787
0.00412789
0.00412791
0.00412792
0.00412792
0.00412791
0.00412789
0.00412787
0.00412784
0.0041278
0.00412776
0.0041277
0.00412764
0.00412757
0.00412748
0.00412739
0.00412729
0.00412717
0.00412705
0.00412691
0.00412676
0.0041266
0.00412642
0.00412622
0.00412601
0.00412579
0.00412555
0.00412529
0.00412501
0.00412472
0.00412441
0.00412408
0.00412375
0.00412339
0.0041586
0.00415896
0.00415931
0.00415964
0.00415995
0.00416025
0.00416053
0.00416079
0.00416104
0.00416127
0.00416148
0.00416168
0.00416186
0.00416203
0.00416218
0.00416233
0.00416245
0.00416257
0.00416267
0.00416277
0.00416285
0.00416293
0.00416299
0.00416305
0.00416309
0.00416313
0.00416316
0.00416318
0.0041632
0.00416321
0.00416321
0.0041632
0.00416318
0.00416316
0.00416313
0.00416309
0.00416305
0.00416299
0.00416293
0.00416285
0.00416277
0.00416267
0.00416257
0.00416245
0.00416233
0.00416218
0.00416203
0.00416186
0.00416168
0.00416148
0.00416127
0.00416104
0.00416079
0.00416053
0.00416025
0.00415995
0.00415964
0.00415931
0.00415896
0.0041586
0.00419824
0.00419861
0.00419896
0.00419929
0.00419961
0.00419991
0.0042002
0.00420047
0.00420072
0.00420095
0.00420117
0.00420137
0.00420155
0.00420172
0.00420188
0.00420202
0.00420215
0.00420227
0.00420238
0.00420247
0.00420256
0.00420263
0.0042027
0.00420276
0.0042028
0.00420284
0.00420287
0.0042029
0.00420291
0.00420292
0.00420292
0.00420291
0.0042029
0.00420287
0.00420284
0.0042028
0.00420276
0.0042027
0.00420263
0.00420256
0.00420247
0.00420238
0.00420227
0.00420215
0.00420202
0.00420188
0.00420172
0.00420155
0.00420137
0.00420117
0.00420095
0.00420072
0.00420047
0.0042002
0.00419991
0.00419961
0.00419929
0.00419896
0.00419861
0.00419824
0.00424118
0.00424156
0.00424191
0.00424225
0.00424258
0.00424288
0.00424318
0.00424345
0.0042437
0.00424394
0.00424416
0.00424436
0.00424455
0.00424472
0.00424488
0.00424503
0.00424516
0.00424528
0.00424539
0.00424549
0.00424557
0.00424565
0.00424572
0.00424577
0.00424582
0.00424586
0.00424589
0.00424592
0.00424593
0.00424594
0.00424594
0.00424593
0.00424592
0.00424589
0.00424586
0.00424582
0.00424577
0.00424572
0.00424565
0.00424557
0.00424549
0.00424539
0.00424528
0.00424516
0.00424503
0.00424488
0.00424472
0.00424455
0.00424436
0.00424416
0.00424394
0.0042437
0.00424345
0.00424318
0.00424288
0.00424258
0.00424225
0.00424191
0.00424156
0.00424118
0.00428717
0.00428755
0.00428791
0.00428826
0.00428859
0.0042889
0.0042892
0.00428947
0.00428973
0.00428997
0.0042902
0.00429041
0.0042906
0.00429077
0.00429093
0.00429108
0.00429122
0.00429134
0.00429145
0.00429155
0.00429164
0.00429171
0.00429178
0.00429184
0.00429189
0.00429193
0.00429196
0.00429199
0.004292
0.00429201
0.00429201
0.004292
0.00429199
0.00429196
0.00429193
0.00429189
0.00429184
0.00429178
0.00429171
0.00429164
0.00429155
0.00429145
0.00429134
0.00429122
0.00429108
0.00429093
0.00429077
0.0042906
0.00429041
0.0042902
0.00428997
0.00428973
0.00428947
0.0042892
0.0042889
0.00428859
0.00428826
0.00428791
0.00428755
0.00428717
0.00433628
0.00433667
0.00433704
0.00433739
0.00433772
0.00433804
0.00433834
0.00433863
0.00433889
0.00433914
0.00433936
0.00433957
0.00433977
0.00433995
0.00434011
0.00434026
0.0043404
0.00434052
0.00434064
0.00434074
0.00434083
0.00434091
0.00434097
0.00434103
0.00434108
0.00434113
0.00434116
0.00434118
0.0043412
0.00434121
0.00434121
0.0043412
0.00434118
0.00434116
0.00434113
0.00434108
0.00434103
0.00434097
0.00434091
0.00434083
0.00434074
0.00434064
0.00434052
0.0043404
0.00434026
0.00434011
0.00433995
0.00433977
0.00433957
0.00433936
0.00433914
0.00433889
0.00433863
0.00433834
0.00433804
0.00433772
0.00433739
0.00433704
0.00433667
0.00433628
0.00438873
0.00438913
0.00438951
0.00438987
0.00439021
0.00439054
0.00439084
0.00439113
0.0043914
0.00439165
0.00439188
0.0043921
0.00439229
0.00439248
0.00439264
0.0043928
0.00439294
0.00439306
0.00439318
0.00439328
0.00439337
0.00439345
0.00439352
0.00439358
0.00439363
0.00439368
0.00439371
0.00439373
0.00439375
0.00439376
0.00439376
0.00439375
0.00439373
0.00439371
0.00439368
0.00439363
0.00439358
0.00439352
0.00439345
0.00439337
0.00439328
0.00439318
0.00439306
0.00439294
0.0043928
0.00439264
0.00439248
0.00439229
0.0043921
0.00439188
0.00439165
0.0043914
0.00439113
0.00439084
0.00439054
0.00439021
0.00438987
0.00438951
0.00438913
0.00438873
0.00444484
0.00444525
0.00444563
0.004446
0.00444635
0.00444668
0.00444699
0.00444729
0.00444756
0.00444782
0.00444805
0.00444827
0.00444848
0.00444866
0.00444883
0.00444899
0.00444913
0.00444926
0.00444938
0.00444948
0.00444958
0.00444966
0.00444973
0.00444979
0.00444984
0.00444989
0.00444992
0.00444995
0.00444996
0.00444997
0.00444997
0.00444996
0.00444995
0.00444992
0.00444989
0.00444984
0.00444979
0.00444973
0.00444966
0.00444958
0.00444948
0.00444938
0.00444926
0.00444913
0.00444899
0.00444883
0.00444866
0.00444848
0.00444827
0.00444805
0.00444782
0.00444756
0.00444729
0.00444699
0.00444668
0.00444635
0.004446
0.00444563
0.00444525
0.00444484
0.00450497
0.00450539
0.00450578
0.00450615
0.00450651
0.00450685
0.00450717
0.00450747
0.00450775
0.00450801
0.00450825
0.00450847
0.00450868
0.00450887
0.00450905
0.00450921
0.00450935
0.00450948
0.0045096
0.00450971
0.0045098
0.00450989
0.00450996
0.00451002
0.00451008
0.00451012
0.00451016
0.00451018
0.0045102
0.00451021
0.00451021
0.0045102
0.00451018
0.00451016
0.00451012
0.00451008
0.00451002
0.00450996
0.00450989
0.0045098
0.00450971
0.0045096
0.00450948
0.00450935
0.00450921
0.00450905
0.00450887
0.00450868
0.00450847
0.00450825
0.00450801
0.00450775
0.00450747
0.00450717
0.00450685
0.00450651
0.00450615
0.00450578
0.00450539
0.00450497
0.00456953
0.00456996
0.00457036
0.00457074
0.00457111
0.00457146
0.00457178
0.00457209
0.00457238
0.00457264
0.00457289
0.00457312
0.00457333
0.00457353
0.0045737
0.00457387
0.00457402
0.00457415
0.00457427
0.00457438
0.00457448
0.00457457
0.00457464
0.00457471
0.00457476
0.00457481
0.00457484
0.00457487
0.00457489
0.00457489
0.00457489
0.00457489
0.00457487
0.00457484
0.00457481
0.00457476
0.00457471
0.00457464
0.00457457
0.00457448
0.00457438
0.00457427
0.00457415
0.00457402
0.00457387
0.0045737
0.00457353
0.00457333
0.00457312
0.00457289
0.00457264
0.00457238
0.00457209
0.00457178
0.00457146
0.00457111
0.00457074
0.00457036
0.00456996
0.00456953
0.00463902
0.00463946
0.00463987
0.00464026
0.00464064
0.00464099
0.00464133
0.00464164
0.00464194
0.00464221
0.00464246
0.0046427
0.00464291
0.00464311
0.0046433
0.00464347
0.00464362
0.00464376
0.00464388
0.00464399
0.00464409
0.00464418
0.00464426
0.00464432
0.00464438
0.00464443
0.00464446
0.00464449
0.00464451
0.00464452
0.00464452
0.00464451
0.00464449
0.00464446
0.00464443
0.00464438
0.00464432
0.00464426
0.00464418
0.00464409
0.00464399
0.00464388
0.00464376
0.00464362
0.00464347
0.0046433
0.00464311
0.00464291
0.0046427
0.00464246
0.00464221
0.00464194
0.00464164
0.00464133
0.00464099
0.00464064
0.00464026
0.00463987
0.00463946
0.00463902
0.004714
0.00471445
0.00471487
0.00471528
0.00471566
0.00471603
0.00471637
0.00471669
0.00471699
0.00471727
0.00471754
0.00471778
0.004718
0.0047182
0.00471839
0.00471856
0.00471872
0.00471886
0.00471899
0.00471911
0.00471921
0.0047193
0.00471938
0.00471945
0.0047195
0.00471955
0.00471959
0.00471962
0.00471964
0.00471965
0.00471965
0.00471964
0.00471962
0.00471959
0.00471955
0.0047195
0.00471945
0.00471938
0.0047193
0.00471921
0.00471911
0.00471899
0.00471886
0.00471872
0.00471856
0.00471839
0.0047182
0.004718
0.00471778
0.00471754
0.00471727
0.00471699
0.00471669
0.00471637
0.00471603
0.00471566
0.00471528
0.00471487
0.00471445
0.004714
0.00479513
0.0047956
0.00479603
0.00479644
0.00479684
0.00479721
0.00479757
0.0047979
0.00479821
0.0047985
0.00479877
0.00479902
0.00479924
0.00479946
0.00479965
0.00479983
0.00479999
0.00480013
0.00480027
0.00480038
0.00480049
0.00480058
0.00480066
0.00480073
0.00480079
0.00480084
0.00480088
0.00480091
0.00480093
0.00480094
0.00480094
0.00480093
0.00480091
0.00480088
0.00480084
0.00480079
0.00480073
0.00480066
0.00480058
0.00480049
0.00480038
0.00480027
0.00480013
0.00479999
0.00479983
0.00479965
0.00479946
0.00479924
0.00479902
0.00479877
0.0047985
0.00479821
0.0047979
0.00479757
0.00479721
0.00479684
0.00479644
0.00479603
0.0047956
0.00479513
0.00488318
0.00488366
0.00488411
0.00488454
0.00488494
0.00488533
0.0048857
0.00488604
0.00488636
0.00488665
0.00488693
0.00488719
0.00488742
0.00488764
0.00488784
0.00488802
0.00488819
0.00488834
0.00488848
0.0048886
0.00488871
0.0048888
0.00488889
0.00488896
0.00488902
0.00488907
0.00488911
0.00488914
0.00488916
0.00488917
0.00488917
0.00488916
0.00488914
0.00488911
0.00488907
0.00488902
0.00488896
0.00488889
0.0048888
0.00488871
0.0048886
0.00488848
0.00488834
0.00488819
0.00488802
0.00488784
0.00488764
0.00488742
0.00488719
0.00488693
0.00488665
0.00488636
0.00488604
0.0048857
0.00488533
0.00488494
0.00488454
0.00488411
0.00488366
0.00488318
0.00497906
0.00497956
0.00498002
0.00498046
0.00498089
0.00498129
0.00498166
0.00498202
0.00498235
0.00498265
0.00498294
0.0049832
0.00498345
0.00498367
0.00498388
0.00498407
0.00498424
0.0049844
0.00498454
0.00498466
0.00498478
0.00498487
0.00498496
0.00498504
0.0049851
0.00498515
0.00498519
0.00498522
0.00498524
0.00498525
0.00498525
0.00498524
0.00498522
0.00498519
0.00498515
0.0049851
0.00498504
0.00498496
0.00498487
0.00498478
0.00498466
0.00498454
0.0049844
0.00498424
0.00498407
0.00498388
0.00498367
0.00498345
0.0049832
0.00498294
0.00498265
0.00498235
0.00498202
0.00498166
0.00498129
0.00498089
0.00498046
0.00498002
0.00497956
0.00497906
0.00508386
0.00508438
0.00508486
0.00508531
0.00508575
0.00508617
0.00508656
0.00508692
0.00508726
0.00508758
0.00508788
0.00508815
0.00508841
0.00508864
0.00508885
0.00508905
0.00508923
0.00508939
0.00508953
0.00508967
0.00508978
0.00508988
0.00508997
0.00509005
0.00509012
0.00509017
0.00509021
0.00509025
0.00509027
0.00509028
0.00509028
0.00509027
0.00509025
0.00509021
0.00509017
0.00509012
0.00509005
0.00508997
0.00508988
0.00508978
0.00508967
0.00508953
0.00508939
0.00508923
0.00508905
0.00508885
0.00508864
0.00508841
0.00508815
0.00508788
0.00508758
0.00508726
0.00508692
0.00508656
0.00508617
0.00508575
0.00508531
0.00508486
0.00508438
0.00508386
0.00519887
0.00519941
0.00519991
0.00520038
0.00520084
0.00520127
0.00520168
0.00520206
0.00520241
0.00520274
0.00520305
0.00520334
0.0052036
0.00520384
0.00520406
0.00520427
0.00520445
0.00520462
0.00520477
0.00520491
0.00520503
0.00520514
0.00520523
0.00520531
0.00520538
0.00520543
0.00520548
0.00520551
0.00520553
0.00520555
0.00520555
0.00520553
0.00520551
0.00520548
0.00520543
0.00520538
0.00520531
0.00520523
0.00520514
0.00520503
0.00520491
0.00520477
0.00520462
0.00520445
0.00520427
0.00520406
0.00520384
0.0052036
0.00520334
0.00520305
0.00520274
0.00520241
0.00520206
0.00520168
0.00520127
0.00520084
0.00520038
0.00519991
0.00519941
0.00519887
0.00532567
0.00532623
0.00532675
0.00532725
0.00532773
0.00532817
0.0053286
0.005329
0.00532937
0.00532971
0.00533003
0.00533033
0.00533061
0.00533086
0.00533109
0.0053313
0.0053315
0.00533167
0.00533183
0.00533197
0.0053321
0.00533221
0.00533231
0.00533239
0.00533246
0.00533252
0.00533257
0.0053326
0.00533262
0.00533264
0.00533264
0.00533262
0.0053326
0.00533257
0.00533252
0.00533246
0.00533239
0.00533231
0.00533221
0.0053321
0.00533197
0.00533183
0.00533167
0.0053315
0.0053313
0.00533109
0.00533086
0.00533061
0.00533033
0.00533003
0.00532971
0.00532937
0.005329
0.0053286
0.00532817
0.00532773
0.00532725
0.00532675
0.00532623
0.00532567
0.00546619
0.00546678
0.00546732
0.00546784
0.00546834
0.00546881
0.00546925
0.00546967
0.00547006
0.00547042
0.00547076
0.00547107
0.00547135
0.00547162
0.00547186
0.00547208
0.00547229
0.00547247
0.00547264
0.00547279
0.00547292
0.00547303
0.00547314
0.00547322
0.0054733
0.00547336
0.00547341
0.00547345
0.00547347
0.00547348
0.00547348
0.00547347
0.00547345
0.00547341
0.00547336
0.0054733
0.00547322
0.00547314
0.00547303
0.00547292
0.00547279
0.00547264
0.00547247
0.00547229
0.00547208
0.00547186
0.00547162
0.00547135
0.00547107
0.00547076
0.00547042
0.00547006
0.00546967
0.00546925
0.00546881
0.00546834
0.00546784
0.00546732
0.00546678
0.00546619
0.0056228
0.00562342
0.00562399
0.00562454
0.00562506
0.00562556
0.00562602
0.00562646
0.00562687
0.00562725
0.00562761
0.00562793
0.00562824
0.00562852
0.00562877
0.005629
0.00562922
0.00562941
0.00562959
0.00562974
0.00562988
0.00563
0.00563011
0.00563021
0.00563028
0.00563035
0.0056304
0.00563044
0.00563046
0.00563048
0.00563048
0.00563046
0.00563044
0.0056304
0.00563035
0.00563028
0.00563021
0.00563011
0.00563
0.00562988
0.00562974
0.00562959
0.00562941
0.00562922
0.005629
0.00562877
0.00562852
0.00562824
0.00562793
0.00562761
0.00562725
0.00562687
0.00562646
0.00562602
0.00562556
0.00562506
0.00562454
0.00562399
0.00562342
0.0056228
0.00579849
0.00579915
0.00579976
0.00580034
0.00580089
0.00580141
0.00580191
0.00580237
0.0058028
0.00580321
0.00580358
0.00580393
0.00580425
0.00580454
0.00580481
0.00580506
0.00580529
0.00580549
0.00580567
0.00580584
0.00580599
0.00580612
0.00580623
0.00580633
0.00580641
0.00580648
0.00580654
0.00580658
0.0058066
0.00580662
0.00580662
0.0058066
0.00580658
0.00580654
0.00580648
0.00580641
0.00580633
0.00580623
0.00580612
0.00580599
0.00580584
0.00580567
0.00580549
0.00580529
0.00580506
0.00580481
0.00580454
0.00580425
0.00580393
0.00580358
0.00580321
0.0058028
0.00580237
0.00580191
0.00580141
0.00580089
0.00580034
0.00579976
0.00579915
0.00579849
0.00599707
0.00599777
0.00599842
0.00599904
0.00599962
0.00600018
0.00600071
0.0060012
0.00600166
0.00600209
0.00600249
0.00600286
0.0060032
0.00600351
0.0060038
0.00600406
0.0060043
0.00600452
0.00600472
0.00600489
0.00600505
0.00600519
0.00600531
0.00600542
0.0060055
0.00600558
0.00600564
0.00600568
0.00600571
0.00600572
0.00600572
0.00600571
0.00600568
0.00600564
0.00600558
0.0060055
0.00600542
0.00600531
0.00600519
0.00600505
0.00600489
0.00600472
0.00600452
0.0060043
0.00600406
0.0060038
0.00600351
0.0060032
0.00600286
0.00600249
0.00600209
0.00600166
0.0060012
0.00600071
0.00600018
0.00599962
0.00599904
0.00599842
0.00599777
0.00599707
0.00622345
0.0062242
0.00622489
0.00622555
0.00622618
0.00622678
0.00622734
0.00622787
0.00622837
0.00622883
0.00622925
0.00622965
0.00623002
0.00623035
0.00623066
0.00623094
0.0062312
0.00623144
0.00623165
0.00623184
0.006232
0.00623215
0.00623228
0.0062324
0.00623249
0.00623257
0.00623263
0.00623268
0.00623271
0.00623272
0.00623272
0.00623271
0.00623268
0.00623263
0.00623257
0.00623249
0.0062324
0.00623228
0.00623215
0.006232
0.00623184
0.00623165
0.00623144
0.0062312
0.00623094
0.00623066
0.00623035
0.00623002
0.00622965
0.00622925
0.00622883
0.00622837
0.00622787
0.00622734
0.00622678
0.00622618
0.00622555
0.00622489
0.0062242
0.00622345
0.00648409
0.0064849
0.00648565
0.00648636
0.00648704
0.00648769
0.0064883
0.00648887
0.0064894
0.0064899
0.00649036
0.00649079
0.00649119
0.00649155
0.00649189
0.00649219
0.00649247
0.00649272
0.00649295
0.00649316
0.00649334
0.0064935
0.00649364
0.00649376
0.00649387
0.00649395
0.00649402
0.00649407
0.0064941
0.00649412
0.00649412
0.0064941
0.00649407
0.00649402
0.00649395
0.00649387
0.00649376
0.00649364
0.0064935
0.00649334
0.00649316
0.00649295
0.00649272
0.00649247
0.00649219
0.00649189
0.00649155
0.00649119
0.00649079
0.00649036
0.0064899
0.0064894
0.00648887
0.0064883
0.00648769
0.00648704
0.00648636
0.00648565
0.0064849
0.00648409
0.00678768
0.00678856
0.00678938
0.00679016
0.0067909
0.00679161
0.00679228
0.0067929
0.00679349
0.00679403
0.00679454
0.006795
0.00679544
0.00679584
0.0067962
0.00679654
0.00679684
0.00679712
0.00679737
0.00679759
0.00679779
0.00679797
0.00679812
0.00679825
0.00679837
0.00679846
0.00679853
0.00679859
0.00679862
0.00679864
0.00679864
0.00679862
0.00679859
0.00679853
0.00679846
0.00679837
0.00679825
0.00679812
0.00679797
0.00679779
0.00679759
0.00679737
0.00679712
0.00679684
0.00679654
0.0067962
0.00679584
0.00679544
0.006795
0.00679454
0.00679403
0.00679349
0.0067929
0.00679228
0.00679161
0.0067909
0.00679016
0.00678938
0.00678856
0.00678768
0.00714616
0.00714714
0.00714804
0.00714891
0.00714973
0.00715051
0.00715125
0.00715194
0.00715259
0.00715319
0.00715375
0.00715427
0.00715475
0.00715519
0.0071556
0.00715597
0.0071563
0.00715661
0.00715689
0.00715714
0.00715736
0.00715755
0.00715772
0.00715787
0.00715799
0.0071581
0.00715818
0.00715824
0.00715828
0.0071583
0.0071583
0.00715828
0.00715824
0.00715818
0.0071581
0.00715799
0.00715787
0.00715772
0.00715755
0.00715736
0.00715714
0.00715689
0.00715661
0.0071563
0.00715597
0.0071556
0.00715519
0.00715475
0.00715427
0.00715375
0.00715319
0.00715259
0.00715194
0.00715125
0.00715051
0.00714973
0.00714891
0.00714804
0.00714714
0.00714616
0.00757634
0.00757743
0.00757845
0.00757942
0.00758035
0.00758123
0.00758205
0.00758283
0.00758356
0.00758424
0.00758487
0.00758545
0.00758599
0.00758649
0.00758694
0.00758736
0.00758774
0.00758808
0.0075884
0.00758867
0.00758892
0.00758914
0.00758934
0.0075895
0.00758964
0.00758976
0.00758985
0.00758992
0.00758996
0.00758998
0.00758998
0.00758996
0.00758992
0.00758985
0.00758976
0.00758964
0.0075895
0.00758934
0.00758914
0.00758892
0.00758867
0.0075884
0.00758808
0.00758774
0.00758736
0.00758694
0.00758649
0.00758599
0.00758545
0.00758487
0.00758424
0.00758356
0.00758283
0.00758205
0.00758123
0.00758035
0.00757942
0.00757845
0.00757743
0.00757634
0.00810233
0.00810358
0.00810474
0.00810585
0.00810691
0.00810792
0.00810887
0.00810976
0.00811059
0.00811137
0.00811209
0.00811276
0.00811338
0.00811395
0.00811447
0.00811495
0.00811538
0.00811578
0.00811614
0.00811646
0.00811674
0.00811699
0.00811721
0.0081174
0.00811757
0.0081177
0.0081178
0.00811788
0.00811793
0.00811796
0.00811796
0.00811793
0.00811788
0.0081178
0.0081177
0.00811757
0.0081174
0.00811721
0.00811699
0.00811674
0.00811646
0.00811614
0.00811578
0.00811538
0.00811495
0.00811447
0.00811395
0.00811338
0.00811276
0.00811209
0.00811137
0.00811059
0.00810976
0.00810887
0.00810792
0.00810691
0.00810585
0.00810474
0.00810358
0.00810233
0.00875921
0.00876066
0.00876201
0.00876331
0.00876455
0.00876573
0.00876685
0.00876789
0.00876887
0.00876978
0.00877063
0.00877141
0.00877214
0.0087728
0.00877342
0.00877398
0.00877449
0.00877495
0.00877537
0.00877574
0.00877608
0.00877638
0.00877663
0.00877686
0.00877704
0.0087772
0.00877732
0.00877741
0.00877747
0.00877751
0.00877751
0.00877747
0.00877741
0.00877732
0.0087772
0.00877704
0.00877686
0.00877663
0.00877638
0.00877608
0.00877574
0.00877537
0.00877495
0.00877449
0.00877398
0.00877342
0.0087728
0.00877214
0.00877141
0.00877063
0.00876978
0.00876887
0.00876789
0.00876685
0.00876573
0.00876455
0.00876331
0.00876201
0.00876066
0.00875921
0.00959779
0.00959951
0.00960113
0.00960269
0.00960419
0.0096056
0.00960694
0.0096082
0.00960937
0.00961047
0.00961148
0.00961242
0.00961329
0.0096141
0.00961483
0.00961551
0.00961612
0.00961668
0.00961718
0.00961763
0.00961803
0.00961839
0.0096187
0.00961897
0.00961919
0.00961938
0.00961953
0.00961964
0.00961971
0.00961975
0.00961975
0.00961971
0.00961964
0.00961953
0.00961938
0.00961919
0.00961897
0.0096187
0.00961839
0.00961803
0.00961763
0.00961718
0.00961668
0.00961612
0.00961551
0.00961483
0.0096141
0.00961329
0.00961242
0.00961148
0.00961047
0.00960937
0.0096082
0.00960694
0.0096056
0.00960419
0.00960269
0.00960113
0.00959951
0.00959779
0.0106896
0.0106917
0.0106936
0.0106956
0.0106974
0.0106991
0.0107008
0.0107023
0.0107038
0.0107051
0.0107064
0.0107075
0.0107086
0.0107096
0.0107105
0.0107113
0.0107121
0.0107128
0.0107134
0.0107139
0.0107144
0.0107149
0.0107153
0.0107156
0.0107159
0.0107161
0.0107163
0.0107164
0.0107165
0.0107165
0.0107165
0.0107165
0.0107164
0.0107163
0.0107161
0.0107159
0.0107156
0.0107153
0.0107149
0.0107144
0.0107139
0.0107134
0.0107128
0.0107121
0.0107113
0.0107105
0.0107096
0.0107086
0.0107075
0.0107064
0.0107051
0.0107038
0.0107023
0.0107008
0.0106991
0.0106974
0.0106956
0.0106936
0.0106917
0.0106896
0.0121286
0.0121312
0.0121337
0.0121361
0.0121384
0.0121405
0.0121426
0.0121445
0.0121463
0.012148
0.0121496
0.0121511
0.0121524
0.0121536
0.0121548
0.0121558
0.0121568
0.0121576
0.0121584
0.0121591
0.0121597
0.0121603
0.0121607
0.0121611
0.0121615
0.0121618
0.012162
0.0121622
0.0121623
0.0121623
0.0121623
0.0121623
0.0121622
0.012162
0.0121618
0.0121615
0.0121611
0.0121607
0.0121603
0.0121597
0.0121591
0.0121584
0.0121576
0.0121568
0.0121558
0.0121548
0.0121536
0.0121524
0.0121511
0.0121496
0.012148
0.0121463
0.0121445
0.0121426
0.0121405
0.0121384
0.0121361
0.0121337
0.0121312
0.0121286
0.0140249
0.0140282
0.0140313
0.0140344
0.0140373
0.01404
0.0140426
0.0140451
0.0140473
0.0140495
0.0140514
0.0140533
0.014055
0.0140565
0.014058
0.0140593
0.0140605
0.0140615
0.0140625
0.0140634
0.0140642
0.0140649
0.0140655
0.014066
0.0140664
0.0140668
0.0140671
0.0140673
0.0140675
0.0140675
0.0140675
0.0140675
0.0140673
0.0140671
0.0140668
0.0140664
0.014066
0.0140655
0.0140649
0.0140642
0.0140634
0.0140625
0.0140615
0.0140605
0.0140593
0.014058
0.0140565
0.014055
0.0140533
0.0140514
0.0140495
0.0140473
0.0140451
0.0140426
0.01404
0.0140373
0.0140344
0.0140313
0.0140282
0.0140249
0.0164853
0.0164894
0.0164933
0.0164971
0.0165007
0.0165042
0.0165074
0.0165105
0.0165133
0.016516
0.0165185
0.0165208
0.0165229
0.0165248
0.0165266
0.0165283
0.0165298
0.0165311
0.0165323
0.0165334
0.0165344
0.0165353
0.016536
0.0165367
0.0165373
0.0165377
0.0165381
0.0165383
0.0165385
0.0165386
0.0165386
0.0165385
0.0165383
0.0165381