/*--------------------------------*- C++ -*----------------------------------*\
| =========                 |                                                 |
| \\      /  F ield         | foam-extend: Open Source CFD                    |
|  \\    /   O peration     | Version:     4.0                                |
|   \\  /    A nd           | Web:         http://www.foam-extend.org         |
|    \\/     M anipulation  |                                                 |
\*---------------------------------------------------------------------------*/
FoamFile
{
    version     2.0;
    format      ascii;
    class       volVectorField;
    location    "23";
    object      bodyForce;
}
// * * * * * * * * * * * * * * * * * * * * * * * * * * * * * * * * * * * * * //

dimensions      [1 -2 -2 0 0 0 0];

internalField   nonuniform List<vector> 
6960
(
(-9.22102e-32 -9.52647e-15 -0)
(5.71703e-31 -9.52647e-15 -0)
(4.97935e-31 -9.52647e-15 -0)
(-6.27029e-31 -9.52647e-15 -0)
(9.22102e-32 -9.52647e-15 -0)
(1.45692e-30 -9.52647e-15 -0)
(8.11449e-31 -9.52647e-15 -0)
(-4.24167e-31 -9.52647e-15 -0)
(-3.87283e-31 -9.52647e-15 -0)
(-7.56123e-31 -9.52647e-15 -0)
(-5.53261e-31 -9.52647e-15 -0)
(-5.71703e-31 -9.52647e-15 -0)
(-3.13515e-31 -9.52647e-15 -0)
(2.02862e-31 -9.52647e-15 -0)
(-8.29891e-31 -9.52647e-15 -0)
(-5.16377e-31 -9.52647e-15 -0)
(9.40544e-31 -9.52647e-15 -0)
(9.77428e-31 -9.52647e-15 -0)
(-7.37681e-32 -9.52647e-15 -0)
(-6.27029e-31 -9.52647e-15 -0)
(2.95073e-31 -9.52647e-15 -0)
(3.13515e-31 -9.52647e-15 -0)
(7.37681e-32 -9.52647e-15 -0)
(-1.8442e-32 -9.52647e-15 -0)
(-3.50399e-31 -9.52647e-15 -0)
(5.53261e-32 -9.52647e-15 -0)
(-1.47536e-31 -9.52647e-15 -0)
(4.79493e-31 -9.52647e-15 -0)
(1.25406e-30 -9.52647e-15 -0)
(1.18029e-30 -9.52647e-15 -0)
(3.68841e-31 -9.52647e-15 -0)
(-1.4938e-30 -9.52647e-15 -0)
(-1.47536e-30 -9.52647e-15 -0)
(-9.22102e-32 -9.52647e-15 -0)
(-4.79493e-31 -9.52647e-15 -0)
(-1.30938e-30 -9.52647e-15 -0)
(-8.85218e-31 -9.52647e-15 -0)
(-2.58188e-31 -9.52647e-15 -0)
(3.50399e-31 -9.52647e-15 -0)
(8.66776e-31 -9.52647e-15 -0)
(4.42609e-31 -9.52647e-15 -0)
(-1.8442e-31 -9.52647e-15 -0)
(2.39746e-31 -9.52647e-15 -0)
(8.85218e-31 -9.52647e-15 -0)
(8.11449e-31 -9.52647e-15 -0)
(7.19239e-31 -9.52647e-15 -0)
(9.22102e-32 -9.52647e-15 -0)
(-5.53261e-31 -9.52647e-15 -0)
(3.13515e-31 -9.52647e-15 -0)
(7.74565e-31 -9.52647e-15 -0)
(7.37681e-31 -9.52647e-15 -0)
(1.03275e-30 -9.52647e-15 -0)
(2.21304e-31 -9.52647e-15 -0)
(-1.12496e-30 -9.52647e-15 -0)
(-6.27029e-31 -9.52647e-15 -0)
(-4.97935e-31 -9.52647e-15 -0)
(-5.53261e-31 -9.52647e-15 -0)
(-2.95073e-31 -9.52647e-15 -0)
(-1.06964e-30 -9.52647e-15 -0)
(-7.56123e-31 -9.52647e-15 -0)
(2.14855e-31 -9.52647e-15 -0)
(2.00531e-30 -9.52647e-15 -0)
(1.07428e-30 -9.52647e-15 -0)
(-1.9337e-30 -9.52647e-15 -0)
(2.14855e-31 -9.52647e-15 -0)
(4.36872e-30 -9.52647e-15 -0)
(2.7215e-30 -9.52647e-15 -0)
(-1.5756e-30 -9.52647e-15 -0)
(-1.28913e-30 -9.52647e-15 -0)
(-2.14855e-30 -9.52647e-15 -0)
(-1.43237e-30 -9.52647e-15 -0)
(-1.5756e-30 -9.52647e-15 -0)
(-1.00266e-30 -9.52647e-15 -0)
(5.72947e-31 -9.52647e-15 -0)
(-2.50664e-30 -9.52647e-15 -0)
(-1.50399e-30 -9.52647e-15 -0)
(2.86473e-30 -9.52647e-15 -0)
(3.22283e-30 -9.52647e-15 -0)
(-5.01328e-31 -9.52647e-15 -0)
(-2.22017e-30 -9.52647e-15 -0)
(1.00266e-30 -9.52647e-15 -0)
(1.00266e-30 -9.52647e-15 -0)
(3.58092e-31 -9.52647e-15 -0)
(2.14855e-31 -9.52647e-15 -0)
(-1.14589e-30 -9.52647e-15 -0)
(-2.14855e-31 -9.52647e-15 -0)
(-3.58092e-31 -9.52647e-15 -0)
(1.71884e-30 -9.52647e-15 -0)
(3.65254e-30 -9.52647e-15 -0)
(3.5093e-30 -9.52647e-15 -0)
(1.07428e-30 -9.52647e-15 -0)
(-4.58357e-30 -9.52647e-15 -0)
(-4.36872e-30 -9.52647e-15 -0)
(-4.2971e-31 -9.52647e-15 -0)
(-1.64722e-30 -9.52647e-15 -0)
(-3.72415e-30 -9.52647e-15 -0)
(-2.57826e-30 -9.52647e-15 -0)
(-6.44565e-31 -9.52647e-15 -0)
(1.21751e-30 -9.52647e-15 -0)
(2.36341e-30 -9.52647e-15 -0)
(1.43237e-30 -9.52647e-15 -0)
(-4.2971e-31 -9.52647e-15 -0)
(2.86473e-31 -9.52647e-15 -0)
(2.64988e-30 -9.52647e-15 -0)
(2.50664e-30 -9.52647e-15 -0)
(2.22017e-30 -9.52647e-15 -0)
(2.86473e-31 -9.52647e-15 -0)
(-1.43237e-30 -9.52647e-15 -0)
(7.16183e-31 -9.52647e-15 -0)
(2.22017e-30 -9.52647e-15 -0)
(2.57826e-30 -9.52647e-15 -0)
(3.29444e-30 -9.52647e-15 -0)
(7.16183e-31 -9.52647e-15 -0)
(-3.65254e-30 -9.52647e-15 -0)
(-1.9337e-30 -9.52647e-15 -0)
(-1.28913e-30 -9.52647e-15 -0)
(-1.64722e-30 -9.52647e-15 -0)
(-1.14589e-30 -9.52647e-15 -0)
(-3.22283e-30 -9.52647e-15 -0)
(-2.00531e-30 -9.52647e-15 -0)
(-0 -9.52647e-15 -0)
(3.3375e-30 -9.52647e-15 -0)
(2.225e-30 -9.52647e-15 -0)
(-2.64219e-30 -9.52647e-15 -0)
(2.78125e-31 -9.52647e-15 -0)
(7.09218e-30 -9.52647e-15 -0)
(4.31093e-30 -9.52647e-15 -0)
(-2.50312e-30 -9.52647e-15 -0)
(-1.80781e-30 -9.52647e-15 -0)
(-4.03281e-30 -9.52647e-15 -0)
(-2.78125e-30 -9.52647e-15 -0)
(-2.36406e-30 -9.52647e-15 -0)
(-1.94687e-30 -9.52647e-15 -0)
(8.34374e-31 -9.52647e-15 -0)
(-3.75468e-30 -9.52647e-15 -0)
(-2.92031e-30 -9.52647e-15 -0)
(4.58906e-30 -9.52647e-15 -0)
(5.84062e-30 -9.52647e-15 -0)
(-9.73437e-31 -9.52647e-15 -0)
(-3.61562e-30 -9.52647e-15 -0)
(2.225e-30 -9.52647e-15 -0)
(1.52969e-30 -9.52647e-15 -0)
(2.78125e-31 -9.52647e-15 -0)
(1.39062e-31 -9.52647e-15 -0)
(-2.08594e-30 -9.52647e-15 -0)
(1.39062e-31 -9.52647e-15 -0)
(-1.39062e-31 -9.52647e-15 -0)
(2.08594e-30 -9.52647e-15 -0)
(6.11875e-30 -9.52647e-15 -0)
(6.39687e-30 -9.52647e-15 -0)
(2.08594e-30 -9.52647e-15 -0)
(-7.92656e-30 -9.52647e-15 -0)
(-7.78749e-30 -9.52647e-15 -0)
(-6.95312e-31 -9.52647e-15 -0)
(-2.78125e-30 -9.52647e-15 -0)
(-5.97968e-30 -9.52647e-15 -0)
(-4.31093e-30 -9.52647e-15 -0)
(-1.66875e-30 -9.52647e-15 -0)
(2.225e-30 -9.52647e-15 -0)
(4.31093e-30 -9.52647e-15 -0)
(2.50312e-30 -9.52647e-15 -0)
(-8.34374e-31 -9.52647e-15 -0)
(5.5625e-31 -9.52647e-15 -0)
(4.45e-30 -9.52647e-15 -0)
(4.17187e-30 -9.52647e-15 -0)
(3.89375e-30 -9.52647e-15 -0)
(4.17187e-31 -9.52647e-15 -0)
(-3.05937e-30 -9.52647e-15 -0)
(1.39062e-30 -9.52647e-15 -0)
(4.17187e-30 -9.52647e-15 -0)
(4.17187e-30 -9.52647e-15 -0)
(5.5625e-30 -9.52647e-15 -0)
(9.73437e-31 -9.52647e-15 -0)
(-5.97968e-30 -9.52647e-15 -0)
(-3.19844e-30 -9.52647e-15 -0)
(-2.36406e-30 -9.52647e-15 -0)
(-2.78125e-30 -9.52647e-15 -0)
(-1.66875e-30 -9.52647e-15 -0)
(-5.42343e-30 -9.52647e-15 -0)
(-3.61562e-30 -9.52647e-15 -0)
(-1.3501e-31 -9.52647e-15 -0)
(4.45532e-30 -9.52647e-15 -0)
(2.97021e-30 -9.52647e-15 -0)
(-4.32031e-30 -9.52647e-15 -0)
(4.05029e-31 -9.52647e-15 -0)
(9.99072e-30 -9.52647e-15 -0)
(6.07544e-30 -9.52647e-15 -0)
(-3.37524e-30 -9.52647e-15 -0)
(-3.10522e-30 -9.52647e-15 -0)
(-5.67041e-30 -9.52647e-15 -0)
(-3.51025e-30 -9.52647e-15 -0)
(-3.37524e-30 -9.52647e-15 -0)
(-2.43018e-30 -9.52647e-15 -0)
(1.3501e-30 -9.52647e-15 -0)
(-5.40039e-30 -9.52647e-15 -0)
(-3.78027e-30 -9.52647e-15 -0)
(6.48047e-30 -9.52647e-15 -0)
(7.29053e-30 -9.52647e-15 -0)
(-1.3501e-30 -9.52647e-15 -0)
(-4.99536e-30 -9.52647e-15 -0)
(2.8352e-30 -9.52647e-15 -0)
(2.56519e-30 -9.52647e-15 -0)
(4.05029e-31 -9.52647e-15 -0)
(-0 -9.52647e-15 -0)
(-2.97021e-30 -9.52647e-15 -0)
(-0 -9.52647e-15 -0)
(-1.3501e-31 -9.52647e-15 -0)
(3.24023e-30 -9.52647e-15 -0)
(9.04565e-30 -9.52647e-15 -0)
(8.91064e-30 -9.52647e-15 -0)
(2.97021e-30 -9.52647e-15 -0)
(-1.06658e-29 -9.52647e-15 -0)
(-1.10708e-29 -9.52647e-15 -0)
(-1.08008e-30 -9.52647e-15 -0)
(-4.32031e-30 -9.52647e-15 -0)
(-8.77563e-30 -9.52647e-15 -0)
(-5.40039e-30 -9.52647e-15 -0)
(-2.7002e-30 -9.52647e-15 -0)
(2.43018e-30 -9.52647e-15 -0)
(6.34546e-30 -9.52647e-15 -0)
(4.1853e-30 -9.52647e-15 -0)
(-1.08008e-30 -9.52647e-15 -0)
(6.75049e-31 -9.52647e-15 -0)
(5.94043e-30 -9.52647e-15 -0)
(5.94043e-30 -9.52647e-15 -0)
(5.13037e-30 -9.52647e-15 -0)
(1.08008e-30 -9.52647e-15 -0)
(-2.97021e-30 -9.52647e-15 -0)
(1.75513e-30 -9.52647e-15 -0)
(5.40039e-30 -9.52647e-15 -0)
(6.07544e-30 -9.52647e-15 -0)
(7.29053e-30 -9.52647e-15 -0)
(1.3501e-30 -9.52647e-15 -0)
(-8.2356e-30 -9.52647e-15 -0)
(-4.86035e-30 -9.52647e-15 -0)
(-2.7002e-30 -9.52647e-15 -0)
(-4.32031e-30 -9.52647e-15 -0)
(-2.56519e-30 -9.52647e-15 -0)
(-7.42554e-30 -9.52647e-15 -0)
(-5.26538e-30 -9.52647e-15 -0)
(2.6215e-31 -9.52647e-15 -0)
(5.76731e-30 -9.52647e-15 -0)
(3.93226e-30 -9.52647e-15 -0)
(-5.50516e-30 -9.52647e-15 -0)
(-0 -9.52647e-15 -0)
(1.3894e-29 -9.52647e-15 -0)
(8.12666e-30 -9.52647e-15 -0)
(-4.45656e-30 -9.52647e-15 -0)
(-3.93226e-30 -9.52647e-15 -0)
(-7.60236e-30 -9.52647e-15 -0)
(-5.24301e-30 -9.52647e-15 -0)
(-3.93226e-30 -9.52647e-15 -0)
(-2.35935e-30 -9.52647e-15 -0)
(7.86451e-31 -9.52647e-15 -0)
(-7.86451e-30 -9.52647e-15 -0)
(-4.19441e-30 -9.52647e-15 -0)
(8.91312e-30 -9.52647e-15 -0)
(1.02239e-29 -9.52647e-15 -0)
(-2.0972e-30 -9.52647e-15 -0)
(-6.55376e-30 -9.52647e-15 -0)
(4.98086e-30 -9.52647e-15 -0)
(2.6215e-30 -9.52647e-15 -0)
(-0 -9.52647e-15 -0)
(2.6215e-31 -9.52647e-15 -0)
(-3.40796e-30 -9.52647e-15 -0)
(-0 -9.52647e-15 -0)
(-1.31075e-30 -9.52647e-15 -0)
(4.45656e-30 -9.52647e-15 -0)
(1.12725e-29 -9.52647e-15 -0)
(1.12725e-29 -9.52647e-15 -0)
(3.40796e-30 -9.52647e-15 -0)
(-1.3894e-29 -9.52647e-15 -0)
(-1.31075e-29 -9.52647e-15 -0)
(-1.5729e-30 -9.52647e-15 -0)
(-5.76731e-30 -9.52647e-15 -0)
(-1.10103e-29 -9.52647e-15 -0)
(-8.12666e-30 -9.52647e-15 -0)
(-3.67011e-30 -9.52647e-15 -0)
(4.71871e-30 -9.52647e-15 -0)
(8.38881e-30 -9.52647e-15 -0)
(4.19441e-30 -9.52647e-15 -0)
(-1.83505e-30 -9.52647e-15 -0)
(1.0486e-30 -9.52647e-15 -0)
(7.86451e-30 -9.52647e-15 -0)
(7.86451e-30 -9.52647e-15 -0)
(6.55376e-30 -9.52647e-15 -0)
(1.5729e-30 -9.52647e-15 -0)
(-4.19441e-30 -9.52647e-15 -0)
(2.0972e-30 -9.52647e-15 -0)
(7.60236e-30 -9.52647e-15 -0)
(8.12666e-30 -9.52647e-15 -0)
(1.02239e-29 -9.52647e-15 -0)
(1.83505e-30 -9.52647e-15 -0)
(-1.10103e-29 -9.52647e-15 -0)
(-5.76731e-30 -9.52647e-15 -0)
(-4.71871e-30 -9.52647e-15 -0)
(-6.29161e-30 -9.52647e-15 -0)
(-3.67011e-30 -9.52647e-15 -0)
(-1.02239e-29 -9.52647e-15 -0)
(-6.81591e-30 -9.52647e-15 -0)
(1.52706e-30 -9.52647e-15 -0)
(7.88983e-30 -9.52647e-15 -0)
(4.07217e-30 -9.52647e-15 -0)
(-6.36277e-30 -9.52647e-15 -0)
(1.01804e-30 -9.52647e-15 -0)
(1.67977e-29 -9.52647e-15 -0)
(1.01804e-29 -9.52647e-15 -0)
(-4.8357e-30 -9.52647e-15 -0)
(-5.85375e-30 -9.52647e-15 -0)
(-9.16239e-30 -9.52647e-15 -0)
(-5.59924e-30 -9.52647e-15 -0)
(-5.34473e-30 -9.52647e-15 -0)
(-3.30864e-30 -9.52647e-15 -0)
(1.27255e-30 -9.52647e-15 -0)
(-9.4169e-30 -9.52647e-15 -0)
(-4.8357e-30 -9.52647e-15 -0)
(1.04349e-29 -9.52647e-15 -0)
(1.22165e-29 -9.52647e-15 -0)
(-1.52706e-30 -9.52647e-15 -0)
(-8.14434e-30 -9.52647e-15 -0)
(4.07217e-30 -9.52647e-15 -0)
(3.56315e-30 -9.52647e-15 -0)
(7.63532e-31 -9.52647e-15 -0)
(-0 -9.52647e-15 -0)
(-4.58119e-30 -9.52647e-15 -0)
(1.01804e-30 -9.52647e-15 -0)
(-5.09021e-31 -9.52647e-15 -0)
(5.85375e-30 -9.52647e-15 -0)
(1.32346e-29 -9.52647e-15 -0)
(1.32346e-29 -9.52647e-15 -0)
(4.8357e-30 -9.52647e-15 -0)
(-1.73067e-29 -9.52647e-15 -0)
(-1.73067e-29 -9.52647e-15 -0)
(-2.03609e-30 -9.52647e-15 -0)
(-6.10826e-30 -9.52647e-15 -0)
(-1.45071e-29 -9.52647e-15 -0)
(-1.01804e-29 -9.52647e-15 -0)
(-4.07217e-30 -9.52647e-15 -0)
(5.59924e-30 -9.52647e-15 -0)
(1.06895e-29 -9.52647e-15 -0)
(6.10826e-30 -9.52647e-15 -0)
(-2.2906e-30 -9.52647e-15 -0)
(1.27255e-30 -9.52647e-15 -0)
(9.4169e-30 -9.52647e-15 -0)
(8.39885e-30 -9.52647e-15 -0)
(9.16239e-30 -9.52647e-15 -0)
(2.03609e-30 -9.52647e-15 -0)
(-5.59924e-30 -9.52647e-15 -0)
(2.79962e-30 -9.52647e-15 -0)
(9.16239e-30 -9.52647e-15 -0)
(1.04349e-29 -9.52647e-15 -0)
(1.27255e-29 -9.52647e-15 -0)
(2.54511e-30 -9.52647e-15 -0)
(-1.34891e-29 -9.52647e-15 -0)
(-8.65336e-30 -9.52647e-15 -0)
(-5.85375e-30 -9.52647e-15 -0)
(-6.36277e-30 -9.52647e-15 -0)
(-3.81766e-30 -9.52647e-15 -0)
(-1.27255e-29 -9.52647e-15 -0)
(-8.90788e-30 -9.52647e-15 -0)
(1.72966e-30 -9.52647e-15 -0)
(1.01308e-29 -9.52647e-15 -0)
(4.44769e-30 -9.52647e-15 -0)
(-8.40118e-30 -9.52647e-15 -0)
(1.23547e-30 -9.52647e-15 -0)
(2.05088e-29 -9.52647e-15 -0)
(1.21076e-29 -9.52647e-15 -0)
(-7.16572e-30 -9.52647e-15 -0)
(-6.67153e-30 -9.52647e-15 -0)
(-1.16134e-29 -9.52647e-15 -0)
(-5.93025e-30 -9.52647e-15 -0)
(-6.17734e-30 -9.52647e-15 -0)
(-4.94187e-30 -9.52647e-15 -0)
(2.96512e-30 -9.52647e-15 -0)
(-1.01308e-29 -9.52647e-15 -0)
(-5.43606e-30 -9.52647e-15 -0)
(1.21076e-29 -9.52647e-15 -0)
(1.3096e-29 -9.52647e-15 -0)
(-1.72966e-30 -9.52647e-15 -0)
(-8.89537e-30 -9.52647e-15 -0)
(5.93025e-30 -9.52647e-15 -0)
(3.21222e-30 -9.52647e-15 -0)
(-2.47094e-31 -9.52647e-15 -0)
(-4.94187e-31 -9.52647e-15 -0)
(-4.94187e-30 -9.52647e-15 -0)
(1.72966e-30 -9.52647e-15 -0)
(-9.88375e-31 -9.52647e-15 -0)
(7.16572e-30 -9.52647e-15 -0)
(1.70495e-29 -9.52647e-15 -0)
(1.70495e-29 -9.52647e-15 -0)
(4.69478e-30 -9.52647e-15 -0)
(-2.17442e-29 -9.52647e-15 -0)
(-1.95204e-29 -9.52647e-15 -0)
(-3.45931e-30 -9.52647e-15 -0)
(-8.64828e-30 -9.52647e-15 -0)
(-1.5814e-29 -9.52647e-15 -0)
(-1.21076e-29 -9.52647e-15 -0)
(-5.93025e-30 -9.52647e-15 -0)
(4.94187e-30 -9.52647e-15 -0)
(1.26018e-29 -9.52647e-15 -0)
(8.64828e-30 -9.52647e-15 -0)
(-1.23547e-30 -9.52647e-15 -0)
(9.88375e-31 -9.52647e-15 -0)
(1.03779e-29 -9.52647e-15 -0)
(1.08721e-29 -9.52647e-15 -0)
(1.08721e-29 -9.52647e-15 -0)
(2.47094e-30 -9.52647e-15 -0)
(-5.43606e-30 -9.52647e-15 -0)
(2.96512e-30 -9.52647e-15 -0)
(1.11192e-29 -9.52647e-15 -0)
(1.33431e-29 -9.52647e-15 -0)
(1.38372e-29 -9.52647e-15 -0)
(1.23547e-30 -9.52647e-15 -0)
(-1.53198e-29 -9.52647e-15 -0)
(-9.38956e-30 -9.52647e-15 -0)
(-6.17734e-30 -9.52647e-15 -0)
(-7.907e-30 -9.52647e-15 -0)
(-5.93025e-30 -9.52647e-15 -0)
(-1.53198e-29 -9.52647e-15 -0)
(-9.63665e-30 -9.52647e-15 -0)
(1.43936e-30 -9.52647e-15 -0)
(1.15148e-29 -9.52647e-15 -0)
(8.63614e-30 -9.52647e-15 -0)
(-9.11592e-30 -9.52647e-15 -0)
(1.43936e-30 -9.52647e-15 -0)
(2.44691e-29 -9.52647e-15 -0)
(1.24744e-29 -9.52647e-15 -0)
(-9.11592e-30 -9.52647e-15 -0)
(-7.67657e-30 -9.52647e-15 -0)
(-1.15148e-29 -9.52647e-15 -0)
(-7.67657e-30 -9.52647e-15 -0)
(-9.59571e-30 -9.52647e-15 -0)
(-5.27764e-30 -9.52647e-15 -0)
(2.39893e-30 -9.52647e-15 -0)
(-1.24744e-29 -9.52647e-15 -0)
(-5.75742e-30 -9.52647e-15 -0)
(1.58329e-29 -9.52647e-15 -0)
(1.43936e-29 -9.52647e-15 -0)
(-1.91914e-30 -9.52647e-15 -0)
(-1.05553e-29 -9.52647e-15 -0)
(7.19678e-30 -9.52647e-15 -0)
(5.75742e-30 -9.52647e-15 -0)
(-1.43936e-30 -9.52647e-15 -0)
(-1.91914e-30 -9.52647e-15 -0)
(-5.27764e-30 -9.52647e-15 -0)
(3.3585e-30 -9.52647e-15 -0)
(-2.87871e-30 -9.52647e-15 -0)
(7.67657e-30 -9.52647e-15 -0)
(2.11106e-29 -9.52647e-15 -0)
(1.91914e-29 -9.52647e-15 -0)
(5.27764e-30 -9.52647e-15 -0)
(-2.59084e-29 -9.52647e-15 -0)
(-2.39893e-29 -9.52647e-15 -0)
(-9.59571e-31 -9.52647e-15 -0)
(-9.11592e-30 -9.52647e-15 -0)
(-2.0151e-29 -9.52647e-15 -0)
(-1.48733e-29 -9.52647e-15 -0)
(-5.75742e-30 -9.52647e-15 -0)
(6.717e-30 -9.52647e-15 -0)
(1.39138e-29 -9.52647e-15 -0)
(9.59571e-30 -9.52647e-15 -0)
(-2.39893e-30 -9.52647e-15 -0)
(1.43936e-30 -9.52647e-15 -0)
(1.3434e-29 -9.52647e-15 -0)
(1.29542e-29 -9.52647e-15 -0)
(1.24744e-29 -9.52647e-15 -0)
(-0 -9.52647e-15 -0)
(-6.23721e-30 -9.52647e-15 -0)
(4.79785e-30 -9.52647e-15 -0)
(1.24744e-29 -9.52647e-15 -0)
(1.58329e-29 -9.52647e-15 -0)
(1.72723e-29 -9.52647e-15 -0)
(2.39893e-30 -9.52647e-15 -0)
(-1.87116e-29 -9.52647e-15 -0)
(-1.19946e-29 -9.52647e-15 -0)
(-9.59571e-30 -9.52647e-15 -0)
(-8.15635e-30 -9.52647e-15 -0)
(-4.31807e-30 -9.52647e-15 -0)
(-1.82318e-29 -9.52647e-15 -0)
(-1.24744e-29 -9.52647e-15 -0)
(-0 -9.52647e-15 -0)
(1.30425e-29 -9.52647e-15 -0)
(8.85026e-30 -9.52647e-15 -0)
(-1.21109e-29 -9.52647e-15 -0)
(4.65803e-31 -9.52647e-15 -0)
(2.8414e-29 -9.52647e-15 -0)
(1.63031e-29 -9.52647e-15 -0)
(-1.07135e-29 -9.52647e-15 -0)
(-9.31606e-30 -9.52647e-15 -0)
(-1.35083e-29 -9.52647e-15 -0)
(-8.85026e-30 -9.52647e-15 -0)
(-1.02477e-29 -9.52647e-15 -0)
(-5.12384e-30 -9.52647e-15 -0)
(2.32902e-30 -9.52647e-15 -0)
(-1.53715e-29 -9.52647e-15 -0)
(-4.65803e-30 -9.52647e-15 -0)
(1.77005e-29 -9.52647e-15 -0)
(1.63031e-29 -9.52647e-15 -0)
(-2.79482e-30 -9.52647e-15 -0)
(-1.07135e-29 -9.52647e-15 -0)
(7.91865e-30 -9.52647e-15 -0)
(5.58964e-30 -9.52647e-15 -0)
(-1.86321e-30 -9.52647e-15 -0)
(-1.86321e-30 -9.52647e-15 -0)
(-5.12384e-30 -9.52647e-15 -0)
(2.79482e-30 -9.52647e-15 -0)
(-2.32902e-30 -9.52647e-15 -0)
(8.85026e-30 -9.52647e-15 -0)
(2.23586e-29 -9.52647e-15 -0)
(2.28244e-29 -9.52647e-15 -0)
(6.98705e-30 -9.52647e-15 -0)
(-2.93456e-29 -9.52647e-15 -0)
(-2.6085e-29 -9.52647e-15 -0)
(-3.72643e-30 -9.52647e-15 -0)
(-1.02477e-29 -9.52647e-15 -0)
(-2.09611e-29 -9.52647e-15 -0)
(-1.86321e-29 -9.52647e-15 -0)
(-8.38446e-30 -9.52647e-15 -0)
(9.31606e-30 -9.52647e-15 -0)
(1.77005e-29 -9.52647e-15 -0)
(1.02477e-29 -9.52647e-15 -0)
(-4.19223e-30 -9.52647e-15 -0)
(9.31606e-31 -9.52647e-15 -0)
(1.44399e-29 -9.52647e-15 -0)
(1.58373e-29 -9.52647e-15 -0)
(1.39741e-29 -9.52647e-15 -0)
(2.79482e-30 -9.52647e-15 -0)
(-6.98705e-30 -9.52647e-15 -0)
(2.32902e-30 -9.52647e-15 -0)
(1.49057e-29 -9.52647e-15 -0)
(2.04953e-29 -9.52647e-15 -0)
(2.23586e-29 -9.52647e-15 -0)
(2.79482e-30 -9.52647e-15 -0)
(-2.32902e-29 -9.52647e-15 -0)
(-1.21109e-29 -9.52647e-15 -0)
(-9.78187e-30 -9.52647e-15 -0)
(-1.30425e-29 -9.52647e-15 -0)
(-9.31606e-30 -9.52647e-15 -0)
(-2.14269e-29 -9.52647e-15 -0)
(-1.25767e-29 -9.52647e-15 -0)
(2.26114e-30 -9.52647e-15 -0)
(1.5828e-29 -9.52647e-15 -0)
(8.14011e-30 -9.52647e-15 -0)
(-1.40191e-29 -9.52647e-15 -0)
(1.80891e-30 -9.52647e-15 -0)
(3.25605e-29 -9.52647e-15 -0)
(1.80891e-29 -9.52647e-15 -0)
(-1.08535e-29 -9.52647e-15 -0)
(-1.04013e-29 -9.52647e-15 -0)
(-1.5828e-29 -9.52647e-15 -0)
(-8.59234e-30 -9.52647e-15 -0)
(-1.17579e-29 -9.52647e-15 -0)
(-8.59234e-30 -9.52647e-15 -0)
(1.80891e-30 -9.52647e-15 -0)
(-1.67325e-29 -9.52647e-15 -0)
(-4.97451e-30 -9.52647e-15 -0)
(2.12547e-29 -9.52647e-15 -0)
(1.89936e-29 -9.52647e-15 -0)
(-3.1656e-30 -9.52647e-15 -0)
(-1.49235e-29 -9.52647e-15 -0)
(7.23566e-30 -9.52647e-15 -0)
(7.68789e-30 -9.52647e-15 -0)
(-1.35669e-30 -9.52647e-15 -0)
(-2.26114e-30 -9.52647e-15 -0)
(-5.42674e-30 -9.52647e-15 -0)
(2.71337e-30 -9.52647e-15 -0)
(-2.71337e-30 -9.52647e-15 -0)
(1.26624e-29 -9.52647e-15 -0)
(2.53248e-29 -9.52647e-15 -0)
(2.39681e-29 -9.52647e-15 -0)
(7.68789e-30 -9.52647e-15 -0)
(-3.21082e-29 -9.52647e-15 -0)
(-3.21082e-29 -9.52647e-15 -0)
(-5.42674e-30 -9.52647e-15 -0)
(-8.14011e-30 -9.52647e-15 -0)
(-2.44203e-29 -9.52647e-15 -0)
(-2.26114e-29 -9.52647e-15 -0)
(-8.59234e-30 -9.52647e-15 -0)
(1.04013e-29 -9.52647e-15 -0)
(2.12547e-29 -9.52647e-15 -0)
(1.26624e-29 -9.52647e-15 -0)
(-4.97451e-30 -9.52647e-15 -0)
(1.35669e-30 -9.52647e-15 -0)
(1.53758e-29 -9.52647e-15 -0)
(1.5828e-29 -9.52647e-15 -0)
(1.67325e-29 -9.52647e-15 -0)
(4.07006e-30 -9.52647e-15 -0)
(-9.4968e-30 -9.52647e-15 -0)
(4.52229e-30 -9.52647e-15 -0)
(1.76369e-29 -9.52647e-15 -0)
(2.35159e-29 -9.52647e-15 -0)
(2.39681e-29 -9.52647e-15 -0)
(1.80891e-30 -9.52647e-15 -0)
(-2.44203e-29 -9.52647e-15 -0)
(-1.49235e-29 -9.52647e-15 -0)
(-1.08535e-29 -9.52647e-15 -0)
(-1.22102e-29 -9.52647e-15 -0)
(-9.4968e-30 -9.52647e-15 -0)
(-2.35159e-29 -9.52647e-15 -0)
(-1.35669e-29 -9.52647e-15 -0)
(3.07335e-30 -9.52647e-15 -0)
(1.7562e-29 -9.52647e-15 -0)
(1.05372e-29 -9.52647e-15 -0)
(-1.22934e-29 -9.52647e-15 -0)
(-4.39049e-31 -9.52647e-15 -0)
(3.5124e-29 -9.52647e-15 -0)
(2.01963e-29 -9.52647e-15 -0)
(-1.31715e-29 -9.52647e-15 -0)
(-1.05372e-29 -9.52647e-15 -0)
(-1.7562e-29 -9.52647e-15 -0)
(-1.09762e-29 -9.52647e-15 -0)
(-1.27324e-29 -9.52647e-15 -0)
(-8.34194e-30 -9.52647e-15 -0)
(8.78099e-31 -9.52647e-15 -0)
(-1.62448e-29 -9.52647e-15 -0)
(-3.5124e-30 -9.52647e-15 -0)
(2.23915e-29 -9.52647e-15 -0)
(1.97572e-29 -9.52647e-15 -0)
(-3.5124e-30 -9.52647e-15 -0)
(-1.36105e-29 -9.52647e-15 -0)
(7.46384e-30 -9.52647e-15 -0)
(7.90289e-30 -9.52647e-15 -0)
(-3.07335e-30 -9.52647e-15 -0)
(-1.7562e-30 -9.52647e-15 -0)
(-4.82954e-30 -9.52647e-15 -0)
(2.6343e-30 -9.52647e-15 -0)
(-5.26859e-30 -9.52647e-15 -0)
(1.44886e-29 -9.52647e-15 -0)
(2.80992e-29 -9.52647e-15 -0)
(2.6782e-29 -9.52647e-15 -0)
(9.22004e-30 -9.52647e-15 -0)
(-3.68802e-29 -9.52647e-15 -0)
(-3.29287e-29 -9.52647e-15 -0)
(-4.82954e-30 -9.52647e-15 -0)
(-1.18543e-29 -9.52647e-15 -0)
(-2.89773e-29 -9.52647e-15 -0)
(-2.50258e-29 -9.52647e-15 -0)
(-7.02479e-30 -9.52647e-15 -0)
(1.09762e-29 -9.52647e-15 -0)
(2.06353e-29 -9.52647e-15 -0)
(1.22934e-29 -9.52647e-15 -0)
(-6.14669e-30 -9.52647e-15 -0)
(3.07335e-30 -9.52647e-15 -0)
(1.88791e-29 -9.52647e-15 -0)
(1.84401e-29 -9.52647e-15 -0)
(1.97572e-29 -9.52647e-15 -0)
(3.07335e-30 -9.52647e-15 -0)
(-8.78099e-30 -9.52647e-15 -0)
(2.6343e-30 -9.52647e-15 -0)
(1.8001e-29 -9.52647e-15 -0)
(2.85382e-29 -9.52647e-15 -0)
(2.89773e-29 -9.52647e-15 -0)
(3.07335e-30 -9.52647e-15 -0)
(-2.98554e-29 -9.52647e-15 -0)
(-1.62448e-29 -9.52647e-15 -0)
(-1.05372e-29 -9.52647e-15 -0)
(-1.49277e-29 -9.52647e-15 -0)
(-1.14153e-29 -9.52647e-15 -0)
(-2.76601e-29 -9.52647e-15 -0)
(-1.62448e-29 -9.52647e-15 -0)
(3.41004e-30 -9.52647e-15 -0)
(1.70502e-29 -9.52647e-15 -0)
(1.10826e-29 -9.52647e-15 -0)
(-1.36401e-29 -9.52647e-15 -0)
(1.70502e-30 -9.52647e-15 -0)
(3.83629e-29 -9.52647e-15 -0)
(2.04602e-29 -9.52647e-15 -0)
(-1.36401e-29 -9.52647e-15 -0)
(-1.10826e-29 -9.52647e-15 -0)
(-1.87552e-29 -9.52647e-15 -0)
(-1.19351e-29 -9.52647e-15 -0)
(-1.61977e-29 -9.52647e-15 -0)
(-1.19351e-29 -9.52647e-15 -0)
(3.41004e-30 -9.52647e-15 -0)
(-1.79027e-29 -9.52647e-15 -0)
(-2.55753e-30 -9.52647e-15 -0)
(2.64278e-29 -9.52647e-15 -0)
(2.04602e-29 -9.52647e-15 -0)
(-3.41004e-30 -9.52647e-15 -0)
(-1.61977e-29 -9.52647e-15 -0)
(8.52509e-30 -9.52647e-15 -0)
(8.52509e-30 -9.52647e-15 -0)
(-4.26254e-30 -9.52647e-15 -0)
(-1.70502e-30 -9.52647e-15 -0)
(-4.26254e-30 -9.52647e-15 -0)
(2.55753e-30 -9.52647e-15 -0)
(-6.82007e-30 -9.52647e-15 -0)
(1.61977e-29 -9.52647e-15 -0)
(3.15428e-29 -9.52647e-15 -0)
(2.81328e-29 -9.52647e-15 -0)
(1.02301e-29 -9.52647e-15 -0)
(-4.17729e-29 -9.52647e-15 -0)
(-3.58054e-29 -9.52647e-15 -0)
(-4.26254e-30 -9.52647e-15 -0)
(-1.10826e-29 -9.52647e-15 -0)
(-3.32478e-29 -9.52647e-15 -0)
(-2.98378e-29 -9.52647e-15 -0)
(-1.10826e-29 -9.52647e-15 -0)
(1.10826e-29 -9.52647e-15 -0)
(2.38702e-29 -9.52647e-15 -0)
(1.61977e-29 -9.52647e-15 -0)
(-6.82007e-30 -9.52647e-15 -0)
(3.41004e-30 -9.52647e-15 -0)
(2.30177e-29 -9.52647e-15 -0)
(2.04602e-29 -9.52647e-15 -0)
(1.96077e-29 -9.52647e-15 -0)
(5.11505e-30 -9.52647e-15 -0)
(-1.02301e-29 -9.52647e-15 -0)
(3.41004e-30 -9.52647e-15 -0)
(1.96077e-29 -9.52647e-15 -0)
(3.41004e-29 -9.52647e-15 -0)
(3.15428e-29 -9.52647e-15 -0)
(-0 -9.52647e-15 -0)
(-3.23953e-29 -9.52647e-15 -0)
(-1.70502e-29 -9.52647e-15 -0)
(-1.10826e-29 -9.52647e-15 -0)
(-1.53452e-29 -9.52647e-15 -0)
(-1.44927e-29 -9.52647e-15 -0)
(-3.06903e-29 -9.52647e-15 -0)
(-1.79027e-29 -9.52647e-15 -0)
(3.31066e-30 -9.52647e-15 -0)
(1.98639e-29 -9.52647e-15 -0)
(1.2415e-29 -9.52647e-15 -0)
(-1.32426e-29 -9.52647e-15 -0)
(8.27665e-31 -9.52647e-15 -0)
(4.22109e-29 -9.52647e-15 -0)
(2.48299e-29 -9.52647e-15 -0)
(-1.57256e-29 -9.52647e-15 -0)
(-1.2415e-29 -9.52647e-15 -0)
(-1.90363e-29 -9.52647e-15 -0)
(-1.32426e-29 -9.52647e-15 -0)
(-1.7381e-29 -9.52647e-15 -0)
(-1.15873e-29 -9.52647e-15 -0)
(8.27665e-31 -9.52647e-15 -0)
(-2.15193e-29 -9.52647e-15 -0)
(-4.96599e-30 -9.52647e-15 -0)
(2.81406e-29 -9.52647e-15 -0)
(2.31746e-29 -9.52647e-15 -0)
(-2.48299e-30 -9.52647e-15 -0)
(-1.7381e-29 -9.52647e-15 -0)
(7.44898e-30 -9.52647e-15 -0)
(1.32426e-29 -9.52647e-15 -0)
(-4.13832e-30 -9.52647e-15 -0)
(-2.48299e-30 -9.52647e-15 -0)
(-4.96599e-30 -9.52647e-15 -0)
(8.27665e-31 -9.52647e-15 -0)
(-5.79365e-30 -9.52647e-15 -0)
(1.90363e-29 -9.52647e-15 -0)
(3.22789e-29 -9.52647e-15 -0)
(3.22789e-29 -9.52647e-15 -0)
(1.15873e-29 -9.52647e-15 -0)
(-4.88322e-29 -9.52647e-15 -0)
(-3.97279e-29 -9.52647e-15 -0)
(-4.13832e-30 -9.52647e-15 -0)
(-1.4898e-29 -9.52647e-15 -0)
(-3.55896e-29 -9.52647e-15 -0)
(-3.22789e-29 -9.52647e-15 -0)
(-1.15873e-29 -9.52647e-15 -0)
(1.15873e-29 -9.52647e-15 -0)
(2.64853e-29 -9.52647e-15 -0)
(1.7381e-29 -9.52647e-15 -0)
(-7.44898e-30 -9.52647e-15 -0)
(4.96599e-30 -9.52647e-15 -0)
(2.64853e-29 -9.52647e-15 -0)
(2.56576e-29 -9.52647e-15 -0)
(2.06916e-29 -9.52647e-15 -0)
(3.31066e-30 -9.52647e-15 -0)
(-1.07596e-29 -9.52647e-15 -0)
(2.48299e-30 -9.52647e-15 -0)
(1.90363e-29 -9.52647e-15 -0)
(3.64172e-29 -9.52647e-15 -0)
(3.72449e-29 -9.52647e-15 -0)
(-0 -9.52647e-15 -0)
(-3.39342e-29 -9.52647e-15 -0)
(-1.7381e-29 -9.52647e-15 -0)
(-1.2415e-29 -9.52647e-15 -0)
(-1.98639e-29 -9.52647e-15 -0)
(-1.65533e-29 -9.52647e-15 -0)
(-3.39342e-29 -9.52647e-15 -0)
(-1.98639e-29 -9.52647e-15 -0)
(4.82127e-30 -9.52647e-15 -0)
(2.33028e-29 -9.52647e-15 -0)
(1.36603e-29 -9.52647e-15 -0)
(-1.44638e-29 -9.52647e-15 -0)
(3.21418e-30 -9.52647e-15 -0)
(4.82127e-29 -9.52647e-15 -0)
(2.49099e-29 -9.52647e-15 -0)
(-1.7678e-29 -9.52647e-15 -0)
(-1.28567e-29 -9.52647e-15 -0)
(-2.33028e-29 -9.52647e-15 -0)
(-1.60709e-29 -9.52647e-15 -0)
(-2.08922e-29 -9.52647e-15 -0)
(-1.44638e-29 -9.52647e-15 -0)
(-8.03544e-31 -9.52647e-15 -0)
(-2.00886e-29 -9.52647e-15 -0)
(-3.21418e-30 -9.52647e-15 -0)
(3.37489e-29 -9.52647e-15 -0)
(2.6517e-29 -9.52647e-15 -0)
(-1.60709e-30 -9.52647e-15 -0)
(-1.84815e-29 -9.52647e-15 -0)
(5.62481e-30 -9.52647e-15 -0)
(1.20532e-29 -9.52647e-15 -0)
(-4.01772e-30 -9.52647e-15 -0)
(-1.60709e-30 -9.52647e-15 -0)
(-6.42835e-30 -9.52647e-15 -0)
(2.41063e-30 -9.52647e-15 -0)
(-8.03544e-30 -9.52647e-15 -0)
(2.00886e-29 -9.52647e-15 -0)
(3.6963e-29 -9.52647e-15 -0)
(3.13382e-29 -9.52647e-15 -0)
(9.64253e-30 -9.52647e-15 -0)
(-5.22304e-29 -9.52647e-15 -0)
(-3.93737e-29 -9.52647e-15 -0)
(-4.01772e-30 -9.52647e-15 -0)
(-1.20532e-29 -9.52647e-15 -0)
(-3.77666e-29 -9.52647e-15 -0)
(-4.09808e-29 -9.52647e-15 -0)
(-1.12496e-29 -9.52647e-15 -0)
(1.68744e-29 -9.52647e-15 -0)
(2.57134e-29 -9.52647e-15 -0)
(1.60709e-29 -9.52647e-15 -0)
(-8.83899e-30 -9.52647e-15 -0)
(5.62481e-30 -9.52647e-15 -0)
(3.37489e-29 -9.52647e-15 -0)
(2.49099e-29 -9.52647e-15 -0)
(2.08922e-29 -9.52647e-15 -0)
(3.21418e-30 -9.52647e-15 -0)
(-1.20532e-29 -9.52647e-15 -0)
(2.41063e-30 -9.52647e-15 -0)
(2.33028e-29 -9.52647e-15 -0)
(4.33914e-29 -9.52647e-15 -0)
(3.6963e-29 -9.52647e-15 -0)
(-8.03544e-31 -9.52647e-15 -0)
(-3.13382e-29 -9.52647e-15 -0)
(-2.00886e-29 -9.52647e-15 -0)
(-1.84815e-29 -9.52647e-15 -0)
(-1.7678e-29 -9.52647e-15 -0)
(-1.92851e-29 -9.52647e-15 -0)
(-3.6963e-29 -9.52647e-15 -0)
(-1.84815e-29 -9.52647e-15 -0)
(7.80127e-30 -9.52647e-15 -0)
(2.65243e-29 -9.52647e-15 -0)
(1.01417e-29 -9.52647e-15 -0)
(-1.56025e-29 -9.52647e-15 -0)
(1.56025e-30 -9.52647e-15 -0)
(4.9148e-29 -9.52647e-15 -0)
(3.12051e-29 -9.52647e-15 -0)
(-2.02833e-29 -9.52647e-15 -0)
(-1.56025e-29 -9.52647e-15 -0)
(-2.18436e-29 -9.52647e-15 -0)
(-2.02833e-29 -9.52647e-15 -0)
(-1.95032e-29 -9.52647e-15 -0)
(-1.48224e-29 -9.52647e-15 -0)
(-3.90063e-30 -9.52647e-15 -0)
(-2.41839e-29 -9.52647e-15 -0)
(-2.34038e-30 -9.52647e-15 -0)
(3.82262e-29 -9.52647e-15 -0)
(2.80846e-29 -9.52647e-15 -0)
(-5.46089e-30 -9.52647e-15 -0)
(-2.10634e-29 -9.52647e-15 -0)
(1.2482e-29 -9.52647e-15 -0)
(1.56025e-29 -9.52647e-15 -0)
(-4.68076e-30 -9.52647e-15 -0)
(-2.34038e-30 -9.52647e-15 -0)
(-6.24102e-30 -9.52647e-15 -0)
(-3.12051e-30 -9.52647e-15 -0)
(-1.2482e-29 -9.52647e-15 -0)
(2.49641e-29 -9.52647e-15 -0)
(4.13467e-29 -9.52647e-15 -0)
(3.27653e-29 -9.52647e-15 -0)
(1.2482e-29 -9.52647e-15 -0)
(-5.46089e-29 -9.52647e-15 -0)
(-4.36871e-29 -9.52647e-15 -0)
(-3.12051e-30 -9.52647e-15 -0)
(-1.2482e-29 -9.52647e-15 -0)
(-4.21269e-29 -9.52647e-15 -0)
(-4.13467e-29 -9.52647e-15 -0)
(-1.32622e-29 -9.52647e-15 -0)
(1.48224e-29 -9.52647e-15 -0)
(2.80846e-29 -9.52647e-15 -0)
(1.71628e-29 -9.52647e-15 -0)
(-1.01417e-29 -9.52647e-15 -0)
(4.68076e-30 -9.52647e-15 -0)
(3.58858e-29 -9.52647e-15 -0)
(2.80846e-29 -9.52647e-15 -0)
(2.41839e-29 -9.52647e-15 -0)
(6.24102e-30 -9.52647e-15 -0)
(-1.32622e-29 -9.52647e-15 -0)
(-3.12051e-30 -9.52647e-15 -0)
(2.34038e-29 -9.52647e-15 -0)
(4.75877e-29 -9.52647e-15 -0)
(4.60275e-29 -9.52647e-15 -0)
(1.56025e-30 -9.52647e-15 -0)
(-3.6666e-29 -9.52647e-15 -0)
(-2.18436e-29 -9.52647e-15 -0)
(-1.8723e-29 -9.52647e-15 -0)
(-2.10634e-29 -9.52647e-15 -0)
(-2.34038e-29 -9.52647e-15 -0)
(-4.13467e-29 -9.52647e-15 -0)
(-2.02833e-29 -9.52647e-15 -0)
(9.8461e-30 -9.52647e-15 -0)
(2.80235e-29 -9.52647e-15 -0)
(1.28757e-29 -9.52647e-15 -0)
(-1.28757e-29 -9.52647e-15 -0)
(2.27218e-30 -9.52647e-15 -0)
(5.6047e-29 -9.52647e-15 -0)
(3.33253e-29 -9.52647e-15 -0)
(-2.19644e-29 -9.52647e-15 -0)
(-1.36331e-29 -9.52647e-15 -0)
(-2.42365e-29 -9.52647e-15 -0)
(-2.49939e-29 -9.52647e-15 -0)
(-2.49939e-29 -9.52647e-15 -0)
(-1.51478e-29 -9.52647e-15 -0)
(-4.54435e-30 -9.52647e-15 -0)
(-2.49939e-29 -9.52647e-15 -0)
(2.27218e-30 -9.52647e-15 -0)
(4.08992e-29 -9.52647e-15 -0)
(3.02957e-29 -9.52647e-15 -0)
(-5.30174e-30 -9.52647e-15 -0)
(-2.34792e-29 -9.52647e-15 -0)
(1.13609e-29 -9.52647e-15 -0)
(1.59052e-29 -9.52647e-15 -0)
(-4.54435e-30 -9.52647e-15 -0)
(-1.51478e-30 -9.52647e-15 -0)
(-7.57392e-30 -9.52647e-15 -0)
(-2.27218e-30 -9.52647e-15 -0)
(-1.21183e-29 -9.52647e-15 -0)
(2.34792e-29 -9.52647e-15 -0)
(4.2414e-29 -9.52647e-15 -0)
(3.8627e-29 -9.52647e-15 -0)
(1.13609e-29 -9.52647e-15 -0)
(-5.9834e-29 -9.52647e-15 -0)
(-4.31713e-29 -9.52647e-15 -0)
(-5.30174e-30 -9.52647e-15 -0)
(-1.66626e-29 -9.52647e-15 -0)
(-4.16566e-29 -9.52647e-15 -0)
(-4.77157e-29 -9.52647e-15 -0)
(-1.66626e-29 -9.52647e-15 -0)
(2.27218e-29 -9.52647e-15 -0)
(3.10531e-29 -9.52647e-15 -0)
(1.742e-29 -9.52647e-15 -0)
(-1.28757e-29 -9.52647e-15 -0)
(5.30174e-30 -9.52647e-15 -0)
(4.16566e-29 -9.52647e-15 -0)
(3.18105e-29 -9.52647e-15 -0)
(2.04496e-29 -9.52647e-15 -0)
(6.81653e-30 -9.52647e-15 -0)
(-1.21183e-29 -9.52647e-15 -0)
(-4.54435e-30 -9.52647e-15 -0)
(2.27218e-29 -9.52647e-15 -0)
(5.52896e-29 -9.52647e-15 -0)
(5.15027e-29 -9.52647e-15 -0)
(-0 -9.52647e-15 -0)
(-3.71122e-29 -9.52647e-15 -0)
(-1.96922e-29 -9.52647e-15 -0)
(-2.57513e-29 -9.52647e-15 -0)
(-2.57513e-29 -9.52647e-15 -0)
(-2.19644e-29 -9.52647e-15 -0)
(-4.46861e-29 -9.52647e-15 -0)
(-2.19644e-29 -9.52647e-15 -0)
(1.02945e-29 -9.52647e-15 -0)