/*--------------------------------*- C++ -*----------------------------------*\
| =========                 |                                                 |
| \\      /  F ield         | foam-extend: Open Source CFD                    |
|  \\    /   O peration     | Version:     4.0                                |
|   \\  /    A nd           | Web:         http://www.foam-extend.org         |
|    \\/     M anipulation  |                                                 |
\*---------------------------------------------------------------------------*/
FoamFile
{
    version     2.0;
    format      ascii;
    class       surfaceScalarField;
    location    "23";
    object      phi;
}
// * * * * * * * * * * * * * * * * * * * * * * * * * * * * * * * * * * * * * //

dimensions      [0 3 -1 0 0 0 0];

internalField   nonuniform List<scalar> 
13744
(
-1.46296e-25
-3.87891e-22
-3.75222e-26
-4.67662e-25
2.27686e-25
-1.63203e-25
2.45303e-25
-3.72963e-26
2.43049e-25
-7.85434e-26
1.50665e-25
9.6542e-26
3.86855e-26
6.85129e-26
-4.30019e-26
1.97384e-25
-1.25614e-25
1.30387e-25
-1.19188e-25
7.69715e-26
-7.5549e-26
-2.06437e-26
4.68492e-26
-1.33426e-25
1.74552e-25
-1.68645e-25
2.70291e-25
-1.99389e-25
3.228e-25
-1.36634e-25
2.89847e-25
-4.90021e-26
2.14515e-25
4.78199e-26
1.0585e-25
1.32501e-25
5.55085e-27
1.52362e-25
-4.30668e-26
1.32634e-25
-4.45468e-26
6.24994e-26
9.5925e-27
-2.32029e-26
8.51301e-26
-9.12116e-26
1.5054e-25
-1.28895e-25
1.86397e-25
-1.16656e-25
1.73257e-25
-7.1413e-26
1.2567e-25
-8.71553e-27
6.15222e-26
4.81698e-26
5.98509e-27
7.88053e-26
-1.79185e-26
7.86132e-26
-6.31668e-27
5.0722e-26
3.58888e-26
9.93773e-27
9.03884e-26
-2.82427e-26
1.36257e-25
-5.23056e-26
1.58811e-25
-5.79806e-26
1.50583e-25
-4.8566e-26
1.1632e-25
-3.13955e-26
6.67806e-26
-1.49448e-26
1.55325e-26
-3.46815e-27
-2.61795e-26
4.81811e-27
-5.2268e-26
1.14051e-26
-5.94195e-26
2.10469e-26
-4.96305e-26
3.24355e-26
-2.14571e-26
3.91799e-26
1.91671e-26
4.23803e-26
6.56275e-26
2.99736e-26
1.08374e-25
1.5694e-26
1.25785e-25
-4.53981e-27
1.15352e-25
-1.78326e-26
6.14777e-26
-1.24877e-26
-1.4286e-26
-1.39146e-26
-9.93592e-26
1.10098e-26
-1.65702e-25
6.86244e-27
-1.8646e-25
1.43246e-26
-1.63289e-25
3.36116e-27
-9.37911e-26
-8.18337e-27
-1.30589e-26
-9.13342e-27
4.13403e-26
4.35359e-27
6.28702e-26
1.02843e-26
6.69319e-26
-1.40709e-25
-3.88089e-22
-1.40033e-25
-1.42687e-24
6.0384e-25
-4.89352e-25
7.56461e-25
-2.12573e-25
7.86219e-25
-3.88321e-25
4.72628e-25
2.21379e-25
1.77896e-25
1.5976e-25
-8.78453e-26
6.50553e-25
-3.32233e-25
4.80176e-25
-3.59758e-25
3.66585e-25
-2.6554e-25
5.94105e-26
9.37463e-26
-3.31305e-25
4.65465e-25
-5.10871e-25
7.76467e-25
-6.84249e-25
9.52356e-25
-5.36315e-25
8.87412e-25
-2.87876e-25
6.92703e-25
3.63454e-26
3.73134e-25
3.53383e-25
7.54767e-26
4.79418e-25
-9.19356e-26
4.8194e-25
-1.19824e-25
2.9585e-25
2.0632e-26
3.26597e-26
2.28223e-25
-2.06362e-25
4.24294e-25
-3.71976e-25
5.37857e-25
-3.80459e-25
5.14367e-25
-2.77062e-25
3.88923e-25
-9.67449e-26
2.07591e-25
8.67772e-26
4.77228e-26
2.01994e-25
-2.67659e-26
2.28444e-25
9.5599e-28
1.64043e-25
1.18709e-25
5.19341e-26
2.7394e-25
-5.9794e-26
4.06943e-25
-1.32332e-25
4.71687e-25
-1.46947e-25
4.4626e-25
-1.13887e-25
3.4291e-25
-5.66055e-26
1.92965e-25
-6.45889e-27
3.86697e-26
1.8425e-26
-8.56485e-26
2.08159e-26
-1.58546e-25
6.16844e-27
-1.71743e-25
-4.65828e-28
-1.3044e-25
4.0588e-27
-3.43816e-26
1.49457e-26
9.3324e-26
3.88287e-26
2.38486e-25
3.47079e-26
3.60169e-25
4.6175e-26
4.0657e-25
3.28363e-26
3.61082e-25
4.30073e-26
1.86399e-25
7.64973e-26
-5.44581e-26
7.23205e-26
-3.18277e-25
1.12094e-25
-5.17276e-25
3.94716e-26
-5.73709e-25
-2.77134e-27
-4.95902e-25
-8.66654e-26
-2.76491e-25
-1.37462e-25
-3.56346e-26
-1.00825e-25
1.26316e-25
6.48383e-27
1.83784e-25
6.76107e-26
2.8623e-25
-1.98677e-25
-3.8874e-22
-2.48905e-25
-2.8871e-24
9.44388e-25
-8.5158e-25
1.29281e-24
-5.15503e-25
1.3753e-24
-9.25659e-25
8.2631e-25
2.71363e-25
3.64442e-25
1.98727e-25
-9.92005e-26
1.25205e-24
-5.10945e-25
1.00786e-24
-6.03579e-25
8.69775e-25
-4.81836e-25
3.03691e-25
1.1009e-25
-4.68638e-25
7.25197e-25
-9.09095e-25
1.27063e-24
-1.34503e-24
1.58757e-24
-1.15749e-24
1.51382e-24
-7.4018e-25
1.21797e-24
-1.10869e-25
6.89539e-25
5.48456e-25
1.90957e-25
8.85319e-25
-1.11662e-25
9.91068e-25
-1.82824e-25
7.07572e-25
3.03371e-26
2.38176e-25
3.61015e-25
-2.40297e-25
6.89803e-25
-6.16278e-25
8.87316e-25
-7.09505e-25
8.63518e-25
-5.85703e-25
6.69166e-25
-2.87551e-25
3.74838e-25
4.90135e-26
1.11397e-25
2.86404e-25
-1.72079e-26
3.75951e-25
2.21367e-26
2.97451e-25
2.11817e-25
1.23914e-25
4.65961e-25
-5.94134e-26
6.86463e-25
-1.7808e-25
7.93996e-25
-1.92802e-25
7.5134e-25
-1.22676e-25
5.76936e-25
-1.27873e-26
3.22568e-25
7.08422e-26
6.06683e-26
8.94812e-26
-1.49789e-25
4.43285e-26
-2.69623e-25
-4.98852e-26
-2.85593e-25
-1.2915e-25
-2.05581e-25
-1.73788e-25
-3.28457e-26
-1.65811e-25
1.89626e-25
-9.19173e-26
4.41356e-25
-2.58896e-26
6.43848e-25
9.98213e-26
7.19254e-25
1.71391e-25
6.32194e-25
2.82057e-25
3.26667e-25
3.67541e-25
-9.26971e-26
3.49748e-25
-5.48484e-25
3.40391e-25
-8.88851e-25
8.77215e-26
-9.84147e-25
-1.14875e-25
-8.49173e-25
-3.58569e-25
-4.71146e-25
-4.72491e-25
-6.4158e-26
-3.25147e-25
2.11319e-25
-7.33263e-27
3.05674e-25
1.89763e-25
6.67934e-25
-3.08661e-25
-3.88807e-22
-3.83342e-25
-4.90345e-24
1.26901e-24
-1.25562e-24
1.84794e-24
-9.44851e-25
1.99341e-24
-1.68518e-24
1.21224e-24
2.50975e-25
5.87181e-25
1.84057e-25
-8.09018e-26
2.00399e-24
-6.67997e-25
1.7183e-24
-8.46822e-25
1.58678e-24
-7.13134e-25
7.1262e-25
1.05274e-25
-5.46945e-25
9.65203e-25
-1.36485e-24
1.75778e-24
-2.18255e-24
2.23094e-24
-2.00371e-24
2.1658e-24
-1.4086e-24
1.78138e-24
-3.9679e-25
1.04703e-24
7.14835e-25
3.43153e-25
1.36913e-24
-1.06207e-25
1.65991e-24
-2.33373e-25
1.30001e-24
4.22945e-26
5.97353e-25
4.90862e-25
-1.88306e-25
9.53765e-25
-8.56776e-25
1.24065e-24
-1.10036e-24
1.22359e-24
-9.9595e-25
9.65838e-25
-5.82269e-25
5.60531e-25
-6.85437e-26
1.92212e-25
3.27711e-25
5.91523e-27
5.17065e-25
5.31614e-26
4.48531e-25
3.12642e-25
2.2588e-25
6.65904e-25
-2.47267e-26
9.75945e-25
-1.85354e-25
1.12869e-24
-1.90805e-25
1.07005e-24
-7.07183e-26
8.23513e-25
1.02824e-25
4.61205e-25
2.17628e-25
8.66724e-26
2.08366e-25
-2.14782e-25
7.24677e-26
-3.8458e-25
-1.60085e-25
-4.03598e-25
-3.67641e-25
-2.81913e-25
-5.01692e-25
-2.73648e-26
-5.00532e-25
2.96379e-25
-3.44229e-25
6.6163e-25
-1.4186e-25
9.50439e-25
1.88854e-25
1.05839e-24
4.25535e-25
9.29418e-25
7.13278e-25
4.88308e-25
8.72101e-25
-1.18737e-25
8.25365e-25
-7.78509e-25
6.97189e-25
-1.27182e-24
1.48055e-25
-1.41474e-24
-3.29209e-25
-1.22573e-24
-8.20254e-25
-6.85672e-25
-1.02108e-24
-1.05575e-25
-6.8732e-25
2.92171e-25
-4.31413e-26
4.29e-25
3.78941e-25
1.2166e-24
-4.34541e-25
-3.88853e-22
-5.50461e-25
-7.47127e-24
1.5776e-24
-1.7031e-24
2.42021e-24
-1.504e-24
2.63807e-24
-2.67326e-24
1.63017e-24
1.47771e-25
8.4636e-25
1.01828e-25
-3.19736e-26
2.89676e-24
-8.02177e-25
2.61092e-24
-1.08816e-24
2.52288e-24
-9.58132e-25
1.30033e-24
7.95921e-26
-5.49705e-25
1.18509e-24
-1.86424e-24
2.23704e-24
-3.18891e-24
2.88177e-24
-3.07797e-24
2.84309e-24
-2.30398e-24
2.38317e-24
-8.38165e-25
1.44644e-24
8.35107e-25
5.33014e-25
1.91856e-24
-7.47293e-26
2.48375e-24
-2.71072e-25
2.07773e-24
5.64332e-26
1.12163e-24
6.17496e-25
-3.59951e-26
1.21596e-24
-1.08036e-24
1.59808e-24
-1.54511e-24
1.59534e-24
-1.50654e-24
1.28012e-24
-9.8583e-25
7.6596e-25
-2.74786e-25
2.91106e-25
3.1621e-25
4.28869e-26
6.43955e-25
9.35268e-26
6.12929e-25
4.20077e-25
3.57231e-25
8.72461e-25
4.65582e-26
1.27437e-24
-1.50201e-25
1.47549e-24
-1.36385e-25
1.40307e-24
4.66597e-26
1.08426e-24
2.94953e-25
6.11159e-25
4.38743e-25
1.19186e-25
3.79808e-25
-2.78405e-25
1.08977e-25
-5.01992e-25
-3.22888e-25
-5.25505e-25
-7.1793e-25
-3.60623e-25
-9.8553e-25
-2.05201e-26
-9.98384e-25
4.0989e-25
-7.28718e-25
8.94974e-25
-3.22151e-25
1.27588e-24
3.0791e-25
1.42101e-24
7.9592e-25
1.25175e-24
1.34285e-24
6.72756e-25
1.60067e-24
-1.29008e-25
1.51193e-24
-1.00357e-24
1.19386e-24
-1.66167e-24
2.28974e-25
-1.86281e-24
-6.43217e-25
-1.62532e-24
-1.47534e-24
-9.22337e-25
-1.79159e-24
-1.6312e-25
-1.19851e-24
3.663e-25
-1.09692e-25
5.52322e-25
6.33405e-25
1.93891e-24
-5.70262e-25
-3.88864e-22
-7.48475e-25
-1.05807e-23
1.86851e-24
-2.18956e-24
3.00772e-24
-2.1964e-24
3.30709e-24
-3.89418e-24
2.08028e-24
-5.03865e-26
1.14312e-24
-6.3605e-26
4.96496e-26
3.91894e-24
-9.11017e-25
3.68205e-24
-1.32571e-24
3.68166e-24
-1.21569e-24
2.08052e-24
3.25232e-26
-4.59475e-25
1.38316e-24
-2.39061e-24
2.70616e-24
-4.35313e-24
3.53808e-24
-4.38013e-24
3.54473e-24
-3.43521e-24
3.02361e-24
-1.45154e-24
1.8892e-24
8.90521e-25
7.62515e-25
2.51871e-24
-1.53539e-26
3.455e-24
-2.94711e-25
3.04294e-24
7.3044e-26
1.82123e-24
7.40509e-25
2.31196e-25
1.47569e-24
-1.27263e-24
1.95917e-24
-2.03395e-24
1.97891e-24
-2.11442e-24
1.61282e-24
-1.50198e-24
9.9237e-25
-5.78276e-25
4.0927e-25
2.41752e-25
9.44153e-26
7.47886e-25
1.43199e-25
7.85322e-25
5.33403e-25
5.1666e-25
1.08456e-24
1.56394e-25
1.58081e-24
-6.87287e-26
1.83406e-24
-2.49902e-26
1.75089e-24
2.33931e-25
1.36052e-24
5.67896e-25
7.74395e-25
7.38484e-25
1.60365e-25
6.08141e-25
-3.38771e-25
1.57669e-25
-6.20677e-25
-5.36046e-25
-6.51119e-25
-1.18069e-24
-4.42652e-25
-1.62964e-24
-1.432e-26
-1.66722e-24
5.27364e-25
-1.25543e-24
1.13822e-24
-5.76273e-25
1.61736e-24
4.50043e-25
1.80535e-24
1.28076e-24
1.5991e-24
2.17434e-24
8.81968e-25
2.56157e-24
-1.19861e-25
2.42096e-24
-1.21917e-24
1.84176e-24
-2.05435e-24
3.39969e-25
-2.32603e-24
-1.05257e-24
-2.0479e-24
-2.32549e-24
-1.18332e-24
-2.79115e-24
-2.3988e-25
-1.86929e-24
4.31178e-25
-2.16561e-25
6.74189e-25
9.50319e-25
2.83996e-24
-7.20313e-25
-3.88862e-22
-9.77811e-25
-1.42246e-23
2.13937e-24
-2.70773e-24
3.60831e-24
-3.02713e-24
3.99822e-24
-5.35048e-24
2.56279e-24
-3.56385e-25
1.47893e-24
-3.28166e-25
1.66547e-25
5.05839e-24
-9.91362e-25
4.92694e-24
-1.55719e-24
5.06643e-24
-1.48458e-24
3.06649e-24
-3.67191e-26
-2.58466e-25
1.55711e-24
-2.92669e-24
3.16214e-24
-5.66338e-24
4.19712e-24
-5.90902e-24
4.26927e-24
-4.81057e-24
3.70276e-24
-2.25303e-24
2.37689e-24
8.62194e-25
1.03408e-24
3.15411e-24
7.43277e-26
4.56529e-24
-3.02599e-25
4.19683e-24
9.26855e-26
2.70558e-24
8.59491e-25
6.27298e-25
1.73202e-24
-1.41926e-24
2.3231e-24
-2.55668e-24
2.37414e-24
-2.81584e-24
1.96455e-24
-2.13356e-24
1.24095e-24
-9.86741e-25
5.48001e-25
9.48026e-26
1.61409e-25
8.20393e-25
2.02364e-25
9.60271e-25
6.52067e-25
7.02439e-25
1.30122e-24
3.0608e-25
1.89428e-24
6.21965e-26
2.20396e-24
1.47159e-25
2.11391e-24
4.94886e-25
1.65355e-24
9.25471e-25
9.52797e-25
1.12098e-24
2.12299e-25
8.97946e-25
-3.94052e-25
2.23052e-25
-7.39484e-25
-7.96202e-25
-7.80238e-25
-1.75526e-24
-5.28857e-25
-2.43711e-24
-1.05933e-26
-2.51409e-24
6.46284e-25
-1.93437e-24
1.38856e-24
-9.14607e-25
1.97246e-24
6.06599e-25
2.21006e-24
1.87605e-24
1.97174e-24
3.2091e-24
1.11817e-24
3.76155e-24
-8.74774e-26
3.56354e-24
-1.42074e-24
2.65319e-24
-2.44575e-24
4.92655e-25
-2.80207e-24
-1.55028e-24
-2.49336e-24
-3.37024e-24
-1.47074e-24
-4.02594e-24
-3.38966e-25
-2.71069e-24
4.84168e-25
-3.74935e-25
7.93028e-25
1.32554e-24
3.92441e-24
-8.87182e-25
-3.88859e-22
-1.24067e-24
-1.8394e-23
2.38735e-24
-3.24927e-24
4.21947e-24
-4.00155e-24
4.70894e-24
-7.04322e-24
3.07784e-24
-7.83455e-25
1.8553e-24
-7.08847e-25
3.21584e-25
6.30132e-24
-1.0396e-24
6.33896e-24
-1.77992e-24
6.67938e-24
-1.76331e-24
4.27134e-24
-1.2896e-25
7.18714e-26
1.70434e-24
-3.45352e-24
3.60151e-24
-7.10579e-24
4.85555e-24
-7.66168e-24
5.01475e-24
-6.43729e-24
4.4204e-24
-3.2588e-24
2.91109e-24
7.30227e-25
1.35034e-24
3.80758e-24
1.9706e-25
5.80435e-24
-2.92693e-25
5.53909e-24
1.16157e-25
3.78336e-24
9.74098e-25
1.16645e-24
1.98392e-24
-1.50507e-24
2.68887e-24
-3.10185e-24
2.78061e-24
-3.60576e-24
2.33574e-24
-2.88243e-24
1.51283e-24
-1.50746e-24
7.08639e-25
-1.3423e-25
2.4489e-25
8.52567e-25
2.71332e-25
1.1317e-24
7.75598e-25
9.12195e-25
1.52143e-24
4.9634e-25
2.21378e-24
2.45231e-25
2.58466e-24
3.8344e-25
2.49244e-24
8.3297e-25
1.96456e-24
1.37126e-24
1.14825e-24
1.59033e-24
2.77113e-25
1.25414e-24
-4.42361e-25
3.10403e-25
-8.57209e-25
-1.09886e-24
-9.12615e-25
-2.4397e-24
-6.20052e-25
-3.40993e-24
-1.11339e-26
-3.54547e-24
7.64179e-25
-2.77581e-24
1.64325e-24
-1.34871e-24
2.33884e-24
7.67053e-25
2.63387e-24
2.57562e-24
2.37005e-24
4.44652e-24
1.38376e-24
5.20617e-24
-2.7844e-26
4.95064e-24
-1.60347e-24
3.64145e-24
-2.83154e-24
7.00558e-25
-3.28836e-24
-2.12716e-24
-2.96143e-24
-4.60721e-24
-1.78668e-24
-5.50131e-24
-4.6356e-25
-3.73418e-24
5.22459e-25
-5.97402e-25
9.07102e-25
1.75357e-24
5.19605e-24
-1.07159e-24
-3.88849e-22
-1.5394e-24
-2.30767e-23
2.60938e-24
-3.8047e-24
4.83836e-24
-5.12506e-24
5.43645e-24
-8.97173e-24
3.6254e-24
-1.34485e-24
2.27369e-24
-1.22367e-24
5.17781e-25
7.63225e-24
-1.05178e-24
7.90922e-24
-1.99089e-24
8.52111e-24
-2.05012e-24
5.70753e-24
-2.44928e-25
5.50542e-25
1.82213e-24
-3.95042e-24
4.02042e-24
-8.66426e-24
5.50952e-24
-9.63289e-24
5.77871e-24
-8.32103e-24
5.17595e-24
-4.48465e-24
3.49319e-24
4.73869e-25
1.71402e-24
4.46016e-24
3.55824e-25
7.15974e-24
-2.62651e-25
7.0675e-24
1.44498e-25
5.06208e-24
1.0841e-24
1.86266e-24
2.23032e-24
-1.51405e-24
3.0553e-24
-3.65656e-24
3.19771e-24
-4.47758e-24
2.72664e-24
-3.74921e-24
1.80904e-24
-2.14705e-24
8.92532e-25
-4.5494e-25
3.4595e-25
8.34962e-25
3.50496e-25
1.29272e-24
9.03571e-25
1.14269e-24
1.74422e-24
7.27167e-25
2.53824e-24
4.82493e-25
2.97557e-24
6.86841e-25
2.8867e-24
1.25134e-24
2.29473e-24
1.90865e-24
1.36267e-24
2.15065e-24
3.57019e-25
1.68195e-24
-4.81705e-25
4.25723e-25
-9.72551e-25
-1.43837e-24
-1.04794e-24
-3.23068e-24
-7.17032e-25
-4.54882e-24
-1.77611e-26
-4.76709e-24
8.78516e-25
-3.7901e-24
1.89947e-24
-1.89118e-24
2.71408e-24
9.19031e-25
3.07547e-24
3.37108e-24
2.79445e-24
5.88386e-24
1.6812e-24
6.89963e-24
6.32408e-26
6.59286e-24
-1.76227e-24
4.82069e-24
-3.20702e-24
9.79144e-25
-3.78199e-24
-2.7716e-24
-3.45164e-24
-6.03197e-24
-2.13311e-24
-7.22156e-24
-6.16928e-25
-4.95152e-24
5.43043e-25
-8.98076e-25
1.01448e-24
2.2274e-24
6.65751e-24
-1.27407e-24
-3.88824e-22
-1.87623e-24
-2.82572e-23
2.80221e-24
-4.36321e-24
5.46176e-24
-6.40292e-24
6.17754e-24
-1.11335e-23
4.20518e-24
-2.05372e-24
2.73536e-24
-1.89161e-24
7.58232e-25
9.03396e-24
-1.02367e-24
9.62647e-24
-2.18669e-24
1.05904e-23
-2.34283e-24
7.38672e-24
-3.85167e-25
1.19687e-24
1.9077e-24
-4.39504e-24
4.41476e-24
-1.03203e-23
6.1547e-24
-1.1815e-23
6.5582e-24
-1.04657e-23
5.96836e-24
-5.94587e-24
4.12436e-24
7.16144e-26
2.12779e-24
5.09104e-24
5.53764e-25
8.61669e-24
-2.0986e-25
8.77769e-24
1.79001e-25
6.54792e-24
1.18941e-24
2.72968e-24
2.47018e-24
-1.42941e-24
3.4211e-24
-4.20645e-24
3.62466e-24
-5.42302e-24
3.13734e-24
-4.73308e-24
2.13051e-24
-2.91134e-24
1.10101e-24
-8.76831e-25
4.65723e-25
7.57619e-25
4.40312e-25
1.43555e-24
1.0356e-24
1.38977e-24
1.96856e-24
9.97729e-25
2.86648e-24
7.75463e-25
3.37597e-24
1.05988e-24
3.29686e-24
1.7528e-24
2.64521e-24
2.54084e-24
1.59802e-24
2.80605e-24
4.54336e-25
2.18694e-24
-5.09952e-25
5.75795e-25
-1.08407e-24
-1.80787e-24
-1.18581e-24
-4.12341e-24
-8.20567e-25
-5.85312e-24
-3.23424e-26
-6.18383e-24
9.86647e-25
-4.98757e-24
2.15423e-24
-2.55563e-24
3.09559e-24
1.04825e-24
3.5334e-24
4.25169e-24
3.24525e-24
7.51606e-24
2.01302e-24
8.84454e-24
1.90147e-25
8.50034e-24
-1.89177e-24
6.20593e-24
-3.56714e-24
1.34588e-24
-4.27969e-24
-3.46951e-24
-3.96319e-24
-7.63776e-24
-2.51189e-24
-9.1898e-24
-8.02401e-25
-6.37474e-24
5.427e-25
-1.29262e-24
1.11302e-24
2.73836e-24
8.31e-24
-1.49522e-24
-3.88776e-22
-2.25328e-24
-3.39168e-23
2.96253e-24
-4.91256e-24
6.08607e-24
-7.84014e-24
6.9286e-24
-1.35238e-23
4.81659e-24
-2.92295e-24
3.24129e-24
-2.73258e-24
1.04602e-24
1.04875e-23
-9.50846e-25
1.14769e-23
-2.3636e-24
1.28841e-23
-2.63887e-24
9.31959e-24
-5.49948e-25
2.03031e-24
1.95834e-24
-4.76333e-24
4.78019e-24
-1.20531e-23
6.78633e-24
-1.41978e-23
7.34971e-24
-1.28731e-23
6.7961e-24
-7.65703e-24
4.80543e-24
-4.98655e-25
2.59428e-24
5.67757e-24
7.94139e-25
1.0158e-23
-1.31463e-25
1.06631e-23
2.21217e-25
8.24548e-24
1.29013e-24
3.78081e-24
2.70247e-24
-1.23365e-24
3.78491e-24
-4.73565e-24
4.0605e-24
-6.43198e-24
3.56775e-24
-5.83167e-24
2.47807e-24
-3.80522e-24
1.33535e-24
-1.40921e-24
6.05369e-25
6.10105e-25
5.41285e-25
1.55156e-24
1.17132e-24
1.64826e-24
2.19342e-24
1.30628e-24
3.1973e-24
1.12491e-24
3.78504e-24
1.50456e-24
3.72298e-24
2.33979e-24
3.01712e-24
3.27077e-24
1.85631e-24
3.56061e-24
5.71501e-25
2.775e-24
-5.24808e-25
7.68195e-25
-1.19018e-24
-2.19924e-24
-1.32572e-24
-5.11156e-24
-9.31387e-25
-7.32066e-24
-5.67967e-26
-7.79957e-24
1.08579e-24
-6.37849e-24
2.40437e-24
-3.35663e-24
3.48052e-24
1.13848e-24
4.00598e-24
5.20428e-24
3.72259e-24
9.33558e-24
2.38169e-24
1.10418e-23
3.57381e-25
1.06826e-23
-1.98627e-24
7.81296e-24
-3.90638e-24
1.82028e-24
-4.77768e-24
-4.20411e-24
-4.49491e-24
-9.41535e-24
-2.9247e-24
-1.14077e-23
-1.02335e-24
-8.01597e-24
5.17994e-25
-1.79824e-24
1.20035e-24
3.27609e-24
1.01531e-23
-1.73554e-24
-3.88698e-22
-2.67259e-24
-4.00335e-23
3.08698e-24
-5.43906e-24
6.7073e-24
-9.44144e-24
7.68554e-24
-1.61359e-23
5.45868e-24
-3.96497e-24
3.7921e-24
-3.76722e-24
1.38417e-24
1.19723e-23
-8.28741e-25
1.34442e-23
-2.51754e-24
1.53969e-23
-2.93521e-24
1.15155e-23
-7.39207e-25
3.07022e-24
1.97149e-24
-5.02964e-24
5.11224e-24
-1.38392e-23
7.39923e-24
-1.67682e-23
8.14921e-24
-1.55429e-23
7.65708e-24
-9.63173e-24
5.53684e-24
-1.25946e-24
3.11588e-24
6.19536e-24
1.08026e-24
1.17639e-23
-2.43728e-26
1.27145e-23
2.72973e-25
1.01576e-23
1.38657e-24
5.02874e-24
2.92626e-24
-9.08734e-25
4.14527e-24
-5.22679e-24
4.50411e-24
-7.49247e-24
4.01759e-24
-7.04089e-24
2.85236e-24
-4.83242e-24
1.59678e-24
-2.06107e-24
7.66055e-25
3.81577e-25
6.53967e-25
1.63119e-24
1.3104e-24
1.9119e-24
2.41772e-24
1.65005e-24
3.52936e-24
1.53078e-24
4.20185e-24
2.02225e-24
4.16501e-24
3.01431e-24
3.41154e-24
4.10111e-24
2.13959e-24
4.41838e-24
7.11073e-25
3.45236e-24
-5.23805e-25
1.0113e-24
-1.2891e-24
-2.60303e-24
-1.46701e-24
-6.18714e-24
-1.05017e-24
-8.94766e-24
-9.30846e-26
-9.61707e-24
1.17302e-24
-7.97287e-24
2.64645e-24
-4.30969e-24
3.86576e-24
1.17153e-24
4.49123e-24
6.21308e-24
4.22644e-24
1.13322e-23
2.7896e-24
1.34904e-23
5.69543e-25
1.31485e-23
-2.03977e-24
9.65825e-24
-4.2188e-24
2.42388e-24
-5.2717e-24
-4.95585e-24
-5.04519e-24
-1.13528e-23
-3.37297e-24
-1.38752e-23
-1.28317e-24
-9.88734e-24
4.65281e-25
-2.4337e-24
1.27386e-24
3.82834e-24
1.21844e-23
-1.9953e-24
-3.8858e-22
-3.13611e-24
-4.65823e-23
3.17227e-24
-5.92763e-24
7.32105e-24
-1.12111e-23
8.44384e-24
-1.89604e-23
6.13009e-24
-5.19159e-24
4.38797e-24
-5.01682e-24
1.77554e-24
1.34661e-23
-6.52699e-25
1.55089e-23
-2.6441e-24
1.8121e-23
-3.22833e-24
1.39824e-23
-9.52474e-25
4.33557e-24
1.94483e-24
-5.1669e-24
5.40634e-24
-1.56529e-23
7.98784e-24
-1.95102e-23
8.95208e-24
-1.84722e-23
8.54858e-24
-1.18823e-23
6.31852e-24
-2.23347e-24
3.69477e-24
6.61835e-24
1.41546e-24
1.34123e-23
1.14703e-25
1.49202e-23
3.3638e-25
1.22849e-23
1.4793e-24
6.48525e-24
3.14072e-24
-4.36204e-25
4.50071e-24
-5.66108e-24
4.95422e-24
-8.59052e-24
4.48639e-24
-8.35471e-24
3.2539e-24
-5.99536e-24
1.88643e-24
-2.84085e-24
9.48938e-25
6.08897e-26
7.78944e-25
1.66401e-24
1.45255e-24
2.1733e-24
2.6404e-24
2.02513e-24
3.86127e-24
1.99207e-24
4.62536e-24
2.61363e-24
4.6228e-24
3.77783e-24
3.82949e-24
5.03422e-24
2.44994e-24
5.38332e-24
8.75727e-25
4.22552e-24
-5.04295e-25
1.3143e-24
-1.37886e-24
-3.00845e-24
-1.60886e-24
-7.34045e-24
-1.17749e-24
-1.07286e-23
-1.43189e-25
-1.16378e-23
1.24527e-24
-9.78033e-24
2.87684e-24
-5.43107e-24
4.2479e-24
1.12727e-24
4.98685e-24
7.25966e-24
4.75644e-24
1.3493e-23
3.23898e-24
1.61871e-23
8.3127e-25
1.59056e-23
-2.04603e-24
1.17588e-23
-4.49797e-24
3.18026e-24
-5.75691e-24
-5.70223e-24
-5.61193e-24
-1.34352e-23
-3.85782e-24
-1.65904e-23
-1.58517e-24
-1.20007e-23
3.8072e-25
-3.21923e-24
1.33068e-24
4.38091e-24
1.43992e-23
-2.27453e-24
-3.88415e-22
-3.64561e-24
-5.35347e-23
3.21524e-24
-6.3618e-24
7.92254e-24
-1.31531e-23
9.19848e-24
-2.19853e-23
6.82902e-24
-6.61379e-24
5.02857e-24
-6.50301e-24
2.22278e-24
1.49454e-23
-4.18054e-25
1.76488e-23
-2.73855e-24
2.10461e-23
-3.51415e-24
1.67262e-23
-1.18881e-24
5.84464e-24
1.87635e-24
-5.14674e-24
5.65792e-24
-1.74661e-23
8.54627e-24
-2.24046e-23
9.75315e-24
-2.1655e-23
9.46723e-24
-1.44193e-23
7.14989e-24
-3.4432e-24
4.3328e-24
6.91897e-24
1.80299e-24
1.50782e-23
2.89235e-25
1.72655e-23
4.13835e-25
1.46259e-23
1.56914e-24
8.16091e-24
3.34521e-24
2.02539e-25
4.84973e-24
-6.01837e-24
5.40941e-24
-9.71012e-24
4.97346e-24
-9.76505e-24
3.68298e-24
-7.2949e-24
2.2053e-24
-3.75632e-24
1.15516e-24
-3.6328e-25
9.1684e-25
1.63874e-24
1.5975e-24
2.42384e-24
2.86036e-24
2.42639e-24
4.19157e-24
2.50672e-24
5.05437e-24
3.27852e-24
5.09605e-24
4.63125e-24
4.27187e-24
6.07207e-24
2.78942e-24
6.4593e-24
1.06824e-24
5.10126e-24
-4.63437e-25
1.68714e-24
-1.45726e-24
-3.40337e-24
-1.75026e-24
-8.55998e-24
-1.31384e-24
-1.26559e-23
-2.09087e-25
-1.38616e-23
1.29935e-24
-1.18099e-23
3.09163e-24
-6.73771e-24
4.62316e-24
9.83664e-25
5.49017e-24
8.32283e-24
5.3119e-24
1.58017e-23
3.73182e-24
1.91262e-23
1.14718e-24
1.89604e-23
-1.99855e-24
1.41319e-23
-4.73702e-24
4.11493e-24
-6.22788e-24
-6.41778e-24
-6.19243e-24
-1.56445e-23
-4.37999e-24
-1.95491e-23
-1.93261e-24
-1.43675e-23
2.60296e-25
-4.17647e-24
1.3677e-24
4.91755e-24
1.67904e-23
-2.573e-24
-3.88192e-22
-4.20261e-24
-6.08589e-23
3.21289e-24
-6.7238e-24
8.5066e-24
-1.52707e-23
9.94394e-24
-2.51956e-23
7.55316e-24
-8.2415e-24
5.71293e-24
-8.24757e-24
2.72826e-24
1.63854e-23
-1.20207e-25
1.98388e-23
-2.79589e-24
2.41595e-23
-3.78809e-24
1.97507e-23
-1.44675e-24
7.61466e-24
1.76444e-24
-4.93974e-24
5.86248e-24
-1.92485e-23
9.06831e-24
-2.54291e-23
1.05467e-23
-2.50824e-23
1.04089e-23
-1.72516e-23
8.02969e-24
-4.91065e-24
5.03136e-24
7.06836e-24
2.246e-24
1.67342e-23
5.02838e-25
1.97327e-23
5.08026e-25
1.71762e-23
1.65722e-24
1.00648e-23
3.53922e-24
1.02599e-24
5.19086e-24
-6.27731e-24
5.86813e-24
-1.08332e-23
5.47789e-24
-1.12616e-23
4.13972e-24
-8.73009e-24
2.5543e-24
-4.81427e-24
1.38581e-24
-9.02272e-25
1.06831e-24
1.54328e-24
1.74503e-24
2.65368e-24
3.07651e-24
2.84733e-24
4.51871e-24
3.07149e-24
5.48756e-24
4.01583e-24
5.58431e-24
5.57476e-24
4.73951e-24
7.21616e-24
3.1601e-24
7.64996e-24
1.2915e-24
6.08656e-24
-3.98203e-25
2.14053e-24
-1.52186e-24
-3.77427e-24
-1.88996e-24
-9.83237e-24
-1.45951e-24
-1.47202e-23
-2.92713e-25
-1.62869e-23
1.332e-24
-1.40698e-23
3.28669e-24
-8.24702e-24
4.98743e-24
7.16844e-25
5.99806e-24
9.37859e-24
5.8917e-24
1.8239e-23
4.2698e-24
2.22993e-23
1.52177e-24
2.23177e-23
-1.89067e-24
1.6795e-23
-4.92862e-24
5.25529e-24
-6.67852e-24
-7.07387e-24
-6.78338e-24
-1.79593e-23
-4.93974e-24
-2.27446e-23
-2.32855e-24
-1.69985e-23
9.9848e-26
-5.32837e-24
1.38155e-24
5.41984e-24
1.93477e-23
-2.89018e-24
-3.87904e-22
-4.80837e-24
-6.85203e-23
3.16249e-24
-6.99471e-24
9.06769e-24
-1.75668e-23
1.06742e-23
-2.85733e-23
8.29967e-24
-1.00835e-23
6.43941e-24
-1.02721e-23
3.29395e-24
1.77603e-23
2.4529e-25
2.20504e-23
-2.81086e-24
2.74452e-23
-4.04499e-24
2.30573e-23
-1.72424e-24
9.66148e-24
1.60799e-24
-4.51572e-24
6.01565e-24
-2.09676e-23
9.54756e-24
-2.8558e-23
1.13263e-23
-2.87423e-23
1.13688e-23
-2.03856e-23
8.95599e-24
-6.65695e-24
5.79139e-24
7.0366e-24
2.74744e-24
1.83507e-23
7.59231e-25
2.23012e-23
6.21926e-25
1.99285e-23
1.74502e-24
1.22041e-23
3.72249e-24
2.05225e-24
5.52266e-24
-6.41548e-24
6.32868e-24
-1.19396e-23
5.99856e-24
-1.28316e-23
4.62398e-24
-1.0298e-23
2.93414e-24
-6.02031e-24
1.64196e-24
-1.56725e-24
1.23403e-24
1.36486e-24
1.89497e-24
2.85172e-24
3.28775e-24
3.28003e-24
4.84104e-24
3.68177e-24
5.92345e-24
4.82336e-24
6.08693e-24
6.60776e-24
5.23307e-24
8.46748e-24
3.56397e-24
8.95873e-24
1.54845e-24
7.18855e-24
-3.05376e-25
2.68589e-24
-1.56998e-24
-4.1063e-24
-2.02646e-24
-1.11423e-23
-1.61463e-24
-1.69098e-23
-3.9592e-25
-1.89101e-23
1.33985e-24
-1.65671e-23
3.45767e-24
-9.97665e-24
5.33623e-24
3.01242e-25
6.50695e-24
1.04001e-23
6.49424e-24
2.0782e-23
4.85421e-24
2.56949e-23
1.95938e-24
2.59804e-23
-1.7156e-24
1.97655e-23
-5.06501e-24
6.63044e-24
-7.10208e-24
-7.63876e-24
-7.38069e-24
-2.03544e-23
-5.53676e-24
-2.61674e-23
-2.77579e-24
-1.99033e-23
-1.04894e-25
-6.69897e-24
1.36861e-24
5.86714e-24
2.20575e-23
-3.22521e-24
-3.87541e-22
-5.46382e-24
-7.64809e-23
3.06164e-24
-7.15463e-24
9.59992e-24
-2.00436e-23
1.1383e-23
-3.20971e-23
9.06513e-24
-1.2147e-23
7.20559e-24
-1.25978e-23
3.92137e-24
1.90435e-23
6.8263e-25
2.42523e-23
-2.77802e-24
3.08848e-23
-4.27914e-24
2.66443e-23
-2.01859e-24
1.19991e-23
1.40648e-24
-3.84402e-24
6.11334e-24
-2.25892e-23
9.97742e-24
-3.1762e-23
1.20853e-23
-3.26186e-23
1.23413e-23
-2.38249e-23
9.92605e-24
-8.70191e-24
6.61321e-24
6.79301e-24
3.30999e-24
1.98955e-23
1.06219e-24
2.49469e-23
7.58779e-25
2.28725e-23
1.83432e-24
1.45838e-23
3.89502e-24
3.29866e-24
5.84378e-24
-6.40966e-24
6.78929e-24
-1.30072e-23
6.53411e-24
-1.44599e-23
5.13541e-24
-1.19933e-23
3.34539e-24
-7.37859e-24
1.92457e-24
-2.36899e-24
1.41471e-24
1.0901e-24
2.0472e-24
3.00561e-24
3.493e-24
3.71503e-24
5.15688e-24
4.33154e-24
6.36042e-24
5.69771e-24
6.60309e-24
7.72872e-24
5.75305e-24
9.82636e-24
4.00295e-24
1.03887e-23
1.84209e-24
8.41446e-24
-1.81556e-25
3.33523e-24
-1.59865e-24
-4.38329e-24
-2.15795e-24
-1.24727e-23
-1.77906e-24
-1.92108e-23
-5.20419e-25
-2.17253e-23
1.31955e-24
-1.93078e-23
3.60002e-24
-1.19443e-23
5.66469e-24
-2.90255e-25
7.01274e-24
1.13576e-23
7.11735e-24
2.34045e-23
5.48582e-24
2.92981e-23
2.46403e-24
2.9949e-23
-1.46653e-24
2.30601e-23
-5.13802e-24
8.27097e-24
-7.49112e-24
-8.07752e-24
-7.97954e-24
-2.28009e-23
-6.1701e-24
-2.98044e-23
-3.27683e-24
-2.30901e-23
-3.58255e-25
-8.31323e-24
1.32504e-24
6.23653e-24
2.49025e-23
-3.57693e-24
-3.87097e-22
-6.1695e-24
-8.46997e-23
2.90835e-24
-7.18291e-24
1.00971e-23
-2.27025e-23
1.20632e-23
-3.57422e-23
9.84552e-24
-1.44377e-23
8.00821e-24
-1.52447e-23
4.61148e-24
2.02078e-23
1.19565e-24
2.641e-23
-2.6918e-24
3.44566e-23
-4.48427e-24
3.05069e-23
-2.32643e-24
1.46394e-23
1.16008e-24
-2.89391e-24
6.15178e-24
-2.40774e-23
1.03512e-23
-3.50088e-23
1.28162e-23
-3.66917e-23
1.33199e-23
-2.75701e-23
1.09363e-23
-1.10636e-23
7.49644e-24
6.30654e-24
3.93597e-24
2.13343e-23
1.41547e-24
2.76424e-23
9.22077e-25
2.59943e-23
1.92727e-24
1.72065e-23
4.05706e-24
4.78141e-24
6.15297e-24
-6.23606e-24
7.24808e-24
-1.4012e-23
7.08296e-24
-1.61287e-23
5.67336e-24
-1.38083e-23
3.78841e-24
-8.89153e-24
2.23455e-24
-3.3176e-24
1.61108e-24
7.05232e-25
2.20166e-24
3.10179e-24
3.69122e-24
4.1413e-24
5.46444e-24
5.01317e-24
6.79664e-24
6.63411e-24
7.13171e-24
8.93506e-24
6.2997e-24
1.12924e-23
4.47886e-24
1.19425e-23
2.17545e-24
9.77145e-24
-2.31734e-26
4.10115e-24
-1.60462e-24
-4.58784e-24
-2.28232e-24
-1.38042e-23
-1.95238e-24
-2.16068e-23
-6.67731e-25
-2.47246e-23
1.26775e-24
-2.22961e-23
3.70902e-24
-1.41674e-23
5.96758e-24
-1.08609e-24
7.51079e-24
1.22187e-23
7.75823e-24
2.60762e-23
6.16481e-24
3.30905e-23
3.03935e-24
3.42213e-23
-1.13669e-24
2.66947e-23
-5.13917e-24
1.02087e-23
-7.83748e-24
-8.35211e-24
-8.57419e-24
-2.52658e-23
-6.838e-24
-3.36393e-23
-3.83371e-24
-2.65653e-23
-6.64559e-25
-1.01967e-23
1.24678e-24
6.50276e-24
2.78612e-23
-3.94378e-24
-3.86566e-22
-6.92554e-24
-9.31329e-23
2.70111e-24
-7.05846e-24
1.05527e-23
-2.55445e-23
1.27078e-23
-3.94802e-23
1.06362e-23
-1.69597e-23
8.84309e-24
-1.82317e-23
5.3646e-24
2.12263e-23
1.7877e-24
2.84859e-23
-2.54657e-24
3.81362e-23
-4.65361e-24
3.46369e-23
-2.64368e-24
1.75914e-23
8.69705e-25
-1.635e-24
6.12764e-24
-2.53952e-23
1.06623e-23
-3.82624e-23
1.35113e-23
-4.0938e-23
1.42973e-23
-3.16182e-23
1.19822e-23
-1.37578e-23
8.43996e-24
5.54616e-24
4.62723e-24
2.26311e-23
1.82278e-24
3.03573e-23
1.11553e-24
2.92762e-23
2.0264e-24
2.00714e-23
4.2092e-24
6.51515e-24
6.44913e-24
-5.87069e-24
7.7031e-24
-1.49281e-23
7.64331e-24
-1.78176e-23
6.23696e-24
-1.57326e-23
4.26334e-24
-1.05595e-23
2.57272e-24
-4.42227e-24
1.82387e-24
1.96232e-25
2.35836e-24
3.12556e-24
3.88139e-24
4.54616e-24
5.76192e-24
5.71732e-24
7.23014e-24
7.62626e-24
7.67148e-24
1.0223e-23
6.87307e-24
1.28643e-23
4.99331e-24
1.36223e-23
2.55154e-24
1.12666e-23
1.73498e-25
4.99666e-24
-1.58435e-24
-4.70133e-24
-2.39705e-24
-1.51158e-23
-2.1338e-24
-2.40789e-23
-8.39117e-25
-2.78974e-23
1.18123e-24
-2.55342e-23
3.77983e-24
-1.66627e-23
6.23932e-24
-2.11578e-24
7.99588e-24
1.29481e-23
8.41337e-24
2.87632e-23
6.89063e-24
3.70498e-23
3.68845e-24
3.87921e-23
-7.19485e-25
3.0684e-23
-5.05967e-24
1.24765e-23
-8.13229e-24
-8.42144e-24
-9.158e-24
-2.77118e-23
-7.53785e-24
-3.76514e-23
-4.4479e-24
-3.03331e-23
-1.02805e-24
-1.23753e-23
1.12958e-24
6.63831e-24
3.09073e-23
-4.32389e-24
-3.85941e-22
-7.73155e-24
-1.01734e-22
2.43897e-24
-6.7601e-24
1.09601e-23
-2.85696e-23
1.3309e-23
-4.3279e-23
1.14318e-23
-1.9715e-23
9.70506e-24
-2.15758e-23
6.1803e-24
2.20719e-23
2.46154e-24
3.04397e-23
-2.33671e-24
4.18962e-23
-4.7799e-24
3.90219e-23
-2.96549e-24
2.08614e-23
5.3717e-25
-3.76895e-26
6.03817e-24
-2.65046e-23
1.09042e-23
-4.14836e-23
1.41623e-23
-4.53298e-23
1.52655e-23
-3.59626e-23
1.30585e-23
-1.67974e-23
9.44172e-24
4.48132e-24
5.38509e-24
2.37481e-23
2.28763e-24
3.30578e-23
1.34303e-24
3.26968e-23
2.13457e-24
2.31747e-23
4.35238e-24
8.5125e-24
6.73132e-24
-5.2897e-24
8.15238e-24
-1.57282e-23
8.21314e-24
-1.95036e-23
6.82502e-24
-1.77528e-23
4.7701e-24
-1.23804e-23
2.93975e-24
-5.69093e-24
2.05384e-24
-4.50891e-25
2.51738e-24
3.06118e-24
4.06252e-24
4.91527e-24
6.0474e-24
6.43284e-24
7.65875e-24
8.66622e-24
8.22079e-24
1.15875e-23
7.47287e-24
1.45398e-23
5.54773e-24
1.54294e-23
2.9733e-24
1.29067e-23
4.12314e-25
6.03506e-24
-1.53401e-24
-4.70414e-24
-2.49924e-24
-1.63844e-23
-2.32212e-24
-2.66058e-23
-1.0355e-24
-3.12304e-23
1.05689e-24
-2.90224e-23
3.80754e-24
-1.94461e-23
6.47398e-24
-3.40955e-24
8.4622e-24
1.35082e-23
9.07846e-24
3.14276e-23
7.66191e-24
4.11492e-23
4.41377e-24
4.36524e-23
-2.08617e-25
3.50407e-23
-4.89054e-24
1.51075e-23
-8.366e-24
-8.2416e-24