/*--------------------------------*- C++ -*----------------------------------*\
| =========                 |                                                 |
| \\      /  F ield         | foam-extend: Open Source CFD                    |
|  \\    /   O peration     | Version:     4.0                                |
|   \\  /    A nd           | Web:         http://www.foam-extend.org         |
|    \\/     M anipulation  |                                                 |
\*---------------------------------------------------------------------------*/
FoamFile
{
    version     2.0;
    format      ascii;
    class       volVectorField;
    location    "7";
    object      U;
}
// * * * * * * * * * * * * * * * * * * * * * * * * * * * * * * * * * * * * * //

dimensions      [0 1 -1 0 0 0 0];

internalField   nonuniform List<vector> 
6960
(
(-1.35634e-27 -3.54019e-26 0)
(-1.05751e-27 1.95131e-29 0)
(1.29067e-28 3.87052e-29 0)
(-7.24915e-29 4.63056e-29 0)
(2.73046e-29 5.28252e-29 0)
(-2.17124e-29 5.78119e-29 0)
(2.29856e-29 5.1562e-29 0)
(-4.82755e-30 4.01292e-29 0)
(-1.44829e-30 4.04657e-29 0)
(-2.32136e-29 4.75319e-29 0)
(-2.46737e-29 5.24444e-29 0)
(-3.76003e-29 6.00648e-29 0)
(-3.23593e-29 6.78475e-29 0)
(-2.13501e-29 6.45487e-29 0)
(-9.72729e-30 5.00852e-29 0)
(-6.59448e-30 3.91862e-29 0)
(2.13114e-30 3.51045e-29 0)
(1.06103e-29 3.35807e-29 0)
(1.46012e-29 3.55743e-29 0)
(1.33491e-29 4.43713e-29 0)
(9.7954e-30 5.53145e-29 0)
(4.14344e-30 5.98862e-29 0)
(2.24202e-31 6.38272e-29 0)
(-2.53627e-30 6.75709e-29 0)
(-4.67317e-30 6.12476e-29 0)
(-2.9012e-30 5.23624e-29 0)
(1.73302e-30 4.96065e-29 0)
(5.63075e-30 5.10933e-29 0)
(6.827e-30 5.38407e-29 0)
(5.23224e-30 5.91041e-29 0)
(7.28375e-30 6.01561e-29 0)
(1.28323e-29 4.98099e-29 0)
(1.17611e-29 4.03549e-29 0)
(6.72601e-30 4.56866e-29 0)
(4.57814e-30 5.64248e-29 0)
(2.25455e-30 6.11465e-29 0)
(1.18167e-30 6.74474e-29 0)
(2.0845e-30 7.51655e-29 0)
(-2.51961e-30 7.37691e-29 0)
(-8.96186e-30 6.76709e-29 0)
(-1.17895e-29 6.82751e-29 0)
(-1.18317e-29 6.7255e-29 0)
(-7.1838e-30 5.9869e-29 0)
(1.31057e-30 5.61438e-29 0)
(5.82535e-30 5.65886e-29 0)
(4.65722e-30 5.8393e-29 0)
(1.54944e-30 5.82096e-29 0)
(1.99341e-30 5.73635e-29 0)
(6.71538e-30 5.58369e-29 0)
(8.58396e-30 5.71355e-29 0)
(2.4041e-30 6.60864e-29 0)
(-3.24829e-30 7.11228e-29 0)
(-2.79214e-30 6.29963e-29 0)
(-3.58851e-30 5.0769e-29 0)
(-6.42207e-30 4.21652e-29 0)
(-2.53831e-30 3.75274e-29 0)
(3.08317e-30 3.55646e-29 0)
(9.5376e-31 3.94954e-29 0)
(-6.46724e-30 4.94537e-29 0)
(-4.43132e-30 6.32954e-29 0)
(-2.90644e-27 -7.39228e-26 0)
(-2.05891e-27 6.00204e-29 0)
(3.49073e-28 1.25576e-28 0)
(-2.17349e-28 1.65329e-28 0)
(7.91676e-29 1.83653e-28 0)
(-6.27864e-29 1.99207e-28 0)
(6.34924e-29 1.91179e-28 0)
(-1.97619e-29 1.67995e-28 0)
(-1.08746e-29 1.64058e-28 0)
(-7.44181e-29 1.7216e-28 0)
(-7.58289e-29 1.78134e-28 0)
(-1.07938e-28 1.93766e-28 0)
(-8.92579e-29 2.16374e-28 0)
(-5.81683e-29 2.10299e-28 0)
(-2.63266e-29 1.77465e-28 0)
(-1.7799e-29 1.5449e-28 0)
(7.07292e-30 1.479e-28 0)
(3.10598e-29 1.45724e-28 0)
(4.26843e-29 1.49221e-28 0)
(3.91399e-29 1.65374e-28 0)
(2.83955e-29 1.83812e-28 0)
(1.20686e-29 1.90015e-28 0)
(1.84906e-30 1.94958e-28 0)
(-5.37159e-30 2.00516e-28 0)
(-1.16593e-29 1.89755e-28 0)
(-6.73878e-30 1.71539e-28 0)
(6.08368e-30 1.68013e-28 0)
(1.65453e-29 1.70984e-28 0)
(2.00351e-29 1.76542e-28 0)
(1.56465e-29 1.88944e-28 0)
(2.00564e-29 1.93257e-28 0)
(3.42005e-29 1.70502e-28 0)
(3.20048e-29 1.47173e-28 0)
(1.9858e-29 1.5688e-28 0)
(1.45954e-29 1.78964e-28 0)
(8.06665e-30 1.93068e-28 0)
(4.74469e-30 2.0824e-28 0)
(5.89083e-30 2.22617e-28 0)
(-8.38267e-30 2.18483e-28 0)
(-2.59858e-29 2.06539e-28 0)
(-3.32573e-29 2.06953e-28 0)
(-3.4283e-29 2.04372e-28 0)
(-2.20209e-29 1.88767e-28 0)
(2.78543e-30 1.78158e-28 0)
(1.68535e-29 1.7866e-28 0)
(1.44252e-29 1.81266e-28 0)
(5.48273e-30 1.85738e-28 0)
(5.46306e-30 1.89263e-28 0)
(1.78701e-29 1.87111e-28 0)
(2.39234e-29 1.88259e-28 0)
(7.49688e-30 2.07114e-28 0)
(-9.14975e-30 2.23822e-28 0)
(-9.12041e-30 2.14035e-28 0)
(-1.13371e-29 1.91022e-28 0)
(-1.88396e-29 1.70266e-28 0)
(-7.78897e-30 1.55599e-28 0)
(8.08471e-30 1.45914e-28 0)
(2.8504e-30 1.45932e-28 0)
(-1.70091e-29 1.64314e-28 0)
(-1.15766e-29 1.93225e-28 0)
(-4.31625e-27 -7.30355e-26 0)
(-2.95949e-27 -1.28168e-28 0)
(5.34848e-28 -1.87781e-29 0)
(-3.6323e-28 6.94403e-29 0)
(1.28771e-28 1.01115e-28 0)
(-1.02387e-28 1.33658e-28 0)
(9.94336e-29 1.29876e-28 0)
(-3.99891e-29 1.06682e-28 0)
(-2.67169e-29 9.01474e-29 0)
(-1.30245e-28 8.50104e-29 0)
(-1.28658e-28 8.41963e-29 0)
(-1.74397e-28 1.06976e-28 0)
(-1.39818e-28 1.41733e-28 0)
(-9.02018e-29 1.40228e-28 0)
(-4.05583e-29 1.01161e-28 0)
(-2.72124e-29 7.7967e-29 0)
(1.27553e-29 7.76567e-29 0)
(5.07549e-29 7.65604e-29 0)
(6.95861e-29 7.51614e-29 0)
(6.37549e-29 8.13568e-29 0)
(4.58956e-29 8.70872e-29 0)
(1.97051e-29 8.39382e-29 0)
(4.34842e-30 8.19076e-29 0)
(-6.12485e-30 8.07425e-29 0)
(-1.60896e-29 7.28655e-29 0)
(-8.71089e-30 6.66452e-29 0)
(1.11144e-29 6.33827e-29 0)
(2.69222e-29 6.24227e-29 0)
(3.25947e-29 6.60719e-29 0)
(2.61351e-29 8.03436e-29 0)
(3.18655e-29 9.09711e-29 0)
(5.25455e-29 7.29248e-29 0)
(4.95664e-29 4.60986e-29 0)
(3.2309e-29 4.90086e-29 0)
(2.51603e-29 7.06293e-29 0)
(1.49118e-29 8.92816e-29 0)
(9.03838e-30 1.07918e-28 0)
(9.30362e-30 1.15786e-28 0)
(-1.47605e-29 1.06544e-28 0)
(-4.21965e-29 9.81127e-29 0)
(-5.31834e-29 9.82957e-29 0)
(-5.57168e-29 9.19597e-29 0)
(-3.70885e-29 7.8383e-29 0)
(3.06117e-30 6.71012e-29 0)
(2.71459e-29 6.0114e-29 0)
(2.47035e-29 6.42195e-29 0)
(1.06015e-29 7.79286e-29 0)
(9.1316e-30 9.69798e-29 0)
(2.74027e-29 1.03534e-28 0)
(3.75746e-29 9.78454e-29 0)
(1.26785e-29 1.11116e-28 0)
(-1.41005e-29 1.41347e-28 0)
(-1.52833e-29 1.51835e-28 0)
(-1.91471e-29 1.35415e-28 0)
(-3.09525e-29 1.13456e-28 0)
(-1.35144e-29 9.43329e-29 0)
(1.1359e-29 7.03107e-29 0)
(3.95987e-30 5.32052e-29 0)
(-2.63016e-29 6.30847e-29 0)
(-1.7538e-29 7.70299e-29 0)
(-5.7555e-27 -6.87829e-26 0)
(-3.93176e-27 -3.79347e-28 0)
(6.86024e-28 -2.13468e-28 0)
(-5.10468e-28 -6.50167e-29 0)
(1.7575e-28 -3.18333e-29 0)
(-1.41015e-28 1.11026e-29 0)
(1.30584e-28 7.92413e-30 0)
(-6.48418e-29 -1.55022e-29 0)
(-4.77689e-29 -4.1965e-29 0)
(-1.89196e-28 -5.66761e-29 0)
(-1.81934e-28 -6.0161e-29 0)
(-2.3706e-28 -2.96289e-29 0)
(-1.85264e-28 1.95253e-29 0)
(-1.18598e-28 2.18087e-29 0)
(-5.29366e-29 -2.28071e-29 0)
(-3.51887e-29 -4.52703e-29 0)
(1.89022e-29 -3.9551e-29 0)
(6.97414e-29 -3.94589e-29 0)
(9.511e-29 -4.56857e-29 0)
(8.69906e-29 -4.96749e-29 0)
(6.24352e-29 -5.73748e-29 0)
(2.7187e-29 -6.98456e-29 0)
(7.62858e-30 -8.03882e-29 0)
(-5.24162e-30 -8.92711e-29 0)
(-1.81613e-29 -9.15544e-29 0)
(-8.78675e-30 -8.85999e-29 0)
(1.63193e-29 -8.89774e-29 0)
(3.6431e-29 -9.39902e-29 0)
(4.44924e-29 -9.35491e-29 0)
(3.65397e-29 -7.70262e-29 0)
(4.3093e-29 -5.83261e-29 0)
(6.88539e-29 -7.1476e-29 0)
(6.49483e-29 -1.0076e-28 0)
(4.38976e-29 -1.04103e-28 0)
(3.58525e-29 -8.44295e-29 0)
(2.24859e-29 -5.98974e-29 0)
(1.37359e-29 -3.90064e-29 0)
(1.2173e-29 -3.96653e-29 0)
(-2.1247e-29 -5.47183e-29 0)
(-5.75095e-29 -5.99427e-29 0)
(-7.18796e-29 -6.18272e-29 0)
(-7.6186e-29 -7.0267e-29 0)
(-5.21415e-29 -8.07903e-29 0)
(2.36788e-30 -9.40684e-29 0)
(3.64824e-29 -1.0589e-28 0)
(3.52256e-29 -1.03144e-28 0)
(1.69146e-29 -7.71428e-29 0)
(1.34015e-29 -4.19197e-29 0)
(3.58739e-29 -2.88533e-29 0)
(4.95156e-29 -4.35854e-29 0)
(1.76848e-29 -4.12859e-29 0)
(-1.79396e-29 -3.71345e-30 0)
(-2.09037e-29 2.49598e-29 0)
(-2.66942e-29 1.93821e-29 0)
(-4.24956e-29 3.0451e-30 0)
(-1.96811e-29 -1.34993e-29 0)
(1.29173e-29 -4.18281e-29 0)
(3.90348e-30 -7.23398e-29 0)
(-3.52765e-29 -6.78663e-29 0)
(-2.34479e-29 -5.45445e-29 0)
(-7.15219e-27 -6.79338e-26 0)
(-4.90167e-27 -5.6161e-28 0)
(8.03224e-28 -3.31398e-28 0)
(-6.58531e-28 -1.11275e-28 0)
(2.18701e-28 -9.0527e-29 0)
(-1.79785e-28 -4.70893e-29 0)
(1.56896e-28 -6.3197e-29 0)
(-9.37555e-29 -9.27216e-29 0)
(-7.27033e-29 -1.25573e-28 0)
(-2.49367e-28 -1.3897e-28 0)
(-2.34529e-28 -1.37876e-28 0)
(-2.96051e-28 -9.27342e-29 0)
(-2.26605e-28 -2.66794e-29 0)
(-1.44572e-28 -2.06783e-29 0)
(-6.45106e-29 -7.55456e-29 0)
(-4.23436e-29 -1.03754e-28 0)
(2.52841e-29 -9.73626e-29 0)
(8.78611e-29 -9.91037e-29 0)
(1.19586e-28 -1.06782e-28 0)
(1.094e-28 -1.11546e-28 0)
(7.84884e-29 -1.24423e-28 0)
(3.49193e-29 -1.42944e-28 0)
(1.16669e-29 -1.57804e-28 0)
(-2.87523e-30 -1.70057e-28 0)
(-1.8482e-29 -1.71954e-28 0)
(-7.85541e-30 -1.6486e-28 0)
(2.17e-29 -1.67494e-28 0)
(4.52286e-29 -1.75026e-28 0)
(5.56029e-29 -1.7252e-28 0)
(4.69214e-29 -1.49935e-28 0)
(5.38114e-29 -1.25569e-28 0)
(8.33097e-29 -1.40232e-28 0)
(7.85716e-29 -1.77517e-28 0)
(5.48363e-29 -1.82591e-28 0)
(4.67776e-29 -1.59634e-28 0)
(3.06682e-29 -1.2784e-28 0)
(1.8819e-29 -9.9835e-29 0)
(1.48817e-29 -1.03155e-28 0)
(-2.77845e-29 -1.25702e-28 0)
(-7.21274e-29 -1.33429e-28 0)
(-8.95723e-29 -1.35858e-28 0)
(-9.57975e-29 -1.46946e-28 0)
(-6.71078e-29 -1.56661e-28 0)
(7.11174e-31 -1.72462e-28 0)
(4.49094e-29 -1.90845e-28 0)
(4.58117e-29 -1.847e-28 0)
(2.41767e-29 -1.49298e-28 0)
(1.82344e-29 -1.01738e-28 0)
(4.35261e-29 -8.55934e-29 0)
(6.0125e-29 -1.13308e-28 0)
(2.23004e-29 -1.24685e-28 0)
(-2.12564e-29 -8.5707e-29 0)
(-2.60876e-29 -4.89889e-29 0)
(-3.38786e-29 -4.75355e-29 0)
(-5.34654e-29 -5.26063e-29 0)
(-2.58949e-29 -5.4307e-29 0)
(1.32495e-29 -7.72596e-29 0)
(3.18304e-30 -1.04788e-28 0)
(-4.30311e-29 -8.95069e-29 0)
(-2.78005e-29 -6.45047e-29 0)
(-8.46646e-27 -6.80559e-26 0)
(-5.83104e-27 -7.1251e-28 0)
(8.86337e-28 -4.13915e-28 0)
(-8.08109e-28 -1.17955e-28 0)
(2.56959e-28 -1.1597e-28 0)
(-2.19447e-28 -7.57889e-29 0)
(1.77912e-28 -1.14913e-28 0)
(-1.26057e-28 -1.56996e-28 0)
(-1.00259e-28 -1.96498e-28 0)
(-3.09577e-28 -2.06362e-28 0)
(-2.85569e-28 -1.96711e-28 0)
(-3.5147e-28 -1.32642e-28 0)
(-2.6485e-28 -4.61335e-29 0)
(-1.69078e-28 -3.51412e-29 0)
(-7.57966e-29 -1.01712e-28 0)
(-4.92333e-29 -1.38509e-28 0)
(3.14361e-29 -1.35977e-28 0)
(1.05315e-28 -1.39902e-28 0)
(1.43236e-28 -1.46527e-28 0)
(1.31242e-28 -1.48075e-28 0)
(9.43924e-29 -1.6069e-28 0)
(4.30686e-29 -1.8379e-28 0)
(1.66218e-29 -2.02438e-28 0)
(4.65315e-31 -2.17092e-28 0)
(-1.76093e-29 -2.19357e-28 0)
(-6.028e-30 -2.12059e-28 0)
(2.67636e-29 -2.16232e-28 0)
(5.33482e-29 -2.25454e-28 0)
(6.63828e-29 -2.20231e-28 0)
(5.70948e-29 -1.90762e-28 0)
(6.38979e-29 -1.5946e-28 0)
(9.63034e-29 -1.78589e-28 0)
(9.08136e-29 -2.24262e-28 0)
(6.53105e-29 -2.30358e-28 0)
(5.77821e-29 -2.01413e-28 0)
(3.94788e-29 -1.62472e-28 0)
(2.44314e-29 -1.25961e-28 0)
(1.7404e-29 -1.3124e-28 0)
(-3.425e-29 -1.62468e-28 0)
(-8.60873e-29 -1.73353e-28 0)
(-1.06463e-28 -1.78542e-28 0)
(-1.14712e-28 -1.90694e-28 0)
(-8.19124e-29 -2.00501e-28 0)
(-1.65836e-30 -2.18828e-28 0)
(5.24534e-29 -2.39853e-28 0)
(5.63241e-29 -2.31463e-28 0)
(3.20924e-29 -1.85757e-28 0)
(2.36134e-29 -1.30349e-28 0)
(5.06096e-29 -1.17269e-28 0)
(6.93181e-29 -1.616e-28 0)
(2.63517e-29 -1.89248e-28 0)
(-2.41586e-29 -1.51934e-28 0)
(-3.10247e-29 -1.07227e-28 0)
(-4.05985e-29 -9.5275e-29 0)
(-6.33989e-29 -8.19031e-29 0)
(-3.18565e-29 -6.43365e-29 0)
(1.29679e-29 -7.33901e-29 0)
(2.34506e-30 -9.18902e-29 0)
(-5.0078e-29 -6.31433e-29 0)
(-3.24986e-29 -8.96778e-30 0)
(-9.70006e-27 -6.79149e-26 0)
(-6.72118e-27 -8.77697e-28 0)
(9.35745e-28 -4.91052e-28 0)
(-9.58909e-28 -9.79477e-29 0)
(2.89556e-28 -1.22024e-28 0)
(-2.6065e-28 -8.53612e-29 0)
(1.93878e-28 -1.49136e-28 0)
(-1.61325e-28 -2.07956e-28 0)
(-1.29863e-28 -2.6097e-28 0)
(-3.68878e-28 -2.69936e-28 0)
(-3.34634e-28 -2.53446e-28 0)
(-4.03647e-28 -1.70554e-28 0)
(-3.00635e-28 -5.99665e-29 0)
(-1.92772e-28 -4.15714e-29 0)
(-8.73771e-29 -1.19937e-28 0)
(-5.61306e-29 -1.67242e-28 0)
(3.73827e-29 -1.67779e-28 0)
(1.21989e-28 -1.74805e-28 0)
(1.66174e-28 -1.79201e-28 0)
(1.52758e-28 -1.7432e-28 0)
(1.10285e-28 -1.86018e-28 0)
(5.16698e-29 -2.11853e-28 0)
(2.21499e-29 -2.35368e-28 0)
(4.69225e-30 -2.54629e-28 0)
(-1.5877e-29 -2.56985e-28 0)
(-3.92401e-30 -2.47182e-28 0)
(3.18249e-29 -2.50775e-28 0)
(6.09512e-29 -2.61199e-28 0)
(7.6494e-29 -2.55143e-28 0)
(6.71635e-29 -2.18321e-28 0)
(7.36044e-29 -1.79613e-28 0)
(1.08122e-28 -2.00836e-28 0)
(1.02022e-28 -2.54975e-28 0)
(7.54049e-29 -2.60608e-28 0)
(6.89336e-29 -2.26748e-28 0)
(4.86574e-29 -1.80233e-28 0)
(3.03305e-29 -1.39712e-28 0)
(1.99308e-29 -1.48577e-28 0)
(-4.05645e-29 -1.88591e-28 0)
(-9.95762e-29 -2.04931e-28 0)
(-1.22752e-28 -2.10454e-28 0)
(-1.32905e-28 -2.24821e-28 0)
(-9.64231e-29 -2.34139e-28 0)
(-4.51974e-30 -2.52358e-28 0)
(5.92825e-29 -2.74037e-28 0)
(6.66231e-29 -2.60836e-28 0)
(4.04918e-29 -2.08532e-28 0)
(2.92633e-29 -1.49125e-28 0)
(5.70552e-29 -1.43728e-28 0)
(7.73862e-29 -2.09117e-28 0)
(2.9741e-29 -2.52708e-28 0)
(-2.68275e-29 -2.11456e-28 0)
(-3.52698e-29 -1.52823e-28 0)
(-4.64701e-29 -1.23283e-28 0)
(-7.24074e-29 -9.00881e-29 0)
(-3.73473e-29 -5.2037e-29 0)
(1.22772e-29 -5.09156e-29 0)
(1.22967e-30 -6.24272e-29 0)
(-5.55788e-29 -2.08141e-29 0)
(-3.50203e-29 5.77336e-29 0)
(-1.08564e-26 -6.75626e-26 0)
(-7.57438e-27 -1.0263e-27 0)
(9.52655e-28 -5.34962e-28 0)
(-1.11123e-27 -2.81534e-29 0)
(3.1599e-28 -7.41481e-29 0)
(-3.03537e-28 -3.21964e-29 0)
(2.04777e-28 -1.21405e-28 0)
(-1.99155e-28 -1.98259e-28 0)
(-1.60987e-28 -2.68623e-28 0)
(-4.27009e-28 -2.83883e-28 0)
(-3.81637e-28 -2.68514e-28 0)
(-4.52852e-28 -1.68259e-28 0)
(-3.34609e-28 -3.51645e-29 0)
(-2.16154e-28 -7.49121e-30 0)
(-9.94158e-29 -9.59622e-29 0)
(-6.32252e-29 -1.52742e-28 0)
(4.28803e-29 -1.58236e-28 0)
(1.38047e-28 -1.65553e-28 0)
(1.8851e-28 -1.67697e-28 0)
(1.73918e-28 -1.57464e-28 0)
(1.26215e-28 -1.64754e-28 0)
(6.06962e-29 -1.93905e-28 0)
(2.82201e-29 -2.23008e-28 0)
(9.26428e-30 -2.46458e-28 0)
(-1.35342e-29 -2.49187e-28 0)
(-1.26052e-30 -2.33179e-28 0)
(3.65251e-29 -2.33572e-28 0)
(6.80235e-29 -2.4535e-28 0)
(8.63738e-29 -2.3866e-28 0)
(7.69526e-29 -1.95509e-28 0)
(8.28964e-29 -1.47565e-28 0)
(1.19201e-28 -1.69986e-28 0)
(1.12532e-28 -2.31715e-28 0)
(8.52133e-29 -2.38591e-28 0)
(8.00079e-29 -1.98699e-28 0)
(5.80945e-29 -1.48633e-28 0)
(3.63999e-29 -1.0573e-28 0)
(2.23195e-29 -1.21662e-28 0)
(-4.67428e-29 -1.71999e-28 0)
(-1.12538e-28 -1.91255e-28 0)
(-1.38489e-28 -1.97916e-28 0)
(-1.50554e-28 -2.12492e-28 0)
(-1.1046e-28 -2.2106e-28 0)
(-7.59064e-30 -2.37377e-28 0)
(6.55523e-29 -2.5729e-28 0)
(7.66337e-29 -2.41199e-28 0)
(4.89551e-29 -1.84587e-28 0)
(3.51183e-29 -1.24068e-28 0)
(6.29705e-29 -1.28907e-28 0)
(8.42111e-29 -2.13389e-28 0)
(3.27193e-29 -2.66785e-28 0)
(-2.88276e-29 -2.15337e-28 0)
(-3.87216e-29 -1.35378e-28 0)
(-5.14304e-29 -8.66957e-29 0)
(-8.02582e-29 -3.48194e-29 0)
(-4.25377e-29 1.55087e-29 0)
(1.11721e-29 2.0545e-29 0)
(1.03191e-31 8.31348e-30 0)
(-6.08941e-29 5.07283e-29 0)
(-3.84491e-29 1.44535e-28 0)
(-1.19337e-26 -6.71108e-26 0)
(-8.38937e-27 -1.15389e-27 0)
(9.37404e-28 -5.38383e-28 0)
(-1.26461e-27 1.07447e-28 0)
(3.36163e-28 4.67464e-29 0)
(-3.48221e-28 1.02818e-28 0)
(2.11041e-28 -3.52748e-30 0)
(-2.39084e-28 -9.28452e-29 0)
(-1.93503e-28 -1.82198e-28 0)
(-4.83892e-28 -2.08358e-28 0)
(-4.26773e-28 -2.0156e-28 0)
(-4.9963e-28 -9.58753e-29 0)
(-3.67285e-28 5.55674e-29 0)
(-2.39499e-28 9.15057e-29 0)
(-1.1211e-28 -5.10006e-30 0)
(-7.06387e-29 -6.96173e-29 0)
(4.80663e-29 -7.63135e-29 0)
(1.53438e-28 -8.62748e-29 0)
(2.10111e-28 -8.51598e-29 0)
(1.94841e-28 -6.78981e-29 0)
(1.42209e-28 -7.3352e-29 0)
(7.00022e-29 -1.04135e-28 0)
(3.45625e-29 -1.38109e-28 0)
(1.42623e-29 -1.66023e-28 0)
(-1.07844e-29 -1.65157e-28 0)
(1.48635e-30 -1.42498e-28 0)
(4.1288e-29 -1.37442e-28 0)
(7.4805e-29 -1.48923e-28 0)
(9.56899e-29 -1.43397e-28 0)
(8.66144e-29 -9.30356e-29 0)
(9.2025e-29 -3.5483e-29 0)
(1.2968e-28 -5.86815e-29 0)
(1.225e-28 -1.2791e-28 0)
(9.47906e-29 -1.36264e-28 0)
(9.10195e-29 -9.35041e-29 0)
(6.74784e-29 -3.99094e-29 0)
(4.24217e-29 4.47324e-31 0)
(2.45731e-29 -2.36701e-29 0)
(-5.26668e-29 -8.42967e-29 0)
(-1.25112e-28 -1.07583e-28 0)
(-1.538e-28 -1.1211e-28 0)
(-1.6748e-28 -1.25447e-28 0)
(-1.23983e-28 -1.31301e-28 0)
(-1.06819e-29 -1.45595e-28 0)
(7.13172e-29 -1.65405e-28 0)
(8.61419e-29 -1.49167e-28 0)
(5.74414e-29 -9.1056e-29 0)
(4.09349e-29 -3.01377e-29 0)
(6.8429e-29 -3.98288e-29 0)
(9.04704e-29 -1.35195e-28 0)
(3.54615e-29 -1.89872e-28 0)
(-3.02283e-29 -1.21715e-28 0)
(-4.10497e-29 -2.1093e-29 0)
(-5.53645e-29 4.3729e-29 0)
(-8.74647e-29 1.04146e-28 0)
(-4.76048e-29 1.56733e-28 0)
(9.55054e-30 1.5283e-28 0)
(-1.84372e-30 1.27026e-28 0)
(-6.55858e-29 1.58958e-28 0)
(-4.02704e-29 2.5777e-28 0)
(-1.29315e-26 -6.65867e-26 0)
(-9.16425e-27 -1.29065e-27 0)
(8.91894e-28 -5.22828e-28 0)
(-1.41899e-27 2.88679e-28 0)
(3.49857e-28 2.19045e-28 0)
(-3.94293e-28 3.03614e-28 0)
(2.13245e-28 1.89218e-28 0)
(-2.8058e-28 9.96187e-29 0)
(-2.27039e-28 6.98152e-32 0)
(-5.39567e-28 -3.66702e-29 0)
(-4.70594e-28 -4.82188e-29 0)
(-5.44682e-28 5.37033e-29 0)
(-3.9922e-28 2.10134e-28 0)
(-2.63109e-28 2.49746e-28 0)
(-1.25409e-28 1.46859e-28 0)
(-7.82083e-29 7.96266e-29 0)
(5.27568e-29 7.20162e-29 0)
(1.68151e-28 6.35233e-29 0)
(2.31173e-28 6.61418e-29 0)
(2.15301e-28 8.78679e-29 0)
(1.58089e-28 8.58762e-29 0)
(7.96309e-29 5.28003e-29 0)
(4.1192e-29 1.50616e-29 0)
(1.93303e-29 -1.4149e-29 0)
(-7.71285e-30 -1.02813e-29 0)
(4.60257e-30 2.35663e-29 0)
(4.5835e-29 3.48608e-29 0)
(8.12963e-29 2.2294e-29 0)
(1.04927e-28 2.76952e-29 0)
(9.60292e-29 8.41368e-29 0)
(1.00862e-28 1.5117e-28 0)
(1.39844e-28 1.28383e-28 0)
(1.3219e-28 5.08785e-29 0)
(1.041e-28 4.04508e-29 0)
(1.01729e-28 8.55835e-29 0)
(7.67215e-29 1.38777e-28 0)
(4.82311e-29 1.76228e-28 0)
(2.6626e-29 1.40778e-28 0)
(-5.85193e-29 6.88679e-29 0)
(-1.37189e-28 4.38716e-29 0)
(-1.68515e-28 4.29618e-29 0)
(-1.83802e-28 3.33513e-29 0)
(-1.36824e-28 3.19372e-29 0)
(-1.3785e-29 1.96401e-29 0)
(7.65356e-29 -3.90433e-30 0)
(9.50694e-29 8.06034e-30 0)
(6.55932e-29 6.4794e-29 0)
(4.70039e-29 1.3068e-28 0)
(7.39879e-29 1.25812e-28 0)
(9.62892e-29 3.27344e-29 0)
(3.83841e-29 -1.4787e-29 0)
(-3.0791e-29 7.00546e-29 0)
(-4.2634e-29 1.85358e-28 0)
(-5.87314e-29 2.52896e-28 0)
(-9.41646e-29 3.09864e-28 0)
(-5.30693e-29 3.50581e-28 0)
(6.88524e-30 3.24132e-28 0)
(-4.4977e-30 2.7471e-28 0)
(-7.10816e-29 2.86057e-28 0)
(-4.32186e-29 3.65507e-28 0)
(-1.38504e-26 -6.60634e-26 0)
(-9.89773e-27 -1.45377e-27 0)
(8.17109e-28 -5.33482e-28 0)
(-1.57387e-27 4.60256e-28 0)
(3.57348e-28 3.91401e-28 0)
(-4.41466e-28 5.1325e-28 0)
(2.12091e-28 4.03106e-28 0)
(-3.22696e-28 3.29052e-28 0)
(-2.6116e-28 2.31638e-28 0)
(-5.94185e-28 1.92814e-28 0)
(-5.13472e-28 1.62906e-28 0)
(-5.88736e-28 2.48307e-28 0)
(-4.31174e-28 3.99145e-28 0)
(-2.87176e-28 4.34142e-28 0)
(-1.39244e-28 3.24114e-28 0)
(-8.59823e-29 2.56361e-28 0)
(5.72483e-29 2.53673e-28 0)
(1.82251e-28 2.45114e-28 0)
(2.51232e-28 2.49893e-28 0)
(2.35362e-28 2.75285e-28 0)
(1.73899e-28 2.74625e-28 0)
(8.93184e-29 2.40814e-28 0)
(4.80023e-29 2.01187e-28 0)
(2.46245e-29 1.71011e-28 0)
(-4.44033e-30 1.8233e-28 0)
(7.78698e-30 2.26171e-28 0)
(5.05056e-29 2.4486e-28 0)
(8.77219e-29 2.3188e-28 0)
(1.13753e-28 2.3418e-28 0)
(1.05303e-28 2.95871e-28 0)
(1.09678e-28 3.73086e-28 0)
(1.49714e-28 3.49758e-28 0)
(1.41597e-28 2.65313e-28 0)
(1.13251e-28 2.51721e-28 0)
(1.121e-28 2.98635e-28 0)
(8.55239e-29 3.51102e-28 0)
(5.36777e-29 3.82133e-28 0)
(2.82984e-29 3.35117e-28 0)
(-6.41171e-29 2.5171e-28 0)
(-1.48829e-28 2.2562e-28 0)
(-1.82718e-28 2.30026e-28 0)
(-1.99245e-28 2.27474e-28 0)
(-1.49009e-28 2.31522e-28 0)
(-1.68521e-29 2.19381e-28 0)
(8.10693e-29 1.8914e-28 0)
(1.03121e-28 1.92333e-28 0)
(7.36371e-29 2.48646e-28 0)
(5.34351e-29 3.25397e-28 0)
(8.00239e-29 3.37578e-28 0)
(1.02563e-28 2.56908e-28 0)
(4.14459e-29 2.20901e-28 0)
(-3.10167e-29 3.16038e-28 0)
(-4.37492e-29 4.31901e-28 0)
(-6.19105e-29 4.88467e-28 0)
(-1.01163e-28 5.26794e-28 0)
(-5.93524e-29 5.43633e-28 0)
(3.07143e-30 4.86587e-28 0)
(-8.63933e-30 4.04047e-28 0)
(-7.73833e-29 3.89523e-28 0)
(-4.60806e-29 4.49326e-28 0)
(-1.46854e-26 -6.55398e-26 0)
(-1.05867e-26 -1.70938e-27 0)
(7.13773e-28 -6.22148e-28 0)
(-1.72938e-27 5.66715e-28 0)
(3.58514e-28 4.91736e-28 0)
(-4.89265e-28 6.58563e-28 0)
(2.0842e-28 5.58534e-28 0)
(-3.64766e-28 5.12982e-28 0)
(-2.95217e-28 4.34264e-28 0)
(-6.47272e-28 4.06757e-28 0)
(-5.55847e-28 3.63903e-28 0)
(-6.32473e-28 4.33278e-28 0)
(-4.63545e-28 5.69159e-28 0)
(-3.12092e-28 5.92426e-28 0)
(-1.53691e-28 4.71056e-28 0)
(-9.36034e-29 4.03569e-28 0)
(6.1366e-29 4.04762e-28 0)
(1.9556e-28 3.99618e-28 0)
(2.70633e-28 4.05082e-28 0)
(2.54663e-28 4.33159e-28 0)
(1.89342e-28 4.34055e-28 0)
(9.9229e-29 4.00343e-28 0)
(5.497e-29 3.59974e-28 0)
(2.99399e-29 3.31448e-28 0)
(-9.5292e-31 3.48716e-28 0)
(1.12255e-29 4.05763e-28 0)
(5.51141e-29 4.30688e-28 0)
(9.39844e-29 4.14326e-28 0)
(1.22528e-28 4.12408e-28 0)
(1.14375e-28 4.78354e-28 0)
(1.18262e-28 5.63572e-28 0)
(1.59486e-28 5.41202e-28 0)
(1.50957e-28 4.49011e-28 0)
(1.22135e-28 4.34196e-28 0)
(1.22011e-28 4.81938e-28 0)
(9.38079e-29 5.33378e-28 0)
(5.85668e-29 5.58286e-28 0)
(2.96305e-29 4.98191e-28 0)
(-6.97383e-29 4.04164e-28 0)
(-1.59933e-28 3.77584e-28 0)
(-1.96109e-28 3.89914e-28 0)
(-2.139e-28 3.93818e-28 0)
(-1.60478e-28 4.04147e-28 0)
(-1.99965e-29 3.91616e-28 0)
(8.48458e-29 3.52294e-28 0)
(1.10379e-28 3.47478e-28 0)
(8.14329e-29 4.05775e-28 0)
(6.07418e-29 5.00066e-28 0)
(8.7095e-29 5.3551e-28 0)
(1.09085e-28 4.71491e-28 0)
(4.46991e-29 4.41294e-28 0)
(-3.12098e-29 5.36325e-28 0)
(-4.51789e-29 6.38597e-28 0)
(-6.55883e-29 6.69679e-28 0)
(-1.08665e-28 6.80623e-28 0)
(-6.67522e-29 6.69546e-28 0)
(-2.32548e-30 5.77738e-28 0)
(-1.39679e-29 4.65006e-28 0)
(-8.4822e-29 4.32017e-28 0)
(-4.9559e-29 4.59254e-28 0)
(-1.54424e-26 -6.50471e-26 0)
(-1.12324e-26 -2.07494e-27 0)
(5.83622e-28 -8.37185e-28 0)
(-1.88579e-27 5.50201e-28 0)
(3.53066e-28 4.64503e-28 0)
(-5.37619e-28 6.69639e-28 0)
(2.02516e-28 5.7932e-28 0)
(-4.05866e-28 5.69946e-28 0)
(-3.28497e-28 5.19367e-28 0)
(-6.98688e-28 5.18391e-28 0)
(-5.97355e-28 4.76982e-28 0)
(-6.75944e-28 5.38224e-28 0)
(-4.96878e-28 6.61672e-28 0)
(-3.38027e-28 6.69536e-28 0)
(-1.68806e-28 5.32085e-28 0)
(-1.01441e-28 4.58919e-28 0)
(6.53658e-29 4.63037e-28 0)
(2.08257e-28 4.59164e-28 0)
(2.88733e-28 4.6667e-28 0)
(2.73338e-28 4.97153e-28 0)
(2.04527e-28 5.0041e-28 0)
(1.09022e-28 4.6755e-28 0)
(6.20936e-29 4.27949e-28 0)
(3.53815e-29 4.00596e-28 0)
(2.65192e-30 4.26345e-28 0)
(1.47634e-29 4.93544e-28 0)
(5.98042e-29 5.23938e-28 0)
(1.00212e-28 5.0267e-28 0)
(1.30936e-28 4.9368e-28 0)
(1.23249e-28 5.60452e-28 0)
(1.26869e-28 6.54644e-28 0)
(1.69095e-28 6.31926e-28 0)
(1.60197e-28 5.33803e-28 0)
(1.30937e-28 5.1676e-28 0)
(1.314e-28 5.68339e-28 0)
(1.01418e-28 6.18689e-28 0)
(6.28333e-29 6.37619e-28 0)
(3.0384e-29 5.6632e-28 0)
(-7.51454e-29 4.62091e-28 0)
(-1.70495e-28 4.36827e-28 0)
(-2.08854e-28 4.55237e-28 0)
(-2.27603e-28 4.66962e-28 0)
(-1.71239e-28 4.81725e-28 0)
(-2.31496e-29 4.68999e-28 0)
(8.79037e-29 4.23656e-28 0)
(1.16803e-28 4.1471e-28 0)
(8.93817e-29 4.80095e-28 0)
(6.88486e-29 5.93485e-28 0)
(9.50912e-29 6.49772e-28 0)
(1.16136e-28 5.93596e-28 0)
(4.74892e-29 5.60552e-28 0)
(-3.2085e-29 6.41712e-28 0)
(-4.72951e-29 7.2056e-28 0)
(-6.99756e-29 7.20927e-28 0)
(-1.16965e-28 7.0369e-28 0)
(-7.52694e-29 6.66799e-28 0)
(-8.79643e-30 5.50539e-28 0)
(-2.0317e-29 4.14496e-28 0)
(-9.33833e-29 3.76058e-28 0)
(-5.42789e-29 3.92116e-28 0)
(-1.61162e-26 -6.46057e-26 0)
(-1.18325e-26 -2.56209e-27 0)
(4.25879e-28 -1.1851e-27 0)
(-2.0435e-27 3.92224e-28 0)
(3.40444e-28 2.75919e-28 0)
(-5.86897e-28 5.12814e-28 0)
(1.94703e-28 4.22716e-28 0)
(-4.45949e-28 4.45441e-28 0)
(-3.60615e-28 4.27228e-28 0)
(-7.47473e-28 4.62703e-28 0)
(-6.3772e-28 4.38204e-28 0)
(-7.18925e-28 5.07642e-28 0)
(-5.30781e-28 6.30227e-28 0)
(-3.65199e-28 6.26561e-28 0)
(-1.84967e-28 4.69496e-28 0)
(-1.09372e-28 3.84886e-28 0)
(6.88158e-29 3.84207e-28 0)
(2.19995e-28 3.79489e-28 0)
(3.0606e-28 3.88511e-28 0)
(2.91034e-28 4.22937e-28 0)
(2.19146e-28 4.2878e-28 0)
(1.18919e-28 3.98611e-28 0)
(6.92685e-29 3.60058e-28 0)
(4.08387e-29 3.34857e-28 0)
(6.38818e-30 3.65936e-28 0)
(1.84102e-29 4.44014e-28 0)
(6.44531e-29 4.76831e-28 0)
(1.06248e-28 4.47561e-28 0)
(1.39163e-28 4.28383e-28 0)
(1.31889e-28 4.96244e-28 0)
(1.35262e-28 5.95818e-28 0)
(1.78665e-28 5.73577e-28 0)
(1.69471e-28 4.69464e-28 0)
(1.39539e-28 4.53135e-28 0)
(1.40316e-28 5.0748e-28 0)
(1.08285e-28 5.60067e-28 0)
(6.64072e-29 5.75033e-28 0)
(3.07188e-29 4.93835e-28 0)
(-8.06173e-29 3.82033e-28 0)
(-1.80515e-28 3.57246e-28 0)
(-2.20685e-28 3.82221e-28 0)
(-2.40462e-28 3.9791e-28 0)
(-1.81321e-28 4.17789e-28 0)
(-2.62153e-29 4.06936e-28 0)
(9.04942e-29 3.61923e-28 0)
(1.22748e-28 3.56212e-28 0)
(9.7263e-29 4.31236e-28 0)
(7.77561e-29 5.58084e-28 0)
(1.03653e-28 6.22108e-28 0)
(1.22727e-28 5.60223e-28 0)
(4.95773e-29 5.09307e-28 0)
(-3.39463e-29 5.71475e-28 0)
(-5.03915e-29 6.2376e-28 0)
(-7.51084e-29 5.96914e-28 0)
(-1.25679e-28 5.5861e-28 0)
(-8.43446e-29 5.10549e-28 0)
(-1.60751e-29 3.83129e-28 0)
(-2.69503e-29 2.42978e-28 0)
(-1.0162e-28 2.19304e-28 0)
(-5.79198e-29 2.30487e-28 0)
(-1.67108e-26 -6.41419e-26 0)
(-1.2388e-26 -3.16343e-27 0)
(2.42317e-28 -1.65443e-27 0)
(-2.204e-27 1.11785e-28 0)
(3.19695e-28 -5.15741e-29 0)
(-6.37448e-28 1.99422e-28 0)
(1.84228e-28 9.51522e-29 0)
(-4.84887e-28 1.42672e-28 0)
(-3.91305e-28 1.49954e-28 0)
(-7.93651e-28 2.24667e-28 0)
(-6.76014e-28 2.27148e-28 0)
(-7.60535e-28 3.22586e-28 0)
(-5.64981e-28 4.59013e-28 0)
(-3.93336e-28 4.55463e-28 0)
(-2.02167e-28 2.81739e-28 0)
(-1.18117e-28 1.79865e-28 0)
(7.16869e-29 1.67558e-28 0)
(2.30884e-28 1.56931e-28 0)
(3.21884e-28 1.65126e-28 0)
(3.07957e-28 2.03285e-28 0)
(2.33362e-28 2.14297e-28 0)
(1.28561e-28 1.87478e-28 0)
(7.65463e-29 1.50732e-28 0)
(4.62885e-29 1.25729e-28 0)
(1.01317e-29 1.62556e-28 0)
(2.21157e-29 2.47064e-28 0)
(6.90405e-29 2.80405e-28 0)
(1.12107e-28 2.40498e-28 0)
(1.46982e-28 2.1023e-28 0)
(1.40257e-28 2.74534e-28 0)
(1.43586e-28 3.8079e-28 0)
(1.88067e-28 3.58087e-28 0)
(1.78716e-28 2.4852e-28 0)
(1.48104e-28 2.32314e-28 0)
(1.48664e-28 2.9353e-28 0)
(1.14495e-28 3.48989e-28 0)
(6.92861e-29 3.6311e-28 0)
(3.04409e-29 2.75728e-28 0)
(-8.59027e-29 1.57697e-28 0)
(-1.89974e-28 1.33907e-28 0)
(-2.31896e-28 1.61991e-28 0)
(-2.52399e-28 1.81144e-28 0)
(-1.90534e-28 2.05642e-28 0)
(-2.89165e-29 2.0298e-28 0)
(9.29426e-29 1.65199e-28 0)
(1.28224e-28 1.68321e-28 0)
(1.05113e-28 2.50196e-28 0)
(8.65757e-29 3.78377e-28 0)
(1.11925e-28 4.32432e-28 0)
(1.28603e-28 3.4844e-28 0)
(5.02963e-29 2.74286e-28 0)
(-3.68973e-29 3.14392e-28 0)
(-5.41995e-29 3.48314e-28 0)
(-8.04713e-29 3.03628e-28 0)
(-1.34195e-28 2.60082e-28 0)
(-9.32713e-29 2.1608e-28 0)
(-2.29155e-29 9.93448e-29 0)
(-3.27855e-29 -2.98961e-29 0)
(-1.09832e-28 -2.21597e-29 0)
(-6.34905e-29 1.67964e-29 0)
(-1.72288e-26 -6.36789e-26 0)
(-1.29001e-26 -3.80925e-27 0)
(3.27792e-29 -2.18668e-27 0)
(-2.36718e-27 -2.38207e-28 0)
(2.89849e-28 -4.62133e-28 0)
(-6.90515e-28 -2.07365e-28 0)
(1.70946e-28 -3.40099e-28 0)
(-5.23414e-28 -2.81981e-28 0)
(-4.21026e-28 -2.58941e-28 0)
(-8.36691e-28 -1.50465e-28 0)
(-7.12004e-28 -1.18647e-28 0)
(-8.00165e-28 9.23554e-30 0)
(-5.98417e-28 1.75207e-28 0)
(-4.21974e-28 1.84456e-28 0)
(-2.20535e-28 3.23646e-30 0)
(-1.27517e-28 -1.14092e-28 0)
(7.3382e-29 -1.4286e-28 0)
(2.40295e-28 -1.66983e-28 0)
(3.36633e-28 -1.62191e-28 0)
(3.23752e-28 -1.21393e-28 0)
(2.46904e-28 -1.06008e-28 0)
(1.38196e-28 -1.27463e-28 0)
(8.37225e-29 -1.62353e-28 0)
(5.16844e-29 -1.87255e-28 0)
(1.38739e-29 -1.48867e-28 0)
(2.57315e-29 -5.89658e-29 0)
(7.34942e-29 -2.85328e-29 0)
(1.177e-28 -8.08923e-29 0)
(1.54445e-28 -1.25441e-28 0)
(1.48298e-28 -6.25598e-29 0)
(1.51705e-28 4.68513e-29 0)
(1.9733e-28 2.3425e-29 0)
(1.87906e-28 -9.06306e-29 0)
(1.56551e-28 -1.05359e-28 0)
(1.56622e-28 -3.80659e-29 0)
(1.19922e-28 2.43606e-29 0)
(7.15726e-29 4.07199e-29 0)
(2.97913e-29 -4.96897e-29 0)
(-9.12934e-29 -1.71901e-28 0)
(-1.98982e-28 -1.95684e-28 0)
(-2.42203e-28 -1.66014e-28 0)
(-2.63418e-28 -1.44539e-28 0)
(-1.98766e-28 -1.11401e-28 0)
(-3.09278e-29 -1.018e-28 0)
(9.54627e-29 -1.25915e-28 0)
(1.33304e-28 -1.14755e-28 0)
(1.12151e-28 -3.41142e-29 0)
(9.47814e-29 7.93921e-29 0)
(1.19103e-28 1.09086e-28 0)
(1.32914e-28 -4.33047e-30 0)
(4.9895e-29 -1.03068e-28 0)
(-4.06528e-29 -7.42962e-29 0)
(-5.82282e-29 -5.05026e-29 0)
(-8.54121e-29 -9.76119e-29 0)
(-1.41621e-28 -1.33301e-28 0)
(-1.00965e-28 -1.54632e-28 0)
(-2.88143e-29 -2.4591e-28 0)
(-3.73469e-29 -3.48023e-28 0)
(-1.15267e-28 -2.96906e-28 0)
(-6.54519e-29 -2.23213e-28 0)
(-1.76655e-26 -6.31124e-26 0)
(-1.33661e-26 -4.47019e-27 0)
(-2.01441e-28 -2.71575e-27 0)
(-2.53479e-27 -5.78359e-28 0)
(2.50323e-28 -8.70171e-28 0)
(-7.46213e-28 -6.1694e-28 0)
(1.53555e-28 -7.89039e-28 0)
(-5.61967e-28 -7.28428e-28 0)
(-4.50038e-28 -7.01903e-28 0)
(-8.77345e-28 -5.70617e-28 0)
(-7.45466e-28 -5.19036e-28 0)
(-8.37205e-28 -3.5814e-28 0)
(-6.30592e-28 -1.61333e-28 0)
(-4.5042e-28 -1.26479e-28 0)
(-2.39403e-28 -3.02547e-28 0)
(-1.37938e-28 -4.27505e-28 0)
(7.38224e-29 -4.73367e-28 0)
(2.48212e-28 -5.12063e-28 0)
(3.4944e-28 -5.18341e-28 0)
(3.38458e-28 -4.78584e-28 0)
(2.59886e-28 -4.58219e-28 0)
(1.47484e-28 -4.74691e-28 0)
(9.09381e-29 -5.0738e-28 0)
(5.68884e-29 -5.33924e-28 0)
(1.74568e-29 -4.94658e-28 0)
(2.93134e-29 -4.03457e-28 0)
(7.77354e-29 -3.78041e-28 0)
(1.22933e-28 -4.44771e-28 0)
(1.61485e-28 -5.02369e-28 0)
(1.56055e-28 -4.44771e-28 0)
(1.59556e-28 -3.30541e-28 0)
(2.06325e-28 -3.54562e-28 0)
(1.97045e-28 -4.74391e-28 0)
(1.64893e-28 -4.87338e-28 0)
(1.64029e-28 -4.11776e-28 0)
(1.24856e-28 -3.41414e-28 0)
(7.32608e-29 -3.19131e-28 0)
(2.85761e-29 -4.09718e-28 0)
(-9.65335e-29 -5.34079e-28 0)
(-2.07479e-28 -5.58649e-28 0)
(-2.51876e-28 -5.27929e-28 0)
(-2.73243e-28 -5.02922e-28 0)
(-2.05675e-28 -4.58006e-28 0)
(-3.20713e-29 -4.31071e-28 0)
(9.80868e-29 -4.43147e-28 0)
(1.37447e-28 -4.29943e-28 0)
(1.17966e-28 -3.63238e-28 0)
(1.01323e-28 -2.74854e-28 0)
(1.24785e-28 -2.76677e-28 0)
(1.35954e-28 -4.15736e-28 0)
(4.8466e-29 -5.27204e-28 0)
(-4.46403e-29 -5.01171e-28 0)
(-6.18644e-29 -4.7258e-28 0)
(-8.91642e-29 -5.13801e-28 0)
(-1.47204e-28 -5.2903e-28 0)