/*--------------------------------*- C++ -*----------------------------------*\
| =========                 |                                                 |
| \\      /  F ield         | foam-extend: Open Source CFD                    |
|  \\    /   O peration     | Version:     4.0                                |
|   \\  /    A nd           | Web:         http://www.foam-extend.org         |
|    \\/     M anipulation  |                                                 |
\*---------------------------------------------------------------------------*/
FoamFile
{
    version     2.0;
    format      ascii;
    class       volScalarField;
    location    "1990";
    object      cMinus;
}
// * * * * * * * * * * * * * * * * * * * * * * * * * * * * * * * * * * * * * //

dimensions      [0 0 0 0 0 0 0];

internalField   nonuniform List<scalar> 
6960
(
7.46158e-24
7.4622e-24
7.46239e-24
7.46249e-24
7.46258e-24
7.46265e-24
7.46273e-24
7.46281e-24
7.46289e-24
7.46297e-24
7.46305e-24
7.46313e-24
7.46322e-24
7.4633e-24
7.46337e-24
7.46345e-24
7.46352e-24
7.46359e-24
7.46366e-24
7.46372e-24
7.46377e-24
7.46382e-24
7.46387e-24
7.46391e-24
7.46394e-24
7.46397e-24
7.46399e-24
7.46401e-24
7.46402e-24
7.46403e-24
7.46403e-24
7.46402e-24
7.46401e-24
7.46399e-24
7.46397e-24
7.46394e-24
7.46391e-24
7.46387e-24
7.46382e-24
7.46377e-24
7.46372e-24
7.46366e-24
7.46359e-24
7.46352e-24
7.46345e-24
7.46337e-24
7.4633e-24
7.46322e-24
7.46313e-24
7.46305e-24
7.46297e-24
7.46289e-24
7.46281e-24
7.46273e-24
7.46265e-24
7.46258e-24
7.46249e-24
7.46239e-24
7.4622e-24
7.46158e-24
2.03907e-23
2.03924e-23
2.0393e-23
2.03933e-23
2.03936e-23
2.03939e-23
2.03942e-23
2.03945e-23
2.03948e-23
2.03951e-23
2.03954e-23
2.03956e-23
2.03959e-23
2.03962e-23
2.03965e-23
2.03967e-23
2.03969e-23
2.03972e-23
2.03974e-23
2.03976e-23
2.03978e-23
2.03979e-23
2.03981e-23
2.03982e-23
2.03983e-23
2.03984e-23
2.03985e-23
2.03985e-23
2.03986e-23
2.03986e-23
2.03986e-23
2.03986e-23
2.03985e-23
2.03985e-23
2.03984e-23
2.03983e-23
2.03982e-23
2.03981e-23
2.03979e-23
2.03978e-23
2.03976e-23
2.03974e-23
2.03972e-23
2.03969e-23
2.03967e-23
2.03965e-23
2.03962e-23
2.03959e-23
2.03956e-23
2.03954e-23
2.03951e-23
2.03948e-23
2.03945e-23
2.03942e-23
2.03939e-23
2.03936e-23
2.03933e-23
2.0393e-23
2.03924e-23
2.03907e-23
4.81867e-23
4.81909e-23
4.81925e-23
4.81936e-23
4.81946e-23
4.81955e-23
4.81964e-23
4.81973e-23
4.81982e-23
4.81991e-23
4.81999e-23
4.82008e-23
4.82016e-23
4.82024e-23
4.82032e-23
4.82039e-23
4.82046e-23
4.82052e-23
4.82058e-23
4.82064e-23
4.82069e-23
4.82074e-23
4.82078e-23
4.82082e-23
4.82085e-23
4.82087e-23
4.8209e-23
4.82091e-23
4.82092e-23
4.82093e-23
4.82093e-23
4.82092e-23
4.82091e-23
4.8209e-23
4.82087e-23
4.82085e-23
4.82082e-23
4.82078e-23
4.82074e-23
4.82069e-23
4.82064e-23
4.82058e-23
4.82052e-23
4.82046e-23
4.82039e-23
4.82032e-23
4.82024e-23
4.82016e-23
4.82008e-23
4.81999e-23
4.81991e-23
4.81982e-23
4.81973e-23
4.81964e-23
4.81955e-23
4.81946e-23
4.81936e-23
4.81925e-23
4.81909e-23
4.81867e-23
1.08285e-22
1.08295e-22
1.08299e-22
1.08302e-22
1.08305e-22
1.08308e-22
1.0831e-22
1.08313e-22
1.08316e-22
1.08318e-22
1.0832e-22
1.08323e-22
1.08325e-22
1.08327e-22
1.08329e-22
1.08331e-22
1.08333e-22
1.08335e-22
1.08337e-22
1.08338e-22
1.0834e-22
1.08341e-22
1.08342e-22
1.08343e-22
1.08344e-22
1.08344e-22
1.08345e-22
1.08345e-22
1.08346e-22
1.08346e-22
1.08346e-22
1.08346e-22
1.08345e-22
1.08345e-22
1.08344e-22
1.08344e-22
1.08343e-22
1.08342e-22
1.08341e-22
1.0834e-22
1.08338e-22
1.08337e-22
1.08335e-22
1.08333e-22
1.08331e-22
1.08329e-22
1.08327e-22
1.08325e-22
1.08323e-22
1.0832e-22
1.08318e-22
1.08316e-22
1.08313e-22
1.0831e-22
1.08308e-22
1.08305e-22
1.08302e-22
1.08299e-22
1.08295e-22
1.08285e-22
2.40355e-22
2.40378e-22
2.40389e-22
2.40398e-22
2.40405e-22
2.40413e-22
2.4042e-22
2.40427e-22
2.40434e-22
2.40441e-22
2.40448e-22
2.40454e-22
2.40461e-22
2.40466e-22
2.40472e-22
2.40477e-22
2.40482e-22
2.40487e-22
2.40491e-22
2.40495e-22
2.40499e-22
2.40502e-22
2.40505e-22
2.40508e-22
2.4051e-22
2.40512e-22
2.40513e-22
2.40514e-22
2.40515e-22
2.40515e-22
2.40515e-22
2.40515e-22
2.40514e-22
2.40513e-22
2.40512e-22
2.4051e-22
2.40508e-22
2.40505e-22
2.40502e-22
2.40499e-22
2.40495e-22
2.40491e-22
2.40487e-22
2.40482e-22
2.40477e-22
2.40472e-22
2.40466e-22
2.40461e-22
2.40454e-22
2.40448e-22
2.40441e-22
2.40434e-22
2.40427e-22
2.4042e-22
2.40413e-22
2.40405e-22
2.40398e-22
2.40389e-22
2.40378e-22
2.40355e-22
5.36161e-22
5.36216e-22
5.36243e-22
5.36266e-22
5.36287e-22
5.36308e-22
5.36328e-22
5.36347e-22
5.36366e-22
5.36384e-22
5.36402e-22
5.36419e-22
5.36436e-22
5.36451e-22
5.36466e-22
5.3648e-22
5.36493e-22
5.36505e-22
5.36517e-22
5.36527e-22
5.36536e-22
5.36545e-22
5.36553e-22
5.36559e-22
5.36565e-22
5.3657e-22
5.36574e-22
5.36576e-22
5.36578e-22
5.36579e-22
5.36579e-22
5.36578e-22
5.36576e-22
5.36574e-22
5.3657e-22
5.36565e-22
5.36559e-22
5.36553e-22
5.36545e-22
5.36536e-22
5.36527e-22
5.36517e-22
5.36505e-22
5.36493e-22
5.3648e-22
5.36466e-22
5.36451e-22
5.36436e-22
5.36419e-22
5.36402e-22
5.36384e-22
5.36366e-22
5.36347e-22
5.36328e-22
5.36308e-22
5.36287e-22
5.36266e-22
5.36243e-22
5.36216e-22
5.36161e-22
1.21202e-21
1.21216e-21
1.21223e-21
1.21229e-21
1.21234e-21
1.2124e-21
1.21245e-21
1.2125e-21
1.21255e-21
1.2126e-21
1.21265e-21
1.2127e-21
1.21274e-21
1.21278e-21
1.21282e-21
1.21286e-21
1.21289e-21
1.21292e-21
1.21295e-21
1.21298e-21
1.213e-21
1.21303e-21
1.21305e-21
1.21306e-21
1.21308e-21
1.21309e-21
1.2131e-21
1.21311e-21
1.21311e-21
1.21311e-21
1.21311e-21
1.21311e-21
1.21311e-21
1.2131e-21
1.21309e-21
1.21308e-21
1.21306e-21
1.21305e-21
1.21303e-21
1.213e-21
1.21298e-21
1.21295e-21
1.21292e-21
1.21289e-21
1.21286e-21
1.21282e-21
1.21278e-21
1.21274e-21
1.2127e-21
1.21265e-21
1.2126e-21
1.21255e-21
1.2125e-21
1.21245e-21
1.2124e-21
1.21234e-21
1.21229e-21
1.21223e-21
1.21216e-21
1.21202e-21
2.78805e-21
2.78837e-21
2.78856e-21
2.78871e-21
2.78887e-21
2.78902e-21
2.78916e-21
2.7893e-21
2.78943e-21
2.78956e-21
2.78969e-21
2.78981e-21
2.78992e-21
2.79003e-21
2.79013e-21
2.79023e-21
2.79032e-21
2.7904e-21
2.79048e-21
2.79055e-21
2.79062e-21
2.79068e-21
2.79073e-21
2.79077e-21
2.79081e-21
2.79084e-21
2.79087e-21
2.79089e-21
2.7909e-21
2.79091e-21
2.79091e-21
2.7909e-21
2.79089e-21
2.79087e-21
2.79084e-21
2.79081e-21
2.79077e-21
2.79073e-21
2.79068e-21
2.79062e-21
2.79055e-21
2.79048e-21
2.7904e-21
2.79032e-21
2.79023e-21
2.79013e-21
2.79003e-21
2.78992e-21
2.78981e-21
2.78969e-21
2.78956e-21
2.78943e-21
2.7893e-21
2.78916e-21
2.78902e-21
2.78887e-21
2.78871e-21
2.78856e-21
2.78837e-21
2.78805e-21
6.54023e-21
6.54102e-21
6.5415e-21
6.54192e-21
6.54233e-21
6.54273e-21
6.54312e-21
6.54349e-21
6.54386e-21
6.5442e-21
6.54454e-21
6.54486e-21
6.54516e-21
6.54545e-21
6.54572e-21
6.54598e-21
6.54621e-21
6.54644e-21
6.54664e-21
6.54683e-21
6.547e-21
6.54715e-21
6.54729e-21
6.54741e-21
6.54751e-21
6.54759e-21
6.54766e-21
6.54771e-21
6.54775e-21
6.54776e-21
6.54776e-21
6.54775e-21
6.54771e-21
6.54766e-21
6.54759e-21
6.54751e-21
6.54741e-21
6.54729e-21
6.54715e-21
6.547e-21
6.54683e-21
6.54664e-21
6.54644e-21
6.54621e-21
6.54598e-21
6.54572e-21
6.54545e-21
6.54516e-21
6.54486e-21
6.54454e-21
6.5442e-21
6.54386e-21
6.54349e-21
6.54312e-21
6.54273e-21
6.54233e-21
6.54192e-21
6.5415e-21
6.54102e-21
6.54023e-21
1.56638e-20
1.56658e-20
1.5667e-20
1.56682e-20
1.56693e-20
1.56704e-20
1.56714e-20
1.56724e-20
1.56734e-20
1.56743e-20
1.56752e-20
1.56761e-20
1.56769e-20
1.56777e-20
1.56784e-20
1.56791e-20
1.56797e-20
1.56803e-20
1.56809e-20
1.56814e-20
1.56818e-20
1.56822e-20
1.56826e-20
1.56829e-20
1.56832e-20
1.56834e-20
1.56836e-20
1.56837e-20
1.56838e-20
1.56839e-20
1.56839e-20
1.56838e-20
1.56837e-20
1.56836e-20
1.56834e-20
1.56832e-20
1.56829e-20
1.56826e-20
1.56822e-20
1.56818e-20
1.56814e-20
1.56809e-20
1.56803e-20
1.56797e-20
1.56791e-20
1.56784e-20
1.56777e-20
1.56769e-20
1.56761e-20
1.56752e-20
1.56743e-20
1.56734e-20
1.56724e-20
1.56714e-20
1.56704e-20
1.56693e-20
1.56682e-20
1.5667e-20
1.56658e-20
1.56638e-20
3.83281e-20
3.83332e-20
3.83365e-20
3.83397e-20
3.83427e-20
3.83457e-20
3.83485e-20
3.83513e-20
3.8354e-20
3.83565e-20
3.8359e-20
3.83613e-20
3.83635e-20
3.83656e-20
3.83676e-20
3.83694e-20
3.83712e-20
3.83728e-20
3.83743e-20
3.83756e-20
3.83768e-20
3.83779e-20
3.83789e-20
3.83798e-20
3.83805e-20
3.83811e-20
3.83816e-20
3.8382e-20
3.83822e-20
3.83823e-20
3.83823e-20
3.83822e-20
3.8382e-20
3.83816e-20
3.83811e-20
3.83805e-20
3.83798e-20
3.83789e-20
3.83779e-20
3.83768e-20
3.83756e-20
3.83743e-20
3.83728e-20
3.83712e-20
3.83694e-20
3.83676e-20
3.83656e-20
3.83635e-20
3.83613e-20
3.8359e-20
3.83565e-20
3.8354e-20
3.83513e-20
3.83485e-20
3.83457e-20
3.83427e-20
3.83397e-20
3.83365e-20
3.83332e-20
3.83281e-20
9.58652e-20
9.58785e-20
9.58877e-20
9.58963e-20
9.59047e-20
9.59129e-20
9.59208e-20
9.59285e-20
9.59359e-20
9.5943e-20
9.59498e-20
9.59562e-20
9.59623e-20
9.59681e-20
9.59735e-20
9.59786e-20
9.59833e-20
9.59877e-20
9.59918e-20
9.59955e-20
9.59989e-20
9.60019e-20
9.60046e-20
9.60069e-20
9.60089e-20
9.60106e-20
9.60119e-20
9.60129e-20
9.60136e-20
9.60139e-20
9.60139e-20
9.60136e-20
9.60129e-20
9.60119e-20
9.60106e-20
9.60089e-20
9.60069e-20
9.60046e-20
9.60019e-20
9.59989e-20
9.59955e-20
9.59918e-20
9.59877e-20
9.59833e-20
9.59786e-20
9.59735e-20
9.59681e-20
9.59623e-20
9.59562e-20
9.59498e-20
9.5943e-20
9.59359e-20
9.59285e-20
9.59208e-20
9.59129e-20
9.59047e-20
9.58963e-20
9.58877e-20
9.58785e-20
9.58652e-20
2.45178e-19
2.45214e-19
2.45239e-19
2.45263e-19
2.45287e-19
2.4531e-19
2.45332e-19
2.45354e-19
2.45374e-19
2.45394e-19
2.45413e-19
2.45431e-19
2.45448e-19
2.45464e-19
2.4548e-19
2.45494e-19
2.45507e-19
2.45519e-19
2.45531e-19
2.45541e-19
2.4555e-19
2.45559e-19
2.45566e-19
2.45573e-19
2.45578e-19
2.45583e-19
2.45587e-19
2.45589e-19
2.45591e-19
2.45592e-19
2.45592e-19
2.45591e-19
2.45589e-19
2.45587e-19
2.45583e-19
2.45578e-19
2.45573e-19
2.45566e-19
2.45559e-19
2.4555e-19
2.45541e-19
2.45531e-19
2.45519e-19
2.45507e-19
2.45494e-19
2.4548e-19
2.45464e-19
2.45448e-19
2.45431e-19
2.45413e-19
2.45394e-19
2.45374e-19
2.45354e-19
2.45332e-19
2.4531e-19
2.45287e-19
2.45263e-19
2.45239e-19
2.45214e-19
2.45178e-19
6.41356e-19
6.41453e-19
6.41524e-19
6.41593e-19
6.41661e-19
6.41727e-19
6.4179e-19
6.41852e-19
6.41911e-19
6.41968e-19
6.42022e-19
6.42073e-19
6.42122e-19
6.42168e-19
6.42211e-19
6.42251e-19
6.42289e-19
6.42323e-19
6.42355e-19
6.42385e-19
6.42411e-19
6.42435e-19
6.42456e-19
6.42475e-19
6.42491e-19
6.42504e-19
6.42514e-19
6.42522e-19
6.42527e-19
6.4253e-19
6.4253e-19
6.42527e-19
6.42522e-19
6.42514e-19
6.42504e-19
6.42491e-19
6.42475e-19
6.42456e-19
6.42435e-19
6.42411e-19
6.42385e-19
6.42355e-19
6.42323e-19
6.42289e-19
6.42251e-19
6.42211e-19
6.42168e-19
6.42122e-19
6.42073e-19
6.42022e-19
6.41968e-19
6.41911e-19
6.41852e-19
6.4179e-19
6.41727e-19
6.41661e-19
6.41593e-19
6.41524e-19
6.41453e-19
6.41356e-19
1.71637e-18
1.71663e-18
1.71684e-18
1.71704e-18
1.71723e-18
1.71743e-18
1.71761e-18
1.71779e-18
1.71796e-18
1.71813e-18
1.71828e-18
1.71843e-18
1.71857e-18
1.71871e-18
1.71883e-18
1.71895e-18
1.71906e-18
1.71916e-18
1.71925e-18
1.71933e-18
1.71941e-18
1.71948e-18
1.71954e-18
1.71959e-18
1.71964e-18
1.71968e-18
1.71971e-18
1.71973e-18
1.71974e-18
1.71975e-18
1.71975e-18
1.71974e-18
1.71973e-18
1.71971e-18
1.71968e-18
1.71964e-18
1.71959e-18
1.71954e-18
1.71948e-18
1.71941e-18
1.71933e-18
1.71925e-18
1.71916e-18
1.71906e-18
1.71895e-18
1.71883e-18
1.71871e-18
1.71857e-18
1.71843e-18
1.71828e-18
1.71813e-18
1.71796e-18
1.71779e-18
1.71761e-18
1.71743e-18
1.71723e-18
1.71704e-18
1.71684e-18
1.71663e-18
1.71637e-18
4.69986e-18
4.70062e-18
4.70122e-18
4.70181e-18
4.70239e-18
4.70295e-18
4.7035e-18
4.70403e-18
4.70454e-18
4.70502e-18
4.70548e-18
4.70592e-18
4.70634e-18
4.70673e-18
4.7071e-18
4.70744e-18
4.70776e-18
4.70805e-18
4.70833e-18
4.70858e-18
4.7088e-18
4.709e-18
4.70918e-18
4.70934e-18
4.70947e-18
4.70958e-18
4.70967e-18
4.70974e-18
4.70978e-18
4.70981e-18
4.70981e-18
4.70978e-18
4.70974e-18
4.70967e-18
4.70958e-18
4.70947e-18
4.70934e-18
4.70918e-18
4.709e-18
4.7088e-18
4.70858e-18
4.70833e-18
4.70805e-18
4.70776e-18
4.70744e-18
4.7071e-18
4.70673e-18
4.70634e-18
4.70592e-18
4.70548e-18
4.70502e-18
4.70454e-18
4.70403e-18
4.7035e-18
4.70295e-18
4.70239e-18
4.70181e-18
4.70122e-18
4.70062e-18
4.69986e-18
1.31695e-17
1.31717e-17
1.31735e-17
1.31753e-17
1.3177e-17
1.31787e-17
1.31804e-17
1.3182e-17
1.31835e-17
1.31849e-17
1.31863e-17
1.31876e-17
1.31889e-17
1.31901e-17
1.31912e-17
1.31922e-17
1.31932e-17
1.3194e-17
1.31949e-17
1.31956e-17
1.31963e-17
1.31969e-17
1.31974e-17
1.31979e-17
1.31983e-17
1.31986e-17
1.31989e-17
1.31991e-17
1.31992e-17
1.31993e-17
1.31993e-17
1.31992e-17
1.31991e-17
1.31989e-17
1.31986e-17
1.31983e-17
1.31979e-17
1.31974e-17
1.31969e-17
1.31963e-17
1.31956e-17
1.31949e-17
1.3194e-17
1.31932e-17
1.31922e-17
1.31912e-17
1.31901e-17
1.31889e-17
1.31876e-17
1.31863e-17
1.31849e-17
1.31835e-17
1.3182e-17
1.31804e-17
1.31787e-17
1.3177e-17
1.31753e-17
1.31735e-17
1.31717e-17
1.31695e-17
3.77641e-17
3.77707e-17
3.77761e-17
3.77815e-17
3.77869e-17
3.77921e-17
3.77972e-17
3.78021e-17
3.78068e-17
3.78113e-17
3.78155e-17
3.78196e-17
3.78234e-17
3.7827e-17
3.78303e-17
3.78335e-17
3.78364e-17
3.78391e-17
3.78416e-17
3.78439e-17
3.7846e-17
3.78478e-17
3.78495e-17
3.78509e-17
3.78521e-17
3.78532e-17
3.7854e-17
3.78546e-17
3.7855e-17
3.78552e-17
3.78552e-17
3.7855e-17
3.78546e-17
3.7854e-17
3.78532e-17
3.78521e-17
3.78509e-17
3.78495e-17
3.78478e-17
3.7846e-17
3.78439e-17
3.78416e-17
3.78391e-17
3.78364e-17
3.78335e-17
3.78303e-17
3.7827e-17
3.78234e-17
3.78196e-17
3.78155e-17
3.78113e-17
3.78068e-17
3.78021e-17
3.77972e-17
3.77921e-17
3.77869e-17
3.77815e-17
3.77761e-17
3.77707e-17
3.77641e-17
1.10815e-16
1.10835e-16
1.10852e-16
1.10869e-16
1.10885e-16
1.10902e-16
1.10918e-16
1.10933e-16
1.10948e-16
1.10962e-16
1.10975e-16
1.10988e-16
1.10999e-16
1.11011e-16
1.11021e-16
1.11031e-16
1.1104e-16
1.11049e-16
1.11056e-16
1.11064e-16
1.1107e-16
1.11076e-16
1.11081e-16
1.11085e-16
1.11089e-16
1.11092e-16
1.11095e-16
1.11097e-16
1.11098e-16
1.11099e-16
1.11099e-16
1.11098e-16
1.11097e-16
1.11095e-16
1.11092e-16
1.11089e-16
1.11085e-16
1.11081e-16
1.11076e-16
1.1107e-16
1.11064e-16
1.11056e-16
1.11049e-16
1.1104e-16
1.11031e-16
1.11021e-16
1.11011e-16
1.10999e-16
1.10988e-16
1.10975e-16
1.10962e-16
1.10948e-16
1.10933e-16
1.10918e-16
1.10902e-16
1.10885e-16
1.10869e-16
1.10852e-16
1.10835e-16
1.10815e-16
3.32712e-16
3.32773e-16
3.32826e-16
3.3288e-16
3.32934e-16
3.32986e-16
3.33037e-16
3.33086e-16
3.33133e-16
3.33177e-16
3.3322e-16
3.3326e-16
3.33298e-16
3.33334e-16
3.33367e-16
3.33398e-16
3.33428e-16
3.33455e-16
3.33479e-16
3.33502e-16
3.33522e-16
3.33541e-16
3.33557e-16
3.33571e-16
3.33583e-16
3.33593e-16
3.33602e-16
3.33608e-16
3.33612e-16
3.33614e-16
3.33614e-16
3.33612e-16
3.33608e-16
3.33602e-16
3.33593e-16
3.33583e-16
3.33571e-16
3.33557e-16
3.33541e-16
3.33522e-16
3.33502e-16
3.33479e-16
3.33455e-16
3.33428e-16
3.33398e-16
3.33367e-16
3.33334e-16
3.33298e-16
3.3326e-16
3.3322e-16
3.33177e-16
3.33133e-16
3.33086e-16
3.33037e-16
3.32986e-16
3.32934e-16
3.3288e-16
3.32826e-16
3.32773e-16
3.32712e-16
1.02185e-15
1.02204e-15
1.02221e-15
1.02239e-15
1.02256e-15
1.02273e-15
1.0229e-15
1.02306e-15
1.02321e-15
1.02335e-15
1.02349e-15
1.02362e-15
1.02375e-15
1.02386e-15
1.02397e-15
1.02407e-15
1.02417e-15
1.02425e-15
1.02433e-15
1.02441e-15
1.02447e-15
1.02453e-15
1.02459e-15
1.02463e-15
1.02467e-15
1.02471e-15
1.02473e-15
1.02475e-15
1.02476e-15
1.02477e-15
1.02477e-15
1.02476e-15
1.02475e-15
1.02473e-15
1.02471e-15
1.02467e-15
1.02463e-15
1.02459e-15
1.02453e-15
1.02447e-15
1.02441e-15
1.02433e-15
1.02425e-15
1.02417e-15
1.02407e-15
1.02397e-15
1.02386e-15
1.02375e-15
1.02362e-15
1.02349e-15
1.02335e-15
1.02321e-15
1.02306e-15
1.0229e-15
1.02273e-15
1.02256e-15
1.02239e-15
1.02221e-15
1.02204e-15
1.02185e-15
3.20917e-15
3.2098e-15
3.21037e-15
3.21095e-15
3.21153e-15
3.2121e-15
3.21264e-15
3.21317e-15
3.21368e-15
3.21416e-15
3.21461e-15
3.21505e-15
3.21546e-15
3.21584e-15
3.2162e-15
3.21654e-15
3.21685e-15
3.21714e-15
3.21741e-15
3.21765e-15
3.21787e-15
3.21807e-15
3.21824e-15
3.21839e-15
3.21852e-15
3.21863e-15
3.21872e-15
3.21878e-15
3.21882e-15
3.21885e-15
3.21885e-15
3.21882e-15
3.21878e-15
3.21872e-15
3.21863e-15
3.21852e-15
3.21839e-15
3.21824e-15
3.21807e-15
3.21787e-15
3.21765e-15
3.21741e-15
3.21714e-15
3.21685e-15
3.21654e-15
3.2162e-15
3.21584e-15
3.21546e-15
3.21505e-15
3.21461e-15
3.21416e-15
3.21368e-15
3.21317e-15
3.21264e-15
3.2121e-15
3.21153e-15
3.21095e-15
3.21037e-15
3.2098e-15
3.20917e-15
1.03009e-14
1.03029e-14
1.03048e-14
1.03068e-14
1.03088e-14
1.03107e-14
1.03125e-14
1.03143e-14
1.0316e-14
1.03176e-14
1.03192e-14
1.03206e-14
1.0322e-14
1.03233e-14
1.03245e-14
1.03257e-14
1.03267e-14
1.03277e-14
1.03286e-14
1.03294e-14
1.03302e-14
1.03308e-14
1.03314e-14
1.03319e-14
1.03324e-14
1.03327e-14
1.0333e-14
1.03332e-14
1.03334e-14
1.03335e-14
1.03335e-14
1.03334e-14
1.03332e-14
1.0333e-14
1.03327e-14
1.03324e-14
1.03319e-14
1.03314e-14
1.03308e-14
1.03302e-14
1.03294e-14
1.03286e-14
1.03277e-14
1.03267e-14
1.03257e-14
1.03245e-14
1.03233e-14
1.0322e-14
1.03206e-14
1.03192e-14
1.03176e-14
1.0316e-14
1.03143e-14
1.03125e-14
1.03107e-14
1.03088e-14
1.03068e-14
1.03048e-14
1.03029e-14
1.03009e-14
3.37702e-14
3.37771e-14
3.37837e-14
3.37905e-14
3.37972e-14
3.38038e-14
3.38102e-14
3.38164e-14
3.38222e-14
3.38278e-14
3.38331e-14
3.38382e-14
3.38429e-14
3.38474e-14
3.38516e-14
3.38555e-14
3.38591e-14
3.38625e-14
3.38655e-14
3.38683e-14
3.38709e-14
3.38732e-14
3.38752e-14
3.3877e-14
3.38785e-14
3.38797e-14
3.38807e-14
3.38815e-14
3.3882e-14
3.38822e-14
3.38822e-14
3.3882e-14
3.38815e-14
3.38807e-14
3.38797e-14
3.38785e-14
3.3877e-14
3.38752e-14
3.38732e-14
3.38709e-14
3.38683e-14
3.38655e-14
3.38625e-14
3.38591e-14
3.38555e-14
3.38516e-14
3.38474e-14
3.38429e-14
3.38382e-14
3.38331e-14
3.38278e-14
3.38222e-14
3.38164e-14
3.38102e-14
3.38038e-14
3.37972e-14
3.37905e-14
3.37837e-14
3.37771e-14
3.37702e-14
1.1298e-13
1.13004e-13
1.13027e-13
1.13051e-13
1.13074e-13
1.13097e-13
1.1312e-13
1.13141e-13
1.13162e-13
1.13181e-13
1.132e-13
1.13218e-13
1.13234e-13
1.1325e-13
1.13264e-13
1.13278e-13
1.13291e-13
1.13303e-13
1.13313e-13
1.13323e-13
1.13332e-13
1.1334e-13
1.13347e-13
1.13353e-13
1.13359e-13
1.13363e-13
1.13366e-13
1.13369e-13
1.13371e-13
1.13372e-13
1.13372e-13
1.13371e-13
1.13369e-13
1.13366e-13
1.13363e-13
1.13359e-13
1.13353e-13
1.13347e-13
1.1334e-13
1.13332e-13
1.13323e-13
1.13313e-13
1.13303e-13
1.13291e-13
1.13278e-13
1.13264e-13
1.1325e-13
1.13234e-13
1.13218e-13
1.132e-13
1.13181e-13
1.13162e-13
1.13141e-13
1.1312e-13
1.13097e-13
1.13074e-13
1.13051e-13
1.13027e-13
1.13004e-13
1.1298e-13
3.85307e-13
3.8539e-13
3.85472e-13
3.85557e-13
3.85641e-13
3.85723e-13
3.85803e-13
3.8588e-13
3.85953e-13
3.86023e-13
3.86089e-13
3.86152e-13
3.86211e-13
3.86266e-13
3.86318e-13
3.86367e-13
3.86412e-13
3.86454e-13
3.86492e-13
3.86527e-13
3.86559e-13
3.86587e-13
3.86612e-13
3.86634e-13
3.86653e-13
3.86669e-13
3.86681e-13
3.8669e-13
3.86696e-13
3.867e-13
3.867e-13
3.86696e-13
3.8669e-13
3.86681e-13
3.86669e-13
3.86653e-13
3.86634e-13
3.86612e-13
3.86587e-13
3.86559e-13
3.86527e-13
3.86492e-13
3.86454e-13
3.86412e-13
3.86367e-13
3.86318e-13
3.86266e-13
3.86211e-13
3.86152e-13
3.86089e-13
3.86023e-13
3.85953e-13
3.8588e-13
3.85803e-13
3.85723e-13
3.85641e-13
3.85557e-13
3.85472e-13
3.8539e-13
3.85307e-13
1.33774e-12
1.33804e-12
1.33833e-12
1.33864e-12
1.33894e-12
1.33924e-12
1.33953e-12
1.33981e-12
1.34007e-12
1.34032e-12
1.34056e-12
1.34079e-12
1.341e-12
1.3412e-12
1.34139e-12
1.34157e-12
1.34173e-12
1.34188e-12
1.34202e-12
1.34215e-12
1.34226e-12
1.34236e-12
1.34245e-12
1.34253e-12
1.3426e-12
1.34266e-12
1.3427e-12
1.34273e-12
1.34276e-12
1.34277e-12
1.34277e-12
1.34276e-12
1.34273e-12
1.3427e-12
1.34266e-12
1.3426e-12
1.34253e-12
1.34245e-12
1.34236e-12
1.34226e-12
1.34215e-12
1.34202e-12
1.34188e-12
1.34173e-12
1.34157e-12
1.34139e-12
1.3412e-12
1.341e-12
1.34079e-12
1.34056e-12
1.34032e-12
1.34007e-12
1.33981e-12
1.33953e-12
1.33924e-12
1.33894e-12
1.33864e-12
1.33833e-12
1.33804e-12
1.33774e-12
4.72054e-12
4.72161e-12
4.72269e-12
4.72381e-12
4.72493e-12
4.72602e-12
4.72708e-12
4.72809e-12
4.72906e-12
4.72999e-12
4.73086e-12
4.73169e-12
4.73248e-12
4.73321e-12
4.7339e-12
4.73454e-12
4.73514e-12
4.73569e-12
4.7362e-12
4.73666e-12
4.73708e-12
4.73745e-12
4.73779e-12
4.73807e-12
4.73832e-12
4.73853e-12
4.73869e-12
4.73881e-12
4.73889e-12
4.73894e-12
4.73894e-12
4.73889e-12
4.73881e-12
4.73869e-12
4.73853e-12
4.73832e-12
4.73807e-12
4.73779e-12
4.73745e-12
4.73708e-12
4.73666e-12
4.7362e-12
4.73569e-12
4.73514e-12
4.73454e-12
4.7339e-12
4.73321e-12
4.73248e-12
4.73169e-12
4.73086e-12
4.72999e-12
4.72906e-12
4.72809e-12
4.72708e-12
4.72602e-12
4.72493e-12
4.72381e-12
4.72269e-12
4.72161e-12
4.72054e-12
1.68974e-11
1.69013e-11
1.69053e-11
1.69095e-11
1.69136e-11
1.69177e-11
1.69216e-11
1.69254e-11
1.6929e-11
1.69324e-11
1.69356e-11
1.69387e-11
1.69416e-11
1.69443e-11
1.69469e-11
1.69493e-11
1.69515e-11
1.69535e-11
1.69554e-11
1.69571e-11
1.69586e-11
1.696e-11
1.69613e-11
1.69623e-11
1.69632e-11
1.6964e-11
1.69646e-11
1.69651e-11
1.69654e-11
1.69655e-11
1.69655e-11
1.69654e-11
1.69651e-11
1.69646e-11
1.6964e-11
1.69632e-11
1.69623e-11
1.69613e-11
1.696e-11
1.69586e-11
1.69571e-11
1.69554e-11
1.69535e-11
1.69515e-11
1.69493e-11
1.69469e-11
1.69443e-11
1.69416e-11
1.69387e-11
1.69356e-11
1.69324e-11
1.6929e-11
1.69254e-11
1.69216e-11
1.69177e-11
1.69136e-11
1.69095e-11
1.69053e-11
1.69013e-11
1.68974e-11
6.12139e-11
6.12283e-11
6.12433e-11
6.12588e-11
6.12743e-11
6.12895e-11
6.13041e-11
6.13182e-11
6.13317e-11
6.13445e-11
6.13566e-11
6.13681e-11
6.13789e-11
6.13891e-11
6.13986e-11
6.14075e-11
6.14158e-11
6.14234e-11
6.14304e-11
6.14368e-11
6.14425e-11
6.14477e-11
6.14523e-11
6.14563e-11
6.14597e-11
6.14625e-11
6.14648e-11
6.14665e-11
6.14676e-11
6.14682e-11
6.14682e-11
6.14676e-11
6.14665e-11
6.14648e-11
6.14625e-11
6.14597e-11
6.14563e-11
6.14523e-11
6.14477e-11
6.14425e-11
6.14368e-11
6.14304e-11
6.14234e-11
6.14158e-11
6.14075e-11
6.13986e-11
6.13891e-11
6.13789e-11
6.13681e-11
6.13566e-11
6.13445e-11
6.13317e-11
6.13182e-11
6.13041e-11
6.12895e-11
6.12743e-11
6.12588e-11
6.12433e-11
6.12283e-11
6.12139e-11
2.23815e-10
2.23869e-10
2.23926e-10
2.23984e-10
2.24042e-10
2.24099e-10
2.24154e-10
2.24207e-10
2.24258e-10
2.24306e-10
2.24352e-10
2.24395e-10
2.24436e-10
2.24474e-10
2.2451e-10
2.24543e-10
2.24574e-10
2.24603e-10
2.24629e-10
2.24653e-10
2.24675e-10
2.24694e-10
2.24711e-10
2.24726e-10
2.24739e-10
2.2475e-10
2.24758e-10
2.24764e-10
2.24769e-10
2.24771e-10
2.24771e-10
2.24769e-10
2.24764e-10
2.24758e-10
2.2475e-10
2.24739e-10
2.24726e-10
2.24711e-10
2.24694e-10
2.24675e-10
2.24653e-10
2.24629e-10
2.24603e-10
2.24574e-10
2.24543e-10
2.2451e-10
2.24474e-10
2.24436e-10
2.24395e-10
2.24352e-10
2.24306e-10
2.24258e-10
2.24207e-10
2.24154e-10
2.24099e-10
2.24042e-10
2.23984e-10
2.23926e-10
2.23869e-10
2.23815e-10
8.23276e-10
8.23477e-10
8.2369e-10
8.2391e-10
8.2413e-10
8.24345e-10
8.24553e-10
8.24752e-10
8.24943e-10
8.25124e-10
8.25296e-10
8.25459e-10
8.25612e-10
8.25756e-10
8.25891e-10
8.26017e-10
8.26134e-10
8.26242e-10
8.2634e-10
8.26431e-10
8.26512e-10
8.26586e-10
8.2665e-10
8.26707e-10
8.26755e-10
8.26795e-10
8.26827e-10
8.26851e-10
8.26867e-10
8.26875e-10
8.26875e-10
8.26867e-10
8.26851e-10
8.26827e-10
8.26795e-10
8.26755e-10
8.26707e-10
8.2665e-10
8.26586e-10
8.26512e-10
8.26431e-10
8.2634e-10
8.26242e-10
8.26134e-10
8.26017e-10
8.25891e-10
8.25756e-10
8.25612e-10
8.25459e-10
8.25296e-10
8.25124e-10
8.24943e-10
8.24752e-10
8.24553e-10
8.24345e-10
8.2413e-10
8.2391e-10
8.2369e-10
8.23477e-10
8.23276e-10
3.03524e-09
3.03599e-09
3.03679e-09
3.03762e-09
3.03845e-09
3.03926e-09
3.04004e-09
3.04079e-09
3.04151e-09
3.04219e-09
3.04284e-09
3.04345e-09
3.04403e-09
3.04457e-09
3.04508e-09
3.04555e-09
3.04599e-09
3.04639e-09
3.04677e-09
3.04711e-09
3.04741e-09
3.04769e-09
3.04793e-09
3.04814e-09
3.04832e-09
3.04848e-09
3.0486e-09
3.04869e-09
3.04875e-09
3.04878e-09
3.04878e-09
3.04875e-09
3.04869e-09
3.0486e-09
3.04848e-09
3.04832e-09
3.04814e-09
3.04793e-09
3.04769e-09
3.04741e-09
3.04711e-09
3.04677e-09
3.04639e-09
3.04599e-09
3.04555e-09
3.04508e-09
3.04457e-09
3.04403e-09
3.04345e-09
3.04284e-09
3.04219e-09
3.04151e-09
3.04079e-09
3.04004e-09
3.03926e-09
3.03845e-09
3.03762e-09
3.03679e-09
3.03599e-09
3.03524e-09
1.11675e-08
1.11703e-08
1.11733e-08
1.11764e-08
1.11795e-08
1.11825e-08
1.11854e-08
1.11882e-08
1.11909e-08
1.11935e-08
1.11959e-08
1.11982e-08
1.12003e-08
1.12024e-08
1.12042e-08
1.1206e-08
1.12077e-08
1.12092e-08
1.12106e-08
1.12118e-08
1.1213e-08
1.1214e-08
1.12149e-08
1.12157e-08
1.12164e-08
1.12169e-08
1.12174e-08
1.12177e-08
1.12179e-08
1.12181e-08
1.12181e-08
1.12179e-08
1.12177e-08
1.12174e-08
1.12169e-08
1.12164e-08
1.12157e-08
1.12149e-08
1.1214e-08
1.1213e-08
1.12118e-08
1.12106e-08
1.12092e-08
1.12077e-08
1.1206e-08
1.12042e-08
1.12024e-08
1.12003e-08
1.11982e-08
1.11959e-08
1.11935e-08
1.11909e-08
1.11882e-08
1.11854e-08
1.11825e-08
1.11795e-08
1.11764e-08
1.11733e-08
1.11703e-08
1.11675e-08
4.08011e-08
4.08114e-08
4.08225e-08
4.0834e-08
4.08454e-08
4.08566e-08
4.08674e-08
4.08778e-08
4.08877e-08
4.08971e-08
4.09061e-08
4.09145e-08
4.09225e-08
4.09299e-08
4.09369e-08
4.09435e-08
4.09495e-08
4.09551e-08
4.09602e-08
4.09649e-08
4.09691e-08
4.09729e-08
4.09763e-08
4.09792e-08
4.09817e-08
4.09838e-08
4.09854e-08
4.09867e-08
4.09875e-08
4.09879e-08
4.09879e-08
4.09875e-08
4.09867e-08
4.09854e-08
4.09838e-08
4.09817e-08
4.09792e-08
4.09763e-08
4.09729e-08
4.09691e-08
4.09649e-08
4.09602e-08
4.09551e-08
4.09495e-08
4.09435e-08
4.09369e-08
4.09299e-08
4.09225e-08
4.09145e-08
4.09061e-08
4.08971e-08
4.08877e-08
4.08778e-08
4.08674e-08
4.08566e-08
4.08454e-08
4.0834e-08
4.08225e-08
4.08114e-08
4.08011e-08
1.47188e-07
1.47226e-07
1.47266e-07
1.47308e-07
1.47349e-07
1.4739e-07
1.47429e-07
1.47467e-07
1.47503e-07
1.47537e-07
1.47569e-07
1.476e-07
1.47629e-07
1.47656e-07
1.47681e-07
1.47705e-07
1.47727e-07
1.47747e-07
1.47766e-07
1.47783e-07
1.47798e-07
1.47812e-07
1.47824e-07
1.47834e-07
1.47843e-07
1.47851e-07
1.47857e-07
1.47861e-07
1.47864e-07
1.47866e-07
1.47866e-07
1.47864e-07
1.47861e-07
1.47857e-07
1.47851e-07
1.47843e-07
1.47834e-07
1.47824e-07
1.47812e-07
1.47798e-07
1.47783e-07
1.47766e-07
1.47747e-07
1.47727e-07
1.47705e-07
1.47681e-07
1.47656e-07
1.47629e-07
1.476e-07
1.47569e-07
1.47537e-07
1.47503e-07
1.47467e-07
1.47429e-07
1.4739e-07
1.47349e-07
1.47308e-07
1.47266e-07
1.47226e-07
1.47188e-07
5.2089e-07
5.21023e-07
5.21166e-07
5.21314e-07
5.21461e-07
5.21605e-07
5.21743e-07
5.21876e-07
5.22003e-07
5.22124e-07
5.22239e-07
5.22347e-07
5.22449e-07
5.22545e-07
5.22634e-07
5.22718e-07
5.22795e-07
5.22867e-07
5.22933e-07
5.22993e-07
5.23047e-07
5.23095e-07
5.23138e-07
5.23176e-07
5.23208e-07
5.23234e-07
5.23255e-07
5.23271e-07
5.23282e-07
5.23287e-07
5.23287e-07
5.23282e-07
5.23271e-07
5.23255e-07
5.23234e-07
5.23208e-07
5.23176e-07
5.23138e-07
5.23095e-07
5.23047e-07
5.22993e-07
5.22933e-07
5.22867e-07
5.22795e-07
5.22718e-07
5.22634e-07
5.22545e-07
5.22449e-07
5.22347e-07
5.22239e-07
5.22124e-07
5.22003e-07
5.21876e-07
5.21743e-07
5.21605e-07
5.21461e-07
5.21314e-07
5.21166e-07
5.21023e-07
5.2089e-07
1.79514e-06
1.7956e-06
1.79609e-06
1.7966e-06
1.7971e-06
1.79759e-06
1.79807e-06
1.79852e-06
1.79896e-06
1.79937e-06
1.79976e-06
1.80013e-06
1.80048e-06
1.80081e-06
1.80111e-06
1.8014e-06
1.80166e-06
1.80191e-06
1.80213e-06
1.80234e-06
1.80252e-06
1.80269e-06
1.80283e-06
1.80296e-06
1.80307e-06
1.80316e-06
1.80323e-06
1.80329e-06
1.80332e-06
1.80334e-06
1.80334e-06
1.80332e-06
1.80329e-06
1.80323e-06
1.80316e-06
1.80307e-06
1.80296e-06
1.80283e-06
1.80269e-06
1.80252e-06
1.80234e-06
1.80213e-06
1.80191e-06
1.80166e-06
1.8014e-06
1.80111e-06
1.80081e-06
1.80048e-06
1.80013e-06
1.79976e-06
1.79937e-06
1.79896e-06
1.79852e-06
1.79807e-06
1.79759e-06
1.7971e-06
1.7966e-06
1.79609e-06
1.7956e-06
1.79514e-06
5.97478e-06
5.97628e-06
5.97789e-06
5.97955e-06
5.9812e-06
5.98281e-06
5.98436e-06
5.98585e-06
5.98727e-06
5.98862e-06
5.98991e-06
5.99112e-06
5.99226e-06
5.99333e-06
5.99433e-06
5.99526e-06
5.99613e-06
5.99693e-06
5.99766e-06
5.99833e-06
5.99894e-06
5.99948e-06
5.99996e-06
6.00038e-06
6.00073e-06
6.00103e-06
6.00127e-06
6.00144e-06
6.00156e-06
6.00162e-06
6.00162e-06
6.00156e-06
6.00144e-06
6.00127e-06
6.00103e-06
6.00073e-06
6.00038e-06
5.99996e-06
5.99948e-06
5.99894e-06
5.99833e-06
5.99766e-06
5.99693e-06
5.99613e-06
5.99526e-06
5.99433e-06
5.99333e-06
5.99226e-06
5.99112e-06
5.98991e-06
5.98862e-06
5.98727e-06
5.98585e-06
5.98436e-06
5.98281e-06
5.9812e-06
5.97955e-06
5.97789e-06
5.97628e-06
5.97478e-06
1.90256e-05
1.90302e-05
1.90352e-05
1.90404e-05
1.90455e-05
1.90505e-05
1.90553e-05
1.906e-05
1.90644e-05
1.90686e-05
1.90725e-05
1.90763e-05
1.90798e-05
1.90831e-05
1.90862e-05
1.90891e-05
1.90918e-05
1.90943e-05
1.90966e-05
1.90986e-05
1.91005e-05
1.91022e-05
1.91037e-05
1.9105e-05
1.91061e-05
1.9107e-05
1.91077e-05
1.91083e-05
1.91086e-05
1.91088e-05
1.91088e-05
1.91086e-05
1.91083e-05
1.91077e-05
1.9107e-05
1.91061e-05
1.9105e-05
1.91037e-05
1.91022e-05
1.91005e-05
1.90986e-05
1.90966e-05
1.90943e-05
1.90918e-05
1.90891e-05
1.90862e-05
1.90831e-05
1.90798e-05
1.90763e-05
1.90725e-05
1.90686e-05
1.90644e-05
1.906e-05
1.90553e-05
1.90505e-05
1.90455e-05
1.90404e-05
1.90352e-05
1.90302e-05
1.90256e-05
5.73539e-05
5.73676e-05
5.73822e-05
5.73972e-05
5.74121e-05
5.74266e-05
5.74405e-05
5.74539e-05
5.74667e-05
5.74788e-05
5.74903e-05
5.75012e-05
5.75114e-05
5.75211e-05
5.753e-05
5.75384e-05
5.75462e-05
5.75534e-05
5.756e-05
5.7566e-05
5.75714e-05
5.75763e-05
5.75806e-05
5.75843e-05
5.75875e-05
5.75902e-05
5.75923e-05
5.75939e-05
5.75949e-05
5.75955e-05
5.75955e-05
5.75949e-05
5.75939e-05
5.75923e-05
5.75902e-05
5.75875e-05
5.75843e-05
5.75806e-05
5.75763e-05
5.75714e-05
5.7566e-05
5.756e-05
5.75534e-05
5.75462e-05
5.75384e-05
5.753e-05
5.75211e-05