/*--------------------------------*- C++ -*----------------------------------*\
| =========                 |                                                 |
| \\      /  F ield         | foam-extend: Open Source CFD                    |
|  \\    /   O peration     | Version:     4.0                                |
|   \\  /    A nd           | Web:         http://www.foam-extend.org         |
|    \\/     M anipulation  |                                                 |
\*---------------------------------------------------------------------------*/
FoamFile
{
    version     2.0;
    format      ascii;
    class       volScalarField;
    location    "25";
    object      dC2;
}
// * * * * * * * * * * * * * * * * * * * * * * * * * * * * * * * * * * * * * //

dimensions      [0 -1 0 0 0 0 0];

internalField   nonuniform List<scalar> 
6960
(
5.45115e-19
5.4512e-19
5.4513e-19
5.4514e-19
5.4515e-19
5.45158e-19
5.45162e-19
5.45166e-19
5.45169e-19
5.45168e-19
5.45173e-19
5.45168e-19
5.45169e-19
5.45167e-19
5.45167e-19
5.45166e-19
5.45165e-19
5.45162e-19
5.45164e-19
5.4516e-19
5.4516e-19
5.45159e-19
5.45155e-19
5.45154e-19
5.45156e-19
5.45154e-19
5.45154e-19
5.45153e-19
5.45154e-19
5.45153e-19
5.45153e-19
5.45152e-19
5.45154e-19
5.45152e-19
5.45154e-19
5.45155e-19
5.45156e-19
5.45157e-19
5.45158e-19
5.45158e-19
5.4516e-19
5.45162e-19
5.45163e-19
5.45164e-19
5.45165e-19
5.45166e-19
5.45169e-19
5.45169e-19
5.4517e-19
5.4517e-19
5.45168e-19
5.45167e-19
5.45167e-19
5.45161e-19
5.45155e-19
5.4515e-19
5.4514e-19
5.4513e-19
5.4512e-19
5.45114e-19
1.7425e-18
1.74252e-18
1.74256e-18
1.74258e-18
1.74261e-18
1.74263e-18
1.74265e-18
1.74267e-18
1.74267e-18
1.74267e-18
1.74267e-18
1.74268e-18
1.74267e-18
1.74267e-18
1.74267e-18
1.74266e-18
1.74266e-18
1.74266e-18
1.74265e-18
1.74264e-18
1.74265e-18
1.74264e-18
1.74264e-18
1.74264e-18
1.74263e-18
1.74263e-18
1.74262e-18
1.74262e-18
1.74262e-18
1.74263e-18
1.74262e-18
1.74262e-18
1.74262e-18
1.74263e-18
1.74263e-18
1.74263e-18
1.74263e-18
1.74263e-18
1.74264e-18
1.74264e-18
1.74264e-18
1.74266e-18
1.74266e-18
1.74266e-18
1.74267e-18
1.74267e-18
1.74267e-18
1.74267e-18
1.74268e-18
1.74267e-18
1.74268e-18
1.74267e-18
1.74266e-18
1.74266e-18
1.74264e-18
1.74262e-18
1.74259e-18
1.74255e-18
1.74252e-18
1.7425e-18
4.57985e-18
4.57989e-18
4.57997e-18
4.58007e-18
4.58014e-18
4.58022e-18
4.58024e-18
4.58025e-18
4.58029e-18
4.5803e-18
4.5803e-18
4.58029e-18
4.58028e-18
4.58029e-18
4.58027e-18
4.58028e-18
4.58026e-18
4.58025e-18
4.58024e-18
4.58024e-18
4.5802e-18
4.5802e-18
4.58018e-18
4.58017e-18
4.58017e-18
4.58017e-18
4.58017e-18
4.58018e-18
4.58016e-18
4.58016e-18
4.58016e-18
4.58017e-18
4.58017e-18
4.58016e-18
4.58016e-18
4.58017e-18
4.5802e-18
4.5802e-18
4.58018e-18
4.58021e-18
4.58024e-18
4.58022e-18
4.58023e-18
4.58026e-18
4.58026e-18
4.58028e-18
4.58027e-18
4.58029e-18
4.58029e-18
4.58032e-18
4.58029e-18
4.58029e-18
4.58025e-18
4.58023e-18
4.5802e-18
4.58013e-18
4.58004e-18
4.57999e-18
4.5799e-18
4.57985e-18
1.08783e-17
1.08784e-17
1.08786e-17
1.08787e-17
1.08789e-17
1.0879e-17
1.08792e-17
1.08792e-17
1.08793e-17
1.08793e-17
1.08793e-17
1.08793e-17
1.08793e-17
1.08793e-17
1.08793e-17
1.08792e-17
1.08792e-17
1.08792e-17
1.08792e-17
1.08791e-17
1.08791e-17
1.08791e-17
1.08791e-17
1.08791e-17
1.08791e-17
1.0879e-17
1.08791e-17
1.0879e-17
1.0879e-17
1.0879e-17
1.0879e-17
1.08789e-17
1.0879e-17
1.0879e-17
1.0879e-17
1.08791e-17
1.0879e-17
1.0879e-17
1.08791e-17
1.08791e-17
1.08791e-17
1.08792e-17
1.08792e-17
1.08792e-17
1.08793e-17
1.08792e-17
1.08793e-17
1.08793e-17
1.08793e-17
1.08793e-17
1.08793e-17
1.08793e-17
1.08793e-17
1.08792e-17
1.08791e-17
1.0879e-17
1.08788e-17
1.08786e-17
1.08784e-17
1.08783e-17
2.47304e-17
2.47307e-17
2.47311e-17
2.47316e-17
2.4732e-17
2.47323e-17
2.47325e-17
2.47326e-17
2.47327e-17
2.47328e-17
2.47329e-17
2.47328e-17
2.47327e-17
2.47327e-17
2.47327e-17
2.47326e-17
2.47326e-17
2.47325e-17
2.47325e-17
2.47324e-17
2.47324e-17
2.47324e-17
2.47322e-17
2.47322e-17
2.47322e-17
2.4732e-17
2.4732e-17
2.4732e-17
2.47321e-17
2.4732e-17
2.4732e-17
2.47321e-17
2.47321e-17
2.47322e-17
2.47322e-17
2.47321e-17
2.47321e-17
2.47323e-17
2.47323e-17
2.47324e-17
2.47324e-17
2.47325e-17
2.47325e-17
2.47326e-17
2.47326e-17
2.47327e-17
2.47327e-17
2.47328e-17
2.47327e-17
2.47328e-17
2.47328e-17
2.47328e-17
2.47326e-17
2.47325e-17
2.47323e-17
2.47319e-17
2.47315e-17
2.4731e-17
2.47307e-17
2.47303e-17
5.51368e-17
5.51371e-17
5.51382e-17
5.51391e-17
5.514e-17
5.51407e-17
5.51411e-17
5.51416e-17
5.51417e-17
5.5142e-17
5.51419e-17
5.51419e-17
5.5142e-17
5.51417e-17
5.51416e-17
5.51417e-17
5.51414e-17
5.51415e-17
5.5141e-17
5.51411e-17
5.51409e-17
5.51407e-17
5.51406e-17
5.51405e-17
5.51404e-17
5.51405e-17
5.51404e-17
5.51405e-17
5.51404e-17
5.51403e-17
5.51405e-17
5.51404e-17
5.51404e-17
5.51402e-17
5.51404e-17
5.51408e-17
5.51406e-17
5.51406e-17
5.51409e-17
5.51409e-17
5.5141e-17
5.51412e-17
5.51413e-17
5.51415e-17
5.51415e-17
5.51418e-17
5.51418e-17
5.51419e-17
5.51419e-17
5.51421e-17
5.51417e-17
5.51416e-17
5.51417e-17
5.51414e-17
5.51408e-17
5.51401e-17
5.51395e-17
5.51383e-17
5.51369e-17
5.51367e-17
1.21588e-16
1.2159e-16
1.21592e-16
1.21595e-16
1.21596e-16
1.21598e-16
1.21599e-16
1.216e-16
1.216e-16
1.216e-16
1.21601e-16
1.21601e-16
1.21601e-16
1.216e-16
1.216e-16
1.216e-16
1.216e-16
1.21599e-16
1.216e-16
1.21599e-16
1.21599e-16
1.21598e-16
1.21598e-16
1.21598e-16
1.21598e-16
1.21597e-16
1.21597e-16
1.21597e-16
1.21597e-16
1.21597e-16
1.21597e-16
1.21597e-16
1.21598e-16
1.21597e-16
1.21598e-16
1.21597e-16
1.21598e-16
1.21598e-16
1.21598e-16
1.21599e-16
1.21599e-16
1.21599e-16
1.21599e-16
1.216e-16
1.216e-16
1.216e-16
1.21601e-16
1.21601e-16
1.21601e-16
1.216e-16
1.21601e-16
1.21601e-16
1.21599e-16
1.21599e-16
1.21598e-16
1.21597e-16
1.21594e-16
1.21592e-16
1.21591e-16
1.21589e-16
2.65187e-16
2.65189e-16
2.65194e-16
2.65197e-16
2.65203e-16
2.65206e-16
2.65208e-16
2.6521e-16
2.65212e-16
2.65213e-16
2.65212e-16
2.65211e-16
2.65212e-16
2.65212e-16
2.65211e-16
2.6521e-16
2.6521e-16
2.6521e-16
2.65207e-16
2.65208e-16
2.65208e-16
2.65206e-16
2.65206e-16
2.65205e-16
2.65206e-16
2.65206e-16
2.65205e-16
2.65205e-16
2.65205e-16
2.65205e-16
2.65205e-16
2.65205e-16
2.65204e-16
2.65205e-16
2.65204e-16
2.65206e-16
2.65205e-16
2.65207e-16
2.65207e-16
2.65208e-16
2.65208e-16
2.6521e-16
2.65209e-16
2.6521e-16
2.6521e-16
2.65212e-16
2.65211e-16
2.65212e-16
2.65213e-16
2.65212e-16
2.65211e-16
2.65211e-16
2.65211e-16
2.65209e-16
2.65206e-16
2.65202e-16
2.652e-16
2.65193e-16
2.65189e-16
2.65186e-16
5.69463e-16
5.69468e-16
5.69478e-16
5.69488e-16
5.69496e-16
5.69506e-16
5.6951e-16
5.69513e-16
5.69517e-16
5.69515e-16
5.69518e-16
5.6952e-16
5.69518e-16
5.69515e-16
5.69515e-16
5.69515e-16
5.69512e-16
5.69511e-16
5.69511e-16
5.69507e-16
5.69506e-16
5.69509e-16
5.69505e-16
5.69504e-16
5.69502e-16
5.69501e-16
5.69504e-16
5.69499e-16
5.695e-16
5.69502e-16
5.69498e-16
5.69499e-16
5.69502e-16
5.69501e-16
5.69503e-16
5.69501e-16
5.69504e-16
5.69503e-16
5.69507e-16
5.69507e-16
5.6951e-16
5.69508e-16
5.69511e-16
5.69513e-16
5.69515e-16
5.69514e-16
5.69515e-16
5.69518e-16
5.69515e-16
5.69517e-16
5.69521e-16
5.69516e-16
5.69513e-16
5.69509e-16
5.69504e-16
5.69496e-16
5.69488e-16
5.69478e-16
5.69467e-16
5.69464e-16
1.1964e-15
1.19641e-15
1.19643e-15
1.19645e-15
1.19648e-15
1.1965e-15
1.1965e-15
1.19651e-15
1.19651e-15
1.19652e-15
1.19652e-15
1.19651e-15
1.19652e-15
1.19652e-15
1.19652e-15
1.19651e-15
1.19651e-15
1.19651e-15
1.1965e-15
1.19651e-15
1.1965e-15
1.19649e-15
1.19649e-15
1.19649e-15
1.19649e-15
1.19649e-15
1.19648e-15
1.19648e-15
1.19648e-15
1.19648e-15
1.19649e-15
1.19648e-15
1.19649e-15
1.19648e-15
1.19648e-15
1.19649e-15
1.19649e-15
1.1965e-15
1.19649e-15
1.1965e-15
1.1965e-15
1.1965e-15
1.1965e-15
1.19651e-15
1.19651e-15
1.19651e-15
1.19652e-15
1.19652e-15
1.19652e-15
1.19652e-15
1.19652e-15
1.19652e-15
1.19652e-15
1.1965e-15
1.1965e-15
1.19647e-15
1.19646e-15
1.19643e-15
1.19641e-15
1.1964e-15
2.44301e-15
2.44304e-15
2.44309e-15
2.44313e-15
2.44316e-15
2.44319e-15
2.44322e-15
2.44324e-15
2.44325e-15
2.44326e-15
2.44325e-15
2.44327e-15
2.44325e-15
2.44325e-15
2.44324e-15
2.44322e-15
2.44322e-15
2.44322e-15
2.44323e-15
2.4432e-15
2.4432e-15
2.4432e-15
2.44321e-15
2.4432e-15
2.44319e-15
2.44318e-15
2.44318e-15
2.44318e-15
2.44319e-15
2.44317e-15
2.44319e-15
2.44319e-15
2.44317e-15
2.44319e-15
2.44319e-15
2.44319e-15
2.44319e-15
2.4432e-15
2.4432e-15
2.44321e-15
2.44321e-15
2.44324e-15
2.44324e-15
2.44323e-15
2.44324e-15
2.44324e-15
2.44323e-15
2.44325e-15
2.44324e-15
2.44325e-15
2.44326e-15
2.44325e-15
2.44323e-15
2.44322e-15
2.44321e-15
2.44318e-15
2.44312e-15
2.44307e-15
2.44304e-15
2.443e-15
4.82246e-15
4.82247e-15
4.82257e-15
4.82268e-15
4.82275e-15
4.82283e-15
4.82285e-15
4.82288e-15
4.82291e-15
4.82291e-15
4.82293e-15
4.82291e-15
4.82295e-15
4.8229e-15
4.82291e-15
4.82293e-15
4.8229e-15
4.82286e-15
4.82284e-15
4.82285e-15
4.82286e-15
4.82281e-15
4.82281e-15
4.82281e-15
4.82279e-15
4.8228e-15
4.8228e-15
4.82281e-15
4.82276e-15
4.82282e-15
4.82274e-15
4.82275e-15
4.8228e-15
4.82277e-15
4.82279e-15
4.82279e-15
4.82281e-15
4.8228e-15
4.82283e-15
4.82284e-15
4.82282e-15
4.82284e-15
4.82284e-15
4.8229e-15
4.82291e-15
4.8229e-15
4.82295e-15
4.82294e-15
4.82296e-15
4.82295e-15
4.82292e-15
4.82289e-15
4.82287e-15
4.82286e-15
4.82279e-15
4.8227e-15
4.82266e-15
4.8226e-15
4.82247e-15
4.82246e-15
9.17148e-15
9.17165e-15
9.17172e-15
9.17188e-15
9.17201e-15
9.17219e-15
9.17231e-15
9.17233e-15
9.17239e-15
9.17238e-15
9.17244e-15
9.17237e-15
9.17235e-15
9.17239e-15
9.17229e-15
9.17227e-15
9.17233e-15
9.17233e-15
9.1723e-15
9.17233e-15
9.17227e-15
9.17228e-15
9.17225e-15
9.17213e-15
9.17217e-15
9.17213e-15
9.17217e-15
9.17208e-15
9.1721e-15
9.1721e-15
9.17216e-15
9.17209e-15
9.17217e-15
9.17212e-15
9.17214e-15
9.1722e-15
9.17216e-15
9.1722e-15
9.17221e-15
9.17226e-15
9.17235e-15
9.1723e-15
9.17234e-15
9.17238e-15
9.17231e-15
9.17241e-15
9.17239e-15
9.17235e-15
9.17244e-15
9.17237e-15
9.17231e-15
9.17241e-15
9.17234e-15
9.1724e-15
9.17215e-15
9.17209e-15
9.17194e-15
9.17169e-15
9.17161e-15
9.1714e-15
1.67174e-14
1.67176e-14
1.67181e-14
1.67184e-14
1.67186e-14
1.67186e-14
1.6719e-14
1.67191e-14
1.6719e-14
1.67194e-14
1.67191e-14
1.67193e-14
1.67191e-14
1.67192e-14
1.67192e-14
1.67191e-14
1.6719e-14
1.67191e-14
1.67189e-14
1.67188e-14
1.67186e-14
1.67188e-14
1.67186e-14
1.67188e-14
1.67188e-14
1.67187e-14
1.67185e-14
1.67186e-14
1.67187e-14
1.67186e-14
1.67186e-14
1.67187e-14
1.67185e-14
1.67188e-14
1.67187e-14
1.67187e-14
1.67187e-14
1.67188e-14
1.67186e-14
1.67189e-14
1.67188e-14
1.67189e-14
1.6719e-14
1.67188e-14
1.67191e-14
1.67189e-14
1.6719e-14
1.67192e-14
1.67189e-14
1.67192e-14
1.67193e-14
1.67191e-14
1.67191e-14
1.67187e-14
1.67189e-14
1.67185e-14
1.67182e-14
1.67179e-14
1.67177e-14
1.67175e-14
2.84354e-14
2.84352e-14
2.84357e-14
2.84362e-14
2.84371e-14
2.84377e-14
2.84377e-14
2.84378e-14
2.84379e-14
2.84379e-14
2.84384e-14
2.84386e-14
2.84382e-14
2.84383e-14
2.84377e-14
2.8438e-14
2.84381e-14
2.84377e-14
2.84377e-14
2.84378e-14
2.84379e-14
2.84378e-14
2.84376e-14
2.84377e-14
2.84374e-14
2.84375e-14
2.84377e-14
2.84375e-14
2.84374e-14
2.84374e-14
2.84377e-14
2.84377e-14
2.84378e-14
2.8437e-14
2.84371e-14
2.84374e-14
2.84375e-14
2.84373e-14
2.84381e-14
2.84373e-14
2.8438e-14
2.84378e-14
2.84378e-14
2.84382e-14
2.84378e-14
2.84384e-14
2.84381e-14
2.84377e-14
2.84383e-14
2.84383e-14
2.8438e-14
2.84384e-14
2.84379e-14
2.84376e-14
2.84371e-14
2.84369e-14
2.84366e-14
2.84361e-14
2.84356e-14
2.84358e-14
4.06928e-14
4.06939e-14
4.06942e-14
4.06948e-14
4.06946e-14
4.06962e-14
4.0696e-14
4.06963e-14
4.06967e-14
4.06961e-14
4.0696e-14
4.06954e-14
4.06961e-14
4.06954e-14
4.06965e-14
4.06955e-14
4.06959e-14
4.06958e-14
4.06957e-14
4.06952e-14
4.0696e-14
4.06948e-14
4.06959e-14
4.06952e-14
4.06949e-14
4.06957e-14
4.06946e-14
4.06949e-14
4.0695e-14
4.06949e-14
4.06941e-14
4.06942e-14
4.06951e-14
4.06957e-14
4.0696e-14
4.06946e-14
4.06956e-14
4.06952e-14
4.0695e-14
4.0696e-14
4.06956e-14
4.0696e-14
4.0696e-14
4.06959e-14
4.06961e-14
4.06962e-14
4.06964e-14
4.06975e-14
4.06969e-14
4.06964e-14
4.06963e-14
4.06952e-14
4.06956e-14
4.06973e-14
4.06953e-14
4.06953e-14
4.06946e-14
4.06937e-14
4.06918e-14
4.06917e-14
3.23882e-14
3.23882e-14
3.23917e-14
3.23922e-14
3.2392e-14
3.23922e-14
3.23932e-14
3.23946e-14
3.23939e-14
3.23935e-14
3.23936e-14
3.23934e-14
3.23951e-14
3.23974e-14
3.23959e-14
3.23955e-14
3.23933e-14
3.23938e-14
3.23934e-14
3.23934e-14
3.23927e-14
3.23952e-14
3.23927e-14
3.23927e-14
3.23941e-14
3.23927e-14
3.23935e-14
3.23947e-14
3.23931e-14
3.23955e-14
3.23932e-14
3.23949e-14
3.23926e-14
3.23929e-14
3.23928e-14
3.23934e-14
3.23933e-14
3.23946e-14
3.23946e-14
3.23931e-14
3.23929e-14
3.23923e-14
3.23938e-14
3.23936e-14
3.23941e-14
3.23938e-14
3.23949e-14
3.23937e-14
3.23938e-14
3.23943e-14
3.23944e-14
3.23949e-14
3.23938e-14
3.23936e-14
3.23949e-14
3.23927e-14
3.23927e-14
3.23916e-14
3.23924e-14
3.23911e-14
-4.03497e-14
-4.03467e-14
-4.03504e-14
-4.03495e-14
-4.03468e-14
-4.03472e-14
-4.03512e-14
-4.03513e-14
-4.03503e-14
-4.03507e-14
-4.03483e-14
-4.03459e-14
-4.03475e-14
-4.03523e-14
-4.03512e-14
-4.03546e-14
-4.03486e-14
-4.03486e-14
-4.03504e-14
-4.03457e-14
-4.03493e-14
-4.0353e-14
-4.03494e-14
-4.0352e-14
-4.0353e-14
-4.03487e-14
-4.0351e-14
-4.03539e-14
-4.03497e-14
-4.03538e-14
-4.03481e-14
-4.03499e-14
-4.03495e-14
-4.03515e-14
-4.03519e-14
-4.03509e-14
-4.03506e-14
-4.03491e-14
-4.03519e-14
-4.03504e-14
-4.0349e-14
-4.03465e-14
-4.03518e-14
-4.03489e-14
-4.03519e-14
-4.03487e-14
-4.03488e-14
-4.03513e-14
-4.03509e-14
-4.03547e-14
-4.03511e-14
-4.03495e-14
-4.03488e-14
-4.03533e-14
-4.035e-14
-4.03503e-14
-4.03492e-14
-4.03504e-14
-4.03531e-14
-4.03497e-14
-1.65688e-13
-1.65699e-13
-1.65698e-13
-1.65698e-13
-1.65704e-13
-1.65711e-13
-1.65703e-13
-1.65703e-13
-1.65706e-13
-1.65705e-13
-1.65706e-13
-1.65707e-13
-1.65716e-13
-1.65707e-13
-1.6571e-13
-1.65703e-13
-1.65707e-13
-1.65706e-13
-1.65705e-13
-1.65711e-13
-1.65707e-13
-1.65697e-13
-1.65699e-13
-1.65699e-13
-1.65701e-13
-1.65704e-13
-1.657e-13
-1.657e-13
-1.65703e-13
-1.65702e-13
-1.65701e-13
-1.65705e-13
-1.65701e-13
-1.65702e-13
-1.65699e-13
-1.65695e-13
-1.657e-13
-1.65706e-13
-1.65704e-13
-1.65703e-13
-1.6571e-13
-1.65708e-13
-1.65709e-13
-1.65709e-13
-1.65702e-13
-1.65709e-13
-1.65714e-13
-1.65708e-13
-1.65712e-13
-1.65705e-13
-1.65698e-13
-1.65709e-13
-1.65706e-13
-1.65696e-13
-1.65701e-13
-1.65697e-13
-1.65708e-13
-1.65698e-13
-1.65686e-13
-1.65692e-13
-1.29101e-13
-1.291e-13
-1.29084e-13
-1.29102e-13
-1.29105e-13
-1.2911e-13
-1.29108e-13
-1.29119e-13
-1.29135e-13
-1.29118e-13
-1.29131e-13
-1.2912e-13
-1.29095e-13
-1.29111e-13
-1.29128e-13
-1.29124e-13
-1.29117e-13
-1.29128e-13
-1.29118e-13
-1.29114e-13
-1.29109e-13
-1.2913e-13
-1.2912e-13
-1.29131e-13
-1.29116e-13
-1.29104e-13
-1.29113e-13
-1.29105e-13
-1.29102e-13
-1.29099e-13
-1.29106e-13
-1.29104e-13
-1.29118e-13
-1.29126e-13
-1.29122e-13
-1.2913e-13
-1.29116e-13
-1.29125e-13
-1.2912e-13
-1.29116e-13
-1.29111e-13
-1.29121e-13
-1.29107e-13
-1.29116e-13
-1.29115e-13
-1.29127e-13
-1.29099e-13
-1.29114e-13
-1.2911e-13
-1.29126e-13
-1.29132e-13
-1.29117e-13
-1.29137e-13
-1.29117e-13
-1.29124e-13
-1.29116e-13
-1.29087e-13
-1.29101e-13
-1.29108e-13
-1.29097e-13
2.51149e-13
2.51161e-13
2.51149e-13
2.51152e-13
2.51153e-13
2.51176e-13
2.51132e-13
2.51183e-13
2.51199e-13
2.5117e-13
2.51175e-13
2.5113e-13
2.51143e-13
2.51162e-13
2.51193e-13
2.51167e-13
2.5115e-13
2.51182e-13
2.51184e-13
2.51168e-13
2.51131e-13
2.51186e-13
2.51155e-13
2.51211e-13
2.51172e-13
2.51149e-13
2.5115e-13
2.51155e-13
2.51143e-13
2.51131e-13
2.51154e-13
2.51146e-13
2.51173e-13
2.51188e-13
2.51161e-13
2.51198e-13
2.51172e-13
2.51171e-13
2.51189e-13
2.51154e-13
2.51172e-13
2.51175e-13
2.51165e-13
2.51183e-13
2.51153e-13
2.51202e-13
2.51126e-13
2.5116e-13
2.51161e-13
2.512e-13
2.51177e-13
2.51176e-13
2.51191e-13
2.51167e-13
2.51175e-13
2.51188e-13
2.51155e-13
2.51156e-13
2.51157e-13
2.51153e-13
5.1865e-13
5.1867e-13
5.18653e-13
5.18706e-13
5.18703e-13
5.18687e-13
5.18724e-13
5.18691e-13
5.18658e-13
5.18725e-13
5.18724e-13
5.18758e-13
5.18737e-13
5.18714e-13
5.18669e-13
5.18745e-13
5.1873e-13
5.18703e-13
5.18685e-13
5.18683e-13
5.18763e-13
5.18698e-13
5.18731e-13
5.18684e-13
5.18688e-13
5.18719e-13
5.18716e-13
5.18716e-13
5.18709e-13
5.18765e-13
5.18712e-13
5.18737e-13
5.18694e-13
5.18678e-13
5.18705e-13
5.1867e-13
5.18696e-13
5.18724e-13
5.18668e-13
5.18755e-13
5.18678e-13
5.18689e-13
5.18706e-13
5.18677e-13
5.18701e-13
5.18691e-13
5.18736e-13
5.18696e-13
5.18721e-13
5.18669e-13
5.18709e-13
5.18726e-13
5.18746e-13
5.18664e-13
5.18726e-13
5.1868e-13
5.18671e-13
5.18688e-13
5.18643e-13
5.18658e-13
1.57072e-13
1.57085e-13
1.571e-13
1.57028e-13
1.57086e-13
1.57055e-13
1.57066e-13
1.57055e-13
1.57156e-13
1.57068e-13
1.57062e-13
1.56996e-13
1.57092e-13
1.57088e-13
1.57158e-13
1.57008e-13
1.57083e-13
1.57084e-13
1.57116e-13
1.57052e-13
1.5702e-13
1.57039e-13
1.57113e-13
1.57105e-13
1.57061e-13
1.57113e-13
1.57079e-13
1.57108e-13
1.57019e-13
1.5697e-13
1.5702e-13
1.56954e-13
1.57063e-13
1.57051e-13
1.57085e-13
1.57113e-13
1.57039e-13
1.57008e-13
1.57106e-13
1.56992e-13
1.57106e-13
1.57053e-13
1.57074e-13
1.57153e-13
1.57068e-13
1.57107e-13
1.57015e-13
1.57114e-13
1.57059e-13
1.57153e-13
1.57092e-13
1.57039e-13
1.57001e-13
1.57203e-13
1.57048e-13
1.57009e-13
1.5702e-13
1.57e-13
1.57132e-13
1.57073e-13
-3.04551e-13
-3.047e-13
-3.04535e-13
-3.04553e-13
-3.04633e-13
-3.04547e-13
-3.04512e-13
-3.04493e-13
-3.04688e-13
-3.04636e-13
-3.04629e-13
-3.04466e-13
-3.04576e-13
-3.04541e-13
-3.04652e-13
-3.04572e-13
-3.04599e-13
-3.04646e-13
-3.04572e-13
-3.04494e-13
-3.04594e-13
-3.04665e-13
-3.04631e-13
-3.04725e-13
-3.046e-13
-3.04701e-13
-3.04585e-13
-3.046e-13
-3.04521e-13
-3.04585e-13
-3.04498e-13
-3.04568e-13
-3.04551e-13
-3.04523e-13
-3.04608e-13
-3.04616e-13
-3.04543e-13
-3.04537e-13
-3.04556e-13
-3.04551e-13
-3.04571e-13
-3.0454e-13
-3.04666e-13
-3.04652e-13
-3.04548e-13
-3.04611e-13
-3.04471e-13
-3.04645e-13
-3.04586e-13
-3.04729e-13
-3.04542e-13
-3.0455e-13
-3.04516e-13
-3.04744e-13
-3.04587e-13
-3.04513e-13
-3.04458e-13
-3.04498e-13
-3.04698e-13
-3.04519e-13
-2.86817e-13
-2.86543e-13
-2.86836e-13
-2.86641e-13
-2.86698e-13
-2.86776e-13
-2.86872e-13
-2.86848e-13
-2.86598e-13
-2.86768e-13
-2.86695e-13
-2.86788e-13
-2.86731e-13
-2.86799e-13
-2.86759e-13
-2.86908e-13
-2.86729e-13
-2.86727e-13
-2.86864e-13
-2.8678e-13
-2.86774e-13
-2.86501e-13
-2.86821e-13
-2.86631e-13
-2.86627e-13
-2.86687e-13
-2.86775e-13
-2.86761e-13
-2.86896e-13
-2.86696e-13
-2.86729e-13
-2.86643e-13
-2.86785e-13
-2.8683e-13
-2.86737e-13
-2.86671e-13
-2.86732e-13
-2.86766e-13
-2.86829e-13
-2.8682e-13
-2.86744e-13
-2.86727e-13
-2.86651e-13
-2.86707e-13
-2.86651e-13
-2.86825e-13
-2.86826e-13
-2.86756e-13
-2.86812e-13
-2.86688e-13
-2.86744e-13
-2.86669e-13
-2.86845e-13
-2.86654e-13
-2.86721e-13
-2.86786e-13
-2.86713e-13
-2.86679e-13
-2.86615e-13
-2.86808e-13
-7.7089e-14
-7.71808e-14
-7.69627e-14
-7.73183e-14
-7.71318e-14
-7.71821e-14
-7.69984e-14
-7.71168e-14
-7.70932e-14
-7.70406e-14
-7.72082e-14
-7.71625e-14
-7.7167e-14
-7.69438e-14
-7.7167e-14
-7.69299e-14
-7.7166e-14
-7.71682e-14
-7.69122e-14
-7.72016e-14
-7.71105e-14
-7.74023e-14
-7.68135e-14
-7.71902e-14
-7.73237e-14
-7.71234e-14
-7.71532e-14
-7.70064e-14
-7.70374e-14
-7.71121e-14
-7.70665e-14
-7.71716e-14
-7.70906e-14
-7.70232e-14
-7.71954e-14
-7.70627e-14
-7.7219e-14
-7.69304e-14
-7.70653e-14
-7.71983e-14
-7.7122e-14
-7.7107e-14
-7.71883e-14
-7.70926e-14
-7.74551e-14
-7.72236e-14
-7.704e-14
-7.72247e-14
-7.69375e-14
-7.70565e-14
-7.71883e-14
-7.73164e-14
-7.70612e-14
-7.71885e-14
-7.71309e-14
-7.70096e-14
-7.72123e-14
-7.7161e-14
-7.71515e-14
-7.7038e-14
2.06574e-15
2.06838e-15
1.93603e-15
2.08024e-15
2.08707e-15
2.00886e-15
1.87743e-15
2.02435e-15
1.8298e-15
1.826e-15
1.96618e-15
2.08747e-15
2.07122e-15
1.69722e-15
2.01038e-15
1.94951e-15
1.84057e-15
2.08966e-15
1.91487e-15
2.01328e-15
1.89542e-15
2.18643e-15
1.71504e-15
1.94972e-15
2.15636e-15
1.87333e-15
1.92366e-15
1.73923e-15
1.97823e-15
1.84708e-15
1.73941e-15
1.99251e-15
1.89742e-15
1.73099e-15
2.00704e-15
1.75008e-15
2.14025e-15
1.74888e-15
1.81598e-15
2.10564e-15
1.847e-15
2.01534e-15
2.05859e-15
1.91211e-15
2.34955e-15
2.12732e-15
1.81647e-15
1.96512e-15
1.68938e-15
1.89956e-15
1.84735e-15
1.98602e-15
2.04112e-15
2.22779e-15
2.06643e-15
1.94548e-15
1.8861e-15
1.72259e-15
2.00762e-15
1.95759e-15
-1.03998e-14
-1.04947e-14
-1.02589e-14
-1.01703e-14
-1.04208e-14
-1.04686e-14
-1.01188e-14
-1.04175e-14
-1.02902e-14
-1.0127e-14
-1.03582e-14
-1.06068e-14
-1.04694e-14
-1.02104e-14
-1.04027e-14
-1.04013e-14
-1.0197e-14
-1.04783e-14
-1.04834e-14
-1.042e-14
-1.03891e-14
-1.04726e-14
-1.02379e-14
-1.03025e-14
-1.04444e-14
-1.03664e-14
-1.01702e-14
-1.01953e-14
-1.04121e-14
-1.03095e-14
-1.01613e-14
-1.0147e-14
-1.02279e-14
-1.02263e-14
-1.0292e-14
-1.02415e-14
-1.04049e-14
-1.02463e-14
-1.00304e-14
-1.02238e-14
-1.00343e-14
-1.05034e-14
-1.03412e-14
-9.97353e-15
-1.05757e-14
-1.02758e-14
-1.0391e-14
-1.02765e-14
-1.00553e-14
-1.03942e-14
-1.02223e-14
-1.02534e-14
-1.04518e-14
-1.04854e-14
-1.04063e-14
-1.04178e-14
-1.03597e-14
-1.0128e-14
-1.03024e-14
-1.03681e-14
-2.25111e-14
-2.25033e-14
-2.27947e-14
-2.27753e-14
-2.25469e-14
-2.22372e-14
-2.25988e-14
-2.24032e-14
-2.2372e-14
-2.25115e-14
-2.25615e-14
-2.23736e-14
-2.23415e-14
-2.25777e-14
-2.25337e-14
-2.24478e-14
-2.25003e-14
-2.22561e-14
-2.23056e-14
-2.23707e-14
-2.21506e-14
-2.22817e-14
-2.26098e-14
-2.27804e-14
-2.22524e-14
-2.23807e-14
-2.27517e-14
-2.24421e-14
-2.22532e-14
-2.24054e-14
-2.26388e-14
-2.2753e-14
-2.24881e-14
-2.23282e-14
-2.25854e-14
-2.26845e-14
-2.24614e-14
-2.22992e-14
-2.2841e-14
-2.25511e-14
-2.2607e-14
-2.22242e-14
-2.28335e-14
-2.27535e-14
-2.23311e-14
-2.25486e-14
-2.23452e-14
-2.24433e-14
-2.25906e-14
-2.2514e-14
-2.25479e-14
-2.23433e-14
-2.22841e-14
-2.24743e-14
-2.23836e-14
-2.2584e-14
-2.22768e-14
-2.22881e-14
-2.28027e-14
-2.24444e-14
-1.87825e-14
-1.88396e-14
-1.86061e-14
-1.87328e-14
-1.88953e-14
-1.89983e-14
-1.90649e-14
-1.88299e-14
-1.89092e-14
-1.88854e-14
-1.91564e-14
-1.90293e-14
-1.90982e-14
-1.88566e-14
-1.90121e-14
-1.87826e-14
-1.91352e-14
-1.92384e-14
-1.89511e-14
-1.89595e-14
-1.942e-14
-1.90814e-14
-1.89657e-14
-1.86612e-14
-1.90836e-14
-1.89622e-14
-1.87344e-14
-1.89496e-14
-1.93582e-14
-1.89315e-14
-1.86939e-14
-1.87529e-14
-1.89923e-14
-1.95357e-14
-1.90721e-14
-1.90186e-14
-1.91723e-14
-1.88832e-14
-1.8684e-14
-1.91108e-14
-1.91432e-14
-1.90855e-14
-1.86361e-14
-1.87464e-14
-1.89178e-14
-1.8716e-14
-1.88251e-14
-1.91225e-14
-1.86287e-14
-1.89094e-14
-1.88502e-14
-1.91149e-14
-1.9064e-14
-1.90655e-14
-1.89255e-14
-1.86751e-14
-1.93066e-14
-1.92917e-14
-1.87113e-14
-1.89561e-14
-1.11622e-14
-1.08692e-14
-1.10353e-14
-1.06808e-14
-1.07978e-14
-1.0998e-14
-1.07917e-14
-1.11148e-14
-1.10196e-14
-1.07192e-14
-1.06219e-14
-1.07388e-14
-1.08507e-14
-1.10597e-14
-1.09943e-14
-1.09912e-14
-1.07368e-14
-1.08384e-14
-1.10106e-14
-1.11563e-14
-1.03471e-14
-1.09119e-14
-1.09657e-14
-1.08761e-14
-1.09956e-14
-1.09824e-14
-1.08314e-14
-1.09379e-14
-1.0605e-14
-1.06884e-14
-1.14906e-14
-1.09315e-14
-1.07408e-14
-1.04e-14
-1.05371e-14
-1.05401e-14
-1.07143e-14
-1.10536e-14
-1.09157e-14
-1.05711e-14
-1.07379e-14
-1.09243e-14
-1.0865e-14
-1.08306e-14
-1.10546e-14
-1.11085e-14
-1.10647e-14
-1.08688e-14
-1.11797e-14
-1.11327e-14
-1.10185e-14
-1.06123e-14
-1.0667e-14
-1.08746e-14
-1.05107e-14
-1.08919e-14
-1.08275e-14
-1.06188e-14
-1.09176e-14
-1.07598e-14
-4.67037e-15
-4.7322e-15
-4.68139e-15
-5.05048e-15
-4.5757e-15
-4.83898e-15
-4.66321e-15
-4.88277e-15
-4.58103e-15
-5.35506e-15
-5.11895e-15
-4.94177e-15
-4.78621e-15
-4.39472e-15
-4.84776e-15
-4.88603e-15
-4.70986e-15
-4.72864e-15
-4.88878e-15
-4.50514e-15
-5.20038e-15
-4.80384e-15
-4.71949e-15
-4.93113e-15
-4.59435e-15
-4.71377e-15
-4.98723e-15
-4.74621e-15
-4.77372e-15
-5.06245e-15
-4.36137e-15
-4.67725e-15
-5.02399e-15
-4.89903e-15
-4.89319e-15
-4.98452e-15
-4.84847e-15
-4.81531e-15
-4.89713e-15
-5.07176e-15
-4.7932e-15
-4.6115e-15
-4.78778e-15
-4.84791e-15
-4.60164e-15
-4.56365e-15
-4.85964e-15
-5.0764e-15
-4.68325e-15
-4.41675e-15
-4.63564e-15
-5.07969e-15
-4.83578e-15
-4.76919e-15
-5.10356e-15
-4.74056e-15
-4.704e-15
-4.77877e-15
-4.87455e-15
-4.89458e-15
-1.2201e-15
-1.67835e-15
-1.53748e-15
-1.55589e-15
-1.3977e-15
-1.59922e-15
-2.1223e-15
-1.37467e-15
-1.69667e-15
-1.19295e-15
-1.30338e-15
-1.38049e-15
-1.32351e-15
-2.10168e-15
-1.38096e-15
-1.46417e-15
-1.609e-15
-1.32659e-15
-1.43682e-15
-2.05644e-15
-9.825e-16
-1.5814e-15
-1.81742e-15
-1.40486e-15
-1.98041e-15
-1.74528e-15
-1.59894e-15
-1.54838e-15
-1.2969e-15
-1.5307e-15
-1.52558e-15
-1.80541e-15
-1.57457e-15
-1.29515e-15
-1.52365e-15
-1.46157e-15
-1.70315e-15
-1.18011e-15
-1.72539e-15
-1.67732e-15
-1.28269e-15
-1.65659e-15
-1.55872e-15
-1.4782e-15
-1.75077e-15
-1.82867e-15
-1.46625e-15
-1.05345e-15
-1.13164e-15
-1.95113e-15
-1.548e-15
-1.30837e-15
-1.852e-15
-1.45664e-15
-1.65012e-15
-1.4436e-15
-1.25327e-15
-1.56479e-15
-1.36335e-15
-1.18255e-15
-3.02752e-16
-5.2668e-17
-7.21311e-17
-3.40387e-16
-6.82283e-16
-4.22609e-17
3.22469e-16
3.16881e-17
3.09267e-16
-2.10239e-16
-9.30337e-17
-1.17049e-16
-4.69982e-16
-1.75705e-17
4.55457e-17
1.57486e-16
9.60481e-17
-5.26839e-17
-4.77101e-17
2.18704e-16
-4.2349e-16
-1.24254e-17
3.27918e-16
-3.67488e-16
3.79829e-16
2.89709e-17
2.82851e-16
-1.31743e-16
-3.73108e-17
7.72237e-17
-1.82266e-16
-8.49101e-17
-4.22885e-17
3.20427e-17
8.95405e-18
-2.23907e-16
2.18889e-16
-2.64787e-16
1.42594e-16
1.67301e-16
-2.29996e-16
2.47703e-16
-1.97493e-16
3.48595e-16
1.36438e-16
7.27455e-17
-1.51191e-16
-6.59923e-16
-6.91174e-16
2.28757e-16
6.53285e-17
-1.88905e-16
3.23036e-16
-2.31406e-17
-2.0718e-16
-5.08024e-16
-2.58276e-16
-3.42172e-16
-2.45391e-16
-3.60292e-16
8.1141e-16
3.09396e-16
4.31086e-16
6.39801e-16
6.39261e-16
5.26628e-16
2.60918e-16
5.30975e-16
-1.82628e-16
5.18821e-16
4.17189e-16
4.82039e-16
8.96598e-16
6.51664e-16
1.98418e-16
-1.76373e-16
4.89654e-16
9.2287e-17
3.01756e-16
4.04387e-16
5.70331e-16
3.77859e-16
2.42965e-16
5.11596e-16
2.55502e-16
5.99447e-16
4.91909e-18
8.56623e-16
7.10664e-17
8.45202e-16
7.51953e-16
6.51185e-16
2.70969e-16
-1.45422e-16
4.13838e-16
4.14654e-16
4.28695e-16
3.59246e-16
2.3036e-16
1.80905e-17
4.47136e-16
2.93563e-16
2.57306e-16
-8.72924e-17
4.15035e-16
6.78727e-16
3.8289e-16
8.73672e-16
1.0479e-15
4.41989e-16
1.23159e-16
5.21787e-16
1.61993e-16
6.62324e-16
7.77405e-16
9.6824e-16
4.06546e-16
2.71434e-16
4.10436e-16
5.71591e-16
1.96228e-16
1.46168e-16
4.37988e-16
2.44346e-16
7.18457e-16
6.13026e-16
6.70292e-16
3.79221e-16
1.03632e-15
3.80265e-16
4.95145e-16
4.57385e-16
2.0888e-16
-4.11326e-17
9.60459e-16
1.11541e-15
5.84548e-16
6.38003e-16
9.02351e-16
5.52893e-16
2.77898e-16
6.36595e-16
7.16492e-16
5.60384e-16
4.9025e-16
9.552e-16
9.38952e-16
2.56083e-16
1.02649e-15
-4.10172e-17
3.06569e-16
2.30447e-16
9.84673e-16
1.31861e-15
6.65448e-16
2.9694e-16
1.57473e-16
8.66543e-16
5.95547e-16
8.56803e-16
7.40789e-16
-8.02259e-17
8.50412e-16
7.41206e-16
1.04879e-15
2.61643e-16
3.1099e-16
5.53682e-16
-6.32115e-17
7.2464e-16
7.50916e-16
4.20561e-16
8.84842e-16
3.2144e-16
8.92422e-16
4.45981e-16
7.11922e-16
6.28786e-16
3.21374e-16
2.2707e-16
8.39804e-16
1.26353e-15
1.04187e-15
8.1937e-16
5.4449e-16
4.84277e-16
6.29163e-16
9.69558e-16
4.376e-16
1.105e-15
1.15207e-15
1.03097e-15
1.1745e-15
1.70041e-15
5.06894e-16
1.74891e-16
4.12394e-16
6.52237e-16
8.37672e-16
7.11273e-16
5.44433e-16
4.92897e-16
6.76051e-16
8.90053e-16
1.03519e-15
2.78219e-16
6.92493e-16
2.41409e-16
8.09402e-16
1.07317e-15
7.14841e-16
1.09713e-15
7.03548e-16
2.91028e-16
8.18824e-16
8.58553e-16
1.32181e-15
2.2877e-16
1.03534e-15
8.55079e-16
8.99369e-16
1.38104e-15
5.45677e-16
1.33904e-15
4.30407e-16
3.55289e-16
8.19684e-16
1.03561e-15
1.52655e-15
1.29853e-16
4.76633e-16
8.95738e-16
5.61496e-16
4.09163e-16
1.29852e-16
6.50647e-16
4.67963e-16
1.11902e-15
8.77021e-16
9.896e-16
4.69275e-16
6.5269e-16
3.66876e-16
5.89596e-16
2.26052e-16
6.92192e-16
1.05044e-15
7.02244e-16
1.84939e-16
7.98298e-16
3.63131e-16
8.35282e-16
1.04304e-17
-3.5482e-16
4.17803e-16
7.83791e-16
5.92005e-16
8.37636e-16
3.79737e-16
2.24239e-16
2.93353e-16
6.90342e-16
1.87245e-16
9.8824e-16
2.45766e-16
9.86572e-16
5.83059e-16
1.16203e-15
2.13296e-16
5.84209e-16
1.13994e-15
7.67576e-16
1.09491e-16
6.82812e-16
3.76761e-16
2.97455e-16
-7.12773e-16
6.60663e-16
6.1566e-17
-1.63449e-16
4.58736e-16
3.81014e-16
7.11021e-16
-2.24193e-17
7.62036e-16
1.47725e-15
4.80784e-16
4.55758e-16
-1.00301e-16
6.86212e-16
7.75433e-16
4.34593e-16
2.03559e-16
8.50103e-16
5.79897e-16
5.71457e-16
2.74612e-16
8.3153e-17
2.97299e-16
9.21556e-16
5.58662e-16
5.71311e-16
4.08739e-16
9.33913e-17
1.11305e-15
4.90042e-16
1.48609e-18
7.18791e-16
7.9426e-16
2.02904e-16
4.46156e-16
7.05527e-16
-2.37309e-16
6.04399e-16
1.11004e-15
4.2321e-16
7.6951e-16
-2.05888e-16
5.6262e-16
2.9979e-16
6.53524e-16
1.08147e-15
1.4968e-15
3.38871e-16
-2.20807e-16
9.0249e-16
5.98123e-16
7.19343e-16
3.53895e-16
4.43216e-16
3.10361e-16
3.1273e-17
7.58445e-16
6.28512e-16
1.75355e-16
5.52485e-16
1.2601e-15
6.79079e-16
6.8772e-16
1.19065e-15
6.09138e-16
7.25283e-16
4.55171e-16
4.12741e-16
2.9452e-16
-7.92768e-17
8.42625e-16
6.88827e-16
7.30135e-16
1.20017e-15
2.9375e-16
2.90298e-16
8.50386e-16
4.81043e-16
5.1113e-16
7.46617e-16
8.49492e-16
7.32601e-16
1.08704e-15
1.56623e-16
7.42563e-16
3.21642e-16
5.79159e-16
1.1732e-15
4.74052e-16
2.84751e-16
9.87489e-16
-2.61271e-16
8.1037e-16
6.7677e-16
8.88396e-16
-5.73675e-17
1.4677e-15
5.45843e-16
3.16817e-16
1.28564e-15
7.92118e-16
7.35606e-16
9.21535e-17
7.92923e-16
7.09329e-16
-5.03576e-16
1.04584e-16
3.16873e-16
1.42285e-15
9.59071e-17
2.80274e-17
-4.03573e-17
5.43312e-16
6.48616e-16
2.34956e-16
7.72636e-16
-1.88936e-16
-8.56149e-17
1.3363e-15
1.27757e-16
-1.11909e-16
8.68825e-17
5.77753e-16
4.51977e-16
2.81381e-16
5.92644e-17
7.66387e-16
4.47196e-16
1.04272e-15
7.48715e-16
5.37843e-16
4.08088e-16
6.41921e-16
-1.66605e-17