/*--------------------------------*- C++ -*----------------------------------*\
| =========                 |                                                 |
| \\      /  F ield         | foam-extend: Open Source CFD                    |
|  \\    /   O peration     | Version:     4.0                                |
|   \\  /    A nd           | Web:         http://www.foam-extend.org         |
|    \\/     M anipulation  |                                                 |
\*---------------------------------------------------------------------------*/
FoamFile
{
    version     2.0;
    format      ascii;
    class       surfaceScalarField;
    location    "25";
    object      phi;
}
// * * * * * * * * * * * * * * * * * * * * * * * * * * * * * * * * * * * * * //

dimensions      [0 3 -1 0 0 0 0];

internalField   nonuniform List<scalar> 
13744
(
-5.31416e-09
5.31322e-09
5.84217e-09
-1.11563e-08
2.27978e-09
3.56238e-09
1.84786e-09
4.31925e-10
1.42223e-09
4.25624e-10
1.04548e-09
3.7675e-10
7.31712e-10
3.1377e-10
4.80982e-10
2.5073e-10
2.85316e-10
1.95667e-10
1.34748e-10
1.50567e-10
1.99629e-11
1.14785e-10
-6.67724e-11
8.67351e-11
-1.31512e-10
6.47402e-11
-1.7886e-10
4.7348e-11
-2.12277e-10
3.34165e-11
-2.34365e-10
2.20873e-11
-2.47104e-10
1.27391e-11
-2.52022e-10
4.91795e-12
-2.50331e-10
-1.69098e-12
-2.43014e-10
-7.31626e-12
-2.30888e-10
-1.21248e-11
-2.14656e-10
-1.62321e-11
-1.9493e-10
-1.97253e-11
-1.72257e-10
-2.26713e-11
-1.47135e-10
-2.51215e-11
-1.20026e-10
-2.711e-11
-9.13566e-11
-2.86695e-11
-6.15366e-11
-2.98177e-11
-3.0959e-11
-3.05774e-11
-5.0182e-15
-3.09561e-11
3.0953e-11
-3.09587e-11
6.15265e-11
-3.05743e-11
9.13487e-11
-2.98201e-11
1.20021e-10
-2.8672e-11
1.47127e-10
-2.71073e-11
1.72251e-10
-2.51242e-11
1.94927e-10
-2.2677e-11
2.1465e-10
-1.97223e-11
2.30886e-10
-1.62361e-11
2.43014e-10
-1.21294e-11
2.50328e-10
-7.31226e-12
2.52023e-10
-1.69337e-12
2.47108e-10
4.91562e-12
2.34367e-10
1.27394e-11
2.12282e-10
2.20848e-11
1.78869e-10
3.34119e-11
1.31517e-10
4.73534e-11
6.67811e-11
6.47365e-11
-1.9951e-11
8.67331e-11
-1.34739e-10
1.14788e-10
-2.85304e-10
1.50563e-10
-4.80967e-10
1.95665e-10
-7.31701e-10
2.50735e-10
-1.04547e-09
3.1377e-10
-1.42222e-09
3.76749e-10
-1.84785e-09
4.25632e-10
-2.27978e-09
4.31923e-10
-5.84216e-09
3.56238e-09
5.31416e-09
-1.11563e-08
5.31416e-09
3.88182e-08
-3.3505e-08
1.18483e-08
1.58136e-08
6.91212e-09
8.49859e-09
5.61541e-09
1.72864e-09
4.328e-09
1.71305e-09
3.18566e-09
1.51908e-09
2.2324e-09
1.26703e-09
1.46976e-09
1.01337e-09
8.73859e-10
7.91564e-10
4.1495e-10
6.09478e-10
6.48025e-11
4.64933e-10
-1.99936e-10
3.51472e-10
-3.97676e-10
2.62479e-10
-5.4238e-10
1.92055e-10
-6.44598e-10
1.35633e-10
-7.12245e-10
8.97364e-11
-7.51357e-10
5.18494e-11
-7.66599e-10
2.01586e-11
-7.61667e-10
-6.62148e-12
-7.39555e-10
-2.94311e-11
-7.0277e-10
-4.89123e-11
-6.53446e-10
-6.55574e-11
-5.93456e-10
-7.97175e-11
-5.24472e-10
-9.16595e-11
-4.48014e-10
-1.01581e-10
-3.65483e-10
-1.0964e-10
-2.78196e-10
-1.15954e-10
-1.87395e-10
-1.20622e-10
-9.42771e-11
-1.23694e-10
-1.20195e-14
-1.25216e-10
9.42475e-11
-1.25219e-10
1.87376e-10
-1.23704e-10
2.78172e-10
-1.20618e-10
3.65455e-10
-1.15955e-10
4.48e-10
-1.09652e-10
5.24455e-10
-1.01578e-10
5.93435e-10
-9.16556e-11
6.53442e-10
-7.97281e-11
7.02762e-10
-6.55551e-11
7.39545e-10
-4.89107e-11
7.61672e-10
-2.94412e-11
7.66603e-10
-6.6252e-12
7.51359e-10
2.01546e-11
7.12264e-10
5.18392e-11
6.44615e-10
8.97334e-11
5.42395e-10
1.35635e-10
3.97706e-10
1.9204e-10
1.99962e-10
2.62482e-10
-6.47788e-11
3.51471e-10
-4.14911e-10
4.64919e-10
-8.73823e-10
6.09475e-10
-1.46972e-09
7.91562e-10
-2.23235e-09
1.01336e-09
-3.18562e-09
1.26704e-09
-4.32796e-09
1.51909e-09
-5.61537e-09
1.71304e-09
-6.9121e-09
1.72865e-09
-1.18483e-08
8.4986e-09
-3.88182e-08
1.58136e-08
-3.35041e-08
3.09278e-08
-6.44328e-08
2.00364e-08
2.6705e-08
1.15966e-08
1.69384e-08
9.45025e-09
3.87501e-09
7.29706e-09
3.86623e-09
5.37979e-09
3.43636e-09
3.77613e-09
2.8707e-09
2.49101e-09
2.29848e-09
1.4854e-09
1.79717e-09
7.10099e-10
1.38478e-09
1.17929e-10
1.0571e-09
-3.30166e-10
7.99572e-10
-6.65144e-10
5.97458e-10
-9.1048e-10
4.3739e-10
-1.08397e-09
3.09124e-10
-1.19896e-09
2.04722e-10
-1.26566e-09
1.18555e-10
-1.29196e-09
4.64543e-11
-1.2841e-09
-1.44836e-11
-1.24715e-09
-6.63736e-11
-1.18537e-09
-1.10696e-10
-1.10235e-09
-1.48571e-10
-1.00128e-09
-1.80789e-10
-8.84983e-10
-2.07955e-10
-7.5603e-10
-2.30532e-10
-6.16798e-10
-2.48876e-10
-4.6951e-10
-2.63245e-10
-3.16276e-10
-2.73856e-10
-1.59121e-10
-2.80853e-10
-2.17199e-14
-2.84318e-10
1.59077e-10
-2.84314e-10
3.16237e-10
-2.80859e-10
4.6947e-10
-2.73848e-10
6.16757e-10
-2.63241e-10
7.55999e-10
-2.48894e-10
8.84953e-10
-2.30533e-10
1.00125e-09
-2.07959e-10
1.10234e-09
-1.80814e-10
1.18536e-09
-1.48576e-10
1.24714e-09
-1.10702e-10
1.2841e-09
-6.63978e-11
1.29196e-09
-1.44885e-11
1.26567e-09
4.64478e-11
1.19899e-09
1.18527e-10
1.084e-09
2.0472e-10
9.10512e-10
3.09118e-10
6.65187e-10
4.37366e-10
3.30211e-10
5.97453e-10
-1.17882e-10
7.99563e-10
-7.1004e-10
1.05708e-09
-1.48534e-09
1.38478e-09
-2.49095e-09
1.79717e-09
-3.77606e-09
2.29847e-09
-5.37972e-09
2.87071e-09
-7.297e-09
3.43637e-09
-9.4502e-09
3.86623e-09
-1.15966e-08
3.87503e-09
-2.00364e-08
1.69384e-08
-3.09278e-08
2.6705e-08
-6.44319e-08
1.74388e-08
-8.18717e-08
2.35372e-08
2.06065e-08
1.62485e-08
2.42271e-08
1.32897e-08
6.83384e-09
1.02841e-08
6.8718e-09
7.59649e-09
6.12397e-09
5.34241e-09
5.12477e-09
3.53241e-09
4.10848e-09
2.11366e-09
3.21593e-09
1.01831e-09
2.48012e-09
1.80689e-10
1.89473e-09
-4.53793e-10
1.43405e-09
-9.28575e-10
1.07224e-09
-1.27665e-09
7.85467e-10
-1.52311e-09
5.55578e-10
-1.68676e-09
3.6839e-10
-1.78206e-09
2.13843e-10
-1.82012e-09
8.45151e-11
-1.80981e-09
-2.4792e-11
-1.75831e-09
-1.17875e-10
-1.67161e-09
-1.97396e-10
-1.55485e-09
-2.65331e-10
-1.41251e-09
-3.23127e-10
-1.2486e-09
-3.71861e-10
-1.06677e-09
-4.12366e-10
-8.70373e-10
-4.45263e-10
-6.6257e-10
-4.71048e-10
-4.46343e-10
-4.9008e-10
-2.24565e-10
-5.02629e-10
-3.09074e-14
-5.08855e-10
2.24506e-10
-5.08854e-10
4.46285e-10
-5.02642e-10
6.62513e-10
-4.90081e-10
8.7032e-10
-4.7105e-10
1.06672e-09
-4.4529e-10
1.24856e-09
-4.12377e-10
1.41247e-09
-3.71873e-10
1.55482e-09
-3.23162e-10
1.67159e-09
-2.65343e-10
1.7583e-09
-1.97403e-10
1.80981e-09
-1.17907e-10
1.82013e-09
-2.48073e-11
1.78208e-09
8.44963e-11
1.6868e-09
2.13805e-10
1.52315e-09
3.68373e-10
1.2767e-09
5.55568e-10
9.28631e-10
7.85436e-10
4.53856e-10
1.07223e-09
-1.80618e-10
1.43404e-09
-1.01823e-09
1.89469e-09
-2.11357e-09
2.48012e-09
-3.53232e-09
3.21592e-09
-5.34231e-09
4.10846e-09
-7.5964e-09
5.12479e-09
-1.0284e-08
6.124e-09
-1.32896e-08
6.8718e-09
-1.62484e-08
6.83389e-09
-2.35372e-08
2.42272e-08
-1.74388e-08
2.06066e-08
-8.18707e-08
1.93347e-08
-1.01206e-07
2.59134e-08
1.40279e-08
2.08279e-08
2.93126e-08
1.70986e-08
1.05632e-08
1.32639e-08
1.07064e-08
9.8186e-09
9.56932e-09
6.9202e-09
8.02318e-09
4.58748e-09
6.4412e-09
2.75546e-09
5.04795e-09
1.33885e-09
3.89674e-09
2.5407e-10
2.9795e-09
-5.68586e-10
2.25671e-09
-1.18486e-09
1.68852e-09
-1.63719e-09
1.2378e-09
-1.95791e-09
8.76291e-10
-2.17133e-09
5.81801e-10
-2.29611e-09
3.38624e-10
-2.34667e-09
1.35077e-10
-2.33449e-09
-3.69646e-11
-2.26888e-09
-1.83486e-10
-2.15761e-09
-3.08654e-10
-2.00735e-09
-4.156e-10
-1.8239e-09
-5.06572e-10
-1.61248e-09
-5.8329e-10
-1.37781e-09
-6.47036e-10
-1.12425e-09
-6.98825e-10
-8.55884e-10
-7.39409e-10
-5.76595e-10
-7.69372e-10
-2.90105e-10
-7.89118e-10
-3.93e-14
-7.98916e-10
2.90029e-10
-7.98919e-10
5.7652e-10
-7.89133e-10
8.5581e-10
-7.69367e-10
1.12418e-09
-7.39414e-10
1.37774e-09
-6.98862e-10
1.61243e-09
-6.47048e-10
1.82386e-09
-5.83308e-10
2.00731e-09
-5.06616e-10
2.15759e-09
-4.15624e-10
2.26886e-09
-3.08672e-10
2.33449e-09
-1.83535e-10
2.34668e-09
-3.6993e-11
2.29613e-09
1.35049e-10
2.17137e-09
3.38575e-10
1.95796e-09
5.81771e-10
1.63726e-09
8.76265e-10
1.18494e-09
1.23776e-09
5.68668e-10
1.6885e-09
-2.53979e-10
2.25669e-09
-1.33874e-09
2.97946e-09
-2.75535e-09
3.89672e-09
-4.58736e-09
5.04793e-09
-6.92008e-09
6.44118e-09
-9.81848e-09
8.02319e-09
-1.32638e-08
9.56934e-09
-1.70985e-08
1.07064e-08
-2.08279e-08
1.05633e-08
-2.59133e-08
2.93126e-08
-1.93347e-08
1.40279e-08
-1.01205e-07
2.54087e-08
-1.26615e-07
2.98005e-08
9.636e-09
2.52992e-08
3.38139e-08
2.08471e-08
1.50153e-08
1.6215e-08
1.53385e-08
1.20314e-08
1.37529e-08
8.50011e-09
1.15545e-08
5.65073e-09
9.29059e-09
3.40821e-09
7.29047e-09
1.67114e-09
5.63381e-09
3.38991e-10
4.31165e-09
-6.72577e-10
3.26828e-09
-1.4313e-09
2.44724e-09
-1.98888e-09
1.79538e-09
-2.38483e-09
1.27224e-09
-2.64891e-09
8.45883e-10
-2.80401e-09
4.93721e-10
-2.86782e-09
1.98882e-10
-2.85445e-09
-5.03402e-11
-2.77533e-09
-2.626e-10
-2.64006e-09
-4.43933e-10
-2.45679e-09
-5.98866e-10
-2.23271e-09
-7.30654e-10
-1.9742e-09
-8.41796e-10
-1.68709e-09
-9.34152e-10
-1.37674e-09
-1.00918e-09
-1.04818e-09
-1.06796e-09
-7.06177e-10
-1.11137e-09
-3.55312e-10
-1.13998e-09
-4.7768e-14
-1.15418e-09
3.55218e-10
-1.15419e-09
7.06085e-10
-1.14e-09
1.04809e-09
-1.11137e-09
1.37666e-09
-1.06798e-09
1.68702e-09
-1.00922e-09
1.97414e-09
-9.34177e-10
2.23266e-09
-8.41825e-10
2.45675e-09
-7.30713e-10
2.64003e-09
-5.98899e-10
2.77532e-09
-4.43966e-10
2.85444e-09
-2.62654e-10
2.86783e-09
-5.03853e-11
2.80404e-09
1.98833e-10
2.64896e-09
4.93651e-10
2.3849e-09
8.45842e-10
1.98896e-09
1.2722e-09
1.43139e-09
1.79533e-09
6.72677e-10
2.44721e-09
-3.3888e-10
3.26824e-09
-1.67102e-09
4.3116e-09
-3.40807e-09
5.63378e-09
-5.65059e-09
7.29045e-09
-8.49996e-09
9.29056e-09
-1.20313e-08
1.15545e-08
-1.62149e-08
1.37529e-08
-2.0847e-08
1.53386e-08
-2.52991e-08
1.50154e-08
-2.98005e-08
3.3814e-08
-2.54087e-08
9.63609e-09
-1.26614e-07
2.8968e-08
-1.55583e-07
3.42858e-08
4.31826e-09
2.96208e-08
3.84789e-08
2.45051e-08
2.0131e-08
1.91154e-08
2.07283e-08
1.42201e-08
1.86482e-08
1.00725e-08
1.5702e-08
6.71657e-09
1.26465e-08
4.06919e-09
9.93785e-09
2.0146e-09
7.6884e-09
4.36364e-10
5.88989e-09
-7.63778e-10
4.46842e-09
-1.66514e-09
3.3486e-09
-2.32846e-09
2.4587e-09
-2.80028e-09
1.74406e-09
-3.11574e-09
1.16134e-09
-3.30189e-09
6.79878e-10
-3.37971e-09
2.76703e-10
-3.36592e-09
-6.41282e-11
-3.27408e-09
-3.5444e-10
-3.11556e-09
-6.02454e-10
-2.90007e-09
-8.14352e-10
-2.63612e-09
-9.94605e-10
-2.3313e-09
-1.14661e-09
-1.99252e-09
-1.27293e-09
-1.62616e-09
-1.37555e-09
-1.23817e-09
-1.45596e-09
-8.34218e-10
-1.51532e-09
-4.19749e-10
-1.55445e-09
-5.63668e-14
-1.57388e-09
4.19637e-10
-1.57388e-09
8.3411e-10
-1.55447e-09
1.23806e-09
-1.51533e-09
1.62606e-09
-1.45597e-09
1.99244e-09
-1.3756e-09
2.33123e-09
-1.27296e-09
2.63606e-09
-1.14666e-09
2.90003e-09
-9.94682e-10
3.11553e-09
-8.14402e-10
3.27406e-09
-6.02495e-10
3.36592e-09
-3.54519e-10
3.37973e-09
-6.41984e-11
3.30193e-09
2.76633e-10
3.11579e-09
6.79783e-10
2.80036e-09
1.16128e-09
2.32855e-09
1.74401e-09
1.66525e-09
2.45863e-09
7.63896e-10
3.34856e-09
-4.36232e-10
4.46837e-09
-2.01445e-09
5.88981e-09
-4.06903e-09
7.68835e-09
-6.71639e-09
9.93781e-09
-1.00724e-08
1.26465e-08
-1.42199e-08
1.57021e-08
-1.91152e-08
1.86483e-08
-2.4505e-08
2.07284e-08
-2.96207e-08
2.01311e-08
-3.42857e-08
3.8479e-08
-2.8968e-08
4.3184e-09
-1.55582e-07
3.09638e-08
-1.86547e-07
3.83929e-08
-3.11082e-09
3.37511e-08
4.31206e-08
2.8042e-08
2.58401e-08
2.19428e-08
2.68274e-08
1.63693e-08
2.42217e-08
1.16277e-08
2.04436e-08
7.77927e-09
1.6495e-08
4.73564e-09
1.29815e-08
2.36859e-09
1.00554e-08
5.47086e-10
7.71139e-09
-8.40199e-10
5.8557e-09
-1.88363e-09
4.39204e-09
-2.65265e-09
3.22772e-09
-3.20063e-09
2.29204e-09
-3.56798e-09
1.52868e-09
-3.78587e-09
8.97767e-10
-3.87848e-09
3.69312e-10
-3.86513e-09
-7.74865e-11
-3.7615e-09
-4.58067e-10
-3.58073e-09
-7.83213e-10
-3.33406e-09
-1.06103e-09
-3.03132e-09
-1.29734e-09
-2.6813e-09
-1.49663e-09
-2.292e-09
-1.66224e-09
-1.87078e-09
-1.79676e-09
-1.42454e-09
-1.90219e-09
-9.59845e-10
-1.98002e-09
-4.82977e-10
-2.03132e-09
-6.4835e-14
-2.05678e-09
4.82848e-10
-2.0568e-09
9.5972e-10
-2.03134e-09
1.42442e-09
-1.98002e-09
1.87066e-09
-1.90222e-09
2.2919e-09
-1.79683e-09
2.68121e-09
-1.66228e-09
3.03125e-09
-1.49669e-09
3.33401e-09
-1.29744e-09
3.5807e-09
-1.0611e-09
3.76148e-09
-7.8327e-10
3.86513e-09
-4.58164e-10
3.8785e-09
-7.75657e-11
3.78592e-09
3.69227e-10
3.56805e-09
8.97655e-10
3.20072e-09
1.5286e-09
2.65275e-09
2.29198e-09
1.88376e-09
3.22762e-09
8.40335e-10
4.39198e-09
-5.46934e-10
5.85564e-09
-2.36842e-09
7.71131e-09
-4.73545e-09
1.00554e-08
-7.77907e-09
1.29814e-08
-1.16275e-08
1.6495e-08
-1.63691e-08
2.04436e-08
-2.19426e-08
2.42218e-08
-2.80418e-08
2.68275e-08
-3.3751e-08
2.58402e-08
-3.83928e-08
4.31208e-08
-3.09637e-08
-3.11064e-09
-1.86546e-07
3.28544e-08
-2.19401e-07
4.20189e-08
-1.22753e-08
3.76496e-08
4.74899e-08
3.14265e-08
3.20632e-08
2.46749e-08
3.3579e-08
1.84637e-08
3.04329e-08
1.31557e-08
2.57516e-08
8.83298e-09
2.08177e-08
5.40471e-09
1.64097e-08
2.73244e-09
1.27277e-08
6.72035e-10
9.7718e-09
-8.99853e-10
7.42759e-09
-2.084e-09
5.57619e-09
-2.95814e-09
4.10185e-09
-3.58224e-09
2.91615e-09
-4.0018e-09
1.94824e-09
-4.25201e-09
1.14797e-09
-4.36021e-09
4.77509e-10
-4.34826e-09
-8.9426e-11
-4.23393e-09
-5.72393e-10
-4.03213e-09
-9.85021e-10
-3.75558e-09
-1.33758e-09
-3.41544e-09
-1.63747e-09
-3.02169e-09
-1.89038e-09
-2.58338e-09
-2.10055e-09
-2.10887e-09
-2.27128e-09
-1.60599e-09
-2.40506e-09
-1.08217e-09
-2.50384e-09
-5.4455e-10
-2.56895e-09
-7.30572e-14
-2.60127e-09
5.44405e-10
-2.60127e-09
1.08203e-09
-2.56897e-09
1.60585e-09
-2.50385e-09
2.10874e-09
-2.4051e-09
2.58326e-09
-2.27136e-09
3.02159e-09
-2.10061e-09
3.41536e-09
-1.89046e-09
3.75552e-09
-1.6376e-09
4.03209e-09
-1.33767e-09
4.23391e-09
-9.85095e-10
4.34826e-09
-5.72513e-10
4.36023e-09
-8.95366e-11
4.25206e-09
4.77394e-10
4.00187e-09
1.14784e-09
3.58234e-09
1.94815e-09
2.95826e-09
2.91606e-09
2.08414e-09
4.10175e-09
9.00006e-10
5.57612e-09
-6.71863e-10
7.42751e-09
-2.73225e-09
9.77168e-09
-5.4045e-09
1.27276e-08
-8.83276e-09
1.64097e-08
-1.31555e-08
2.08177e-08
-1.84635e-08
2.57516e-08
-2.46747e-08
3.0433e-08
-3.14263e-08
3.35791e-08
-3.76495e-08
3.20634e-08
-4.20188e-08
4.74902e-08
-3.28543e-08
-1.22751e-08
-2.194e-07
3.47438e-08
-2.54145e-07
4.52812e-08
-2.28127e-08
4.12766e-08
5.14945e-08
3.46274e-08
3.87124e-08
2.72889e-08
4.09176e-08
2.04877e-08
3.72341e-08
1.46464e-08
3.15929e-08
9.87171e-09
2.55924e-08
6.07345e-09
2.0208e-08
3.10539e-09
1.56958e-08
8.12057e-10
1.20651e-08
-9.40756e-10
9.18041e-09
-2.26347e-09
6.89891e-09
-3.2416e-09
5.07998e-09
-3.94141e-09
3.61596e-09
-4.4133e-09
2.42012e-09
-4.69633e-09
1.43101e-09
-4.82092e-09
6.02105e-10
-4.81144e-09
-9.89174e-11
-4.68768e-09
-6.96149e-10
-4.46628e-09
-1.20642e-09
-4.16143e-09
-1.64243e-09
-3.78561e-09
-2.0133e-09
-3.34993e-09
-2.32607e-09
-2.8645e-09
-2.58597e-09
-2.33868e-09
-2.7971e-09
-1.78118e-09
-2.96256e-09
-1.2003e-09
-3.08472e-09
-6.04019e-10
-3.16523e-09
-8.09755e-14
-3.2052e-09
6.03859e-10
-3.20521e-09
1.20015e-09
-3.16525e-09
1.78103e-09
-3.08473e-09
2.33853e-09
-2.96261e-09
2.86438e-09
-2.79721e-09
3.34982e-09
-2.58605e-09
3.78552e-09
-2.32616e-09
4.16136e-09
-2.01344e-09
4.46623e-09
-1.64254e-09
4.68766e-09
-1.20652e-09
4.81144e-09
-6.96298e-10
4.82095e-09
-9.90484e-11
4.69638e-09
6.01958e-10
4.41338e-09
1.43084e-09
3.94152e-09
2.42e-09
3.24173e-09
3.61586e-09
2.26362e-09
5.07986e-09
9.40926e-10
6.89881e-09
-8.11867e-10
9.18031e-09
-3.10518e-09
1.2065e-08
-6.07322e-09
1.56957e-08
-9.87146e-09
2.02079e-08
-1.46461e-08
2.55924e-08
-2.04874e-08
3.15929e-08
-2.72886e-08
3.72342e-08
-3.46272e-08
4.09177e-08
-4.12764e-08
3.87126e-08
-4.52811e-08
5.14948e-08
-3.47438e-08
-2.28124e-08
-2.54144e-07
3.63616e-08
-2.90507e-07
4.81822e-08
-3.46333e-08
4.45926e-08
5.50842e-08
3.76135e-08
4.56915e-08
2.97619e-08
4.87692e-08
2.24254e-08
4.45706e-08
1.60895e-08
3.79288e-08
1.08893e-08
3.07925e-08
6.73882e-09
2.43585e-08
3.48664e-09
1.8948e-08
9.67953e-10
1.45838e-08
-9.60961e-10
1.11093e-08
-2.41928e-09
8.35722e-09
-3.49973e-09
6.16044e-09
-4.27449e-09
4.39072e-09
-4.79859e-09
2.94423e-09
-5.11487e-09
1.74729e-09
-5.25668e-09
7.43911e-10
-5.25081e-09
-1.0479e-10
-5.11905e-09
-8.2791e-10
-4.8797e-09
-1.44577e-09
-4.54841e-09
-1.97372e-09
-4.13892e-09
-2.42279e-09
-3.66348e-09
-2.80151e-09
-3.13323e-09
-3.11622e-09
-2.55845e-09
-3.37187e-09
-1.94878e-09
-3.57223e-09
-1.31335e-09
-3.72015e-09
-6.60934e-10
-3.81764e-09
-8.8547e-14
-3.86605e-09
6.60759e-10
-3.86606e-09
1.31318e-09
-3.81767e-09
1.94861e-09
-3.72017e-09
2.55829e-09
-3.57228e-09
3.13309e-09
-3.372e-09
3.66336e-09
-3.11632e-09
4.13882e-09
-2.80163e-09
4.54834e-09
-2.42296e-09
4.87965e-09
-1.97385e-09
5.11902e-09
-1.44589e-09
5.25081e-09
-8.28088e-10
5.25671e-09
-1.04954e-10
5.11493e-09
7.43741e-10
4.79869e-09
1.74709e-09
4.2746e-09
2.94408e-09
3.49987e-09
4.39059e-09
2.41944e-09
6.16028e-09
9.61148e-10
8.35711e-09
-9.67745e-10
1.11092e-08
-3.48641e-09
1.45837e-08
-6.73857e-09
1.89478e-08
-1.08891e-08
2.43584e-08
-1.60892e-08
3.07925e-08
-2.24251e-08
3.79289e-08
-2.97616e-08
4.45707e-08
-3.76133e-08
4.87694e-08
-4.45924e-08
4.56917e-08
-4.81821e-08
5.50845e-08
-3.63616e-08
-3.4633e-08
-2.90505e-07
3.76009e-08
-3.28108e-07
5.06617e-08
-4.76941e-08
4.75595e-08
5.81863e-08
4.03545e-08
5.28964e-08
3.20716e-08
5.70521e-08
2.42613e-08
5.23808e-08
1.74748e-08
4.47153e-08
1.18798e-08
3.63875e-08
7.39776e-09
2.88406e-08
3.87533e-09
2.24704e-08
1.14046e-09
1.73187e-08
-9.58601e-10
1.32084e-08
-2.54875e-09
9.94737e-09
-3.7293e-09
7.34097e-09
-4.57788e-09
5.23931e-09
-5.15392e-09
3.52027e-09
-5.50377e-09
2.09714e-09
-5.66363e-09
9.03781e-10
-5.66261e-09
-1.05803e-10
-5.52443e-09
-9.66098e-10
-5.26902e-09
-1.70119e-09
-4.91341e-09
-2.32932e-09
-4.47258e-09
-2.86361e-09
-3.95987e-09
-3.31422e-09
-3.38744e-09
-3.68866e-09
-2.76648e-09
-3.99284e-09
-2.10749e-09
-4.23122e-09
-1.42043e-09
-4.40721e-09
-7.14858e-10
-4.52321e-09
-9.57337e-14
-4.58081e-09
7.14668e-10
-4.58082e-09
1.42024e-09
-4.52325e-09
2.10731e-09
-4.40723e-09
2.76631e-09
-4.23129e-09
3.38729e-09
-3.99298e-09
3.95974e-09
-3.68878e-09
4.47247e-09
-3.31436e-09
4.91333e-09
-2.86382e-09
5.26896e-09
-2.32947e-09
5.5244e-09
-1.70133e-09
5.66261e-09
-9.66301e-10
5.66366e-09
-1.05996e-10
5.50383e-09
9.0357e-10
5.15402e-09
2.0969e-09
4.57801e-09
3.52009e-09
3.72945e-09
5.23915e-09
2.54893e-09
7.3408e-09
9.58803e-10
9.94723e-09
-1.14023e-09
1.32082e-08
-3.87508e-09
1.73185e-08
-7.39749e-09
2.24702e-08
-1.18795e-08
2.88405e-08
-1.74745e-08
3.63875e-08
-2.4261e-08
4.47154e-08
-3.20713e-08
5.2381e-08
-4.03543e-08
5.70523e-08
-4.75593e-08
5.28968e-08
-5.06615e-08
5.81867e-08
-3.76008e-08
-4.76937e-08
-3.28106e-07
3.84602e-08
-3.66568e-07
5.26703e-08
-6.19042e-08
5.01419e-08
6.07147e-08
4.28219e-08
6.02165e-08
3.41969e-08
6.56771e-08
2.59807e-08
6.0597e-08
1.87927e-08
5.19033e-08
1.28373e-08
4.2343e-08
8.04729e-09
3.36306e-08
4.27059e-09
2.62471e-08
1.3302e-09
2.02591e-08
-9.31946e-10
1.54705e-08
-2.64941e-09
1.16648e-08
-3.92729e-09
8.61886e-09
-4.84824e-09
6.16024e-09
-5.4757e-09
4.14772e-09
-5.85936e-09
2.48081e-09
-6.03812e-09
1.08253e-09
-6.04329e-09
-1.0064e-10
-5.90042e-09
-1.10896e-09
-5.63102e-09
-1.97059e-09
-5.25347e-09
-2.70687e-09
-4.78392e-09
-3.33317e-09
-4.23677e-09
-3.86136e-09
-3.62515e-09
-4.30028e-09
-2.96115e-09
-4.65684e-09
-2.25609e-09
-4.93628e-09
-1.52072e-09
-5.14258e-09
-7.65374e-10
-5.27857e-09
-1.02465e-13
-5.34608e-09
7.65171e-10
-5.34609e-09
1.52052e-09
-5.2786e-09
2.2559e-09
-5.14262e-09
2.96097e-09
-4.93636e-09
3.62499e-09
-4.657e-09
4.23663e-09
-4.30041e-09
4.7838e-09
-3.86153e-09
5.25338e-09
-3.3334e-09
5.63096e-09
-2.70705e-09
5.90039e-09
-1.97076e-09
6.04329e-09
-1.1092e-09
6.03815e-09
-1.00866e-10
5.85943e-09
1.08229e-09
5.4758e-09
2.48053e-09
4.84837e-09
4.14751e-09
3.92746e-09
6.16006e-09
2.6496e-09
8.61866e-09
9.32163e-10
1.16647e-08
-1.32996e-09
1.54704e-08
-4.27032e-09
2.02589e-08
-8.047e-09
2.62469e-08
-1.2837e-08
3.36305e-08
-1.87924e-08
4.23429e-08
-2.59804e-08
5.19033e-08
-3.41966e-08
6.05972e-08
-4.28216e-08
6.56774e-08
-5.01417e-08
6.02169e-08
-5.26702e-08
6.07152e-08
-3.84602e-08
-6.19037e-08
-3.66566e-07
3.89395e-08
-4.05507e-07
5.41785e-08
-7.71432e-08
5.23091e-08
6.25841e-08
4.499e-08
6.75357e-08
3.61184e-08
7.45486e-08
2.75698e-08
6.91457e-08
2.0034e-08
5.9439e-08
1.37562e-08
4.86208e-08
8.68455e-09
3.87023e-08
4.6715e-09
3.02602e-08
1.5377e-09
2.33929e-08
-8.79482e-10
1.78877e-08
-2.71901e-09
1.35044e-08
-4.091e-09
9.99084e-09
-5.08251e-09
7.15176e-09
-5.76071e-09
4.82593e-09
-6.17836e-09
2.89845e-09
-6.37686e-09
1.28103e-09
-6.38962e-09
-8.78701e-11
-6.24394e-09
-1.25464e-09
-5.96282e-09
-2.25171e-09
-5.56591e-09
-3.10378e-09
-5.07052e-09
-3.82856e-09
-4.49206e-09
-4.43983e-09
-3.84457e-09
-4.94776e-09
-3.141e-09
-5.36041e-09
-2.39347e-09
-5.6838e-09
-1.61349e-09
-5.92256e-09
-8.12109e-10
-6.07994e-09
-1.08682e-13
-6.15808e-09
8.11894e-10
-6.1581e-09
1.61327e-09
-6.07998e-09
2.39327e-09
-5.9226e-09
3.14081e-09
-5.6839e-09
3.8444e-09
-5.36059e-09
4.49192e-09
-4.94792e-09
5.0704e-09
-4.44001e-09
5.56582e-09
-3.82881e-09
5.96275e-09
-3.10399e-09
6.24391e-09
-2.25191e-09
6.38962e-09
-1.2549e-09
6.37689e-09
-8.81326e-11
6.17844e-09
1.28075e-09
5.76083e-09
2.89814e-09
5.08266e-09
4.82569e-09
4.09117e-09
7.15155e-09
2.71922e-09
9.99061e-09
8.79712e-10
1.35042e-08
-1.53744e-09
1.78875e-08
-4.67121e-09
2.33926e-08
-8.68425e-09
3.026e-08
-1.37559e-08
3.87021e-08
-2.00337e-08
4.86207e-08
-2.75695e-08
5.94391e-08
-3.61181e-08
6.91459e-08
-4.49897e-08
7.45489e-08
-5.23089e-08
6.75361e-08
-5.41784e-08
6.25846e-08
-3.89394e-08
-7.71426e-08
-4.05506e-07
3.90283e-08
-4.44536e-07
5.51677e-08
-9.32825e-08
5.40364e-08
6.37155e-08
4.68375e-08
7.47346e-08
3.78199e-08
8.35662e-08
2.9017e-08
7.79486e-08
2.1191e-08
6.7265e-08
1.46317e-08
5.518e-08
9.30698e-09
4.4027e-08
5.07718e-09
3.449e-08
1.76328e-09
2.67068e-08
-7.99993e-10
2.0451e-08
-2.75573e-09
1.54601e-08
-4.21815e-09
1.14533e-08
-5.27818e-09
8.2118e-09
-6.00628e-09
5.55402e-09
-6.45801e-09
3.35018e-09
-6.67709e-09
1.50011e-09
-6.69891e-09
-6.60565e-11
-6.55241e-09
-1.40114e-09
-6.26198e-09
-2.54214e-09
-5.84852e-09
-3.51724e-09
-5.33039e-09
-4.34669e-09
-4.72397e-09
-5.04623e-09
-4.04419e-09
-5.62755e-09
-3.3048e-09
-6.0998e-09
-2.5187e-09
-6.46992e-09
-1.69809e-09
-6.74317e-09
-8.5475e-10
-6.92328e-09
-1.14366e-13
-7.01272e-09
8.54523e-10
-7.01274e-09
1.69787e-09
-6.92333e-09
2.51848e-09
-6.74321e-09
3.3046e-09
-6.47002e-09
4.04401e-09
-6.10001e-09
4.72382e-09
-5.62773e-09
5.33026e-09
-5.04646e-09
5.84842e-09
-4.34698e-09
6.26192e-09
-3.51747e-09
6.55237e-09
-2.54237e-09
6.69891e-09
-1.40144e-09
6.67713e-09
-6.63535e-11
6.45808e-09
1.49979e-09
6.0064e-09
3.34982e-09
5.27834e-09
5.55374e-09
4.21833e-09
8.21155e-09
2.75595e-09
1.1453e-08
8.00235e-10
1.54599e-08
-1.76301e-09
2.04508e-08
-5.07688e-09
2.67065e-08
-9.30665e-09
3.44897e-08
-1.46314e-08
4.40269e-08
-2.11906e-08
5.518e-08
-2.90166e-08
6.72651e-08
-3.78196e-08
7.79488e-08
-4.68372e-08
8.35665e-08
-5.40362e-08
7.47351e-08
-5.51676e-08
6.3716e-08
-3.90283e-08
-9.32819e-08
-4.44534e-07
3.87237e-08
-4.83259e-07
5.56303e-08
-1.10189e-07
5.53076e-08
6.40382e-08
4.8349e-08
8.16932e-08
3.92891e-08
9.26261e-08
3.03131e-08
8.69246e-08
2.22573e-08
7.53208e-08
1.546e-08
6.19774e-08
9.91239e-09
4.95746e-08
5.48677e-09
3.89156e-08
2.00707e-09
3.01865e-08
-6.92668e-10
2.31507e-08
-2.75827e-09
1.75257e-08
-4.30712e-09
1.30021e-08
-5.4334e-09
9.33808e-09
-6.21042e-09
6.33104e-09
-6.69627e-09
3.83603e-09
-6.93679e-09
1.74063e-09
-6.96919e-09
-3.36589e-11
-6.82393e-09
-1.54639e-09
-6.52673e-09
-2.83934e-09
-6.09964e-09
-3.94433e-09
-5.56203e-09
-4.8843e-09
-4.93121e-09
-5.67707e-09
-4.22291e-09
-6.33584e-09
-3.45167e-09
-6.87104e-09
-2.63109e-09
-7.29048e-09
-1.77409e-09
-7.60018e-09
-8.93066e-10
-7.80429e-09
-1.19485e-13
-7.90566e-09
8.9283e-10
-7.90569e-09
1.77385e-09
-7.80435e-09
2.63087e-09
-7.60022e-09
3.45146e-09
-7.29061e-09
4.22272e-09
-6.87127e-09
4.93105e-09
-6.33605e-09
5.5619e-09
-5.67731e-09
6.09954e-09
-4.88462e-09
6.52667e-09
-3.9446e-09
6.8239e-09
-2.8396e-09
6.96919e-09
-1.54674e-09
6.93683e-09
-3.39999e-11
6.69635e-09
1.74028e-09
6.21054e-09
3.83563e-09
5.43356e-09
6.33072e-09
4.30732e-09
9.3378e-09
2.75849e-09
1.30018e-08
6.92922e-10
1.75255e-08
-2.00679e-09
2.31505e-08
-5.48646e-09
3.01862e-08
-9.91205e-09
3.89153e-08
-1.54596e-08
4.95744e-08
-2.2257e-08
6.19773e-08
-3.03128e-08
7.53209e-08
-3.92887e-08
8.69248e-08
-4.83487e-08
9.26265e-08
-5.53074e-08
8.16938e-08
-5.56302e-08
6.40388e-08
-3.87236e-08
-1.10188e-07
-4.83258e-07
3.80405e-08
-5.213e-07
5.55748e-08
-1.27724e-07
5.61177e-08
6.34953e-08
4.95171e-08
8.82939e-08
4.0519e-08
1.01624e-07
3.14528e-08
9.59908e-08
2.3229e-08
8.35446e-08
1.62382e-08
6.89682e-08
1.04992e-08
5.53136e-08
5.89952e-09
4.35153e-08
2.26892e-09
3.38171e-08
-5.57222e-10
2.59769e-08
-2.72602e-09
1.96945e-08
-4.35711e-09
1.46332e-08
-5.54723e-09
1.05282e-08
-6.37213e-09
7.15594e-09
-6.8921e-09
4.35601e-09
-7.15492e-09
2.00345e-09
-7.19943e-09
1.08575e-11
-7.05753e-09
-1.6883e-09
-6.75616e-09
-3.14071e-09
-6.31844e-09
-4.38205e-09
-5.7647e-09
-5.43803e-09
-5.1131e-09
-6.32866e-09
-4.38016e-09
-7.06878e-09
-3.58114e-09
-7.67007e-09
-2.73031e-09
-8.14132e-09
-1.84123e-09
-8.48925e-09
-9.26941e-10
-8.71859e-09
-1.24013e-13
-8.83249e-09
9.26695e-10
-8.8325e-09
1.84099e-09
-8.71865e-09
2.73008e-09
-8.48931e-09
3.58092e-09
-8.14145e-09
4.37997e-09
-7.67031e-09
5.11293e-09
-7.06902e-09
5.76456e-09
-6.32895e-09
6.31833e-09
-5.43839e-09
6.75609e-09
-4.38235e-09
7.05749e-09
-3.14101e-09
7.19943e-09
-1.68868e-09
7.15496e-09
1.0472e-11
6.89219e-09
2.00305e-09
6.37225e-09
4.35556e-09
5.5474e-09
7.15558e-09
4.35731e-09
1.05279e-08
2.72626e-09
1.46329e-08
5.57485e-10
1.96942e-08
-2.26862e-09
2.59766e-08
-5.8992e-09
3.38167e-08
-1.04989e-08
4.3515e-08
-1.62378e-08
5.53134e-08
-2.32286e-08
6.89682e-08
-3.14524e-08
8.35447e-08
-4.05187e-08
9.59911e-08
-4.95168e-08
1.01625e-07
-5.61175e-08
8.82945e-08
-5.55747e-08
6.3496e-08
-3.80404e-08
-1.27723e-07
-5.21298e-07
3.7019e-08
-5.58319e-07
5.50302e-08
-1.45735e-07
5.64751e-08
6.20504e-08
5.03438e-08
9.44251e-08
4.15096e-08
1.10458e-07
3.24349e-08
1.05066e-07
2.41049e-08
9.18745e-08
1.69653e-08
7.61078e-08
1.10666e-08
6.12123e-08
6.31479e-09
4.8267e-08
2.54834e-09
3.75835e-08
-3.94009e-10
2.89192e-08
-2.65928e-09
2.19598e-08
-4.36835e-09
1.63423e-08
-5.61988e-09
1.17797e-08
-6.49158e-09
8.02764e-09
-7.04568e-09
4.91011e-09
-7.33163e-09
2.2894e-09
-7.38979e-09
6.90139e-11
-7.25335e-09
-1.82475e-09
-6.9504e-09
-3.44366e-09
-6.50504e-09
-4.8274e-09
-5.93851e-09
-6.00455e-09
-5.26976e-09
-6.99742e-09
-4.51604e-09
-7.82251e-09
-3.69328e-09
-8.49283e-09
-2.81641e-09
-9.01819e-09
-1.89957e-09
-9.40609e-09
-9.56395e-10
-9.66177e-09
-1.27938e-13
-9.78875e-09
9.56141e-10
-9.78878e-09
1.89933e-09
-9.66183e-09
2.81617e-09
-9.40616e-09
3.69306e-09
-9.01834e-09
4.51584e-09
-8.4931e-09
5.26959e-09
-7.82276e-09
5.93837e-09
-6.99773e-09
6.50494e-09
-6.00496e-09
6.95033e-09
-4.82774e-09
7.25332e-09
-3.44399e-09
7.3898e-09
-1.82517e-09
7.33168e-09
6.85964e-11
7.04577e-09
2.28896e-09
6.49171e-09
4.90962e-09
5.62005e-09
8.02724e-09
4.36856e-09
1.17794e-08
2.65952e-09
1.63419e-08
3.94281e-10
2.19595e-08
-2.54803e-09
2.89189e-08
-6.31445e-09
3.75832e-08
-1.10662e-08
4.82668e-08
-1.6965e-08
6.12121e-08
-2.41045e-08
7.61077e-08
-3.24345e-08
9.18746e-08
-4.15093e-08
1.05066e-07
-5.03435e-08
1.10459e-07
-5.64748e-08
9.44257e-08
-5.50301e-08
6.20513e-08
-3.70189e-08
-1.45734e-07
-5.58317e-07
3.57291e-08
-5.94048e-07
5.40453e-08
-1.64051e-07
5.64039e-08
5.96919e-08
5.08429e-08
9.9986e-08
4.22688e-08
1.19033e-07
3.32638e-08
1.14071e-07
2.48872e-08
1.00251e-07
1.76423e-08
8.33527e-08
1.16145e-08
6.72401e-08
6.73208e-09
5.31495e-08
2.84449e-09
4.14711e-08
-2.04129e-10
3.19678e-08
-2.55933e-09
2.4315e-08
-4.34226e-09
1.81252e-08
-5.65285e-09
1.30903e-08
-6.57035e-09
8.94514e-09
-7.1586e-09
5.49835e-09
-7.46853e-09
2.59933e-09
-7.54184e-09
1.42329e-10
-7.4129e-09
-1.95368e-09
-7.11087e-09
-3.7457e-09
-6.66077e-09
-5.2775e-09
-6.08466e-09
-6.58068e-09
-5.40223e-09
-7.67985e-09
-4.63144e-09
-8.5933e-09
-3.78884e-09
-9.33543e-09
-2.88995e-09
-9.91708e-09
-1.94948e-09
-1.03466e-08
-9.81614e-10
-1.06296e-08
-1.31334e-13
-1.07702e-08
9.81354e-10
-1.07703e-08
1.94923e-09
-1.06297e-08
2.8897e-09
-1.03466e-08
3.78861e-09
-9.91725e-09
4.63124e-09
-9.33572e-09
5.40206e-09
-8.59358e-09
6.08451e-09
-7.68019e-09
6.66066e-09
-6.58111e-09
7.11079e-09
-5.27788e-09
7.41287e-09
-3.74606e-09
7.54184e-09
-1.95414e-09
7.46858e-09
1.41859e-10
7.15869e-09
2.59884e-09
6.57049e-09
5.49783e-09
5.65302e-09
8.94471e-09
4.34247e-09
1.30899e-08
2.55957e-09
1.81248e-08
2.04409e-10
2.43146e-08
-2.84418e-09
3.19675e-08
-6.73174e-09
4.14707e-08
-1.16142e-08
5.31492e-08
-1.76419e-08
6.72398e-08
-2.48868e-08
8.33526e-08
-3.32634e-08
1.00251e-07
-4.22685e-08
1.14071e-07
-5.08426e-08
1.19033e-07
-5.64036e-08
9.99867e-08
-5.40452e-08
5.96928e-08
-3.5729e-08
-1.6405e-07
-5.94046e-07
3.42582e-08
-6.28306e-07
5.26813e-08
-1.82474e-07
5.59446e-08
5.64286e-08
5.104e-08
1.04891e-07
4.28129e-08
1.2726e-07
3.39494e-08
1.22934e-07
2.55816e-08
1.08619e-07
1.8272e-08
9.06623e-08
1.21442e-08
7.33679e-08
7.15115e-09
5.81425e-08
3.15619e-09
4.54661e-08
1.05516e-11
3.51135e-08
-2.42851e-09
2.6754e-08
-4.28152e-09
1.99782e-08
-5.64907e-09
1.44579e-08
-6.61151e-09
9.90759e-09
-7.23398e-09
6.12083e-09
-7.56871e-09
2.93405e-09
-7.6586e-09
2.3221e-10
-7.53909e-09
-2.07318e-09
-7.24031e-09
-4.04447e-09
-6.78815e-09
-5.72966e-09
-6.20542e-09
-7.16339e-09
-5.51254e-09
-8.37273e-09
-4.72808e-09
-9.37775e-09
-3.8692e-09
-1.01943e-08
-2.95198e-09
-1.08343e-08
-1.99167e-09
-1.13069e-08
-1.00296e-09
-1.16184e-08
-1.34231e-13
-1.17731e-08
1.00269e-09
-1.17731e-08
1.99141e-09
-1.16184e-08
2.95173e-09
-1.13069e-08
3.86897e-09
-1.08345e-08
4.72787e-09
-1.01946e-08
5.51236e-09
-9.37806e-09
6.20527e-09
-8.3731e-09
6.78803e-09
-7.16387e-09
7.24024e-09
-5.73007e-09
7.53906e-09
-4.04488e-09
7.6586e-09
-2.07368e-09
7.56876e-09
2.31709e-10
7.23408e-09
2.93352e-09
6.61165e-09
6.12026e-09
5.64925e-09
9.9071e-09
4.28174e-09
1.44574e-08
2.42876e-09
1.99778e-08
-1.02652e-11
2.67537e-08
-3.15587e-09