/*--------------------------------*- C++ -*----------------------------------*\
| =========                 |                                                 |
| \\      /  F ield         | foam-extend: Open Source CFD                    |
|  \\    /   O peration     | Version:     4.0                                |
|   \\  /    A nd           | Web:         http://www.foam-extend.org         |
|    \\/     M anipulation  |                                                 |
\*---------------------------------------------------------------------------*/
FoamFile
{
    version     2.0;
    format      ascii;
    class       surfaceScalarField;
    location    "18";
    object      phi;
}
// * * * * * * * * * * * * * * * * * * * * * * * * * * * * * * * * * * * * * //

dimensions      [0 3 -1 0 0 0 0];

internalField   nonuniform List<scalar> 
13744
(
-7.09801e-09
7.09748e-09
3.82803e-09
-1.0926e-08
1.75992e-10
3.65203e-09
6.78748e-11
1.08117e-10
2.87482e-11
3.9127e-11
1.44261e-11
1.43237e-11
7.25866e-12
7.16782e-12
3.45652e-12
3.80151e-12
1.17899e-12
2.27718e-12
-2.56881e-13
1.43441e-12
-1.21856e-12
9.60232e-13
-1.87852e-12
6.59806e-13
-2.33638e-12
4.59743e-13
-2.64975e-12
3.12306e-13
-2.85086e-12
2.02727e-13
-2.96345e-12
1.1402e-13
-3.00282e-12
4.05231e-14
-2.97895e-12
-2.38698e-14
-2.90065e-12
-7.83817e-14
-2.77585e-12
-1.25122e-13
-2.60884e-12
-1.67755e-13
-2.40562e-12
-2.03171e-13
-2.1716e-12
-2.34146e-13
-1.90988e-12
-2.62346e-13
-1.62537e-12
-2.85216e-13
-1.32284e-12
-3.02647e-13
-1.00477e-12
-3.16858e-13
-6.75634e-13
-3.28404e-13
-3.39972e-13
-3.3662e-13
-9.388e-16
-3.37952e-13
3.42217e-13
-3.41949e-13
6.7345e-13
-3.3229e-13
1.00469e-12
-3.30624e-13
1.32495e-12
-3.19744e-13
1.62303e-12
-2.97762e-13
1.90977e-12
-2.86215e-13
2.17373e-12
-2.65232e-13
2.40335e-12
-2.28484e-13
2.6088e-12
-2.05169e-13
2.7781e-12
-1.71863e-13
2.8985e-12
-1.19904e-13
2.97892e-12
-7.9603e-14
3.00502e-12
-2.4647e-14
2.96133e-12
4.30767e-14
2.85101e-12
1.09246e-13
2.65219e-12
1.97953e-13
2.33447e-12
3.1608e-13
1.8788e-12
4.54303e-13
1.22098e-12
6.59472e-13
2.54858e-13
9.67004e-13
-1.17882e-12
1.43319e-12
-3.4541e-12
2.27385e-12
-7.26057e-12
3.80518e-12
-1.44258e-11
7.16371e-12
-2.87456e-11
1.43188e-11
-6.78766e-11
3.9131e-11
-1.75991e-10
1.08113e-10
-3.82802e-09
3.65203e-09
7.09801e-09
-1.0926e-08
7.09801e-09
3.56129e-08
-2.85154e-08
5.546e-09
1.91409e-08
5.30655e-10
8.66738e-09
2.07694e-10
4.31077e-10
8.84093e-11
1.5841e-10
4.46871e-11
5.80428e-11
2.25659e-11
2.92872e-11
1.09244e-11
1.54449e-11
3.87265e-12
9.32954e-12
-5.30708e-13
5.83872e-12
-3.50649e-12
3.93813e-12
-5.53248e-12
2.6863e-12
-6.95299e-12
1.87633e-12
-7.91386e-12
1.27537e-12
-8.54216e-12
8.27172e-13
-8.89416e-12
4.61853e-13
-9.0216e-12
1.64313e-13
-8.95789e-12
-8.68194e-14
-8.72993e-12
-3.05034e-13
-8.35504e-12
-4.99156e-13
-7.85684e-12
-6.63913e-13
-7.24804e-12
-8.13238e-13
-6.54183e-12
-9.42302e-13
-5.75557e-12
-1.0465e-12
-4.90031e-12
-1.13887e-12
-3.98602e-12
-1.21814e-12
-3.02891e-12
-1.2742e-12
-2.03832e-12
-1.31661e-12
-1.02301e-12
-1.35025e-12
5.35877e-16
-1.3643e-12
1.01807e-12
-1.35952e-12
2.04434e-12
-1.35708e-12
3.02868e-12
-1.31389e-12
3.97961e-12
-1.2701e-12
4.90601e-12
-1.22502e-12
5.75524e-12
-1.13443e-12
6.53551e-12
-1.04217e-12
7.25396e-12
-9.5246e-13
7.8567e-12
-8.05689e-13
8.34907e-12
-6.56919e-13
8.73621e-12
-5.09981e-13
8.95779e-12
-3.02591e-13
9.01547e-12
-8.62088e-14
8.90052e-12
1.60372e-13
8.54261e-12
4.69569e-13
7.90845e-12
8.33222e-13
6.95999e-12
1.26765e-12
5.53332e-12
1.88388e-12
3.50105e-12
2.68818e-12
5.37379e-13
3.92686e-12
-3.87217e-12
5.84294e-12
-1.09298e-11
9.33248e-12
-2.25589e-11
1.54379e-11
-4.46862e-11
2.92946e-11
-8.84143e-11
5.80492e-11
-2.07687e-10
1.58404e-10
-5.30653e-10
4.31083e-10
-5.54601e-09
8.66739e-09
-3.56129e-08
1.91408e-08
-2.85149e-08
2.44616e-08
-5.2977e-08
9.48348e-09
3.4119e-08
8.80451e-10
1.72704e-08
3.51708e-10
9.5982e-10
1.51192e-10
3.58928e-10
7.69486e-11
1.32289e-10
3.9134e-11
6.71029e-11
1.92563e-11
3.53202e-11
7.1584e-12
2.14276e-11
-3.71705e-13
1.33731e-11
-5.4833e-12
9.04993e-12
-8.94981e-12
6.15508e-12
-1.13908e-11
4.32152e-12
-1.30418e-11
2.92341e-12
-1.41283e-11
1.9173e-12
-1.47414e-11
1.08141e-12
-1.49782e-11
4.03899e-13
-1.48873e-11
-1.78524e-13
-1.45198e-11
-6.73211e-13
-1.3906e-11
-1.11408e-12
-1.30823e-11
-1.48517e-12
-1.20721e-11
-1.81996e-12
-1.09005e-11
-2.11084e-12
-9.59176e-12
-2.35503e-12
-8.16712e-12
-2.56317e-12
-6.64559e-12
-2.73401e-12
-5.04978e-12
-2.87409e-12
-3.39769e-12
-2.97648e-12
-1.70699e-12
-3.04021e-12
-5.60613e-16
-3.07016e-12
1.70495e-12
-3.06857e-12
3.40062e-12
-3.05375e-12
5.0494e-12
-2.96702e-12
6.64202e-12
-2.86701e-12
8.1695e-12
-2.75341e-12
9.59119e-12
-2.55709e-12
1.08971e-11
-2.34857e-12
1.20748e-11
-2.123e-12
1.30821e-11
-1.81855e-12
1.39031e-11
-1.48481e-12
1.45232e-11
-1.12568e-12
1.48871e-11
-6.64052e-13
1.49751e-11
-1.70503e-13
1.47449e-11
3.87829e-13
1.4129e-11
1.08463e-12
1.30399e-11
1.92418e-12
1.13954e-11
2.90978e-12
8.95118e-12
4.32734e-12
5.48134e-12
6.16004e-12
3.75717e-13
9.0383e-12
-7.1576e-12
1.33743e-11
-1.92583e-11
2.14357e-11
-3.91295e-11
3.53056e-11
-7.6947e-11
6.71094e-11
-1.51193e-10
1.32294e-10
-3.51703e-10
3.58912e-10
-8.80449e-10
9.59829e-10
-9.48348e-09
1.72704e-08
-2.44616e-08
3.4119e-08
-5.29765e-08
7.39056e-09
-6.03676e-08
8.59699e-09
3.29126e-08
1.21589e-09
2.46515e-08
4.97752e-10
1.67796e-09
2.1665e-10
6.40028e-10
1.11094e-10
2.37843e-10
5.70027e-11
1.21198e-10
2.85316e-11
6.37934e-11
1.11511e-11
3.88076e-11
3.40876e-13
2.41772e-11
-7.01209e-12
1.64045e-11
-1.19925e-11
1.11299e-11
-1.55077e-11
7.83039e-12
-1.78889e-11
5.30569e-12
-1.94651e-11
3.4924e-12
-2.03648e-11
1.97627e-12
-2.07327e-11
7.69815e-13
-2.06336e-11
-2.78631e-13
-2.01439e-11
-1.16075e-12
-1.93073e-11
-1.94859e-12
-1.81738e-11
-2.62702e-12
-1.67772e-11
-3.21754e-12
-1.51552e-11
-3.73546e-12
-1.33388e-11
-4.17404e-12
-1.13595e-11
-4.54657e-12
-9.24561e-12
-4.85491e-12
-7.02591e-12
-5.08799e-12
-4.72724e-12
-5.2719e-12
-2.37633e-12
-5.39271e-12
-1.06221e-15
-5.44469e-12
2.37686e-12
-5.44528e-12
4.72673e-12
-5.40572e-12
7.02538e-12
-5.25983e-12
9.24509e-12
-5.08531e-12
1.13583e-11
-4.86912e-12
1.3338e-11
-4.54061e-12
1.51549e-11
-4.16715e-12
1.67765e-11
-3.74698e-12
1.81735e-11
-3.21084e-12
1.93079e-11
-2.61484e-12
2.01441e-11
-1.96231e-12
2.06334e-11
-1.1583e-12
2.07329e-11
-2.71193e-13
2.03652e-11
7.54542e-13
1.94661e-11
1.98187e-12
1.78907e-11
3.49681e-12
1.55095e-11
5.29246e-12
1.19944e-11
7.8417e-12
7.01384e-12
1.11427e-11
-3.39757e-13
1.63871e-11
-1.115e-11
2.4192e-11
-2.85299e-11
3.88105e-11
-5.70009e-11
6.37772e-11
-1.11092e-10
1.21201e-10
-2.16648e-10
2.37852e-10
-4.97749e-10
6.40015e-10
-1.21589e-09
1.67796e-09
-8.59699e-09
2.46515e-08
-7.39057e-09
3.29126e-08
-6.03671e-08
6.25424e-09
-6.66218e-08
6.6083e-09
3.25585e-08
1.54021e-09
2.97196e-08
6.4481e-10
2.57336e-09
2.84536e-10
1.0003e-09
1.471e-10
3.7528e-10
7.62121e-11
1.92082e-10
3.88164e-11
1.0119e-10
1.5925e-11
6.16993e-11
1.68554e-12
3.84212e-11
-8.01158e-12
2.6099e-11
-1.45785e-11
1.77013e-11
-1.92215e-11
1.24794e-11
-2.23727e-11
8.45881e-12
-2.44713e-11
5.58911e-12
-2.56853e-11
3.19207e-12
-2.62076e-11
1.29528e-12
-2.61226e-11
-3.60423e-13
-2.55321e-11
-1.75824e-12
-2.44926e-11
-2.98552e-12
-2.30699e-11
-4.04444e-12
-2.13078e-11
-4.98124e-12
-1.92555e-11
-5.78558e-12
-1.69529e-11
-6.475e-12
-1.44409e-11
-7.05257e-12
-1.17557e-11
-7.53877e-12
-8.93463e-12
-7.91264e-12
-6.01211e-12
-8.19177e-12
-3.02254e-12
-8.38211e-12
-7.27204e-16
-8.46566e-12
3.02254e-12
-8.46785e-12
6.01159e-12
-8.39032e-12
8.93394e-12
-8.18773e-12
1.17548e-11
-7.9033e-12
1.44397e-11
-7.54673e-12
1.69519e-11
-7.04948e-12
1.92549e-11
-6.47007e-12
2.13073e-11
-5.80012e-12
2.30695e-11
-4.97537e-12
2.4493e-11
-4.03878e-12
2.55326e-11
-3.00623e-12
2.61224e-11
-1.74179e-12
2.62076e-11
-3.54855e-13
2.56861e-11
1.27809e-12
2.44726e-11
3.19574e-12
2.23747e-11
5.59484e-12
1.9224e-11
8.44178e-12
1.45809e-11
1.24859e-11
8.01354e-12
1.77072e-11
-1.68385e-12
2.60893e-11
-1.59235e-11
3.84255e-11
-3.88144e-11
6.17071e-11
-7.62095e-11
1.01175e-10
-1.47097e-10
1.92088e-10
-2.84533e-10
3.75286e-10
-6.44806e-10
1.00028e-09
-1.54021e-09
2.57337e-09
-6.6083e-09
2.97196e-08
-6.25424e-09
3.25585e-08
-6.66213e-08
9.55397e-09
-7.61758e-08
6.30104e-09
3.58114e-08
1.85473e-09
3.41659e-08
7.92304e-10
3.6358e-09
3.54646e-10
1.43796e-09
1.8495e-10
5.44978e-10
9.6802e-11
2.80229e-10
5.01685e-11
1.47819e-10
2.15446e-11
9.03243e-11
3.72957e-12
5.62346e-11
-8.41419e-12
3.82447e-11
-1.66396e-11
2.59272e-11
-2.24641e-11
1.83002e-11
-2.64261e-11
1.24201e-11
-2.9081e-11
8.24868e-12
-3.0638e-11
4.74878e-12
-3.13406e-11
1.99433e-12
-3.12945e-11
-4.1353e-13
-3.06273e-11
-2.41957e-12
-2.94088e-11
-4.20935e-12
-2.77213e-11
-5.72843e-12
-2.56188e-11
-7.08202e-12
-2.31617e-11
-8.24304e-12
-2.03992e-11
-9.23482e-12
-1.73814e-11
-1.00709e-11
-1.41522e-11
-1.07656e-11
-1.07578e-11
-1.13064e-11
-7.23978e-12
-1.17102e-11
-3.63988e-12
-1.19783e-11
-5.11917e-16
-1.21057e-11
3.63904e-12
-1.21093e-11
7.23984e-12
-1.19912e-11
1.0757e-11
-1.17028e-11
1.41504e-11
-1.12929e-11
1.73807e-11
-1.07832e-11
2.0398e-11
-1.00661e-11
2.31603e-11
-9.22986e-12
2.5619e-11
-8.25941e-12
2.7721e-11
-7.07463e-12
2.94085e-11
-5.72882e-12
3.06286e-11
-4.22211e-12
3.12942e-11
-2.41143e-12
3.13399e-11
-4.07355e-13
3.06397e-11
1.97808e-12
2.90826e-11
4.75316e-12
2.64278e-11
8.25454e-12
2.24678e-11
1.24042e-11
1.66425e-11
1.83125e-11
8.41582e-12
2.59348e-11
-3.72679e-12
3.82283e-11
-2.15428e-11
5.62458e-11
-5.01669e-11
9.03283e-11
-9.67981e-11
1.47802e-10
-1.84947e-10
2.80238e-10
-3.54643e-10
5.44981e-10
-7.92299e-10
1.43795e-09
-1.85473e-09
3.6358e-09
-6.30104e-09
3.41659e-08
-9.55397e-09
3.58114e-08
-7.61753e-08
1.03973e-08
-8.65731e-08
6.78524e-09
3.94235e-08
2.15546e-09
3.87957e-08
9.39723e-10
4.85153e-09
4.26767e-10
1.95092e-09
2.24618e-10
7.47126e-10
1.18806e-10
3.86039e-10
6.26408e-11
2.03989e-10
2.80699e-11
1.24897e-10
6.53555e-12
7.7766e-11
-8.15675e-12
5.29335e-11
-1.81125e-11
3.58789e-11
-2.51722e-11
2.53636e-11
-2.99871e-11
1.72341e-11
-3.32328e-11
1.14929e-11
-3.5163e-11
6.67872e-12
-3.60741e-11
2.90708e-12
-3.60938e-11
-3.83926e-13
-3.53769e-11
-3.13585e-12
-3.40067e-11
-5.57904e-12
-3.20826e-11
-7.65479e-12
-2.96686e-11
-9.49704e-12
-2.68368e-11
-1.10701e-11
-2.36453e-11
-1.24315e-11
-2.01536e-11
-1.35674e-11
-1.64132e-11
-1.45071e-11
-1.24786e-11
-1.52398e-11
-8.39886e-12
-1.57871e-11
-4.22295e-12
-1.61554e-11
-5.45705e-16
-1.6329e-11
4.22194e-12
-1.63294e-11
8.39887e-12
-1.61738e-11
1.24777e-11
-1.5784e-11
1.64111e-11
-1.52333e-11
2.01526e-11
-1.45229e-11
2.36439e-11
-1.35586e-11
2.68352e-11
-1.24261e-11
2.96688e-11
-1.10931e-11
3.20822e-11
-9.48754e-12
3.40064e-11
-7.64947e-12
3.53783e-11
-5.59791e-12
3.60935e-11
-3.12322e-12
3.60733e-11
-3.78482e-13
3.51649e-11
2.88738e-12
3.32346e-11
6.68539e-12
2.9989e-11
1.14945e-11
2.51765e-11
1.7211e-11
1.81157e-11
2.53664e-11
8.15867e-12
3.58891e-11
-6.53233e-12
5.29157e-11
-2.80678e-11
7.77738e-11
-6.26388e-11
1.249e-10
-1.18802e-10
2.03969e-10
-2.24614e-10
3.86051e-10
-4.26763e-10
7.47132e-10
-9.39717e-10
1.9509e-09
-2.15545e-09
4.85154e-09
-6.78523e-09
3.87957e-08
-1.03973e-08
3.94235e-08
-8.65726e-08
9.79287e-09
-9.6366e-08
7.09653e-09
4.21199e-08
2.4382e-09
4.3454e-08
1.08632e-09
6.20341e-09
5.00664e-10
2.53657e-09
2.66065e-10
9.81728e-10
1.4225e-10
5.09858e-10
7.62797e-11
2.69952e-10
3.55546e-11
1.6562e-10
1.01595e-11
1.03168e-10
-7.18228e-12
7.02772e-11
-1.89402e-11
4.76388e-11
-2.72894e-11
3.37075e-11
-3.29997e-11
2.29435e-11
-3.6872e-11
1.53663e-11
-3.92072e-11
9.01631e-12
-4.03567e-11
4.05566e-12
-4.04714e-11
-2.76446e-13
-3.97342e-11
-3.87449e-12
-3.82429e-11
-7.06598e-12
-3.61135e-11
-9.79013e-12
-3.34205e-11
-1.21893e-11
-3.0248e-11
-1.42545e-11
-2.66627e-11
-1.60136e-11
-2.27332e-11
-1.7493e-11
-1.8519e-11
-1.8722e-11
-1.40823e-11
-1.96823e-11
-9.4795e-12
-2.03961e-11
-4.76677e-12
-2.087e-11
-6.07593e-16
-2.10956e-11
4.76578e-12
-2.1098e-11
9.47921e-12
-2.08794e-11
1.40813e-11
-2.03819e-11
1.85169e-11
-1.96641e-11
2.27319e-11
-1.87387e-11
2.66611e-11
-1.74839e-11
3.02465e-11
-1.60062e-11
3.34205e-11
-1.42693e-11
3.6113e-11
-1.21855e-11
3.82428e-11
-9.78037e-12
3.97355e-11
-7.09056e-12
4.04711e-11
-3.86414e-12
4.03561e-11
-2.68001e-13
3.9209e-11
4.03481e-12
3.6874e-11
9.02062e-12
3.3002e-11
1.53646e-11
2.72939e-11
2.29209e-11
1.89438e-11
3.37183e-11
7.18474e-12
4.76532e-11
-1.01562e-11
7.02645e-11
-3.55521e-11
1.03179e-10
-7.62771e-11
1.65625e-10
-1.42245e-10
2.69936e-10
-2.66061e-10
5.09863e-10
-5.0066e-10
9.8173e-10
-1.08631e-09
2.53655e-09
-2.43819e-09
6.20342e-09
-7.09653e-09
4.3454e-08
-9.79287e-09
4.21199e-08
-9.63655e-08
9.28035e-09
-1.05646e-07
7.17165e-09
4.42286e-08
2.70061e-09
4.79251e-08
1.23117e-09
7.67286e-09
5.76089e-10
3.19164e-09
3.09239e-10
1.24858e-09
1.6715e-10
6.51945e-10
9.11227e-11
3.45987e-10
4.40444e-11
2.12693e-10
1.46498e-11
1.32555e-10
-5.44174e-12
9.03685e-11
-1.90738e-11
6.12711e-11
-2.87672e-11
4.34108e-11
-3.54163e-11
2.95946e-11
-3.9952e-11
1.98959e-11
-4.27252e-11
1.17857e-11
-4.41447e-11
5.47871e-12
-4.43857e-11
-3.52669e-14
-4.36599e-11
-4.60137e-12
-4.20803e-11
-8.64724e-12
-3.97798e-11
-1.20818e-11
-3.68437e-11
-1.51244e-11
-3.33676e-11
-1.77255e-11
-2.94273e-11
-1.99546e-11
-2.51001e-11
-2.18202e-11
-2.04532e-11
-2.33683e-11
-1.55565e-11
-2.45719e-11
-1.04734e-11
-2.5476e-11
-5.26708e-12
-2.60778e-11
-6.32777e-16
-2.63587e-11
5.26604e-12
-2.63628e-11
1.04728e-11
-2.60921e-11
1.55553e-11
-2.54675e-11
2.0451e-11
-2.45622e-11
2.50984e-11
-2.33813e-11
2.94255e-11
-2.18137e-11
3.33662e-11
-1.99518e-11
3.68435e-11
-1.77386e-11
3.97793e-11
-1.51173e-11
4.20803e-11
-1.20823e-11
4.36612e-11
-8.66827e-12
4.43853e-11
-4.58703e-12
4.41443e-11
-2.60417e-14
4.27272e-11
5.4482e-12
3.99542e-11
1.17902e-11
3.5419e-11
1.99037e-11
2.87719e-11
2.95679e-11
1.90778e-11
4.34151e-11
5.44464e-12
6.12831e-11
-1.46462e-11
9.0353e-11
-4.40416e-11
1.32566e-10
-9.11196e-11
2.12705e-10
-1.67144e-10
3.45959e-10
-3.09234e-10
6.51957e-10
-5.76084e-10
1.24858e-09
-1.23116e-09
3.19163e-09
-2.7006e-09
7.67286e-09
-7.17164e-09
4.79251e-08
-9.28035e-09
4.42286e-08
-1.05646e-07
8.99923e-09
-1.14646e-07
7.17579e-09
4.6052e-08
2.94118e-09
5.21597e-08
1.37337e-09
9.24067e-09
6.52773e-10
3.91224e-09
3.5407e-10
1.54728e-09
1.93509e-10
8.1251e-10
1.07197e-10
4.32296e-10
5.35754e-11
2.66323e-10
2.00451e-11
1.66092e-10
-2.89546e-12
1.13307e-10
-1.84739e-11
7.68503e-11
-2.95667e-11
5.44963e-11
-3.71987e-11
3.72261e-11
-4.24356e-11
2.51361e-11
-4.56812e-11
1.50339e-11
-4.74036e-11
7.19593e-12
-4.78035e-11
3.6721e-13
-4.71229e-11
-5.28148e-12
-4.54898e-11
-1.02854e-11
-4.30547e-11
-1.45226e-11
-3.99136e-11
-1.82677e-11
-3.61741e-11
-2.14615e-11
-3.19201e-11
-2.42071e-11
-2.72382e-11
-2.65041e-11
-2.22027e-11
-2.84012e-11
-1.68912e-11
-2.98848e-11
-1.13739e-11
-3.09966e-11
-5.72056e-12
-3.17284e-11
-6.48406e-16
-3.20852e-11
5.71943e-12
-3.20874e-11
1.13732e-11
-3.17433e-11
1.689e-11
-3.09822e-11
2.22004e-11
-2.98749e-11
2.72362e-11
-2.84278e-11
3.19181e-11
-2.64916e-11
3.61726e-11
-2.42007e-11
3.99135e-11
-2.14879e-11
4.30543e-11
-1.82568e-11
4.54899e-11
-1.45187e-11
4.71241e-11
-1.03028e-11
4.78032e-11
-5.26673e-12
4.74032e-11
3.71196e-13
4.56832e-11
7.16704e-12
4.2438e-11
1.50389e-11
3.72016e-11
2.51419e-11
2.95716e-11
3.71995e-11
1.84781e-11
5.45061e-11
2.89871e-12
7.68674e-11
-2.00412e-11
1.13292e-10
-5.35723e-11
1.66109e-10
-1.07194e-10
2.66324e-10
-1.93503e-10
4.3227e-10
-3.54065e-10
8.12517e-10
-6.52767e-10
1.54729e-09
-1.37336e-09
3.91221e-09
-2.94118e-09
9.24068e-09
-7.17579e-09
5.21597e-08
-8.99923e-09
4.6052e-08
-1.14645e-07
8.70173e-09
-1.23347e-07
7.15577e-09
4.7598e-08
3.15848e-09
5.6157e-08
1.51204e-09
1.08871e-08
7.30428e-10
4.69385e-09
4.0047e-10
1.87724e-09
2.21317e-10
9.9166e-10
1.24517e-10
5.29092e-10
6.4172e-11
3.26668e-10
2.63728e-11
2.03885e-10
4.84781e-13
1.39201e-10
-1.71124e-11
9.4448e-11
-2.96605e-11
6.70476e-11
-3.83203e-11
4.58825e-11
-4.42971e-11
3.11195e-11
-4.80504e-11
1.87864e-11
-5.01096e-11
9.25585e-12
-5.07026e-11
9.59718e-13
-5.01021e-11
-5.88105e-12
-4.84519e-11
-1.19335e-11
-4.59203e-11
-1.70477e-11
-4.26142e-11
-2.15774e-11
-3.86527e-11
-2.54244e-11
-3.41285e-11
-2.87391e-11
-2.91368e-11
-3.14965e-11
-2.37591e-11
-3.37831e-11
-1.80802e-11
-3.55599e-11
-1.21767e-11
-3.68996e-11
-6.12508e-12
-3.77815e-11
-6.66693e-16
-3.82068e-11
6.12384e-12
-3.82098e-11
1.21758e-11
-3.77977e-11
1.80788e-11
-3.68882e-11
2.37567e-11
-3.55527e-11
2.91346e-11
-3.3799e-11
3.41264e-11
-3.1485e-11
3.86512e-11
-2.87305e-11
4.26139e-11
-2.54447e-11
4.59198e-11
-2.15636e-11
4.8452e-11
-1.7052e-11
5.01033e-11
-1.19556e-11
5.07023e-11
-5.86147e-12
5.01094e-11
9.6894e-13
4.80525e-11
9.22791e-12
4.42996e-11
1.87916e-11
3.83234e-11
3.11153e-11
2.96655e-11
4.58563e-11
1.71169e-11
6.70593e-11
-4.81204e-13
9.44619e-11
-2.63687e-11
1.3918e-10
-6.41687e-11
2.03898e-10
-1.24513e-10
3.2667e-10
-2.21311e-10
5.29065e-10
-4.00465e-10
9.91673e-10
-7.30423e-10
1.87725e-09
-1.51204e-09
4.69383e-09
-3.15847e-09
1.08871e-08
-7.15577e-09
5.6157e-08
-8.70173e-09
4.7598e-08
-1.23347e-07
8.31094e-09
-1.31658e-07
7.09292e-09
4.8816e-08
3.35131e-09
5.98986e-08
1.64637e-09
1.25921e-08
8.08756e-10
5.53147e-09
4.48332e-10
2.23766e-09
2.50547e-10
1.18944e-09
1.43083e-10
6.36557e-10
7.58448e-11
3.93906e-10
3.36467e-11
2.46089e-10
4.71343e-12
1.68126e-10
-1.49753e-11
1.14132e-10
-2.9035e-11
8.11056e-11
-3.87683e-11
5.56225e-11
-4.55245e-11
3.7865e-11
-4.98216e-11
2.3076e-11
-5.22524e-11
1.16937e-11
-5.30733e-11
1.77818e-12
-5.25886e-11
-6.36583e-12
-5.09584e-11
-1.35615e-11
-4.83691e-11
-1.9643e-11
-4.49386e-11
-2.50007e-11
-4.07979e-11
-2.95647e-11
-3.60476e-11
-3.3477e-11
-3.07918e-11
-3.67525e-11
-2.5119e-11
-3.94534e-11
-1.91208e-11
-4.15633e-11
-1.28802e-11
-4.3137e-11
-6.47977e-12
-4.41797e-11
-6.92024e-16
-4.46837e-11
6.47844e-12
-4.46906e-11
1.28791e-11
-4.41999e-11
1.91193e-11
-4.31231e-11
2.51165e-11
-4.15481e-11
3.07895e-11
-3.9471e-11
3.60454e-11
-3.67406e-11
4.07964e-11
-3.34783e-11
4.49384e-11
-2.95904e-11
4.83687e-11
-2.49935e-11
5.09586e-11
-1.96382e-11
5.25897e-11
-1.35866e-11
5.3073e-11
-6.3506e-12
5.22523e-11
1.78137e-12
4.98237e-11
1.16608e-11
4.55271e-11
2.30911e-11
3.87717e-11
3.78726e-11
2.90401e-11
5.5591e-11
1.498e-11
8.11161e-11
-4.70955e-12
1.14152e-10
-3.36424e-11
1.68113e-10
-7.58411e-11
2.46099e-10
-1.43079e-10
3.93907e-10
-2.50541e-10
6.36527e-10
-4.48327e-10
1.18946e-09
-8.0875e-10
2.23767e-09
-1.64636e-09
5.53144e-09
-3.3513e-09
1.25921e-08
-7.09292e-09
5.98986e-08
-8.31095e-09
4.8816e-08
-1.31658e-07
7.86028e-09
-1.39519e-07
6.97773e-09
4.96985e-08
3.51903e-09
6.33573e-08
1.77555e-09
1.43355e-08
8.87448e-10
6.41957e-09
4.97531e-10
2.62758e-09
2.81156e-10
1.40582e-09
1.62879e-10
7.54841e-10
8.85884e-11
4.68189e-10
4.18645e-11
2.92812e-10
9.78915e-12
2.00207e-10
-1.20644e-11
1.3599e-10
-2.76928e-11
9.67281e-11
-3.85463e-11
6.64729e-11
-4.6122e-11
4.5449e-11
-5.09994e-11
2.79691e-11
-5.38371e-11
1.4522e-11
-5.49209e-11
2.8615e-12
-5.45877e-11
-6.69916e-12
-5.30146e-11
-1.51375e-11
-5.04063e-11
-2.22521e-11
-4.68918e-11
-2.85168e-11
-4.26138e-11
-3.38475e-11
-3.76813e-11
-3.84228e-11
-3.22066e-11
-4.22281e-11
-2.6285e-11
-4.53814e-11
-2.00151e-11
-4.78277e-11
-1.34857e-11
-4.96692e-11
-6.78535e-12
-5.08833e-11
-7.30876e-16
-5.14706e-11
6.78391e-12
-5.14757e-11
1.34845e-11
-5.08988e-11
2.00135e-11
-4.96546e-11
2.62825e-11
-4.78177e-11
3.2204e-11
-4.53913e-11
3.76789e-11
-4.22176e-11
4.26123e-11
-3.84131e-11
4.68916e-11
-3.3871e-11
5.0406e-11
-2.85078e-11
5.30149e-11
-2.22486e-11
5.45888e-11
-1.51576e-11
5.49205e-11
-6.67783e-12
5.38371e-11
2.86959e-12
5.10017e-11
1.44902e-11
4.61247e-11
2.79625e-11
3.85498e-11
4.54464e-11
2.7698e-11
6.64401e-11
1.20693e-11
9.67488e-11
-9.78497e-12
1.36005e-10
-4.186e-11
2.00185e-10
-8.85844e-11
2.92832e-10
-1.62874e-10
4.68197e-10
-2.8115e-10
7.54807e-10
-4.97524e-10
1.40583e-09
-8.87442e-10
2.62758e-09
-1.77554e-09
6.41954e-09
-3.51902e-09
1.43355e-08
-6.97773e-09
6.33573e-08
-7.86028e-09
4.96986e-08
-1.39518e-07
7.38198e-09
-1.46901e-07
6.8155e-09
5.0265e-08
3.66164e-09
6.65111e-08
1.89888e-09
1.60983e-08
9.66196e-10
7.35225e-09
5.47922e-10
3.04586e-09
3.13084e-10
1.64065e-09
1.8387e-10
8.84048e-10
1.02381e-10
5.49683e-10
5.10078e-11
3.44182e-10
1.56937e-11
2.3552e-10
-8.39874e-12
1.60084e-10
-2.5654e-11
1.13989e-10
-3.76751e-11
7.84944e-11
-4.6111e-11
5.38788e-11
-5.16058e-11
3.34562e-11
-5.48853e-11
1.7814e-11
-5.62666e-11
4.24801e-12
-5.61202e-11
-6.84314e-12
-5.46403e-11
-1.66129e-11
-5.20504e-11
-2.48378e-11
-4.84908e-11
-3.20726e-11
-4.41159e-11
-3.82151e-11
-3.9043e-11
-4.34869e-11
-3.33926e-11
-4.78744e-11
-2.72667e-11
-5.1501e-11
-2.07703e-11
-5.43292e-11
-1.3998e-11
-5.64333e-11
-7.04422e-12
-5.78328e-11
-7.63494e-16
-5.85167e-11
7.04268e-12
-5.85212e-11
1.39966e-11
-5.78502e-11
2.07685e-11
-5.64243e-11
2.7264e-11
-5.43107e-11
3.33898e-11
-5.15184e-11
3.90405e-11
-4.78653e-11
4.41145e-11
-4.34898e-11
4.84905e-11
-3.82441e-11
5.20501e-11
-3.20673e-11
5.46406e-11
-2.48451e-11
5.61211e-11
-1.66407e-11
5.62663e-11
-6.82824e-12
5.48855e-11
4.25837e-12
5.16081e-11
1.77641e-11
4.61138e-11
3.34569e-11
3.76786e-11
5.3878e-11
2.56592e-11
7.84568e-11
8.40374e-12
1.14003e-10
-1.56893e-11
1.60099e-10
-5.10031e-11
2.35501e-10
-1.02377e-10
3.44196e-10
-1.83865e-10
5.49686e-10
-3.13078e-10
8.84018e-10
-5.47916e-10
1.64067e-09
-9.66189e-10
3.04585e-09
-1.89888e-09
7.35223e-09
-3.66164e-09
1.60983e-08
-6.8155e-09
6.65112e-08
-7.38198e-09
5.0265e-08
-1.469e-07
6.88731e-09
-1.53788e-07
6.61269e-09
5.05396e-08
3.77976e-09
6.93441e-08
2.01578e-09
1.78623e-08
1.0447e-09
8.32334e-09
5.99355e-10
3.4912e-09
3.46258e-10
1.89376e-09
2.06012e-10
1.0243e-09
1.17188e-10
6.3851e-10
6.10426e-11
4.00325e-10
2.23932e-11
2.74173e-10
-4.01358e-12
1.86486e-10
-2.29551e-11
1.32932e-10
-3.61922e-11
9.17313e-11
-4.55298e-11
6.32157e-11
-5.16789e-11
3.96061e-11
-5.5435e-11
2.15629e-11
-5.71476e-11
5.95576e-12
-5.72215e-11
-6.77452e-12
-5.58692e-11
-1.79682e-11
-5.33328e-11
-2.73763e-11
-4.97644e-11
-3.56495e-11
-4.53303e-11
-4.26517e-11
-4.01557e-11
-4.8658e-11
-3.43693e-11
-5.36662e-11
-2.80797e-11
-5.77951e-11
-2.13982e-11
-6.10074e-11
-1.44252e-11
-6.341e-11
-7.26044e-12
-6.50033e-11
-8.08712e-16
-6.57742e-11
7.25879e-12
-6.57778e-11
1.44236e-11
-6.50188e-11
2.13964e-11
-6.34015e-11
2.80769e-11
-6.0992e-11
3.43663e-11
-5.78031e-11
4.0153e-11
-5.36498e-11
4.53289e-11
-4.86599e-11
4.97642e-11
-4.26844e-11
5.33326e-11
-3.56396e-11
5.58695e-11
-2.73733e-11
5.72223e-11
-1.79898e-11
5.71473e-11
-6.74527e-12
5.54353e-11
5.95946e-12
5.16812e-11
2.15235e-11
4.55326e-11
3.96085e-11
3.61958e-11
6.32204e-11
2.29603e-11
9.16944e-11
4.01867e-12
1.32939e-10
-2.23885e-11
1.86505e-10
-6.10378e-11
2.74153e-10
-1.17183e-10
4.00345e-10
-2.06006e-10
6.38511e-10
-3.46251e-10
1.02426e-09
-5.99349e-10
1.89377e-09
-1.0447e-09
3.49121e-09
-2.01578e-09
8.3233e-09
-3.77975e-09
1.78623e-08
-6.61269e-09
6.93441e-08
-6.88731e-09
5.05397e-08
-1.53787e-07
6.37334e-09
-1.60161e-07
6.37119e-09
5.05418e-08
3.87453e-09
7.18407e-08
2.1258e-09
1.9611e-08
1.1227e-09
9.32644e-09
6.51676e-10
3.96222e-09
3.80596e-10
2.16483e-09
2.29246e-10
1.17564e-09
1.3296e-10
7.34793e-10
7.19238e-11
4.61368e-10
2.98413e-11
3.16249e-10
1.04296e-12
2.15285e-10
-1.9646e-11
1.53619e-10
-3.4149e-11
1.06236e-10
-4.44301e-11
7.35078e-11
-5.12708e-11
4.64466e-11
-5.55375e-11
2.58272e-11
-5.76139e-11
8.03368e-12
-5.794e-11
-6.44673e-12
-5.67469e-11
-1.91611e-11
-5.42963e-11
-2.98247e-11
-5.0752e-11
-3.9188e-11
-4.62921e-11
-4.71068e-11
-4.10501e-11
-5.39066e-11
-3.51628e-11
-5.95502e-11
-2.87453e-11
-6.42126e-11
-2.19151e-11
-6.78406e-11
-1.47781e-11
-7.05487e-11
-7.43944e-12
-7.23445e-11
-8.45965e-16
-7.32108e-11
7.43767e-12
-7.32153e-11
1.47764e-11
-7.23576e-11
2.19132e-11
-7.05336e-11
2.87425e-11
-6.78267e-11
3.51597e-11
-6.42232e-11
4.10473e-11
-5.95444e-11
4.62907e-11
-5.3903e-11
5.07517e-11
-4.7136e-11
5.42961e-11
-3.91832e-11
5.67472e-11
-2.98288e-11
5.79407e-11
-1.91871e-11
5.76136e-11
-6.4287e-12
5.55379e-11
8.04571e-12
5.12732e-11
2.57896e-11
4.4433e-11
4.64483e-11
3.41526e-11
7.35006e-11
1.96511e-11
1.06196e-10
-1.03778e-12
1.53636e-10
-2.98364e-11
2.15303e-10
-7.19187e-11
3.16235e-10
-1.32955e-10
4.61383e-10
-2.2924e-10
7.34794e-10
-3.80589e-10
1.17561e-09
-6.51669e-10
2.16485e-09
-1.12269e-09
3.96223e-09
-2.12579e-09
9.32641e-09
-3.87452e-09
1.9611e-08
-6.37119e-09
7.18408e-08
-6.37335e-09
5.05418e-08
-1.60161e-07
5.82372e-09
-1.65985e-07
6.08914e-09
5.02764e-08
3.94751e-09
7.39824e-08
2.22864e-09
2.13299e-08
1.19996e-09
1.03551e-08
7.0474e-10
4.45744e-09
4.16022e-10
2.45355e-09
2.53516e-10
1.33816e-09
1.49649e-10
8.38659e-10
8.36011e-11
5.27419e-10
3.7986e-11
3.61868e-10
6.71606e-12
2.46559e-10
-1.57838e-11
1.76116e-10
-3.16042e-11
1.22059e-10
-4.28721e-11
8.47678e-11
-5.04415e-11
5.40183e-11
-5.52522e-11
3.06445e-11
-5.77233e-11
1.05057e-11
-5.83312e-11
-5.83795e-12
-5.73264e-11
-2.01669e-11
-5.49902e-11
-3.21619e-11
-5.14986e-11
-4.26825e-11
-4.7042e-11
-5.15651e-11
-4.17619e-11
-5.91885e-11
-3.58035e-11
-6.55045e-11
-2.92881e-11
-7.07233e-11
-2.23397e-11
-7.479e-11
-1.50694e-11
-7.78127e-11
-7.58754e-12
-7.98139e-11
-8.97055e-16
-8.07962e-11
7.58564e-12
-8.08053e-11
1.50674e-11
-7.98353e-11
2.23376e-11
-7.78095e-11
2.92853e-11
-7.47683e-11
3.58002e-11
-7.07373e-11
4.17591e-11
-6.54909e-11
4.70406e-11
-5.91877e-11
5.14984e-11
-5.15981e-11
5.499e-11
-4.26669e-11
5.73267e-11
-3.21614e-11
5.83318e-11
-2.0196e-11
5.77231e-11
-5.80922e-12
5.52528e-11
1.05053e-11
5.04439e-11
3.05984e-11
4.2875e-11
5.40141e-11
3.16079e-11
8.47672e-11
1.57888e-11
1.22011e-10
-6.71083e-12
1.76129e-10
-3.79809e-11
2.46575e-10
-8.35958e-11
3.61848e-10
-1.49644e-10
5.27432e-10
-2.5351e-10
8.38661e-10
-4.16015e-10
1.33811e-09
-7.04733e-10
2.45357e-09
-1.19995e-09
4.45745e-09
-2.22863e-09
1.03551e-08
-3.9475e-09
2.13299e-08
-6.08913e-09
7.39824e-08
-5.82372e-09
5.02764e-08
-1.65984e-07
5.21371e-09
-1.71199e-07
5.76408e-09
4.9726e-08
4.00051e-09
7.57459e-08
2.32415e-09
2.30062e-08
1.27629e-09
1.1403e-08
7.58426e-10
4.97531e-09
4.52469e-10
2.75951e-09
2.78771e-10
1.51185e-09
1.67211e-10
9.50228e-10
9.60285e-11
5.98592e-10
4.67779e-11
4.11113e-10
1.29525e-11
2.8038e-10
-1.14248e-11
2.00493e-10
-2.86168e-11
1.39246e-10
-4.09157e-11
9.70637e-11
-4.92516e-11
6.23554e-11
-5.46392e-11
3.60308e-11
-5.75348e-11
1.34031e-11
-5.8452e-11
-4.91886e-12
-5.76615e-11
-2.09512e-11
-5.54649e-11
-3.43578e-11
-5.20508e-11
-4.60928e-11
-4.76218e-11
-5.59995e-11
-4.23278e-11
-6.44824e-11
-3.63225e-11
-7.15116e-11
-2.97336e-11
-7.73195e-11
-2.26911e-11
-8.18268e-11
-1.53118e-11
-8.51952e-11
-7.71126e-12
-8.74252e-11
-9.63638e-16
-8.85159e-11
7.70922e-12
-8.8512e-11
1.53096e-11
-8.74369e-11
2.26889e-11
-8.5184e-11
2.97306e-11
-8.1813e-11
3.63191e-11
-7.7325e-11
4.23249e-11
-7.15116e-11
4.76203e-11
-6.44887e-11
5.20505e-11
-5.60249e-11
5.54648e-11
-4.60838e-11
5.76618e-11
-3.43592e-11
5.84525e-11
-2.09897e-11
5.75346e-11
-4.89728e-12
5.464e-11
1.34104e-11
4.9254e-11
3.59818e-11
4.09187e-11
6.23522e-11
2.86205e-11
9.70634e-11
1.14297e-11
1.39207e-10
-1.29472e-11
2.00508e-10
-4.67725e-11
2.80403e-10
-9.60231e-11
4.11097e-10
-1.67205e-10
5.98611e-10
-2.78765e-10
9.50222e-10
-4.52462e-10
1.51182e-09
-7.58419e-10
2.75953e-09
-1.27628e-09
4.97531e-09
-2.32414e-09
1.14029e-08
-4.00051e-09
2.30063e-08
-5.76408e-09
7.5746e-08
-5.21372e-09
4.9726e-08
-1.71198e-07
4.52654e-09
-1.75725e-07
5.39681e-09
4.88557e-08
4.03531e-09
7.71074e-08
2.4123e-09
2.46292e-08
1.35156e-09
1.24637e-08
8.12638e-10
5.51423e-09
4.89892e-10
3.08225e-09
3.0498e-10
1.69677e-09
1.85615e-10
1.06958e-09
1.09172e-10
6.75043e-10
5.61784e-11
4.64111e-10
1.97089e-11
3.1685e-10
-6.61638e-12
2.26818e-10
-2.52369e-11
1.57873e-10
-3.86132e-11
1.10446e-10
-4.77544e-11
7.14911e-11
-5.3752e-11
4.20298e-11
-5.71009e-11
1.67452e-11
-5.83532e-11
-3.66929e-12
-5.78008e-11
-2.15064e-11
-5.5766e-11
-3.63964e-11
-5.24503e-11
-4.94117e-11
-4.80692e-11
-6.03763e-11
-4.2781e-11
-6.97651e-11
-3.6748e-11
-7.75471e-11
-3.01045e-11
-8.39609e-11
-2.29869e-11
-8.895e-11
-1.55172e-11
-9.26665e-11
-7.81646e-12
-9.51242e-11
-1.00472e-15
-9.63263e-11
7.81426e-12
-9.63279e-11
1.55147e-11
-9.51378e-11
2.29844e-11
-9.26536e-11
3.01014e-11
-8.89323e-11
3.67444e-11
-8.39711e-11
4.2778e-11
-7.75355e-11
4.80677e-11
-6.97664e-11
5.24499e-11
-6.04085e-11
5.57658e-11
-4.93988e-11
5.7801e-11
-3.6393e-11
5.83536e-11
-2.15318e-11
5.71008e-11
-3.6423e-12
5.37529e-11
1.67553e-11
4.77569e-11
4.19796e-11
3.86163e-11
7.14883e-11
2.52406e-11
1.1044e-10
6.62119e-12
1.57829e-10
-1.97035e-11
2.2683e-10
-5.61728e-11
3.16871e-10
-1.09166e-10
4.64093e-10
-1.85609e-10
6.75057e-10
-3.04973e-10
1.06958e-09
-4.89885e-10
1.69672e-09
-8.12631e-10
3.08227e-09
-1.35155e-09
5.51423e-09
-2.41229e-09
1.24637e-08
-4.0353e-09
2.46293e-08
-5.39681e-09
7.71075e-08
-4.52655e-09
4.88558e-08
-1.75725e-07
3.77017e-09
-1.79495e-07
4.99411e-09
4.76318e-08
4.05343e-09
7.80481e-08
2.49311e-09
2.61896e-08
1.42567e-09
1.35311e-08
8.67306e-10
6.07259e-09
5.28269e-10
3.4213e-09
3.32127e-10
1.89291e-09
2.0485e-10
1.19688e-09
1.23015e-10
7.56859e-10
6.61658e-11
5.20967e-10
2.69578e-11
3.56066e-10
-1.3905e-12
2.55173e-10
-2.15003e-11
1.77965e-10
-3.6003e-11
1.24951e-10
-4.59898e-11
8.14855e-11
-5.26309e-11
4.86637e-11
-5.6462e-11
2.05773e-11
-5.80744e-11
-2.05567e-12
-5.77822e-11
-2.17991e-11
-5.59291e-11
-3.82528e-11
-5.27303e-11
-5.26048e-11
-4.84141e-11
-6.46965e-11
-4.31478e-11
-7.50375e-11
-3.71025e-11
-8.3588e-11
-3.04192e-11
-9.06485e-11
-2.32408e-11
-9.61251e-11
-1.56948e-11
-1.00206e-10
-7.90785e-12
-1.02905e-10
-1.07182e-15
-1.04224e-10
7.9055e-12
-1.04237e-10
1.56921e-11
-1.02925e-10
2.32381e-11
-1.0021e-10
3.0416e-11
-9.61016e-11
3.70987e-11
-9.06467e-11
4.31447e-11
-8.35997e-11
4.84126e-11
-7.50319e-11
5.27298e-11
-6.47236e-11
5.5929e-11
-5.25964e-11
5.77824e-11
-3.82496e-11
5.80746e-11
-2.1832e-11
5.6462e-11
-2.02676e-12
5.2632e-11
2.05805e-11
4.59923e-11
4.86168e-11
3.60061e-11
8.14883e-11
2.15041e-11
1.24949e-10
1.3952e-12
1.77938e-10
-2.69524e-11
2.55175e-10