/*--------------------------------*- C++ -*----------------------------------*\
| =========                 |                                                 |
| \\      /  F ield         | foam-extend: Open Source CFD                    |
|  \\    /   O peration     | Version:     4.0                                |
|   \\  /    A nd           | Web:         http://www.foam-extend.org         |
|    \\/     M anipulation  |                                                 |
\*---------------------------------------------------------------------------*/
FoamFile
{
    version     2.0;
    format      ascii;
    class       volScalarField;
    location    "17";
    object      dC1;
}
// * * * * * * * * * * * * * * * * * * * * * * * * * * * * * * * * * * * * * //

dimensions      [0 -1 0 0 0 0 0];

internalField   nonuniform List<scalar> 
6960
(
3.40333e-13
3.41071e-13
3.41284e-13
3.40747e-13
3.40736e-13
3.3997e-13
3.41428e-13
3.40608e-13
3.39638e-13
3.40284e-13
3.39696e-13
3.40883e-13
3.40257e-13
3.41201e-13
3.4101e-13
3.40145e-13
3.40082e-13
3.40908e-13
3.40704e-13
3.41044e-13
3.40943e-13
3.41195e-13
3.39755e-13
3.40987e-13
3.4082e-13
3.40607e-13
3.39389e-13
3.39465e-13
3.40685e-13
3.39966e-13
3.40186e-13
3.41432e-13
3.40143e-13
3.41214e-13
3.39003e-13
3.40681e-13
3.4009e-13
3.40552e-13
3.40415e-13
3.40158e-13
3.4136e-13
3.4133e-13
3.41082e-13
3.40984e-13
3.40324e-13
3.40919e-13
3.40095e-13
3.40943e-13
3.41015e-13
3.39808e-13
3.40874e-13
3.40255e-13
3.40423e-13
3.4134e-13
3.39877e-13
3.40658e-13
3.39858e-13
3.40382e-13
3.40457e-13
3.40628e-13
2.21225e-14
2.22079e-14
2.20765e-14
2.22817e-14
2.2191e-14
2.22179e-14
2.21329e-14
2.21381e-14
2.22092e-14
2.22214e-14
2.2217e-14
2.2227e-14
2.21654e-14
2.22721e-14
2.21195e-14
2.22934e-14
2.22309e-14
2.22474e-14
2.21463e-14
2.22843e-14
2.22274e-14
2.22474e-14
2.22665e-14
2.21416e-14
2.23124e-14
2.22704e-14
2.22413e-14
2.22058e-14
2.2211e-14
2.22036e-14
2.22799e-14
2.22032e-14
2.21546e-14
2.22478e-14
2.23164e-14
2.22383e-14
2.21789e-14
2.22834e-14
2.21897e-14
2.22123e-14
2.20882e-14
2.22496e-14
2.21884e-14
2.22973e-14
2.2211e-14
2.22756e-14
2.2217e-14
2.22313e-14
2.22387e-14
2.21359e-14
2.21698e-14
2.21303e-14
2.22335e-14
2.22335e-14
2.21455e-14
2.22079e-14
2.22179e-14
2.20934e-14
2.21329e-14
2.21598e-14
-8.40179e-14
-8.4017e-14
-8.40049e-14
-8.40478e-14
-8.40036e-14
-8.40595e-14
-8.4043e-14
-8.4014e-14
-8.40664e-14
-8.40304e-14
-8.41172e-14
-8.40829e-14
-8.41107e-14
-8.40781e-14
-8.40252e-14
-8.40612e-14
-8.40864e-14
-8.40291e-14
-8.40252e-14
-8.41068e-14
-8.40942e-14
-8.40651e-14
-8.40907e-14
-8.40434e-14
-8.40174e-14
-8.4112e-14
-8.40621e-14
-8.40352e-14
-8.40591e-14
-8.40643e-14
-8.41098e-14
-8.40552e-14
-8.40521e-14
-8.40716e-14
-8.40213e-14
-8.39936e-14
-8.40595e-14
-8.4066e-14
-8.40148e-14
-8.40846e-14
-8.40161e-14
-8.40669e-14
-8.40677e-14
-8.41016e-14
-8.40404e-14
-8.40421e-14
-8.40365e-14
-8.40703e-14
-8.4053e-14
-8.40153e-14
-8.40708e-14
-8.40634e-14
-8.40868e-14
-8.40942e-14
-8.40222e-14
-8.40621e-14
-8.40825e-14
-8.40851e-14
-8.40951e-14
-8.40348e-14
-1.50023e-13
-1.50016e-13
-1.49979e-13
-1.5e-13
-1.50009e-13
-1.49987e-13
-1.49984e-13
-1.49989e-13
-1.50025e-13
-1.49985e-13
-1.49982e-13
-1.50002e-13
-1.50009e-13
-1.49989e-13
-1.50015e-13
-1.50011e-13
-1.50005e-13
-1.49974e-13
-1.49972e-13
-1.49988e-13
-1.49963e-13
-1.49984e-13
-1.49992e-13
-1.49978e-13
-1.50018e-13
-1.49949e-13
-1.50007e-13
-1.50028e-13
-1.49982e-13
-1.50003e-13
-1.49968e-13
-1.49971e-13
-1.49984e-13
-1.49973e-13
-1.50002e-13
-1.50001e-13
-1.49994e-13
-1.50012e-13
-1.50028e-13
-1.49966e-13
-1.50014e-13
-1.49981e-13
-1.50003e-13
-1.49995e-13
-1.49975e-13
-1.50017e-13
-1.50002e-13
-1.49988e-13
-1.50006e-13
-1.50009e-13
-1.49983e-13
-1.49999e-13
-1.49977e-13
-1.49978e-13
-1.49991e-13
-1.49959e-13
-1.50005e-13
-1.49942e-13
-1.49963e-13
-1.50008e-13
-1.74948e-13
-1.74942e-13
-1.74983e-13
-1.74948e-13
-1.74958e-13
-1.74988e-13
-1.74967e-13
-1.7495e-13
-1.74959e-13
-1.74963e-13
-1.74978e-13
-1.74975e-13
-1.74964e-13
-1.74964e-13
-1.74939e-13
-1.74957e-13
-1.74978e-13
-1.74988e-13
-1.74962e-13
-1.74959e-13
-1.74974e-13
-1.74963e-13
-1.74963e-13
-1.74965e-13
-1.74954e-13
-1.74977e-13
-1.74953e-13
-1.74986e-13
-1.74969e-13
-1.74959e-13
-1.74956e-13
-1.74962e-13
-1.74941e-13
-1.74982e-13
-1.74964e-13
-1.74966e-13
-1.74999e-13
-1.74941e-13
-1.74953e-13
-1.75007e-13
-1.74986e-13
-1.74935e-13
-1.74987e-13
-1.74988e-13
-1.74963e-13
-1.74969e-13
-1.74998e-13
-1.74974e-13
-1.74953e-13
-1.74958e-13
-1.74949e-13
-1.74985e-13
-1.74962e-13
-1.74965e-13
-1.74971e-13
-1.7499e-13
-1.74945e-13
-1.74995e-13
-1.74975e-13
-1.74948e-13
-1.76875e-13
-1.76869e-13
-1.76876e-13
-1.76885e-13
-1.7688e-13
-1.76874e-13
-1.76876e-13
-1.7689e-13
-1.76885e-13
-1.76884e-13
-1.76855e-13
-1.7687e-13
-1.76873e-13
-1.76878e-13
-1.76883e-13
-1.76852e-13
-1.76871e-13
-1.76879e-13
-1.76865e-13
-1.76891e-13
-1.76878e-13
-1.76879e-13
-1.76884e-13
-1.76879e-13
-1.76883e-13
-1.76873e-13
-1.76879e-13
-1.76848e-13
-1.76869e-13
-1.76872e-13
-1.76891e-13
-1.76901e-13
-1.76875e-13
-1.76864e-13
-1.76873e-13
-1.76891e-13
-1.7686e-13
-1.7689e-13
-1.76877e-13
-1.76857e-13
-1.76891e-13
-1.76891e-13
-1.76862e-13
-1.76864e-13
-1.7686e-13
-1.7688e-13
-1.76862e-13
-1.76894e-13
-1.76886e-13
-1.76888e-13
-1.76888e-13
-1.76893e-13
-1.76885e-13
-1.76891e-13
-1.76877e-13
-1.76868e-13
-1.76891e-13
-1.76862e-13
-1.76875e-13
-1.76883e-13
-1.81211e-13
-1.81229e-13
-1.81212e-13
-1.81225e-13
-1.81219e-13
-1.8122e-13
-1.81227e-13
-1.81234e-13
-1.81213e-13
-1.81224e-13
-1.81212e-13
-1.81239e-13
-1.81221e-13
-1.81213e-13
-1.81225e-13
-1.81245e-13
-1.81212e-13
-1.81228e-13
-1.81208e-13
-1.81207e-13
-1.81214e-13
-1.81201e-13
-1.8123e-13
-1.81231e-13
-1.81216e-13
-1.81236e-13
-1.81236e-13
-1.8123e-13
-1.81224e-13
-1.81236e-13
-1.81204e-13
-1.81203e-13
-1.81225e-13
-1.81231e-13
-1.81237e-13
-1.8122e-13
-1.81227e-13
-1.8119e-13
-1.81214e-13
-1.8121e-13
-1.81228e-13
-1.81211e-13
-1.81225e-13
-1.81216e-13
-1.81233e-13
-1.81204e-13
-1.81233e-13
-1.8123e-13
-1.8123e-13
-1.81194e-13
-1.81218e-13
-1.81207e-13
-1.81206e-13
-1.81205e-13
-1.81219e-13
-1.81239e-13
-1.81218e-13
-1.81216e-13
-1.81222e-13
-1.81194e-13
-2.05945e-13
-2.05936e-13
-2.05958e-13
-2.05922e-13
-2.0596e-13
-2.05923e-13
-2.05925e-13
-2.05922e-13
-2.05945e-13
-2.05953e-13
-2.05939e-13
-2.05914e-13
-2.05948e-13
-2.05945e-13
-2.05951e-13
-2.05937e-13
-2.05955e-13
-2.05924e-13
-2.05946e-13
-2.05925e-13
-2.05947e-13
-2.05975e-13
-2.05927e-13
-2.05929e-13
-2.05924e-13
-2.05945e-13
-2.05912e-13
-2.05944e-13
-2.05941e-13
-2.05954e-13
-2.05953e-13
-2.05944e-13
-2.05933e-13
-2.05945e-13
-2.05928e-13
-2.05939e-13
-2.05929e-13
-2.05952e-13
-2.05939e-13
-2.05923e-13
-2.05932e-13
-2.05945e-13
-2.05952e-13
-2.05947e-13
-2.05915e-13
-2.05954e-13
-2.05945e-13
-2.05974e-13
-2.0592e-13
-2.05941e-13
-2.05955e-13
-2.05976e-13
-2.05965e-13
-2.05937e-13
-2.0594e-13
-2.05946e-13
-2.05945e-13
-2.05939e-13
-2.05937e-13
-2.05972e-13
-2.49004e-13
-2.48995e-13
-2.48996e-13
-2.4902e-13
-2.48984e-13
-2.49012e-13
-2.4901e-13
-2.49005e-13
-2.48989e-13
-2.48992e-13
-2.49017e-13
-2.49027e-13
-2.49004e-13
-2.49009e-13
-2.49001e-13
-2.48997e-13
-2.49035e-13
-2.49024e-13
-2.48994e-13
-2.49e-13
-2.48988e-13
-2.48985e-13
-2.4903e-13
-2.49014e-13
-2.49017e-13
-2.49e-13
-2.49e-13
-2.49002e-13
-2.49018e-13
-2.48978e-13
-2.48998e-13
-2.48991e-13
-2.48994e-13
-2.49001e-13
-2.48994e-13
-2.4901e-13
-2.49004e-13
-2.49004e-13
-2.49012e-13
-2.49009e-13
-2.49023e-13
-2.48983e-13
-2.48978e-13
-2.49006e-13
-2.48995e-13
-2.48988e-13
-2.48999e-13
-2.48978e-13
-2.49021e-13
-2.49e-13
-2.49e-13
-2.49007e-13
-2.4897e-13
-2.49002e-13
-2.48999e-13
-2.48989e-13
-2.49017e-13
-2.48997e-13
-2.4904e-13
-2.48981e-13
-2.76047e-13
-2.76039e-13
-2.76037e-13
-2.76037e-13
-2.76032e-13
-2.76035e-13
-2.76033e-13
-2.76001e-13
-2.76026e-13
-2.7606e-13
-2.76008e-13
-2.76024e-13
-2.7603e-13
-2.7602e-13
-2.76032e-13
-2.76034e-13
-2.76001e-13
-2.76001e-13
-2.76018e-13
-2.76026e-13
-2.76014e-13
-2.76017e-13
-2.76027e-13
-2.76027e-13
-2.76047e-13
-2.76021e-13
-2.76027e-13
-2.76021e-13
-2.76025e-13
-2.76063e-13
-2.76024e-13
-2.76026e-13
-2.76021e-13
-2.76031e-13
-2.76027e-13
-2.76019e-13
-2.76044e-13
-2.7603e-13
-2.76014e-13
-2.76024e-13
-2.76015e-13
-2.7604e-13
-2.76036e-13
-2.76017e-13
-2.76066e-13
-2.76033e-13
-2.76022e-13
-2.76026e-13
-2.7601e-13
-2.76017e-13
-2.76048e-13
-2.7605e-13
-2.7604e-13
-2.7602e-13
-2.76045e-13
-2.7605e-13
-2.76005e-13
-2.76044e-13
-2.76033e-13
-2.7605e-13
-2.13908e-13
-2.13933e-13
-2.13926e-13
-2.13938e-13
-2.1395e-13
-2.13921e-13
-2.13941e-13
-2.13923e-13
-2.13917e-13
-2.1391e-13
-2.13943e-13
-2.13975e-13
-2.13938e-13
-2.13952e-13
-2.13941e-13
-2.13924e-13
-2.13952e-13
-2.13964e-13
-2.13954e-13
-2.13943e-13
-2.1395e-13
-2.13963e-13
-2.13929e-13
-2.13923e-13
-2.13929e-13
-2.13937e-13
-2.1395e-13
-2.1392e-13
-2.13943e-13
-2.13915e-13
-2.13951e-13
-2.1393e-13
-2.13979e-13
-2.13907e-13
-2.13943e-13
-2.13928e-13
-2.13912e-13
-2.13945e-13
-2.13952e-13
-2.13923e-13
-2.13926e-13
-2.1392e-13
-2.13947e-13
-2.13958e-13
-2.13913e-13
-2.13934e-13
-2.13946e-13
-2.1395e-13
-2.13932e-13
-2.13979e-13
-2.1393e-13
-2.13917e-13
-2.13948e-13
-2.13935e-13
-2.139e-13
-2.13942e-13
-2.13936e-13
-2.13925e-13
-2.13908e-13
-2.13941e-13
1.56385e-14
1.56563e-14
1.56472e-14
1.56394e-14
1.56685e-14
1.5596e-14
1.5652e-14
1.56351e-14
1.55986e-14
1.56355e-14
1.56273e-14
1.56589e-14
1.5632e-14
1.56524e-14
1.56676e-14
1.56151e-14
1.56667e-14
1.56593e-14
1.56606e-14
1.56381e-14
1.56719e-14
1.56273e-14
1.56086e-14
1.56125e-14
1.56125e-14
1.56264e-14
1.56485e-14
1.56264e-14
1.56667e-14
1.56112e-14
1.56359e-14
1.56364e-14
1.56858e-14
1.55665e-14
1.56286e-14
1.56507e-14
1.56498e-14
1.56533e-14
1.56329e-14
1.56303e-14
1.56294e-14
1.56229e-14
1.56546e-14
1.56411e-14
1.56247e-14
1.56095e-14
1.56294e-14
1.56437e-14
1.56424e-14
1.56502e-14
1.56329e-14
1.56494e-14
1.5639e-14
1.56216e-14
1.5619e-14
1.5665e-14
1.56585e-14
1.56238e-14
1.56121e-14
1.56541e-14
3.82601e-13
3.82618e-13
3.82592e-13
3.82624e-13
3.82594e-13
3.82652e-13
3.82594e-13
3.82588e-13
3.82645e-13
3.82568e-13
3.82609e-13
3.82611e-13
3.82568e-13
3.82635e-13
3.82573e-13
3.82617e-13
3.82591e-13
3.82606e-13
3.82602e-13
3.82624e-13
3.82575e-13
3.82633e-13
3.82645e-13
3.82628e-13
3.82635e-13
3.82625e-13
3.82575e-13
3.82628e-13
3.82592e-13
3.82634e-13
3.82639e-13
3.82655e-13
3.82592e-13
3.82635e-13
3.82553e-13
3.82611e-13
3.8258e-13
3.82602e-13
3.8265e-13
3.82598e-13
3.82575e-13
3.82654e-13
3.82631e-13
3.82635e-13
3.82607e-13
3.8265e-13
3.82604e-13
3.82631e-13
3.82605e-13
3.82622e-13
3.8262e-13
3.82581e-13
3.82631e-13
3.8263e-13
3.82595e-13
3.82613e-13
3.82555e-13
3.82619e-13
3.82668e-13
3.82623e-13
6.22757e-13
6.22764e-13
6.22774e-13
6.22698e-13
6.22769e-13
6.22699e-13
6.22797e-13
6.22767e-13
6.22753e-13
6.2277e-13
6.22773e-13
6.22717e-13
6.22802e-13
6.22708e-13
6.22766e-13
6.22762e-13
6.22777e-13
6.22712e-13
6.22734e-13
6.22672e-13
6.2274e-13
6.2277e-13
6.22713e-13
6.2271e-13
6.22747e-13
6.22717e-13
6.22789e-13
6.22756e-13
6.22767e-13
6.22698e-13
6.22682e-13
6.22638e-13
6.22695e-13
6.22696e-13
6.22787e-13
6.22731e-13
6.2275e-13
6.22779e-13
6.22666e-13
6.22759e-13
6.22787e-13
6.22747e-13
6.22702e-13
6.22715e-13
6.22749e-13
6.22713e-13
6.22713e-13
6.22701e-13
6.22721e-13
6.22733e-13
6.22757e-13
6.22789e-13
6.22652e-13
6.22754e-13
6.22802e-13
6.22705e-13
6.22794e-13
6.22726e-13
6.22685e-13
6.22713e-13
3.51359e-13
3.51376e-13
3.51369e-13
3.51415e-13
3.51345e-13
3.51421e-13
3.51308e-13
3.51423e-13
3.51351e-13
3.51357e-13
3.51325e-13
3.51442e-13
3.51336e-13
3.51352e-13
3.51336e-13
3.51379e-13
3.51347e-13
3.51393e-13
3.51413e-13
3.51443e-13
3.51405e-13
3.51291e-13
3.51336e-13
3.51399e-13
3.51357e-13
3.51447e-13
3.51344e-13
3.51406e-13
3.5138e-13
3.51448e-13
3.51422e-13
3.5147e-13
3.51478e-13
3.51425e-13
3.51372e-13
3.51361e-13
3.51383e-13
3.5135e-13
3.51499e-13
3.51326e-13
3.51386e-13
3.5133e-13
3.51416e-13
3.5136e-13
3.5141e-13
3.51397e-13
3.51421e-13
3.51375e-13
3.51409e-13
3.51392e-13
3.51353e-13
3.51343e-13
3.51443e-13
3.5137e-13
3.51324e-13
3.51452e-13
3.51384e-13
3.51389e-13
3.51462e-13
3.51384e-13
-4.70318e-13
-4.70312e-13
-4.70253e-13
-4.70293e-13
-4.70334e-13
-4.70375e-13
-4.70252e-13
-4.70326e-13
-4.70234e-13
-4.70318e-13
-4.70213e-13
-4.70342e-13
-4.70274e-13
-4.70283e-13
-4.70232e-13
-4.70251e-13
-4.70267e-13
-4.70308e-13
-4.70333e-13
-4.70405e-13
-4.70343e-13
-4.70262e-13
-4.70258e-13
-4.70308e-13
-4.7029e-13
-4.70382e-13
-4.70294e-13
-4.70371e-13
-4.70324e-13
-4.70349e-13
-4.70301e-13
-4.70343e-13
-4.70363e-13
-4.70303e-13
-4.70284e-13
-4.70359e-13
-4.70316e-13
-4.70352e-13
-4.70352e-13
-4.70241e-13
-4.70338e-13
-4.70176e-13
-4.70386e-13
-4.70326e-13
-4.70303e-13
-4.70296e-13
-4.70401e-13
-4.70272e-13
-4.70267e-13
-4.70305e-13
-4.7028e-13
-4.70284e-13
-4.70322e-13
-4.70264e-13
-4.70321e-13
-4.70392e-13
-4.70333e-13
-4.70361e-13
-4.70355e-13
-4.70283e-13
-1.24477e-12
-1.24476e-12
-1.24483e-12
-1.24483e-12
-1.24476e-12
-1.24473e-12
-1.2448e-12
-1.24479e-12
-1.24484e-12
-1.24476e-12
-1.24487e-12
-1.24479e-12
-1.24476e-12
-1.24473e-12
-1.24484e-12
-1.24481e-12
-1.24475e-12
-1.24477e-12
-1.24479e-12
-1.24474e-12
-1.24472e-12
-1.24477e-12
-1.2448e-12
-1.24479e-12
-1.24479e-12
-1.24475e-12
-1.24481e-12
-1.24473e-12
-1.24479e-12
-1.2447e-12
-1.24478e-12
-1.24477e-12
-1.24476e-12
-1.24479e-12
-1.24476e-12
-1.24467e-12
-1.24473e-12
-1.2447e-12
-1.24477e-12
-1.24484e-12
-1.24474e-12
-1.2449e-12
-1.24471e-12
-1.24477e-12
-1.24482e-12
-1.24478e-12
-1.2447e-12
-1.24476e-12
-1.24484e-12
-1.2448e-12
-1.24478e-12
-1.24481e-12
-1.2448e-12
-1.24482e-12
-1.24476e-12
-1.24479e-12
-1.24474e-12
-1.24475e-12
-1.24473e-12
-1.24481e-12
-1.26316e-12
-1.26318e-12
-1.26311e-12
-1.26301e-12
-1.26312e-12
-1.26315e-12
-1.26314e-12
-1.2631e-12
-1.26313e-12
-1.26313e-12
-1.26307e-12
-1.26307e-12
-1.26304e-12
-1.26315e-12
-1.26312e-12
-1.26313e-12
-1.26318e-12
-1.26308e-12
-1.26309e-12
-1.2631e-12
-1.26313e-12
-1.26309e-12
-1.26306e-12
-1.2631e-12
-1.26312e-12
-1.26312e-12
-1.26299e-12
-1.26312e-12
-1.26305e-12
-1.2631e-12
-1.26307e-12
-1.26306e-12
-1.26315e-12
-1.26308e-12
-1.26307e-12
-1.2631e-12
-1.26311e-12
-1.26307e-12
-1.26314e-12
-1.26306e-12
-1.26313e-12
-1.26305e-12
-1.26314e-12
-1.26304e-12
-1.26306e-12
-1.26308e-12
-1.26314e-12
-1.26313e-12
-1.2631e-12
-1.26304e-12
-1.26315e-12
-1.26308e-12
-1.26306e-12
-1.26313e-12
-1.26304e-12
-1.26304e-12
-1.26305e-12
-1.26308e-12
-1.26311e-12
-1.26311e-12
-5.12139e-13
-5.12157e-13
-5.12171e-13
-5.12252e-13
-5.12175e-13
-5.12214e-13
-5.12079e-13
-5.12241e-13
-5.12182e-13
-5.122e-13
-5.12119e-13
-5.1224e-13
-5.12271e-13
-5.12192e-13
-5.12122e-13
-5.12202e-13
-5.12181e-13
-5.12203e-13
-5.12175e-13
-5.12257e-13
-5.12186e-13
-5.12278e-13
-5.12201e-13
-5.12195e-13
-5.12194e-13
-5.12254e-13
-5.12331e-13
-5.12147e-13
-5.12255e-13
-5.12215e-13
-5.12181e-13
-5.12205e-13
-5.12185e-13
-5.12233e-13
-5.12234e-13
-5.12287e-13
-5.12126e-13
-5.1225e-13
-5.12191e-13
-5.12249e-13
-5.12199e-13
-5.12237e-13
-5.12247e-13
-5.12239e-13
-5.12178e-13
-5.12139e-13
-5.12223e-13
-5.12142e-13
-5.12188e-13
-5.12269e-13
-5.1213e-13
-5.12173e-13
-5.12199e-13
-5.12143e-13
-5.12224e-13
-5.12307e-13
-5.12276e-13
-5.12237e-13
-5.12258e-13
-5.1216e-13
3.69568e-13
3.69664e-13
3.69568e-13
3.69635e-13
3.69642e-13
3.69659e-13
3.69572e-13
3.69683e-13
3.69661e-13
3.69686e-13
3.69526e-13
3.69661e-13
3.69743e-13
3.69604e-13
3.69551e-13
3.69571e-13
3.69628e-13
3.69737e-13
3.69595e-13
3.69731e-13
3.69577e-13
3.69737e-13
3.69587e-13
3.69582e-13
3.69582e-13
3.69668e-13
3.69721e-13
3.69586e-13
3.69744e-13
3.69594e-13
3.69611e-13
3.69595e-13
3.69701e-13
3.69635e-13
3.69606e-13
3.69733e-13
3.69506e-13
3.69686e-13
3.69678e-13
3.69694e-13
3.69642e-13
3.69626e-13
3.6971e-13
3.69659e-13
3.69666e-13
3.69631e-13
3.69726e-13
3.69598e-13
3.69622e-13
3.69704e-13
3.69583e-13
3.6967e-13
3.6961e-13
3.69602e-13
3.69631e-13
3.6979e-13
3.69726e-13
3.69595e-13
3.69766e-13
3.69513e-13
8.40213e-13
8.40148e-13
8.40234e-13
8.40231e-13
8.40156e-13
8.40129e-13
8.40264e-13
8.40178e-13
8.40157e-13
8.40068e-13
8.40265e-13
8.40179e-13
8.40127e-13
8.40272e-13
8.40205e-13
8.403e-13
8.40157e-13
8.40096e-13
8.40183e-13
8.40155e-13
8.40252e-13
8.40215e-13
8.40349e-13
8.40228e-13
8.40257e-13
8.40166e-13
8.40071e-13
8.4015e-13
8.40097e-13
8.40282e-13
8.40271e-13
8.40215e-13
8.40091e-13
8.40217e-13
8.40163e-13
8.40167e-13
8.40322e-13
8.40163e-13
8.40134e-13
8.40264e-13
8.40195e-13
8.40084e-13
8.40195e-13
8.40258e-13
8.4009e-13
8.40118e-13
8.40195e-13
8.40179e-13
8.40226e-13
8.40271e-13
8.40275e-13
8.4008e-13
8.40148e-13
8.40221e-13
8.40122e-13
8.40068e-13
8.40197e-13
8.40205e-13
8.40182e-13
8.4034e-13
8.49849e-13
8.49962e-13
8.49916e-13
8.4988e-13
8.49916e-13
8.50018e-13
8.49928e-13
8.49971e-13
8.49966e-13
8.50002e-13
8.49899e-13
8.49953e-13
8.50026e-13
8.49895e-13
8.49997e-13
8.49944e-13
8.49892e-13
8.49966e-13
8.50039e-13
8.49943e-13
8.49906e-13
8.4983e-13
8.49836e-13
8.49896e-13
8.49926e-13
8.49878e-13
8.50139e-13
8.49995e-13
8.49991e-13
8.49891e-13
8.49858e-13
8.50043e-13
8.50117e-13
8.49831e-13
8.49878e-13
8.499e-13
8.49861e-13
8.49963e-13
8.50026e-13
8.4985e-13
8.4994e-13
8.49951e-13
8.4989e-13
8.49907e-13
8.49982e-13
8.50009e-13
8.49945e-13
8.49929e-13
8.49815e-13
8.49824e-13
8.49856e-13
8.49974e-13
8.49894e-13
8.4992e-13
8.50017e-13
8.50116e-13
8.49881e-13
8.49957e-13
8.49834e-13
8.49799e-13
6.32483e-13
6.32252e-13
6.32439e-13
6.32322e-13
6.32333e-13
6.32257e-13
6.32374e-13
6.32384e-13
6.32415e-13
6.32388e-13
6.32227e-13
6.32361e-13
6.32216e-13
6.3234e-13
6.32244e-13
6.32306e-13
6.32317e-13
6.32358e-13
6.32218e-13
6.32334e-13
6.32279e-13
6.32367e-13
6.32312e-13
6.32236e-13
6.32572e-13
6.32302e-13
6.32181e-13
6.32315e-13
6.32168e-13
6.32338e-13
6.32398e-13
6.32207e-13
6.32269e-13
6.32349e-13
6.32335e-13
6.32421e-13
6.32373e-13
6.32341e-13
6.32256e-13
6.3224e-13
6.32283e-13
6.32353e-13
6.3239e-13
6.32369e-13
6.323e-13
6.32199e-13
6.32274e-13
6.32345e-13
6.32439e-13
6.324e-13
6.32294e-13
6.32384e-13
6.32376e-13
6.32367e-13
6.32371e-13
6.32229e-13
6.32312e-13
6.32293e-13
6.32458e-13
6.32343e-13
3.94889e-13
3.95137e-13
3.94958e-13
3.94945e-13
3.9485e-13
3.9502e-13
3.94993e-13
3.94967e-13
3.94879e-13
3.94818e-13
3.95163e-13
3.94981e-13
3.9508e-13
3.95014e-13
3.95109e-13
3.9497e-13
3.94926e-13
3.94948e-13
3.94964e-13
3.94984e-13
3.94988e-13
3.94998e-13
3.95124e-13
3.94998e-13
3.94675e-13
3.95111e-13
3.9499e-13
3.95109e-13
3.95142e-13
3.94938e-13
3.9499e-13
3.95056e-13
3.94954e-13
3.95007e-13
3.94971e-13
3.94773e-13
3.94958e-13
3.94961e-13
3.94923e-13
3.95e-13
3.94886e-13
3.94861e-13
3.94889e-13
3.94884e-13
3.94948e-13
3.95069e-13
3.95018e-13
3.94894e-13
3.94866e-13
3.94899e-13
3.94997e-13
3.94998e-13
3.95017e-13
3.9497e-13
3.94886e-13
3.94832e-13
3.94961e-13
3.95087e-13
3.94775e-13
3.94978e-13
2.21445e-13
2.21543e-13
2.21463e-13
2.21574e-13
2.21586e-13
2.21519e-13
2.21497e-13
2.21522e-13
2.21341e-13
2.21699e-13
2.21402e-13
2.21482e-13
2.21439e-13
2.21594e-13
2.21438e-13
2.21549e-13
2.21416e-13
2.21539e-13
2.21646e-13
2.21387e-13
2.21314e-13
2.21414e-13
2.21287e-13
2.21433e-13
2.21806e-13
2.21376e-13
2.21575e-13
2.21349e-13
2.21567e-13
2.21403e-13
2.21458e-13
2.21386e-13
2.21567e-13
2.21496e-13
2.21464e-13
2.21581e-13
2.21501e-13
2.2166e-13
2.21449e-13
2.21528e-13
2.21526e-13
2.21575e-13
2.21524e-13
2.21482e-13
2.21667e-13
2.21477e-13
2.21592e-13
2.21641e-13
2.21716e-13
2.21544e-13
2.21541e-13
2.21476e-13
2.21411e-13
2.21446e-13
2.21483e-13
2.21513e-13
2.21518e-13
2.21389e-13
2.21684e-13
2.21584e-13
1.15689e-13
1.15673e-13
1.15623e-13
1.15513e-13
1.1554e-13
1.1562e-13
1.15636e-13
1.15676e-13
1.15704e-13
1.15395e-13
1.15553e-13
1.15579e-13
1.15503e-13
1.15572e-13
1.15567e-13
1.15559e-13
1.15685e-13
1.15536e-13
1.15419e-13
1.1567e-13
1.15739e-13
1.1568e-13
1.15815e-13
1.15649e-13
1.1526e-13
1.15739e-13
1.15572e-13
1.15729e-13
1.15497e-13
1.1574e-13
1.15576e-13
1.15636e-13
1.15595e-13
1.15631e-13
1.1556e-13
1.15612e-13
1.15428e-13
1.15396e-13
1.15692e-13
1.15571e-13
1.15461e-13
1.15472e-13
1.15632e-13
1.15625e-13
1.15385e-13
1.15609e-13
1.15524e-13
1.15584e-13
1.15293e-13
1.15491e-13
1.1552e-13
1.15588e-13
1.15658e-13
1.15497e-13
1.15737e-13
1.15742e-13
1.15608e-13
1.15715e-13
1.1555e-13
1.15664e-13
5.65507e-14
5.66708e-14
5.6784e-14
5.67805e-14
5.66712e-14
5.65151e-14
5.66179e-14
5.67203e-14
5.66496e-14
5.66457e-14
5.6784e-14
5.6617e-14
5.66149e-14
5.66413e-14
5.66725e-14
5.67706e-14
5.67259e-14
5.66778e-14
5.67532e-14
5.66331e-14
5.67285e-14
5.66079e-14
5.6441e-14
5.64861e-14
5.70091e-14
5.64874e-14
5.66851e-14
5.64639e-14
5.65763e-14
5.63772e-14
5.67124e-14
5.6617e-14
5.64479e-14
5.66543e-14
5.66578e-14
5.65633e-14
5.67844e-14
5.68629e-14
5.65958e-14
5.67307e-14
5.6735e-14
5.65516e-14
5.66712e-14
5.66877e-14
5.67706e-14
5.65624e-14
5.67211e-14
5.66157e-14
5.68864e-14
5.65516e-14
5.67042e-14
5.66752e-14
5.6663e-14
5.65901e-14
5.65186e-14
5.6431e-14
5.65277e-14
5.6565e-14
5.67593e-14
5.65797e-14
2.55958e-14
2.53634e-14
2.53846e-14
2.53074e-14
2.56284e-14
2.55369e-14
2.55412e-14
2.53469e-14
2.54059e-14
2.55017e-14
2.53851e-14
2.5454e-14
2.55382e-14
2.54709e-14
2.54423e-14
2.54228e-14
2.5314e-14
2.56752e-14
2.55425e-14
2.55581e-14
2.54519e-14
2.53829e-14
2.57086e-14
2.5569e-14
2.51114e-14
2.55139e-14
2.55013e-14
2.55742e-14
2.57264e-14
2.56696e-14
2.54662e-14
2.55408e-14
2.5801e-14
2.53825e-14
2.55243e-14
2.55941e-14
2.54349e-14
2.54271e-14
2.54384e-14
2.55182e-14
2.5477e-14
2.584e-14
2.55048e-14
2.55421e-14
2.54258e-14
2.56171e-14
2.54315e-14
2.54276e-14
2.54415e-14
2.5585e-14
2.54523e-14
2.55499e-14
2.55533e-14
2.56678e-14
2.55061e-14
2.56362e-14
2.54536e-14
2.53699e-14
2.53573e-14
2.55273e-14
9.40741e-15
9.89443e-15
9.6906e-15
9.72876e-15
9.34842e-15
9.71749e-15
9.46639e-15
9.69754e-15
9.82547e-15
9.66631e-15
9.72226e-15
9.69103e-15
9.72659e-15
9.80596e-15
9.62641e-15
9.59562e-15
9.6082e-15
9.45468e-15
9.54575e-15
9.76389e-15
9.51799e-15
9.75392e-15
9.55312e-15
9.81073e-15
9.86494e-15
9.72226e-15
9.6971e-15
9.62425e-15
9.52623e-15
9.58218e-15
9.61514e-15
9.44123e-15
9.09385e-15
9.79121e-15
9.67022e-15
9.5709e-15
9.79815e-15
9.71792e-15
9.6056e-15
9.56223e-15
9.70231e-15
9.37271e-15
9.57784e-15
9.652e-15
9.63682e-15
9.4807e-15
9.5696e-15
9.72313e-15
9.67325e-15
9.52537e-15
9.68106e-15
9.58565e-15
9.64463e-15
9.39353e-15
9.74307e-15
9.5297e-15
9.82157e-15
9.66718e-15
9.74307e-15
9.49674e-15
2.11072e-15
1.80238e-15
1.88955e-15
1.81018e-15
1.99363e-15
1.95286e-15
2.06475e-15
1.66924e-15
1.92164e-15
1.96414e-15
1.77115e-15
1.80845e-15
1.6172e-15
1.65753e-15
1.87871e-15
1.93465e-15
2.13284e-15
2.05825e-15
1.90993e-15
1.51962e-15
2.01228e-15
1.82927e-15
1.69092e-15
1.59768e-15
1.88651e-15
1.85919e-15
1.77462e-15
2.1207e-15
1.8761e-15
1.78286e-15
1.91036e-15
2.07516e-15
2.19659e-15
1.7525e-15
1.56949e-15
1.92858e-15
1.68398e-15
1.82059e-15
1.73125e-15
1.87263e-15
1.82016e-15
1.98192e-15
1.88174e-15
1.80368e-15
1.7486e-15
2.11159e-15
1.9494e-15
1.8748e-15
2.09338e-15
1.94202e-15
1.92945e-15
1.88825e-15
1.88174e-15
2.07169e-15
1.68485e-15
1.99667e-15
1.83664e-15
2.12417e-15
1.76682e-15
1.91817e-15
-1.92901e-15
-1.75467e-15
-1.64539e-15
-1.65276e-15
-1.67921e-15
-1.8722e-15
-1.80932e-15
-1.53176e-15
-2.11766e-15
-2.10812e-15
-1.61503e-15
-1.81712e-15
-1.4511e-15
-1.61156e-15
-1.76421e-15
-1.88695e-15
-1.77896e-15
-1.81799e-15
-1.47668e-15
-1.34615e-15
-1.53827e-15
-1.86396e-15
-1.46411e-15
-1.46844e-15
-1.82753e-15
-1.71781e-15
-1.74253e-15
-1.952e-15
-1.85442e-15
-1.56168e-15
-1.72388e-15
-1.66187e-15
-1.58771e-15
-1.71608e-15
-1.7074e-15
-1.73516e-15
-1.60549e-15
-1.66317e-15
-1.27502e-15
-1.77896e-15
-1.7833e-15
-1.67227e-15
-1.67141e-15
-1.48275e-15
-1.43332e-15
-1.84141e-15
-1.74296e-15
-1.81799e-15
-1.85095e-15
-1.62023e-15
-1.90689e-15
-1.72388e-15
-1.63324e-15
-1.67574e-15
-1.73039e-15
-1.9572e-15
-1.73689e-15
-1.75944e-15
-1.62153e-15
-1.56776e-15
-3.01105e-15
-3.40266e-15
-3.30855e-15
-3.33891e-15
-3.15546e-15
-3.37274e-15
-3.30118e-15
-3.37794e-15
-3.20794e-15
-2.89786e-15
-3.46771e-15
-3.26605e-15
-3.39529e-15
-3.58611e-15
-3.00237e-15
-3.13334e-15
-3.57049e-15
-3.09475e-15
-3.40223e-15
-3.27256e-15
-3.50761e-15
-3.31983e-15
-3.5345e-15
-3.31853e-15
-2.9139e-15
-3.35886e-15
-3.2049e-15
-2.91e-15
-3.05615e-15
-3.7006e-15
-3.51759e-15
-3.52279e-15
-3.51628e-15
-3.36927e-15
-3.1173e-15
-3.34151e-15
-3.41047e-15
-3.17801e-15
-3.51282e-15
-3.28557e-15
-3.09952e-15
-3.5319e-15
-3.49417e-15
-3.46815e-15
-3.55532e-15
-3.26171e-15
-3.25998e-15
-2.92214e-15
-3.35409e-15
-3.55315e-15
-3.09084e-15
-3.37968e-15
-3.30118e-15
-3.06005e-15
-3.04487e-15
-3.20794e-15
-3.27429e-15
-3.46294e-15
-3.60042e-15
-3.40266e-15
-3.81726e-15
-3.80165e-15
-3.72098e-15
-4.00461e-15
-4.05535e-15
-3.76739e-15
-3.81249e-15
-3.80338e-15
-3.46207e-15
-4.06272e-15
-3.68976e-15
-3.74917e-15
-4.03367e-15
-3.4469e-15
-3.97425e-15
-3.91961e-15
-3.63511e-15
-3.95257e-15
-3.8294e-15
-3.74353e-15
-3.59218e-15
-3.41524e-15
-3.52539e-15
-3.7444e-15
-4.03974e-15
-3.65159e-15
-3.88752e-15
-4.05492e-15
-4.22709e-15
-3.31072e-15
-3.53537e-15
-3.59695e-15
-4.01328e-15
-3.68022e-15
-3.77259e-15
-3.94606e-15
-3.66634e-15
-3.83808e-15
-3.49026e-15
-3.7483e-15
-3.80598e-15
-3.71925e-15
-3.81986e-15
-3.75091e-15
-3.8294e-15
-3.70537e-15
-4.12127e-15
-3.85499e-15
-3.57483e-15
-3.62861e-15
-3.68282e-15
-3.72575e-15
-3.54491e-15
-3.98336e-15
-4.24443e-15
-3.64465e-15
-3.75654e-15
-3.89706e-15
-3.7071e-15
-3.71101e-15
-3.92611e-15
-3.96471e-15
-3.91007e-15
-3.55055e-15
-3.52149e-15
-3.98509e-15
-3.74093e-15
-3.75438e-15
-3.9981e-15
-3.78907e-15
-4.0805e-15
-3.92785e-15
-3.63425e-15
-4.09438e-15
-4.01285e-15
-3.79427e-15
-3.81075e-15
-3.56312e-15
-3.79644e-15
-3.78647e-15
-3.8667e-15
-4.13211e-15
-3.96775e-15
-3.84458e-15
-3.96514e-15
-3.84371e-15
-3.79167e-15
-3.86626e-15
-3.59088e-15
-3.98639e-15
-3.96254e-15
-3.89272e-15
-3.56009e-15
-4.00981e-15
-3.77563e-15
-3.72445e-15
-3.92915e-15
-4.00938e-15
-3.73963e-15
-4.20801e-15
-4.0328e-15
-4.03367e-15
-3.65376e-15
-3.59478e-15
-3.78517e-15
-3.83027e-15
-3.33024e-15
-3.69843e-15
-3.90616e-15
-3.7882e-15
-3.76565e-15
-3.83331e-15
-4.1191e-15
-3.98249e-15
-3.662e-15
-4.02759e-15
-3.88795e-15
-4.01719e-15
-3.97599e-15
-3.98032e-15
-3.6633e-15
-3.75221e-15
-3.60822e-15
-3.88101e-15
-3.90486e-15
-3.70624e-15
-3.67328e-15
-4.18719e-15
-3.60606e-15
-3.83764e-15
-3.5345e-15
-3.64769e-15
-3.71187e-15
-3.76218e-15
-3.24653e-15
-3.51065e-15
-3.85456e-15
-3.72575e-15
-3.68195e-15
-4.03063e-15
-3.58871e-15
-3.73182e-15
-3.77302e-15
-3.63685e-15
-3.56833e-15
-3.5319e-15
-3.84718e-15
-3.73269e-15
-3.5822e-15
-3.67805e-15
-3.64682e-15
-3.67588e-15
-3.66547e-15
-3.59695e-15
-3.76608e-15
-3.65203e-15
-3.73052e-15
-3.79341e-15
-4.19196e-15
-3.43475e-15
-3.71448e-15
-3.59521e-15
-3.5332e-15
-3.82203e-15
-3.9157e-15
-3.50024e-15
-4.10175e-15
-3.70537e-15
-3.56225e-15
-3.73096e-15
-3.84458e-15
-3.78213e-15
-3.52149e-15
-3.55705e-15
-3.84024e-15
-3.80598e-15
-3.96775e-15
-3.61907e-15
-3.51715e-15
-3.53927e-15
-3.35062e-15
-3.40917e-15
-3.45297e-15
-3.42998e-15
-3.28557e-15
-3.21227e-15
-3.48246e-15
-3.28427e-15
-3.37621e-15
-3.39919e-15
-3.02406e-15
-3.34932e-15
-3.55575e-15
-3.10689e-15
-3.61213e-15
-3.79861e-15
-2.99587e-15
-3.75915e-15
-3.45253e-15
-2.91564e-15
-3.5384e-15
-3.22789e-15
-3.15373e-15
-3.18929e-15
-3.11513e-15
-3.51542e-15
-3.42868e-15
-3.39269e-15
-3.55575e-15
-3.46771e-15
-3.3285e-15
-3.61256e-15
-3.65853e-15
-3.46511e-15
-3.37621e-15
-3.62514e-15
-3.36536e-15
-3.45427e-15
-3.05485e-15
-3.31983e-15
-3.33978e-15
-3.43735e-15
-3.67154e-15
-3.1997e-15
-3.24307e-15
-3.41914e-15
-3.39008e-15
-3.286e-15
-3.53927e-15
-3.41914e-15
-3.37881e-15
-3.40917e-15
-3.42304e-15
-3.31115e-15
-3.3645e-15
-2.92431e-15
-3.32503e-15
-3.49764e-15
-3.54187e-15
-3.47075e-15
-3.27689e-15
-2.93385e-15
-3.00628e-15
-3.02623e-15
-3.03186e-15
-3.01321e-15
-3.0761e-15
-3.0826e-15
-3.04401e-15
-3.11296e-15
-3.57743e-15
-2.98806e-15
-2.98849e-15
-3.23743e-15
-3.11036e-15
-2.83367e-15
-3.16457e-15
-2.76645e-15
-3.13855e-15
-3.34238e-15
-2.97158e-15
-3.37534e-15
-3.29164e-15
-3.28253e-15
-3.34455e-15
-2.92735e-15
-3.01712e-15
-3.22138e-15
-3.03186e-15
-3.15069e-15
-3.10125e-15
-2.90696e-15
-2.67581e-15
-2.89655e-15
-3.21011e-15
-3.00844e-15
-3.15459e-15
-2.85796e-15
-3.08521e-15
-3.14766e-15
-3.06092e-15
-3.22051e-15
-2.89092e-15
-3.32156e-15
-3.24523e-15
-3.04444e-15
-2.71571e-15
-3.31809e-15
-2.76168e-15
-3.16544e-15
-3.00844e-15
-3.06005e-15
-3.19146e-15
-3.16067e-15
-2.97158e-15
-3.39485e-15
-2.9564e-15
-3.3749e-15
-3.03577e-15
-3.04834e-15
-2.72221e-15
-2.87747e-15
-2.63678e-15
-2.71701e-15
-2.72438e-15
-3.06396e-15
-2.80722e-15
-2.92778e-15
-2.7903e-15
-2.995e-15
-2.45854e-15
-2.67798e-15
-3.01452e-15
-2.54224e-15
-2.69012e-15
-2.86359e-15
-3.15069e-15
-3.10949e-15
-2.55178e-15
-2.7812e-15
-2.85622e-15
-2.80678e-15
-2.66584e-15
-2.65239e-15
-2.98633e-15
-3.02232e-15
-2.75864e-15
-2.50277e-15
-2.73739e-15
-2.80158e-15
-2.77816e-15
-2.53617e-15
-3.04054e-15
-2.83671e-15
-2.46851e-15
-2.56002e-15
-2.80765e-15
-3.02362e-15
-2.80201e-15
-2.79377e-15
-2.96551e-15
-2.59775e-15
-2.61163e-15
-2.68752e-15
-2.77469e-15
-2.78597e-15
-3.02753e-15
-2.66193e-15
-2.71181e-15
-2.93168e-15
-2.92301e-15
-2.7092e-15
-2.5804e-15
-2.86576e-15
-2.89352e-15
-2.73045e-15
-2.42558e-15
-2.55178e-15
-2.95207e-15
-3.29988e-15
-2.3757e-15
-2.20223e-15
-2.73826e-15
-2.42254e-15
-2.42688e-15
-2.27682e-15
-2.64675e-15
-2.3705e-15
-2.71875e-15
-2.09511e-15
-2.51405e-15
-2.58604e-15
-2.12243e-15
-2.81416e-15
-2.38481e-15
-2.51665e-15
-2.01575e-15
-2.39218e-15
-2.6177e-15
-2.30285e-15
-2.45333e-15
-2.47068e-15
-2.46721e-15
-2.63548e-15
-2.2933e-15
-2.11376e-15
-2.45897e-15
-2.62073e-15
-2.26815e-15
-2.67538e-15
-2.33234e-15
-2.59992e-15
-2.15149e-15
-2.73306e-15
-2.71875e-15
-2.80982e-15
-2.5353e-15
-2.49974e-15
-2.65283e-15
-2.4078e-15
-2.50798e-15
-2.73089e-15
-2.44553e-15
-2.72352e-15
-2.69446e-15
-2.67104e-15
-2.62247e-15
-2.64545e-15
-2.53573e-15
-2.19312e-15
-2.44553e-15
-2.66931e-15
-2.76341e-15
-2.39869e-15
-2.43165e-15
-2.45724e-15
-2.68752e-15
-2.79594e-15
-2.37614e-15
-2.4091e-15
-2.57043e-15