/*--------------------------------*- C++ -*----------------------------------*\
| =========                 |                                                 |
| \\      /  F ield         | foam-extend: Open Source CFD                    |
|  \\    /   O peration     | Version:     4.0                                |
|   \\  /    A nd           | Web:         http://www.foam-extend.org         |
|    \\/     M anipulation  |                                                 |
\*---------------------------------------------------------------------------*/
FoamFile
{
    version     2.0;
    format      ascii;
    class       volScalarField;
    location    "17";
    object      dC2;
}
// * * * * * * * * * * * * * * * * * * * * * * * * * * * * * * * * * * * * * //

dimensions      [0 -1 0 0 0 0 0];

internalField   nonuniform List<scalar> 
6960
(
1.32062e-14
1.32063e-14
1.32063e-14
1.32063e-14
1.32063e-14
1.32063e-14
1.32063e-14
1.32063e-14
1.32063e-14
1.32063e-14
1.32063e-14
1.32063e-14
1.32063e-14
1.32063e-14
1.32063e-14
1.32063e-14
1.32063e-14
1.32063e-14
1.32063e-14
1.32063e-14
1.32063e-14
1.32063e-14
1.32063e-14
1.32063e-14
1.32062e-14
1.32063e-14
1.32063e-14
1.32063e-14
1.32063e-14
1.32063e-14
1.32063e-14
1.32063e-14
1.32063e-14
1.32063e-14
1.32063e-14
1.32063e-14
1.32063e-14
1.32063e-14
1.32063e-14
1.32063e-14
1.32063e-14
1.32063e-14
1.32063e-14
1.32063e-14
1.32063e-14
1.32063e-14
1.32063e-14
1.32063e-14
1.32063e-14
1.32063e-14
1.32063e-14
1.32063e-14
1.32063e-14
1.32063e-14
1.32063e-14
1.32063e-14
1.32063e-14
1.32062e-14
1.32062e-14
1.32062e-14
3.62023e-14
3.62023e-14
3.62024e-14
3.62024e-14
3.62023e-14
3.62024e-14
3.62024e-14
3.62024e-14
3.62024e-14
3.62024e-14
3.62024e-14
3.62024e-14
3.62023e-14
3.62024e-14
3.62024e-14
3.62024e-14
3.62024e-14
3.62024e-14
3.62024e-14
3.62024e-14
3.62024e-14
3.62024e-14
3.62024e-14
3.62024e-14
3.62024e-14
3.62024e-14
3.62024e-14
3.62023e-14
3.62024e-14
3.62024e-14
3.62024e-14
3.62024e-14
3.62024e-14
3.62024e-14
3.62024e-14
3.62024e-14
3.62024e-14
3.62024e-14
3.62024e-14
3.62024e-14
3.62024e-14
3.62023e-14
3.62024e-14
3.62024e-14
3.62024e-14
3.62024e-14
3.62024e-14
3.62024e-14
3.62024e-14
3.62024e-14
3.62024e-14
3.62024e-14
3.62024e-14
3.62024e-14
3.62024e-14
3.62023e-14
3.62024e-14
3.62024e-14
3.62023e-14
3.62023e-14
7.71799e-14
7.71799e-14
7.71799e-14
7.71799e-14
7.718e-14
7.718e-14
7.718e-14
7.718e-14
7.718e-14
7.718e-14
7.718e-14
7.718e-14
7.718e-14
7.718e-14
7.71799e-14
7.718e-14
7.71799e-14
7.718e-14
7.71799e-14
7.71799e-14
7.718e-14
7.71799e-14
7.71799e-14
7.718e-14
7.71799e-14
7.718e-14
7.718e-14
7.718e-14
7.718e-14
7.718e-14
7.71799e-14
7.71799e-14
7.718e-14
7.71799e-14
7.718e-14
7.71799e-14
7.718e-14
7.718e-14
7.718e-14
7.718e-14
7.718e-14
7.71799e-14
7.718e-14
7.718e-14
7.71799e-14
7.718e-14
7.71799e-14
7.718e-14
7.718e-14
7.718e-14
7.718e-14
7.718e-14
7.718e-14
7.718e-14
7.71799e-14
7.718e-14
7.71799e-14
7.71799e-14
7.71799e-14
7.71799e-14
1.40049e-13
1.40049e-13
1.40049e-13
1.40049e-13
1.40049e-13
1.40049e-13
1.40049e-13
1.40049e-13
1.40049e-13
1.40049e-13
1.40049e-13
1.40049e-13
1.40049e-13
1.40049e-13
1.40049e-13
1.40049e-13
1.40049e-13
1.40049e-13
1.40049e-13
1.4005e-13
1.40049e-13
1.40049e-13
1.40049e-13
1.40049e-13
1.40049e-13
1.40049e-13
1.40049e-13
1.40049e-13
1.40049e-13
1.40049e-13
1.40049e-13
1.40049e-13
1.40049e-13
1.40049e-13
1.40049e-13
1.40049e-13
1.40049e-13
1.40049e-13
1.40049e-13
1.40049e-13
1.40049e-13
1.40049e-13
1.40049e-13
1.40049e-13
1.40049e-13
1.40049e-13
1.40049e-13
1.40049e-13
1.40049e-13
1.40049e-13
1.40049e-13
1.40049e-13
1.40049e-13
1.40049e-13
1.40049e-13
1.40049e-13
1.40049e-13
1.40049e-13
1.40049e-13
1.40049e-13
2.31e-13
2.31e-13
2.31e-13
2.31e-13
2.31e-13
2.31e-13
2.31e-13
2.31e-13
2.31e-13
2.31e-13
2.31e-13
2.31e-13
2.31e-13
2.31e-13
2.31e-13
2.31e-13
2.31e-13
2.31e-13
2.31e-13
2.31e-13
2.31e-13
2.31e-13
2.31e-13
2.31e-13
2.31e-13
2.31e-13
2.31e-13
2.31e-13
2.31e-13
2.31e-13
2.31e-13
2.31e-13
2.31e-13
2.31e-13
2.31e-13
2.31e-13
2.31e-13
2.31e-13
2.31e-13
2.31e-13
2.31e-13
2.31e-13
2.31e-13
2.31e-13
2.31e-13
2.31e-13
2.31e-13
2.31e-13
2.31e-13
2.31e-13
2.31e-13
2.31e-13
2.31e-13
2.31e-13
2.31e-13
2.31e-13
2.31e-13
2.31e-13
2.31e-13
2.31e-13
3.60194e-13
3.60194e-13
3.60195e-13
3.60195e-13
3.60194e-13
3.60195e-13
3.60195e-13
3.60195e-13
3.60195e-13
3.60195e-13
3.60194e-13
3.60195e-13
3.60195e-13
3.60195e-13
3.60195e-13
3.60195e-13
3.60194e-13
3.60195e-13
3.60195e-13
3.60194e-13
3.60195e-13
3.60194e-13
3.60194e-13
3.60194e-13
3.60195e-13
3.60194e-13
3.60195e-13
3.60195e-13
3.60194e-13
3.60195e-13
3.60195e-13
3.60195e-13
3.60195e-13
3.60194e-13
3.60195e-13
3.60195e-13
3.60195e-13
3.60195e-13
3.60195e-13
3.60195e-13
3.60195e-13
3.60194e-13
3.60195e-13
3.60195e-13
3.60195e-13
3.60195e-13
3.60194e-13
3.60195e-13
3.60195e-13
3.60195e-13
3.60194e-13
3.60194e-13
3.60195e-13
3.60195e-13
3.60195e-13
3.60195e-13
3.60195e-13
3.60195e-13
3.60194e-13
3.60194e-13
5.39683e-13
5.39683e-13
5.39683e-13
5.39684e-13
5.39683e-13
5.39683e-13
5.39683e-13
5.39684e-13
5.39683e-13
5.39683e-13
5.39684e-13
5.39683e-13
5.39683e-13
5.39684e-13
5.39684e-13
5.39684e-13
5.39684e-13
5.39683e-13
5.39683e-13
5.39684e-13
5.39683e-13
5.39684e-13
5.39684e-13
5.39684e-13
5.39683e-13
5.39684e-13
5.39683e-13
5.39683e-13
5.39684e-13
5.39683e-13
5.39683e-13
5.39683e-13
5.39683e-13
5.39684e-13
5.39683e-13
5.39683e-13
5.39683e-13
5.39683e-13
5.39683e-13
5.39683e-13
5.39683e-13
5.39684e-13
5.39683e-13
5.39683e-13
5.39683e-13
5.39683e-13
5.39683e-13
5.39683e-13
5.39683e-13
5.39683e-13
5.39683e-13
5.39683e-13
5.39683e-13
5.39683e-13
5.39683e-13
5.39683e-13
5.39683e-13
5.39683e-13
5.39684e-13
5.39683e-13
7.52986e-13
7.52986e-13
7.52987e-13
7.52986e-13
7.52986e-13
7.52987e-13
7.52985e-13
7.52985e-13
7.52987e-13
7.52986e-13
7.52986e-13
7.52985e-13
7.52987e-13
7.52986e-13
7.52986e-13
7.52985e-13
7.52986e-13
7.52985e-13
7.52985e-13
7.52986e-13
7.52986e-13
7.52986e-13
7.52985e-13
7.52985e-13
7.52986e-13
7.52986e-13
7.52986e-13
7.52986e-13
7.52986e-13
7.52986e-13
7.52986e-13
7.52986e-13
7.52985e-13
7.52986e-13
7.52986e-13
7.52986e-13
7.52986e-13
7.52986e-13
7.52985e-13
7.52986e-13
7.52986e-13
7.52985e-13
7.52987e-13
7.52986e-13
7.52985e-13
7.52985e-13
7.52985e-13
7.52987e-13
7.52986e-13
7.52986e-13
7.52986e-13
7.52986e-13
7.52986e-13
7.52986e-13
7.52986e-13
7.52986e-13
7.52986e-13
7.52986e-13
7.52985e-13
7.52986e-13
8.65051e-13
8.65051e-13
8.65051e-13
8.65051e-13
8.65052e-13
8.65052e-13
8.65053e-13
8.65054e-13
8.6505e-13
8.65051e-13
8.65054e-13
8.65052e-13
8.65051e-13
8.65053e-13
8.65052e-13
8.65053e-13
8.65053e-13
8.65053e-13
8.65054e-13
8.65052e-13
8.65052e-13
8.65052e-13
8.65054e-13
8.65053e-13
8.65052e-13
8.65051e-13
8.65052e-13
8.65053e-13
8.65053e-13
8.65051e-13
8.65052e-13
8.65052e-13
8.65053e-13
8.65052e-13
8.65052e-13
8.65051e-13
8.65051e-13
8.65052e-13
8.65053e-13
8.65051e-13
8.65053e-13
8.65052e-13
8.65051e-13
8.65052e-13
8.65052e-13
8.65052e-13
8.65053e-13
8.65053e-13
8.65053e-13
8.65053e-13
8.65051e-13
8.65052e-13
8.65053e-13
8.65053e-13
8.65051e-13
8.65051e-13
8.65052e-13
8.65051e-13
8.65052e-13
8.65051e-13
5.21502e-13
5.21503e-13
5.21503e-13
5.21504e-13
5.21502e-13
5.21504e-13
5.21503e-13
5.215e-13
5.21508e-13
5.21504e-13
5.215e-13
5.21506e-13
5.21505e-13
5.21502e-13
5.21502e-13
5.21502e-13
5.215e-13
5.21502e-13
5.21503e-13
5.21503e-13
5.21503e-13
5.21502e-13
5.21504e-13
5.21504e-13
5.21504e-13
5.21503e-13
5.21504e-13
5.21505e-13
5.21502e-13
5.21505e-13
5.21503e-13
5.21505e-13
5.21504e-13
5.21504e-13
5.21503e-13
5.21503e-13
5.21504e-13
5.21501e-13
5.21501e-13
5.21505e-13
5.21504e-13
5.21503e-13
5.21505e-13
5.21502e-13
5.21504e-13
5.21508e-13
5.21501e-13
5.21502e-13
5.21504e-13
5.21504e-13
5.21504e-13
5.21504e-13
5.21503e-13
5.21502e-13
5.21507e-13
5.21505e-13
5.21502e-13
5.21505e-13
5.21504e-13
5.21504e-13
-6.75152e-13
-6.75145e-13
-6.75146e-13
-6.75143e-13
-6.75143e-13
-6.75149e-13
-6.7515e-13
-6.75146e-13
-6.75157e-13
-6.75149e-13
-6.75148e-13
-6.75149e-13
-6.75149e-13
-6.75145e-13
-6.75145e-13
-6.75149e-13
-6.75143e-13
-6.75146e-13
-6.75143e-13
-6.75149e-13
-6.75145e-13
-6.75146e-13
-6.75151e-13
-6.75147e-13
-6.75146e-13
-6.75143e-13
-6.75148e-13
-6.75147e-13
-6.75146e-13
-6.75149e-13
-6.75147e-13
-6.75151e-13
-6.75147e-13
-6.75148e-13
-6.75149e-13
-6.75145e-13
-6.75146e-13
-6.75146e-13
-6.75146e-13
-6.7515e-13
-6.75149e-13
-6.75146e-13
-6.75148e-13
-6.75146e-13
-6.75145e-13
-6.75152e-13
-6.75147e-13
-6.75148e-13
-6.75148e-13
-6.75147e-13
-6.75148e-13
-6.75151e-13
-6.75145e-13
-6.75144e-13
-6.7515e-13
-6.75144e-13
-6.75146e-13
-6.75152e-13
-6.75149e-13
-6.75152e-13
-2.37362e-12
-2.37363e-12
-2.37362e-12
-2.37363e-12
-2.37363e-12
-2.37362e-12
-2.37363e-12
-2.37362e-12
-2.37362e-12
-2.37362e-12
-2.37362e-12
-2.37363e-12
-2.37362e-12
-2.37362e-12
-2.37363e-12
-2.37362e-12
-2.37363e-12
-2.37363e-12
-2.37363e-12
-2.37363e-12
-2.37364e-12
-2.37362e-12
-2.37361e-12
-2.37363e-12
-2.37362e-12
-2.37363e-12
-2.37363e-12
-2.37363e-12
-2.37363e-12
-2.37362e-12
-2.37362e-12
-2.37362e-12
-2.37363e-12
-2.37362e-12
-2.37362e-12
-2.37363e-12
-2.37363e-12
-2.37363e-12
-2.37363e-12
-2.37362e-12
-2.37363e-12
-2.37363e-12
-2.37363e-12
-2.37363e-12
-2.37363e-12
-2.37362e-12
-2.37363e-12
-2.37362e-12
-2.37363e-12
-2.37363e-12
-2.37364e-12
-2.37363e-12
-2.37363e-12
-2.37362e-12
-2.37363e-12
-2.37364e-12
-2.37363e-12
-2.37362e-12
-2.37362e-12
-2.37363e-12
-2.78355e-12
-2.78355e-12
-2.78355e-12
-2.78355e-12
-2.78355e-12
-2.78357e-12
-2.78354e-12
-2.78355e-12
-2.78357e-12
-2.78354e-12
-2.78355e-12
-2.78354e-12
-2.78354e-12
-2.78357e-12
-2.78355e-12
-2.78355e-12
-2.78354e-12
-2.78355e-12
-2.78355e-12
-2.78356e-12
-2.78354e-12
-2.78356e-12
-2.78357e-12
-2.78356e-12
-2.78356e-12
-2.78354e-12
-2.78355e-12
-2.78356e-12
-2.78354e-12
-2.78356e-12
-2.78356e-12
-2.78357e-12
-2.78355e-12
-2.78356e-12
-2.78354e-12
-2.78355e-12
-2.78355e-12
-2.78354e-12
-2.78355e-12
-2.78356e-12
-2.78354e-12
-2.78356e-12
-2.78356e-12
-2.78355e-12
-2.78355e-12
-2.78356e-12
-2.78356e-12
-2.78356e-12
-2.78355e-12
-2.78354e-12
-2.78355e-12
-2.78355e-12
-2.78355e-12
-2.78355e-12
-2.78354e-12
-2.78356e-12
-2.78353e-12
-2.78355e-12
-2.78355e-12
-2.78354e-12
-2.22159e-13
-2.22162e-13
-2.22182e-13
-2.22164e-13
-2.22174e-13
-2.22155e-13
-2.22199e-13
-2.22174e-13
-2.22166e-13
-2.22188e-13
-2.22189e-13
-2.22171e-13
-2.22188e-13
-2.2215e-13
-2.22183e-13
-2.22166e-13
-2.22189e-13
-2.22171e-13
-2.22176e-13
-2.22144e-13
-2.22165e-13
-2.22171e-13
-2.2215e-13
-2.22145e-13
-2.2217e-13
-2.22186e-13
-2.22197e-13
-2.22168e-13
-2.22178e-13
-2.22148e-13
-2.22144e-13
-2.22146e-13
-2.22143e-13
-2.22155e-13
-2.22188e-13
-2.22172e-13
-2.22166e-13
-2.22189e-13
-2.22151e-13
-2.22171e-13
-2.22192e-13
-2.22171e-13
-2.22156e-13
-2.22176e-13
-2.22176e-13
-2.22161e-13
-2.2215e-13
-2.22151e-13
-2.22169e-13
-2.22175e-13
-2.22172e-13
-2.22175e-13
-2.22156e-13
-2.2218e-13
-2.22192e-13
-2.22136e-13
-2.22191e-13
-2.22168e-13
-2.22143e-13
-2.22161e-13
3.59276e-12
3.59277e-12
3.59278e-12
3.59276e-12
3.59278e-12
3.59274e-12
3.59281e-12
3.59274e-12
3.59279e-12
3.59279e-12
3.59278e-12
3.59276e-12
3.59276e-12
3.59277e-12
3.59278e-12
3.59279e-12
3.59279e-12
3.59277e-12
3.59277e-12
3.59273e-12
3.59277e-12
3.59278e-12
3.59278e-12
3.59276e-12
3.59278e-12
3.59275e-12
3.59277e-12
3.59275e-12
3.59277e-12
3.59274e-12
3.59275e-12
3.59274e-12
3.59273e-12
3.59275e-12
3.59277e-12
3.59278e-12
3.59277e-12
3.59279e-12
3.59271e-12
3.59278e-12
3.59278e-12
3.5928e-12
3.59275e-12
3.59276e-12
3.59278e-12
3.59275e-12
3.59274e-12
3.59276e-12
3.59277e-12
3.59278e-12
3.5928e-12
3.59278e-12
3.59275e-12
3.59278e-12
3.59279e-12
3.59272e-12
3.59276e-12
3.59279e-12
3.59273e-12
3.59277e-12
4.41035e-12
4.41032e-12
4.41035e-12
4.41034e-12
4.41037e-12
4.4104e-12
4.4103e-12
4.41037e-12
4.41026e-12
4.41036e-12
4.41029e-12
4.41037e-12
4.41034e-12
4.41035e-12
4.41031e-12
4.4103e-12
4.41031e-12
4.41034e-12
4.41033e-12
4.41037e-12
4.4104e-12
4.41032e-12
4.4103e-12
4.41035e-12
4.41033e-12
4.4104e-12
4.41034e-12
4.41038e-12
4.41033e-12
4.41037e-12
4.41034e-12
4.41035e-12
4.41037e-12
4.41034e-12
4.41037e-12
4.41039e-12
4.41037e-12
4.41037e-12
4.41037e-12
4.41033e-12
4.41038e-12
4.41029e-12
4.41038e-12
4.41037e-12
4.41033e-12
4.41035e-12
4.41039e-12
4.41031e-12
4.41033e-12
4.41035e-12
4.41033e-12
4.41032e-12
4.41036e-12
4.41033e-12
4.41035e-12
4.41039e-12
4.41035e-12
4.41036e-12
4.41039e-12
4.41031e-12
1.40753e-12
1.40758e-12
1.4076e-12
1.40763e-12
1.40757e-12
1.40755e-12
1.4076e-12
1.40762e-12
1.40766e-12
1.40756e-12
1.40766e-12
1.40759e-12
1.40761e-12
1.40754e-12
1.4076e-12
1.40762e-12
1.40759e-12
1.40758e-12
1.40758e-12
1.40759e-12
1.40754e-12
1.40759e-12
1.4076e-12
1.40761e-12
1.40759e-12
1.40755e-12
1.40763e-12
1.4076e-12
1.40761e-12
1.40758e-12
1.4076e-12
1.40761e-12
1.40756e-12
1.40759e-12
1.40763e-12
1.40753e-12
1.40758e-12
1.40755e-12
1.40759e-12
1.40762e-12
1.40753e-12
1.40766e-12
1.40751e-12
1.4076e-12
1.40764e-12
1.4076e-12
1.40753e-12
1.40757e-12
1.4076e-12
1.40763e-12
1.40757e-12
1.40761e-12
1.40759e-12
1.4076e-12
1.40759e-12
1.4076e-12
1.40759e-12
1.40754e-12
1.40752e-12
1.4076e-12
-1.65226e-12
-1.65222e-12
-1.65227e-12
-1.65238e-12
-1.65232e-12
-1.65229e-12
-1.65221e-12
-1.65229e-12
-1.65231e-12
-1.65227e-12
-1.65228e-12
-1.65232e-12
-1.65233e-12
-1.65227e-12
-1.65223e-12
-1.65232e-12
-1.6522e-12
-1.65228e-12
-1.65229e-12
-1.65233e-12
-1.65226e-12
-1.65232e-12
-1.65232e-12
-1.6523e-12
-1.65224e-12
-1.6523e-12
-1.65238e-12
-1.65228e-12
-1.65236e-12
-1.65228e-12
-1.65232e-12
-1.65236e-12
-1.65224e-12
-1.65233e-12
-1.65232e-12
-1.6523e-12
-1.65227e-12
-1.65232e-12
-1.6523e-12
-1.65234e-12
-1.65227e-12
-1.65234e-12
-1.65226e-12
-1.65234e-12
-1.65226e-12
-1.65232e-12
-1.65227e-12
-1.65224e-12
-1.65227e-12
-1.65233e-12
-1.65226e-12
-1.65234e-12
-1.65232e-12
-1.65221e-12
-1.65232e-12
-1.65239e-12
-1.65233e-12
-1.65235e-12
-1.65227e-12
-1.65228e-12
-2.19617e-12
-2.19613e-12
-2.19615e-12
-2.19606e-12
-2.19615e-12
-2.19611e-12
-2.19623e-12
-2.19611e-12
-2.19609e-12
-2.19616e-12
-2.1962e-12
-2.19606e-12
-2.19606e-12
-2.19612e-12
-2.19623e-12
-2.19609e-12
-2.19612e-12
-2.19612e-12
-2.19611e-12
-2.19607e-12
-2.19615e-12
-2.19601e-12
-2.1961e-12
-2.19614e-12
-2.19618e-12
-2.19608e-12
-2.19604e-12
-2.19614e-12
-2.19604e-12
-2.19609e-12
-2.1961e-12
-2.1961e-12
-2.19615e-12
-2.19608e-12
-2.19607e-12
-2.19603e-12
-2.1962e-12
-2.19606e-12
-2.19614e-12
-2.19604e-12
-2.19611e-12
-2.19612e-12
-2.19605e-12
-2.19608e-12
-2.19618e-12
-2.19614e-12
-2.1961e-12
-2.19618e-12
-2.19612e-12
-2.19604e-12
-2.19619e-12
-2.19614e-12
-2.19606e-12
-2.19617e-12
-2.19604e-12
-2.19599e-12
-2.19603e-12
-2.19604e-12
-2.196e-12
-2.19617e-12
-1.25857e-12
-1.25863e-12
-1.25854e-12
-1.2586e-12
-1.25864e-12
-1.25861e-12
-1.25857e-12
-1.25868e-12
-1.25864e-12
-1.2587e-12
-1.25856e-12
-1.25866e-12
-1.2587e-12
-1.25859e-12
-1.25859e-12
-1.25855e-12
-1.25858e-12
-1.2587e-12
-1.2586e-12
-1.25874e-12
-1.25856e-12
-1.25875e-12
-1.25854e-12
-1.25857e-12
-1.25855e-12
-1.25867e-12
-1.25872e-12
-1.25858e-12
-1.25876e-12
-1.25858e-12
-1.25861e-12
-1.25862e-12
-1.25866e-12
-1.25865e-12
-1.25871e-12
-1.25873e-12
-1.25848e-12
-1.25867e-12
-1.2587e-12
-1.25871e-12
-1.25866e-12
-1.25865e-12
-1.25875e-12
-1.25861e-12
-1.25871e-12
-1.2586e-12
-1.25865e-12
-1.25862e-12
-1.25874e-12
-1.25874e-12
-1.25858e-12
-1.25866e-12
-1.25862e-12
-1.25865e-12
-1.25866e-12
-1.25876e-12
-1.25876e-12
-1.25858e-12
-1.25877e-12
-1.2585e-12
-5.02609e-13
-5.02511e-13
-5.02623e-13
-5.02688e-13
-5.02548e-13
-5.02439e-13
-5.02709e-13
-5.02531e-13
-5.02515e-13
-5.02434e-13
-5.02606e-13
-5.02594e-13
-5.02518e-13
-5.02592e-13
-5.02524e-13
-5.02735e-13
-5.02545e-13
-5.02441e-13
-5.02544e-13
-5.02522e-13
-5.02594e-13
-5.02575e-13
-5.02836e-13
-5.027e-13
-5.02613e-13
-5.02626e-13
-5.02424e-13
-5.02474e-13
-5.02501e-13
-5.0272e-13
-5.0272e-13
-5.02528e-13
-5.02531e-13
-5.02535e-13
-5.02571e-13
-5.02554e-13
-5.02759e-13
-5.02531e-13
-5.02494e-13
-5.02586e-13
-5.02562e-13
-5.02528e-13
-5.02517e-13
-5.02609e-13
-5.02395e-13
-5.0244e-13
-5.02501e-13
-5.02599e-13
-5.02645e-13
-5.02718e-13
-5.02648e-13
-5.02416e-13
-5.02447e-13
-5.02592e-13
-5.02419e-13
-5.02379e-13
-5.02535e-13
-5.02612e-13
-5.02493e-13
-5.02821e-13
-2.9042e-13
-2.9068e-13
-2.90599e-13
-2.90508e-13
-2.90601e-13
-2.90847e-13
-2.90561e-13
-2.90597e-13
-2.90607e-13
-2.90696e-13
-2.90612e-13
-2.90574e-13
-2.90676e-13
-2.906e-13
-2.90716e-13
-2.90588e-13
-2.90518e-13
-2.90638e-13
-2.90685e-13
-2.90529e-13
-2.90561e-13
-2.90515e-13
-2.90516e-13
-2.90564e-13
-2.90471e-13
-2.90549e-13
-2.90935e-13
-2.90701e-13
-2.90707e-13
-2.90455e-13
-2.90534e-13
-2.90723e-13
-2.90864e-13
-2.90389e-13
-2.90564e-13
-2.90602e-13
-2.90523e-13
-2.9066e-13
-2.9068e-13
-2.90506e-13
-2.90684e-13
-2.90699e-13
-2.90593e-13
-2.9056e-13
-2.90661e-13
-2.90773e-13
-2.90716e-13
-2.90611e-13
-2.90473e-13
-2.90392e-13
-2.90529e-13
-2.90571e-13
-2.90619e-13
-2.90573e-13
-2.9073e-13
-2.90806e-13
-2.90613e-13
-2.90663e-13
-2.90407e-13
-2.90506e-13
-2.9513e-13
-2.94692e-13
-2.94937e-13
-2.94891e-13
-2.94933e-13
-2.94848e-13
-2.94915e-13
-2.94856e-13
-2.95052e-13
-2.95009e-13
-2.94791e-13
-2.94968e-13
-2.94796e-13
-2.94863e-13
-2.94773e-13
-2.94867e-13
-2.94974e-13
-2.95016e-13
-2.9475e-13
-2.94913e-13
-2.94953e-13
-2.95044e-13
-2.94758e-13
-2.94889e-13
-2.95141e-13
-2.94897e-13
-2.94731e-13
-2.94885e-13
-2.94645e-13
-2.9497e-13
-2.94933e-13
-2.94737e-13
-2.94738e-13
-2.95024e-13
-2.94972e-13
-2.95064e-13
-2.94972e-13
-2.94917e-13
-2.94813e-13
-2.94808e-13
-2.94815e-13
-2.94928e-13
-2.95083e-13
-2.95007e-13
-2.94915e-13
-2.94728e-13
-2.94831e-13
-2.94919e-13
-2.9505e-13
-2.94872e-13
-2.94841e-13
-2.95009e-13
-2.94967e-13
-2.94955e-13
-2.94995e-13
-2.94834e-13
-2.94861e-13
-2.94793e-13
-2.95007e-13
-2.94901e-13
-2.80767e-13
-2.81126e-13
-2.80991e-13
-2.80825e-13
-2.80931e-13
-2.80996e-13
-2.80977e-13
-2.80913e-13
-2.80975e-13
-2.8081e-13
-2.81236e-13
-2.80937e-13
-2.81085e-13
-2.81016e-13
-2.81082e-13
-2.80953e-13
-2.80946e-13
-2.80915e-13
-2.80986e-13
-2.80967e-13
-2.81125e-13
-2.81059e-13
-2.81124e-13
-2.81051e-13
-2.80519e-13
-2.8106e-13
-2.8101e-13
-2.81116e-13
-2.81192e-13
-2.80956e-13
-2.80917e-13
-2.81118e-13
-2.80999e-13
-2.80992e-13
-2.81062e-13
-2.80676e-13
-2.80995e-13
-2.80954e-13
-2.81036e-13
-2.80979e-13
-2.80869e-13
-2.80859e-13
-2.80867e-13
-2.80912e-13
-2.80899e-13
-2.81028e-13
-2.80972e-13
-2.80919e-13
-2.80835e-13
-2.80911e-13
-2.81055e-13
-2.80976e-13
-2.80955e-13
-2.80935e-13
-2.80833e-13
-2.80844e-13
-2.81047e-13
-2.81005e-13
-2.80773e-13
-2.81033e-13
-2.17186e-13
-2.17129e-13
-2.16992e-13
-2.17164e-13
-2.1727e-13
-2.17171e-13
-2.17029e-13
-2.17038e-13
-2.16912e-13
-2.17245e-13
-2.17022e-13
-2.17081e-13
-2.171e-13
-2.17232e-13
-2.16987e-13
-2.17128e-13
-2.16949e-13
-2.17236e-13
-2.17279e-13
-2.16907e-13
-2.16754e-13
-2.16838e-13
-2.16756e-13
-2.17069e-13
-2.17584e-13
-2.16888e-13
-2.17076e-13
-2.16915e-13
-2.17032e-13
-2.17026e-13
-2.17084e-13
-2.16972e-13
-2.17215e-13
-2.17092e-13
-2.16907e-13
-2.17212e-13
-2.17123e-13
-2.17261e-13
-2.17007e-13
-2.16962e-13
-2.17165e-13
-2.17187e-13
-2.17096e-13
-2.17119e-13
-2.17185e-13
-2.17182e-13
-2.17124e-13
-2.17162e-13
-2.17345e-13
-2.17203e-13
-2.17183e-13
-2.16983e-13
-2.17034e-13
-2.17102e-13
-2.17069e-13
-2.17114e-13
-2.17007e-13
-2.16902e-13
-2.17382e-13
-2.17138e-13
-1.40906e-13
-1.40773e-13
-1.40799e-13
-1.40602e-13
-1.40763e-13
-1.40834e-13
-1.40701e-13
-1.40802e-13
-1.40906e-13
-1.40548e-13
-1.40571e-13
-1.40729e-13
-1.40736e-13
-1.40581e-13
-1.4069e-13
-1.40635e-13
-1.40848e-13
-1.40506e-13
-1.40495e-13
-1.40864e-13
-1.40831e-13
-1.40777e-13
-1.40992e-13
-1.40694e-13
-1.40249e-13
-1.40846e-13
-1.40606e-13
-1.4092e-13
-1.40688e-13
-1.40957e-13
-1.40665e-13
-1.40839e-13
-1.40715e-13
-1.40703e-13
-1.40772e-13
-1.40847e-13
-1.40425e-13
-1.40388e-13
-1.40823e-13
-1.40678e-13
-1.40514e-13
-1.40651e-13
-1.40544e-13
-1.40819e-13
-1.40482e-13
-1.40722e-13
-1.40541e-13
-1.40651e-13
-1.40242e-13
-1.40531e-13
-1.4062e-13
-1.40602e-13
-1.4076e-13
-1.40489e-13
-1.40852e-13
-1.40956e-13
-1.40717e-13
-1.40902e-13
-1.40619e-13
-1.40749e-13
-7.87805e-14
-7.91019e-14
-7.91338e-14
-7.92879e-14
-7.90879e-14
-7.87678e-14
-7.91827e-14
-7.91436e-14
-7.90413e-14
-7.91152e-14
-7.92834e-14
-7.89969e-14
-7.89795e-14
-7.9149e-14
-7.92253e-14
-7.91808e-14
-7.90428e-14
-7.91258e-14
-7.91965e-14
-7.90132e-14
-7.90531e-14
-7.89572e-14
-7.8695e-14
-7.87735e-14
-7.95291e-14
-7.89746e-14
-7.90326e-14
-7.87932e-14
-7.89385e-14
-7.86667e-14
-7.91851e-14
-7.89962e-14
-7.87919e-14
-7.90678e-14
-7.90158e-14
-7.90001e-14
-7.91704e-14
-7.93408e-14
-7.90638e-14
-7.91314e-14
-7.91452e-14
-7.88871e-14
-7.91118e-14
-7.89945e-14
-7.93001e-14
-7.89426e-14
-7.92912e-14
-7.90222e-14
-7.93411e-14
-7.90791e-14
-7.91065e-14
-7.90481e-14
-7.9083e-14
-7.91658e-14
-7.89056e-14
-7.87822e-14
-7.88765e-14
-7.90736e-14
-7.92236e-14
-7.88036e-14
-3.89254e-14
-3.82631e-14
-3.84167e-14
-3.84641e-14
-3.9023e-14
-3.87837e-14
-3.88356e-14
-3.83557e-14
-3.84023e-14
-3.85646e-14
-3.85788e-14
-3.86404e-14
-3.8645e-14
-3.85188e-14
-3.86358e-14
-3.84178e-14
-3.83858e-14
-3.90263e-14
-3.84702e-14
-3.86653e-14
-3.86897e-14
-3.84916e-14
-3.9051e-14
-3.87332e-14
-3.80987e-14
-3.86641e-14
-3.88238e-14
-3.87024e-14
-3.90584e-14
-3.89163e-14
-3.85518e-14
-3.87575e-14
-3.90207e-14
-3.8429e-14
-3.86308e-14
-3.88515e-14
-3.85062e-14
-3.858e-14
-3.8593e-14
-3.86105e-14
-3.87448e-14
-3.90274e-14
-3.84627e-14
-3.85856e-14
-3.85627e-14
-3.88372e-14
-3.85738e-14
-3.86818e-14
-3.85638e-14
-3.88579e-14
-3.84016e-14
-3.87654e-14
-3.86656e-14
-3.90415e-14
-3.87106e-14
-3.89311e-14
-3.86955e-14
-3.84393e-14
-3.84479e-14
-3.87168e-14
-1.51477e-14
-1.57838e-14
-1.53942e-14
-1.55569e-14
-1.48881e-14
-1.53249e-14
-1.52997e-14
-1.54389e-14
-1.56339e-14
-1.55392e-14
-1.54003e-14
-1.55146e-14
-1.57022e-14
-1.56646e-14
-1.54213e-14
-1.53696e-14
-1.55809e-14
-1.51324e-14
-1.53785e-14
-1.57302e-14
-1.51975e-14
-1.57715e-14
-1.53577e-14
-1.57097e-14
-1.57997e-14
-1.54743e-14
-1.55824e-14
-1.54288e-14
-1.51549e-14
-1.53889e-14
-1.54538e-14
-1.53305e-14
-1.47985e-14
-1.56859e-14
-1.55339e-14
-1.54771e-14
-1.58195e-14
-1.5561e-14
-1.52528e-14
-1.5415e-14
-1.54886e-14
-1.51167e-14
-1.53788e-14
-1.54809e-14
-1.54673e-14
-1.52371e-14
-1.52113e-14
-1.57135e-14
-1.53763e-14
-1.52303e-14
-1.55207e-14
-1.53177e-14
-1.54425e-14
-1.51701e-14
-1.56192e-14
-1.53658e-14
-1.57456e-14
-1.54627e-14
-1.57954e-14
-1.53868e-14
-3.74502e-15
-3.37153e-15
-3.32031e-15
-3.26043e-15
-3.548e-15
-3.53733e-15
-3.59142e-15
-3.21577e-15
-3.49293e-15
-3.52967e-15
-3.27589e-15
-3.23973e-15
-2.97029e-15
-3.17217e-15
-3.62384e-15
-3.58939e-15
-3.56454e-15
-3.49475e-15
-3.39819e-15
-2.87378e-15
-3.58006e-15
-3.28365e-15
-3.22632e-15
-2.90078e-15
-3.40953e-15
-3.30624e-15
-3.2492e-15
-3.71321e-15
-3.39754e-15
-3.22576e-15
-3.52773e-15
-3.77339e-15
-3.91587e-15
-2.94848e-15
-2.804e-15
-3.45652e-15
-3.16788e-15
-3.33827e-15
-3.06041e-15
-3.43164e-15
-3.16051e-15
-3.67945e-15
-3.28354e-15
-3.21395e-15
-3.05723e-15
-3.64601e-15
-3.5568e-15
-3.40919e-15
-3.52428e-15
-3.36161e-15
-3.62293e-15
-3.40343e-15
-3.3553e-15
-3.50713e-15
-3.17541e-15
-3.59382e-15
-3.22232e-15
-3.70754e-15
-3.31087e-15
-3.3134e-15
2.72803e-15
2.42807e-15
2.37577e-15
2.25157e-15
2.49264e-15
2.48856e-15
2.63112e-15
2.38925e-15
2.82853e-15
2.99179e-15
1.99487e-15
2.43608e-15
1.99127e-15
2.15669e-15
2.31286e-15
2.7594e-15
2.40213e-15
2.39929e-15
2.14052e-15
1.9667e-15
2.20783e-15
2.5536e-15
2.03347e-15
2.00996e-15
2.69786e-15
2.49676e-15
2.44439e-15
2.64227e-15
2.33843e-15
2.13397e-15
2.41934e-15
2.26591e-15
2.29217e-15
2.34356e-15
2.2166e-15
2.57594e-15
2.16752e-15
2.38227e-15
1.79155e-15
2.36999e-15
2.46417e-15
2.24843e-15
2.3719e-15
2.09389e-15
2.19457e-15
2.5591e-15
2.71509e-15
2.60114e-15
2.55518e-15
2.26971e-15
2.84835e-15
2.32872e-15
2.55138e-15
2.57756e-15
2.38139e-15
2.68281e-15
2.46906e-15
2.50836e-15
2.29149e-15
2.23242e-15
4.65841e-15
4.89869e-15
4.99249e-15
4.97709e-15
4.7649e-15
4.82742e-15
4.93527e-15
4.96572e-15
4.73226e-15
4.4776e-15
5.26262e-15
4.82377e-15
5.27445e-15
5.3771e-15
4.51419e-15
4.66286e-15
5.17983e-15
4.85561e-15
5.15459e-15
5.13222e-15
5.39161e-15
5.11745e-15
5.55294e-15
5.23553e-15
4.34418e-15
4.96841e-15
4.62008e-15
4.60841e-15
4.64273e-15
5.67526e-15
4.97383e-15
5.64001e-15
5.31408e-15
4.97402e-15
4.62815e-15
5.22357e-15
5.27699e-15
4.81668e-15
5.47926e-15
4.96106e-15
4.67268e-15
5.18054e-15
5.10801e-15
5.18052e-15
5.33059e-15
4.80952e-15
4.78781e-15
4.6412e-15
5.17094e-15
5.26683e-15
4.65935e-15
5.27756e-15
5.12279e-15
4.5732e-15
4.69244e-15
4.71436e-15
4.88873e-15
5.1846e-15
5.36283e-15
5.18961e-15
5.68073e-15
5.78805e-15
5.69798e-15
6.089e-15
6.12295e-15
5.60586e-15
5.92231e-15
5.61586e-15
5.40843e-15
6.40647e-15
5.53604e-15
5.69561e-15
6.01308e-15
5.38367e-15
5.90199e-15
5.7938e-15
5.39764e-15
6.22069e-15
5.82941e-15
5.7987e-15
5.50451e-15
5.26739e-15
5.25028e-15
5.78997e-15
6.03518e-15
5.65209e-15
5.83739e-15
6.11367e-15
6.32369e-15
5.17423e-15
5.50966e-15
5.55421e-15
6.07617e-15
5.3856e-15
6.00284e-15
5.84739e-15
5.6488e-15
5.96411e-15
5.62695e-15
5.4981e-15
5.77691e-15
5.71795e-15
5.74448e-15
5.82398e-15
5.74613e-15
5.65157e-15
6.26471e-15
6.03957e-15
5.75434e-15
5.71159e-15
5.82264e-15
5.70988e-15
5.51667e-15
6.14137e-15
6.37414e-15
5.66962e-15
5.53355e-15
5.70155e-15
5.7566e-15
5.59224e-15
6.11818e-15
6.13568e-15
6.15673e-15
5.31861e-15
5.41549e-15
6.16487e-15
5.87052e-15
5.57508e-15
6.12435e-15
5.6715e-15
6.1932e-15
6.15756e-15
5.78048e-15
6.25087e-15
6.08974e-15
5.83488e-15
5.88379e-15
5.28648e-15
5.66697e-15
6.00934e-15
6.023e-15
6.15113e-15
6.06146e-15
5.87365e-15
6.25932e-15
5.94042e-15
5.89065e-15
5.86348e-15
5.68143e-15
6.03921e-15
6.16505e-15
5.85066e-15
5.56917e-15
6.18525e-15
5.85703e-15
5.67865e-15
6.1241e-15
5.85031e-15
5.82041e-15
6.33292e-15
6.0409e-15
6.35509e-15
5.74302e-15
5.53944e-15
5.65829e-15
6.04929e-15
5.26073e-15
5.99489e-15
5.91895e-15
5.8794e-15
5.99693e-15
5.51768e-15
6.27972e-15
5.87245e-15
5.48821e-15
6.17042e-15
5.99404e-15
5.94329e-15
5.92222e-15
6.14799e-15
5.72097e-15
5.55352e-15
5.62148e-15
5.90376e-15
6.13902e-15
5.48651e-15
5.74233e-15
6.25136e-15
5.76459e-15
5.69378e-15
5.58455e-15
5.78445e-15
5.62875e-15
5.70564e-15
5.04695e-15
5.49736e-15
5.98021e-15
5.69897e-15
5.81241e-15
6.21586e-15
5.20088e-15
5.72036e-15
5.91843e-15
5.74761e-15
5.54249e-15
5.53456e-15
5.90604e-15
5.55967e-15
5.73351e-15
5.60116e-15
5.85215e-15
5.55322e-15
5.70631e-15
5.48818e-15
5.65773e-15
5.63845e-15
5.56965e-15
5.57661e-15
6.21609e-15
5.50998e-15
5.64843e-15
5.53589e-15
5.64029e-15
6.03013e-15
6.01412e-15
5.27795e-15
6.17627e-15
5.90557e-15
5.40868e-15
5.69586e-15
5.89075e-15
5.77005e-15
5.5088e-15
5.51905e-15
5.81015e-15
5.83611e-15
5.79774e-15
5.65851e-15
5.31887e-15
5.34226e-15
4.96242e-15
5.43942e-15
5.14965e-15
5.03908e-15
4.90513e-15
5.19864e-15
5.29411e-15
4.93664e-15
5.1352e-15
5.25937e-15
4.82352e-15
5.0722e-15
5.46883e-15
4.93109e-15
5.49119e-15
5.73071e-15
4.68637e-15
5.74316e-15
5.39264e-15
4.44968e-15
5.44964e-15
4.9527e-15
4.73306e-15
5.10137e-15
4.89101e-15
5.53327e-15
5.08691e-15
5.07029e-15
5.40681e-15
5.3818e-15
5.16742e-15
5.53785e-15
5.46413e-15
5.47651e-15
5.28806e-15
5.65948e-15
5.46133e-15
5.02605e-15
4.90323e-15
5.26333e-15
5.26543e-15
5.2346e-15
5.59667e-15
4.95978e-15
5.09508e-15
5.59954e-15
5.32951e-15
4.8024e-15
5.6019e-15
5.27458e-15
5.11134e-15
5.08261e-15
5.17437e-15
5.02596e-15
5.33651e-15
4.4911e-15
5.28922e-15
5.02504e-15
5.44927e-15
5.13463e-15
4.8822e-15
4.68583e-15
4.74686e-15
5.11819e-15
4.61281e-15
4.7125e-15
4.61565e-15
4.68765e-15
4.59102e-15
4.51652e-15
5.66096e-15
4.54896e-15
4.22856e-15
5.01396e-15
4.82457e-15
4.19265e-15
4.98944e-15
4.20159e-15
4.80695e-15
5.14307e-15
4.50464e-15
4.99339e-15
4.86227e-15
4.90032e-15
5.00846e-15
4.75055e-15
4.72964e-15
4.87083e-15
4.77741e-15
4.74036e-15
4.67146e-15
4.5841e-15
4.29859e-15
4.37983e-15
4.86094e-15
4.44622e-15
4.62139e-15
4.37133e-15
4.64928e-15
4.71973e-15
4.61271e-15
5.04794e-15
4.46316e-15
4.99709e-15
4.82304e-15
4.82847e-15
4.21183e-15
5.19257e-15
4.51614e-15
4.97688e-15
4.77749e-15
4.76173e-15
4.9531e-15
4.88059e-15
4.63836e-15
5.2264e-15
4.59596e-15
4.78863e-15
4.66661e-15
4.49046e-15
4.06686e-15
4.65824e-15
4.06443e-15
4.38597e-15
4.35779e-15
4.70287e-15
4.24941e-15
4.32785e-15
4.15582e-15
4.66581e-15
3.85396e-15
4.34181e-15
5.04283e-15
3.8898e-15
4.03428e-15
4.64401e-15
4.8053e-15
4.87032e-15
3.90696e-15
4.27233e-15
4.32673e-15
4.02087e-15
4.10059e-15
3.95881e-15
4.31127e-15
4.74965e-15
4.22975e-15
3.97797e-15
4.17199e-15
4.16481e-15
4.41132e-15
4.05501e-15
4.74441e-15
4.26587e-15
3.8654e-15
4.07469e-15
4.46365e-15
4.79723e-15
4.36599e-15
4.22985e-15
4.62381e-15
4.11189e-15
4.12683e-15
4.06741e-15
4.18312e-15
3.93309e-15
4.64607e-15
3.85238e-15
4.29966e-15
4.3908e-15
4.36003e-15
4.20278e-15
4.15191e-15
4.42785e-15
4.50398e-15
4.46153e-15
4.08168e-15
3.74812e-15
4.65494e-15
4.91312e-15
3.84827e-15
3.29656e-15
4.1013e-15
3.69756e-15
3.61127e-15
3.65549e-15
3.99501e-15
3.83529e-15
4.19898e-15
3.42587e-15
3.81995e-15
4.48445e-15
3.37236e-15
4.49967e-15
3.96715e-15
3.93331e-15
3.28066e-15
3.38067e-15
3.90981e-15
3.52263e-15
3.80236e-15
3.73643e-15
3.80925e-15
4.18748e-15
3.56348e-15
3.33484e-15
3.85401e-15
4.05016e-15
3.93336e-15
3.96495e-15
3.64001e-15
4.03789e-15
3.59466e-15
4.17002e-15
4.16385e-15
4.34272e-15
3.86375e-15
3.56238e-15
4.01296e-15
3.58871e-15
3.77038e-15
4.41447e-15
3.93348e-15
4.18778e-15
4.09872e-15
3.77632e-15
3.8034e-15
3.88892e-15
3.97143e-15
3.63666e-15
3.90125e-15
4.13e-15
4.41702e-15
3.77395e-15
3.82673e-15
3.66075e-15
4.28313e-15
4.09215e-15
3.86583e-15
3.42923e-15
3.98112e-15
3.66185e-15
3.45443e-15
3.33443e-15
3.64994e-15
3.35622e-15
3.30001e-15
3.52367e-15
3.05789e-15
3.69836e-15
3.79646e-15
2.70023e-15
3.85812e-15
2.51526e-15
3.90293e-15
3.43724e-15
3.85007e-15
3.50443e-15
3.89471e-15
3.56325e-15
3.83793e-15
3.80705e-15
3.88499e-15
3.34452e-15
3.58371e-15
3.88043e-15
3.4195e-15
3.76643e-15
3.14113e-15
2.94898e-15
3.48446e-15
3.88625e-15
3.81218e-15
3.31109e-15
3.05493e-15
3.58701e-15
3.23702e-15