/*--------------------------------*- C++ -*----------------------------------*\
| =========                 |                                                 |
| \\      /  F ield         | foam-extend: Open Source CFD                    |
|  \\    /   O peration     | Version:     4.0                                |
|   \\  /    A nd           | Web:         http://www.foam-extend.org         |
|    \\/     M anipulation  |                                                 |
\*---------------------------------------------------------------------------*/
FoamFile
{
    version     2.0;
    format      ascii;
    class       surfaceScalarField;
    location    "17";
    object      phi;
}
// * * * * * * * * * * * * * * * * * * * * * * * * * * * * * * * * * * * * * //

dimensions      [0 3 -1 0 0 0 0];

internalField   nonuniform List<scalar> 
13744
(
-7.19415e-09
7.19417e-09
3.79739e-09
-1.09915e-08
1.4638e-10
3.65101e-09
5.26331e-11
9.37458e-11
2.07538e-11
3.18786e-11
1.02664e-11
1.04881e-11
5.12857e-12
5.13523e-12
2.49507e-12
2.63256e-12
9.24112e-13
1.56986e-12
-5.67707e-14
9.80105e-13
-7.14339e-13
6.59028e-13
-1.16518e-12
4.50973e-13
-1.47873e-12
3.13527e-13
-1.69472e-12
2.16493e-13
-1.83461e-12
1.39111e-13
-1.91495e-12
7.83817e-14
-1.94622e-12
3.16414e-14
-1.93488e-12
-1.25455e-14
-1.88708e-12
-4.77396e-14
-1.80845e-12
-7.63833e-14
-1.70132e-12
-1.08469e-13
-1.57005e-12
-1.30673e-13
-1.41845e-12
-1.52434e-13
-1.24809e-12
-1.69198e-13
-1.06256e-12
-1.84963e-13
-8.65294e-13
-1.98175e-13
-6.57349e-13
-2.08611e-13
-4.41963e-13
-2.15272e-13
-2.225e-13
-2.2049e-13
-9.0134e-16
-2.21934e-13
2.24819e-13
-2.25708e-13
4.39745e-13
-2.14717e-13
6.57154e-13
-2.17382e-13
8.67268e-13
-2.10165e-13
1.06012e-12
-1.90292e-13
1.24788e-12
-1.87739e-13
1.42044e-12
-1.73306e-13
1.56769e-12
-1.4766e-13
1.70125e-12
-1.33671e-13
1.8107e-12
-1.09357e-13
1.88493e-12
-7.50511e-14
1.93499e-12
-5.06262e-14
1.94856e-12
-1.52101e-14
1.91291e-12
3.63043e-14
1.83485e-12
7.9825e-14
1.69722e-12
1.37113e-13
1.47675e-12
2.21489e-13
1.16539e-12
3.13305e-13
7.16783e-13
4.4853e-13
5.47873e-14
6.60805e-13
-9.23835e-13
9.78329e-13
-2.49259e-12
1.56675e-12
-5.1305e-12
2.63745e-12
-1.0266e-11
5.13323e-12
-2.07512e-11
1.04861e-11
-5.26349e-11
3.18842e-11
-1.4638e-10
9.3744e-11
-3.79739e-09
3.65101e-09
7.19414e-09
-1.09915e-08
7.19414e-09
3.566e-08
-2.84658e-08
5.42164e-09
1.92468e-08
4.40897e-10
8.63176e-09
1.61369e-10
3.73274e-10
6.4019e-11
1.2923e-10
3.19531e-11
4.25528e-11
1.60141e-11
2.10784e-11
7.94035e-12
1.07088e-11
3.04865e-12
6.46377e-12
3.72265e-14
3.99475e-12
-2.00735e-12
2.69973e-12
-3.39288e-12
1.83609e-12
-4.37092e-12
1.29308e-12
-5.03301e-12
8.78964e-13
-5.47287e-12
5.80314e-13
-5.72498e-12
3.3451e-13
-5.8261e-12
1.29063e-13
-5.799e-12
-3.86358e-14
-5.66237e-12
-1.85074e-13
-5.42652e-12
-3.17857e-13
-5.10909e-12
-4.23162e-13
-4.7178e-12
-5.22415e-13
-4.26089e-12
-6.08735e-13
-3.75115e-12
-6.81843e-13
-3.19556e-12
-7.40963e-13
-2.6e-12
-7.92311e-13
-1.97648e-12
-8.28837e-13
-1.33045e-12
-8.62421e-13
-6.6712e-13
-8.81573e-13
6.61246e-16
-8.90732e-13
6.62335e-13
-8.87568e-13
1.33643e-12
-8.89233e-13
1.97587e-12
-8.55871e-13
2.59313e-12
-8.2595e-13
3.20103e-12
-8.04135e-13
3.75049e-12
-7.37799e-13
4.25408e-12
-6.7274e-13
4.7235e-12
-6.16063e-13
5.10889e-12
-5.19362e-13
5.42045e-12
-4.20775e-13
5.66874e-12
-3.2202e-13
5.7993e-12
-1.79357e-13
5.82032e-12
-3.44169e-14
5.73166e-12
1.244e-13
5.47358e-12
3.33622e-13
5.02769e-12
5.84033e-13
4.3778e-12
8.69527e-13
3.39351e-12
1.29374e-12
2.00187e-12
1.8382e-12
-3.03493e-14
2.69823e-12
-3.04785e-12
3.99764e-12
-7.94569e-12
6.46883e-12
-1.60072e-11
1.07007e-11
-3.19521e-11
2.10827e-11
-6.4024e-11
4.2558e-11
-1.61361e-10
1.29219e-10
-4.40895e-10
3.73278e-10
-5.42165e-09
8.63177e-09
-3.566e-08
1.92468e-08
-2.84658e-08
2.43656e-08
-5.28314e-08
9.27792e-09
3.43345e-08
7.30017e-10
1.71797e-08
2.73733e-10
8.29559e-10
1.09942e-10
2.93021e-10
5.53102e-11
9.71861e-11
2.79337e-11
4.8455e-11
1.40971e-11
2.45438e-11
5.66341e-12
1.48944e-11
4.97387e-13
9.15773e-12
-3.03123e-12
6.23304e-12
-5.40832e-12
4.21169e-12
-7.09599e-12
2.97895e-12
-8.2375e-12
2.01636e-12
-9.00155e-12
1.34509e-12
-9.4423e-12
7.72549e-13
-9.63115e-12
3.23908e-13
-9.59867e-12
-6.75571e-14
-9.38202e-12
-3.99958e-13
-8.99954e-12
-6.93084e-13
-8.47768e-12
-9.42857e-13
-7.83111e-12
-1.17065e-12
-7.07686e-12
-1.3651e-12
-6.23124e-12
-1.52678e-12
-5.30873e-12
-1.66483e-12
-4.32147e-12
-1.78005e-12
-3.28494e-12
-1.86956e-12
-2.2106e-12
-1.93293e-12
-1.11017e-12
-1.98305e-12
-3.66961e-16
-1.99799e-12
1.10841e-12
-1.99402e-12
2.21344e-12
-1.99277e-12
3.28392e-12
-1.92824e-12
4.31717e-12
-1.86237e-12
5.31072e-12
-1.79401e-12
6.23014e-12
-1.65687e-12
7.07266e-12
-1.51751e-12
7.83345e-12
-1.37687e-12
8.47735e-12
-1.16063e-12
8.99658e-12
-9.41275e-13
9.38548e-12
-7.09266e-13
9.59916e-12
-3.9288e-13
9.62867e-12
-6.30884e-14
9.44626e-12
3.07199e-13
9.00275e-12
7.80626e-13
8.2358e-12
1.35081e-12
7.10032e-12
2.00581e-12
5.40937e-12
2.98456e-12
3.02926e-12
4.2204e-12
-4.93077e-13
6.21253e-12
-5.66207e-12
9.16545e-12
-1.40989e-11
1.49016e-11
-2.79292e-11
2.45272e-11
-5.53085e-11
4.84549e-11
-1.09943e-10
9.71882e-11
-2.73728e-10
2.93003e-10
-7.30015e-10
8.29568e-10
-9.27792e-09
1.71797e-08
-2.43656e-08
3.43344e-08
-5.28314e-08
7.10385e-09
-5.99352e-08
8.28555e-09
3.31528e-08
1.00556e-09
2.44597e-08
3.88112e-10
1.44701e-09
1.58318e-10
5.22811e-10
8.03138e-11
1.7519e-10
4.09574e-11
8.78091e-11
2.10431e-11
4.44597e-11
8.86514e-12
2.70752e-11
1.41657e-12
1.66068e-11
-3.68308e-12
1.13316e-11
-7.11144e-12
7.64013e-12
-9.55213e-12
5.41812e-12
-1.12055e-11
3.67315e-12
-1.23191e-11
2.45597e-12
-1.29691e-11
1.42387e-12
-1.32633e-11
6.15667e-13
-1.3241e-11
-9.33142e-14
-1.29586e-11
-6.84564e-13
-1.24431e-11
-1.21435e-12
-1.17299e-11
-1.66132e-12
-1.08408e-11
-2.05561e-12
-9.80203e-12
-2.39844e-12
-8.63329e-12
-2.69323e-12
-7.35667e-12
-2.94172e-12
-5.99066e-12
-3.1439e-12
-4.55409e-12
-3.30518e-12
-3.06456e-12
-3.42723e-12
-1.54039e-12
-3.50491e-12
-8.00569e-16
-3.53784e-12
1.54131e-12
-3.53598e-12
3.06387e-12
-3.51952e-12
4.55266e-12
-3.41454e-12
5.98917e-12
-3.29622e-12
7.35494e-12
-3.15943e-12
8.63176e-12
-2.93209e-12
9.80069e-12
-2.69138e-12
1.08396e-11
-2.41854e-12
1.17294e-11
-2.05429e-12
1.24434e-11
-1.65693e-12
1.29589e-11
-1.22753e-12
1.32417e-11
-6.77992e-13
1.32643e-11
-8.72843e-14
1.29701e-11
5.99819e-13
1.23207e-11
1.43066e-12
1.12076e-11
2.46047e-12
9.55368e-12
3.65605e-12
7.11293e-12
5.43002e-12
3.68481e-12
7.65062e-12
-1.41504e-12
1.13179e-11
-8.86329e-12
1.66113e-11
-2.10411e-11
2.7084e-11
-4.09557e-11
4.44456e-11
-8.03116e-11
8.78195e-11
-1.58315e-10
1.75195e-10
-3.88109e-10
5.22802e-10
-1.00556e-09
1.44701e-09
-8.28555e-09
2.44597e-08
-7.10385e-09
3.31527e-08
-5.99353e-08
5.86024e-09
-6.57955e-08
6.18598e-09
3.2827e-08
1.27157e-09
2.93741e-08
5.03799e-10
2.21479e-09
2.09027e-10
8.17591e-10
1.06987e-10
2.77225e-10
5.51365e-11
1.39659e-10
2.88389e-11
7.0756e-11
1.27143e-11
4.32016e-11
2.85468e-12
2.64699e-11
-3.90292e-12
1.8085e-11
-8.44323e-12
1.21834e-11
-1.16815e-11
8.6632e-12
-1.3879e-11
5.87044e-12
-1.53692e-11
3.95035e-12
-1.62509e-11
2.30546e-12
-1.66692e-11
1.0335e-12
-1.66752e-11
-8.83217e-14
-1.63444e-11
-1.01585e-12
-1.57116e-11
-1.84452e-12
-1.48239e-11
-2.54743e-12
-1.37093e-11
-3.17022e-12
-1.24021e-11
-3.7074e-12
-1.09277e-11
-4.16845e-12
-9.3147e-12
-4.55248e-12
-7.58687e-12
-4.87298e-12
-5.76856e-12
-5.12317e-12
-3.88234e-12
-5.31289e-12
-1.95175e-12
-5.44204e-12
-4.02929e-16
-5.49199e-12
1.95221e-12
-5.49197e-12
3.88157e-12
-5.4456e-12
5.76673e-12
-5.30145e-12
7.58472e-12
-5.11822e-12
9.31277e-12
-4.88671e-12
1.09257e-11
-4.54871e-12
1.24001e-11
-4.16396e-12
1.3708e-11
-3.72328e-12
1.48233e-11
-3.16942e-12
1.57118e-11
-2.5396e-12
1.63451e-11
-1.85945e-12
1.66761e-11
-1.00361e-12
1.66703e-11
-8.23161e-14
1.62524e-11
1.02045e-12
1.53713e-11
2.31177e-12
1.38816e-11
3.95186e-12
1.16837e-11
5.85711e-12
8.44512e-12
8.66377e-12
3.90489e-12
1.21892e-11
-2.85251e-12
1.80738e-11
-1.27119e-11
2.64753e-11
-2.88366e-11
4.32046e-11
-5.5134e-11
7.07419e-11
-1.06984e-10
1.39664e-10
-2.09023e-10
2.77234e-10
-5.03795e-10
8.17572e-10
-1.27157e-09
2.21479e-09
-6.18598e-09
2.93741e-08
-5.86024e-09
3.2827e-08
-6.57955e-08
9.08307e-09
-7.48786e-08
5.78078e-09
3.61293e-08
1.53005e-09
3.36248e-08
6.20476e-10
3.12436e-09
2.6197e-10
1.17609e-09
1.35348e-10
4.03855e-10
7.05176e-11
2.04495e-10
3.75359e-11
1.03737e-10
1.72622e-11
6.34726e-11
4.86227e-12
3.88676e-11
-3.64208e-12
2.65935e-11
-9.35574e-12
1.78964e-11
-1.34368e-11
1.27357e-11
-1.62127e-11
8.64897e-12
-1.81071e-11
5.83928e-12
-1.9244e-11
3.44106e-12
-1.98074e-11
1.59579e-12
-1.98614e-11
-3.41949e-14
-1.95014e-11
-1.3713e-12
-1.87702e-11
-2.57688e-12
-1.77271e-11
-3.59147e-12
-1.64066e-11
-4.49523e-12
-1.48507e-11
-5.26645e-12
-1.30913e-11
-5.92626e-12
-1.1163e-11
-6.48075e-12
-9.09458e-12
-6.94386e-12
-6.91638e-12
-7.30131e-12
-4.65558e-12
-7.56824e-12
-2.34057e-12
-7.75169e-12
-1.38374e-16
-7.82676e-12
2.34027e-12
-7.83577e-12
4.65533e-12
-7.76258e-12
6.91415e-12
-7.5562e-12
9.09125e-12
-7.29158e-12
1.11614e-11
-6.95848e-12
1.30889e-11
-6.47538e-12
1.48477e-11
-5.91809e-12
1.64058e-11
-5.28087e-12
1.77264e-11
-4.48687e-12
1.87696e-11
-3.5897e-12
1.95029e-11
-2.59392e-12
1.98624e-11
-1.36736e-12
1.98079e-11
-2.55976e-14
1.92466e-11
1.58212e-12
1.81097e-11
3.44541e-12
1.6215e-11
5.85076e-12
1.34403e-11
8.63325e-12
9.35804e-12
1.27497e-11
3.64372e-12
1.79034e-11
-4.8589e-12
2.65757e-11
-1.72593e-11
3.88749e-11
-3.75338e-11
6.34794e-11
-7.05139e-11
1.0372e-10
-1.35344e-10
2.04497e-10
-2.61967e-10
4.03861e-10
-6.20471e-10
1.17608e-09
-1.53004e-09
3.12437e-09
-5.78077e-09
3.36248e-08
-9.08306e-09
3.61293e-08
-7.48786e-08
9.84424e-09
-8.47228e-08
6.17803e-09
3.97955e-08
1.77763e-09
3.80252e-08
7.37886e-10
4.1641e-09
3.17034e-10
1.59694e-09
1.65404e-10
5.55484e-10
8.71407e-11
2.82749e-10
4.71798e-11
1.43702e-10
2.25556e-11
8.81003e-11
7.48511e-12
5.39352e-11
-2.85617e-12
3.69327e-11
-9.80556e-12
2.48476e-11
-1.47755e-11
1.77122e-11
-1.81651e-11
1.20351e-11
-2.04925e-11
8.1693e-12
-2.19093e-11
4.85782e-12
-2.26404e-11
2.33296e-12
-2.27638e-11
9.29014e-14
-2.23956e-11
-1.74108e-12
-2.15872e-11
-3.3815e-12
-2.04103e-11
-4.76348e-12
-1.8906e-11
-5.99398e-12
-1.71245e-11
-7.04797e-12
-1.51034e-11
-7.94858e-12
-1.28839e-11
-8.69827e-12
-1.04998e-11
-9.32366e-12
-7.98685e-12
-9.81207e-12
-5.37697e-12
-1.01829e-11
-2.70353e-12
-1.042e-11
-1.3976e-16
-1.05355e-11
2.70311e-12
-1.05336e-11
5.3766e-12
-1.04332e-11
7.98424e-12
-1.01676e-11
1.0496e-11
-9.80244e-12
1.28821e-11
-9.34147e-12
1.51008e-11
-8.69192e-12
1.71211e-11
-7.94049e-12
1.89051e-11
-7.0685e-12
2.04095e-11
-5.9975e-12
2.15866e-11
-4.7645e-12
2.23973e-11
-3.40384e-12
2.2765e-11
-1.73788e-12
2.2641e-11
9.70439e-14
2.19122e-11
2.30579e-12
2.04955e-11
4.86696e-12
1.81678e-11
8.1774e-12
1.47795e-11
1.20176e-11
9.80824e-12
1.77172e-11
2.85812e-12
2.48565e-11
-7.48121e-12
3.69155e-11
-2.25523e-11
5.39455e-11
-4.71774e-11
8.81086e-11
-8.71365e-11
1.43683e-10
-1.654e-10
2.8276e-10
-3.1703e-10
5.55485e-10
-7.3788e-10
1.59693e-09
-1.77762e-09
4.1641e-09
-6.17803e-09
3.80252e-08
-9.84424e-09
3.97955e-08
-8.47228e-08
9.15907e-09
-9.38819e-08
6.4101e-09
4.25445e-08
2.01075e-09
4.24245e-08
8.5552e-10
5.31933e-09
3.74084e-10
2.07838e-09
1.97149e-10
7.32414e-10
1.05037e-10
3.74869e-10
5.78098e-11
1.90926e-10
2.86348e-11
1.17271e-10
1.07626e-11
7.18105e-11
-1.50671e-12
4.92055e-11
-9.75535e-12
3.30905e-11
-1.56612e-11
2.36164e-11
-1.97009e-11
1.60788e-11
-2.24912e-11
1.09586e-11
-2.42138e-11
6.58024e-12
-2.51365e-11
3.24898e-12
-2.53522e-11
3.0238e-13
-2.49984e-11
-2.0907e-12
-2.4136e-11
-4.24927e-12
-2.28489e-11
-6.05304e-12
-2.11852e-11
-7.66433e-12
-1.92035e-11
-9.02595e-12
-1.69468e-11
-1.02052e-11
-1.44629e-11
-1.11836e-11
-1.17907e-11
-1.20002e-11
-8.97101e-12
-1.26362e-11
-6.04054e-12
-1.31145e-11
-3.0376e-12
-1.3427e-11
-1.77249e-16
-1.35716e-11
3.03724e-12
-1.35716e-11
6.03979e-12
-1.3439e-11
8.96804e-12
-1.30934e-11
1.17866e-11
-1.26227e-11
1.44605e-11
-1.20215e-11
1.69438e-11
-1.11762e-11
1.91999e-11
-1.01966e-11
2.11839e-11
-9.05039e-12
2.2848e-11
-7.65461e-12
2.41355e-11
-6.04922e-12
2.5e-11
-4.26825e-12
2.53534e-11
-2.0848e-12
2.51374e-11
3.16035e-13
2.42168e-11
3.23322e-12
2.24947e-11
6.58562e-12
1.97043e-11
1.09674e-11
1.56656e-11
1.60643e-11
9.7584e-12
2.36229e-11
1.5092e-12
3.31028e-11
-1.07585e-11
4.91823e-11
-2.86311e-11
7.18182e-11
-5.78068e-11
1.17277e-10
-1.05032e-10
1.90907e-10
-1.97145e-10
3.74867e-10
-3.74079e-10
7.32422e-10
-8.55513e-10
2.07836e-09
-2.01075e-09
5.31934e-09
-6.41009e-09
4.24246e-08
-9.15906e-09
4.25445e-08
-9.38819e-08
8.57807e-09
-1.0246e-07
6.41508e-09
4.47075e-08
2.22771e-09
4.66119e-08
9.72692e-10
6.57435e-09
4.3296e-10
2.61811e-09
2.30561e-10
9.34818e-10
1.24226e-10
4.81203e-10
6.94558e-11
2.45693e-10
3.55322e-11
1.51199e-10
1.47267e-11
9.26142e-11
4.37441e-13
6.34929e-11
-9.17505e-12
4.2705e-11
-1.6065e-11
3.05039e-11
-2.0792e-11
2.08035e-11
-2.40761e-11
1.42433e-11
-2.61314e-11
8.63442e-12
-2.72708e-11
4.39209e-12
-2.76028e-11
6.40134e-13
-2.72876e-11
-2.41531e-12
-2.63957e-11
-5.13788e-12
-2.50239e-11
-7.42858e-12
-2.3227e-11
-9.45738e-12
-2.10721e-11
-1.11841e-11
-1.86079e-11
-1.26703e-11
-1.58886e-11
-1.39061e-11
-1.29579e-11
-1.49251e-11
-9.86192e-12
-1.57299e-11
-6.6417e-12
-1.63356e-11
-3.34039e-12
-1.67313e-11
-1.87243e-16
-1.69103e-11
3.33998e-12
-1.69145e-11
6.64063e-12
-1.67343e-11
9.85861e-12
-1.63118e-11
1.29536e-11
-1.57164e-11
1.58858e-11
-1.49472e-11
1.86046e-11
-1.38917e-11
2.10684e-11
-1.26629e-11
2.32254e-11
-1.12053e-11
2.50228e-11
-9.45759e-12
2.63954e-11
-7.42671e-12
2.72892e-11
-5.1644e-12
2.76041e-11
-2.40556e-12
2.72719e-11
6.40706e-13
2.61345e-11
4.36935e-12
2.40799e-11
8.63632e-12
2.07961e-11
1.42482e-11
1.60697e-11
2.07803e-11
9.17847e-12
3.05152e-11
-4.34495e-13
4.27144e-11
-1.47223e-11
6.34671e-11
-3.55281e-11
9.26249e-11
-6.94523e-11
1.51208e-10
-1.24222e-10
2.45673e-10
-2.30556e-10
4.81206e-10
-4.32955e-10
9.3482e-10
-9.72685e-10
2.61809e-09
-2.2277e-09
6.57436e-09
-6.41508e-09
4.66119e-08
-8.57807e-09
4.47075e-08
-1.0246e-07
8.24392e-09
-1.10704e-07
6.36085e-09
4.65905e-08
2.42757e-09
5.05452e-08
1.0887e-09
7.91322e-09
4.93482e-10
3.21333e-09
2.65597e-10
1.1627e-09
1.44716e-10
6.0208e-10
8.21376e-11
3.08277e-10
4.32711e-11
1.90064e-10
1.94007e-11
1.16481e-10
2.99891e-12
7.98947e-11
-8.04305e-12
5.37512e-11
-1.59661e-11
3.84256e-11
-2.14186e-11
2.62539e-11
-2.52281e-11
1.8054e-11
-2.76441e-11
1.10515e-11
-2.9026e-11
5.77418e-12
-2.94996e-11
1.11362e-12
-2.92482e-11
-2.66044e-12
-2.83525e-11
-6.04217e-12
-2.69223e-11
-8.8538e-12
-2.50196e-11
-1.13645e-11
-2.27201e-11
-1.34823e-11
-2.00779e-11
-1.53104e-11
-1.71535e-11
-1.68323e-11
-1.39955e-11
-1.8088e-11
-1.0655e-11
-1.9069e-11
-7.17735e-12
-1.98106e-11
-3.61033e-12
-2.02972e-11
-2.05783e-16
-2.05218e-11
3.60982e-12
-2.0523e-11
7.17602e-12
-2.03048e-11
1.06513e-11
-1.97913e-11
1.39909e-11
-1.90599e-11
1.71503e-11
-1.81111e-11
2.00743e-11
-1.68187e-11
2.27161e-11
-1.53004e-11
2.50178e-11
-1.35087e-11
2.69211e-11
-1.1356e-11
2.83521e-11
-8.8541e-12
2.92497e-11
-6.06312e-12
2.9501e-11
-2.65283e-12
2.90273e-11
1.11868e-12
2.76474e-11
5.74701e-12
2.52323e-11
1.10572e-11
2.14231e-11
1.80605e-11
1.59712e-11
2.6239e-11
8.04681e-12
3.84426e-11
-2.99559e-12
5.37604e-11
-1.9396e-11
7.98724e-11
-4.32667e-11
1.16494e-10
-8.21337e-11
1.90077e-10
-1.44711e-10
3.08255e-10
-2.65592e-10
6.02085e-10
-4.93476e-10
1.16271e-09
-1.0887e-09
3.21331e-09
-2.42756e-09
7.91322e-09
-6.36085e-09
5.05452e-08
-8.24391e-09
4.65905e-08
-1.10704e-07
7.90964e-09
-1.18614e-07
6.29588e-09
4.82043e-08
2.60942e-09
5.42317e-08
1.20288e-09
9.31976e-09
5.5544e-10
3.86077e-09
3.02196e-10
1.41594e-09
1.665e-10
7.37782e-10
9.58626e-11
3.78913e-10
5.18642e-11
2.34063e-10
2.47978e-11
1.43555e-10
6.19047e-12
9.85036e-11
-6.34747e-12
6.62843e-11
-1.53535e-11
4.74394e-11
-2.15705e-11
3.24714e-11
-2.59379e-11
2.24182e-11
-2.87431e-11
1.38532e-11
-3.03942e-11
7.42524e-12
-3.1035e-11
1.74749e-12
-3.08731e-11
-2.82871e-12
-2.99999e-11
-6.90262e-12
-2.85384e-11
-1.03155e-11
-2.6558e-11
-1.33388e-11
-2.41429e-11
-1.58995e-11
-2.13528e-11
-1.81012e-11
-1.82543e-11
-1.99271e-11
-1.49008e-11
-2.14399e-11
-1.13482e-11
-2.262e-11
-7.6462e-12
-2.35151e-11
-3.84678e-12
-2.40984e-11
-2.40982e-16
-2.43667e-11
3.84614e-12
-2.43681e-11
7.64458e-12
-2.41052e-11
1.13443e-11
-2.34861e-11
1.4896e-11
-2.26071e-11
1.82508e-11
-2.14651e-11
2.1349e-11
-1.99132e-11
2.41388e-11
-1.80941e-11
2.65561e-11
-1.59235e-11
2.85372e-11
-1.33425e-11
2.99995e-11
-1.03212e-11
3.08747e-11
-6.93605e-12
3.10364e-11
-2.81608e-12
3.03956e-11
1.7579e-12
2.87466e-11
7.39796e-12
2.59425e-11
1.38593e-11
2.15755e-11
2.24227e-11
1.5359e-11
3.24535e-11
6.35154e-12
4.74459e-11
-6.1868e-12
6.63002e-11
-2.47927e-11
9.8481e-11
-5.18594e-11
1.43562e-10
-9.58584e-11
2.34067e-10
-1.66495e-10
3.7889e-10
-3.0219e-10
7.37783e-10
-5.55434e-10
1.41595e-09
-1.20287e-09
3.86075e-09
-2.60942e-09
9.31977e-09
-6.29588e-09
5.42317e-08
-7.90964e-09
4.82043e-08
-1.18613e-07
7.49942e-09
-1.26113e-07
6.20197e-09
4.95017e-08
2.77253e-09
5.76611e-08
1.31455e-09
1.07777e-08
6.18606e-10
4.55671e-09
3.40273e-10
1.69428e-09
1.89555e-10
8.88499e-10
1.10625e-10
4.57841e-10
6.1312e-11
2.83376e-10
3.09197e-11
1.73944e-10
1.00138e-11
1.19403e-10
-4.08739e-12
8.03895e-11
-1.4227e-11
5.75746e-11
-2.12484e-11
3.94945e-11
-2.62068e-11
2.73775e-11
-2.94302e-11
1.70722e-11
-3.13774e-11
9.37693e-12
-3.22115e-11
2.58768e-12
-3.2165e-11
-2.86636e-12
-3.13405e-11
-7.73423e-12
-2.98749e-11
-1.17873e-11
-2.78447e-11
-1.53673e-11
-2.53429e-11
-1.84025e-11
-2.24347e-11
-2.10147e-11
-1.91928e-11
-2.317e-11
-1.56753e-11
-2.49589e-11
-1.19428e-11
-2.63529e-11
-8.04898e-12
-2.741e-11
-4.05014e-12
-2.80942e-11
-2.95278e-16
-2.84205e-11
4.04935e-12
-2.84178e-11
8.04709e-12
-2.8104e-11
1.19386e-11
-2.738e-11
1.56702e-11
-2.63405e-11
1.91891e-11
-2.49824e-11
2.24307e-11
-2.31563e-11
2.53387e-11
-2.10001e-11
2.78426e-11
-1.84347e-11
2.98736e-11
-1.53684e-11
3.13402e-11
-1.17844e-11
3.21665e-11
-7.76642e-12
3.22129e-11
-2.86465e-12
3.13789e-11
2.59268e-12
2.94338e-11
9.34348e-12
2.62116e-11
1.70828e-11
2.12538e-11
2.73903e-11
1.42329e-11
3.94763e-11
4.09179e-12
5.75921e-11
-1.00098e-11
8.03913e-11
-3.09144e-11
1.19378e-10
-6.13069e-11
1.73954e-10
-1.10621e-10
2.83387e-10
-1.89549e-10
4.57819e-10
-3.40268e-10
8.88497e-10
-6.18599e-10
1.69428e-09
-1.31454e-09
4.55669e-09
-2.77252e-09
1.07777e-08
-6.20197e-09
5.76611e-08
-7.49941e-09
4.95017e-08
-1.26113e-07
7.04593e-09
-1.33159e-07
6.06871e-09
5.0479e-08
2.91656e-09
6.08132e-08
1.42306e-09
1.22712e-08
6.82729e-10
5.29705e-09
3.79726e-10
1.99728e-09
2.13842e-10
1.05438e-09
1.26406e-10
5.45277e-10
7.16032e-11
3.38183e-10
3.77565e-11
2.07792e-10
1.44588e-11
1.42704e-10
-1.27365e-12
9.6119e-11
-1.25984e-11
6.88972e-11
-2.04645e-11
4.73646e-11
-2.60476e-11
3.29658e-11
-2.97186e-11
2.07498e-11
-3.19887e-11
1.16397e-11
-3.3042e-11
3.64378e-12
-3.31365e-11
-2.77895e-12
-3.23865e-11
-8.48164e-12
-3.09429e-11
-1.32256e-11
-2.88901e-11
-1.74231e-11
-2.63295e-11
-2.09603e-11
-2.33319e-11
-2.40047e-11
-1.99761e-11
-2.65264e-11
-1.63248e-11
-2.86091e-11
-1.2443e-11
-3.02307e-11
-8.38864e-12
-3.14585e-11
-4.22189e-12
-3.22624e-11
-3.57995e-16
-3.26394e-11
4.22092e-12
-3.26424e-11
8.38648e-12
-3.22651e-11
1.24386e-11
-3.14266e-11
1.63195e-11
-3.02203e-11
1.99721e-11
-2.86335e-11
2.33277e-11
-2.65098e-11
2.63252e-11
-2.39993e-11
2.88878e-11
-2.09899e-11
3.09416e-11
-1.74264e-11
3.23862e-11
-1.32285e-11
3.31379e-11
-8.51162e-12
3.30434e-11
-2.76837e-12
3.19904e-11
3.64845e-12
2.97223e-11
1.16088e-11
2.60526e-11
2.07498e-11
2.04704e-11
3.29683e-11
1.26045e-11
4.73362e-11
1.27832e-12
6.89147e-11
-1.44545e-11
9.61342e-11
-3.77509e-11
1.4268e-10
-7.15978e-11
2.07799e-10
-1.26401e-10
3.38189e-10
-2.13836e-10
5.45254e-10
-3.7972e-10
1.05438e-09
-6.82722e-10
1.99728e-09
-1.42305e-09
5.29702e-09
-2.91655e-09
1.22713e-08
-6.06871e-09
6.08133e-08
-7.04592e-09
5.0479e-08
-1.33159e-07
6.57594e-09
-1.39735e-07
5.89901e-09
5.11559e-08
3.04165e-09
6.36706e-08
1.52781e-09
1.37851e-08
7.47553e-10
6.0773e-09
4.20435e-10
2.3244e-09
2.39311e-10
1.23551e-09
1.43175e-10
6.41418e-10
8.27151e-11
3.98639e-10
4.52872e-11
2.45217e-10
1.95047e-11
1.68486e-10
2.07195e-12
1.13553e-10
-1.04901e-11
8.14631e-11
-1.92424e-11
5.6108e-11
-2.5484e-11
3.92044e-11
-2.96321e-11
2.48959e-11
-3.2252e-11
1.42608e-11
-3.35497e-11
4.93346e-12
-3.38099e-11
-2.50924e-12
-3.31591e-11
-9.13394e-12
-3.17625e-11
-1.46186e-11
-2.97125e-11
-1.94766e-11
-2.71191e-11
-2.35586e-11
-2.40589e-11
-2.70668e-11
-2.06164e-11
-2.99686e-11
-1.68591e-11
-3.23663e-11
-1.28566e-11
-3.42401e-11
-8.6703e-12
-3.56452e-11
-4.36457e-12
-3.65668e-11
-4.47574e-16
-3.70021e-11
4.36341e-12
-3.70028e-11
8.66785e-12
-3.65721e-11
1.28519e-11
-3.56137e-11
1.68537e-11
-3.42254e-11
2.06122e-11
-3.23921e-11
2.40545e-11
-2.99521e-11
2.71148e-11
-2.70592e-11
2.97101e-11
-2.35897e-11
3.17611e-11
-1.9473e-11
3.31588e-11
-1.46229e-11
3.38112e-11
-9.16922e-12
3.35512e-11
-2.51209e-12
3.22537e-11
4.94528e-12
2.96359e-11
1.42328e-11
2.54893e-11
2.48946e-11
1.92486e-11
3.92092e-11
1.04966e-11
5.60911e-11
-2.06699e-12
8.1479e-11
-1.95001e-11
1.13562e-10
-4.52814e-11
1.68458e-10
-8.27095e-11
2.4523e-10
-1.4317e-10
3.98642e-10
-2.39305e-10
6.41387e-10
-4.20429e-10
1.2355e-09
-7.47545e-10
2.3244e-09
-1.5278e-09
6.07728e-09
-3.04164e-09
1.37851e-08
-5.899e-09
6.36706e-08
-6.57593e-09
5.11559e-08
-1.39735e-07
6.0901e-09
-1.45825e-07
5.69605e-09
5.15499e-08
3.14834e-09
6.62183e-08
1.62825e-09
1.53052e-08
8.12821e-10
6.89273e-09
4.62272e-10
2.67495e-09
2.65901e-10
1.43187e-09
1.60892e-10
7.4642e-10
9.46172e-11
4.64913e-10
5.34829e-11
2.86357e-10
2.5122e-11
1.96847e-10
5.91885e-12
1.3276e-10
-7.93401e-12
9.53181e-11
-1.76144e-11
6.57958e-11
-2.45491e-11
4.61383e-11
-2.92038e-11
2.95523e-11
-3.21999e-11
1.72611e-11
-3.37665e-11
6.50398e-12
-3.42158e-11
-2.06499e-12
-3.36873e-11
-9.65969e-12
-3.23608e-11
-1.59574e-11
-3.03367e-11
-2.14989e-11
-2.77341e-11
-2.61584e-11
-2.46352e-11
-3.01658e-11
-2.11305e-11
-3.34735e-11
-1.7292e-11
-3.62094e-11
-1.31936e-11
-3.83345e-11
-8.90085e-12
-3.9947e-11
-4.48168e-12
-4.09892e-11
-5.45057e-16
-4.14906e-11
4.48029e-12
-4.14872e-11
8.89812e-12
-4.09845e-11
1.31887e-11
-3.99051e-11
1.72864e-11
-3.83185e-11
2.11261e-11
-3.62377e-11
2.46307e-11
-3.34621e-11
2.77298e-11
-3.01551e-11
3.03342e-11
-2.61985e-11
3.23593e-11
-2.15063e-11
3.36869e-11
-1.59511e-11
3.42171e-11
-9.6971e-12
3.3768e-11
-2.05726e-12
3.22017e-11
6.50986e-12
2.92077e-11
1.72229e-11
2.45546e-11
2.95534e-11
1.7621e-11
4.61457e-11
7.94073e-12
6.57713e-11
-5.91361e-12
9.5335e-11
-2.5117e-11
1.32764e-10
-5.34768e-11
1.96825e-10
-9.46113e-11
2.86362e-10
-1.60887e-10
4.64926e-10
-2.65895e-10
7.46392e-10
-4.62265e-10
1.43187e-09
-8.12814e-10
2.67495e-09
-1.62824e-09
6.8927e-09
-3.14833e-09
1.53052e-08
-5.69604e-09
6.62183e-08
-6.09009e-09
5.15499e-08
-1.45825e-07
5.57456e-09
-1.51399e-07
5.4592e-09
5.16653e-08
3.23749e-09
6.844e-08
1.72395e-09
1.68187e-08
8.78297e-10
7.73838e-09
5.05111e-10
3.04813e-09
2.93552e-10
1.64344e-09
1.79517e-10
8.60457e-10
1.07276e-10
5.37162e-10
6.23107e-11
3.31318e-10
3.12771e-11
2.27889e-10
1.02318e-11
1.53801e-10
-4.96665e-12
1.10509e-10
-1.56185e-11
7.64444e-11
-2.32813e-11
5.38039e-11
-2.84722e-11
3.47377e-11
-3.18703e-11
2.06578e-11
-3.37295e-11
8.36422e-12
-3.439e-11
-1.40218e-12
-3.4005e-11
-1.00478e-11
-3.27694e-11
-1.71835e-11
-3.07919e-11
-2.3478e-11
-2.82008e-11
-2.87476e-11
-2.50838e-11
-3.32837e-11
-2.15379e-11
-3.70172e-11
-1.76391e-11
-4.00989e-11
-1.34663e-11
-4.25116e-11
-9.08836e-12
-4.43194e-11
-4.57727e-12
-4.54969e-11
-6.56462e-16
-4.60626e-11
4.57564e-12
-4.6058e-11
9.08535e-12
-4.55001e-11
1.34612e-11
-4.42795e-11
1.76334e-11
-4.24981e-11
2.15332e-11
-4.01308e-11
2.50792e-11
-3.70049e-11
2.81963e-11
-3.32695e-11
3.07892e-11
-2.87839e-11
3.27678e-11
-2.34777e-11
3.40046e-11
-1.71899e-11
3.43912e-11
-1.00854e-11
3.37309e-11
-1.39913e-12
3.18722e-11
8.36944e-12
2.84761e-11
2.06145e-11
2.32869e-11
3.47437e-11
1.56253e-11
5.38086e-11
4.97361e-12
7.64249e-11
-1.02263e-11
1.10537e-10
-3.12718e-11
1.53815e-10
-6.23044e-11
2.27851e-10
-1.0727e-10
3.31326e-10
-1.79512e-10
5.37166e-10
-2.93546e-10
8.6043e-10
-5.05105e-10
1.64344e-09
-8.7829e-10
3.04813e-09
-1.72394e-09
7.73836e-09
-3.23748e-09
1.68187e-08
-5.45919e-09
6.84401e-08
-5.57456e-09
5.16653e-08
-1.51399e-07
5.01086e-09
-1.5641e-07
5.18659e-09
5.14896e-08
3.31014e-09
7.03165e-08
1.81459e-09
1.83143e-08
9.43775e-10
8.60919e-09
5.4884e-10
3.44307e-09
3.22212e-10
1.87006e-09
1.99014e-10
9.83663e-10
1.20662e-10
6.15511e-10
7.17404e-11
3.80239e-10
3.79379e-11
2.61681e-10
1.49764e-11
1.76765e-10
-1.62444e-12
1.27113e-10
-1.32925e-11
8.81141e-11
-2.17194e-11
6.22314e-11
-2.74765e-11
4.0496e-11
-3.13023e-11
2.44812e-11
-3.34768e-11
1.0536e-11
-3.43694e-11
-5.16833e-13
-3.41472e-11
-1.02659e-11
-3.3021e-11
-1.83119e-11
-3.1108e-11
-2.53938e-11
-2.8546e-11
-3.13118e-11
-2.54285e-11
-3.63981e-11
-2.18586e-11
-4.05878e-11
-1.7917e-11
-4.4046e-11
-1.36869e-11
-4.67367e-11
-9.24122e-12
-4.87689e-11
-4.65554e-12
-5.00859e-11
-7.73378e-16
-5.07145e-11
4.65363e-12
-5.07168e-11
9.23794e-12
-5.00911e-11
1.36816e-11
-4.87289e-11
1.79112e-11
-4.6724e-11
2.18538e-11
-4.40767e-11
2.54238e-11
-4.05714e-11
2.85415e-11
-3.63912e-11
3.11053e-11
-3.13541e-11
3.30193e-11
-2.53999e-11
3.41468e-11
-1.83193e-11
3.43705e-11
-1.03103e-11
3.34782e-11
-5.06824e-13
3.13043e-11
1.05437e-11
2.74804e-11
2.44467e-11
2.17252e-11
4.04975e-11
1.32996e-11
6.22314e-11
1.63164e-12
8.80896e-11
-1.49707e-11
1.27132e-10
-3.79323e-11
1.76773e-10
-7.17339e-11
2.6166e-10
-1.20655e-10
3.80256e-10
-1.99008e-10
6.15517e-10
-3.22205e-10
9.83628e-10
-5.48833e-10
1.87006e-09
-9.43767e-10
3.44307e-09
-1.81458e-09
8.60916e-09
-3.31013e-09
1.83143e-08
-5.18659e-09
7.03165e-08
-5.01086e-09
5.14896e-08
-1.5641e-07
4.38694e-09
-1.60797e-07
4.87875e-09
5.09978e-08
3.36738e-09
7.18278e-08
1.89993e-09
1.97817e-08
1.00908e-09
9.50005e-09
5.93364e-10
3.85879e-09
3.51842e-10
2.11159e-09
2.19358e-10
1.11614e-09
1.34755e-10
7.00114e-10
8.17499e-11
4.33245e-10
4.50796e-11
2.98356e-10
2.01245e-11
2.01725e-10
2.06178e-12
1.4518e-10
-1.06693e-11
1.0084e-10
-1.98976e-11
7.14563e-11
-2.62516e-11
4.68534e-11
-3.05309e-11
2.87634e-11
-3.3043e-11
1.30511e-11
-3.41872e-11
6.33079e-13
-3.41459e-11
-1.03104e-11
-3.31455e-11
-1.93111e-11
-3.13128e-11
-2.72195e-11
-2.87948e-11
-3.38303e-11
-2.56912e-11
-3.9504e-11
-2.21114e-11
-4.41723e-11
-1.81408e-11
-4.80158e-11
-1.38671e-11
-5.10098e-11
-9.36717e-12
-5.32607e-11
-4.72038e-12
-5.47315e-11
-9.24636e-16
-5.54419e-11
4.71817e-12
-5.54319e-11
9.36361e-12
-5.47214e-11
1.38617e-11
-5.32232e-11
1.81348e-11
-5.09992e-11
2.21064e-11
-4.80446e-11
2.56864e-11
-4.41558e-11
2.87903e-11
-3.94989e-11
3.13099e-11
-3.38638e-11
3.31438e-11
-2.7229e-11
3.41455e-11
-1.93145e-11
3.41882e-11
-1.03497e-11
3.30444e-11
6.42037e-13
3.05329e-11
1.30602e-11
2.62556e-11
2.87177e-11
1.99035e-11
4.68476e-11
1.06766e-11
7.1459e-11
-2.0544e-12
1.00821e-10
-2.01184e-11
1.45203e-10
-4.50737e-11
2.01731e-10
-8.17432e-11
2.9832e-10
-1.34748e-10
4.33253e-10
-2.19352e-10
7.00124e-10
-3.51836e-10
1.11611e-09
-5.93357e-10
2.11159e-09
-1.00908e-09
3.85879e-09
-1.89992e-09
9.50001e-09
-3.36737e-09
1.97817e-08
-4.87874e-09
7.18279e-08
-4.38694e-09
5.09978e-08
-1.60797e-07
3.70828e-09
-1.64506e-07
4.54073e-09
5.01653e-08
3.41019e-09
7.29584e-08
1.97985e-09
2.12121e-08
1.07408e-09
1.04058e-08
6.38615e-10
4.29425e-09
3.82424e-10
2.36778e-09
2.40541e-10
1.25802e-09
1.49549e-10
7.91106e-10
9.23294e-11
4.90468e-10
5.26885e-11
3.37994e-10
2.56583e-11
2.28748e-10
6.07104e-12
1.6477e-10
-7.77263e-12
1.14692e-10
-1.78414e-11
8.15266e-11
-2.48241e-11
5.3834e-11
-2.95832e-11
3.35167e-11
-3.24551e-11
1.5926e-11
-3.38701e-11
2.0507e-12
-3.40265e-11
-1.01492e-11
-3.31672e-11
-2.01715e-11
-3.14284e-11
-2.89636e-11
-2.89672e-11
-3.62863e-11
-2.58896e-11
-4.25742e-11
-2.23114e-11
-4.77446e-11
-1.83228e-11
-5.20021e-11
-1.40162e-11
-5.53177e-11
-9.47254e-12
-5.78072e-11
-4.77499e-12
-5.94279e-11
-1.0655e-15
-6.021e-11
4.77248e-12
-6.0207e-11
9.46865e-12
-5.94256e-11
1.40106e-11
-5.77645e-11
1.83167e-11
-5.53027e-11
2.23061e-11
-5.20438e-11
2.58847e-11
-4.77305e-11
2.89627e-11
-4.25671e-11
3.14254e-11
-3.63317e-11
3.31654e-11
-2.8965e-11
3.4026e-11
-2.01843e-11
3.3871e-11
-1.02014e-11
3.24564e-11
2.04846e-12
2.95853e-11
1.59256e-11
2.48281e-11
3.34754e-11
1.78474e-11
5.38296e-11
7.78012e-12
8.15304e-11
-6.06349e-12
1.14669e-10
-2.56519e-11
1.64789e-10
-5.26823e-11
2.28762e-10
-9.23225e-11
3.37966e-10
-1.49542e-10
4.90472e-10
-2.40534e-10
7.91119e-10
-3.82417e-10
1.25799e-09
-6.38608e-10
2.36777e-09
-1.07407e-09
4.29426e-09
-1.97984e-09
1.04058e-08
-3.41018e-09
2.12121e-08
-4.54072e-09
7.29584e-08
-3.70828e-09
5.01653e-08
-1.64505e-07
2.99996e-09
-1.67505e-07
4.18208e-09
4.89832e-08
3.43926e-09
7.37012e-08
2.05421e-09
2.25971e-08
1.13865e-09
1.13214e-08
6.8454e-10
4.74836e-09
4.13954e-10
2.63836e-09
2.62569e-10
1.40941e-09
1.65052e-10
8.88625e-10
1.03483e-10
5.52039e-10
6.0764e-11
3.80719e-10
3.15723e-11
2.57944e-10
1.03941e-11
1.85938e-10
-4.6149e-12
1.29688e-10
-1.55656e-11
9.2486e-11
-2.32105e-11
6.14802e-11
-2.84766e-11
3.87865e-11
-3.17311e-11
1.91747e-11
-3.3436e-11
3.74865e-12
-3.38065e-11
-9.786e-12
-3.31025e-11
-2.08769e-11
-3.14705e-11
-3.05921e-11
-2.90775e-11
-3.86853e-11
-2.60364e-11
-4.56262e-11
-2.24694e-11
-5.13151e-11
-1.84718e-11
-5.59986e-11
-1.41409e-11
-5.96494e-11
-9.56186e-12
-6.23886e-11
-4.82162e-12
-6.41761e-11
-1.23156e-15
-6.50378e-11
4.81879e-12
-6.50332e-11
9.55766e-12
-6.41609e-11
1.41352e-11
-6.23397e-11
1.84657e-11
-5.9634e-11
2.24639e-11
-5.6034e-11
2.60313e-11
-5.1304e-11
2.9073e-11
-4.56188e-11
3.14674e-11
-3.87258e-11
3.31007e-11
-3.0599e-11
3.3806e-11
-2.08834e-11
3.34368e-11
-9.82853e-12
3.17324e-11
3.7596e-12
2.84788e-11
1.91748e-11
2.32146e-11
3.87405e-11
1.55717e-11
6.14679e-11
4.62254e-12
9.24758e-11
-1.03864e-11
1.29677e-10
-3.15656e-11