/*--------------------------------*- C++ -*----------------------------------*\
| =========                 |                                                 |
| \\      /  F ield         | foam-extend: Open Source CFD                    |
|  \\    /   O peration     | Version:     4.0                                |
|   \\  /    A nd           | Web:         http://www.foam-extend.org         |
|    \\/     M anipulation  |                                                 |
\*---------------------------------------------------------------------------*/
FoamFile
{
    version     2.0;
    format      ascii;
    class       volScalarField;
    location    "720";
    object      cMinus;
}
// * * * * * * * * * * * * * * * * * * * * * * * * * * * * * * * * * * * * * //

dimensions      [0 0 0 0 0 0 0];

internalField   nonuniform List<scalar> 
6960
(
8.56182e-21
8.45071e-21
8.47361e-21
8.49487e-21
8.51177e-21
8.52461e-21
8.5339e-21
8.54021e-21
8.54409e-21
8.54603e-21
8.54645e-21
8.54572e-21
8.54416e-21
8.54199e-21
8.53943e-21
8.53663e-21
8.53372e-21
8.53079e-21
8.52793e-21
8.5252e-21
8.52262e-21
8.52025e-21
8.5181e-21
8.5162e-21
8.51455e-21
8.51317e-21
8.51206e-21
8.51122e-21
8.51066e-21
8.51038e-21
8.51038e-21
8.51066e-21
8.51122e-21
8.51206e-21
8.51317e-21
8.51455e-21
8.5162e-21
8.5181e-21
8.52025e-21
8.52262e-21
8.5252e-21
8.52793e-21
8.53079e-21
8.53372e-21
8.53663e-21
8.53943e-21
8.54199e-21
8.54416e-21
8.54572e-21
8.54645e-21
8.54603e-21
8.54409e-21
8.54021e-21
8.5339e-21
8.52461e-21
8.51177e-21
8.49487e-21
8.47361e-21
8.45071e-21
8.56182e-21
1.39183e-20
1.37422e-20
1.37796e-20
1.38141e-20
1.38416e-20
1.38625e-20
1.38777e-20
1.3888e-20
1.38944e-20
1.38977e-20
1.38984e-20
1.38974e-20
1.38949e-20
1.38915e-20
1.38874e-20
1.38829e-20
1.38783e-20
1.38736e-20
1.38691e-20
1.38647e-20
1.38606e-20
1.38568e-20
1.38533e-20
1.38503e-20
1.38476e-20
1.38454e-20
1.38436e-20
1.38423e-20
1.38414e-20
1.38409e-20
1.38409e-20
1.38414e-20
1.38423e-20
1.38436e-20
1.38454e-20
1.38476e-20
1.38503e-20
1.38533e-20
1.38568e-20
1.38606e-20
1.38647e-20
1.38691e-20
1.38736e-20
1.38783e-20
1.38829e-20
1.38874e-20
1.38915e-20
1.38949e-20
1.38974e-20
1.38984e-20
1.38977e-20
1.38944e-20
1.3888e-20
1.38777e-20
1.38625e-20
1.38416e-20
1.38141e-20
1.37796e-20
1.37422e-20
1.39183e-20
3.53163e-20
3.48792e-20
3.49738e-20
3.5061e-20
3.51304e-20
3.51832e-20
3.52214e-20
3.52475e-20
3.52636e-20
3.52717e-20
3.52736e-20
3.52709e-20
3.52646e-20
3.52559e-20
3.52456e-20
3.52343e-20
3.52226e-20
3.52107e-20
3.51991e-20
3.51881e-20
3.51776e-20
3.5168e-20
3.51593e-20
3.51516e-20
3.51449e-20
3.51393e-20
3.51348e-20
3.51314e-20
3.51291e-20
3.5128e-20
3.5128e-20
3.51291e-20
3.51314e-20
3.51348e-20
3.51393e-20
3.51449e-20
3.51516e-20
3.51593e-20
3.5168e-20
3.51776e-20
3.51881e-20
3.51991e-20
3.52107e-20
3.52226e-20
3.52343e-20
3.52456e-20
3.52559e-20
3.52646e-20
3.52709e-20
3.52736e-20
3.52717e-20
3.52636e-20
3.52475e-20
3.52214e-20
3.51832e-20
3.51304e-20
3.5061e-20
3.49738e-20
3.48792e-20
3.53163e-20
9.51632e-20
9.40085e-20
9.42631e-20
9.44971e-20
9.46834e-20
9.48249e-20
9.49275e-20
9.49973e-20
9.50403e-20
9.50619e-20
9.5067e-20
9.50594e-20
9.50424e-20
9.5019e-20
9.49911e-20
9.49607e-20
9.49289e-20
9.48971e-20
9.48659e-20
9.4836e-20
9.48079e-20
9.4782e-20
9.47586e-20
9.47378e-20
9.47198e-20
9.47047e-20
9.46925e-20
9.46834e-20
9.46773e-20
9.46742e-20
9.46742e-20
9.46773e-20
9.46834e-20
9.46925e-20
9.47047e-20
9.47198e-20
9.47378e-20
9.47586e-20
9.4782e-20
9.48079e-20
9.4836e-20
9.48659e-20
9.48971e-20
9.49289e-20
9.49607e-20
9.49911e-20
9.5019e-20
9.50424e-20
9.50594e-20
9.5067e-20
9.50619e-20
9.50403e-20
9.49973e-20
9.49275e-20
9.48249e-20
9.46834e-20
9.44971e-20
9.42631e-20
9.40085e-20
9.51632e-20
2.56773e-19
2.53724e-19
2.54411e-19
2.5504e-19
2.55541e-19
2.55922e-19
2.56197e-19
2.56385e-19
2.565e-19
2.56558e-19
2.56572e-19
2.56551e-19
2.56505e-19
2.56442e-19
2.56367e-19
2.56285e-19
2.56199e-19
2.56113e-19
2.56029e-19
2.55949e-19
2.55873e-19
2.55803e-19
2.5574e-19
2.55684e-19
2.55636e-19
2.55595e-19
2.55562e-19
2.55538e-19
2.55521e-19
2.55513e-19
2.55513e-19
2.55521e-19
2.55538e-19
2.55562e-19
2.55595e-19
2.55636e-19
2.55684e-19
2.5574e-19
2.55803e-19
2.55873e-19
2.55949e-19
2.56029e-19
2.56113e-19
2.56199e-19
2.56285e-19
2.56367e-19
2.56442e-19
2.56505e-19
2.56551e-19
2.56572e-19
2.56558e-19
2.565e-19
2.56385e-19
2.56197e-19
2.55922e-19
2.55541e-19
2.5504e-19
2.54411e-19
2.53724e-19
2.56773e-19
6.92002e-19
6.83987e-19
6.85837e-19
6.87528e-19
6.88872e-19
6.89895e-19
6.90635e-19
6.91139e-19
6.91449e-19
6.91605e-19
6.91641e-19
6.91585e-19
6.91462e-19
6.91292e-19
6.9109e-19
6.9087e-19
6.9064e-19
6.90409e-19
6.90183e-19
6.89967e-19
6.89764e-19
6.89576e-19
6.89406e-19
6.89256e-19
6.89126e-19
6.89016e-19
6.88928e-19
6.88862e-19
6.88818e-19
6.88796e-19
6.88796e-19
6.88818e-19
6.88862e-19
6.88928e-19
6.89016e-19
6.89126e-19
6.89256e-19
6.89406e-19
6.89576e-19
6.89764e-19
6.89967e-19
6.90183e-19
6.90409e-19
6.9064e-19
6.9087e-19
6.9109e-19
6.91292e-19
6.91462e-19
6.91585e-19
6.91641e-19
6.91605e-19
6.91449e-19
6.91139e-19
6.90635e-19
6.89895e-19
6.88872e-19
6.87528e-19
6.85837e-19
6.83987e-19
6.92002e-19
1.86653e-18
1.84553e-18
1.85051e-18
1.85506e-18
1.85867e-18
1.86142e-18
1.86341e-18
1.86476e-18
1.8656e-18
1.86602e-18
1.86612e-18
1.86597e-18
1.86564e-18
1.86518e-18
1.86464e-18
1.86405e-18
1.86343e-18
1.86281e-18
1.86221e-18
1.86163e-18
1.86108e-18
1.86058e-18
1.86012e-18
1.85972e-18
1.85937e-18
1.85908e-18
1.85884e-18
1.85866e-18
1.85855e-18
1.85849e-18
1.85849e-18
1.85855e-18
1.85866e-18
1.85884e-18
1.85908e-18
1.85937e-18
1.85972e-18
1.86012e-18
1.86058e-18
1.86108e-18
1.86163e-18
1.86221e-18
1.86281e-18
1.86343e-18
1.86405e-18
1.86464e-18
1.86518e-18
1.86564e-18
1.86597e-18
1.86612e-18
1.86602e-18
1.8656e-18
1.86476e-18
1.86341e-18
1.86142e-18
1.85867e-18
1.85506e-18
1.85051e-18
1.84553e-18
1.86653e-18
5.04791e-18
4.99301e-18
5.00647e-18
5.0187e-18
5.02843e-18
5.03583e-18
5.04119e-18
5.04484e-18
5.0471e-18
5.04824e-18
5.04851e-18
5.04812e-18
5.04725e-18
5.04603e-18
5.04458e-18
5.043e-18
5.04135e-18
5.03969e-18
5.03807e-18
5.03651e-18
5.03505e-18
5.0337e-18
5.03248e-18
5.03139e-18
5.03046e-18
5.02967e-18
5.02904e-18
5.02856e-18
5.02824e-18
5.02808e-18
5.02808e-18
5.02824e-18
5.02856e-18
5.02904e-18
5.02967e-18
5.03046e-18
5.03139e-18
5.03248e-18
5.0337e-18
5.03505e-18
5.03651e-18
5.03807e-18
5.03969e-18
5.04135e-18
5.043e-18
5.04458e-18
5.04603e-18
5.04725e-18
5.04812e-18
5.04851e-18
5.04824e-18
5.0471e-18
5.04484e-18
5.04119e-18
5.03583e-18
5.02843e-18
5.0187e-18
5.00647e-18
4.99301e-18
5.04791e-18
1.37132e-17
1.35702e-17
1.36066e-17
1.36397e-17
1.36659e-17
1.36859e-17
1.37005e-17
1.37104e-17
1.37165e-17
1.37196e-17
1.37204e-17
1.37194e-17
1.37171e-17
1.37138e-17
1.371e-17
1.37057e-17
1.37013e-17
1.36969e-17
1.36925e-17
1.36884e-17
1.36844e-17
1.36808e-17
1.36776e-17
1.36746e-17
1.36721e-17
1.367e-17
1.36683e-17
1.36671e-17
1.36662e-17
1.36658e-17
1.36658e-17
1.36662e-17
1.36671e-17
1.36683e-17
1.367e-17
1.36721e-17
1.36746e-17
1.36776e-17
1.36808e-17
1.36844e-17
1.36884e-17
1.36925e-17
1.36969e-17
1.37013e-17
1.37057e-17
1.371e-17
1.37138e-17
1.37171e-17
1.37194e-17
1.37204e-17
1.37196e-17
1.37165e-17
1.37104e-17
1.37005e-17
1.36859e-17
1.36659e-17
1.36397e-17
1.36066e-17
1.35702e-17
1.37132e-17
3.75162e-17
3.71449e-17
3.72442e-17
3.73338e-17
3.74052e-17
3.74596e-17
3.74991e-17
3.75262e-17
3.7543e-17
3.75517e-17
3.75541e-17
3.75516e-17
3.75455e-17
3.75369e-17
3.75267e-17
3.75154e-17
3.75036e-17
3.74917e-17
3.74801e-17
3.74689e-17
3.74584e-17
3.74487e-17
3.74399e-17
3.74322e-17
3.74254e-17
3.74198e-17
3.74152e-17
3.74118e-17
3.74095e-17
3.74083e-17
3.74083e-17
3.74095e-17
3.74118e-17
3.74152e-17
3.74198e-17
3.74254e-17
3.74322e-17
3.74399e-17
3.74487e-17
3.74584e-17
3.74689e-17
3.74801e-17
3.74917e-17
3.75036e-17
3.75154e-17
3.75267e-17
3.75369e-17
3.75455e-17
3.75516e-17
3.75541e-17
3.75517e-17
3.7543e-17
3.75262e-17
3.74991e-17
3.74596e-17
3.74052e-17
3.73338e-17
3.72442e-17
3.71449e-17
3.75162e-17
1.03756e-16
1.02797e-16
1.0307e-16
1.03315e-16
1.03511e-16
1.0366e-16
1.03769e-16
1.03844e-16
1.03891e-16
1.03916e-16
1.03924e-16
1.03918e-16
1.03902e-16
1.0388e-16
1.03853e-16
1.03823e-16
1.03791e-16
1.0376e-16
1.03729e-16
1.03699e-16
1.03671e-16
1.03645e-16
1.03621e-16
1.036e-16
1.03582e-16
1.03567e-16
1.03555e-16
1.03546e-16
1.0354e-16
1.03537e-16
1.03537e-16
1.0354e-16
1.03546e-16
1.03555e-16
1.03567e-16
1.03582e-16
1.036e-16
1.03621e-16
1.03645e-16
1.03671e-16
1.03699e-16
1.03729e-16
1.0376e-16
1.03791e-16
1.03823e-16
1.03853e-16
1.0388e-16
1.03902e-16
1.03918e-16
1.03924e-16
1.03916e-16
1.03891e-16
1.03844e-16
1.03769e-16
1.0366e-16
1.03511e-16
1.03315e-16
1.0307e-16
1.02797e-16
1.03756e-16
2.9179e-16
2.89337e-16
2.90098e-16
2.9078e-16
2.91325e-16
2.91742e-16
2.92048e-16
2.9226e-16
2.92395e-16
2.92469e-16
2.92495e-16
2.92484e-16
2.92445e-16
2.92388e-16
2.92317e-16
2.92238e-16
2.92155e-16
2.92071e-16
2.91988e-16
2.91908e-16
2.91834e-16
2.91764e-16
2.91701e-16
2.91646e-16
2.91597e-16
2.91557e-16
2.91524e-16
2.91499e-16
2.91483e-16
2.91475e-16
2.91475e-16
2.91483e-16
2.91499e-16
2.91524e-16
2.91557e-16
2.91597e-16
2.91646e-16
2.91701e-16
2.91764e-16
2.91834e-16
2.91908e-16
2.91988e-16
2.92071e-16
2.92155e-16
2.92238e-16
2.92317e-16
2.92388e-16
2.92445e-16
2.92484e-16
2.92495e-16
2.92469e-16
2.92395e-16
2.9226e-16
2.92048e-16
2.91742e-16
2.91325e-16
2.9078e-16
2.90098e-16
2.89337e-16
2.9179e-16
8.41793e-16
8.35602e-16
8.37779e-16
8.39721e-16
8.41279e-16
8.42478e-16
8.43365e-16
8.43988e-16
8.44393e-16
8.44625e-16
8.44721e-16
8.44712e-16
8.44626e-16
8.44484e-16
8.44304e-16
8.441e-16
8.43883e-16
8.43661e-16
8.43443e-16
8.43231e-16
8.43032e-16
8.42847e-16
8.4268e-16
8.42531e-16
8.42401e-16
8.42293e-16
8.42205e-16
8.42139e-16
8.42095e-16
8.42073e-16
8.42073e-16
8.42095e-16
8.42139e-16
8.42205e-16
8.42293e-16
8.42401e-16
8.42531e-16
8.4268e-16
8.42847e-16
8.43032e-16
8.43231e-16
8.43443e-16
8.43661e-16
8.43883e-16
8.441e-16
8.44304e-16
8.44484e-16
8.44626e-16
8.44712e-16
8.44721e-16
8.44625e-16
8.44393e-16
8.43988e-16
8.43365e-16
8.42478e-16
8.41279e-16
8.39721e-16
8.37779e-16
8.35602e-16
8.41793e-16
2.52203e-15
2.50681e-15
2.51329e-15
2.51905e-15
2.52369e-15
2.5273e-15
2.53e-15
2.53193e-15
2.53323e-15
2.53402e-15
2.53441e-15
2.53449e-15
2.53434e-15
2.53402e-15
2.53358e-15
2.53307e-15
2.53252e-15
2.53195e-15
2.53137e-15
2.53082e-15
2.53029e-15
2.52981e-15
2.52936e-15
2.52896e-15
2.52862e-15
2.52833e-15
2.5281e-15
2.52792e-15
2.5278e-15
2.52775e-15
2.52775e-15
2.5278e-15
2.52792e-15
2.5281e-15
2.52833e-15
2.52862e-15
2.52896e-15
2.52936e-15
2.52981e-15
2.53029e-15
2.53082e-15
2.53137e-15
2.53195e-15
2.53252e-15
2.53307e-15
2.53358e-15
2.53402e-15
2.53434e-15
2.53449e-15
2.53441e-15
2.53402e-15
2.53323e-15
2.53193e-15
2.53e-15
2.5273e-15
2.52369e-15
2.51905e-15
2.51329e-15
2.50681e-15
2.52203e-15
7.96812e-15
7.93265e-15
7.95313e-15
7.97127e-15
7.98603e-15
7.99764e-15
8.00646e-15
8.01293e-15
8.01745e-15
8.02039e-15
8.02209e-15
8.02282e-15
8.02281e-15
8.02227e-15
8.02135e-15
8.02016e-15
8.01882e-15
8.01739e-15
8.01595e-15
8.01452e-15
8.01316e-15
8.01189e-15
8.01072e-15
8.00968e-15
8.00877e-15
8.008e-15
8.00738e-15
8.00691e-15
8.0066e-15
8.00645e-15
8.00645e-15
8.0066e-15
8.00691e-15
8.00738e-15
8.008e-15
8.00877e-15
8.00968e-15
8.01072e-15
8.01189e-15
8.01316e-15
8.01452e-15
8.01595e-15
8.01739e-15
8.01882e-15
8.02016e-15
8.02135e-15
8.02227e-15
8.02281e-15
8.02282e-15
8.02209e-15
8.02039e-15
8.01745e-15
8.01293e-15
8.00646e-15
7.99764e-15
7.98603e-15
7.97127e-15
7.95313e-15
7.93265e-15
7.96812e-15
2.69654e-14
2.68925e-14
2.69628e-14
2.7025e-14
2.70761e-14
2.71169e-14
2.71485e-14
2.71724e-14
2.71897e-14
2.72017e-14
2.72096e-14
2.72141e-14
2.72161e-14
2.72163e-14
2.7215e-14
2.72128e-14
2.72099e-14
2.72066e-14
2.72032e-14
2.71997e-14
2.71963e-14
2.71931e-14
2.71901e-14
2.71874e-14
2.7185e-14
2.7183e-14
2.71814e-14
2.71802e-14
2.71794e-14
2.71789e-14
2.71789e-14
2.71794e-14
2.71802e-14
2.71814e-14
2.7183e-14
2.7185e-14
2.71874e-14
2.71901e-14
2.71931e-14
2.71963e-14
2.71997e-14
2.72032e-14
2.72066e-14
2.72099e-14
2.72128e-14
2.7215e-14
2.72163e-14
2.72161e-14
2.72141e-14
2.72096e-14
2.72017e-14
2.71897e-14
2.71724e-14
2.71485e-14
2.71169e-14
2.70761e-14
2.7025e-14
2.69628e-14
2.68925e-14
2.69654e-14
9.88139e-14
9.87187e-14
9.89845e-14
9.92198e-14
9.94158e-14
9.95743e-14
9.96996e-14
9.97964e-14
9.98693e-14
9.99228e-14
9.99606e-14
9.9986e-14
1.00002e-13
1.0001e-13
1.00013e-13
1.00012e-13
1.00008e-13
1.00002e-13
9.99953e-14
9.99876e-14
9.99798e-14
9.99721e-14
9.99648e-14
9.99582e-14
9.99523e-14
9.99472e-14
9.99431e-14
9.994e-14
9.99378e-14
9.99368e-14
9.99368e-14
9.99378e-14
9.994e-14
9.99431e-14
9.99472e-14
9.99523e-14
9.99582e-14
9.99648e-14
9.99721e-14
9.99798e-14
9.99876e-14
9.99953e-14
1.00002e-13
1.00008e-13
1.00012e-13
1.00013e-13
1.0001e-13
1.00002e-13
9.9986e-14
9.99606e-14
9.99228e-14
9.98693e-14
9.97964e-14
9.96996e-14
9.95743e-14
9.94158e-14
9.92198e-14
9.89845e-14
9.87187e-14
9.88139e-14
3.92603e-13
3.9282e-13
3.93929e-13
3.94913e-13
3.9574e-13
3.96418e-13
3.96962e-13
3.97391e-13
3.97723e-13
3.97976e-13
3.98164e-13
3.983e-13
3.98396e-13
3.98461e-13
3.98501e-13
3.98523e-13
3.98532e-13
3.98532e-13
3.98525e-13
3.98513e-13
3.98499e-13
3.98484e-13
3.98468e-13
3.98453e-13
3.9844e-13
3.98428e-13
3.98418e-13
3.9841e-13
3.98405e-13
3.98403e-13
3.98403e-13
3.98405e-13
3.9841e-13
3.98418e-13
3.98428e-13
3.9844e-13
3.98453e-13
3.98468e-13
3.98484e-13
3.98499e-13
3.98513e-13
3.98525e-13
3.98532e-13
3.98532e-13
3.98523e-13
3.98501e-13
3.98461e-13
3.98396e-13
3.983e-13
3.98164e-13
3.97976e-13
3.97723e-13
3.97391e-13
3.96962e-13
3.96418e-13
3.9574e-13
3.94913e-13
3.93929e-13
3.9282e-13
3.92603e-13
1.67607e-12
1.67897e-12
1.684e-12
1.68846e-12
1.69225e-12
1.69538e-12
1.69791e-12
1.69994e-12
1.70154e-12
1.70279e-12
1.70374e-12
1.70446e-12
1.705e-12
1.70539e-12
1.70567e-12
1.70586e-12
1.70599e-12
1.70606e-12
1.70611e-12
1.70612e-12
1.70612e-12
1.70611e-12
1.70609e-12
1.70606e-12
1.70604e-12
1.70602e-12
1.706e-12
1.70598e-12
1.70597e-12
1.70596e-12
1.70596e-12
1.70597e-12
1.70598e-12
1.706e-12
1.70602e-12
1.70604e-12
1.70606e-12
1.70609e-12
1.70611e-12
1.70612e-12
1.70612e-12
1.70611e-12
1.70606e-12
1.70599e-12
1.70586e-12
1.70567e-12
1.70539e-12
1.705e-12
1.70446e-12
1.70374e-12
1.70279e-12
1.70154e-12
1.69994e-12
1.69791e-12
1.69538e-12
1.69225e-12
1.68846e-12
1.684e-12
1.67897e-12
1.67607e-12
7.57021e-12
7.58971e-12
7.61383e-12
7.63532e-12
7.65364e-12
7.66886e-12
7.6813e-12
7.69132e-12
7.69931e-12
7.70559e-12
7.7105e-12
7.71428e-12
7.71718e-12
7.71936e-12
7.721e-12
7.72221e-12
7.72309e-12
7.72372e-12
7.72415e-12
7.72445e-12
7.72463e-12
7.72475e-12
7.7248e-12
7.72483e-12
7.72483e-12
7.72481e-12
7.7248e-12
7.72478e-12
7.72476e-12
7.72476e-12
7.72476e-12
7.72476e-12
7.72478e-12
7.7248e-12
7.72481e-12
7.72483e-12
7.72483e-12
7.7248e-12
7.72475e-12
7.72463e-12
7.72445e-12
7.72415e-12
7.72372e-12
7.72309e-12
7.72221e-12
7.721e-12
7.71936e-12
7.71718e-12
7.71428e-12
7.7105e-12
7.70559e-12
7.69931e-12
7.69132e-12
7.6813e-12
7.66886e-12
7.65364e-12
7.63532e-12
7.61383e-12
7.58971e-12
7.57021e-12
3.55681e-11
3.568e-11
3.58001e-11
3.59073e-11
3.5999e-11
3.60754e-11
3.61381e-11
3.61889e-11
3.62295e-11
3.62618e-11
3.62872e-11
3.6307e-11
3.63224e-11
3.63342e-11
3.63432e-11
3.63501e-11
3.63553e-11
3.63591e-11
3.6362e-11
3.63641e-11
3.63656e-11
3.63667e-11
3.63675e-11
3.6368e-11
3.63683e-11
3.63685e-11
3.63687e-11
3.63688e-11
3.63688e-11
3.63688e-11
3.63688e-11
3.63688e-11
3.63688e-11
3.63687e-11
3.63685e-11
3.63683e-11
3.6368e-11
3.63675e-11
3.63667e-11
3.63656e-11
3.63641e-11
3.6362e-11
3.63591e-11
3.63553e-11
3.63501e-11
3.63432e-11
3.63342e-11
3.63224e-11
3.6307e-11
3.62872e-11
3.62618e-11
3.62295e-11
3.61889e-11
3.61381e-11
3.60754e-11
3.5999e-11
3.59073e-11
3.58001e-11
3.568e-11
3.55681e-11
1.71204e-10
1.71809e-10
1.72418e-10
1.72962e-10
1.73428e-10
1.73818e-10
1.74138e-10
1.74398e-10
1.74606e-10
1.74773e-10
1.74904e-10
1.75007e-10
1.75088e-10
1.75151e-10
1.75199e-10
1.75236e-10
1.75265e-10
1.75287e-10
1.75303e-10
1.75316e-10
1.75325e-10
1.75332e-10
1.75337e-10
1.75341e-10
1.75344e-10
1.75346e-10
1.75347e-10
1.75348e-10
1.75348e-10
1.75349e-10
1.75349e-10
1.75348e-10
1.75348e-10
1.75347e-10
1.75346e-10
1.75344e-10
1.75341e-10
1.75337e-10
1.75332e-10
1.75325e-10
1.75316e-10
1.75303e-10
1.75287e-10
1.75265e-10
1.75236e-10
1.75199e-10
1.75151e-10
1.75088e-10
1.75007e-10
1.74904e-10
1.74773e-10
1.74606e-10
1.74398e-10
1.74138e-10
1.73818e-10
1.73428e-10
1.72962e-10
1.72418e-10
1.71809e-10
1.71204e-10
8.33402e-10
8.36565e-10
8.39663e-10
8.42437e-10
8.44814e-10
8.46801e-10
8.48436e-10
8.49766e-10
8.50836e-10
8.5169e-10
8.52367e-10
8.529e-10
8.53318e-10
8.53644e-10
8.53897e-10
8.54094e-10
8.54246e-10
8.54363e-10
8.54453e-10
8.54521e-10
8.54574e-10
8.54613e-10
8.54643e-10
8.54666e-10
8.54683e-10
8.54695e-10
8.54703e-10
8.54709e-10
8.54713e-10
8.54715e-10
8.54715e-10
8.54713e-10
8.54709e-10
8.54703e-10
8.54695e-10
8.54683e-10
8.54666e-10
8.54643e-10
8.54613e-10
8.54574e-10
8.54521e-10
8.54453e-10
8.54363e-10
8.54246e-10
8.54094e-10
8.53897e-10
8.53644e-10
8.53318e-10
8.529e-10
8.52367e-10
8.5169e-10
8.50836e-10
8.49766e-10
8.48436e-10
8.46801e-10
8.44814e-10
8.42437e-10
8.39663e-10
8.36565e-10
8.33402e-10
4.0573e-09
4.07346e-09
4.08911e-09
4.10313e-09
4.11514e-09
4.12519e-09
4.13346e-09
4.14019e-09
4.14561e-09
4.14995e-09
4.15338e-09
4.1561e-09
4.15823e-09
4.1599e-09
4.1612e-09
4.16221e-09
4.16299e-09
4.1636e-09
4.16407e-09
4.16443e-09
4.16471e-09
4.16492e-09
4.16508e-09
4.1652e-09
4.1653e-09
4.16536e-09
4.16541e-09
4.16545e-09
4.16547e-09
4.16548e-09
4.16548e-09
4.16547e-09
4.16545e-09
4.16541e-09
4.16536e-09
4.1653e-09
4.1652e-09
4.16508e-09
4.16492e-09
4.16471e-09
4.16443e-09
4.16407e-09
4.1636e-09
4.16299e-09
4.16221e-09
4.1612e-09
4.1599e-09
4.15823e-09
4.1561e-09
4.15338e-09
4.14995e-09
4.14561e-09
4.14019e-09
4.13346e-09
4.12519e-09
4.11514e-09
4.10313e-09
4.08911e-09
4.07346e-09
4.0573e-09
1.95531e-08
1.96336e-08
1.97112e-08
1.97807e-08
1.98403e-08
1.98901e-08
1.99312e-08
1.99646e-08
1.99915e-08
2.0013e-08
2.00301e-08
2.00436e-08
2.00542e-08
2.00626e-08
2.00691e-08
2.00741e-08
2.00781e-08
2.00811e-08
2.00835e-08
2.00853e-08
2.00867e-08
2.00878e-08
2.00887e-08
2.00893e-08
2.00898e-08
2.00901e-08
2.00904e-08
2.00906e-08
2.00907e-08
2.00907e-08
2.00907e-08
2.00907e-08
2.00906e-08
2.00904e-08
2.00901e-08
2.00898e-08
2.00893e-08
2.00887e-08
2.00878e-08
2.00867e-08
2.00853e-08
2.00835e-08
2.00811e-08
2.00781e-08
2.00741e-08
2.00691e-08
2.00626e-08
2.00542e-08
2.00436e-08
2.00301e-08
2.0013e-08
1.99915e-08
1.99646e-08
1.99312e-08
1.98901e-08
1.98403e-08
1.97807e-08
1.97112e-08
1.96336e-08
1.95531e-08
9.23458e-08
9.2734e-08
9.31081e-08
9.3443e-08
9.37299e-08
9.39699e-08
9.41676e-08
9.43285e-08
9.44582e-08
9.45619e-08
9.46443e-08
9.47094e-08
9.47607e-08
9.48008e-08
9.48323e-08
9.48568e-08
9.48759e-08
9.48908e-08
9.49023e-08
9.49112e-08
9.49181e-08
9.49235e-08
9.49276e-08
9.49307e-08
9.49331e-08
9.49348e-08
9.49361e-08
9.4937e-08
9.49376e-08
9.49379e-08
9.49379e-08
9.49376e-08
9.4937e-08
9.49361e-08
9.49348e-08
9.49331e-08
9.49307e-08
9.49276e-08
9.49235e-08
9.49181e-08
9.49112e-08
9.49023e-08
9.48908e-08
9.48759e-08
9.48568e-08
9.48323e-08
9.48008e-08
9.47607e-08
9.47094e-08
9.46443e-08
9.45619e-08
9.44582e-08
9.43285e-08
9.41676e-08
9.39699e-08
9.37299e-08
9.3443e-08
9.31081e-08
9.2734e-08
9.23458e-08
4.22978e-07
4.24777e-07
4.2651e-07
4.28059e-07
4.29386e-07
4.30496e-07
4.3141e-07
4.32155e-07
4.32754e-07
4.33234e-07
4.33615e-07
4.33917e-07
4.34154e-07
4.3434e-07
4.34486e-07
4.346e-07
4.34689e-07
4.34758e-07
4.34811e-07
4.34853e-07
4.34885e-07
4.3491e-07
4.34929e-07
4.34944e-07
4.34955e-07
4.34964e-07
4.3497e-07
4.34974e-07
4.34977e-07
4.34978e-07
4.34978e-07
4.34977e-07
4.34974e-07
4.3497e-07
4.34964e-07
4.34955e-07
4.34944e-07
4.34929e-07
4.3491e-07
4.34885e-07
4.34853e-07
4.34811e-07
4.34758e-07
4.34689e-07
4.346e-07
4.34486e-07
4.3434e-07
4.34154e-07
4.33917e-07
4.33615e-07
4.33234e-07
4.32754e-07
4.32155e-07
4.3141e-07
4.30496e-07
4.29386e-07
4.28059e-07
4.2651e-07
4.24777e-07
4.22978e-07
1.85825e-06
1.86618e-06
1.87379e-06
1.8806e-06
1.88642e-06
1.8913e-06
1.89531e-06
1.89857e-06
1.90121e-06
1.90331e-06
1.90498e-06
1.90631e-06
1.90735e-06
1.90817e-06
1.90881e-06
1.90931e-06
1.9097e-06
1.91e-06
1.91024e-06
1.91043e-06
1.91057e-06
1.91068e-06
1.91076e-06
1.91083e-06
1.91088e-06
1.91092e-06
1.91094e-06
1.91096e-06
1.91097e-06
1.91098e-06
1.91098e-06
1.91097e-06
1.91096e-06
1.91094e-06
1.91092e-06
1.91088e-06
1.91083e-06
1.91076e-06
1.91068e-06
1.91057e-06
1.91043e-06
1.91024e-06
1.91e-06
1.9097e-06
1.90931e-06
1.90881e-06
1.90817e-06
1.90735e-06
1.90631e-06
1.90498e-06
1.90331e-06
1.90121e-06
1.89857e-06
1.89531e-06
1.8913e-06
1.88642e-06
1.8806e-06
1.87379e-06
1.86618e-06
1.85825e-06
7.73727e-06
7.76998e-06
7.80136e-06
7.82936e-06
7.85331e-06
7.87334e-06
7.88983e-06
7.90325e-06
7.91406e-06
7.92272e-06
7.9296e-06
7.93504e-06
7.93932e-06
7.94269e-06
7.94532e-06
7.94738e-06
7.94899e-06
7.95025e-06
7.95122e-06
7.95198e-06
7.95257e-06
7.95303e-06
7.95338e-06
7.95365e-06
7.95386e-06
7.95401e-06
7.95412e-06
7.9542e-06
7.95425e-06
7.95428e-06
7.95428e-06
7.95425e-06
7.9542e-06
7.95412e-06
7.95401e-06
7.95386e-06
7.95365e-06
7.95338e-06
7.95303e-06
7.95257e-06
7.95198e-06
7.95122e-06
7.95025e-06
7.94899e-06
7.94738e-06
7.94532e-06
7.94269e-06
7.93932e-06
7.93504e-06
7.9296e-06
7.92272e-06
7.91406e-06
7.90325e-06
7.88983e-06
7.87334e-06
7.85331e-06
7.82936e-06
7.80136e-06
7.76998e-06
7.73727e-06
3.01392e-05
3.02641e-05
3.03834e-05
3.04897e-05
3.05806e-05
3.06566e-05
3.07192e-05
3.07701e-05
3.08111e-05
3.08439e-05
3.087e-05
3.08906e-05
3.09069e-05
3.09197e-05
3.09297e-05
3.09375e-05
3.09436e-05
3.09484e-05
3.09521e-05
3.0955e-05
3.09572e-05
3.0959e-05
3.09603e-05
3.09614e-05
3.09621e-05
3.09627e-05
3.09632e-05
3.09635e-05
3.09636e-05
3.09637e-05
3.09637e-05
3.09636e-05
3.09635e-05
3.09632e-05
3.09627e-05
3.09621e-05
3.09614e-05
3.09603e-05
3.0959e-05
3.09572e-05
3.0955e-05
3.09521e-05
3.09484e-05
3.09436e-05
3.09375e-05
3.09297e-05
3.09197e-05
3.09069e-05
3.08906e-05
3.087e-05
3.08439e-05
3.08111e-05
3.07701e-05
3.07192e-05
3.06566e-05
3.05806e-05
3.04897e-05
3.03834e-05
3.02641e-05
3.01392e-05
0.000108298
0.000108731
0.000109143
0.00010951
0.000109823
0.000110085
0.0001103
0.000110475
0.000110616
0.000110729
0.000110819
0.00011089
0.000110946
0.00011099
0.000111025
0.000111052
0.000111073
0.000111089
0.000111102
0.000111112
0.00011112
0.000111126
0.00011113
0.000111134
0.000111137
0.000111139
0.00011114
0.000111141
0.000111142
0.000111142
0.000111142
0.000111142
0.000111141
0.00011114
0.000111139
0.000111137
0.000111134
0.00011113
0.000111126
0.00011112
0.000111112
0.000111102
0.000111089
0.000111073
0.000111052
0.000111025
0.00011099
0.000110946
0.00011089
0.000110819
0.000110729
0.000110616
0.000110475
0.0001103
0.000110085
0.000109823
0.00010951
0.000109143
0.000108731
0.000108298
0.000353554
0.000354895
0.000356165
0.000357291
0.000358253
0.000359056
0.000359716
0.000360254
0.000360687
0.000361034
0.000361309
0.000361527
0.000361699
0.000361834
0.00036194
0.000362023
0.000362088
0.000362139
0.000362178
0.000362209
0.000362233
0.000362251
0.000362266
0.000362277
0.000362285
0.000362291
0.000362296
0.000362299
0.000362301
0.000362302
0.000362302
0.000362301
0.000362299
0.000362296
0.000362291
0.000362285
0.000362277
0.000362266
0.000362251
0.000362233
0.000362209
0.000362178
0.000362139
0.000362088
0.000362023
0.00036194
0.000361834
0.000361699
0.000361527
0.000361309
0.000361034
0.000360687
0.000360254
0.000359716
0.000359056
0.000358253
0.000357291
0.000356165
0.000354895
0.000353554
0.0010322
0.00103583
0.00103924
0.00104227
0.00104484
0.001047
0.00104877
0.00105021
0.00105137
0.0010523
0.00105303
0.00105362
0.00105408
0.00105444
0.00105473
0.00105495
0.00105512
0.00105526
0.00105536
0.00105545
0.00105551
0.00105556
0.0010556
0.00105563
0.00105565
0.00105567
0.00105568
0.00105569
0.0010557
0.0010557
0.0010557
0.0010557
0.00105569
0.00105568
0.00105567
0.00105565
0.00105563
0.0010556
0.00105556
0.00105551
0.00105545
0.00105536
0.00105526
0.00105512
0.00105495
0.00105473
0.00105444
0.00105408
0.00105362
0.00105303
0.0010523
0.00105137
0.00105021
0.00104877
0.001047
0.00104484
0.00104227
0.00103924
0.00103583
0.0010322
0.00265446
0.0026629
0.00267078
0.00267772
0.00268364
0.00268858
0.00269264
0.00269595
0.00269861
0.00270074
0.00270244
0.00270378
0.00270484
0.00270567
0.00270632
0.00270684
0.00270724
0.00270755
0.00270779
0.00270799
0.00270813
0.00270825
0.00270834
0.00270841
0.00270846
0.0027085
0.00270853
0.00270855
0.00270856
0.00270857
0.00270857
0.00270856
0.00270855
0.00270853
0.0027085
0.00270846
0.00270841
0.00270834
0.00270825
0.00270813
0.00270799
0.00270779
0.00270755
0.00270724
0.00270684
0.00270632
0.00270567
0.00270484
0.00270378
0.00270244
0.00270074
0.00269861
0.00269595
0.00269264
0.00268858
0.00268364
0.00267772
0.00267078
0.0026629
0.00265446
0.00594463
0.0059612
0.00597653
0.00599001
0.00600149
0.00601106
0.00601893
0.00602533
0.00603049
0.00603462
0.0060379
0.00604051
0.00604256
0.00604417
0.00604544
0.00604644
0.00604722
0.00604783
0.0060483
0.00604867
0.00604896
0.00604919
0.00604936
0.0060495
0.0060496
0.00604968
0.00604973
0.00604977
0.0060498
0.00604981
0.00604981
0.0060498
0.00604977
0.00604973
0.00604968
0.0060496
0.0060495
0.00604936
0.00604919
0.00604896
0.00604867
0.0060483
0.00604783
0.00604722
0.00604644
0.00604544
0.00604417
0.00604256
0.00604051
0.0060379
0.00603462
0.00603049
0.00602533
0.00601893
0.00601106
0.00600149
0.00599001
0.00597653
0.0059612
0.00594463
0.0115503
0.0115777
0.0116029
0.0116249
0.0116437
0.0116593
0.0116721
0.0116826
0.011691
0.0116977
0.0117031
0.0117074
0.0117107
0.0117134
0.0117154
0.0117171
0.0117183
0.0117193
0.0117201
0.0117207
0.0117212
0.0117216
0.0117219
0.0117221
0.0117223
0.0117224
0.0117225
0.0117225
0.0117226
0.0117226
0.0117226
0.0117226
0.0117225
0.0117225
0.0117224
0.0117223
0.0117221
0.0117219
0.0117216
0.0117212
0.0117207
0.0117201
0.0117193
0.0117183
0.0117171
0.0117154
0.0117134
0.0117107
0.0117074
0.0117031
0.0116977
0.011691
0.0116826
0.0116721
0.0116593
0.0116437
0.0116249
0.0116029
0.0115777
0.0115503
0.0196128
0.0196518
0.0196871
0.019718
0.0197442
0.019766
0.0197839
0.0197985
0.0198103
0.0198197
0.0198272
0.0198332
0.0198379
0.0198416
0.0198445
0.0198468
0.0198486
0.01985
0.0198511
0.019852
0.0198526
0.0198532
0.0198536
0.0198539
0.0198541
0.0198543
0.0198544
0.0198545
0.0198546
0.0198546
0.0198546
0.0198546
0.0198545
0.0198544
0.0198543
0.0198541
0.0198539
0.0198536
0.0198532
0.0198526
0.019852
0.0198511
0.01985
0.0198486
0.0198468
0.0198445
0.0198416
0.0198379
0.0198332
0.0198272
0.0198197
0.0198103
0.0197985
0.0197839
0.019766
0.0197442
0.019718
0.0196871
0.0196518
0.0196128
0.0296328
0.0296818
0.0297257
0.0297639
0.0297963
0.0298233
0.0298455
0.0298636
0.0298782
0.0298899
0.0298992
0.0299066
0.0299125
0.0299171
0.0299207
0.0299235
0.0299258
0.0299275
0.0299289
0.02993
0.0299308
0.0299315
0.029932
0.0299324
0.0299327
0.0299329
0.0299331
0.0299332
0.0299333
0.0299333
0.0299333
0.0299333
0.0299332
0.0299331
0.0299329
0.0299327
0.0299324
0.029932
0.0299315
0.0299308
0.02993
0.0299289
0.0299275
0.0299258
0.0299235
0.0299207
0.0299171
0.0299125
0.0299066
0.0298992
0.0298899
0.0298782
0.0298636
0.0298455
0.0298233
0.0297963
0.0297639
0.0297257
0.0296818
0.0296328
0.0408121
0.040869
0.0409195
0.0409632
0.0410002
0.0410311
0.0410565
0.0410772
0.0410939
0.0411073
0.041118
0.0411265
0.0411332
0.0411385
0.0411427
0.0411459
0.0411485
0.0411506
0.0411521
0.0411534
0.0411544
0.0411551
0.0411557
0.0411562
0.0411565
0.0411568
0.041157
0.0411571
0.0411572
0.0411573
0.0411573
0.0411572
0.0411571
0.041157
0.0411568
0.0411565
0.0411562
0.0411557
0.0411551
0.0411544
0.0411534
0.0411521
0.0411506
0.0411485
0.0411459
0.0411427
0.0411385
0.0411332
0.0411265
0.041118
0.0411073
0.0410939
0.0410772
0.0410565
0.0410311
0.0410002
0.0409632
0.0409195
0.040869
0.0408121
0.0524991
0.0525623
0.0526178
0.0526657
0.0527063
0.0527402
0.052768
0.0527908
0.0528091
0.0528238
0.0528356
0.052845
0.0528524
0.0528582
0.0528629
0.0528665
0.0528694
0.0528716
0.0528734
0.0528748
0.0528758
0.0528767
0.0528774
0.0528779
0.0528783
0.0528786
0.0528788
0.0528789
0.052879
0.0528791
0.0528791
0.052879
0.0528789
0.0528788
0.0528786
0.0528783
0.0528779
0.0528774
0.0528767
0.0528758
0.0528748
0.0528734
0.0528716
0.0528694
0.0528665
0.0528629
0.0528582
0.0528524
0.052845
0.0528356
0.0528238
0.0528091
0.0527908
0.052768
0.0527402
0.0527063
0.0526657
0.0526178
0.0525623
0.0524991
0.064356
0.0644249
0.0644848
0.0645365
0.0645802
0.0646167
0.0646467
0.0646712
0.064691
0.0647069
0.0647197
0.0647298
0.0647379
0.0647442
0.0647492
0.0647532
0.0647563
0.0647588
0.0647607
0.0647622
0.0647634
0.0647644
0.0647651
0.0647657
0.0647661
0.0647664
0.0647667
0.0647668
0.0647669
0.064767
0.064767
0.0647669
0.0647668
0.0647667
0.0647664
0.0647661
0.0647657
0.0647651
0.0647644
0.0647634
0.0647622
0.0647607
0.0647588
0.0647563
0.0647532
0.0647492
0.0647442
0.0647379
0.0647298
0.0647197
0.0647069
0.064691
0.0646712
0.0646467
0.0646167
0.0645802
0.0645365
0.0644848
0.0644249
0.064356
0.0762799
0.0763542
0.0764185
0.0764737
0.0765205
0.0765595
0.0765917
0.0766179
0.0766392
0.0766563
0.07667
0.076681
0.0766896
0.0766965
0.0767019
0.0767062
0.0767096
0.0767123
0.0767144
0.076716
0.0767173
0.0767184
0.0767192
0.0767198
0.0767203
0.0767206
0.0767209
0.0767211
0.0767212
0.0767212
0.0767212
0.0767212
0.0767211
0.0767209
0.0767206
0.0767203
0.0767198
0.0767192
0.0767184
0.0767173
0.076716
0.0767144
0.0767123
0.0767096
0.0767062
0.0767019
0.0766965
0.0766896
0.076681
0.07667
0.0766563
0.0766392
0.0766179
0.0765917
0.0765595
0.0765205
0.0764737
0.0764185
0.0763542
0.0762799
0.0882706
0.0883503
0.088419
0.088478
0.0885279
0.0885695
0.0886039
0.0886319
0.0886547
0.0886731
0.0886878
0.0886995
0.0887089
0.0887163
0.0887221
0.0887268
0.0887304
0.0887333
0.0887356
0.0887374
0.0887388
0.0887399
0.0887408
0.0887415
0.088742