/*--------------------------------*- C++ -*----------------------------------*\
| =========                 |                                                 |
| \\      /  F ield         | foam-extend: Open Source CFD                    |
|  \\    /   O peration     | Version:     4.0                                |
|   \\  /    A nd           | Web:         http://www.foam-extend.org         |
|    \\/     M anipulation  |                                                 |
\*---------------------------------------------------------------------------*/
FoamFile
{
    version     2.0;
    format      ascii;
    class       volScalarField;
    location    "1780";
    object      cMinus;
}
// * * * * * * * * * * * * * * * * * * * * * * * * * * * * * * * * * * * * * //

dimensions      [0 0 0 0 0 0 0];

internalField   nonuniform List<scalar> 
6960
(
1.09378e-23
1.0944e-23
1.09449e-23
1.09447e-23
1.09442e-23
1.09438e-23
1.09433e-23
1.0943e-23
1.09427e-23
1.09424e-23
1.09422e-23
1.09421e-23
1.0942e-23
1.09419e-23
1.09419e-23
1.09419e-23
1.09418e-23
1.09418e-23
1.09419e-23
1.09419e-23
1.09419e-23
1.09419e-23
1.0942e-23
1.0942e-23
1.0942e-23
1.0942e-23
1.0942e-23
1.09421e-23
1.09421e-23
1.09421e-23
1.09421e-23
1.09421e-23
1.09421e-23
1.0942e-23
1.0942e-23
1.0942e-23
1.0942e-23
1.0942e-23
1.09419e-23
1.09419e-23
1.09419e-23
1.09419e-23
1.09418e-23
1.09418e-23
1.09419e-23
1.09419e-23
1.09419e-23
1.0942e-23
1.09421e-23
1.09422e-23
1.09424e-23
1.09427e-23
1.0943e-23
1.09433e-23
1.09438e-23
1.09442e-23
1.09447e-23
1.09449e-23
1.0944e-23
1.09378e-23
4.33131e-23
4.33394e-23
4.3345e-23
4.33464e-23
4.33468e-23
4.33469e-23
4.33471e-23
4.33473e-23
4.33477e-23
4.33481e-23
4.33486e-23
4.33491e-23
4.33497e-23
4.33502e-23
4.33508e-23
4.33514e-23
4.33519e-23
4.33524e-23
4.33529e-23
4.33534e-23
4.33538e-23
4.33542e-23
4.33545e-23
4.33548e-23
4.33551e-23
4.33553e-23
4.33555e-23
4.33556e-23
4.33557e-23
4.33558e-23
4.33558e-23
4.33557e-23
4.33556e-23
4.33555e-23
4.33553e-23
4.33551e-23
4.33548e-23
4.33545e-23
4.33542e-23
4.33538e-23
4.33534e-23
4.33529e-23
4.33524e-23
4.33519e-23
4.33514e-23
4.33508e-23
4.33502e-23
4.33497e-23
4.33491e-23
4.33486e-23
4.33481e-23
4.33477e-23
4.33473e-23
4.33471e-23
4.33469e-23
4.33468e-23
4.33464e-23
4.3345e-23
4.33394e-23
4.33131e-23
1.24476e-22
1.24557e-22
1.2458e-22
1.24592e-22
1.246e-22
1.24607e-22
1.24614e-22
1.2462e-22
1.24626e-22
1.24631e-22
1.24637e-22
1.24642e-22
1.24647e-22
1.24651e-22
1.24655e-22
1.24659e-22
1.24663e-22
1.24666e-22
1.24669e-22
1.24671e-22
1.24674e-22
1.24676e-22
1.24678e-22
1.24679e-22
1.2468e-22
1.24681e-22
1.24682e-22
1.24683e-22
1.24683e-22
1.24684e-22
1.24684e-22
1.24683e-22
1.24683e-22
1.24682e-22
1.24681e-22
1.2468e-22
1.24679e-22
1.24678e-22
1.24676e-22
1.24674e-22
1.24671e-22
1.24669e-22
1.24666e-22
1.24663e-22
1.24659e-22
1.24655e-22
1.24651e-22
1.24647e-22
1.24642e-22
1.24637e-22
1.24631e-22
1.24626e-22
1.2462e-22
1.24614e-22
1.24607e-22
1.246e-22
1.24592e-22
1.2458e-22
1.24557e-22
1.24476e-22
3.28549e-22
3.28781e-22
3.28865e-22
3.28918e-22
3.28962e-22
3.29001e-22
3.29037e-22
3.2907e-22
3.29101e-22
3.2913e-22
3.29157e-22
3.29181e-22
3.29204e-22
3.29225e-22
3.29243e-22
3.2926e-22
3.29275e-22
3.29289e-22
3.29301e-22
3.29312e-22
3.29322e-22
3.2933e-22
3.29337e-22
3.29343e-22
3.29349e-22
3.29353e-22
3.29356e-22
3.29359e-22
3.2936e-22
3.29361e-22
3.29361e-22
3.2936e-22
3.29359e-22
3.29356e-22
3.29353e-22
3.29349e-22
3.29343e-22
3.29337e-22
3.2933e-22
3.29322e-22
3.29312e-22
3.29301e-22
3.29289e-22
3.29275e-22
3.2926e-22
3.29243e-22
3.29225e-22
3.29204e-22
3.29181e-22
3.29157e-22
3.2913e-22
3.29101e-22
3.2907e-22
3.29037e-22
3.29001e-22
3.28962e-22
3.28918e-22
3.28865e-22
3.28781e-22
3.28549e-22
8.51689e-22
8.52344e-22
8.52625e-22
8.52829e-22
8.53005e-22
8.53165e-22
8.53312e-22
8.53448e-22
8.53573e-22
8.53689e-22
8.53794e-22
8.5389e-22
8.53977e-22
8.54056e-22
8.54127e-22
8.5419e-22
8.54247e-22
8.54298e-22
8.54343e-22
8.54382e-22
8.54417e-22
8.54447e-22
8.54472e-22
8.54495e-22
8.54513e-22
8.54528e-22
8.5454e-22
8.54549e-22
8.54554e-22
8.54557e-22
8.54557e-22
8.54554e-22
8.54549e-22
8.5454e-22
8.54528e-22
8.54513e-22
8.54495e-22
8.54472e-22
8.54447e-22
8.54417e-22
8.54382e-22
8.54343e-22
8.54298e-22
8.54247e-22
8.5419e-22
8.54127e-22
8.54056e-22
8.53977e-22
8.5389e-22
8.53794e-22
8.53689e-22
8.53573e-22
8.53448e-22
8.53312e-22
8.53165e-22
8.53005e-22
8.52829e-22
8.52625e-22
8.52344e-22
8.51689e-22
2.22332e-21
2.22517e-21
2.22608e-21
2.2268e-21
2.22744e-21
2.22802e-21
2.22855e-21
2.22905e-21
2.2295e-21
2.22991e-21
2.23029e-21
2.23063e-21
2.23094e-21
2.23121e-21
2.23146e-21
2.23168e-21
2.23188e-21
2.23205e-21
2.23221e-21
2.23234e-21
2.23246e-21
2.23256e-21
2.23265e-21
2.23272e-21
2.23279e-21
2.23284e-21
2.23288e-21
2.23291e-21
2.23292e-21
2.23293e-21
2.23293e-21
2.23292e-21
2.23291e-21
2.23288e-21
2.23284e-21
2.23279e-21
2.23272e-21
2.23265e-21
2.23256e-21
2.23246e-21
2.23234e-21
2.23221e-21
2.23205e-21
2.23188e-21
2.23168e-21
2.23146e-21
2.23121e-21
2.23094e-21
2.23063e-21
2.23029e-21
2.22991e-21
2.2295e-21
2.22905e-21
2.22855e-21
2.22802e-21
2.22744e-21
2.2268e-21
2.22608e-21
2.22517e-21
2.22332e-21
5.90462e-21
5.90994e-21
5.91287e-21
5.91528e-21
5.91747e-21
5.91947e-21
5.92132e-21
5.92301e-21
5.92456e-21
5.92597e-21
5.92725e-21
5.9284e-21
5.92945e-21
5.93038e-21
5.93121e-21
5.93195e-21
5.93261e-21
5.93319e-21
5.93371e-21
5.93415e-21
5.93454e-21
5.93488e-21
5.93517e-21
5.93541e-21
5.93562e-21
5.93578e-21
5.93591e-21
5.93601e-21
5.93607e-21
5.9361e-21
5.9361e-21
5.93607e-21
5.93601e-21
5.93591e-21
5.93578e-21
5.93562e-21
5.93541e-21
5.93517e-21
5.93488e-21
5.93454e-21
5.93415e-21
5.93371e-21
5.93319e-21
5.93261e-21
5.93195e-21
5.93121e-21
5.93038e-21
5.92945e-21
5.9284e-21
5.92725e-21
5.92597e-21
5.92456e-21
5.92301e-21
5.92132e-21
5.91947e-21
5.91747e-21
5.91528e-21
5.91287e-21
5.90994e-21
5.90462e-21
1.60227e-20
1.60383e-20
1.60476e-20
1.60556e-20
1.60629e-20
1.60696e-20
1.60758e-20
1.60815e-20
1.60867e-20
1.60914e-20
1.60957e-20
1.60995e-20
1.6103e-20
1.6106e-20
1.61088e-20
1.61112e-20
1.61134e-20
1.61153e-20
1.6117e-20
1.61185e-20
1.61197e-20
1.61208e-20
1.61218e-20
1.61226e-20
1.61232e-20
1.61238e-20
1.61242e-20
1.61245e-20
1.61247e-20
1.61248e-20
1.61248e-20
1.61247e-20
1.61245e-20
1.61242e-20
1.61238e-20
1.61232e-20
1.61226e-20
1.61218e-20
1.61208e-20
1.61197e-20
1.61185e-20
1.6117e-20
1.61153e-20
1.61134e-20
1.61112e-20
1.61088e-20
1.6106e-20
1.6103e-20
1.60995e-20
1.60957e-20
1.60914e-20
1.60867e-20
1.60815e-20
1.60758e-20
1.60696e-20
1.60629e-20
1.60556e-20
1.60476e-20
1.60383e-20
1.60227e-20
4.45112e-20
4.45575e-20
4.45874e-20
4.46137e-20
4.4638e-20
4.46603e-20
4.46809e-20
4.46998e-20
4.47169e-20
4.47325e-20
4.47466e-20
4.47593e-20
4.47707e-20
4.47809e-20
4.47899e-20
4.4798e-20
4.48051e-20
4.48113e-20
4.48168e-20
4.48216e-20
4.48258e-20
4.48294e-20
4.48324e-20
4.4835e-20
4.48372e-20
4.48389e-20
4.48403e-20
4.48413e-20
4.48419e-20
4.48423e-20
4.48423e-20
4.48419e-20
4.48413e-20
4.48403e-20
4.48389e-20
4.48372e-20
4.4835e-20
4.48324e-20
4.48294e-20
4.48258e-20
4.48216e-20
4.48168e-20
4.48113e-20
4.48051e-20
4.4798e-20
4.47899e-20
4.47809e-20
4.47707e-20
4.47593e-20
4.47466e-20
4.47325e-20
4.47169e-20
4.46998e-20
4.46809e-20
4.46603e-20
4.4638e-20
4.46137e-20
4.45874e-20
4.45575e-20
4.45112e-20
1.26703e-19
1.26844e-19
1.26941e-19
1.27028e-19
1.27108e-19
1.27183e-19
1.27251e-19
1.27314e-19
1.27371e-19
1.27422e-19
1.27469e-19
1.27511e-19
1.27549e-19
1.27582e-19
1.27612e-19
1.27639e-19
1.27662e-19
1.27683e-19
1.27701e-19
1.27716e-19
1.2773e-19
1.27742e-19
1.27752e-19
1.2776e-19
1.27767e-19
1.27773e-19
1.27778e-19
1.27781e-19
1.27783e-19
1.27784e-19
1.27784e-19
1.27783e-19
1.27781e-19
1.27778e-19
1.27773e-19
1.27767e-19
1.2776e-19
1.27752e-19
1.27742e-19
1.2773e-19
1.27716e-19
1.27701e-19
1.27683e-19
1.27662e-19
1.27639e-19
1.27612e-19
1.27582e-19
1.27549e-19
1.27511e-19
1.27469e-19
1.27422e-19
1.27371e-19
1.27314e-19
1.27251e-19
1.27183e-19
1.27108e-19
1.27028e-19
1.26941e-19
1.26844e-19
1.26703e-19
3.69746e-19
3.70184e-19
3.705e-19
3.70789e-19
3.71058e-19
3.71307e-19
3.71536e-19
3.71746e-19
3.71936e-19
3.72109e-19
3.72265e-19
3.72405e-19
3.7253e-19
3.72642e-19
3.72742e-19
3.7283e-19
3.72908e-19
3.72976e-19
3.73036e-19
3.73088e-19
3.73133e-19
3.73172e-19
3.73205e-19
3.73233e-19
3.73257e-19
3.73275e-19
3.7329e-19
3.73301e-19
3.73308e-19
3.73312e-19
3.73312e-19
3.73308e-19
3.73301e-19
3.7329e-19
3.73275e-19
3.73257e-19
3.73233e-19
3.73205e-19
3.73172e-19
3.73133e-19
3.73088e-19
3.73036e-19
3.72976e-19
3.72908e-19
3.7283e-19
3.72742e-19
3.72642e-19
3.7253e-19
3.72405e-19
3.72265e-19
3.72109e-19
3.71936e-19
3.71746e-19
3.71536e-19
3.71307e-19
3.71058e-19
3.70789e-19
3.705e-19
3.70184e-19
3.69746e-19
1.10646e-18
1.10785e-18
1.1089e-18
1.10988e-18
1.11079e-18
1.11163e-18
1.1124e-18
1.11311e-18
1.11376e-18
1.11434e-18
1.11487e-18
1.11534e-18
1.11576e-18
1.11614e-18
1.11647e-18
1.11677e-18
1.11703e-18
1.11726e-18
1.11746e-18
1.11764e-18
1.11779e-18
1.11792e-18
1.11803e-18
1.11813e-18
1.1182e-18
1.11827e-18
1.11832e-18
1.11835e-18
1.11838e-18
1.11839e-18
1.11839e-18
1.11838e-18
1.11835e-18
1.11832e-18
1.11827e-18
1.1182e-18
1.11813e-18
1.11803e-18
1.11792e-18
1.11779e-18
1.11764e-18
1.11746e-18
1.11726e-18
1.11703e-18
1.11677e-18
1.11647e-18
1.11614e-18
1.11576e-18
1.11534e-18
1.11487e-18
1.11434e-18
1.11376e-18
1.11311e-18
1.1124e-18
1.11163e-18
1.11079e-18
1.10988e-18
1.1089e-18
1.10785e-18
1.10646e-18
3.39588e-18
3.4004e-18
3.40396e-18
3.40728e-18
3.4104e-18
3.41329e-18
3.41594e-18
3.41837e-18
3.42058e-18
3.42258e-18
3.42438e-18
3.426e-18
3.42745e-18
3.42874e-18
3.42988e-18
3.43089e-18
3.43179e-18
3.43257e-18
3.43326e-18
3.43386e-18
3.43437e-18
3.43482e-18
3.4352e-18
3.43552e-18
3.43578e-18
3.43599e-18
3.43616e-18
3.43628e-18
3.43637e-18
3.43641e-18
3.43641e-18
3.43637e-18
3.43628e-18
3.43616e-18
3.43599e-18
3.43578e-18
3.43552e-18
3.4352e-18
3.43482e-18
3.43437e-18
3.43386e-18
3.43326e-18
3.43257e-18
3.43179e-18
3.43089e-18
3.42988e-18
3.42874e-18
3.42745e-18
3.426e-18
3.42438e-18
3.42258e-18
3.42058e-18
3.41837e-18
3.41594e-18
3.41329e-18
3.4104e-18
3.40728e-18
3.40396e-18
3.4004e-18
3.39588e-18
1.06899e-17
1.0705e-17
1.07172e-17
1.07288e-17
1.07396e-17
1.07497e-17
1.07589e-17
1.07674e-17
1.07751e-17
1.0782e-17
1.07883e-17
1.07939e-17
1.0799e-17
1.08035e-17
1.08074e-17
1.08109e-17
1.0814e-17
1.08168e-17
1.08192e-17
1.08212e-17
1.0823e-17
1.08246e-17
1.08259e-17
1.0827e-17
1.08279e-17
1.08286e-17
1.08292e-17
1.08296e-17
1.08299e-17
1.08301e-17
1.08301e-17
1.08299e-17
1.08296e-17
1.08292e-17
1.08286e-17
1.08279e-17
1.0827e-17
1.08259e-17
1.08246e-17
1.0823e-17
1.08212e-17
1.08192e-17
1.08168e-17
1.0814e-17
1.08109e-17
1.08074e-17
1.08035e-17
1.0799e-17
1.07939e-17
1.07883e-17
1.0782e-17
1.07751e-17
1.07674e-17
1.07589e-17
1.07497e-17
1.07396e-17
1.07288e-17
1.07172e-17
1.0705e-17
1.06899e-17
3.45131e-17
3.45642e-17
3.46072e-17
3.4648e-17
3.46864e-17
3.47221e-17
3.47549e-17
3.47849e-17
3.48121e-17
3.48368e-17
3.4859e-17
3.48789e-17
3.48967e-17
3.49125e-17
3.49266e-17
3.4939e-17
3.495e-17
3.49596e-17
3.4968e-17
3.49753e-17
3.49817e-17
3.49871e-17
3.49917e-17
3.49956e-17
3.49989e-17
3.50015e-17
3.50035e-17
3.5005e-17
3.5006e-17
3.50065e-17
3.50065e-17
3.5006e-17
3.5005e-17
3.50035e-17
3.50015e-17
3.49989e-17
3.49956e-17
3.49917e-17
3.49871e-17
3.49817e-17
3.49753e-17
3.4968e-17
3.49596e-17
3.495e-17
3.4939e-17
3.49266e-17
3.49125e-17
3.48967e-17
3.48789e-17
3.4859e-17
3.48368e-17
3.48121e-17
3.47849e-17
3.47549e-17
3.47221e-17
3.46864e-17
3.4648e-17
3.46072e-17
3.45642e-17
3.45131e-17
1.14263e-16
1.14441e-16
1.14595e-16
1.14742e-16
1.1488e-16
1.15009e-16
1.15128e-16
1.15236e-16
1.15334e-16
1.15423e-16
1.15503e-16
1.15575e-16
1.15639e-16
1.15696e-16
1.15747e-16
1.15792e-16
1.15831e-16
1.15866e-16
1.15896e-16
1.15922e-16
1.15945e-16
1.15965e-16
1.15981e-16
1.15995e-16
1.16007e-16
1.16016e-16
1.16024e-16
1.16029e-16
1.16032e-16
1.16034e-16
1.16034e-16
1.16032e-16
1.16029e-16
1.16024e-16
1.16016e-16
1.16007e-16
1.15995e-16
1.15981e-16
1.15965e-16
1.15945e-16
1.15922e-16
1.15896e-16
1.15866e-16
1.15831e-16
1.15792e-16
1.15747e-16
1.15696e-16
1.15639e-16
1.15575e-16
1.15503e-16
1.15423e-16
1.15334e-16
1.15236e-16
1.15128e-16
1.15009e-16
1.1488e-16
1.14742e-16
1.14595e-16
1.14441e-16
1.14263e-16
3.87807e-16
3.88441e-16
3.89001e-16
3.8954e-16
3.9005e-16
3.90523e-16
3.90958e-16
3.91356e-16
3.91718e-16
3.92044e-16
3.92339e-16
3.92602e-16
3.92838e-16
3.93048e-16
3.93234e-16
3.93398e-16
3.93543e-16
3.9367e-16
3.93781e-16
3.93877e-16
3.93961e-16
3.94032e-16
3.94093e-16
3.94145e-16
3.94187e-16
3.94222e-16
3.94248e-16
3.94268e-16
3.94281e-16
3.94288e-16
3.94288e-16
3.94281e-16
3.94268e-16
3.94248e-16
3.94222e-16
3.94187e-16
3.94145e-16
3.94093e-16
3.94032e-16
3.93961e-16
3.93877e-16
3.93781e-16
3.9367e-16
3.93543e-16
3.93398e-16
3.93234e-16
3.93048e-16
3.92838e-16
3.92602e-16
3.92339e-16
3.92044e-16
3.91718e-16
3.91356e-16
3.90958e-16
3.90523e-16
3.9005e-16
3.8954e-16
3.89001e-16
3.88441e-16
3.87807e-16
1.3487e-15
1.35101e-15
1.35309e-15
1.35511e-15
1.35702e-15
1.35879e-15
1.36042e-15
1.36191e-15
1.36327e-15
1.36449e-15
1.36559e-15
1.36658e-15
1.36746e-15
1.36825e-15
1.36894e-15
1.36956e-15
1.3701e-15
1.37057e-15
1.37099e-15
1.37135e-15
1.37166e-15
1.37193e-15
1.37216e-15
1.37235e-15
1.37251e-15
1.37263e-15
1.37273e-15
1.37281e-15
1.37286e-15
1.37288e-15
1.37288e-15
1.37286e-15
1.37281e-15
1.37273e-15
1.37263e-15
1.37251e-15
1.37235e-15
1.37216e-15
1.37193e-15
1.37166e-15
1.37135e-15
1.37099e-15
1.37057e-15
1.3701e-15
1.36956e-15
1.36894e-15
1.36825e-15
1.36746e-15
1.36658e-15
1.36559e-15
1.36449e-15
1.36327e-15
1.36191e-15
1.36042e-15
1.35879e-15
1.35702e-15
1.35511e-15
1.35309e-15
1.35101e-15
1.3487e-15
4.80321e-15
4.81179e-15
4.81971e-15
4.8274e-15
4.83468e-15
4.84145e-15
4.84768e-15
4.85337e-15
4.85853e-15
4.8632e-15
4.86741e-15
4.87118e-15
4.87454e-15
4.87753e-15
4.88019e-15
4.88253e-15
4.8846e-15
4.88641e-15
4.88799e-15
4.88936e-15
4.89055e-15
4.89157e-15
4.89244e-15
4.89317e-15
4.89377e-15
4.89426e-15
4.89464e-15
4.89492e-15
4.8951e-15
4.8952e-15
4.8952e-15
4.8951e-15
4.89492e-15
4.89464e-15
4.89426e-15
4.89377e-15
4.89317e-15
4.89244e-15
4.89157e-15
4.89055e-15
4.88936e-15
4.88799e-15
4.88641e-15
4.8846e-15
4.88253e-15
4.88019e-15
4.87753e-15
4.87454e-15
4.87118e-15
4.86741e-15
4.8632e-15
4.85853e-15
4.85337e-15
4.84768e-15
4.84145e-15
4.83468e-15
4.8274e-15
4.81971e-15
4.81179e-15
4.80321e-15
1.75026e-14
1.75352e-14
1.75658e-14
1.75956e-14
1.76239e-14
1.76502e-14
1.76745e-14
1.76966e-14
1.77167e-14
1.77348e-14
1.77511e-14
1.77658e-14
1.77789e-14
1.77905e-14
1.78008e-14
1.78099e-14
1.78179e-14
1.78249e-14
1.78311e-14
1.78364e-14
1.7841e-14
1.7845e-14
1.78483e-14
1.78512e-14
1.78535e-14
1.78554e-14
1.78569e-14
1.7858e-14
1.78587e-14
1.7859e-14
1.7859e-14
1.78587e-14
1.7858e-14
1.78569e-14
1.78554e-14
1.78535e-14
1.78512e-14
1.78483e-14
1.7845e-14
1.7841e-14
1.78364e-14
1.78311e-14
1.78249e-14
1.78179e-14
1.78099e-14
1.78008e-14
1.77905e-14
1.77789e-14
1.77658e-14
1.77511e-14
1.77348e-14
1.77167e-14
1.76966e-14
1.76745e-14
1.76502e-14
1.76239e-14
1.75956e-14
1.75658e-14
1.75352e-14
1.75026e-14
6.5186e-14
6.53124e-14
6.54329e-14
6.55509e-14
6.56628e-14
6.57669e-14
6.58627e-14
6.59502e-14
6.60296e-14
6.61014e-14
6.6166e-14
6.62239e-14
6.62756e-14
6.63216e-14
6.63623e-14
6.63983e-14
6.643e-14
6.64577e-14
6.6482e-14
6.6503e-14
6.65212e-14
6.65369e-14
6.65502e-14
6.65613e-14
6.65706e-14
6.65781e-14
6.65839e-14
6.65882e-14
6.6591e-14
6.65924e-14
6.65924e-14
6.6591e-14
6.65882e-14
6.65839e-14
6.65781e-14
6.65706e-14
6.65613e-14
6.65502e-14
6.65369e-14
6.65212e-14
6.6503e-14
6.6482e-14
6.64577e-14
6.643e-14
6.63983e-14
6.63623e-14
6.63216e-14
6.62756e-14
6.62239e-14
6.6166e-14
6.61014e-14
6.60296e-14
6.59502e-14
6.58627e-14
6.57669e-14
6.56628e-14
6.55509e-14
6.54329e-14
6.53124e-14
6.5186e-14
2.47799e-13
2.48298e-13
2.48781e-13
2.49255e-13
2.49705e-13
2.50123e-13
2.50508e-13
2.5086e-13
2.51179e-13
2.51468e-13
2.51728e-13
2.5196e-13
2.52168e-13
2.52353e-13
2.52516e-13
2.52661e-13
2.52788e-13
2.52899e-13
2.52997e-13
2.53081e-13
2.53154e-13
2.53217e-13
2.53271e-13
2.53315e-13
2.53353e-13
2.53382e-13
2.53406e-13
2.53423e-13
2.53434e-13
2.5344e-13
2.5344e-13
2.53434e-13
2.53423e-13
2.53406e-13
2.53382e-13
2.53353e-13
2.53315e-13
2.53271e-13
2.53217e-13
2.53154e-13
2.53081e-13
2.52997e-13
2.52899e-13
2.52788e-13
2.52661e-13
2.52516e-13
2.52353e-13
2.52168e-13
2.5196e-13
2.51728e-13
2.51468e-13
2.51179e-13
2.5086e-13
2.50508e-13
2.50123e-13
2.49705e-13
2.49255e-13
2.48781e-13
2.48298e-13
2.47799e-13
9.59858e-13
9.61859e-13
9.63823e-13
9.65756e-13
9.6759e-13
9.69297e-13
9.70868e-13
9.72303e-13
9.73606e-13
9.74783e-13
9.75842e-13
9.76791e-13
9.77638e-13
9.78391e-13
9.79058e-13
9.79647e-13
9.80166e-13
9.8062e-13
9.81017e-13
9.81362e-13
9.81659e-13
9.81915e-13
9.82132e-13
9.82315e-13
9.82466e-13
9.82588e-13
9.82683e-13
9.82753e-13
9.82799e-13
9.82822e-13
9.82822e-13
9.82799e-13
9.82753e-13
9.82683e-13
9.82588e-13
9.82466e-13
9.82315e-13
9.82132e-13
9.81915e-13
9.81659e-13
9.81362e-13
9.81017e-13
9.8062e-13
9.80166e-13
9.79647e-13
9.79058e-13
9.78391e-13
9.77638e-13
9.76791e-13
9.75842e-13
9.74783e-13
9.73606e-13
9.72303e-13
9.70868e-13
9.69297e-13
9.6759e-13
9.65756e-13
9.63823e-13
9.61859e-13
9.59858e-13
3.78081e-12
3.78896e-12
3.79705e-12
3.80503e-12
3.81261e-12
3.81966e-12
3.82615e-12
3.83208e-12
3.83746e-12
3.84232e-12
3.8467e-12
3.85062e-12
3.85411e-12
3.85722e-12
3.85998e-12
3.86241e-12
3.86455e-12
3.86643e-12
3.86806e-12
3.86948e-12
3.87071e-12
3.87177e-12
3.87266e-12
3.87342e-12
3.87404e-12
3.87454e-12
3.87494e-12
3.87523e-12
3.87541e-12
3.87551e-12
3.87551e-12
3.87541e-12
3.87523e-12
3.87494e-12
3.87454e-12
3.87404e-12
3.87342e-12
3.87266e-12
3.87177e-12
3.87071e-12
3.86948e-12
3.86806e-12
3.86643e-12
3.86455e-12
3.86241e-12
3.85998e-12
3.85722e-12
3.85411e-12
3.85062e-12
3.8467e-12
3.84232e-12
3.83746e-12
3.83208e-12
3.82615e-12
3.81966e-12
3.81261e-12
3.80503e-12
3.79705e-12
3.78896e-12
3.78081e-12
1.51064e-11
1.514e-11
1.51737e-11
1.5207e-11
1.52386e-11
1.5268e-11
1.52951e-11
1.53199e-11
1.53423e-11
1.53626e-11
1.53809e-11
1.53972e-11
1.54118e-11
1.54248e-11
1.54362e-11
1.54464e-11
1.54553e-11
1.54631e-11
1.547e-11
1.54759e-11
1.5481e-11
1.54854e-11
1.54891e-11
1.54923e-11
1.54949e-11
1.5497e-11
1.54986e-11
1.54998e-11
1.55006e-11
1.5501e-11
1.5501e-11
1.55006e-11
1.54998e-11
1.54986e-11
1.5497e-11
1.54949e-11
1.54923e-11
1.54891e-11
1.54854e-11
1.5481e-11
1.54759e-11
1.547e-11
1.54631e-11
1.54553e-11
1.54464e-11
1.54362e-11
1.54248e-11
1.54118e-11
1.53972e-11
1.53809e-11
1.53626e-11
1.53423e-11
1.53199e-11
1.52951e-11
1.5268e-11
1.52386e-11
1.5207e-11
1.51737e-11
1.514e-11
1.51064e-11
6.10464e-11
6.11861e-11
6.13275e-11
6.14673e-11
6.16001e-11
6.17238e-11
6.18376e-11
6.19416e-11
6.20359e-11
6.21212e-11
6.21978e-11
6.22665e-11
6.23278e-11
6.23822e-11
6.24305e-11
6.24731e-11
6.25106e-11
6.25434e-11
6.2572e-11
6.25969e-11
6.26184e-11
6.26369e-11
6.26525e-11
6.26657e-11
6.26766e-11
6.26854e-11
6.26923e-11
6.26973e-11
6.27006e-11
6.27023e-11
6.27023e-11
6.27006e-11
6.26973e-11
6.26923e-11
6.26854e-11
6.26766e-11
6.26657e-11
6.26525e-11
6.26369e-11
6.26184e-11
6.25969e-11
6.2572e-11
6.25434e-11
6.25106e-11
6.24731e-11
6.24305e-11
6.23822e-11
6.23278e-11
6.22665e-11
6.21978e-11
6.21212e-11
6.20359e-11
6.19416e-11
6.18376e-11
6.17238e-11
6.16001e-11
6.14673e-11
6.13275e-11
6.11861e-11
6.10464e-11
2.48641e-10
2.49225e-10
2.49821e-10
2.5041e-10
2.5097e-10
2.51492e-10
2.51971e-10
2.5241e-10
2.52807e-10
2.53167e-10
2.5349e-10
2.53779e-10
2.54037e-10
2.54267e-10
2.5447e-10
2.5465e-10
2.54808e-10
2.54946e-10
2.55067e-10
2.55171e-10
2.55262e-10
2.5534e-10
2.55406e-10
2.55461e-10
2.55507e-10
2.55544e-10
2.55573e-10
2.55594e-10
2.55608e-10
2.55615e-10
2.55615e-10
2.55608e-10
2.55594e-10
2.55573e-10
2.55544e-10
2.55507e-10
2.55461e-10
2.55406e-10
2.5534e-10
2.55262e-10
2.55171e-10
2.55067e-10
2.54946e-10
2.54808e-10
2.5465e-10
2.5447e-10
2.54267e-10
2.54037e-10
2.53779e-10
2.5349e-10
2.53167e-10
2.52807e-10
2.5241e-10
2.51971e-10
2.51492e-10
2.5097e-10
2.5041e-10
2.49821e-10
2.49225e-10
2.48641e-10
1.01657e-09
1.01901e-09
1.02152e-09
1.024e-09
1.02636e-09
1.02856e-09
1.03058e-09
1.03242e-09
1.0341e-09
1.03561e-09
1.03697e-09
1.03819e-09
1.03928e-09
1.04024e-09
1.0411e-09
1.04186e-09
1.04252e-09
1.0431e-09
1.04361e-09
1.04405e-09
1.04443e-09
1.04476e-09
1.04504e-09
1.04527e-09
1.04546e-09
1.04562e-09
1.04574e-09
1.04583e-09
1.04589e-09
1.04592e-09
1.04592e-09
1.04589e-09
1.04583e-09
1.04574e-09
1.04562e-09
1.04546e-09
1.04527e-09
1.04504e-09
1.04476e-09
1.04443e-09
1.04405e-09
1.04361e-09
1.0431e-09
1.04252e-09
1.04186e-09
1.0411e-09
1.04024e-09
1.03928e-09
1.03819e-09
1.03697e-09
1.03561e-09
1.0341e-09
1.03242e-09
1.03058e-09
1.02856e-09
1.02636e-09
1.024e-09
1.02152e-09
1.01901e-09
1.01657e-09
4.15246e-09
4.16263e-09
4.17313e-09
4.18352e-09
4.1934e-09
4.2026e-09
4.21106e-09
4.21878e-09
4.22579e-09
4.23213e-09
4.23782e-09
4.24292e-09
4.24747e-09
4.25152e-09
4.2551e-09
4.25826e-09
4.26104e-09
4.26347e-09
4.2656e-09
4.26744e-09
4.26904e-09
4.2704e-09
4.27156e-09
4.27254e-09
4.27335e-09
4.274e-09
4.27451e-09
4.27488e-09
4.27513e-09
4.27525e-09
4.27525e-09
4.27513e-09
4.27488e-09
4.27451e-09
4.274e-09
4.27335e-09
4.27254e-09
4.27156e-09
4.2704e-09
4.26904e-09
4.26744e-09
4.2656e-09
4.26347e-09
4.26104e-09
4.25826e-09
4.2551e-09
4.25152e-09
4.24747e-09
4.24292e-09
4.23782e-09
4.23213e-09
4.22579e-09
4.21878e-09
4.21106e-09
4.2026e-09
4.1934e-09
4.18352e-09
4.17313e-09
4.16263e-09
4.15246e-09
1.68547e-08
1.68966e-08
1.69401e-08
1.69831e-08
1.7024e-08
1.7062e-08
1.7097e-08
1.7129e-08
1.7158e-08
1.71842e-08
1.72077e-08
1.72288e-08
1.72476e-08
1.72643e-08
1.72791e-08
1.72922e-08
1.73037e-08
1.73138e-08
1.73226e-08
1.73302e-08
1.73368e-08
1.73424e-08
1.73472e-08
1.73512e-08
1.73546e-08
1.73573e-08
1.73594e-08
1.73609e-08
1.73619e-08
1.73624e-08
1.73624e-08
1.73619e-08
1.73609e-08
1.73594e-08
1.73573e-08
1.73546e-08
1.73512e-08
1.73472e-08
1.73424e-08
1.73368e-08
1.73302e-08
1.73226e-08
1.73138e-08
1.73037e-08
1.72922e-08
1.72791e-08
1.72643e-08
1.72476e-08
1.72288e-08
1.72077e-08
1.71842e-08
1.7158e-08
1.7129e-08
1.7097e-08
1.7062e-08
1.7024e-08
1.69831e-08
1.69401e-08
1.68966e-08
1.68547e-08
6.75602e-08
6.77299e-08
6.79066e-08
6.80813e-08
6.82473e-08
6.84018e-08
6.85439e-08
6.86736e-08
6.87913e-08
6.88976e-08
6.89932e-08
6.90788e-08
6.91551e-08
6.92229e-08
6.9283e-08
6.9336e-08
6.93827e-08
6.94235e-08
6.94591e-08
6.949e-08
6.95167e-08
6.95396e-08
6.95591e-08
6.95755e-08
6.9589e-08
6.95999e-08
6.96084e-08
6.96147e-08
6.96188e-08
6.96208e-08
6.96208e-08
6.96188e-08
6.96147e-08
6.96084e-08
6.95999e-08
6.9589e-08
6.95755e-08
6.95591e-08
6.95396e-08
6.95167e-08
6.949e-08
6.94591e-08
6.94235e-08
6.93827e-08
6.9336e-08
6.9283e-08
6.92229e-08
6.91551e-08
6.90788e-08
6.89932e-08
6.88976e-08
6.87913e-08
6.86736e-08
6.85439e-08
6.84018e-08
6.82473e-08
6.80813e-08
6.79066e-08
6.77299e-08
6.75602e-08
2.65552e-07
2.66223e-07
2.66923e-07
2.67614e-07
2.68271e-07
2.68881e-07
2.69443e-07
2.69956e-07
2.70421e-07
2.70842e-07
2.71219e-07
2.71558e-07
2.71859e-07
2.72127e-07
2.72365e-07
2.72574e-07
2.72758e-07
2.7292e-07
2.7306e-07
2.73183e-07
2.73288e-07
2.73379e-07
2.73455e-07
2.7352e-07
2.73573e-07
2.73617e-07
2.7365e-07
2.73675e-07
2.73691e-07
2.73699e-07
2.73699e-07
2.73691e-07
2.73675e-07
2.7365e-07
2.73617e-07
2.73573e-07
2.7352e-07
2.73455e-07
2.73379e-07
2.73288e-07
2.73183e-07
2.7306e-07
2.7292e-07
2.72758e-07
2.72574e-07
2.72365e-07
2.72127e-07
2.71859e-07
2.71558e-07
2.71219e-07
2.70842e-07
2.70421e-07
2.69956e-07
2.69443e-07
2.68881e-07
2.68271e-07
2.67614e-07
2.66923e-07
2.66223e-07
2.65552e-07
1.01541e-06
1.01797e-06
1.02065e-06
1.02329e-06
1.0258e-06
1.02813e-06
1.03027e-06
1.03223e-06
1.034e-06
1.03561e-06
1.03705e-06
1.03834e-06
1.03949e-06
1.04051e-06
1.04142e-06
1.04222e-06
1.04292e-06
1.04353e-06
1.04407e-06
1.04454e-06
1.04494e-06
1.04528e-06
1.04558e-06
1.04582e-06
1.04603e-06
1.04619e-06
1.04632e-06
1.04641e-06
1.04647e-06
1.0465e-06
1.0465e-06
1.04647e-06
1.04641e-06
1.04632e-06
1.04619e-06
1.04603e-06
1.04582e-06
1.04558e-06
1.04528e-06
1.04494e-06
1.04454e-06
1.04407e-06
1.04353e-06
1.04292e-06
1.04222e-06
1.04142e-06
1.04051e-06
1.03949e-06
1.03834e-06
1.03705e-06
1.03561e-06
1.034e-06
1.03223e-06
1.03027e-06
1.02813e-06
1.0258e-06
1.02329e-06
1.02065e-06
1.01797e-06
1.01541e-06
3.74344e-06
3.75283e-06
3.76262e-06
3.77226e-06
3.78141e-06
3.78992e-06
3.79774e-06
3.80487e-06
3.81135e-06
3.81719e-06
3.82244e-06
3.82715e-06
3.83134e-06
3.83507e-06
3.83837e-06
3.84128e-06
3.84384e-06
3.84608e-06
3.84803e-06
3.84973e-06
3.8512e-06
3.85245e-06
3.85352e-06
3.85442e-06
3.85516e-06
3.85576e-06
3.85622e-06
3.85656e-06
3.85679e-06
3.8569e-06
3.8569e-06
3.85679e-06
3.85656e-06
3.85622e-06
3.85576e-06
3.85516e-06
3.85442e-06
3.85352e-06
3.85245e-06
3.8512e-06
3.84973e-06
3.84803e-06
3.84608e-06
3.84384e-06
3.84128e-06
3.83837e-06
3.83507e-06
3.83134e-06
3.82715e-06
3.82244e-06
3.81719e-06
3.81135e-06
3.80487e-06
3.79774e-06
3.78992e-06
3.78141e-06
3.77226e-06
3.76262e-06
3.75283e-06
3.74344e-06
1.3173e-05
1.32055e-05
1.32394e-05
1.32726e-05
1.33042e-05
1.33335e-05
1.33604e-05
1.3385e-05
1.34073e-05
1.34274e-05
1.34455e-05
1.34617e-05
1.34761e-05
1.3489e-05
1.35003e-05
1.35103e-05
1.35192e-05
1.35269e-05
1.35336e-05
1.35394e-05
1.35445e-05
1.35488e-05
1.35525e-05
1.35556e-05
1.35581e-05
1.35602e-05
1.35618e-05
1.35629e-05
1.35637e-05
1.35641e-05
1.35641e-05
1.35637e-05
1.35629e-05
1.35618e-05
1.35602e-05
1.35581e-05
1.35556e-05
1.35525e-05
1.35488e-05
1.35445e-05
1.35394e-05
1.35336e-05
1.35269e-05
1.35192e-05
1.35103e-05
1.35003e-05
1.3489e-05
1.34761e-05
1.34617e-05
1.34455e-05
1.34274e-05
1.34073e-05
1.3385e-05
1.33604e-05
1.33335e-05
1.33042e-05
1.32726e-05
1.32394e-05
1.32055e-05
1.3173e-05
4.37534e-05
4.38586e-05
4.39676e-05
4.40747e-05
4.4176e-05
4.42702e-05
4.43567e-05
4.44356e-05
4.45072e-05
4.45718e-05
4.46299e-05
4.46818e-05
4.47282e-05
4.47694e-05
4.48058e-05
4.48379e-05
4.48662e-05
4.48909e-05
4.49125e-05
4.49312e-05
4.49474e-05
4.49613e-05
4.4973e-05
4.49829e-05
4.49911e-05
4.49977e-05
4.50029e-05
4.50066e-05
4.50091e-05
4.50104e-05
4.50104e-05
4.50091e-05
4.50066e-05
4.50029e-05
4.49977e-05
4.49911e-05
4.49829e-05
4.4973e-05
4.49613e-05
4.49474e-05
4.49312e-05
4.49125e-05
4.48909e-05
4.48662e-05
4.48379e-05
4.48058e-05
4.47694e-05
4.47282e-05
4.46818e-05
4.46299e-05
4.45718e-05
4.45072e-05
4.44356e-05
4.43567e-05
4.42702e-05
4.4176e-05
4.40747e-05
4.39676e-05
4.38586e-05
4.37534e-05
0.000135471
0.000135784
0.000136107
0.000136423
0.000136722
0.000137
0.000137255
0.000137488
0.000137699
0.000137889
0.00013806
0.000138213
0.00013835
0.000138471
0.000138579
0.000138673
0.000138757
0.000138829
0.000138893
0.000138948
0.000138996
0.000139037
0.000139071
0.0001391
0.000139124
0.000139144
0.000139159
0.00013917
0.000139177
0.000139181
0.000139181
0.000139177
0.00013917
0.000139159
0.000139144
0.000139124
0.0001391
0.000139071
0.000139037
0.000138996
0.000138948
0.000138893
0.000138829
0.000138757
0.000138673
0.000138579
0.000138471
0.00013835
0.000138213
0.00013806
0.000137889
0.000137699
0.000137488
0.000137255
0.000137
0.000136722
0.000136423
0.000136107
0.000135784
0.000135471
0.000385741
0.000386583
0.000387447
0.000388291
0.000389088
0.000389828
0.000390507
0.000391126
0.000391688
0.000392194
0.000392649
0.000393057
0.00039342
0.000393742
0.000394028
0.00039428
0.000394501
0.000394695
0.000394863
0.00039501
0.000395137
0.000395245
0.000395337
0.000395415
0.000395479
0.00039553
0.000395571
0.0003956
0.00039562
0.000395629
0.000395629
0.00039562
0.0003956
0.000395571
0.00039553
0.000395479
0.000395415
0.000395337
0.000395245
0.000395137
0.00039501
0.000394863
0.000394695
0.000394501
0.00039428
0.000394028
0.000393742
0.00039342
0.000393057
0.000392649
0.000392194
0.000391688
0.000391126
0.000390507
0.000389828
0.000389088
0.000388291
0.000387447
0.000386583
0.000385741
0.000995954
0.000997964
0.00100002
0.00100201
0.00100389
0.00100564
0.00100724
0.0010087
0.00101003
0.00101122
0.0010123
0.00101326
0.00101411
0.00101487
0.00101555
0.00101614
0.00101666
0.00101712
0.00101751
0.00101786
0.00101816
0.00101841
0.00101863
0.00101881
0.00101896
0.00101909
0.00101918
0.00101925
0.0010193
0.00101932
0.00101932
0.0010193
0.00101925
0.00101918
0.00101909
0.00101896
0.00101881
0.00101863
0.00101841
0.00101816
0.00101786
0.00101751
0.00101712
0.00101666
0.00101614
0.00101555
0.00101487
0.00101411
0.00101326
0.0010123
0.00101122
0.00101003
0.0010087
0.00100724
0.00100564
0.00100389
0.00100201
0.00100002
0.000997964
0.000995954
0.00230133
0.00230552
0.00230977
0.00231388
0.00231776
0.00232135
0.00232465
0.00232765
0.00233037
0.00233283
0.00233503
0.002337
0.00233876
0.00234032
0.00234171
0.00234292
0.00234399
0.00234493
0.00234575
0.00234646
0.00234707
0.00234759
0.00234804
0.00234841
0.00234872
0.00234897
0.00234917
0.00234931
0.0023494
0.00234945
0.00234945
0.0023494
0.00234931
0.00234917
0.00234897
0.00234872
0.00234841
0.00234804
0.00234759
0.00234707
0.00234646
0.00234575
0.00234493
0.00234399
0.00234292
0.00234171
0.00234032
0.00233876
0.002337
0.00233503
0.00233283
0.00233037
0.00232765
0.00232465
0.00232135
0.00231776
0.00231388
0.00230977
0.00230552
0.00230133
0.00471436
0.00472191
0.00472948
0.0047368
0.00474368
0.00475004
0.00475589
0.00476121
0.00476603
0.00477037
0.00477428
0.00477777
0.00478088
0.00478364
0.00478608
0.00478824
0.00479013
0.00479179
0.00479324
0.00479449
0.00479557
0.0047965
0.00479729
0.00479795
0.0047985
0.00479894
0.00479929
0.00479954
0.00479971
0.00479979
0.00479979
0.00479971
0.00479954
0.00479929
0.00479894
0.0047985
0.00479795
0.00479729
0.0047965
0.00479557
0.00479449
0.00479324
0.00479179
0.00479013
0.00478824
0.00478608
0.00478364
0.00478088
0.00477777
0.00477428
0.00477037
0.00476603
0.00476121
0.00475589
0.00475004
0.00474368
0.0047368
0.00472948
0.00472191
0.00471436
0.00854175
0.0085535
0.00856515
0.00857635
0.00858687
0.0085966
0.00860551
0.00861363
0.00862099
0.00862762
0.00863358
0.0086389