/*--------------------------------*- C++ -*----------------------------------*\
| =========                 |                                                 |
| \\      /  F ield         | foam-extend: Open Source CFD                    |
|  \\    /   O peration     | Version:     4.0                                |
|   \\  /    A nd           | Web:         http://www.foam-extend.org         |
|    \\/     M anipulation  |                                                 |
\*---------------------------------------------------------------------------*/
FoamFile
{
    version     2.0;
    format      ascii;
    class       volScalarField;
    location    "1780";
    object      cPlus;
}
// * * * * * * * * * * * * * * * * * * * * * * * * * * * * * * * * * * * * * //

dimensions      [0 0 0 0 0 0 0];

internalField   nonuniform List<scalar> 
6960
(
0.330944
0.330934
0.330922
0.33091
0.330898
0.330887
0.330876
0.330867
0.330859
0.330851
0.330844
0.330838
0.330833
0.330828
0.330824
0.33082
0.330817
0.330814
0.330812
0.33081
0.330808
0.330806
0.330805
0.330804
0.330803
0.330802
0.330802
0.330801
0.330801
0.330801
0.330801
0.330801
0.330801
0.330802
0.330802
0.330803
0.330804
0.330805
0.330806
0.330808
0.33081
0.330812
0.330814
0.330817
0.33082
0.330824
0.330828
0.330833
0.330838
0.330844
0.330851
0.330859
0.330867
0.330876
0.330887
0.330898
0.33091
0.330922
0.330934
0.330944
0.111104
0.111097
0.111088
0.111079
0.11107
0.111061
0.111054
0.111047
0.111041
0.111035
0.11103
0.111025
0.111021
0.111018
0.111015
0.111012
0.11101
0.111007
0.111006
0.111004
0.111003
0.111001
0.111
0.111
0.110999
0.110998
0.110998
0.110998
0.110997
0.110997
0.110997
0.110997
0.110998
0.110998
0.110998
0.110999
0.111
0.111
0.111001
0.111003
0.111004
0.111006
0.111007
0.11101
0.111012
0.111015
0.111018
0.111021
0.111025
0.11103
0.111035
0.111041
0.111047
0.111054
0.111061
0.11107
0.111079
0.111088
0.111097
0.111104
0.0442403
0.0442362
0.0442308
0.0442253
0.0442201
0.0442152
0.0442107
0.0442066
0.0442028
0.0441995
0.0441965
0.0441938
0.0441914
0.0441893
0.0441875
0.0441858
0.0441844
0.0441831
0.044182
0.0441811
0.0441803
0.0441796
0.044179
0.0441785
0.0441781
0.0441777
0.0441775
0.0441773
0.0441772
0.0441771
0.0441771
0.0441772
0.0441773
0.0441775
0.0441777
0.0441781
0.0441785
0.044179
0.0441796
0.0441803
0.0441811
0.044182
0.0441831
0.0441844
0.0441858
0.0441875
0.0441893
0.0441914
0.0441938
0.0441965
0.0441995
0.0442028
0.0442066
0.0442107
0.0442152
0.0442201
0.0442253
0.0442308
0.0442362
0.0442403
0.0200248
0.020023
0.0200204
0.0200178
0.0200152
0.0200128
0.0200106
0.0200085
0.0200067
0.0200051
0.0200036
0.0200023
0.0200011
0.0200001
0.0199991
0.0199983
0.0199976
0.019997
0.0199965
0.019996
0.0199956
0.0199953
0.019995
0.0199947
0.0199945
0.0199944
0.0199942
0.0199941
0.0199941
0.019994
0.019994
0.0199941
0.0199941
0.0199942
0.0199944
0.0199945
0.0199947
0.019995
0.0199953
0.0199956
0.019996
0.0199965
0.019997
0.0199976
0.0199983
0.0199991
0.0200001
0.0200011
0.0200023
0.0200036
0.0200051
0.0200067
0.0200085
0.0200106
0.0200128
0.0200152
0.0200178
0.0200204
0.020023
0.0200248
0.010785
0.0107845
0.0107837
0.0107828
0.0107819
0.010781
0.0107802
0.0107795
0.0107789
0.0107783
0.0107777
0.0107773
0.0107769
0.0107765
0.0107762
0.0107759
0.0107756
0.0107754
0.0107752
0.010775
0.0107749
0.0107748
0.0107747
0.0107746
0.0107745
0.0107744
0.0107744
0.0107744
0.0107743
0.0107743
0.0107743
0.0107743
0.0107744
0.0107744
0.0107744
0.0107745
0.0107746
0.0107747
0.0107748
0.0107749
0.010775
0.0107752
0.0107754
0.0107756
0.0107759
0.0107762
0.0107765
0.0107769
0.0107773
0.0107777
0.0107783
0.0107789
0.0107795
0.0107802
0.010781
0.0107819
0.0107828
0.0107837
0.0107845
0.010785
0.00724878
0.00724913
0.00724925
0.0072493
0.00724931
0.00724932
0.00724933
0.00724933
0.00724933
0.00724933
0.00724933
0.00724933
0.00724932
0.00724932
0.00724932
0.00724932
0.00724932
0.00724932
0.00724931
0.00724931
0.00724931
0.00724931
0.00724931
0.00724931
0.00724931
0.00724931
0.00724931
0.00724931
0.00724931
0.00724931
0.00724931
0.00724931
0.00724931
0.00724931
0.00724931
0.00724931
0.00724931
0.00724931
0.00724931
0.00724931
0.00724931
0.00724931
0.00724932
0.00724932
0.00724932
0.00724932
0.00724932
0.00724932
0.00724933
0.00724933
0.00724933
0.00724933
0.00724933
0.00724933
0.00724932
0.00724931
0.0072493
0.00724925
0.00724913
0.00724878
0.00592762
0.00592838
0.00592898
0.00592952
0.00593001
0.00593046
0.00593087
0.00593124
0.00593157
0.00593187
0.00593214
0.00593237
0.00593258
0.00593277
0.00593294
0.00593308
0.00593321
0.00593332
0.00593342
0.0059335
0.00593357
0.00593363
0.00593368
0.00593373
0.00593376
0.00593379
0.00593381
0.00593383
0.00593384
0.00593385
0.00593385
0.00593384
0.00593383
0.00593381
0.00593379
0.00593376
0.00593373
0.00593368
0.00593363
0.00593357
0.0059335
0.00593342
0.00593332
0.00593321
0.00593308
0.00593294
0.00593277
0.00593258
0.00593237
0.00593214
0.00593187
0.00593157
0.00593124
0.00593087
0.00593046
0.00593001
0.00592952
0.00592898
0.00592838
0.00592762
0.00546129
0.00546224
0.00546308
0.00546386
0.00546458
0.00546524
0.00546584
0.00546638
0.00546688
0.00546732
0.00546772
0.00546807
0.00546838
0.00546866
0.00546891
0.00546912
0.00546931
0.00546947
0.00546962
0.00546974
0.00546985
0.00546994
0.00547002
0.00547008
0.00547014
0.00547018
0.00547021
0.00547024
0.00547025
0.00547026
0.00547026
0.00547025
0.00547024
0.00547021
0.00547018
0.00547014
0.00547008
0.00547002
0.00546994
0.00546985
0.00546974
0.00546962
0.00546947
0.00546931
0.00546912
0.00546891
0.00546866
0.00546838
0.00546807
0.00546772
0.00546732
0.00546688
0.00546638
0.00546584
0.00546524
0.00546458
0.00546386
0.00546308
0.00546224
0.00546129
0.00531981
0.00532085
0.00532181
0.00532269
0.00532352
0.00532428
0.00532497
0.0053256
0.00532617
0.00532668
0.00532713
0.00532754
0.0053279
0.00532822
0.00532851
0.00532876
0.00532897
0.00532916
0.00532933
0.00532947
0.0053296
0.0053297
0.00532979
0.00532987
0.00532993
0.00532998
0.00533002
0.00533005
0.00533006
0.00533007
0.00533007
0.00533006
0.00533005
0.00533002
0.00532998
0.00532993
0.00532987
0.00532979
0.0053297
0.0053296
0.00532947
0.00532933
0.00532916
0.00532897
0.00532876
0.00532851
0.00532822
0.0053279
0.00532754
0.00532713
0.00532668
0.00532617
0.0053256
0.00532497
0.00532428
0.00532352
0.00532269
0.00532181
0.00532085
0.00531981
0.00530006
0.00530115
0.00530216
0.00530311
0.00530398
0.00530479
0.00530553
0.0053062
0.0053068
0.00530734
0.00530783
0.00530826
0.00530865
0.00530899
0.00530929
0.00530956
0.00530979
0.00530999
0.00531017
0.00531032
0.00531045
0.00531057
0.00531066
0.00531074
0.00531081
0.00531086
0.0053109
0.00531093
0.00531095
0.00531096
0.00531096
0.00531095
0.00531093
0.0053109
0.00531086
0.00531081
0.00531074
0.00531066
0.00531057
0.00531045
0.00531032
0.00531017
0.00530999
0.00530979
0.00530956
0.00530929
0.00530899
0.00530865
0.00530826
0.00530783
0.00530734
0.0053068
0.0053062
0.00530553
0.00530479
0.00530398
0.00530311
0.00530216
0.00530115
0.00530006
0.00532605
0.00532717
0.00532821
0.00532918
0.00533009
0.00533092
0.00533169
0.00533238
0.005333
0.00533356
0.00533407
0.00533452
0.00533491
0.00533527
0.00533558
0.00533585
0.00533609
0.0053363
0.00533649
0.00533664
0.00533678
0.0053369
0.00533699
0.00533708
0.00533715
0.0053372
0.00533724
0.00533728
0.0053373
0.00533731
0.00533731
0.0053373
0.00533728
0.00533724
0.0053372
0.00533715
0.00533708
0.00533699
0.0053369
0.00533678
0.00533664
0.00533649
0.0053363
0.00533609
0.00533585
0.00533558
0.00533527
0.00533491
0.00533452
0.00533407
0.00533356
0.005333
0.00533238
0.00533169
0.00533092
0.00533009
0.00532918
0.00532821
0.00532717
0.00532605
0.00537015
0.0053713
0.00537236
0.00537336
0.00537428
0.00537514
0.00537592
0.00537662
0.00537726
0.00537784
0.00537835
0.00537881
0.00537922
0.00537958
0.0053799
0.00538018
0.00538042
0.00538064
0.00538082
0.00538099
0.00538113
0.00538125
0.00538135
0.00538143
0.0053815
0.00538156
0.0053816
0.00538163
0.00538165
0.00538167
0.00538167
0.00538165
0.00538163
0.0053816
0.00538156
0.0053815
0.00538143
0.00538135
0.00538125
0.00538113
0.00538099
0.00538082
0.00538064
0.00538042
0.00538018
0.0053799
0.00537958
0.00537922
0.00537881
0.00537835
0.00537784
0.00537726
0.00537662
0.00537592
0.00537514
0.00537428
0.00537336
0.00537236
0.0053713
0.00537015
0.00542273
0.0054239
0.00542499
0.005426
0.00542694
0.00542781
0.00542861
0.00542933
0.00542998
0.00543056
0.00543109
0.00543156
0.00543197
0.00543234
0.00543266
0.00543295
0.0054332
0.00543342
0.00543361
0.00543377
0.00543392
0.00543404
0.00543414
0.00543423
0.0054343
0.00543436
0.0054344
0.00543443
0.00543446
0.00543447
0.00543447
0.00543446
0.00543443
0.0054344
0.00543436
0.0054343
0.00543423
0.00543414
0.00543404
0.00543392
0.00543377
0.00543361
0.00543342
0.0054332
0.00543295
0.00543266
0.00543234
0.00543197
0.00543156
0.00543109
0.00543056
0.00542998
0.00542933
0.00542861
0.00542781
0.00542694
0.005426
0.00542499
0.0054239
0.00542273
0.00548066
0.00548185
0.00548295
0.00548399
0.00548495
0.00548583
0.00548664
0.00548737
0.00548804
0.00548863
0.00548917
0.00548964
0.00549007
0.00549044
0.00549077
0.00549106
0.00549132
0.00549154
0.00549174
0.0054919
0.00549205
0.00549217
0.00549228
0.00549237
0.00549244
0.0054925
0.00549254
0.00549258
0.0054926
0.00549261
0.00549261
0.0054926
0.00549258
0.00549254
0.0054925
0.00549244
0.00549237
0.00549228
0.00549217
0.00549205
0.0054919
0.00549174
0.00549154
0.00549132
0.00549106
0.00549077
0.00549044
0.00549007
0.00548964
0.00548917
0.00548863
0.00548804
0.00548737
0.00548664
0.00548583
0.00548495
0.00548399
0.00548295
0.00548185
0.00548066
0.0055431
0.00554432
0.00554544
0.0055465
0.00554747
0.00554838
0.0055492
0.00554995
0.00555062
0.00555123
0.00555177
0.00555226
0.00555269
0.00555307
0.00555341
0.00555371
0.00555397
0.00555419
0.00555439
0.00555456
0.00555471
0.00555484
0.00555494
0.00555503
0.00555511
0.00555517
0.00555522
0.00555525
0.00555527
0.00555528
0.00555528
0.00555527
0.00555525
0.00555522
0.00555517
0.00555511
0.00555503
0.00555494
0.00555484
0.00555471
0.00555456
0.00555439
0.00555419
0.00555397
0.00555371
0.00555341
0.00555307
0.00555269
0.00555226
0.00555177
0.00555123
0.00555062
0.00554995
0.0055492
0.00554838
0.00554747
0.0055465
0.00554544
0.00554432
0.0055431
0.00561007
0.00561131
0.00561246
0.00561353
0.00561453
0.00561545
0.00561629
0.00561705
0.00561774
0.00561836
0.00561891
0.00561941
0.00561985
0.00562024
0.00562058
0.00562089
0.00562115
0.00562138
0.00562159
0.00562176
0.00562191
0.00562204
0.00562215
0.00562224
0.00562232
0.00562238
0.00562243
0.00562246
0.00562248
0.00562249
0.00562249
0.00562248
0.00562246
0.00562243
0.00562238
0.00562232
0.00562224
0.00562215
0.00562204
0.00562191
0.00562176
0.00562159
0.00562138
0.00562115
0.00562089
0.00562058
0.00562024
0.00561985
0.00561941
0.00561891
0.00561836
0.00561774
0.00561705
0.00561629
0.00561545
0.00561453
0.00561353
0.00561246
0.00561131
0.00561007
0.00568187
0.00568314
0.00568431
0.0056854
0.00568642
0.00568736
0.00568822
0.00568899
0.0056897
0.00569033
0.0056909
0.0056914
0.00569185
0.00569225
0.0056926
0.00569291
0.00569318
0.00569342
0.00569363
0.00569381
0.00569396
0.00569409
0.0056942
0.0056943
0.00569437
0.00569444
0.00569449
0.00569452
0.00569454
0.00569456
0.00569456
0.00569454
0.00569452
0.00569449
0.00569444
0.00569437
0.0056943
0.0056942
0.00569409
0.00569396
0.00569381
0.00569363
0.00569342
0.00569318
0.00569291
0.0056926
0.00569225
0.00569185
0.0056914
0.0056909
0.00569033
0.0056897
0.00568899
0.00568822
0.00568736
0.00568642
0.0056854
0.00568431
0.00568314
0.00568187
0.00575895
0.00576025
0.00576144
0.00576256
0.0057636
0.00576456
0.00576544
0.00576623
0.00576695
0.0057676
0.00576818
0.0057687
0.00576916
0.00576956
0.00576992
0.00577024
0.00577052
0.00577076
0.00577097
0.00577115
0.00577131
0.00577145
0.00577156
0.00577166
0.00577174
0.0057718
0.00577185
0.00577189
0.00577191
0.00577192
0.00577192
0.00577191
0.00577189
0.00577185
0.0057718
0.00577174
0.00577166
0.00577156
0.00577145
0.00577131
0.00577115
0.00577097
0.00577076
0.00577052
0.00577024
0.00576992
0.00576956
0.00576916
0.0057687
0.00576818
0.0057676
0.00576695
0.00576623
0.00576544
0.00576456
0.0057636
0.00576256
0.00576144
0.00576025
0.00575895
0.00584186
0.00584319
0.00584441
0.00584556
0.00584663
0.00584761
0.00584851
0.00584932
0.00585006
0.00585072
0.00585131
0.00585184
0.00585231
0.00585273
0.0058531
0.00585342
0.00585371
0.00585396
0.00585417
0.00585436
0.00585452
0.00585466
0.00585478
0.00585488
0.00585496
0.00585502
0.00585507
0.00585511
0.00585514
0.00585515
0.00585515
0.00585514
0.00585511
0.00585507
0.00585502
0.00585496
0.00585488
0.00585478
0.00585466
0.00585452
0.00585436
0.00585417
0.00585396
0.00585371
0.00585342
0.0058531
0.00585273
0.00585231
0.00585184
0.00585131
0.00585072
0.00585006
0.00584932
0.00584851
0.00584761
0.00584663
0.00584556
0.00584441
0.00584319
0.00584186
0.00593125
0.00593261
0.00593387
0.00593505
0.00593614
0.00593715
0.00593807
0.0059389
0.00593966
0.00594033
0.00594094
0.00594149
0.00594197
0.0059424
0.00594278
0.00594311
0.0059434
0.00594366
0.00594388
0.00594407
0.00594424
0.00594438
0.0059445
0.0059446
0.00594468
0.00594475
0.0059448
0.00594484
0.00594487
0.00594488
0.00594488
0.00594487
0.00594484
0.0059448
0.00594475
0.00594468
0.0059446
0.0059445
0.00594438
0.00594424
0.00594407
0.00594388
0.00594366
0.0059434
0.00594311
0.00594278
0.0059424
0.00594197
0.00594149
0.00594094
0.00594033
0.00593966
0.0059389
0.00593807
0.00593715
0.00593614
0.00593505
0.00593387
0.00593261
0.00593125
0.00602786
0.00602927
0.00603056
0.00603177
0.00603289
0.00603392
0.00603487
0.00603573
0.0060365
0.0060372
0.00603783
0.00603838
0.00603888
0.00603932
0.00603971
0.00604005
0.00604035
0.00604061
0.00604084
0.00604104
0.00604121
0.00604136
0.00604148
0.00604158
0.00604167
0.00604174
0.00604179
0.00604183
0.00604186
0.00604187
0.00604187
0.00604186
0.00604183
0.00604179
0.00604174
0.00604167
0.00604158
0.00604148
0.00604136
0.00604121
0.00604104
0.00604084
0.00604061
0.00604035
0.00604005
0.00603971
0.00603932
0.00603888
0.00603838
0.00603783
0.0060372
0.0060365
0.00603573
0.00603487
0.00603392
0.00603289
0.00603177
0.00603056
0.00602927
0.00602786
0.00613258
0.00613403
0.00613536
0.0061366
0.00613776
0.00613882
0.0061398
0.00614068
0.00614148
0.0061422
0.00614284
0.00614342
0.00614393
0.00614438
0.00614478
0.00614513
0.00614544
0.00614571
0.00614595
0.00614615
0.00614633
0.00614648
0.0061466
0.00614671
0.0061468
0.00614687
0.00614693
0.00614697
0.00614699
0.00614701
0.00614701
0.00614699
0.00614697
0.00614693
0.00614687
0.0061468
0.00614671
0.0061466
0.00614648
0.00614633
0.00614615
0.00614595
0.00614571
0.00614544
0.00614513
0.00614478
0.00614438
0.00614393
0.00614342
0.00614284
0.0061422
0.00614148
0.00614068
0.0061398
0.00613882
0.00613776
0.0061366
0.00613536
0.00613403
0.00613258
0.00624643
0.00624793
0.0062493
0.00625058
0.00625178
0.00625287
0.00625388
0.00625479
0.00625561
0.00625636
0.00625702
0.00625761
0.00625814
0.00625861
0.00625902
0.00625939
0.00625971
0.00625998
0.00626023
0.00626044
0.00626062
0.00626077
0.00626091
0.00626102
0.00626111
0.00626118
0.00626124
0.00626128
0.00626131
0.00626132
0.00626132
0.00626131
0.00626128
0.00626124
0.00626118
0.00626111
0.00626102
0.00626091
0.00626077
0.00626062
0.00626044
0.00626023
0.00625998
0.00625971
0.00625939
0.00625902
0.00625861
0.00625814
0.00625761
0.00625702
0.00625636
0.00625561
0.00625479
0.00625388
0.00625287
0.00625178
0.00625058
0.0062493
0.00624793
0.00624643
0.00637063
0.00637218
0.0063736
0.00637493
0.00637617
0.0063773
0.00637834
0.00637928
0.00638014
0.0063809
0.00638159
0.00638221
0.00638275
0.00638324
0.00638366
0.00638404
0.00638437
0.00638466
0.00638491
0.00638513
0.00638532
0.00638548
0.00638561
0.00638573
0.00638582
0.0063859
0.00638596
0.006386
0.00638603
0.00638604
0.00638604
0.00638603
0.006386
0.00638596
0.0063859
0.00638582
0.00638573
0.00638561
0.00638548
0.00638532
0.00638513
0.00638491
0.00638466
0.00638437
0.00638404
0.00638366
0.00638324
0.00638275
0.00638221
0.00638159
0.0063809
0.00638014
0.00637928
0.00637834
0.0063773
0.00637617
0.00637493
0.0063736
0.00637218
0.00637063
0.00650664
0.00650825
0.00650973
0.00651111
0.00651239
0.00651356
0.00651464
0.00651562
0.0065165
0.0065173
0.00651801
0.00651865
0.00651922
0.00651972
0.00652016
0.00652055
0.0065209
0.0065212
0.00652146
0.00652168
0.00652188
0.00652205
0.00652219
0.00652231
0.00652241
0.00652248
0.00652255
0.00652259
0.00652262
0.00652264
0.00652264
0.00652262
0.00652259
0.00652255
0.00652248
0.00652241
0.00652231
0.00652219
0.00652205
0.00652188
0.00652168
0.00652146
0.0065212
0.0065209
0.00652055
0.00652016
0.00651972
0.00651922
0.00651865
0.00651801
0.0065173
0.0065165
0.00651562
0.00651464
0.00651356
0.00651239
0.00651111
0.00650973
0.00650825
0.00650664
0.00665621
0.00665789
0.00665942
0.00666086
0.00666219
0.00666342
0.00666454
0.00666556
0.00666648
0.0066673
0.00666805
0.00666871
0.0066693
0.00666982
0.00667029
0.00667069
0.00667105
0.00667136
0.00667163
0.00667187
0.00667207
0.00667225
0.00667239
0.00667252
0.00667262
0.0066727
0.00667277
0.00667281
0.00667284
0.00667286
0.00667286
0.00667284
0.00667281
0.00667277
0.0066727
0.00667262
0.00667252
0.00667239
0.00667225
0.00667207
0.00667187
0.00667163
0.00667136
0.00667105
0.00667069
0.00667029
0.00666982
0.0066693
0.00666871
0.00666805
0.0066673
0.00666648
0.00666556
0.00666454
0.00666342
0.00666219
0.00666086
0.00665942
0.00665789
0.00665621
0.00682146
0.00682322
0.00682482
0.00682632
0.00682771
0.00682899
0.00683016
0.00683123
0.00683219
0.00683305
0.00683383
0.00683452
0.00683514
0.00683568
0.00683617
0.00683659
0.00683697
0.00683729
0.00683758
0.00683782
0.00683803
0.00683822
0.00683837
0.0068385
0.00683861
0.00683869
0.00683876
0.00683881
0.00683884
0.00683886
0.00683886
0.00683884
0.00683881
0.00683876
0.00683869
0.00683861
0.0068385
0.00683837
0.00683822
0.00683803
0.00683782
0.00683758
0.00683729
0.00683697
0.00683659
0.00683617
0.00683568
0.00683514
0.00683452
0.00683383
0.00683305
0.00683219
0.00683123
0.00683016
0.00682899
0.00682771
0.00682632
0.00682482
0.00682322
0.00682146
0.00700502
0.00700686
0.00700854
0.00701011
0.00701157
0.00701291
0.00701414
0.00701525
0.00701626
0.00701717
0.00701798
0.00701871
0.00701936
0.00701993
0.00702044
0.00702088
0.00702128
0.00702162
0.00702192
0.00702218
0.0070224
0.00702259
0.00702275
0.00702289
0.007023
0.00702309
0.00702316
0.00702321
0.00702325
0.00702326
0.00702326
0.00702325
0.00702321
0.00702316
0.00702309
0.007023
0.00702289
0.00702275
0.00702259
0.0070224
0.00702218
0.00702192
0.00702162
0.00702128
0.00702088
0.00702044
0.00701993
0.00701936
0.00701871
0.00701798
0.00701717
0.00701626
0.00701525
0.00701414
0.00701291
0.00701157
0.00701011
0.00700854
0.00700686
0.00700502
0.00721011
0.00721206
0.00721383
0.00721548
0.00721702
0.00721844
0.00721973
0.00722091
0.00722197
0.00722293
0.00722378
0.00722455
0.00722523
0.00722584
0.00722637
0.00722684
0.00722725
0.00722761
0.00722793
0.0072282
0.00722844
0.00722864
0.00722881
0.00722895
0.00722907
0.00722917
0.00722924
0.0072293
0.00722933
0.00722935
0.00722935
0.00722933
0.0072293
0.00722924
0.00722917
0.00722907
0.00722895
0.00722881
0.00722864
0.00722844
0.0072282
0.00722793
0.00722761
0.00722725
0.00722684
0.00722637
0.00722584
0.00722523
0.00722455
0.00722378
0.00722293
0.00722197
0.00722091
0.00721973
0.00721844
0.00721702
0.00721548
0.00721383
0.00721206
0.00721011
0.00744085
0.00744291
0.00744479
0.00744654
0.00744817
0.00744967
0.00745104
0.00745229
0.00745341
0.00745443
0.00745534
0.00745615
0.00745687
0.00745751
0.00745808
0.00745858
0.00745902
0.0074594
0.00745973
0.00746002
0.00746027
0.00746049
0.00746067
0.00746082
0.00746095
0.00746105
0.00746113
0.00746118
0.00746122
0.00746124
0.00746124
0.00746122
0.00746118
0.00746113
0.00746105
0.00746095
0.00746082
0.00746067
0.00746049
0.00746027
0.00746002
0.00745973
0.0074594
0.00745902
0.00745858
0.00745808
0.00745751
0.00745687
0.00745615
0.00745534
0.00745443
0.00745341
0.00745229
0.00745104
0.00744967
0.00744817
0.00744654
0.00744479
0.00744291
0.00744085
0.00770247
0.00770467
0.00770667
0.00770854
0.00771027
0.00771187
0.00771334
0.00771466
0.00771587
0.00771695
0.00771792
0.00771879
0.00771956
0.00772024
0.00772085
0.00772138
0.00772185
0.00772225
0.00772261
0.00772292
0.00772319
0.00772341
0.00772361
0.00772377
0.0077239
0.00772401
0.0077241
0.00772416
0.0077242
0.00772422
0.00772422
0.0077242
0.00772416
0.0077241
0.00772401
0.0077239
0.00772377
0.00772361
0.00772341
0.00772319
0.00772292
0.00772261
0.00772225
0.00772185
0.00772138
0.00772085
0.00772024
0.00771956
0.00771879
0.00771792
0.00771695
0.00771587
0.00771466
0.00771334
0.00771187
0.00771027
0.00770854
0.00770667
0.00770467
0.00770247
0.00800177
0.00800413
0.00800628
0.00800829
0.00801016
0.00801188
0.00801345
0.00801488
0.00801617
0.00801733
0.00801838
0.00801931
0.00802014
0.00802087
0.00802152
0.0080221
0.0080226
0.00802304
0.00802342
0.00802376
0.00802404
0.00802429
0.0080245
0.00802467
0.00802482
0.00802493
0.00802502
0.00802509
0.00802513
0.00802515
0.00802515
0.00802513
0.00802509
0.00802502
0.00802493
0.00802482
0.00802467
0.0080245
0.00802429
0.00802404
0.00802376
0.00802342
0.00802304
0.0080226
0.0080221
0.00802152
0.00802087
0.00802014
0.00801931
0.00801838
0.00801733
0.00801617
0.00801488
0.00801345
0.00801188
0.00801016
0.00800829
0.00800628
0.00800413
0.00800177
0.0083478
0.00835036
0.00835269
0.00835487
0.00835689
0.00835876
0.00836046
0.00836201
0.00836341
0.00836468
0.00836581
0.00836682
0.00836772
0.00836852
0.00836923
0.00836985
0.00837039
0.00837087
0.00837129
0.00837165
0.00837196
0.00837223
0.00837245
0.00837264
0.0083728
0.00837293
0.00837302
0.0083731
0.00837314
0.00837317
0.00837317
0.00837314
0.0083731
0.00837302
0.00837293
0.0083728
0.00837264
0.00837245
0.00837223
0.00837196
0.00837165
0.00837129
0.00837087
0.00837039
0.00836985
0.00836923
0.00836852
0.00836772
0.00836682
0.00836581
0.00836468
0.00836341
0.00836201
0.00836046
0.00835876
0.00835689
0.00835487
0.00835269
0.00835036
0.0083478
0.0087528
0.0087556
0.00875815
0.00876054
0.00876276
0.00876481
0.00876668
0.00876838
0.00876992
0.00877131
0.00877255
0.00877366
0.00877465
0.00877552
0.0087763
0.00877698
0.00877758
0.00877811
0.00877856
0.00877896
0.0087793
0.00877959
0.00877984
0.00878005
0.00878022
0.00878036
0.00878047
0.00878055
0.0087806
0.00878063
0.00878063
0.0087806
0.00878055
0.00878047
0.00878036
0.00878022
0.00878005
0.00877984
0.00877959
0.0087793
0.00877896
0.00877856
0.00877811
0.00877758
0.00877698
0.0087763
0.00877552
0.00877465
0.00877366
0.00877255
0.00877131
0.00876992
0.00876838
0.00876668
0.00876481
0.00876276
0.00876054
0.00875815
0.0087556
0.0087528
0.00923377
0.00923687
0.00923971
0.00924236
0.00924483
0.00924711
0.00924919
0.00925108
0.00925279
0.00925434
0.00925572
0.00925695
0.00925805
0.00925903
0.00925989
0.00926065
0.00926132
0.0092619
0.00926241
0.00926285
0.00926323
0.00926356
0.00926384
0.00926407
0.00926426
0.00926442
0.00926454
0.00926463
0.00926468
0.00926471
0.00926471
0.00926468
0.00926463
0.00926454
0.00926442
0.00926426
0.00926407
0.00926384
0.00926356
0.00926323
0.00926285
0.00926241
0.0092619
0.00926132
0.00926065
0.00925989
0.00925903
0.00925805
0.00925695
0.00925572
0.00925434
0.00925279
0.00925108
0.00924919
0.00924711
0.00924483
0.00924236
0.00923971
0.00923687
0.00923377
0.00981487
0.00981837
0.00982157
0.00982457
0.00982737
0.00982994
0.00983229
0.00983443
0.00983637
0.00983811
0.00983968
0.00984108
0.00984232
0.00984342
0.0098444
0.00984526
0.00984602
0.00984668
0.00984725
0.00984775
0.00984819
0.00984855
0.00984887
0.00984913
0.00984935
0.00984952
0.00984966
0.00984976
0.00984983
0.00984986
0.00984986
0.00984983
0.00984976
0.00984966
0.00984952
0.00984935
0.00984913
0.00984887
0.00984855
0.00984819
0.00984775
0.00984725
0.00984668
0.00984602
0.00984526
0.0098444
0.00984342
0.00984232
0.00984108
0.00983968
0.00983811
0.00983637
0.00983443
0.00983229
0.00982994
0.00982737
0.00982457
0.00982157
0.00981837
0.00981487
0.0105312
0.0105352
0.0105389
0.0105424
0.0105456
0.0105486
0.0105513
0.0105537
0.010556
0.010558
0.0105598
0.0105614
0.0105629
0.0105641
0.0105653
0.0105663
0.0105671
0.0105679
0.0105686
0.0105691
0.0105696
0.0105701
0.0105704
0.0105707
0.010571
0.0105712
0.0105713
0.0105715
0.0105715
0.0105716
0.0105716
0.0105715
0.0105715
0.0105713
0.0105712
0.010571
0.0105707
0.0105704
0.0105701
0.0105696
0.0105691
0.0105686
0.0105679
0.0105671
0.0105663
0.0105653
0.0105641
0.0105629
0.0105614
0.0105598
0.010558
0.010556
0.0105537
0.0105513
0.0105486
0.0105456
0.0105424
0.0105389
0.0105352
0.0105312
0.0114343
0.011439
0.0114433
0.0114474
0.0114512
0.0114547
0.0114579
0.0114609
0.0114635
0.0114659
0.011468
0.0114699
0.0114716
0.0114731
0.0114745
0.0114756
0.0114767
0.0114776
0.0114784
0.0114791
0.0114796
0.0114802
0.0114806
0.0114809
0.0114812
0.0114815
0.0114817
0.0114818
0.0114819
0.0114819
0.0114819
0.0114819
0.0114818
0.0114817
0.0114815
0.0114812
0.0114809
0.0114806
0.0114802
0.0114796
0.0114791
0.0114784
0.0114776
0.0114767
0.0114756
0.0114745
0.0114731
0.0114716
0.0114699
0.011468
0.0114659
0.0114635
0.0114609
0.0114579
0.0114547
0.0114512
0.0114474
0.0114433
0.011439
0.0114343
0.0125989
0.0126046
0.0126099
0.0126148
0.0126194
0.0126237
0.0126276
0.0126311
0.0126343
0.0126372
0.0126398
0.0126421
0.0126442
0.012646
0.0126477
0.0126491
0.0126503
0.0126514
0.0126524
0.0126532
0.0126539
0.0126546
0.0126551
0.0126555
0.0126559
0.0126562
0.0126564
0.0126566
0.0126567
0.0126567
0.0126567
0.0126567
0.0126566
0.0126564
0.0126562
0.0126559
0.0126555
0.0126551
0.0126546
0.0126539
0.0126532
0.0126524
0.0126514
0.0126503
0.0126491
0.0126477
0.012646
0.0126442
0.0126421
0.0126398
0.0126372
0.0126343
0.0126311
0.0126276
0.0126237
0.0126194
0.0126148
0.0126099
0.0126046
0.0125989
0.0141298
0.0141368
0.0141434
0.0141495
0.0141553
0.0141605
0.0141654
0.0141698
0.0141738
0.0141774
0.0141806
0.0141835
0.0141861
0.0141883
0.0141904
0.0141921
0.0141937
0.0141951
0.0141963
0.0141973
0.0141982
0.0141989
0.0141996
0.0142001
0.0142006
0.014201
0.0142012
0.0142014
0.0142016
0.0142017
0.0142017
0.0142016
0.0142014
0.0142012
0.014201
0.0142006
0.0142001
0.0141996
0.0141989
0.0141982
0.0141973
0.0141963
0.0141951
0.0141937
0.0141921
0.0141904
0.0141883
0.0141861
0.0141835
0.0141806
0.0141774
0.0141738
0.0141698
0.0141654
0.0141605
0.0141553
0.0141495
0.0141434
0.0141368
0.0141298
0.0161615
0.0161703
0.0161786
0.0161863
0.0161936
0.0162003
0.0162064
0.0162119
0.016217
0.0162215
0.0162256
0.0162292
0.0162325
0.0162354
0.0162379
0.0162402
0.0162421
0.0162439
0.0162454
0.0162467
0.0162478
0.0162488
0.0162496
0.0162503
0.0162509
0.0162513
0.0162517
0.0162519
0.0162521
0.0162522
0.0162522
0.0162521
0.0162519
0.0162517
0.0162513
0.0162509
0.0162503
0.0162496
0.0162488
0.0162478
0.0162467
0.0162454
0.0162439
0.0162421
0.0162402
0.0162379
0.0162354
0.0162325
0.0162292
0.0162256
0.0162215
0.016217
0.0162119
0.0162064
0.0162003
0.0161936
0.0161863
0.0161786
0.0161703
0.0161615
0.0188437
0.0188548
0.0188653
0.0188751
0.0188843
0.0188927
0.0189005
0.0189075
0.0189139
0.0189197
0.0189248
0.0189295
0.0189336
0.0189372
0.0189405
0.0189433
0.0189458
0.018948
0.0189499
0.0189516
0.018953
0.0189542
0.0189553
0.0189561
0.0189569
0.0189574
0.0189579
0.0189582
0.0189585
0.0189586
0.0189586
0.0189585
0.0189582
0.0189579
0.0189574
0.0189569
0.0189561
0.0189553
0.0189542
0.018953
0.0189516
0.0189499
0.018948
0.0189458
0.0189433
0.0189405
0.0189372
0.0189336
0.0189295
0.0189248
0.0189197
0.0189139
0.0189075
0.0189005
0.0188927
0.0188843
0.0188751
0.0188653
0.0188548
0.0188437
0.0223074
0.0223213
0.0223343
0.0223466
0.0223581
0.0223687
0.0223784
0.0223872
0.0223952
0.0224024
0.0224088
0.0224146
0.0224198
0.0224243
0.0224284
0.0224319
0.0224351
0.0224378
0.0224402
0.0224423
0.0224441
0.0224456
0.0224469
0.022448
0.0224489
0.0224497
0.0224502
0.0224506
0.0224509
0.0224511
0.0224511
0.0224509
0.0224506
0.0224502
0.0224497
0.0224489
0.022448
0.0224469
0.0224456
0.0224441
0.0224423
0.0224402
0.0224378
0.0224351
0.0224319
0.0224284
0.0224243
0.0224198
0.0224146
0.0224088
0.0224024
0.0223952
0.0223872
0.0223784
0.0223687
0.0223581
0.0223466
0.0223343
0.0223213
0.0223074
0.0266209
0.0266379
0.0266538
0.0266688
0.0266828
0.0266957
0.0267075
0.0267183
0.026728
0.0267368
0.0267447
0.0267517
0.026758
0.0267635
0.0267685
0.0267728
0.0267766
0.02678
0.0267829
0.0267854
0.0267876
0.0267895
0.0267911
0.0267924
0.0267935
0.0267944
0.0267951
0.0267956
0.026796
0.0267961
0.0267961
0.026796
0.0267956
0.0267951
0.0267944
0.0267935
0.0267924
0.0267911
0.0267895
0.0267876
0.0267854
0.0267829
0.02678
0.0267766
0.0267728
0.0267685
0.0267635
0.026758
0.0267517
0.0267447
0.0267368
0.026728
0.0267183
0.0267075
0.0266957
0.0266828
0.0266688
0.0266538
0.0266379
0.0266209
0.0317618
0.0317819
0.0318008
0.0318186
0.0318351
0.0318503
0.0318643
0.0318769
0.0318884
0.0318988
0.0319081
0.0319164
0.0319238
0.0319304
0.0319362
0.0319414
0.0319459
0.0319498
0.0319533
0.0319563
0.0319589
0.0319611
0.031963
0.0319645
0.0319658
0.0319669
0.0319677
0.0319683
0.0319687
0.0319689
0.0319689
0.0319687
0.0319683
0.0319677
0.0319669
0.0319658
0.0319645
0.031963
0.0319611
0.0319589
0.0319563
0.0319533
0.0319498
0.0319459
0.0319414
0.0319362
0.0319304
0.0319238
0.0319164
0.0319081
0.0318988
0.0318884
0.0318769
0.0318643
0.0318503
0.0318351
0.0318186
0.0318008
0.0317819
0.0317618
0.0376257
0.0376489
0.0376706
0.037691
0.0377099
0.0377273
0.0377433
0.0377578
0.0377709
0.0377828
0.0377934
0.0378029
0.0378114
0.037819
0.0378256
0.0378315
0.0378367
0.0378412
0.0378452
0.0378486
0.0378516
0.0378541
0.0378563
0.0378581
0.0378596
0.0378608
0.0378617
0.0378624
0.0378629
0.0378631
0.0378631
0.0378629
0.0378624
0.0378617
0.0378608
0.0378596
0.0378581
0.0378563
0.0378541
0.0378516
0.0378486
0.0378452
0.0378412
0.0378367
0.0378315
0.0378256
0.037819
0.0378114
0.0378029
0.0377934
0.0377828
0.0377709
0.0377578
0.0377433
0.0377273
0.0377099
0.037691
0.0376706
0.0376489
0.0376257
0.0440677
0.0440938
0.0441181
0.0441408
0.0441619
0.0441814