/*--------------------------------*- C++ -*----------------------------------*\
| =========                 |                                                 |
| \\      /  F ield         | foam-extend: Open Source CFD                    |
|  \\    /   O peration     | Version:     4.0                                |
|   \\  /    A nd           | Web:         http://www.foam-extend.org         |
|    \\/     M anipulation  |                                                 |
\*---------------------------------------------------------------------------*/
FoamFile
{
    version     2.0;
    format      ascii;
    class       volScalarField;
    location    "1780";
    object      psiE;
}
// * * * * * * * * * * * * * * * * * * * * * * * * * * * * * * * * * * * * * //

dimensions      [0 0 0 0 0 0 0];

internalField   nonuniform List<scalar> 
6960
(
0.335483
0.335488
0.335494
0.335501
0.335507
0.335513
0.335518
0.335523
0.335527
0.335531
0.335535
0.335538
0.335541
0.335543
0.335546
0.335548
0.335549
0.335551
0.335552
0.335553
0.335554
0.335555
0.335556
0.335556
0.335557
0.335557
0.335558
0.335558
0.335558
0.335558
0.335558
0.335558
0.335558
0.335558
0.335557
0.335557
0.335556
0.335556
0.335555
0.335554
0.335553
0.335552
0.335551
0.335549
0.335548
0.335546
0.335543
0.335541
0.335538
0.335535
0.335531
0.335527
0.335523
0.335518
0.335513
0.335507
0.335501
0.335494
0.335488
0.335483
0.838142
0.838163
0.838189
0.838215
0.83824
0.838264
0.838285
0.838305
0.838323
0.838339
0.838353
0.838366
0.838377
0.838388
0.838396
0.838404
0.838411
0.838417
0.838423
0.838427
0.838431
0.838435
0.838438
0.83844
0.838442
0.838444
0.838445
0.838446
0.838446
0.838447
0.838447
0.838446
0.838446
0.838445
0.838444
0.838442
0.83844
0.838438
0.838435
0.838431
0.838427
0.838423
0.838417
0.838411
0.838404
0.838396
0.838388
0.838377
0.838366
0.838353
0.838339
0.838323
0.838305
0.838285
0.838264
0.83824
0.838215
0.838189
0.838163
0.838142
1.29236
1.2924
1.29245
1.2925
1.29255
1.2926
1.29264
1.29268
1.29271
1.29274
1.29277
1.2928
1.29282
1.29284
1.29286
1.29287
1.29289
1.2929
1.29291
1.29292
1.29293
1.29293
1.29294
1.29294
1.29295
1.29295
1.29295
1.29296
1.29296
1.29296
1.29296
1.29296
1.29296
1.29295
1.29295
1.29295
1.29294
1.29294
1.29293
1.29293
1.29292
1.29291
1.2929
1.29289
1.29287
1.29286
1.29284
1.29282
1.2928
1.29277
1.29274
1.29271
1.29268
1.29264
1.2926
1.29255
1.2925
1.29245
1.2924
1.29236
1.73336
1.73343
1.73351
1.73359
1.73367
1.73374
1.73381
1.73387
1.73393
1.73398
1.73402
1.73406
1.7341
1.73413
1.73416
1.73418
1.7342
1.73422
1.73424
1.73425
1.73426
1.73427
1.73428
1.73429
1.7343
1.7343
1.73431
1.73431
1.73431
1.73431
1.73431
1.73431
1.73431
1.73431
1.7343
1.7343
1.73429
1.73428
1.73427
1.73426
1.73425
1.73424
1.73422
1.7342
1.73418
1.73416
1.73413
1.7341
1.73406
1.73402
1.73398
1.73393
1.73387
1.73381
1.73374
1.73367
1.73359
1.73351
1.73343
1.73336
2.17472
2.17481
2.17492
2.17504
2.17515
2.17525
2.17534
2.17543
2.17551
2.17557
2.17564
2.17569
2.17574
2.17579
2.17583
2.17586
2.17589
2.17592
2.17594
2.17596
2.17598
2.17599
2.176
2.17601
2.17602
2.17603
2.17604
2.17604
2.17604
2.17604
2.17604
2.17604
2.17604
2.17604
2.17603
2.17602
2.17601
2.176
2.17599
2.17598
2.17596
2.17594
2.17592
2.17589
2.17586
2.17583
2.17579
2.17574
2.17569
2.17564
2.17557
2.17551
2.17543
2.17534
2.17525
2.17515
2.17504
2.17492
2.17481
2.17472
2.62196
2.62208
2.62222
2.62237
2.62251
2.62265
2.62277
2.62288
2.62298
2.62307
2.62315
2.62322
2.62329
2.62334
2.6234
2.62344
2.62348
2.62351
2.62354
2.62357
2.62359
2.62361
2.62363
2.62364
2.62365
2.62366
2.62367
2.62367
2.62368
2.62368
2.62368
2.62368
2.62367
2.62367
2.62366
2.62365
2.62364
2.62363
2.62361
2.62359
2.62357
2.62354
2.62351
2.62348
2.62344
2.6234
2.62334
2.62329
2.62322
2.62315
2.62307
2.62298
2.62288
2.62277
2.62265
2.62251
2.62237
2.62222
2.62208
2.62196
3.07737
3.07752
3.0777
3.07788
3.07806
3.07822
3.07837
3.07851
3.07863
3.07874
3.07884
3.07893
3.07901
3.07908
3.07915
3.0792
3.07925
3.07929
3.07933
3.07936
3.07939
3.07941
3.07943
3.07945
3.07946
3.07947
3.07948
3.07949
3.07949
3.0795
3.0795
3.07949
3.07949
3.07948
3.07947
3.07946
3.07945
3.07943
3.07941
3.07939
3.07936
3.07933
3.07929
3.07925
3.0792
3.07915
3.07908
3.07901
3.07893
3.07884
3.07874
3.07863
3.07851
3.07837
3.07822
3.07806
3.07788
3.0777
3.07752
3.07737
3.5419
3.54207
3.54229
3.54251
3.54272
3.54291
3.54309
3.54326
3.5434
3.54354
3.54366
3.54377
3.54386
3.54394
3.54402
3.54409
3.54414
3.54419
3.54424
3.54428
3.54431
3.54434
3.54436
3.54438
3.5444
3.54441
3.54442
3.54443
3.54443
3.54444
3.54444
3.54443
3.54443
3.54442
3.54441
3.5444
3.54438
3.54436
3.54434
3.54431
3.54428
3.54424
3.54419
3.54414
3.54409
3.54402
3.54394
3.54386
3.54377
3.54366
3.54354
3.5434
3.54326
3.54309
3.54291
3.54272
3.54251
3.54229
3.54207
3.5419
4.01592
4.01612
4.01637
4.01662
4.01687
4.0171
4.01731
4.0175
4.01767
4.01783
4.01797
4.01809
4.0182
4.0183
4.01839
4.01846
4.01853
4.01859
4.01864
4.01869
4.01872
4.01876
4.01878
4.01881
4.01883
4.01884
4.01886
4.01886
4.01887
4.01887
4.01887
4.01887
4.01886
4.01886
4.01884
4.01883
4.01881
4.01878
4.01876
4.01872
4.01869
4.01864
4.01859
4.01853
4.01846
4.01839
4.0183
4.0182
4.01809
4.01797
4.01783
4.01767
4.0175
4.01731
4.0171
4.01687
4.01662
4.01637
4.01612
4.01592
4.49956
4.49979
4.50008
4.50037
4.50065
4.50091
4.50115
4.50137
4.50156
4.50174
4.5019
4.50204
4.50217
4.50228
4.50238
4.50247
4.50255
4.50261
4.50267
4.50272
4.50277
4.50281
4.50284
4.50286
4.50289
4.5029
4.50292
4.50293
4.50294
4.50294
4.50294
4.50294
4.50293
4.50292
4.5029
4.50289
4.50286
4.50284
4.50281
4.50277
4.50272
4.50267
4.50261
4.50255
4.50247
4.50238
4.50228
4.50217
4.50204
4.5019
4.50174
4.50156
4.50137
4.50115
4.50091
4.50065
4.50037
4.50008
4.49979
4.49956
4.99286
4.99311
4.99343
4.99376
4.99408
4.99437
4.99464
4.99489
4.99511
4.99531
4.99549
4.99565
4.99579
4.99592
4.99603
4.99613
4.99622
4.9963
4.99636
4.99642
4.99647
4.99651
4.99655
4.99658
4.9966
4.99662
4.99664
4.99665
4.99666
4.99666
4.99666
4.99666
4.99665
4.99664
4.99662
4.9966
4.99658
4.99655
4.99651
4.99647
4.99642
4.99636
4.9963
4.99622
4.99613
4.99603
4.99592
4.99579
4.99565
4.99549
4.99531
4.99511
4.99489
4.99464
4.99437
4.99408
4.99376
4.99343
4.99311
4.99286
5.49578
5.49606
5.49642
5.49678
5.49713
5.49746
5.49776
5.49803
5.49828
5.4985
5.4987
5.49888
5.49904
5.49918
5.49931
5.49942
5.49951
5.4996
5.49967
5.49974
5.49979
5.49984
5.49988
5.49991
5.49994
5.49996
5.49998
5.49999
5.5
5.5
5.5
5.5
5.49999
5.49998
5.49996
5.49994
5.49991
5.49988
5.49984
5.49979
5.49974
5.49967
5.4996
5.49951
5.49942
5.49931
5.49918
5.49904
5.49888
5.4987
5.4985
5.49828
5.49803
5.49776
5.49746
5.49713
5.49678
5.49642
5.49606
5.49578
6.00824
6.00855
6.00894
6.00935
6.00973
6.01009
6.01042
6.01073
6.011
6.01124
6.01146
6.01166
6.01184
6.01199
6.01213
6.01225
6.01236
6.01245
6.01253
6.0126
6.01266
6.01271
6.01276
6.01279
6.01283
6.01285
6.01287
6.01288
6.01289
6.0129
6.0129
6.01289
6.01288
6.01287
6.01285
6.01283
6.01279
6.01276
6.01271
6.01266
6.0126
6.01253
6.01245
6.01236
6.01225
6.01213
6.01199
6.01184
6.01166
6.01146
6.01124
6.011
6.01073
6.01042
6.01009
6.00973
6.00935
6.00894
6.00855
6.00824
6.53014
6.53048
6.53091
6.53135
6.53177
6.53217
6.53253
6.53286
6.53315
6.53342
6.53366
6.53388
6.53407
6.53424
6.53439
6.53452
6.53464
6.53474
6.53483
6.53491
6.53497
6.53503
6.53508
6.53512
6.53515
6.53518
6.5352
6.53521
6.53522
6.53523
6.53523
6.53522
6.53521
6.5352
6.53518
6.53515
6.53512
6.53508
6.53503
6.53497
6.53491
6.53483
6.53474
6.53464
6.53452
6.53439
6.53424
6.53407
6.53388
6.53366
6.53342
6.53315
6.53286
6.53253
6.53217
6.53177
6.53135
6.53091
6.53048
6.53014
7.06134
7.0617
7.06217
7.06265
7.0631
7.06353
7.06392
7.06428
7.0646
7.06489
7.06515
7.06539
7.0656
7.06578
7.06594
7.06609
7.06621
7.06632
7.06642
7.0665
7.06657
7.06663
7.06669
7.06673
7.06677
7.0668
7.06682
7.06684
7.06685
7.06685
7.06685
7.06685
7.06684
7.06682
7.0668
7.06677
7.06673
7.06669
7.06663
7.06657
7.0665
7.06642
7.06632
7.06621
7.06609
7.06594
7.06578
7.0656
7.06539
7.06515
7.06489
7.0646
7.06428
7.06392
7.06353
7.0631
7.06265
7.06217
7.0617
7.06134
7.60164
7.60203
7.60253
7.60305
7.60354
7.604
7.60442
7.60481
7.60515
7.60547
7.60575
7.606
7.60623
7.60642
7.6066
7.60675
7.60689
7.60701
7.60711
7.6072
7.60728
7.60735
7.6074
7.60745
7.60749
7.60752
7.60754
7.60756
7.60757
7.60758
7.60758
7.60757
7.60756
7.60754
7.60752
7.60749
7.60745
7.6074
7.60735
7.60728
7.6072
7.60711
7.60701
7.60689
7.60675
7.6066
7.60642
7.60623
7.606
7.60575
7.60547
7.60515
7.60481
7.60442
7.604
7.60354
7.60305
7.60253
7.60203
7.60164
8.15081
8.15123
8.15177
8.15232
8.15285
8.15334
8.15379
8.15421
8.15458
8.15492
8.15522
8.15549
8.15573
8.15594
8.15613
8.15629
8.15644
8.15657
8.15668
8.15677
8.15686
8.15693
8.15699
8.15704
8.15708
8.15711
8.15714
8.15716
8.15717
8.15718
8.15718
8.15717
8.15716
8.15714
8.15711
8.15708
8.15704
8.15699
8.15693
8.15686
8.15677
8.15668
8.15657
8.15644
8.15629
8.15613
8.15594
8.15573
8.15549
8.15522
8.15492
8.15458
8.15421
8.15379
8.15334
8.15285
8.15232
8.15177
8.15123
8.15081
8.70858
8.70903
8.7096
8.71019
8.71075
8.71128
8.71176
8.7122
8.7126
8.71295
8.71328
8.71356
8.71382
8.71405
8.71425
8.71442
8.71458
8.71471
8.71483
8.71494
8.71502
8.7151
8.71516
8.71522
8.71526
8.7153
8.71533
8.71535
8.71536
8.71537
8.71537
8.71536
8.71535
8.71533
8.7153
8.71526
8.71522
8.71516
8.7151
8.71502
8.71494
8.71483
8.71471
8.71458
8.71442
8.71425
8.71405
8.71382
8.71356
8.71328
8.71295
8.7126
8.7122
8.71176
8.71128
8.71075
8.71019
8.7096
8.70903
8.70858
9.2746
9.27508
9.27569
9.27631
9.27691
9.27747
9.27798
9.27844
9.27887
9.27925
9.27959
9.27989
9.28016
9.28041
9.28062
9.28081
9.28097
9.28111
9.28124
9.28135
9.28144
9.28152
9.28159
9.28165
9.2817
9.28173
9.28176
9.28179
9.2818
9.28181
9.28181
9.2818
9.28179
9.28176
9.28173
9.2817
9.28165
9.28159
9.28152
9.28144
9.28135
9.28124
9.28111
9.28097
9.28081
9.28062
9.28041
9.28016
9.27989
9.27959
9.27925
9.27887
9.27844
9.27798
9.27747
9.27691
9.27631
9.27569
9.27508
9.2746
9.84848
9.84899
9.84963
9.85029
9.85092
9.85151
9.85205
9.85254
9.85299
9.85339
9.85375
9.85408
9.85436
9.85462
9.85484
9.85504
9.85521
9.85537
9.8555
9.85561
9.85571
9.8558
9.85587
9.85593
9.85598
9.85602
9.85605
9.85608
9.85609
9.8561
9.8561
9.85609
9.85608
9.85605
9.85602
9.85598
9.85593
9.85587
9.8558
9.85571
9.85561
9.8555
9.85537
9.85521
9.85504
9.85484
9.85462
9.85436
9.85408
9.85375
9.85339
9.85299
9.85254
9.85205
9.85151
9.85092
9.85029
9.84963
9.84899
9.84848
10.4298
10.4303
10.431
10.4317
10.4323
10.4329
10.4335
10.434
10.4345
10.4349
10.4353
10.4356
10.4359
10.4362
10.4364
10.4367
10.4368
10.437
10.4371
10.4373
10.4374
10.4375
10.4375
10.4376
10.4376
10.4377
10.4377
10.4377
10.4378
10.4378
10.4378
10.4378
10.4377
10.4377
10.4377
10.4376
10.4376
10.4375
10.4375
10.4374
10.4373
10.4371
10.437
10.4368
10.4367
10.4364
10.4362
10.4359
10.4356
10.4353
10.4349
10.4345
10.434
10.4335
10.4329
10.4323
10.4317
10.431
10.4303
10.4298
11.0179
11.0184
11.0191
11.0199
11.0206
11.0212
11.0218
11.0223
11.0228
11.0233
11.0237
11.024
11.0244
11.0246
11.0249
11.0251
11.0253
11.0255
11.0256
11.0257
11.0258
11.0259
11.026
11.0261
11.0261
11.0262
11.0262
11.0262
11.0263
11.0263
11.0263
11.0263
11.0262
11.0262
11.0262
11.0261
11.0261
11.026
11.0259
11.0258
11.0257
11.0256
11.0255
11.0253
11.0251
11.0249
11.0246
11.0244
11.024
11.0237
11.0233
11.0228
11.0223
11.0218
11.0212
11.0206
11.0199
11.0191
11.0184
11.0179
11.6122
11.6128
11.6135
11.6143
11.615
11.6157
11.6163
11.6169
11.6174
11.6178
11.6183
11.6186
11.619
11.6193
11.6195
11.6197
11.6199
11.6201
11.6203
11.6204
11.6205
11.6206
11.6207
11.6208
11.6208
11.6209
11.6209
11.6209
11.621
11.621
11.621
11.621
11.6209
11.6209
11.6209
11.6208
11.6208
11.6207
11.6206
11.6205
11.6204
11.6203
11.6201
11.6199
11.6197
11.6195
11.6193
11.619
11.6186
11.6183
11.6178
11.6174
11.6169
11.6163
11.6157
11.615
11.6143
11.6135
11.6128
11.6122
12.212
12.2126
12.2133
12.2141
12.2149
12.2156
12.2162
12.2168
12.2174
12.2179
12.2183
12.2187
12.219
12.2193
12.2196
12.2198
12.22
12.2202
12.2204
12.2205
12.2206
12.2207
12.2208
12.2209
12.221
12.221
12.2211
12.2211
12.2211
12.2211
12.2211
12.2211
12.2211
12.2211
12.221
12.221
12.2209
12.2208
12.2207
12.2206
12.2205
12.2204
12.2202
12.22
12.2198
12.2196
12.2193
12.219
12.2187
12.2183
12.2179
12.2174
12.2168
12.2162
12.2156
12.2149
12.2141
12.2133
12.2126
12.212
12.8164
12.817
12.8178
12.8186
12.8194
12.8201
12.8208
12.8214
12.822
12.8225
12.8229
12.8233
12.8237
12.824
12.8243
12.8245
12.8247
12.8249
12.8251
12.8252
12.8254
12.8255
12.8256
12.8256
12.8257
12.8258
12.8258
12.8258
12.8258
12.8258
12.8258
12.8258
12.8258
12.8258
12.8258
12.8257
12.8256
12.8256
12.8255
12.8254
12.8252
12.8251
12.8249
12.8247
12.8245
12.8243
12.824
12.8237
12.8233
12.8229
12.8225
12.822
12.8214
12.8208
12.8201
12.8194
12.8186
12.8178
12.817
12.8164
13.4244
13.4251
13.4259
13.4267
13.4275
13.4283
13.429
13.4296
13.4302
13.4307
13.4312
13.4316
13.432
13.4323
13.4326
13.4328
13.4331
13.4333
13.4334
13.4336
13.4337
13.4338
13.4339
13.434
13.4341
13.4341
13.4341
13.4342
13.4342
13.4342
13.4342
13.4342
13.4342
13.4341
13.4341
13.4341
13.434
13.4339
13.4338
13.4337
13.4336
13.4334
13.4333
13.4331
13.4328
13.4326
13.4323
13.432
13.4316
13.4312
13.4307
13.4302
13.4296
13.429
13.4283
13.4275
13.4267
13.4259
13.4251
13.4244
14.0349
14.0356
14.0365
14.0373
14.0382
14.039
14.0397
14.0403
14.0409
14.0415
14.0419
14.0424
14.0427
14.0431
14.0434
14.0436
14.0439
14.0441
14.0442
14.0444
14.0445
14.0446
14.0447
14.0448
14.0449
14.0449
14.045
14.045
14.045
14.045
14.045
14.045
14.045
14.045
14.0449
14.0449
14.0448
14.0447
14.0446
14.0445
14.0444
14.0442
14.0441
14.0439
14.0436
14.0434
14.0431
14.0427
14.0424
14.0419
14.0415
14.0409
14.0403
14.0397
14.039
14.0382
14.0373
14.0365
14.0356
14.0349
14.6467
14.6474
14.6483
14.6492
14.65
14.6508
14.6516
14.6522
14.6528
14.6534
14.6539
14.6543
14.6547
14.655
14.6553
14.6556
14.6558
14.6561
14.6562
14.6564
14.6565
14.6566
14.6567
14.6568
14.6569
14.6569
14.657
14.657
14.657
14.657
14.657
14.657
14.657
14.657
14.6569
14.6569
14.6568
14.6567
14.6566
14.6565
14.6564
14.6562
14.6561
14.6558
14.6556
14.6553
14.655
14.6547
14.6543
14.6539
14.6534
14.6528
14.6522
14.6516
14.6508
14.65
14.6492
14.6483
14.6474
14.6467
15.2582
15.2589
15.2598
15.2607
15.2616
15.2624
15.2631
15.2638
15.2644
15.265
15.2655
15.2659
15.2663
15.2667
15.267
15.2673
15.2675
15.2677
15.2679
15.2681
15.2682
15.2683
15.2684
15.2685
15.2686
15.2686
15.2687
15.2687
15.2687
15.2687
15.2687
15.2687
15.2687
15.2687
15.2686
15.2686
15.2685
15.2684
15.2683
15.2682
15.2681
15.2679
15.2677
15.2675
15.2673
15.267
15.2667
15.2663
15.2659
15.2655
15.265
15.2644
15.2638
15.2631
15.2624
15.2616
15.2607
15.2598
15.2589
15.2582
15.8676
15.8683
15.8693
15.8702
15.8711
15.8719
15.8727
15.8734
15.874
15.8746
15.8751
15.8755
15.8759
15.8763
15.8766
15.8769
15.8771
15.8773
15.8775
15.8777
15.8778
15.8779
15.878
15.8781
15.8782
15.8783
15.8783
15.8783
15.8784
15.8784
15.8784
15.8784
15.8783
15.8783
15.8783
15.8782
15.8781
15.878
15.8779
15.8778
15.8777
15.8775
15.8773
15.8771
15.8769
15.8766
15.8763
15.8759
15.8755
15.8751
15.8746
15.874
15.8734
15.8727
15.8719
15.8711
15.8702
15.8693
15.8683
15.8676
16.4731
16.4738
16.4747
16.4757
16.4766
16.4774
16.4782
16.4789
16.4795
16.4801
16.4806
16.4811
16.4815
16.4818
16.4822
16.4824
16.4827
16.4829
16.4831
16.4833
16.4834
16.4835
16.4836
16.4837
16.4838
16.4838
16.4839
16.4839
16.4839
16.4839
16.4839
16.4839
16.4839
16.4839
16.4838
16.4838
16.4837
16.4836
16.4835
16.4834
16.4833
16.4831
16.4829
16.4827
16.4824
16.4822
16.4818
16.4815
16.4811
16.4806
16.4801
16.4795
16.4789
16.4782
16.4774
16.4766
16.4757
16.4747
16.4738
16.4731
17.0722
17.073
17.0739
17.0748
17.0757
17.0766
17.0774
17.0781
17.0787
17.0793
17.0798
17.0803
17.0807
17.081
17.0814
17.0816
17.0819
17.0821
17.0823
17.0825
17.0826
17.0827
17.0828
17.0829
17.083
17.083
17.0831
17.0831
17.0831
17.0831
17.0831
17.0831
17.0831
17.0831
17.083
17.083
17.0829
17.0828
17.0827
17.0826
17.0825
17.0823
17.0821
17.0819
17.0816
17.0814
17.081
17.0807
17.0803
17.0798
17.0793
17.0787
17.0781
17.0774
17.0766
17.0757
17.0748
17.0739
17.073
17.0722
17.6624
17.6631
17.664
17.665
17.6659
17.6667
17.6675
17.6682
17.6688
17.6694
17.6699
17.6704
17.6708
17.6712
17.6715
17.6718
17.672
17.6722
17.6724
17.6726
17.6727
17.6728
17.6729
17.673
17.6731
17.6732
17.6732
17.6732
17.6733
17.6733
17.6733
17.6733
17.6732
17.6732
17.6732
17.6731
17.673
17.6729
17.6728
17.6727
17.6726
17.6724
17.6722
17.672
17.6718
17.6715
17.6712
17.6708
17.6704
17.6699
17.6694
17.6688
17.6682
17.6675
17.6667
17.6659
17.665
17.664
17.6631
17.6624
18.2403
18.2411
18.242
18.2429
18.2438
18.2447
18.2454
18.2461
18.2468
18.2473
18.2478
18.2483
18.2487
18.2491
18.2494
18.2497
18.2499
18.2501
18.2503
18.2505
18.2506
18.2507
18.2508
18.2509
18.251
18.251
18.2511
18.2511
18.2511
18.2512
18.2512
18.2511
18.2511
18.2511
18.251
18.251
18.2509
18.2508
18.2507
18.2506
18.2505
18.2503
18.2501
18.2499
18.2497
18.2494
18.2491
18.2487
18.2483
18.2478
18.2473
18.2468
18.2461
18.2454
18.2447
18.2438
18.2429
18.242
18.2411
18.2403
18.8024
18.8032
18.8041
18.805
18.8059
18.8067
18.8075
18.8081
18.8088
18.8093
18.8098
18.8103
18.8107
18.811
18.8113
18.8116
18.8118
18.8121
18.8122
18.8124
18.8125
18.8127
18.8128
18.8128
18.8129
18.813
18.813
18.813
18.8131
18.8131
18.8131
18.8131
18.813
18.813
18.813
18.8129
18.8128
18.8128
18.8127
18.8125
18.8124
18.8122
18.8121
18.8118
18.8116
18.8113
18.811
18.8107
18.8103
18.8098
18.8093
18.8088
18.8081
18.8075
18.8067
18.8059
18.805
18.8041
18.8032
18.8024
19.3443
19.345
19.3459
19.3468
19.3476
19.3484
19.3492
19.3498
19.3504
19.351
19.3514
19.3519
19.3523
19.3526
19.3529
19.3532
19.3534
19.3536
19.3538
19.3539
19.3541
19.3542
19.3543
19.3544
19.3544
19.3545
19.3545
19.3546
19.3546
19.3546
19.3546
19.3546
19.3546
19.3545
19.3545
19.3544
19.3544
19.3543
19.3542
19.3541
19.3539
19.3538
19.3536
19.3534
19.3532
19.3529
19.3526
19.3523
19.3519
19.3514
19.351
19.3504
19.3498
19.3492
19.3484
19.3476
19.3468
19.3459
19.345
19.3443
19.8606
19.8613
19.8622
19.863
19.8639
19.8646
19.8653
19.8659
19.8665
19.867
19.8675
19.8679
19.8683
19.8686
19.8689
19.8691
19.8694
19.8695
19.8697
19.8699
19.87
19.8701
19.8702
19.8703
19.8703
19.8704
19.8704
19.8705
19.8705
19.8705
19.8705
19.8705
19.8705
19.8704
19.8704
19.8703
19.8703
19.8702
19.8701
19.87
19.8699
19.8697
19.8695
19.8694
19.8691
19.8689
19.8686
19.8683
19.8679
19.8675
19.867
19.8665
19.8659
19.8653
19.8646
19.8639
19.863
19.8622
19.8613
19.8606
20.3454
20.346
20.3468
20.3476
20.3484
20.3491
20.3497
20.3503
20.3509
20.3513
20.3518
20.3521
20.3525
20.3528
20.3531
20.3533
20.3535
20.3537
20.3538
20.354
20.3541
20.3542
20.3543
20.3544
20.3544
20.3545
20.3545
20.3545
20.3546
20.3546
20.3546
20.3546
20.3545
20.3545
20.3545
20.3544
20.3544
20.3543
20.3542
20.3541
20.354
20.3538
20.3537
20.3535
20.3533
20.3531
20.3528
20.3525
20.3521
20.3518
20.3513
20.3509
20.3503
20.3497
20.3491
20.3484
20.3476
20.3468
20.346
20.3454
20.7915
20.7921
20.7928
20.7935
20.7942
20.7949
20.7955
20.796
20.7965
20.7969
20.7973
20.7977
20.798
20.7983
20.7985
20.7987
20.7989
20.7991
20.7992
20.7993
20.7994
20.7995
20.7996
20.7997
20.7997
20.7998
20.7998
20.7998
20.7999
20.7999
20.7999
20.7999
20.7998
20.7998
20.7998
20.7997
20.7997
20.7996
20.7995
20.7994
20.7993
20.7992
20.7991
20.7989
20.7987
20.7985
20.7983
20.798
20.7977
20.7973
20.7969
20.7965
20.796
20.7955
20.7949
20.7942
20.7935
20.7928
20.7921
20.7915
21.1918
21.1924
21.193
21.1936
21.1942
21.1948
21.1953
21.1958
21.1962
21.1966
21.1969
21.1972
21.1975
21.1977
21.198
21.1981
21.1983
21.1984
21.1986
21.1987
21.1988
21.1989
21.1989
21.199
21.199
21.1991
21.1991
21.1991
21.1991
21.1991
21.1991
21.1991
21.1991
21.1991
21.1991
21.199
21.199
21.1989
21.1989
21.1988
21.1987
21.1986
21.1984
21.1983
21.1981
21.198
21.1977
21.1975
21.1972
21.1969
21.1966
21.1962
21.1958
21.1953
21.1948
21.1942
21.1936
21.193
21.1924
21.1918
21.5401
21.5406
21.5411
21.5416
21.5421
21.5426
21.543
21.5434
21.5438
21.5441
21.5444
21.5446
21.5449
21.5451
21.5453
21.5454
21.5456
21.5457
21.5458
21.5459
21.5459
21.546
21.5461
21.5461
21.5462
21.5462
21.5462
21.5462
21.5462
21.5463
21.5463
21.5462
21.5462
21.5462
21.5462
21.5462
21.5461
21.5461
21.546
21.5459
21.5459
21.5458
21.5457
21.5456
21.5454
21.5453
21.5451
21.5449
21.5446
21.5444
21.5441
21.5438
21.5434
21.543
21.5426
21.5421
21.5416
21.5411
21.5406
21.5401
21.8331
21.8335
21.8339
21.8343
21.8347
21.8351
21.8355
21.8358
21.836
21.8363
21.8365
21.8367
21.8369
21.8371
21.8372
21.8373
21.8375
21.8375
21.8376
21.8377
21.8378
21.8378
21.8379
21.8379
21.8379
21.838
21.838
21.838
21.838
21.838
21.838
21.838
21.838
21.838
21.838
21.8379
21.8379
21.8379
21.8378
21.8378
21.8377
21.8376
21.8375
21.8375
21.8373
21.8372
21.8371
21.8369
21.8367
21.8365
21.8363
21.836
21.8358
21.8355
21.8351
21.8347
21.8343
21.8339
21.8335
21.8331
22.0722
22.0724
22.0727
22.0731
22.0734
22.0737
22.0739
22.0742
22.0744
22.0746
22.0747
22.0749
22.075
22.0751
22.0753
22.0753
22.0754
22.0755
22.0756
22.0756
22.0757
22.0757
22.0757
22.0758
22.0758
22.0758
22.0758
22.0758
22.0758
22.0758
22.0758
22.0758
22.0758
22.0758
22.0758
22.0758
22.0758
22.0757
22.0757
22.0757
22.0756
22.0756
22.0755
22.0754
22.0753
22.0753
22.0751
22.075
22.0749
22.0747
22.0746
22.0744
22.0742
22.0739
22.0737
22.0734
22.0731
22.0727
22.0724
22.0722
22.2633
22.2635
22.2637
22.2639
22.2641
22.2643
22.2645
22.2647
22.2649
22.265
22.2651
22.2652
22.2653
22.2654
22.2655
22.2656
22.2656
22.2657
22.2657
22.2658
22.2658
22.2658
22.2659
22.2659
22.2659
22.2659
22.2659
22.2659
22.2659
22.2659
22.2659
22.2659
22.2659
22.2659
22.2659
22.2659
22.2659
22.2659
22.2658
22.2658
22.2658
22.2657
22.2657
22.2656
22.2656
22.2655
22.2654
22.2653
22.2652
22.2651
22.265
22.2649
22.2647
22.2645
22.2643
22.2641
22.2639
22.2637
22.2635
22.2633
22.4155
22.4157
22.4158
22.416
22.4161
22.4163
22.4164
22.4165
22.4166
22.4167
22.4168
22.4169
22.417
22.417
22.4171
22.4171
22.4172
22.4172
22.4173
22.4173
22.4173
22.4173
22.4173
22.4174
22.4174
22.4174
22.4174
22.4174
22.4174
22.4174
22.4174
22.4174
22.4174
22.4174
22.4174
22.4174
22.4174
22.4173
22.4173
22.4173
22.4173
22.4173
22.4172
22.4172
22.4171
22.4171
22.417
22.417
22.4169
22.4168
22.4167
22.4166
22.4165
22.4164
22.4163
22.4161
22.416
22.4158
22.4157
22.4155
22.5386
22.5386
22.5387
22.5388
22.539
22.5391
22.5391
22.5392
22.5393
22.5394
22.5394
22.5395
22.5395
22.5396
22.5396
22.5397
22.5397
22.5397
22.5397
22.5398
22.5398
22.5398
22.5398
22.5398
22.5398
22.5398
22.5398
22.5398
22.5398
22.5398
22.5398
22.5398
22.5398
22.5398
22.5398
22.5398
22.5398
22.5398
22.5398
22.5398
22.5398
22.5397
22.5397
22.5397
22.5397
22.5396
22.5396
22.5395
22.5395
22.5394
22.5394
22.5393
22.5392
22.5391
22.5391
22.539
22.5388
22.5387
22.5386
22.5386
22.6405
22.6406
22.6406
22.6407
22.6408
22.6409
22.6409
22.641
22.641
22.6411
22.6411
22.6412
22.6412
22.6412
22.6413
22.6413
22.6413
22.6413
22.6413
22.6413
22.6414
22.6414
22.6414
22.6414
22.6414
22.6414
22.6414
22.6414
22.6414
22.6414
22.6414
22.6414
22.6414
22.6414
22.6414
22.6414
22.6414
22.6414
22.6414
22.6414
22.6413
22.6413
22.6413
22.6413
22.6413
22.6413
22.6412
22.6412
22.6412
22.6411
22.6411
22.641
22.641
22.6409
22.6409
22.6408
22.6407
22.6406
22.6406
22.6405
22.7276
22.7276
22.7276
22.7277
22.7277
22.7278
22.7278
22.7279
22.7279
22.728
22.728
22.728
22.728
22.728
22.7281
22.7281
22.7281
22.7281
22.7281
22.7281
22.7281
22.7281
22.7281
22.7281
22.7281
22.7281
22.7282
22.7282
22.7282
22.7282
22.7282
22.7282
22.7282
22.7282
22.7281
22.7281
22.7281
22.7281
22.7281
22.7281
22.7281
22.7281
22.7281
22.7281
22.7281
22.7281
22.728
22.728
22.728
22.728
22.728
22.7279
22.7279
22.7278
22.7278
22.7277
22.7277
22.7276
22.7276
22.7276
22.8039
22.8039
22.8039
22.8039
22.804
22.804
22.804
22.8041
22.8041
22.8041
22.8041
22.8042
22.8042
22.8042
22.8042
22.8042
22.8042
22.8042
22.8042
22.8042
22.8042
22.8042
22.8042
22.8042
22.8042
22.8042
22.8042
22.8042
22.8042
22.8042
22.8042
22.8042
22.8042
22.8042
22.8042
22.8042
22.8042
22.8042
22.8042
22.8042
22.8042
22.8042
22.8042
22.8042
22.8042
22.8042
22.8042
22.8042
22.8042
22.8041
22.8041
22.8041
22.8041
22.804
22.804
22.804
22.8039
22.8039
22.8039
22.8039
22.8722
22.8722
22.8722
22.8722
22.8723
22.8723
22.8723
22.8723
22.8723
22.8723
22.8723
22.8724
22.8724
22.8724
22.8724
22.8724
22.8724
22.8724
22.8724
22.8724
22.8724
22.8724
22.8724
22.8724
22.8724
22.8724
22.8724
22.8724
22.8724
22.8724
22.8724
22.8724
22.8724
22.8724
22.8724
22.8724
22.8724
22.8724
22.8724
22.8724
22.8724
22.8724
22.8724
22.8724
22.8724
22.8724
22.8724
22.8724
22.8724
22.8723
22.8723
22.8723
22.8723
22.8723
22.8723
22.8723
22.8722
22.8722
22.8722
22.8722
22.9344
22.9344
22.9344
22.9344
22.9344
22.9344
22.9344
22.9344
22.9344
22.9344
22.9344
22.9344
22.9344
22.9344
22.9345
22.9345
22.9345
22.9345
22.9345
22.9345
22.9345
22.9345
22.9345
22.9345
22.9345
22.9345
22.9345
22.9345
22.9345
22.9345
22.9345
22.9345
22.9345
22.9345
22.9345
22.9345
22.9345
22.9345
22.9345
22.9345
22.9345
22.9345
22.9345
22.9345
22.9345
22.9345
22.9344
22.9344
22.9344
22.9344
22.9344
22.9344
22.9344
22.9344
22.9344
22.9344
22.9344
22.9344
22.9344
22.9344
22.9917
22.9916
22.9916
22.9916
22.9917
22.9917
22.9917
22.9917
22.9917
22.9917
22.9917
22.9917
22.9917
22.9917
22.9917
22.9917
22.9917
22.9917
22.9917
22.9917
22.9917
22.9917
22.9917
22.9917
22.9917
22.9917
22.9917
22.9917
22.9917
22.9917
22.9917
22.9917
22.9917
22.9917
22.9917
22.9917
22.9917
22.9917
22.9917
22.9917
22.9917
22.9917
22.9917
22.9917
22.9917
22.9917
22.9917
22.9917
22.9917
22.9917
22.9917
22.9917
22.9917
22.9917
22.9917
22.9917
22.9916
22.9916
22.9916
22.9917
23.045
23.045
23.045
23.045
23.045
23.045
23.045
23.0449
23.0449
23.0449
23.0449
23.0449
23.0449
23.0449
23.0449
23.0449
23.0449
23.0449
23.0449
23.0449
23.0449
23.0449
23.0449
23.0449
23.0449
23.0449
23.0449
23.0449
23.0449
23.0449
23.0449
23.0449
23.0449
23.0449
23.0449
23.0449
23.0449
23.0449
23.0449
23.0449
23.0449
23.0449
23.0449
23.0449
23.0449
23.0449
23.0449
23.0449
23.0449
23.0449
23.0449
23.0449
23.0449
23.045
23.045
23.045
23.045
23.045
23.045
23.045
23.095
23.095
23.095
23.095
23.095
23.0949
23.0949
23.0949
23.0949
23.0949
23.0949
23.0949
23.0949
23.0949
23.0949
23.0949
23.0949
23.0949
23.0949
23.0949
23.0949
23.0949
23.0949
23.0949
23.0949
23.0949
23.0949
23.0949
23.0949
23.0949
23.0949
23.0949
23.0949
23.0949
23.0949
23.0949
23.0949
23.0949
23.0949
23.0949
23.0949
23.0949
23.0949
23.0949
23.0949
23.0949
23.0949
23.0949
23.0949
23.0949
23.0949
23.0949
23.0949
23.0949
23.0949
23.095
23.095
23.095
23.095
23.095
23.1422
23.1422
23.1422
23.1422
23.1422
23.1422
23.1422
23.1421
23.1421
23.1421
23.1421
23.1421
23.1421
23.1421
23.1421
23.1421
23.1421
23.1421
23.1421
23.1421
23.1421
23.1421
23.1421
23.1421
23.1421
23.1421
23.1421
23.1421
23.1421
23.1421
23.1421
23.1421
23.1421
23.1421
23.1421
23.1421
23.1421
23.1421
23.1421
23.1421
23.1421
23.1421
23.1421
23.1421
23.1421
23.1421
23.1421
23.1421
23.1421
23.1421
23.1421
23.1421
23.1421
23.1422
23.1422
23.1422
23.1422
23.1422
23.1422
23.1422
23.1871
23.1871
23.1871
23.187
23.187
23.187
23.187
23.187
23.187
23.187
23.187
23.1869
23.1869
23.1869
23.1869
23.1869
23.1869
23.1869
23.1869
23.1869
23.1869
23.1869
23.1869
23.1869
23.1869
23.1869
23.1869
23.1869
23.1869
23.1869
23.1869
23.1869
23.1869
23.1869
23.1869
23.1869
23.1869
23.1869
23.1869
23.1869
23.1869
23.1869
23.1869
23.1869
23.1869
23.1869
23.1869
23.1869
23.1869
23.187
23.187
23.187
23.187
23.187
23.187
23.187
23.187
23.1871
23.1871
23.1871
23.2299
23.2299
23.2299
23.2298
23.2298
23.2298
23.2298
23.2298
23.2298
23.2298
23.2297
23.2297
23.2297
23.2297
23.2297
23.2297
23.2297
23.2297
23.2297
23.2297
23.2297
23.2297
23.2297
23.2297
23.2297
23.2297
23.2297
23.2297
23.2297
23.2297
23.2297
23.2297
23.2297
23.2297
23.2297
23.2297
23.2297
23.2297
23.2297
23.2297
23.2297
23.2297
23.2297
23.2297
23.2297
23.2297
23.2297
23.2297
23.2297
23.2297
23.2298
23.2298
23.2298
23.2298
23.2298
23.2298
23.2298
23.2299
23.2299
23.2299
23.2709
23.2709
23.2709
23.2709
23.2709
23.2708
23.2708
23.2708
23.2708
23.2708
23.2708
23.2707
23.2707
23.2707
23.2707
23.2707
23.2707
23.2707
23.2707
23.2707
23.2707
23.2707
23.2707
23.2707
23.2707
23.2707
23.2707
23.2707
23.2707
23.2707
23.2707
23.2707
23.2707
23.2707
23.2707
23.2707
23.2707
23.2707
23.2707
23.2707
23.2707
23.2707
23.2707
23.2707
23.2707
23.2707
23.2707
23.2707
23.2707
23.2708
23.2708
23.2708
23.2708
23.2708
23.2708
23.2709
23.2709
23.2709
23.2709
23.2709
23.3104
23.3104
23.3104
23.3103
23.3103
23.3103
23.3103
23.3103
23.3102
23.3102
23.3102
23.3102
23.3102
23.3102
23.3102
23.3102
23.3102
23.3101
23.3101
23.3101
23.3101
23.3101
23.3101
23.3101
23.3101
23.3101
23.3101
23.3101
23.3101
23.3101
23.3101
23.3101
23.3101
23.3101
23.3101
23.3101
23.3101
23.3101
23.3101
23.3101
23.3101
23.3101
23.3101
23.3102
23.3102
23.3102
23.3102
23.3102
23.3102
23.3102
23.3102
23.3102
23.3103
23.3103
23.3103
23.3103
23.3103
23.3104
23.3104
23.3104
23.3485
23.3485
23.3485
23.3484
23.3484
23.3484
23.3484
23.3484
23.3483
23.3483
23.3483
23.3483
23.3483
23.3483
23.3483
23.3482
23.3482
23.3482
23.3482
23.3482
23.3482
23.3482
23.3482
23.3482
23.3482
23.3482
23.3482
23.3482
23.3482
23.3482
23.3482
23.3482
23.3482
23.3482
23.3482
23.3482
23.3482
23.3482
23.3482
23.3482
23.3482
23.3482
23.3482
23.3482
23.3482
23.3483
23.3483
23.3483
23.3483
23.3483
23.3483
23.3483
23.3484
23.3484
23.3484
23.3484
23.3484
23.3485
23.3485
23.3485
23.3854
23.3854
23.3853
23.3853
23.3853
23.3853
23.3852
23.3852
23.3852
23.3852
23.3852
23.3852
23.3851
23.3851
23.3851
23.3851
23.3851
23.3851
23.3851
23.3851
23.3851
23.3851
23.3851
23.3851
23.3851
23.3851
23.3851
23.3851
23.3851
23.3851
23.3851
23.3851
23.3851
23.3851
23.3851
23.3851
23.3851
23.3851
23.3851
23.3851
23.3851
23.3851
23.3851
23.3851
23.3851
23.3851
23.3851
23.3851
23.3852
23.3852
23.3852
23.3852
23.3852
23.3852
23.3853
23.3853
23.3853
23.3853
23.3854
23.3854
23.4212
23.4212
23.4211
23.4211
23.4211
23.4211
23.421
23.421
23.421
23.421
23.421
23.421
23.4209