/*--------------------------------*- C++ -*----------------------------------*\
| =========                 |                                                 |
| \\      /  F ield         | foam-extend: Open Source CFD                    |
|  \\    /   O peration     | Version:     4.0                                |
|   \\  /    A nd           | Web:         http://www.foam-extend.org         |
|    \\/     M anipulation  |                                                 |
\*---------------------------------------------------------------------------*/
FoamFile
{
    version     2.0;
    format      ascii;
    class       regIOobject;
    location    "12/uniform";
    object      profilingInfo;
}
// * * * * * * * * * * * * * * * * * * * * * * * * * * * * * * * * * * * * * //

profilingInfo
(

    {
        id              11;
        parentId        10;
        description     "Foam::Time::writeObject - outputTime";
        calls           12;
        totalTime       0.417194;
        childTime       0;
        onStack         1;
    }

    {
        id              10;
        parentId        1;
        description     "Foam::Time::writeObject";
        calls           12;
        totalTime       0.417713;
        childTime       0.417194;
        onStack         1;
    }

    {
        id              1;
        description     "application::main";
        calls           1;
        totalTime       1.98569;
        childTime       1.83232;
        onStack         1;
    }

    {
        id              3;
        parentId        2;
        description     "functionObjectList::read";
        calls           1;
        totalTime       3e-06;
        childTime       0;
        onStack         0;
    }

    {
        id              12;
        parentId        1;
        description     "functionObjects_.execute()";
        calls           11;
        totalTime       1.8e-05;
        childTime       0;
        onStack         0;
    }

    {
        id              2;
        parentId        1;
        description     "functionObjects_.start()";
        calls           1;
        totalTime       1.2e-05;
        childTime       3e-06;
        onStack         0;
    }

    {
        id              6;
        parentId        1;
        description     "fvMatrix::solve_cMinus";
        calls           27;
        totalTime       0.476319;
        childTime       0.474988;
        onStack         0;
    }

    {
        id              4;
        parentId        1;
        description     "fvMatrix::solve_cPlus";
        calls           167;
        totalTime       0.754003;
        childTime       0.746946;
        onStack         0;
    }

    {
        id              8;
        parentId        1;
        description     "fvMatrix::solve_psiE";
        calls           13;
        totalTime       0.184253;
        childTime       0.183788;
        onStack         0;
    }

    {
        id              7;
        parentId        6;
        description     "lduMatrix::solver_cMinus";
        calls           27;
        totalTime       0.474988;
        childTime       0;
        onStack         0;
    }

    {
        id              5;
        parentId        4;
        description     "lduMatrix::solver_cPlus";
        calls           167;
        totalTime       0.746946;
        childTime       0;
        onStack         0;
    }

    {
        id              9;
        parentId        8;
        description     "lduMatrix::solver_psiE";
        calls           13;
        totalTime       0.183788;
        childTime       0;
        onStack         0;
    }
);


// ************************************************************************* //
