/*--------------------------------*- C++ -*----------------------------------*\
| =========                 |                                                 |
| \\      /  F ield         | foam-extend: Open Source CFD                    |
|  \\    /   O peration     | Version:     4.0                                |
|   \\  /    A nd           | Web:         http://www.foam-extend.org         |
|    \\/     M anipulation  |                                                 |
\*---------------------------------------------------------------------------*/
FoamFile
{
    version     2.0;
    format      ascii;
    class       volScalarField;
    location    "100";
    object      psiE;
}
// * * * * * * * * * * * * * * * * * * * * * * * * * * * * * * * * * * * * * //

dimensions      [0 0 0 0 0 0 0];

internalField   nonuniform List<scalar> 
6960
(
0.300418
0.300417
0.300415
0.300414
0.300414
0.300413
0.300414
0.300414
0.300415
0.300415
0.300416
0.300417
0.300418
0.300418
0.300419
0.30042
0.300421
0.300421
0.300422
0.300423
0.300423
0.300424
0.300424
0.300425
0.300425
0.300425
0.300426
0.300426
0.300426
0.300426
0.300426
0.300426
0.300426
0.300426
0.300425
0.300425
0.300425
0.300424
0.300424
0.300423
0.300423
0.300422
0.300421
0.300421
0.30042
0.300419
0.300418
0.300418
0.300417
0.300416
0.300415
0.300415
0.300414
0.300414
0.300413
0.300414
0.300414
0.300415
0.300417
0.300418
0.683939
0.68393
0.683922
0.683917
0.683914
0.683914
0.683914
0.683915
0.683916
0.683918
0.68392
0.683922
0.683924
0.683927
0.683929
0.683931
0.683933
0.683936
0.683937
0.683939
0.683941
0.683943
0.683944
0.683945
0.683946
0.683947
0.683948
0.683948
0.683949
0.683949
0.683949
0.683949
0.683948
0.683948
0.683947
0.683946
0.683945
0.683944
0.683943
0.683941
0.683939
0.683937
0.683936
0.683933
0.683931
0.683929
0.683927
0.683924
0.683922
0.68392
0.683918
0.683916
0.683915
0.683914
0.683914
0.683914
0.683917
0.683922
0.68393
0.683939
0.95688
0.956856
0.95684
0.956831
0.956826
0.956825
0.956825
0.956826
0.956828
0.956831
0.956834
0.956838
0.956841
0.956845
0.956849
0.956853
0.956856
0.95686
0.956863
0.956866
0.956869
0.956872
0.956874
0.956876
0.956878
0.956879
0.95688
0.956881
0.956882
0.956882
0.956882
0.956882
0.956881
0.95688
0.956879
0.956878
0.956876
0.956874
0.956872
0.956869
0.956866
0.956863
0.95686
0.956856
0.956853
0.956849
0.956845
0.956841
0.956838
0.956834
0.956831
0.956828
0.956826
0.956825
0.956825
0.956826
0.956831
0.95684
0.956856
0.95688
1.15647
1.15642
1.1564
1.15639
1.15638
1.15638
1.15638
1.15638
1.15638
1.15639
1.15639
1.1564
1.1564
1.15641
1.15641
1.15642
1.15642
1.15643
1.15643
1.15644
1.15644
1.15644
1.15645
1.15645
1.15645
1.15645
1.15646
1.15646
1.15646
1.15646
1.15646
1.15646
1.15646
1.15646
1.15645
1.15645
1.15645
1.15645
1.15644
1.15644
1.15644
1.15643
1.15643
1.15642
1.15642
1.15641
1.15641
1.1564
1.1564
1.15639
1.15639
1.15638
1.15638
1.15638
1.15638
1.15638
1.15639
1.1564
1.15642
1.15647
1.30463
1.30456
1.30453
1.30451
1.30451
1.3045
1.3045
1.30451
1.30451
1.30452
1.30452
1.30453
1.30454
1.30454
1.30455
1.30456
1.30456
1.30457
1.30458
1.30458
1.30459
1.30459
1.3046
1.3046
1.3046
1.30461
1.30461
1.30461
1.30461
1.30461
1.30461
1.30461
1.30461
1.30461
1.30461
1.3046
1.3046
1.3046
1.30459
1.30459
1.30458
1.30458
1.30457
1.30456
1.30456
1.30455
1.30454
1.30454
1.30453
1.30452
1.30452
1.30451
1.30451
1.3045
1.3045
1.30451
1.30451
1.30453
1.30456
1.30463
1.41708
1.41699
1.41696
1.41694
1.41693
1.41693
1.41693
1.41693
1.41694
1.41694
1.41695
1.41696
1.41697
1.41698
1.41699
1.41699
1.417
1.41701
1.41702
1.41703
1.41703
1.41704
1.41704
1.41705
1.41705
1.41706
1.41706
1.41706
1.41706
1.41706
1.41706
1.41706
1.41706
1.41706
1.41706
1.41705
1.41705
1.41704
1.41704
1.41703
1.41703
1.41702
1.41701
1.417
1.41699
1.41699
1.41698
1.41697
1.41696
1.41695
1.41694
1.41694
1.41693
1.41693
1.41693
1.41693
1.41694
1.41696
1.41699
1.41708
1.50522
1.50513
1.50509
1.50507
1.50506
1.50505
1.50506
1.50506
1.50507
1.50508
1.50509
1.5051
1.50511
1.50512
1.50513
1.50514
1.50515
1.50516
1.50517
1.50518
1.50519
1.50519
1.5052
1.50521
1.50521
1.50522
1.50522
1.50522
1.50522
1.50522
1.50522
1.50522
1.50522
1.50522
1.50522
1.50521
1.50521
1.5052
1.50519
1.50519
1.50518
1.50517
1.50516
1.50515
1.50514
1.50513
1.50512
1.50511
1.5051
1.50509
1.50508
1.50507
1.50506
1.50506
1.50505
1.50506
1.50507
1.50509
1.50513
1.50522
1.57692
1.57682
1.57678
1.57675
1.57674
1.57674
1.57674
1.57675
1.57676
1.57677
1.57678
1.57679
1.57681
1.57682
1.57683
1.57685
1.57686
1.57687
1.57688
1.57689
1.5769
1.57691
1.57692
1.57693
1.57693
1.57694
1.57694
1.57694
1.57695
1.57695
1.57695
1.57695
1.57694
1.57694
1.57694
1.57693
1.57693
1.57692
1.57691
1.5769
1.57689
1.57688
1.57687
1.57686
1.57685
1.57683
1.57682
1.57681
1.57679
1.57678
1.57677
1.57676
1.57675
1.57674
1.57674
1.57674
1.57675
1.57678
1.57682
1.57692
1.63731
1.6372
1.63716
1.63713
1.63712
1.63712
1.63713
1.63713
1.63715
1.63716
1.63717
1.63719
1.6372
1.63722
1.63723
1.63725
1.63726
1.63728
1.63729
1.6373
1.63732
1.63733
1.63733
1.63734
1.63735
1.63736
1.63736
1.63736
1.63737
1.63737
1.63737
1.63737
1.63736
1.63736
1.63736
1.63735
1.63734
1.63733
1.63733
1.63732
1.6373
1.63729
1.63728
1.63726
1.63725
1.63723
1.63722
1.6372
1.63719
1.63717
1.63716
1.63715
1.63713
1.63713
1.63712
1.63712
1.63713
1.63716
1.6372
1.63731
1.68965
1.68954
1.68949
1.68946
1.68946
1.68946
1.68946
1.68947
1.68948
1.6895
1.68952
1.68953
1.68955
1.68957
1.68959
1.6896
1.68962
1.68964
1.68965
1.68967
1.68968
1.68969
1.6897
1.68971
1.68972
1.68973
1.68973
1.68974
1.68974
1.68974
1.68974
1.68974
1.68974
1.68973
1.68973
1.68972
1.68971
1.6897
1.68969
1.68968
1.68967
1.68965
1.68964
1.68962
1.6896
1.68959
1.68957
1.68955
1.68953
1.68952
1.6895
1.68948
1.68947
1.68946
1.68946
1.68946
1.68946
1.68949
1.68954
1.68965
1.73601
1.7359
1.73585
1.73583
1.73582
1.73582
1.73583
1.73584
1.73585
1.73587
1.73589
1.73591
1.73593
1.73595
1.73597
1.73599
1.73601
1.73603
1.73605
1.73606
1.73608
1.73609
1.7361
1.73611
1.73612
1.73613
1.73614
1.73614
1.73614
1.73614
1.73614
1.73614
1.73614
1.73614
1.73613
1.73612
1.73611
1.7361
1.73609
1.73608
1.73606
1.73605
1.73603
1.73601
1.73599
1.73597
1.73595
1.73593
1.73591
1.73589
1.73587
1.73585
1.73584
1.73583
1.73582
1.73582
1.73583
1.73585
1.7359
1.73601
1.77777
1.77766
1.7776
1.77758
1.77757
1.77758
1.77758
1.7776
1.77762
1.77764
1.77766
1.77768
1.7777
1.77773
1.77775
1.77777
1.77779
1.77782
1.77783
1.77785
1.77787
1.77789
1.7779
1.77791
1.77792
1.77793
1.77794
1.77794
1.77794
1.77795
1.77795
1.77794
1.77794
1.77794
1.77793
1.77792
1.77791
1.7779
1.77789
1.77787
1.77785
1.77783
1.77782
1.77779
1.77777
1.77775
1.77773
1.7777
1.77768
1.77766
1.77764
1.77762
1.7776
1.77758
1.77758
1.77757
1.77758
1.7776
1.77766
1.77777
1.81587
1.81575
1.8157
1.81568
1.81567
1.81567
1.81568
1.8157
1.81572
1.81574
1.81576
1.81579
1.81582
1.81584
1.81587
1.81589
1.81592
1.81594
1.81596
1.81598
1.816
1.81602
1.81603
1.81605
1.81606
1.81607
1.81608
1.81608
1.81609
1.81609
1.81609
1.81609
1.81608
1.81608
1.81607
1.81606
1.81605
1.81603
1.81602
1.816
1.81598
1.81596
1.81594
1.81592
1.81589
1.81587
1.81584
1.81582
1.81579
1.81576
1.81574
1.81572
1.8157
1.81568
1.81567
1.81567
1.81568
1.8157
1.81575
1.81587
1.85099
1.85087
1.85081
1.85079
1.85078
1.85079
1.8508
1.85082
1.85084
1.85087
1.85089
1.85092
1.85095
1.85098
1.85101
1.85104
1.85107
1.85109
1.85112
1.85114
1.85116
1.85118
1.85119
1.85121
1.85122
1.85123
1.85124
1.85125
1.85125
1.85125
1.85125
1.85125
1.85125
1.85124
1.85123
1.85122
1.85121
1.85119
1.85118
1.85116
1.85114
1.85112
1.85109
1.85107
1.85104
1.85101
1.85098
1.85095
1.85092
1.85089
1.85087
1.85084
1.85082
1.8508
1.85079
1.85078
1.85079
1.85081
1.85087
1.85099
1.88364
1.88352
1.88347
1.88344
1.88344
1.88345
1.88346
1.88348
1.88351
1.88353
1.88356
1.88359
1.88363
1.88366
1.88369
1.88372
1.88375
1.88378
1.88381
1.88383
1.88385
1.88387
1.88389
1.88391
1.88392
1.88394
1.88394
1.88395
1.88396
1.88396
1.88396
1.88396
1.88395
1.88394
1.88394
1.88392
1.88391
1.88389
1.88387
1.88385
1.88383
1.88381
1.88378
1.88375
1.88372
1.88369
1.88366
1.88363
1.88359
1.88356
1.88353
1.88351
1.88348
1.88346
1.88345
1.88344
1.88344
1.88347
1.88352
1.88364
1.91424
1.91412
1.91406
1.91404
1.91404
1.91405
1.91406
1.91409
1.91411
1.91414
1.91418
1.91421
1.91425
1.91428
1.91432
1.91435
1.91438
1.91441
1.91444
1.91447
1.9145
1.91452
1.91454
1.91456
1.91457
1.91458
1.91459
1.9146
1.91461
1.91461
1.91461
1.91461
1.9146
1.91459
1.91458
1.91457
1.91456
1.91454
1.91452
1.9145
1.91447
1.91444
1.91441
1.91438
1.91435
1.91432
1.91428
1.91425
1.91421
1.91418
1.91414
1.91411
1.91409
1.91406
1.91405
1.91404
1.91404
1.91406
1.91412
1.91424
1.9431
1.94299
1.94293
1.94291
1.94291
1.94292
1.94294
1.94296
1.94299
1.94303
1.94306
1.9431
1.94314
1.94318
1.94321
1.94325
1.94329
1.94332
1.94335
1.94338
1.94341
1.94343
1.94346
1.94347
1.94349
1.94351
1.94352
1.94352
1.94353
1.94353
1.94353
1.94353
1.94352
1.94352
1.94351
1.94349
1.94347
1.94346
1.94343
1.94341
1.94338
1.94335
1.94332
1.94329
1.94325
1.94321
1.94318
1.94314
1.9431
1.94306
1.94303
1.94299
1.94296
1.94294
1.94292
1.94291
1.94291
1.94293
1.94299
1.9431
1.97051
1.97039
1.97034
1.97032
1.97032
1.97033
1.97035
1.97038
1.97041
1.97045
1.97049
1.97053
1.97057
1.97061
1.97065
1.97069
1.97073
1.97077
1.9708
1.97083
1.97086
1.97089
1.97091
1.97093
1.97095
1.97097
1.97098
1.97099
1.97099
1.971
1.971
1.97099
1.97099
1.97098
1.97097
1.97095
1.97093
1.97091
1.97089
1.97086
1.97083
1.9708
1.97077
1.97073
1.97069
1.97065
1.97061
1.97057
1.97053
1.97049
1.97045
1.97041
1.97038
1.97035
1.97033
1.97032
1.97032
1.97034
1.97039
1.97051
1.99668
1.99656
1.99651
1.99649
1.99649
1.9965
1.99653
1.99656
1.99659
1.99663
1.99667
1.99672
1.99676
1.99681
1.99685
1.9969
1.99694
1.99698
1.99702
1.99705
1.99708
1.99711
1.99714
1.99716
1.99718
1.9972
1.99721
1.99722
1.99722
1.99723
1.99723
1.99722
1.99722
1.99721
1.9972
1.99718
1.99716
1.99714
1.99711
1.99708
1.99705
1.99702
1.99698
1.99694
1.9969
1.99685
1.99681
1.99676
1.99672
1.99667
1.99663
1.99659
1.99656
1.99653
1.9965
1.99649
1.99649
1.99651
1.99656
1.99668
2.0218
2.02169
2.02163
2.02161
2.02162
2.02163
2.02166
2.02169
2.02173
2.02177
2.02182
2.02187
2.02192
2.02196
2.02201
2.02206
2.0221
2.02215
2.02219
2.02222
2.02226
2.02229
2.02232
2.02234
2.02236
2.02238
2.02239
2.02241
2.02241
2.02242
2.02242
2.02241
2.02241
2.02239
2.02238
2.02236
2.02234
2.02232
2.02229
2.02226
2.02222
2.02219
2.02215
2.0221
2.02206
2.02201
2.02196
2.02192
2.02187
2.02182
2.02177
2.02173
2.02169
2.02166
2.02163
2.02162
2.02161
2.02163
2.02169
2.0218
2.04605
2.04593
2.04588
2.04586
2.04586
2.04588
2.04591
2.04595
2.04599
2.04604
2.04609
2.04614
2.04619
2.04624
2.04629
2.04634
2.04639
2.04644
2.04648
2.04652
2.04656
2.04659
2.04662
2.04665
2.04667
2.04669
2.0467
2.04672
2.04672
2.04673
2.04673
2.04672
2.04672
2.0467
2.04669
2.04667
2.04665
2.04662
2.04659
2.04656
2.04652
2.04648
2.04644
2.04639
2.04634
2.04629
2.04624
2.04619
2.04614
2.04609
2.04604
2.04599
2.04595
2.04591
2.04588
2.04586
2.04586
2.04588
2.04593
2.04605
2.06956
2.06945
2.06939
2.06937
2.06938
2.0694
2.06943
2.06947
2.06952
2.06957
2.06962
2.06967
2.06973
2.06979
2.06984
2.0699
2.06995
2.07
2.07004
2.07009
2.07013
2.07016
2.07019
2.07022
2.07025
2.07027
2.07028
2.07029
2.0703
2.07031
2.07031
2.0703
2.07029
2.07028
2.07027
2.07025
2.07022
2.07019
2.07016
2.07013
2.07009
2.07004
2.07
2.06995
2.0699
2.06984
2.06979
2.06973
2.06967
2.06962
2.06957
2.06952
2.06947
2.06943
2.0694
2.06938
2.06937
2.06939
2.06945
2.06956
2.09246
2.09235
2.0923
2.09228
2.09229
2.09231
2.09234
2.09239
2.09244
2.09249
2.09255
2.09261
2.09267
2.09273
2.09279
2.09284
2.0929
2.09295
2.093
2.09305
2.09309
2.09313
2.09316
2.09319
2.09322
2.09324
2.09325
2.09327
2.09328
2.09328
2.09328
2.09328
2.09327
2.09325
2.09324
2.09322
2.09319
2.09316
2.09313
2.09309
2.09305
2.093
2.09295
2.0929
2.09284
2.09279
2.09273
2.09267
2.09261
2.09255
2.09249
2.09244
2.09239
2.09234
2.09231
2.09229
2.09228
2.0923
2.09235
2.09246
2.11487
2.11476
2.11471
2.11469
2.1147
2.11473
2.11477
2.11481
2.11486
2.11492
2.11498
2.11504
2.11511
2.11517
2.11524
2.1153
2.11536
2.11541
2.11546
2.11551
2.11556
2.1156
2.11564
2.11567
2.11569
2.11572
2.11574
2.11575
2.11576
2.11576
2.11576
2.11576
2.11575
2.11574
2.11572
2.11569
2.11567
2.11564
2.1156
2.11556
2.11551
2.11546
2.11541
2.11536
2.1153
2.11524
2.11517
2.11511
2.11504
2.11498
2.11492
2.11486
2.11481
2.11477
2.11473
2.1147
2.11469
2.11471
2.11476
2.11487
2.13689
2.13678
2.13673
2.13672
2.13673
2.13676
2.1368
2.13685
2.1369
2.13696
2.13703
2.13709
2.13716
2.13723
2.1373
2.13736
2.13743
2.13749
2.13754
2.13759
2.13764
2.13768
2.13772
2.13776
2.13779
2.13781
2.13783
2.13784
2.13785
2.13786
2.13786
2.13785
2.13784
2.13783
2.13781
2.13779
2.13776
2.13772
2.13768
2.13764
2.13759
2.13754
2.13749
2.13743
2.13736
2.1373
2.13723
2.13716
2.13709
2.13703
2.13696
2.1369
2.13685
2.1368
2.13676
2.13673
2.13672
2.13673
2.13678
2.13689
2.15861
2.15851
2.15846
2.15845
2.15846
2.15849
2.15853
2.15858
2.15864
2.15871
2.15878
2.15885
2.15892
2.15899
2.15906
2.15913
2.1592
2.15926
2.15932
2.15938
2.15943
2.15947
2.15952
2.15955
2.15958
2.15961
2.15963
2.15964
2.15965
2.15966
2.15966
2.15965
2.15964
2.15963
2.15961
2.15958
2.15955
2.15952
2.15947
2.15943
2.15938
2.15932
2.15926
2.1592
2.15913
2.15906
2.15899
2.15892
2.15885
2.15878
2.15871
2.15864
2.15858
2.15853
2.15849
2.15846
2.15845
2.15846
2.15851
2.15861
2.18012
2.18002
2.17997
2.17996
2.17997
2.18001
2.18005
2.18011
2.18017
2.18024
2.18032
2.18039
2.18047
2.18055
2.18062
2.18069
2.18077
2.18083
2.1809
2.18095
2.18101
2.18106
2.1811
2.18114
2.18117
2.1812
2.18122
2.18124
2.18125
2.18125
2.18125
2.18125
2.18124
2.18122
2.1812
2.18117
2.18114
2.1811
2.18106
2.18101
2.18095
2.1809
2.18083
2.18077
2.18069
2.18062
2.18055
2.18047
2.18039
2.18032
2.18024
2.18017
2.18011
2.18005
2.18001
2.17997
2.17996
2.17997
2.18002
2.18012
2.20149
2.2014
2.20135
2.20134
2.20136
2.20139
2.20144
2.2015
2.20157
2.20164
2.20172
2.2018
2.20188
2.20197
2.20205
2.20212
2.2022
2.20227
2.20234
2.2024
2.20245
2.20251
2.20255
2.20259
2.20263
2.20266
2.20268
2.2027
2.20271
2.20271
2.20271
2.20271
2.2027
2.20268
2.20266
2.20263
2.20259
2.20255
2.20251
2.20245
2.2024
2.20234
2.20227
2.2022
2.20212
2.20205
2.20197
2.20188
2.2018
2.20172
2.20164
2.20157
2.2015
2.20144
2.20139
2.20136
2.20134
2.20135
2.2014
2.20149
2.22281
2.22272
2.22267
2.22266
2.22268
2.22272
2.22277
2.22284
2.22291
2.22299
2.22307
2.22315
2.22324
2.22333
2.22341
2.22349
2.22357
2.22365
2.22372
2.22378
2.22384
2.2239
2.22395
2.22399
2.22403
2.22406
2.22408
2.2241
2.22411
2.22412
2.22412
2.22411
2.2241
2.22408
2.22406
2.22403
2.22399
2.22395
2.2239
2.22384
2.22378
2.22372
2.22365
2.22357
2.22349
2.22341
2.22333
2.22324
2.22315
2.22307
2.22299
2.22291
2.22284
2.22277
2.22272
2.22268
2.22266
2.22267
2.22272
2.22281
2.24413
2.24404
2.244
2.24399
2.24401
2.24406
2.24411
2.24418
2.24425
2.24434
2.24442
2.24451
2.24461
2.2447
2.24479
2.24487
2.24496
2.24503
2.24511
2.24518
2.24524
2.2453
2.24535
2.24539
2.24543
2.24547
2.24549
2.24551
2.24552
2.24553
2.24553
2.24552
2.24551
2.24549
2.24547
2.24543
2.24539
2.24535
2.2453
2.24524
2.24518
2.24511
2.24503
2.24496
2.24487
2.24479
2.2447
2.24461
2.24451
2.24442
2.24434
2.24425
2.24418
2.24411
2.24406
2.24401
2.24399
2.244
2.24404
2.24413
2.26552
2.26544
2.26539
2.26539
2.26542
2.26546
2.26552
2.26559
2.26567
2.26576
2.26585
2.26595
2.26604
2.26614
2.26623
2.26632
2.26641
2.26649
2.26657
2.26665
2.26671
2.26677
2.26683
2.26687
2.26691
2.26695
2.26698
2.267
2.26701
2.26702
2.26702
2.26701
2.267
2.26698
2.26695
2.26691
2.26687
2.26683
2.26677
2.26671
2.26665
2.26657
2.26649
2.26641
2.26632
2.26623
2.26614
2.26604
2.26595
2.26585
2.26576
2.26567
2.26559
2.26552
2.26546
2.26542
2.26539
2.26539
2.26544
2.26552
2.28704
2.28696
2.28692
2.28692
2.28695
2.28699
2.28706
2.28713
2.28722
2.28731
2.28741
2.28751
2.28761
2.28771
2.28781
2.28791
2.288
2.28809
2.28817
2.28825
2.28832
2.28838
2.28844
2.28849
2.28853
2.28856
2.28859
2.28861
2.28863
2.28864
2.28864
2.28863
2.28861
2.28859
2.28856
2.28853
2.28849
2.28844
2.28838
2.28832
2.28825
2.28817
2.28809
2.288
2.28791
2.28781
2.28771
2.28761
2.28751
2.28741
2.28731
2.28722
2.28713
2.28706
2.28699
2.28695
2.28692
2.28692
2.28696
2.28704
2.30875
2.30867
2.30863
2.30864
2.30867
2.30872
2.30878
2.30886
2.30895
2.30905
2.30915
2.30926
2.30936
2.30947
2.30958
2.30968
2.30977
2.30987
2.30995
2.31003
2.31011
2.31017
2.31023
2.31029
2.31033
2.31037
2.3104
2.31042
2.31044
2.31044
2.31044
2.31044
2.31042
2.3104
2.31037
2.31033
2.31029
2.31023
2.31017
2.31011
2.31003
2.30995
2.30987
2.30977
2.30968
2.30958
2.30947
2.30936
2.30926
2.30915
2.30905
2.30895
2.30886
2.30878
2.30872
2.30867
2.30864
2.30863
2.30867
2.30875
2.3307
2.33062
2.33059
2.33059
2.33062
2.33068
2.33075
2.33083
2.33093
2.33103
2.33114
2.33125
2.33136
2.33147
2.33158
2.33169
2.33179
2.33189
2.33198
2.33206
2.33214
2.33221
2.33227
2.33233
2.33238
2.33242
2.33245
2.33247
2.33249
2.33249
2.33249
2.33249
2.33247
2.33245
2.33242
2.33238
2.33233
2.33227
2.33221
2.33214
2.33206
2.33198
2.33189
2.33179
2.33169
2.33158
2.33147
2.33136
2.33125
2.33114
2.33103
2.33093
2.33083
2.33075
2.33068
2.33062
2.33059
2.33059
2.33062
2.3307
2.35293
2.35286
2.35283
2.35283
2.35287
2.35293
2.353
2.35309
2.35319
2.3533
2.35341
2.35353
2.35365
2.35376
2.35388
2.35399
2.3541
2.3542
2.3543
2.35439
2.35447
2.35454
2.35461
2.35466
2.35471
2.35476
2.35479
2.35481
2.35483
2.35484
2.35484
2.35483
2.35481
2.35479
2.35476
2.35471
2.35466
2.35461
2.35454
2.35447
2.35439
2.3543
2.3542
2.3541
2.35399
2.35388
2.35376
2.35365
2.35353
2.35341
2.3533
2.35319
2.35309
2.353
2.35293
2.35287
2.35283
2.35283
2.35286
2.35293
2.3755
2.37543
2.37541
2.37541
2.37545
2.37551
2.37559
2.37569
2.37579
2.37591
2.37603
2.37615
2.37627
2.3764
2.37652
2.37663
2.37675
2.37685
2.37695
2.37705
2.37713
2.37721
2.37728
2.37734
2.37739
2.37743
2.37747
2.3775
2.37751
2.37752
2.37752
2.37751
2.3775
2.37747
2.37743
2.37739
2.37734
2.37728
2.37721
2.37713
2.37705
2.37695
2.37685
2.37675
2.37663
2.37652
2.3764
2.37627
2.37615
2.37603
2.37591
2.37579
2.37569
2.37559
2.37551
2.37545
2.37541
2.37541
2.37543
2.3755
2.39846
2.39839
2.39837
2.39838
2.39842
2.39849
2.39857
2.39867
2.39878
2.3989
2.39902
2.39915
2.39928
2.39941
2.39954
2.39966
2.39978
2.39989
2.4
2.40009
2.40018
2.40027
2.40034
2.4004
2.40046
2.4005
2.40054
2.40057
2.40058
2.40059
2.40059
2.40058
2.40057
2.40054
2.4005
2.40046
2.4004
2.40034
2.40027
2.40018
2.40009
2.4
2.39989
2.39978
2.39966
2.39954
2.39941
2.39928
2.39915
2.39902
2.3989
2.39878
2.39867
2.39857
2.39849
2.39842
2.39838
2.39837
2.39839
2.39846
2.42184
2.42178
2.42176
2.42177
2.42182
2.42189
2.42197
2.42208
2.42219
2.42232
2.42245
2.42259
2.42272
2.42286
2.42299
2.42312
2.42324
2.42336
2.42347
2.42357
2.42367
2.42375
2.42383
2.42389
2.42395
2.424
2.42404
2.42407
2.42408
2.42409
2.42409
2.42408
2.42407
2.42404
2.424
2.42395
2.42389
2.42383
2.42375
2.42367
2.42357
2.42347
2.42336
2.42324
2.42312
2.42299
2.42286
2.42272
2.42259
2.42245
2.42232
2.42219
2.42208
2.42197
2.42189
2.42182
2.42177
2.42176
2.42178
2.42184
2.44569
2.44563
2.44561
2.44563
2.44568
2.44575
2.44585
2.44596
2.44608
2.44621
2.44635
2.44649
2.44663
2.44677
2.44691
2.44705
2.44718
2.4473
2.44742
2.44752
2.44762
2.44771
2.44779
2.44786
2.44792
2.44797
2.44801
2.44804
2.44806
2.44807
2.44807
2.44806
2.44804
2.44801
2.44797
2.44792
2.44786
2.44779
2.44771
2.44762
2.44752
2.44742
2.4473
2.44718
2.44705
2.44691
2.44677
2.44663
2.44649
2.44635
2.44621
2.44608
2.44596
2.44585
2.44575
2.44568
2.44563
2.44561
2.44563
2.44569
2.47005
2.47
2.46998
2.47
2.47006
2.47013
2.47023
2.47035
2.47048
2.47061
2.47076
2.4709
2.47105
2.4712
2.47135
2.47149
2.47163
2.47175
2.47187
2.47199
2.47209
2.47218
2.47226
2.47234
2.4724
2.47245
2.47249
2.47253
2.47255
2.47256
2.47256
2.47255
2.47253
2.47249
2.47245
2.4724
2.47234
2.47226
2.47218
2.47209
2.47199
2.47187
2.47175
2.47163
2.47149
2.47135
2.4712
2.47105
2.4709
2.47076
2.47061
2.47048
2.47035
2.47023
2.47013
2.47006
2.47
2.46998
2.47
2.47005
2.49495
2.49491
2.4949
2.49492
2.49498
2.49506
2.49517
2.49529
2.49542
2.49557
2.49572
2.49587
2.49603
2.49618
2.49634
2.49648
2.49663
2.49676
2.49689
2.497
2.49711
2.49721
2.49729
2.49737
2.49743
2.49749
2.49753
2.49757
2.49759
2.4976
2.4976
2.49759
2.49757
2.49753
2.49749
2.49743
2.49737
2.49729
2.49721
2.49711
2.497
2.49689
2.49676
2.49663
2.49648
2.49634
2.49618
2.49603
2.49587
2.49572
2.49557
2.49542
2.49529
2.49517
2.49506
2.49498
2.49492
2.4949
2.49491
2.49495
2.52045
2.52041
2.5204
2.52043
2.52049
2.52058
2.52069
2.52082
2.52096
2.52111
2.52127
2.52143
2.52159
2.52175
2.52191
2.52207
2.52222
2.52236
2.52249
2.52261
2.52272
2.52282
2.52291
2.52299
2.52306
2.52312
2.52316
2.5232
2.52322
2.52323
2.52323
2.52322
2.5232
2.52316
2.52312
2.52306
2.52299
2.52291
2.52282
2.52272
2.52261
2.52249
2.52236
2.52222
2.52207
2.52191
2.52175
2.52159
2.52143
2.52127
2.52111
2.52096
2.52082
2.52069
2.52058
2.52049
2.52043
2.5204
2.52041
2.52045
2.54657
2.54654
2.54653
2.54656
2.54663
2.54672
2.54684
2.54697
2.54712
2.54727
2.54744
2.54761
2.54778
2.54795
2.54812
2.54828
2.54843
2.54858
2.54872
2.54884
2.54896
2.54907
2.54916
2.54924
2.54932
2.54938
2.54942
2.54946
2.54948
2.54949
2.54949
2.54948
2.54946
2.54942
2.54938
2.54932
2.54924
2.54916
2.54907
2.54896
2.54884
2.54872
2.54858
2.54843
2.54828
2.54812
2.54795
2.54778
2.54761
2.54744
2.54727
2.54712
2.54697
2.54684
2.54672
2.54663
2.54656
2.54653
2.54654
2.54657
2.57335
2.57332
2.57332
2.57336
2.57343
2.57353
2.57365
2.57379
2.57394
2.5741
2.57428
2.57445
2.57463
2.57481
2.57498
2.57515
2.57531
2.57547
2.57561
2.57574
2.57587
2.57598
2.57608
2.57616
2.57624
2.5763
2.57635
2.57638
2.57641
2.57642
2.57642
2.57641
2.57638
2.57635
2.5763
2.57624
2.57616
2.57608
2.57598
2.57587
2.57574
2.57561
2.57547
2.57531
2.57515
2.57498
2.57481
2.57463
2.57445
2.57428
2.5741
2.57394
2.57379
2.57365
2.57353
2.57343
2.57336
2.57332
2.57332
2.57335
2.60083
2.6008
2.60081
2.60085
2.60092
2.60103
2.60115
2.6013
2.60146
2.60163
2.60181
2.602
2.60218
2.60237
2.60255
2.60273
2.6029
2.60305
2.6032
2.60334
2.60347
2.60359
2.60369
2.60378
2.60386
2.60392
2.60397
2.60401
2.60404
2.60405
2.60405
2.60404
2.60401
2.60397
2.60392
2.60386
2.60378
2.60369
2.60359
2.60347
2.60334
2.6032
2.60305
2.6029
2.60273
2.60255
2.60237
2.60218
2.602
2.60181
2.60163
2.60146
2.6013
2.60115
2.60103
2.60092
2.60085
2.60081
2.6008
2.60083
2.62904
2.62901
2.62902
2.62907
2.62915
2.62926
2.62939
2.62954
2.62971
2.62989
2.63008
2.63027
2.63047
2.63066
2.63085
2.63103
2.63121
2.63138
2.63153
2.63168
2.63181
2.63193
2.63204
2.63213
2.63221
2.63228
2.63233
2.63237
2.6324
2.63241
2.63241
2.6324
2.63237
2.63233
2.63228
2.63221
2.63213
2.63204
2.63193
2.63181
2.63168
2.63153
2.63138
2.63121
2.63103
2.63085
2.63066
2.63047
2.63027
2.63008
2.62989
2.62971
2.62954
2.62939
2.62926
2.62915
2.62907
2.62902
2.62901
2.62904
2.65801
2.65799
2.658
2.65806
2.65814
2.65825
2.65839
2.65855
2.65873
2.65892
2.65912
2.65932
2.65952
2.65972
2.65992
2.66011
2.66029
2.66047
2.66063
2.66078
2.66092
2.66105
2.66116
2.66126
2.66134
2.66141
2.66147
2.66151
2.66153
2.66155
2.66155
2.66153
2.66151
2.66147
2.66141
2.66134
2.66126
2.66116
2.66105
2.66092
2.66078
2.66063
2.66047
2.66029
2.66011
2.65992
2.65972
2.65952
2.65932
2.65912
2.65892
2.65873
2.65855
2.65839
2.65825
2.65814
2.65806
2.658
2.65799
2.65801
2.68778
2.68777
2.68779
2.68784
2.68793
2.68805
2.6882
2.68837
2.68855
2.68875
2.68895
2.68916
2.68937
2.68959
2.68979
2.68999
2.69018
2.69036
2.69053
2.69069
2.69083
2.69096
2.69108
2.69118
2.69127
2.69134
2.6914
2.69144
2.69147
2.69149
2.69149
2.69147
2.69144
2.6914
2.69134
2.69127
2.69118
2.69108
2.69096
2.69083
2.69069
2.69053
2.69036
2.69018
2.68999
2.68979
2.68959
2.68937
2.68916
2.68895
2.68875
2.68855
2.68837
2.6882
2.68805
2.68793
2.68784
2.68779
2.68777
2.68778
2.71839
2.71838
2.7184
2.71846
2.71856
2.71868
2.71884
2.71901
2.7192
2.71941
2.71962
2.71984
2.72006
2.72028
2.7205
2.72071
2.72091
2.72109
2.72127
2.72143
2.72158
2.72172
2.72184
2.72195
2.72204
2.72211
2.72218
2.72222
2.72225
2.72227
2.72227
2.72225
2.72222
2.72218
2.72211
2.72204
2.72195
2.72184
2.72172
2.72158
2.72143
2.72127
2.72109
2.72091
2.72071
2.7205
2.72028
2.72006
2.71984
2.71962
2.71941
2.7192
2.71901
2.71884
2.71868
2.71856
2.71846
2.7184
2.71838
2.71839
2.74986
2.74985
2.74988
2.74995
2.75005
2.75018
2.75034
2.75052
2.75073
2.75094
2.75116
2.75139
2.75162
2.75185
2.75208
2.75229
2.7525
2.7527
2.75288
2.75305
2.75321
2.75335
2.75347
2.75358
2.75368
2.75376
2.75382
2.75387
2.7539
2.75392
2.75392
2.7539
2.75387
2.75382
2.75376
2.75368
2.75358
2.75347
2.75335
2.75321
2.75305
2.75288
2.7527
2.7525
2.75229
2.75208
2.75185
2.75162
2.75139
2.75116
2.75094
2.75073
2.75052
2.75034
2.75018
2.75005
2.74995
2.74988
2.74985
2.74986
2.78223
2.78223
2.78226
2.78233
2.78244
2.78258
2.78275
2.78294
2.78315
2.78337
2.78361
2.78385
2.78409
2.78432
2.78456
2.78478
2.785
2.7852
2.78539
2.78557
2.78573
2.78588
2.78601
2.78613
2.78623
2.78631
2.78637
2.78642
2.78646
2.78647
2.78647
2.78646
2.78642
2.78637
2.78631
2.78623
2.78613
2.78601
2.78588
2.78573
2.78557
2.78539
2.7852
2.785
2.78478
2.78456
2.78432
2.78409
2.78385
2.78361
2.78337
2.78315
2.78294
2.78275
2.78258
2.78244
2.78233
2.78226
2.78223
2.78223
2.81553
2.81554
2.81557
2.81565
2.81576
2.81591
2.81609
2.81629
2.81651
2.81674
2.81699
2.81723
2.81748
2.81773
2.81798
2.81821
2.81844
2.81865
2.81885
2.81903
2.8192
2.81935
2.81949
2.81961
2.81971
2.8198
2.81987
2.81992
2.81995
2.81997
2.81997
2.81995
2.81992
2.81987
2.8198
2.81971
2.81961
2.81949
2.81935
2.8192
2.81903
2.81885
2.81865
2.81844
2.81821
2.81798
2.81773
2.81748
2.81723
2.81699
2.81674
2.81651
2.81629
2.81609
2.81591
2.81576
2.81565
2.81557
2.81554
2.81553
2.8498
2.84981
2.84986
2.84994
2.85006
2.85021
2.8504
2.85061
2.85084
2.85108
2.85133
2.85159
2.85185
2.85211
2.85236
2.85261
2.85284
2.85306
2.85327
2.85346
2.85364
2.8538
2.85394
2.85406
2.85417
2.85426
2.85433
2.85438
2.85442
2.85444
2.85444
2.85442
2.85438
2.85433
2.85426
2.85417
2.85406
2.85394
2.8538
2.85364
2.85346
2.85327
2.85306
2.85284
2.85261
2.85236
2.85211
2.85185
2.85159
2.85133
2.85108
2.85084
2.85061
2.8504
2.85021
2.85006
2.84994
2.84986
2.84981
2.8498
2.88508
2.88509
2.88514
2.88523
2.88535
2.88552
2.88571
2.88593
2.88617
2.88642
2.88669
2.88696
2.88723
2.8875
2.88776
2.88801
2.88826
2.88849
2.8887
2.8889
2.88909
2.88925
2.8894
2.88953
2.88964
2.88973
2.8898
2.88986
2.8899
2.88991
2.88991
2.8899
2.88986
2.8898
2.88973
2.88964
2.88953
2.8894
2.88925
2.88909
2.8889
2.8887
2.88849
2.88826
2.88801
2.88776
2.8875
2.88723
2.88696
2.88669
2.88642
2.88617
2.88593
2.88571
2.88552
2.88535
2.88523
2.88514
2.88509
2.88508
2.92138
2.9214
2.92145
2.92155
2.92168
2.92185
2.92206
2.92228
2.92253
2.9228
2.92308
2.92336
2.92364
2.92392
2.92419
2.92446
2.92471
2.92495
2.92518
2.92538
2.92557
2.92574
2.9259
2.92603
2.92615
2.92624
2.92632
2.92638
2.92641
2.92643
2.92643
2.92641
2.92638
2.92632
2.92624
2.92615
2.92603
2.9259
2.92574
2.92557
2.92538
2.92518
2.92495
2.92471
2.92446
2.92419
2.92392
2.92364
2.92336
2.92308
2.9228
2.92253
2.92228
2.92206
2.92185
2.92168
2.92155
2.92145
2.9214
2.92138
2.95876
2.95878
2.95884
2.95894
2.95908
2.95926
2.95947
2.95971
2.95997
2.96025
2.96054
2.96083
2.96113
2.96142
2.9617
2.96198
2.96224
2.96249
2.96272
2.96294
2.96314
2.96331
2.96347
2.96361
2.96373
2.96383
2.96391
2.96397
2.96401
2.96403
2.96403
2.96401
2.96397
2.96391
2.96383
2.96373
2.96361
2.96347
2.96331
2.96314
2.96294
2.96272
2.96249
2.96224
2.96198
2.9617
2.96142
2.96113
2.96083
2.96054
2.96025
2.95997
2.95971
2.95947
2.95926
2.95908
2.95894
2.95884
2.95878
2.95876
2.99724
2.99727
2.99733
2.99744
2.99759
2.99778
2.998
2.99825
2.99852
2.99881
2.99911
2.99942
2.99972
3.00003
3.00032
3.00061
3.00088
3.00114
3.00138
3.00161
3.00181
3.002
3.00216
3.00231
3.00243
3.00253
3.00262
3.00268
3.00272
3.00274
3.00274
3.00272
3.00268
3.00262
3.00253
3.00243
3.00231
3.00216
3.002
3.00181
3.00161
3.00138
3.00114
3.00088
3.00061
3.00032
3.00003
2.99972
2.99942
2.99911
2.99881
2.99852
2.99825
2.998
2.99778
2.99759
2.99744
2.99733
2.99727
2.99724
3.03687
3.0369
3.03697
3.03708
3.03724
3.03744
3.03767
3.03793
3.03821
3.03851
3.03883
3.03914
3.03946
3.03978
3.04009
3.04039
3.04067
3.04094
3.04119
3.04142
3.04164
3.04183
3.042
3.04215
3.04228
3.04239
3.04247
3.04253
3.04258
3.0426
3.0426
3.04258
3.04253
3.04247
3.04239
3.04228
3.04215
3.042
3.04183
3.04164
3.04142
3.04119
3.04094
3.04067
3.04039
3.04009
3.03978
3.03946
3.03914
3.03883
3.03851
3.03821
3.03793
3.03767
3.03744
3.03724
3.03708
3.03697
3.0369
3.03687
3.07767
3.0777
3.07778
3.0779
3.07807
3.07827
3.07851
3.07879
3.07908
3.0794
3.07972
3.08005
3.08039
3.08072
3.08104
3.08135
3.08164
3.08192
3.08218
3.08242
3.08264
3.08284
3.08302
3.08318
3.08331
3.08342
3.08351
3.08358
3.08362
3.08364
3.08364
3.08362
3.08358
3.08351
3.08342
3.08331
3.08318
3.08302
3.08284
3.08264
3.08242
3.08218
3.08192
3.08164
3.08135
3.08104
3.08072
3.08039
3.08005
3.07972
3.0794
3.07908
3.07879
3.07851
3.07827
3.07807
3.0779
3.07778
3.0777
3.07767
3.11969
3.11972
3.1198
3.11993
3.12011
3.12032
3.12058
3.12086
3.12117
3.1215
3.12184
3.12218
3.12253
3.12287
3.1232
3.12353
3.12383
3.12412
3.1244
3.12465
3.12488
3.12508
3.12527
3.12543
3.12557
3.12568
3.12577
3.12584
3.12589
3.12591
3.12591
3.12589
3.12584
3.12577
3.12568
3.12557
3.12543
3.12527
3.12508
3.12488
3.12465
3.1244
3.12412
3.12383
3.12353
3.1232
3.12287
3.12253
3.12218
3.12184
3.1215
3.12117
3.12086
3.12058
3.12032
3.12011
3.11993
3.1198
3.11972
3.11969
3.16295
3.16299
3.16308
3.16322
3.1634
3.16363
3.16389
3.16419
3.16451
3.16486
3.16521
3.16557
3.16593
3.16628
3.16663
3.16697
3.16729
3.16759
3.16787
3.16813
3.16837
3.16858
3.16877
3.16894
3.16909
3.1692
3.1693
3.16937
3.16942
3.16944
3.16944
3.16942
3.16937
3.1693
3.1692
3.16909
3.16894
3.16877
3.16858
3.16837
3.16813
3.16787
3.16759
3.16729
3.16697
3.16663
3.16628
3.16593
3.16557
3.16521
3.16486
3.16451
3.16419
3.16389
3.16363
3.1634
3.16322
3.16308
3.16299
3.16295
3.20751
3.20756
3.20765
3.20779