/*--------------------------------*- C++ -*----------------------------------*\
| =========                 |                                                 |
| \\      /  F ield         | foam-extend: Open Source CFD                    |
|  \\    /   O peration     | Version:     4.0                                |
|   \\  /    A nd           | Web:         http://www.foam-extend.org         |
|    \\/     M anipulation  |                                                 |
\*---------------------------------------------------------------------------*/
FoamFile
{
    version     2.0;
    format      ascii;
    class       volScalarField;
    location    "850";
    object      psiE;
}
// * * * * * * * * * * * * * * * * * * * * * * * * * * * * * * * * * * * * * //

dimensions      [0 0 0 0 0 0 0];

internalField   nonuniform List<scalar> 
6960
(
0.345487
0.345496
0.345507
0.345518
0.345528
0.345537
0.345544
0.345551
0.345557
0.345562
0.345566
0.34557
0.345573
0.345576
0.345578
0.34558
0.345582
0.345583
0.345585
0.345586
0.345587
0.345587
0.345588
0.345589
0.345589
0.345589
0.34559
0.34559
0.34559
0.34559
0.34559
0.34559
0.34559
0.34559
0.345589
0.345589
0.345589
0.345588
0.345587
0.345587
0.345586
0.345585
0.345583
0.345582
0.34558
0.345578
0.345576
0.345573
0.34557
0.345566
0.345562
0.345557
0.345551
0.345544
0.345537
0.345528
0.345518
0.345507
0.345496
0.345487
0.879531
0.879569
0.879614
0.879658
0.879697
0.879732
0.879763
0.87979
0.879814
0.879834
0.879851
0.879866
0.879878
0.879889
0.879898
0.879906
0.879912
0.879918
0.879923
0.879927
0.87993
0.879933
0.879935
0.879937
0.879939
0.87994
0.879941
0.879942
0.879942
0.879942
0.879942
0.879942
0.879942
0.879941
0.87994
0.879939
0.879937
0.879935
0.879933
0.87993
0.879927
0.879923
0.879918
0.879912
0.879906
0.879898
0.879889
0.879878
0.879866
0.879851
0.879834
0.879814
0.87979
0.879763
0.879732
0.879697
0.879658
0.879614
0.879569
0.879531
1.37433
1.37441
1.3745
1.37458
1.37466
1.37473
1.37479
1.37484
1.37489
1.37493
1.37496
1.37499
1.37501
1.37503
1.37505
1.37506
1.37508
1.37509
1.3751
1.3751
1.37511
1.37512
1.37512
1.37512
1.37513
1.37513
1.37513
1.37513
1.37513
1.37513
1.37513
1.37513
1.37513
1.37513
1.37513
1.37513
1.37512
1.37512
1.37512
1.37511
1.3751
1.3751
1.37509
1.37508
1.37506
1.37505
1.37503
1.37501
1.37499
1.37496
1.37493
1.37489
1.37484
1.37479
1.37473
1.37466
1.37458
1.3745
1.37441
1.37433
1.86194
1.86206
1.86219
1.86232
1.86244
1.86255
1.86264
1.86272
1.86279
1.86285
1.86291
1.86295
1.86299
1.86302
1.86305
1.86307
1.86309
1.8631
1.86312
1.86313
1.86314
1.86315
1.86315
1.86316
1.86316
1.86317
1.86317
1.86317
1.86317
1.86317
1.86317
1.86317
1.86317
1.86317
1.86317
1.86316
1.86316
1.86315
1.86315
1.86314
1.86313
1.86312
1.8631
1.86309
1.86307
1.86305
1.86302
1.86299
1.86295
1.86291
1.86285
1.86279
1.86272
1.86264
1.86255
1.86244
1.86232
1.86219
1.86206
1.86194
2.35347
2.35363
2.35382
2.354
2.35417
2.35431
2.35444
2.35455
2.35465
2.35473
2.3548
2.35486
2.35492
2.35496
2.355
2.35503
2.35505
2.35508
2.35509
2.35511
2.35512
2.35513
2.35514
2.35515
2.35516
2.35516
2.35517
2.35517
2.35517
2.35517
2.35517
2.35517
2.35517
2.35517
2.35516
2.35516
2.35515
2.35514
2.35513
2.35512
2.35511
2.35509
2.35508
2.35505
2.35503
2.355
2.35496
2.35492
2.35486
2.3548
2.35473
2.35465
2.35455
2.35444
2.35431
2.35417
2.354
2.35382
2.35363
2.35347
2.85294
2.85314
2.85338
2.85361
2.85383
2.85402
2.85418
2.85432
2.85445
2.85455
2.85464
2.85472
2.85479
2.85484
2.85489
2.85493
2.85496
2.85499
2.85502
2.85504
2.85505
2.85507
2.85508
2.85509
2.8551
2.8551
2.85511
2.85511
2.85511
2.85512
2.85512
2.85511
2.85511
2.85511
2.8551
2.8551
2.85509
2.85508
2.85507
2.85505
2.85504
2.85502
2.85499
2.85496
2.85493
2.85489
2.85484
2.85479
2.85472
2.85464
2.85455
2.85445
2.85432
2.85418
2.85402
2.85383
2.85361
2.85338
2.85314
2.85294
3.36175
3.362
3.36229
3.36258
3.36284
3.36307
3.36327
3.36345
3.3636
3.36373
3.36384
3.36393
3.36401
3.36408
3.36414
3.36419
3.36423
3.36426
3.36429
3.36432
3.36434
3.36436
3.36437
3.36438
3.36439
3.3644
3.36441
3.36441
3.36441
3.36441
3.36441
3.36441
3.36441
3.36441
3.3644
3.36439
3.36438
3.36437
3.36436
3.36434
3.36432
3.36429
3.36426
3.36423
3.36419
3.36414
3.36408
3.36401
3.36393
3.36384
3.36373
3.3636
3.36345
3.36327
3.36307
3.36284
3.36258
3.36229
3.362
3.36175
3.88037
3.88066
3.88101
3.88135
3.88166
3.88193
3.88217
3.88238
3.88256
3.88271
3.88285
3.88296
3.88305
3.88313
3.8832
3.88326
3.88331
3.88335
3.88339
3.88341
3.88344
3.88346
3.88348
3.88349
3.8835
3.88351
3.88352
3.88352
3.88353
3.88353
3.88353
3.88353
3.88352
3.88352
3.88351
3.8835
3.88349
3.88348
3.88346
3.88344
3.88341
3.88339
3.88335
3.88331
3.88326
3.8832
3.88313
3.88305
3.88296
3.88285
3.88271
3.88256
3.88238
3.88217
3.88193
3.88166
3.88135
3.88101
3.88066
3.88037
4.4089
4.40924
4.40965
4.41004
4.41039
4.41071
4.41099
4.41123
4.41144
4.41162
4.41177
4.4119
4.41201
4.4121
4.41218
4.41225
4.41231
4.41235
4.41239
4.41243
4.41246
4.41248
4.4125
4.41252
4.41253
4.41254
4.41255
4.41255
4.41256
4.41256
4.41256
4.41256
4.41255
4.41255
4.41254
4.41253
4.41252
4.4125
4.41248
4.41246
4.41243
4.41239
4.41235
4.41231
4.41225
4.41218
4.4121
4.41201
4.4119
4.41177
4.41162
4.41144
4.41123
4.41099
4.41071
4.41039
4.41004
4.40965
4.40924
4.4089
4.94731
4.9477
4.94815
4.9486
4.94901
4.94937
4.94968
4.94996
4.95019
4.9504
4.95057
4.95072
4.95084
4.95095
4.95104
4.95112
4.95118
4.95123
4.95128
4.95132
4.95135
4.95138
4.9514
4.95142
4.95143
4.95144
4.95145
4.95146
4.95146
4.95147
4.95147
4.95146
4.95146
4.95145
4.95144
4.95143
4.95142
4.9514
4.95138
4.95135
4.95132
4.95128
4.95123
4.95118
4.95112
4.95104
4.95095
4.95084
4.95072
4.95057
4.9504
4.95019
4.94996
4.94968
4.94937
4.94901
4.9486
4.94815
4.9477
4.94731
5.49548
5.49591
5.49642
5.49692
5.49738
5.49778
5.49814
5.49844
5.49871
5.49894
5.49913
5.4993
5.49944
5.49956
5.49966
5.49974
5.49982
5.49988
5.49993
5.49997
5.50001
5.50004
5.50006
5.50008
5.5001
5.50011
5.50012
5.50013
5.50014
5.50014
5.50014
5.50014
5.50013
5.50012
5.50011
5.5001
5.50008
5.50006
5.50004
5.50001
5.49997
5.49993
5.49988
5.49982
5.49974
5.49966
5.49956
5.49944
5.4993
5.49913
5.49894
5.49871
5.49844
5.49814
5.49778
5.49738
5.49692
5.49642
5.49591
5.49548
6.05325
6.05372
6.05429
6.05484
6.05535
6.0558
6.05619
6.05653
6.05682
6.05708
6.05729
6.05747
6.05763
6.05776
6.05788
6.05797
6.05805
6.05812
6.05817
6.05822
6.05826
6.05829
6.05832
6.05835
6.05836
6.05838
6.05839
6.0584
6.0584
6.05841
6.05841
6.0584
6.0584
6.05839
6.05838
6.05836
6.05835
6.05832
6.05829
6.05826
6.05822
6.05817
6.05812
6.05805
6.05797
6.05788
6.05776
6.05763
6.05747
6.05729
6.05708
6.05682
6.05653
6.05619
6.0558
6.05535
6.05484
6.05429
6.05372
6.05325
6.6204
6.62092
6.62154
6.62215
6.6227
6.62319
6.62362
6.624
6.62432
6.6246
6.62483
6.62504
6.62521
6.62535
6.62548
6.62558
6.62567
6.62574
6.6258
6.62586
6.6259
6.62594
6.62597
6.62599
6.62601
6.62603
6.62604
6.62605
6.62606
6.62606
6.62606
6.62606
6.62605
6.62604
6.62603
6.62601
6.62599
6.62597
6.62594
6.6259
6.62586
6.6258
6.62574
6.62567
6.62558
6.62548
6.62535
6.62521
6.62504
6.62483
6.6246
6.62432
6.624
6.62362
6.62319
6.6227
6.62215
6.62154
6.62092
6.6204
7.19667
7.19724
7.19792
7.19858
7.19918
7.19971
7.20018
7.20059
7.20094
7.20124
7.2015
7.20172
7.20191
7.20206
7.2022
7.20231
7.20241
7.20249
7.20256
7.20261
7.20266
7.2027
7.20273
7.20276
7.20278
7.2028
7.20281
7.20282
7.20283
7.20283
7.20283
7.20283
7.20282
7.20281
7.2028
7.20278
7.20276
7.20273
7.2027
7.20266
7.20261
7.20256
7.20249
7.20241
7.20231
7.2022
7.20206
7.20191
7.20172
7.2015
7.20124
7.20094
7.20059
7.20018
7.19971
7.19918
7.19858
7.19792
7.19724
7.19667
7.78175
7.78236
7.7831
7.78381
7.78446
7.78504
7.78554
7.78598
7.78636
7.78669
7.78697
7.78721
7.78741
7.78758
7.78772
7.78785
7.78795
7.78804
7.78811
7.78817
7.78822
7.78827
7.7883
7.78833
7.78836
7.78838
7.78839
7.7884
7.78841
7.78841
7.78841
7.78841
7.7884
7.78839
7.78838
7.78836
7.78833
7.7883
7.78827
7.78822
7.78817
7.78811
7.78804
7.78795
7.78785
7.78772
7.78758
7.78741
7.78721
7.78697
7.78669
7.78636
7.78598
7.78554
7.78504
7.78446
7.78381
7.7831
7.78236
7.78175
8.37527
8.37592
8.37671
8.37747
8.37817
8.37879
8.37934
8.37981
8.38022
8.38057
8.38087
8.38112
8.38134
8.38152
8.38168
8.38181
8.38192
8.38201
8.38209
8.38216
8.38222
8.38226
8.3823
8.38233
8.38236
8.38238
8.3824
8.38241
8.38241
8.38242
8.38242
8.38241
8.38241
8.3824
8.38238
8.38236
8.38233
8.3823
8.38226
8.38222
8.38216
8.38209
8.38201
8.38192
8.38181
8.38168
8.38152
8.38134
8.38112
8.38087
8.38057
8.38022
8.37981
8.37934
8.37879
8.37817
8.37747
8.37671
8.37592
8.37527
8.97677
8.97747
8.9783
8.97912
8.97987
8.98053
8.98111
8.98161
8.98205
8.98242
8.98274
8.98302
8.98325
8.98344
8.98361
8.98375
8.98387
8.98397
8.98406
8.98413
8.98419
8.98424
8.98428
8.98431
8.98434
8.98436
8.98438
8.98439
8.9844
8.9844
8.9844
8.9844
8.98439
8.98438
8.98436
8.98434
8.98431
8.98428
8.98424
8.98419
8.98413
8.98406
8.98397
8.98387
8.98375
8.98361
8.98344
8.98325
8.98302
8.98274
8.98242
8.98205
8.98161
8.98111
8.98053
8.97987
8.97912
8.9783
8.97747
8.97677
9.58573
9.58647
9.58736
9.58823
9.58902
9.58973
9.59034
9.59088
9.59134
9.59174
9.59208
9.59237
9.59261
9.59282
9.593
9.59315
9.59328
9.59338
9.59347
9.59355
9.59361
9.59367
9.59371
9.59375
9.59378
9.5938
9.59382
9.59383
9.59384
9.59385
9.59385
9.59384
9.59383
9.59382
9.5938
9.59378
9.59375
9.59371
9.59367
9.59361
9.59355
9.59347
9.59338
9.59328
9.59315
9.593
9.59282
9.59261
9.59237
9.59208
9.59174
9.59134
9.59088
9.59034
9.58973
9.58902
9.58823
9.58736
9.58647
9.58573
10.2016
10.2023
10.2033
10.2042
10.205
10.2058
10.2064
10.207
10.2075
10.2079
10.2083
10.2086
10.2088
10.2091
10.2092
10.2094
10.2095
10.2096
10.2097
10.2098
10.2099
10.2099
10.21
10.21
10.2101
10.2101
10.2101
10.2101
10.2101
10.2101
10.2101
10.2101
10.2101
10.2101
10.2101
10.2101
10.21
10.21
10.2099
10.2099
10.2098
10.2097
10.2096
10.2095
10.2094
10.2092
10.2091
10.2088
10.2086
10.2083
10.2079
10.2075
10.207
10.2064
10.2058
10.205
10.2042
10.2033
10.2023
10.2016
10.8235
10.8244
10.8253
10.8263
10.8272
10.828
10.8287
10.8293
10.8298
10.8302
10.8306
10.8309
10.8312
10.8314
10.8316
10.8318
10.8319
10.832
10.8321
10.8322
10.8323
10.8324
10.8324
10.8325
10.8325
10.8325
10.8325
10.8325
10.8326
10.8326
10.8326
10.8326
10.8325
10.8325
10.8325
10.8325
10.8325
10.8324
10.8324
10.8323
10.8322
10.8321
10.832
10.8319
10.8318
10.8316
10.8314
10.8312
10.8309
10.8306
10.8302
10.8298
10.8293
10.8287
10.828
10.8272
10.8263
10.8253
10.8244
10.8235
11.4508
11.4517
11.4527
11.4538
11.4547
11.4555
11.4562
11.4568
11.4574
11.4578
11.4582
11.4586
11.4589
11.4591
11.4593
11.4595
11.4596
11.4598
11.4599
11.46
11.46
11.4601
11.4602
11.4602
11.4602
11.4603
11.4603
11.4603
11.4603
11.4603
11.4603
11.4603
11.4603
11.4603
11.4603
11.4602
11.4602
11.4602
11.4601
11.46
11.46
11.4599
11.4598
11.4596
11.4595
11.4593
11.4591
11.4589
11.4586
11.4582
11.4578
11.4574
11.4568
11.4562
11.4555
11.4547
11.4538
11.4527
11.4517
11.4508
12.0826
12.0835
12.0845
12.0856
12.0866
12.0874
12.0882
12.0888
12.0894
12.0899
12.0903
12.0906
12.0909
12.0912
12.0914
12.0916
12.0917
12.0919
12.092
12.0921
12.0922
12.0922
12.0923
12.0923
12.0924
12.0924
12.0924
12.0924
12.0924
12.0924
12.0924
12.0924
12.0924
12.0924
12.0924
12.0924
12.0923
12.0923
12.0922
12.0922
12.0921
12.092
12.0919
12.0917
12.0916
12.0914
12.0912
12.0909
12.0906
12.0903
12.0899
12.0894
12.0888
12.0882
12.0874
12.0866
12.0856
12.0845
12.0835
12.0826
12.7176
12.7185
12.7197
12.7208
12.7218
12.7226
12.7234
12.7241
12.7247
12.7252
12.7256
12.726
12.7263
12.7266
12.7268
12.727
12.7271
12.7273
12.7274
12.7275
12.7276
12.7276
12.7277
12.7277
12.7278
12.7278
12.7278
12.7279
12.7279
12.7279
12.7279
12.7279
12.7279
12.7278
12.7278
12.7278
12.7277
12.7277
12.7276
12.7276
12.7275
12.7274
12.7273
12.7271
12.727
12.7268
12.7266
12.7263
12.726
12.7256
12.7252
12.7247
12.7241
12.7234
12.7226
12.7218
12.7208
12.7197
12.7185
12.7176
13.3547
13.3557
13.3568
13.358
13.359
13.3599
13.3607
13.3614
13.362
13.3626
13.363
13.3634
13.3637
13.364
13.3642
13.3644
13.3646
13.3647
13.3649
13.365
13.365
13.3651
13.3652
13.3652
13.3653
13.3653
13.3653
13.3653
13.3653
13.3654
13.3654
13.3653
13.3653
13.3653
13.3653
13.3653
13.3652
13.3652
13.3651
13.365
13.365
13.3649
13.3647
13.3646
13.3644
13.3642
13.364
13.3637
13.3634
13.363
13.3626
13.362
13.3614
13.3607
13.3599
13.359
13.358
13.3568
13.3557
13.3547
13.9925
13.9935
13.9947
13.9958
13.9969
13.9978
13.9987
13.9994
14
14.0006
14.001
14.0014
14.0017
14.002
14.0023
14.0025
14.0026
14.0028
14.0029
14.003
14.0031
14.0032
14.0033
14.0033
14.0033
14.0034
14.0034
14.0034
14.0034
14.0034
14.0034
14.0034
14.0034
14.0034
14.0034
14.0033
14.0033
14.0033
14.0032
14.0031
14.003
14.0029
14.0028
14.0026
14.0025
14.0023
14.002
14.0017
14.0014
14.001
14.0006
14
13.9994
13.9987
13.9978
13.9969
13.9958
13.9947
13.9935
13.9925
14.6292
14.6303
14.6315
14.6327
14.6338
14.6347
14.6356
14.6363
14.637
14.6375
14.638
14.6384
14.6387
14.639
14.6393
14.6395
14.6397
14.6398
14.6399
14.6401
14.6401
14.6402
14.6403
14.6403
14.6404
14.6404
14.6404
14.6405
14.6405
14.6405
14.6405
14.6405
14.6405
14.6404
14.6404
14.6404
14.6403
14.6403
14.6402
14.6401
14.6401
14.6399
14.6398
14.6397
14.6395
14.6393
14.639
14.6387
14.6384
14.638
14.6375
14.637
14.6363
14.6356
14.6347
14.6338
14.6327
14.6315
14.6303
14.6292
15.2631
15.2641
15.2654
15.2666
15.2677
15.2687
15.2696
15.2703
15.271
15.2715
15.272
15.2724
15.2728
15.2731
15.2733
15.2736
15.2737
15.2739
15.274
15.2741
15.2742
15.2743
15.2744
15.2744
15.2745
15.2745
15.2745
15.2746
15.2746
15.2746
15.2746
15.2746
15.2746
15.2745
15.2745
15.2745
15.2744
15.2744
15.2743
15.2742
15.2741
15.274
15.2739
15.2737
15.2736
15.2733
15.2731
15.2728
15.2724
15.272
15.2715
15.271
15.2703
15.2696
15.2687
15.2677
15.2666
15.2654
15.2641
15.2631
15.8918
15.8929
15.8942
15.8954
15.8965
15.8975
15.8984
15.8992
15.8998
15.9004
15.9009
15.9013
15.9017
15.902
15.9022
15.9025
15.9026
15.9028
15.9029
15.9031
15.9031
15.9032
15.9033
15.9034
15.9034
15.9034
15.9035
15.9035
15.9035
15.9035
15.9035
15.9035
15.9035
15.9035
15.9034
15.9034
15.9034
15.9033
15.9032
15.9031
15.9031
15.9029
15.9028
15.9026
15.9025
15.9022
15.902
15.9017
15.9013
15.9009
15.9004
15.8998
15.8992
15.8984
15.8975
15.8965
15.8954
15.8942
15.8929
15.8918
16.5129
16.514
16.5153
16.5165
16.5176
16.5187
16.5195
16.5203
16.521
16.5216
16.5221
16.5225
16.5228
16.5232
16.5234
16.5236
16.5238
16.524
16.5241
16.5242
16.5243
16.5244
16.5245
16.5246
16.5246
16.5246
16.5247
16.5247
16.5247
16.5247
16.5247
16.5247
16.5247
16.5247
16.5246
16.5246
16.5246
16.5245
16.5244
16.5243
16.5242
16.5241
16.524
16.5238
16.5236
16.5234
16.5232
16.5228
16.5225
16.5221
16.5216
16.521
16.5203
16.5195
16.5187
16.5176
16.5165
16.5153
16.514
16.5129
17.1233
17.1244
17.1257
17.127
17.1281
17.1291
17.13
17.1308
17.1314
17.132
17.1325
17.1329
17.1333
17.1336
17.1339
17.1341
17.1343
17.1345
17.1346
17.1347
17.1348
17.1349
17.135
17.135
17.1351
17.1351
17.1352
17.1352
17.1352
17.1352
17.1352
17.1352
17.1352
17.1352
17.1351
17.1351
17.135
17.135
17.1349
17.1348
17.1347
17.1346
17.1345
17.1343
17.1341
17.1339
17.1336
17.1333
17.1329
17.1325
17.132
17.1314
17.1308
17.13
17.1291
17.1281
17.127
17.1257
17.1244
17.1233
17.7197
17.7207
17.722
17.7233
17.7244
17.7254
17.7263
17.727
17.7277
17.7283
17.7288
17.7292
17.7296
17.7299
17.7301
17.7304
17.7306
17.7307
17.7309
17.731
17.7311
17.7312
17.7312
17.7313
17.7313
17.7314
17.7314
17.7314
17.7314
17.7315
17.7315
17.7314
17.7314
17.7314
17.7314
17.7313
17.7313
17.7312
17.7312
17.7311
17.731
17.7309
17.7307
17.7306
17.7304
17.7301
17.7299
17.7296
17.7292
17.7288
17.7283
17.7277
17.727
17.7263
17.7254
17.7244
17.7233
17.722
17.7207
17.7197
18.2977
18.2988
18.3
18.3012
18.3023
18.3033
18.3042
18.305
18.3056
18.3062
18.3067
18.3071
18.3074
18.3077
18.308
18.3082
18.3084
18.3086
18.3087
18.3088
18.3089
18.309
18.3091
18.3092
18.3092
18.3092
18.3093
18.3093
18.3093
18.3093
18.3093
18.3093
18.3093
18.3093
18.3092
18.3092
18.3092
18.3091
18.309
18.3089
18.3088
18.3087
18.3086
18.3084
18.3082
18.308
18.3077
18.3074
18.3071
18.3067
18.3062
18.3056
18.305
18.3042
18.3033
18.3023
18.3012
18.3
18.2988
18.2977
18.8525
18.8536
18.8548
18.856
18.8571
18.858
18.8588
18.8596
18.8602
18.8608
18.8612
18.8617
18.862
18.8623
18.8626
18.8628
18.863
18.8631
18.8633
18.8634
18.8635
18.8636
18.8636
18.8637
18.8637
18.8638
18.8638
18.8638
18.8639
18.8639
18.8639
18.8639
18.8638
18.8638
18.8638
18.8637
18.8637
18.8636
18.8636
18.8635
18.8634
18.8633
18.8631
18.863
18.8628
18.8626
18.8623
18.862
18.8617
18.8612
18.8608
18.8602
18.8596
18.8588
18.858
18.8571
18.856
18.8548
18.8536
18.8525
19.3783
19.3793
19.3805
19.3816
19.3826
19.3835
19.3843
19.3851
19.3857
19.3862
19.3866
19.387
19.3874
19.3877
19.3879
19.3881
19.3883
19.3885
19.3886
19.3887
19.3888
19.3889
19.389
19.389
19.3891
19.3891
19.3891
19.3892
19.3892
19.3892
19.3892
19.3892
19.3892
19.3891
19.3891
19.3891
19.389
19.389
19.3889
19.3888
19.3887
19.3886
19.3885
19.3883
19.3881
19.3879
19.3877
19.3874
19.387
19.3866
19.3862
19.3857
19.3851
19.3843
19.3835
19.3826
19.3816
19.3805
19.3793
19.3783
19.8682
19.8691
19.8702
19.8713
19.8722
19.8731
19.8738
19.8745
19.875
19.8755
19.876
19.8763
19.8766
19.8769
19.8772
19.8774
19.8775
19.8777
19.8778
19.8779
19.878
19.8781
19.8782
19.8782
19.8783
19.8783
19.8783
19.8784
19.8784
19.8784
19.8784
19.8784
19.8784
19.8783
19.8783
19.8783
19.8782
19.8782
19.8781
19.878
19.8779
19.8778
19.8777
19.8775
19.8774
19.8772
19.8769
19.8766
19.8763
19.876
19.8755
19.875
19.8745
19.8738
19.8731
19.8722
19.8713
19.8702
19.8691
19.8682
20.3144
20.3153
20.3162
20.3172
20.318
20.3188
20.3195
20.3201
20.3206
20.3211
20.3215
20.3218
20.3221
20.3223
20.3226
20.3228
20.3229
20.3231
20.3232
20.3233
20.3234
20.3235
20.3235
20.3236
20.3236
20.3237
20.3237
20.3237
20.3237
20.3237
20.3237
20.3237
20.3237
20.3237
20.3237
20.3236
20.3236
20.3235
20.3235
20.3234
20.3233
20.3232
20.3231
20.3229
20.3228
20.3226
20.3223
20.3221
20.3218
20.3215
20.3211
20.3206
20.3201
20.3195
20.3188
20.318
20.3172
20.3162
20.3153
20.3144
20.7093
20.7101
20.7109
20.7117
20.7125
20.7131
20.7137
20.7143
20.7147
20.7151
20.7155
20.7158
20.716
20.7163
20.7165
20.7166
20.7168
20.7169
20.717
20.7171
20.7172
20.7173
20.7173
20.7174
20.7174
20.7175
20.7175
20.7175
20.7175
20.7175
20.7175
20.7175
20.7175
20.7175
20.7175
20.7174
20.7174
20.7173
20.7173
20.7172
20.7171
20.717
20.7169
20.7168
20.7166
20.7165
20.7163
20.716
20.7158
20.7155
20.7151
20.7147
20.7143
20.7137
20.7131
20.7125
20.7117
20.7109
20.7101
20.7093
21.047
21.0476
21.0483
21.049
21.0496
21.0501
21.0506
21.0511
21.0515
21.0518
21.0521
21.0524
21.0526
21.0528
21.053
21.0531
21.0533
21.0534
21.0535
21.0536
21.0537
21.0537
21.0538
21.0538
21.0539
21.0539
21.0539
21.054
21.054
21.054
21.054
21.054
21.054
21.0539
21.0539
21.0539
21.0538
21.0538
21.0537
21.0537
21.0536
21.0535
21.0534
21.0533
21.0531
21.053
21.0528
21.0526
21.0524
21.0521
21.0518
21.0515
21.0511
21.0506
21.0501
21.0496
21.049
21.0483
21.0476
21.047
21.3255
21.3259
21.3265
21.327
21.3275
21.3279
21.3283
21.3287
21.329
21.3293
21.3296
21.3298
21.33
21.3301
21.3303
21.3304
21.3306
21.3307
21.3308
21.3308
21.3309
21.331
21.331
21.3311
21.3311
21.3311
21.3312
21.3312
21.3312
21.3312
21.3312
21.3312
21.3312
21.3312
21.3311
21.3311
21.3311
21.331
21.331
21.3309
21.3308
21.3308
21.3307
21.3306
21.3304
21.3303
21.3301
21.33
21.3298
21.3296
21.3293
21.329
21.3287
21.3283
21.3279
21.3275
21.327
21.3265
21.3259
21.3255
21.5483
21.5486
21.549
21.5494
21.5498
21.5502
21.5505
21.5508
21.551
21.5512
21.5514
21.5516
21.5518
21.5519
21.5521
21.5522
21.5523
21.5524
21.5525
21.5525
21.5526
21.5527
21.5527
21.5528
21.5528
21.5528
21.5529
21.5529
21.5529
21.5529
21.5529
21.5529
21.5529
21.5529
21.5528
21.5528
21.5528
21.5527
21.5527
21.5526
21.5525
21.5525
21.5524
21.5523
21.5522
21.5521
21.5519
21.5518
21.5516
21.5514
21.5512
21.551
21.5508
21.5505
21.5502
21.5498
21.5494
21.549
21.5486
21.5483
21.7238
21.724
21.7243
21.7246
21.7249
21.7251
21.7254
21.7256
21.7258
21.726
21.7261
21.7263
21.7264
21.7266
21.7267
21.7268
21.7269
21.727
21.727
21.7271
21.7272
21.7272
21.7273
21.7273
21.7273
21.7274
21.7274
21.7274
21.7274
21.7274
21.7274
21.7274
21.7274
21.7274
21.7274
21.7273
21.7273
21.7273
21.7272
21.7272
21.7271
21.727
21.727
21.7269
21.7268
21.7267
21.7266
21.7264
21.7263
21.7261
21.726
21.7258
21.7256
21.7254
21.7251
21.7249
21.7246
21.7243
21.724
21.7238
21.8624
21.8625
21.8627
21.8629
21.8631
21.8633
21.8635
21.8637
21.8638
21.864
21.8641
21.8643
21.8644
21.8645
21.8646
21.8647
21.8648
21.8649
21.8649
21.865
21.8651
21.8651
21.8651
21.8652
21.8652
21.8652
21.8653
21.8653
21.8653
21.8653
21.8653
21.8653
21.8653
21.8653
21.8652
21.8652
21.8652
21.8651
21.8651
21.8651
21.865
21.8649
21.8649
21.8648
21.8647
21.8646
21.8645
21.8644
21.8643
21.8641
21.864
21.8638
21.8637
21.8635
21.8633
21.8631
21.8629
21.8627
21.8625
21.8624
21.974
21.9741
21.9742
21.9744
21.9746
21.9747
21.9749
21.975
21.9751
21.9753
21.9754
21.9755
21.9756
21.9757
21.9758
21.9759
21.976
21.976
21.9761
21.9762
21.9762
21.9763
21.9763
21.9764
21.9764
21.9764
21.9764
21.9765
21.9765
21.9765
21.9765
21.9765
21.9765
21.9764
21.9764
21.9764
21.9764
21.9763
21.9763
21.9762
21.9762
21.9761
21.976
21.976
21.9759
21.9758
21.9757
21.9756
21.9755
21.9754
21.9753
21.9751
21.975
21.9749
21.9747
21.9746
21.9744
21.9742
21.9741
21.974
22.0666
22.0667
22.0668
22.0669
22.067
22.0671
22.0673
22.0674
22.0675
22.0676
22.0677
22.0678
22.0679
22.068
22.0681
22.0682
22.0683
22.0683
22.0684
22.0685
22.0685
22.0686
22.0686
22.0687
22.0687
22.0687
22.0687
22.0688
22.0688
22.0688
22.0688
22.0688
22.0688
22.0687
22.0687
22.0687
22.0687
22.0686
22.0686
22.0685
22.0685
22.0684
22.0683
22.0683
22.0682
22.0681
22.068
22.0679
22.0678
22.0677
22.0676
22.0675
22.0674
22.0673
22.0671
22.067
22.0669
22.0668
22.0667
22.0666
22.1457
22.1458
22.1458
22.1459
22.146
22.1461
22.1462
22.1463
22.1464
22.1465
22.1466
22.1467
22.1468
22.1469
22.147
22.1471
22.1472
22.1472
22.1473
22.1474
22.1474
22.1475
22.1475
22.1476
22.1476
22.1476
22.1476
22.1477
22.1477
22.1477
22.1477
22.1477
22.1477
22.1476
22.1476
22.1476
22.1476
22.1475
22.1475
22.1474
22.1474
22.1473
22.1472
22.1472
22.1471
22.147
22.1469
22.1468
22.1467
22.1466
22.1465
22.1464
22.1463
22.1462
22.1461
22.146
22.1459
22.1458
22.1458
22.1457
22.215
22.2151
22.2151
22.2152
22.2153
22.2153
22.2154
22.2155
22.2156
22.2157
22.2158
22.2159
22.216
22.2161
22.2162
22.2162
22.2163
22.2164
22.2165
22.2165
22.2166
22.2166
22.2167
22.2167
22.2168
22.2168
22.2168
22.2168
22.2168
22.2168
22.2168
22.2168
22.2168
22.2168
22.2168
22.2168
22.2167
22.2167
22.2166
22.2166
22.2165
22.2165
22.2164
22.2163
22.2162
22.2162
22.2161
22.216
22.2159
22.2158
22.2157
22.2156
22.2155
22.2154
22.2153
22.2153
22.2152
22.2151
22.2151
22.215
22.2769
22.2769
22.277
22.277
22.2771
22.2772
22.2772
22.2773
22.2774
22.2775
22.2776
22.2777
22.2778
22.2779
22.278
22.278
22.2781
22.2782
22.2783
22.2783
22.2784
22.2784
22.2785
22.2785
22.2785
22.2786
22.2786
22.2786
22.2786
22.2786
22.2786
22.2786
22.2786
22.2786
22.2786
22.2785
22.2785
22.2785
22.2784
22.2784
22.2783
22.2783
22.2782
22.2781
22.278
22.278
22.2779
22.2778
22.2777
22.2776
22.2775
22.2774
22.2773
22.2772
22.2772
22.2771
22.277
22.277
22.2769
22.2769
22.333
22.333
22.333
22.3331
22.3331
22.3332
22.3333
22.3333
22.3334
22.3335
22.3336
22.3337
22.3338
22.3339
22.334
22.334
22.3341
22.3342
22.3343
22.3343
22.3344
22.3344
22.3345
22.3345
22.3346
22.3346
22.3346
22.3346
22.3346
22.3347
22.3347
22.3346
22.3346
22.3346
22.3346
22.3346
22.3345
22.3345
22.3344
22.3344
22.3343
22.3343
22.3342
22.3341
22.334
22.334
22.3339
22.3338
22.3337
22.3336
22.3335
22.3334
22.3333
22.3333
22.3332
22.3331
22.3331
22.333
22.333
22.333
22.3844
22.3844
22.3844
22.3844
22.3845
22.3845
22.3846
22.3847
22.3848
22.3849
22.3849
22.385
22.3851
22.3852
22.3853
22.3854
22.3855
22.3855
22.3856
22.3857
22.3857
22.3858
22.3858
22.3859
22.3859
22.386
22.386
22.386
22.386
22.386
22.386
22.386
22.386
22.386
22.386
22.3859
22.3859
22.3858
22.3858
22.3857
22.3857
22.3856
22.3855
22.3855
22.3854
22.3853
22.3852
22.3851
22.385
22.3849
22.3849
22.3848
22.3847
22.3846
22.3845
22.3845
22.3844
22.3844
22.3844
22.3844
22.4319
22.4319
22.4319
22.4319
22.432
22.432
22.4321
22.4322
22.4323
22.4323
22.4324
22.4325
22.4326
22.4327
22.4328
22.4329
22.433
22.433
22.4331
22.4332
22.4332
22.4333
22.4333
22.4334
22.4334
22.4335
22.4335
22.4335
22.4335
22.4335
22.4335
22.4335
22.4335
22.4335
22.4335
22.4334
22.4334
22.4333
22.4333
22.4332
22.4332
22.4331
22.433
22.433
22.4329
22.4328
22.4327
22.4326
22.4325
22.4324
22.4323
22.4323
22.4322
22.4321
22.432
22.432
22.4319
22.4319
22.4319
22.4319
22.4762
22.4761
22.4762
22.4762
22.4762
22.4763
22.4763
22.4764
22.4765
22.4766
22.4767
22.4768
22.4768
22.4769
22.477
22.4771
22.4772
22.4773
22.4774
22.4774
22.4775
22.4775
22.4776
22.4776
22.4777
22.4777
22.4777
22.4778
22.4778
22.4778
22.4778
22.4778
22.4778
22.4777
22.4777
22.4777
22.4776
22.4776
22.4775
22.4775
22.4774
22.4774
22.4773
22.4772
22.4771
22.477
22.4769
22.4768
22.4768
22.4767
22.4766
22.4765
22.4764
22.4763
22.4763
22.4762
22.4762
22.4762
22.4761
22.4762
22.5176
22.5176
22.5176
22.5177
22.5177
22.5177
22.5178
22.5179
22.518
22.518
22.5181
22.5182
22.5183
22.5184
22.5185
22.5186
22.5187
22.5188
22.5188
22.5189
22.519
22.519
22.5191
22.5191
22.5192
22.5192
22.5192
22.5193
22.5193
22.5193
22.5193
22.5193
22.5193
22.5192
22.5192
22.5192
22.5191
22.5191
22.519
22.519
22.5189
22.5188
22.5188
22.5187
22.5186
22.5185
22.5184
22.5183
22.5182
22.5181
22.518
22.518
22.5179
22.5178
22.5177
22.5177
22.5177
22.5176
22.5176
22.5176
22.5567
22.5567
22.5567
22.5567
22.5567
22.5568
22.5569
22.5569
22.557
22.5571
22.5572
22.5573
22.5574
22.5575
22.5576
22.5577
22.5577
22.5578
22.5579
22.558
22.558
22.5581
22.5582
22.5582
22.5583
22.5583
22.5583
22.5583
22.5584
22.5584
22.5584
22.5584
22.5583
22.5583
22.5583
22.5583
22.5582
22.5582
22.5581
22.558
22.558
22.5579
22.5578
22.5577
22.5577
22.5576
22.5575
22.5574
22.5573
22.5572
22.5571
22.557
22.5569
22.5569
22.5568
22.5567
22.5567
22.5567
22.5567
22.5567
22.5937
22.5936
22.5936
22.5937
22.5937
22.5937
22.5938
22.5939
22.594
22.594
22.5941
22.5942
22.5943
22.5944
22.5945
22.5946
22.5947
22.5948
22.5949
22.595
22.595
22.5951
22.5952
22.5952
22.5952
22.5953
22.5953
22.5953
22.5953
22.5954
22.5954
22.5953
22.5953
22.5953
22.5953
22.5952
22.5952
22.5952
22.5951
22.595
22.595
22.5949
22.5948
22.5947
22.5946
22.5945
22.5944
22.5943
22.5942
22.5941
22.594
22.594
22.5939
22.5938
22.5937
22.5937
22.5937
22.5936
22.5936
22.5937
22.6288
22.6287
22.6287
22.6288
22.6288
22.6288
22.6289
22.629
22.6291
22.6291
22.6292
22.6293
22.6294
22.6295
22.6296
22.6297
22.6298
22.6299
22.63
22.6301
22.6302
22.6302
22.6303
22.6303
22.6304
22.6304
22.6305
22.6305
22.6305
22.6305
22.6305
22.6305
22.6305
22.6305
22.6304
22.6304
22.6303
22.6303
22.6302
22.6302
22.6301
22.63
22.6299
22.6298
22.6297
22.6296
22.6295
22.6294
22.6293
22.6292
22.6291
22.6291
22.629
22.6289
22.6288
22.6288
22.6288
22.6287
22.6287
22.6288
22.6622
22.6622
22.6622
22.6622
22.6622
22.6623
22.6624
22.6624
22.6625
22.6626
22.6627
22.6628
22.6629
22.663
22.6631
22.6632
22.6633
22.6634
22.6635
22.6636
22.6636
22.6637
22.6638
22.6638
22.6639
22.6639
22.6639
22.664
22.664
22.664
22.664
22.664
22.664
22.6639
22.6639
22.6639
22.6638
22.6638
22.6637
22.6636
22.6636
22.6635
22.6634
22.6633
22.6632
22.6631
22.663
22.6629
22.6628
22.6627
22.6626
22.6625
22.6624
22.6624
22.6623
22.6622
22.6622
22.6622
22.6622
22.6622
22.6942
22.6942
22.6942
22.6942
22.6942
22.6943
22.6943
22.6944
22.6945
22.6946
22.6947
22.6948
22.6949
22.695
22.6951
22.6952
22.6953
22.6954
22.6955
22.6956
22.6957
22.6957
22.6958
22.6958
22.6959
22.6959
22.696
22.696
22.696
22.696
22.696
22.696
22.696
22.696
22.6959
22.6959
22.6958
22.6958
22.6957
22.6957
22.6956
22.6955
22.6954
22.6953
22.6952
22.6951
22.695
22.6949
22.6948
22.6947
22.6946
22.6945
22.6944
22.6943
22.6943
22.6942
22.6942
22.6942
22.6942
22.6942
22.7248
22.7248
22.7248
22.7248
22.7249
22.7249
22.725
22.725
22.7251
22.7252
22.7253
22.7254
22.7256
22.7257
22.7258
22.7259
22.726
22.7261
22.7262
22.7263
22.7263
22.7264
22.7265
22.7265
22.7266
22.7266
22.7267
22.7267
22.7267
22.7267
22.7267
22.7267
22.7267
22.7267
22.7266
22.7266
22.7265
22.7265
22.7264
22.7263
22.7263
22.7262
22.7261
22.726
22.7259
22.7258
22.7257
22.7256
22.7254
22.7253
22.7252
22.7251
22.725
22.725
22.7249
22.7249
22.7248
22.7248
22.7248
22.7248
22.7542
22.7542
22.7542
22.7542
22.7543
22.7543
22.7544
22.7545
22.7546
22.7547
22.7548
22.7549
22.755
22.7551
22.7552
22.7553
22.7554
22.7556
22.7556
22.7557
22.7558
22.7559
22.756
22.756
22.7561
22.7561
22.7562
22.7562
22.7562
22.7562
22.7562
22.7562
22.7562
22.7562
22.7561
22.7561
22.756
22.756
22.7559
22.7558
22.7557
22.7556
22.7556
22.7554
22.7553
22.7552
22.7551
22.755
22.7549
22.7548
22.7547
22.7546
22.7545
22.7544
22.7543
22.7543
22.7542
22.7542
22.7542
22.7542
22.7825
22.7825
22.7826
22.7826
22.7826
22.7827
22.7827
22.7828
22.7829
22.783
22.7831
22.7832
22.7834
22.7835
22.7836
22.7837
22.7838
22.7839
22.784
22.7841
22.7842
22.7843
22.7843
22.7844
22.7845
22.7845
22.7845
22.7846
22.7846
22.7846
22.7846
22.7846
22.7846
22.7845
22.7845
22.7845
22.7844
22.7843
22.7843
22.7842
22.7841
22.784
22.7839
22.7838
22.7837
22.7836
22.7835
22.7834
22.7832
22.7831
22.783
22.7829
22.7828
22.7827
22.7827
22.7826
22.7826
22.7826
22.7825
22.7825
22.8099
22.8099
22.8099
22.8099
22.8099
22.81
22.81
22.8101
22.8102
22.8103
22.8105
22.8106
22.8107
22.8108
22.8109
22.8111
22.8112
22.8113
22.8114
22.8115
22.8116
22.8117
22.8117
22.8118
22.8118
22.8119
22.8119
22.812
22.812
22.812
22.812
22.812
22.812
22.8119
22.8119
22.8118
22.8118
22.8117
22.8117
22.8116
22.8115
22.8114
22.8113
22.8112
22.8111
22.8109
22.8108
22.8107
22.8106
22.8105
22.8103
22.8102
22.8101
22.81
22.81
22.8099
22.8099
22.8099
22.8099
22.8099
22.8362
22.8362
22.8362
22.8363
22.8363
22.8364
22.8364
22.8365
22.8366
22.8367
22.8369
22.837
22.8371
22.8372
22.8374
22.8375
22.8376
22.8377
22.8378
22.8379
22.838
22.8381