/*--------------------------------*- C++ -*----------------------------------*\
| =========                 |                                                 |
| \\      /  F ield         | foam-extend: Open Source CFD                    |
|  \\    /   O peration     | Version:     4.0                                |
|   \\  /    A nd           | Web:         http://www.foam-extend.org         |
|    \\/     M anipulation  |                                                 |
\*---------------------------------------------------------------------------*/
FoamFile
{
    version     2.0;
    format      ascii;
    class       volVectorField;
    location    "21";
    object      bodyForce;
}
// * * * * * * * * * * * * * * * * * * * * * * * * * * * * * * * * * * * * * //

dimensions      [1 -2 -2 0 0 0 0];

internalField   nonuniform List<vector> 
6960
(
(3.31957e-31 -8.69809e-15 -0)
(1.29094e-31 -8.69809e-15 -0)
(-7.37681e-32 -8.69809e-15 -0)
(-1.65978e-31 -8.69809e-15 -0)
(4.42609e-31 -8.69809e-15 -0)
(1.0512e-30 -8.69809e-15 -0)
(5.53261e-32 -8.69809e-15 -0)
(-5.53261e-32 -8.69809e-15 -0)
(1.47536e-31 -8.69809e-15 -0)
(-3.31957e-31 -8.69809e-15 -0)
(-4.61051e-31 -8.69809e-15 -0)
(-4.42609e-31 -8.69809e-15 -0)
(-4.05725e-31 -8.69809e-15 -0)
(2.39746e-31 -8.69809e-15 -0)
(3.13515e-31 -8.69809e-15 -0)
(1.65978e-31 -8.69809e-15 -0)
(7.19239e-31 -8.69809e-15 -0)
(3.13515e-31 -8.69809e-15 -0)
(-9.58986e-31 -8.69809e-15 -0)
(-7.00797e-31 -8.69809e-15 -0)
(-5.53261e-32 -8.69809e-15 -0)
(-1.29094e-31 -8.69809e-15 -0)
(4.42609e-31 -8.69809e-15 -0)
(1.29094e-31 -8.69809e-15 -0)
(-1.29094e-31 -8.69809e-15 -0)
(5.53261e-32 -8.69809e-15 -0)
(-5.53261e-32 -8.69809e-15 -0)
(3.31957e-31 -8.69809e-15 -0)
(4.24167e-31 -8.69809e-15 -0)
(5.34819e-31 -8.69809e-15 -0)
(-1.65978e-31 -8.69809e-15 -0)
(-8.66775e-31 -8.69809e-15 -0)
(-5.53261e-31 -8.69809e-15 -0)
(2.39746e-31 -8.69809e-15 -0)
(6.27029e-31 -8.69809e-15 -0)
(-0 -8.69809e-15 -0)
(-5.16377e-31 -8.69809e-15 -0)
(-2.95073e-31 -8.69809e-15 -0)
(1.29094e-31 -8.69809e-15 -0)
(5.16377e-31 -8.69809e-15 -0)
(5.71703e-31 -8.69809e-15 -0)
(9.22102e-32 -8.69809e-15 -0)
(3.68841e-31 -8.69809e-15 -0)
(7.37681e-31 -8.69809e-15 -0)
(-1.47536e-31 -8.69809e-15 -0)
(-1.10652e-31 -8.69809e-15 -0)
(5.53261e-31 -8.69809e-15 -0)
(5.16377e-31 -8.69809e-15 -0)
(1.8442e-31 -8.69809e-15 -0)
(3.13515e-31 -8.69809e-15 -0)
(-0 -8.69809e-15 -0)
(-4.05725e-31 -8.69809e-15 -0)
(-1.10652e-31 -8.69809e-15 -0)
(5.53261e-32 -8.69809e-15 -0)
(2.21304e-31 -8.69809e-15 -0)
(-1.29094e-31 -8.69809e-15 -0)
(-1.10652e-30 -8.69809e-15 -0)
(-1.36471e-30 -8.69809e-15 -0)
(-9.40544e-31 -8.69809e-15 -0)
(-5.16377e-31 -8.69809e-15 -0)
(1.28913e-30 -8.69809e-15 -0)
(5.01328e-31 -8.69809e-15 -0)
(-5.72947e-31 -8.69809e-15 -0)
(-7.16183e-31 -8.69809e-15 -0)
(1.21751e-30 -8.69809e-15 -0)
(3.22283e-30 -8.69809e-15 -0)
(2.86473e-31 -8.69809e-15 -0)
(-3.58092e-31 -8.69809e-15 -0)
(5.72947e-31 -8.69809e-15 -0)
(-1.00266e-30 -8.69809e-15 -0)
(-1.28913e-30 -8.69809e-15 -0)
(-1.36075e-30 -8.69809e-15 -0)
(-1.28913e-30 -8.69809e-15 -0)
(6.44565e-31 -8.69809e-15 -0)
(1.14589e-30 -8.69809e-15 -0)
(6.44565e-31 -8.69809e-15 -0)
(1.9337e-30 -8.69809e-15 -0)
(1.14589e-30 -8.69809e-15 -0)
(-3.00797e-30 -8.69809e-15 -0)
(-2.29179e-30 -8.69809e-15 -0)
(7.16183e-32 -8.69809e-15 -0)
(-4.2971e-31 -8.69809e-15 -0)
(1.21751e-30 -8.69809e-15 -0)
(6.44565e-31 -8.69809e-15 -0)
(-2.14855e-31 -8.69809e-15 -0)
(-7.16183e-32 -8.69809e-15 -0)
(-2.86473e-31 -8.69809e-15 -0)
(1.07428e-30 -8.69809e-15 -0)
(1.36075e-30 -8.69809e-15 -0)
(1.64722e-30 -8.69809e-15 -0)
(-7.16183e-31 -8.69809e-15 -0)
(-2.7215e-30 -8.69809e-15 -0)
(-1.50399e-30 -8.69809e-15 -0)
(5.72947e-31 -8.69809e-15 -0)
(1.71884e-30 -8.69809e-15 -0)
(2.14855e-31 -8.69809e-15 -0)
(-1.5756e-30 -8.69809e-15 -0)
(-1.07428e-30 -8.69809e-15 -0)
(6.44565e-31 -8.69809e-15 -0)
(1.64722e-30 -8.69809e-15 -0)
(1.71884e-30 -8.69809e-15 -0)
(2.86473e-31 -8.69809e-15 -0)
(1.07428e-30 -8.69809e-15 -0)
(2.22017e-30 -8.69809e-15 -0)
(-5.72947e-31 -8.69809e-15 -0)
(-2.86473e-31 -8.69809e-15 -0)
(1.71884e-30 -8.69809e-15 -0)
(1.50399e-30 -8.69809e-15 -0)
(5.72947e-31 -8.69809e-15 -0)
(9.31038e-31 -8.69809e-15 -0)
(-0 -8.69809e-15 -0)
(-1.28913e-30 -8.69809e-15 -0)
(-7.16183e-32 -8.69809e-15 -0)
(-0 -8.69809e-15 -0)
(7.87802e-31 -8.69809e-15 -0)
(-2.86473e-31 -8.69809e-15 -0)
(-3.36606e-30 -8.69809e-15 -0)
(-4.22548e-30 -8.69809e-15 -0)
(-3.00797e-30 -8.69809e-15 -0)
(-1.43237e-30 -8.69809e-15 -0)
(1.80781e-30 -8.69809e-15 -0)
(4.17187e-31 -8.69809e-15 -0)
(-4.17187e-31 -8.69809e-15 -0)
(-9.73437e-31 -8.69809e-15 -0)
(1.94687e-30 -8.69809e-15 -0)
(5.28437e-30 -8.69809e-15 -0)
(-0 -8.69809e-15 -0)
(-1.39062e-31 -8.69809e-15 -0)
(1.52969e-30 -8.69809e-15 -0)
(-1.80781e-30 -8.69809e-15 -0)
(-2.50312e-30 -8.69809e-15 -0)
(-2.50312e-30 -8.69809e-15 -0)
(-2.08594e-30 -8.69809e-15 -0)
(9.73437e-31 -8.69809e-15 -0)
(2.08594e-30 -8.69809e-15 -0)
(6.95312e-31 -8.69809e-15 -0)
(3.3375e-30 -8.69809e-15 -0)
(2.225e-30 -8.69809e-15 -0)
(-5.14531e-30 -8.69809e-15 -0)
(-3.75468e-30 -8.69809e-15 -0)
(4.17187e-31 -8.69809e-15 -0)
(-9.73437e-31 -8.69809e-15 -0)
(1.94687e-30 -8.69809e-15 -0)
(1.1125e-30 -8.69809e-15 -0)
(-6.95312e-31 -8.69809e-15 -0)
(1.39062e-31 -8.69809e-15 -0)
(-1.39062e-31 -8.69809e-15 -0)
(1.52969e-30 -8.69809e-15 -0)
(2.08594e-30 -8.69809e-15 -0)
(2.92031e-30 -8.69809e-15 -0)
(-1.25156e-30 -8.69809e-15 -0)
(-4.17187e-30 -8.69809e-15 -0)
(-2.50312e-30 -8.69809e-15 -0)
(8.34374e-31 -8.69809e-15 -0)
(2.92031e-30 -8.69809e-15 -0)
(4.17187e-31 -8.69809e-15 -0)
(-2.50312e-30 -8.69809e-15 -0)
(-2.08594e-30 -8.69809e-15 -0)
(9.73437e-31 -8.69809e-15 -0)
(3.05937e-30 -8.69809e-15 -0)
(2.92031e-30 -8.69809e-15 -0)
(2.78125e-31 -8.69809e-15 -0)
(1.80781e-30 -8.69809e-15 -0)
(3.47656e-30 -8.69809e-15 -0)
(-5.5625e-31 -8.69809e-15 -0)
(-4.17187e-31 -8.69809e-15 -0)
(2.78125e-30 -8.69809e-15 -0)
(2.64219e-30 -8.69809e-15 -0)
(9.73437e-31 -8.69809e-15 -0)
(1.52969e-30 -8.69809e-15 -0)
(-4.17187e-31 -8.69809e-15 -0)
(-2.08594e-30 -8.69809e-15 -0)
(-1.39062e-31 -8.69809e-15 -0)
(5.5625e-31 -8.69809e-15 -0)
(1.25156e-30 -8.69809e-15 -0)
(-8.34374e-31 -8.69809e-15 -0)
(-5.84062e-30 -8.69809e-15 -0)
(-6.81406e-30 -8.69809e-15 -0)
(-5.00625e-30 -8.69809e-15 -0)
(-2.64219e-30 -8.69809e-15 -0)
(2.7002e-30 -8.69809e-15 -0)
(1.08008e-30 -8.69809e-15 -0)
(-8.10059e-31 -8.69809e-15 -0)
(-1.48511e-30 -8.69809e-15 -0)
(2.56519e-30 -8.69809e-15 -0)
(7.69556e-30 -8.69809e-15 -0)
(5.40039e-31 -8.69809e-15 -0)
(-4.05029e-31 -8.69809e-15 -0)
(1.75513e-30 -8.69809e-15 -0)
(-2.7002e-30 -8.69809e-15 -0)
(-3.78027e-30 -8.69809e-15 -0)
(-2.7002e-30 -8.69809e-15 -0)
(-3.37524e-30 -8.69809e-15 -0)
(1.21509e-30 -8.69809e-15 -0)
(2.97021e-30 -8.69809e-15 -0)
(1.08008e-30 -8.69809e-15 -0)
(4.72534e-30 -8.69809e-15 -0)
(3.10522e-30 -8.69809e-15 -0)
(-7.42554e-30 -8.69809e-15 -0)
(-5.26538e-30 -8.69809e-15 -0)
(2.7002e-31 -8.69809e-15 -0)
(-9.45068e-31 -8.69809e-15 -0)
(2.56519e-30 -8.69809e-15 -0)
(1.08008e-30 -8.69809e-15 -0)
(-6.75049e-31 -8.69809e-15 -0)
(4.05029e-31 -8.69809e-15 -0)
(-1.3501e-31 -8.69809e-15 -0)
(2.02515e-30 -8.69809e-15 -0)
(3.10522e-30 -8.69809e-15 -0)
(4.05029e-30 -8.69809e-15 -0)
(-1.3501e-30 -8.69809e-15 -0)
(-5.80542e-30 -8.69809e-15 -0)
(-3.51025e-30 -8.69809e-15 -0)
(1.21509e-30 -8.69809e-15 -0)
(4.32031e-30 -8.69809e-15 -0)
(2.7002e-31 -8.69809e-15 -0)
(-3.78027e-30 -8.69809e-15 -0)
(-2.7002e-30 -8.69809e-15 -0)
(1.48511e-30 -8.69809e-15 -0)
(4.1853e-30 -8.69809e-15 -0)
(4.1853e-30 -8.69809e-15 -0)
(1.3501e-31 -8.69809e-15 -0)
(2.97021e-30 -8.69809e-15 -0)
(5.40039e-30 -8.69809e-15 -0)
(-1.21509e-30 -8.69809e-15 -0)
(-8.10059e-31 -8.69809e-15 -0)
(3.64526e-30 -8.69809e-15 -0)
(3.64526e-30 -8.69809e-15 -0)
(1.89014e-30 -8.69809e-15 -0)
(2.02515e-30 -8.69809e-15 -0)
(-2.7002e-31 -8.69809e-15 -0)
(-2.7002e-30 -8.69809e-15 -0)
(-1.3501e-31 -8.69809e-15 -0)
(4.05029e-31 -8.69809e-15 -0)
(1.62012e-30 -8.69809e-15 -0)
(-1.21509e-30 -8.69809e-15 -0)
(-8.10059e-30 -8.69809e-15 -0)
(-9.85571e-30 -8.69809e-15 -0)
(-6.8855e-30 -8.69809e-15 -0)
(-3.78027e-30 -8.69809e-15 -0)
(3.93226e-30 -8.69809e-15 -0)
(1.0486e-30 -8.69809e-15 -0)
(-1.31075e-30 -8.69809e-15 -0)
(-1.5729e-30 -8.69809e-15 -0)
(3.40796e-30 -8.69809e-15 -0)
(9.96172e-30 -8.69809e-15 -0)
(1.31075e-30 -8.69809e-15 -0)
(-7.86451e-31 -8.69809e-15 -0)
(1.5729e-30 -8.69809e-15 -0)
(-3.14581e-30 -8.69809e-15 -0)
(-4.71871e-30 -8.69809e-15 -0)
(-3.67011e-30 -8.69809e-15 -0)
(-3.93226e-30 -8.69809e-15 -0)
(2.0972e-30 -8.69809e-15 -0)
(3.93226e-30 -8.69809e-15 -0)
(1.31075e-30 -8.69809e-15 -0)
(6.02946e-30 -8.69809e-15 -0)
(4.19441e-30 -8.69809e-15 -0)
(-9.17527e-30 -8.69809e-15 -0)
(-7.34021e-30 -8.69809e-15 -0)
(-0 -8.69809e-15 -0)
(-1.31075e-30 -8.69809e-15 -0)
(3.93226e-30 -8.69809e-15 -0)
(1.5729e-30 -8.69809e-15 -0)
(-1.0486e-30 -8.69809e-15 -0)
(5.24301e-31 -8.69809e-15 -0)
(-5.24301e-31 -8.69809e-15 -0)
(3.14581e-30 -8.69809e-15 -0)
(3.93226e-30 -8.69809e-15 -0)
(4.45656e-30 -8.69809e-15 -0)
(-2.35935e-30 -8.69809e-15 -0)
(-7.34021e-30 -8.69809e-15 -0)
(-3.93226e-30 -8.69809e-15 -0)
(1.5729e-30 -8.69809e-15 -0)
(5.24301e-30 -8.69809e-15 -0)
(2.6215e-31 -8.69809e-15 -0)
(-4.98086e-30 -8.69809e-15 -0)
(-3.93226e-30 -8.69809e-15 -0)
(2.35935e-30 -8.69809e-15 -0)
(6.29161e-30 -8.69809e-15 -0)
(4.71871e-30 -8.69809e-15 -0)
(2.6215e-31 -8.69809e-15 -0)
(3.40796e-30 -8.69809e-15 -0)
(7.34021e-30 -8.69809e-15 -0)
(-1.31075e-30 -8.69809e-15 -0)
(-1.0486e-30 -8.69809e-15 -0)
(4.71871e-30 -8.69809e-15 -0)
(4.98086e-30 -8.69809e-15 -0)
(2.0972e-30 -8.69809e-15 -0)
(2.6215e-30 -8.69809e-15 -0)
(-0 -8.69809e-15 -0)
(-4.19441e-30 -8.69809e-15 -0)
(-0 -8.69809e-15 -0)
(5.24301e-31 -8.69809e-15 -0)
(2.35935e-30 -8.69809e-15 -0)
(-1.83505e-30 -8.69809e-15 -0)
(-1.07482e-29 -8.69809e-15 -0)
(-1.25832e-29 -8.69809e-15 -0)
(-8.65097e-30 -8.69809e-15 -0)
(-4.45656e-30 -8.69809e-15 -0)
(5.59924e-30 -8.69809e-15 -0)
(2.03609e-30 -8.69809e-15 -0)
(-1.52706e-30 -8.69809e-15 -0)
(-1.52706e-30 -8.69809e-15 -0)
(4.58119e-30 -8.69809e-15 -0)
(1.27255e-29 -8.69809e-15 -0)
(1.27255e-30 -8.69809e-15 -0)
(-1.52706e-30 -8.69809e-15 -0)
(1.52706e-30 -8.69809e-15 -0)
(-3.56315e-30 -8.69809e-15 -0)
(-4.8357e-30 -8.69809e-15 -0)
(-5.59924e-30 -8.69809e-15 -0)
(-4.58119e-30 -8.69809e-15 -0)
(2.2906e-30 -8.69809e-15 -0)
(4.8357e-30 -8.69809e-15 -0)
(2.54511e-30 -8.69809e-15 -0)
(6.36277e-30 -8.69809e-15 -0)
(5.34473e-30 -8.69809e-15 -0)
(-1.06895e-29 -8.69809e-15 -0)
(-8.39885e-30 -8.69809e-15 -0)
(-1.01804e-30 -8.69809e-15 -0)
(-2.2906e-30 -8.69809e-15 -0)
(5.59924e-30 -8.69809e-15 -0)
(2.03609e-30 -8.69809e-15 -0)
(-7.63532e-31 -8.69809e-15 -0)
(5.09021e-31 -8.69809e-15 -0)
(-7.63532e-31 -8.69809e-15 -0)
(3.81766e-30 -8.69809e-15 -0)
(5.34473e-30 -8.69809e-15 -0)
(5.59924e-30 -8.69809e-15 -0)
(-3.56315e-30 -8.69809e-15 -0)
(-9.4169e-30 -8.69809e-15 -0)
(-5.09021e-30 -8.69809e-15 -0)
(2.03609e-30 -8.69809e-15 -0)
(7.1263e-30 -8.69809e-15 -0)
(-0 -8.69809e-15 -0)
(-5.59924e-30 -8.69809e-15 -0)
(-5.09021e-30 -8.69809e-15 -0)
(2.79962e-30 -8.69809e-15 -0)
(7.1263e-30 -8.69809e-15 -0)
(6.61728e-30 -8.69809e-15 -0)
(-0 -8.69809e-15 -0)
(4.32668e-30 -8.69809e-15 -0)
(9.4169e-30 -8.69809e-15 -0)
(-2.03609e-30 -8.69809e-15 -0)
(-1.27255e-30 -8.69809e-15 -0)
(5.85375e-30 -8.69809e-15 -0)
(6.36277e-30 -8.69809e-15 -0)
(2.03609e-30 -8.69809e-15 -0)
(2.79962e-30 -8.69809e-15 -0)
(-0 -8.69809e-15 -0)
(-3.81766e-30 -8.69809e-15 -0)
(-5.09021e-31 -8.69809e-15 -0)
(7.63532e-31 -8.69809e-15 -0)
(2.54511e-30 -8.69809e-15 -0)
(-2.2906e-30 -8.69809e-15 -0)
(-1.27255e-29 -8.69809e-15 -0)
(-1.57797e-29 -8.69809e-15 -0)
(-1.1453e-29 -8.69809e-15 -0)
(-5.85375e-30 -8.69809e-15 -0)
(6.17734e-30 -8.69809e-15 -0)
(3.7064e-30 -8.69809e-15 -0)
(-1.72966e-30 -8.69809e-15 -0)
(-2.47094e-30 -8.69809e-15 -0)
(5.68315e-30 -8.69809e-15 -0)
(1.45785e-29 -8.69809e-15 -0)
(1.48256e-30 -8.69809e-15 -0)
(-1.97675e-30 -8.69809e-15 -0)
(1.48256e-30 -8.69809e-15 -0)
(-4.44769e-30 -8.69809e-15 -0)
(-5.93025e-30 -8.69809e-15 -0)
(-5.68315e-30 -8.69809e-15 -0)
(-5.93025e-30 -8.69809e-15 -0)
(2.96512e-30 -8.69809e-15 -0)
(6.91862e-30 -8.69809e-15 -0)
(2.22384e-30 -8.69809e-15 -0)
(7.907e-30 -8.69809e-15 -0)
(6.42443e-30 -8.69809e-15 -0)
(-1.35902e-29 -8.69809e-15 -0)
(-1.03779e-29 -8.69809e-15 -0)
(-0 -8.69809e-15 -0)
(-2.71803e-30 -8.69809e-15 -0)
(6.17734e-30 -8.69809e-15 -0)
(2.96512e-30 -8.69809e-15 -0)
(-1.97675e-30 -8.69809e-15 -0)
(4.94187e-31 -8.69809e-15 -0)
(-4.94187e-31 -8.69809e-15 -0)
(4.69478e-30 -8.69809e-15 -0)
(6.17734e-30 -8.69809e-15 -0)
(7.16572e-30 -8.69809e-15 -0)
(-4.44769e-30 -8.69809e-15 -0)
(-1.08721e-29 -8.69809e-15 -0)
(-5.93025e-30 -8.69809e-15 -0)
(2.22384e-30 -8.69809e-15 -0)
(8.40118e-30 -8.69809e-15 -0)
(-0 -8.69809e-15 -0)
(-7.41281e-30 -8.69809e-15 -0)
(-5.93025e-30 -8.69809e-15 -0)
(3.45931e-30 -8.69809e-15 -0)
(9.38956e-30 -8.69809e-15 -0)
(7.6599e-30 -8.69809e-15 -0)
(-4.94187e-31 -8.69809e-15 -0)
(5.68315e-30 -8.69809e-15 -0)
(1.13663e-29 -8.69809e-15 -0)
(-2.96512e-30 -8.69809e-15 -0)
(-1.72966e-30 -8.69809e-15 -0)
(7.16572e-30 -8.69809e-15 -0)
(6.67153e-30 -8.69809e-15 -0)
(3.21222e-30 -8.69809e-15 -0)
(4.20059e-30 -8.69809e-15 -0)
(4.94187e-31 -8.69809e-15 -0)
(-4.69478e-30 -8.69809e-15 -0)
(-1.23547e-30 -8.69809e-15 -0)
(7.41281e-31 -8.69809e-15 -0)
(3.45931e-30 -8.69809e-15 -0)
(-2.71803e-30 -8.69809e-15 -0)
(-1.48256e-29 -8.69809e-15 -0)
(-2.00146e-29 -8.69809e-15 -0)
(-1.35901e-29 -8.69809e-15 -0)
(-6.42443e-30 -8.69809e-15 -0)
(6.23721e-30 -8.69809e-15 -0)
(3.3585e-30 -8.69809e-15 -0)
(-0 -8.69809e-15 -0)
(-2.87871e-30 -8.69809e-15 -0)
(6.717e-30 -8.69809e-15 -0)
(1.77521e-29 -8.69809e-15 -0)
(-0 -8.69809e-15 -0)
(-2.39893e-30 -8.69809e-15 -0)
(1.91914e-30 -8.69809e-15 -0)
(-4.79785e-30 -8.69809e-15 -0)
(-7.19678e-30 -8.69809e-15 -0)
(-7.19678e-30 -8.69809e-15 -0)
(-5.75742e-30 -8.69809e-15 -0)
(3.3585e-30 -8.69809e-15 -0)
(7.19678e-30 -8.69809e-15 -0)
(2.87871e-30 -8.69809e-15 -0)
(9.59571e-30 -8.69809e-15 -0)
(7.19678e-30 -8.69809e-15 -0)
(-1.58329e-29 -8.69809e-15 -0)
(-1.24744e-29 -8.69809e-15 -0)
(-4.79785e-31 -8.69809e-15 -0)
(-2.39893e-30 -8.69809e-15 -0)
(7.19678e-30 -8.69809e-15 -0)
(1.91914e-30 -8.69809e-15 -0)
(-2.39893e-30 -8.69809e-15 -0)
(1.91914e-30 -8.69809e-15 -0)
(-9.59571e-31 -8.69809e-15 -0)
(5.27764e-30 -8.69809e-15 -0)
(8.63614e-30 -8.69809e-15 -0)
(7.67657e-30 -8.69809e-15 -0)
(-4.79785e-30 -8.69809e-15 -0)
(-1.3434e-29 -8.69809e-15 -0)
(-8.15635e-30 -8.69809e-15 -0)
(4.79785e-30 -8.69809e-15 -0)
(9.59571e-30 -8.69809e-15 -0)
(-4.79785e-31 -8.69809e-15 -0)
(-8.15635e-30 -8.69809e-15 -0)
(-6.717e-30 -8.69809e-15 -0)
(4.31807e-30 -8.69809e-15 -0)
(1.15148e-29 -8.69809e-15 -0)
(7.19678e-30 -8.69809e-15 -0)
(-1.43936e-30 -8.69809e-15 -0)
(6.717e-30 -8.69809e-15 -0)
(1.3434e-29 -8.69809e-15 -0)
(-3.83828e-30 -8.69809e-15 -0)
(-0 -8.69809e-15 -0)
(7.67657e-30 -8.69809e-15 -0)
(7.67657e-30 -8.69809e-15 -0)
(3.83828e-30 -8.69809e-15 -0)
(4.79785e-30 -8.69809e-15 -0)
(-4.79785e-31 -8.69809e-15 -0)
(-4.31807e-30 -8.69809e-15 -0)
(-4.79785e-31 -8.69809e-15 -0)
(-1.43936e-30 -8.69809e-15 -0)
(4.31807e-30 -8.69809e-15 -0)
(-2.39893e-30 -8.69809e-15 -0)
(-1.77521e-29 -8.69809e-15 -0)
(-2.30297e-29 -8.69809e-15 -0)
(-1.67925e-29 -8.69809e-15 -0)
(-7.67657e-30 -8.69809e-15 -0)
(6.52125e-30 -8.69809e-15 -0)
(5.12384e-30 -8.69809e-15 -0)
(-9.31607e-31 -8.69809e-15 -0)
(-3.72643e-30 -8.69809e-15 -0)
(6.52125e-30 -8.69809e-15 -0)
(1.90979e-29 -8.69809e-15 -0)
(3.72643e-30 -8.69809e-15 -0)
(-4.65803e-30 -8.69809e-15 -0)
(4.65803e-31 -8.69809e-15 -0)
(-3.26062e-30 -8.69809e-15 -0)
(-7.45285e-30 -8.69809e-15 -0)
(-8.85026e-30 -8.69809e-15 -0)
(-7.45285e-30 -8.69809e-15 -0)
(3.72643e-30 -8.69809e-15 -0)
(8.85026e-30 -8.69809e-15 -0)
(3.72643e-30 -8.69809e-15 -0)
(1.16451e-29 -8.69809e-15 -0)
(7.91865e-30 -8.69809e-15 -0)
(-1.72347e-29 -8.69809e-15 -0)
(-1.30425e-29 -8.69809e-15 -0)
(-2.79482e-30 -8.69809e-15 -0)
(-3.26062e-30 -8.69809e-15 -0)
(7.45285e-30 -8.69809e-15 -0)
(1.86321e-30 -8.69809e-15 -0)
(-9.31606e-31 -8.69809e-15 -0)
(1.86321e-30 -8.69809e-15 -0)
(-1.86321e-30 -8.69809e-15 -0)
(6.98705e-30 -8.69809e-15 -0)
(1.02477e-29 -8.69809e-15 -0)
(9.31606e-30 -8.69809e-15 -0)
(-4.65803e-30 -8.69809e-15 -0)
(-1.58373e-29 -8.69809e-15 -0)
(-9.31606e-30 -8.69809e-15 -0)
(3.72643e-30 -8.69809e-15 -0)
(1.25767e-29 -8.69809e-15 -0)
(-1.86321e-30 -8.69809e-15 -0)
(-1.11793e-29 -8.69809e-15 -0)
(-6.52124e-30 -8.69809e-15 -0)
(6.05544e-30 -8.69809e-15 -0)
(1.30425e-29 -8.69809e-15 -0)
(8.85026e-30 -8.69809e-15 -0)
(-2.32902e-30 -8.69809e-15 -0)
(7.91865e-30 -8.69809e-15 -0)
(1.53715e-29 -8.69809e-15 -0)
(-3.26062e-30 -8.69809e-15 -0)
(-0 -8.69809e-15 -0)
(8.85026e-30 -8.69809e-15 -0)
(7.91865e-30 -8.69809e-15 -0)
(2.79482e-30 -8.69809e-15 -0)
(5.58964e-30 -8.69809e-15 -0)
(9.31606e-31 -8.69809e-15 -0)
(-3.72643e-30 -8.69809e-15 -0)
(-9.31606e-31 -8.69809e-15 -0)
(-9.31606e-31 -8.69809e-15 -0)
(6.05544e-30 -8.69809e-15 -0)
(-3.26062e-30 -8.69809e-15 -0)
(-2.18928e-29 -8.69809e-15 -0)
(-2.70166e-29 -8.69809e-15 -0)
(-1.90979e-29 -8.69809e-15 -0)
(-9.78187e-30 -8.69809e-15 -0)
(6.78343e-30 -8.69809e-15 -0)
(5.42674e-30 -8.69809e-15 -0)
(-1.80891e-30 -8.69809e-15 -0)
(-3.61783e-30 -8.69809e-15 -0)
(9.94903e-30 -8.69809e-15 -0)
(2.1707e-29 -8.69809e-15 -0)
(3.61783e-30 -8.69809e-15 -0)
(-7.23566e-30 -8.69809e-15 -0)
(1.80891e-30 -8.69809e-15 -0)
(-4.07006e-30 -8.69809e-15 -0)
(-9.04457e-30 -8.69809e-15 -0)
(-9.4968e-30 -8.69809e-15 -0)
(-9.94903e-30 -8.69809e-15 -0)
(4.52229e-30 -8.69809e-15 -0)
(1.13057e-29 -8.69809e-15 -0)
(4.97451e-30 -8.69809e-15 -0)
(1.26624e-29 -8.69809e-15 -0)
(9.04457e-30 -8.69809e-15 -0)
(-1.98981e-29 -8.69809e-15 -0)
(-1.62802e-29 -8.69809e-15 -0)
(-2.71337e-30 -8.69809e-15 -0)
(-2.71337e-30 -8.69809e-15 -0)
(7.68788e-30 -8.69809e-15 -0)
(3.1656e-30 -8.69809e-15 -0)
(-9.04457e-31 -8.69809e-15 -0)
(9.04457e-31 -8.69809e-15 -0)
(-3.1656e-30 -8.69809e-15 -0)
(8.59234e-30 -8.69809e-15 -0)
(1.13057e-29 -8.69809e-15 -0)
(1.04013e-29 -8.69809e-15 -0)
(-4.97451e-30 -8.69809e-15 -0)
(-1.76369e-29 -8.69809e-15 -0)
(-1.13057e-29 -8.69809e-15 -0)
(4.07006e-30 -8.69809e-15 -0)
(1.44713e-29 -8.69809e-15 -0)
(-1.35669e-30 -8.69809e-15 -0)
(-1.22102e-29 -8.69809e-15 -0)
(-6.78343e-30 -8.69809e-15 -0)
(5.87897e-30 -8.69809e-15 -0)
(1.53758e-29 -8.69809e-15 -0)
(1.08535e-29 -8.69809e-15 -0)
(-2.71337e-30 -8.69809e-15 -0)
(7.68788e-30 -8.69809e-15 -0)
(1.67325e-29 -8.69809e-15 -0)
(-3.1656e-30 -8.69809e-15 -0)
(9.04457e-31 -8.69809e-15 -0)
(9.94903e-30 -8.69809e-15 -0)
(7.23566e-30 -8.69809e-15 -0)
(2.71337e-30 -8.69809e-15 -0)
(6.78343e-30 -8.69809e-15 -0)
(2.71337e-30 -8.69809e-15 -0)
(-4.97451e-30 -8.69809e-15 -0)
(-2.71337e-30 -8.69809e-15 -0)
(4.52229e-31 -8.69809e-15 -0)
(7.68789e-30 -8.69809e-15 -0)
(-3.61783e-30 -8.69809e-15 -0)
(-2.39681e-29 -8.69809e-15 -0)
(-3.21082e-29 -8.69809e-15 -0)
(-2.26114e-29 -8.69809e-15 -0)
(-9.04457e-30 -8.69809e-15 -0)
(5.70764e-30 -8.69809e-15 -0)
(6.14669e-30 -8.69809e-15 -0)
(1.7562e-30 -8.69809e-15 -0)
(-3.95145e-30 -8.69809e-15 -0)
(9.65909e-30 -8.69809e-15 -0)
(2.37087e-29 -8.69809e-15 -0)
(2.6343e-30 -8.69809e-15 -0)
(-7.46384e-30 -8.69809e-15 -0)
(4.39049e-31 -8.69809e-15 -0)
(-4.39049e-30 -8.69809e-15 -0)
(-8.78099e-30 -8.69809e-15 -0)
(-1.05372e-29 -8.69809e-15 -0)
(-9.65909e-30 -8.69809e-15 -0)
(4.82954e-30 -8.69809e-15 -0)
(1.36105e-29 -8.69809e-15 -0)
(5.70764e-30 -8.69809e-15 -0)
(1.40496e-29 -8.69809e-15 -0)
(9.65909e-30 -8.69809e-15 -0)
(-2.28306e-29 -8.69809e-15 -0)
(-1.58058e-29 -8.69809e-15 -0)
(-3.95144e-30 -8.69809e-15 -0)
(-4.82954e-30 -8.69809e-15 -0)
(9.22004e-30 -8.69809e-15 -0)
(3.5124e-30 -8.69809e-15 -0)
(-1.31715e-30 -8.69809e-15 -0)
(8.78099e-31 -8.69809e-15 -0)
(-4.82954e-30 -8.69809e-15 -0)
(9.22004e-30 -8.69809e-15 -0)
(1.40496e-29 -8.69809e-15 -0)
(1.14153e-29 -8.69809e-15 -0)
(-6.14669e-30 -8.69809e-15 -0)
(-1.97572e-29 -8.69809e-15 -0)
(-1.14153e-29 -8.69809e-15 -0)
(5.70764e-30 -8.69809e-15 -0)
(1.40496e-29 -8.69809e-15 -0)
(-2.6343e-30 -8.69809e-15 -0)
(-1.22934e-29 -8.69809e-15 -0)
(-6.58574e-30 -8.69809e-15 -0)
(7.02479e-30 -8.69809e-15 -0)
(1.62448e-29 -8.69809e-15 -0)
(1.00981e-29 -8.69809e-15 -0)
(-3.95144e-30 -8.69809e-15 -0)
(1.05372e-29 -8.69809e-15 -0)
(1.7562e-29 -8.69809e-15 -0)
(-2.19525e-30 -8.69809e-15 -0)
(3.5124e-30 -8.69809e-15 -0)
(8.78099e-30 -8.69809e-15 -0)
(6.58574e-30 -8.69809e-15 -0)
(3.95144e-30 -8.69809e-15 -0)
(7.02479e-30 -8.69809e-15 -0)
(3.5124e-30 -8.69809e-15 -0)
(-4.82954e-30 -8.69809e-15 -0)
(-1.7562e-30 -8.69809e-15 -0)
(-0 -8.69809e-15 -0)
(8.78099e-30 -8.69809e-15 -0)
(-3.07335e-30 -8.69809e-15 -0)
(-2.89773e-29 -8.69809e-15 -0)
(-3.5563e-29 -8.69809e-15 -0)
(-2.59039e-29 -8.69809e-15 -0)
(-1.31715e-29 -8.69809e-15 -0)
(5.54131e-30 -8.69809e-15 -0)
(7.24633e-30 -8.69809e-15 -0)
(-4.26254e-31 -8.69809e-15 -0)
(-3.41004e-30 -8.69809e-15 -0)
(1.32139e-29 -8.69809e-15 -0)
(2.6854e-29 -8.69809e-15 -0)
(2.98378e-30 -8.69809e-15 -0)
(-1.10826e-29 -8.69809e-15 -0)
(-0 -8.69809e-15 -0)
(-3.83629e-30 -8.69809e-15 -0)
(-9.80385e-30 -8.69809e-15 -0)
(-1.15089e-29 -8.69809e-15 -0)
(-1.06564e-29 -8.69809e-15 -0)
(6.82007e-30 -8.69809e-15 -0)
(1.40664e-29 -8.69809e-15 -0)
(5.96756e-30 -8.69809e-15 -0)
(1.49189e-29 -8.69809e-15 -0)
(9.80385e-30 -8.69809e-15 -0)
(-2.42965e-29 -8.69809e-15 -0)
(-1.74764e-29 -8.69809e-15 -0)
(-3.41004e-30 -8.69809e-15 -0)
(-4.6888e-30 -8.69809e-15 -0)
(8.52509e-30 -8.69809e-15 -0)
(5.11505e-30 -8.69809e-15 -0)
(-1.27876e-30 -8.69809e-15 -0)
(-8.52509e-31 -8.69809e-15 -0)
(-5.96756e-30 -8.69809e-15 -0)
(1.15089e-29 -8.69809e-15 -0)
(1.49189e-29 -8.69809e-15 -0)
(1.15089e-29 -8.69809e-15 -0)
(-6.82007e-30 -8.69809e-15 -0)
(-2.13127e-29 -8.69809e-15 -0)
(-1.36401e-29 -8.69809e-15 -0)
(6.39382e-30 -8.69809e-15 -0)
(1.83289e-29 -8.69809e-15 -0)
(-1.70502e-30 -8.69809e-15 -0)
(-1.36401e-29 -8.69809e-15 -0)
(-9.3776e-30 -8.69809e-15 -0)
(6.82007e-30 -8.69809e-15 -0)
(2.04602e-29 -8.69809e-15 -0)
(1.19351e-29 -8.69809e-15 -0)
(-5.96756e-30 -8.69809e-15 -0)
(1.15089e-29 -8.69809e-15 -0)
(2.08865e-29 -8.69809e-15 -0)
(-4.26254e-30 -8.69809e-15 -0)
(5.11505e-30 -8.69809e-15 -0)
(1.06564e-29 -8.69809e-15 -0)
(6.39382e-30 -8.69809e-15 -0)
(2.98378e-30 -8.69809e-15 -0)
(6.82007e-30 -8.69809e-15 -0)
(4.26254e-30 -8.69809e-15 -0)
(-2.98378e-30 -8.69809e-15 -0)
(-2.98378e-30 -8.69809e-15 -0)
(4.26254e-31 -8.69809e-15 -0)
(1.10826e-29 -8.69809e-15 -0)
(-3.83629e-30 -8.69809e-15 -0)
(-3.23953e-29 -8.69809e-15 -0)
(-4.13467e-29 -8.69809e-15 -0)
(-2.94116e-29 -8.69809e-15 -0)
(-1.32139e-29 -8.69809e-15 -0)
(4.96599e-30 -8.69809e-15 -0)
(9.93198e-30 -8.69809e-15 -0)
(1.65533e-30 -8.69809e-15 -0)
(-4.13832e-30 -8.69809e-15 -0)
(1.32426e-29 -8.69809e-15 -0)
(3.06236e-29 -8.69809e-15 -0)
(4.96599e-30 -8.69809e-15 -0)
(-1.4898e-29 -8.69809e-15 -0)
(-0 -8.69809e-15 -0)
(-1.65533e-30 -8.69809e-15 -0)
(-1.07596e-29 -8.69809e-15 -0)
(-1.15873e-29 -8.69809e-15 -0)
(-1.15873e-29 -8.69809e-15 -0)
(4.96599e-30 -8.69809e-15 -0)
(1.4898e-29 -8.69809e-15 -0)
(7.44898e-30 -8.69809e-15 -0)
(1.65533e-29 -8.69809e-15 -0)
(1.2415e-29 -8.69809e-15 -0)
(-2.64853e-29 -8.69809e-15 -0)
(-2.06916e-29 -8.69809e-15 -0)
(-3.31066e-30 -8.69809e-15 -0)
(-5.79365e-30 -8.69809e-15 -0)
(9.93197e-30 -8.69809e-15 -0)
(4.96599e-30 -8.69809e-15 -0)
(-1.65533e-30 -8.69809e-15 -0)
(-8.27665e-31 -8.69809e-15 -0)
(-8.27665e-30 -8.69809e-15 -0)
(1.2415e-29 -8.69809e-15 -0)
(1.82086e-29 -8.69809e-15 -0)
(1.07596e-29 -8.69809e-15 -0)
(-7.44898e-30 -8.69809e-15 -0)
(-2.48299e-29 -8.69809e-15 -0)
(-1.40703e-29 -8.69809e-15 -0)
(7.44898e-30 -8.69809e-15 -0)
(1.90363e-29 -8.69809e-15 -0)
(-0 -8.69809e-15 -0)
(-1.4898e-29 -8.69809e-15 -0)
(-9.93197e-30 -8.69809e-15 -0)
(5.79365e-30 -8.69809e-15 -0)
(2.06916e-29 -8.69809e-15 -0)
(1.4898e-29 -8.69809e-15 -0)
(-4.96599e-30 -8.69809e-15 -0)
(1.07596e-29 -8.69809e-15 -0)
(2.15193e-29 -8.69809e-15 -0)
(-2.48299e-30 -8.69809e-15 -0)
(6.62132e-30 -8.69809e-15 -0)
(1.15873e-29 -8.69809e-15 -0)
(4.96599e-30 -8.69809e-15 -0)
(3.31066e-30 -8.69809e-15 -0)
(7.44898e-30 -8.69809e-15 -0)
(3.31066e-30 -8.69809e-15 -0)
(-1.65533e-30 -8.69809e-15 -0)
(-2.48299e-30 -8.69809e-15 -0)
(-0 -8.69809e-15 -0)
(1.2415e-29 -8.69809e-15 -0)
(-2.48299e-30 -8.69809e-15 -0)
(-3.55896e-29 -8.69809e-15 -0)
(-4.63492e-29 -8.69809e-15 -0)
(-3.47619e-29 -8.69809e-15 -0)
(-1.7381e-29 -8.69809e-15 -0)
(5.62481e-30 -8.69809e-15 -0)
(1.36603e-29 -8.69809e-15 -0)
(2.41063e-30 -8.69809e-15 -0)
(-3.21418e-30 -8.69809e-15 -0)
(1.7678e-29 -8.69809e-15 -0)
(3.21418e-29 -8.69809e-15 -0)
(1.60709e-30 -8.69809e-15 -0)
(-1.44638e-29 -8.69809e-15 -0)
(8.03544e-31 -8.69809e-15 -0)
(-5.62481e-30 -8.69809e-15 -0)
(-1.12496e-29 -8.69809e-15 -0)
(-1.28567e-29 -8.69809e-15 -0)
(-1.20532e-29 -8.69809e-15 -0)
(5.62481e-30 -8.69809e-15 -0)
(1.60709e-29 -8.69809e-15 -0)
(7.2319e-30 -8.69809e-15 -0)
(2.00886e-29 -8.69809e-15 -0)
(1.44638e-29 -8.69809e-15 -0)
(-2.73205e-29 -8.69809e-15 -0)
(-2.24992e-29 -8.69809e-15 -0)
(-4.82127e-30 -8.69809e-15 -0)
(-5.62481e-30 -8.69809e-15 -0)
(9.64253e-30 -8.69809e-15 -0)
(7.2319e-30 -8.69809e-15 -0)
(-2.41063e-30 -8.69809e-15 -0)
(-4.82127e-30 -8.69809e-15 -0)
(-7.2319e-30 -8.69809e-15 -0)
(1.60709e-29 -8.69809e-15 -0)
(1.84815e-29 -8.69809e-15 -0)
(1.04461e-29 -8.69809e-15 -0)
(-9.64253e-30 -8.69809e-15 -0)
(-2.89276e-29 -8.69809e-15 -0)
(-1.36603e-29 -8.69809e-15 -0)
(7.2319e-30 -8.69809e-15 -0)
(2.41063e-29 -8.69809e-15 -0)
(3.21418e-30 -8.69809e-15 -0)
(-1.7678e-29 -8.69809e-15 -0)
(-1.36603e-29 -8.69809e-15 -0)
(8.03544e-30 -8.69809e-15 -0)
(2.24992e-29 -8.69809e-15 -0)
(1.52673e-29 -8.69809e-15 -0)
(-4.82127e-30 -8.69809e-15 -0)
(1.12496e-29 -8.69809e-15 -0)
(2.41063e-29 -8.69809e-15 -0)
(-3.21418e-30 -8.69809e-15 -0)
(6.42835e-30 -8.69809e-15 -0)
(1.36603e-29 -8.69809e-15 -0)
(6.42835e-30 -8.69809e-15 -0)
(1.60709e-30 -8.69809e-15 -0)
(8.03544e-30 -8.69809e-15 -0)
(5.62481e-30 -8.69809e-15 -0)
(-3.21418e-30 -8.69809e-15 -0)
(-3.21418e-30 -8.69809e-15 -0)
(2.41063e-30 -8.69809e-15 -0)
(1.28567e-29 -8.69809e-15 -0)
(-3.21418e-30 -8.69809e-15 -0)
(-3.6963e-29 -8.69809e-15 -0)
(-5.30339e-29 -8.69809e-15 -0)
(-3.61595e-29 -8.69809e-15 -0)
(-1.52673e-29 -8.69809e-15 -0)
(6.24102e-30 -8.69809e-15 -0)
(1.32622e-29 -8.69809e-15 -0)
(3.12051e-30 -8.69809e-15 -0)
(-3.12051e-30 -8.69809e-15 -0)
(1.71628e-29 -8.69809e-15 -0)
(3.43256e-29 -8.69809e-15 -0)
(6.24102e-30 -8.69809e-15 -0)
(-2.10634e-29 -8.69809e-15 -0)
(7.80127e-31 -8.69809e-15 -0)
(-2.34038e-30 -8.69809e-15 -0)
(-1.2482e-29 -8.69809e-15 -0)
(-1.2482e-29 -8.69809e-15 -0)
(-1.32622e-29 -8.69809e-15 -0)
(5.46089e-30 -8.69809e-15 -0)
(1.56025e-29 -8.69809e-15 -0)
(9.36152e-30 -8.69809e-15 -0)
(2.26237e-29 -8.69809e-15 -0)
(1.40423e-29 -8.69809e-15 -0)
(-3.0425e-29 -8.69809e-15 -0)
(-2.18436e-29 -8.69809e-15 -0)
(-4.68076e-30 -8.69809e-15 -0)
(-6.24102e-30 -8.69809e-15 -0)
(8.5814e-30 -8.69809e-15 -0)
(7.80127e-30 -8.69809e-15 -0)
(-7.80127e-31 -8.69809e-15 -0)
(-7.02114e-30 -8.69809e-15 -0)
(-1.17019e-29 -8.69809e-15 -0)
(1.71628e-29 -8.69809e-15 -0)
(2.34038e-29 -8.69809e-15 -0)
(1.09218e-29 -8.69809e-15 -0)
(-8.5814e-30 -8.69809e-15 -0)
(-2.88647e-29 -8.69809e-15 -0)
(-1.71628e-29 -8.69809e-15 -0)
(8.5814e-30 -8.69809e-15 -0)
(2.34038e-29 -8.69809e-15 -0)
(3.12051e-30 -8.69809e-15 -0)
(-1.56025e-29 -8.69809e-15 -0)
(-1.63827e-29 -8.69809e-15 -0)
(7.80127e-30 -8.69809e-15 -0)
(2.49641e-29 -8.69809e-15 -0)
(1.48224e-29 -8.69809e-15 -0)
(-5.46089e-30 -8.69809e-15 -0)
(1.40423e-29 -8.69809e-15 -0)
(2.73044e-29 -8.69809e-15 -0)
(-4.68076e-30 -8.69809e-15 -0)
(7.02114e-30 -8.69809e-15 -0)
(1.48224e-29 -8.69809e-15 -0)
(5.46089e-30 -8.69809e-15 -0)
(1.56025e-30 -8.69809e-15 -0)
(6.24102e-30 -8.69809e-15 -0)
(4.68076e-30 -8.69809e-15 -0)
(1.56025e-30 -8.69809e-15 -0)
(-3.12051e-30 -8.69809e-15 -0)
(7.80127e-31 -8.69809e-15 -0)
(1.63827e-29 -8.69809e-15 -0)
(-4.68076e-30 -8.69809e-15 -0)
(-4.05666e-29 -8.69809e-15 -0)
(-5.85095e-29 -8.69809e-15 -0)
(-4.05666e-29 -8.69809e-15 -0)
(-1.63827e-29 -8.69809e-15 -0)
(9.8461e-30 -8.69809e-15 -0)
(1.59052e-29 -8.69809e-15 -0)
(4.54435e-30 -8.69809e-15 -0)
(-0 -8.69809e-15 -0)
(1.89348e-29 -8.69809e-15 -0)
(3.55974e-29 -8.69809e-15 -0)
(6.81653e-30 -8.69809e-15 -0)
(-2.1207e-29 -8.69809e-15 -0)
(-2.27218e-30 -8.69809e-15 -0)
(-2.27218e-30 -8.69809e-15 -0)
(-1.13609e-29 -8.69809e-15 -0)
(-1.51478e-29 -8.69809e-15 -0)
(-1.66626e-29 -8.69809e-15 -0)
(7.57392e-30 -8.69809e-15 -0)
(1.66626e-29 -8.69809e-15 -0)
(9.08871e-30 -8.69809e-15 -0)
(2.49939e-29 -8.69809e-15 -0)
(1.59052e-29 -8.69809e-15 -0)
(-2.95383e-29 -8.69809e-15 -0)
(-2.49939e-29 -8.69809e-15 -0)
(-5.30174e-30 -8.69809e-15 -0)
(-7.57392e-30 -8.69809e-15 -0)
(9.8461e-30 -8.69809e-15 -0)
(9.8461e-30 -8.69809e-15 -0)
(-2.27218e-30 -8.69809e-15 -0)
(-7.57392e-30 -8.69809e-15 -0)
(-1.43904e-29 -8.69809e-15 -0)
(1.59052e-29 -8.69809e-15 -0)
(2.95383e-29 -8.69809e-15 -0)
(1.36331e-29 -8.69809e-15 -0)
(-1.13609e-29 -8.69809e-15 -0)
(-3.484e-29 -8.69809e-15 -0)
(-1.66626e-29 -8.69809e-15 -0)
(4.54435e-30 -8.69809e-15 -0)
(2.72661e-29 -8.69809e-15 -0)
(8.33131e-30 -8.69809e-15 -0)
(-2.19644e-29 -8.69809e-15 -0)
(-1.66626e-29 -8.69809e-15 -0)
(1.43904e-29 -8.69809e-15 -0)
(2.49939e-29 -8.69809e-15 -0)
(1.43904e-29 -8.69809e-15 -0)
(-4.54435e-30 -8.69809e-15 -0)
(1.28757e-29 -8.69809e-15 -0)
(2.80235e-29 -8.69809e-15 -0)
(-3.78696e-30 -8.69809e-15 -0)
(6.81653e-30 -8.69809e-15 -0)
(1.96922e-29 -8.69809e-15 -0)
(6.05914e-30 -8.69809e-15 -0)
(-7.57392e-31 -8.69809e-15 -0)
(5.30174e-30 -8.69809e-15 -0)
(3.78696e-30 -8.69809e-15 -0)
(2.27218e-30 -8.69809e-15 -0)
(-1.51478e-30 -8.69809e-15 -0)
(3.78696e-30 -8.69809e-15 -0)
(1.59052e-29 -8.69809e-15 -0)
(-6.05914e-30 -8.69809e-15 -0)
(-4.39287e-29 -8.69809e-15 -0)
(-6.05914e-29 -8.69809e-15 -0)
(-4.39287e-29 -8.69809e-15 -0)
(-1.81774e-29 -8.69809e-15 -0)
(1.02945e-29 -8.69809e-15 -0)
(1.8383e-29 -8.69809e-15 -0)
(4.41192e-30 -8.69809e-15 -0)
(7.3532e-31 -8.69809e-15 -0)
(2.20596e-29 -8.69809e-15 -0)
(4.11779e-29 -8.69809e-15 -0)
(5.88256e-30 -8.69809e-15 -0)