/*--------------------------------*- C++ -*----------------------------------*\
| =========                 |                                                 |
| \\      /  F ield         | foam-extend: Open Source CFD                    |
|  \\    /   O peration     | Version:     4.0                                |
|   \\  /    A nd           | Web:         http://www.foam-extend.org         |
|    \\/     M anipulation  |                                                 |
\*---------------------------------------------------------------------------*/
FoamFile
{
    version     2.0;
    format      ascii;
    class       volVectorField;
    location    "21";
    object      U;
}
// * * * * * * * * * * * * * * * * * * * * * * * * * * * * * * * * * * * * * //

dimensions      [0 1 -1 0 0 0 0];

internalField   nonuniform List<vector> 
6960
(
(-7.77117e-15 -2.09343e-13 0)
(-6.12282e-15 -1.24412e-16 0)
(6.94652e-16 -7.32693e-18 0)
(-3.80455e-16 6.21766e-18 0)
(2.46804e-16 2.56769e-18 0)
(-6.84728e-17 4.83015e-19 0)
(1.69473e-16 -5.47486e-19 0)
(4.23953e-17 -2.31367e-18 0)
(9.59107e-17 -3.64858e-18 0)
(-2.69592e-17 -4.48362e-18 0)
(-1.10793e-17 -4.2468e-18 0)
(-3.93327e-17 -4.22507e-18 0)
(-4.36031e-17 -4.08385e-18 0)
(-8.84889e-17 -2.94643e-18 0)
(-5.98056e-17 -6.58065e-19 0)
(-9.08653e-18 1.40737e-18 0)
(1.66486e-17 2.6638e-18 0)
(-6.40145e-18 3.81654e-18 0)
(-1.76908e-18 5.12371e-18 0)
(3.15857e-17 5.51287e-18 0)
(3.59548e-17 4.53374e-18 0)
(-7.89172e-18 3.14813e-18 0)
(-3.32905e-17 2.22848e-18 0)
(-1.41922e-17 1.30052e-18 0)
(-2.33148e-18 -4.69797e-20 0)
(-2.88335e-17 -1.04373e-18 0)
(-4.5432e-17 -9.7028e-19 0)
(-1.82471e-17 -2.35086e-19 0)
(1.0378e-17 4.89703e-19 0)
(-1.62807e-18 1.45055e-18 0)
(-2.28969e-17 3.05513e-18 0)
(-9.53941e-18 4.83109e-18 0)
(1.68556e-17 6.04824e-18 0)
(9.52925e-18 6.60498e-18 0)
(-2.13607e-17 6.71999e-18 0)
(-2.69175e-17 6.18543e-18 0)
(-1.19033e-18 4.69545e-18 0)
(1.10808e-17 2.51143e-18 0)
(-1.06555e-17 1.32765e-19 0)
(-2.93344e-17 -2.10258e-18 0)
(-1.1062e-17 -3.94979e-18 0)
(1.83525e-17 -4.98228e-18 0)
(1.33132e-17 -4.97787e-18 0)
(-1.68929e-17 -4.11002e-18 0)
(-2.16111e-17 -2.55672e-18 0)
(7.73773e-18 -4.6839e-19 0)
(2.1548e-17 1.87344e-18 0)
(-4.15272e-18 3.67801e-18 0)
(-2.65835e-17 4.74519e-18 0)
(-7.6434e-18 4.79888e-18 0)
(2.01038e-17 4.29283e-18 0)
(1.31391e-17 2.57069e-18 0)
(-1.25829e-17 6.15712e-19 0)
(-1.00576e-17 -1.78377e-18 0)
(1.1451e-17 -2.84301e-18 0)
(1.77406e-17 -3.47892e-18 0)
(-7.62945e-19 -2.60196e-18 0)
(-5.30532e-18 -1.92622e-18 0)
(-2.15585e-18 -2.04634e-18 0)
(2.57119e-18 -2.81385e-18 0)
(-1.64725e-14 -4.3575e-13 0)
(-1.18166e-14 -3.86965e-16 0)
(1.86609e-15 -7.88393e-17 0)
(-1.14529e-15 1.97596e-17 0)
(6.89302e-16 7.29745e-19 0)
(-2.30609e-16 9.11017e-19 0)
(4.77377e-16 -2.09532e-18 0)
(1.3285e-16 -4.34422e-18 0)
(2.89215e-16 -7.46322e-18 0)
(-8.36467e-17 -7.51381e-18 0)
(-3.24924e-17 -6.00548e-18 0)
(-9.54352e-17 -6.36154e-18 0)
(-1.13382e-16 -7.7144e-18 0)
(-2.71209e-16 -5.74261e-18 0)
(-1.93716e-16 -7.94007e-19 0)
(-2.60503e-17 2.58223e-18 0)
(5.37986e-17 3.49694e-18 0)
(-3.31518e-17 5.71648e-18 0)
(-2.56971e-17 9.65856e-18 0)
(9.29404e-17 1.09517e-17 0)
(1.18194e-16 8.28437e-18 0)
(-2.49045e-17 5.57392e-18 0)
(-1.1068e-16 4.98025e-18 0)
(-4.11577e-17 3.62098e-18 0)
(6.28469e-18 -2.68842e-21 0)
(-8.3659e-17 -2.58971e-18 0)
(-1.48578e-16 -1.84607e-18 0)
(-6.19674e-17 -1.04295e-19 0)
(3.792e-17 3.7358e-19 0)
(-9.20267e-19 1.47025e-18 0)
(-7.9865e-17 5.09247e-18 0)
(-4.12056e-17 9.18304e-18 0)
(5.33727e-17 1.11324e-17 0)
(3.88453e-17 1.16459e-17 0)
(-6.60098e-17 1.24115e-17 0)
(-9.40148e-17 1.23923e-17 0)
(-8.00977e-18 9.66557e-18 0)
(4.38142e-17 4.97169e-18 0)
(-2.54949e-17 4.53713e-19 0)
(-9.91815e-17 -3.23454e-18 0)
(-4.66739e-17 -6.70487e-18 0)
(5.88522e-17 -9.40153e-18 0)
(5.17347e-17 -9.98766e-18 0)
(-5.3819e-17 -8.21175e-18 0)
(-8.03722e-17 -4.96279e-18 0)
(1.89311e-17 -1.12837e-18 0)
(7.5791e-17 3.02282e-18 0)
(-7.51463e-18 6.56242e-18 0)
(-9.0563e-17 9.00319e-18 0)
(-3.24006e-17 9.17961e-18 0)
(6.46061e-17 7.88146e-18 0)
(4.56813e-17 4.24434e-18 0)
(-4.17276e-17 6.60034e-19 0)
(-3.78462e-17 -3.79324e-18 0)
(3.29162e-17 -5.5862e-18 0)
(5.47384e-17 -6.93106e-18 0)
(-2.71752e-18 -4.91777e-18 0)
(-1.70784e-17 -3.88408e-18 0)
(-7.36177e-18 -4.24907e-18 0)
(7.50732e-18 -5.8829e-18 0)
(-2.44062e-14 -4.24339e-13 0)
(-1.69809e-14 -7.3736e-16 0)
(2.83938e-15 -2.63849e-16 0)
(-1.92499e-15 3.34318e-17 0)
(1.08864e-15 -1.92077e-17 0)
(-4.14316e-16 -2.30139e-18 0)
(7.61217e-16 -7.23171e-18 0)
(2.26048e-16 -1.99629e-18 0)
(4.83853e-16 -4.78171e-18 0)
(-1.40668e-16 1.31496e-18 0)
(-5.18295e-17 6.15453e-18 0)
(-1.35296e-16 5.75192e-18 0)
(-1.71177e-16 -4.48973e-19 0)
(-4.58241e-16 -1.18936e-18 0)
(-3.38481e-16 2.02331e-18 0)
(-4.4038e-17 1.25126e-18 0)
(9.15643e-17 -4.06502e-18 0)
(-7.08999e-17 -4.19219e-18 0)
(-6.44704e-17 1.77767e-18 0)
(1.52369e-16 4.62601e-18 0)
(2.0709e-16 1.34177e-18 0)
(-4.26457e-17 4.732e-20 0)
(-1.95083e-16 3.93015e-18 0)
(-6.70663e-17 5.56916e-18 0)
(2.36516e-17 1.18097e-18 0)
(-1.36968e-16 -2.33573e-18 0)
(-2.60546e-16 -3.74228e-19 0)
(-1.1132e-16 1.58173e-18 0)
(6.90671e-17 -1.04044e-18 0)
(1.50326e-18 -3.38822e-18 0)
(-1.45085e-16 -6.10587e-19 0)
(-8.18644e-17 3.32362e-18 0)
(9.13065e-17 3.20362e-18 0)
(7.4619e-17 1.57944e-18 0)
(-1.12222e-16 3.19832e-18 0)
(-1.70095e-16 6.15657e-18 0)
(-1.79055e-17 5.60556e-18 0)
(8.33518e-17 2.16348e-18 0)
(-3.6369e-17 1.385e-19 0)
(-1.76799e-16 1.75175e-19 0)
(-9.15481e-17 -8.39435e-19 0)
(1.01546e-16 -3.6444e-18 0)
(9.76007e-17 -5.4581e-18 0)
(-9.32131e-17 -4.46684e-18 0)
(-1.49739e-16 -2.18664e-18 0)
(2.70763e-17 -5.98484e-19 0)
(1.37229e-16 4.53817e-19 0)
(-7.84994e-18 2.0382e-18 0)
(-1.61966e-16 3.98105e-18 0)
(-6.35945e-17 4.45124e-18 0)
(1.11906e-16 3.06243e-18 0)
(8.23262e-17 4.32838e-19 0)
(-7.36005e-17 -1.16581e-18 0)
(-7.07593e-17 -2.70492e-18 0)
(5.35156e-17 -3.07865e-18 0)
(9.283e-17 -3.74379e-18 0)
(-5.00218e-18 -2.06341e-18 0)
(-2.973e-17 -1.33316e-18 0)
(-1.31401e-17 -1.24573e-18 0)
(1.23311e-17 -1.99308e-18 0)
(-3.26606e-14 -3.93849e-13 0)
(-2.27007e-14 -1.26374e-15 0)
(3.61634e-15 -5.38591e-16 0)
(-2.7196e-15 5.44748e-17 0)
(1.44536e-15 -5.3702e-17 0)
(-6.14671e-16 -7.75393e-18 0)
(1.02268e-15 -1.8648e-17 0)
(3.18163e-16 -4.55704e-19 0)
(6.77066e-16 -3.55725e-18 0)
(-1.95233e-16 1.25923e-17 0)
(-6.76307e-17 2.21754e-17 0)
(-1.63492e-16 2.31495e-17 0)
(-2.20668e-16 1.08575e-17 0)
(-6.45966e-16 6.93476e-18 0)
(-4.89431e-16 7.56371e-18 0)
(-6.47829e-17 1.02844e-18 0)
(1.26595e-16 -1.32009e-17 0)
(-1.16912e-16 -1.70961e-17 0)
(-1.13152e-16 -9.00514e-18 0)
(2.08916e-16 -4.28402e-18 0)
(2.98392e-16 -8.38445e-18 0)
(-6.04951e-17 -7.65115e-18 0)
(-2.82249e-16 2.45284e-18 0)
(-9.18404e-17 8.49341e-18 0)
(4.58182e-17 3.41073e-18 0)
(-1.89182e-16 -1.22441e-18 0)
(-3.77054e-16 2.41204e-18 0)
(-1.64389e-16 4.8e-18 0)
(1.00713e-16 -1.82144e-18 0)
(3.6558e-18 -8.75592e-18 0)
(-2.1538e-16 -7.03139e-18 0)
(-1.28077e-16 -2.99987e-18 0)
(1.28962e-16 -5.62629e-18 0)
(1.13181e-16 -1.02755e-17 0)
(-1.59151e-16 -7.99232e-18 0)
(-2.50659e-16 -1.46337e-18 0)
(-2.96368e-17 4.41278e-19 0)
(1.26034e-16 -2.19163e-18 0)
(-4.52493e-17 -1.91168e-18 0)
(-2.5838e-16 2.64103e-18 0)
(-1.41605e-16 5.1425e-18 0)
(1.44553e-16 2.49774e-18 0)
(1.46693e-16 -7.85749e-19 0)
(-1.34031e-16 -2.67477e-19 0)
(-2.24735e-16 1.88024e-18 0)
(3.30889e-17 1.46129e-18 0)
(2.01772e-16 -1.35676e-18 0)
(-6.77651e-18 -2.29922e-18 0)
(-2.37083e-16 -6.09665e-19 0)
(-9.83144e-17 7.27683e-19 0)
(1.60142e-16 -1.13588e-18 0)
(1.20777e-16 -3.05431e-18 0)
(-1.06786e-16 -2.87671e-18 0)
(-1.06283e-16 -7.8852e-19 0)
(7.34517e-17 -3.98667e-19 0)
(1.31169e-16 -1.94062e-19 0)
(-7.48481e-18 6.01067e-19 0)
(-4.28049e-17 2.95052e-18 0)
(-1.91102e-17 4.49986e-18 0)
(1.70751e-17 5.37783e-18 0)
(-4.0695e-14 -3.88724e-13 0)
(-2.84333e-14 -1.97424e-15 0)
(4.19868e-15 -8.79978e-16 0)
(-3.5301e-15 9.60751e-17 0)
(1.7584e-15 -9.13627e-17 0)
(-8.30323e-16 -8.71909e-18 0)
(1.26159e-15 -3.43733e-17 0)
(4.06869e-16 -2.85411e-18 0)
(8.67195e-16 -1.12356e-17 0)
(-2.46227e-16 1.53575e-17 0)
(-7.9181e-17 2.89916e-17 0)
(-1.818e-16 3.24324e-17 0)
(-2.6314e-16 1.45059e-17 0)
(-8.32421e-16 1.04707e-17 0)
(-6.4424e-16 1.24966e-17 0)
(-8.89342e-17 3.99096e-18 0)
(1.57408e-16 -1.68495e-17 0)
(-1.70065e-16 -2.22271e-17 0)
(-1.69731e-16 -1.00331e-17 0)
(2.61934e-16 -3.18761e-18 0)
(3.90017e-16 -1.003e-17 0)
(-7.83131e-17 -9.63742e-18 0)
(-3.70379e-16 4.95487e-18 0)
(-1.15502e-16 1.35448e-17 0)
(7.10244e-17 5.36415e-18 0)
(-2.40443e-16 -1.93433e-18 0)
(-4.9615e-16 3.6921e-18 0)
(-2.20288e-16 7.89118e-18 0)
(1.3152e-16 -1.39776e-18 0)
(4.71913e-18 -1.11418e-17 0)
(-2.8928e-16 -7.48369e-18 0)
(-1.78289e-16 -1.04771e-20 0)
(1.65584e-16 -2.979e-18 0)
(1.52892e-16 -1.00031e-17 0)
(-2.06458e-16 -7.16394e-18 0)
(-3.33818e-16 2.07881e-18 0)
(-4.28309e-17 3.87544e-18 0)
(1.70044e-16 -2.33229e-18 0)
(-5.31843e-17 -4.57145e-18 0)
(-3.42396e-16 7.86148e-19 0)
(-1.95176e-16 4.30546e-18 0)
(1.86961e-16 5.28208e-20 0)
(1.97164e-16 -5.29424e-18 0)
(-1.75706e-16 -3.64786e-18 0)
(-3.03023e-16 2.0147e-18 0)
(3.75009e-17 3.52215e-18 0)
(2.67738e-16 2.12624e-20 0)
(-4.89665e-18 -9.49919e-19 0)
(-3.1422e-16 2.90029e-18 0)
(-1.35318e-16 5.86304e-18 0)
(2.08362e-16 2.2931e-18 0)
(1.59857e-16 -2.42332e-18 0)
(-1.40825e-16 -3.55641e-18 0)
(-1.4346e-16 -1.22778e-18 0)
(9.2708e-17 -2.05008e-18 0)
(1.69356e-16 -2.58397e-18 0)
(-1.00465e-17 -1.71236e-18 0)
(-5.60607e-17 3.60733e-18 0)
(-2.51329e-17 6.10644e-18 0)
(2.17277e-17 7.08144e-18 0)
(-4.8233e-14 -3.90895e-13 0)
(-3.39004e-14 -2.84903e-15 0)
(4.58802e-15 -1.29635e-15 0)
(-4.35753e-15 1.54472e-16 0)
(2.02622e-15 -1.32774e-16 0)
(-1.06112e-15 -4.40491e-18 0)
(1.47715e-15 -5.23227e-17 0)
(4.90262e-16 -6.13842e-18 0)
(1.05286e-15 -2.39802e-17 0)
(-2.9319e-16 1.37993e-17 0)
(-8.60969e-17 3.0682e-17 0)
(-1.91133e-16 3.6969e-17 0)
(-2.99119e-16 1.26819e-17 0)
(-1.01619e-15 1.00842e-17 0)
(-8.01329e-16 1.59069e-17 0)
(-1.1674e-16 7.76584e-18 0)
(1.83181e-16 -1.84801e-17 0)
(-2.29728e-16 -2.36515e-17 0)
(-2.33138e-16 -5.45466e-18 0)
(3.10877e-16 4.12295e-18 0)
(4.80578e-16 -6.74547e-18 0)
(-9.61443e-17 -8.25034e-18 0)
(-4.58512e-16 9.93278e-18 0)
(-1.38128e-16 1.99443e-17 0)
(9.82197e-17 6.77703e-18 0)
(-2.9081e-16 -4.51252e-18 0)
(-6.16646e-16 3.32229e-18 0)
(-2.78468e-16 1.02624e-17 0)
(1.60728e-16 -1.17904e-18 0)
(4.24769e-18 -1.31084e-17 0)
(-3.65895e-16 -5.87803e-18 0)
(-2.3159e-16 7.0956e-18 0)
(2.00718e-16 4.95047e-18 0)
(1.92785e-16 -4.30554e-18 0)
(-2.53957e-16 -8.16785e-19 0)
(-4.18509e-16 1.13691e-17 0)
(-5.73468e-17 1.24219e-17 0)
(2.14229e-16 6.5533e-19 0)
(-6.08672e-17 -6.47332e-18 0)
(-4.28032e-16 -1.85724e-18 0)
(-2.51374e-16 1.74654e-18 0)
(2.2816e-16 -5.28891e-18 0)
(2.47905e-16 -1.38692e-17 0)
(-2.17887e-16 -1.10108e-17 0)
(-3.83205e-16 -2.50191e-19 0)
(4.06571e-17 4.84926e-18 0)
(3.3418e-16 1.55834e-18 0)
(-2.51482e-18 1.16944e-18 0)
(-3.92365e-16 8.4577e-18 0)
(-1.73902e-16 1.36989e-17 0)
(2.55944e-16 7.97809e-18 0)
(1.9881e-16 -1.42008e-18 0)
(-1.75508e-16 -4.61909e-18 0)
(-1.81778e-16 -3.0506e-18 0)
(1.11231e-16 -4.95736e-18 0)
(2.07134e-16 -7.5357e-18 0)
(-1.26379e-17 -5.94899e-18 0)
(-6.94234e-17 1.12291e-18 0)
(-3.11963e-17 3.34991e-18 0)
(2.6248e-17 2.96761e-18 0)
(-5.52909e-14 -3.90454e-13 0)
(-3.91164e-14 -3.88418e-15 0)
(4.78619e-15 -1.80568e-15 0)
(-5.20273e-15 2.1528e-16 0)
(2.2473e-15 -1.87626e-16 0)
(-1.30724e-15 -7.09159e-19 0)
(1.66847e-15 -7.4603e-17 0)
(5.66786e-16 -8.4052e-18 0)
(1.23291e-15 -3.63949e-17 0)
(-3.35887e-16 1.62571e-17 0)
(-8.81326e-17 3.74516e-17 0)
(-1.92083e-16 4.73866e-17 0)
(-3.28916e-16 1.47424e-17 0)
(-1.19626e-15 1.23356e-17 0)
(-9.5965e-16 2.04978e-17 0)
(-1.48462e-16 1.07152e-17 0)
(2.03229e-16 -2.37514e-17 0)
(-2.95595e-16 -3.00151e-17 0)
(-3.02759e-16 -5.40985e-18 0)
(3.55283e-16 7.60518e-18 0)
(5.69092e-16 -7.15964e-18 0)
(-1.13995e-16 -9.73002e-18 0)
(-5.45937e-16 1.39323e-17 0)
(-1.59709e-16 2.68517e-17 0)
(1.26746e-16 8.77005e-18 0)
(-3.40271e-16 -6.81794e-18 0)
(-7.37721e-16 3.49629e-18 0)
(-3.38598e-16 1.3177e-17 0)
(1.87733e-16 -1.66005e-18 0)
(1.83511e-18 -1.74943e-17 0)
(-4.44727e-16 -7.62481e-18 0)
(-2.87476e-16 1.05015e-17 0)
(2.33955e-16 8.39634e-18 0)
(2.32155e-16 -4.10522e-18 0)
(-3.01499e-16 4.89854e-20 0)
(-5.0394e-16 1.6589e-17 0)
(-7.29929e-17 1.864e-17 0)
(2.57928e-16 2.52575e-18 0)
(-6.86329e-17 -8.27361e-18 0)
(-5.14621e-16 -2.48987e-18 0)
(-3.09543e-16 3.08791e-18 0)
(2.67726e-16 -6.26546e-18 0)
(2.98107e-16 -1.90829e-17 0)
(-2.60424e-16 -1.61254e-17 0)
(-4.64449e-16 -9.41558e-19 0)
(4.26468e-17 6.59079e-18 0)
(4.00327e-16 1.31133e-18 0)
(8.05357e-20 -3.80064e-19 0)
(-4.70862e-16 9.91543e-18 0)
(-2.1359e-16 1.80558e-17 0)
(3.02506e-16 1.05215e-17 0)
(2.37211e-16 -2.95839e-18 0)
(-2.10579e-16 -6.72849e-18 0)
(-2.20795e-16 -3.71497e-18 0)
(1.29024e-16 -5.44356e-18 0)
(2.44318e-16 -1.00666e-17 0)
(-1.52752e-17 -8.2585e-18 0)
(-8.2871e-17 -3.60229e-19 0)
(-3.72738e-17 1.68373e-18 0)
(3.06253e-17 2.52038e-19 0)
(-6.1915e-14 -3.88045e-13 0)
(-4.41255e-14 -5.08098e-15 0)
(4.79559e-15 -2.41103e-15 0)
(-6.06641e-15 2.73209e-16 0)
(2.42017e-15 -2.59242e-16 0)
(-1.56904e-15 -2.81823e-19 0)
(1.8346e-15 -1.03426e-16 0)
(6.3506e-16 -1.1246e-17 0)
(1.40635e-15 -4.95001e-17 0)
(-3.74217e-16 2.24747e-17 0)
(-8.51149e-17 4.98237e-17 0)
(-1.85052e-16 6.49071e-17 0)
(-3.52703e-16 2.23359e-17 0)
(-1.37184e-15 1.9025e-17 0)
(-1.11842e-15 2.79028e-17 0)
(-1.84362e-16 1.39986e-17 0)
(2.16943e-16 -3.21752e-17 0)
(-3.67539e-16 -4.14858e-17 0)
(-3.78236e-16 -1.05343e-17 0)
(3.9472e-16 6.39042e-18 0)
(6.54781e-16 -1.21435e-17 0)
(-1.31858e-16 -1.47097e-17 0)
(-6.32076e-16 1.67282e-17 0)
(-1.8019e-16 3.4479e-17 0)
(1.56156e-16 1.18817e-17 0)
(-3.88777e-16 -8.11763e-18 0)
(-8.5874e-16 5.04668e-18 0)
(-4.00454e-16 1.74813e-17 0)
(2.12028e-16 -2.05184e-18 0)
(-2.88768e-18 -2.35856e-17 0)
(-5.25477e-16 -1.20251e-17 0)
(-3.45647e-16 1.09527e-17 0)
(2.64914e-16 8.12759e-18 0)
(2.70435e-16 -8.70875e-18 0)
(-3.48978e-16 -4.06724e-18 0)
(-5.89503e-16 1.79498e-17 0)
(-8.95967e-17 2.23587e-17 0)
(3.00694e-16 2.64129e-18 0)
(-7.66672e-17 -1.10596e-17 0)
(-6.01604e-16 -2.48216e-18 0)
(-3.69161e-16 6.9374e-18 0)
(3.05343e-16 -4.07393e-18 0)
(3.47156e-16 -2.17787e-17 0)
(-3.03227e-16 -1.9341e-17 0)
(-5.4618e-16 1.93882e-19 0)
(4.3472e-17 9.5925e-18 0)
(4.65542e-16 5.62102e-19 0)
(2.63854e-18 -3.99828e-18 0)
(-5.49233e-16 9.0488e-18 0)
(-2.5403e-16 2.08525e-17 0)
(3.47769e-16 1.16253e-17 0)
(2.74763e-16 -5.59514e-18 0)
(-2.45813e-16 -9.21978e-18 0)
(-2.60168e-16 -2.9828e-18 0)
(1.46084e-16 -4.24889e-18 0)
(2.80757e-16 -1.06913e-17 0)
(-1.7957e-17 -9.3902e-18 0)
(-9.63281e-17 1.92312e-19 0)
(-4.32938e-17 2.92084e-18 0)
(3.48774e-17 1.33818e-18 0)
(-6.81038e-14 -3.85578e-13 0)
(-4.89232e-14 -6.43624e-15 0)
(4.61958e-15 -3.10618e-15 0)
(-6.94924e-15 3.30701e-16 0)
(2.54336e-15 -3.44505e-16 0)
(-1.8471e-15 -1.1428e-18 0)
(1.97451e-15 -1.38384e-16 0)
(6.93673e-16 -1.59613e-17 0)
(1.57209e-15 -6.61395e-17 0)
(-4.08274e-16 2.84485e-17 0)
(-7.69809e-17 6.31742e-17 0)
(-1.70344e-16 8.49355e-17 0)
(-3.70518e-16 3.15709e-17 0)
(-1.54215e-15 2.76176e-17 0)
(-1.27689e-15 3.73633e-17 0)
(-2.24557e-16 1.87351e-17 0)
(2.23875e-16 -4.10133e-17 0)
(-4.45465e-16 -5.41722e-17 0)
(-4.59339e-16 -1.6386e-17 0)
(4.28745e-16 4.79587e-18 0)
(7.36918e-16 -1.80797e-17 0)
(-1.49807e-16 -2.0638e-17 0)
(-7.16523e-16 1.97244e-17 0)
(-1.99565e-16 4.31864e-17 0)
(1.86084e-16 1.56708e-17 0)
(-4.36266e-16 -9.26751e-18 0)
(-9.79162e-16 7.14758e-18 0)
(-4.63828e-16 2.28071e-17 0)
(2.33231e-16 -1.95849e-18 0)
(-1.01901e-17 -3.00114e-17 0)
(-6.07882e-16 -1.66105e-17 0)
(-4.0586e-16 1.19829e-17 0)
(2.93281e-16 8.52612e-18 0)
(3.07152e-16 -1.32888e-17 0)
(-3.96334e-16 -8.37994e-18 0)
(-6.74754e-16 1.9686e-17 0)
(-1.07084e-16 2.67542e-17 0)
(3.42102e-16 2.71339e-18 0)
(-8.51747e-17 -1.47916e-17 0)
(-6.88581e-16 -3.3467e-18 0)
(-4.2985e-16 1.06008e-17 0)
(3.40736e-16 -2.06531e-18 0)
(3.94563e-16 -2.53678e-17 0)
(-3.46191e-16 -2.35148e-17 0)
(-6.27898e-16 1.40117e-18 0)
(4.31713e-17 1.34615e-17 0)
(5.29353e-16 3.05599e-19 0)
(4.99367e-18 -7.61377e-18 0)
(-6.27076e-16 8.69691e-18 0)
(-2.94956e-16 2.50039e-17 0)
(3.91466e-16 1.38308e-17 0)
(3.11174e-16 -7.94573e-18 0)
(-2.81086e-16 -1.18204e-17 0)
(-2.99677e-16 -1.99238e-18 0)
(1.62369e-16 -3.14333e-18 0)
(3.1632e-16 -1.16959e-17 0)
(-2.06574e-17 -1.12272e-17 0)
(-1.09712e-16 1.06084e-18 0)
(-4.92056e-17 4.72705e-18 0)
(3.9015e-17 3.24611e-18 0)
(-7.384e-14 -3.83271e-13 0)
(-5.34883e-14 -7.94469e-15 0)
(4.26239e-15 -3.88857e-15 0)
(-7.85175e-15 3.87692e-16 0)
(2.61543e-15 -4.41763e-16 0)
(-2.14211e-15 -1.86137e-18 0)
(2.08704e-15 -1.78591e-16 0)
(7.41155e-16 -2.2436e-17 0)
(1.72898e-15 -8.69356e-17 0)
(-4.38336e-16 3.29234e-17 0)
(-6.37946e-17 7.58163e-17 0)
(-1.48243e-16 1.05585e-16 0)
(-3.8233e-16 4.06407e-17 0)
(-1.70641e-15 3.66949e-17 0)
(-1.43427e-15 4.80984e-17 0)
(-2.69033e-16 2.48887e-17 0)
(2.23726e-16 -4.96117e-17 0)
(-5.29268e-16 -6.68757e-17 0)
(-5.45903e-16 -2.14414e-17 0)
(4.56912e-16 4.38094e-18 0)
(8.14801e-16 -2.36517e-17 0)
(-1.6799e-16 -2.66246e-17 0)
(-7.99008e-16 2.33416e-17 0)
(-2.17878e-16 5.29582e-17 0)
(2.16197e-16 1.97724e-17 0)
(-4.82681e-16 -1.08287e-17 0)
(-1.09851e-15 9.22862e-18 0)
(-5.28519e-16 2.87367e-17 0)
(2.51044e-16 -1.56554e-18 0)
(-2.02733e-17 -3.66904e-17 0)
(-6.91704e-16 -2.10123e-17 0)
(-4.67911e-16 1.42404e-17 0)
(3.18778e-16 1.04628e-17 0)
(3.41895e-16 -1.6849e-17 0)
(-4.43533e-16 -1.18465e-17 0)
(-7.59348e-16 2.28271e-17 0)
(-1.25429e-16 3.27645e-17 0)
(3.81759e-16 3.48336e-18 0)
(-9.43582e-17 -1.90152e-17 0)
(-7.75246e-16 -4.93096e-18 0)
(-4.91326e-16 1.39536e-17 0)
(3.73648e-16 -6.09749e-19 0)
(4.39914e-16 -3.04197e-17 0)
(-3.89223e-16 -2.93089e-17 0)
(-7.0917e-16 2.0759e-18 0)
(4.17877e-17 1.77362e-17 0)
(5.91376e-16 2.55363e-19 0)
(7.02527e-18 -1.13936e-17 0)
(-7.04048e-16 8.83109e-18 0)
(-3.36155e-16 3.0471e-17 0)
(4.33347e-16 1.71003e-17 0)
(3.46171e-16 -1.02806e-17 0)
(-3.16319e-16 -1.47698e-17 0)
(-3.39162e-16 -1.17393e-18 0)
(1.77821e-16 -2.28351e-18 0)
(3.50885e-16 -1.34995e-17 0)
(-2.33616e-17 -1.39608e-17 0)
(-1.22977e-16 1.29383e-18 0)
(-5.49967e-17 5.6789e-18 0)
(4.30338e-17 4.09541e-18 0)
(-7.91166e-14 -3.80735e-13 0)
(-5.78089e-14 -9.60142e-15 0)
(3.72914e-15 -4.75929e-15 0)
(-8.77431e-15 4.40573e-16 0)
(2.63509e-15 -5.52085e-16 0)
(-2.45476e-15 -2.92023e-18 0)
(2.17104e-15 -2.24119e-16 0)
(7.76028e-16 -3.04971e-17 0)
(1.8758e-15 -1.1152e-16 0)
(-4.64823e-16 3.64324e-17 0)
(-4.57315e-17 8.84102e-17 0)
(-1.19048e-16 1.27542e-16 0)
(-3.88102e-16 5.01307e-17 0)
(-1.86389e-15 4.66354e-17 0)
(-1.58983e-15 6.02184e-17 0)
(-3.17717e-16 3.22567e-17 0)
(2.16275e-16 -5.84836e-17 0)
(-6.18844e-16 -8.03415e-17 0)
(-6.37811e-16 -2.65476e-17 0)
(4.7878e-16 4.31797e-18 0)
(8.87761e-16 -2.95863e-17 0)
(-1.86588e-16 -3.32245e-17 0)
(-8.79335e-16 2.72468e-17 0)
(-2.35197e-16 6.3678e-17 0)
(2.46201e-16 2.42225e-17 0)
(-5.27959e-16 -1.26953e-17 0)
(-1.21635e-15 1.14003e-17 0)
(-5.94342e-16 3.53126e-17 0)
(2.65214e-16 -9.86015e-19 0)
(-3.33135e-17 -4.39612e-17 0)
(-7.76747e-16 -2.58113e-17 0)
(-5.31646e-16 1.69327e-17 0)
(3.41136e-16 1.2979e-17 0)
(3.74288e-16 -2.04457e-17 0)
(-4.90552e-16 -1.55071e-17 0)
(-8.42991e-16 2.64981e-17 0)
(-1.44614e-16 3.98075e-17 0)
(4.1933e-16 4.72245e-18 0)
(-1.0438e-16 -2.35965e-17 0)
(-8.61324e-16 -6.76216e-18 0)
(-5.53346e-16 1.7735e-17 0)
(4.03843e-16 1.15293e-18 0)
(4.82833e-16 -3.61348e-17 0)
(-4.32252e-16 -3.61215e-17 0)
(-7.89642e-16 2.54439e-18 0)
(3.93332e-17 2.24308e-17 0)
(6.51263e-16 9.09629e-20 0)
(8.62157e-18 -1.59322e-17 0)
(-7.79853e-16 8.69901e-18 0)
(-3.77448e-16 3.65145e-17 0)
(4.73189e-16 2.08165e-17 0)
(3.79524e-16 -1.29712e-17 0)
(-3.51433e-16 -1.81356e-17 0)
(-3.78475e-16 -2.67751e-19 0)
(1.92385e-16 -1.17229e-18 0)
(3.84337e-16 -1.55642e-17 0)
(-2.60674e-17 -1.70931e-17 0)
(-1.36096e-16 1.1456e-18 0)
(-6.0661e-17 6.17084e-18 0)
(4.69279e-17 4.32279e-18 0)
(-8.39334e-14 -3.77846e-13 0)
(-6.18795e-14 -1.14015e-14 0)
(3.0258e-15 -5.71893e-15 0)
(-9.71703e-15 4.85446e-16 0)
(2.60118e-15 -6.76797e-16 0)
(-2.78577e-15 -5.1355e-18 0)
(2.22538e-15 -2.75386e-16 0)
(7.96813e-16 -4.03481e-17 0)
(2.01131e-15 -1.39894e-16 0)
(-4.88279e-16 3.91764e-17 0)
(-2.30711e-17 1.01364e-16 0)
(-8.30947e-17 1.5136e-16 0)
(-3.87802e-16 6.06326e-17 0)
(-2.01389e-15 5.79514e-17 0)
(-1.74285e-15 7.40627e-17 0)
(-3.7049e-16 4.09245e-17 0)
(2.01363e-16 -6.78331e-17 0)
(-7.14088e-16 -9.50289e-17 0)
(-7.34973e-16 -3.23178e-17 0)
(4.93916e-16 3.95584e-18 0)
(9.55152e-16 -3.64783e-17 0)
(-2.05805e-16 -4.08949e-17 0)
(-9.57364e-16 3.11782e-17 0)
(-2.51601e-16 7.52886e-17 0)
(2.75828e-16 2.91202e-17 0)
(-5.72033e-16 -1.46862e-17 0)
(-1.33227e-15 1.38636e-17 0)
(-6.61124e-16 4.26956e-17 0)
(2.75518e-16 -1.61241e-19 0)
(-4.94686e-17 -5.19162e-17 0)
(-8.62847e-16 -3.12588e-17 0)
(-5.9695e-16 1.96784e-17 0)
(3.60093e-16 1.55938e-17 0)
(4.03979e-16 -2.46277e-17 0)
(-5.37386e-16 -1.99268e-17 0)
(-9.2543e-16 3.01932e-17 0)
(-1.64626e-16 4.75043e-17 0)
(4.54522e-16 6.20565e-18 0)
(-1.15371e-16 -2.85998e-17 0)
(-9.46564e-16 -8.74067e-18 0)
(-6.15696e-16 2.21997e-17 0)
(4.31108e-16 3.57762e-18 0)
(5.22984e-16 -4.2143e-17 0)
(-4.75228e-16 -4.36349e-17 0)
(-8.69019e-16 3.03674e-18 0)
(3.57974e-17 2.76677e-17 0)
(7.08685e-16 -2.03071e-19 0)
(9.67749e-18 -2.13609e-17 0)
(-8.54232e-16 8.09807e-18 0)
(-4.18682e-16 4.29651e-17 0)
(5.10794e-16 2.48587e-17 0)
(4.11031e-16 -1.60115e-17 0)
(-3.86353e-16 -2.18432e-17 0)
(-4.1749e-16 9.44259e-19 0)
(2.06003e-16 3.93651e-19 0)
(4.16569e-16 -1.76171e-17 0)
(-2.87742e-17 -2.04405e-17 0)
(-1.49034e-16 9.41751e-19 0)
(-6.61876e-17 6.6904e-18 0)
(5.06942e-17 4.5552e-18 0)
(-8.82906e-14 -3.74659e-13 0)
(-6.5694e-14 -1.33393e-14 0)
(2.15926e-15 -6.76671e-15 0)
(-1.06798e-14 5.19016e-16 0)
(2.51274e-15 -8.1669e-16 0)
(-3.1358e-15 -8.99618e-18 0)
(2.24898e-15 -3.32661e-16 0)
(8.02024e-16 -5.22807e-17 0)
(2.1342e-15 -1.72339e-16 0)
(-5.09374e-16 4.089e-17 0)
(3.79608e-18 1.14506e-16 0)
(-4.07713e-17 1.76986e-16 0)
(-3.81421e-16 7.22125e-17 0)
(-2.15577e-15 7.07922e-17 0)
(-1.89261e-15 8.98287e-17 0)
(-4.27179e-16 5.10861e-17 0)
(1.78905e-16 -7.75222e-17 0)
(-8.14876e-16 -1.10889e-16 0)
(-8.37317e-16 -3.87836e-17 0)
(5.01892e-16 3.20862e-18 0)
(1.01634e-15 -4.44441e-17 0)
(-2.25875e-16 -4.97576e-17 0)
(-1.03301e-15 3.50423e-17 0)
(-2.67196e-16 8.77512e-17 0)
(3.04819e-16 3.44785e-17 0)
(-6.14844e-16 -1.67559e-17 0)
(-1.44592e-15 1.66843e-17 0)
(-7.28695e-16 5.09649e-17 0)
(2.81765e-16 9.84556e-19 0)
(-6.88735e-17 -6.0506e-17 0)
(-9.49858e-16 -3.73376e-17 0)
(-6.63732e-16 2.24748e-17 0)
(3.75391e-16 1.82931e-17 0)
(4.30633e-16 -2.94271e-17 0)
(-5.84041e-16 -2.51593e-17 0)
(-1.00645e-15 3.38516e-17 0)
(-1.85466e-16 5.5802e-17 0)
(4.87068e-16 7.88385e-18 0)
(-1.27447e-16 -3.40816e-17 0)
(-1.03073e-15 -1.09237e-17 0)
(-6.78185e-16 2.73099e-17 0)
(4.55242e-16 6.64976e-18 0)
(5.60059e-16 -4.84505e-17 0)
(-5.18109e-16 -5.18541e-17 0)
(-9.47043e-16 3.56031e-18 0)
(3.1158e-17 3.34746e-17 0)
(7.63343e-16 -5.93507e-19 0)
(1.00972e-17 -2.76522e-17 0)
(-9.26949e-16 7.0529e-18 0)
(-4.59721e-16 4.98658e-17 0)
(5.45976e-16 2.92747e-17 0)
(4.40508e-16 -1.93497e-17 0)
(-4.21013e-16 -2.5871e-17 0)
(-4.56098e-16 2.48631e-18 0)
(2.18613e-16 2.39507e-18 0)
(4.47474e-16 -1.96568e-17 0)
(-3.14812e-17 -2.40422e-17 0)
(-1.61755e-16 7.3382e-19 0)
(-7.15655e-17 7.29139e-18 0)
(5.43315e-17 4.90402e-18 0)
(-9.2189e-14 -3.71211e-13 0)
(-6.92463e-14 -1.54083e-14 0)
(1.13731e-15 -7.90123e-15 0)
(-1.16624e-14 5.38128e-16 0)
(2.36903e-15 -9.7236e-16 0)
(-3.50545e-15 -1.48638e-17 0)
(2.24078e-15 -3.961e-16 0)
(7.90169e-16 -6.65527e-17 0)
(2.24311e-15 -2.09165e-16 0)
(-5.28909e-16 4.12046e-17 0)
(3.4361e-17 1.27505e-16 0)
(7.46867e-18 2.04176e-16 0)
(-3.6898e-16 8.47557e-17 0)
(-2.2889e-15 8.51588e-17 0)
(-2.03841e-15 1.07621e-16 0)
(-4.8755e-16 6.29169e-17 0)
(1.48888e-16 -8.73518e-17 0)
(-9.21057e-16 -1.27753e-16 0)
(-9.44768e-16 -4.58305e-17 0)
(5.02292e-16 2.13742e-18 0)
(1.0707e-15 -5.34708e-17 0)
(-2.47066e-16 -5.98444e-17 0)
(-1.10626e-15 3.87824e-17 0)
(-2.82119e-16 1.01015e-16 0)
(3.32921e-16 4.02693e-17 0)
(-6.56333e-16 -1.89134e-17 0)
(-1.55693e-15 1.987e-17 0)
(-7.96885e-16 6.01516e-17 0)
(2.83799e-16 2.50479e-18 0)
(-9.16387e-17 -6.96717e-17 0)
(-1.03764e-15 -4.39961e-17 0)
(-7.31918e-16 2.53719e-17 0)
(3.86779e-16 2.11323e-17 0)
(4.5393e-16 -3.4792e-17 0)
(-6.30539e-16 -3.1169e-17 0)
(-1.08588e-15 3.74944e-17 0)
(-2.07149e-16 6.47173e-17 0)
(5.16718e-16 9.76599e-18 0)
(-1.40709e-16 -4.00557e-17 0)
(-1.11362e-15 -1.33503e-17 0)
(-7.40644e-16 3.30172e-17 0)
(4.76061e-16 1.03239e-17 0)
(5.93775e-16 -5.51037e-17 0)
(-5.60858e-16 -6.08303e-17 0)
(-1.02349e-15 4.07232e-18 0)
(2.53838e-17 3.98322e-17 0)
(8.14953e-16 -1.07702e-18 0)
(9.79315e-18 -3.47962e-17 0)
(-9.97794e-16 5.57667e-18 0)
(-5.00447e-16 5.72361e-17 0)
(5.78562e-16 3.40902e-17 0)
(4.67785e-16 -2.2973e-17 0)
(-4.55354e-16 -3.02261e-17 0)
(-4.94207e-16 4.3324e-18 0)
(2.30145e-16 4.79859e-18 0)
(4.76948e-16 -2.17211e-17 0)
(-3.41892e-17 -2.79425e-17 0)
(-1.74224e-16 4.77593e-19 0)
(-7.67868e-17 7.90322e-18 0)
(5.78392e-17 5.30421e-18 0)
(-9.56308e-14 -3.67507e-13 0)
(-7.25305e-14 -1.7601e-14 0)
(-3.1374e-17 -9.12068e-15 0)
(-1.2664e-14 5.3952e-16 0)
(2.16948e-15 -1.14442e-15 0)
(-3.89528e-15 -2.31293e-17 0)
(2.19981e-15 -4.65835e-16 0)
(7.59762e-16 -8.34028e-17 0)
(2.33665e-15 -2.50653e-16 0)
(-5.47811e-16 3.97616e-17 0)
(6.79916e-17 1.40027e-16 0)
(6.1092e-17 2.32675e-16 0)
(-3.50545e-16 9.81349e-17 0)
(-2.41269e-15 1.01034e-16 0)
(-2.17953e-15 1.27519e-16 0)
(-5.51312e-16 7.65669e-17 0)
(1.11375e-16 -9.7141e-17 0)
(-1.03244e-15 -1.45469e-16 0)
(-1.05725e-15 -5.33665e-17 0)
(4.94712e-16 7.79935e-19 0)
(1.11762e-15 -6.35615e-17 0)
(-2.69678e-16 -7.11992e-17 0)
(-1.17713e-15 4.23271e-17 0)
(-2.96537e-16 1.15014e-16 0)
(3.59875e-16 4.64572e-17 0)
(-6.96456e-16 -2.11685e-17 0)
(-1.66497e-15 2.34246e-17 0)
(-8.65525e-16 7.02782e-17 0)
(2.81489e-16 4.44392e-18 0)
(-1.17851e-16 -7.93639e-17 0)
(-1.12607e-15 -5.11999e-17 0)
(-8.01449e-16 2.83908e-17 0)
(3.94013e-16 2.41336e-17 0)
(4.7356e-16 -4.06998e-17 0)
(-6.76915e-16 -3.79454e-17 0)
(-1.16357e-15 4.11218e-17 0)
(-2.29703e-16 7.4255e-17 0)
(5.4324e-16 1.18667e-17 0)
(-1.55253e-16 -4.65114e-17 0)
(-1.19504e-15 -1.60248e-17 0)
(-8.02925e-16 3.93096e-17 0)
(4.93389e-16 1.45923e-17 0)
(6.23873e-16 -6.21103e-17 0)
(-6.03449e-16 -7.05842e-17 0)
(-1.09816e-15 4.54213e-18 0)
(1.84348e-17 4.67165e-17 0)
(8.63253e-16 -1.6636e-18 0)
(8.68414e-18 -4.28008e-17 0)
(-1.06657e-15 3.65762e-18 0)
(-5.40756e-16 6.50671e-17 0)
(6.08388e-16 3.93112e-17 0)
(4.92703e-16 -2.68722e-17 0)
(-4.89325e-16 -3.49038e-17 0)
(-5.31737e-16 6.47586e-18 0)
(2.40526e-16 7.60358e-18 0)
(5.04886e-16 -2.38167e-17 0)
(-3.69008e-17 -3.21497e-17 0)
(-1.8641e-16 1.40606e-19 0)
(-8.18455e-17 8.48414e-18 0)
(6.12161e-17 5.70789e-18 0)
(-9.86194e-14 -3.63549e-13 0)
(-7.55418e-14 -1.99092e-14 0)
(-1.33725e-15 -1.04229e-14 0)
(-1.36838e-14 5.19829e-16 0)
(1.91381e-15 -1.33351e-15 0)
(-4.30572e-15 -3.42396e-17 0)
(2.12515e-15 -5.41995e-16 0)
(7.09336e-16 -1.03064e-16 0)
(2.41336e-15 -2.97061e-16 0)
(-5.67129e-16 3.62126e-17 0)
(1.03929e-16 1.5174e-16 0)
(1.19475e-16 2.62225e-16 0)
(-3.2624e-16 1.12227e-16 0)
(-2.52661e-15 1.18402e-16 0)
(-2.31527e-15 1.49595e-16 0)
(-6.18122e-16 9.21757e-17 0)
(6.65019e-17 -1.06716e-16 0)
(-1.14879e-15 -1.63897e-16 0)
(-1.17466e-15 -6.13214e-17 0)
(4.78766e-16 -8.52292e-19 0)
(1.15649e-15 -7.47394e-17 0)
(-2.94042e-16 -8.38805e-17 0)
(-1.24572e-15 4.55898e-17 0)
(-3.10652e-16 1.2967e-16 0)
(3.85414e-16 5.30048e-17 0)
(-7.35176e-16 -2.35256e-17 0)
(-1.76973e-15 2.7356e-17 0)
(-9.34445e-16 8.13662e-17 0)
(2.74736e-16 6.84544e-18 0)
(-1.47576e-16 -8.95346e-17 0)
(-1.21502e-15 -5.89241e-17 0)
(-8.72276e-16 3.15323e-17 0)
(3.96857e-16 2.72935e-17 0)
(4.89225e-16 -4.71522e-17 0)
(-7.23219e-16 -4.55004e-17 0)
(-1.2394e-15 4.47098e-17 0)
(-2.5317e-16 8.43993e-17 0)
(5.66412e-16 1.41924e-17 0)
(-1.71163e-16 -5.3432e-17 0)
(-1.27482e-15 -1.89383e-17 0)
(-8.64893e-16 4.61908e-17 0)
(5.07063e-16 1.94672e-17 0)
(6.50112e-16 -6.94527e-17 0)
(-6.4586e-16 -8.11129e-17 0)
(-1.17088e-15 4.95085e-18 0)
(1.02625e-17 5.41039e-17 0)
(9.07994e-16 -2.36667e-18 0)
(6.69443e-18 -5.16788e-17 0)
(-1.13311e-15 1.27195e-18 0)
(-5.80556e-16 7.33337e-17 0)
(6.35299e-16 4.49325e-17 0)
(5.15119e-16 -3.10363e-17 0)
(-5.22879e-16 -3.98911e-17 0)
(-5.68623e-16 8.92364e-18 0)
(2.4968e-16 1.08244e-17 0)
(5.31187e-16 -2.59293e-17 0)
(-3.96214e-17 -3.66552e-17 0)
(-1.9828e-16 -2.91516e-19 0)
(-8.67382e-17 9.01663e-18 0)
(6.44611e-17 6.09499e-18 0)
(-1.0116e-13 -3.5934e-13 0)
(-7.82762e-14 -2.23241e-14 0)
(-2.76997e-15 -1.18051e-14 0)
(-1.47205e-14 4.7562e-16 0)
(1.60199e-15 -1.54033e-15 0)
(-4.73709e-15 -4.86933e-17 0)
(2.01602e-15 -6.24703e-16 0)
(6.37456e-16 -1.2577e-16 0)
(2.47176e-15 -3.48634e-16 0)
(-5.88034e-16 3.02074e-17 0)
(1.41285e-16 1.62304e-16 0)
(1.81897e-16 2.9255e-16 0)
(-2.96255e-16 1.26903e-16 0)
(-2.63018e-15 1.37239e-16 0)
(-2.44494e-15 1.73915e-16 0)
(-6.87584e-16 1.09878e-16 0)
(1.44814e-17 -1.15899e-16 0)
(-1.26984e-15 -1.8289e-16 0)
(-1.29688e-15 -6.96263e-17 0)
(4.54094e-16 -2.75357e-18 0)
(1.18671e-15 -8.70303e-17 0)
(-3.20517e-16 -9.79489e-17 0)
(-1.31216e-15 4.84752e-17 0)
(-3.24701e-16 1.44894e-16 0)
(4.09262e-16 5.98702e-17 0)
(-7.72476e-16 -2.59869e-17 0)
(-1.87093e-15 3.16726e-17 0)
(-1.00347e-15 9.3435e-17 0)
(2.63468e-16 9.75379e-18 0)
(-1.80853e-16 -1.00131e-16 0)
(-1.30436e-15 -6.71428e-17 0)
(-9.44358e-16 3.47897e-17 0)
(3.95081e-16 3.05982e-17 0)
(5.00637e-16 -5.41583e-17 0)
(-7.69511e-16 -5.38541e-17 0)
(-1.31329e-15 4.82212e-17 0)
(-2.77602e-16 9.51192e-17 0)
(5.86028e-16 1.67407e-17 0)
(-1.88516e-16 -6.08014e-17 0)
(-1.35278e-15 -2.20807e-17 0)
(-9.2643e-16 5.3663e-17 0)
(5.16931e-16 2.49626e-17 0)
(6.72272e-16 -7.71035e-17 0)
(-6.88076e-16 -9.24019e-17 0)
(-1.24152e-15 5.28429e-18 0)
(8.10272e-19 6.19697e-17 0)
(9.48942e-16 -3.19908e-18 0)
(3.75265e-18 -6.14407e-17 0)