/*--------------------------------*- C++ -*----------------------------------*\
| =========                 |                                                 |
| \\      /  F ield         | foam-extend: Open Source CFD                    |
|  \\    /   O peration     | Version:     4.0                                |
|   \\  /    A nd           | Web:         http://www.foam-extend.org         |
|    \\/     M anipulation  |                                                 |
\*---------------------------------------------------------------------------*/
FoamFile
{
    version     2.0;
    format      ascii;
    class       volVectorField;
    location    "21";
    object      U;
}
// * * * * * * * * * * * * * * * * * * * * * * * * * * * * * * * * * * * * * //

dimensions      [0 1 -1 0 0 0 0];

internalField   nonuniform List<vector> 
6960
(
(-1.0949e-11 -4.87666e-10 0)
(-8.80697e-12 1.58007e-13 0)
(-2.78862e-11 -2.24575e-13 0)
(1.13648e-11 1.93537e-13 0)
(-1.82154e-11 1.79305e-13 0)
(-2.46789e-11 2.5396e-14 0)
(-2.80317e-11 2.35752e-13 0)
(-4.47631e-11 -2.11555e-15 0)
(-2.83785e-11 1.36342e-14 0)
(-3.09915e-11 -5.82267e-14 0)
(-2.50593e-11 -1.62214e-13 0)
(-1.56678e-11 -1.57346e-14 0)
(-2.24996e-11 5.50747e-15 0)
(-2.2465e-11 1.22439e-13 0)
(-3.12344e-11 1.96254e-13 0)
(-3.78583e-11 1.21867e-13 0)
(-3.62262e-11 6.84098e-14 0)
(-3.59229e-11 -7.65059e-14 0)
(-2.75212e-11 -1.68582e-13 0)
(-1.9581e-11 -1.8007e-13 0)
(-1.49491e-11 -1.71261e-13 0)
(-1.32464e-11 -6.71654e-14 0)
(-1.91476e-11 6.32004e-14 0)
(-2.61167e-11 1.86717e-13 0)
(-3.30207e-11 2.39854e-13 0)
(-3.78633e-11 1.72896e-13 0)
(-3.7196e-11 6.0139e-14 0)
(-3.23022e-11 -6.70265e-14 0)
(-2.34402e-11 -1.6843e-13 0)
(-1.44453e-11 -2.04773e-13 0)
(-8.27919e-12 -1.73003e-13 0)
(-5.47974e-12 -8.6286e-14 0)
(-6.59857e-12 8.24585e-15 0)
(-1.01422e-11 8.55812e-14 0)
(-1.4353e-11 1.31516e-13 0)
(-1.7067e-11 1.26974e-13 0)
(-1.72581e-11 7.46323e-14 0)
(-1.4979e-11 2.6775e-15 0)
(-1.07763e-11 -5.38204e-14 0)
(-5.79926e-12 -8.22448e-14 0)
(-1.44466e-12 -8.19425e-14 0)
(4.61371e-13 -6.39107e-14 0)
(4.90622e-13 -3.13587e-14 0)
(-3.42444e-13 4.97417e-15 0)
(-6.05237e-13 2.24478e-14 0)
(8.12908e-13 2.25124e-14 0)
(2.83198e-12 8.21173e-15 0)
(6.97108e-12 1.31654e-14 0)
(9.76282e-12 2.70322e-14 0)
(1.118e-11 3.53465e-14 0)
(1.03512e-11 5.88386e-14 0)
(6.06137e-12 5.78438e-14 0)
(2.72881e-12 5.80519e-14 0)
(-4.04864e-13 4.33784e-14 0)
(-3.17604e-12 1.08531e-14 0)
(7.86139e-13 2.28296e-14 0)
(-1.15029e-12 9.03892e-15 0)
(6.495e-12 4.28897e-14 0)
(1.59449e-12 1.08965e-13 0)
(5.06802e-12 8.84514e-14 0)
(-1.10369e-11 -1.01365e-09 0)
(-1.68783e-11 8.38031e-13 0)
(-8.27574e-11 -9.35922e-13 0)
(3.20624e-11 8.19221e-13 0)
(-5.29606e-11 5.58356e-13 0)
(-6.92279e-11 1.64598e-13 0)
(-8.34345e-11 9.39674e-13 0)
(-1.31226e-10 6.9601e-14 0)
(-8.46835e-11 1.76428e-13 0)
(-9.43184e-11 -2.28242e-13 0)
(-7.58218e-11 -6.32019e-13 0)
(-4.89854e-11 -1.6015e-13 0)
(-6.71249e-11 -1.49202e-13 0)
(-6.62992e-11 3.59883e-13 0)
(-9.25007e-11 6.83205e-13 0)
(-1.1159e-10 5.1814e-13 0)
(-1.08215e-10 4.05092e-13 0)
(-1.08415e-10 -1.22614e-13 0)
(-8.45852e-11 -4.69967e-13 0)
(-6.15757e-11 -5.94283e-13 0)
(-4.68265e-11 -6.52501e-13 0)
(-4.09908e-11 -3.36824e-13 0)
(-5.75543e-11 1.00772e-13 0)
(-7.74882e-11 5.73155e-13 0)
(-9.79651e-11 8.12933e-13 0)
(-1.12879e-10 6.27581e-13 0)
(-1.12263e-10 2.72679e-13 0)
(-9.89686e-11 -1.65786e-13 0)
(-7.32852e-11 -5.37494e-13 0)
(-4.6692e-11 -6.941e-13 0)
(-2.7904e-11 -6.0729e-13 0)
(-1.88346e-11 -3.13341e-13 0)
(-2.13725e-11 1.61344e-14 0)
(-3.1476e-11 2.90458e-13 0)
(-4.39603e-11 4.55104e-13 0)
(-5.21754e-11 4.37753e-13 0)
(-5.30573e-11 2.50135e-13 0)
(-4.68036e-11 4.30329e-15 0)
(-3.48558e-11 -1.79683e-13 0)
(-2.01544e-11 -2.66971e-13 0)
(-6.96813e-12 -2.6308e-13 0)
(-9.73492e-13 -2.06584e-13 0)
(-6.68147e-13 -9.96522e-14 0)
(-2.98206e-12 1.39492e-14 0)
(-3.4912e-12 6.47163e-14 0)
(6.87971e-13 5.92705e-14 0)
(6.72866e-12 1.27862e-14 0)
(1.90255e-11 5.25096e-14 0)
(2.73684e-11 1.17414e-13 0)
(3.19713e-11 1.78387e-13 0)
(2.94163e-11 2.72509e-13 0)
(1.68434e-11 2.6998e-13 0)
(6.7995e-12 2.65816e-13 0)
(-2.97132e-12 1.67729e-13 0)
(-1.09269e-11 3.50388e-14 0)
(1.40539e-14 6.5968e-14 0)
(-5.13963e-12 1.029e-14 0)
(1.7004e-11 1.75159e-13 0)
(3.24663e-12 4.06844e-13 0)
(1.47723e-11 3.36785e-13 0)
(-5.5353e-12 -9.83515e-10 0)
(-2.86751e-11 2.05726e-12 0)
(-1.37121e-10 -2.3235e-12 0)
(5.06659e-11 1.89617e-12 0)
(-8.68629e-11 1.05817e-12 0)
(-1.10536e-10 5.66977e-13 0)
(-1.38872e-10 2.19308e-12 0)
(-2.15892e-10 3.24372e-13 0)
(-1.41466e-10 6.18412e-13 0)
(-1.59502e-10 -5.22547e-13 0)
(-1.27962e-10 -1.43418e-12 0)
(-8.47066e-11 -5.41528e-13 0)
(-1.12233e-10 -6.24226e-13 0)
(-1.10026e-10 6.07996e-13 0)
(-1.53492e-10 1.38676e-12 0)
(-1.8449e-10 1.22746e-12 0)
(-1.80647e-10 1.1282e-12 0)
(-1.82261e-10 -3.67562e-15 0)
(-1.44122e-10 -7.72343e-13 0)
(-1.06654e-10 -1.17551e-12 0)
(-8.10698e-11 -1.43038e-12 0)
(-7.04259e-11 -8.52667e-13 0)
(-9.66219e-11 1.17933e-15 0)
(-1.28703e-10 1.0178e-12 0)
(-1.62589e-10 1.58605e-12 0)
(-1.87944e-10 1.28077e-12 0)
(-1.88544e-10 6.10105e-13 0)
(-1.67994e-10 -2.84606e-13 0)
(-1.26223e-10 -1.06745e-12 0)
(-8.22908e-11 -1.42445e-12 0)
(-5.05341e-11 -1.27758e-12 0)
(-3.45191e-11 -6.85692e-13 0)
(-3.76885e-11 -1.39596e-14 0)
(-5.38239e-11 5.40649e-13 0)
(-7.44202e-11 8.62893e-13 0)
(-8.8227e-11 8.1111e-13 0)
(-9.01124e-11 4.18598e-13 0)
(-8.03829e-11 -7.03928e-14 0)
(-6.11858e-11 -4.19027e-13 0)
(-3.68878e-11 -5.6679e-13 0)
(-1.46902e-11 -5.41158e-13 0)
(-4.27756e-12 -4.317e-13 0)
(-3.42117e-12 -2.30684e-13 0)
(-7.00875e-12 -3.23931e-14 0)
(-7.56304e-12 4.78399e-14 0)
(-7.21262e-13 2.74507e-14 0)
(9.28229e-12 -5.91458e-14 0)
(2.96274e-11 6.35124e-14 0)
(4.35576e-11 2.27999e-13 0)
(5.16998e-11 4.18449e-13 0)
(4.7503e-11 6.34267e-13 0)
(2.69788e-11 6.27679e-13 0)
(1.02031e-11 6.02909e-13 0)
(-6.49977e-12 3.13793e-13 0)
(-1.95144e-11 4.3477e-16 0)
(-2.37233e-12 4.42295e-14 0)
(-1.03508e-11 -9.0361e-14 0)
(2.57396e-11 3.41009e-13 0)
(3.83627e-12 7.97981e-13 0)
(2.41767e-11 7.29217e-13 0)
(1.02197e-12 -9.09398e-10 0)
(-4.56279e-11 3.54171e-12 0)
(-1.90582e-10 -4.4347e-12 0)
(6.67958e-11 3.33503e-12 0)
(-1.20209e-10 1.57868e-12 0)
(-1.49361e-10 1.22108e-12 0)
(-1.94235e-10 3.97924e-12 0)
(-2.98695e-10 8.18832e-13 0)
(-1.98793e-10 1.42686e-12 0)
(-2.26173e-10 -8.75477e-13 0)
(-1.81468e-10 -2.49817e-12 0)
(-1.22806e-10 -1.1384e-12 0)
(-1.58011e-10 -1.43467e-12 0)
(-1.53953e-10 8.2907e-13 0)
(-2.14225e-10 2.24366e-12 0)
(-2.56588e-10 2.20454e-12 0)
(-2.53372e-10 2.20397e-12 0)
(-2.57134e-10 2.58888e-13 0)
(-2.05801e-10 -1.08271e-12 0)
(-1.54527e-10 -1.92809e-12 0)
(-1.17639e-10 -2.49009e-12 0)
(-1.01612e-10 -1.58308e-12 0)
(-1.36354e-10 -2.015e-13 0)
(-1.79714e-10 1.54593e-12 0)
(-2.26718e-10 2.56889e-12 0)
(-2.62736e-10 2.13056e-12 0)
(-2.65533e-10 1.05334e-12 0)
(-2.38786e-10 -4.61571e-13 0)
(-1.8175e-10 -1.80546e-12 0)
(-1.20865e-10 -2.44281e-12 0)
(-7.59102e-11 -2.22256e-12 0)
(-5.23467e-11 -1.22703e-12 0)
(-5.5356e-11 -8.74609e-14 0)
(-7.68975e-11 8.41172e-13 0)
(-1.05316e-10 1.35649e-12 0)
(-1.24745e-10 1.23902e-12 0)
(-1.27944e-10 5.62767e-13 0)
(-1.15223e-10 -2.47042e-13 0)
(-8.92384e-11 -8.04311e-13 0)
(-5.55145e-11 -1.01449e-12 0)
(-2.41919e-11 -9.45902e-13 0)
(-9.03674e-12 -7.67804e-13 0)
(-7.30457e-12 -4.55304e-13 0)
(-1.19165e-11 -1.70496e-13 0)
(-1.23757e-11 -6.71944e-14 0)
(-3.02679e-12 -1.09277e-13 0)
(1.07915e-11 -2.34861e-13 0)
(3.89767e-11 2.65794e-14 0)
(5.85193e-11 3.44229e-13 0)
(7.05212e-11 7.55263e-13 0)
(6.49259e-11 1.14602e-12 0)
(3.69304e-11 1.13449e-12 0)
(1.3513e-11 1.06581e-12 0)
(-1.02677e-11 4.67175e-13 0)
(-2.8351e-11 -1.17659e-13 0)
(-5.74393e-12 -7.30043e-14 0)
(-1.63389e-11 -3.28108e-13 0)
(3.31585e-11 5.26538e-13 0)
(3.74013e-12 1.25422e-12 0)
(3.32657e-11 1.27696e-12 0)
(9.05474e-12 -8.94398e-10 0)
(-6.60248e-11 5.33497e-12 0)
(-2.429e-10 -7.29414e-12 0)
(8.019e-11 5.09549e-12 0)
(-1.53109e-10 2.0811e-12 0)
(-1.85967e-10 2.09487e-12 0)
(-2.49429e-10 6.2983e-12 0)
(-3.79483e-10 1.58015e-12 0)
(-2.56648e-10 2.64799e-12 0)
(-2.94135e-10 -1.23789e-12 0)
(-2.36325e-10 -3.78509e-12 0)
(-1.63311e-10 -1.92238e-12 0)
(-2.04543e-10 -2.56962e-12 0)
(-1.98209e-10 1.02115e-12 0)
(-2.74668e-10 3.24121e-12 0)
(-3.27828e-10 3.42979e-12 0)
(-3.26269e-10 3.6105e-12 0)
(-3.32846e-10 6.40052e-13 0)
(-2.69475e-10 -1.42724e-12 0)
(-2.05099e-10 -2.87807e-12 0)
(-1.56561e-10 -3.84875e-12 0)
(-1.34616e-10 -2.52212e-12 0)
(-1.76758e-10 -4.76055e-13 0)
(-2.30469e-10 2.20443e-12 0)
(-2.90215e-10 3.80992e-12 0)
(-3.37038e-10 3.21307e-12 0)
(-3.42949e-10 1.61456e-12 0)
(-3.11061e-10 -7.14965e-13 0)
(-2.39665e-10 -2.79519e-12 0)
(-1.62302e-10 -3.80452e-12 0)
(-1.03986e-10 -3.49443e-12 0)
(-7.22954e-11 -1.97249e-12 0)
(-7.43269e-11 -2.13453e-13 0)
(-1.00576e-10 1.20813e-12 0)
(-1.36447e-10 1.96589e-12 0)
(-1.61494e-10 1.75113e-12 0)
(-1.6632e-10 7.00993e-13 0)
(-1.51103e-10 -5.24981e-13 0)
(-1.188e-10 -1.3523e-12 0)
(-7.58565e-11 -1.6381e-12 0)
(-3.53317e-11 -1.50852e-12 0)
(-1.51065e-11 -1.24314e-12 0)
(-1.2142e-11 -7.95257e-13 0)
(-1.75004e-11 -4.15731e-13 0)
(-1.77483e-11 -2.92881e-13 0)
(-6.08011e-12 -3.605e-13 0)
(1.13553e-11 -5.19872e-13 0)
(4.7115e-11 -6.05238e-14 0)
(7.22879e-11 4.66795e-13 0)
(8.84644e-11 1.19474e-12 0)
(8.18003e-11 1.81829e-12 0)
(4.69066e-11 1.80408e-12 0)
(1.69996e-11 1.66582e-12 0)
(-1.39323e-11 6.38443e-13 0)
(-3.71584e-11 -3.19431e-13 0)
(-9.82741e-12 -2.86947e-13 0)
(-2.29197e-11 -7.11197e-13 0)
(3.94331e-11 7.38807e-13 0)
(3.10409e-12 1.77875e-12 0)
(4.20232e-11 1.99837e-12 0)
(1.86518e-11 -8.95889e-10 0)
(-8.9078e-11 7.52606e-12 0)
(-2.93892e-10 -1.09002e-11 0)
(9.06263e-11 7.16049e-12 0)
(-1.85618e-10 2.54816e-12 0)
(-2.20469e-10 3.17702e-12 0)
(-3.04363e-10 9.1407e-12 0)
(-4.5808e-10 2.63199e-12 0)
(-3.14975e-10 4.30899e-12 0)
(-3.63239e-10 -1.58069e-12 0)
(-2.92508e-10 -5.26857e-12 0)
(-2.06258e-10 -2.88825e-12 0)
(-2.51878e-10 -4.03489e-12 0)
(-2.42869e-10 1.1663e-12 0)
(-3.34772e-10 4.35818e-12 0)
(-3.98125e-10 4.89378e-12 0)
(-3.99222e-10 5.34841e-12 0)
(-4.09249e-10 1.15298e-12 0)
(-3.3505e-10 -1.78896e-12 0)
(-2.58334e-10 -4.01635e-12 0)
(-1.97882e-10 -5.5066e-12 0)
(-1.69507e-10 -3.67828e-12 0)
(-2.17844e-10 -8.32582e-13 0)
(-2.80914e-10 2.98566e-12 0)
(-3.52953e-10 5.30633e-12 0)
(-4.10665e-10 4.53288e-12 0)
(-4.2058e-10 2.30252e-12 0)
(-3.84628e-10 -1.03732e-12 0)
(-2.99856e-10 -4.03548e-12 0)
(-2.06573e-10 -5.51706e-12 0)
(-1.34782e-10 -5.10801e-12 0)
(-9.44e-11 -2.93999e-12 0)
(-9.46044e-11 -4.06742e-13 0)
(-1.24797e-10 1.63369e-12 0)
(-1.67686e-10 2.69036e-12 0)
(-1.98315e-10 2.35085e-12 0)
(-2.05088e-10 8.36632e-13 0)
(-1.8789e-10 -9.04331e-13 0)
(-1.49757e-10 -2.06793e-12 0)
(-9.7835e-11 -2.44596e-12 0)
(-4.80594e-11 -2.23953e-12 0)
(-2.24337e-11 -1.86894e-12 0)
(-1.7855e-11 -1.26102e-12 0)
(-2.36576e-11 -7.77851e-13 0)
(-2.35882e-11 -6.38859e-13 0)
(-9.8109e-12 -7.35367e-13 0)
(1.10086e-11 -9.2073e-13 0)
(5.40334e-11 -2.01811e-13 0)
(8.48471e-11 5.9442e-13 0)
(1.05514e-10 1.73947e-12 0)
(9.81722e-11 2.65571e-12 0)
(5.70279e-11 2.6445e-12 0)
(2.08305e-11 2.41007e-12 0)
(-1.72761e-11 8.33939e-13 0)
(-4.57586e-11 -6.03671e-13 0)
(-1.44629e-11 -6.01997e-13 0)
(-2.99925e-11 -1.24684e-12 0)
(4.46439e-11 9.75021e-13 0)
(1.99714e-12 2.36568e-12 0)
(5.04325e-11 2.89866e-12 0)
(2.94319e-11 -8.93149e-10 0)
(-1.14725e-10 1.01706e-11 0)
(-3.4341e-10 -1.52399e-11 0)
(9.79036e-11 9.5141e-12 0)
(-2.17767e-10 2.96603e-12 0)
(-2.52926e-10 4.4585e-12 0)
(-3.58946e-10 1.24954e-11 0)
(-5.34296e-10 3.99782e-12 0)
(-3.73698e-10 6.43356e-12 0)
(-4.33346e-10 -1.87587e-12 0)
(-3.49985e-10 -6.92267e-12 0)
(-2.51681e-10 -4.03395e-12 0)
(-3.00053e-10 -5.83872e-12 0)
(-2.87984e-10 1.24327e-12 0)
(-3.94489e-10 5.572e-12 0)
(-4.67385e-10 6.58867e-12 0)
(-4.72113e-10 7.42132e-12 0)
(-4.86205e-10 1.81601e-12 0)
(-4.02443e-10 -2.14505e-12 0)
(-3.14212e-10 -5.32743e-12 0)
(-2.41651e-10 -7.45909e-12 0)
(-2.06357e-10 -5.06123e-12 0)
(-2.5963e-10 -1.28815e-12 0)
(-3.31004e-10 3.87262e-12 0)
(-4.14815e-10 7.04728e-12 0)
(-4.83447e-10 6.08997e-12 0)
(-4.98242e-10 3.12575e-12 0)
(-4.59331e-10 -1.41661e-12 0)
(-3.62246e-10 -5.51786e-12 0)
(-2.53678e-10 -7.58104e-12 0)
(-1.6835e-10 -7.0734e-12 0)
(-1.18722e-10 -4.14556e-12 0)
(-1.16219e-10 -6.83631e-13 0)
(-1.49531e-10 2.10558e-12 0)
(-1.98942e-10 3.52387e-12 0)
(-2.35085e-10 3.03754e-12 0)
(-2.4413e-10 9.71099e-13 0)
(-2.25485e-10 -1.38513e-12 0)
(-1.82037e-10 -2.95449e-12 0)
(-1.21414e-10 -3.44374e-12 0)
(-6.23658e-11 -3.14648e-12 0)
(-3.10076e-11 -2.65361e-12 0)
(-2.44117e-11 -1.86105e-12 0)
(-3.03336e-11 -1.26549e-12 0)
(-2.98435e-11 -1.11395e-12 0)
(-1.41834e-11 -1.24316e-12 0)
(9.75885e-12 -1.44591e-12 0)
(5.97023e-11 -4.04496e-13 0)
(9.61582e-11 7.22809e-13 0)
(1.21635e-10 2.38929e-12 0)
(1.14054e-10 3.66108e-12 0)
(6.73716e-11 3.66324e-12 0)
(2.51249e-11 3.30656e-12 0)
(-2.01383e-11 1.06106e-12 0)
(-5.40173e-11 -9.67222e-13 0)
(-1.95381e-11 -1.02281e-12 0)
(-3.7492e-11 -1.94224e-12 0)
(4.88319e-11 1.22795e-12 0)
(4.53246e-13 3.00753e-12 0)
(5.84761e-11 3.98143e-12 0)
(4.1042e-11 -8.86862e-10 0)
(-1.42995e-10 1.33012e-11 0)
(-3.91326e-10 -2.02859e-11 0)
(1.01835e-10 1.21382e-11 0)
(-2.49578e-10 3.3195e-12 0)
(-2.83375e-10 5.92518e-12 0)
(-4.1309e-10 1.63455e-11 0)
(-6.07939e-10 5.69887e-12 0)
(-4.32723e-10 9.04343e-12 0)
(-5.04315e-10 -2.09204e-12 0)
(-4.08711e-10 -8.71687e-12 0)
(-2.99606e-10 -5.35338e-12 0)
(-3.49095e-10 -7.98531e-12 0)
(-3.33596e-10 1.23202e-12 0)
(-4.53768e-10 6.86009e-12 0)
(-5.35512e-10 8.50599e-12 0)
(-5.44821e-10 9.83194e-12 0)
(-5.63577e-10 2.64773e-12 0)
(-4.71574e-10 -2.47182e-12 0)
(-3.72714e-10 -6.79419e-12 0)
(-2.87917e-10 -9.70022e-12 0)
(-2.45236e-10 -6.68091e-12 0)
(-3.02139e-10 -1.86125e-12 0)
(-3.80702e-10 4.84696e-12 0)
(-4.75692e-10 9.02209e-12 0)
(-5.55222e-10 7.88643e-12 0)
(-5.75756e-10 4.09627e-12 0)
(-5.35024e-10 -1.83671e-12 0)
(-4.26765e-10 -7.23052e-12 0)
(-3.03627e-10 -9.99555e-12 0)
(-2.04751e-10 -9.40149e-12 0)
(-1.45337e-10 -5.60796e-12 0)
(-1.39217e-10 -1.0638e-12 0)
(-1.74769e-10 2.60905e-12 0)
(-2.30145e-10 4.45978e-12 0)
(-2.71704e-10 3.81187e-12 0)
(-2.83342e-10 1.10855e-12 0)
(-2.63805e-10 -1.96424e-12 0)
(-2.15587e-10 -4.01267e-12 0)
(-1.46576e-10 -4.63594e-12 0)
(-7.82632e-11 -4.23689e-12 0)
(-4.08419e-11 -3.6059e-12 0)
(-3.18076e-11 -2.60418e-12 0)
(-3.75013e-11 -1.88733e-12 0)
(-3.64854e-11 -1.72691e-12 0)
(-1.91795e-11 -1.89329e-12 0)
(7.60062e-12 -2.10451e-12 0)
(6.40824e-11 -6.77084e-13 0)
(1.06171e-10 8.46398e-13 0)
(1.36776e-10 3.14281e-12 0)
(1.29437e-10 4.83686e-12 0)
(7.79877e-11 4.86874e-12 0)
(2.99736e-11 4.36484e-12 0)
(-2.23894e-11 1.32961e-12 0)
(-6.18223e-11 -1.4044e-12 0)
(-2.4963e-11 -1.55282e-12 0)
(-4.53693e-11 -2.80402e-12 0)
(5.20195e-11 1.48883e-12 0)
(-1.51253e-12 3.69661e-12 0)
(6.6136e-11 5.24994e-12 0)
(5.32292e-11 -8.79469e-10 0)
(-1.73877e-10 1.69518e-11 0)
(-4.37527e-10 -2.60045e-11 0)
(1.02245e-10 1.50129e-11 0)
(-2.81068e-10 3.59235e-12 0)
(-3.11852e-10 7.55835e-12 0)
(-4.66701e-10 2.06695e-11 0)
(-6.78818e-10 7.75391e-12 0)
(-4.91939e-10 1.21583e-11 0)
(-5.75994e-10 -2.19524e-12 0)
(-4.6863e-10 -1.06167e-11 0)
(-3.50044e-10 -6.83677e-12 0)
(-3.99027e-10 -1.04753e-11 0)
(-3.79743e-10 1.11327e-12 0)
(-5.12561e-10 8.19898e-12 0)
(-6.0241e-10 1.06354e-11 0)
(-6.17223e-10 1.25809e-11 0)
(-6.41225e-10 3.6663e-12 0)
(-5.42358e-10 -2.74491e-12 0)
(-4.33817e-10 -8.3979e-12 0)
(-3.36722e-10 -1.22223e-11 0)
(-2.86216e-10 -8.54668e-12 0)
(-3.45402e-10 -2.57088e-12 0)
(-4.2998e-10 5.88909e-12 0)
(-5.35485e-10 1.12191e-11 0)
(-6.25834e-10 9.92455e-12 0)
(-6.5295e-10 5.22769e-12 0)
(-6.11562e-10 -2.27902e-12 0)
(-4.93345e-10 -9.15912e-12 0)
(-3.5643e-10 -1.27581e-11 0)
(-2.44051e-10 -1.21032e-11 0)
(-1.7433e-10 -7.34751e-12 0)
(-1.63661e-10 -1.56942e-12 0)
(-2.00517e-10 3.12721e-12 0)
(-2.61243e-10 5.49048e-12 0)
(-3.08082e-10 4.67491e-12 0)
(-3.22629e-10 1.2546e-12 0)
(-3.02773e-10 -2.63662e-12 0)
(-2.5036e-10 -5.24149e-12 0)
(-1.73316e-10 -6.02628e-12 0)
(-9.5776e-11 -5.51829e-12 0)
(-5.19657e-11 -4.73494e-12 0)
(-4.00563e-11 -3.49963e-12 0)
(-4.51523e-11 -2.65224e-12 0)
(-4.34993e-11 -2.48676e-12 0)
(-2.47913e-11 -2.69562e-12 0)
(4.52225e-12 -2.9064e-12 0)
(6.71307e-11 -1.02928e-12 0)
(1.1483e-10 9.58405e-13 0)
(1.50882e-10 3.99736e-12 0)
(1.44298e-10 6.18509e-12 0)
(8.89065e-11 6.26992e-12 0)
(3.54479e-11 5.59567e-12 0)
(-2.39192e-11 1.6513e-12 0)
(-6.90741e-11 -1.90781e-12 0)
(-3.06578e-11 -2.19486e-12 0)
(-5.35832e-11 -3.83885e-12 0)
(5.42198e-11 1.74744e-12 0)
(-3.89651e-12 4.42457e-12 0)
(7.33932e-11 6.70715e-12 0)
(6.57775e-11 -8.71371e-10 0)
(-2.07346e-10 2.11645e-11 0)
(-4.81918e-10 -3.23566e-11 0)
(9.89708e-11 1.81185e-11 0)
(-3.12251e-10 3.76853e-12 0)
(-3.38399e-10 9.336e-12 0)
(-5.19689e-10 2.54421e-11 0)
(-7.46746e-10 1.01796e-11 0)
(-5.51224e-10 1.57961e-11 0)
(-6.48217e-10 -2.14967e-12 0)
(-5.29674e-10 -1.25849e-11 0)
(-4.02994e-10 -8.47171e-12 0)
(-4.49865e-10 -1.33067e-11 0)
(-4.26462e-10 8.6777e-13 0)
(-5.70825e-10 9.56384e-12 0)
(-6.67989e-10 1.29645e-11 0)
(-6.8919e-10 1.56669e-11 0)
(-7.19e-10 4.88974e-12 0)
(-6.14696e-10 -2.93885e-12 0)
(-4.97482e-10 -1.01179e-11 0)
(-3.88104e-10 -1.50158e-11 0)
(-3.29365e-10 -1.06672e-11 0)
(-3.89456e-10 -3.43671e-12 0)
(-4.78821e-10 6.97749e-12 0)
(-5.94101e-10 1.36246e-11 0)
(-6.9513e-10 1.22057e-11 0)
(-7.29649e-10 6.53412e-12 0)
(-6.88794e-10 -2.7231e-12 0)
(-5.61907e-10 -1.1287e-11 0)
(-4.12089e-10 -1.58641e-11 0)
(-2.86314e-10 -1.51885e-11 0)
(-2.05793e-10 -9.38525e-12 0)
(-1.89623e-10 -2.22436e-12 0)
(-2.26797e-10 3.64122e-12 0)
(-2.92198e-10 6.60699e-12 0)
(-3.44137e-10 5.62727e-12 0)
(-3.61902e-10 1.41526e-12 0)
(-3.42315e-10 -3.39635e-12 0)
(-2.86312e-10 -6.63916e-12 0)
(-2.01632e-10 -7.61796e-12 0)
(-1.14935e-10 -6.99796e-12 0)
(-6.4419e-11 -6.04969e-12 0)
(-4.9185e-11 -4.5563e-12 0)
(-5.3292e-11 -3.56868e-12 0)
(-5.08813e-11 -3.40225e-12 0)
(-3.10164e-11 -3.66026e-12 0)
(5.09671e-13 -3.86242e-12 0)
(6.88039e-11 -1.47242e-12 0)
(1.22075e-10 1.05021e-12 0)
(1.63886e-10 4.94852e-12 0)
(1.58601e-10 7.7068e-12 0)
(1.00142e-10 7.87592e-12 0)
(4.16035e-11 7.01087e-12 0)
(-2.46314e-11 2.03991e-12 0)
(-7.568e-11 -2.46802e-12 0)
(-3.65466e-11 -2.95077e-12 0)
(-6.20949e-11 -5.05323e-12 0)
(5.5442e-11 1.99221e-12 0)
(-6.70229e-12 5.18215e-12 0)
(8.02281e-11 8.35557e-12 0)
(7.84747e-11 -8.62356e-10 0)
(-2.4338e-10 2.59857e-11 0)
(-5.24417e-10 -3.92971e-11 0)
(9.186e-11 2.14353e-11 0)
(-3.43144e-10 3.83224e-12 0)
(-3.63073e-10 1.12329e-11 0)
(-5.71962e-10 3.06344e-11 0)
(-8.11543e-10 1.29903e-11 0)
(-6.10442e-10 1.99724e-11 0)
(-7.20801e-10 -1.91767e-12 0)
(-5.91757e-10 -1.45809e-11 0)
(-4.58437e-10 -1.02428e-11 0)
(-5.01624e-10 -1.64748e-11 0)
(-4.73789e-10 4.76363e-13 0)
(-6.28521e-10 1.09284e-11 0)
(-7.32164e-10 1.54787e-11 0)
(-7.60592e-10 1.90865e-11 0)
(-7.96747e-10 6.33568e-12 0)
(-6.88478e-10 -3.02713e-12 0)
(-5.63659e-10 -1.19313e-11 0)
(-4.42088e-10 -1.80688e-11 0)
(-3.74748e-10 -1.30502e-11 0)
(-4.34346e-10 -4.47887e-12 0)
(-5.2722e-10 8.08889e-12 0)
(-6.51461e-10 1.62227e-11 0)
(-7.62965e-10 1.47298e-11 0)
(-8.05676e-10 8.02978e-12 0)
(-7.66562e-10 -3.14688e-12 0)
(-6.3236e-10 -1.3595e-11 0)
(-4.70598e-10 -1.93072e-11 0)
(-3.31602e-10 -1.86666e-11 0)
(-2.39818e-10 -1.17426e-11 0)
(-2.17184e-10 -3.05409e-12 0)
(-2.53643e-10 4.13032e-12 0)
(-3.22982e-10 7.79883e-12 0)
(-3.798e-10 6.66894e-12 0)
(-4.01072e-10 1.59688e-12 0)
(-3.82352e-10 -4.23665e-12 0)
(-3.23397e-10 -8.20308e-12 0)
(-2.31521e-10 -9.41365e-12 0)
(-1.35776e-10 -8.68295e-12 0)
(-7.82495e-11 -7.55883e-12 0)
(-5.92317e-11 -5.78271e-12 0)
(-6.19369e-11 -4.64467e-12 0)
(-5.86354e-11 -4.48184e-12 0)
(-3.7856e-11 -4.79747e-12 0)
(-4.45138e-12 -4.98432e-12 0)
(6.90599e-11 -2.01955e-12 0)
(1.27846e-10 1.11119e-12 0)
(1.75719e-10 5.98987e-12 0)
(1.72301e-10 9.40189e-12 0)
(1.11693e-10 9.69591e-12 0)
(4.84832e-11 8.62342e-12 0)
(-2.44401e-11 2.51144e-12 0)
(-8.15523e-11 -3.07342e-12 0)
(-4.25533e-11 -3.82119e-12 0)
(-7.08652e-11 -6.45344e-12 0)
(5.56948e-11 2.2102e-12 0)
(-9.93822e-12 5.95904e-12 0)
(8.66204e-11 1.01969e-11 0)
(9.11089e-11 -8.52318e-10 0)
(-2.81944e-10 3.14642e-11 0)
(-5.64953e-10 -4.67749e-11 0)
(8.07747e-11 2.49449e-11 0)
(-3.73759e-10 3.76815e-12 0)
(-3.85946e-10 1.32207e-11 0)
(-6.23433e-10 3.62144e-11 0)
(-8.73037e-10 1.61977e-11 0)
(-6.69445e-10 2.47008e-11 0)
(-7.93549e-10 -1.45993e-12 0)
(-6.54784e-10 -1.65614e-11 0)
(-5.16335e-10 -1.21315e-11 0)
(-5.54311e-10 -1.9972e-11 0)
(-5.21764e-10 -7.95911e-14 0)
(-6.85615e-10 1.22653e-11 0)
(-7.94856e-10 1.81611e-11 0)
(-8.31293e-10 2.28339e-11 0)
(-8.743e-10 8.02108e-12 0)
(-7.63576e-10 -2.98237e-12 0)
(-6.32279e-10 -1.38132e-11 0)
(-4.98689e-10 -2.13671e-11 0)
(-4.22428e-10 -1.5702e-11 0)
(-4.80121e-10 -5.71767e-12 0)
(-5.75183e-10 9.19829e-12 0)
(-7.07492e-10 1.89956e-11 0)
(-8.29198e-10 1.74955e-11 0)
(-8.80852e-10 9.72896e-12 0)
(-8.44693e-10 -3.52676e-12 0)
(-7.046e-10 -1.60617e-11 0)
(-5.31935e-10 -2.30783e-11 0)
(-3.79966e-10 -2.25454e-11 0)
(-2.76502e-10 -1.44415e-11 0)
(-2.46435e-10 -4.0856e-12 0)
(-2.81103e-10 4.57173e-12 0)
(-3.53583e-10 9.05386e-12 0)
(-4.15006e-10 7.79915e-12 0)
(-4.40054e-10 1.80604e-12 0)
(-4.22806e-10 -5.14989e-12 0)
(-3.61564e-10 -9.92971e-12 0)
(-2.62978e-10 -1.14154e-11 0)
(-1.58333e-10 -1.058e-11 0)
(-9.35109e-11 -9.27075e-12 0)
(-7.02438e-11 -7.18697e-12 0)
(-7.1113e-11 -5.88773e-12 0)
(-6.67722e-11 -5.7336e-12 0)
(-4.53135e-11 -6.11768e-12 0)
(-1.03738e-11 -6.28479e-12 0)
(6.78602e-11 -2.68549e-12 0)
(1.32085e-10 1.12857e-12 0)
(1.86307e-10 7.11282e-12 0)
(1.85343e-10 1.12689e-11 0)
(1.23544e-10 1.1739e-11 0)
(5.61169e-11 1.04473e-11 0)
(-2.32691e-11 3.08416e-12 0)
(-8.6606e-11 -3.71005e-12 0)
(-4.85998e-11 -4.80542e-12 0)
(-7.98524e-11 -8.0454e-12 0)
(5.4989e-11 2.38703e-12 0)
(-1.36157e-11 6.74366e-12 0)
(9.25492e-11 1.22319e-11 0)
(1.03469e-10 -8.41244e-10 0)
(-3.22991e-10 3.76509e-11 0)
(-6.03471e-10 -5.47326e-11 0)
(6.55919e-11 2.86299e-11 0)
(-4.04113e-10 3.5616e-12 0)
(-4.07115e-10 1.52674e-11 0)
(-6.74012e-10 4.21466e-11 0)
(-9.31068e-10 1.98103e-11 0)
(-7.28076e-10 2.99924e-11 0)
(-8.66243e-10 -7.35665e-13 0)
(-7.18639e-10 -1.84803e-11 0)
(-5.76628e-10 -1.41156e-11 0)
(-6.07928e-10 -2.37872e-11 0)
(-5.70424e-10 -8.17863e-13 0)
(-7.4208e-10 1.35462e-11 0)
(-8.55997e-10 2.09923e-11 0)
(-9.01156e-10 2.69006e-11 0)
(-9.51486e-10 9.96198e-12 0)
(-8.3985e-10 -2.77655e-12 0)
(-7.03253e-10 -1.57363e-11 0)
(-5.57908e-10 -2.48938e-11 0)
(-4.72462e-10 -1.86271e-11 0)
(-5.2684e-10 -7.17338e-12 0)
(-6.22732e-10 1.02792e-11 0)
(-7.62139e-10 2.19229e-11 0)
(-8.93694e-10 2.04997e-11 0)
(-9.54992e-10 1.16458e-11 0)
(-9.23005e-10 -3.83763e-12 0)
(-7.78503e-10 -1.86631e-11 0)
(-5.96059e-10 -2.71662e-11 0)
(-4.31449e-10 -2.68312e-11 0)
(-3.15936e-10 -1.75036e-11 0)
(-2.77475e-10 -5.34733e-12 0)
(-3.09237e-10 4.94062e-12 0)
(-3.84e-10 1.03583e-11 0)
(-4.49699e-10 9.01634e-12 0)
(-4.78762e-10 2.04958e-12 0)
(-4.63591e-10 -6.12756e-12 0)
(-4.00758e-10 -1.18146e-11 0)
(-2.95995e-10 -1.36246e-11 0)
(-1.82642e-10 -1.26954e-11 0)
(-1.10261e-10 -1.11935e-11 0)
(-8.22763e-11 -8.77676e-12 0)
(-8.08551e-11 -7.30481e-12 0)
(-7.53085e-11 -7.16519e-12 0)
(-5.33931e-11 -7.63132e-12 0)
(-1.72683e-11 -7.77737e-12 0)
(6.51701e-11 -3.48689e-12 0)
(1.34731e-10 1.08727e-12 0)
(1.95572e-10 8.30636e-12 0)
(1.97661e-10 1.33048e-11 0)
(1.35667e-10 1.4014e-11 0)
(6.45227e-11 1.24977e-11 0)
(-2.10504e-11 3.77872e-12 0)
(-9.07584e-11 -4.36141e-12 0)
(-5.4604e-11 -5.90113e-12 0)
(-8.90105e-11 -9.83455e-12 0)
(5.33386e-11 2.50699e-12 0)
(-1.77481e-11 7.52305e-12 0)
(9.79932e-11 1.44599e-11 0)
(1.15346e-10 -8.29121e-10 0)
(-3.66448e-10 4.4599e-11 0)
(-6.39925e-10 -6.31072e-11 0)
(4.62052e-11 3.24758e-11 0)
(-4.3422e-10 3.19876e-12 0)
(-4.26694e-10 1.73382e-11 0)
(-7.23618e-10 4.83923e-11 0)
(-9.85489e-10 2.38327e-11 0)
(-7.86168e-10 3.58552e-11 0)
(-9.38648e-10 2.9698e-13 0)
(-7.83194e-10 -2.02886e-11 0)
(-6.39235e-10 -1.61691e-11 0)
(-6.62473e-10 -2.79055e-11 0)
(-6.1981e-10 -1.75496e-12 0)
(-7.97895e-10 1.47419e-11 0)
(-9.15526e-10 2.39509e-11 0)
(-9.70042e-10 3.12757e-11 0)
(-1.02812e-09 1.21732e-11 0)
(-9.17138e-10 -2.38123e-12 0)
(-7.76472e-10 -1.76717e-11 0)
(-6.19732e-10 -2.86297e-11 0)
(-5.249e-10 -2.18286e-11 0)
(-5.74565e-10 -8.86596e-12 0)
(-6.69901e-10 1.13036e-11 0)
(-8.15356e-10 2.49824e-11 0)
(-9.5633e-10 2.37378e-11 0)
(-1.02791e-09 1.3794e-11 0)
(-1.0013e-09 -4.0531e-12 0)
(-8.53927e-10 -2.13728e-11 0)
(-6.62912e-10 -3.15568e-11 0)
(-4.86081e-10 -3.1529e-11 0)
(-3.58214e-10 -2.09509e-11 0)
(-3.10408e-10 -6.86911e-12 0)
(-3.38121e-10 5.21013e-12 0)
(-4.14245e-10 1.16964e-11 0)
(-4.83831e-10 1.03179e-11 0)
(-5.17113e-10 2.33446e-12 0)
(-5.04619e-10 -7.16024e-12 0)
(-4.40913e-10 -1.38521e-11 0)
(-3.30554e-10 -1.60419e-11 0)
(-2.08735e-10 -1.50352e-11 0)
(-1.28561e-10 -1.33349e-11 0)
(-9.53914e-11 -1.05593e-11 0)
(-9.12059e-11 -8.9022e-12 0)
(-8.42665e-11 -8.78359e-12 0)
(-6.20999e-11 -9.34868e-12 0)
(-2.51424e-11 -9.47639e-12 0)
(6.09604e-11 -4.44225e-12 0)
(1.3573e-10 9.69699e-13 0)
(2.03434e-10 9.5568e-12 0)
(2.09184e-10 1.55047e-11 0)
(1.48017e-10 1.65293e-11 0)
(7.37061e-11 1.47906e-11 0)
(-1.77248e-11 4.6182e-12 0)
(-9.3929e-11 -5.00827e-12 0)
(-6.04791e-11 -7.10405e-12 0)
(-9.8288e-11 -1.18256e-11 0)
(5.07628e-11 2.55302e-12 0)
(-2.23492e-11 8.28283e-12 0)
(1.02931e-10 1.68785e-11 0)
(1.26532e-10 -8.15924e-10 0)
(-4.12216e-10 5.23632e-11 0)
(-6.74281e-10 -7.183e-11 0)
(2.25276e-11 3.64708e-11 0)
(-4.64093e-10 2.66694e-12 0)
(-4.44823e-10 1.93947e-11 0)
(-7.7217e-10 5.49102e-11 0)
(-1.03617e-09 2.82656e-11 0)
(-8.4355e-10 4.22943e-11 0)
(-1.01051e-09 1.68052e-12 0)
(-8.48302e-10 -2.19353e-11 0)
(-7.0405e-10 -1.82622e-11 0)
(-7.17932e-10 -3.23086e-11 0)
(-6.69961e-10 -2.90568e-12 0)
(-8.53043e-10 1.58232e-11 0)
(-9.73396e-10 2.70128e-11 0)
(-1.03781e-09 3.59455e-11 0)
(-1.10402e-09 1.46679e-11 0)
(-9.95264e-10 -1.76784e-12 0)
(-8.51802e-10 -1.95883e-11 0)
(-6.8413e-10 -3.25526e-11 0)
(-5.79783e-10 -2.53071e-11 0)
(-6.23365e-10 -1.08148e-11 0)
(-7.16738e-10 1.22424e-11 0)
(-8.67116e-10 2.81495e-11 0)
(-1.01699e-09 2.72032e-11 0)
(-1.09942e-09 1.6187e-11 0)
(-1.07937e-09 -4.14554e-12 0)
(-9.30708e-10 -2.41618e-11 0)
(-7.32413e-10 -3.62333e-11 0)
(-5.43875e-10 -3.66415e-11 0)
(-4.0342e-10 -2.48047e-11 0)
(-3.45346e-10 -8.68197e-12 0)
(-3.67839e-10 5.35133e-12 0)
(-4.44345e-10 1.30506e-11 0)
(-5.17366e-10 1.17003e-11 0)
(-5.55025e-10 2.66769e-12 0)
(-5.45795e-10 -8.23764e-12 0)
(-4.81957e-10 -1.60358e-11 0)
(-3.66634e-10 -1.8667e-11 0)
(-2.3664e-10 -1.76047e-11 0)
(-1.48474e-10 -1.57023e-11 0)
(-1.09658e-10 -1.25412e-11 0)
(-1.02216e-10 -1.06854e-11 0)
(-9.36737e-11 -1.05951e-11 0)
(-7.14392e-11 -1.12797e-11 0)
(-3.4e-11 -1.13968e-11 0)
(5.52076e-11 -5.57187e-12 0)
(1.3503e-10 7.55672e-13 0)
(2.09808e-10 1.08475e-11 0)
(2.19829e-10 1.78615e-11 0)
(1.60539e-10 1.92923e-11 0)
(8.36601e-11 1.73427e-11 0)
(-1.32422e-11 5.62818e-12 0)
(-9.60391e-11 -5.62841e-12 0)
(-6.61328e-11 -8.40762e-12 0)
(-1.07628e-10 -1.40221e-11 0)
(4.72865e-11 2.50693e-12 0)
(-2.7433e-11 9.00708e-12 0)
(1.0734e-10 1.94834e-11 0)
(1.36825e-10 -8.01624e-10 0)
(-4.60167e-10 6.09998e-11 0)
(-7.06515e-10 -8.0827e-11 0)
(-5.50676e-12 4.06073e-11 0)
(-4.93745e-10 1.95481e-12 0)
(-4.61666e-10 2.13961e-11 0)
(-8.19596e-10 6.16565e-11 0)
(-1.08299e-09 3.31044e-11 0)
(-9.00041e-10 4.93115e-11 0)
(-1.08156e-09 3.45763e-12 0)
(-9.13802e-10 -2.33674e-11 0)
(-7.70941e-10 -2.0361e-11 0)
(-7.74286e-10 -3.69739e-11 0)
(-7.20914e-10 -4.2827e-12 0)
(-9.07516e-10 1.67607e-11 0)
(-1.02957e-09 3.0152e-11 0)
(-1.10433e-09 4.08936e-11 0)
(-1.17898e-09 1.74576e-11 0)
(-1.07403e-09 -9.07995e-13 0)
(-9.29087e-10 -2.14533e-11 0)
(-7.51053e-10 -3.6638e-11 0)
(-6.37145e-10 -2.90612e-11 0)
(-6.73312e-10 -1.30385e-11 0)
(-7.63308e-10 1.30655e-11 0)
(-9.17404e-10 3.13976e-11 0)
(-1.07557e-09 3.08872e-11 0)
(-1.16933e-09 1.88374e-11 0)
(-1.157e-09 -4.08636e-12 0)
(-1.00866e-09 -2.69986e-11 0)
(-8.04458e-10 -4.11761e-11 0)
(-6.0483e-10 -4.21696e-11 0)
(-4.51635e-10 -2.90859e-11 0)
(-3.82405e-10 -1.0818e-11 0)
(-3.98492e-10 5.33327e-12 0)
(-4.74341e-10 1.44014e-11 0)
(-5.50275e-10 1.31587e-11 0)
(-5.92418e-10 3.05628e-12 0)
(-5.8702e-10 -9.34862e-12 0)
(-5.23809e-10 -1.83579e-11 0)
(-4.042e-10 -2.1499e-11 0)
(-2.6638e-10 -2.04091e-11 0)
(-1.70063e-10 -1.83025e-11 0)
(-1.25148e-10 -1.47284e-11 0)
(-1.13943e-10 -1.26592e-11 0)
(-1.03563e-10 -1.26049e-11 0)
(-8.14165e-11 -1.34339e-11 0)
(-4.38413e-11 -1.3554e-11 0)
(4.7895e-11 -6.89782e-12 0)
(1.3258e-10 4.22212e-13 0)
(2.14611e-10 1.21585e-11 0)
(2.29509e-10 2.03653e-11 0)
(1.73161e-10 2.23094e-11 0)
(9.43644e-11 2.01718e-11 0)
(-7.56154e-12 6.8367e-12 0)
(-9.70123e-11 -6.19644e-12 0)
(-7.14674e-11 -9.80262e-12 0)
(-1.16965e-10 -1.64266e-11 0)
(4.29419e-11 2.34952e-12 0)
(-3.30121e-11 9.67833e-12 0)
(1.11201e-10 2.22679e-11 0)
(1.46032e-10 -7.86185e-10 0)
(-5.10136e-10 7.0566e-11 0)
(-7.36614e-10 -9.00195e-11 0)
(-3.79397e-11 4.4883e-11 0)
(-5.23184e-10 1.05273e-12 0)
(-4.7741e-10 2.32987e-11 0)
(-8.65826e-10 6.85855e-11 0)
(-1.12587e-09 3.83393e-11 0)
(-9.5546e-10 5.69049e-11 0)
(-1.15152e-09 5.67056e-12 0)
(-9.79514e-10 -2.45307e-11 0)
(-8.3975e-10 -2.24273e-11 0)
(-8.31502e-10 -4.1875e-11 0)
(-7.72706e-10 -5.89601e-12 0)
(-9.61311e-10 1.75256e-11 0)
(-1.08402e-09 3.33405e-11 0)
(-1.16945e-09 4.61007e-11 0)
(-1.25279e-09 2.05516e-11 0)
(-1.15323e-09 2.26245e-13 0)
(-1.00815e-09 -2.32325e-11 0)
(-8.20432e-10 -4.08585e-11 0)
(-6.97006e-10 -3.30866e-11 0)
(-7.24481e-10 -1.55544e-11 0)
(-8.09687e-10 1.37419e-11 0)
(-9.66226e-10 3.46982e-11 0)
(-1.13197e-09 3.47793e-11 0)
(-1.23746e-09 2.17567e-11 0)
(-1.23394e-09 -3.84613e-12 0)
(-1.08758e-09 -2.98496e-11 0)
(-8.78916e-10 -4.63623e-11 0)
(-6.68921e-10 -4.81115e-11 0)
(-5.02929e-10 -3.38146e-11 0)
(-4.21703e-10 -1.33101e-11 0)
(-4.30192e-10 5.12305e-12 0)
(-5.04291e-10 1.57271e-11 0)
(-5.82543e-10 1.46868e-11 0)
(-6.29218e-10 3.50704e-12 0)
(-6.28192e-10 -1.04812e-11 0)
(-5.66377e-10 -2.08095e-11 0)
(-4.43212e-10 -2.45358e-11 0)
(-2.97971e-10 -2.34528e-11 0)
(-1.9339e-10 -2.1142e-11 0)