/*--------------------------------*- C++ -*----------------------------------*\
| =========                 |                                                 |
| \\      /  F ield         | foam-extend: Open Source CFD                    |
|  \\    /   O peration     | Version:     4.0                                |
|   \\  /    A nd           | Web:         http://www.foam-extend.org         |
|    \\/     M anipulation  |                                                 |
\*---------------------------------------------------------------------------*/
FoamFile
{
    version     2.0;
    format      ascii;
    class       volScalarField;
    location    "1980";
    object      cMinus;
}
// * * * * * * * * * * * * * * * * * * * * * * * * * * * * * * * * * * * * * //

dimensions      [0 0 0 0 0 0 0];

internalField   nonuniform List<scalar> 
6960
(
7.47498e-24
7.47561e-24
7.4758e-24
7.47591e-24
7.476e-24
7.47607e-24
7.47615e-24
7.47623e-24
7.47632e-24
7.4764e-24
7.47649e-24
7.47657e-24
7.47665e-24
7.47674e-24
7.47682e-24
7.47689e-24
7.47697e-24
7.47704e-24
7.4771e-24
7.47717e-24
7.47722e-24
7.47727e-24
7.47732e-24
7.47736e-24
7.4774e-24
7.47743e-24
7.47745e-24
7.47747e-24
7.47748e-24
7.47749e-24
7.47749e-24
7.47748e-24
7.47747e-24
7.47745e-24
7.47743e-24
7.4774e-24
7.47736e-24
7.47732e-24
7.47727e-24
7.47722e-24
7.47717e-24
7.4771e-24
7.47704e-24
7.47697e-24
7.47689e-24
7.47682e-24
7.47674e-24
7.47665e-24
7.47657e-24
7.47649e-24
7.4764e-24
7.47632e-24
7.47623e-24
7.47615e-24
7.47607e-24
7.476e-24
7.47591e-24
7.4758e-24
7.47561e-24
7.47498e-24
2.04314e-23
2.04331e-23
2.04338e-23
2.04341e-23
2.04344e-23
2.04347e-23
2.0435e-23
2.04353e-23
2.04356e-23
2.04359e-23
2.04362e-23
2.04365e-23
2.04368e-23
2.04371e-23
2.04373e-23
2.04376e-23
2.04378e-23
2.04381e-23
2.04383e-23
2.04385e-23
2.04387e-23
2.04388e-23
2.0439e-23
2.04391e-23
2.04392e-23
2.04393e-23
2.04394e-23
2.04395e-23
2.04395e-23
2.04395e-23
2.04395e-23
2.04395e-23
2.04395e-23
2.04394e-23
2.04393e-23
2.04392e-23
2.04391e-23
2.0439e-23
2.04388e-23
2.04387e-23
2.04385e-23
2.04383e-23
2.04381e-23
2.04378e-23
2.04376e-23
2.04373e-23
2.04371e-23
2.04368e-23
2.04365e-23
2.04362e-23
2.04359e-23
2.04356e-23
2.04353e-23
2.0435e-23
2.04347e-23
2.04344e-23
2.04341e-23
2.04338e-23
2.04331e-23
2.04314e-23
4.82951e-23
4.82994e-23
4.83011e-23
4.83022e-23
4.83032e-23
4.83041e-23
4.83051e-23
4.8306e-23
4.83069e-23
4.83078e-23
4.83087e-23
4.83096e-23
4.83104e-23
4.83113e-23
4.8312e-23
4.83128e-23
4.83135e-23
4.83142e-23
4.83148e-23
4.83154e-23
4.83159e-23
4.83164e-23
4.83168e-23
4.83172e-23
4.83175e-23
4.83178e-23
4.8318e-23
4.83181e-23
4.83183e-23
4.83183e-23
4.83183e-23
4.83183e-23
4.83181e-23
4.8318e-23
4.83178e-23
4.83175e-23
4.83172e-23
4.83168e-23
4.83164e-23
4.83159e-23
4.83154e-23
4.83148e-23
4.83142e-23
4.83135e-23
4.83128e-23
4.8312e-23
4.83113e-23
4.83104e-23
4.83096e-23
4.83087e-23
4.83078e-23
4.83069e-23
4.8306e-23
4.83051e-23
4.83041e-23
4.83032e-23
4.83022e-23
4.83011e-23
4.82994e-23
4.82951e-23
1.0856e-22
1.08571e-22
1.08575e-22
1.08578e-22
1.08581e-22
1.08584e-22
1.08587e-22
1.08589e-22
1.08592e-22
1.08595e-22
1.08597e-22
1.08599e-22
1.08602e-22
1.08604e-22
1.08606e-22
1.08608e-22
1.0861e-22
1.08612e-22
1.08614e-22
1.08615e-22
1.08617e-22
1.08618e-22
1.08619e-22
1.0862e-22
1.08621e-22
1.08622e-22
1.08622e-22
1.08623e-22
1.08623e-22
1.08623e-22
1.08623e-22
1.08623e-22
1.08623e-22
1.08622e-22
1.08622e-22
1.08621e-22
1.0862e-22
1.08619e-22
1.08618e-22
1.08617e-22
1.08615e-22
1.08614e-22
1.08612e-22
1.0861e-22
1.08608e-22
1.08606e-22
1.08604e-22
1.08602e-22
1.08599e-22
1.08597e-22
1.08595e-22
1.08592e-22
1.08589e-22
1.08587e-22
1.08584e-22
1.08581e-22
1.08578e-22
1.08575e-22
1.08571e-22
1.0856e-22
2.41046e-22
2.41069e-22
2.41081e-22
2.41089e-22
2.41098e-22
2.41105e-22
2.41113e-22
2.4112e-22
2.41128e-22
2.41135e-22
2.41141e-22
2.41148e-22
2.41154e-22
2.4116e-22
2.41166e-22
2.41172e-22
2.41177e-22
2.41182e-22
2.41186e-22
2.4119e-22
2.41194e-22
2.41197e-22
2.412e-22
2.41203e-22
2.41205e-22
2.41207e-22
2.41209e-22
2.4121e-22
2.41211e-22
2.41211e-22
2.41211e-22
2.41211e-22
2.4121e-22
2.41209e-22
2.41207e-22
2.41205e-22
2.41203e-22
2.412e-22
2.41197e-22
2.41194e-22
2.4119e-22
2.41186e-22
2.41182e-22
2.41177e-22
2.41172e-22
2.41166e-22
2.4116e-22
2.41154e-22
2.41148e-22
2.41141e-22
2.41135e-22
2.41128e-22
2.4112e-22
2.41113e-22
2.41105e-22
2.41098e-22
2.41089e-22
2.41081e-22
2.41069e-22
2.41046e-22
5.37891e-22
5.37948e-22
5.37976e-22
5.38e-22
5.38022e-22
5.38043e-22
5.38063e-22
5.38083e-22
5.38103e-22
5.38122e-22
5.3814e-22
5.38158e-22
5.38175e-22
5.38191e-22
5.38206e-22
5.3822e-22
5.38234e-22
5.38246e-22
5.38258e-22
5.38269e-22
5.38279e-22
5.38287e-22
5.38295e-22
5.38302e-22
5.38308e-22
5.38313e-22
5.38317e-22
5.3832e-22
5.38322e-22
5.38323e-22
5.38323e-22
5.38322e-22
5.3832e-22
5.38317e-22
5.38313e-22
5.38308e-22
5.38302e-22
5.38295e-22
5.38287e-22
5.38279e-22
5.38269e-22
5.38258e-22
5.38246e-22
5.38234e-22
5.3822e-22
5.38206e-22
5.38191e-22
5.38175e-22
5.38158e-22
5.3814e-22
5.38122e-22
5.38103e-22
5.38083e-22
5.38063e-22
5.38043e-22
5.38022e-22
5.38e-22
5.37976e-22
5.37948e-22
5.37891e-22
1.21639e-21
1.21652e-21
1.2166e-21
1.21666e-21
1.21672e-21
1.21677e-21
1.21683e-21
1.21688e-21
1.21694e-21
1.21699e-21
1.21704e-21
1.21708e-21
1.21713e-21
1.21717e-21
1.21721e-21
1.21725e-21
1.21728e-21
1.21732e-21
1.21735e-21
1.21737e-21
1.2174e-21
1.21742e-21
1.21744e-21
1.21746e-21
1.21748e-21
1.21749e-21
1.2175e-21
1.21751e-21
1.21751e-21
1.21751e-21
1.21751e-21
1.21751e-21
1.21751e-21
1.2175e-21
1.21749e-21
1.21748e-21
1.21746e-21
1.21744e-21
1.21742e-21
1.2174e-21
1.21737e-21
1.21735e-21
1.21732e-21
1.21728e-21
1.21725e-21
1.21721e-21
1.21717e-21
1.21713e-21
1.21708e-21
1.21704e-21
1.21699e-21
1.21694e-21
1.21688e-21
1.21683e-21
1.21677e-21
1.21672e-21
1.21666e-21
1.2166e-21
1.21652e-21
1.21639e-21
2.79918e-21
2.7995e-21
2.79969e-21
2.79986e-21
2.80002e-21
2.80017e-21
2.80032e-21
2.80046e-21
2.8006e-21
2.80074e-21
2.80087e-21
2.80099e-21
2.80111e-21
2.80122e-21
2.80132e-21
2.80142e-21
2.80152e-21
2.8016e-21
2.80168e-21
2.80176e-21
2.80182e-21
2.80188e-21
2.80194e-21
2.80198e-21
2.80202e-21
2.80206e-21
2.80208e-21
2.8021e-21
2.80212e-21
2.80212e-21
2.80212e-21
2.80212e-21
2.8021e-21
2.80208e-21
2.80206e-21
2.80202e-21
2.80198e-21
2.80194e-21
2.80188e-21
2.80182e-21
2.80176e-21
2.80168e-21
2.8016e-21
2.80152e-21
2.80142e-21
2.80132e-21
2.80122e-21
2.80111e-21
2.80099e-21
2.80087e-21
2.80074e-21
2.8006e-21
2.80046e-21
2.80032e-21
2.80017e-21
2.80002e-21
2.79986e-21
2.79969e-21
2.7995e-21
2.79918e-21
6.56894e-21
6.56976e-21
6.57025e-21
6.57069e-21
6.57111e-21
6.57153e-21
6.57193e-21
6.57231e-21
6.57269e-21
6.57305e-21
6.57339e-21
6.57372e-21
6.57404e-21
6.57433e-21
6.57461e-21
6.57488e-21
6.57512e-21
6.57535e-21
6.57556e-21
6.57576e-21
6.57593e-21
6.57609e-21
6.57623e-21
6.57635e-21
6.57646e-21
6.57654e-21
6.57661e-21
6.57667e-21
6.5767e-21
6.57672e-21
6.57672e-21
6.5767e-21
6.57667e-21
6.57661e-21
6.57654e-21
6.57646e-21
6.57635e-21
6.57623e-21
6.57609e-21
6.57593e-21
6.57576e-21
6.57556e-21
6.57535e-21
6.57512e-21
6.57488e-21
6.57461e-21
6.57433e-21
6.57404e-21
6.57372e-21
6.57339e-21
6.57305e-21
6.57269e-21
6.57231e-21
6.57193e-21
6.57153e-21
6.57111e-21
6.57069e-21
6.57025e-21
6.56976e-21
6.56894e-21
1.5739e-20
1.5741e-20
1.57423e-20
1.57435e-20
1.57447e-20
1.57458e-20
1.57469e-20
1.57479e-20
1.57489e-20
1.57499e-20
1.57508e-20
1.57517e-20
1.57525e-20
1.57533e-20
1.57541e-20
1.57548e-20
1.57555e-20
1.57561e-20
1.57566e-20
1.57572e-20
1.57576e-20
1.5758e-20
1.57584e-20
1.57587e-20
1.5759e-20
1.57593e-20
1.57594e-20
1.57596e-20
1.57597e-20
1.57597e-20
1.57597e-20
1.57597e-20
1.57596e-20
1.57594e-20
1.57593e-20
1.5759e-20
1.57587e-20
1.57584e-20
1.5758e-20
1.57576e-20
1.57572e-20
1.57566e-20
1.57561e-20
1.57555e-20
1.57548e-20
1.57541e-20
1.57533e-20
1.57525e-20
1.57517e-20
1.57508e-20
1.57499e-20
1.57489e-20
1.57479e-20
1.57469e-20
1.57458e-20
1.57447e-20
1.57435e-20
1.57423e-20
1.5741e-20
1.5739e-20
3.85282e-20
3.85334e-20
3.85369e-20
3.85402e-20
3.85433e-20
3.85464e-20
3.85493e-20
3.85522e-20
3.8555e-20
3.85576e-20
3.85601e-20
3.85626e-20
3.85648e-20
3.8567e-20
3.85691e-20
3.8571e-20
3.85727e-20
3.85744e-20
3.85759e-20
3.85773e-20
3.85786e-20
3.85797e-20
3.85807e-20
3.85816e-20
3.85824e-20
3.8583e-20
3.85835e-20
3.85839e-20
3.85841e-20
3.85843e-20
3.85843e-20
3.85841e-20
3.85839e-20
3.85835e-20
3.8583e-20
3.85824e-20
3.85816e-20
3.85807e-20
3.85797e-20
3.85786e-20
3.85773e-20
3.85759e-20
3.85744e-20
3.85727e-20
3.8571e-20
3.85691e-20
3.8567e-20
3.85648e-20
3.85626e-20
3.85601e-20
3.85576e-20
3.8555e-20
3.85522e-20
3.85493e-20
3.85464e-20
3.85433e-20
3.85402e-20
3.85369e-20
3.85334e-20
3.85282e-20
9.64068e-20
9.64206e-20
9.64301e-20
9.6439e-20
9.64477e-20
9.64562e-20
9.64644e-20
9.64724e-20
9.648e-20
9.64874e-20
9.64944e-20
9.6501e-20
9.65073e-20
9.65133e-20
9.65189e-20
9.65242e-20
9.65291e-20
9.65336e-20
9.65378e-20
9.65416e-20
9.65451e-20
9.65482e-20
9.6551e-20
9.65534e-20
9.65555e-20
9.65572e-20
9.65586e-20
9.65596e-20
9.65603e-20
9.65607e-20
9.65607e-20
9.65603e-20
9.65596e-20
9.65586e-20
9.65572e-20
9.65555e-20
9.65534e-20
9.6551e-20
9.65482e-20
9.65451e-20
9.65416e-20
9.65378e-20
9.65336e-20
9.65291e-20
9.65242e-20
9.65189e-20
9.65133e-20
9.65073e-20
9.6501e-20
9.64944e-20
9.64874e-20
9.648e-20
9.64724e-20
9.64644e-20
9.64562e-20
9.64477e-20
9.6439e-20
9.64301e-20
9.64206e-20
9.64068e-20
2.46671e-19
2.46707e-19
2.46734e-19
2.46759e-19
2.46783e-19
2.46807e-19
2.4683e-19
2.46852e-19
2.46874e-19
2.46894e-19
2.46914e-19
2.46933e-19
2.4695e-19
2.46967e-19
2.46983e-19
2.46998e-19
2.47011e-19
2.47024e-19
2.47036e-19
2.47046e-19
2.47056e-19
2.47065e-19
2.47072e-19
2.47079e-19
2.47085e-19
2.4709e-19
2.47094e-19
2.47096e-19
2.47098e-19
2.47099e-19
2.47099e-19
2.47098e-19
2.47096e-19
2.47094e-19
2.4709e-19
2.47085e-19
2.47079e-19
2.47072e-19
2.47065e-19
2.47056e-19
2.47046e-19
2.47036e-19
2.47024e-19
2.47011e-19
2.46998e-19
2.46983e-19
2.46967e-19
2.4695e-19
2.46933e-19
2.46914e-19
2.46894e-19
2.46874e-19
2.46852e-19
2.4683e-19
2.46807e-19
2.46783e-19
2.46759e-19
2.46734e-19
2.46707e-19
2.46671e-19
6.45547e-19
6.45647e-19
6.45721e-19
6.45792e-19
6.45862e-19
6.4593e-19
6.45996e-19
6.4606e-19
6.46121e-19
6.4618e-19
6.46236e-19
6.46289e-19
6.46339e-19
6.46387e-19
6.46431e-19
6.46473e-19
6.46512e-19
6.46548e-19
6.46581e-19
6.46612e-19
6.46639e-19
6.46664e-19
6.46686e-19
6.46705e-19
6.46721e-19
6.46735e-19
6.46745e-19
6.46754e-19
6.46759e-19
6.46762e-19
6.46762e-19
6.46759e-19
6.46754e-19
6.46745e-19
6.46735e-19
6.46721e-19
6.46705e-19
6.46686e-19
6.46664e-19
6.46639e-19
6.46612e-19
6.46581e-19
6.46548e-19
6.46512e-19
6.46473e-19
6.46431e-19
6.46387e-19
6.46339e-19
6.46289e-19
6.46236e-19
6.4618e-19
6.46121e-19
6.4606e-19
6.45996e-19
6.4593e-19
6.45862e-19
6.45792e-19
6.45721e-19
6.45647e-19
6.45547e-19
1.72836e-18
1.72864e-18
1.72885e-18
1.72906e-18
1.72926e-18
1.72946e-18
1.72965e-18
1.72983e-18
1.73001e-18
1.73018e-18
1.73035e-18
1.7305e-18
1.73064e-18
1.73078e-18
1.73091e-18
1.73103e-18
1.73114e-18
1.73125e-18
1.73134e-18
1.73143e-18
1.73151e-18
1.73158e-18
1.73165e-18
1.7317e-18
1.73175e-18
1.73179e-18
1.73182e-18
1.73184e-18
1.73186e-18
1.73187e-18
1.73187e-18
1.73186e-18
1.73184e-18
1.73182e-18
1.73179e-18
1.73175e-18
1.7317e-18
1.73165e-18
1.73158e-18
1.73151e-18
1.73143e-18
1.73134e-18
1.73125e-18
1.73114e-18
1.73103e-18
1.73091e-18
1.73078e-18
1.73064e-18
1.7305e-18
1.73035e-18
1.73018e-18
1.73001e-18
1.72983e-18
1.72965e-18
1.72946e-18
1.72926e-18
1.72906e-18
1.72885e-18
1.72864e-18
1.72836e-18
4.73486e-18
4.73565e-18
4.73627e-18
4.73688e-18
4.73748e-18
4.73807e-18
4.73864e-18
4.73919e-18
4.73971e-18
4.74022e-18
4.74069e-18
4.74115e-18
4.74158e-18
4.74198e-18
4.74236e-18
4.74272e-18
4.74305e-18
4.74336e-18
4.74364e-18
4.7439e-18
4.74413e-18
4.74434e-18
4.74452e-18
4.74469e-18
4.74483e-18
4.74494e-18
4.74503e-18
4.7451e-18
4.74515e-18
4.74517e-18
4.74517e-18
4.74515e-18
4.7451e-18
4.74503e-18
4.74494e-18
4.74483e-18
4.74469e-18
4.74452e-18
4.74434e-18
4.74413e-18
4.7439e-18
4.74364e-18
4.74336e-18
4.74305e-18
4.74272e-18
4.74236e-18
4.74198e-18
4.74158e-18
4.74115e-18
4.74069e-18
4.74022e-18
4.73971e-18
4.73919e-18
4.73864e-18
4.73807e-18
4.73748e-18
4.73688e-18
4.73627e-18
4.73565e-18
4.73486e-18
1.32737e-17
1.3276e-17
1.32779e-17
1.32797e-17
1.32815e-17
1.32833e-17
1.3285e-17
1.32867e-17
1.32882e-17
1.32898e-17
1.32912e-17
1.32926e-17
1.32939e-17
1.32951e-17
1.32962e-17
1.32973e-17
1.32983e-17
1.32992e-17
1.33e-17
1.33008e-17
1.33015e-17
1.33021e-17
1.33027e-17
1.33032e-17
1.33036e-17
1.33039e-17
1.33042e-17
1.33044e-17
1.33046e-17
1.33046e-17
1.33046e-17
1.33046e-17
1.33044e-17
1.33042e-17
1.33039e-17
1.33036e-17
1.33032e-17
1.33027e-17
1.33021e-17
1.33015e-17
1.33008e-17
1.33e-17
1.32992e-17
1.32983e-17
1.32973e-17
1.32962e-17
1.32951e-17
1.32939e-17
1.32926e-17
1.32912e-17
1.32898e-17
1.32882e-17
1.32867e-17
1.3285e-17
1.32833e-17
1.32815e-17
1.32797e-17
1.32779e-17
1.3276e-17
1.32737e-17
3.80809e-17
3.80877e-17
3.80933e-17
3.80989e-17
3.81045e-17
3.811e-17
3.81152e-17
3.81203e-17
3.81252e-17
3.81298e-17
3.81342e-17
3.81384e-17
3.81424e-17
3.81461e-17
3.81496e-17
3.81529e-17
3.81559e-17
3.81587e-17
3.81613e-17
3.81637e-17
3.81658e-17
3.81677e-17
3.81694e-17
3.81709e-17
3.81722e-17
3.81732e-17
3.81741e-17
3.81747e-17
3.81751e-17
3.81753e-17
3.81753e-17
3.81751e-17
3.81747e-17
3.81741e-17
3.81732e-17
3.81722e-17
3.81709e-17
3.81694e-17
3.81677e-17
3.81658e-17
3.81637e-17
3.81613e-17
3.81587e-17
3.81559e-17
3.81529e-17
3.81496e-17
3.81461e-17
3.81424e-17
3.81384e-17
3.81342e-17
3.81298e-17
3.81252e-17
3.81203e-17
3.81152e-17
3.811e-17
3.81045e-17
3.80989e-17
3.80933e-17
3.80877e-17
3.80809e-17
1.11797e-16
1.11818e-16
1.11835e-16
1.11853e-16
1.1187e-16
1.11888e-16
1.11904e-16
1.1192e-16
1.11935e-16
1.1195e-16
1.11963e-16
1.11977e-16
1.11989e-16
1.12001e-16
1.12012e-16
1.12022e-16
1.12031e-16
1.1204e-16
1.12048e-16
1.12055e-16
1.12062e-16
1.12068e-16
1.12073e-16
1.12078e-16
1.12082e-16
1.12085e-16
1.12088e-16
1.1209e-16
1.12091e-16
1.12092e-16
1.12092e-16
1.12091e-16
1.1209e-16
1.12088e-16
1.12085e-16
1.12082e-16
1.12078e-16
1.12073e-16
1.12068e-16
1.12062e-16
1.12055e-16
1.12048e-16
1.1204e-16
1.12031e-16
1.12022e-16
1.12012e-16
1.12001e-16
1.11989e-16
1.11977e-16
1.11963e-16
1.1195e-16
1.11935e-16
1.1192e-16
1.11904e-16
1.11888e-16
1.1187e-16
1.11853e-16
1.11835e-16
1.11818e-16
1.11797e-16
3.35822e-16
3.35885e-16
3.35941e-16
3.35997e-16
3.36053e-16
3.36107e-16
3.3616e-16
3.3621e-16
3.36259e-16
3.36305e-16
3.36349e-16
3.36391e-16
3.36431e-16
3.36468e-16
3.36503e-16
3.36535e-16
3.36565e-16
3.36593e-16
3.36619e-16
3.36642e-16
3.36664e-16
3.36683e-16
3.367e-16
3.36714e-16
3.36727e-16
3.36737e-16
3.36746e-16
3.36752e-16
3.36756e-16
3.36758e-16
3.36758e-16
3.36756e-16
3.36752e-16
3.36746e-16
3.36737e-16
3.36727e-16
3.36714e-16
3.367e-16
3.36683e-16
3.36664e-16
3.36642e-16
3.36619e-16
3.36593e-16
3.36565e-16
3.36535e-16
3.36503e-16
3.36468e-16
3.36431e-16
3.36391e-16
3.36349e-16
3.36305e-16
3.36259e-16
3.3621e-16
3.3616e-16
3.36107e-16
3.36053e-16
3.35997e-16
3.35941e-16
3.35885e-16
3.35822e-16
1.03189e-15
1.03209e-15
1.03227e-15
1.03246e-15
1.03264e-15
1.03281e-15
1.03299e-15
1.03315e-15
1.03331e-15
1.03346e-15
1.0336e-15
1.03374e-15
1.03387e-15
1.03399e-15
1.0341e-15
1.03421e-15
1.0343e-15
1.0344e-15
1.03448e-15
1.03456e-15
1.03462e-15
1.03469e-15
1.03474e-15
1.03479e-15
1.03483e-15
1.03486e-15
1.03489e-15
1.03491e-15
1.03492e-15
1.03493e-15
1.03493e-15
1.03492e-15
1.03491e-15
1.03489e-15
1.03486e-15
1.03483e-15
1.03479e-15
1.03474e-15
1.03469e-15
1.03462e-15
1.03456e-15
1.03448e-15
1.0344e-15
1.0343e-15
1.03421e-15
1.0341e-15
1.03399e-15
1.03387e-15
1.03374e-15
1.0336e-15
1.03346e-15
1.03331e-15
1.03315e-15
1.03299e-15
1.03281e-15
1.03264e-15
1.03246e-15
1.03227e-15
1.03209e-15
1.03189e-15
3.24228e-15
3.24293e-15
3.24352e-15
3.24413e-15
3.24473e-15
3.24532e-15
3.24589e-15
3.24644e-15
3.24697e-15
3.24747e-15
3.24794e-15
3.24839e-15
3.24882e-15
3.24922e-15
3.24959e-15
3.24994e-15
3.25027e-15
3.25057e-15
3.25084e-15
3.25109e-15
3.25132e-15
3.25153e-15
3.25171e-15
3.25187e-15
3.252e-15
3.25211e-15
3.2522e-15
3.25227e-15
3.25231e-15
3.25234e-15
3.25234e-15
3.25231e-15
3.25227e-15
3.2522e-15
3.25211e-15
3.252e-15
3.25187e-15
3.25171e-15
3.25153e-15
3.25132e-15
3.25109e-15
3.25084e-15
3.25057e-15
3.25027e-15
3.24994e-15
3.24959e-15
3.24922e-15
3.24882e-15
3.24839e-15
3.24794e-15
3.24747e-15
3.24697e-15
3.24644e-15
3.24589e-15
3.24532e-15
3.24473e-15
3.24413e-15
3.24352e-15
3.24293e-15
3.24228e-15
1.04121e-14
1.04142e-14
1.04162e-14
1.04183e-14
1.04203e-14
1.04223e-14
1.04243e-14
1.04261e-14
1.04279e-14
1.04296e-14
1.04312e-14
1.04327e-14
1.04341e-14
1.04355e-14
1.04368e-14
1.04379e-14
1.0439e-14
1.044e-14
1.0441e-14
1.04418e-14
1.04426e-14
1.04433e-14
1.04439e-14
1.04444e-14
1.04449e-14
1.04453e-14
1.04456e-14
1.04458e-14
1.04459e-14
1.0446e-14
1.0446e-14
1.04459e-14
1.04458e-14
1.04456e-14
1.04453e-14
1.04449e-14
1.04444e-14
1.04439e-14
1.04433e-14
1.04426e-14
1.04418e-14
1.0441e-14
1.044e-14
1.0439e-14
1.04379e-14
1.04368e-14
1.04355e-14
1.04341e-14
1.04327e-14
1.04312e-14
1.04296e-14
1.04279e-14
1.04261e-14
1.04243e-14
1.04223e-14
1.04203e-14
1.04183e-14
1.04162e-14
1.04142e-14
1.04121e-14
3.41512e-14
3.41584e-14
3.41653e-14
3.41723e-14
3.41793e-14
3.41862e-14
3.41929e-14
3.41992e-14
3.42054e-14
3.42112e-14
3.42167e-14
3.42219e-14
3.42269e-14
3.42315e-14
3.42359e-14
3.42399e-14
3.42437e-14
3.42472e-14
3.42504e-14
3.42533e-14
3.4256e-14
3.42584e-14
3.42605e-14
3.42623e-14
3.42639e-14
3.42652e-14
3.42662e-14
3.4267e-14
3.42675e-14
3.42677e-14
3.42677e-14
3.42675e-14
3.4267e-14
3.42662e-14
3.42652e-14
3.42639e-14
3.42623e-14
3.42605e-14
3.42584e-14
3.4256e-14
3.42533e-14
3.42504e-14
3.42472e-14
3.42437e-14
3.42399e-14
3.42359e-14
3.42315e-14
3.42269e-14
3.42219e-14
3.42167e-14
3.42112e-14
3.42054e-14
3.41992e-14
3.41929e-14
3.41862e-14
3.41793e-14
3.41723e-14
3.41653e-14
3.41584e-14
3.41512e-14
1.14308e-13
1.14333e-13
1.14357e-13
1.14382e-13
1.14406e-13
1.1443e-13
1.14454e-13
1.14476e-13
1.14498e-13
1.14518e-13
1.14537e-13
1.14556e-13
1.14573e-13
1.14589e-13
1.14605e-13
1.14619e-13
1.14632e-13
1.14644e-13
1.14655e-13
1.14666e-13
1.14675e-13
1.14683e-13
1.1469e-13
1.14697e-13
1.14702e-13
1.14707e-13
1.14711e-13
1.14713e-13
1.14715e-13
1.14716e-13
1.14716e-13
1.14715e-13
1.14713e-13
1.14711e-13
1.14707e-13
1.14702e-13
1.14697e-13
1.1469e-13
1.14683e-13
1.14675e-13
1.14666e-13
1.14655e-13
1.14644e-13
1.14632e-13
1.14619e-13
1.14605e-13
1.14589e-13
1.14573e-13
1.14556e-13
1.14537e-13
1.14518e-13
1.14498e-13
1.14476e-13
1.14454e-13
1.1443e-13
1.14406e-13
1.14382e-13
1.14357e-13
1.14333e-13
1.14308e-13
3.90016e-13
3.90103e-13
3.90188e-13
3.90277e-13
3.90364e-13
3.9045e-13
3.90533e-13
3.90613e-13
3.9069e-13
3.90762e-13
3.90831e-13
3.90897e-13
3.90958e-13
3.91016e-13
3.9107e-13
3.91121e-13
3.91168e-13
3.91211e-13
3.91251e-13
3.91288e-13
3.91321e-13
3.9135e-13
3.91376e-13
3.91399e-13
3.91418e-13
3.91435e-13
3.91447e-13
3.91457e-13
3.91464e-13
3.91467e-13
3.91467e-13
3.91464e-13
3.91457e-13
3.91447e-13
3.91435e-13
3.91418e-13
3.91399e-13
3.91376e-13
3.9135e-13
3.91321e-13
3.91288e-13
3.91251e-13
3.91211e-13
3.91168e-13
3.91121e-13
3.9107e-13
3.91016e-13
3.90958e-13
3.90897e-13
3.90831e-13
3.90762e-13
3.9069e-13
3.90613e-13
3.90533e-13
3.9045e-13
3.90364e-13
3.90277e-13
3.90188e-13
3.90103e-13
3.90016e-13
1.3547e-12
1.355e-12
1.35531e-12
1.35563e-12
1.35595e-12
1.35626e-12
1.35656e-12
1.35685e-12
1.35713e-12
1.35739e-12
1.35764e-12
1.35787e-12
1.3581e-12
1.35831e-12
1.3585e-12
1.35869e-12
1.35886e-12
1.35901e-12
1.35916e-12
1.35929e-12
1.35941e-12
1.35951e-12
1.35961e-12
1.35969e-12
1.35976e-12
1.35982e-12
1.35986e-12
1.3599e-12
1.35992e-12
1.35993e-12
1.35993e-12
1.35992e-12
1.3599e-12
1.35986e-12
1.35982e-12
1.35976e-12
1.35969e-12
1.35961e-12
1.35951e-12
1.35941e-12
1.35929e-12
1.35916e-12
1.35901e-12
1.35886e-12
1.35869e-12
1.3585e-12
1.35831e-12
1.3581e-12
1.35787e-12
1.35764e-12
1.35739e-12
1.35713e-12
1.35685e-12
1.35656e-12
1.35626e-12
1.35595e-12
1.35563e-12
1.35531e-12
1.355e-12
1.3547e-12
4.78243e-12
4.78354e-12
4.78467e-12
4.78584e-12
4.78701e-12
4.78815e-12
4.78925e-12
4.79031e-12
4.79132e-12
4.79229e-12
4.7932e-12
4.79406e-12
4.79488e-12
4.79565e-12
4.79637e-12
4.79703e-12
4.79766e-12
4.79823e-12
4.79876e-12
4.79924e-12
4.79967e-12
4.80006e-12
4.80041e-12
4.80071e-12
4.80097e-12
4.80118e-12
4.80135e-12
4.80148e-12
4.80156e-12
4.80161e-12
4.80161e-12
4.80156e-12
4.80148e-12
4.80135e-12
4.80118e-12
4.80097e-12
4.80071e-12
4.80041e-12
4.80006e-12
4.79967e-12
4.79924e-12
4.79876e-12
4.79823e-12
4.79766e-12
4.79703e-12
4.79637e-12
4.79565e-12
4.79488e-12
4.79406e-12
4.7932e-12
4.79229e-12
4.79132e-12
4.79031e-12
4.78925e-12
4.78815e-12
4.78701e-12
4.78584e-12
4.78467e-12
4.78354e-12
4.78243e-12
1.71259e-11
1.713e-11
1.71342e-11
1.71385e-11
1.71429e-11
1.71471e-11
1.71512e-11
1.71551e-11
1.71589e-11
1.71624e-11
1.71658e-11
1.7169e-11
1.7172e-11
1.71749e-11
1.71775e-11
1.718e-11
1.71823e-11
1.71845e-11
1.71864e-11
1.71882e-11
1.71898e-11
1.71912e-11
1.71925e-11
1.71936e-11
1.71946e-11
1.71954e-11
1.7196e-11
1.71965e-11
1.71968e-11
1.7197e-11
1.7197e-11
1.71968e-11
1.71965e-11
1.7196e-11
1.71954e-11
1.71946e-11
1.71936e-11
1.71925e-11
1.71912e-11
1.71898e-11
1.71882e-11
1.71864e-11
1.71845e-11
1.71823e-11
1.718e-11
1.71775e-11
1.71749e-11
1.7172e-11
1.7169e-11
1.71658e-11
1.71624e-11
1.71589e-11
1.71551e-11
1.71512e-11
1.71471e-11
1.71429e-11
1.71385e-11
1.71342e-11
1.713e-11
1.71259e-11
6.20653e-11
6.20804e-11
6.2096e-11
6.21123e-11
6.21284e-11
6.21443e-11
6.21596e-11
6.21743e-11
6.21883e-11
6.22016e-11
6.22143e-11
6.22263e-11
6.22376e-11
6.22482e-11
6.22581e-11
6.22674e-11
6.2276e-11
6.2284e-11
6.22913e-11
6.22979e-11
6.23039e-11
6.23093e-11
6.23141e-11
6.23182e-11
6.23218e-11
6.23248e-11
6.23271e-11
6.23289e-11
6.233e-11
6.23306e-11
6.23306e-11
6.233e-11
6.23289e-11
6.23271e-11
6.23248e-11
6.23218e-11
6.23182e-11
6.23141e-11
6.23093e-11
6.23039e-11
6.22979e-11
6.22913e-11
6.2284e-11
6.2276e-11
6.22674e-11
6.22581e-11
6.22482e-11
6.22376e-11
6.22263e-11
6.22143e-11
6.22016e-11
6.21883e-11
6.21743e-11
6.21596e-11
6.21443e-11
6.21284e-11
6.21123e-11
6.2096e-11
6.20804e-11
6.20653e-11
2.27007e-10
2.27063e-10
2.27122e-10
2.27183e-10
2.27244e-10
2.27304e-10
2.27361e-10
2.27416e-10
2.27469e-10
2.27519e-10
2.27567e-10
2.27612e-10
2.27655e-10
2.27694e-10
2.27732e-10
2.27767e-10
2.27799e-10
2.27829e-10
2.27856e-10
2.27881e-10
2.27904e-10
2.27924e-10
2.27942e-10
2.27958e-10
2.27971e-10
2.27982e-10
2.27991e-10
2.27998e-10
2.28002e-10
2.28004e-10
2.28004e-10
2.28002e-10
2.27998e-10
2.27991e-10
2.27982e-10
2.27971e-10
2.27958e-10
2.27942e-10
2.27924e-10
2.27904e-10
2.27881e-10
2.27856e-10
2.27829e-10
2.27799e-10
2.27767e-10
2.27732e-10
2.27694e-10
2.27655e-10
2.27612e-10
2.27567e-10
2.27519e-10
2.27469e-10
2.27416e-10
2.27361e-10
2.27304e-10
2.27244e-10
2.27183e-10
2.27122e-10
2.27063e-10
2.27007e-10
8.35269e-10
8.3548e-10
8.35702e-10
8.35933e-10
8.36162e-10
8.36387e-10
8.36604e-10
8.36813e-10
8.37012e-10
8.37201e-10
8.37381e-10
8.3755e-10
8.37711e-10
8.37861e-10
8.38002e-10
8.38133e-10
8.38255e-10
8.38367e-10
8.3847e-10
8.38564e-10
8.38649e-10
8.38726e-10
8.38793e-10
8.38852e-10
8.38902e-10
8.38944e-10
8.38977e-10
8.39002e-10
8.39019e-10
8.39027e-10
8.39027e-10
8.39019e-10
8.39002e-10
8.38977e-10
8.38944e-10
8.38902e-10
8.38852e-10
8.38793e-10
8.38726e-10
8.38649e-10
8.38564e-10
8.3847e-10
8.38367e-10
8.38255e-10
8.38133e-10
8.38002e-10
8.37861e-10
8.37711e-10
8.3755e-10
8.37381e-10
8.37201e-10
8.37012e-10
8.36813e-10
8.36604e-10
8.36387e-10
8.36162e-10
8.35933e-10
8.35702e-10
8.3548e-10
8.35269e-10
3.08024e-09
3.08103e-09
3.08187e-09
3.08273e-09
3.0836e-09
3.08445e-09
3.08526e-09
3.08605e-09
3.0868e-09
3.08751e-09
3.08819e-09
3.08882e-09
3.08943e-09
3.08999e-09
3.09052e-09
3.09101e-09
3.09147e-09
3.0919e-09
3.09228e-09
3.09264e-09
3.09296e-09
3.09324e-09
3.0935e-09
3.09372e-09
3.09391e-09
3.09406e-09
3.09419e-09
3.09428e-09
3.09435e-09
3.09438e-09
3.09438e-09
3.09435e-09
3.09428e-09
3.09419e-09
3.09406e-09
3.09391e-09
3.09372e-09
3.0935e-09
3.09324e-09
3.09296e-09
3.09264e-09
3.09228e-09
3.0919e-09
3.09147e-09
3.09101e-09
3.09052e-09
3.08999e-09
3.08943e-09
3.08882e-09
3.08819e-09
3.08751e-09
3.0868e-09
3.08605e-09
3.08526e-09
3.08445e-09
3.0836e-09
3.08273e-09
3.08187e-09
3.08103e-09
3.08024e-09
1.13353e-08
1.13382e-08
1.13413e-08
1.13446e-08
1.13478e-08
1.1351e-08
1.1354e-08
1.1357e-08
1.13598e-08
1.13624e-08
1.1365e-08
1.13674e-08
1.13696e-08
1.13717e-08
1.13737e-08
1.13755e-08
1.13772e-08
1.13788e-08
1.13803e-08
1.13816e-08
1.13828e-08
1.13839e-08
1.13848e-08
1.13856e-08
1.13863e-08
1.13869e-08
1.13874e-08
1.13878e-08
1.1388e-08
1.13881e-08
1.13881e-08
1.1388e-08
1.13878e-08
1.13874e-08
1.13869e-08
1.13863e-08
1.13856e-08
1.13848e-08
1.13839e-08
1.13828e-08
1.13816e-08
1.13803e-08
1.13788e-08
1.13772e-08
1.13755e-08
1.13737e-08
1.13717e-08
1.13696e-08
1.13674e-08
1.1365e-08
1.13624e-08
1.13598e-08
1.1357e-08
1.1354e-08
1.1351e-08
1.13478e-08
1.13446e-08
1.13413e-08
1.13382e-08
1.13353e-08
4.14193e-08
4.14302e-08
4.14418e-08
4.14538e-08
4.14658e-08
4.14775e-08
4.14888e-08
4.14996e-08
4.15099e-08
4.15198e-08
4.15291e-08
4.15379e-08
4.15463e-08
4.15541e-08
4.15614e-08
4.15682e-08
4.15745e-08
4.15803e-08
4.15857e-08
4.15905e-08
4.1595e-08
4.15989e-08
4.16024e-08
4.16055e-08
4.16081e-08
4.16102e-08
4.16119e-08
4.16132e-08
4.16141e-08
4.16145e-08
4.16145e-08
4.16141e-08
4.16132e-08
4.16119e-08
4.16102e-08
4.16081e-08
4.16055e-08
4.16024e-08
4.15989e-08
4.1595e-08
4.15905e-08
4.15857e-08
4.15803e-08
4.15745e-08
4.15682e-08
4.15614e-08
4.15541e-08
4.15463e-08
4.15379e-08
4.15291e-08
4.15198e-08
4.15099e-08
4.14996e-08
4.14888e-08
4.14775e-08
4.14658e-08
4.14538e-08
4.14418e-08
4.14302e-08
4.14193e-08
1.49426e-07
1.49465e-07
1.49507e-07
1.49551e-07
1.49594e-07
1.49637e-07
1.49678e-07
1.49717e-07
1.49754e-07
1.4979e-07
1.49824e-07
1.49856e-07
1.49886e-07
1.49914e-07
1.49941e-07
1.49965e-07
1.49988e-07
1.50009e-07
1.50029e-07
1.50047e-07
1.50063e-07
1.50077e-07
1.5009e-07
1.50101e-07
1.5011e-07
1.50118e-07
1.50124e-07
1.50129e-07
1.50132e-07
1.50133e-07
1.50133e-07
1.50132e-07
1.50129e-07
1.50124e-07
1.50118e-07
1.5011e-07
1.50101e-07
1.5009e-07
1.50077e-07
1.50063e-07
1.50047e-07
1.50029e-07
1.50009e-07
1.49988e-07
1.49965e-07
1.49941e-07
1.49914e-07
1.49886e-07
1.49856e-07
1.49824e-07
1.4979e-07
1.49754e-07
1.49717e-07
1.49678e-07
1.49637e-07
1.49594e-07
1.49551e-07
1.49507e-07
1.49465e-07
1.49426e-07
5.28783e-07
5.28922e-07
5.29072e-07
5.29226e-07
5.2938e-07
5.29531e-07
5.29675e-07
5.29815e-07
5.29947e-07
5.30073e-07
5.30193e-07
5.30306e-07
5.30413e-07
5.30513e-07
5.30606e-07
5.30693e-07
5.30774e-07
5.30849e-07
5.30917e-07
5.3098e-07
5.31036e-07
5.31087e-07
5.31132e-07
5.31171e-07
5.31204e-07
5.31232e-07
5.31254e-07
5.3127e-07
5.31281e-07
5.31287e-07
5.31287e-07
5.31281e-07
5.3127e-07
5.31254e-07
5.31232e-07
5.31204e-07
5.31171e-07
5.31132e-07
5.31087e-07
5.31036e-07
5.3098e-07
5.30917e-07
5.30849e-07
5.30774e-07
5.30693e-07
5.30606e-07
5.30513e-07
5.30413e-07
5.30306e-07
5.30193e-07
5.30073e-07
5.29947e-07
5.29815e-07
5.29675e-07
5.29531e-07
5.2938e-07
5.29226e-07
5.29072e-07
5.28922e-07
5.28783e-07
1.82207e-06
1.82254e-06
1.82306e-06
1.82359e-06
1.82411e-06
1.82463e-06
1.82512e-06
1.8256e-06
1.82605e-06
1.82648e-06
1.82689e-06
1.82728e-06
1.82764e-06
1.82798e-06
1.8283e-06
1.8286e-06
1.82888e-06
1.82913e-06
1.82936e-06
1.82958e-06
1.82977e-06
1.82994e-06
1.8301e-06
1.83023e-06
1.83034e-06
1.83044e-06
1.83051e-06
1.83057e-06
1.83061e-06
1.83063e-06
1.83063e-06
1.83061e-06
1.83057e-06
1.83051e-06
1.83044e-06
1.83034e-06
1.83023e-06
1.8301e-06
1.82994e-06
1.82977e-06
1.82958e-06
1.82936e-06
1.82913e-06
1.82888e-06
1.8286e-06
1.8283e-06
1.82798e-06
1.82764e-06
1.82728e-06
1.82689e-06
1.82648e-06
1.82605e-06
1.8256e-06
1.82512e-06
1.82463e-06
1.82411e-06
1.82359e-06
1.82306e-06
1.82254e-06
1.82207e-06
6.06272e-06
6.06429e-06
6.06597e-06
6.0677e-06
6.06943e-06
6.07111e-06
6.07273e-06
6.07429e-06
6.07577e-06
6.07718e-06
6.07852e-06
6.07978e-06
6.08097e-06
6.08209e-06
6.08314e-06
6.08411e-06
6.08501e-06
6.08585e-06
6.08661e-06
6.08731e-06
6.08794e-06
6.0885e-06
6.089e-06
6.08944e-06
6.08981e-06
6.09012e-06
6.09037e-06
6.09055e-06
6.09067e-06
6.09073e-06
6.09073e-06
6.09067e-06
6.09055e-06
6.09037e-06
6.09012e-06
6.08981e-06
6.08944e-06
6.089e-06
6.0885e-06
6.08794e-06
6.08731e-06
6.08661e-06
6.08585e-06
6.08501e-06
6.08411e-06
6.08314e-06
6.08209e-06
6.08097e-06
6.07978e-06
6.07852e-06
6.07718e-06
6.07577e-06
6.07429e-06
6.07273e-06
6.07111e-06
6.06943e-06
6.0677e-06
6.06597e-06
6.06429e-06
6.06272e-06
1.92976e-05
1.93025e-05
1.93077e-05
1.93131e-05
1.93185e-05
1.93237e-05
1.93287e-05
1.93335e-05
1.93381e-05
1.93425e-05
1.93466e-05
1.93506e-05
1.93542e-05
1.93577e-05
1.93609e-05
1.93639e-05
1.93667e-05
1.93693e-05
1.93717e-05
1.93739e-05
1.93758e-05
1.93776e-05
1.93791e-05
1.93804e-05
1.93816e-05
1.93826e-05
1.93833e-05
1.93839e-05
1.93843e-05
1.93845e-05
1.93845e-05
1.93843e-05
1.93839e-05
1.93833e-05
1.93826e-05
1.93816e-05
1.93804e-05
1.93791e-05
1.93776e-05
1.93758e-05
1.93739e-05
1.93717e-05
1.93693e-05
1.93667e-05
1.93639e-05
1.93609e-05
1.93577e-05
1.93542e-05
1.93506e-05
1.93466e-05
1.93425e-05
1.93381e-05
1.93335e-05
1.93287e-05
1.93237e-05
1.93185e-05
1.93131e-05
1.93077e-05
1.93025e-05
1.92976e-05
5.81409e-05
5.81552e-05
5.81704e-05
5.81861e-05
5.82016e-05
5.82167e-05
5.82313e-05
5.82452e-05
5.82586e-05
5.82712e-05
5.82832e-05
5.82946e-05
5.83052e-05
5.83152e-05
5.83246e-05
5.83333e-05
5.83414e-05
5.83489e-05
5.83558e-05
5.8362e-05
5.83677e-05
5.83727e-05
5.83772e-05
5.83811e-05
5.83844e-05
5.83872e-05
5.83894e-05
5.83911e-05
5.83922e-05
5.83927e-05
5.83927e-05
5.83922e-05
5.83911e-05
5.83894e-05
5.83872e-05
5.83844e-05
5.83811e-05
5.83772e-05
5.83727e-05
5.83677e-05
5.8362e-05
5.83558e-05
5.83489e-05
5.83414e-05
5.83333e-05
5.83246e-05
5.83152e-05
5.83052e-05
5.82946e-05
5.82832e-05
5.82712e-05