/*--------------------------------*- C++ -*----------------------------------*\
| =========                 |                                                 |
| \\      /  F ield         | foam-extend: Open Source CFD                    |
|  \\    /   O peration     | Version:     4.0                                |
|   \\  /    A nd           | Web:         http://www.foam-extend.org         |
|    \\/     M anipulation  |                                                 |
\*---------------------------------------------------------------------------*/
FoamFile
{
    version     2.0;
    format      ascii;
    class       volScalarField;
    location    "130";
    object      cPlus;
}
// * * * * * * * * * * * * * * * * * * * * * * * * * * * * * * * * * * * * * //

dimensions      [0 0 0 0 0 0 0];

internalField   nonuniform List<scalar> 
6960
(
0.184775
0.184689
0.184649
0.184632
0.184625
0.184623
0.184621
0.184621
0.184621
0.184621
0.184621
0.184622
0.184622
0.184622
0.184623
0.184623
0.184623
0.184623
0.184624
0.184624
0.184624
0.184624
0.184625
0.184625
0.184625
0.184625
0.184625
0.184625
0.184625
0.184625
0.184625
0.184625
0.184625
0.184625
0.184625
0.184625
0.184625
0.184625
0.184624
0.184624
0.184624
0.184624
0.184623
0.184623
0.184623
0.184623
0.184622
0.184622
0.184622
0.184621
0.184621
0.184621
0.184621
0.184621
0.184623
0.184625
0.184632
0.184649
0.184689
0.184775
0.0499247
0.0499122
0.0499053
0.0499023
0.0499011
0.0499006
0.0499005
0.0499005
0.0499006
0.0499007
0.0499009
0.049901
0.0499011
0.0499013
0.0499014
0.0499015
0.0499017
0.0499018
0.0499019
0.049902
0.0499021
0.0499022
0.0499022
0.0499023
0.0499024
0.0499024
0.0499024
0.0499025
0.0499025
0.0499025
0.0499025
0.0499025
0.0499025
0.0499024
0.0499024
0.0499024
0.0499023
0.0499022
0.0499022
0.0499021
0.049902
0.0499019
0.0499018
0.0499017
0.0499015
0.0499014
0.0499013
0.0499011
0.049901
0.0499009
0.0499007
0.0499006
0.0499005
0.0499005
0.0499006
0.0499011
0.0499023
0.0499053
0.0499122
0.0499247
0.0322461
0.0322571
0.0322609
0.0322624
0.0322631
0.0322635
0.0322637
0.0322638
0.0322639
0.032264
0.0322641
0.0322642
0.0322643
0.0322644
0.0322645
0.0322646
0.0322646
0.0322647
0.0322648
0.0322648
0.0322649
0.0322649
0.032265
0.032265
0.032265
0.0322651
0.0322651
0.0322651
0.0322651
0.0322651
0.0322651
0.0322651
0.0322651
0.0322651
0.0322651
0.032265
0.032265
0.032265
0.0322649
0.0322649
0.0322648
0.0322648
0.0322647
0.0322646
0.0322646
0.0322645
0.0322644
0.0322643
0.0322642
0.0322641
0.032264
0.0322639
0.0322638
0.0322637
0.0322635
0.0322631
0.0322624
0.0322609
0.0322571
0.0322461
0.0303301
0.0303469
0.0303534
0.0303561
0.0303572
0.0303578
0.030358
0.0303582
0.0303584
0.0303585
0.0303586
0.0303586
0.0303587
0.0303588
0.0303589
0.0303589
0.030359
0.0303591
0.0303591
0.0303592
0.0303592
0.0303593
0.0303593
0.0303593
0.0303594
0.0303594
0.0303594
0.0303594
0.0303594
0.0303594
0.0303594
0.0303594
0.0303594
0.0303594
0.0303594
0.0303594
0.0303593
0.0303593
0.0303593
0.0303592
0.0303592
0.0303591
0.0303591
0.030359
0.0303589
0.0303589
0.0303588
0.0303587
0.0303586
0.0303586
0.0303585
0.0303584
0.0303582
0.030358
0.0303578
0.0303572
0.0303561
0.0303534
0.0303469
0.0303301
0.0306826
0.0307011
0.0307083
0.0307113
0.0307126
0.0307132
0.0307135
0.0307137
0.0307138
0.030714
0.0307141
0.0307142
0.0307142
0.0307143
0.0307144
0.0307145
0.0307145
0.0307146
0.0307146
0.0307147
0.0307147
0.0307148
0.0307148
0.0307148
0.0307149
0.0307149
0.0307149
0.0307149
0.0307149
0.0307149
0.0307149
0.0307149
0.0307149
0.0307149
0.0307149
0.0307149
0.0307148
0.0307148
0.0307148
0.0307147
0.0307147
0.0307146
0.0307146
0.0307145
0.0307145
0.0307144
0.0307143
0.0307142
0.0307142
0.0307141
0.030714
0.0307138
0.0307137
0.0307135
0.0307132
0.0307126
0.0307113
0.0307083
0.0307011
0.0306826
0.0314187
0.0314382
0.0314458
0.0314489
0.0314503
0.0314509
0.0314513
0.0314515
0.0314516
0.0314517
0.0314519
0.0314519
0.031452
0.0314521
0.0314522
0.0314523
0.0314523
0.0314524
0.0314525
0.0314525
0.0314526
0.0314526
0.0314526
0.0314527
0.0314527
0.0314527
0.0314527
0.0314528
0.0314528
0.0314528
0.0314528
0.0314528
0.0314528
0.0314527
0.0314527
0.0314527
0.0314527
0.0314526
0.0314526
0.0314526
0.0314525
0.0314525
0.0314524
0.0314523
0.0314523
0.0314522
0.0314521
0.031452
0.0314519
0.0314519
0.0314517
0.0314516
0.0314515
0.0314513
0.0314509
0.0314503
0.0314489
0.0314458
0.0314382
0.0314187
0.0322892
0.0323096
0.0323176
0.0323209
0.0323224
0.032323
0.0323234
0.0323236
0.0323238
0.0323239
0.032324
0.0323241
0.0323242
0.0323243
0.0323244
0.0323245
0.0323245
0.0323246
0.0323247
0.0323247
0.0323248
0.0323248
0.0323249
0.0323249
0.0323249
0.0323249
0.032325
0.032325
0.032325
0.032325
0.032325
0.032325
0.032325
0.032325
0.0323249
0.0323249
0.0323249
0.0323249
0.0323248
0.0323248
0.0323247
0.0323247
0.0323246
0.0323245
0.0323245
0.0323244
0.0323243
0.0323242
0.0323241
0.032324
0.0323239
0.0323238
0.0323236
0.0323234
0.032323
0.0323224
0.0323209
0.0323176
0.0323096
0.0322892
0.0332758
0.0332974
0.0333058
0.0333093
0.0333109
0.0333116
0.033312
0.0333122
0.0333124
0.0333125
0.0333126
0.0333127
0.0333128
0.0333129
0.033313
0.0333131
0.0333132
0.0333132
0.0333133
0.0333134
0.0333134
0.0333135
0.0333135
0.0333136
0.0333136
0.0333136
0.0333136
0.0333137
0.0333137
0.0333137
0.0333137
0.0333137
0.0333137
0.0333136
0.0333136
0.0333136
0.0333136
0.0333135
0.0333135
0.0333134
0.0333134
0.0333133
0.0333132
0.0333132
0.0333131
0.033313
0.0333129
0.0333128
0.0333127
0.0333126
0.0333125
0.0333124
0.0333122
0.033312
0.0333116
0.0333109
0.0333093
0.0333058
0.0332974
0.0332758
0.0343965
0.0344194
0.0344283
0.034432
0.0344337
0.0344344
0.0344348
0.0344351
0.0344352
0.0344354
0.0344355
0.0344356
0.0344357
0.0344359
0.0344359
0.034436
0.0344361
0.0344362
0.0344363
0.0344363
0.0344364
0.0344365
0.0344365
0.0344365
0.0344366
0.0344366
0.0344366
0.0344366
0.0344367
0.0344367
0.0344367
0.0344367
0.0344366
0.0344366
0.0344366
0.0344366
0.0344365
0.0344365
0.0344365
0.0344364
0.0344363
0.0344363
0.0344362
0.0344361
0.034436
0.0344359
0.0344359
0.0344357
0.0344356
0.0344355
0.0344354
0.0344352
0.0344351
0.0344348
0.0344344
0.0344337
0.034432
0.0344283
0.0344194
0.0343965
0.0356799
0.0357043
0.0357138
0.0357178
0.0357196
0.0357204
0.0357208
0.0357211
0.0357213
0.0357214
0.0357216
0.0357217
0.0357218
0.0357219
0.035722
0.0357221
0.0357222
0.0357223
0.0357224
0.0357225
0.0357225
0.0357226
0.0357226
0.0357227
0.0357227
0.0357228
0.0357228
0.0357228
0.0357228
0.0357228
0.0357228
0.0357228
0.0357228
0.0357228
0.0357228
0.0357227
0.0357227
0.0357226
0.0357226
0.0357225
0.0357225
0.0357224
0.0357223
0.0357222
0.0357221
0.035722
0.0357219
0.0357218
0.0357217
0.0357216
0.0357214
0.0357213
0.0357211
0.0357208
0.0357204
0.0357196
0.0357178
0.0357138
0.0357043
0.0356799
0.0371649
0.0371911
0.0372014
0.0372057
0.0372076
0.0372084
0.0372089
0.0372092
0.0372094
0.0372096
0.0372097
0.0372099
0.03721
0.0372101
0.0372103
0.0372104
0.0372105
0.0372106
0.0372106
0.0372107
0.0372108
0.0372109
0.0372109
0.037211
0.037211
0.0372111
0.0372111
0.0372111
0.0372111
0.0372111
0.0372111
0.0372111
0.0372111
0.0372111
0.0372111
0.037211
0.037211
0.0372109
0.0372109
0.0372108
0.0372107
0.0372106
0.0372106
0.0372105
0.0372104
0.0372103
0.0372101
0.03721
0.0372099
0.0372097
0.0372096
0.0372094
0.0372092
0.0372089
0.0372084
0.0372076
0.0372057
0.0372014
0.0371911
0.0371649
0.0389043
0.0389329
0.038944
0.0389487
0.0389507
0.0389517
0.0389522
0.0389525
0.0389528
0.038953
0.0389531
0.0389533
0.0389534
0.0389536
0.0389537
0.0389538
0.0389539
0.038954
0.0389541
0.0389542
0.0389543
0.0389544
0.0389544
0.0389545
0.0389546
0.0389546
0.0389546
0.0389546
0.0389547
0.0389547
0.0389547
0.0389547
0.0389546
0.0389546
0.0389546
0.0389546
0.0389545
0.0389544
0.0389544
0.0389543
0.0389542
0.0389541
0.038954
0.0389539
0.0389538
0.0389537
0.0389536
0.0389534
0.0389533
0.0389531
0.038953
0.0389528
0.0389525
0.0389522
0.0389517
0.0389507
0.0389487
0.038944
0.0389329
0.0389043
0.0409721
0.0410035
0.0410158
0.0410209
0.0410232
0.0410243
0.0410248
0.0410252
0.0410255
0.0410257
0.0410259
0.0410261
0.0410262
0.0410264
0.0410265
0.0410267
0.0410268
0.0410269
0.041027
0.0410271
0.0410272
0.0410273
0.0410274
0.0410274
0.0410275
0.0410275
0.0410276
0.0410276
0.0410276
0.0410276
0.0410276
0.0410276
0.0410276
0.0410276
0.0410275
0.0410275
0.0410274
0.0410274
0.0410273
0.0410272
0.0410271
0.041027
0.0410269
0.0410268
0.0410267
0.0410265
0.0410264
0.0410262
0.0410261
0.0410259
0.0410257
0.0410255
0.0410252
0.0410248
0.0410243
0.0410232
0.0410209
0.0410158
0.0410035
0.0409721
0.0434746
0.0435098
0.0435235
0.0435293
0.0435318
0.043533
0.0435337
0.0435341
0.0435344
0.0435346
0.0435349
0.0435351
0.0435353
0.0435354
0.0435356
0.0435358
0.0435359
0.0435361
0.0435362
0.0435363
0.0435364
0.0435365
0.0435366
0.0435367
0.0435367
0.0435368
0.0435368
0.0435369
0.0435369
0.0435369
0.0435369
0.0435369
0.0435369
0.0435368
0.0435368
0.0435367
0.0435367
0.0435366
0.0435365
0.0435364
0.0435363
0.0435362
0.0435361
0.0435359
0.0435358
0.0435356
0.0435354
0.0435353
0.0435351
0.0435349
0.0435346
0.0435344
0.0435341
0.0435337
0.043533
0.0435318
0.0435293
0.0435235
0.0435098
0.0434746
0.0465707
0.0466107
0.0466265
0.0466331
0.046636
0.0466373
0.0466381
0.0466386
0.0466389
0.0466392
0.0466395
0.0466397
0.04664
0.0466402
0.0466404
0.0466406
0.0466407
0.0466409
0.0466411
0.0466412
0.0466413
0.0466414
0.0466415
0.0466416
0.0466417
0.0466418
0.0466418
0.0466419
0.0466419
0.0466419
0.0466419
0.0466419
0.0466419
0.0466418
0.0466418
0.0466417
0.0466416
0.0466415
0.0466414
0.0466413
0.0466412
0.0466411
0.0466409
0.0466407
0.0466406
0.0466404
0.0466402
0.04664
0.0466397
0.0466395
0.0466392
0.0466389
0.0466386
0.0466381
0.0466373
0.046636
0.0466331
0.0466265
0.0466107
0.0465707
0.0505036
0.0505505
0.050569
0.0505768
0.0505802
0.0505818
0.0505827
0.0505833
0.0505837
0.050584
0.0505844
0.0505847
0.0505849
0.0505852
0.0505855
0.0505857
0.0505859
0.0505861
0.0505863
0.0505865
0.0505866
0.0505868
0.0505869
0.050587
0.0505871
0.0505872
0.0505872
0.0505873
0.0505873
0.0505873
0.0505873
0.0505873
0.0505873
0.0505872
0.0505872
0.0505871
0.050587
0.0505869
0.0505868
0.0505866
0.0505865
0.0505863
0.0505861
0.0505859
0.0505857
0.0505855
0.0505852
0.0505849
0.0505847
0.0505844
0.050584
0.0505837
0.0505833
0.0505827
0.0505818
0.0505802
0.0505768
0.050569
0.0505505
0.0505036
0.0556492
0.0557058
0.0557281
0.0557376
0.0557417
0.0557437
0.0557448
0.0557455
0.055746
0.0557465
0.0557469
0.0557473
0.0557476
0.0557479
0.0557482
0.0557485
0.0557488
0.0557491
0.0557493
0.0557495
0.0557497
0.0557499
0.05575
0.0557502
0.0557503
0.0557504
0.0557505
0.0557505
0.0557506
0.0557506
0.0557506
0.0557506
0.0557505
0.0557505
0.0557504
0.0557503
0.0557502
0.05575
0.0557499
0.0557497
0.0557495
0.0557493
0.0557491
0.0557488
0.0557485
0.0557482
0.0557479
0.0557476
0.0557473
0.0557469
0.0557465
0.055746
0.0557455
0.0557448
0.0557437
0.0557417
0.0557376
0.0557281
0.0557058
0.0556492
0.0625623
0.0626329
0.0626608
0.0626726
0.0626779
0.0626804
0.0626817
0.0626826
0.0626833
0.0626839
0.0626844
0.0626849
0.0626853
0.0626858
0.0626862
0.0626866
0.0626869
0.0626872
0.0626875
0.0626878
0.0626881
0.0626883
0.0626885
0.0626887
0.0626888
0.062689
0.0626891
0.0626891
0.0626892
0.0626892
0.0626892
0.0626892
0.0626891
0.0626891
0.062689
0.0626888
0.0626887
0.0626885
0.0626883
0.0626881
0.0626878
0.0626875
0.0626872
0.0626869
0.0626866
0.0626862
0.0626858
0.0626853
0.0626849
0.0626844
0.0626839
0.0626833
0.0626826
0.0626817
0.0626804
0.0626779
0.0626726
0.0626608
0.0626329
0.0625623
0.0719752
0.0720652
0.072101
0.0721162
0.0721229
0.0721261
0.0721279
0.072129
0.0721299
0.0721306
0.0721313
0.0721319
0.0721325
0.0721331
0.0721336
0.0721341
0.0721346
0.072135
0.0721354
0.0721358
0.0721361
0.0721364
0.0721367
0.0721369
0.0721371
0.0721372
0.0721374
0.0721375
0.0721375
0.0721376
0.0721376
0.0721375
0.0721375
0.0721374
0.0721372
0.0721371
0.0721369
0.0721367
0.0721364
0.0721361
0.0721358
0.0721354
0.072135
0.0721346
0.0721341
0.0721336
0.0721331
0.0721325
0.0721319
0.0721313
0.0721306
0.0721299
0.072129
0.0721279
0.0721261
0.0721229
0.0721162
0.072101
0.0720652
0.0719752
0.0846709
0.0847863
0.0848325
0.084852
0.0848607
0.0848649
0.0848671
0.0848686
0.0848698
0.0848707
0.0848716
0.0848724
0.0848732
0.0848739
0.0848746
0.0848752
0.0848758
0.0848763
0.0848768
0.0848773
0.0848777
0.0848781
0.0848785
0.0848788
0.084879
0.0848792
0.0848794
0.0848795
0.0848796
0.0848796
0.0848796
0.0848796
0.0848795
0.0848794
0.0848792
0.084879
0.0848788
0.0848785
0.0848781
0.0848777
0.0848773
0.0848768
0.0848763
0.0848758
0.0848752
0.0848746
0.0848739
0.0848732
0.0848724
0.0848716
0.0848707
0.0848698
0.0848686
0.0848671
0.0848649
0.0848607
0.084852
0.0848325
0.0847863
0.0846709
0.101216
0.101362
0.101421
0.101445
0.101456
0.101462
0.101465
0.101466
0.101468
0.101469
0.10147
0.101471
0.101472
0.101473
0.101474
0.101475
0.101475
0.101476
0.101477
0.101477
0.101478
0.101478
0.101479
0.101479
0.101479
0.10148
0.10148
0.10148
0.10148
0.10148
0.10148
0.10148
0.10148
0.10148
0.10148
0.101479
0.101479
0.101479
0.101478
0.101478
0.101477
0.101477
0.101476
0.101475
0.101475
0.101474
0.101473
0.101472
0.101471
0.10147
0.101469
0.101468
0.101466
0.101465
0.101462
0.101456
0.101445
0.101421
0.101362
0.101216
0.121679
0.121857
0.121929
0.121959
0.121973
0.121979
0.121983
0.121985
0.121987
0.121988
0.12199
0.121991
0.121992
0.121993
0.121994
0.121995
0.121996
0.121996
0.121997
0.121998
0.121998
0.121999
0.122
0.122
0.122
0.122001
0.122001
0.122001
0.122001
0.122001
0.122001
0.122001
0.122001
0.122001
0.122001
0.122
0.122
0.122
0.121999
0.121998
0.121998
0.121997
0.121996
0.121996
0.121995
0.121994
0.121993
0.121992
0.121991
0.12199
0.121988
0.121987
0.121985
0.121983
0.121979
0.121973
0.121959
0.121929
0.121857
0.121679
0.145539
0.145747
0.145832
0.145869
0.145885
0.145892
0.145897
0.145899
0.145901
0.145903
0.145904
0.145905
0.145907
0.145908
0.145909
0.14591
0.145911
0.145912
0.145913
0.145913
0.145914
0.145915
0.145915
0.145916
0.145916
0.145916
0.145917
0.145917
0.145917
0.145917
0.145917
0.145917
0.145917
0.145917
0.145916
0.145916
0.145916
0.145915
0.145915
0.145914
0.145913
0.145913
0.145912
0.145911
0.14591
0.145909
0.145908
0.145907
0.145905
0.145904
0.145903
0.145901
0.145899
0.145897
0.145892
0.145885
0.145869
0.145832
0.145747
0.145539
0.17188
0.172116
0.172212
0.172254
0.172272
0.172281
0.172286
0.172289
0.172291
0.172292
0.172294
0.172295
0.172297
0.172298
0.172299
0.1723
0.172301
0.172302
0.172303
0.172304
0.172305
0.172305
0.172306
0.172306
0.172307
0.172307
0.172307
0.172308
0.172308
0.172308
0.172308
0.172308
0.172308
0.172307
0.172307
0.172307
0.172306
0.172306
0.172305
0.172305
0.172304
0.172303
0.172302
0.172301
0.1723
0.172299
0.172298
0.172297
0.172295
0.172294
0.172292
0.172291
0.172289
0.172286
0.172281
0.172272
0.172254
0.172212
0.172116
0.17188
0.199716
0.199974
0.200081
0.200128
0.200148
0.200158
0.200163
0.200166
0.200169
0.200171
0.200172
0.200174
0.200175
0.200176
0.200177
0.200179
0.20018
0.200181
0.200181
0.200182
0.200183
0.200184
0.200184
0.200185
0.200185
0.200186
0.200186
0.200186
0.200186
0.200186
0.200186
0.200186
0.200186
0.200186
0.200186
0.200185
0.200185
0.200184
0.200184
0.200183
0.200182
0.200181
0.200181
0.20018
0.200179
0.200177
0.200176
0.200175
0.200174
0.200172
0.200171
0.200169
0.200166
0.200163
0.200158
0.200148
0.200128
0.200081
0.199974
0.199716
0.228235
0.228513
0.228629
0.22868
0.228702
0.228713
0.228719
0.228722
0.228725
0.228726
0.228728
0.22873
0.228731
0.228732
0.228733
0.228735
0.228736
0.228737
0.228737
0.228738
0.228739
0.22874
0.22874
0.228741
0.228741
0.228742
0.228742
0.228742
0.228742
0.228742
0.228742
0.228742
0.228742
0.228742
0.228742
0.228741
0.228741
0.22874
0.22874
0.228739
0.228738
0.228737
0.228737
0.228736
0.228735
0.228733
0.228732
0.228731
0.22873
0.228728
0.228726
0.228725
0.228722
0.228719
0.228713
0.228702
0.22868
0.228629
0.228513
0.228235
0.256879
0.257173
0.257298
0.257353
0.257377
0.257389
0.257395
0.257399
0.257401
0.257403
0.257405
0.257406
0.257407
0.257409
0.25741
0.257411
0.257412
0.257413
0.257414
0.257415
0.257415
0.257416
0.257417
0.257417
0.257418
0.257418
0.257418
0.257418
0.257419
0.257419
0.257419
0.257419
0.257418
0.257418
0.257418
0.257418
0.257417
0.257417
0.257416
0.257415
0.257415
0.257414
0.257413
0.257412
0.257411
0.25741
0.257409
0.257407
0.257406
0.257405
0.257403
0.257401
0.257399
0.257395
0.257389
0.257377
0.257353
0.257298
0.257173
0.256879
0.285304
0.285613
0.285745
0.285804
0.28583
0.285843
0.285849
0.285853
0.285855
0.285857
0.285859
0.28586
0.285862
0.285863
0.285864
0.285865
0.285866
0.285867
0.285868
0.285869
0.285869
0.28587
0.285871
0.285871
0.285872
0.285872
0.285872
0.285872
0.285873
0.285873
0.285873
0.285873
0.285872
0.285872
0.285872
0.285872
0.285871
0.285871
0.28587
0.285869
0.285869
0.285868
0.285867
0.285866
0.285865
0.285864
0.285863
0.285862
0.28586
0.285859
0.285857
0.285855
0.285853
0.285849
0.285843
0.28583
0.285804
0.285745
0.285613
0.285304
0.31331
0.313631
0.313771
0.313833
0.313861
0.313874
0.313881
0.313885
0.313888
0.31389
0.313891
0.313893
0.313894
0.313895
0.313896
0.313898
0.313898
0.313899
0.3139
0.313901
0.313902
0.313902
0.313903
0.313903
0.313904
0.313904
0.313904
0.313905
0.313905
0.313905
0.313905
0.313905
0.313905
0.313904
0.313904
0.313904
0.313903
0.313903
0.313902
0.313902
0.313901
0.3139
0.313899
0.313898
0.313898
0.313896
0.313895
0.313894
0.313893
0.313891
0.31389
0.313888
0.313885
0.313881
0.313874
0.313861
0.313833
0.313771
0.313631
0.31331
0.340781
0.341112
0.341258
0.341324
0.341354
0.341368
0.341376
0.34138
0.341382
0.341384
0.341386
0.341387
0.341389
0.34139
0.341391
0.341392
0.341393
0.341394
0.341395
0.341395
0.341396
0.341397
0.341397
0.341398
0.341398
0.341398
0.341399
0.341399
0.341399
0.341399
0.341399
0.341399
0.341399
0.341399
0.341398
0.341398
0.341398
0.341397
0.341397
0.341396
0.341395
0.341395
0.341394
0.341393
0.341392
0.341391
0.34139
0.341389
0.341387
0.341386
0.341384
0.341382
0.34138
0.341376
0.341368
0.341354
0.341324
0.341258
0.341112
0.340781
0.367646
0.367986
0.368139
0.368208
0.36824
0.368255
0.368263
0.368267
0.36827
0.368272
0.368274
0.368275
0.368276
0.368277
0.368278
0.368279
0.36828
0.368281
0.368282
0.368283
0.368283
0.368284
0.368284
0.368285
0.368285
0.368286
0.368286
0.368286
0.368286
0.368286
0.368286
0.368286
0.368286
0.368286
0.368286
0.368285
0.368285
0.368284
0.368284
0.368283
0.368283
0.368282
0.368281
0.36828
0.368279
0.368278
0.368277
0.368276
0.368275
0.368274
0.368272
0.36827
0.368267
0.368263
0.368255
0.36824
0.368208
0.368139
0.367986
0.367646
0.393862
0.394209
0.394368
0.394441
0.394475
0.394491
0.394499
0.394504
0.394507
0.394509
0.39451
0.394512
0.394513
0.394514
0.394515
0.394516
0.394517
0.394518
0.394518
0.394519
0.39452
0.39452
0.394521
0.394521
0.394521
0.394522
0.394522
0.394522
0.394522
0.394522
0.394522
0.394522
0.394522
0.394522
0.394522
0.394521
0.394521
0.394521
0.39452
0.39452
0.394519
0.394518
0.394518
0.394517
0.394516
0.394515
0.394514
0.394513
0.394512
0.39451
0.394509
0.394507
0.394504
0.394499
0.394491
0.394475
0.394441
0.394368
0.394209
0.393862
0.4194
0.419754
0.419919
0.419995
0.420031
0.420048
0.420057
0.420061
0.420064
0.420066
0.420068
0.420069
0.42007
0.420071
0.420072
0.420073
0.420074
0.420075
0.420076
0.420076
0.420077
0.420077
0.420078
0.420078
0.420079
0.420079
0.420079
0.420079
0.420079
0.42008
0.42008
0.420079
0.420079
0.420079
0.420079
0.420079
0.420078
0.420078
0.420077
0.420077
0.420076
0.420076
0.420075
0.420074
0.420073
0.420072
0.420071
0.42007
0.420069
0.420068
0.420066
0.420064
0.420061
0.420057
0.420048
0.420031
0.419995
0.419919
0.419754
0.4194
0.444243
0.444603
0.444773
0.444852
0.44489
0.444908
0.444917
0.444922
0.444925
0.444927
0.444928
0.44493
0.444931
0.444932
0.444933
0.444934
0.444934
0.444935
0.444936
0.444936
0.444937
0.444937
0.444938
0.444938
0.444939
0.444939
0.444939
0.444939
0.444939
0.444939
0.444939
0.444939
0.444939
0.444939
0.444939
0.444939
0.444938
0.444938
0.444937
0.444937
0.444936
0.444936
0.444935
0.444934
0.444934
0.444933
0.444932
0.444931
0.44493
0.444928
0.444927
0.444925
0.444922
0.444917
0.444908
0.44489
0.444852
0.444773
0.444603
0.444243
0.468379
0.468742
0.468917
0.469
0.469039
0.469058
0.469068
0.469073
0.469076
0.469078
0.46908
0.469081
0.469082
0.469083
0.469084
0.469085
0.469086
0.469086
0.469087
0.469088
0.469088
0.469089
0.469089
0.469089
0.46909
0.46909
0.46909
0.46909
0.46909
0.469091
0.469091
0.46909
0.46909
0.46909
0.46909
0.46909
0.469089
0.469089
0.469089
0.469088
0.469088
0.469087
0.469086
0.469086
0.469085
0.469084
0.469083
0.469082
0.469081
0.46908
0.469078
0.469076
0.469073
0.469068
0.469058
0.469039
0.469
0.468917
0.468742
0.468379
0.491801
0.492167
0.492346
0.492432
0.492473
0.492493
0.492504
0.492509
0.492512
0.492514
0.492516
0.492517
0.492518
0.492519
0.49252
0.492521
0.492521
0.492522
0.492523
0.492523
0.492524
0.492524
0.492525
0.492525
0.492525
0.492526
0.492526
0.492526
0.492526
0.492526
0.492526
0.492526
0.492526
0.492526
0.492526
0.492525
0.492525
0.492525
0.492524
0.492524
0.492523
0.492523
0.492522
0.492521
0.492521
0.49252
0.492519
0.492518
0.492517
0.492516
0.492514
0.492512
0.492509
0.492504
0.492493
0.492473
0.492432
0.492346
0.492167
0.491801
0.514506
0.514874
0.515057
0.515146
0.515189
0.51521
0.515221
0.515227
0.51523
0.515232
0.515234
0.515235
0.515236
0.515237
0.515238
0.515238
0.515239
0.51524
0.51524
0.515241
0.515241
0.515242
0.515242
0.515242
0.515243
0.515243
0.515243
0.515243
0.515243
0.515243
0.515243
0.515243
0.515243
0.515243
0.515243
0.515243
0.515242
0.515242
0.515242
0.515241
0.515241
0.51524
0.51524
0.515239
0.515238
0.515238
0.515237
0.515236
0.515235
0.515234
0.515232
0.51523
0.515227
0.515221
0.51521
0.515189
0.515146
0.515057
0.514874
0.514506
0.536494
0.536863
0.53705
0.537142
0.537187
0.537209
0.53722
0.537226
0.53723
0.537232
0.537233
0.537235
0.537236
0.537236
0.537237
0.537238
0.537239
0.537239
0.53724
0.53724
0.537241
0.537241
0.537241
0.537242
0.537242
0.537242
0.537242
0.537243
0.537243
0.537243
0.537243
0.537243
0.537243
0.537242
0.537242
0.537242
0.537242
0.537241
0.537241
0.537241
0.53724
0.53724
0.537239
0.537239
0.537238
0.537237
0.537236
0.537236
0.537235
0.537233
0.537232
0.53723
0.537226
0.53722
0.537209
0.537187
0.537142
0.53705
0.536863
0.536494
0.557769
0.558138
0.558328
0.558422
0.558469
0.558492
0.558504
0.558511
0.558514
0.558516
0.558518
0.558519
0.55852
0.558521
0.558522
0.558522
0.558523
0.558523
0.558524
0.558524
0.558525
0.558525
0.558526
0.558526
0.558526
0.558526
0.558527
0.558527
0.558527
0.558527
0.558527
0.558527
0.558527
0.558527
0.558526
0.558526
0.558526
0.558526
0.558525
0.558525
0.558524
0.558524
0.558523
0.558523
0.558522
0.558522
0.558521
0.55852
0.558519
0.558518
0.558516
0.558514
0.558511
0.558504
0.558492
0.558469
0.558422
0.558328
0.558138
0.557769
0.578334
0.578702
0.578895
0.578992
0.579041
0.579065
0.579078
0.579084
0.579088
0.57909
0.579092
0.579093
0.579094
0.579095
0.579096
0.579096
0.579097
0.579097
0.579098
0.579098
0.579099
0.579099
0.579099
0.5791
0.5791
0.5791
0.5791
0.5791
0.5791
0.5791
0.5791
0.5791
0.5791
0.5791
0.5791
0.5791
0.5791
0.579099
0.579099
0.579099
0.579098
0.579098
0.579097
0.579097
0.579096
0.579096
0.579095
0.579094
0.579093
0.579092
0.57909
0.579088
0.579084
0.579078
0.579065
0.579041
0.578992
0.578895
0.578702
0.578334
0.598198
0.598564
0.598759
0.598859
0.598909
0.598935
0.598948
0.598955
0.598958
0.598961
0.598962
0.598964
0.598964
0.598965
0.598966
0.598966
0.598967
0.598967
0.598968
0.598968
0.598969
0.598969
0.598969
0.59897
0.59897
0.59897
0.59897
0.59897
0.59897
0.59897
0.59897
0.59897
0.59897
0.59897
0.59897
0.59897
0.59897
0.598969
0.598969
0.598969
0.598968
0.598968
0.598967
0.598967
0.598966
0.598966
0.598965
0.598964
0.598964
0.598962
0.598961
0.598958
0.598955
0.598948
0.598935
0.598909
0.598859
0.598759
0.598564
0.598198
0.617366
0.61773
0.617927
0.618029
0.618081
0.618108
0.618122
0.618129
0.618133
0.618136
0.618137
0.618138
0.618139
0.61814
0.61814
0.618141
0.618142
0.618142
0.618142
0.618143
0.618143
0.618143
0.618144
0.618144
0.618144
0.618144
0.618144
0.618145
0.618145
0.618145
0.618145
0.618145
0.618145
0.618144
0.618144
0.618144
0.618144
0.618144
0.618143
0.618143
0.618143
0.618142
0.618142
0.618142
0.618141
0.61814
0.61814
0.618139
0.618138
0.618137
0.618136
0.618133
0.618129
0.618122
0.618108
0.618081
0.618029
0.617927
0.61773
0.617366
0.635851
0.636211
0.636409
0.636514
0.636568
0.636596
0.63661
0.636618
0.636622
0.636624
0.636626
0.636627
0.636628
0.636629
0.636629
0.63663
0.63663
0.636631
0.636631
0.636631
0.636632
0.636632
0.636632
0.636632
0.636633
0.636633
0.636633
0.636633
0.636633
0.636633
0.636633
0.636633
0.636633
0.636633
0.636633
0.636633
0.636632
0.636632
0.636632
0.636632
0.636631
0.636631
0.636631
0.63663
0.63663
0.636629
0.636629
0.636628
0.636627
0.636626
0.636624
0.636622
0.636618
0.63661
0.636596
0.636568
0.636514
0.636409
0.636211
0.635851
0.653661
0.654017
0.654217
0.654323
0.654379
0.654408
0.654423
0.654431
0.654435
0.654438
0.654439
0.654441
0.654441
0.654442
0.654443
0.654443
0.654443
0.654444
0.654444
0.654444
0.654445
0.654445
0.654445
0.654445
0.654446
0.654446
0.654446
0.654446
0.654446
0.654446
0.654446
0.654446
0.654446
0.654446
0.654446
0.654446
0.654445
0.654445
0.654445
0.654445
0.654444
0.654444
0.654444
0.654443
0.654443
0.654443
0.654442
0.654441
0.654441
0.654439
0.654438
0.654435
0.654431
0.654423
0.654408
0.654379
0.654323
0.654217
0.654017
0.653661
0.670808
0.67116
0.67136
0.671469
0.671526
0.671556
0.671572
0.67158
0.671585
0.671588
0.671589
0.67159
0.671591
0.671592
0.671592
0.671593
0.671593
0.671593
0.671594
0.671594
0.671594
0.671595
0.671595
0.671595
0.671595
0.671595
0.671595
0.671595
0.671595
0.671595
0.671595
0.671595
0.671595
0.671595
0.671595
0.671595
0.671595
0.671595
0.671595
0.671594
0.671594
0.671594
0.671593
0.671593
0.671593
0.671592
0.671592
0.671591
0.67159
0.671589
0.671588
0.671585
0.67158
0.671572
0.671556
0.671526
0.671469
0.67136
0.67116
0.670808
0.687306
0.687653
0.687853
0.687963
0.688022
0.688053
0.68807
0.688079
0.688083
0.688086
0.688088
0.688089
0.68809
0.68809
0.688091
0.688091
0.688092
0.688092
0.688092
0.688092
0.688093
0.688093
0.688093
0.688093
0.688093
0.688094
0.688094
0.688094
0.688094
0.688094
0.688094
0.688094
0.688094
0.688094
0.688094
0.688093
0.688093
0.688093
0.688093
0.688093
0.688092
0.688092
0.688092
0.688092
0.688091
0.688091
0.68809
0.68809
0.688089
0.688088
0.688086
0.688083
0.688079
0.68807
0.688053
0.688022
0.687963
0.687853
0.687653
0.687306
0.703167
0.703509
0.703709
0.70382
0.70388
0.703912
0.70393
0.703939
0.703944
0.703947
0.703949
0.70395
0.703951
0.703951
0.703952
0.703952
0.703952
0.703953
0.703953
0.703953
0.703953
0.703953
0.703954
0.703954
0.703954
0.703954
0.703954
0.703954
0.703954
0.703954
0.703954
0.703954
0.703954
0.703954
0.703954
0.703954
0.703954
0.703954
0.703953
0.703953
0.703953
0.703953
0.703953
0.703952
0.703952
0.703952
0.703951
0.703951
0.70395
0.703949
0.703947
0.703944
0.703939
0.70393
0.703912
0.70388
0.70382
0.703709
0.703509
0.703167
0.718405
0.718741
0.71894
0.719053
0.719114
0.719148
0.719166
0.719176
0.719181
0.719184
0.719186
0.719187
0.719187
0.719188
0.719188
0.719189
0.719189
0.719189
0.71919
0.71919
0.71919
0.71919
0.71919
0.71919
0.719191
0.719191
0.719191
0.719191
0.719191
0.719191
0.719191
0.719191
0.719191
0.719191
0.719191
0.719191
0.71919
0.71919
0.71919
0.71919
0.71919
0.71919
0.719189
0.719189
0.719189
0.719188
0.719188
0.719187
0.719187
0.719186
0.719184
0.719181
0.719176
0.719166
0.719148
0.719114
0.719053
0.71894
0.718741
0.718405
0.733035
0.733364
0.733563
0.733676
0.733739
0.733774
0.733792
0.733803
0.733808
0.733811
0.733813
0.733814
0.733815
0.733815
0.733816
0.733816
0.733816
0.733817
0.733817
0.733817
0.733817
0.733817
0.733817
0.733818
0.733818
0.733818
0.733818
0.733818
0.733818
0.733818
0.733818
0.733818
0.733818
0.733818
0.733818
0.733818
0.733818
0.733817
0.733817
0.733817
0.733817
0.733817
0.733817
0.733816
0.733816
0.733816
0.733815
0.733815
0.733814
0.733813
0.733811
0.733808
0.733803
0.733792
0.733774
0.733739
0.733676
0.733563
0.733364
0.733035
0.747071
0.747394
0.747591
0.747705
0.747769
0.747805
0.747824
0.747835
0.747841
0.747844
0.747846
0.747847
0.747848
0.747848
0.747849
0.747849
0.747849
0.747849
0.747849
0.74785
0.74785
0.74785
0.74785
0.74785
0.74785
0.74785
0.74785
0.74785
0.74785
0.74785
0.74785
0.74785
0.74785
0.74785
0.74785
0.74785
0.74785
0.74785
0.74785
0.74785
0.74785
0.747849
0.747849
0.747849
0.747849
0.747849
0.747848
0.747848
0.747847
0.747846
0.747844
0.747841
0.747835
0.747824
0.747805
0.747769
0.747705
0.747591
0.747394
0.747071
0.760529
0.760844
0.76104
0.761155
0.76122
0.761257
0.761277
0.761288
0.761294
0.761298
0.7613
0.761301
0.761301
0.761302
0.761302
0.761302
0.761303
0.761303
0.761303
0.761303
0.761303
0.761303
0.761303
0.761303
0.761304
0.761304
0.761304
0.761304
0.761304
0.761304
0.761304
0.761304
0.761304
0.761304
0.761304
0.761304
0.761303
0.761303
0.761303
0.761303
0.761303
0.761303
0.761303
0.761303
0.761302
0.761302
0.761302
0.761301
0.761301
0.7613
0.761298
0.761294
0.761288
0.761277
0.761257
0.76122
0.761155
0.76104
0.760844
0.760529
0.773424
0.773732
0.773926
0.774041
0.774108
0.774145
0.774166
0.774177
0.774184
0.774188
0.77419
0.774191
0.774191
0.774192
0.774192
0.774192
0.774192
0.774193
0.774193
0.774193
0.774193
0.774193
0.774193
0.774193
0.774193
0.774193
0.774193
0.774193
0.774193
0.774193
0.774193
0.774193
0.774193
0.774193
0.774193
0.774193
0.774193
0.774193
0.774193
0.774193
0.774193
0.774193
0.774193
0.774192
0.774192
0.774192
0.774192
0.774191
0.774191
0.77419
0.774188
0.774184
0.774177
0.774166
0.774145
0.774108
0.774041
0.773926
0.773732
0.773424
0.785773
0.786073
0.786264
0.78638
0.786447
0.786485
0.786507
0.786519
0.786526
0.786529
0.786532
0.786533
0.786533
0.786534
0.786534
0.786534
0.786534
0.786534
0.786535
0.786535
0.786535
0.786535
0.786535
0.786535
0.786535
0.786535
0.786535
0.786535
0.786535
0.786535