/*--------------------------------*- C++ -*----------------------------------*\
| =========                 |                                                 |
| \\      /  F ield         | foam-extend: Open Source CFD                    |
|  \\    /   O peration     | Version:     4.0                                |
|   \\  /    A nd           | Web:         http://www.foam-extend.org         |
|    \\/     M anipulation  |                                                 |
\*---------------------------------------------------------------------------*/
FoamFile
{
    version     2.0;
    format      ascii;
    class       volScalarField;
    location    "1660";
    object      cMinus;
}
// * * * * * * * * * * * * * * * * * * * * * * * * * * * * * * * * * * * * * //

dimensions      [0 0 0 0 0 0 0];

internalField   nonuniform List<scalar> 
6960
(
1.01336e-22
1.01346e-22
1.01275e-22
1.01201e-22
1.01136e-22
1.01082e-22
1.01037e-22
1.01e-22
1.00971e-22
1.00947e-22
1.00927e-22
1.00911e-22
1.00899e-22
1.00888e-22
1.0088e-22
1.00873e-22
1.00867e-22
1.00862e-22
1.00859e-22
1.00855e-22
1.00853e-22
1.00851e-22
1.00849e-22
1.00847e-22
1.00846e-22
1.00845e-22
1.00845e-22
1.00844e-22
1.00844e-22
1.00844e-22
1.00844e-22
1.00844e-22
1.00844e-22
1.00845e-22
1.00845e-22
1.00846e-22
1.00847e-22
1.00849e-22
1.00851e-22
1.00853e-22
1.00855e-22
1.00859e-22
1.00862e-22
1.00867e-22
1.00873e-22
1.0088e-22
1.00888e-22
1.00899e-22
1.00911e-22
1.00927e-22
1.00947e-22
1.00971e-22
1.01e-22
1.01037e-22
1.01082e-22
1.01136e-22
1.01201e-22
1.01275e-22
1.01346e-22
1.01336e-22
3.87521e-22
3.87623e-22
3.87414e-22
3.87187e-22
3.86984e-22
3.86812e-22
3.86669e-22
3.86551e-22
3.86454e-22
3.86374e-22
3.86309e-22
3.86256e-22
3.86213e-22
3.86177e-22
3.86147e-22
3.86123e-22
3.86103e-22
3.86086e-22
3.86073e-22
3.86061e-22
3.86052e-22
3.86044e-22
3.86038e-22
3.86033e-22
3.86029e-22
3.86025e-22
3.86023e-22
3.86021e-22
3.8602e-22
3.86019e-22
3.86019e-22
3.8602e-22
3.86021e-22
3.86023e-22
3.86025e-22
3.86029e-22
3.86033e-22
3.86038e-22
3.86044e-22
3.86052e-22
3.86061e-22
3.86073e-22
3.86086e-22
3.86103e-22
3.86123e-22
3.86147e-22
3.86177e-22
3.86213e-22
3.86256e-22
3.86309e-22
3.86374e-22
3.86454e-22
3.86551e-22
3.86669e-22
3.86812e-22
3.86984e-22
3.87187e-22
3.87414e-22
3.87623e-22
3.87521e-22
1.37076e-21
1.37138e-21
1.3709e-21
1.37033e-21
1.3698e-21
1.36934e-21
1.36895e-21
1.36862e-21
1.36835e-21
1.36812e-21
1.36793e-21
1.36777e-21
1.36764e-21
1.36753e-21
1.36743e-21
1.36736e-21
1.36729e-21
1.36724e-21
1.3672e-21
1.36716e-21
1.36713e-21
1.3671e-21
1.36708e-21
1.36707e-21
1.36705e-21
1.36704e-21
1.36703e-21
1.36703e-21
1.36702e-21
1.36702e-21
1.36702e-21
1.36702e-21
1.36703e-21
1.36703e-21
1.36704e-21
1.36705e-21
1.36707e-21
1.36708e-21
1.3671e-21
1.36713e-21
1.36716e-21
1.3672e-21
1.36724e-21
1.36729e-21
1.36736e-21
1.36743e-21
1.36753e-21
1.36764e-21
1.36777e-21
1.36793e-21
1.36812e-21
1.36835e-21
1.36862e-21
1.36895e-21
1.36934e-21
1.3698e-21
1.37033e-21
1.3709e-21
1.37138e-21
1.37076e-21
4.84795e-21
4.85112e-21
4.85048e-21
4.84936e-21
4.84822e-21
4.84717e-21
4.84623e-21
4.84541e-21
4.8447e-21
4.84409e-21
4.84356e-21
4.84311e-21
4.84273e-21
4.8424e-21
4.84213e-21
4.84189e-21
4.8417e-21
4.84153e-21
4.84139e-21
4.84127e-21
4.84118e-21
4.84109e-21
4.84103e-21
4.84097e-21
4.84093e-21
4.84089e-21
4.84086e-21
4.84084e-21
4.84083e-21
4.84083e-21
4.84083e-21
4.84083e-21
4.84084e-21
4.84086e-21
4.84089e-21
4.84093e-21
4.84097e-21
4.84103e-21
4.84109e-21
4.84118e-21
4.84127e-21
4.84139e-21
4.84153e-21
4.8417e-21
4.84189e-21
4.84213e-21
4.8424e-21
4.84273e-21
4.84311e-21
4.84356e-21
4.84409e-21
4.8447e-21
4.84541e-21
4.84623e-21
4.84717e-21
4.84822e-21
4.84936e-21
4.85048e-21
4.85112e-21
4.84795e-21
1.75234e-20
1.75386e-20
1.75402e-20
1.75396e-20
1.75382e-20
1.75366e-20
1.7535e-20
1.75333e-20
1.75317e-20
1.75303e-20
1.75289e-20
1.75277e-20
1.75267e-20
1.75258e-20
1.75249e-20
1.75242e-20
1.75236e-20
1.75231e-20
1.75227e-20
1.75223e-20
1.7522e-20
1.75217e-20
1.75215e-20
1.75213e-20
1.75212e-20
1.75211e-20
1.7521e-20
1.75209e-20
1.75209e-20
1.75208e-20
1.75208e-20
1.75209e-20
1.75209e-20
1.7521e-20
1.75211e-20
1.75212e-20
1.75213e-20
1.75215e-20
1.75217e-20
1.7522e-20
1.75223e-20
1.75227e-20
1.75231e-20
1.75236e-20
1.75242e-20
1.75249e-20
1.75258e-20
1.75267e-20
1.75277e-20
1.75289e-20
1.75303e-20
1.75317e-20
1.75333e-20
1.7535e-20
1.75366e-20
1.75382e-20
1.75396e-20
1.75402e-20
1.75386e-20
1.75234e-20
6.51611e-20
6.52317e-20
6.52528e-20
6.52634e-20
6.52691e-20
6.52716e-20
6.5272e-20
6.52709e-20
6.52688e-20
6.52663e-20
6.52636e-20
6.52608e-20
6.52581e-20
6.52556e-20
6.52533e-20
6.52512e-20
6.52494e-20
6.52478e-20
6.52464e-20
6.52452e-20
6.52442e-20
6.52433e-20
6.52426e-20
6.5242e-20
6.52415e-20
6.52411e-20
6.52408e-20
6.52406e-20
6.52404e-20
6.52404e-20
6.52404e-20
6.52404e-20
6.52406e-20
6.52408e-20
6.52411e-20
6.52415e-20
6.5242e-20
6.52426e-20
6.52433e-20
6.52442e-20
6.52452e-20
6.52464e-20
6.52478e-20
6.52494e-20
6.52512e-20
6.52533e-20
6.52556e-20
6.52581e-20
6.52608e-20
6.52636e-20
6.52663e-20
6.52688e-20
6.52709e-20
6.5272e-20
6.52716e-20
6.52691e-20
6.52634e-20
6.52528e-20
6.52317e-20
6.51611e-20
2.49753e-19
2.5008e-19
2.50219e-19
2.50312e-19
2.50376e-19
2.50418e-19
2.50446e-19
2.50461e-19
2.50469e-19
2.50471e-19
2.50469e-19
2.50465e-19
2.50459e-19
2.50453e-19
2.50447e-19
2.50442e-19
2.50436e-19
2.50432e-19
2.50427e-19
2.50423e-19
2.5042e-19
2.50417e-19
2.50415e-19
2.50413e-19
2.50411e-19
2.5041e-19
2.50409e-19
2.50408e-19
2.50407e-19
2.50407e-19
2.50407e-19
2.50407e-19
2.50408e-19
2.50409e-19
2.5041e-19
2.50411e-19
2.50413e-19
2.50415e-19
2.50417e-19
2.5042e-19
2.50423e-19
2.50427e-19
2.50432e-19
2.50436e-19
2.50442e-19
2.50447e-19
2.50453e-19
2.50459e-19
2.50465e-19
2.50469e-19
2.50471e-19
2.50469e-19
2.50461e-19
2.50446e-19
2.50418e-19
2.50376e-19
2.50312e-19
2.50219e-19
2.5008e-19
2.49753e-19
9.87213e-19
9.88725e-19
9.89516e-19
9.9009e-19
9.90512e-19
9.90816e-19
9.91028e-19
9.91171e-19
9.91262e-19
9.91316e-19
9.91343e-19
9.91354e-19
9.91353e-19
9.91345e-19
9.91333e-19
9.91319e-19
9.91305e-19
9.91291e-19
9.91278e-19
9.91266e-19
9.91255e-19
9.91245e-19
9.91237e-19
9.9123e-19
9.91225e-19
9.9122e-19
9.91216e-19
9.91214e-19
9.91212e-19
9.91211e-19
9.91211e-19
9.91212e-19
9.91214e-19
9.91216e-19
9.9122e-19
9.91225e-19
9.9123e-19
9.91237e-19
9.91245e-19
9.91255e-19
9.91266e-19
9.91278e-19
9.91291e-19
9.91305e-19
9.91319e-19
9.91333e-19
9.91345e-19
9.91353e-19
9.91354e-19
9.91343e-19
9.91316e-19
9.91262e-19
9.91171e-19
9.91028e-19
9.90816e-19
9.90512e-19
9.9009e-19
9.89516e-19
9.88725e-19
9.87213e-19
4.02422e-18
4.0313e-18
4.03551e-18
4.03872e-18
4.04114e-18
4.04294e-18
4.04425e-18
4.04516e-18
4.04579e-18
4.0462e-18
4.04646e-18
4.04662e-18
4.0467e-18
4.04673e-18
4.04673e-18
4.04671e-18
4.04668e-18
4.04664e-18
4.0466e-18
4.04657e-18
4.04653e-18
4.0465e-18
4.04648e-18
4.04645e-18
4.04643e-18
4.04642e-18
4.04641e-18
4.0464e-18
4.04639e-18
4.04639e-18
4.04639e-18
4.04639e-18
4.0464e-18
4.04641e-18
4.04642e-18
4.04643e-18
4.04645e-18
4.04648e-18
4.0465e-18
4.04653e-18
4.04657e-18
4.0466e-18
4.04664e-18
4.04668e-18
4.04671e-18
4.04673e-18
4.04673e-18
4.0467e-18
4.04662e-18
4.04646e-18
4.0462e-18
4.04579e-18
4.04516e-18
4.04425e-18
4.04294e-18
4.04114e-18
4.03872e-18
4.03551e-18
4.0313e-18
4.02422e-18
1.69119e-17
1.69455e-17
1.69675e-17
1.69846e-17
1.69978e-17
1.70078e-17
1.70152e-17
1.70204e-17
1.70242e-17
1.70267e-17
1.70285e-17
1.70296e-17
1.70303e-17
1.70307e-17
1.70309e-17
1.7031e-17
1.7031e-17
1.70309e-17
1.70308e-17
1.70307e-17
1.70306e-17
1.70305e-17
1.70304e-17
1.70304e-17
1.70303e-17
1.70303e-17
1.70302e-17
1.70302e-17
1.70302e-17
1.70301e-17
1.70301e-17
1.70302e-17
1.70302e-17
1.70302e-17
1.70303e-17
1.70303e-17
1.70304e-17
1.70304e-17
1.70305e-17
1.70306e-17
1.70307e-17
1.70308e-17
1.70309e-17
1.7031e-17
1.7031e-17
1.70309e-17
1.70307e-17
1.70303e-17
1.70296e-17
1.70285e-17
1.70267e-17
1.70242e-17
1.70204e-17
1.70152e-17
1.70078e-17
1.69978e-17
1.69846e-17
1.69675e-17
1.69455e-17
1.69119e-17
7.32325e-17
7.33953e-17
7.35089e-17
7.35993e-17
7.36698e-17
7.37235e-17
7.37635e-17
7.37927e-17
7.38137e-17
7.38285e-17
7.38387e-17
7.38457e-17
7.38503e-17
7.38532e-17
7.3855e-17
7.3856e-17
7.38566e-17
7.38567e-17
7.38567e-17
7.38565e-17
7.38563e-17
7.3856e-17
7.38558e-17
7.38555e-17
7.38553e-17
7.38551e-17
7.3855e-17
7.38549e-17
7.38548e-17
7.38548e-17
7.38548e-17
7.38548e-17
7.38549e-17
7.3855e-17
7.38551e-17
7.38553e-17
7.38555e-17
7.38558e-17
7.3856e-17
7.38563e-17
7.38565e-17
7.38567e-17
7.38567e-17
7.38566e-17
7.3856e-17
7.3855e-17
7.38532e-17
7.38503e-17
7.38457e-17
7.38387e-17
7.38285e-17
7.38137e-17
7.37927e-17
7.37635e-17
7.37235e-17
7.36698e-17
7.35993e-17
7.35089e-17
7.33953e-17
7.32325e-17
3.26484e-16
3.27286e-16
3.27876e-16
3.28352e-16
3.28726e-16
3.29013e-16
3.29228e-16
3.29387e-16
3.29502e-16
3.29585e-16
3.29643e-16
3.29684e-16
3.29711e-16
3.2973e-16
3.29742e-16
3.2975e-16
3.29754e-16
3.29757e-16
3.29758e-16
3.29759e-16
3.29759e-16
3.29758e-16
3.29757e-16
3.29757e-16
3.29756e-16
3.29756e-16
3.29755e-16
3.29755e-16
3.29755e-16
3.29754e-16
3.29754e-16
3.29755e-16
3.29755e-16
3.29755e-16
3.29756e-16
3.29756e-16
3.29757e-16
3.29757e-16
3.29758e-16
3.29759e-16
3.29759e-16
3.29758e-16
3.29757e-16
3.29754e-16
3.2975e-16
3.29742e-16
3.2973e-16
3.29711e-16
3.29684e-16
3.29643e-16
3.29585e-16
3.29502e-16
3.29387e-16
3.29228e-16
3.29013e-16
3.28726e-16
3.28352e-16
3.27876e-16
3.27286e-16
3.26484e-16
1.49684e-15
1.50087e-15
1.50396e-15
1.50648e-15
1.50847e-15
1.51e-15
1.51116e-15
1.51202e-15
1.51265e-15
1.5131e-15
1.51343e-15
1.51366e-15
1.51382e-15
1.51393e-15
1.514e-15
1.51405e-15
1.51409e-15
1.51411e-15
1.51412e-15
1.51413e-15
1.51413e-15
1.51413e-15
1.51413e-15
1.51413e-15
1.51413e-15
1.51413e-15
1.51412e-15
1.51412e-15
1.51412e-15
1.51412e-15
1.51412e-15
1.51412e-15
1.51412e-15
1.51412e-15
1.51413e-15
1.51413e-15
1.51413e-15
1.51413e-15
1.51413e-15
1.51413e-15
1.51413e-15
1.51412e-15
1.51411e-15
1.51409e-15
1.51405e-15
1.514e-15
1.51393e-15
1.51382e-15
1.51366e-15
1.51343e-15
1.5131e-15
1.51265e-15
1.51202e-15
1.51116e-15
1.51e-15
1.50847e-15
1.50648e-15
1.50396e-15
1.50087e-15
1.49684e-15
7.04687e-15
7.06748e-15
7.08383e-15
7.09727e-15
7.10794e-15
7.11619e-15
7.12244e-15
7.12711e-15
7.13055e-15
7.13305e-15
7.13486e-15
7.13614e-15
7.13705e-15
7.13769e-15
7.13813e-15
7.13844e-15
7.13865e-15
7.13879e-15
7.13888e-15
7.13894e-15
7.13897e-15
7.13899e-15
7.139e-15
7.13901e-15
7.13901e-15
7.13901e-15
7.139e-15
7.139e-15
7.139e-15
7.139e-15
7.139e-15
7.139e-15
7.139e-15
7.139e-15
7.13901e-15
7.13901e-15
7.13901e-15
7.139e-15
7.13899e-15
7.13897e-15
7.13894e-15
7.13888e-15
7.13879e-15
7.13865e-15
7.13844e-15
7.13813e-15
7.13769e-15
7.13705e-15
7.13614e-15
7.13486e-15
7.13305e-15
7.13055e-15
7.12711e-15
7.12244e-15
7.11619e-15
7.10794e-15
7.09727e-15
7.08383e-15
7.06748e-15
7.04687e-15
3.40008e-14
3.41081e-14
3.41957e-14
3.42681e-14
3.43258e-14
3.43706e-14
3.44046e-14
3.44301e-14
3.4449e-14
3.44628e-14
3.44728e-14
3.448e-14
3.44852e-14
3.44888e-14
3.44914e-14
3.44932e-14
3.44945e-14
3.44953e-14
3.44959e-14
3.44963e-14
3.44966e-14
3.44968e-14
3.44969e-14
3.4497e-14
3.4497e-14
3.4497e-14
3.4497e-14
3.4497e-14
3.4497e-14
3.4497e-14
3.4497e-14
3.4497e-14
3.4497e-14
3.4497e-14
3.4497e-14
3.4497e-14
3.4497e-14
3.44969e-14
3.44968e-14
3.44966e-14
3.44963e-14
3.44959e-14
3.44953e-14
3.44945e-14
3.44932e-14
3.44914e-14
3.44888e-14
3.44852e-14
3.448e-14
3.44728e-14
3.44628e-14
3.4449e-14
3.44301e-14
3.44046e-14
3.43706e-14
3.43258e-14
3.42681e-14
3.41957e-14
3.41081e-14
3.40008e-14
1.67729e-13
1.68297e-13
1.68771e-13
1.69165e-13
1.6948e-13
1.69725e-13
1.69911e-13
1.70052e-13
1.70156e-13
1.70233e-13
1.70288e-13
1.70329e-13
1.70358e-13
1.70379e-13
1.70394e-13
1.70404e-13
1.70412e-13
1.70417e-13
1.70421e-13
1.70423e-13
1.70425e-13
1.70426e-13
1.70427e-13
1.70427e-13
1.70428e-13
1.70428e-13
1.70428e-13
1.70428e-13
1.70428e-13
1.70428e-13
1.70428e-13
1.70428e-13
1.70428e-13
1.70428e-13
1.70428e-13
1.70428e-13
1.70427e-13
1.70427e-13
1.70426e-13
1.70425e-13
1.70423e-13
1.70421e-13
1.70417e-13
1.70412e-13
1.70404e-13
1.70394e-13
1.70379e-13
1.70358e-13
1.70329e-13
1.70288e-13
1.70233e-13
1.70156e-13
1.70052e-13
1.69911e-13
1.69725e-13
1.6948e-13
1.69165e-13
1.68771e-13
1.68297e-13
1.67729e-13
8.43452e-13
8.46495e-13
8.49086e-13
8.51249e-13
8.52981e-13
8.5433e-13
8.55362e-13
8.56139e-13
8.56718e-13
8.57145e-13
8.57457e-13
8.57684e-13
8.57848e-13
8.57967e-13
8.58052e-13
8.58114e-13
8.58158e-13
8.58189e-13
8.58211e-13
8.58227e-13
8.58238e-13
8.58246e-13
8.58252e-13
8.58256e-13
8.58258e-13
8.5826e-13
8.58261e-13
8.58262e-13
8.58263e-13
8.58263e-13
8.58263e-13
8.58263e-13
8.58262e-13
8.58261e-13
8.5826e-13
8.58258e-13
8.58256e-13
8.58252e-13
8.58246e-13
8.58238e-13
8.58227e-13
8.58211e-13
8.58189e-13
8.58158e-13
8.58114e-13
8.58052e-13
8.57967e-13
8.57848e-13
8.57684e-13
8.57457e-13
8.57145e-13
8.56718e-13
8.56139e-13
8.55362e-13
8.5433e-13
8.52981e-13
8.51249e-13
8.49086e-13
8.46495e-13
8.43452e-13
4.30801e-12
4.32449e-12
4.33874e-12
4.35068e-12
4.36025e-12
4.36772e-12
4.37345e-12
4.37777e-12
4.381e-12
4.38338e-12
4.38513e-12
4.38641e-12
4.38734e-12
4.38801e-12
4.3885e-12
4.38886e-12
4.38911e-12
4.3893e-12
4.38943e-12
4.38952e-12
4.38959e-12
4.38964e-12
4.38968e-12
4.3897e-12
4.38972e-12
4.38973e-12
4.38974e-12
4.38975e-12
4.38975e-12
4.38975e-12
4.38975e-12
4.38975e-12
4.38975e-12
4.38974e-12
4.38973e-12
4.38972e-12
4.3897e-12
4.38968e-12
4.38964e-12
4.38959e-12
4.38952e-12
4.38943e-12
4.3893e-12
4.38911e-12
4.38886e-12
4.3885e-12
4.38801e-12
4.38734e-12
4.38641e-12
4.38513e-12
4.38338e-12
4.381e-12
4.37777e-12
4.37345e-12
4.36772e-12
4.36025e-12
4.35068e-12
4.33874e-12
4.32449e-12
4.30801e-12
2.22524e-11
2.23421e-11
2.24207e-11
2.24867e-11
2.25397e-11
2.25812e-11
2.2613e-11
2.2637e-11
2.2655e-11
2.26683e-11
2.26782e-11
2.26853e-11
2.26906e-11
2.26944e-11
2.26972e-11
2.26992e-11
2.27007e-11
2.27018e-11
2.27025e-11
2.27031e-11
2.27035e-11
2.27038e-11
2.2704e-11
2.27042e-11
2.27043e-11
2.27044e-11
2.27045e-11
2.27045e-11
2.27045e-11
2.27045e-11
2.27045e-11
2.27045e-11
2.27045e-11
2.27045e-11
2.27044e-11
2.27043e-11
2.27042e-11
2.2704e-11
2.27038e-11
2.27035e-11
2.27031e-11
2.27025e-11
2.27018e-11
2.27007e-11
2.26992e-11
2.26972e-11
2.26944e-11
2.26906e-11
2.26853e-11
2.26782e-11
2.26683e-11
2.2655e-11
2.2637e-11
2.2613e-11
2.25812e-11
2.25397e-11
2.24867e-11
2.24207e-11
2.23421e-11
2.22524e-11
1.15647e-10
1.16135e-10
1.16568e-10
1.16932e-10
1.17225e-10
1.17454e-10
1.1763e-10
1.17764e-10
1.17864e-10
1.17938e-10
1.17992e-10
1.18033e-10
1.18062e-10
1.18084e-10
1.18099e-10
1.18111e-10
1.18119e-10
1.18125e-10
1.1813e-10
1.18133e-10
1.18136e-10
1.18137e-10
1.18139e-10
1.1814e-10
1.1814e-10
1.18141e-10
1.18141e-10
1.18142e-10
1.18142e-10
1.18142e-10
1.18142e-10
1.18142e-10
1.18142e-10
1.18141e-10
1.18141e-10
1.1814e-10
1.1814e-10
1.18139e-10
1.18137e-10
1.18136e-10
1.18133e-10
1.1813e-10
1.18125e-10
1.18119e-10
1.18111e-10
1.18099e-10
1.18084e-10
1.18062e-10
1.18033e-10
1.17992e-10
1.17938e-10
1.17864e-10
1.17764e-10
1.1763e-10
1.17454e-10
1.17225e-10
1.16932e-10
1.16568e-10
1.16135e-10
1.15647e-10
6.0111e-10
6.03751e-10
6.06114e-10
6.08106e-10
6.09708e-10
6.10964e-10
6.1193e-10
6.12662e-10
6.13211e-10
6.1362e-10
6.13922e-10
6.14144e-10
6.14307e-10
6.14427e-10
6.14515e-10
6.14579e-10
6.14627e-10
6.14662e-10
6.14687e-10
6.14706e-10
6.1472e-10
6.14731e-10
6.14738e-10
6.14744e-10
6.14748e-10
6.14751e-10
6.14754e-10
6.14755e-10
6.14756e-10
6.14756e-10
6.14756e-10
6.14756e-10
6.14755e-10
6.14754e-10
6.14751e-10
6.14748e-10
6.14744e-10
6.14738e-10
6.14731e-10
6.1472e-10
6.14706e-10
6.14687e-10
6.14662e-10
6.14627e-10
6.14579e-10
6.14515e-10
6.14427e-10
6.14307e-10
6.14144e-10
6.13922e-10
6.1362e-10
6.13211e-10
6.12662e-10
6.1193e-10
6.10964e-10
6.09708e-10
6.08106e-10
6.06114e-10
6.03751e-10
6.0111e-10
3.10334e-09
3.11745e-09
3.13016e-09
3.14088e-09
3.14952e-09
3.15629e-09
3.1615e-09
3.16546e-09
3.16843e-09
3.17064e-09
3.17228e-09
3.17349e-09
3.17438e-09
3.17504e-09
3.17552e-09
3.17587e-09
3.17613e-09
3.17633e-09
3.17647e-09
3.17658e-09
3.17665e-09
3.17671e-09
3.17676e-09
3.17679e-09
3.17681e-09
3.17683e-09
3.17684e-09
3.17685e-09
3.17686e-09
3.17686e-09
3.17686e-09
3.17686e-09
3.17685e-09
3.17684e-09
3.17683e-09
3.17681e-09
3.17679e-09
3.17676e-09
3.17671e-09
3.17665e-09
3.17658e-09
3.17647e-09
3.17633e-09
3.17613e-09
3.17587e-09
3.17552e-09
3.17504e-09
3.17438e-09
3.17349e-09
3.17228e-09
3.17064e-09
3.16843e-09
3.16546e-09
3.1615e-09
3.15629e-09
3.14952e-09
3.14088e-09
3.13016e-09
3.11745e-09
3.10334e-09
1.57884e-08
1.58622e-08
1.5929e-08
1.59854e-08
1.60308e-08
1.60665e-08
1.60939e-08
1.61148e-08
1.61305e-08
1.61422e-08
1.61509e-08
1.61573e-08
1.6162e-08
1.61655e-08
1.6168e-08
1.61699e-08
1.61713e-08
1.61724e-08
1.61732e-08
1.61737e-08
1.61742e-08
1.61745e-08
1.61747e-08
1.61749e-08
1.6175e-08
1.61751e-08
1.61752e-08
1.61753e-08
1.61753e-08
1.61753e-08
1.61753e-08
1.61753e-08
1.61753e-08
1.61752e-08
1.61751e-08
1.6175e-08
1.61749e-08
1.61747e-08
1.61745e-08
1.61742e-08
1.61737e-08
1.61732e-08
1.61724e-08
1.61713e-08
1.61699e-08
1.6168e-08
1.61655e-08
1.6162e-08
1.61573e-08
1.61509e-08
1.61422e-08
1.61305e-08
1.61148e-08
1.60939e-08
1.60665e-08
1.60308e-08
1.59854e-08
1.5929e-08
1.58622e-08
1.57884e-08
7.84544e-08
7.88283e-08
7.91682e-08
7.94551e-08
7.96864e-08
7.9868e-08
8.00079e-08
8.01144e-08
8.01944e-08
8.02542e-08
8.02986e-08
8.03315e-08
8.03557e-08
8.03737e-08
8.03869e-08
8.03967e-08
8.0404e-08
8.04094e-08
8.04134e-08
8.04164e-08
8.04187e-08
8.04204e-08
8.04217e-08
8.04226e-08
8.04233e-08
8.04239e-08
8.04243e-08
8.04245e-08
8.04247e-08
8.04248e-08
8.04248e-08
8.04247e-08
8.04245e-08
8.04243e-08
8.04239e-08
8.04233e-08
8.04226e-08
8.04217e-08
8.04204e-08
8.04187e-08
8.04164e-08
8.04134e-08
8.04094e-08
8.0404e-08
8.03967e-08
8.03869e-08
8.03737e-08
8.03557e-08
8.03315e-08
8.02986e-08
8.02542e-08
8.01944e-08
8.01144e-08
8.00079e-08
7.9868e-08
7.96864e-08
7.94551e-08
7.91682e-08
7.88283e-08
7.84544e-08
3.7701e-07
3.78829e-07
3.80485e-07
3.81883e-07
3.8301e-07
3.83895e-07
3.84577e-07
3.85097e-07
3.85488e-07
3.8578e-07
3.85997e-07
3.86158e-07
3.86277e-07
3.86366e-07
3.86431e-07
3.86479e-07
3.86515e-07
3.86542e-07
3.86562e-07
3.86577e-07
3.86588e-07
3.86597e-07
3.86603e-07
3.86608e-07
3.86612e-07
3.86615e-07
3.86617e-07
3.86618e-07
3.86619e-07
3.86619e-07
3.86619e-07
3.86619e-07
3.86618e-07
3.86617e-07
3.86615e-07
3.86612e-07
3.86608e-07
3.86603e-07
3.86597e-07
3.86588e-07
3.86577e-07
3.86562e-07
3.86542e-07
3.86515e-07
3.86479e-07
3.86431e-07
3.86366e-07
3.86277e-07
3.86158e-07
3.85997e-07
3.8578e-07
3.85488e-07
3.85097e-07
3.84577e-07
3.83895e-07
3.8301e-07
3.81883e-07
3.80485e-07
3.78829e-07
3.7701e-07
1.73291e-06
1.74129e-06
1.74892e-06
1.75537e-06
1.76056e-06
1.76464e-06
1.76779e-06
1.77019e-06
1.77199e-06
1.77334e-06
1.77435e-06
1.7751e-06
1.77565e-06
1.77606e-06
1.77636e-06
1.77659e-06
1.77675e-06
1.77688e-06
1.77697e-06
1.77704e-06
1.7771e-06
1.77714e-06
1.77717e-06
1.77719e-06
1.77721e-06
1.77722e-06
1.77723e-06
1.77724e-06
1.77724e-06
1.77724e-06
1.77724e-06
1.77724e-06
1.77724e-06
1.77723e-06
1.77722e-06
1.77721e-06
1.77719e-06
1.77717e-06
1.77714e-06
1.7771e-06
1.77704e-06
1.77697e-06
1.77688e-06
1.77675e-06
1.77659e-06
1.77636e-06
1.77606e-06
1.77565e-06
1.7751e-06
1.77435e-06
1.77334e-06
1.77199e-06
1.77019e-06
1.76779e-06
1.76464e-06
1.76056e-06
1.75537e-06
1.74892e-06
1.74129e-06
1.73291e-06
7.5273e-06
7.56343e-06
7.59631e-06
7.62403e-06
7.64638e-06
7.66394e-06
7.6775e-06
7.68782e-06
7.69561e-06
7.70143e-06
7.70577e-06
7.709e-06
7.71139e-06
7.71316e-06
7.71448e-06
7.71546e-06
7.71619e-06
7.71673e-06
7.71715e-06
7.71746e-06
7.71769e-06
7.71787e-06
7.718e-06
7.7181e-06
7.71818e-06
7.71824e-06
7.71828e-06
7.71831e-06
7.71833e-06
7.71834e-06
7.71834e-06
7.71833e-06
7.71831e-06
7.71828e-06
7.71824e-06
7.71818e-06
7.7181e-06
7.718e-06
7.71787e-06
7.71769e-06
7.71746e-06
7.71715e-06
7.71673e-06
7.71619e-06
7.71546e-06
7.71448e-06
7.71316e-06
7.71139e-06
7.709e-06
7.70577e-06
7.70143e-06
7.69561e-06
7.68782e-06
7.6775e-06
7.66394e-06
7.64638e-06
7.62403e-06
7.59631e-06
7.56343e-06
7.5273e-06
3.04936e-05
3.06372e-05
3.07675e-05
3.08771e-05
3.09656e-05
3.10351e-05
3.10887e-05
3.11296e-05
3.11604e-05
3.11835e-05
3.12008e-05
3.12136e-05
3.12231e-05
3.12301e-05
3.12354e-05
3.12393e-05
3.12422e-05
3.12444e-05
3.12461e-05
3.12473e-05
3.12482e-05
3.1249e-05
3.12495e-05
3.12499e-05
3.12502e-05
3.12505e-05
3.12506e-05
3.12508e-05
3.12508e-05
3.12509e-05
3.12509e-05
3.12508e-05
3.12508e-05
3.12506e-05
3.12505e-05
3.12502e-05
3.12499e-05
3.12495e-05
3.1249e-05
3.12482e-05
3.12473e-05
3.12461e-05
3.12444e-05
3.12422e-05
3.12393e-05
3.12354e-05
3.12301e-05
3.12231e-05
3.12136e-05
3.12008e-05
3.11835e-05
3.11604e-05
3.11296e-05
3.10887e-05
3.10351e-05
3.09656e-05
3.08771e-05
3.07675e-05
3.06372e-05
3.04936e-05
0.000113562
0.000114078
0.000114545
0.000114938
0.000115254
0.000115503
0.000115695
0.000115841
0.000115951
0.000116034
0.000116096
0.000116142
0.000116176
0.000116202
0.00011622
0.000116235
0.000116245
0.000116253
0.000116259
0.000116264
0.000116267
0.00011627
0.000116272
0.000116273
0.000116274
0.000116275
0.000116276
0.000116276
0.000116276
0.000116277
0.000116277
0.000116276
0.000116276
0.000116276
0.000116275
0.000116274
0.000116273
0.000116272
0.00011627
0.000116267
0.000116264
0.000116259
0.000116253
0.000116245
0.000116235
0.00011622
0.000116202
0.000116176
0.000116142
0.000116096
0.000116034
0.000115951
0.000115841
0.000115695
0.000115503
0.000115254
0.000114938
0.000114545
0.000114078
0.000113562
0.000382777
0.000384428
0.000385914
0.000387161
0.000388165
0.000388955
0.000389564
0.000390029
0.00039038
0.000390643
0.00039084
0.000390986
0.000391095
0.000391176
0.000391236
0.000391281
0.000391315
0.000391341
0.00039136
0.000391375
0.000391386
0.000391394
0.0003914
0.000391405
0.000391409
0.000391412
0.000391414
0.000391415
0.000391416
0.000391417
0.000391417
0.000391416
0.000391415
0.000391414
0.000391412
0.000391409
0.000391405
0.0003914
0.000391394
0.000391386
0.000391375
0.00039136
0.000391341
0.000391315
0.000391281
0.000391236
0.000391176
0.000391095
0.000390986
0.00039084
0.000390643
0.00039038
0.000390029
0.000389564
0.000388955
0.000388165
0.000387161
0.000385914
0.000384428
0.000382777
0.00114886
0.00115345
0.00115756
0.001161
0.00116378
0.00116595
0.00116763
0.00116892
0.00116989
0.00117061
0.00117116
0.00117156
0.00117186
0.00117209
0.00117226
0.00117238
0.00117248
0.00117255
0.0011726
0.00117264
0.00117267
0.00117269
0.00117271
0.00117273
0.00117274
0.00117275
0.00117275
0.00117275
0.00117276
0.00117276
0.00117276
0.00117276
0.00117275
0.00117275
0.00117275
0.00117274
0.00117273
0.00117271
0.00117269
0.00117267
0.00117264
0.0011726
0.00117255
0.00117248
0.00117238
0.00117226
0.00117209
0.00117186
0.00117156
0.00117116
0.00117061
0.00116989
0.00116892
0.00116763
0.00116595
0.00116378
0.001161
0.00115756
0.00115345
0.00114886
0.00302268
0.00303359
0.00304327
0.00305137
0.00305788
0.00306299
0.00306695
0.00306996
0.00307224
0.00307395
0.00307523
0.00307618
0.00307689
0.00307742
0.00307782
0.00307812
0.00307834
0.00307851
0.00307864
0.00307873
0.00307881
0.00307886
0.00307891
0.00307894
0.00307896
0.00307898
0.003079
0.00307901
0.00307901
0.00307901
0.00307901
0.00307901
0.00307901
0.003079
0.00307898
0.00307896
0.00307894
0.00307891
0.00307886
0.00307881
0.00307873
0.00307864
0.00307851
0.00307834
0.00307812
0.00307782
0.00307742
0.00307689
0.00307618
0.00307523
0.00307395
0.00307224
0.00306996
0.00306695
0.00306299
0.00305788
0.00305137
0.00304327
0.00303359
0.00302268
0.00688868
0.00691043
0.0069296
0.00694556
0.00695839
0.00696847
0.00697626
0.0069822
0.0069867
0.00699008
0.0069926
0.00699449
0.0069959
0.00699695
0.00699773
0.00699832
0.00699876
0.0069991
0.00699935
0.00699954
0.00699969
0.0069998
0.00699989
0.00699996
0.00700001
0.00700004
0.00700007
0.00700009
0.0070001
0.00700011
0.00700011
0.0070001
0.00700009
0.00700007
0.00700004
0.00700001
0.00699996
0.00699989
0.0069998
0.00699969
0.00699954
0.00699935
0.0069991
0.00699876
0.00699832
0.00699773
0.00699695
0.0069959
0.00699449
0.0069926
0.00699008
0.0069867
0.0069822
0.00697626
0.00696847
0.00695839
0.00694556
0.0069296
0.00691043
0.00688868
0.0135465
0.0135829
0.0136146
0.013641
0.0136621
0.0136787
0.0136916
0.0137014
0.0137088
0.0137144
0.0137186
0.0137217
0.013724
0.0137258
0.0137271
0.0137281
0.0137288
0.0137294
0.0137298
0.0137301
0.0137304
0.0137305
0.0137307
0.0137308
0.0137309
0.0137309
0.013731
0.013731
0.013731
0.0137311
0.0137311
0.013731
0.013731
0.013731
0.0137309
0.0137309
0.0137308
0.0137307
0.0137305
0.0137304
0.0137301
0.0137298
0.0137294
0.0137288
0.0137281
0.0137271
0.0137258
0.013724
0.0137217
0.0137186
0.0137144
0.0137088
0.0137014
0.0136916
0.0136787
0.0136621
0.013641
0.0136146
0.0135829
0.0135465
0.0231663
0.0232181
0.0232628
0.0232999
0.0233296
0.0233529
0.023371
0.0233848
0.0233952
0.0234031
0.0234089
0.0234133
0.0234166
0.0234191
0.0234209
0.0234223
0.0234234
0.0234242
0.0234248
0.0234252
0.0234256
0.0234259
0.0234261
0.0234262
0.0234264
0.0234264
0.0234265
0.0234266
0.0234266
0.0234266
0.0234266
0.0234266
0.0234266
0.0234265
0.0234264
0.0234264
0.0234262
0.0234261
0.0234259
0.0234256
0.0234252
0.0234248
0.0234242
0.0234234
0.0234223
0.0234209
0.0234191
0.0234166
0.0234133
0.0234089
0.0234031
0.0233952
0.0233848
0.023371
0.0233529
0.0233296
0.0232999
0.0232628
0.0232181
0.0231663
0.0351187
0.0351838
0.0352394
0.0352853
0.0353221
0.0353511
0.0353734
0.0353905
0.0354035
0.0354133
0.0354206
0.0354261
0.0354302
0.0354333
0.0354356
0.0354373
0.0354386
0.0354396
0.0354404
0.035441
0.0354414
0.0354418
0.035442
0.0354422
0.0354424
0.0354425
0.0354426
0.0354426
0.0354427
0.0354427
0.0354427
0.0354427
0.0354426
0.0354426
0.0354425
0.0354424
0.0354422
0.035442
0.0354418
0.0354414
0.035441
0.0354404
0.0354396
0.0354386
0.0354373
0.0354356
0.0354333
0.0354302
0.0354261
0.0354206
0.0354133
0.0354035
0.0353905
0.0353734
0.0353511
0.0353221
0.0352853
0.0352394
0.0351838
0.0351187
0.0484156
0.048491
0.0485548
0.0486073
0.0486493
0.0486824
0.048708
0.0487276
0.0487424
0.0487537
0.0487621
0.0487684
0.0487731
0.0487767
0.0487794
0.0487814
0.0487829
0.0487841
0.048785
0.0487856
0.0487862
0.0487866
0.0487869
0.0487871
0.0487873
0.0487874
0.0487875
0.0487876
0.0487876
0.0487877
0.0487877
0.0487876
0.0487876
0.0487875
0.0487874
0.0487873
0.0487871
0.0487869
0.0487866
0.0487862
0.0487856
0.048785
0.0487841
0.0487829
0.0487814
0.0487794
0.0487767
0.0487731
0.0487684
0.0487621
0.0487537
0.0487424
0.0487276
0.048708
0.0486824
0.0486493
0.0486073
0.0485548
0.048491
0.0484156
0.0622675
0.0623511
0.0624212
0.0624788
0.0625248
0.0625611
0.0625892
0.0626107
0.0626271
0.0626394
0.0626487
0.0626557
0.062661
0.0626649
0.0626679
0.0626701
0.0626718
0.0626731
0.0626741
0.0626749
0.0626755
0.0626759
0.0626763
0.0626765
0.0626767
0.0626769
0.062677
0.0626771
0.0626771
0.0626772
0.0626772
0.0626771
0.0626771
0.062677
0.0626769
0.0626767
0.0626765
0.0626763
0.0626759
0.0626755
0.0626749
0.0626741
0.0626731
0.0626718
0.0626701
0.0626679
0.0626649
0.062661
0.0626557
0.0626487
0.0626394
0.0626271
0.0626107
0.0625892
0.0625611
0.0625248
0.0624788
0.0624212
0.0623511
0.0622675
0.0762779
0.0763689
0.0764446
0.0765065
0.0765562
0.0765952
0.0766256
0.0766488
0.0766665
0.0766799
0.07669
0.0766976
0.0767034
0.0767077
0.0767109
0.0767134
0.0767153
0.0767167
0.0767178
0.0767186
0.0767193
0.0767197
0.0767201
0.0767204
0.0767207
0.0767208
0.076721
0.076721
0.0767211
0.0767211
0.0767211
0.0767211
0.076721
0.076721
0.0767208
0.0767207
0.0767204
0.0767201
0.0767197
0.0767193
0.0767186
0.0767178
0.0767167
0.0767153
0.0767134
0.0767109
0.0767077
0.0767034
0.0766976
0.07669
0.0766799
0.0766665
0.0766488
0.0766256
0.0765952
0.0765562
0.0765065
0.0764446
0.0763689
0.0762779
0.0903316
0.0904296
0.0905107
0.090577
0.0906301
0.090672
0.0907045
0.0907295
0.0907486
0.090763
0.0907739
0.0907821
0.0907883
0.090793
0.0907966
0.0907992
0.0908013
0.0908028
0.090804
0.090805
0.0908057
0.0908062
0.0908066
0.090807
0.0908072
0.0908074
0.0908075
0.0908076
0.0908077
0.0908077
0.0908077
0.0908077
0.0908076
0.0908075
0.0908074
0.0908072
0.090807
0.0908066
0.0908062
0.0908057
0.090805
0.090804
0.0908028
0.0908013
0.0907992
0.0907966
0.090793
0.0907883
0.0907821
0.0907739
0.090763
0.0907486
0.0907295
0.0907045
0.090672
0.0906301
0.090577
0.0905107
0.0904296
0.0903316
0.104431
0.104536
0.104622
0.104693
0.10475
0.104794
0.104829
0.104856
0.104876
0.104892
0.104904
0.104912
0.104919
0.104924
0.104928
0.104931
0.104933
0.104935
0.104936
0.104937
0.104938
0.104939
0.104939
0.104939
0.10494
0.10494
0.10494
0.10494
0.10494
0.10494
0.10494
0.10494
0.10494
0.10494
0.10494
0.10494
0.104939
0.104939
0.104939
0.104938
0.104937
0.104936
0.104935
0.104933
0.104931
0.104928
0.104924
0.104919
0.104912
0.104904
0.104892
0.104876
0.104856
0.104829
0.104794
0.10475
0.104693
0.104622
0.104536
0.104431
0.1186
0.118712
0.118804
0.118879
0.11894
0.118987
0.119025
0.119053
0.119075
0.119092
0.119104
0.119114
0.119121
0.119127
0.119131
0.119134
0.119136
0.119138
0.11914
0.119141
0.119142
0.119142
0.119143
0.119143
0.119143
0.119144
0.119144
0.119144
0.119144
0.119144
0.119144
0.119144
0.119144
0.119144
0.119144
0.119143
0.119143
0.119143
0.119142
0.119142
0.119141
0.11914
0.119138
0.119136
0.119134
0.119131
0.119127
0.119121
0.119114
0.119104
0.119092
0.119075
0.119053
0.119025
0.118987
0.11894
0.118879
0.118804
0.118712
0.1186
0.132858
0.132976
0.133074
0.133154
0.133218
0.133269
0.133308
0.133339
0.133362
0.13338
0.133394
0.133404
0.133412
0.133417
0.133422
0.133425
0.133428
0.13343
0.133432
0.133433
0.133434
0.133434
0.133435
0.133435
0.133436
0.133436
0.133436
0.133436
0.133436
0.133436
0.133436
0.133436
0.133436
0.133436
0.133436
0.133436
0.133435
0.133435
0.133434
0.133434
0.133433
0.133432
0.13343
0.133428
0.133425
0.133422
0.133417
0.133412
0.133404
0.133394
0.13338
0.133362
0.133339
0.133308
0.133269
0.133218
0.133154
0.133074
0.132976
0.132858
0.147209
0.147335
0.147438
0.147522
0.14759
0.147644