/*--------------------------------*- C++ -*----------------------------------*\
| =========                 |                                                 |
| \\      /  F ield         | foam-extend: Open Source CFD                    |
|  \\    /   O peration     | Version:     4.0                                |
|   \\  /    A nd           | Web:         http://www.foam-extend.org         |
|    \\/     M anipulation  |                                                 |
\*---------------------------------------------------------------------------*/
FoamFile
{
    version     2.0;
    format      ascii;
    class       volVectorField;
    location    "6";
    object      bodyForce;
}
// * * * * * * * * * * * * * * * * * * * * * * * * * * * * * * * * * * * * * //

dimensions      [1 -2 -2 0 0 0 0];

internalField   nonuniform List<vector> 
6960
(
(-2.74768e-32 -2.05703e-15 -0)
(-1.14487e-31 -2.05703e-15 -0)
(-0 -2.05703e-15 -0)
(-1.32805e-31 -2.05703e-15 -0)
(-1.19066e-31 -2.05703e-15 -0)
(1.64861e-31 -2.05703e-15 -0)
(1.6944e-31 -2.05703e-15 -0)
(-3.66358e-32 -2.05703e-15 -0)
(-2.01497e-31 -2.05703e-15 -0)
(-1.64861e-31 -2.05703e-15 -0)
(-0 -2.05703e-15 -0)
(8.701e-32 -2.05703e-15 -0)
(2.74768e-32 -2.05703e-15 -0)
(-7.7851e-32 -2.05703e-15 -0)
(-7.7851e-32 -2.05703e-15 -0)
(1.00748e-31 -2.05703e-15 -0)
(2.15235e-31 -2.05703e-15 -0)
(1.6944e-31 -2.05703e-15 -0)
(5.49536e-32 -2.05703e-15 -0)
(-5.03742e-32 -2.05703e-15 -0)
(-2.01497e-31 -2.05703e-15 -0)
(-3.20563e-32 -2.05703e-15 -0)
(2.74768e-32 -2.05703e-15 -0)
(1.37384e-32 -2.05703e-15 -0)
(1.09907e-31 -2.05703e-15 -0)
(8.70099e-32 -2.05703e-15 -0)
(-8.24304e-32 -2.05703e-15 -0)
(-4.57947e-33 -2.05703e-15 -0)
(2.70189e-31 -2.05703e-15 -0)
(2.33553e-31 -2.05703e-15 -0)
(4.57947e-32 -2.05703e-15 -0)
(-2.15235e-31 -2.05703e-15 -0)
(-2.38132e-31 -2.05703e-15 -0)
(-8.70099e-32 -2.05703e-15 -0)
(-6.41125e-32 -2.05703e-15 -0)
(-4.57947e-32 -2.05703e-15 -0)
(7.78509e-32 -2.05703e-15 -0)
(1.19066e-31 -2.05703e-15 -0)
(1.83179e-32 -2.05703e-15 -0)
(-1.83179e-32 -2.05703e-15 -0)
(1.46543e-31 -2.05703e-15 -0)
(1.37384e-31 -2.05703e-15 -0)
(1.60281e-31 -2.05703e-15 -0)
(2.10656e-31 -2.05703e-15 -0)
(8.24304e-32 -2.05703e-15 -0)
(1.28225e-31 -2.05703e-15 -0)
(-1.09907e-31 -2.05703e-15 -0)
(-8.24304e-32 -2.05703e-15 -0)
(1.46543e-31 -2.05703e-15 -0)
(-4.57947e-33 -2.05703e-15 -0)
(-9.61689e-32 -2.05703e-15 -0)
(6.86921e-32 -2.05703e-15 -0)
(-9.15894e-32 -2.05703e-15 -0)
(-3.02245e-31 -2.05703e-15 -0)
(-1.09907e-31 -2.05703e-15 -0)
(-7.7851e-32 -2.05703e-15 -0)
(-2.19815e-31 -2.05703e-15 -0)
(-4.57947e-32 -2.05703e-15 -0)
(2.33553e-31 -2.05703e-15 -0)
(1.14487e-31 -2.05703e-15 -0)
(-3.55669e-32 -2.05696e-15 -0)
(-3.20102e-31 -2.05696e-15 -0)
(-5.33503e-32 -2.05696e-15 -0)
(-4.09019e-31 -2.05696e-15 -0)
(-3.37885e-31 -2.05696e-15 -0)
(4.80153e-31 -2.05696e-15 -0)
(5.1572e-31 -2.05696e-15 -0)
(-1.06701e-31 -2.05696e-15 -0)
(-5.86854e-31 -2.05696e-15 -0)
(-4.97936e-31 -2.05696e-15 -0)
(-1.77834e-32 -2.05696e-15 -0)
(2.66752e-31 -2.05696e-15 -0)
(5.33503e-32 -2.05696e-15 -0)
(-2.13401e-31 -2.05696e-15 -0)
(-1.24484e-31 -2.05696e-15 -0)
(2.66751e-31 -2.05696e-15 -0)
(6.40203e-31 -2.05696e-15 -0)
(5.33503e-31 -2.05696e-15 -0)
(1.24484e-31 -2.05696e-15 -0)
(-1.42267e-31 -2.05696e-15 -0)
(-5.86853e-31 -2.05696e-15 -0)
(-1.24484e-31 -2.05696e-15 -0)
(3.55668e-32 -2.05696e-15 -0)
(7.11337e-32 -2.05696e-15 -0)
(3.73452e-31 -2.05696e-15 -0)
(2.31184e-31 -2.05696e-15 -0)
(-2.84535e-31 -2.05696e-15 -0)
(-0 -2.05696e-15 -0)
(8.00254e-31 -2.05696e-15 -0)
(7.2912e-31 -2.05696e-15 -0)
(1.067e-31 -2.05696e-15 -0)
(-6.2242e-31 -2.05696e-15 -0)
(-7.2912e-31 -2.05696e-15 -0)
(-3.37885e-31 -2.05696e-15 -0)
(-1.77834e-31 -2.05696e-15 -0)
(-5.33503e-32 -2.05696e-15 -0)
(1.95618e-31 -2.05696e-15 -0)
(3.73452e-31 -2.05696e-15 -0)
(1.06701e-31 -2.05696e-15 -0)
(-8.89171e-32 -2.05696e-15 -0)
(4.44586e-31 -2.05696e-15 -0)
(3.91235e-31 -2.05696e-15 -0)
(4.62369e-31 -2.05696e-15 -0)
(6.40203e-31 -2.05696e-15 -0)
(2.66751e-31 -2.05696e-15 -0)
(3.73452e-31 -2.05696e-15 -0)
(-3.73452e-31 -2.05696e-15 -0)
(-2.66752e-31 -2.05696e-15 -0)
(4.97936e-31 -2.05696e-15 -0)
(-3.55669e-32 -2.05696e-15 -0)
(-2.84535e-31 -2.05696e-15 -0)
(2.31185e-31 -2.05696e-15 -0)
(-2.66752e-31 -2.05696e-15 -0)
(-9.60306e-31 -2.05696e-15 -0)
(-3.20102e-31 -2.05696e-15 -0)
(-1.60051e-31 -2.05696e-15 -0)
(-6.57987e-31 -2.05696e-15 -0)
(-1.77834e-31 -2.05696e-15 -0)
(6.75771e-31 -2.05696e-15 -0)
(3.91236e-31 -2.05696e-15 -0)
(-1.03587e-31 -2.05689e-15 -0)
(-5.86995e-31 -2.05689e-15 -0)
(-0 -2.05689e-15 -0)
(-6.56054e-31 -2.05689e-15 -0)
(-5.86995e-31 -2.05689e-15 -0)
(7.9417e-31 -2.05689e-15 -0)
(8.28699e-31 -2.05689e-15 -0)
(-1.38117e-31 -2.05689e-15 -0)
(-1.00134e-30 -2.05689e-15 -0)
(-9.32286e-31 -2.05689e-15 -0)
(-0 -2.05689e-15 -0)
(5.17937e-31 -2.05689e-15 -0)
(-0 -2.05689e-15 -0)
(-5.17937e-31 -2.05689e-15 -0)
(-1.03587e-31 -2.05689e-15 -0)
(5.86995e-31 -2.05689e-15 -0)
(1.03587e-30 -2.05688e-15 -0)
(9.32286e-31 -2.05688e-15 -0)
(3.45291e-31 -2.05688e-15 -0)
(-2.41704e-31 -2.05688e-15 -0)
(-9.32285e-31 -2.05688e-15 -0)
(-2.07175e-31 -2.05688e-15 -0)
(-6.90582e-32 -2.05688e-15 -0)
(1.03587e-31 -2.05688e-15 -0)
(5.52465e-31 -2.05688e-15 -0)
(4.48878e-31 -2.05688e-15 -0)
(-3.7982e-31 -2.05688e-15 -0)
(-3.45291e-32 -2.05688e-15 -0)
(1.38116e-30 -2.05688e-15 -0)
(1.27758e-30 -2.05688e-15 -0)
(2.76233e-31 -2.05688e-15 -0)
(-1.10493e-30 -2.05688e-15 -0)
(-1.34663e-30 -2.05688e-15 -0)
(-5.17936e-31 -2.05688e-15 -0)
(-2.76233e-31 -2.05688e-15 -0)
(-2.07175e-31 -2.05688e-15 -0)
(3.45291e-31 -2.05688e-15 -0)
(5.86995e-31 -2.05688e-15 -0)
(2.07175e-31 -2.05688e-15 -0)
(-6.90582e-32 -2.05688e-15 -0)
(6.90582e-31 -2.05688e-15 -0)
(6.56053e-31 -2.05688e-15 -0)
(8.97757e-31 -2.05689e-15 -0)
(1.0704e-30 -2.05689e-15 -0)
(5.17937e-31 -2.05689e-15 -0)
(6.90582e-31 -2.05689e-15 -0)
(-7.25112e-31 -2.05689e-15 -0)
(-4.48879e-31 -2.05689e-15 -0)
(8.63228e-31 -2.05689e-15 -0)
(-1.03587e-31 -2.05689e-15 -0)
(-5.86995e-31 -2.05689e-15 -0)
(3.10762e-31 -2.05689e-15 -0)
(-4.1435e-31 -2.05689e-15 -0)
(-1.51928e-30 -2.05689e-15 -0)
(-5.86996e-31 -2.05689e-15 -0)
(-3.79821e-31 -2.05689e-15 -0)
(-1.13946e-30 -2.05689e-15 -0)
(-2.41704e-31 -2.05689e-15 -0)
(1.24305e-30 -2.05689e-15 -0)
(6.90583e-31 -2.05689e-15 -0)
(-2.68173e-31 -2.05681e-15 -0)
(-1.00565e-30 -2.05681e-15 -0)
(-0 -2.05681e-15 -0)
(-8.04519e-31 -2.05681e-15 -0)
(-9.05084e-31 -2.05681e-15 -0)
(1.17326e-30 -2.05681e-15 -0)
(1.30734e-30 -2.05681e-15 -0)
(-3.35216e-31 -2.05681e-15 -0)
(-1.44143e-30 -2.05681e-15 -0)
(-1.30734e-30 -2.05681e-15 -0)
(-1.00565e-31 -2.05681e-15 -0)
(7.70997e-31 -2.05681e-15 -0)
(6.70432e-32 -2.05681e-15 -0)
(-5.02824e-31 -2.05681e-15 -0)
(-2.34651e-31 -2.05681e-15 -0)
(6.03389e-31 -2.05681e-15 -0)
(1.44143e-30 -2.05681e-15 -0)
(1.34086e-30 -2.05681e-15 -0)
(2.68173e-31 -2.05681e-15 -0)
(-3.01694e-31 -2.05681e-15 -0)
(-1.27382e-30 -2.05681e-15 -0)
(-3.35216e-31 -2.05681e-15 -0)
(-3.35216e-32 -2.05681e-15 -0)
(1.67608e-31 -2.05681e-15 -0)
(7.70996e-31 -2.05681e-15 -0)
(7.03953e-31 -2.05681e-15 -0)
(-4.69302e-31 -2.05681e-15 -0)
(-2.68172e-31 -2.05681e-15 -0)
(1.91073e-30 -2.05681e-15 -0)
(1.91073e-30 -2.05681e-15 -0)
(4.69302e-31 -2.05681e-15 -0)
(-1.44143e-30 -2.05681e-15 -0)
(-1.87721e-30 -2.05681e-15 -0)
(-8.71561e-31 -2.05681e-15 -0)
(-5.02823e-31 -2.05681e-15 -0)
(-1.67608e-31 -2.05681e-15 -0)
(5.69867e-31 -2.05681e-15 -0)
(8.04518e-31 -2.05681e-15 -0)
(2.34651e-31 -2.05681e-15 -0)
(-3.35216e-32 -2.05681e-15 -0)
(9.38605e-31 -2.05681e-15 -0)
(8.71562e-31 -2.05681e-15 -0)
(1.20678e-30 -2.05681e-15 -0)
(1.54199e-30 -2.05681e-15 -0)
(6.03389e-31 -2.05681e-15 -0)
(1.00565e-30 -2.05681e-15 -0)
(-8.38041e-31 -2.05681e-15 -0)
(-6.70433e-31 -2.05681e-15 -0)
(1.17326e-30 -2.05681e-15 -0)
(-6.70433e-32 -2.05681e-15 -0)
(-6.0339e-31 -2.05681e-15 -0)
(5.36346e-31 -2.05681e-15 -0)
(-7.03955e-31 -2.05681e-15 -0)
(-2.21243e-30 -2.05681e-15 -0)
(-9.38606e-31 -2.05681e-15 -0)
(-5.69868e-31 -2.05681e-15 -0)
(-1.542e-30 -2.05681e-15 -0)
(-2.68173e-31 -2.05681e-15 -0)
(1.64256e-30 -2.05681e-15 -0)
(8.71563e-31 -2.05681e-15 -0)
(-2.60348e-31 -2.05673e-15 -0)
(-1.23665e-30 -2.05673e-15 -0)
(-6.50869e-32 -2.05673e-15 -0)
(-1.04139e-30 -2.05673e-15 -0)
(-1.04139e-30 -2.05673e-15 -0)
(1.43191e-30 -2.05673e-15 -0)
(1.82243e-30 -2.05673e-15 -0)
(-3.25435e-31 -2.05673e-15 -0)
(-2.01769e-30 -2.05673e-15 -0)
(-1.75735e-30 -2.05673e-15 -0)
(-1.30174e-31 -2.05673e-15 -0)
(1.10648e-30 -2.05673e-15 -0)
(6.50869e-32 -2.05673e-15 -0)
(-8.46129e-31 -2.05673e-15 -0)
(-4.55608e-31 -2.05673e-15 -0)
(8.46129e-31 -2.05673e-15 -0)
(2.08278e-30 -2.05673e-15 -0)
(1.82243e-30 -2.05673e-15 -0)
(5.85781e-31 -2.05673e-15 -0)
(-3.25434e-31 -2.05673e-15 -0)
(-1.69226e-30 -2.05673e-15 -0)
(-5.20694e-31 -2.05673e-15 -0)
(-0 -2.05673e-15 -0)
(3.90521e-31 -2.05673e-15 -0)
(9.76302e-31 -2.05673e-15 -0)
(8.46128e-31 -2.05673e-15 -0)
(-7.15955e-31 -2.05673e-15 -0)
(-1.30174e-31 -2.05673e-15 -0)
(2.60347e-30 -2.05673e-15 -0)
(2.21295e-30 -2.05673e-15 -0)
(4.55608e-31 -2.05673e-15 -0)
(-1.82243e-30 -2.05673e-15 -0)
(-2.34312e-30 -2.05673e-15 -0)
(-1.17156e-30 -2.05673e-15 -0)
(-6.50868e-31 -2.05673e-15 -0)
(-3.25434e-31 -2.05673e-15 -0)
(6.50868e-31 -2.05673e-15 -0)
(1.17156e-30 -2.05673e-15 -0)
(3.90521e-31 -2.05673e-15 -0)
(-6.50869e-32 -2.05673e-15 -0)
(1.10648e-30 -2.05673e-15 -0)
(1.10648e-30 -2.05673e-15 -0)
(1.62717e-30 -2.05673e-15 -0)
(1.95261e-30 -2.05673e-15 -0)
(7.81043e-31 -2.05673e-15 -0)
(1.56209e-30 -2.05673e-15 -0)
(-1.04139e-30 -2.05673e-15 -0)
(-9.11217e-31 -2.05673e-15 -0)
(1.62717e-30 -2.05673e-15 -0)
(-1.30174e-31 -2.05673e-15 -0)
(-1.04139e-30 -2.05673e-15 -0)
(4.55609e-31 -2.05673e-15 -0)
(-7.81044e-31 -2.05673e-15 -0)
(-2.86383e-30 -2.05673e-15 -0)
(-1.17157e-30 -2.05673e-15 -0)
(-7.81044e-31 -2.05673e-15 -0)
(-1.88752e-30 -2.05673e-15 -0)
(-3.90522e-31 -2.05673e-15 -0)
(2.14787e-30 -2.05673e-15 -0)
(1.17157e-30 -2.05673e-15 -0)
(-2.5275e-31 -2.05665e-15 -0)
(-1.32694e-30 -2.05665e-15 -0)
(-1.89563e-31 -2.05665e-15 -0)
(-1.20056e-30 -2.05665e-15 -0)
(-1.13738e-30 -2.05665e-15 -0)
(1.83244e-30 -2.05665e-15 -0)
(2.21157e-30 -2.05665e-15 -0)
(-5.05501e-31 -2.05665e-15 -0)
(-2.33794e-30 -2.05665e-15 -0)
(-1.95881e-30 -2.05665e-15 -0)
(-1.89563e-31 -2.05665e-15 -0)
(1.13738e-30 -2.05665e-15 -0)
(1.89563e-31 -2.05665e-15 -0)
(-1.011e-30 -2.05665e-15 -0)
(-5.055e-31 -2.05665e-15 -0)
(1.26375e-30 -2.05665e-15 -0)
(2.27475e-30 -2.05665e-15 -0)
(2.21156e-30 -2.05665e-15 -0)
(6.31875e-31 -2.05665e-15 -0)
(-4.42312e-31 -2.05664e-15 -0)
(-2.21156e-30 -2.05664e-15 -0)
(-5.055e-31 -2.05664e-15 -0)
(6.31875e-32 -2.05664e-15 -0)
(1.89562e-31 -2.05664e-15 -0)
(1.39012e-30 -2.05664e-15 -0)
(1.13737e-30 -2.05664e-15 -0)
(-8.21437e-31 -2.05664e-15 -0)
(-3.79125e-31 -2.05664e-15 -0)
(2.96981e-30 -2.05664e-15 -0)
(2.78025e-30 -2.05664e-15 -0)
(6.95062e-31 -2.05664e-15 -0)
(-2.14837e-30 -2.05664e-15 -0)
(-3.033e-30 -2.05664e-15 -0)
(-1.32694e-30 -2.05664e-15 -0)
(-6.95062e-31 -2.05665e-15 -0)
(-4.42312e-31 -2.05665e-15 -0)
(8.21438e-31 -2.05665e-15 -0)
(1.39013e-30 -2.05665e-15 -0)
(4.42313e-31 -2.05665e-15 -0)
(-6.31875e-32 -2.05665e-15 -0)
(1.70606e-30 -2.05665e-15 -0)
(1.32694e-30 -2.05665e-15 -0)
(1.76925e-30 -2.05665e-15 -0)
(2.5275e-30 -2.05665e-15 -0)
(1.07419e-30 -2.05665e-15 -0)
(1.5165e-30 -2.05665e-15 -0)
(-1.32694e-30 -2.05665e-15 -0)
(-9.47815e-31 -2.05665e-15 -0)
(1.76925e-30 -2.05665e-15 -0)
(-3.15938e-31 -2.05665e-15 -0)
(-9.47815e-31 -2.05665e-15 -0)
(8.84628e-31 -2.05665e-15 -0)
(-1.26375e-30 -2.05665e-15 -0)
(-3.53851e-30 -2.05665e-15 -0)
(-1.26375e-30 -2.05665e-15 -0)
(-1.011e-30 -2.05665e-15 -0)
(-2.33795e-30 -2.05665e-15 -0)
(-5.6869e-31 -2.05665e-15 -0)
(2.65388e-30 -2.05665e-15 -0)
(1.39013e-30 -2.05665e-15 -0)
(-3.68062e-31 -2.05656e-15 -0)
(-1.65628e-30 -2.05656e-15 -0)
(-0 -2.05656e-15 -0)
(-1.4109e-30 -2.05656e-15 -0)
(-1.53359e-30 -2.05656e-15 -0)
(1.963e-30 -2.05656e-15 -0)
(2.57643e-30 -2.05656e-15 -0)
(-4.90749e-31 -2.05656e-15 -0)
(-2.82181e-30 -2.05656e-15 -0)
(-2.45374e-30 -2.05656e-15 -0)
(-1.22687e-31 -2.05656e-15 -0)
(1.4109e-30 -2.05656e-15 -0)
(-0 -2.05656e-15 -0)
(-1.16553e-30 -2.05656e-15 -0)
(-2.45374e-31 -2.05656e-15 -0)
(1.4109e-30 -2.05656e-15 -0)
(3.00583e-30 -2.05656e-15 -0)
(2.51508e-30 -2.05656e-15 -0)
(3.68061e-31 -2.05656e-15 -0)
(-4.29404e-31 -2.05656e-15 -0)
(-2.45374e-30 -2.05656e-15 -0)
(-7.36122e-31 -2.05656e-15 -0)
(-1.22687e-31 -2.05656e-15 -0)
(3.68061e-31 -2.05656e-15 -0)
(1.59493e-30 -2.05656e-15 -0)
(1.28821e-30 -2.05656e-15 -0)
(-7.97465e-31 -2.05656e-15 -0)
(-3.06717e-31 -2.05656e-15 -0)
(3.61926e-30 -2.05656e-15 -0)
(3.37389e-30 -2.05656e-15 -0)
(8.58809e-31 -2.05656e-15 -0)
(-2.57643e-30 -2.05656e-15 -0)
(-3.68061e-30 -2.05656e-15 -0)
(-1.90165e-30 -2.05656e-15 -0)
(-8.58809e-31 -2.05656e-15 -0)
(-3.06718e-31 -2.05656e-15 -0)
(1.10418e-30 -2.05656e-15 -0)
(1.65628e-30 -2.05656e-15 -0)
(5.52092e-31 -2.05656e-15 -0)
(-1.84031e-31 -2.05656e-15 -0)
(1.90165e-30 -2.05656e-15 -0)
(1.47225e-30 -2.05656e-15 -0)
(2.14703e-30 -2.05656e-15 -0)
(3.00584e-30 -2.05656e-15 -0)
(1.47225e-30 -2.05656e-15 -0)
(1.71762e-30 -2.05657e-15 -0)
(-1.53359e-30 -2.05657e-15 -0)
(-9.81499e-31 -2.05657e-15 -0)
(2.51509e-30 -2.05657e-15 -0)
(-3.68062e-31 -2.05657e-15 -0)
(-1.34956e-30 -2.05657e-15 -0)
(9.815e-31 -2.05657e-15 -0)
(-1.53359e-30 -2.05657e-15 -0)
(-3.98734e-30 -2.05657e-15 -0)
(-1.77897e-30 -2.05657e-15 -0)
(-1.22688e-30 -2.05657e-15 -0)
(-3.00584e-30 -2.05657e-15 -0)
(-7.36125e-31 -2.05657e-15 -0)
(3.31256e-30 -2.05657e-15 -0)
(1.77897e-30 -2.05657e-15 -0)
(-4.16874e-31 -2.05648e-15 -0)
(-1.96526e-30 -2.05648e-15 -0)
(1.7866e-31 -2.05648e-15 -0)
(-1.60794e-30 -2.05648e-15 -0)
(-1.90571e-30 -2.05648e-15 -0)
(2.6799e-30 -2.05648e-15 -0)
(2.79901e-30 -2.05648e-15 -0)
(-5.95533e-31 -2.05648e-15 -0)
(-3.39454e-30 -2.05647e-15 -0)
(-2.79901e-30 -2.05647e-15 -0)
(-3.5732e-31 -2.05647e-15 -0)
(1.7866e-30 -2.05647e-15 -0)
(2.38213e-31 -2.05647e-15 -0)
(-2.20347e-30 -2.05647e-15 -0)
(-5.95533e-31 -2.05647e-15 -0)
(1.72704e-30 -2.05647e-15 -0)
(3.51364e-30 -2.05647e-15 -0)
(3.03721e-30 -2.05647e-15 -0)
(7.14639e-31 -2.05647e-15 -0)
(-5.35979e-31 -2.05647e-15 -0)
(-2.67989e-30 -2.05647e-15 -0)
(-6.55085e-31 -2.05647e-15 -0)
(1.19106e-31 -2.05647e-15 -0)
(2.38213e-31 -2.05647e-15 -0)
(1.72704e-30 -2.05647e-15 -0)
(1.66749e-30 -2.05647e-15 -0)
(-1.25062e-30 -2.05647e-15 -0)
(-1.7866e-31 -2.05647e-15 -0)
(4.64515e-30 -2.05647e-15 -0)
(3.93051e-30 -2.05647e-15 -0)
(9.52851e-31 -2.05647e-15 -0)
(-3.51364e-30 -2.05647e-15 -0)
(-4.16872e-30 -2.05647e-15 -0)
(-1.42928e-30 -2.05647e-15 -0)
(-1.36972e-30 -2.05647e-15 -0)
(-5.95532e-31 -2.05647e-15 -0)
(1.54838e-30 -2.05647e-15 -0)
(1.84615e-30 -2.05647e-15 -0)
(4.16873e-31 -2.05647e-15 -0)
(-2.97767e-31 -2.05647e-15 -0)
(2.38213e-30 -2.05647e-15 -0)
(1.72705e-30 -2.05648e-15 -0)
(3.03722e-30 -2.05648e-15 -0)
(3.21588e-30 -2.05648e-15 -0)
(1.31017e-30 -2.05648e-15 -0)
(2.26303e-30 -2.05648e-15 -0)
(-2.14392e-30 -2.05648e-15 -0)
(-1.07196e-30 -2.05648e-15 -0)
(2.91812e-30 -2.05648e-15 -0)
(-5.95535e-31 -2.05648e-15 -0)
(-1.6675e-30 -2.05648e-15 -0)
(1.42928e-30 -2.05648e-15 -0)
(-1.6675e-30 -2.05648e-15 -0)
(-4.76428e-30 -2.05648e-15 -0)
(-2.14393e-30 -2.05648e-15 -0)
(-1.78661e-30 -2.05648e-15 -0)
(-3.15634e-30 -2.05648e-15 -0)
(-6.55089e-31 -2.05648e-15 -0)
(3.51366e-30 -2.05648e-15 -0)
(1.78661e-30 -2.05648e-15 -0)
(-8.09414e-31 -2.05638e-15 -0)
(-2.19698e-30 -2.05638e-15 -0)
(-2.31261e-31 -2.05638e-15 -0)
(-1.85009e-30 -2.05638e-15 -0)
(-1.73446e-30 -2.05638e-15 -0)
(2.6595e-30 -2.05638e-15 -0)
(3.46891e-30 -2.05638e-15 -0)
(-8.09413e-31 -2.05638e-15 -0)
(-4.39396e-30 -2.05638e-15 -0)
(-3.00639e-30 -2.05638e-15 -0)
(-0 -2.05638e-15 -0)
(1.73446e-30 -2.05638e-15 -0)
(2.31261e-31 -2.05638e-15 -0)
(-1.96572e-30 -2.05638e-15 -0)
(-9.25042e-31 -2.05638e-15 -0)
(2.19698e-30 -2.05638e-15 -0)
(4.27832e-30 -2.05638e-15 -0)
(3.23765e-30 -2.05638e-15 -0)
(1.04067e-30 -2.05638e-15 -0)
(-2.3126e-31 -2.05638e-15 -0)
(-3.46891e-30 -2.05638e-15 -0)
(-8.09411e-31 -2.05638e-15 -0)
(-0 -2.05638e-15 -0)
(4.62521e-31 -2.05638e-15 -0)
(2.08134e-30 -2.05638e-15 -0)
(1.61882e-30 -2.05638e-15 -0)
(-1.27193e-30 -2.05638e-15 -0)
(-3.4689e-31 -2.05638e-15 -0)
(5.31899e-30 -2.05638e-15 -0)
(4.39395e-30 -2.05638e-15 -0)
(1.04067e-30 -2.05638e-15 -0)
(-3.46891e-30 -2.05638e-15 -0)
(-4.74084e-30 -2.05638e-15 -0)
(-2.08134e-30 -2.05638e-15 -0)
(-1.61882e-30 -2.05638e-15 -0)
(-8.09412e-31 -2.05638e-15 -0)
(1.38756e-30 -2.05638e-15 -0)
(2.54387e-30 -2.05638e-15 -0)
(9.25043e-31 -2.05638e-15 -0)
(-5.78152e-31 -2.05638e-15 -0)
(2.54387e-30 -2.05638e-15 -0)
(2.08135e-30 -2.05638e-15 -0)
(3.12202e-30 -2.05638e-15 -0)
(3.93144e-30 -2.05639e-15 -0)
(2.08135e-30 -2.05639e-15 -0)
(2.6595e-30 -2.05639e-15 -0)
(-2.19698e-30 -2.05639e-15 -0)
(-1.27194e-30 -2.05639e-15 -0)
(3.12203e-30 -2.05639e-15 -0)
(-6.93785e-31 -2.05639e-15 -0)
(-1.96572e-30 -2.05639e-15 -0)
(1.38757e-30 -2.05639e-15 -0)
(-2.19699e-30 -2.05639e-15 -0)
(-5.31902e-30 -2.05639e-15 -0)
(-2.42825e-30 -2.05639e-15 -0)
(-1.61883e-30 -2.05639e-15 -0)
(-3.81582e-30 -2.05639e-15 -0)
(-8.09416e-31 -2.05639e-15 -0)
(4.16271e-30 -2.05639e-15 -0)
(2.19699e-30 -2.05639e-15 -0)
(-1.0103e-30 -2.05629e-15 -0)
(-2.46962e-30 -2.05629e-15 -0)
(-1.12256e-31 -2.05629e-15 -0)
(-2.0206e-30 -2.05629e-15 -0)
(-1.79609e-30 -2.05629e-15 -0)
(2.91864e-30 -2.05629e-15 -0)
(3.59218e-30 -2.05629e-15 -0)
(-1.0103e-30 -2.05629e-15 -0)
(-4.49022e-30 -2.05629e-15 -0)
(-3.70443e-30 -2.05629e-15 -0)
(1.12255e-31 -2.05629e-15 -0)
(2.13285e-30 -2.05629e-15 -0)
(-1.12255e-31 -2.05629e-15 -0)
(-1.79609e-30 -2.05629e-15 -0)
(-5.61277e-31 -2.05629e-15 -0)
(2.58187e-30 -2.05629e-15 -0)
(4.82698e-30 -2.05629e-15 -0)
(3.70442e-30 -2.05628e-15 -0)
(5.61276e-31 -2.05628e-15 -0)
(-8.98042e-31 -2.05628e-15 -0)
(-3.70442e-30 -2.05628e-15 -0)
(-6.73531e-31 -2.05628e-15 -0)
(-0 -2.05628e-15 -0)
(3.36766e-31 -2.05628e-15 -0)
(2.35736e-30 -2.05628e-15 -0)
(1.68383e-30 -2.05628e-15 -0)
(-1.45932e-30 -2.05628e-15 -0)
(-0 -2.05628e-15 -0)
(5.5005e-30 -2.05628e-15 -0)
(4.93923e-30 -2.05628e-15 -0)
(1.90834e-30 -2.05628e-15 -0)
(-3.92893e-30 -2.05628e-15 -0)
(-5.94953e-30 -2.05628e-15 -0)
(-2.46962e-30 -2.05628e-15 -0)
(-2.0206e-30 -2.05629e-15 -0)
(-7.85787e-31 -2.05629e-15 -0)
(1.90834e-30 -2.05629e-15 -0)
(2.69413e-30 -2.05629e-15 -0)
(1.0103e-30 -2.05629e-15 -0)
(-0 -2.05629e-15 -0)
(2.91864e-30 -2.05629e-15 -0)
(2.58188e-30 -2.05629e-15 -0)
(3.25541e-30 -2.05629e-15 -0)
(4.37797e-30 -2.05629e-15 -0)
(2.24511e-30 -2.05629e-15 -0)
(2.80639e-30 -2.05629e-15 -0)
(-2.80639e-30 -2.05629e-15 -0)
(-1.45933e-30 -2.05629e-15 -0)
(3.47993e-30 -2.05629e-15 -0)
(-5.61279e-31 -2.0563e-15 -0)
(-2.02061e-30 -2.0563e-15 -0)
(1.34707e-30 -2.0563e-15 -0)
(-2.35738e-30 -2.0563e-15 -0)
(-5.72506e-30 -2.0563e-15 -0)
(-2.69414e-30 -2.0563e-15 -0)
(-2.02061e-30 -2.0563e-15 -0)
(-4.37799e-30 -2.0563e-15 -0)
(-1.34707e-30 -2.0563e-15 -0)
(4.93927e-30 -2.0563e-15 -0)
(2.46963e-30 -2.0563e-15 -0)
(-1.41673e-30 -2.05619e-15 -0)
(-3.16039e-30 -2.05619e-15 -0)
(5.44895e-31 -2.05619e-15 -0)
(-1.52571e-30 -2.05619e-15 -0)
(-2.39754e-30 -2.05619e-15 -0)
(2.94243e-30 -2.05619e-15 -0)
(3.81426e-30 -2.05619e-15 -0)
(-1.30775e-30 -2.05619e-15 -0)
(-4.57711e-30 -2.05619e-15 -0)
(-4.1412e-30 -2.05619e-15 -0)
(-3.26936e-31 -2.05619e-15 -0)
(2.83345e-30 -2.05619e-15 -0)
(2.17958e-31 -2.05619e-15 -0)
(-2.61549e-30 -2.05619e-15 -0)
(-2.17957e-31 -2.05619e-15 -0)
(3.0514e-30 -2.05619e-15 -0)
(5.01302e-30 -2.05619e-15 -0)
(3.70527e-30 -2.05619e-15 -0)
(3.26936e-31 -2.05619e-15 -0)
(-1.08979e-31 -2.05619e-15 -0)
(-3.92323e-30 -2.05618e-15 -0)
(-9.80807e-31 -2.05618e-15 -0)
(-2.17957e-31 -2.05618e-15 -0)
(1.08979e-31 -2.05618e-15 -0)
(2.83344e-30 -2.05618e-15 -0)
(1.96161e-30 -2.05618e-15 -0)
(-2.07059e-30 -2.05618e-15 -0)
(-1.08979e-31 -2.05618e-15 -0)
(6.75667e-30 -2.05618e-15 -0)
(5.44893e-30 -2.05618e-15 -0)
(9.80807e-31 -2.05618e-15 -0)
(-4.79506e-30 -2.05619e-15 -0)
(-5.55791e-30 -2.05619e-15 -0)
(-2.28855e-30 -2.05619e-15 -0)
(-2.28855e-30 -2.05619e-15 -0)
(-1.19877e-30 -2.05619e-15 -0)
(2.17958e-30 -2.05619e-15 -0)
(3.26936e-30 -2.05619e-15 -0)
(1.19877e-30 -2.05619e-15 -0)
(-2.17958e-31 -2.05619e-15 -0)
(3.05141e-30 -2.05619e-15 -0)
(2.0706e-30 -2.05619e-15 -0)
(4.03222e-30 -2.05619e-15 -0)
(5.01304e-30 -2.05619e-15 -0)
(2.50652e-30 -2.05619e-15 -0)
(3.59631e-30 -2.0562e-15 -0)
(-3.1604e-30 -2.0562e-15 -0)
(-1.96163e-30 -2.0562e-15 -0)
(3.7053e-30 -2.0562e-15 -0)
(-6.53876e-31 -2.0562e-15 -0)
(-1.74367e-30 -2.0562e-15 -0)
(1.74367e-30 -2.0562e-15 -0)
(-2.72448e-30 -2.0562e-15 -0)
(-6.32081e-30 -2.0562e-15 -0)
(-2.50653e-30 -2.0562e-15 -0)
(-2.17959e-30 -2.0562e-15 -0)
(-5.44897e-30 -2.0562e-15 -0)
(-1.30775e-30 -2.0562e-15 -0)
(5.01306e-30 -2.0562e-15 -0)
(2.39755e-30 -2.0562e-15 -0)
(-1.58697e-30 -2.05609e-15 -0)
(-3.38553e-30 -2.05609e-15 -0)
(5.28989e-31 -2.05609e-15 -0)
(-1.58697e-30 -2.05609e-15 -0)
(-2.11596e-30 -2.05609e-15 -0)
(3.59712e-30 -2.05609e-15 -0)
(3.80872e-30 -2.05609e-15 -0)
(-1.58697e-30 -2.05609e-15 -0)
(-5.50148e-30 -2.05609e-15 -0)
(-4.6551e-30 -2.05609e-15 -0)
(-2.11595e-31 -2.05609e-15 -0)
(2.85654e-30 -2.05609e-15 -0)
(1.05798e-31 -2.05609e-15 -0)
(-2.53914e-30 -2.05609e-15 -0)
(-8.4638e-31 -2.05609e-15 -0)
(2.75074e-30 -2.05608e-15 -0)
(6.13626e-30 -2.05608e-15 -0)
(4.65509e-30 -2.05608e-15 -0)
(5.28987e-31 -2.05608e-15 -0)
(-9.52177e-31 -2.05608e-15 -0)
(-3.9145e-30 -2.05608e-15 -0)
(-6.34784e-31 -2.05608e-15 -0)
(-5.28987e-31 -2.05608e-15 -0)
(1.05797e-31 -2.05608e-15 -0)
(2.64493e-30 -2.05608e-15 -0)
(1.90435e-30 -2.05608e-15 -0)
(-2.22174e-30 -2.05608e-15 -0)
(3.17392e-31 -2.05608e-15 -0)
(7.40582e-30 -2.05608e-15 -0)
(6.34784e-30 -2.05608e-15 -0)
(1.90435e-30 -2.05608e-15 -0)
(-5.39567e-30 -2.05608e-15 -0)
(-6.77104e-30 -2.05608e-15 -0)
(-2.43334e-30 -2.05608e-15 -0)
(-2.64494e-30 -2.05608e-15 -0)
(-9.52178e-31 -2.05609e-15 -0)
(2.43334e-30 -2.05609e-15 -0)
(2.96233e-30 -2.05609e-15 -0)
(1.37537e-30 -2.05609e-15 -0)
(1.05798e-31 -2.05609e-15 -0)
(2.96234e-30 -2.05609e-15 -0)
(1.79856e-30 -2.05609e-15 -0)
(4.65511e-30 -2.05609e-15 -0)
(6.55947e-30 -2.05609e-15 -0)
(2.85655e-30 -2.05609e-15 -0)
(3.49133e-30 -2.05609e-15 -0)
(-3.27974e-30 -2.0561e-15 -0)
(-2.22176e-30 -2.0561e-15 -0)
(4.23193e-30 -2.0561e-15 -0)
(-7.40587e-31 -2.0561e-15 -0)
(-1.79857e-30 -2.0561e-15 -0)
(2.11596e-30 -2.0561e-15 -0)
(-3.27975e-30 -2.0561e-15 -0)
(-6.87689e-30 -2.0561e-15 -0)
(-3.27975e-30 -2.0561e-15 -0)
(-2.32756e-30 -2.0561e-15 -0)
(-5.81891e-30 -2.0561e-15 -0)
(-1.79857e-30 -2.0561e-15 -0)
(5.50151e-30 -2.0561e-15 -0)
(2.85656e-30 -2.0561e-15 -0)
(-1.95148e-30 -2.05598e-15 -0)
(-3.90295e-30 -2.05598e-15 -0)
(6.16256e-31 -2.05598e-15 -0)
(-1.74606e-30 -2.05598e-15 -0)
(-2.2596e-30 -2.05598e-15 -0)
(3.90295e-30 -2.05598e-15 -0)
(4.00566e-30 -2.05598e-15 -0)
(-2.05418e-30 -2.05598e-15 -0)
(-6.05984e-30 -2.05598e-15 -0)
(-4.82733e-30 -2.05598e-15 -0)
(-3.08127e-31 -2.05598e-15 -0)
(3.28669e-30 -2.05598e-15 -0)
(1.02709e-31 -2.05598e-15 -0)
(-2.87585e-30 -2.05598e-15 -0)
(-6.16254e-31 -2.05598e-15 -0)
(2.97856e-30 -2.05598e-15 -0)
(6.57338e-30 -2.05598e-15 -0)
(4.72461e-30 -2.05598e-15 -0)
(8.21672e-31 -2.05598e-15 -0)
(-9.2438e-31 -2.05598e-15 -0)
(-4.21107e-30 -2.05598e-15 -0)
(-6.16253e-31 -2.05598e-15 -0)
(-6.16253e-31 -2.05598e-15 -0)
(-1.02709e-31 -2.05598e-15 -0)
(3.18397e-30 -2.05598e-15 -0)
(2.2596e-30 -2.05598e-15 -0)
(-2.46501e-30 -2.05598e-15 -0)
(5.13544e-31 -2.05598e-15 -0)
(8.42213e-30 -2.05598e-15 -0)
(5.64899e-30 -2.05598e-15 -0)
(1.43792e-30 -2.05598e-15 -0)
(-5.44357e-30 -2.05598e-15 -0)
(-6.8815e-30 -2.05598e-15 -0)
(-2.97856e-30 -2.05598e-15 -0)
(-3.08127e-30 -2.05598e-15 -0)
(-6.16254e-31 -2.05598e-15 -0)
(2.87586e-30 -2.05598e-15 -0)
(3.28669e-30 -2.05598e-15 -0)
(7.18964e-31 -2.05598e-15 -0)
(-0 -2.05598e-15 -0)
(3.80024e-30 -2.05598e-15 -0)
(2.36232e-30 -2.05599e-15 -0)
(4.72463e-30 -2.05599e-15 -0)
(6.77882e-30 -2.05599e-15 -0)
(4.10838e-30 -2.05599e-15 -0)
(4.21109e-30 -2.05599e-15 -0)
(-4.00567e-30 -2.05599e-15 -0)
(-2.46503e-30 -2.05599e-15 -0)
(4.31381e-30 -2.05599e-15 -0)
(-1.12981e-30 -2.05599e-15 -0)
(-1.84878e-30 -2.05599e-15 -0)
(2.46504e-30 -2.05599e-15 -0)
(-3.28671e-30 -2.05599e-15 -0)
(-7.70324e-30 -2.056e-15 -0)
(-3.28672e-30 -2.056e-15 -0)
(-2.36233e-30 -2.056e-15 -0)
(-7.2924e-30 -2.056e-15 -0)
(-2.15691e-30 -2.056e-15 -0)
(6.2653e-30 -2.056e-15 -0)
(2.77317e-30 -2.056e-15 -0)
(-1.59537e-30 -2.05587e-15 -0)
(-3.78901e-30 -2.05587e-15 -0)
(1.99422e-31 -2.05587e-15 -0)
(-2.39306e-30 -2.05587e-15 -0)
(-2.59248e-30 -2.05587e-15 -0)
(4.58669e-30 -2.05587e-15 -0)
(3.98843e-30 -2.05587e-15 -0)
(-2.59248e-30 -2.05587e-15 -0)
(-5.98264e-30 -2.05587e-15 -0)
(-5.78322e-30 -2.05587e-15 -0)
(-1.99421e-31 -2.05587e-15 -0)
(3.98842e-30 -2.05587e-15 -0)
(-3.98842e-31 -2.05587e-15 -0)
(-3.98842e-30 -2.05587e-15 -0)
(-7.97684e-31 -2.05587e-15 -0)
(3.39016e-30 -2.05587e-15 -0)
(7.37857e-30 -2.05587e-15 -0)
(5.98263e-30 -2.05587e-15 -0)
(9.97104e-31 -2.05587e-15 -0)
(-1.19652e-30 -2.05587e-15 -0)
(-4.38726e-30 -2.05587e-15 -0)
(-3.98841e-31 -2.05587e-15 -0)
(-5.98262e-31 -2.05587e-15 -0)
(3.98841e-31 -2.05587e-15 -0)
(2.39305e-30 -2.05587e-15 -0)
(2.39305e-30 -2.05587e-15 -0)
(-1.79479e-30 -2.05587e-15 -0)
(9.97103e-31 -2.05587e-15 -0)
(9.17335e-30 -2.05587e-15 -0)
(6.58088e-30 -2.05587e-15 -0)
(5.98262e-31 -2.05587e-15 -0)
(-6.18205e-30 -2.05587e-15 -0)
(-7.17915e-30 -2.05587e-15 -0)
(-3.789e-30 -2.05587e-15 -0)
(-3.39016e-30 -2.05587e-15 -0)
(-0 -2.05587e-15 -0)
(3.19074e-30 -2.05587e-15 -0)
(3.19074e-30 -2.05587e-15 -0)
(1.39595e-30 -2.05587e-15 -0)
(-3.98843e-31 -2.05587e-15 -0)
(3.98843e-30 -2.05588e-15 -0)
(2.99133e-30 -2.05588e-15 -0)
(4.98554e-30 -2.05588e-15 -0)
(7.77745e-30 -2.05588e-15 -0)
(3.98844e-30 -2.05588e-15 -0)
(3.5896e-30 -2.05588e-15 -0)
(-3.78902e-30 -2.05588e-15 -0)
(-2.39307e-30 -2.05588e-15 -0)
(4.58672e-30 -2.05588e-15 -0)
(-1.19653e-30 -2.05588e-15 -0)
(-1.99423e-30 -2.05589e-15 -0)
(2.39307e-30 -2.05589e-15 -0)
(-3.58961e-30 -2.05589e-15 -0)
(-7.77749e-30 -2.05589e-15 -0)
(-3.98846e-30 -2.05589e-15 -0)
(-2.39307e-30 -2.05589e-15 -0)
(-7.37865e-30 -2.05589e-15 -0)
(-2.39307e-30 -2.05589e-15 -0)
(6.78038e-30 -2.05589e-15 -0)
(2.99134e-30 -2.05589e-15 -0)
(-2.12959e-30 -2.05576e-15 -0)
(-3.87198e-30 -2.05576e-15 -0)
(-1.93599e-31 -2.05576e-15 -0)
(-2.71039e-30 -2.05576e-15 -0)
(-1.54879e-30 -2.05576e-15 -0)
(4.83998e-30 -2.05576e-15 -0)
(4.64638e-30 -2.05576e-15 -0)
(-2.71039e-30 -2.05576e-15 -0)
(-7.16316e-30 -2.05576e-15 -0)
(-5.61437e-30 -2.05576e-15 -0)
(-1.93599e-31 -2.05576e-15 -0)
(3.09758e-30 -2.05576e-15 -0)
(-7.74395e-31 -2.05576e-15 -0)
(-3.87197e-30 -2.05576e-15 -0)
(-7.74395e-31 -2.05576e-15 -0)
(3.29118e-30 -2.05575e-15 -0)
(8.32474e-30 -2.05575e-15 -0)
(6.58235e-30 -2.05575e-15 -0)
(5.80795e-31 -2.05575e-15 -0)
(-1.35519e-30 -2.05575e-15 -0)
(-4.25916e-30 -2.05575e-15 -0)
(1.93598e-31 -2.05575e-15 -0)
(-1.93598e-31 -2.05575e-15 -0)
(1.93598e-31 -2.05575e-15 -0)
(2.90397e-30 -2.05575e-15 -0)
(2.12958e-30 -2.05575e-15 -0)
(-2.90397e-30 -2.05575e-15 -0)
(7.74393e-31 -2.05575e-15 -0)
(9.67992e-30 -2.05575e-15 -0)
(6.77594e-30 -2.05575e-15 -0)
(2.12958e-30 -2.05575e-15 -0)
(-6.38875e-30 -2.05575e-15 -0)
(-8.13114e-30 -2.05575e-15 -0)
(-3.87197e-30 -2.05575e-15 -0)
(-3.87197e-30 -2.05576e-15 -0)
(-0 -2.05576e-15 -0)
(3.87198e-30 -2.05576e-15 -0)
(3.29118e-30 -2.05576e-15 -0)
(1.54879e-30 -2.05576e-15 -0)
(1.93599e-31 -2.05576e-15 -0)
(3.48479e-30 -2.05576e-15 -0)
(2.90399e-30 -2.05576e-15 -0)
(5.61438e-30 -2.05576e-15 -0)
(8.90558e-30 -2.05577e-15 -0)
(4.06559e-30 -2.05577e-15 -0)
(3.872e-30 -2.05577e-15 -0)
(-3.872e-30 -2.05577e-15 -0)
(-2.5168e-30 -2.05577e-15 -0)
(4.4528e-30 -2.05577e-15 -0)
(-1.1616e-30 -2.05577e-15 -0)
(-2.5168e-30 -2.05577e-15 -0)
(2.1296e-30 -2.05577e-15 -0)
(-3.48481e-30 -2.05577e-15 -0)
(-7.93762e-30 -2.05577e-15 -0)
(-4.06561e-30 -2.05578e-15 -0)
(-3.09761e-30 -2.05578e-15 -0)
(-7.93762e-30 -2.05578e-15 -0)
(-2.51681e-30 -2.05578e-15 -0)
(7.16322e-30 -2.05578e-15 -0)
(3.09761e-30 -2.05578e-15 -0)
(-2.06741e-30 -2.05564e-15 -0)
(-5.2625e-30 -2.05564e-15 -0)
(-3.75893e-31 -2.05564e-15 -0)
(-1.50357e-30 -2.05564e-15 -0)
(-1.69152e-30 -2.05564e-15 -0)
(4.51071e-30 -2.05564e-15 -0)
(4.8866e-30 -2.05564e-15 -0)
(-2.4433e-30 -2.05564e-15 -0)
(-7.3299e-30 -2.05564e-15 -0)
(-6.57812e-30 -2.05564e-15 -0)
(-1.12768e-30 -2.05564e-15 -0)
(3.75892e-30 -2.05564e-15 -0)
(-3.75892e-31 -2.05564e-15 -0)
(-3.57097e-30 -2.05564e-15 -0)
(-7.51784e-31 -2.05564e-15 -0)
(3.75892e-30 -2.05564e-15 -0)
(8.83345e-30 -2.05564e-15 -0)
(7.32988e-30 -2.05564e-15 -0)
(1.87946e-30 -2.05563e-15 -0)
(-1.87946e-30 -2.05563e-15 -0)
(-5.26248e-30 -2.05563e-15 -0)
(5.63837e-31 -2.05563e-15 -0)
(-1.87946e-31 -2.05563e-15 -0)
(-0 -2.05563e-15 -0)
(2.25535e-30 -2.05563e-15 -0)
(1.12767e-30 -2.05563e-15 -0)
(-2.44329e-30 -2.05563e-15 -0)
(2.0674e-30 -2.05563e-15 -0)
(1.07129e-29 -2.05563e-15 -0)
(6.95399e-30 -2.05563e-15 -0)
(1.87946e-30 -2.05563e-15 -0)
(-7.51783e-30 -2.05563e-15 -0)
(-8.26961e-30 -2.05564e-15 -0)
(-4.5107e-30 -2.05564e-15 -0)
(-4.13481e-30 -2.05564e-15 -0)
(3.75892e-31 -2.05564e-15 -0)
(3.00714e-30 -2.05564e-15 -0)
(4.13482e-30 -2.05564e-15 -0)
(2.25536e-30 -2.05564e-15 -0)
(-1.87946e-31 -2.05564e-15 -0)
(3.94688e-30 -2.05564e-15 -0)
(2.8192e-30 -2.05565e-15 -0)
(6.0143e-30 -2.05565e-15 -0)
(1.01491e-29 -2.05565e-15 -0)
(5.63841e-30 -2.05565e-15 -0)
(3.38305e-30 -2.05565e-15 -0)
(-3.94689e-30 -2.05565e-15 -0)
(-2.63126e-30 -2.05565e-15 -0)
(3.19511e-30 -2.05565e-15 -0)
(-1.69153e-30 -2.05565e-15 -0)
(-2.25537e-30 -2.05566e-15 -0)
(2.81921e-30 -2.05566e-15 -0)
(-3.19511e-30 -2.05566e-15 -0)
(-8.83355e-30 -2.05566e-15 -0)
(-3.75896e-30 -2.05566e-15 -0)
(-3.75896e-30 -2.05566e-15 -0)
(-9.39739e-30 -2.05566e-15 -0)
(-2.06743e-30 -2.05566e-15 -0)
(8.08176e-30 -2.05566e-15 -0)
(3.38306e-30 -2.05566e-15 -0)
(-1.64213e-30 -2.05552e-15 -0)
(-4.92638e-30 -2.05552e-15 -0)
(-3.64917e-31 -2.05552e-15 -0)
(-1.45967e-30 -2.05552e-15 -0)
(-1.45967e-30 -2.05552e-15 -0)