/*--------------------------------*- C++ -*----------------------------------*\
| =========                 |                                                 |
| \\      /  F ield         | foam-extend: Open Source CFD                    |
|  \\    /   O peration     | Version:     4.0                                |
|   \\  /    A nd           | Web:         http://www.foam-extend.org         |
|    \\/     M anipulation  |                                                 |
\*---------------------------------------------------------------------------*/
FoamFile
{
    version     2.0;
    format      ascii;
    class       volScalarField;
    location    "6";
    object      p;
}
// * * * * * * * * * * * * * * * * * * * * * * * * * * * * * * * * * * * * * //

dimensions      [0 2 -2 0 0 0 0];

internalField   nonuniform List<scalar> 
6960
(
-1.08573e-14
-3.99419e-10
-4.00559e-10
-4.03272e-10
-4.05792e-10
-4.07909e-10
-4.08116e-10
-4.0736e-10
-4.0545e-10
-4.03152e-10
-4.00906e-10
-3.99332e-10
-3.9873e-10
-3.99231e-10
-4.00669e-10
-4.02674e-10
-4.04754e-10
-4.06413e-10
-4.07279e-10
-4.07181e-10
-4.06191e-10
-4.04597e-10
-4.02821e-10
-4.01311e-10
-4.00421e-10
-4.0033e-10
-4.00998e-10
-4.02197e-10
-4.03572e-10
-4.04748e-10
-4.05424e-10
-4.05453e-10
-4.04857e-10
-4.03823e-10
-4.02628e-10
-4.01577e-10
-4.009e-10
-4.00743e-10
-4.0108e-10
-4.0183e-10
-4.02753e-10
-4.037e-10
-4.04384e-10
-4.04785e-10
-4.04672e-10
-4.04247e-10
-4.03314e-10
-4.02308e-10
-4.00992e-10
-4.00025e-10
-3.99034e-10
-3.9883e-10
-3.98711e-10
-3.99546e-10
-3.99987e-10
-4.01167e-10
-4.00987e-10
-4.01359e-10
-4.0051e-10
-4.00521e-10
-5.1208e-10
-4.01437e-10
-4.00482e-10
-4.01164e-10
-4.01447e-10
-4.02288e-10
-4.02445e-10
-4.02689e-10
-4.02545e-10
-4.02327e-10
-4.01942e-10
-4.01586e-10
-4.01288e-10
-4.01155e-10
-4.01206e-10
-4.01442e-10
-4.01813e-10
-4.02237e-10
-4.02621e-10
-4.02876e-10
-4.0295e-10
-4.02833e-10
-4.02563e-10
-4.02218e-10
-4.0189e-10
-4.0167e-10
-4.0161e-10
-4.01725e-10
-4.01978e-10
-4.02298e-10
-4.02595e-10
-4.02793e-10
-4.0284e-10
-4.02734e-10
-4.02506e-10
-4.02234e-10
-4.01983e-10
-4.01843e-10
-4.01827e-10
-4.01965e-10
-4.02176e-10
-4.02445e-10
-4.02629e-10
-4.02749e-10
-4.02677e-10
-4.0254e-10
-4.02248e-10
-4.02029e-10
-4.01776e-10
-4.01732e-10
-4.0169e-10
-4.01846e-10
-4.01861e-10
-4.01973e-10
-4.01718e-10
-4.01648e-10
-4.01144e-10
-4.01169e-10
-4.00866e-10
-4.01299e-10
-7.30804e-10
-4.0438e-10
-4.02603e-10
-4.0185e-10
-3.99783e-10
-3.98962e-10
-3.98277e-10
-3.98615e-10
-3.99364e-10
-4.00614e-10
-4.01823e-10
-4.02817e-10
-4.03287e-10
-4.03198e-10
-4.02584e-10
-4.01652e-10
-4.00658e-10
-3.99868e-10
-3.99478e-10
-3.99572e-10
-4.00102e-10
-4.00914e-10
-4.0179e-10
-4.02508e-10
-4.02903e-10
-4.02908e-10
-4.0256e-10
-4.01991e-10
-4.0138e-10
-4.00905e-10
-4.00696e-10
-4.00805e-10
-4.01192e-10
-4.01754e-10
-4.02338e-10
-4.02812e-10
-4.03054e-10
-4.03038e-10
-4.02755e-10
-4.02313e-10
-4.01777e-10
-4.01314e-10
-4.0096e-10
-4.00854e-10
-4.00946e-10
-4.01306e-10
-4.01795e-10
-4.02414e-10
-4.02988e-10
-4.03456e-10
-4.03698e-10
-4.03646e-10
-4.03335e-10
-4.02819e-10
-4.02243e-10
-4.01925e-10
-4.01679e-10
-4.02161e-10
-4.02021e-10
-4.02288e-10
-4.63927e-10
-4.03792e-10
-4.02568e-10
-4.02349e-10
-4.00851e-10
-4.00432e-10
-3.99863e-10
-4.00039e-10
-4.00387e-10
-4.01124e-10
-4.01841e-10
-4.0249e-10
-4.02837e-10
-4.02861e-10
-4.02547e-10
-4.02008e-10
-4.01384e-10
-4.00846e-10
-4.00528e-10
-4.00508e-10
-4.00782e-10
-4.01274e-10
-4.01855e-10
-4.02379e-10
-4.02722e-10
-4.02815e-10
-4.02657e-10
-4.02313e-10
-4.01892e-10
-4.01519e-10
-4.01296e-10
-4.01284e-10
-4.01478e-10
-4.01828e-10
-4.02233e-10
-4.02601e-10
-4.02826e-10
-4.02878e-10
-4.02719e-10
-4.02427e-10
-4.02027e-10
-4.01668e-10
-4.01361e-10
-4.01257e-10
-4.01287e-10
-4.01551e-10
-4.01882e-10
-4.02327e-10
-4.02673e-10
-4.02951e-10
-4.02996e-10
-4.02891e-10
-4.02576e-10
-4.02285e-10
-4.01906e-10
-4.01972e-10
-4.01791e-10
-4.02448e-10
-4.02073e-10
-4.02205e-10
-3.30266e-10
-4.02324e-10
-4.0068e-10
-4.01023e-10
-4.00683e-10
-4.01296e-10
-4.01569e-10
-4.02162e-10
-4.02458e-10
-4.02715e-10
-4.02718e-10
-4.02608e-10
-4.02359e-10
-4.02075e-10
-4.0179e-10
-4.01566e-10
-4.01433e-10
-4.0141e-10
-4.01496e-10
-4.01674e-10
-4.0191e-10
-4.02164e-10
-4.02389e-10
-4.02547e-10
-4.02611e-10
-4.02575e-10
-4.02452e-10
-4.02277e-10
-4.02091e-10
-4.01938e-10
-4.01848e-10
-4.01841e-10
-4.01907e-10
-4.02031e-10
-4.02175e-10
-4.02315e-10
-4.0241e-10
-4.02463e-10
-4.0244e-10
-4.02385e-10
-4.02263e-10
-4.0215e-10
-4.01995e-10
-4.019e-10
-4.01785e-10
-4.01778e-10
-4.01762e-10
-4.01871e-10
-4.01951e-10
-4.02118e-10
-4.0219e-10
-4.02285e-10
-4.02197e-10
-4.02171e-10
-4.01877e-10
-4.01938e-10
-4.01556e-10
-4.0198e-10
-4.01532e-10
-4.0192e-10
-3.67139e-10
-4.02342e-10
-4.00564e-10
-4.00974e-10
-4.00728e-10
-4.01385e-10
-4.01676e-10
-4.02254e-10
-4.02509e-10
-4.02703e-10
-4.02644e-10
-4.02485e-10
-4.02219e-10
-4.01957e-10
-4.01735e-10
-4.01601e-10
-4.01568e-10
-4.01628e-10
-4.01761e-10
-4.01934e-10
-4.02115e-10
-4.02276e-10
-4.02393e-10
-4.02455e-10
-4.02458e-10
-4.02412e-10
-4.02329e-10
-4.02233e-10
-4.02141e-10
-4.02073e-10
-4.02039e-10
-4.02045e-10
-4.02084e-10
-4.0215e-10
-4.02221e-10
-4.02294e-10
-4.02339e-10
-4.02368e-10
-4.0235e-10
-4.02319e-10
-4.02233e-10
-4.02159e-10
-4.02038e-10
-4.0197e-10
-4.0187e-10
-4.01866e-10
-4.01838e-10
-4.01923e-10
-4.01958e-10
-4.02075e-10
-4.02085e-10
-4.02127e-10
-4.02001e-10
-4.01956e-10
-4.01679e-10
-4.0175e-10
-4.01421e-10
-4.01816e-10
-4.01433e-10
-4.01858e-10
-3.9439e-10
-4.02664e-10
-4.01453e-10
-4.01832e-10
-4.01326e-10
-4.01613e-10
-4.01455e-10
-4.01664e-10
-4.01703e-10
-4.01866e-10
-4.01936e-10
-4.02017e-10
-4.0203e-10
-4.02022e-10
-4.0198e-10
-4.01933e-10
-4.01893e-10
-4.01875e-10
-4.01884e-10
-4.01923e-10
-4.01983e-10
-4.02054e-10
-4.02124e-10
-4.0218e-10
-4.02215e-10
-4.02228e-10
-4.02219e-10
-4.02199e-10
-4.02174e-10
-4.02156e-10
-4.02151e-10
-4.02163e-10
-4.02189e-10
-4.02228e-10
-4.02266e-10
-4.02305e-10
-4.0232e-10
-4.02326e-10
-4.02292e-10
-4.02256e-10
-4.02174e-10
-4.02118e-10
-4.02024e-10
-4.01995e-10
-4.01934e-10
-4.01971e-10
-4.01964e-10
-4.02056e-10
-4.02065e-10
-4.0214e-10
-4.02089e-10
-4.02079e-10
-4.0192e-10
-4.01872e-10
-4.0163e-10
-4.01736e-10
-4.01453e-10
-4.01822e-10
-4.0148e-10
-4.01753e-10
-4.00682e-10
-4.02652e-10
-4.01747e-10
-4.02163e-10
-4.01622e-10
-4.01821e-10
-4.01512e-10
-4.01574e-10
-4.01502e-10
-4.01613e-10
-4.01687e-10
-4.01823e-10
-4.0192e-10
-4.02002e-10
-4.02036e-10
-4.02038e-10
-4.02014e-10
-4.01983e-10
-4.01959e-10
-4.01953e-10
-4.01969e-10
-4.02004e-10
-4.0205e-10
-4.02097e-10
-4.02138e-10
-4.02167e-10
-4.02183e-10
-4.02189e-10
-4.0219e-10
-4.02192e-10
-4.02198e-10
-4.02212e-10
-4.02229e-10
-4.02253e-10
-4.02271e-10
-4.02289e-10
-4.02289e-10
-4.0229e-10
-4.02261e-10
-4.02242e-10
-4.02186e-10
-4.02159e-10
-4.0209e-10
-4.02077e-10
-4.02016e-10
-4.02038e-10
-4.01999e-10
-4.02056e-10
-4.02027e-10
-4.02085e-10
-4.02028e-10
-4.02046e-10
-4.01919e-10
-4.01924e-10
-4.01704e-10
-4.01829e-10
-4.01508e-10
-4.01843e-10
-4.01479e-10
-4.01688e-10
-4.00168e-10
-4.0253e-10
-4.01531e-10
-4.01987e-10
-4.01533e-10
-4.0183e-10
-4.01622e-10
-4.01753e-10
-4.01708e-10
-4.01802e-10
-4.01827e-10
-4.01896e-10
-4.01927e-10
-4.01957e-10
-4.01964e-10
-4.01963e-10
-4.01958e-10
-4.01958e-10
-4.01968e-10
-4.01993e-10
-4.02029e-10
-4.02073e-10
-4.02116e-10
-4.02153e-10
-4.02178e-10
-4.02192e-10
-4.02194e-10
-4.02191e-10
-4.02187e-10
-4.02188e-10
-4.02194e-10
-4.02209e-10
-4.02227e-10
-4.02249e-10
-4.02263e-10
-4.02279e-10
-4.02278e-10
-4.02281e-10
-4.02261e-10
-4.02253e-10
-4.0221e-10
-4.02194e-10
-4.0213e-10
-4.02113e-10
-4.02039e-10
-4.02039e-10
-4.01976e-10
-4.02011e-10
-4.01972e-10
-4.02033e-10
-4.01992e-10
-4.0204e-10
-4.01938e-10
-4.01968e-10
-4.01744e-10
-4.01863e-10
-4.01504e-10
-4.01826e-10
-4.01446e-10
-4.01691e-10
-4.00246e-10
-4.02491e-10
-4.01374e-10
-4.01839e-10
-4.01419e-10
-4.01769e-10
-4.01633e-10
-4.01828e-10
-4.01823e-10
-4.01928e-10
-4.01938e-10
-4.01973e-10
-4.01962e-10
-4.01952e-10
-4.01929e-10
-4.01913e-10
-4.01907e-10
-4.01919e-10
-4.01949e-10
-4.01995e-10
-4.0205e-10
-4.02107e-10
-4.02157e-10
-4.02194e-10
-4.02213e-10
-4.02217e-10
-4.02208e-10
-4.02195e-10
-4.02182e-10
-4.02177e-10
-4.02181e-10
-4.02196e-10
-4.02216e-10
-4.02242e-10
-4.02261e-10
-4.0228e-10
-4.02283e-10
-4.02288e-10
-4.02268e-10
-4.0226e-10
-4.02216e-10
-4.02197e-10
-4.0213e-10
-4.02107e-10
-4.02028e-10
-4.02024e-10
-4.01958e-10
-4.01993e-10
-4.01958e-10
-4.02025e-10
-4.01993e-10
-4.02048e-10
-4.0195e-10
-4.0198e-10
-4.01748e-10
-4.01857e-10
-4.0149e-10
-4.01805e-10
-4.0143e-10
-4.01706e-10
-4.0082e-10
-4.02499e-10
-4.01358e-10
-4.01822e-10
-4.0139e-10
-4.01736e-10
-4.01604e-10
-4.01809e-10
-4.01816e-10
-4.01933e-10
-4.01952e-10
-4.01992e-10
-4.01981e-10
-4.01967e-10
-4.01937e-10
-4.01913e-10
-4.019e-10
-4.01906e-10
-4.01933e-10
-4.01979e-10
-4.02038e-10
-4.021e-10
-4.02156e-10
-4.02199e-10
-4.02222e-10
-4.02227e-10
-4.02217e-10
-4.02201e-10
-4.02183e-10
-4.02174e-10
-4.02175e-10
-4.02188e-10
-4.02209e-10
-4.02237e-10
-4.02259e-10
-4.02282e-10
-4.02287e-10
-4.02293e-10
-4.02273e-10
-4.02262e-10
-4.02216e-10
-4.02194e-10
-4.02125e-10
-4.02102e-10
-4.02023e-10
-4.02019e-10
-4.01955e-10
-4.01991e-10
-4.01957e-10
-4.02024e-10
-4.01996e-10
-4.02052e-10
-4.01959e-10
-4.01989e-10
-4.01758e-10
-4.01864e-10
-4.01493e-10
-4.01799e-10
-4.0143e-10
-4.0171e-10
-4.01076e-10
-4.0251e-10
-4.01379e-10
-4.01842e-10
-4.01392e-10
-4.01722e-10
-4.01578e-10
-4.01776e-10
-4.01784e-10
-4.01909e-10
-4.01939e-10
-4.01992e-10
-4.01991e-10
-4.01984e-10
-4.01955e-10
-4.01927e-10
-4.01907e-10
-4.01904e-10
-4.01923e-10
-4.01963e-10
-4.0202e-10
-4.02084e-10
-4.02145e-10
-4.02193e-10
-4.02223e-10
-4.02233e-10
-4.02225e-10
-4.02208e-10
-4.02187e-10
-4.02174e-10
-4.02172e-10
-4.02183e-10
-4.02203e-10
-4.02232e-10
-4.02256e-10
-4.02282e-10
-4.02288e-10
-4.02295e-10
-4.02275e-10
-4.02264e-10
-4.02216e-10
-4.02195e-10
-4.02126e-10
-4.02103e-10
-4.02024e-10
-4.02019e-10
-4.01953e-10
-4.01987e-10
-4.0195e-10
-4.02018e-10
-4.01991e-10
-4.02052e-10
-4.01965e-10
-4.02003e-10
-4.01776e-10
-4.01882e-10
-4.01504e-10
-4.018e-10
-4.01431e-10
-4.01708e-10
-4.01109e-10
-4.02519e-10
-4.01395e-10
-4.01859e-10
-4.01394e-10
-4.01712e-10
-4.01558e-10
-4.01751e-10
-4.01759e-10
-4.01889e-10
-4.01929e-10
-4.01992e-10
-4.02e-10
-4.01998e-10
-4.01971e-10
-4.0194e-10
-4.01913e-10
-4.01902e-10
-4.01914e-10
-4.01949e-10
-4.02003e-10
-4.02068e-10
-4.02134e-10
-4.02188e-10
-4.02224e-10
-4.02238e-10
-4.02233e-10
-4.02215e-10
-4.02192e-10
-4.02175e-10
-4.02169e-10
-4.02177e-10
-4.02196e-10
-4.02226e-10
-4.02252e-10
-4.02279e-10
-4.02288e-10
-4.02297e-10
-4.02277e-10
-4.02266e-10
-4.02219e-10
-4.02197e-10
-4.02128e-10
-4.02104e-10
-4.02024e-10
-4.02018e-10
-4.01948e-10
-4.01979e-10
-4.01939e-10
-4.02006e-10
-4.01982e-10
-4.02049e-10
-4.01971e-10
-4.02018e-10
-4.01795e-10
-4.01902e-10
-4.01515e-10
-4.01802e-10
-4.0143e-10
-4.01706e-10
-4.01108e-10
-4.02527e-10
-4.01406e-10
-4.01872e-10
-4.01394e-10
-4.01702e-10
-4.01539e-10
-4.01729e-10
-4.01738e-10
-4.01874e-10
-4.01922e-10
-4.01993e-10
-4.02009e-10
-4.02012e-10
-4.01986e-10
-4.01952e-10
-4.0192e-10
-4.01901e-10
-4.01905e-10
-4.01935e-10
-4.01987e-10
-4.02053e-10
-4.02123e-10
-4.02183e-10
-4.02225e-10
-4.02244e-10
-4.02241e-10
-4.02223e-10
-4.02198e-10
-4.02177e-10
-4.02166e-10
-4.02171e-10
-4.02188e-10
-4.02218e-10
-4.02246e-10
-4.02276e-10
-4.02287e-10
-4.02298e-10
-4.02279e-10
-4.02269e-10
-4.02222e-10
-4.022e-10
-4.02131e-10
-4.02107e-10
-4.02025e-10
-4.02016e-10
-4.01943e-10
-4.01969e-10
-4.01926e-10
-4.01992e-10
-4.0197e-10
-4.02045e-10
-4.01975e-10
-4.02033e-10
-4.01815e-10
-4.01924e-10
-4.01527e-10
-4.01804e-10
-4.01428e-10
-4.01704e-10
-4.01116e-10
-4.02536e-10
-4.01417e-10
-4.01884e-10
-4.01394e-10
-4.01691e-10
-4.01522e-10
-4.01707e-10
-4.01718e-10
-4.01859e-10
-4.01915e-10
-4.01995e-10
-4.02018e-10
-4.02026e-10
-4.02001e-10
-4.01965e-10
-4.01927e-10
-4.01901e-10
-4.01898e-10
-4.01922e-10
-4.01971e-10
-4.02038e-10
-4.02111e-10
-4.02177e-10
-4.02225e-10
-4.0225e-10
-4.0225e-10
-4.02232e-10
-4.02205e-10
-4.0218e-10
-4.02164e-10
-4.02166e-10
-4.0218e-10
-4.0221e-10
-4.02239e-10
-4.02271e-10
-4.02285e-10
-4.02299e-10
-4.02282e-10
-4.02273e-10
-4.02226e-10
-4.02204e-10
-4.02134e-10
-4.0211e-10
-4.02027e-10
-4.02015e-10
-4.01936e-10
-4.01958e-10
-4.01911e-10
-4.01976e-10
-4.01956e-10
-4.02038e-10
-4.01977e-10
-4.02047e-10
-4.01835e-10
-4.01948e-10
-4.01541e-10
-4.01809e-10
-4.01426e-10
-4.01702e-10
-4.01129e-10
-4.02548e-10
-4.01429e-10
-4.01899e-10
-4.01396e-10
-4.01682e-10
-4.01504e-10
-4.01686e-10
-4.01697e-10
-4.01842e-10
-4.01905e-10
-4.01995e-10
-4.02026e-10
-4.02041e-10
-4.02018e-10
-4.0198e-10
-4.01936e-10
-4.01903e-10
-4.01891e-10
-4.01909e-10
-4.01954e-10
-4.02021e-10
-4.02098e-10
-4.0217e-10
-4.02225e-10
-4.02255e-10
-4.02259e-10
-4.02242e-10
-4.02213e-10
-4.02184e-10
-4.02163e-10
-4.0216e-10
-4.02172e-10
-4.02201e-10
-4.02231e-10
-4.02266e-10
-4.02283e-10
-4.02299e-10
-4.02284e-10
-4.02276e-10
-4.0223e-10
-4.02209e-10
-4.02139e-10
-4.02115e-10
-4.02029e-10
-4.02014e-10
-4.01931e-10
-4.01948e-10
-4.01895e-10
-4.01958e-10
-4.01939e-10
-4.02028e-10
-4.01978e-10
-4.0206e-10
-4.01856e-10
-4.01974e-10
-4.01558e-10
-4.01816e-10
-4.01426e-10
-4.01699e-10
-4.01139e-10
-4.02561e-10
-4.01445e-10
-4.01917e-10
-4.014e-10
-4.01675e-10
-4.01488e-10
-4.01663e-10
-4.01673e-10
-4.01823e-10
-4.01894e-10
-4.01992e-10
-4.02033e-10
-4.02054e-10
-4.02035e-10
-4.01996e-10
-4.01948e-10
-4.01906e-10
-4.01887e-10
-4.01897e-10
-4.01937e-10
-4.02003e-10
-4.02083e-10
-4.0216e-10
-4.02222e-10
-4.0226e-10
-4.02268e-10
-4.02253e-10
-4.02222e-10
-4.02189e-10
-4.02164e-10
-4.02156e-10
-4.02165e-10
-4.02192e-10
-4.02223e-10
-4.0226e-10
-4.0228e-10
-4.02298e-10
-4.02286e-10
-4.0228e-10
-4.02235e-10
-4.02215e-10
-4.02145e-10
-4.0212e-10
-4.02033e-10
-4.02015e-10
-4.01926e-10
-4.01937e-10
-4.01878e-10
-4.01938e-10
-4.0192e-10
-4.02016e-10
-4.01976e-10
-4.02072e-10
-4.01877e-10
-4.02002e-10
-4.01576e-10
-4.01826e-10
-4.01426e-10
-4.01696e-10
-4.01146e-10
-4.02575e-10
-4.01463e-10
-4.01939e-10
-4.01408e-10
-4.01671e-10
-4.01472e-10
-4.0164e-10
-4.01649e-10
-4.01801e-10
-4.01879e-10
-4.01988e-10
-4.02039e-10
-4.02068e-10
-4.02053e-10
-4.02014e-10
-4.01961e-10
-4.01913e-10
-4.01884e-10
-4.01885e-10
-4.0192e-10
-4.01984e-10
-4.02066e-10
-4.02149e-10
-4.02218e-10
-4.02262e-10
-4.02276e-10
-4.02263e-10
-4.02232e-10
-4.02195e-10
-4.02165e-10
-4.02152e-10
-4.02157e-10
-4.02183e-10
-4.02214e-10
-4.02252e-10
-4.02275e-10
-4.02297e-10
-4.02287e-10
-4.02283e-10
-4.0224e-10
-4.02221e-10
-4.02152e-10
-4.02127e-10
-4.02038e-10
-4.02017e-10
-4.01922e-10
-4.01926e-10
-4.0186e-10
-4.01917e-10
-4.01898e-10
-4.02001e-10
-4.01971e-10
-4.02083e-10
-4.01897e-10
-4.02031e-10
-4.01597e-10
-4.01839e-10
-4.01426e-10
-4.01692e-10
-4.01147e-10
-4.02591e-10
-4.01483e-10
-4.01963e-10
-4.01419e-10
-4.0167e-10
-4.01459e-10
-4.01618e-10
-4.01623e-10
-4.01777e-10
-4.01862e-10
-4.0198e-10
-4.02042e-10
-4.0208e-10
-4.02071e-10
-4.02033e-10
-4.01977e-10
-4.01921e-10
-4.01883e-10
-4.01876e-10
-4.01904e-10
-4.01965e-10
-4.02047e-10
-4.02136e-10
-4.02212e-10
-4.02264e-10
-4.02284e-10
-4.02274e-10
-4.02242e-10
-4.02203e-10
-4.02168e-10
-4.0215e-10
-4.0215e-10
-4.02173e-10
-4.02204e-10
-4.02244e-10
-4.0227e-10
-4.02295e-10
-4.02288e-10
-4.02286e-10
-4.02245e-10
-4.02228e-10
-4.0216e-10
-4.02136e-10
-4.02044e-10
-4.0202e-10
-4.01919e-10
-4.01916e-10
-4.01842e-10
-4.01894e-10
-4.01873e-10
-4.01982e-10
-4.01963e-10
-4.02091e-10
-4.01917e-10
-4.02062e-10
-4.01621e-10
-4.01856e-10
-4.01429e-10
-4.01689e-10
-4.01145e-10
-4.02608e-10
-4.01506e-10
-4.0199e-10
-4.01433e-10
-4.01671e-10
-4.01447e-10
-4.01596e-10
-4.01597e-10
-4.01751e-10
-4.01842e-10
-4.0197e-10
-4.02043e-10
-4.02091e-10
-4.02089e-10
-4.02054e-10
-4.01995e-10
-4.01932e-10
-4.01885e-10
-4.01868e-10
-4.01888e-10
-4.01945e-10
-4.02028e-10
-4.0212e-10
-4.02204e-10
-4.02264e-10
-4.0229e-10
-4.02285e-10
-4.02254e-10
-4.02212e-10
-4.02172e-10
-4.02148e-10
-4.02144e-10
-4.02164e-10
-4.02194e-10
-4.02235e-10
-4.02263e-10
-4.02291e-10
-4.02287e-10
-4.02289e-10
-4.0225e-10
-4.02235e-10
-4.02168e-10
-4.02145e-10
-4.02053e-10
-4.02025e-10
-4.01918e-10
-4.01907e-10
-4.01823e-10
-4.01869e-10
-4.01846e-10
-4.0196e-10
-4.01951e-10
-4.02096e-10
-4.01936e-10
-4.02095e-10
-4.01646e-10
-4.01877e-10
-4.01432e-10
-4.01684e-10
-4.0114e-10
-4.02625e-10
-4.0153e-10
-4.02021e-10
-4.01451e-10
-4.01677e-10
-4.01439e-10
-4.01576e-10
-4.0157e-10
-4.01723e-10
-4.0182e-10
-4.01957e-10
-4.02041e-10
-4.021e-10
-4.02106e-10
-4.02075e-10
-4.02014e-10
-4.01946e-10
-4.01889e-10
-4.01862e-10
-4.01873e-10
-4.01925e-10
-4.02007e-10
-4.02103e-10
-4.02193e-10
-4.02262e-10
-4.02296e-10
-4.02296e-10
-4.02266e-10
-4.02222e-10
-4.02177e-10
-4.02148e-10
-4.02138e-10
-4.02154e-10
-4.02183e-10
-4.02225e-10
-4.02255e-10
-4.02287e-10
-4.02286e-10
-4.02291e-10
-4.02255e-10
-4.02243e-10
-4.02178e-10
-4.02156e-10
-4.02062e-10
-4.02032e-10
-4.01918e-10
-4.019e-10
-4.01805e-10
-4.01844e-10
-4.01816e-10
-4.01935e-10
-4.01936e-10
-4.02099e-10
-4.01953e-10
-4.02128e-10
-4.01673e-10
-4.01902e-10
-4.01437e-10
-4.0168e-10
-4.01132e-10
-4.02642e-10
-4.01556e-10
-4.02053e-10
-4.01473e-10
-4.01686e-10
-4.01433e-10
-4.01557e-10
-4.01543e-10
-4.01694e-10
-4.01795e-10
-4.01941e-10
-4.02037e-10
-4.02108e-10
-4.02123e-10
-4.02097e-10
-4.02036e-10
-4.01962e-10
-4.01896e-10
-4.01858e-10
-4.0186e-10
-4.01905e-10
-4.01985e-10
-4.02084e-10
-4.02181e-10
-4.02258e-10
-4.023e-10
-4.02306e-10
-4.02278e-10
-4.02233e-10
-4.02184e-10
-4.02149e-10
-4.02134e-10
-4.02145e-10
-4.02172e-10
-4.02214e-10
-4.02246e-10
-4.02281e-10
-4.02284e-10
-4.02292e-10
-4.02259e-10
-4.0225e-10
-4.02188e-10
-4.02168e-10
-4.02074e-10
-4.02042e-10
-4.0192e-10
-4.01894e-10
-4.01787e-10
-4.01818e-10
-4.01784e-10
-4.01907e-10
-4.01916e-10
-4.02098e-10
-4.01968e-10
-4.02161e-10
-4.01703e-10
-4.01932e-10
-4.01444e-10
-4.01675e-10
-4.01123e-10
-4.02659e-10
-4.01582e-10
-4.02089e-10
-4.01498e-10
-4.017e-10
-4.01431e-10
-4.01541e-10
-4.01517e-10
-4.01664e-10
-4.01768e-10
-4.01921e-10
-4.02029e-10
-4.02113e-10
-4.02139e-10
-4.02119e-10
-4.02059e-10
-4.0198e-10
-4.01906e-10
-4.01857e-10
-4.01848e-10
-4.01886e-10
-4.01963e-10
-4.02063e-10
-4.02166e-10
-4.02252e-10
-4.02303e-10
-4.02315e-10
-4.02291e-10
-4.02245e-10
-4.02192e-10
-4.02152e-10
-4.0213e-10
-4.02137e-10
-4.02161e-10
-4.02203e-10
-4.02237e-10
-4.02274e-10
-4.02281e-10
-4.02293e-10
-4.02263e-10
-4.02258e-10
-4.02198e-10
-4.02181e-10
-4.02087e-10
-4.02053e-10
-4.01925e-10
-4.0189e-10
-4.01771e-10
-4.01793e-10
-4.0175e-10
-4.01875e-10
-4.01892e-10
-4.02093e-10
-4.0198e-10
-4.02194e-10
-4.01733e-10
-4.01966e-10
-4.01452e-10
-4.0167e-10
-4.01113e-10
-4.02674e-10
-4.0161e-10
-4.02126e-10
-4.01527e-10
-4.01718e-10
-4.01433e-10
-4.01527e-10
-4.01493e-10
-4.01634e-10
-4.01738e-10
-4.01899e-10
-4.02018e-10
-4.02115e-10
-4.02153e-10
-4.0214e-10
-4.02083e-10
-4.02001e-10
-4.01919e-10
-4.01858e-10
-4.01839e-10
-4.01867e-10
-4.0194e-10
-4.02041e-10
-4.02149e-10
-4.02243e-10
-4.02303e-10
-4.02323e-10
-4.02303e-10
-4.02258e-10
-4.02202e-10
-4.02156e-10
-4.02128e-10
-4.02129e-10
-4.02149e-10
-4.0219e-10
-4.02226e-10
-4.02266e-10
-4.02276e-10
-4.02292e-10
-4.02267e-10
-4.02265e-10
-4.02209e-10
-4.02195e-10
-4.02101e-10
-4.02066e-10
-4.01932e-10
-4.01889e-10
-4.01756e-10
-4.01768e-10
-4.01714e-10
-4.01841e-10
-4.01863e-10
-4.02083e-10
-4.01987e-10
-4.02226e-10
-4.01765e-10
-4.02005e-10
-4.01462e-10
-4.01666e-10
-4.01102e-10
-4.02688e-10
-4.01637e-10
-4.02165e-10
-4.01559e-10
-4.0174e-10
-4.01439e-10
-4.01517e-10
-4.0147e-10
-4.01603e-10
-4.01707e-10
-4.01873e-10
-4.02004e-10
-4.02113e-10
-4.02164e-10
-4.02162e-10
-4.02109e-10
-4.02024e-10
-4.01934e-10
-4.01863e-10
-4.01832e-10
-4.0185e-10
-4.01917e-10
-4.02018e-10
-4.0213e-10
-4.02232e-10
-4.02302e-10
-4.0233e-10
-4.02316e-10
-4.02272e-10
-4.02213e-10
-4.02161e-10
-4.02127e-10
-4.02122e-10
-4.02139e-10
-4.02178e-10
-4.02214e-10
-4.02256e-10
-4.0227e-10
-4.0229e-10
-4.02269e-10
-4.02272e-10
-4.0222e-10
-4.02209e-10
-4.02117e-10
-4.02082e-10
-4.01941e-10
-4.0189e-10
-4.01743e-10
-4.01743e-10
-4.01678e-10
-4.01803e-10
-4.01829e-10
-4.02068e-10
-4.01991e-10
-4.02257e-10
-4.01797e-10
-4.02048e-10
-4.01475e-10
-4.01661e-10
-4.01091e-10
-4.027e-10
-4.01664e-10
-4.02205e-10
-4.01594e-10
-4.01768e-10
-4.01451e-10
-4.01511e-10
-4.01449e-10
-4.01573e-10
-4.01674e-10
-4.01845e-10
-4.01986e-10
-4.02109e-10
-4.02174e-10
-4.02182e-10
-4.02134e-10
-4.0205e-10
-4.01953e-10
-4.01872e-10
-4.01828e-10
-4.01835e-10
-4.01895e-10
-4.01993e-10
-4.02109e-10
-4.02218e-10
-4.02298e-10
-4.02335e-10
-4.02327e-10
-4.02286e-10
-4.02226e-10
-4.02169e-10
-4.02128e-10
-4.02117e-10
-4.02128e-10
-4.02165e-10
-4.02201e-10
-4.02246e-10
-4.02263e-10
-4.02287e-10
-4.0227e-10
-4.02278e-10
-4.0223e-10
-4.02224e-10
-4.02134e-10
-4.02099e-10
-4.01953e-10
-4.01895e-10
-4.01733e-10
-4.01721e-10
-4.01641e-10
-4.01763e-10
-4.01791e-10
-4.02048e-10
-4.01989e-10
-4.02284e-10
-4.01829e-10
-4.02097e-10
-4.0149e-10
-4.01657e-10
-4.0108e-10
-4.02709e-10
-4.0169e-10
-4.02245e-10
-4.01633e-10
-4.018e-10
-4.01467e-10
-4.01509e-10
-4.01432e-10
-4.01543e-10
-4.01641e-10
-4.01814e-10
-4.01964e-10
-4.021e-10
-4.0218e-10
-4.022e-10
-4.0216e-10
-4.02077e-10
-4.01975e-10
-4.01883e-10
-4.01827e-10
-4.01823e-10
-4.01873e-10
-4.01968e-10
-4.02086e-10
-4.02202e-10
-4.02291e-10
-4.02338e-10
-4.02338e-10
-4.023e-10
-4.02239e-10
-4.02178e-10
-4.0213e-10
-4.02113e-10
-4.02118e-10
-4.02152e-10
-4.02188e-10
-4.02234e-10
-4.02255e-10
-4.02283e-10
-4.0227e-10
-4.02283e-10
-4.0224e-10
-4.02239e-10
-4.02152e-10
-4.02119e-10
-4.01968e-10
-4.01903e-10
-4.01727e-10
-4.01702e-10
-4.01605e-10
-4.01722e-10
-4.01748e-10
-4.02021e-10
-4.01981e-10
-4.02308e-10
-4.01861e-10
-4.02149e-10
-4.01507e-10
-4.01653e-10
-4.01068e-10
-4.02714e-10
-4.01713e-10
-4.02285e-10
-4.01674e-10
-4.01836e-10
-4.01488e-10
-4.01512e-10
-4.01418e-10
-4.01516e-10
-4.01607e-10
-4.01781e-10
-4.01939e-10
-4.02088e-10
-4.02182e-10
-4.02216e-10
-4.02186e-10
-4.02106e-10
-4.02e-10
-4.01899e-10
-4.0183e-10
-4.01813e-10
-4.01853e-10
-4.01943e-10
-4.02062e-10
-4.02184e-10
-4.02282e-10
-4.02339e-10
-4.02347e-10
-4.02314e-10
-4.02253e-10
-4.02188e-10
-4.02134e-10
-4.0211e-10
-4.0211e-10
-4.0214e-10
-4.02174e-10
-4.02221e-10
-4.02245e-10
-4.02277e-10
-4.02269e-10
-4.02287e-10
-4.02249e-10
-4.02254e-10
-4.0217e-10
-4.0214e-10
-4.01987e-10
-4.01915e-10
-4.01724e-10
-4.01685e-10
-4.01569e-10
-4.01679e-10
-4.01701e-10
-4.01989e-10
-4.01967e-10
-4.02328e-10
-4.01891e-10
-4.02206e-10
-4.01526e-10
-4.01651e-10
-4.01056e-10
-4.02715e-10
-4.01734e-10
-4.02323e-10
-4.01716e-10
-4.01877e-10
-4.01515e-10
-4.01521e-10
-4.01409e-10
-4.01491e-10
-4.01573e-10
-4.01745e-10
-4.0191e-10
-4.02072e-10
-4.02181e-10
-4.0223e-10
-4.02211e-10
-4.02135e-10
-4.02028e-10
-4.01918e-10
-4.01837e-10
-4.01806e-10
-4.01835e-10
-4.01918e-10
-4.02036e-10
-4.02163e-10
-4.0227e-10
-4.02338e-10
-4.02355e-10
-4.02327e-10
-4.02268e-10
-4.022e-10
-4.02141e-10
-4.02109e-10
-4.02102e-10
-4.02128e-10
-4.0216e-10
-4.02208e-10
-4.02233e-10
-4.02269e-10
-4.02266e-10
-4.02289e-10
-4.02256e-10
-4.02267e-10
-4.02189e-10
-4.02163e-10
-4.02007e-10
-4.01932e-10
-4.01726e-10
-4.01673e-10
-4.01536e-10
-4.01636e-10
-4.0165e-10
-4.01951e-10
-4.01945e-10
-4.02341e-10
-4.01918e-10
-4.02266e-10
-4.01548e-10
-4.01649e-10
-4.01044e-10
-4.02711e-10
-4.01751e-10
-4.0236e-10
-4.01761e-10
-4.01922e-10
-4.01547e-10
-4.01535e-10
-4.01405e-10
-4.01469e-10
-4.0154e-10
-4.01709e-10
-4.01878e-10
-4.02051e-10
-4.02176e-10
-4.0224e-10
-4.02234e-10
-4.02165e-10
-4.02058e-10
-4.01941e-10
-4.01848e-10
-4.01803e-10
-4.01819e-10
-4.01894e-10
-4.02009e-10
-4.0214e-10
-4.02255e-10
-4.02333e-10
-4.02361e-10
-4.0234e-10
-4.02283e-10
-4.02214e-10
-4.02148e-10
-4.02109e-10
-4.02096e-10
-4.02116e-10
-4.02146e-10
-4.02193e-10
-4.02221e-10
-4.0226e-10
-4.0226e-10
-4.02289e-10
-4.02262e-10
-4.0228e-10
-4.02207e-10
-4.02187e-10
-4.02031e-10
-4.01952e-10
-4.01733e-10
-4.01666e-10
-4.01506e-10
-4.01594e-10
-4.01596e-10
-4.01907e-10
-4.01915e-10
-4.02349e-10
-4.01941e-10
-4.02329e-10
-4.01571e-10
-4.01649e-10
-4.01032e-10
-4.02703e-10
-4.01763e-10
-4.02393e-10
-4.01805e-10
-4.0197e-10
-4.01584e-10
-4.01556e-10
-4.01406e-10
-4.01452e-10
-4.01509e-10
-4.01672e-10
-4.01844e-10
-4.02026e-10
-4.02166e-10
-4.02246e-10
-4.02255e-10
-4.02195e-10
-4.0209e-10
-4.01967e-10
-4.01863e-10
-4.01804e-10
-4.01806e-10
-4.01871e-10
-4.01982e-10
-4.02115e-10
-4.02238e-10
-4.02326e-10
-4.02364e-10
-4.02352e-10
-4.02299e-10
-4.02228e-10
-4.02158e-10
-4.02112e-10
-4.02091e-10
-4.02106e-10
-4.02132e-10
-4.02179e-10
-4.02207e-10
-4.02249e-10
-4.02253e-10
-4.02287e-10
-4.02266e-10
-4.02291e-10
-4.02225e-10
-4.02212e-10
-4.02057e-10
-4.01977e-10
-4.01745e-10
-4.01665e-10
-4.0148e-10
-4.01553e-10
-4.01539e-10
-4.01858e-10
-4.01877e-10
-4.02348e-10
-4.01959e-10
-4.02394e-10
-4.01595e-10
-4.01651e-10
-4.0102e-10
-4.02689e-10
-4.01771e-10
-4.02423e-10
-4.0185e-10
-4.02021e-10
-4.01627e-10
-4.01583e-10
-4.01413e-10
-4.01439e-10
-4.01481e-10
-4.01634e-10
-4.01806e-10
-4.01997e-10
-4.02151e-10
-4.02249e-10
-4.02273e-10
-4.02224e-10
-4.02123e-10
-4.01997e-10
-4.01882e-10
-4.01809e-10
-4.01797e-10
-4.0185e-10
-4.01955e-10
-4.02088e-10
-4.02217e-10
-4.02316e-10
-4.02365e-10
-4.02362e-10
-4.02314e-10
-4.02244e-10
-4.0217e-10
-4.02117e-10
-4.02089e-10
-4.02097e-10
-4.02119e-10
-4.02163e-10
-4.02193e-10
-4.02237e-10
-4.02244e-10
-4.02282e-10
-4.02267e-10
-4.023e-10
-4.02242e-10
-4.02237e-10
-4.02085e-10
-4.02006e-10
-4.01763e-10
-4.0167e-10
-4.01459e-10
-4.01515e-10
-4.0148e-10
-4.01802e-10
-4.0183e-10
-4.0234e-10
-4.01972e-10
-4.0246e-10
-4.01621e-10
-4.01656e-10
-4.01007e-10
-4.0267e-10
-4.01773e-10
-4.02447e-10
-4.01893e-10
-4.02074e-10
-4.01674e-10
-4.01616e-10
-4.01427e-10
-4.01432e-10
-4.01456e-10
-4.01598e-10
-4.01767e-10
-4.01964e-10
-4.02131e-10
-4.02246e-10
-4.02287e-10
-4.02252e-10
-4.02157e-10
-4.0203e-10
-4.01906e-10
-4.01819e-10
-4.01791e-10
-4.01831e-10
-4.01929e-10
-4.02061e-10
-4.02195e-10
-4.02303e-10
-4.02363e-10
-4.0237e-10
-4.02329e-10
-4.0226e-10
-4.02183e-10
-4.02124e-10
-4.02088e-10
-4.02089e-10
-4.02106e-10
-4.02148e-10
-4.02177e-10
-4.02223e-10
-4.02233e-10
-4.02275e-10
-4.02265e-10
-4.02306e-10
-4.02256e-10
-4.02261e-10
-4.02115e-10
-4.0204e-10
-4.01788e-10
-4.01682e-10
-4.01444e-10
-4.01481e-10
-4.01421e-10
-4.01743e-10
-4.01774e-10
-4.02322e-10
-4.01977e-10
-4.02525e-10
-4.01648e-10
-4.01663e-10
-4.00993e-10
-4.02646e-10
-4.01768e-10
-4.02465e-10
-4.01934e-10
-4.02128e-10
-4.01724e-10
-4.01656e-10
-4.01448e-10
-4.01431e-10
-4.01435e-10
-4.01563e-10
-4.01727e-10
-4.01927e-10
-4.02107e-10
-4.02238e-10
-4.02298e-10
-4.02277e-10
-4.02191e-10
-4.02065e-10
-4.01934e-10
-4.01834e-10
-4.0179e-10
-4.01816e-10
-4.01903e-10
-4.02032e-10
-4.0217e-10
-4.02287e-10
-4.02358e-10
-4.02376e-10
-4.02342e-10
-4.02276e-10
-4.02197e-10
-4.02133e-10
-4.0209e-10
-4.02083e-10
-4.02095e-10
-4.02134e-10
-4.02162e-10
-4.02208e-10
-4.0222e-10
-4.02266e-10
-4.02261e-10
-4.02309e-10
-4.02268e-10
-4.02285e-10
-4.02146e-10
-4.02077e-10
-4.01817e-10
-4.01702e-10
-4.01437e-10
-4.01452e-10
-4.01363e-10
-4.0168e-10
-4.0171e-10
-4.02294e-10
-4.01973e-10
-4.02588e-10
-4.01675e-10
-4.01673e-10
-4.00979e-10
-4.02618e-10
-4.01756e-10
-4.02476e-10
-4.01973e-10
-4.02182e-10
-4.01779e-10
-4.01701e-10
-4.01476e-10
-4.01437e-10
-4.0142e-10
-4.01531e-10
-4.01687e-10
-4.01888e-10
-4.02078e-10
-4.02225e-10
-4.02303e-10
-4.023e-10
-4.02225e-10
-4.02102e-10
-4.01965e-10
-4.01853e-10
-4.01794e-10
-4.01804e-10
-4.0188e-10
-4.02003e-10
-4.02143e-10
-4.02268e-10
-4.0235e-10
-4.02379e-10
-4.02354e-10
-4.02292e-10
-4.02213e-10
-4.02144e-10
-4.02094e-10
-4.0208e-10
-4.02085e-10
-4.0212e-10
-4.02146e-10
-4.02192e-10
-4.02205e-10
-4.02253e-10
-4.02253e-10
-4.02309e-10
-4.02277e-10
-4.02306e-10
-4.02177e-10
-4.02117e-10
-4.01853e-10
-4.0173e-10
-4.01437e-10
-4.01431e-10
-4.01307e-10
-4.01614e-10
-4.01638e-10
-4.02255e-10
-4.01959e-10
-4.02647e-10
-4.017e-10
-4.01687e-10
-4.00964e-10
-4.02585e-10
-4.01736e-10
-4.02479e-10
-4.02007e-10
-4.02234e-10
-4.01835e-10
-4.01751e-10
-4.01511e-10
-4.0145e-10
-4.0141e-10
-4.01503e-10
-4.01647e-10
-4.01846e-10
-4.02044e-10
-4.02207e-10
-4.02304e-10
-4.02319e-10
-4.02257e-10
-4.0214e-10
-4.02001e-10
-4.01878e-10
-4.01803e-10
-4.01797e-10
-4.01859e-10
-4.01975e-10
-4.02114e-10
-4.02246e-10
-4.02339e-10
-4.0238e-10
-4.02364e-10
-4.02308e-10
-4.0223e-10
-4.02156e-10
-4.021e-10
-4.02078e-10
-4.02077e-10
-4.02107e-10
-4.0213e-10
-4.02175e-10
-4.02189e-10
-4.02238e-10
-4.02242e-10
-4.02305e-10
-4.02282e-10
-4.02325e-10
-4.02208e-10
-4.02159e-10
-4.01895e-10
-4.01766e-10
-4.01447e-10
-4.01417e-10
-4.01255e-10
-4.01547e-10
-4.01558e-10
-4.02206e-10
-4.01935e-10
-4.02701e-10
-4.01724e-10
-4.01706e-10
-4.00949e-10
-4.0255e-10
-4.01709e-10
-4.02474e-10
-4.02035e-10
-4.02284e-10
-4.01893e-10
-4.01806e-10
-4.01552e-10
-4.01471e-10
-4.01407e-10
-4.01479e-10
-4.01609e-10
-4.01804e-10
-4.02007e-10
-4.02183e-10
-4.02299e-10
-4.02333e-10
-4.02287e-10
-4.02178e-10
-4.02039e-10
-4.01907e-10
-4.01817e-10
-4.01794e-10
-4.01842e-10
-4.01948e-10
-4.02085e-10
-4.02221e-10
-4.02324e-10
-4.02377e-10
-4.02372e-10
-4.02323e-10
-4.02247e-10
-4.02171e-10
-4.02108e-10
-4.02079e-10
-4.02071e-10
-4.02096e-10
-4.02115e-10
-4.02158e-10
-4.02171e-10
-4.02221e-10
-4.02227e-10
-4.02296e-10
-4.02283e-10
-4.0234e-10
-4.02237e-10
-4.02203e-10
-4.01941e-10
-4.01811e-10
-4.01467e-10
-4.01413e-10
-4.01209e-10
-4.01481e-10
-4.01472e-10
-4.02147e-10
-4.01898e-10
-4.02747e-10
-4.01746e-10
-4.01728e-10
-4.00933e-10
-4.02513e-10
-4.01673e-10
-4.02458e-10
-4.02058e-10
-4.0233e-10
-4.01951e-10
-4.01865e-10
-4.016e-10
-4.01499e-10
-4.01412e-10
-4.01461e-10
-4.01574e-10
-4.0176e-10
-4.01966e-10
-4.02154e-10
-4.02288e-10
-4.02342e-10
-4.02315e-10
-4.02216e-10
-4.02079e-10
-4.0194e-10
-4.01837e-10
-4.01797e-10
-4.01828e-10
-4.01923e-10
-4.02056e-10
-4.02194e-10
-4.02307e-10
-4.02371e-10
-4.02378e-10
-4.02337e-10
-4.02264e-10
-4.02186e-10
-4.02119e-10
-4.02083e-10
-4.02068e-10
-4.02086e-10
-4.02102e-10
-4.0214e-10
-4.02152e-10
-4.02202e-10