/*--------------------------------*- C++ -*----------------------------------*\
| =========                 |                                                 |
| \\      /  F ield         | foam-extend: Open Source CFD                    |
|  \\    /   O peration     | Version:     4.0                                |
|   \\  /    A nd           | Web:         http://www.foam-extend.org         |
|    \\/     M anipulation  |                                                 |
\*---------------------------------------------------------------------------*/
FoamFile
{
    version     2.0;
    format      ascii;
    class       volVectorField;
    location    "6";
    object      U;
}
// * * * * * * * * * * * * * * * * * * * * * * * * * * * * * * * * * * * * * //

dimensions      [0 1 -1 0 0 0 0];

internalField   nonuniform List<vector> 
6960
(
(3.64373e-15 2.01034e-12 0)
(2.30951e-15 1.75231e-14 0)
(-5.89197e-16 4.57766e-15 0)
(3.94052e-16 -6.36859e-15 0)
(2.25478e-16 -2.10316e-14 0)
(4.97323e-16 -3.00373e-14 0)
(2.27433e-16 -3.20859e-14 0)
(4.06186e-16 -2.77317e-14 0)
(4.00167e-16 -1.85498e-14 0)
(5.83063e-16 -6.78028e-15 0)
(6.99468e-16 4.41087e-15 0)
(8.72452e-16 1.25226e-14 0)
(9.79643e-16 1.56785e-14 0)
(1.05855e-15 1.34148e-14 0)
(1.0621e-15 6.42749e-15 0)
(1.01039e-15 -3.40176e-15 0)
(9.06772e-16 -1.36569e-14 0)
(7.77734e-16 -2.18551e-14 0)
(6.49657e-16 -2.6133e-14 0)
(5.5038e-16 -2.56199e-14 0)
(4.96182e-16 -2.06638e-14 0)
(4.92128e-16 -1.26739e-14 0)
(5.31087e-16 -3.75001e-15 0)
(5.92937e-16 3.88872e-15 0)
(6.5033e-16 8.46322e-15 0)
(6.78764e-16 9.07663e-15 0)
(6.59985e-16 5.89439e-15 0)
(5.8957e-16 5.05704e-17 0)
(4.73683e-16 -6.71121e-15 0)
(3.29071e-16 -1.25166e-14 0)
(1.79375e-16 -1.58732e-14 0)
(4.25358e-17 -1.6011e-14 0)
(-6.42645e-17 -1.3059e-14 0)
(-1.4196e-16 -7.90564e-15 0)
(-1.90993e-16 -1.9586e-15 0)
(-2.33595e-16 3.31205e-15 0)
(-2.70791e-16 6.68015e-15 0)
(-3.32799e-16 7.50876e-15 0)
(-4.0289e-16 5.77271e-15 0)
(-5.07723e-16 2.05152e-15 0)
(-6.08698e-16 -2.69576e-15 0)
(-7.34106e-16 -7.42051e-15 0)
(-8.33833e-16 -1.10619e-14 0)
(-9.52189e-16 -1.30515e-14 0)
(-1.03748e-15 -1.27833e-14 0)
(-1.14045e-15 -1.06182e-14 0)
(-1.21126e-15 -6.32255e-15 0)
(-1.28995e-15 -1.24353e-15 0)
(-1.3238e-15 4.87312e-15 0)
(-1.33228e-15 9.73489e-15 0)
(-1.26758e-15 1.41605e-14 0)
(-1.17903e-15 1.52528e-14 0)
(-9.70223e-16 1.52684e-14 0)
(-8.84156e-16 1.1466e-14 0)
(-5.70402e-16 8.42732e-15 0)
(-6.69397e-16 3.63139e-15 0)
(-4.09664e-16 2.94215e-15 0)
(-5.83839e-16 2.97696e-15 0)
(-6.66586e-16 4.90646e-15 0)
(1.60667e-16 5.9448e-15 0)
(-5.02379e-14 3.52284e-12 0)
(-5.44622e-14 4.11402e-14 0)
(-2.38019e-15 1.42544e-14 0)
(3.92174e-16 -8.71016e-15 0)
(-2.88367e-17 -4.19241e-14 0)
(1.15083e-15 -6.28053e-14 0)
(7.73031e-16 -6.87611e-14 0)
(1.63994e-15 -6.05883e-14 0)
(1.85797e-15 -4.16255e-14 0)
(2.46394e-15 -1.64034e-14 0)
(2.70546e-15 8.1683e-15 0)
(2.97729e-15 2.6634e-14 0)
(2.98405e-15 3.46712e-14 0)
(2.90995e-15 3.09962e-14 0)
(2.6901e-15 1.67844e-14 0)
(2.43476e-15 -4.12568e-15 0)
(2.17382e-15 -2.66225e-14 0)
(1.969e-15 -4.52647e-14 0)
(1.85062e-15 -5.58035e-14 0)
(1.83462e-15 -5.60261e-14 0)
(1.89998e-15 -4.63467e-14 0)
(2.00823e-15 -2.95489e-14 0)
(2.11342e-15 -1.00643e-14 0)
(2.1649e-15 7.23692e-15 0)
(2.12113e-15 1.82738e-14 0)
(1.9682e-15 2.07809e-14 0)
(1.71327e-15 1.47895e-14 0)
(1.39137e-15 2.51867e-15 0)
(1.0439e-15 -1.23382e-14 0)
(7.12775e-16 -2.56312e-14 0)
(4.35324e-16 -3.38965e-14 0)
(2.15966e-16 -3.51678e-14 0)
(5.52973e-17 -2.94484e-14 0)
(-8.82483e-17 -1.8489e-14 0)
(-2.3417e-16 -5.32133e-15 0)
(-4.42571e-16 6.74397e-15 0)
(-6.92325e-16 1.4806e-14 0)
(-1.03606e-15 1.72322e-14 0)
(-1.38763e-15 1.37456e-14 0)
(-1.79517e-15 5.54097e-15 0)
(-2.13144e-15 -5.26973e-15 0)
(-2.47457e-15 -1.61835e-14 0)
(-2.69292e-15 -2.47095e-14 0)
(-2.92929e-15 -2.93313e-14 0)
(-3.06106e-15 -2.87206e-14 0)
(-3.24715e-15 -2.36059e-14 0)
(-3.37254e-15 -1.38084e-14 0)
(-3.55214e-15 -2.37298e-15 0)
(-3.66085e-15 1.08308e-14 0)
(-3.73648e-15 2.09269e-14 0)
(-3.65744e-15 2.95762e-14 0)
(-3.52304e-15 3.10762e-14 0)
(-3.04956e-15 3.04532e-14 0)
(-2.87511e-15 2.2558e-14 0)
(-1.97661e-15 1.68478e-14 0)
(-2.18193e-15 8.58237e-15 0)
(-1.27048e-15 8.12659e-15 0)
(-1.69595e-15 9.97295e-15 0)
(-1.89199e-15 1.30795e-14 0)
(4.86199e-16 1.4109e-14 0)
(-8.78192e-14 1.22633e-12 0)
(-9.48257e-14 3.61277e-14 0)
(-4.13227e-15 1.36616e-14 0)
(2.36346e-16 -3.43267e-15 0)
(-4.75315e-16 -3.17116e-14 0)
(1.66303e-15 -4.94382e-14 0)
(1.26866e-15 -5.48043e-14 0)
(2.89496e-15 -4.85048e-14 0)
(3.41799e-15 -3.34809e-14 0)
(4.49956e-15 -1.30658e-14 0)
(4.8923e-15 7.14281e-15 0)
(5.25232e-15 2.2812e-14 0)
(5.11891e-15 3.029e-14 0)
(4.83042e-15 2.8312e-14 0)
(4.32018e-15 1.74771e-14 0)
(3.80304e-15 6.01122e-16 0)
(3.34953e-15 -1.83502e-14 0)
(3.06468e-15 -3.49001e-14 0)
(2.98341e-15 -4.53188e-14 0)
(3.10363e-15 -4.73456e-14 0)
(3.35295e-15 -4.08228e-14 0)
(3.63283e-15 -2.7621e-14 0)
(3.84402e-15 -1.11926e-14 0)
(3.89376e-15 4.36448e-15 0)
(3.72543e-15 1.53291e-14 0)
(3.34206e-15 1.93085e-14 0)
(2.78931e-15 1.57876e-14 0)
(2.15766e-15 6.19851e-15 0)
(1.53796e-15 -6.55467e-15 0)
(1.00753e-15 -1.88987e-14 0)
(6.1837e-16 -2.75814e-14 0)
(3.54503e-16 -3.0466e-14 0)
(1.88123e-16 -2.70723e-14 0)
(2.13526e-17 -1.85255e-14 0)
(-1.97187e-16 -7.26558e-15 0)
(-5.72706e-16 3.79591e-15 0)
(-1.06297e-15 1.18786e-14 0)
(-1.73486e-15 1.52172e-14 0)
(-2.42171e-15 1.31881e-14 0)
(-3.17812e-15 6.61724e-15 0)
(-3.77782e-15 -2.78492e-15 0)
(-4.34135e-15 -1.26803e-14 0)
(-4.65784e-15 -2.07925e-14 0)
(-4.97336e-15 -2.54675e-14 0)
(-5.11143e-15 -2.5565e-14 0)
(-5.34742e-15 -2.15133e-14 0)
(-5.51553e-15 -1.35036e-14 0)
(-5.80508e-15 -4.04626e-15 0)
(-6.01956e-15 6.52692e-15 0)
(-6.19909e-15 1.4451e-14 0)
(-6.13773e-15 2.09353e-14 0)
(-5.96551e-15 2.20051e-14 0)
(-5.21144e-15 2.1702e-14 0)
(-4.90339e-15 1.66817e-14 0)
(-3.37086e-15 1.35927e-14 0)
(-3.64734e-15 9.68011e-15 0)
(-2.07787e-15 9.86056e-15 0)
(-2.79657e-15 1.30622e-14 0)
(-3.17776e-15 1.3633e-14 0)
(7.54359e-16 1.3262e-14 0)
(-7.03255e-14 -9.16415e-13 0)
(-7.98174e-14 1.67463e-14 0)
(-5.41048e-15 1.59971e-15 0)
(5.68334e-16 -4.40633e-15 0)
(-4.39361e-16 -1.77605e-14 0)
(2.45341e-15 -2.52657e-14 0)
(1.83683e-15 -2.60246e-14 0)
(4.00109e-15 -2.1304e-14 0)
(4.67905e-15 -1.3098e-14 0)
(6.17242e-15 -2.94673e-15 0)
(6.76416e-15 6.64901e-15 0)
(7.34323e-15 1.3876e-14 0)
(7.25205e-15 1.72229e-14 0)
(6.9301e-15 1.61455e-14 0)
(6.26598e-15 1.08338e-14 0)
(5.54483e-15 2.42645e-15 0)
(4.86806e-15 -7.36257e-15 0)
(4.39713e-15 -1.64419e-14 0)
(4.201e-15 -2.28812e-14 0)
(4.30271e-15 -2.52723e-14 0)
(4.61769e-15 -2.31389e-14 0)
(5.0149e-15 -1.70339e-14 0)
(5.35147e-15 -8.46127e-15 0)
(5.4825e-15 5.03201e-16 0)
(5.30889e-15 7.71209e-15 0)
(4.81645e-15 1.14998e-14 0)
(4.05575e-15 1.10978e-14 0)
(3.15049e-15 6.82288e-15 0)
(2.23424e-15 -4.1566e-17 0)
(1.42919e-15 -7.59747e-15 0)
(8.24082e-16 -1.38622e-14 0)
(4.11705e-16 -1.72758e-14 0)
(1.61115e-16 -1.7112e-14 0)
(-6.38327e-17 -1.35826e-14 0)
(-3.41745e-16 -7.7866e-15 0)
(-8.30078e-16 -1.28862e-15 0)
(-1.48373e-15 4.20835e-15 0)
(-2.40321e-15 7.4449e-15 0)
(-3.36183e-15 7.71675e-15 0)
(-4.43398e-15 5.2101e-15 0)
(-5.30099e-15 6.29835e-16 0)
(-6.12321e-15 -4.75474e-15 0)
(-6.6026e-15 -9.74397e-15 0)
(-7.07679e-15 -1.32418e-14 0)
(-7.30131e-15 -1.46426e-14 0)
(-7.65751e-15 -1.38947e-14 0)
(-7.91433e-15 -1.11701e-14 0)
(-8.33189e-15 -7.41596e-15 0)
(-8.62921e-15 -2.87451e-15 0)
(-8.85829e-15 1.01808e-15 0)
(-8.72535e-15 4.7665e-15 0)
(-8.41949e-15 6.81022e-15 0)
(-7.29537e-15 8.6477e-15 0)
(-6.80543e-15 8.83295e-15 0)
(-4.65099e-15 9.15531e-15 0)
(-5.06111e-15 9.04103e-15 0)
(-2.948e-15 8.11324e-15 0)
(-3.98965e-15 9.28045e-15 0)
(-4.52872e-15 7.59196e-15 0)
(9.90012e-16 7.40498e-15 0)
(-4.14319e-14 -8.83511e-13 0)
(-5.32076e-14 9.19981e-15 0)
(-6.38744e-15 -2.79655e-16 0)
(1.23267e-15 -9.46642e-16 0)
(-5.55371e-17 -8.51076e-15 0)
(3.45232e-15 -1.34232e-14 0)
(2.4912e-15 -1.47038e-14 0)
(5.04609e-15 -1.29843e-14 0)
(5.77824e-15 -9.24693e-15 0)
(7.62999e-15 -4.12972e-15 0)
(8.44203e-15 1.23393e-15 0)
(9.31554e-15 5.87732e-15 0)
(9.38109e-15 8.93091e-15 0)
(9.14606e-15 9.83046e-15 0)
(8.4267e-15 8.35342e-15 0)
(7.55184e-15 4.72113e-15 0)
(6.64407e-15 -4.15081e-16 0)
(5.92632e-15 -6.04976e-15 0)
(5.51708e-15 -1.10157e-14 0)
(5.491e-15 -1.42273e-14 0)
(5.77973e-15 -1.49601e-14 0)
(6.24238e-15 -1.30463e-14 0)
(6.70209e-15 -8.94845e-15 0)
(6.96078e-15 -3.66748e-15 0)
(6.86038e-15 1.50227e-15 0)
(6.34725e-15 5.30346e-15 0)
(5.45278e-15 6.8483e-15 0)
(4.31321e-15 5.84907e-15 0)
(3.09658e-15 2.68304e-15 0)
(1.97235e-15 -1.72217e-15 0)
(1.07899e-15 -6.15383e-15 0)
(4.37271e-16 -9.45298e-15 0)
(3.39129e-17 -1.08265e-14 0)
(-2.90257e-16 -1.00251e-14 0)
(-6.32073e-16 -7.40869e-15 0)
(-1.20348e-15 -3.76278e-15 0)
(-1.96774e-15 -1.20227e-16 0)
(-3.0715e-15 2.62285e-15 0)
(-4.24764e-15 3.8133e-15 0)
(-5.60108e-15 3.35349e-15 0)
(-6.73083e-15 1.44176e-15 0)
(-7.83668e-15 -1.2354e-15 0)
(-8.5298e-15 -4.10923e-15 0)
(-9.22957e-15 -6.45092e-15 0)
(-9.61044e-15 -8.05645e-15 0)
(-1.01461e-14 -8.68052e-15 0)
(-1.05277e-14 -8.59995e-15 0)
(-1.10797e-14 -7.8954e-15 0)
(-1.14312e-14 -6.81369e-15 0)
(-1.16576e-14 -5.39789e-15 0)
(-1.13799e-14 -3.49715e-15 0)
(-1.08709e-14 -1.24916e-15 0)
(-9.32999e-15 1.57242e-15 0)
(-8.64343e-15 4.39026e-15 0)
(-5.90871e-15 6.64489e-15 0)
(-6.49899e-15 8.30279e-15 0)
(-3.92775e-15 6.97076e-15 0)
(-5.27109e-15 6.33703e-15 0)
(-5.88228e-15 4.04131e-15 0)
(1.21687e-15 3.40458e-15 0)
(-2.57624e-14 -2.81148e-13 0)
(-3.95561e-14 1.09172e-14 0)
(-7.09499e-15 9.41593e-15 0)
(1.92695e-15 1.0619e-14 0)
(2.80995e-16 1.73354e-15 0)
(4.31426e-15 -6.75934e-15 0)
(2.99265e-15 -1.35815e-14 0)
(5.95166e-15 -1.72926e-14 0)
(6.80164e-15 -1.76239e-14 0)
(9.08206e-15 -1.45385e-14 0)
(1.01909e-14 -9.02766e-15 0)
(1.14165e-14 -2.3518e-15 0)
(1.16776e-14 3.95948e-15 0)
(1.15401e-14 8.56822e-15 0)
(1.07514e-14 1.05192e-14 0)
(9.68876e-15 9.45775e-15 0)
(8.50357e-15 5.69811e-15 0)
(7.48848e-15 1.38825e-16 0)
(6.82041e-15 -5.92538e-15 0)
(6.63352e-15 -1.11106e-14 0)
(6.88097e-15 -1.42649e-14 0)
(7.4134e-15 -1.47504e-14 0)
(8.01853e-15 -1.25815e-14 0)
(8.4411e-15 -8.41902e-15 0)
(8.45364e-15 -3.38223e-15 0)
(7.95531e-15 1.24512e-15 0)
(6.94999e-15 4.35809e-15 0)
(5.58133e-15 5.30689e-15 0)
(4.05091e-15 4.05054e-15 0)
(2.57854e-15 1.12976e-15 0)
(1.35995e-15 -2.50516e-15 0)
(4.51459e-16 -5.79332e-15 0)
(-1.33995e-16 -7.85395e-15 0)
(-5.75716e-16 -8.21857e-15 0)
(-9.85906e-16 -6.94438e-15 0)
(-1.63359e-15 -4.52493e-15 0)
(-2.49398e-15 -1.75283e-15 0)
(-3.76559e-15 6.05719e-16 0)
(-5.1449e-15 1.92853e-15 0)
(-6.7685e-15 2.06454e-15 0)
(-8.15797e-15 1.07664e-15 0)
(-9.54989e-15 -4.70599e-16 0)
(-1.04663e-14 -2.23828e-15 0)
(-1.14072e-14 -3.59399e-15 0)
(-1.19647e-14 -4.6499e-15 0)
(-1.27052e-14 -5.13283e-15 0)
(-1.32369e-14 -5.68258e-15 0)
(-1.39459e-14 -6.02864e-15 0)
(-1.43649e-14 -6.71026e-15 0)
(-1.45877e-14 -6.91752e-15 0)
(-1.41467e-14 -6.72707e-15 0)
(-1.33987e-14 -5.13158e-15 0)
(-1.14034e-14 -2.40135e-15 0)
(-1.04775e-14 1.69192e-15 0)
(-7.15531e-15 5.349e-15 0)
(-7.92118e-15 8.80315e-15 0)
(-4.94073e-15 7.92407e-15 0)
(-6.58732e-15 6.95832e-15 0)
(-7.27403e-15 4.0935e-15 0)
(1.38631e-15 1.29586e-15 0)
(-1.69298e-14 -4.06759e-14 0)
(-3.2446e-14 1.10659e-14 0)
(-7.51258e-15 1.49202e-14 0)
(2.62138e-15 1.78436e-14 0)
(5.35896e-16 8.53562e-15 0)
(5.01293e-15 -1.75836e-15 0)
(3.32441e-15 -1.17841e-14 0)
(6.71533e-15 -1.88472e-14 0)
(7.76145e-15 -2.18701e-14 0)
(1.05509e-14 -2.03232e-14 0)
(1.20364e-14 -1.5038e-14 0)
(1.36695e-14 -7.36866e-15 0)
(1.41521e-14 7.79858e-16 0)
(1.41067e-14 7.6021e-15 0)
(1.32197e-14 1.1656e-14 0)
(1.19244e-14 1.21981e-14 0)
(1.04123e-14 9.29528e-15 0)
(9.05815e-15 3.77374e-15 0)
(8.09864e-15 -2.98944e-15 0)
(7.73684e-15 -9.39777e-15 0)
(7.94441e-15 -1.40123e-14 0)
(8.56226e-15 -1.58917e-14 0)
(9.33792e-15 -1.47819e-14 0)
(9.95226e-15 -1.11625e-14 0)
(1.01042e-14 -6.08488e-15 0)
(9.63903e-15 -8.86369e-16 0)
(8.53005e-15 3.17071e-15 0)
(6.92634e-15 5.21365e-15 0)
(5.06607e-15 4.96702e-15 0)
(3.22376e-15 2.77241e-15 0)
(1.65472e-15 -5.40349e-16 0)
(4.56909e-16 -3.93706e-15 0)
(-3.28634e-16 -6.46691e-15 0)
(-8.97883e-16 -7.52916e-15 0)
(-1.37992e-15 -7.01071e-15 0)
(-2.10014e-15 -5.24654e-15 0)
(-3.05158e-15 -2.89795e-15 0)
(-4.48271e-15 -6.59753e-16 0)
(-6.05843e-15 8.66833e-16 0)
(-7.94742e-15 1.50069e-15 0)
(-9.5948e-15 1.22121e-15 0)
(-1.12747e-14 5.01262e-16 0)
(-1.24216e-14 -4.90463e-16 0)
(-1.36162e-14 -1.21688e-15 0)
(-1.43685e-14 -2.02282e-15 0)
(-1.53345e-14 -2.61918e-15 0)
(-1.60384e-14 -3.86757e-15 0)
(-1.69233e-14 -5.18905e-15 0)
(-1.74175e-14 -7.27022e-15 0)
(-1.76327e-14 -8.60113e-15 0)
(-1.70075e-14 -9.45094e-15 0)
(-1.59866e-14 -7.9068e-15 0)
(-1.35021e-14 -4.85245e-15 0)
(-1.23027e-14 6.90995e-16 0)
(-8.39177e-15 5.48915e-15 0)
(-9.33744e-15 1.05316e-14 0)
(-5.99187e-15 9.5296e-15 0)
(-7.94676e-15 8.54721e-15 0)
(-8.72786e-15 4.46929e-15 0)
(1.48723e-15 1.04032e-16 0)
(-9.66684e-15 9.75869e-16 0)
(-2.67212e-14 9.36597e-15 0)
(-7.74109e-15 1.33397e-14 0)
(3.3807e-15 1.80166e-14 0)
(8.37538e-16 1.00796e-14 0)
(5.71263e-15 7.39951e-16 0)
(3.64818e-15 -8.91492e-15 0)
(7.45046e-15 -1.6273e-14 0)
(8.7035e-15 -2.00653e-14 0)
(1.20145e-14 -1.96001e-14 0)
(1.39046e-14 -1.53689e-14 0)
(1.59693e-14 -8.4885e-15 0)
(1.67003e-14 -6.64415e-16 0)
(1.67629e-14 6.33041e-15 0)
(1.57819e-14 1.09804e-14 0)
(1.42467e-14 1.23472e-14 0)
(1.23919e-14 1.02673e-14 0)
(1.06756e-14 5.34762e-15 0)
(9.40449e-15 -1.17698e-15 0)
(8.8508e-15 -7.74777e-15 0)
(9.01017e-15 -1.28529e-14 0)
(9.71413e-15 -1.53993e-14 0)
(1.06697e-14 -1.49448e-14 0)
(1.14891e-14 -1.17983e-14 0)
(1.17954e-14 -6.90517e-15 0)
(1.13731e-14 -1.58043e-15 0)
(1.01648e-14 2.84949e-15 0)
(8.32221e-15 5.38765e-15 0)
(6.1211e-15 5.61301e-15 0)
(3.89296e-15 3.737e-15 0)
(1.95657e-15 5.12064e-16 0)
(4.53638e-16 -3.04353e-15 0)
(-5.4379e-16 -5.92821e-15 0)
(-1.24695e-15 -7.45057e-15 0)
(-1.80249e-15 -7.38468e-15 0)
(-2.5921e-15 -5.9651e-15 0)
(-3.62982e-15 -3.7763e-15 0)
(-5.21472e-15 -1.48217e-15 0)
(-6.98377e-15 3.15809e-16 0)
(-9.13565e-15 1.39304e-15 0)
(-1.10445e-14 1.66255e-15 0)
(-1.30193e-14 1.51231e-15 0)
(-1.441e-14 1.00214e-15 0)
(-1.58728e-14 5.88248e-16 0)
(-1.68387e-14 -2.02363e-16 0)
(-1.80496e-14 -1.07514e-15 0)
(-1.89424e-14 -2.98586e-15 0)
(-2.00119e-14 -5.14518e-15 0)
(-2.05817e-14 -8.28037e-15 0)
(-2.07753e-14 -1.04083e-14 0)
(-1.99418e-14 -1.19176e-14 0)
(-1.86173e-14 -1.02731e-14 0)
(-1.56176e-14 -6.87212e-15 0)
(-1.41236e-14 -1.31494e-16 0)
(-9.63025e-15 5.49192e-15 0)
(-1.07628e-14 1.1846e-14 0)
(-7.08678e-15 1.0654e-14 0)
(-9.35432e-15 1.00198e-14 0)
(-1.02248e-14 4.57148e-15 0)
(1.54876e-15 -9.39637e-17 0)
(-2.64641e-15 7.02596e-15 0)
(-2.11219e-14 8.45579e-15 0)
(-7.85154e-15 1.11797e-14 0)
(4.21057e-15 1.7194e-14 0)
(1.21746e-15 1.03347e-14 0)
(6.46892e-15 1.93891e-15 0)
(4.03122e-15 -7.00319e-15 0)
(8.21403e-15 -1.41652e-14 0)
(9.662e-15 -1.82074e-14 0)
(1.34806e-14 -1.8414e-14 0)
(1.5779e-14 -1.49891e-14 0)
(1.82867e-14 -8.8593e-15 0)
(1.92844e-14 -1.49016e-15 0)
(1.94733e-14 5.42549e-15 0)
(1.84138e-14 1.03796e-14 0)
(1.66438e-14 1.2301e-14 0)
(1.44439e-14 1.08507e-14 0)
(1.23525e-14 6.43775e-15 0)
(1.0755e-14 1.57457e-16 0)
(9.99531e-15 -6.48898e-15 0)
(1.00952e-14 -1.19452e-14 0)
(1.08829e-14 -1.50007e-14 0)
(1.20203e-14 -1.50556e-14 0)
(1.30534e-14 -1.2273e-14 0)
(1.35225e-14 -7.50781e-15 0)
(1.31499e-14 -2.05951e-15 0)
(1.18444e-14 2.68605e-15 0)
(9.75902e-15 5.62139e-15 0)
(7.20714e-15 6.20105e-15 0)
(4.58021e-15 4.53253e-15 0)
(2.26239e-15 1.31829e-15 0)
(4.42407e-16 -2.41936e-15 0)
(-7.75867e-16 -5.6184e-15 0)
(-1.61687e-15 -7.50228e-15 0)
(-2.24593e-15 -7.75417e-15 0)
(-3.10233e-15 -6.54304e-15 0)
(-4.22605e-15 -4.4173e-15 0)
(-5.96093e-15 -2.0454e-15 0)
(-7.92573e-15 -5.00743e-17 0)
(-1.03425e-14 1.30475e-15 0)
(-1.25181e-14 1.89552e-15 0)
(-1.47944e-14 2.07875e-15 0)
(-1.64388e-14 1.87061e-15 0)
(-1.81795e-14 1.70233e-15 0)
(-1.93731e-14 1.01283e-15 0)
(-2.08424e-14 8.7076e-17 0)
(-2.19375e-14 -2.15416e-15 0)
(-2.32018e-14 -4.82238e-15 0)
(-2.38489e-14 -8.73968e-15 0)
(-2.4013e-14 -1.15982e-14 0)
(-2.29556e-14 -1.38562e-14 0)
(-2.13045e-14 -1.24627e-14 0)
(-1.77669e-14 -9.0652e-15 0)
(-1.59527e-14 -1.57693e-15 0)
(-1.08749e-14 4.7791e-15 0)
(-1.21926e-14 1.24135e-14 0)
(-8.20937e-15 1.14813e-14 0)
(-1.07995e-14 1.1516e-14 0)
(-1.17481e-14 4.88591e-15 0)
(1.5841e-15 9.30365e-17 0)
(4.02267e-15 1.61301e-14 0)
(-1.57372e-14 8.5686e-15 0)
(-7.83003e-15 1.13663e-14 0)
(5.08724e-15 1.84604e-14 0)
(1.63529e-15 1.19073e-14 0)
(7.23691e-15 3.49967e-15 0)
(4.43394e-15 -5.82422e-15 0)
(8.98312e-15 -1.36435e-14 0)
(1.06339e-14 -1.83796e-14 0)
(1.49641e-14 -1.92404e-14 0)
(1.76854e-14 -1.62272e-14 0)
(2.06511e-14 -1.02116e-14 0)
(2.19322e-14 -2.60558e-15 0)
(2.2258e-14 4.82345e-15 0)
(2.11242e-14 1.04636e-14 0)
(1.91153e-14 1.307e-14 0)
(1.65582e-14 1.21485e-14 0)
(1.40784e-14 7.97572e-15 0)
(1.21359e-14 1.59425e-15 0)
(1.11569e-14 -5.46786e-15 0)
(1.11918e-14 -1.15434e-14 0)
(1.20634e-14 -1.52664e-14 0)
(1.33917e-14 -1.58713e-14 0)
(1.46492e-14 -1.33902e-14 0)
(1.52936e-14 -8.6181e-15 0)
(1.49783e-14 -2.87583e-15 0)
(1.35761e-14 2.35469e-15 0)
(1.12416e-14 5.82852e-15 0)
(8.32762e-15 6.86063e-15 0)
(5.2856e-15 5.4497e-15 0)
(2.57114e-15 2.25673e-15 0)
(4.22496e-16 -1.6783e-15 0)
(-1.02525e-15 -5.21728e-15 0)
(-2.00687e-15 -7.48631e-15 0)
(-2.71021e-15 -8.07204e-15 0)
(-3.6321e-15 -7.08096e-15 0)
(-4.83916e-15 -5.03395e-15 0)
(-6.7246e-15 -2.61344e-15 0)
(-8.88832e-15 -4.70742e-16 0)
(-1.15733e-14 1.09776e-15 0)
(-1.40215e-14 1.94151e-15 0)
(-1.66044e-14 2.41466e-15 0)
(-1.85081e-14 2.50518e-15 0)
(-2.05335e-14 2.64858e-15 0)
(-2.19648e-14 2.17996e-15 0)
(-2.37042e-14 1.3742e-15 0)
(-2.50162e-14 -1.03564e-15 0)
(-2.64872e-14 -4.08421e-15 0)
(-2.72209e-14 -8.76362e-15 0)
(-2.73553e-14 -1.24323e-14 0)
(-2.60619e-14 -1.56308e-14 0)
(-2.40619e-14 -1.47301e-14 0)
(-1.99594e-14 -1.15347e-14 0)
(-1.7795e-14 -3.42616e-15 0)
(-1.21213e-14 3.75445e-15 0)
(-1.36139e-14 1.28273e-14 0)
(-9.34718e-15 1.24478e-14 0)
(-1.22759e-14 1.33127e-14 0)
(-1.33054e-14 5.52177e-15 0)
(1.58482e-15 1.6086e-16 0)
(1.0349e-14 2.12327e-14 0)
(-1.0529e-14 8.87813e-15 0)
(-7.64537e-15 1.27108e-14 0)
(6.0039e-15 2.09011e-14 0)
(2.06951e-15 1.44921e-14 0)
(7.98496e-15 5.73673e-15 0)
(4.82216e-15 -4.49972e-15 0)
(9.73083e-15 -1.34863e-14 0)
(1.1604e-14 -1.92925e-14 0)
(1.64642e-14 -2.09813e-14 0)
(1.96374e-14 -1.83525e-14 0)
(2.30832e-14 -1.22531e-14 0)
(2.46682e-14 -4.11512e-15 0)
(2.51364e-14 4.1439e-15 0)
(2.39273e-14 1.07386e-14 0)
(2.16676e-14 1.42067e-14 0)
(1.87336e-14 1.38793e-14 0)
(1.58436e-14 9.90933e-15 0)
(1.35375e-14 3.31025e-15 0)
(1.23263e-14 -4.32903e-15 0)
(1.22906e-14 -1.11931e-14 0)
(1.32515e-14 -1.57299e-14 0)
(1.47829e-14 -1.69857e-14 0)
(1.62803e-14 -1.48493e-14 0)
(1.71139e-14 -1.0055e-14 0)
(1.68642e-14 -3.95515e-15 0)
(1.53675e-14 1.85748e-15 0)
(1.27769e-14 5.97927e-15 0)
(9.4864e-15 7.56526e-15 0)
(6.01185e-15 6.48822e-15 0)
(2.88324e-15 3.35574e-15 0)
(3.91551e-16 -7.7558e-16 0)
(-1.29518e-15 -4.68652e-15 0)
(-2.42094e-15 -7.39439e-15 0)
(-3.19806e-15 -8.37457e-15 0)
(-4.18252e-15 -7.65859e-15 0)
(-5.47271e-15 -5.72867e-15 0)
(-7.50801e-15 -3.27683e-15 0)
(-9.87115e-15 -9.8284e-16 0)
(-1.28273e-14 8.21415e-16 0)
(-1.55533e-14 1.95178e-15 0)
(-1.84466e-14 2.75871e-15 0)
(-2.06171e-14 3.19288e-15 0)
(-2.29337e-14 3.69634e-15 0)
(-2.46129e-14 3.48561e-15 0)
(-2.66344e-14 2.83373e-15 0)
(-2.81794e-14 2.56972e-16 0)
(-2.98722e-14 -3.18362e-15 0)
(-3.0703e-14 -8.68851e-15 0)
(-3.08091e-14 -1.32358e-14 0)
(-2.92687e-14 -1.74868e-14 0)
(-2.6894e-14 -1.71514e-14 0)
(-2.2197e-14 -1.42248e-14 0)
(-1.96448e-14 -5.47065e-15 0)
(-1.33622e-14 2.59824e-15 0)
(-1.50189e-14 1.32594e-14 0)
(-1.04944e-14 1.35192e-14 0)
(-1.37843e-14 1.53529e-14 0)
(-1.49085e-14 6.27646e-15 0)
(1.54148e-15 9.00357e-17 0)
(1.64689e-14 2.07907e-14 0)
(-5.35286e-15 9.03701e-15 0)
(-7.28542e-15 1.40559e-14 0)
(6.96855e-15 2.34273e-14 0)
(2.52402e-15 1.73472e-14 0)
(8.71127e-15 8.36573e-15 0)
(5.18861e-15 -2.76175e-15 0)
(1.04468e-14 -1.29791e-14 0)
(1.25637e-14 -1.99781e-14 0)
(1.7974e-14 -2.26509e-14 0)
(2.16313e-14 -2.05565e-14 0)
(2.55845e-14 -1.44866e-14 0)
(2.74936e-14 -5.87064e-15 0)
(2.81175e-14 3.22937e-15 0)
(2.68312e-14 1.08484e-14 0)
(2.43073e-14 1.52858e-14 0)
(2.09774e-14 1.56727e-14 0)
(1.76519e-14 1.20103e-14 0)
(1.49589e-14 5.26024e-15 0)
(1.3499e-14 -2.94055e-15 0)
(1.33865e-14 -1.0628e-14 0)
(1.44405e-14 -1.60536e-14 0)
(1.61887e-14 -1.80539e-14 0)
(1.79427e-14 -1.63533e-14 0)
(1.89829e-14 -1.16032e-14 0)
(1.88104e-14 -5.17317e-15 0)
(1.72212e-14 1.23535e-15 0)
(1.4368e-14 6.0527e-15 0)
(1.06884e-14 8.25793e-15 0)
(6.76173e-15 7.57911e-15 0)
(3.19944e-15 4.55348e-15 0)
(3.49016e-16 2.42917e-16 0)
(-1.58696e-15 -4.05303e-15 0)
(-2.86108e-15 -7.23802e-15 0)
(-3.71262e-15 -8.66044e-15 0)
(-4.75665e-15 -8.2659e-15 0)
(-6.12703e-15 -6.48415e-15 0)
(-8.30818e-15 -4.01137e-15 0)
(-1.08736e-14 -1.55501e-15 0)
(-1.41033e-14 5.10186e-16 0)
(-1.71119e-14 1.9594e-15 0)
(-2.03206e-14 3.12968e-15 0)
(-2.27634e-14 3.93002e-15 0)
(-2.53773e-14 4.80902e-15 0)
(-2.73157e-14 4.86347e-15 0)
(-2.96341e-14 4.3722e-15 0)
(-3.14282e-14 1.62711e-15 0)
(-3.33614e-14 -2.20615e-15 0)
(-3.4302e-14 -8.56133e-15 0)
(-3.43811e-14 -1.40168e-14 0)
(-3.25815e-14 -1.93899e-14 0)
(-2.98048e-14 -1.96802e-14 0)
(-2.44813e-14 -1.71059e-14 0)
(-2.15025e-14 -7.73442e-15 0)
(-1.45904e-14 1.21468e-15 0)
(-1.64034e-14 1.35556e-14 0)
(-1.16454e-14 1.45264e-14 0)
(-1.53243e-14 1.75088e-14 0)
(-1.65642e-14 7.04396e-15 0)
(1.45163e-15 -7.53717e-18 0)
(2.24472e-14 1.82942e-14 0)
(-1.45831e-16 9.03122e-15 0)
(-6.7468e-15 1.51751e-14 0)
(7.99122e-15 2.57936e-14 0)
(3.00863e-15 2.02614e-14 0)
(9.42137e-15 1.12451e-14 0)
(5.53426e-15 -6.45152e-16 0)
(1.11286e-14 -1.20526e-14 0)
(1.35078e-14 -2.02908e-14 0)
(1.94874e-14 -2.40699e-14 0)
(2.36603e-14 -2.26688e-14 0)
(2.81494e-14 -1.67874e-14 0)
(3.04094e-14 -7.81341e-15 0)
(3.12019e-14 2.07013e-15 0)
(2.98401e-14 1.0729e-14 0)
(2.7041e-14 1.62139e-14 0)
(2.32942e-14 1.74333e-14 0)
(1.95071e-14 1.42051e-14 0)
(1.64044e-14 7.40889e-15 0)
(1.46756e-14 -1.29449e-15 0)
(1.44785e-14 -9.80352e-15 0)
(1.5628e-14 -1.61688e-14 0)
(1.76043e-14 -1.90002e-14 0)
(1.96335e-14 -1.7834e-14 0)
(2.08983e-14 -1.3213e-14 0)
(2.08169e-14 -6.50482e-15 0)
(1.91408e-14 4.90076e-16 0)
(1.60197e-14 6.03286e-15 0)
(1.19366e-14 8.91364e-15 0)
(7.53807e-15 8.69718e-15 0)
(3.52118e-15 5.831e-15 0)
(2.9395e-16 1.37021e-15 0)
(-1.90256e-15 -3.31148e-15 0)
(-3.33159e-15 -6.99913e-15 0)
(-4.25706e-15 -8.90433e-15 0)
(-5.3573e-15 -8.87353e-15 0)
(-6.802e-15 -7.27197e-15 0)
(-9.1284e-15 -4.79447e-15 0)
(-1.18945e-14 -2.17535e-15 0)
(-1.54014e-14 1.62174e-16 0)
(-1.86976e-14 1.94606e-15 0)
(-2.2225e-14 3.49413e-15 0)
(-2.49477e-14 4.67297e-15 0)
(-2.78654e-14 5.93955e-15 0)
(-3.0074e-14 6.27587e-15 0)
(-3.2704e-14 5.97034e-15 0)
(-3.47658e-14 3.0854e-15 0)
(-3.69559e-14 -1.1118e-15 0)
(-3.80184e-14 -8.3116e-15 0)
(-3.80738e-14 -1.46947e-14 0)
(-3.60057e-14 -2.12612e-14 0)
(-3.28001e-14 -2.22698e-14 0)
(-2.6816e-14 -2.01699e-14 0)
(-2.33663e-14 -1.02663e-14 0)
(-1.58051e-14 -4.73144e-16 0)
(-1.77617e-14 1.36119e-14 0)
(-1.27921e-14 1.54045e-14 0)
(-1.68938e-14 1.97377e-14 0)
(-1.82767e-14 7.83214e-15 0)
(1.31455e-15 -9.05596e-17 0)
(2.82916e-14 1.55052e-14 0)
(5.09834e-15 8.87456e-15 0)
(-6.02539e-15 1.61237e-14 0)
(9.08186e-15 2.80426e-14 0)
(3.53235e-15 2.32532e-14 0)
(1.01203e-14 1.43677e-14 0)
(5.8605e-15 1.8159e-15 0)
(1.17742e-14 -1.0759e-14 0)
(1.44299e-14 -2.02879e-14 0)
(2.09961e-14 -2.5289e-14 0)
(2.57177e-14 -2.47254e-14 0)
(3.0773e-14 -1.91752e-14 0)
(3.34143e-14 -9.94882e-15 0)
(3.43947e-14 6.69491e-16 0)
(3.29606e-14 1.03862e-14 0)
(2.98772e-14 1.69946e-14 0)
(2.56933e-14 1.91613e-14 0)
(2.14158e-14 1.64909e-14 0)
(1.78779e-14 9.752e-15 0)
(1.58558e-14 6.06507e-16 0)
(1.55631e-14 -8.71951e-15 0)
(1.68084e-14 -1.60728e-14 0)
(1.90266e-14 -1.98223e-14 0)
(2.13486e-14 -1.92921e-14 0)
(2.28591e-14 -1.48896e-14 0)
(2.28835e-14 -7.96077e-15 0)
(2.11279e-14 -3.93353e-16 0)
(1.77358e-14 5.90333e-15 0)
(1.32347e-14 9.518e-15 0)
(8.3439e-15 9.83455e-15 0)
(3.85025e-15 7.19034e-15 0)
(2.27e-16 2.61757e-15 0)
(-2.2446e-15 -2.4426e-15 0)
(-3.83396e-15 -6.65326e-15 0)
(-4.83382e-15 -9.08181e-15 0)
(-5.98667e-15 -9.45956e-15 0)
(-7.50154e-15 -8.07638e-15 0)
(-9.96805e-15 -5.61933e-15 0)
(-1.29347e-14 -2.84662e-15 0)
(-1.67198e-14 -2.34533e-16 0)
(-2.0308e-14 1.89362e-15 0)
(-2.41589e-14 3.83038e-15 0)
(-2.71676e-14 5.40116e-15 0)
(-3.03988e-14 7.07477e-15 0)
(-3.28858e-14 7.72148e-15 0)
(-3.58436e-14 7.64328e-15 0)
(-3.81911e-14 4.66543e-15 0)
(-4.06569e-14 1.50302e-16 0)
(-4.18552e-14 -7.87896e-15 0)
(-4.18929e-14 -1.52075e-14 0)
(-3.95482e-14 -2.30485e-14 0)
(-3.58869e-14 -2.48902e-14 0)
(-2.92061e-14 -2.34116e-14 0)
(-2.5241e-14 -1.30896e-14 0)
(-1.70016e-14 -2.50192e-15 0)
(-1.90867e-14 1.33847e-14 0)
(-1.39265e-14 1.61319e-14 0)
(-1.84887e-14 2.20339e-14 0)
(-2.00499e-14 8.66025e-15 0)
(1.12891e-15 -1.57937e-16 0)
(3.40001e-14 1.2592e-14 0)
(1.03774e-14 8.55302e-15 0)
(-5.11745e-15 1.69296e-14 0)
(1.02502e-14 3.02004e-14 0)
(4.10394e-15 2.63451e-14 0)
(1.08132e-14 1.77485e-14 0)
(6.16665e-15 4.621e-15 0)
(1.23804e-14 -9.10981e-15 0)
(1.53237e-14 -1.99888e-14 0)
(2.2493e-14 -2.63291e-14 0)
(2.77975e-14 -2.67466e-14 0)
(3.3453e-14 -2.16658e-14 0)
(3.65056e-14 -1.22893e-14 0)
(3.76957e-14 -9.82674e-16 0)
(3.61965e-14 9.81052e-15 0)
(3.28223e-14 1.76188e-14 0)
(2.81809e-14 2.08482e-14 0)
(2.3386e-14 1.88625e-14 0)
(1.93824e-14 1.22897e-14 0)
(1.70398e-14 2.76762e-15 0)
(1.66381e-14 -7.36539e-15 0)
(1.79778e-14 -1.57529e-14 0)
(2.04479e-14 -2.05088e-14 0)
(2.3083e-14 -2.07201e-14 0)
(2.486e-14 -1.66336e-14 0)
(2.50097e-14 -9.55045e-15 0)
(2.31842e-14 -1.43143e-15 0)
(1.95207e-14 5.64451e-15 0)
(1.45879e-14 1.00539e-14 0)
(9.18388e-15 1.09801e-14 0)
(4.18956e-15 8.62847e-15 0)
(1.47847e-16 3.99128e-15 0)
(-2.61407e-15 -1.43186e-15 0)
(-4.37251e-15 -6.18237e-15 0)
(-5.44743e-15 -9.17225e-15 0)
(-6.64803e-15 -1.00072e-14 0)
(-8.22913e-15 -8.88737e-15 0)
(-1.08284e-14 -6.48313e-15 0)
(-1.39954e-14 -3.57364e-15 0)
(-1.80597e-14 -6.90649e-16 0)
(-2.19442e-14 1.78692e-15 0)
(-2.61224e-14 4.12198e-15 0)
(-2.94267e-14 6.09946e-15 0)
(-3.29752e-14 8.20283e-15 0)
(-3.57528e-14 9.19602e-15 0)
(-3.90524e-14 9.39699e-15 0)
(-4.17041e-14 6.38532e-15 0)
(-4.44659e-14 1.61056e-15 0)
(-4.58191e-14 -7.22222e-15 0)
(-4.58469e-14 -1.55085e-14 0)
(-4.32175e-14 -2.47088e-14 0)
(-3.90738e-14 -2.75099e-14 0)
(-3.16574e-14 -2.6821e-14 0)
(-2.71268e-14 -1.62157e-14 0)
(-1.81779e-14 -4.90243e-15 0)
(-2.03703e-14 1.28347e-14 0)
(-1.50351e-14 1.66768e-14 0)
(-2.01047e-14 2.43842e-14 0)
(-2.18886e-14 9.53028e-15 0)
(8.92965e-16 -2.11367e-16 0)
(3.95745e-14 9.4378e-15 0)
(1.56922e-14 8.03523e-15 0)
(-4.01817e-15 1.75694e-14 0)
(1.15069e-14 3.22453e-14 0)
(4.73381e-15 2.95268e-14 0)
(1.15056e-14 2.13892e-14 0)
(6.45422e-15 7.78273e-15 0)
(1.29421e-14 -7.08374e-15 0)
(1.61819e-14 -1.9369e-14 0)
(2.39698e-14 -2.71662e-14 0)
(2.989e-14 -2.87139e-14 0)
(3.61822e-14 -2.42508e-14 0)
(3.96825e-14 -1.48388e-14 0)
(4.11081e-14 -2.90142e-15 0)
(3.95565e-14 8.97811e-15 0)
(3.58852e-14 1.80587e-14 0)
(3.07662e-14 2.24686e-14 0)
(2.54224e-14 2.13024e-14 0)
(2.09213e-14 1.50167e-14 0)
(1.82286e-14 5.19715e-15 0)
(1.77013e-14 -5.72135e-15 0)
(1.91307e-14 -1.51821e-14 0)
(2.18626e-14 -2.10318e-14 0)
(2.48317e-14 -2.20972e-14 0)
(2.68982e-14 -1.84345e-14 0)
(2.71947e-14 -1.12751e-14 0)
(2.53129e-14 -2.63634e-15 0)
(2.13773e-14 5.23711e-15 0)
(1.60009e-14 1.05003e-14 0)
(1.00623e-14 1.21162e-14 0)
(4.5425e-15 1.01361e-14 0)
(5.78261e-17 5.49213e-15 0)
(-3.01337e-15 -2.69052e-16 0)
(-4.94883e-15 -5.56998e-15 0)
(-6.10119e-15 -9.15852e-15 0)
(-7.34513e-15 -1.05006e-14 0)
(-8.98567e-15 -9.69369e-15 0)
(-1.17121e-14 -7.38092e-15 0)
(-1.50774e-14 -4.35734e-15 0)
(-1.94202e-14 -1.2136e-15 0)
(-2.36056e-14 1.61418e-15 0)
(-2.8115e-14 4.35369e-15 0)
(-3.17199e-14 6.75103e-15 0)
(-3.55929e-14 9.30704e-15 0)
(-3.86707e-14 1.06861e-14 0)
(-4.23271e-14 1.12254e-14 0)
(-4.53047e-14 8.25051e-15 0)
(-4.83835e-14 3.2882e-15 0)
(-4.99091e-14 -6.30722e-15 0)
(-4.99405e-14 -1.55546e-14 0)
(-4.70215e-14 -2.61968e-14 0)
(-4.23711e-14 -3.00903e-14 0)
(-3.41796e-14 -3.0379e-14 0)
(-2.90287e-14 -1.96502e-14 0)
(-1.93296e-14 -7.70541e-15 0)
(-2.16031e-14 1.19158e-14 0)
(-1.61045e-14 1.69951e-14 0)
(-2.1736e-14 2.67633e-14 0)
(-2.37964e-14 1.04343e-14 0)
(6.05292e-16 -2.48866e-16 0)
(4.50177e-14 6.00813e-15 0)
(2.10458e-14 7.28463e-15 0)
(-2.72343e-15 1.7994e-14 0)
(1.2864e-14 3.41281e-14 0)
(5.43362e-15 3.27654e-14 0)
(1.2205e-14 2.52779e-14 0)
(6.72243e-15 1.13115e-14 0)
(1.34564e-14 -4.64999e-15 0)
(1.69982e-14 -1.83854e-14 0)
(2.54176e-14 -2.77542e-14 0)
(3.1989e-14 -3.05881e-14 0)
(3.89533e-14 -2.69057e-14 0)
(4.29442e-14 -1.75912e-14 0)
(4.46323e-14 -5.10028e-15 0)
(4.30431e-14 7.85999e-15 0)
(3.90731e-14 1.82774e-14 0)
(3.34586e-14 2.39859e-14 0)
(2.75357e-14 2.37828e-14 0)
(2.25001e-14 1.79203e-14 0)
(1.94269e-14 7.90076e-15 0)
(1.87505e-14 -3.76553e-15 0)
(2.02626e-14 -1.43282e-14 0)
(2.32649e-14 -2.13555e-14 0)
(2.65877e-14 -2.33916e-14 0)
(2.89689e-14 -2.02719e-14 0)
(2.94383e-14 -1.31288e-14 0)
(2.75157e-14 -4.01633e-15 0)
(2.331e-14 4.66297e-15 0)
(1.74788e-14 1.08348e-14 0)
(1.09847e-14 1.32227e-14 0)
(4.91222e-15 1.17004e-14 0)
(-4.13978e-17 7.11746e-15 0)
(-3.44302e-15 1.05235e-15 0)
(-5.56665e-15 -4.80137e-15 0)
(-6.79884e-15 -9.02225e-15 0)
(-8.08176e-15 -1.09225e-14 0)
(-9.77506e-15 -1.04807e-14 0)
(-1.2621e-14 -8.30399e-15 0)
(-1.61825e-14 -5.19605e-15 0)
(-2.08015e-14 -1.80848e-15 0)
(-2.52905e-14 1.36539e-15 0)
(-3.01357e-14 4.51023e-15 0)
(-3.40482e-14 7.33715e-15 0)
(-3.82505e-14 1.03671e-14 0)
(-4.16378e-14 1.21732e-14 0)
(-4.5665e-14 1.31159e-14 0)
(-4.89881e-14 1.02596e-14 0)
(-5.24091e-14 5.19754e-15 0)
(-5.41276e-14 -5.10302e-15 0)
(-5.41799e-14 -1.5299e-14 0)
(-5.09694e-14 -2.746e-14 0)
(-4.57896e-14 -3.2585e-14 0)