/*--------------------------------*- C++ -*----------------------------------*\
| =========                 |                                                 |
| \\      /  F ield         | foam-extend: Open Source CFD                    |
|  \\    /   O peration     | Version:     4.0                                |
|   \\  /    A nd           | Web:         http://www.foam-extend.org         |
|    \\/     M anipulation  |                                                 |
\*---------------------------------------------------------------------------*/
FoamFile
{
    version     2.0;
    format      ascii;
    class       volScalarField;
    location    "1";
    object      p;
}
// * * * * * * * * * * * * * * * * * * * * * * * * * * * * * * * * * * * * * //

dimensions      [0 2 -2 0 0 0 0];

internalField   nonuniform List<scalar> 
6960
(
793533
-50000
-50000
-50000
3.42619e+06
3.16951e+07
3.74355e+07
5.31817e+06
-50000
-50000
-50000
-50000
-50000
4.07902e+06
3.16683e+07
3.36309e+07
8.06691e+06
-50000
-50000
4.30784e+06
-50000
-50000
-50000
1.65919e+07
2.18486e+07
2.08186e+07
1.81146e+07
-50000
-50000
-50000
4.65908e+06
3.31298e+07
1.55733e+07
-50000
-50000
1.9751e+06
2.10115e+07
500568
-50000
1.17401e+07
2.73418e+07
-50000
-50000
-50000
1.85919e+07
3.64892e+07
1.64853e+07
3.40172e+06
9.61523e+06
4.33998e+06
-50000
-50000
-50000
-50000
9.09952e+06
3.1887e+07
3.79101e+07
1.59738e+07
-50000
-50000
1.17243e+06
-50000
-50000
-50000
1.90526e+06
2.92057e+07
3.59493e+07
5.65771e+06
-50000
-50000
-50000
-50000
-50000
4.74225e+06
3.16116e+07
3.31183e+07
8.18409e+06
-50000
-50000
4.65097e+06
-50000
-50000
-50000
1.65988e+07
2.21285e+07
2.08963e+07
1.84073e+07
-50000
-50000
-50000
2.68654e+06
3.2741e+07
1.71055e+07
-50000
-50000
2.03753e+06
2.01793e+07
-50000
-50000
1.11863e+07
2.79767e+07
-50000
-50000
-50000
1.8747e+07
3.50048e+07
1.44033e+07
1.99023e+06
8.97455e+06
3.84234e+06
-50000
-50000
-50000
-50000
7.31622e+06
2.91651e+07
3.68156e+07
1.71763e+07
-50000
-50000
1.37587e+06
-50000
-50000
-50000
1.56136e+06
2.80101e+07
3.47748e+07
5.55442e+06
-50000
-50000
-50000
-50000
-50000
5.17519e+06
3.11715e+07
3.23947e+07
8.07001e+06
-50000
-50000
4.51221e+06
-50000
-50000
-50000
1.6324e+07
2.1649e+07
2.02641e+07
1.7945e+07
-50000
-50000
-50000
2.23869e+06
3.18975e+07
1.69829e+07
-50000
-50000
2.06751e+06
1.96611e+07
-50000
-50000
1.0742e+07
2.74304e+07
-50000
-50000
-50000
1.83984e+07
3.39084e+07
1.36613e+07
1.85807e+06
8.7974e+06
3.57529e+06
-50000
-50000
-50000
-50000
6.96789e+06
2.83402e+07
3.60068e+07
1.68733e+07
-50000
-50000
1.77273e+06
-50000
-50000
-50000
1.4288e+06
2.65825e+07
3.31924e+07
5.32718e+06
-50000
-50000
-50000
-50000
-50000
5.66412e+06
3.03813e+07
3.12302e+07
7.88923e+06
-50000
-50000
4.16107e+06
-50000
-50000
-50000
1.58329e+07
2.07263e+07
1.91566e+07
1.69908e+07
-50000
-50000
-50000
2.101e+06
3.05456e+07
1.62411e+07
-50000
-50000
2.1124e+06
1.90506e+07
-50000
-50000
1.02005e+07
2.62421e+07
-50000
-50000
-50000
1.76932e+07
3.2417e+07
1.3093e+07
2.06479e+06
8.74173e+06
3.3181e+06
-50000
-50000
-50000
-50000
6.97373e+06
2.76007e+07
3.4862e+07
1.62836e+07
-50000
-50000
2.14367e+06
-50000
-50000
-50000
1.29378e+06
2.46994e+07
3.115e+07
5.09332e+06
-50000
-50000
-50000
-50000
-50000
6.20126e+06
2.92536e+07
2.97237e+07
7.66301e+06
-50000
-50000
3.7571e+06
-50000
-50000
-50000
1.51997e+07
1.95196e+07
1.7588e+07
1.56123e+07
-50000
-50000
-50000
1.98417e+06
2.87429e+07
1.5187e+07
-50000
-50000
2.19091e+06
1.83325e+07
-50000
-50000
9.54047e+06
2.46557e+07
-50000
-50000
-50000
1.67522e+07
3.05316e+07
1.23139e+07
2.32461e+06
8.84108e+06
3.05735e+06
-50000
-50000
-50000
-50000
7.07545e+06
2.64551e+07
3.33667e+07
1.56848e+07
-50000
-50000
2.06654e+06
-50000
-50000
-50000
1.06602e+06
2.24922e+07
2.8727e+07
4.79333e+06
-50000
-50000
-50000
-50000
-50000
6.76224e+06
2.7844e+07
2.7923e+07
7.32485e+06
-50000
-50000
3.32445e+06
-50000
-50000
-50000
1.44828e+07
1.80354e+07
1.55827e+07
1.39164e+07
-50000
-50000
-50000
1.83139e+06
2.65274e+07
1.39045e+07
-50000
-50000
2.30192e+06
1.7482e+07
-50000
-50000
8.70569e+06
2.27415e+07
-50000
-50000
-50000
1.56727e+07
2.82395e+07
1.12903e+07
2.65286e+06
9.0095e+06
2.7856e+06
-50000
-50000
-50000
-50000
7.19064e+06
2.50606e+07
3.14994e+07
1.4816e+07
-50000
-50000
1.83332e+06
-50000
-50000
-50000
783466
1.99351e+07
2.59449e+07
4.40028e+06
-50000
-50000
-50000
-50000
-50000
7.34883e+06
2.61981e+07
2.57392e+07
6.86387e+06
-50000
-50000
2.81458e+06
-50000
-50000
-50000
1.36374e+07
1.62439e+07
1.33111e+07
1.19854e+07
-50000
-50000
-50000
1.63938e+06
2.39362e+07
1.23898e+07
-50000
-50000
2.41209e+06
1.64678e+07
-50000
-50000
7.7039e+06
2.04628e+07
-50000
-50000
-50000
1.43956e+07
2.55255e+07
1.01891e+07
3.05891e+06
9.10695e+06
2.50971e+06
-50000
-50000
-50000
-50000
7.2943e+06
2.34996e+07
2.92372e+07
1.3763e+07
-50000
-50000
1.63197e+06
-50000
-50000
-50000
626422
1.70871e+07
2.27392e+07
3.95482e+06
-50000
-50000
-50000
-50000
-50000
7.99443e+06
2.42278e+07
2.31762e+07
6.35352e+06
-50000
-50000
2.22012e+06
-50000
-50000
-50000
1.25998e+07
1.42501e+07
1.08571e+07
9.85026e+06
-50000
-50000
-50000
1.46088e+06
2.09947e+07
1.06533e+07
-50000
-50000
2.51347e+06
1.52731e+07
-50000
-50000
6.59063e+06
1.78546e+07
-50000
-50000
-50000
1.28498e+07
2.25136e+07
9.03945e+06
3.51677e+06
9.15422e+06
2.16407e+06
-50000
-50000
-50000
-50000
7.39331e+06
2.17495e+07
2.67265e+07
1.25161e+07
-50000
-50000
1.21788e+06
-50000
-50000
-50000
532389
1.41083e+07
1.92343e+07
3.45349e+06
-50000
-50000
-50000
-50000
-50000
8.58701e+06
2.19481e+07
2.03469e+07
5.80535e+06
-50000
-50000
1.62274e+06
-50000
-50000
-50000
1.14693e+07
1.21298e+07
8.20817e+06
7.57121e+06
-50000
-50000
-50000
1.29542e+06
1.77871e+07
8.75611e+06
-50000
-50000
2.62413e+06
1.39618e+07
-50000
-50000
5.4057e+06
1.50428e+07
-50000
-50000
-50000
1.1154e+07
1.9266e+07
7.78982e+06
3.98983e+06
9.20892e+06
1.80384e+06
-50000
-50000
-50000
-50000
7.51349e+06
1.97737e+07
2.39077e+07
1.11085e+07
-50000
-50000
504584
-50000
-50000
-50000
329111
1.09604e+07
1.56642e+07
2.96443e+06
-50000
-50000
-50000
-50000
-50000
8.94932e+06
1.94681e+07
1.73546e+07
5.17145e+06
-50000
-50000
1.1141e+06
-50000
-50000
-50000
1.03321e+07
9.88891e+06
5.43398e+06
5.19967e+06
-50000
-50000
-50000
1.06541e+06
1.4445e+07
6.78421e+06
-50000
-50000
2.75513e+06
1.26218e+07
-50000
-50000
4.19083e+06
1.21279e+07
-50000
-50000
-50000
9.44992e+06
1.58216e+07
6.41575e+06
4.44467e+06
9.28258e+06
1.533e+06
-50000
-50000
-50000
-50000
7.50059e+06
1.75365e+07
2.08708e+07
9.73915e+06
-50000
-50000
-50000
-50000
-50000
-50000
116272
7.69531e+06
1.20394e+07
2.50859e+06
-50000
-50000
-50000
-50000
-50000
9.10988e+06
1.67726e+07
1.42286e+07
4.44694e+06
-50000
-50000
678575
-50000
-50000
-50000
9.1285e+06
7.58659e+06
2.63562e+06
2.79674e+06
-50000
-50000
-50000
784617
1.10078e+07
4.79075e+06
-50000
-50000
2.90136e+06
1.12237e+07
104585
-50000
2.93871e+06
9.14878e+06
-50000
-50000
-50000
7.7035e+06
1.22951e+07
4.96856e+06
4.87614e+06
9.31771e+06
1.29977e+06
-50000
-50000
-50000
941046
7.31068e+06
1.51581e+07
1.77692e+07
8.24778e+06
-50000
-50000
-50000
-50000
-50000
-50000
18403.2
4.56152e+06
8.3196e+06
1.94459e+06
-50000
-50000
-50000
-50000
1.64609e+06
9.15002e+06
1.38633e+07
1.09106e+07
3.66084e+06
-50000
-50000
267775
-50000
-50000
-50000
7.84355e+06
5.25243e+06
-50000
468489
-50000
-50000
-50000
532915
7.48655e+06
2.76193e+06
-50000
-50000
3.01923e+06
9.73298e+06
415688
-50000
1.64225e+06
6.11836e+06
-50000
-50000
-50000
5.83591e+06
8.74576e+06
3.59922e+06
5.2464e+06
9.20627e+06
1.09186e+06
-50000
-50000
-50000
2.20468e+06
7.161e+06
1.26998e+07
1.43887e+07
6.59172e+06
-50000
-50000
-50000
-50000
41691.1
1.27105e+06
-28156.8
1.5477e+06
4.61483e+06
1.32873e+06
-50000
-50000
-50000
-50000
3.29809e+06
8.98339e+06
1.07883e+07
7.44553e+06
2.84616e+06
490608
762731
-50000
-50000
-50000
308721
6.51434e+06
2.92463e+06
-50000
-50000
-14459
-50000
-50000
299946
3.98526e+06
723391
-50000
-50000
3.09637e+06
8.21321e+06
726768
-50000
394558
3.09306e+06
-50000
-50000
-50000
3.91223e+06
5.22328e+06
2.28864e+06
5.52513e+06
8.98844e+06
946034
-50000
-50000
-50000
3.38201e+06
6.94256e+06
1.00897e+07
1.08579e+07
4.97603e+06
-50000
-50000
-50000
-50000
1.53387e+06
3.13181e+06
-50000
-50000
1.02988e+06
825953
-50000
-50000
-50000
-50000
4.72637e+06
8.49173e+06
7.5556e+06
4.02042e+06
1.99947e+06
1.87598e+06
1.75736e+06
-50000
-50000
-50000
1.03792e+06
5.16888e+06
695403
-50000
-50000
495228
1.44237e+06
172873
35050.7
606053
-50000
-50000
-50000
3.19235e+06
6.70713e+06
999854
-50000
-50000
187841
-50000
-50000
-50000
2.08162e+06
1.79153e+06
904109
5.73634e+06
8.75166e+06
841278
-50000
-50000
-50000
4.48779e+06
6.41946e+06
7.38236e+06
7.4865e+06
3.34891e+06
-50000
-50000
-50000
-50000
2.83617e+06
4.83196e+06
-50000
-50000
-50000
318165
-50000
-50000
-50000
166270
5.85515e+06
7.68211e+06
4.25068e+06
680640
1.09136e+06
3.10144e+06
2.74727e+06
-50000
-50000
-50000
1.74851e+06
3.86145e+06
-50000
-50000
-50000
1.01111e+06
5.11328e+06
3.71187e+06
-50000
-50000
-50000
-50000
-50000
3.30116e+06
5.21905e+06
1.26015e+06
-50000
-50000
-50000
-50000
-50000
-50000
366038
-50000
-50000
5.83474e+06
8.39715e+06
819911
-50000
-50000
-50000
5.4407e+06
5.76825e+06
4.6522e+06
4.06178e+06
1.68227e+06
-50000
-50000
-50000
-50000
4.03961e+06
6.19399e+06
-50000
-50000
-50000
-50000
858677
-50000
-50000
886917
6.64658e+06
6.64523e+06
939103
-50000
157627
4.22888e+06
3.67258e+06
-50000
-50000
-50000
2.46075e+06
2.56398e+06
-50000
-50000
-50000
1.50205e+06
8.49359e+06
6.98466e+06
-50000
-50000
-50000
-50000
1.45949e+06
3.35654e+06
3.76917e+06
1.52918e+06
-50000
-50000
-50000
-50000
-50000
-50000
-50000
-50000
-50000
5.73344e+06
7.8629e+06
899275
-50000
-50000
1.36318e+06
6.23426e+06
5.11464e+06
1.86993e+06
519305
61417.1
285340
2.57652e+06
-50000
-50000
5.06467e+06
7.44514e+06
-50000
-50000
-50000
-50000
3.03209e+06
-50000
-50000
1.47899e+06
7.17511e+06
5.41048e+06
-50000
-50000
-50000
5.24677e+06
4.53402e+06
-50000
-50000
673508
3.11744e+06
1.22373e+06
-50000
-50000
-50000
1.96155e+06
1.15273e+07
9.9478e+06
-50000
-50000
-50000
567755
3.94948e+06
3.37538e+06
2.35174e+06
1.77446e+06
-50000
-50000
-50000
-50000
-50000
2.25189e+06
-50000
-50000
-50000
5.47265e+06
7.2158e+06
998232
-50000
-50000
3.17807e+06
6.86737e+06
4.29041e+06
-50000
-50000
-50000
1.23347e+06
5.6126e+06
-50000
-50000
5.68908e+06
8.55862e+06
-50000
-50000
-50000
-50000
5.10322e+06
1.84703e+06
-50000
1.99669e+06
7.44635e+06
3.93158e+06
-50000
-50000
-50000
6.123e+06
5.31194e+06
-32253.6
-50000
2.5103e+06
3.68844e+06
-50000
-50000
-50000
-50000
2.37391e+06
1.41675e+07
1.25785e+07
-50000
-50000
-50000
2.27018e+06
6.30107e+06
3.39345e+06
967194
1.97656e+06
1.21053e+06
-50000
-50000
-50000
3.33846e+06
4.43343e+06
-50000
-50000
-50000
5.12442e+06
6.42748e+06
1.10527e+06
-50000
-50000
4.98274e+06
7.26434e+06
3.23953e+06
-50000
-50000
-50000
2.04704e+06
8.32866e+06
-50000
-50000
6.19856e+06
9.27924e+06
-45995.6
-50000
-50000
-50000
6.92626e+06
3.87903e+06
-50000
2.47647e+06
7.37679e+06
2.22411e+06
-50000
-50000
-50000
6.79264e+06
5.97796e+06
310087
206734
4.23528e+06
4.20301e+06
-50000
-50000
-50000
-50000
2.756e+06
1.64164e+07
1.48179e+07
-50000
-50000
-50000
3.88815e+06
8.46739e+06
3.39581e+06
-50000
2.15508e+06
2.38049e+06
-50000
-50000
-50000
6.74425e+06
6.47073e+06
-50000
-50000
-50000
4.60758e+06
5.47573e+06
1.27137e+06
-50000
2.73501e+06
6.65305e+06
7.4379e+06
2.10835e+06
-50000
-50000
-50000
2.85336e+06
1.10887e+07
-50000
-50000
6.6924e+06
9.76699e+06
-50000
-50000
-50000
-50000
8.49627e+06
5.80007e+06
43633.1
2.90439e+06
7.02027e+06
369465
-50000
-50000
-50000
7.24189e+06
6.55975e+06
769107
1.36198e+06
5.8946e+06
4.63202e+06
-50000
-50000
-50000
-50000
3.13549e+06
1.8258e+07
1.66315e+07
-50000
-50000
-50000
5.42177e+06
1.04137e+07
3.38172e+06
-50000
2.30256e+06
3.43154e+06
-50000
-50000
-50000
9.95405e+06
8.29074e+06
-50000
-50000
-50000
3.8384e+06
4.43476e+06
1.51038e+06
2.28714e+06
5.58795e+06
8.11826e+06
7.49569e+06
989734
-50000
-50000
-50000
3.71407e+06
1.35199e+07
-50000
-50000
6.78976e+06
1.01024e+07
-50000
-50000
-50000
-50000
9.94202e+06
7.64309e+06
1.11306e+06
3.25642e+06
6.49697e+06
-50000
-50000
-50000
-50000
7.58633e+06
7.03131e+06
1.22799e+06
2.5838e+06
7.49349e+06
4.95329e+06
-50000
-50000
-50000
-50000
3.4549e+06
1.96416e+07
1.80591e+07
-50000
-50000
-50000
6.87843e+06
1.21688e+07
3.34284e+06
-50000
2.41363e+06
4.43256e+06
-50000
-50000
-50000
1.29374e+07
9.90898e+06
-50000
-50000
-50000
2.92896e+06
3.28196e+06
1.76198e+06
4.68592e+06
8.37284e+06
9.47161e+06
7.40386e+06
-50000
-50000
-50000
-50000
4.44753e+06
1.52121e+07
-50000
-50000
6.65244e+06
1.00837e+07
-6521.02
-50000
-50000
-50000
1.12136e+07
9.41968e+06
2.21139e+06
3.53868e+06
5.80566e+06
-50000
-50000
-50000
-50000
7.82926e+06
7.36437e+06
1.70144e+06
3.83292e+06
8.97465e+06
5.19841e+06
-50000
-50000
-50000
-50000
3.68591e+06
2.05661e+07
1.91096e+07
-50000
-50000
-50000
8.24756e+06
1.37493e+07
3.26768e+06
-50000
2.50978e+06
5.38184e+06
-50000
-50000
-50000
1.56781e+07
1.13759e+07
-50000
-50000
-50000
1.97674e+06
1.95919e+06
1.94329e+06
7.10072e+06
1.11148e+07
1.06907e+07
7.03322e+06
-50000
-50000
-50000
-50000
4.91787e+06
1.71777e+07
-50000
-50000
6.54193e+06
9.8501e+06
-20749.1
-50000
-50000
-50000
1.22208e+07
1.1041e+07
3.41105e+06
3.8218e+06
4.9485e+06
-50000
-50000
-50000
-50000
7.86272e+06
7.58846e+06
2.23206e+06
5.03857e+06
1.03118e+07
5.34717e+06
-50000
-50000
-50000
-50000
3.88279e+06
2.1072e+07
1.97523e+07
-50000
-50000
-50000
9.49348e+06
1.5092e+07
3.18889e+06
-50000
2.57238e+06
6.22669e+06
-50000
-50000
-50000
1.81583e+07
1.26687e+07
-50000
-50000
-50000
886101
539616
2.11258e+06
9.48915e+06
1.37247e+07
1.16517e+07
6.47211e+06
-50000
-50000
-50000
-50000
5.4762e+06
1.89457e+07
-50000
-50000
6.2096e+06
9.49959e+06
-18976.6
-50000
-50000
-50000
1.30076e+07
1.24957e+07
4.64674e+06
4.13962e+06
4.00176e+06
-50000
-50000
-50000
-50000
7.71461e+06
7.67679e+06
2.78578e+06
6.21147e+06
1.14471e+07
5.37173e+06
-50000
-50000
-50000
-50000
4.04213e+06
2.1181e+07
1.99987e+07
-50000
-50000
-50000
1.06045e+07
1.61667e+07
3.10011e+06
-50000
2.5793e+06
6.93795e+06
-50000
-50000
1.26586e+06
2.03159e+07
1.37539e+07
-50000
-50000
-50000
-50000
-50000
2.34705e+06
1.17203e+07
1.60581e+07
1.24016e+07
5.88918e+06
-50000
-50000
-50000
-50000
5.99718e+06
1.98189e+07
-50000
-50000
5.74151e+06
8.85277e+06
19229.2
-50000
-50000
-50000
1.35986e+07
1.38185e+07
5.89027e+06
4.43103e+06
3.00807e+06
-50000
-50000
-50000
-50000
7.46702e+06
7.60732e+06
3.29434e+06
7.31294e+06
1.23763e+07
5.29364e+06
-50000
-50000
-50000
-50000
4.12424e+06
2.08919e+07
1.98851e+07
-50000
-50000
-50000
1.15907e+07
1.70104e+07
2.96029e+06
-50000
2.54576e+06
7.52418e+06
-50000
-50000
2.65203e+06
2.21819e+07
1.46498e+07
-50000
-50000
-50000
-50000
-50000
2.53682e+06
1.37709e+07
1.81305e+07
1.29987e+07
5.20843e+06
-50000
-50000
-50000
-50000
6.23411e+06
2.07543e+07
-50000
-50000
5.33421e+06
8.05385e+06
22795.1
-50000
-50000
-50000
1.40042e+07
1.49797e+07
7.113e+06
4.68644e+06
2.01374e+06
-50000
-50000
-50000
-50000
7.13398e+06
7.41477e+06
3.68864e+06
8.26605e+06
1.31445e+07
5.11514e+06
-50000
-50000
-50000
-50000
4.1159e+06
2.02122e+07
1.94548e+07
-50000
-50000
-50000
1.24352e+07
1.76321e+07
2.77957e+06
-50000
2.469e+06
8.03931e+06
-50000
-50000
4.04481e+06
2.37958e+07
1.53873e+07
-50000
-50000
-50000
-50000
-50000
2.59987e+06
1.56655e+07
1.99962e+07
1.33576e+07
4.33068e+06
-50000
-50000
-50000
-50000
6.50413e+06
2.14325e+07
-50000
-50000
4.77345e+06
7.24151e+06
79392.9
-50000
-50000
-50000
1.42476e+07
1.59552e+07
8.25284e+06
4.94854e+06
1.07159e+06
-50000
-50000
-50000
-50000
6.69104e+06
7.07474e+06
3.97643e+06
9.05587e+06
1.36844e+07
4.83134e+06
-50000
-50000
-50000
-50000
4.0038e+06
1.91866e+07
1.8739e+07
-50000
-50000
-50000
1.31136e+07
1.80046e+07
2.54813e+06
-50000
2.33854e+06
8.453e+06
-50000
-50000
5.43469e+06
2.51014e+07
1.5953e+07
-50000
-50000
-50000
-50000
-50000
2.60696e+06
1.73435e+07
2.15602e+07
1.34407e+07
3.35223e+06
-50000
-50000
-50000
-50000
6.65837e+06
2.15877e+07
-50000
-50000
4.1641e+06
6.24518e+06
159480
-50000
-50000
-50000
1.42771e+07
1.67215e+07
9.35241e+06
5.20909e+06
158126
-50000
-50000
-50000
-50000
6.09775e+06
6.55503e+06
4.18923e+06
9.6605e+06
1.39305e+07
4.43448e+06
-50000
-50000
-50000
-50000
3.81158e+06
1.78741e+07
1.77272e+07
-50000
-50000
-50000
1.36111e+07
1.8098e+07
2.2339e+06
-50000
2.13519e+06
8.66527e+06
-50000
-50000
6.74834e+06
2.60686e+07
1.63117e+07
-50000
-50000
-50000
-50000
-50000
2.58937e+06
1.87119e+07
2.27129e+07
1.32855e+07
2.37287e+06
-50000
-50000
-50000
-50000
6.6172e+06
2.1808e+07
-50000
895346
3.72131e+06
5.14885e+06
165414
-50000
-50000
-50000
1.40826e+07
1.7253e+07
1.03918e+07
5.45493e+06
-50000
-50000
-50000
-50000
-50000
5.3922e+06
5.88111e+06
4.24679e+06
1.00522e+07
1.39216e+07
3.89884e+06
-50000
-50000
-50000
-50000
3.54611e+06
1.63011e+07
1.64516e+07
-50000
-50000
-50000
1.39015e+07
1.79075e+07
1.85742e+06
-50000
1.82276e+06
8.71436e+06
-50000
-50000
7.95219e+06
2.66994e+07
1.64746e+07
-50000
-50000
-50000
-50000
-50000
2.49346e+06
1.97226e+07
2.34534e+07
1.29233e+07
1.3874e+06
-50000
-50000
-50000
-50000
6.65225e+06
2.13632e+07
7916.81
1.93178e+06
3.21909e+06
4.0968e+06
211031
-50000
-50000
-50000
1.37464e+07
1.75728e+07
1.1245e+07
5.65705e+06
-50000
-50000
-50000
-50000
-50000
4.64825e+06
5.05661e+06
4.08419e+06
1.02063e+07
1.36738e+07
3.25834e+06
-50000
-50000
-50000
-50000
3.14529e+06
1.44816e+07
1.50038e+07
-50000
-50000
-50000
1.39825e+07
1.74728e+07
1.39939e+06
-50000
1.43008e+06
8.67072e+06
-50000
-50000
9.05495e+06
2.70033e+07
1.6476e+07
-50000
-50000
-50000
-50000
-50000
2.26202e+06
2.04149e+07
2.38315e+07
1.23405e+07
324950
-50000
-50000
-50000
-50000
6.4242e+06
2.06262e+07
1.8656e+06
3.19733e+06
2.6927e+06
2.97077e+06
309319
-50000
-50000
-50000
1.32786e+07
1.76705e+07
1.19133e+07
5.77119e+06
-50000
-50000
-50000
-50000
-50000
3.83893e+06
4.07699e+06
3.73981e+06
1.00814e+07
1.31782e+07
2.55174e+06
-50000
-50000
-50000
-50000
2.61399e+06
1.24656e+07
1.34118e+07
-50000
-50000
-50000
1.38716e+07
1.68076e+07
806689
-50000
991805
8.47732e+06
-50000
-50000
9.99619e+06
2.70259e+07
1.62971e+07
-50000
-50000
-50000
-50000
-50000
1.90946e+06
2.08115e+07
2.38444e+07
1.14667e+07
-50000
-50000
-50000
-50000
-50000
6.06188e+06
2.02641e+07
3.44035e+06
4.54025e+06
2.38308e+06
1.85104e+06
334710
-50000
-50000
-50000
1.26404e+07
1.75058e+07
1.24222e+07
5.82926e+06
-50000
-50000
-50000
-50000
-50000
2.94607e+06
2.96209e+06
3.21887e+06
9.70486e+06
1.24425e+07
1.74031e+06
-50000
-50000
-50000
-50000
2.00929e+06
1.03259e+07
1.16736e+07
-50000
-50000
-50000
1.35423e+07
1.58782e+07
119455
-50000
453354
8.1104e+06
-50000
-50000
1.07432e+07
2.67497e+07
1.59058e+07
-50000
-50000
-50000
-50000
-50000
1.50094e+06
2.08145e+07
2.34221e+07
1.03613e+07
-50000
-50000
-50000
-50000
-50000
5.8919e+06
1.90414e+07
5.34167e+06
5.73868e+06
2.07351e+06
858942
378602
-50000
-50000
-50000
1.18554e+07
1.71109e+07
1.27241e+07
5.84369e+06
-50000
-50000
-50000
-50000
-50000
2.01409e+06
1.72825e+06
2.51463e+06
9.11767e+06
1.14673e+07
836046
-50000
-50000
21696.8
400686
1.32014e+06
8.11046e+06
9.85285e+06
53545.5
-50000
-50000
1.29756e+07
1.47017e+07
-50000
-50000
-50000
7.62176e+06
-50000
-50000
1.13123e+07
2.61238e+07
1.5339e+07
-50000
-50000
-50000
-50000
-50000
1.01407e+06
2.04101e+07
2.2579e+07
9.15111e+06
-50000
-50000
-50000
-50000
-50000
5.34336e+06
1.751e+07
7.40105e+06
7.10866e+06
1.70733e+06
-50000
479052
-50000
-50000
-50000
1.09466e+07
1.65185e+07
1.28405e+07
5.75825e+06
-50000
-50000
-50000
-50000
-50000
1.05927e+06
403631
1.66201e+06
8.29585e+06
1.02995e+07
-50000
-50000
-50000
1.32061e+06
1.27266e+06
547336
5.84987e+06
8.01415e+06
161900
-50000
-50000
1.22142e+07
1.33407e+07
-50000
-50000
-50000
7.03133e+06
-50000
-50000
1.16779e+07
2.52129e+07
1.46453e+07
-50000
-50000
-50000
-50000
-50000
423344
1.97332e+07
2.14122e+07
7.74641e+06
-50000
-50000
-50000
-50000
-50000
4.6457e+06
1.65994e+07
8.90342e+06
8.59293e+06
1.60133e+06
-50000
477690
-50000
-50000
-50000
9.93004e+06
1.57062e+07
1.27652e+07
5.58994e+06
-50000
-50000
-50000
-50000
-50000
122354
-50000
656651
7.27172e+06
9.01543e+06
-50000
-50000
-50000
2.47589e+06
1.97895e+06
-50000
3.60264e+06
6.19106e+06
263906
-50000
-50000
1.1286e+07
1.18265e+07
-50000
-50000
-50000
6.36414e+06
-50000
-50000
1.18361e+07
2.41047e+07
1.38077e+07
-50000
-50000
-50000
-50000
-50000
-50000
1.87969e+07
1.99296e+07
6.11664e+06
-50000
-50000
-50000
-50000
-50000
4.31764e+06
1.49998e+07
1.0403e+07
9.75334e+06
1.58666e+06
-50000
472048
-50000
-50000
-50000
8.87538e+06
1.46975e+07
1.24329e+07
5.36521e+06
-50000
-50000
-50000
-50000
-50000
-50000
-50000
-50000
6.11002e+06
7.63992e+06
-50000
-50000
-50000
3.47281e+06
2.53093e+06
-50000
1.43197e+06
4.43064e+06
343674
-50000
-50000
1.01932e+07
1.01772e+07
-50000
-50000
-50000
5.65462e+06
-50000
-50000
1.1812e+07
2.27972e+07
1.28223e+07
-50000
-50000
-50000
-50000
-50000
-50000
1.75354e+07
1.81522e+07
4.47911e+06
-50000
-50000
-50000
-50000
-50000
3.6993e+06
1.30209e+07
1.22104e+07
1.084e+07
1.41225e+06
-50000
591278
1.06885e+06
-50000
-50000
7.79445e+06
1.35646e+07
1.19196e+07
5.04842e+06
-50000
-50000
-50000
-50000
-50000
-50000
-50000
-50000
4.82604e+06
6.1821e+06
-50000
-50000
-50000
4.28384e+06
2.93945e+06
-50000
-50000
2.76913e+06
414628
-50000
-50000
8.959e+06
8.42608e+06
-50000
-50000
-50000
4.91366e+06
-50000
-50000
1.16047e+07
2.12812e+07
1.17469e+07
-50000
-50000
-50000
-50000
-50000
-50000
1.605e+07
1.61997e+07
2.86256e+06
-50000
-50000
-50000
-50000
-50000
2.82217e+06
1.16205e+07
1.33582e+07
1.20939e+07
1.42041e+06
-50000
621291
2.45696e+06
-50000
-50000
6.61758e+06
1.23196e+07
1.13216e+07
4.67898e+06
-50000
-50000
-50000
-50000
-50000
-50000
-50000
-50000
3.47678e+06
4.68777e+06
-50000
-50000
-50000
4.88796e+06
3.18399e+06
-50000
-50000
1.22945e+06
479093
-50000
136993
7.60832e+06
6.61268e+06
-50000
-50000
-50000
4.16575e+06
-23108.2
-50000
1.12306e+07
1.95911e+07
1.0606e+07
-50000
-50000
-50000
-50000
-50000
-50000
1.44723e+07
1.40947e+07
1.13586e+06
-50000
-50000
-50000
-50000
-50000
2.2901e+06
9.9703e+06
1.41033e+07
1.29976e+07
1.61084e+06
-50000
557182
3.62161e+06
464823
-50000
5.39973e+06
1.09432e+07
1.0573e+07
4.30192e+06
-50000
-50000
-50000
-50000
634130
-50000
-50000
-50000
2.12039e+06
3.2314e+06
-50000
-50000
-50000
5.3293e+06
3.27454e+06
-50000
-50000
-50000
533636
-50000
225647
6.17578e+06
4.78514e+06
-50000
-50000
-50000
3.43956e+06
123858
-50000
1.06979e+07
1.7789e+07
9.38968e+06
-50000
-50000
-50000
-50000
-50000
-50000
1.27781e+07
1.18203e+07
-50000
-50000
-50000
-50000
-50000
-50000
1.75937e+06
8.09575e+06
1.52003e+07
1.35718e+07
1.58261e+06
-50000
623588
4.58137e+06
1.72522e+06
-29995.7
4.25048e+06
9.49438e+06
9.64032e+06
3.85684e+06
-50000
-50000
-50000
1.53015e+06
1.5219e+06
-50000
-50000
-50000
755363
1.86638e+06
-50000
-50000
-50000
5.6286e+06
3.25065e+06
-50000
-50000
-50000
613561
-50000
164049
4.70731e+06
2.98586e+06
-50000
-50000
-50000
2.77069e+06
265619
-50000
9.99965e+06
1.59323e+07
8.12596e+06
-50000
-50000
-50000
-50000
-50000
-50000
1.09475e+07
9.51265e+06
-50000
-50000
-50000
-50000
-50000
-50000
1.06722e+06
6.46464e+06
1.56739e+07
1.42545e+07
1.59218e+06
-50000
654950
5.46504e+06
2.80632e+06
74021.9
3.1049e+06
8.02762e+06
8.61888e+06
3.34752e+06
-50000
-50000
-50000
3.6226e+06
2.36811e+06
-50000
-50000
-50000
-50000
583110
-50000
-50000
-50000
5.73597e+06
3.1251e+06
-50000
-50000
-50000
717039
-50000
-18552.7
3.20984e+06
1.23541e+06
-50000
-50000
-50000
2.19312e+06
357712
230806
9.18473e+06
1.40132e+07
6.83835e+06
-50000
-50000
-50000
-50000
-50000
-50000
9.10112e+06
7.2828e+06
-50000
-50000
-50000
-50000
-50000
-50000
479815
4.87287e+06
1.54215e+07
1.45972e+07
1.8131e+06
-50000
528374
6.11065e+06
3.77001e+06
124154
1.91142e+06
6.50625e+06
7.55117e+06
2.84787e+06
-50000
-50000
1.03989e+06
5.5863e+06
3.14237e+06
-50000
-50000
-50000
-50000
-50000
-50000
-50000
-50000
5.65699e+06
2.8734e+06
-50000
-50000
-50000
802464
53694.8
-50000
1.69037e+06
-50000
-50000
-50000
-50000
1.6658e+06
386718
490678
8.27433e+06
1.20066e+07
5.51885e+06
-50000
534642
-50000
-50000
-50000
-50000
7.3307e+06
5.07509e+06
-50000
-50000
-50000
-50000
-50000
-50000
-4164.42
3.43112e+06
1.54848e+07
1.44254e+07
1.78726e+06
-50000
484331
6.50598e+06
4.44141e+06
112884
757870
4.95346e+06
6.40941e+06
2.32775e+06
-50000
-50000
3.1074e+06
7.38619e+06
3.86675e+06
-50000
-50000
-50000
-50000
-50000
-50000
-50000
-50000
5.4498e+06
2.50358e+06
-50000
-50000
-50000
888321
453823
-50000
195541
-50000
-50000
-50000
-50000
1.16991e+06
419671
662226
7.22454e+06
9.96379e+06
4.17703e+06
-10114.6
1.41904e+06
-50000
-50000
-50000
-50000
5.58001e+06
2.88268e+06
-50000
-50000
-50000
-50000
-50000
-50000
-50000
1.95175e+06
1.51501e+07
1.4284e+07
1.60654e+06
-50000
452377
6.81761e+06
4.85847e+06
-50000
-50000
3.4493e+06
5.21808e+06
1.75169e+06
-50000
-50000
4.95885e+06
8.93468e+06
4.50606e+06
-50000
-50000
-50000
-50000
-50000
-50000
-50000
-50000
5.12546e+06
2.08206e+06
-50000
-50000
-50000
1.01223e+06
720823
-50000
-50000
-50000
-50000
-50000
-50000
802446
457850
664556
6.06559e+06
7.94926e+06
2.83701e+06
48444.4
2.17748e+06
-50000
-50000
-50000
-50000
3.84116e+06
827173
-50000
-50000
-50000
664402
-50000
-50000
-50000
530878
1.39792e+07
1.39175e+07
1.59254e+06
-50000
229428
6.9159e+06
5.13969e+06
-50000
-50000
1.94869e+06
4.00993e+06
1.18179e+06
-50000
-50000
6.59707e+06
1.02157e+07
5.02239e+06
-50000
-50000
-50000
-50000
-50000
-50000
-50000
-50000
4.68528e+06
1.63227e+06
-50000
-50000
-50000
1.15592e+06
864523
-50000
-50000
-50000
-50000
-50000
-50000
584515
435428
520238
4.86338e+06
5.96008e+06
1.52024e+06
12976.2
2.76508e+06
612109
-50000
-50000
-50000
2.22607e+06
-50000
-50000
-50000
-50000
2.79094e+06
-50000
-50000
-50000
-50000
1.29066e+07
1.30041e+07
1.42865e+06
-50000
-2890.1
6.71065e+06
5.15267e+06
-50000
-50000
418596
2.77111e+06
632295
-50000
907393
7.96054e+06
1.12484e+07
5.43132e+06
-50000
-50000
-50000
-50000
-50000
-50000
-50000
-50000
4.15409e+06
1.12124e+06
-50000
-50000
-50000
1.29509e+06
923676
-50000
-50000
-50000
-50000
-50000
-50000
418458
375948
326758
3.60757e+06
3.98945e+06
238881
-50000
3.25266e+06
1.45059e+06
-50000
-50000
-50000
746918
-50000
-50000
-50000
1.40614e+06
4.81145e+06
730451
-50000
-50000
-50000
1.16244e+07
1.19754e+07
1.04486e+06
-50000
-50000
6.38617e+06
4.88792e+06
-50000
-50000
-50000
1.53288e+06
54319.1
-50000
1.87016e+06
9.06034e+06
1.20168e+07
5.71278e+06
-50000
-50000
-50000
-50000
-50000
-50000
-50000
-50000
3.55628e+06
574179
-50000
-50000
-50000
1.44427e+06
933163
-50000
-50000
-50000
-50000
-50000
-50000
312680
348525
75949.1
2.30247e+06
2.07623e+06
-50000
-50000
3.70036e+06
2.24087e+06
-50000
-50000
-50000
-50000
-50000
-50000
-50000
2.88252e+06
6.65837e+06
2.56189e+06
-50000
-50000
-50000
9.76787e+06
1.08056e+07
683146
-50000
-50000
5.9765e+06
4.50003e+06
-50000
-50000
-50000
368609
-50000
-50000
2.68091e+06
9.93617e+06
1.25269e+07
5.84395e+06
-50000
-50000
-50000
-50000
-50000
-50000
-50000
-50000
2.93532e+06
59397.8
-50000
-50000
-50000
1.63278e+06
888413
-50000
-50000
-50000
-50000
-50000
-50000
357536
340096
-50000
1.00714e+06
256752
-50000
-50000
4.07494e+06
2.98365e+06
-50000
-50000
-50000
-50000
-50000
-50000
-50000
4.31582e+06
8.51368e+06
4.37275e+06
-50000
-50000
-50000
7.95869e+06
9.30005e+06
206454
-50000
-50000
5.41124e+06
3.97251e+06
-50000
-50000
-50000
-50000
-50000
-50000
3.32477e+06
1.05465e+07
1.27986e+07
5.87417e+06
-50000
-50000
-50000
-50000
-50000
-50000
-50000
-50000
2.3342e+06
-50000
-50000
-50000
-50000
1.86714e+06
788408
-50000
-50000
-50000
-50000
-50000
-50000
545320
321204
-50000
-50000
-50000
-50000
-50000
4.35915e+06
3.74755e+06
-50000
-50000
-50000
-50000
-50000
-50000
-50000
5.80808e+06
1.03264e+07
5.95232e+06
129274
-50000
-50000
5.9697e+06
7.71749e+06
-50000
-50000
-50000
4.73885e+06
3.2878e+06
-50000
-50000
-50000
-50000
-50000
-50000
3.8329e+06
1.08779e+07
1.28243e+07
5.83146e+06
-50000
-50000
-50000
-50000
-50000
-50000
-50000
-50000
1.76315e+06
-50000
-50000
-50000
-50000
2.12813e+06
688650
-50000
-50000
-50000
-50000
-50000
-50000
823936
328816
-50000
-50000
-50000
-50000
-50000
4.60478e+06
4.52372e+06
-50000
-50000
-50000
-50000
-50000
-50000
-50000
7.28393e+06
1.1912e+07
7.40475e+06
998287
-50000
-50000
3.65257e+06
6.01273e+06
-50000
-50000
-50000
3.99592e+06
2.53074e+06
-50000
-50000
-50000
-50000
-50000
-50000
4.22931e+06
1.09958e+07
1.26293e+07
5.67826e+06
-50000
-50000
-50000
-50000
-50000
-50000
-50000
-50000
1.23769e+06
-50000
-50000
-50000
-50000
2.41467e+06
634168
-50000
-50000
-50000
-50000
-50000
-50000
1.19587e+06
396180
-50000
-50000
-50000
-50000
-50000
4.85823e+06
5.2746e+06
62192.8
-50000
-50000
-50000
-50000
-50000
-50000
8.61992e+06
1.33491e+07
8.86668e+06
1.84672e+06
-50000
-50000
1.51804e+06
4.14491e+06
-50000
-50000
-50000
3.23794e+06
1.72695e+06
-50000
-50000
-50000
-50000
-50000
-50000
4.51835e+06
1.09561e+07
1.22707e+07
5.41227e+06
-50000
-50000
-50000
-50000
-50000
-50000
-50000
-50000
786579
-50000
-50000
-50000
-50000
2.74838e+06
609499
-50000
-50000
-50000
-50000
-50000
-50000
1.67555e+06
499965
-50000
-50000
-50000
-50000
-50000
5.1331e+06
6.04298e+06
1.47103e+06
-50000
-50000
-50000
-50000
-50000
-50000
9.88833e+06
1.47502e+07
1.02008e+07
2.53942e+06
-50000
-50000
-50000
2.36418e+06
-50000
-50000
-50000
2.53705e+06
916661
-50000
-50000
-50000
-50000
-50000
-50000
4.69308e+06
1.07683e+07
1.17741e+07
5.09116e+06
-50000
-50000
-50000
-50000
-50000
-50000
-50000
-50000
434307
-50000
-50000
-50000
-50000
3.12894e+06
612745
-50000
-50000
-50000
-50000
-50000
845969
2.24924e+06
628191
-50000
-50000
-50000
-50000
-50000
5.43546e+06
6.8477e+06
2.83088e+06
-50000
-50000
-50000
-50000
-50000
-50000
1.1165e+07
1.60293e+07
1.13013e+07
3.15313e+06
-50000
-50000
-50000
573258
-50000
-50000
-50000
1.86218e+06
156028
-50000
-50000
-50000
-50000
-50000
-50000
4.7595e+06
1.04143e+07
1.11536e+07
4.75232e+06
-50000
-50000
-50000
-50000
-50000