/*--------------------------------*- C++ -*----------------------------------*\
| =========                 |                                                 |
| \\      /  F ield         | foam-extend: Open Source CFD                    |
|  \\    /   O peration     | Version:     4.0                                |
|   \\  /    A nd           | Web:         http://www.foam-extend.org         |
|    \\/     M anipulation  |                                                 |
\*---------------------------------------------------------------------------*/
FoamFile
{
    version     2.0;
    format      ascii;
    class       volVectorField;
    location    "1";
    object      U;
}
// * * * * * * * * * * * * * * * * * * * * * * * * * * * * * * * * * * * * * //

dimensions      [0 1 -1 0 0 0 0];

internalField   nonuniform List<vector> 
6960
(
(-2592.65 -4753.36 0)
(-3402.89 3064.68 0)
(1455.82 8695.19 0)
(5011.25 2574.79 0)
(1350.02 -8889.6 0)
(-4606.15 -13505.7 0)
(-4280.93 -7079.01 0)
(1117.27 3025.91 0)
(3822.05 7520.13 0)
(2076.36 4841.46 0)
(-518.798 1263.08 0)
(-2590.11 1691.45 0)
(-4259.6 3918.59 0)
(-3596.15 3818.04 0)
(72.5595 869.152 0)
(2646.31 -1279.67 0)
(906.769 1678.68 0)
(-1255.96 7874.19 0)
(1722.95 9476.77 0)
(7608.25 2386.22 0)
(7538.07 -8090.98 0)
(-1582.39 -12463.4 0)
(-10038.6 -7387.74 0)
(-8392.69 750.545 0)
(-1747.45 4279.35 0)
(1467.89 3858.17 0)
(4151.8 4614.26 0)
(9579.18 4028.1 0)
(9880.9 -3982.09 0)
(-829.643 -13929.8 0)
(-12764.9 -12713.8 0)
(-11657.7 581.892 0)
(305.946 11771.8 0)
(6967.72 11711.8 0)
(2869.81 5674.69 0)
(-76.4954 317.41 0)
(4606.07 -4935.39 0)
(5728.71 -10578.1 0)
(-3990.85 -10717.2 0)
(-10696.7 -2351.06 0)
(-2971.64 6660.3 0)
(5871.16 9388.05 0)
(2341.19 9176.74 0)
(-3691.09 8298.46 0)
(-426.034 2427.76 0)
(4971.14 -7318.62 0)
(2555.98 -12113.7 0)
(-2090.34 -8729.1 0)
(-498.338 -4624.84 0)
(1776.22 -3874.85 0)
(-2190.12 533.38 0)
(-5066.85 10185.9 0)
(615.413 13059.5 0)
(6571.23 1649.59 0)
(2057.89 -13274.1 0)
(-6699.1 -14957.6 0)
(-6588.73 -3027.07 0)
(1540.26 8039.97 0)
(7054.09 8470.76 0)
(3291.5 5154.42 0)
(-7807.71 -15105.8 0)
(-10997.6 8668.53 0)
(3262.68 21672.9 0)
(15837.1 5565.62 0)
(8012.04 -21730.3 0)
(-9886.85 -32480.5 0)
(-14410.1 -17969.4 0)
(-2745.98 6262.82 0)
(8137.38 18619.5 0)
(7794.5 12989 0)
(-231.022 3397.17 0)
(-8203.82 3620.12 0)
(-10735.4 9711.25 0)
(-5737.71 9958.2 0)
(2983.72 2161.29 0)
(5315.15 -3778.29 0)
(-1819.98 3494.03 0)
(-5063.62 19666.2 0)
(6680.13 23867.9 0)
(22140.9 5323.57 0)
(19370.5 -20344.7 0)
(-4797.25 -29891.3 0)
(-25524.5 -17468.3 0)
(-21370.3 1443.94 0)
(-4579.87 9546.76 0)
(3949.55 9145.69 0)
(9561.12 11182.2 0)
(21943.5 9468.55 0)
(24912.7 -9249.03 0)
(1393.92 -32796.2 0)
(-29599.4 -30810.7 0)
(-31739.2 283.789 0)
(-4408.77 28113.1 0)
(15336 29262.2 0)
(10483.8 14515.5 0)
(4591.7 478.227 0)
(12760.7 -12698.6 0)
(12821.2 -25378.2 0)
(-10098.7 -25435.2 0)
(-26136.4 -6518.74 0)
(-10377.5 15121.6 0)
(9214.72 23437.2 0)
(4537.61 23577.4 0)
(-3958.06 20225.1 0)
(5052.36 5131.02 0)
(13540.5 -18284.8 0)
(3972.19 -29079.5 0)
(-6397.81 -21178.3 0)
(-1100 -12437.7 0)
(2573.3 -9619.13 0)
(-9189.78 2654.78 0)
(-14563.4 25332.1 0)
(3518.3 31000.3 0)
(21091.1 3415.32 0)
(9403.83 -31105.8 0)
(-16084.7 -35194.9 0)
(-19794.8 -9218.98 0)
(-192.79 16939 0)
(15249.4 21845.2 0)
(7359.25 17176.9 0)
(-12214.7 -25641.7 0)
(-18093 17219.2 0)
(4186.52 42515.8 0)
(25913.3 11175.3 0)
(16509.9 -42597.9 0)
(-12050.8 -64588.3 0)
(-24567.9 -36622.9 0)
(-10161 11430.4 0)
(10076.8 37123.8 0)
(14184.6 26777.3 0)
(826.804 7062.5 0)
(-13813.7 7069.65 0)
(-15355.5 19652.2 0)
(-4274.55 20284.2 0)
(7481.64 4108.26 0)
(5966.95 -8554.34 0)
(-7254.38 6188.9 0)
(-9220.03 39389.3 0)
(12277.1 47646.7 0)
(34738.2 10037.3 0)
(27712 -40711.5 0)
(-7837.01 -58507.6 0)
(-36507 -33652.3 0)
(-30700.1 2314.99 0)
(-6789.13 17596.3 0)
(6062.63 17252 0)
(12811.1 21200.2 0)
(28674.5 18438.1 0)
(35191.9 -16756 0)
(5859.4 -62903.9 0)
(-38996.4 -60656.8 0)
(-47655.4 -906.61 0)
(-12215 54426 0)
(19132.7 58509.5 0)
(18656.3 29566 0)
(12117.3 602.821 0)
(19357.6 -25499.7 0)
(16197.3 -49654.3 0)
(-14302 -49559.9 0)
(-35941 -13672.3 0)
(-18019 28226.3 0)
(6494.24 46510 0)
(4801.64 48094.2 0)
(620.707 40141.9 0)
(14190.4 9036.75 0)
(20129.4 -36647.7 0)
(2595.69 -57248.6 0)
(-10273.1 -42048.5 0)
(-1111.17 -25033.9 0)
(1594.31 -18645.9 0)
(-17258.7 6125.21 0)
(-22718.1 50048.8 0)
(7215.64 60613.6 0)
(35010.9 7375.82 0)
(18039.2 -59929.2 0)
(-21973.6 -69706.7 0)
(-31551.2 -20277.7 0)
(-4551.65 32628.3 0)
(18907.3 44539.1 0)
(9424.1 33940.2 0)
(-15621.5 -35245.7 0)
(-23811.8 26047.2 0)
(4538.93 63682.4 0)
(34117.8 17404.1 0)
(24744.1 -64086 0)
(-12207.5 -99393.1 0)
(-33298.4 -57418.7 0)
(-18490.3 17428 0)
(10594.3 57523.6 0)
(20273.4 41081 0)
(2096.87 10242.7 0)
(-18874.6 10737.5 0)
(-18348 31067.1 0)
(-891.273 31597.4 0)
(12304.8 5351.93 0)
(5367.79 -14065.3 0)
(-13472.3 9739.57 0)
(-12905.2 60813.1 0)
(17580 72390.6 0)
(44447.7 14391.1 0)
(32719.9 -62144.4 0)
(-10477.3 -88454.2 0)
(-43449 -51267.8 0)
(-36781.3 2903.03 0)
(-8423.18 26650.6 0)
(7837.68 26042.2 0)
(14647.6 31636.6 0)
(31294.7 27731.8 0)
(41160.7 -24828.3 0)
(10909.9 -94659.3 0)
(-42744.4 -92420.6 0)
(-58939.2 -2484.83 0)
(-20817.2 82098.5 0)
(19713.5 89666.1 0)
(26137.7 46355.6 0)
(20401.4 842.706 0)
(24085.3 -39945.4 0)
(16809.5 -75686.7 0)
(-16750.3 -74945 0)
(-40953.4 -21339 0)
(-24800.8 41682.2 0)
(410.766 70555.3 0)
(3861.54 74628 0)
(7542.31 62216.7 0)
(24224.5 13003.3 0)
(24415.5 -57202.3 0)
(-395.961 -87504.2 0)
(-13227.9 -63455.1 0)
(-550.297 -38063.2 0)
(-220.155 -28935 0)
(-24859.8 9347.43 0)
(-28932.8 77007.3 0)
(10859.6 93321.1 0)
(46520.6 11597.3 0)
(26135.7 -91911.2 0)
(-24944.5 -106323 0)
(-40691.3 -30292.3 0)
(-9687.5 49123.6 0)
(19614 66044 0)
(10063.9 53360.1 0)
(-17781.1 -46847.1 0)
(-27649.3 34447.7 0)
(4585.48 85960.5 0)
(39898.9 23686.5 0)
(31469.2 -86273.9 0)
(-11215.7 -133853 0)
(-39866.4 -77630.3 0)
(-26017.8 23685.3 0)
(10379.5 77937.7 0)
(25442.8 54281.9 0)
(3260.36 12558.2 0)
(-23063.5 14881.7 0)
(-20045.2 42713.2 0)
(3146.3 42404.9 0)
(16648.8 6137.97 0)
(4158.34 -19440.3 0)
(-19206.7 13758.7 0)
(-15712 81910.4 0)
(22028.6 96076 0)
(51032.9 18296.6 0)
(34888 -82946.3 0)
(-12637.8 -117898 0)
(-47068.9 -68980.8 0)
(-40170.9 3803.34 0)
(-9577.88 36127.3 0)
(9295.43 34884.1 0)
(15655.3 41829 0)
(31171 36622 0)
(43580.4 -33049.6 0)
(15487 -125913 0)
(-42579.6 -123695 0)
(-65817.5 -4425.31 0)
(-28696.4 109250 0)
(18274.3 120559 0)
(32237.6 63119.8 0)
(28042 1225.33 0)
(26943.3 -54688.9 0)
(15574.7 -101691 0)
(-17733.3 -99818.4 0)
(-42241.9 -28998.1 0)
(-30152.2 54566.1 0)
(-6995.07 93766.8 0)
(2339.44 100820 0)
(15011.3 84756.2 0)
(33307.8 16810.9 0)
(26478.7 -78404.5 0)
(-4038.5 -117154 0)
(-15072.8 -83861.7 0)
(468.291 -50808 0)
(-2221.59 -39278.7 0)
(-31087.5 12407.8 0)
(-33030.4 104045 0)
(13918.5 125991 0)
(54774.3 15628.6 0)
(32661.8 -123020 0)
(-25692.6 -142011 0)
(-46842.7 -40619.1 0)
(-14377.9 64932.6 0)
(18719.6 87931.9 0)
(9994.38 71928 0)
(-18590.3 -55473.5 0)
(-29463.1 42399.5 0)
(4511.33 106359 0)
(43115.4 29396.9 0)
(36069 -107426 0)
(-9672.02 -166924 0)
(-44021.6 -96479.4 0)
(-31791.4 29903.8 0)
(9921.32 96867.4 0)
(29403.7 66636.9 0)
(4131.27 14519.7 0)
(-26275.4 18463.5 0)
(-20797.8 53753 0)
(7007.13 52551.7 0)
(20090.7 7044.27 0)
(2784.23 -24284.6 0)
(-23732 17313.1 0)
(-17466.4 101843 0)
(25365.5 118753 0)
(54644.4 21891.2 0)
(34779.8 -103416 0)
(-14302.6 -146367 0)
(-48103.9 -85344.2 0)
(-41464.5 4960.64 0)
(-10339.2 45509 0)
(10478.4 44158.6 0)
(16233.2 51512 0)
(29387.2 44560 0)
(43254 -40997.7 0)
(18983 -156090 0)
(-39930.2 -153950 0)
(-68830.6 -6490.71 0)
(-34959.4 135136 0)
(15743.3 150715 0)
(36627 79323 0)
(34222.6 1084.84 0)
(28107.6 -68853 0)
(13232.7 -126828 0)
(-17562.2 -123836 0)
(-40821.2 -36517.6 0)
(-33835.7 66116.3 0)
(-14303.2 116017 0)
(662.258 126552 0)
(21833 105900 0)
(40392.3 20006.3 0)
(26596.1 -98221.4 0)
(-7691.16 -145364 0)
(-15821.4 -103530 0)
(1848.65 -63018.7 0)
(-3944.01 -48921.8 0)
(-35502.6 16073.7 0)
(-35146.2 130007 0)
(16103.6 156717 0)
(59595.6 20112.6 0)
(37110.1 -151692 0)
(-24932.3 -176228 0)
(-50030.3 -51164.4 0)
(-17804.8 80385 0)
(17090.8 109245 0)
(9446.05 87592.8 0)
(-18473.9 -60445.8 0)
(-29577.6 50487.2 0)
(4396.5 123739 0)
(44019.5 33482.6 0)
(38381.4 -126757 0)
(-8028.67 -197016 0)
(-45822.9 -113970 0)
(-35391 35419.4 0)
(9556.4 114239 0)
(32113.1 78137.7 0)
(4573.43 15985.2 0)
(-28566.6 20813 0)
(-20879.8 63678.6 0)
(10214.5 62461.2 0)
(22457.5 8127.19 0)
(1521.2 -28990.8 0)
(-26720.5 20274 0)
(-18126.4 120451 0)
(27539.8 140236 0)
(55598.2 24657.5 0)
(32933.5 -123513 0)
(-15474.3 -172776 0)
(-47236.1 -100096 0)
(-41205 6248.3 0)
(-10746.6 54983.2 0)
(11438.8 53735.2 0)
(16615.9 60755.8 0)
(26716.5 51330.4 0)
(40894.5 -49014.1 0)
(21123.5 -184343 0)
(-35848.4 -182556 0)
(-68615.1 -8984.05 0)
(-39191.3 159401 0)
(12778.1 179578 0)
(39215.8 94919.3 0)
(38551.7 436.2 0)
(27842.2 -82829.8 0)
(10329.3 -150258 0)
(-16522.5 -146207 0)
(-37535.5 -44365.4 0)
(-35819.7 76075.9 0)
(-20617.6 137144 0)
(-939.854 151241 0)
(27292.8 125216 0)
(45057.8 22478.1 0)
(25100 -116347 0)
(-11020.5 -171345 0)
(-15580.1 -122022 0)
(3530.35 -74534.9 0)
(-5082.07 -57451.1 0)
(-37977.1 20243.6 0)
(-35567.5 154319 0)
(17302.8 185327 0)
(61150.8 24918.3 0)
(39321.7 -177785 0)
(-23187.9 -207873 0)
(-50501.2 -61029.2 0)
(-19658.7 94132.6 0)
(15364.5 128157 0)
(8685.69 103865 0)
(-17544.8 -66936.3 0)
(-28221.5 58305.5 0)
(4227.74 140134 0)
(42878 36257.8 0)
(38565.4 -145193 0)
(-6518.96 -223710 0)
(-45548.5 -129590 0)
(-36734.9 40392.6 0)
(9499.75 130535 0)
(33630 87796.2 0)
(4536 15878.7 0)
(-30066.6 22522.1 0)
(-20514.2 72741 0)
(12560.2 71760.3 0)
(23730 8947.42 0)
(526.239 -33935 0)
(-28089.4 23268.6 0)
(-17760.1 138015 0)
(28602.9 159163 0)
(54298.9 25988.5 0)
(29821.3 -141946 0)
(-16216.6 -196498 0)
(-45025.1 -113706 0)
(-39795.5 7952.35 0)
(-10836 64852.6 0)
(12233.1 63427 0)
(16939.3 69515 0)
(23618.4 56739.7 0)
(37070.9 -57261.9 0)
(21891.3 -210017 0)
(-31056.6 -208821 0)
(-65778.3 -12043.9 0)
(-41296.2 181503 0)
(9783.68 206556 0)
(40085.5 109989 0)
(40909.1 -410.733 0)
(26410.5 -97048.4 0)
(7267.7 -171687 0)
(-14863.9 -166129 0)
(-33017.8 -52411.5 0)
(-36177.2 84325.7 0)
(-25504.4 156196 0)
(-2344.07 174094 0)
(31082.7 143680 0)
(47215.3 24149.5 0)
(22316.3 -133985 0)
(-13854 -194144 0)
(-14527.6 -137954 0)
(5474.71 -85186.4 0)
(-5458.38 -65090 0)
(-38576.2 24345.5 0)
(-34594.5 177054 0)
(17484.6 212112 0)
(59766.4 29504.4 0)
(39405.1 -201072 0)
(-20857.4 -236249 0)
(-48652.7 -70290.8 0)
(-19829.4 106388 0)
(14015 145737 0)
(8142.84 116697 0)
(-15751.7 -71196.6 0)
(-25570.5 64095.2 0)
(4010.69 153570 0)
(39956.1 39112.6 0)
(36851.6 -161158 0)
(-5230.35 -248298 0)
(-43478 -143480 0)
(-35956.6 46190.1 0)
(9818.49 145480 0)
(34058.6 94896.4 0)
(4046.75 13556.5 0)
(-30894.9 23506.2 0)
(-19890.7 81763.7 0)
(13981.9 79903.2 0)
(24001.7 8609.23 0)
(-110.503 -38603.8 0)
(-27907.9 26701.5 0)
(-16522.5 154024 0)
(28653.4 174763 0)
(51191.7 25964.8 0)
(25799.2 -158246 0)
(-16637.6 -217265 0)
(-41874.4 -125669 0)
(-37513.1 9820.54 0)
(-10620.7 75117.5 0)
(12904.5 73757.4 0)
(17243.8 77134 0)
(20343.3 60455.8 0)
(32191.9 -64968.7 0)
(21395.5 -233040 0)
(-25966.1 -232389 0)
(-60841.7 -15202.5 0)
(-41390.7 200619 0)
(6988.4 231357 0)
(39396.4 124441 0)
(41351.5 -1687.85 0)
(24037.6 -110804 0)
(4297.44 -191343 0)
(-12742.1 -183438 0)
(-27699.9 -59457.9 0)
(-35082.5 90065.7 0)
(-28827.2 172099 0)
(-3473.6 195596 0)
(33144.2 161017 0)
(46962.2 24675.9 0)
(18525.2 -150775 0)
(-16114.4 -213845 0)
(-12841.8 -150274 0)
(7623.79 -94094.2 0)
(-5005.88 -72765.8 0)
(-37432.9 28285.3 0)
(-32493.9 198598 0)
(16668.2 236623 0)
(55805.8 33751.5 0)
(37569.9 -221731 0)
(-18180 -260848 0)
(-44813.8 -77493.3 0)
(-18364.3 117307 0)
(13065.5 159515 0)
(7554.07 125610 0)
(-13503.2 -69564.3 0)
(-22055.1 68003 0)
(3791.99 162708 0)
(35636.8 41294.6 0)
(33467.1 -174098 0)
(-4236.48 -269511 0)
(-39833.4 -155398 0)
(-33279.3 52139.7 0)
(10479.9 158614 0)
(33528.3 99621.2 0)
(3146.05 9362.7 0)
(-31146.2 23296.8 0)
(-19122.7 90103 0)
(14487.9 86857.4 0)
(23427.1 7401.99 0)
(-339.204 -42573.8 0)
(-26365.5 30021.9 0)
(-14574 167522 0)
(27838.4 187617 0)
(46635.2 24876.5 0)
(21110.8 -173078 0)
(-16807 -234637 0)
(-38070.3 -135278 0)
(-34545.5 11935.3 0)
(-10074.8 85580.6 0)
(13471.7 84481 0)
(17498 83620.4 0)
(17009.3 62486.8 0)
(26519.2 -72109.7 0)
(19794.5 -252795 0)
(-20752.9 -252874 0)
(-54213.4 -18765.1 0)
(-39694.4 216798 0)
(4483.96 253777 0)
(37322.2 137595 0)
(40053.7 -3363.12 0)
(20899.2 -123705 0)
(1529.8 -208741 0)
(-10220.8 -197809 0)
(-21856.1 -65804.8 0)
(-32757.5 93100.2 0)
(-30599.8 185214 0)
(-4321.17 215399 0)
(33545.1 176076 0)
(44557.8 24111.4 0)
(13931.2 -165635 0)
(-17824.9 -230060 0)
(-10643.1 -159329 0)
(9907.34 -101143 0)
(-3736.42 -79703 0)
(-34684.6 32362.7 0)
(-29501.2 218238 0)
(14887.9 257909 0)
(49618.3 37566 0)
(34093.8 -238524 0)
(-15233 -280684 0)
(-39337.2 -83305.5 0)
(-15537.5 124971 0)
(12641 169313 0)
(7097.75 135709 0)
(-11075.9 -68030.9 0)
(-17978.5 72378.1 0)
(3512.8 169842 0)
(30176.6 41020.2 0)
(28747.6 -185691 0)
(-3493.23 -285311 0)
(-34913.3 -163874 0)
(-28983.7 56874.5 0)
(11464.3 169059 0)
(32175.7 102245 0)
(1873.83 4075.38 0)
(-30937.7 21857.1 0)
(-18265.3 96207.1 0)
(14206 92648.4 0)
(22160 6677.63 0)
(-198.086 -46275.7 0)
(-23683 32371.2 0)
(-12025.4 178662 0)
(26306.3 197724 0)
(40875.4 22596.2 0)
(15911.4 -186241 0)
(-16761.3 -248550 0)
(-33772.1 -142306 0)
(-31004.4 14922.6 0)
(-9203.47 95925.7 0)
(13960.9 94927.1 0)
(17662.7 89376.6 0)
(13595.7 62897.1 0)
(20216.9 -78919.5 0)
(17286.2 -268461 0)
(-15485.1 -269998 0)
(-46172.1 -22967.2 0)
(-36436.2 230160 0)
(2241.82 273349 0)
(34035.5 149268 0)
(37228.6 -5486.69 0)
(17135 -135939 0)
(-984.292 -222725 0)
(-7374.23 -208918 0)
(-15631.9 -72537.6 0)
(-29350.1 93987.3 0)
(-30981.3 196088 0)
(-4949.38 232351 0)
(32467.2 188452 0)
(40316.1 22527.2 0)
(8696.66 -178121 0)
(-19078.8 -241718 0)
(-8063.69 -165847 0)
(12334.3 -106759 0)
(-1678.27 -84178.8 0)
(-30544.8 36705 0)
(-25817.4 234304 0)
(12225.1 275360 0)
(41569.3 41903 0)
(29253.9 -250237 0)
(-12136.7 -296613 0)
(-32548.1 -89278.8 0)
(-11486.3 131261 0)
(12818 178075 0)
(7069.09 139905 0)
(-8222.61 -67183.1 0)
(-13357 76006.4 0)
(3043.87 174334 0)
(23693.4 39167.2 0)
(23022.1 -194928 0)
(-2863.27 -296564 0)
(-28975 -169157 0)
(-23399.4 61281.5 0)
(12725.9 176654 0)
(30153 102414 0)
(274.095 -2567.21 0)
(-30390.9 18957.2 0)
(-17332 100487 0)
(13328.8 97324.5 0)
(20324.2 5941.21 0)
(220.249 -49914.9 0)
(-20036.9 34106.8 0)
(-8973.49 187688 0)
(24154.2 204334 0)
(34115 18740.2 0)
(10290.6 -197103 0)
(-16533 -258525 0)
(-29036.9 -146676 0)
(-26947.2 18380.7 0)
(-8021.72 106231 0)
(14388.6 105389 0)
(17679.1 93871.5 0)
(10030 61583.9 0)
(13380.6 -84754.1 0)
(14047.2 -280007 0)
(-10141.9 -283364 0)
(-36903.9 -27257.3 0)
(-31847.6 239871 0)
(207.41 289751 0)
(29679.3 159807 0)
(33065.7 -8316.43 0)
(12874.2 -147282 0)
(-3239.51 -233179 0)
(-4275.11 -216549 0)
(-9081.18 -78879.7 0)
(-24978.2 92300.3 0)
(-30186.1 203844 0)
(-5425.87 246802 0)
(30119.7 198253 0)
(34539.5 19618.7 0)
(2956.57 -188262 0)
(-19987.8 -248854 0)
(-5216.64 -168834 0)
(14945.7 -110361 0)
(1116.34 -87078.1 0)
(-25260.2 41093.3 0)
(-21589.2 247037 0)
(8834.76 288998 0)
(31958.6 46682.5 0)
(23206.6 -257812 0)
(-8950.55 -308307 0)
(-24556.1 -93526.3 0)
(-6331.34 136396 0)
(13223.2 183158 0)
(6865.16 137907 0)
(-5062.93 -60311.7 0)
(-8402.02 76408.1 0)
(2414.14 173414 0)
(16400.9 37032.5 0)
(16474.8 -199921 0)
(-2307.88 -303801 0)
(-22138.8 -172694 0)
(-16758.7 65832.4 0)
(14147.2 182695 0)
(27529 99740.6 0)
(-1606.15 -11955.5 0)
(-29524 14655.4 0)
(-16291.1 104366 0)
(11960.8 100700 0)
(18020.3 3760.26 0)
(888.628 -53097.2 0)
(-15588.6 36108.1 0)
(-5533.52 194127 0)
(21445.8 207006 0)
(26508.4 13120.3 0)
(4333.52 -205406 0)
(-16138.5 -263810 0)
(-23913.4 -148534 0)
(-22378.9 21854.4 0)
(-6502.4 116605 0)
(14723.5 115998 0)
(17457.8 96825.6 0)
(6255.27 58526.3 0)
(6055.22 -89446.4 0)
(10223.8 -287112 0)
(-4647.87 -292257 0)
(-26558.9 -31765.1 0)
(-26130.1 245515 0)
(-1659.94 302918 0)
(24360 168937 0)
(27725.6 -11408.9 0)
(8198.15 -157581 0)
(-5249.15 -240643 0)
(-925.737 -220020 0)
(-2252.37 -83937.9 0)
(-19799.6 87356.2 0)
(-28366.4 207742 0)
(-5779.55 259001 0)
(26662.5 205901 0)
(27476.6 15352.2 0)
(-3190.98 -196850 0)
(-20592.8 -251422 0)
(-2148.77 -166758 0)
(17676.7 -111617 0)
(4555.73 -89866.2 0)
(-18951.7 45226.1 0)
(-16905.6 257761 0)
(4788 298733 0)
(20987.1 49970 0)
(16166.1 -261229 0)
(-5605.91 -313389 0)
(-15575.4 -95471.3 0)
(-379.116 136792 0)
(13844.8 182830 0)
(6642.23 138095 0)
(-2117.37 -51306.5 0)
(-3466.54 75857.8 0)
(1660.05 168614 0)
(8536.55 33713.2 0)
(9277.01 -201888 0)
(-1823.27 -306296 0)
(-14526 -173495 0)
(-9199.64 69986.3 0)
(15620.1 186690 0)
(24266.6 94202.4 0)
(-3712.18 -23756 0)
(-28265.1 9382.97 0)
(-15110.3 107319 0)
(10147.6 102385 0)
(15340.4 674.142 0)
(1815.69 -55654.1 0)
(-10483.6 38126.8 0)
(-1823.68 197733 0)
(18223.1 205563 0)
(18178 6118.85 0)
(-1880.97 -210948 0)
(-15588.4 -264794 0)
(-18421.7 -147722 0)
(-17279.9 25795.5 0)
(-4633.15 126605 0)
(14933.8 126249 0)
(16911.1 98571.7 0)
(2190.62 53747.9 0)
(-1711 -93047.7 0)
(5962.3 -289062 0)
(1034.62 -296617 0)
(-15253.2 -36634 0)
(-19420 247429 0)
(-3412.19 312473 0)
(18169.2 176373 0)
(21335.1 -14567.5 0)
(3144.67 -166693 0)
(-6999.52 -244668 0)
(2680.82 -219303 0)
(4790.56 -88040.4 0)
(-13946.7 79615.9 0)
(-25650.4 208011 0)
(-6010.93 268291 0)
(22240.7 211263 0)
(19283.9 9829.28 0)
(-9643.43 -203591 0)
(-20859.5 -248914 0)
(1081.51 -160261 0)
(20427.5 -110702 0)
(8553.84 -91481.6 0)
(-11688.5 48955.9 0)
(-11831.8 265333 0)
(89.4544 304074 0)
(8859.22 52488 0)
(8393.44 -259577 0)
(-2112.61 -312966 0)
(-5885.8 -96451 0)
(6189.97 134518 0)
(14791.5 179495 0)
(6786.17 134313 0)
(874.133 -45231.6 0)
(1502.33 74467.9 0)
(684.082 162516 0)
(155.515 29143.5 0)
(1612.56 -202118 0)
(-1293.41 -304144 0)
(-6236.89 -170344 0)
(-936.876 73856.9 0)
(17033.6 187074 0)
(20392.8 85901.2 0)
(-5986.81 -36263.1 0)
(-26597.9 2994.74 0)
(-13757.5 107923 0)
(7989.81 102613 0)
(12355.6 -2131.28 0)
(2964.29 -57661.5 0)
(-4830.56 39342.3 0)
(2061.82 198347 0)
(14515.2 200526 0)
(9229.31 -1908.92 0)
(-8310.22 -214146 0)
(-14868.5 -261705 0)
(-12534.3 -143806 0)
(-11648.6 30205 0)
(-2423.08 135994 0)
(14992.7 135823 0)
(15953.8 98868.3 0)
(-2225.6 47532 0)
(-9854.29 -94976.7 0)
(1362.28 -285871 0)
(6922.31 -296660 0)
(-3064.56 -41351 0)
(-11832.9 245701 0)
(-5084.29 318110 0)
(11173.2 182054 0)
(13986.8 -18095.3 0)
(-2222.34 -174080 0)
(-8491.65 -244574 0)
(6513.63 -214926 0)
(12008.4 -91477.6 0)
(-7515.15 69621.7 0)
(-22150.9 205110 0)
(-6132.05 274497 0)
(16966 213281 0)
(10129 3184.32 0)
(-16288 -206935 0)
(-20803.6 -241656 0)
(4423.85 -150651 0)
(23179.7 -107271 0)
(13023.7 -90785.8 0)
(-3627.04 52105.3 0)
(-6427.65 268084 0)
(-5130.75 304810 0)
(-4230.29 55883.3 0)
(-36.0057 -253230 0)
(1495.87 -308671 0)
(4477.92 -96122.3 0)
(13268.4 131742 0)
(15709.5 173187 0)
(6752.33 122759 0)
(4092.77 -34581.8 0)
(6509.62 70224.5 0)
(-463.702 152407 0)
(-8700.47 23669 0)
(-6402.85 -199021 0)
(-623.247 -296839 0)
(2667.78 -164565 0)
(7830.9 76705.7 0)
(18266.2 184704 0)
(15955.8 75530.3 0)
(-8390.77 -49742.4 0)
(-24536 -4879.4 0)
(-12167.6 106460 0)
(5599.55 101749 0)
(9105.38 -4632.56 0)
(4281.07 -59146.1 0)
(1275.72 39460.1 0)
(6073.59 196042 0)
(10342.1 192452 0)
(-288.92 -11287.1 0)
(-14881.4 -215216 0)
(-13924.7 -254120 0)
(-6255.41 -136951 0)
(-5487.05 34949.3 0)
(127.773 144629 0)
(14843.1 144371 0)
(14513.3 97674.9 0)
(-7003.41 40291.3 0)
(-18315.7 -95161.5 0)
(-3507.5 -277625 0)
(13019.8 -291888 0)
(9921.97 -45946.4 0)
(-3459.24 240207 0)
(-6689 320001 0)
(3416.38 185741 0)
(5759.32 -21749.2 0)
(-7831.5 -179633 0)
(-9724.88 -240372 0)
(10526.7 -206528 0)
(19342 -94408.6 0)
(-577.713 57400.1 0)
(-17933.3 199428 0)
(-6178.96 277359 0)
(10916.4 211985 0)
(203.51 -4202.9 0)
(-23026.5 -207299 0)
(-20454.8 -229662 0)
(7864.35 -137327 0)
(25915.8 -101603 0)
(17860.2 -88564.5 0)
(5077.73 54609.2 0)
(-736.911 266702 0)
(-10732.5 300894 0)
(-18121.7 58659.2 0)
(-9052.19 -242356 0)
(5220.65 -298755 0)
(15419.3 -94119 0)
(20685.6 125651 0)
(16469 162760 0)
(6504.94 110056 0)
(6824.9 -21080.8 0)
(11129.2 66189.4 0)
(-1760.79 137195 0)
(-17778.9 16413.2 0)
(-14600.3 -191870 0)
(151.676 -284251 0)
(12049.6 -156747 0)
(17024.2 78213.5 0)
(19267.6 180294 0)
(10894.6 63439.4 0)
(-10920.1 -64901.3 0)
(-22008.2 -13922.9 0)
(-10271.1 103985 0)
(3030.69 99635.7 0)
(5618.19 -7406.04 0)
(5731.73 -60085.9 0)
(7767.92 39100.6 0)
(10161.9 191152 0)
(5685.19 180623 0)
(-10311.4 -21964.5 0)
(-21480.2 -213415 0)
(-12718.3 -242397 0)
(402.61 -127438 0)
(1195.02 40106.5 0)
(2996.04 152124 0)
(14444.5 151741 0)
(12534.1 95182.4 0)
(-12155 32066.5 0)
(-27008.1 -93579.2 0)
(-8556.78 -264138 0)
(19273.4 -282099 0)
(23584.2 -50355.8 0)
(5654.11 230838 0)
(-8217.06 318142 0)
(-5060.39 187634 0)
(-3295.73 -25375.1 0)
(-13622.1 -183273 0)
(-10646.8 -232250 0)
(14657 -194051 0)
(26677.3 -96291 0)
(6814.22 42987.5 0)
(-13041.1 190500 0)
(-6155.48 277043 0)
(4167.36 208310 0)
(-10399.4 -12440 0)
(-29734 -205653 0)
(-19729.5 -212610 0)
(11340.5 -119516 0)
(28532 -94245.6 0)
(22991.7 -85789.3 0)
(14350.4 56602.7 0)
(5182.35 261880 0)
(-16684.8 291882 0)
(-32629.9 59906 0)
(-18459.4 -226725 0)
(9018.25 -282673 0)
(26689.7 -90673.2 0)
(28282.1 115782 0)
(17156.8 148264 0)
(6283.67 96997.1 0)
(9287.82 -12677.5 0)
(15375.4 61108.4 0)
(-3351.24 121176 0)
(-26929.6 9142.35 0)
(-22807 -182537 0)
(1044.98 -268296 0)
(21816.4 -146077 0)
(26520.1 79921.6 0)
(19950.6 173210 0)
(5168.52 48706.6 0)
(-13543.2 -80946 0)
(-18928.5 -23243.4 0)
(-8024.85 100648 0)
(293.939 96190.4 0)
(1925.36 -10882.7 0)
(7333.1 -60200.2 0)
(14588.1 39087.3 0)
(14208.5 183291 0)
(533.472 164726 0)
(-20700.9 -33326.5 0)
(-28004.3 -208728 0)
(-11225.9 -226660 0)
(7427.02 -115386 0)
(8364.27 45120.2 0)
(6165.99 158629 0)
(13754.1 157995 0)
(9949.25 90972.3 0)
(-17648.9 22998.3 0)
(-35807.3 -89691.4 0)
(-13722.9 -245493 0)
(25605.2 -267723 0)
(37777.8 -54151.3 0)
(15450.5 217889 0)
(-9616.17 312267 0)
(-14219.8 187803 0)
(-13141.9 -28719.3 0)
(-19516.8 -184550 0)
(-11215.5 -220562 0)
(18862.7 -177989 0)
(33884.8 -96253.6 0)
(14545.2 26556.8 0)
(-7462.35 177861 0)
(-6010.61 274218 0)
(-3270.17 202247 0)
(-21607.8 -21596.5 0)
(-36246.9 -201204 0)
(-18530.8 -191225 0)
(14782.3 -98106.2 0)
(30903.8 -84536.2 0)
(28352 -82212.2 0)
(24115.6 57356.6 0)
(11238 252825 0)
(-22921.3 277933 0)
(-47532.7 60802.1 0)
(-28118.7 -206658 0)
(12821.8 -262116 0)
(38106.1 -86287.5 0)
(35907.7 104089 0)
(17736.2 131533 0)
(6051.85 79842.3 0)
(11871.5 -1266.94 0)
(19394.3 51342.5 0)
(-5058.06 103527 0)
(-36163.8 3383.11 0)
(-31018.3 -170787 0)
(2129.38 -249141 0)
(31978.9 -133214 0)
(36172.5 81410.5 0)
(20141 163941 0)
(-1230.98 31832.7 0)
(-16167.2 -97378 0)
(-15240.2 -32587.3 0)
(-5410.98 96209.5 0)
(-2610.89 91641.7 0)
(-1933.76 -14337.7 0)
(9130.79 -59345.9 0)
(21642.7 38735.3 0)
(18089.1 172507 0)
(-5090.85 145883 0)
(-31337 -45393.3 0)
(-34316 -201704 0)
(-9405.98 -206808 0)
(14740.5 -101014 0)
(15993.8 50019.4 0)
(9641.52 163945 0)
(12691.6 162597 0)
(6705.23 85318.2 0)
(-23400.7 13496.1 0)
(-44571.6 -83658.5 0)
(-18963 -221708 0)
(31909.7 -248852 0)
(52351.7 -57508.5 0)
(25865.5 201985 0)
(-10842.2 302421 0)
(-23994.2 185927 0)
(-23726.2 -31160.6 0)
(-25457.7 -183552 0)
(-11383.3 -205274 0)
(23113.4 -158185 0)
(40806.8 -95090.7 0)
(22485 8801.18 0)
(-1156.98 162651 0)
(-5704.38 268125 0)
(-11399 193655 0)
(-33299.2 -30692.1 0)
(-42419 -193813 0)
(-16819.1 -166104 0)
(18174.6 -73852.6 0)
(32951.8 -72291.9 0)
(33799.6 -77374.4 0)
(34239.9 55845.7 0)
(17384.9 239031 0)
(-29310.4 260179 0)
(-62615.4 61426.5 0)
(-37953.5 -183227 0)
(16531.5 -237834 0)
(49541 -80361.9 0)
(43509.9 91689.6 0)
(18056.5 112326 0)
(5699.36 57115.1 0)
(13674.9 13373.4 0)
(22707.9 42676.1 0)
(-6743.63 81919.1 0)
(-45229 -3778.1 0)
(-39131.9 -155312 0)
(3351.65 -225051 0)
(42409.3 -118710 0)
(45906.7 80841.1 0)
(19787.8 152499 0)
(-8353.18 14779.2 0)
(-18764.8 -113425 0)
(-10881.6 -42515.7 0)
(-2397.88 90324.1 0)
(-5644.15 86551.9 0)
(-5928.53 -16440.9 0)
(11085.8 -57835.4 0)
(28861.7 36927.9 0)
(21749.9 159599 0)
(-11202.8 124859 0)
(-42113.6 -58013.4 0)
(-40245.4 -192407 0)
(-7215.56 -183837 0)
(22279.6 -84125.5 0)
(24016.9 55458.8 0)
(13372.8 167162 0)
(11230.9 165076 0)
(2782.48 78778 0)
(-29353.8 3892.23 0)
(-53128.2 -75578.9 0)
(-24202.3 -193201 0)
(38028.3 -225548 0)
(67124.7 -60242.7 0)
(36849.7 183100 0)
(-11851.2 289073 0)
(-34300.2 182312 0)
(-35002.4 -33153.8 0)
(-31367.6 -180009 0)
(-11057.3 -185817 0)
(27299.1 -135194 0)
(47266 -93440.7 0)
(30592.4 -9493.27 0)
(5854.01 145787 0)
(-5232.36 258492 0)
(-20142.5 182637 0)
(-45381 -39295.2 0)
(-48115.4 -183738 0)
(-14511.2 -137107 0)
(21466.1 -46728.6 0)
(34580.7 -58755.9 0)
(39192.6 -71824.7 0)
(44577.5 52860.8 0)
(23613 220896 0)
(-35739.6 238325 0)
(-77709.8 61004.8 0)
(-47840.9 -157077 0)
(20130.8 -208918 0)
(60857.9 -71717.2 0)
(50870.4 77024.8 0)
(17940.4 88005.1 0)
(4933.35 34843.2 0)
(14894 21125.6 0)
(25298 35749.5 0)
(-8677.67 60662.2 0)
(-53903.7 -11760.4 0)
(-46868.3 -137747 0)
(4676.93 -197125 0)
(52893.6 -101981 0)
(55576.8 79073.3 0)
(18909.8 138391 0)
(-16158.2 -2592.72 0)
(-21365.9 -127999 0)
(-5858 -52476 0)
(1080.55 83178.4 0)
(-8719.28 81294.4 0)
(-10056.3 -17471.8 0)
(13117.2 -55479.4 0)
(36190 34402.9 0)
(25140.9 144270 0)
(-17803.5 101721 0)
(-52899.7 -70360.5 0)
(-45660.3 -181068 0)
(-4594.26 -158147 0)
(30010.2 -64883.7 0)
(32308.3 60951.6 0)
(17294 168580 0)
(9365.71 165443 0)
(-1825.95 70733.7 0)
(-35413.1 -5278.81 0)
(-61307.2 -64914 0)
(-29382.8 -160859 0)
(43821.8 -198307 0)
(81870.4 -61860.4 0)
(48334.5 161414 0)
(-12550.8 272526 0)
(-45092 176994 0)
(-46905.1 -34819.6 0)
(-37101.5 -173091 0)
(-10202.9 -162714 0)
(31295.8 -109967 0)
(53109.2 -90253.7 0)
(38793.8 -28254.9 0)
(13574 126929 0)
(-4587.31 246652 0)
(-29468.7 169201 0)
(-57725.5 -47860.1 0)
(-53157.7 -170211 0)
(-11532.9 -104492 0)
(24546.2 -17528.5 0)
(35654.6 -44433.2 0)
(44474.9 -65950.3 0)
(55008.3 49189.9 0)
(29792.6 198680 0)
(-42114.2 211011 0)
(-92555.1 59592.1 0)
(-57575.9 -126722 0)
(23587.6 -175450 0)
(71734 -63114.7 0)
(57701 59021.1 0)
(17644.7 63055.3 0)
(4249.79 14258.3 0)
(16145.4 29652.2 0)
(27439 24447 0)
(-10728.1 39887.5 0)
(-62211.3 -16669.1 0)
(-54169.1 -118243 0)
(6163.67 -167529 0)
(63356.6 -83902.8 0)
(65011.6 77309.1 0)
(17404.9 123019 0)
(-24589.4 -20928.8 0)
(-23900.9 -141769 0)
(-169.9 -61074.3 0)
(5039.3 76293.3 0)
(-11809.7 75544.1 0)
(-14284.4 -18474.9 0)
(15230.2 -51758.1 0)
(43502.9 32239 0)
(28155.6 126456 0)
(-24829.8 76447 0)
(-63556.4 -82369.8 0)
(-50407.6 -167483 0)
(-1489.16 -129453 0)
(37825 -44293.8 0)
(40784.3 66041.6 0)
(21364.6 168665 0)
(7019.03 163511 0)
(-7097.81 61221.8 0)
(-41416.1 -13807.3 0)
(-68953.6 -51938.3 0)
(-34468 -124759 0)
(49149.8 -167692 0)
(96366.2 -62645.6 0)
(60231.9 137966 0)
(-12883.3 252565 0)
(-56277.4 169695 0)
(-59315.8 -34825.2 0)
(-42567.2 -163224 0)
(-8804.09 -137027 0)
(35044.6 -82178 0)
(58159 -85330.7 0)
(46948.7 -47179.8 0)
(22052 106246 0)
(-3744.01 232474 0)
(-39386.9 154300 0)
(-70158.2 -55640.7 0)
(-57353.1 -153734 0)
(-7878.51 -69177.1 0)
(27322.8 13081.7 0)
(36078 -28577.7 0)
(49553.5 -59545.8 0)
(65376.9 43189.4 0)
(35760.5 172218 0)
(-48303.5 179776 0)
(-106746 57851.6 0)
(-66995 -92890 0)
(26619.1 -139906 0)
(81906.8 -55070.3 0)
(64143.3 41742.1 0)
(17142.2 39528.4 0)
(3673.71 -13041.5 0)
(16447.6 41140 0)
(28672.5 13345.9 0)
(-12602.7 17142.8 0)
(-69895 -20068.8 0)
(-61054.5 -95262.9 0)
(7723.59 -135732 0)
(73724.1 -65490.1 0)
(74154 74771.2 0)
(15189.9 107079 0)
(-33701.2 -38997.2 0)
(-26279.1 -154572 0)
(6290.26 -68232.7 0)
(9442.37 70184.7 0)
(-14962.8 69666.5 0)
(-18550.7 -18948.3 0)
(17452.7 -47036 0)
(50682 30117.1 0)
(30661.2 107273 0)
(-32257.3 49279.7 0)
(-73886.2 -94203.3 0)
(-54297.4 -151354 0)
(2094.36 -98568.7 0)
(45611.9 -22530.6 0)
(49360.8 71023.5 0)
(25514.1 166499 0)
(4159.83 159280 0)
(-13000.9 51134.1 0)
(-47241.2 -21966.1 0)
(-75859.6 -37128.5 0)
(-39399 -85138.5 0)
(53813.4 -134133 0)
(110398 -62577.5 0)
(72440.7 112856 0)
(-12811.1 229397 0)
(-67688 161126 0)
(-72139 -33210.6 0)
(-47717.8 -150956 0)
(-6774.01 -108700 0)
(38464.4 -52100.7 0)
(62211.1 -79172.3 0)
(54949.7 -65492.2 0)
(31264.1 84236.8 0)
(-2649.98 215495 0)
(-49800.6 138873 0)
(-82584 -61595.9 0)
(-60571.3 -135362 0)
(-3482.89 -32146.4 0)
(29751.1 45510.1 0)
(35740.8 -11134.3 0)
(54213.8 -53382.8 0)
(75495 33845.7 0)
(41526.5 141981 0)
(-54129.9 147063 0)
(-120057 55520.1 0)
(-76027.2 -59343.2 0)
(29167.9 -102315 0)
(91365.1 -43114.9 0)
(70023.1 24931 0)
(15981 10917.6 0)
(2398.6 -40273.5 0)
(15939 45368.5 0)
(28997.2 5089.62 0)
(-14499.4 -3132.77 0)
(-76708.2 -23077.8 0)
(-67323.3 -70520.9 0)
(9254.59 -101320 0)
(83807.9 -45992.7 0)
(82898.8 71051.3 0)
(12272.2 89580.3 0)
(-43451 -55881.6 0)
(-28482.3 -164260 0)
(13539.7 -74155.1 0)
(14312.6 63630.9 0)
(-18151.5 64576.4 0)
(-22853.8 -17607.6 0)
(19741.6 -41612.2 0)
(57656.5 27214.9 0)
(32553.8 86869.4 0)
(-40077.3 21528.8 0)
(-83690.2 -105256 0)
(-57170.4 -133787 0)
(6179.64 -66215.9 0)
(53287.7 675.994 0)
(57872.2 75624.2 0)
(29668.2 161838 0)
(815.946 152737 0)
(-19511.5 40226.4 0)
(-52763 -29220.8 0)
(-81815.9 -20373.2 0)
(-44119.4 -43383.7 0)
(57641.5 -98025.1 0)
(123699 -61368.1 0)
(84843.5 85897.5 0)
(-12226 203946 0)
(-79202.8 151469 0)
(-85287.8 -30926.2 0)
(-52428.3 -135638 0)
(-4071.21 -77723.2 0)
(41444 -21006.7 0)
(65100.1 -71783 0)
(62675.1 -82927.2 0)
(41180.2 61490.1 0)
(-1248.03 196748 0)
(-60610.5 122390 0)
(-94899.1 -66025 0)
(-62698.9 -114313 0)
(1747.48 6497.92 0)
(31777 78897.8 0)
(34451.1 6549.66 0)
(58264.8 -47960.8 0)
(85233.4 22725.8 0)
(47103.7 108780 0)
(-59469.4 111594 0)
(-132365 51775.4 0)
(-84447.7 -25061.8 0)
(31402.6 -61294.8 0)
(99774.1 -29553 0)
(74817.2 5195.47 0)
(14529.2 -18807.1 0)
(1240.61 -62455.2 0)
(15391.2 48893.3 0)