/*--------------------------------*- C++ -*----------------------------------*\
| =========                 |                                                 |
| \\      /  F ield         | foam-extend: Open Source CFD                    |
|  \\    /   O peration     | Version:     4.0                                |
|   \\  /    A nd           | Web:         http://www.foam-extend.org         |
|    \\/     M anipulation  |                                                 |
\*---------------------------------------------------------------------------*/
FoamFile
{
    version     2.0;
    format      ascii;
    class       volScalarField;
    location    "15";
    object      cMinus;
}
// * * * * * * * * * * * * * * * * * * * * * * * * * * * * * * * * * * * * * //

dimensions      [0 -3 0 0 0 0 0];

internalField   nonuniform List<scalar> 
6960
(
1.41388e-07
1.41343e-07
1.41302e-07
1.41264e-07
1.4123e-07
1.41199e-07
1.41172e-07
1.41147e-07
1.41126e-07
1.41107e-07
1.4109e-07
1.41076e-07
1.41063e-07
1.41053e-07
1.41044e-07
1.41036e-07
1.4103e-07
1.41024e-07
1.4102e-07
1.41016e-07
1.41013e-07
1.4101e-07
1.41008e-07
1.41007e-07
1.41005e-07
1.41004e-07
1.41004e-07
1.41003e-07
1.41003e-07
1.41002e-07
1.41002e-07
1.41003e-07
1.41003e-07
1.41004e-07
1.41004e-07
1.41005e-07
1.41007e-07
1.41008e-07
1.4101e-07
1.41013e-07
1.41016e-07
1.4102e-07
1.41024e-07
1.4103e-07
1.41036e-07
1.41044e-07
1.41053e-07
1.41063e-07
1.41076e-07
1.4109e-07
1.41107e-07
1.41126e-07
1.41147e-07
1.41172e-07
1.41199e-07
1.4123e-07
1.41264e-07
1.41302e-07
1.41343e-07
1.41388e-07
1.43615e-07
1.43569e-07
1.43527e-07
1.43489e-07
1.43454e-07
1.43423e-07
1.43395e-07
1.43371e-07
1.43349e-07
1.4333e-07
1.43313e-07
1.43298e-07
1.43286e-07
1.43275e-07
1.43266e-07
1.43258e-07
1.43251e-07
1.43246e-07
1.43241e-07
1.43237e-07
1.43234e-07
1.43232e-07
1.4323e-07
1.43228e-07
1.43227e-07
1.43226e-07
1.43225e-07
1.43224e-07
1.43224e-07
1.43224e-07
1.43224e-07
1.43224e-07
1.43224e-07
1.43225e-07
1.43226e-07
1.43227e-07
1.43228e-07
1.4323e-07
1.43232e-07
1.43234e-07
1.43237e-07
1.43241e-07
1.43246e-07
1.43251e-07
1.43258e-07
1.43266e-07
1.43275e-07
1.43286e-07
1.43298e-07
1.43313e-07
1.4333e-07
1.43349e-07
1.43371e-07
1.43395e-07
1.43423e-07
1.43454e-07
1.43489e-07
1.43527e-07
1.43569e-07
1.43615e-07
1.46046e-07
1.46e-07
1.45957e-07
1.45918e-07
1.45883e-07
1.45852e-07
1.45823e-07
1.45798e-07
1.45776e-07
1.45756e-07
1.45739e-07
1.45725e-07
1.45712e-07
1.45701e-07
1.45692e-07
1.45684e-07
1.45677e-07
1.45672e-07
1.45667e-07
1.45663e-07
1.4566e-07
1.45657e-07
1.45655e-07
1.45653e-07
1.45652e-07
1.45651e-07
1.4565e-07
1.4565e-07
1.45649e-07
1.45649e-07
1.45649e-07
1.45649e-07
1.4565e-07
1.4565e-07
1.45651e-07
1.45652e-07
1.45653e-07
1.45655e-07
1.45657e-07
1.4566e-07
1.45663e-07
1.45667e-07
1.45672e-07
1.45677e-07
1.45684e-07
1.45692e-07
1.45701e-07
1.45712e-07
1.45725e-07
1.45739e-07
1.45756e-07
1.45776e-07
1.45798e-07
1.45823e-07
1.45852e-07
1.45883e-07
1.45918e-07
1.45957e-07
1.46e-07
1.46046e-07
1.48693e-07
1.48646e-07
1.48603e-07
1.48564e-07
1.48528e-07
1.48496e-07
1.48467e-07
1.48442e-07
1.48419e-07
1.484e-07
1.48382e-07
1.48367e-07
1.48354e-07
1.48343e-07
1.48334e-07
1.48326e-07
1.48319e-07
1.48314e-07
1.48309e-07
1.48305e-07
1.48302e-07
1.48299e-07
1.48297e-07
1.48295e-07
1.48294e-07
1.48293e-07
1.48292e-07
1.48291e-07
1.48291e-07
1.48291e-07
1.48291e-07
1.48291e-07
1.48291e-07
1.48292e-07
1.48293e-07
1.48294e-07
1.48295e-07
1.48297e-07
1.48299e-07
1.48302e-07
1.48305e-07
1.48309e-07
1.48314e-07
1.48319e-07
1.48326e-07
1.48334e-07
1.48343e-07
1.48354e-07
1.48367e-07
1.48382e-07
1.484e-07
1.48419e-07
1.48442e-07
1.48467e-07
1.48496e-07
1.48528e-07
1.48564e-07
1.48603e-07
1.48646e-07
1.48693e-07
1.5157e-07
1.51522e-07
1.51479e-07
1.51439e-07
1.51402e-07
1.5137e-07
1.51341e-07
1.51315e-07
1.51292e-07
1.51272e-07
1.51254e-07
1.51239e-07
1.51226e-07
1.51215e-07
1.51205e-07
1.51197e-07
1.5119e-07
1.51185e-07
1.5118e-07
1.51176e-07
1.51173e-07
1.5117e-07
1.51168e-07
1.51166e-07
1.51165e-07
1.51164e-07
1.51163e-07
1.51162e-07
1.51162e-07
1.51162e-07
1.51162e-07
1.51162e-07
1.51162e-07
1.51163e-07
1.51164e-07
1.51165e-07
1.51166e-07
1.51168e-07
1.5117e-07
1.51173e-07
1.51176e-07
1.5118e-07
1.51185e-07
1.5119e-07
1.51197e-07
1.51205e-07
1.51215e-07
1.51226e-07
1.51239e-07
1.51254e-07
1.51272e-07
1.51292e-07
1.51315e-07
1.51341e-07
1.5137e-07
1.51402e-07
1.51439e-07
1.51479e-07
1.51522e-07
1.5157e-07
1.54689e-07
1.54641e-07
1.54596e-07
1.54556e-07
1.54519e-07
1.54487e-07
1.54457e-07
1.54431e-07
1.54408e-07
1.54387e-07
1.54369e-07
1.54354e-07
1.54341e-07
1.54329e-07
1.5432e-07
1.54311e-07
1.54305e-07
1.54299e-07
1.54294e-07
1.5429e-07
1.54287e-07
1.54284e-07
1.54282e-07
1.5428e-07
1.54278e-07
1.54277e-07
1.54277e-07
1.54276e-07
1.54276e-07
1.54275e-07
1.54275e-07
1.54276e-07
1.54276e-07
1.54277e-07
1.54277e-07
1.54278e-07
1.5428e-07
1.54282e-07
1.54284e-07
1.54287e-07
1.5429e-07
1.54294e-07
1.54299e-07
1.54305e-07
1.54311e-07
1.5432e-07
1.54329e-07
1.54341e-07
1.54354e-07
1.54369e-07
1.54387e-07
1.54408e-07
1.54431e-07
1.54457e-07
1.54487e-07
1.54519e-07
1.54556e-07
1.54596e-07
1.54641e-07
1.54689e-07
1.58066e-07
1.58017e-07
1.57972e-07
1.57931e-07
1.57894e-07
1.57861e-07
1.57831e-07
1.57804e-07
1.57781e-07
1.5776e-07
1.57742e-07
1.57726e-07
1.57713e-07
1.57701e-07
1.57692e-07
1.57683e-07
1.57676e-07
1.5767e-07
1.57666e-07
1.57661e-07
1.57658e-07
1.57655e-07
1.57653e-07
1.57651e-07
1.5765e-07
1.57649e-07
1.57648e-07
1.57647e-07
1.57647e-07
1.57647e-07
1.57647e-07
1.57647e-07
1.57647e-07
1.57648e-07
1.57649e-07
1.5765e-07
1.57651e-07
1.57653e-07
1.57655e-07
1.57658e-07
1.57661e-07
1.57666e-07
1.5767e-07
1.57676e-07
1.57683e-07
1.57692e-07
1.57701e-07
1.57713e-07
1.57726e-07
1.57742e-07
1.5776e-07
1.57781e-07
1.57804e-07
1.57831e-07
1.57861e-07
1.57894e-07
1.57931e-07
1.57972e-07
1.58017e-07
1.58066e-07
1.61716e-07
1.61667e-07
1.61621e-07
1.6158e-07
1.61542e-07
1.61508e-07
1.61478e-07
1.61451e-07
1.61427e-07
1.61406e-07
1.61388e-07
1.61372e-07
1.61359e-07
1.61347e-07
1.61337e-07
1.61329e-07
1.61321e-07
1.61315e-07
1.6131e-07
1.61306e-07
1.61303e-07
1.613e-07
1.61298e-07
1.61296e-07
1.61295e-07
1.61293e-07
1.61293e-07
1.61292e-07
1.61292e-07
1.61291e-07
1.61291e-07
1.61292e-07
1.61292e-07
1.61293e-07
1.61293e-07
1.61295e-07
1.61296e-07
1.61298e-07
1.613e-07
1.61303e-07
1.61306e-07
1.6131e-07
1.61315e-07
1.61321e-07
1.61329e-07
1.61337e-07
1.61347e-07
1.61359e-07
1.61372e-07
1.61388e-07
1.61406e-07
1.61427e-07
1.61451e-07
1.61478e-07
1.61508e-07
1.61542e-07
1.6158e-07
1.61621e-07
1.61667e-07
1.61716e-07
1.65657e-07
1.65606e-07
1.6556e-07
1.65518e-07
1.6548e-07
1.65446e-07
1.65415e-07
1.65388e-07
1.65364e-07
1.65343e-07
1.65324e-07
1.65308e-07
1.65294e-07
1.65283e-07
1.65272e-07
1.65264e-07
1.65257e-07
1.65251e-07
1.65246e-07
1.65241e-07
1.65238e-07
1.65235e-07
1.65233e-07
1.65231e-07
1.6523e-07
1.65228e-07
1.65228e-07
1.65227e-07
1.65227e-07
1.65226e-07
1.65226e-07
1.65227e-07
1.65227e-07
1.65228e-07
1.65228e-07
1.6523e-07
1.65231e-07
1.65233e-07
1.65235e-07
1.65238e-07
1.65241e-07
1.65246e-07
1.65251e-07
1.65257e-07
1.65264e-07
1.65272e-07
1.65283e-07
1.65294e-07
1.65308e-07
1.65324e-07
1.65343e-07
1.65364e-07
1.65388e-07
1.65415e-07
1.65446e-07
1.6548e-07
1.65518e-07
1.6556e-07
1.65606e-07
1.65657e-07
1.69905e-07
1.69854e-07
1.69807e-07
1.69765e-07
1.69726e-07
1.69692e-07
1.69661e-07
1.69633e-07
1.69609e-07
1.69587e-07
1.69568e-07
1.69552e-07
1.69538e-07
1.69526e-07
1.69516e-07
1.69507e-07
1.695e-07
1.69494e-07
1.69489e-07
1.69485e-07
1.69481e-07
1.69478e-07
1.69476e-07
1.69474e-07
1.69473e-07
1.69471e-07
1.69471e-07
1.6947e-07
1.6947e-07
1.69469e-07
1.69469e-07
1.6947e-07
1.6947e-07
1.69471e-07
1.69471e-07
1.69473e-07
1.69474e-07
1.69476e-07
1.69478e-07
1.69481e-07
1.69485e-07
1.69489e-07
1.69494e-07
1.695e-07
1.69507e-07
1.69516e-07
1.69526e-07
1.69538e-07
1.69552e-07
1.69568e-07
1.69587e-07
1.69609e-07
1.69633e-07
1.69661e-07
1.69692e-07
1.69726e-07
1.69765e-07
1.69807e-07
1.69854e-07
1.69905e-07
1.74481e-07
1.74429e-07
1.74382e-07
1.74339e-07
1.743e-07
1.74265e-07
1.74234e-07
1.74206e-07
1.74181e-07
1.74159e-07
1.7414e-07
1.74124e-07
1.7411e-07
1.74098e-07
1.74087e-07
1.74078e-07
1.74071e-07
1.74065e-07
1.7406e-07
1.74055e-07
1.74052e-07
1.74049e-07
1.74047e-07
1.74045e-07
1.74043e-07
1.74042e-07
1.74041e-07
1.74041e-07
1.7404e-07
1.7404e-07
1.7404e-07
1.7404e-07
1.74041e-07
1.74041e-07
1.74042e-07
1.74043e-07
1.74045e-07
1.74047e-07
1.74049e-07
1.74052e-07
1.74055e-07
1.7406e-07
1.74065e-07
1.74071e-07
1.74078e-07
1.74087e-07
1.74098e-07
1.7411e-07
1.74124e-07
1.7414e-07
1.74159e-07
1.74181e-07
1.74206e-07
1.74234e-07
1.74265e-07
1.743e-07
1.74339e-07
1.74382e-07
1.74429e-07
1.74481e-07
1.79405e-07
1.79353e-07
1.79305e-07
1.79261e-07
1.79222e-07
1.79186e-07
1.79155e-07
1.79126e-07
1.79101e-07
1.7908e-07
1.7906e-07
1.79044e-07
1.79029e-07
1.79017e-07
1.79007e-07
1.78998e-07
1.7899e-07
1.78984e-07
1.78979e-07
1.78974e-07
1.78971e-07
1.78968e-07
1.78966e-07
1.78964e-07
1.78962e-07
1.78961e-07
1.7896e-07
1.78959e-07
1.78959e-07
1.78959e-07
1.78959e-07
1.78959e-07
1.78959e-07
1.7896e-07
1.78961e-07
1.78962e-07
1.78964e-07
1.78966e-07
1.78968e-07
1.78971e-07
1.78974e-07
1.78979e-07
1.78984e-07
1.7899e-07
1.78998e-07
1.79007e-07
1.79017e-07
1.79029e-07
1.79044e-07
1.7906e-07
1.7908e-07
1.79101e-07
1.79126e-07
1.79155e-07
1.79186e-07
1.79222e-07
1.79261e-07
1.79305e-07
1.79353e-07
1.79405e-07
1.84699e-07
1.84646e-07
1.84598e-07
1.84554e-07
1.84514e-07
1.84478e-07
1.84446e-07
1.84418e-07
1.84393e-07
1.8437e-07
1.84351e-07
1.84334e-07
1.8432e-07
1.84307e-07
1.84297e-07
1.84288e-07
1.8428e-07
1.84274e-07
1.84268e-07
1.84264e-07
1.8426e-07
1.84257e-07
1.84255e-07
1.84253e-07
1.84252e-07
1.8425e-07
1.84249e-07
1.84249e-07
1.84248e-07
1.84248e-07
1.84248e-07
1.84248e-07
1.84249e-07
1.84249e-07
1.8425e-07
1.84252e-07
1.84253e-07
1.84255e-07
1.84257e-07
1.8426e-07
1.84264e-07
1.84268e-07
1.84274e-07
1.8428e-07
1.84288e-07
1.84297e-07
1.84307e-07
1.8432e-07
1.84334e-07
1.84351e-07
1.8437e-07
1.84393e-07
1.84418e-07
1.84446e-07
1.84478e-07
1.84514e-07
1.84554e-07
1.84598e-07
1.84646e-07
1.84699e-07
1.90388e-07
1.90335e-07
1.90286e-07
1.90242e-07
1.90201e-07
1.90165e-07
1.90132e-07
1.90104e-07
1.90078e-07
1.90056e-07
1.90036e-07
1.90019e-07
1.90004e-07
1.89992e-07
1.89981e-07
1.89972e-07
1.89964e-07
1.89958e-07
1.89953e-07
1.89948e-07
1.89944e-07
1.89942e-07
1.89939e-07
1.89937e-07
1.89936e-07
1.89934e-07
1.89933e-07
1.89933e-07
1.89932e-07
1.89932e-07
1.89932e-07
1.89932e-07
1.89933e-07
1.89933e-07
1.89934e-07
1.89936e-07
1.89937e-07
1.89939e-07
1.89942e-07
1.89944e-07
1.89948e-07
1.89953e-07
1.89958e-07
1.89964e-07
1.89972e-07
1.89981e-07
1.89992e-07
1.90004e-07
1.90019e-07
1.90036e-07
1.90056e-07
1.90078e-07
1.90104e-07
1.90132e-07
1.90165e-07
1.90201e-07
1.90242e-07
1.90286e-07
1.90335e-07
1.90388e-07
1.96497e-07
1.96444e-07
1.96394e-07
1.96349e-07
1.96309e-07
1.96272e-07
1.96239e-07
1.9621e-07
1.96184e-07
1.96161e-07
1.96142e-07
1.96124e-07
1.9611e-07
1.96097e-07
1.96086e-07
1.96077e-07
1.96069e-07
1.96063e-07
1.96057e-07
1.96053e-07
1.96049e-07
1.96046e-07
1.96043e-07
1.96041e-07
1.9604e-07
1.96039e-07
1.96038e-07
1.96037e-07
1.96037e-07
1.96036e-07
1.96036e-07
1.96037e-07
1.96037e-07
1.96038e-07
1.96039e-07
1.9604e-07
1.96041e-07
1.96043e-07
1.96046e-07
1.96049e-07
1.96053e-07
1.96057e-07
1.96063e-07
1.96069e-07
1.96077e-07
1.96086e-07
1.96097e-07
1.9611e-07
1.96124e-07
1.96142e-07
1.96161e-07
1.96184e-07
1.9621e-07
1.96239e-07
1.96272e-07
1.96309e-07
1.96349e-07
1.96394e-07
1.96444e-07
1.96497e-07
2.03055e-07
2.03001e-07
2.02951e-07
2.02905e-07
2.02864e-07
2.02827e-07
2.02794e-07
2.02764e-07
2.02738e-07
2.02715e-07
2.02695e-07
2.02678e-07
2.02663e-07
2.0265e-07
2.02639e-07
2.0263e-07
2.02622e-07
2.02616e-07
2.0261e-07
2.02606e-07
2.02602e-07
2.02599e-07
2.02596e-07
2.02594e-07
2.02593e-07
2.02591e-07
2.0259e-07
2.0259e-07
2.02589e-07
2.02589e-07
2.02589e-07
2.02589e-07
2.0259e-07
2.0259e-07
2.02591e-07
2.02593e-07
2.02594e-07
2.02596e-07
2.02599e-07
2.02602e-07
2.02606e-07
2.0261e-07
2.02616e-07
2.02622e-07
2.0263e-07
2.02639e-07
2.0265e-07
2.02663e-07
2.02678e-07
2.02695e-07
2.02715e-07
2.02738e-07
2.02764e-07
2.02794e-07
2.02827e-07
2.02864e-07
2.02905e-07
2.02951e-07
2.03001e-07
2.03055e-07
2.10091e-07
2.10036e-07
2.09985e-07
2.09939e-07
2.09898e-07
2.0986e-07
2.09827e-07
2.09797e-07
2.09771e-07
2.09748e-07
2.09727e-07
2.0971e-07
2.09695e-07
2.09682e-07
2.09671e-07
2.09661e-07
2.09653e-07
2.09647e-07
2.09641e-07
2.09637e-07
2.09633e-07
2.0963e-07
2.09627e-07
2.09625e-07
2.09624e-07
2.09622e-07
2.09621e-07
2.09621e-07
2.0962e-07
2.0962e-07
2.0962e-07
2.0962e-07
2.09621e-07
2.09621e-07
2.09622e-07
2.09624e-07
2.09625e-07
2.09627e-07
2.0963e-07
2.09633e-07
2.09637e-07
2.09641e-07
2.09647e-07
2.09653e-07
2.09661e-07
2.09671e-07
2.09682e-07
2.09695e-07
2.0971e-07
2.09727e-07
2.09748e-07
2.09771e-07
2.09797e-07
2.09827e-07
2.0986e-07
2.09898e-07
2.09939e-07
2.09985e-07
2.10036e-07
2.10091e-07
2.17637e-07
2.17582e-07
2.17531e-07
2.17485e-07
2.17443e-07
2.17405e-07
2.17371e-07
2.17341e-07
2.17314e-07
2.17291e-07
2.1727e-07
2.17253e-07
2.17237e-07
2.17224e-07
2.17213e-07
2.17204e-07
2.17196e-07
2.17189e-07
2.17183e-07
2.17179e-07
2.17175e-07
2.17172e-07
2.17169e-07
2.17167e-07
2.17166e-07
2.17164e-07
2.17163e-07
2.17163e-07
2.17162e-07
2.17162e-07
2.17162e-07
2.17162e-07
2.17163e-07
2.17163e-07
2.17164e-07
2.17166e-07
2.17167e-07
2.17169e-07
2.17172e-07
2.17175e-07
2.17179e-07
2.17183e-07
2.17189e-07
2.17196e-07
2.17204e-07
2.17213e-07
2.17224e-07
2.17237e-07
2.17253e-07
2.1727e-07
2.17291e-07
2.17314e-07
2.17341e-07
2.17371e-07
2.17405e-07
2.17443e-07
2.17485e-07
2.17531e-07
2.17582e-07
2.17637e-07
2.2573e-07
2.25674e-07
2.25623e-07
2.25576e-07
2.25534e-07
2.25495e-07
2.25461e-07
2.25431e-07
2.25404e-07
2.2538e-07
2.2536e-07
2.25342e-07
2.25326e-07
2.25313e-07
2.25302e-07
2.25292e-07
2.25284e-07
2.25277e-07
2.25272e-07
2.25267e-07
2.25263e-07
2.2526e-07
2.25257e-07
2.25255e-07
2.25254e-07
2.25252e-07
2.25251e-07
2.25251e-07
2.2525e-07
2.2525e-07
2.2525e-07
2.2525e-07
2.25251e-07
2.25251e-07
2.25252e-07
2.25254e-07
2.25255e-07
2.25257e-07
2.2526e-07
2.25263e-07
2.25267e-07
2.25272e-07
2.25277e-07
2.25284e-07
2.25292e-07
2.25302e-07
2.25313e-07
2.25326e-07
2.25342e-07
2.2536e-07
2.2538e-07
2.25404e-07
2.25431e-07
2.25461e-07
2.25495e-07
2.25534e-07
2.25576e-07
2.25623e-07
2.25674e-07
2.2573e-07
2.34407e-07
2.3435e-07
2.34298e-07
2.34251e-07
2.34209e-07
2.3417e-07
2.34136e-07
2.34105e-07
2.34078e-07
2.34054e-07
2.34033e-07
2.34015e-07
2.33999e-07
2.33986e-07
2.33975e-07
2.33965e-07
2.33957e-07
2.3395e-07
2.33944e-07
2.3394e-07
2.33936e-07
2.33933e-07
2.3393e-07
2.33928e-07
2.33926e-07
2.33925e-07
2.33924e-07
2.33923e-07
2.33923e-07
2.33922e-07
2.33922e-07
2.33923e-07
2.33923e-07
2.33924e-07
2.33925e-07
2.33926e-07
2.33928e-07
2.3393e-07
2.33933e-07
2.33936e-07
2.3394e-07
2.33944e-07
2.3395e-07
2.33957e-07
2.33965e-07
2.33975e-07
2.33986e-07
2.33999e-07
2.34015e-07
2.34033e-07
2.34054e-07
2.34078e-07
2.34105e-07
2.34136e-07
2.3417e-07
2.34209e-07
2.34251e-07
2.34298e-07
2.3435e-07
2.34407e-07
2.43709e-07
2.43652e-07
2.436e-07
2.43553e-07
2.4351e-07
2.43471e-07
2.43436e-07
2.43405e-07
2.43377e-07
2.43353e-07
2.43332e-07
2.43314e-07
2.43298e-07
2.43285e-07
2.43273e-07
2.43264e-07
2.43255e-07
2.43249e-07
2.43243e-07
2.43238e-07
2.43234e-07
2.43231e-07
2.43228e-07
2.43226e-07
2.43224e-07
2.43223e-07
2.43222e-07
2.43221e-07
2.43221e-07
2.43221e-07
2.43221e-07
2.43221e-07
2.43221e-07
2.43222e-07
2.43223e-07
2.43224e-07
2.43226e-07
2.43228e-07
2.43231e-07
2.43234e-07
2.43238e-07
2.43243e-07
2.43249e-07
2.43255e-07
2.43264e-07
2.43273e-07
2.43285e-07
2.43298e-07
2.43314e-07
2.43332e-07
2.43353e-07
2.43377e-07
2.43405e-07
2.43436e-07
2.43471e-07
2.4351e-07
2.43553e-07
2.436e-07
2.43652e-07
2.43709e-07
2.53682e-07
2.53625e-07
2.53572e-07
2.53525e-07
2.53481e-07
2.53442e-07
2.53407e-07
2.53376e-07
2.53348e-07
2.53324e-07
2.53302e-07
2.53284e-07
2.53268e-07
2.53255e-07
2.53243e-07
2.53233e-07
2.53225e-07
2.53218e-07
2.53212e-07
2.53207e-07
2.53203e-07
2.532e-07
2.53197e-07
2.53195e-07
2.53193e-07
2.53192e-07
2.53191e-07
2.5319e-07
2.5319e-07
2.5319e-07
2.5319e-07
2.5319e-07
2.5319e-07
2.53191e-07
2.53192e-07
2.53193e-07
2.53195e-07
2.53197e-07
2.532e-07
2.53203e-07
2.53207e-07
2.53212e-07
2.53218e-07
2.53225e-07
2.53233e-07
2.53243e-07
2.53255e-07
2.53268e-07
2.53284e-07
2.53302e-07
2.53324e-07
2.53348e-07
2.53376e-07
2.53407e-07
2.53442e-07
2.53481e-07
2.53525e-07
2.53572e-07
2.53625e-07
2.53682e-07
2.64376e-07
2.64318e-07
2.64265e-07
2.64216e-07
2.64172e-07
2.64133e-07
2.64097e-07
2.64066e-07
2.64038e-07
2.64013e-07
2.63992e-07
2.63974e-07
2.63958e-07
2.63944e-07
2.63932e-07
2.63922e-07
2.63914e-07
2.63907e-07
2.63901e-07
2.63896e-07
2.63892e-07
2.63889e-07
2.63886e-07
2.63884e-07
2.63882e-07
2.63881e-07
2.6388e-07
2.63879e-07
2.63879e-07
2.63878e-07
2.63878e-07
2.63879e-07
2.63879e-07
2.6388e-07
2.63881e-07
2.63882e-07
2.63884e-07
2.63886e-07
2.63889e-07
2.63892e-07
2.63896e-07
2.63901e-07
2.63907e-07
2.63914e-07
2.63922e-07
2.63932e-07
2.63944e-07
2.63958e-07
2.63974e-07
2.63992e-07
2.64013e-07
2.64038e-07
2.64066e-07
2.64097e-07
2.64133e-07
2.64172e-07
2.64216e-07
2.64265e-07
2.64318e-07
2.64376e-07
2.75841e-07
2.75783e-07
2.7573e-07
2.75681e-07
2.75637e-07
2.75597e-07
2.75561e-07
2.75529e-07
2.75501e-07
2.75477e-07
2.75455e-07
2.75436e-07
2.7542e-07
2.75406e-07
2.75394e-07
2.75384e-07
2.75376e-07
2.75369e-07
2.75363e-07
2.75358e-07
2.75354e-07
2.75351e-07
2.75348e-07
2.75346e-07
2.75344e-07
2.75343e-07
2.75342e-07
2.75341e-07
2.7534e-07
2.7534e-07
2.7534e-07
2.7534e-07
2.75341e-07
2.75342e-07
2.75343e-07
2.75344e-07
2.75346e-07
2.75348e-07
2.75351e-07
2.75354e-07
2.75358e-07
2.75363e-07
2.75369e-07
2.75376e-07
2.75384e-07
2.75394e-07
2.75406e-07
2.7542e-07
2.75436e-07
2.75455e-07
2.75477e-07
2.75501e-07
2.75529e-07
2.75561e-07
2.75597e-07
2.75637e-07
2.75681e-07
2.7573e-07
2.75783e-07
2.75841e-07
2.88139e-07
2.8808e-07
2.88026e-07
2.87977e-07
2.87932e-07
2.87892e-07
2.87856e-07
2.87824e-07
2.87796e-07
2.87771e-07
2.87749e-07
2.8773e-07
2.87714e-07
2.877e-07
2.87688e-07
2.87678e-07
2.87669e-07
2.87662e-07
2.87656e-07
2.87651e-07
2.87647e-07
2.87644e-07
2.87641e-07
2.87639e-07
2.87637e-07
2.87636e-07
2.87635e-07
2.87634e-07
2.87633e-07
2.87633e-07
2.87633e-07
2.87633e-07
2.87634e-07
2.87635e-07
2.87636e-07
2.87637e-07
2.87639e-07
2.87641e-07
2.87644e-07
2.87647e-07
2.87651e-07
2.87656e-07
2.87662e-07
2.87669e-07
2.87678e-07
2.87688e-07
2.877e-07
2.87714e-07
2.8773e-07
2.87749e-07
2.87771e-07
2.87796e-07
2.87824e-07
2.87856e-07
2.87892e-07
2.87932e-07
2.87977e-07
2.88026e-07
2.8808e-07
2.88139e-07
3.0133e-07
3.01271e-07
3.01217e-07
3.01167e-07
3.01122e-07
3.01082e-07
3.01046e-07
3.01013e-07
3.00985e-07
3.0096e-07
3.00938e-07
3.00919e-07
3.00902e-07
3.00888e-07
3.00876e-07
3.00866e-07
3.00857e-07
3.0085e-07
3.00844e-07
3.00839e-07
3.00835e-07
3.00832e-07
3.00829e-07
3.00827e-07
3.00825e-07
3.00823e-07
3.00822e-07
3.00822e-07
3.00821e-07
3.00821e-07
3.00821e-07
3.00821e-07
3.00822e-07
3.00822e-07
3.00823e-07
3.00825e-07
3.00827e-07
3.00829e-07
3.00832e-07
3.00835e-07
3.00839e-07
3.00844e-07
3.0085e-07
3.00857e-07
3.00866e-07
3.00876e-07
3.00888e-07
3.00902e-07
3.00919e-07
3.00938e-07
3.0096e-07
3.00985e-07
3.01013e-07
3.01046e-07
3.01082e-07
3.01122e-07
3.01167e-07
3.01217e-07
3.01271e-07
3.0133e-07
3.15486e-07
3.15427e-07
3.15372e-07
3.15322e-07
3.15277e-07
3.15236e-07
3.15199e-07
3.15167e-07
3.15138e-07
3.15113e-07
3.15091e-07
3.15072e-07
3.15055e-07
3.15041e-07
3.15029e-07
3.15018e-07
3.1501e-07
3.15002e-07
3.14996e-07
3.14991e-07
3.14987e-07
3.14984e-07
3.14981e-07
3.14979e-07
3.14977e-07
3.14975e-07
3.14974e-07
3.14974e-07
3.14973e-07
3.14973e-07
3.14973e-07
3.14973e-07
3.14974e-07
3.14974e-07
3.14975e-07
3.14977e-07
3.14979e-07
3.14981e-07
3.14984e-07
3.14987e-07
3.14991e-07
3.14996e-07
3.15002e-07
3.1501e-07
3.15018e-07
3.15029e-07
3.15041e-07
3.15055e-07
3.15072e-07
3.15091e-07
3.15113e-07
3.15138e-07
3.15167e-07
3.15199e-07
3.15236e-07
3.15277e-07
3.15322e-07
3.15372e-07
3.15427e-07
3.15486e-07
3.30682e-07
3.30622e-07
3.30567e-07
3.30517e-07
3.30471e-07
3.3043e-07
3.30393e-07
3.30361e-07
3.30332e-07
3.30306e-07
3.30284e-07
3.30265e-07
3.30248e-07
3.30234e-07
3.30222e-07
3.30211e-07
3.30202e-07
3.30195e-07
3.30189e-07
3.30184e-07
3.3018e-07
3.30176e-07
3.30173e-07
3.30171e-07
3.30169e-07
3.30168e-07
3.30167e-07
3.30166e-07
3.30166e-07
3.30165e-07
3.30165e-07
3.30166e-07
3.30166e-07
3.30167e-07
3.30168e-07
3.30169e-07
3.30171e-07
3.30173e-07
3.30176e-07
3.3018e-07
3.30184e-07
3.30189e-07
3.30195e-07
3.30202e-07
3.30211e-07
3.30222e-07
3.30234e-07
3.30248e-07
3.30265e-07
3.30284e-07
3.30306e-07
3.30332e-07
3.30361e-07
3.30393e-07
3.3043e-07
3.30471e-07
3.30517e-07
3.30567e-07
3.30622e-07
3.30682e-07
3.47002e-07
3.46942e-07
3.46886e-07
3.46836e-07
3.4679e-07
3.46748e-07
3.46711e-07
3.46678e-07
3.46649e-07
3.46623e-07
3.46601e-07
3.46582e-07
3.46565e-07
3.4655e-07
3.46538e-07
3.46528e-07
3.46519e-07
3.46511e-07
3.46505e-07
3.465e-07
3.46496e-07
3.46492e-07
3.46489e-07
3.46487e-07
3.46485e-07
3.46484e-07
3.46483e-07
3.46482e-07
3.46482e-07
3.46481e-07
3.46481e-07
3.46482e-07
3.46482e-07
3.46483e-07
3.46484e-07
3.46485e-07
3.46487e-07
3.46489e-07
3.46492e-07
3.46496e-07
3.465e-07
3.46505e-07
3.46511e-07
3.46519e-07
3.46528e-07
3.46538e-07
3.4655e-07
3.46565e-07
3.46582e-07
3.46601e-07
3.46623e-07
3.46649e-07
3.46678e-07
3.46711e-07
3.46748e-07
3.4679e-07
3.46836e-07
3.46886e-07
3.46942e-07
3.47002e-07
3.64537e-07
3.64476e-07
3.6442e-07
3.6437e-07
3.64323e-07
3.64282e-07
3.64244e-07
3.64211e-07
3.64182e-07
3.64156e-07
3.64133e-07
3.64114e-07
3.64097e-07
3.64082e-07
3.6407e-07
3.64059e-07
3.6405e-07
3.64043e-07
3.64037e-07
3.64032e-07
3.64027e-07
3.64024e-07
3.64021e-07
3.64019e-07
3.64017e-07
3.64015e-07
3.64014e-07
3.64013e-07
3.64013e-07
3.64013e-07
3.64013e-07
3.64013e-07
3.64013e-07
3.64014e-07
3.64015e-07
3.64017e-07
3.64019e-07
3.64021e-07
3.64024e-07
3.64027e-07
3.64032e-07
3.64037e-07
3.64043e-07
3.6405e-07
3.64059e-07
3.6407e-07
3.64082e-07
3.64097e-07
3.64114e-07
3.64133e-07
3.64156e-07
3.64182e-07
3.64211e-07
3.64244e-07
3.64282e-07
3.64323e-07
3.6437e-07
3.6442e-07
3.64476e-07
3.64537e-07
3.83388e-07
3.83327e-07
3.83271e-07
3.83219e-07
3.83173e-07
3.83131e-07
3.83094e-07
3.8306e-07
3.83031e-07
3.83004e-07
3.82982e-07
3.82962e-07
3.82945e-07
3.8293e-07
3.82918e-07
3.82907e-07
3.82898e-07
3.82891e-07
3.82884e-07
3.82879e-07
3.82875e-07
3.82871e-07
3.82868e-07
3.82866e-07
3.82864e-07
3.82863e-07
3.82862e-07
3.82861e-07
3.8286e-07
3.8286e-07
3.8286e-07
3.8286e-07
3.82861e-07
3.82862e-07
3.82863e-07
3.82864e-07
3.82866e-07
3.82868e-07
3.82871e-07
3.82875e-07
3.82879e-07
3.82884e-07
3.82891e-07
3.82898e-07
3.82907e-07
3.82918e-07
3.8293e-07
3.82945e-07
3.82962e-07
3.82982e-07
3.83004e-07
3.83031e-07
3.8306e-07
3.83094e-07
3.83131e-07
3.83173e-07
3.83219e-07
3.83271e-07
3.83327e-07
3.83388e-07
4.03666e-07
4.03604e-07
4.03548e-07
4.03496e-07
4.03449e-07
4.03407e-07
4.03369e-07
4.03336e-07
4.03306e-07
4.0328e-07
4.03257e-07
4.03237e-07
4.0322e-07
4.03205e-07
4.03193e-07
4.03182e-07
4.03173e-07
4.03165e-07
4.03159e-07
4.03154e-07
4.03149e-07
4.03146e-07
4.03143e-07
4.0314e-07
4.03139e-07
4.03137e-07
4.03136e-07
4.03135e-07
4.03135e-07
4.03134e-07
4.03134e-07
4.03135e-07
4.03135e-07
4.03136e-07
4.03137e-07
4.03139e-07
4.0314e-07
4.03143e-07
4.03146e-07
4.03149e-07
4.03154e-07
4.03159e-07
4.03165e-07
4.03173e-07
4.03182e-07
4.03193e-07
4.03205e-07
4.0322e-07
4.03237e-07
4.03257e-07
4.0328e-07
4.03306e-07
4.03336e-07
4.03369e-07
4.03407e-07
4.03449e-07
4.03496e-07
4.03548e-07
4.03604e-07
4.03666e-07
4.25493e-07
4.25431e-07
4.25374e-07
4.25322e-07
4.25275e-07
4.25233e-07
4.25195e-07
4.25161e-07
4.25131e-07
4.25105e-07
4.25082e-07
4.25062e-07
4.25044e-07
4.25029e-07
4.25017e-07
4.25006e-07
4.24997e-07
4.24989e-07
4.24983e-07
4.24977e-07
4.24973e-07
4.24969e-07
4.24966e-07
4.24964e-07
4.24962e-07
4.24961e-07
4.2496e-07
4.24959e-07
4.24958e-07
4.24958e-07
4.24958e-07
4.24958e-07
4.24959e-07
4.2496e-07
4.24961e-07
4.24962e-07
4.24964e-07
4.24966e-07
4.24969e-07
4.24973e-07
4.24977e-07
4.24983e-07
4.24989e-07
4.24997e-07
4.25006e-07
4.25017e-07
4.25029e-07
4.25044e-07
4.25062e-07
4.25082e-07
4.25105e-07
4.25131e-07
4.25161e-07
4.25195e-07
4.25233e-07
4.25275e-07
4.25322e-07
4.25374e-07
4.25431e-07
4.25493e-07
4.49004e-07
4.48942e-07
4.48885e-07
4.48833e-07
4.48785e-07
4.48743e-07
4.48704e-07
4.4867e-07
4.4864e-07
4.48614e-07
4.4859e-07
4.4857e-07
4.48553e-07
4.48538e-07
4.48525e-07
4.48514e-07
4.48505e-07
4.48497e-07
4.48491e-07
4.48486e-07
4.48481e-07
4.48478e-07
4.48475e-07
4.48472e-07
4.4847e-07
4.48469e-07
4.48468e-07
4.48467e-07
4.48466e-07
4.48466e-07
4.48466e-07
4.48466e-07
4.48467e-07
4.48468e-07
4.48469e-07
4.4847e-07
4.48472e-07
4.48475e-07
4.48478e-07
4.48481e-07
4.48486e-07
4.48491e-07
4.48497e-07
4.48505e-07
4.48514e-07
4.48525e-07
4.48538e-07
4.48553e-07
4.4857e-07
4.4859e-07
4.48614e-07
4.4864e-07
4.4867e-07
4.48704e-07
4.48743e-07
4.48785e-07
4.48833e-07
4.48885e-07
4.48942e-07
4.49004e-07
4.7435e-07
4.74287e-07
4.74229e-07
4.74177e-07
4.74129e-07
4.74086e-07
4.74048e-07
4.74014e-07
4.73983e-07
4.73957e-07
4.73933e-07
4.73913e-07
4.73895e-07
4.7388e-07
4.73867e-07
4.73856e-07
4.73847e-07
4.73839e-07
4.73833e-07
4.73828e-07
4.73823e-07
4.73819e-07
4.73816e-07
4.73814e-07
4.73812e-07
4.73811e-07
4.7381e-07
4.73809e-07
4.73808e-07
4.73808e-07
4.73808e-07
4.73808e-07
4.73809e-07
4.7381e-07
4.73811e-07
4.73812e-07
4.73814e-07
4.73816e-07
4.73819e-07
4.73823e-07
4.73828e-07
4.73833e-07
4.73839e-07
4.73847e-07
4.73856e-07
4.73867e-07
4.7388e-07
4.73895e-07
4.73913e-07
4.73933e-07
4.73957e-07
4.73983e-07
4.74014e-07
4.74048e-07
4.74086e-07
4.74129e-07
4.74177e-07
4.74229e-07
4.74287e-07
4.7435e-07
5.01694e-07
5.01631e-07
5.01573e-07
5.0152e-07
5.01472e-07
5.01429e-07
5.01391e-07
5.01356e-07
5.01326e-07
5.01299e-07
5.01275e-07
5.01255e-07
5.01237e-07
5.01222e-07
5.01209e-07
5.01198e-07
5.01189e-07
5.01181e-07
5.01174e-07
5.01169e-07
5.01165e-07
5.01161e-07
5.01158e-07
5.01155e-07
5.01153e-07
5.01152e-07
5.01151e-07
5.0115e-07
5.01149e-07
5.01149e-07
5.01149e-07
5.01149e-07
5.0115e-07
5.01151e-07
5.01152e-07
5.01153e-07
5.01155e-07
5.01158e-07
5.01161e-07
5.01165e-07
5.01169e-07
5.01174e-07
5.01181e-07
5.01189e-07
5.01198e-07
5.01209e-07
5.01222e-07
5.01237e-07
5.01255e-07
5.01275e-07
5.01299e-07
5.01326e-07
5.01356e-07
5.01391e-07
5.01429e-07
5.01472e-07
5.0152e-07
5.01573e-07
5.01631e-07
5.01694e-07
5.31221e-07
5.31158e-07
5.311e-07
5.31047e-07
5.30999e-07
5.30955e-07
5.30917e-07
5.30882e-07
5.30851e-07
5.30824e-07
5.30801e-07
5.3078e-07
5.30762e-07
5.30747e-07
5.30734e-07
5.30723e-07
5.30714e-07
5.30706e-07
5.30699e-07
5.30694e-07
5.30689e-07
5.30685e-07
5.30682e-07
5.3068e-07
5.30678e-07
5.30676e-07
5.30675e-07
5.30674e-07
5.30674e-07
5.30674e-07
5.30674e-07
5.30674e-07
5.30674e-07
5.30675e-07
5.30676e-07
5.30678e-07
5.3068e-07
5.30682e-07
5.30685e-07
5.30689e-07
5.30694e-07
5.30699e-07
5.30706e-07
5.30714e-07
5.30723e-07
5.30734e-07
5.30747e-07
5.30762e-07
5.3078e-07
5.30801e-07
5.30824e-07
5.30851e-07
5.30882e-07
5.30917e-07
5.30955e-07
5.30999e-07
5.31047e-07
5.311e-07
5.31158e-07
5.31221e-07
5.63136e-07
5.63073e-07
5.63014e-07
5.62961e-07
5.62913e-07
5.62869e-07
5.6283e-07
5.62795e-07
5.62764e-07
5.62737e-07
5.62713e-07
5.62693e-07
5.62675e-07
5.62659e-07
5.62646e-07
5.62635e-07
5.62626e-07
5.62618e-07
5.62611e-07
5.62606e-07
5.62601e-07
5.62597e-07
5.62594e-07
5.62592e-07
5.6259e-07
5.62588e-07
5.62587e-07
5.62586e-07
5.62586e-07
5.62585e-07
5.62585e-07
5.62586e-07
5.62586e-07
5.62587e-07
5.62588e-07
5.6259e-07
5.62592e-07
5.62594e-07
5.62597e-07
5.62601e-07
5.62606e-07
5.62611e-07
5.62618e-07
5.62626e-07
5.62635e-07
5.62646e-07
5.62659e-07
5.62675e-07
5.62693e-07
5.62713e-07
5.62737e-07
5.62764e-07
5.62795e-07
5.6283e-07
5.62869e-07
5.62913e-07
5.62961e-07
5.63014e-07
5.63073e-07
5.63136e-07
5.97666e-07
5.97602e-07
5.97543e-07
5.97489e-07
5.97441e-07
5.97397e-07
5.97358e-07
5.97323e-07
5.97292e-07
5.97264e-07
5.97241e-07
5.9722e-07
5.97202e-07
5.97186e-07
5.97173e-07
5.97162e-07
5.97152e-07
5.97144e-07
5.97138e-07
5.97132e-07
5.97128e-07
5.97124e-07
5.97121e-07
5.97118e-07
5.97116e-07
5.97115e-07
5.97113e-07
5.97113e-07
5.97112e-07
5.97112e-07
5.97112e-07
5.97112e-07
5.97113e-07
5.97113e-07
5.97115e-07
5.97116e-07
5.97118e-07
5.97121e-07
5.97124e-07
5.97128e-07
5.97132e-07
5.97138e-07
5.97144e-07
5.97152e-07
5.97162e-07
5.97173e-07
5.97186e-07
5.97202e-07
5.9722e-07
5.97241e-07
5.97264e-07
5.97292e-07
5.97323e-07
5.97358e-07
5.97397e-07
5.97441e-07
5.97489e-07
5.97543e-07
5.97602e-07
5.97666e-07
6.35063e-07
6.34999e-07
6.3494e-07
6.34886e-07
6.34837e-07
6.34793e-07
6.34754e-07
6.34719e-07
6.34687e-07
6.3466e-07
6.34636e-07
6.34615e-07
6.34597e-07
6.34582e-07
6.34568e-07
6.34557e-07
6.34547e-07
6.34539e-07
6.34533e-07
6.34527e-07
6.34522e-07
6.34519e-07
6.34515e-07
6.34513e-07
6.34511e-07
6.34509e-07
6.34508e-07
6.34507e-07
6.34507e-07
6.34506e-07
6.34506e-07
6.34507e-07
6.34507e-07
6.34508e-07
6.34509e-07
6.34511e-07
6.34513e-07
6.34515e-07
6.34519e-07
6.34522e-07
6.34527e-07
6.34533e-07
6.34539e-07
6.34547e-07
6.34557e-07
6.34568e-07
6.34582e-07
6.34597e-07
6.34615e-07
6.34636e-07
6.3466e-07
6.34687e-07
6.34719e-07
6.34754e-07
6.34793e-07
6.34837e-07
6.34886e-07
6.3494e-07
6.34999e-07
6.35063e-07
6.75612e-07
6.75548e-07
6.75489e-07
6.75434e-07
6.75385e-07
6.75341e-07
6.75302e-07
6.75266e-07
6.75235e-07
6.75207e-07
6.75183e-07
6.75162e-07
6.75144e-07
6.75128e-07
6.75115e-07
6.75103e-07
6.75094e-07
6.75086e-07
6.75079e-07
6.75073e-07
6.75069e-07
6.75065e-07
6.75062e-07
6.75059e-07
6.75057e-07
6.75055e-07
6.75054e-07
6.75053e-07
6.75053e-07
6.75053e-07
6.75053e-07
6.75053e-07
6.75053e-07
6.75054e-07
6.75055e-07
6.75057e-07
6.75059e-07
6.75062e-07
6.75065e-07
6.75069e-07
6.75073e-07
6.75079e-07
6.75086e-07
6.75094e-07
6.75103e-07
6.75115e-07
6.75128e-07
6.75144e-07
6.75162e-07
6.75183e-07
6.75207e-07