/*--------------------------------*- C++ -*----------------------------------*\
| =========                 |                                                 |
| \\      /  F ield         | foam-extend: Open Source CFD                    |
|  \\    /   O peration     | Version:     4.0                                |
|   \\  /    A nd           | Web:         http://www.foam-extend.org         |
|    \\/     M anipulation  |                                                 |
\*---------------------------------------------------------------------------*/
FoamFile
{
    version     2.0;
    format      ascii;
    class       volVectorField;
    location    "26";
    object      bodyForce;
}
// * * * * * * * * * * * * * * * * * * * * * * * * * * * * * * * * * * * * * //

dimensions      [0 -1 0 0 0 0 0];

internalField   nonuniform List<vector> 
6960
(
(-1.0155e-05 -9.23257e+08 -0)
(-3.80904e-05 -9.23257e+08 -0)
(-5.10639e-05 -9.23257e+08 -0)
(-3.40478e-05 -9.23257e+08 -0)
(-1.7783e-05 -9.23257e+08 -0)
(-1.06646e-05 -9.23257e+08 -0)
(-6.31469e-06 -9.23257e+08 -0)
(-4.01366e-06 -9.23257e+08 -0)
(-2.50066e-06 -9.23257e+08 -0)
(-1.57867e-06 -9.23257e+08 -0)
(-9.14106e-07 -9.23257e+08 -0)
(-4.70187e-07 -9.23257e+08 -0)
(-1.23457e-07 -9.23257e+08 -0)
(1.2083e-07 -9.23257e+08 -0)
(3.04702e-07 -9.23257e+08 -0)
(4.33412e-07 -9.23257e+08 -0)
(5.33229e-07 -9.23257e+08 -0)
(5.83137e-07 -9.23257e+08 -0)
(6.09404e-07 -9.23257e+08 -0)
(6.09404e-07 -9.23257e+08 -0)
(5.8839e-07 -9.23257e+08 -0)
(5.8051e-07 -9.23257e+08 -0)
(5.46362e-07 -9.23257e+08 -0)
(5.04334e-07 -9.23257e+08 -0)
(4.518e-07 -9.23257e+08 -0)
(3.75624e-07 -9.23257e+08 -0)
(3.04702e-07 -9.23257e+08 -0)
(2.259e-07 -9.23257e+08 -0)
(1.2871e-07 -9.23257e+08 -0)
(5.51616e-08 -9.23257e+08 -0)
(-3.67744e-08 -9.23257e+08 -0)
(-1.33964e-07 -9.23257e+08 -0)
(-2.20646e-07 -9.23257e+08 -0)
(-2.86315e-07 -9.23257e+08 -0)
(-3.5461e-07 -9.23257e+08 -0)
(-4.38666e-07 -9.23257e+08 -0)
(-5.06961e-07 -9.23257e+08 -0)
(-5.59496e-07 -9.23257e+08 -0)
(-5.9627e-07 -9.23257e+08 -0)
(-6.22538e-07 -9.23257e+08 -0)
(-6.46179e-07 -9.23257e+08 -0)
(-6.25165e-07 -9.23257e+08 -0)
(-5.75257e-07 -9.23257e+08 -0)
(-5.12215e-07 -9.23257e+08 -0)
(-4.30786e-07 -9.23257e+08 -0)
(-2.96822e-07 -9.23257e+08 -0)
(-1.0507e-07 -9.23257e+08 -0)
(1.2871e-07 -9.23257e+08 -0)
(4.57053e-07 -9.23257e+08 -0)
(9.00973e-07 -9.23257e+08 -0)
(1.56291e-06 -9.23257e+08 -0)
(2.51117e-06 -9.23257e+08 -0)
(4.02417e-06 -9.23257e+08 -0)
(6.31994e-06 -9.23257e+08 -0)
(1.06777e-05 -9.23257e+08 -0)
(1.77988e-05 -9.23257e+08 -0)
(3.40662e-05 -9.23257e+08 -0)
(5.10612e-05 -9.23257e+08 -0)
(3.8072e-05 -9.23257e+08 -0)
(1.0134e-05 -9.23257e+08 -0)
(-2.37629e-05 -1.88067e+08 -0)
(-8.90326e-05 -1.88067e+08 -0)
(-0.000119432 -1.88067e+08 -0)
(-7.98185e-05 -1.88067e+08 -0)
(-4.17595e-05 -1.88067e+08 -0)
(-2.50323e-05 -1.88067e+08 -0)
(-1.48282e-05 -1.88067e+08 -0)
(-9.42536e-06 -1.88067e+08 -0)
(-5.87718e-06 -1.88067e+08 -0)
(-3.70778e-06 -1.88067e+08 -0)
(-2.14575e-06 -1.88067e+08 -0)
(-1.098e-06 -1.88067e+08 -0)
(-3.04425e-07 -1.88067e+08 -0)
(2.83736e-07 -1.88067e+08 -0)
(7.15252e-07 -1.88067e+08 -0)
(1.01081e-06 -1.88067e+08 -0)
(1.2443e-06 -1.88067e+08 -0)
(1.37435e-06 -1.88067e+08 -0)
(1.43198e-06 -1.88067e+08 -0)
(1.43198e-06 -1.88067e+08 -0)
(1.39356e-06 -1.88067e+08 -0)
(1.34627e-06 -1.88067e+08 -0)
(1.27681e-06 -1.88067e+08 -0)
(1.18667e-06 -1.88067e+08 -0)
(1.0581e-06 -1.88067e+08 -0)
(8.88153e-07 -1.88067e+08 -0)
(7.15252e-07 -1.88067e+08 -0)
(5.30528e-07 -1.88067e+08 -0)
(3.10336e-07 -1.88067e+08 -0)
(1.16746e-07 -1.88067e+08 -0)
(-8.5712e-08 -1.88067e+08 -0)
(-3.10336e-07 -1.88067e+08 -0)
(-5.1575e-07 -1.88067e+08 -0)
(-6.78307e-07 -1.88067e+08 -0)
(-8.29042e-07 -1.88067e+08 -0)
(-1.01968e-06 -1.88067e+08 -0)
(-1.19553e-06 -1.88067e+08 -0)
(-1.30932e-06 -1.88067e+08 -0)
(-1.39208e-06 -1.88067e+08 -0)
(-1.47484e-06 -1.88067e+08 -0)
(-1.50883e-06 -1.88067e+08 -0)
(-1.45267e-06 -1.88067e+08 -0)
(-1.35957e-06 -1.88067e+08 -0)
(-1.21918e-06 -1.88067e+08 -0)
(-9.96032e-07 -1.88067e+08 -0)
(-6.93085e-07 -1.88067e+08 -0)
(-2.58614e-07 -1.88067e+08 -0)
(3.04425e-07 -1.88067e+08 -0)
(1.08322e-06 -1.88067e+08 -0)
(2.11472e-06 -1.88067e+08 -0)
(3.67379e-06 -1.88067e+08 -0)
(5.89491e-06 -1.88067e+08 -0)
(9.44901e-06 -1.88067e+08 -0)
(1.48489e-05 -1.88067e+08 -0)
(2.50678e-05 -1.88067e+08 -0)
(4.1792e-05 -1.88067e+08 -0)
(7.9857e-05 -1.88067e+08 -0)
(0.000119425 -1.88067e+08 -0)
(8.89808e-05 -1.88067e+08 -0)
(2.37363e-05 -1.88067e+08 -0)
(-2.06615e-05 -6.41334e+07 -0)
(-8.0182e-05 -6.41334e+07 -0)
(-0.00010833 -6.41334e+07 -0)
(-7.20391e-05 -6.41334e+07 -0)
(-3.78028e-05 -6.41334e+07 -0)
(-2.26584e-05 -6.41334e+07 -0)
(-1.34275e-05 -6.41334e+07 -0)
(-8.53386e-06 -6.41334e+07 -0)
(-5.32318e-06 -6.41334e+07 -0)
(-3.35574e-06 -6.41334e+07 -0)
(-1.94363e-06 -6.41334e+07 -0)
(-9.9505e-07 -6.41334e+07 -0)
(-2.77662e-07 -6.41334e+07 -0)
(2.56129e-07 -6.41334e+07 -0)
(6.47122e-07 -6.41334e+07 -0)
(9.14585e-07 -6.41334e+07 -0)
(1.12651e-06 -6.41334e+07 -0)
(1.24211e-06 -6.41334e+07 -0)
(1.29651e-06 -6.41334e+07 -0)
(1.29538e-06 -6.41334e+07 -0)
(1.26251e-06 -6.41334e+07 -0)
(1.21831e-06 -6.41334e+07 -0)
(1.15711e-06 -6.41334e+07 -0)
(1.07212e-06 -6.41334e+07 -0)
(9.57651e-07 -6.41334e+07 -0)
(8.05786e-07 -6.41334e+07 -0)
(6.48256e-07 -6.41334e+07 -0)
(4.78259e-07 -6.41334e+07 -0)
(2.78795e-07 -6.41334e+07 -0)
(1.06532e-07 -6.41334e+07 -0)
(-8.04653e-08 -6.41334e+07 -0)
(-2.79929e-07 -6.41334e+07 -0)
(-4.63526e-07 -6.41334e+07 -0)
(-6.14256e-07 -6.41334e+07 -0)
(-7.55921e-07 -6.41334e+07 -0)
(-9.22518e-07 -6.41334e+07 -0)
(-1.07552e-06 -6.41334e+07 -0)
(-1.18771e-06 -6.41334e+07 -0)
(-1.26025e-06 -6.41334e+07 -0)
(-1.33618e-06 -6.41334e+07 -0)
(-1.36451e-06 -6.41334e+07 -0)
(-1.31351e-06 -6.41334e+07 -0)
(-1.22851e-06 -6.41334e+07 -0)
(-1.10271e-06 -6.41334e+07 -0)
(-9.02118e-07 -6.41334e+07 -0)
(-6.27856e-07 -6.41334e+07 -0)
(-2.34596e-07 -6.41334e+07 -0)
(2.78795e-07 -6.41334e+07 -0)
(9.82583e-07 -6.41334e+07 -0)
(1.91303e-06 -6.41334e+07 -0)
(3.32854e-06 -6.41334e+07 -0)
(5.33904e-06 -6.41334e+07 -0)
(8.55426e-06 -6.41334e+07 -0)
(1.34456e-05 -6.41334e+07 -0)
(2.26878e-05 -6.41334e+07 -0)
(3.78323e-05 -6.41334e+07 -0)
(7.20731e-05 -6.41334e+07 -0)
(0.000108324 -6.41334e+07 -0)
(8.01366e-05 -6.41334e+07 -0)
(2.06331e-05 -6.41334e+07 -0)
(-1.69607e-05 -2.92948e+07 -0)
(-6.58834e-05 -2.92948e+07 -0)
(-8.88521e-05 -2.92948e+07 -0)
(-5.90204e-05 -2.92948e+07 -0)
(-3.10617e-05 -2.92948e+07 -0)
(-1.86145e-05 -2.92948e+07 -0)
(-1.10353e-05 -2.92948e+07 -0)
(-7.0141e-06 -2.92948e+07 -0)
(-4.3747e-06 -2.92948e+07 -0)
(-2.75922e-06 -2.92948e+07 -0)
(-1.59821e-06 -2.92948e+07 -0)
(-8.18806e-07 -2.92948e+07 -0)
(-2.29935e-07 -2.92948e+07 -0)
(2.10504e-07 -2.92948e+07 -0)
(5.31118e-07 -2.92948e+07 -0)
(7.51337e-07 -2.92948e+07 -0)
(9.25138e-07 -2.92948e+07 -0)
(1.02067e-06 -2.92948e+07 -0)
(1.06547e-06 -2.92948e+07 -0)
(1.06385e-06 -2.92948e+07 -0)
(1.03471e-06 -2.92948e+07 -0)
(1.0007e-06 -2.92948e+07 -0)
(9.51046e-07 -2.92948e+07 -0)
(8.82497e-07 -2.92948e+07 -0)
(7.8858e-07 -2.92948e+07 -0)
(6.60658e-07 -2.92948e+07 -0)
(5.31118e-07 -2.92948e+07 -0)
(3.92941e-07 -2.92948e+07 -0)
(2.30475e-07 -2.92948e+07 -0)
(8.74401e-08 -2.92948e+07 -0)
(-6.53102e-08 -2.92948e+07 -0)
(-2.31015e-07 -2.92948e+07 -0)
(-3.82146e-07 -2.92948e+07 -0)
(-5.06289e-07 -2.92948e+07 -0)
(-6.21796e-07 -2.92948e+07 -0)
(-7.56735e-07 -2.92948e+07 -0)
(-8.80878e-07 -2.92948e+07 -0)
(-9.74795e-07 -2.92948e+07 -0)
(-1.03849e-06 -2.92948e+07 -0)
(-1.09678e-06 -2.92948e+07 -0)
(-1.12161e-06 -2.92948e+07 -0)
(-1.08005e-06 -2.92948e+07 -0)
(-1.00772e-06 -2.92948e+07 -0)
(-9.04627e-07 -2.92948e+07 -0)
(-7.40542e-07 -2.92948e+07 -0)
(-5.13845e-07 -2.92948e+07 -0)
(-1.92692e-07 -2.92948e+07 -0)
(2.27776e-07 -2.92948e+07 -0)
(8.07471e-07 -2.92948e+07 -0)
(1.5723e-06 -2.92948e+07 -0)
(2.73817e-06 -2.92948e+07 -0)
(4.39036e-06 -2.92948e+07 -0)
(7.02867e-06 -2.92948e+07 -0)
(1.10504e-05 -2.92948e+07 -0)
(1.86409e-05 -2.92948e+07 -0)
(3.10828e-05 -2.92948e+07 -0)
(5.90485e-05 -2.92948e+07 -0)
(8.88521e-05 -2.92948e+07 -0)
(6.58472e-05 -2.92948e+07 -0)
(1.69375e-05 -2.92948e+07 -0)
(-1.53533e-05 -1.74656e+07 -0)
(-5.89928e-05 -1.74656e+07 -0)
(-7.91851e-05 -1.74656e+07 -0)
(-5.26127e-05 -1.74656e+07 -0)
(-2.77631e-05 -1.74656e+07 -0)
(-1.66385e-05 -1.74656e+07 -0)
(-9.86753e-06 -1.74656e+07 -0)
(-6.2733e-06 -1.74656e+07 -0)
(-3.9134e-06 -1.74656e+07 -0)
(-2.46672e-06 -1.74656e+07 -0)
(-1.43105e-06 -1.74656e+07 -0)
(-7.32786e-07 -1.74656e+07 -0)
(-2.04529e-07 -1.74656e+07 -0)
(1.8629e-07 -1.74656e+07 -0)
(4.74194e-07 -1.74656e+07 -0)
(6.7286e-07 -1.74656e+07 -0)
(8.26582e-07 -1.74656e+07 -0)
(9.11911e-07 -1.74656e+07 -0)
(9.52947e-07 -1.74656e+07 -0)
(9.51644e-07 -1.74656e+07 -0)
(9.24938e-07 -1.74656e+07 -0)
(8.93673e-07 -1.74656e+07 -0)
(8.50031e-07 -1.74656e+07 -0)
(7.88152e-07 -1.74656e+07 -0)
(7.05428e-07 -1.74656e+07 -0)
(5.92091e-07 -1.74656e+07 -0)
(4.73542e-07 -1.74656e+07 -0)
(3.50434e-07 -1.74656e+07 -0)
(2.07785e-07 -1.74656e+07 -0)
(7.88152e-08 -1.74656e+07 -0)
(-5.99256e-08 -1.74656e+07 -0)
(-2.07134e-07 -1.74656e+07 -0)
(-3.41315e-07 -1.74656e+07 -0)
(-4.5335e-07 -1.74656e+07 -0)
(-5.56266e-07 -1.74656e+07 -0)
(-6.75465e-07 -1.74656e+07 -0)
(-7.88152e-07 -1.74656e+07 -0)
(-8.7348e-07 -1.74656e+07 -0)
(-9.26892e-07 -1.74656e+07 -0)
(-9.79653e-07 -1.74656e+07 -0)
(-1.0005e-06 -1.74656e+07 -0)
(-9.65974e-07 -1.74656e+07 -0)
(-9.0214e-07 -1.74656e+07 -0)
(-8.08344e-07 -1.74656e+07 -0)
(-6.60484e-07 -1.74656e+07 -0)
(-4.59212e-07 -1.74656e+07 -0)
(-1.7196e-07 -1.74656e+07 -0)
(2.04529e-07 -1.74656e+07 -0)
(7.23015e-07 -1.74656e+07 -0)
(1.40825e-06 -1.74656e+07 -0)
(2.44783e-06 -1.74656e+07 -0)
(3.92447e-06 -1.74656e+07 -0)
(6.28632e-06 -1.74656e+07 -0)
(9.88186e-06 -1.74656e+07 -0)
(1.66626e-05 -1.74656e+07 -0)
(2.7782e-05 -1.74656e+07 -0)
(5.26355e-05 -1.74656e+07 -0)
(7.91838e-05 -1.74656e+07 -0)
(5.89615e-05 -1.74656e+07 -0)
(1.53325e-05 -1.74656e+07 -0)
(-1.58924e-05 -1.31514e+07 -0)
(-6.02953e-05 -1.31514e+07 -0)
(-8.05225e-05 -1.31514e+07 -0)
(-5.35329e-05 -1.31514e+07 -0)
(-2.83216e-05 -1.31514e+07 -0)
(-1.69726e-05 -1.31514e+07 -0)
(-1.00719e-05 -1.31514e+07 -0)
(-6.40259e-06 -1.31514e+07 -0)
(-3.9942e-06 -1.31514e+07 -0)
(-2.51981e-06 -1.31514e+07 -0)
(-1.46015e-06 -1.31514e+07 -0)
(-7.48973e-07 -1.31514e+07 -0)
(-2.10066e-07 -1.31514e+07 -0)
(1.90434e-07 -1.31514e+07 -0)
(4.84428e-07 -1.31514e+07 -0)
(6.85659e-07 -1.31514e+07 -0)
(8.42718e-07 -1.31514e+07 -0)
(9.30572e-07 -1.31514e+07 -0)
(9.71309e-07 -1.31514e+07 -0)
(9.70819e-07 -1.31514e+07 -0)
(9.43333e-07 -1.31514e+07 -0)
(9.12412e-07 -1.31514e+07 -0)
(8.67258e-07 -1.31514e+07 -0)
(8.03453e-07 -1.31514e+07 -0)
(7.20016e-07 -1.31514e+07 -0)
(6.03694e-07 -1.31514e+07 -0)
(4.83937e-07 -1.31514e+07 -0)
(3.57308e-07 -1.31514e+07 -0)
(2.1252e-07 -1.31514e+07 -0)
(8.1965e-08 -1.31514e+07 -0)
(-6.38051e-08 -1.31514e+07 -0)
(-2.11538e-07 -1.31514e+07 -0)
(-3.46511e-07 -1.31514e+07 -0)
(-4.6136e-07 -1.31514e+07 -0)
(-5.68356e-07 -1.31514e+07 -0)
(-6.91058e-07 -1.31514e+07 -0)
(-8.03453e-07 -1.31514e+07 -0)
(-8.89835e-07 -1.31514e+07 -0)
(-9.46278e-07 -1.31514e+07 -0)
(-9.99776e-07 -1.31514e+07 -0)
(-1.02088e-06 -1.31514e+07 -0)
(-9.85543e-07 -1.31514e+07 -0)
(-9.21247e-07 -1.31514e+07 -0)
(-8.24067e-07 -1.31514e+07 -0)
(-6.7437e-07 -1.31514e+07 -0)
(-4.68722e-07 -1.31514e+07 -0)
(-1.73746e-07 -1.31514e+07 -0)
(2.11538e-07 -1.31514e+07 -0)
(7.38666e-07 -1.31514e+07 -0)
(1.4366e-06 -1.31514e+07 -0)
(2.50067e-06 -1.31514e+07 -0)
(4.00598e-06 -1.31514e+07 -0)
(6.41486e-06 -1.31514e+07 -0)
(1.00866e-05 -1.31514e+07 -0)
(1.69972e-05 -1.31514e+07 -0)
(2.83402e-05 -1.31514e+07 -0)
(5.3558e-05 -1.31514e+07 -0)
(8.05205e-05 -1.31514e+07 -0)
(6.02639e-05 -1.31514e+07 -0)
(1.58742e-05 -1.31514e+07 -0)
(-1.79879e-05 -1.15361e+07 -0)
(-6.74283e-05 -1.15361e+07 -0)
(-8.96179e-05 -1.15361e+07 -0)
(-5.96181e-05 -1.15361e+07 -0)
(-3.16161e-05 -1.15361e+07 -0)
(-1.89499e-05 -1.15361e+07 -0)
(-1.125e-05 -1.15361e+07 -0)
(-7.15343e-06 -1.15361e+07 -0)
(-4.46317e-06 -1.15361e+07 -0)
(-2.81432e-06 -1.15361e+07 -0)
(-1.63167e-06 -1.15361e+07 -0)
(-8.37515e-07 -1.15361e+07 -0)
(-2.35672e-07 -1.15361e+07 -0)
(2.11203e-07 -1.15361e+07 -0)
(5.40027e-07 -1.15361e+07 -0)
(7.65396e-07 -1.15361e+07 -0)
(9.4054e-07 -1.15361e+07 -0)
(1.0397e-06 -1.15361e+07 -0)
(1.08478e-06 -1.15361e+07 -0)
(1.08349e-06 -1.15361e+07 -0)
(1.05301e-06 -1.15361e+07 -0)
(1.01996e-06 -1.15361e+07 -0)
(9.7016e-07 -1.15361e+07 -0)
(8.97184e-07 -1.15361e+07 -0)
(8.02314e-07 -1.15361e+07 -0)
(6.73102e-07 -1.15361e+07 -0)
(5.41315e-07 -1.15361e+07 -0)
(4.00084e-07 -1.15361e+07 -0)
(2.37389e-07 -1.15361e+07 -0)
(9.01477e-08 -1.15361e+07 -0)
(-6.99717e-08 -1.15361e+07 -0)
(-2.35672e-07 -1.15361e+07 -0)
(-3.88923e-07 -1.15361e+07 -0)
(-5.16847e-07 -1.15361e+07 -0)
(-6.34468e-07 -1.15361e+07 -0)
(-7.70548e-07 -1.15361e+07 -0)
(-8.97613e-07 -1.15361e+07 -0)
(-9.93341e-07 -1.15361e+07 -0)
(-1.05644e-06 -1.15361e+07 -0)
(-1.11568e-06 -1.15361e+07 -0)
(-1.13972e-06 -1.15361e+07 -0)
(-1.10066e-06 -1.15361e+07 -0)
(-1.02768e-06 -1.15361e+07 -0)
(-9.19935e-07 -1.15361e+07 -0)
(-7.53806e-07 -1.15361e+07 -0)
(-5.21139e-07 -1.15361e+07 -0)
(-1.93603e-07 -1.15361e+07 -0)
(2.36101e-07 -1.15361e+07 -0)
(8.26353e-07 -1.15361e+07 -0)
(1.60506e-06 -1.15361e+07 -0)
(2.79329e-06 -1.15361e+07 -0)
(4.4769e-06 -1.15361e+07 -0)
(7.16545e-06 -1.15361e+07 -0)
(1.12663e-05 -1.15361e+07 -0)
(1.89774e-05 -1.15361e+07 -0)
(3.16362e-05 -1.15361e+07 -0)
(5.96455e-05 -1.15361e+07 -0)
(8.96166e-05 -1.15361e+07 -0)
(6.7394e-05 -1.15361e+07 -0)
(1.79664e-05 -1.15361e+07 -0)
(-2.10545e-05 -1.09212e+07 -0)
(-7.80575e-05 -1.09212e+07 -0)
(-0.00010328 -1.09212e+07 -0)
(-6.875e-05 -1.09212e+07 -0)
(-3.65425e-05 -1.09212e+07 -0)
(-2.19064e-05 -1.09212e+07 -0)
(-1.30113e-05 -1.09212e+07 -0)
(-8.27449e-06 -1.09212e+07 -0)
(-5.16416e-06 -1.09212e+07 -0)
(-3.25819e-06 -1.09212e+07 -0)
(-1.88937e-06 -1.09212e+07 -0)
(-9.67369e-07 -1.09212e+07 -0)
(-2.7506e-07 -1.09212e+07 -0)
(2.41842e-07 -1.09212e+07 -0)
(6.25873e-07 -1.09212e+07 -0)
(8.8554e-07 -1.09212e+07 -0)
(1.08687e-06 -1.09212e+07 -0)
(1.20192e-06 -1.09212e+07 -0)
(1.25418e-06 -1.09212e+07 -0)
(1.25337e-06 -1.09212e+07 -0)
(1.21731e-06 -1.09212e+07 -0)
(1.17964e-06 -1.09212e+07 -0)
(1.12131e-06 -1.09212e+07 -0)
(1.03826e-06 -1.09212e+07 -0)
(9.2848e-07 -1.09212e+07 -0)
(7.79404e-07 -1.09212e+07 -0)
(6.26278e-07 -1.09212e+07 -0)
(4.60189e-07 -1.09212e+07 -0)
(2.74655e-07 -1.09212e+07 -0)
(1.03299e-07 -1.09212e+07 -0)
(-8.10192e-08 -1.09212e+07 -0)
(-2.71819e-07 -1.09212e+07 -0)
(-4.48036e-07 -1.09212e+07 -0)
(-5.99137e-07 -1.09212e+07 -0)
(-7.36464e-07 -1.09212e+07 -0)
(-8.89996e-07 -1.09212e+07 -0)
(-1.03705e-06 -1.09212e+07 -0)
(-1.14764e-06 -1.09212e+07 -0)
(-1.22055e-06 -1.09212e+07 -0)
(-1.29104e-06 -1.09212e+07 -0)
(-1.31737e-06 -1.09212e+07 -0)
(-1.27443e-06 -1.09212e+07 -0)
(-1.18896e-06 -1.09212e+07 -0)
(-1.06338e-06 -1.09212e+07 -0)
(-8.70956e-07 -1.09212e+07 -0)
(-6.02378e-07 -1.09212e+07 -0)
(-2.23613e-07 -1.09212e+07 -0)
(2.76275e-07 -1.09212e+07 -0)
(9.57647e-07 -1.09212e+07 -0)
(1.85817e-06 -1.09212e+07 -0)
(3.23185e-06 -1.09212e+07 -0)
(5.17834e-06 -1.09212e+07 -0)
(8.28948e-06 -1.09212e+07 -0)
(1.30315e-05 -1.09212e+07 -0)
(2.1938e-05 -1.09212e+07 -0)
(3.65644e-05 -1.09212e+07 -0)
(6.87796e-05 -1.09212e+07 -0)
(0.000103279 -1.09212e+07 -0)
(7.80182e-05 -1.09212e+07 -0)
(2.10293e-05 -1.09212e+07 -0)
(-2.47045e-05 -1.06782e+07 -0)
(-9.06304e-05 -1.06782e+07 -0)
(-0.000119392 -1.06782e+07 -0)
(-7.95163e-05 -1.06782e+07 -0)
(-4.236e-05 -1.06782e+07 -0)
(-2.54033e-05 -1.06782e+07 -0)
(-1.5094e-05 -1.06782e+07 -0)
(-9.60254e-06 -1.06782e+07 -0)
(-5.99586e-06 -1.06782e+07 -0)
(-3.78141e-06 -1.06782e+07 -0)
(-2.1939e-06 -1.06782e+07 -0)
(-1.12422e-06 -1.06782e+07 -0)
(-3.2019e-07 -1.06782e+07 -0)
(2.80661e-07 -1.06782e+07 -0)
(7.26555e-07 -1.06782e+07 -0)
(1.0254e-06 -1.06782e+07 -0)
(1.25862e-06 -1.06782e+07 -0)
(1.39382e-06 -1.06782e+07 -0)
(1.45548e-06 -1.06782e+07 -0)
(1.45311e-06 -1.06782e+07 -0)
(1.41121e-06 -1.06782e+07 -0)
(1.36931e-06 -1.06782e+07 -0)
(1.30211e-06 -1.06782e+07 -0)
(1.20407e-06 -1.06782e+07 -0)
(1.07679e-06 -1.06782e+07 -0)
(9.04439e-07 -1.06782e+07 -0)
(7.27346e-07 -1.06782e+07 -0)
(5.35232e-07 -1.06782e+07 -0)
(3.18609e-07 -1.06782e+07 -0)
(1.1938e-07 -1.06782e+07 -0)
(-9.40806e-08 -1.06782e+07 -0)
(-3.16237e-07 -1.06782e+07 -0)
(-5.2021e-07 -1.06782e+07 -0)
(-6.94931e-07 -1.06782e+07 -0)
(-8.54631e-07 -1.06782e+07 -0)
(-1.03172e-06 -1.06782e+07 -0)
(-1.20407e-06 -1.06782e+07 -0)
(-1.33057e-06 -1.06782e+07 -0)
(-1.41674e-06 -1.06782e+07 -0)
(-1.49896e-06 -1.06782e+07 -0)
(-1.52664e-06 -1.06782e+07 -0)
(-1.47604e-06 -1.06782e+07 -0)
(-1.37879e-06 -1.06782e+07 -0)
(-1.23412e-06 -1.06782e+07 -0)
(-1.01038e-06 -1.06782e+07 -0)
(-6.98094e-07 -1.06782e+07 -0)
(-2.56943e-07 -1.06782e+07 -0)
(3.20981e-07 -1.06782e+07 -0)
(1.1092e-06 -1.06782e+07 -0)
(2.15753e-06 -1.06782e+07 -0)
(3.75295e-06 -1.06782e+07 -0)
(6.01088e-06 -1.06782e+07 -0)
(9.61994e-06 -1.06782e+07 -0)
(1.51201e-05 -1.06782e+07 -0)
(2.54373e-05 -1.06782e+07 -0)
(4.23861e-05 -1.06782e+07 -0)
(7.95534e-05 -1.06782e+07 -0)
(0.00011939 -1.06782e+07 -0)
(9.05814e-05 -1.06782e+07 -0)
(2.46728e-05 -1.06782e+07 -0)
(-2.87169e-05 -1.05711e+07 -0)
(-0.000104266 -1.05711e+07 -0)
(-0.000136752 -1.05711e+07 -0)
(-9.11153e-05 -1.05711e+07 -0)
(-4.86481e-05 -1.05711e+07 -0)
(-2.91881e-05 -1.05711e+07 -0)
(-1.73538e-05 -1.05711e+07 -0)
(-1.10438e-05 -1.05711e+07 -0)
(-6.8955e-06 -1.05711e+07 -0)
(-4.35097e-06 -1.05711e+07 -0)
(-2.52418e-06 -1.05711e+07 -0)
(-1.29379e-06 -1.05711e+07 -0)
(-3.6943e-07 -1.05711e+07 -0)
(3.2012e-07 -1.05711e+07 -0)
(8.3513e-07 -1.05711e+07 -0)
(1.1803e-06 -1.05711e+07 -0)
(1.44563e-06 -1.05711e+07 -0)
(1.60138e-06 -1.05711e+07 -0)
(1.67339e-06 -1.05711e+07 -0)
(1.67026e-06 -1.05711e+07 -0)
(1.62408e-06 -1.05711e+07 -0)
(1.57399e-06 -1.05711e+07 -0)
(1.4965e-06 -1.05711e+07 -0)
(1.38223e-06 -1.05711e+07 -0)
(1.239e-06 -1.05711e+07 -0)
(1.03941e-06 -1.05711e+07 -0)
(8.3513e-07 -1.05711e+07 -0)
(6.17542e-07 -1.05711e+07 -0)
(3.65516e-07 -1.05711e+07 -0)
(1.36971e-07 -1.05711e+07 -0)
(-1.08011e-07 -1.05711e+07 -0)
(-3.64734e-07 -1.05711e+07 -0)
(-5.97193e-07 -1.05711e+07 -0)
(-8.00692e-07 -1.05711e+07 -0)
(-9.80711e-07 -1.05711e+07 -0)
(-1.18734e-06 -1.05711e+07 -0)
(-1.38536e-06 -1.05711e+07 -0)
(-1.52703e-06 -1.05711e+07 -0)
(-1.628e-06 -1.05711e+07 -0)
(-1.72348e-06 -1.05711e+07 -0)
(-1.75479e-06 -1.05711e+07 -0)
(-1.69531e-06 -1.05711e+07 -0)
(-1.58808e-06 -1.05711e+07 -0)
(-1.42058e-06 -1.05711e+07 -0)
(-1.16073e-06 -1.05711e+07 -0)
(-7.99127e-07 -1.05711e+07 -0)
(-2.93509e-07 -1.05711e+07 -0)
(3.6943e-07 -1.05711e+07 -0)
(1.27892e-06 -1.05711e+07 -0)
(2.48269e-06 -1.05711e+07 -0)
(4.31654e-06 -1.05711e+07 -0)
(6.91507e-06 -1.05711e+07 -0)
(1.10618e-05 -1.05711e+07 -0)
(1.73828e-05 -1.05711e+07 -0)
(2.92264e-05 -1.05711e+07 -0)
(4.86794e-05 -1.05711e+07 -0)
(9.11591e-05 -1.05711e+07 -0)
(0.000136748 -1.05711e+07 -0)
(0.00010421 -1.05711e+07 -0)
(2.86817e-05 -1.05711e+07 -0)
(-3.29916e-05 -1.0511e+07 -0)
(-0.000118512 -1.0511e+07 -0)
(-0.000154705 -1.0511e+07 -0)
(-0.000103113 -1.0511e+07 -0)
(-5.51834e-05 -1.0511e+07 -0)
(-3.31266e-05 -1.0511e+07 -0)
(-1.97105e-05 -1.0511e+07 -0)
(-1.25437e-05 -1.0511e+07 -0)
(-7.83552e-06 -1.0511e+07 -0)
(-4.94694e-06 -1.0511e+07 -0)
(-2.87063e-06 -1.0511e+07 -0)
(-1.47004e-06 -1.0511e+07 -0)
(-4.22909e-07 -1.0511e+07 -0)
(3.62048e-07 -1.0511e+07 -0)
(9.48814e-07 -1.0511e+07 -0)
(1.33817e-06 -1.0511e+07 -0)
(1.6417e-06 -1.0511e+07 -0)
(1.81882e-06 -1.0511e+07 -0)
(1.90153e-06 -1.0511e+07 -0)
(1.89529e-06 -1.0511e+07 -0)
(1.84223e-06 -1.0511e+07 -0)
(1.78917e-06 -1.0511e+07 -0)
(1.70178e-06 -1.0511e+07 -0)
(1.57147e-06 -1.0511e+07 -0)
(1.40527e-06 -1.0511e+07 -0)
(1.18212e-06 -1.0511e+07 -0)
(9.48814e-07 -1.0511e+07 -0)
(7.01467e-07 -1.0511e+07 -0)
(4.16667e-07 -1.0511e+07 -0)
(1.56055e-07 -1.0511e+07 -0)
(-1.24844e-07 -1.0511e+07 -0)
(-4.14326e-07 -1.0511e+07 -0)
(-6.78839e-07 -1.0511e+07 -0)
(-9.098e-07 -1.0511e+07 -0)
(-1.11345e-06 -1.0511e+07 -0)
(-1.34753e-06 -1.0511e+07 -0)
(-1.57381e-06 -1.0511e+07 -0)
(-1.73611e-06 -1.0511e+07 -0)
(-1.85237e-06 -1.0511e+07 -0)
(-1.95693e-06 -1.0511e+07 -0)
(-1.99048e-06 -1.0511e+07 -0)
(-1.92572e-06 -1.0511e+07 -0)
(-1.80322e-06 -1.0511e+07 -0)
(-1.61439e-06 -1.0511e+07 -0)
(-1.31788e-06 -1.0511e+07 -0)
(-9.05119e-07 -1.0511e+07 -0)
(-3.30056e-07 -1.0511e+07 -0)
(4.20568e-07 -1.0511e+07 -0)
(1.45443e-06 -1.0511e+07 -0)
(2.82381e-06 -1.0511e+07 -0)
(4.90871e-06 -1.0511e+07 -0)
(7.85659e-06 -1.0511e+07 -0)
(1.25663e-05 -1.0511e+07 -0)
(1.9741e-05 -1.0511e+07 -0)
(3.31703e-05 -1.0511e+07 -0)
(5.52216e-05 -1.0511e+07 -0)
(0.00010316 -1.0511e+07 -0)
(0.0001547 -1.0511e+07 -0)
(0.000118446 -1.0511e+07 -0)
(3.29479e-05 -1.0511e+07 -0)
(-3.74719e-05 -1.04637e+07 -0)
(-0.000133117 -1.04637e+07 -0)
(-0.000172888 -1.04637e+07 -0)
(-0.000115251 -1.04637e+07 -0)
(-6.18373e-05 -1.04637e+07 -0)
(-3.71469e-05 -1.04637e+07 -0)
(-2.21186e-05 -1.04637e+07 -0)
(-1.40822e-05 -1.04637e+07 -0)
(-8.79886e-06 -1.04637e+07 -0)
(-5.55681e-06 -1.04637e+07 -0)
(-3.22565e-06 -1.04637e+07 -0)
(-1.6515e-06 -1.04637e+07 -0)
(-4.76543e-07 -1.04637e+07 -0)
(4.03109e-07 -1.04637e+07 -0)
(1.06246e-06 -1.04637e+07 -0)
(1.50228e-06 -1.04637e+07 -0)
(1.84211e-06 -1.04637e+07 -0)
(2.04289e-06 -1.04637e+07 -0)
(2.13351e-06 -1.04637e+07 -0)
(2.12882e-06 -1.04637e+07 -0)
(2.0671e-06 -1.04637e+07 -0)
(2.00851e-06 -1.04637e+07 -0)
(1.90852e-06 -1.04637e+07 -0)
(1.76321e-06 -1.04637e+07 -0)
(1.57728e-06 -1.04637e+07 -0)
(1.32807e-06 -1.04637e+07 -0)
(1.06636e-06 -1.04637e+07 -0)
(7.87468e-07 -1.04637e+07 -0)
(4.66387e-07 -1.04637e+07 -0)
(1.7343e-07 -1.04637e+07 -0)
(-1.42182e-07 -1.04637e+07 -0)
(-4.64825e-07 -1.04637e+07 -0)
(-7.60125e-07 -1.04637e+07 -0)
(-1.02027e-06 -1.04637e+07 -0)
(-1.24761e-06 -1.04637e+07 -0)
(-1.51244e-06 -1.04637e+07 -0)
(-1.77024e-06 -1.04637e+07 -0)
(-1.94914e-06 -1.04637e+07 -0)
(-2.07804e-06 -1.04637e+07 -0)
(-2.19835e-06 -1.04637e+07 -0)
(-2.23428e-06 -1.04637e+07 -0)
(-2.16163e-06 -1.04637e+07 -0)
(-2.02336e-06 -1.04637e+07 -0)
(-1.81086e-06 -1.04637e+07 -0)
(-1.4765e-06 -1.04637e+07 -0)
(-1.0148e-06 -1.04637e+07 -0)
(-3.68735e-07 -1.04637e+07 -0)
(4.74981e-07 -1.04637e+07 -0)
(1.63431e-06 -1.04637e+07 -0)
(3.17253e-06 -1.04637e+07 -0)
(5.51696e-06 -1.04637e+07 -0)
(8.8223e-06 -1.04637e+07 -0)
(1.41057e-05 -1.04637e+07 -0)
(2.2153e-05 -1.04637e+07 -0)
(3.71938e-05 -1.04637e+07 -0)
(6.1878e-05 -1.04637e+07 -0)
(0.000115306 -1.04637e+07 -0)
(0.00017288 -1.04637e+07 -0)
(0.000133042 -1.04637e+07 -0)
(3.74227e-05 -1.04637e+07 -0)
(-4.21489e-05 -1.04149e+07 -0)
(-0.000147925 -1.04149e+07 -0)
(-0.000191023 -1.04149e+07 -0)
(-0.000127352 -1.04149e+07 -0)
(-6.85201e-05 -1.04149e+07 -0)
(-4.11945e-05 -1.04149e+07 -0)
(-2.45485e-05 -1.04149e+07 -0)
(-1.56389e-05 -1.04149e+07 -0)
(-9.77311e-06 -1.04149e+07 -0)
(-6.17501e-06 -1.04149e+07 -0)
(-3.58554e-06 -1.04149e+07 -0)
(-1.83908e-06 -1.04149e+07 -0)
(-5.32179e-07 -1.04149e+07 -0)
(4.45053e-07 -1.04149e+07 -0)
(1.18131e-06 -1.04149e+07 -0)
(1.66875e-06 -1.04149e+07 -0)
(2.04081e-06 -1.04149e+07 -0)
(2.26608e-06 -1.04149e+07 -0)
(2.36812e-06 -1.04149e+07 -0)
(2.36577e-06 -1.04149e+07 -0)
(2.29591e-06 -1.04149e+07 -0)
(2.22762e-06 -1.04149e+07 -0)
(2.12087e-06 -1.04149e+07 -0)
(1.95682e-06 -1.04149e+07 -0)
(1.75038e-06 -1.04149e+07 -0)
(1.47487e-06 -1.04149e+07 -0)
(1.18602e-06 -1.04149e+07 -0)
(8.74407e-07 -1.04149e+07 -0)
(5.18051e-07 -1.04149e+07 -0)
(1.93092e-07 -1.04149e+07 -0)
(-1.6091e-07 -1.04149e+07 -0)
(-5.17266e-07 -1.04149e+07 -0)
(-8.42225e-07 -1.04149e+07 -0)
(-1.13343e-06 -1.04149e+07 -0)
(-1.38618e-06 -1.04149e+07 -0)
(-1.67896e-06 -1.04149e+07 -0)
(-1.96702e-06 -1.04149e+07 -0)
(-2.16168e-06 -1.04149e+07 -0)
(-2.30847e-06 -1.04149e+07 -0)
(-2.4419e-06 -1.04149e+07 -0)
(-2.47565e-06 -1.04149e+07 -0)
(-2.4003e-06 -1.04149e+07 -0)
(-2.25038e-06 -1.04149e+07 -0)
(-2.00862e-06 -1.04149e+07 -0)
(-1.63892e-06 -1.04149e+07 -0)
(-1.12637e-06 -1.04149e+07 -0)
(-4.05022e-07 -1.04149e+07 -0)
(5.3061e-07 -1.04149e+07 -0)
(1.8171e-06 -1.04149e+07 -0)
(3.53059e-06 -1.04149e+07 -0)
(6.13105e-06 -1.04149e+07 -0)
(9.79822e-06 -1.04149e+07 -0)
(1.5664e-05 -1.04149e+07 -0)
(2.45901e-05 -1.04149e+07 -0)
(4.12463e-05 -1.04149e+07 -0)
(6.8564e-05 -1.04149e+07 -0)
(0.000127412 -1.04149e+07 -0)
(0.000191012 -1.04149e+07 -0)
(0.00014784 -1.04149e+07 -0)
(4.20956e-05 -1.04149e+07 -0)
(-4.70107e-05 -1.03566e+07 -0)
(-0.000162772 -1.03566e+07 -0)
(-0.00020883 -1.03566e+07 -0)
(-0.000139224 -1.03566e+07 -0)
(-7.514e-05 -1.03566e+07 -0)
(-4.5223e-05 -1.03566e+07 -0)
(-2.69771e-05 -1.03566e+07 -0)
(-1.7191e-05 -1.03566e+07 -0)
(-1.07532e-05 -1.03566e+07 -0)
(-6.79551e-06 -1.03566e+07 -0)
(-3.94815e-06 -1.03566e+07 -0)
(-2.02433e-06 -1.03566e+07 -0)
(-5.87198e-07 -1.03566e+07 -0)
(4.8432e-07 -1.03566e+07 -0)
(1.29548e-06 -1.03566e+07 -0)
(1.83598e-06 -1.03566e+07 -0)
(2.24117e-06 -1.03566e+07 -0)
(2.49124e-06 -1.03566e+07 -0)
(2.60678e-06 -1.03566e+07 -0)
(2.59649e-06 -1.03566e+07 -0)
(2.52289e-06 -1.03566e+07 -0)
(2.4493e-06 -1.03566e+07 -0)
(2.33059e-06 -1.03566e+07 -0)
(2.15332e-06 -1.03566e+07 -0)
(1.92778e-06 -1.03566e+07 -0)
(1.62073e-06 -1.03566e+07 -0)
(1.30339e-06 -1.03566e+07 -0)
(9.59934e-07 -1.03566e+07 -0)
(5.67414e-07 -1.03566e+07 -0)
(2.15253e-07 -1.03566e+07 -0)
(-1.74102e-07 -1.03566e+07 -0)
(-5.69788e-07 -1.03566e+07 -0)
(-9.28279e-07 -1.03566e+07 -0)
(-1.24641e-06 -1.03566e+07 -0)
(-1.52497e-06 -1.03566e+07 -0)
(-1.84311e-06 -1.03566e+07 -0)
(-2.1644e-06 -1.03566e+07 -0)
(-2.37966e-06 -1.03566e+07 -0)
(-2.53397e-06 -1.03566e+07 -0)
(-2.68196e-06 -1.03566e+07 -0)
(-2.72549e-06 -1.03566e+07 -0)
(-2.63843e-06 -1.03566e+07 -0)
(-2.47541e-06 -1.03566e+07 -0)
(-2.20793e-06 -1.03566e+07 -0)
(-1.79958e-06 -1.03566e+07 -0)
(-1.23612e-06 -1.03566e+07 -0)
(-4.37629e-07 -1.03566e+07 -0)
(5.87989e-07 -1.03566e+07 -0)
(1.99821e-06 -1.03566e+07 -0)
(3.88801e-06 -1.03566e+07 -0)
(6.74724e-06 -1.03566e+07 -0)
(1.07753e-05 -1.03566e+07 -0)
(1.72203e-05 -1.03566e+07 -0)
(2.70198e-05 -1.03566e+07 -0)
(4.52831e-05 -1.03566e+07 -0)
(7.5193e-05 -1.03566e+07 -0)
(0.000139288 -1.03566e+07 -0)
(0.000208816 -1.03566e+07 -0)
(0.000162681 -1.03566e+07 -0)
(4.69505e-05 -1.03566e+07 -0)
(-5.20341e-05 -1.02805e+07 -0)
(-0.000177446 -1.02805e+07 -0)
(-0.000225928 -1.02805e+07 -0)
(-0.000150606 -1.02805e+07 -0)
(-8.15782e-05 -1.02805e+07 -0)
(-4.9158e-05 -1.02805e+07 -0)
(-2.93647e-05 -1.02805e+07 -0)
(-1.87235e-05 -1.02805e+07 -0)
(-1.17142e-05 -1.02805e+07 -0)
(-7.40965e-06 -1.02805e+07 -0)
(-4.30615e-06 -1.02805e+07 -0)
(-2.21152e-06 -1.02805e+07 -0)
(-6.45361e-07 -1.02805e+07 -0)
(5.25257e-07 -1.02805e+07 -0)
(1.40923e-06 -1.02805e+07 -0)
(2.00014e-06 -1.02805e+07 -0)
(2.44052e-06 -1.02805e+07 -0)
(2.71116e-06 -1.02805e+07 -0)
(2.83607e-06 -1.02805e+07 -0)
(2.83126e-06 -1.02805e+07 -0)
(2.74639e-06 -1.02805e+07 -0)
(2.66632e-06 -1.02805e+07 -0)
(2.53981e-06 -1.02805e+07 -0)
(2.34284e-06 -1.02805e+07 -0)
(2.10263e-06 -1.02805e+07 -0)
(1.76474e-06 -1.02805e+07 -0)
(1.41723e-06 -1.02805e+07 -0)
(1.04731e-06 -1.02805e+07 -0)
(6.21341e-07 -1.02805e+07 -0)
(2.32202e-07 -1.02805e+07 -0)
(-1.9537e-07 -1.02805e+07 -0)
(-6.21341e-07 -1.02805e+07 -0)
(-1.01048e-06 -1.02805e+07 -0)
(-1.35798e-06 -1.02805e+07 -0)
(-1.65904e-06 -1.02805e+07 -0)
(-2.00655e-06 -1.02805e+07 -0)
(-2.35885e-06 -1.02805e+07 -0)
(-2.58945e-06 -1.02805e+07 -0)
(-2.7608e-06 -1.02805e+07 -0)
(-2.92575e-06 -1.02805e+07 -0)
(-2.96578e-06 -1.02805e+07 -0)
(-2.8729e-06 -1.02805e+07 -0)
(-2.69354e-06 -1.02805e+07 -0)
(-2.40209e-06 -1.02805e+07 -0)
(-1.9569e-06 -1.02805e+07 -0)
(-1.34357e-06 -1.02805e+07 -0)
(-4.75614e-07 -1.02805e+07 -0)
(6.48564e-07 -1.02805e+07 -0)
(2.1859e-06 -1.02805e+07 -0)
(4.24049e-06 -1.02805e+07 -0)
(7.352e-06 -1.02805e+07 -0)
(1.17398e-05 -1.02805e+07 -0)
(1.87539e-05 -1.02805e+07 -0)
(2.94096e-05 -1.02805e+07 -0)
(4.92252e-05 -1.02805e+07 -0)
(8.16374e-05 -1.02805e+07 -0)
(0.000150678 -1.02805e+07 -0)
(0.00022591 -1.02805e+07 -0)
(0.000177333 -1.02805e+07 -0)
(5.19636e-05 -1.02805e+07 -0)
(-5.71605e-05 -1.01743e+07 -0)
(-0.000191545 -1.01743e+07 -0)
(-0.000241707 -1.01743e+07 -0)
(-0.000161099 -1.01743e+07 -0)
(-8.76422e-05 -1.01743e+07 -0)
(-5.2891e-05 -1.01743e+07 -0)
(-3.16393e-05 -1.01743e+07 -0)
(-2.01948e-05 -1.01743e+07 -0)
(-1.26411e-05 -1.01743e+07 -0)
(-7.996e-06 -1.01743e+07 -0)
(-4.65485e-06 -1.01743e+07 -0)
(-2.39652e-06 -1.01743e+07 -0)
(-6.99121e-07 -1.01743e+07 -0)
(5.64175e-07 -1.01743e+07 -0)
(1.5153e-06 -1.01743e+07 -0)
(2.15589e-06 -1.01743e+07 -0)
(2.6274e-06 -1.01743e+07 -0)
(2.92005e-06 -1.01743e+07 -0)
(3.06475e-06 -1.01743e+07 -0)
(3.05012e-06 -1.01743e+07 -0)
(2.95582e-06 -1.01743e+07 -0)
(2.87778e-06 -1.01743e+07 -0)
(2.74121e-06 -1.01743e+07 -0)
(2.52659e-06 -1.01743e+07 -0)
(2.26971e-06 -1.01743e+07 -0)
(1.90063e-06 -1.01743e+07 -0)
(1.52506e-06 -1.01743e+07 -0)
(1.1316e-06 -1.01743e+07 -0)
(6.73107e-07 -1.01743e+07 -0)
(2.53635e-07 -1.01743e+07 -0)
(-2.12988e-07 -1.01743e+07 -0)
(-6.71482e-07 -1.01743e+07 -0)
(-1.09095e-06 -1.01743e+07 -0)
(-1.46815e-06 -1.01743e+07 -0)
(-1.79008e-06 -1.01743e+07 -0)
(-2.16077e-06 -1.01743e+07 -0)
(-2.54448e-06 -1.01743e+07 -0)
(-2.79486e-06 -1.01743e+07 -0)
(-2.97696e-06 -1.01743e+07 -0)
(-3.1558e-06 -1.01743e+07 -0)
(-3.20132e-06 -1.01743e+07 -0)
(-3.09239e-06 -1.01743e+07 -0)
(-2.90217e-06 -1.01743e+07 -0)
(-2.59325e-06 -1.01743e+07 -0)
(-2.10712e-06 -1.01743e+07 -0)
(-1.44051e-06 -1.01743e+07 -0)
(-5.04018e-07 -1.01743e+07 -0)
(7.03999e-07 -1.01743e+07 -0)
(2.36075e-06 -1.01743e+07 -0)
(4.58493e-06 -1.01743e+07 -0)
(7.94397e-06 -1.01743e+07 -0)
(1.26671e-05 -1.01743e+07 -0)
(2.02192e-05 -1.01743e+07 -0)
(3.16848e-05 -1.01743e+07 -0)
(5.29641e-05 -1.01743e+07 -0)
(8.77072e-05 -1.01743e+07 -0)
(0.000161182 -1.01743e+07 -0)
(0.000241683 -1.01743e+07 -0)
(0.000191423 -1.01743e+07 -0)
(5.70857e-05 -1.01743e+07 -0)
(-6.22686e-05 -1.00175e+07 -0)