/*--------------------------------*- C++ -*----------------------------------*\
| =========                 |                                                 |
| \\      /  F ield         | foam-extend: Open Source CFD                    |
|  \\    /   O peration     | Version:     4.0                                |
|   \\  /    A nd           | Web:         http://www.foam-extend.org         |
|    \\/     M anipulation  |                                                 |
\*---------------------------------------------------------------------------*/
FoamFile
{
    version     2.0;
    format      ascii;
    class       surfaceScalarField;
    location    "26";
    object      phi;
}
// * * * * * * * * * * * * * * * * * * * * * * * * * * * * * * * * * * * * * //

dimensions      [0 3 -1 0 0 0 0];

internalField   nonuniform List<scalar> 
13744
(
-3.98152e-09
3.98177e-09
1.70543e-09
-5.68695e-09
7.01368e-12
1.69842e-09
3.64594e-12
3.36758e-12
9.18661e-12
-5.54035e-12
7.38099e-12
1.80472e-12
6.98989e-12
3.9091e-13
5.32972e-12
1.65978e-12
4.26452e-12
1.06665e-12
3.32841e-12
9.35807e-13
2.60481e-12
7.23699e-13
2.08119e-12
5.23637e-13
1.64531e-12
4.36651e-13
1.33636e-12
3.09586e-13
1.0723e-12
2.62623e-13
8.80658e-13
1.92069e-13
7.14886e-13
1.66644e-13
5.90157e-13
1.24956e-13
4.82628e-13
1.07914e-13
3.98491e-13
8.47655e-14
3.26005e-13
7.24421e-14
2.67542e-13
5.88418e-14
2.1655e-13
5.11258e-14
1.74569e-13
4.24105e-14
1.37501e-13
3.78586e-14
1.0499e-13
3.10307e-14
7.59757e-14
2.79776e-14
4.95598e-14
2.49245e-14
2.40973e-14
2.58127e-14
-5.34183e-16
2.61458e-14
-2.30782e-14
2.2593e-14
-5.0749e-14
2.78111e-14
-7.60077e-14
2.43694e-14
-1.03939e-13
2.78111e-14
-1.38718e-13
3.54716e-14
-1.74663e-13
3.59157e-14
-2.15631e-13
4.12448e-14
-2.6898e-13
5.24025e-14
-3.26131e-13
5.7343e-14
-3.97192e-13
7.08877e-14
-4.83721e-13
8.63198e-14
-5.90147e-13
1.07192e-13
-7.13505e-13
1.24567e-13
-8.81503e-13
1.67366e-13
-1.07204e-12
1.90681e-13
-1.33505e-12
2.61846e-13
-1.64637e-12
3.11196e-13
-2.08123e-12
4.35096e-13
-2.60374e-12
5.21805e-13
-3.32951e-12
7.25253e-13
-4.26438e-12
9.36029e-13
-5.32849e-12
1.06426e-12
-6.99098e-12
1.66356e-12
-7.38094e-12
3.89966e-13
-9.18547e-12
1.80522e-12
-3.64719e-12
-5.53763e-12
-7.01378e-12
3.36575e-12
-1.70543e-09
1.69841e-09
3.98152e-09
-5.68695e-09
3.98152e-09
1.60142e-08
-1.20325e-08
2.44859e-09
7.87869e-09
2.56505e-11
4.12135e-09
5.21512e-12
2.38032e-11
3.06634e-11
-3.09904e-11
2.08833e-11
1.15873e-11
2.26343e-11
-1.35925e-12
1.57688e-11
8.52718e-12
1.3686e-11
3.14743e-12
1.00126e-11
4.60987e-12
8.30703e-12
2.42906e-12
6.32564e-12
2.50527e-12
5.21728e-12
1.54349e-12
4.09243e-12
1.43374e-12
3.3853e-12
9.71445e-13
2.71028e-12
8.64364e-13
2.2496e-12
6.23723e-13
1.8238e-12
5.51115e-13
1.51362e-12
4.17333e-13
1.23552e-12
3.62599e-13
1.02098e-12
2.87381e-13
8.29911e-13
2.50522e-13
6.78041e-13
2.03115e-13
5.42579e-13
1.77081e-13
4.28961e-13
1.49047e-13
3.27269e-13
1.36391e-13
2.37267e-13
1.19238e-13
1.53457e-13
1.12632e-13
7.62285e-14
1.02529e-13
2.80239e-18
9.88098e-14
-7.88301e-14
1.00642e-13
-1.50896e-13
1.02363e-13
-2.37389e-13
1.12577e-13
-3.30301e-13
1.1996e-13
-4.26431e-13
1.29396e-13
-5.42876e-13
1.52212e-13
-6.81477e-13
1.80522e-13
-8.28009e-13
2.01006e-13
-1.02133e-12
2.49634e-13
-1.23786e-12
2.86826e-13
-1.51069e-12
3.5888e-13
-1.82375e-12
4.20386e-13
-2.25167e-12
5.49893e-13
-2.70661e-12
6.24167e-13
-3.38452e-12
8.68805e-13
-4.09467e-12
9.74665e-13
-5.21427e-12
1.43185e-12
-6.32575e-12
1.54476e-12
-8.31001e-12
2.50777e-12
-1.00097e-11
2.42684e-12
-1.36856e-11
4.60931e-12
-1.57713e-11
3.14865e-12
-2.26314e-11
8.52057e-12
-2.08831e-11
-1.35769e-12
-3.06662e-11
1.15868e-11
-5.21263e-12
-3.09914e-11
-2.56507e-11
2.38058e-11
-2.44859e-09
4.12136e-09
-1.60142e-08
7.87869e-09
-1.20327e-08
1.22519e-08
-2.42843e-08
4.02167e-09
1.61089e-08
3.89337e-11
8.10409e-09
3.60514e-12
5.91324e-11
5.39655e-11
-8.13445e-11
3.46591e-11
3.0893e-11
3.96993e-11
-6.40174e-12
2.67731e-11
2.14527e-11
2.39911e-11
5.93187e-12
1.7141e-11
1.1461e-11
1.45463e-11
5.02628e-12
1.08816e-11
6.17059e-12
9.12417e-12
3.29778e-12
7.06312e-12
3.49473e-12
5.91237e-12
2.12558e-12
4.68931e-12
2.09269e-12
3.9242e-12
1.39228e-12
3.1606e-12
1.31253e-12
2.63875e-12
9.38083e-13
2.1432e-12
8.56953e-13
1.77855e-12
6.46372e-13
1.44134e-12
5.8617e-13
1.1803e-12
4.64351e-13
9.42502e-13
4.16028e-13
7.47011e-13
3.48666e-13
5.6831e-13
3.12639e-13
4.12894e-13
2.76529e-13
2.67007e-13
2.53741e-13
1.32093e-13
2.3706e-13
-5.67651e-16
2.34618e-13
-1.33915e-13
2.3323e-13
-2.65668e-13
2.2754e-13
-4.13124e-13
2.61013e-13
-5.70454e-13
2.79915e-13
-7.45723e-13
3.06893e-13
-9.43023e-13
3.50386e-13
-1.18313e-12
4.17749e-13
-1.44108e-12
4.58744e-13
-1.77913e-12
5.90555e-13
-2.14422e-12
6.55809e-13
-2.63677e-12
8.51208e-13
-3.16049e-12
9.39637e-13
-3.92473e-12
1.31209e-12
-4.68608e-12
1.38348e-12
-5.91106e-12
2.0946e-12
-7.06392e-12
2.1281e-12
-9.12207e-12
3.48999e-12
-1.08818e-11
3.30444e-12
-1.45483e-11
6.1732e-12
-1.71391e-11
5.0174e-12
-2.39904e-11
1.14629e-11
-2.67743e-11
5.93303e-12
-3.96973e-11
2.1445e-11
-3.46589e-11
-6.39552e-12
-5.39672e-11
3.08948e-11
-3.60391e-12
-8.13561e-11
-3.8934e-11
5.91335e-11
-4.02167e-09
8.10409e-09
-1.22519e-08
1.61089e-08
-2.42846e-08
3.03125e-09
-2.73156e-08
3.32111e-09
1.5819e-08
4.09763e-11
1.13842e-08
9.65961e-14
1.00008e-10
7.79992e-11
-1.59255e-10
4.93763e-11
5.95146e-11
5.78145e-11
-1.48363e-11
3.86456e-11
4.06187e-11
3.50446e-11
9.5293e-12
2.48602e-11
2.16445e-11
2.12727e-11
8.61023e-12
1.58239e-11
1.16185e-11
1.33485e-11
5.77856e-12
1.02887e-11
6.55349e-12
8.64962e-12
3.75853e-12
6.83922e-12
3.90026e-12
5.74007e-12
2.48917e-12
4.61314e-12
2.44204e-12
3.85983e-12
1.69542e-12
3.12952e-12
1.58865e-12
2.60107e-12
1.18592e-12
2.10588e-12
1.08213e-12
1.72572e-12
8.41868e-13
1.37709e-12
7.66075e-13
1.0925e-12
6.2849e-13
8.30173e-13
5.74638e-13
6.03641e-13
5.01502e-13
3.90413e-13
4.70117e-13
1.92559e-13
4.37275e-13
-9.7169e-16
4.26041e-13
-1.933e-13
4.31759e-13
-3.91001e-13
4.31627e-13
-6.03994e-13
4.73149e-13
-8.30794e-13
5.05422e-13
-1.09313e-12
5.67213e-13
-1.37786e-12
6.36179e-13
-1.72731e-12
7.69107e-13
-2.10793e-12
8.36407e-13
-2.60186e-12
1.07949e-12
-3.12858e-12
1.1785e-12
-3.85943e-12
1.58298e-12
-4.61296e-12
1.69981e-12
-5.73839e-12
2.44545e-12
-6.83705e-12
2.48206e-12
-8.64776e-12
3.90023e-12
-1.02874e-11
3.76393e-12
-1.3348e-11
6.55033e-12
-1.58242e-11
5.78688e-12
-2.12732e-11
1.1621e-11
-2.48598e-11
8.60498e-12
-3.50436e-11
2.16449e-11
-3.86449e-11
9.53691e-12
-5.78142e-11
4.06131e-11
-4.93759e-11
-1.48394e-11
-7.79992e-11
5.95186e-11
-9.72883e-14
-1.59258e-10
-4.09767e-11
1.00016e-10
-3.32111e-09
1.13842e-08
-3.03125e-09
1.5819e-08
-2.73158e-08
5.34727e-10
-2.78503e-08
1.81163e-09
1.45421e-08
3.39883e-11
1.31619e-08
-5.62961e-12
1.39633e-10
1.0271e-10
-2.67593e-10
6.50613e-11
9.71643e-11
7.70126e-11
-2.67891e-11
5.14299e-11
6.62036e-11
4.68825e-11
1.40756e-11
3.32038e-11
3.53228e-11
2.85141e-11
1.33015e-11
2.11765e-11
1.8958e-11
1.79093e-11
9.04608e-12
1.37856e-11
1.06771e-11
1.16103e-11
5.93509e-12
9.17091e-12
6.34003e-12
7.70656e-12
3.95827e-12
6.18908e-12
3.95931e-12
5.18289e-12
2.69416e-12
4.19994e-12
2.57123e-12
3.4928e-12
1.8897e-12
2.82683e-12
1.74696e-12
2.3174e-12
1.35197e-12
1.84866e-12
1.23059e-12
1.46703e-12
1.01349e-12
1.11449e-12
9.28368e-13
8.10523e-13
8.04946e-13
5.241e-13
7.56437e-13
2.58402e-13
7.00578e-13
-9.55086e-16
6.87561e-13
-2.59483e-13
6.83772e-13
-5.25137e-13
6.92002e-13
-8.11009e-13
7.55056e-13
-1.11512e-12
8.08791e-13
-1.46804e-12
9.21846e-13
-1.84969e-12
1.0148e-12
-2.31929e-12
1.24156e-12
-2.82966e-12
1.34689e-12
-3.49383e-12
1.75152e-12
-4.19856e-12
1.88485e-12
-5.18254e-12
2.56897e-12
-6.18882e-12
2.70366e-12
-7.70419e-12
3.95546e-12
-9.16827e-12
3.94995e-12
-1.16078e-11
6.34689e-12
-1.37838e-11
5.9396e-12
-1.79087e-11
1.0673e-11
-2.11768e-11
9.04952e-12
-2.85145e-11
1.8958e-11
-3.32035e-11
1.32853e-11
-4.68812e-11
3.5323e-11
-5.14288e-11
1.40786e-11
-7.70123e-11
6.61997e-11
-6.50608e-11
-2.67832e-11
-1.0271e-10
9.71676e-11
5.62854e-12
-2.67593e-10
-3.39888e-11
1.39629e-10
-1.81163e-09
1.31619e-08
-5.34726e-10
1.45421e-08
-2.78505e-08
8.07126e-10
-2.86574e-08
9.80416e-10
1.43688e-08
1.95129e-11
1.41228e-08
-1.37234e-11
1.72862e-10
1.28037e-10
-4.09355e-10
8.17389e-11
1.4346e-10
9.73251e-11
-4.23741e-11
6.51703e-11
9.83585e-11
5.9542e-11
1.97062e-11
4.22073e-11
5.2661e-11
3.62987e-11
1.92079e-11
2.69642e-11
2.82892e-11
2.28266e-11
1.31813e-11
1.7571e-11
1.59332e-11
1.48083e-11
8.69849e-12
1.16962e-11
9.45075e-12
9.83315e-12
5.81868e-12
7.89646e-12
5.89647e-12
6.61468e-12
3.98673e-12
5.35987e-12
3.82757e-12
4.45829e-12
2.78818e-12
3.60806e-12
2.6002e-12
2.95826e-12
2.0016e-12
2.35966e-12
1.83543e-12
1.87262e-12
1.49864e-12
1.4226e-12
1.37639e-12
1.0346e-12
1.19247e-12
6.68909e-13
1.121e-12
3.29858e-13
1.0381e-12
-9.64525e-16
1.01776e-12
-3.31574e-13
1.01512e-12
-6.69962e-13
1.03297e-12
-1.03523e-12
1.12303e-12
-1.42369e-12
1.19458e-12
-1.87363e-12
1.37431e-12
-2.36096e-12
1.50498e-12
-2.9609e-12
1.83542e-12
-3.61125e-12
2.00221e-12
-4.45957e-12
2.59341e-12
-5.35847e-12
2.78343e-12
-6.61396e-12
3.81778e-12
-7.89613e-12
3.97877e-12
-9.8305e-12
5.88948e-12
-1.16927e-11
5.81139e-12
-1.48052e-11
9.45769e-12
-1.75689e-11
8.70779e-12
-2.28256e-11
1.59354e-11
-2.69645e-11
1.31902e-11
-3.62994e-11
2.82986e-11
-4.22067e-11
1.92007e-11
-5.95404e-11
5.266e-11
-6.51692e-11
1.97144e-11
-9.73245e-11
9.83535e-11
-8.17383e-11
-4.23733e-11
-1.28037e-10
1.43465e-10
1.37223e-11
-4.09355e-10
-1.95136e-11
1.72871e-10
-9.80415e-10
1.41228e-08
-8.07125e-10
1.43688e-08
-2.86577e-08
3.19737e-10
-2.89772e-08
5.93996e-10
1.40946e-08
-3.53154e-12
1.47203e-08
-2.42695e-11
1.93602e-10
1.5391e-10
-5.87532e-10
9.94315e-11
1.97942e-10
1.18783e-10
-6.1726e-11
7.99112e-11
1.37231e-10
7.30608e-11
2.65545e-11
5.19071e-11
7.38109e-11
4.46559e-11
2.64608e-11
3.32128e-11
3.97358e-11
2.81215e-11
1.82699e-11
2.16626e-11
2.2391e-11
1.82581e-11
1.21104e-11
1.44276e-11
1.32796e-11
1.21299e-11
8.11722e-12
9.74382e-12
8.28263e-12
8.16226e-12
5.56142e-12
6.61506e-12
5.37312e-12
5.50234e-12
3.9018e-12
4.4536e-12
3.64204e-12
3.65144e-12
2.8092e-12
2.91268e-12
2.56974e-12
2.3114e-12
2.09996e-12
1.75602e-12
1.93627e-12
1.27701e-12
1.67236e-12
8.25641e-13
1.57568e-12
4.0715e-13
1.45904e-12
-1.08108e-15
1.42221e-12
-4.09247e-13
1.41968e-12
-8.26955e-13
1.45322e-12
-1.27779e-12
1.57182e-12
-1.75732e-12
1.68081e-12
-2.31267e-12
1.92297e-12
-2.91429e-12
2.1052e-12
-3.65457e-12
2.57933e-12
-4.45741e-12
2.80231e-12
-5.50386e-12
3.63871e-12
-6.61343e-12
3.8926e-12
-8.16142e-12
5.37047e-12
-9.74337e-12
5.57303e-12
-1.21267e-11
8.27469e-12
-1.44234e-11
8.10616e-12
-1.82545e-11
1.32838e-11
-2.16601e-11
1.21102e-11
-2.81204e-11
2.23894e-11
-3.32131e-11
1.82779e-11
-4.46566e-11
3.97395e-11
-5.19063e-11
2.6452e-11
-7.30588e-11
7.38113e-11
-7.99099e-11
2.65602e-11
-1.18782e-10
1.37222e-10
-9.94308e-11
-6.17234e-11
-1.5391e-10
1.97946e-10
2.42682e-11
-5.87533e-10
3.5308e-12
1.93605e-10
-5.93996e-10
1.47203e-08
-3.19736e-10
1.40946e-08
-2.89774e-08
-8.72535e-10
-2.81046e-08
1.93414e-10
1.30286e-08
-3.66964e-11
1.49504e-08
-3.74476e-11
1.94353e-10
1.80251e-10
-8.0523e-10
1.18159e-10
2.60035e-10
1.41414e-10
-8.49793e-11
9.56977e-11
1.82945e-10
8.7477e-11
3.47805e-11
6.23404e-11
9.89463e-11
5.3616e-11
3.5184e-11
3.99494e-11
5.34048e-11
3.3816e-11
2.44046e-11
2.60792e-11
3.01319e-11
2.19752e-11
1.62077e-11
1.73781e-11
1.78776e-11
1.46074e-11
1.08887e-11
1.17401e-11
1.1147e-11
9.83301e-12
7.47282e-12
7.97171e-12
7.23352e-12
6.63e-12
5.24447e-12
5.36765e-12
4.9124e-12
4.40033e-12
3.7689e-12
3.51047e-12
3.46307e-12
2.78553e-12
2.82807e-12
2.11639e-12
2.60093e-12
1.53894e-12
2.24953e-12
9.95059e-13
2.11351e-12
4.90649e-13
1.96149e-12
-1.23176e-15
1.92029e-12
-4.93016e-13
1.91918e-12
-9.96791e-13
1.95079e-12
-1.53988e-12
2.11912e-12
-2.11779e-12
2.25444e-12
-2.7872e-12
2.59601e-12
-3.5124e-12
2.83177e-12
-4.40385e-12
3.47208e-12
-5.3722e-12
3.77182e-12
-6.63176e-12
4.8996e-12
-7.96971e-12
5.23189e-12
-9.83217e-12
7.23476e-12
-1.17395e-11
7.46816e-12
-1.46036e-11
1.11321e-11
-1.73733e-11
1.08761e-11
-2.19709e-11
1.78894e-11
-2.60761e-11
1.62153e-11
-3.38148e-11
3.0131e-11
-3.99497e-11
2.44182e-11
-5.36167e-11
5.34078e-11
-6.23397e-11
3.51693e-11
-8.74747e-11
9.8942e-11
-9.5696e-11
3.47856e-11
-1.41413e-10
1.82945e-10
-1.18158e-10
-8.49826e-11
-1.80251e-10
2.60042e-10
3.7446e-11
-8.05231e-10
3.66956e-11
1.94355e-10
-1.93413e-10
1.49504e-08
8.72536e-10
1.30286e-08
-2.81049e-08
-2.09318e-09
-2.60115e-08
-3.03386e-10
1.12388e-08
-8.08329e-11
1.47278e-08
-5.35184e-11
1.67037e-10
2.06975e-10
-1.06572e-09
1.37939e-10
3.29064e-10
1.65246e-10
-1.1229e-10
1.12575e-10
2.35619e-10
1.02829e-10
4.45269e-11
7.35458e-11
1.28229e-10
6.32107e-11
4.55198e-11
4.7202e-11
6.94104e-11
3.99327e-11
3.16782e-11
3.08405e-11
3.92219e-11
2.59755e-11
2.10723e-11
2.05611e-11
2.32963e-11
1.7277e-11
1.41688e-11
1.38947e-11
1.45315e-11
1.16347e-11
9.72481e-12
9.43633e-12
9.43409e-12
7.84663e-12
6.83775e-12
6.35456e-12
6.39938e-12
5.20857e-12
4.92331e-12
4.15593e-12
4.51309e-12
3.29725e-12
3.68381e-12
2.50549e-12
3.39291e-12
1.82164e-12
2.94129e-12
1.17797e-12
2.75888e-12
5.80806e-13
2.5575e-12
-1.36421e-15
2.49708e-12
-5.83472e-13
2.49486e-12
-1.1801e-12
2.55434e-12
-1.82277e-12
2.75807e-12
-2.50701e-12
2.94062e-12
-3.29934e-12
3.38627e-12
-4.15819e-12
3.68991e-12
-5.21248e-12
4.52179e-12
-6.35986e-12
4.91604e-12
-7.84862e-12
6.38983e-12
-9.43397e-12
6.81204e-12
-1.16338e-11
9.43196e-12
-1.38941e-11
9.73768e-12
-1.72724e-11
1.45218e-11
-2.05557e-11
1.4155e-11
-2.59706e-11
2.3299e-11
-3.08368e-11
2.10776e-11
-3.99314e-11
3.92251e-11
-4.72023e-11
3.16926e-11
-6.32112e-11
6.9417e-11
-7.3545e-11
4.55054e-11
-1.02827e-10
1.28229e-10
-1.12573e-10
4.45322e-11
-1.65245e-10
2.35616e-10
-1.37938e-10
-1.1228e-10
-2.06974e-10
3.29073e-10
5.35165e-11
-1.06572e-09
8.08319e-11
1.67039e-10
3.03387e-10
1.47278e-08
2.09318e-09
1.12388e-08
-2.60117e-08
-3.21129e-09
-2.28002e-08
-8.35988e-10
8.86353e-09
-1.36448e-10
1.40283e-08
-7.27486e-11
1.03346e-10
2.33988e-10
-1.37246e-09
1.58787e-10
4.04272e-10
1.90304e-10
-1.43808e-10
1.30588e-10
2.95335e-10
1.19157e-10
5.59484e-11
8.55626e-11
1.6183e-10
7.34721e-11
5.7613e-11
5.49996e-11
8.78819e-11
4.64954e-11
4.01817e-11
3.59669e-11
4.9747e-11
3.02759e-11
2.67624e-11
2.3991e-11
2.95774e-11
2.01503e-11
1.80142e-11
1.62177e-11
1.84659e-11
1.35754e-11
1.23752e-11
1.10158e-11
1.19968e-11
9.15784e-12
8.68696e-12
7.41905e-12
8.14193e-12
6.07992e-12
6.257e-12
4.85212e-12
5.74021e-12
3.84898e-12
4.68497e-12
2.92519e-12
4.32151e-12
2.12646e-12
3.72785e-12
1.37524e-12
3.51335e-12
6.78028e-13
3.25884e-12
-1.49762e-15
3.17882e-12
-6.81017e-13
3.17468e-12
-1.37778e-12
3.24688e-12
-2.12778e-12
3.51114e-12
-2.92686e-12
3.73941e-12
-3.85148e-12
4.32322e-12
-4.85474e-12
4.68931e-12
-6.08427e-12
5.75482e-12
-7.42504e-12
6.26179e-12
-9.16009e-12
8.12113e-12
-1.10131e-11
8.67032e-12
-1.35746e-11
1.19919e-11
-1.62168e-11
1.23751e-11
-2.01451e-11
1.84396e-11
-2.3985e-11
1.8002e-11
-3.02704e-11
2.95877e-11
-3.59626e-11
2.67802e-11
-4.6494e-11
4.97599e-11
-5.49998e-11
4.01885e-11
-7.34726e-11
8.78819e-11
-8.55617e-11
5.7594e-11
-1.19154e-10
1.61817e-10
-1.30585e-10
5.59558e-11
-1.90303e-10
2.95329e-10
-1.58786e-10
-1.43806e-10
-2.33988e-10
4.04275e-10
7.27465e-11
-1.37246e-09
1.36447e-10
1.03339e-10
8.35989e-10
1.40283e-08
3.21129e-09
8.86352e-09
-2.28004e-08
-4.32434e-09
-1.84758e-08
-1.38031e-09
5.9195e-09
-2.04103e-10
1.28521e-08
-9.53861e-11
-5.38196e-12
2.61191e-10
-1.72903e-09
1.80715e-10
4.84746e-10
2.16609e-10
-1.79699e-10
1.49781e-10
3.62164e-10
1.36499e-10
6.92398e-11
9.84308e-11
1.99894e-10
8.44336e-11
7.16037e-11
6.33722e-11
1.08945e-10
5.35287e-11
5.0022e-11
4.14798e-11
6.17998e-11
3.48939e-11
3.33524e-11
2.76829e-11
3.67872e-11
2.32397e-11
2.24517e-11
1.87193e-11
2.2986e-11
1.56639e-11
1.54241e-11
1.27172e-11
1.49361e-11
1.05696e-11
1.08415e-11
8.566e-12
1.01416e-11
7.0184e-12
7.80397e-12
5.60228e-12
7.15518e-12
4.44328e-12
5.84713e-12
3.37739e-12
5.38005e-12
2.45482e-12
4.66125e-12
1.58779e-12
4.38154e-12
7.82777e-13
4.05967e-12
-1.63091e-15
3.9646e-12
-7.86095e-13
3.96029e-12
-1.59073e-12
4.04945e-12
-2.45635e-12
4.37729e-12
-3.37924e-12
4.66016e-12
-4.44622e-12
5.37408e-12
-5.60527e-12
5.8526e-12
-7.02318e-12
7.17058e-12
-8.5727e-12
7.80274e-12
-1.05721e-11
1.01267e-11
-1.27143e-11
1.08133e-11
-1.5663e-11
1.49457e-11
-1.87183e-11
1.5426e-11
-2.32339e-11
2.29559e-11
-2.76762e-11
2.24436e-11
-3.48877e-11
3.67948e-11
-4.1475e-11
3.33561e-11
-5.35272e-11
6.18061e-11
-6.33724e-11
5.0042e-11
-8.44339e-11
1.08954e-10
-9.84299e-11
7.15959e-11
-1.36496e-10
1.99885e-10
-1.49778e-10
6.92487e-11
-2.16608e-10
3.62164e-10
-1.80713e-10
-1.79696e-10
-2.61191e-10
4.84755e-10
9.53837e-11
-1.72903e-09
2.04102e-10
-5.38219e-12
1.38031e-09
1.28521e-08
4.32434e-09
5.91949e-09
-1.84761e-08
-5.48261e-09
-1.29932e-08
-1.94539e-09
2.38227e-09
-2.84417e-10
1.11911e-08
-1.21667e-10
-1.68129e-10
2.88478e-10
-2.13918e-09
2.03732e-10
5.69488e-10
2.44182e-10
-2.20151e-10
1.70199e-10
4.36144e-10
1.54894e-10
8.4538e-11
1.12191e-10
2.42597e-10
9.61293e-11
8.76661e-11
7.2351e-11
1.32726e-10
6.10582e-11
6.13212e-11
4.74016e-11
7.54592e-11
3.98478e-11
4.09002e-11
3.16523e-11
4.49834e-11
2.65582e-11
2.75511e-11
2.14106e-11
2.81331e-11
1.79092e-11
1.89276e-11
1.45484e-11
1.83023e-11
1.20881e-11
1.33028e-11
9.80062e-12
1.24322e-11
8.02821e-12
9.57443e-12
6.40982e-12
8.77921e-12
5.08281e-12
7.17223e-12
3.86422e-12
6.60315e-12
2.80819e-12
5.71211e-12
1.81658e-12
5.36603e-12
8.95535e-13
4.98534e-12
-1.77313e-15
4.86264e-12
-8.99185e-13
4.8607e-12
-1.81995e-12
4.97697e-12
-2.80994e-12
5.3661e-12
-3.86624e-12
5.72045e-12
-5.0862e-12
6.60528e-12
-6.41321e-12
7.17847e-12
-8.03343e-12
8.79322e-12
-9.80798e-12
9.58164e-12
-1.20908e-11
1.24026e-11
-1.45451e-11
1.32634e-11
-1.79083e-11
1.82984e-11
-2.14095e-11
1.89371e-11
-2.65517e-11
2.81066e-11
-3.1645e-11
2.75301e-11
-3.9841e-11
4.49922e-11
-4.73962e-11
4.09201e-11
-6.10565e-11
7.54698e-11
-7.23511e-11
6.13299e-11
-9.61295e-11
1.32724e-10
-1.1219e-10
8.7643e-11
-1.5489e-10
2.42583e-10
-1.70196e-10
8.45486e-11
-2.44181e-10
4.36144e-10
-2.0373e-10
-2.20145e-10
-2.88478e-10
5.69499e-10
1.21664e-10
-2.13917e-09
2.84416e-10
-1.68128e-10
1.94539e-09
1.11911e-08
5.48261e-09
2.38226e-09
-1.29935e-08
-6.68604e-09
-6.30717e-09
-2.54083e-09
-1.76294e-09
-3.77953e-10
9.02826e-09
-1.51818e-10
-3.94265e-10
3.15739e-10
-2.60674e-09
2.27846e-10
6.57387e-10
2.73038e-10
-2.65337e-10
1.91885e-10
5.17304e-10
1.74382e-10
1.02043e-10
1.26886e-10
2.90088e-10
1.08594e-10
1.05958e-10
8.19679e-11
1.59351e-10
6.91104e-11
7.41719e-11
5.37552e-11
9.08078e-11
4.51568e-11
4.95066e-11
3.59156e-11
5.4228e-11
3.01193e-11
3.33438e-11
2.4303e-11
3.39444e-11
2.03207e-11
2.29108e-11
1.65171e-11
2.21059e-11
1.372e-11
1.60933e-11
1.11284e-11
1.50198e-11
9.11381e-12
1.15989e-11
7.27833e-12
1.0609e-11
5.77042e-12
8.67901e-12
4.3878e-12
7.99023e-12
3.18814e-12
6.90926e-12
2.06267e-12
6.49645e-12
1.01679e-12
6.02879e-12
-1.90349e-15
5.87427e-12
-1.02077e-12
5.87554e-12
-2.06647e-12
6.01819e-12
-3.19014e-12
6.48521e-12
-4.39002e-12
6.91578e-12
-5.7743e-12
7.98618e-12
-7.28212e-12
8.69167e-12
-9.11945e-12
1.06335e-11
-1.11364e-11
1.16053e-11
-1.3723e-11
1.49909e-11
-1.65136e-11
1.60582e-11
-2.03198e-11
2.21165e-11
-2.43017e-11
2.29137e-11
-3.01121e-11
3.39161e-11
-3.59077e-11
3.33355e-11
-4.51493e-11
5.42358e-11
-5.37493e-11
4.95177e-11
-6.91086e-11
9.08263e-11
-8.19679e-11
7.41895e-11
-1.08594e-10
1.59354e-10
-1.26885e-10
1.05945e-10
-1.74378e-10
2.90078e-10
-1.91881e-10
1.02052e-10
-2.73038e-10
5.17307e-10
-2.27844e-10
-2.65344e-10
-3.15738e-10
6.57394e-10
1.51815e-10
-2.60673e-09
3.77952e-10
-3.94266e-10
2.54083e-09
9.02824e-09
6.68604e-09
-1.76294e-09
-6.3074e-09
-7.93096e-09
1.6238e-09
-3.17031e-09
-6.52359e-09
-4.85182e-10
6.34314e-09
-1.86047e-10
-6.934e-10
3.42858e-10
-3.13564e-09
2.53061e-10
7.47181e-10
3.03192e-10
-3.15472e-10
2.14881e-10
6.05609e-10
1.95e-10
1.21925e-10
1.42556e-10
3.42538e-10
1.21863e-10
1.26654e-10
9.22558e-11
1.88957e-10
7.77126e-11
8.87197e-11
6.05649e-11
1.07956e-10
5.08407e-11
5.92238e-11
4.04899e-11
6.45766e-11
3.39371e-11
3.99002e-11
2.74087e-11
4.04802e-11
2.29085e-11
2.74124e-11
1.86318e-11
2.63778e-11
1.54722e-11
1.92633e-11
1.2555e-11
1.7942e-11
1.02798e-11
1.3863e-11
8.2116e-12
1.26806e-11
6.50912e-12
1.03862e-11
4.95043e-12
9.53929e-12
3.59636e-12
8.27334e-12
2.32711e-12
7.76381e-12
1.14707e-12
7.20719e-12
-2.03382e-15
7.02912e-12
-1.15139e-12
7.02529e-12
-2.33137e-12
7.19689e-12
-3.59859e-12
7.75939e-12
-4.95286e-12
8.27204e-12
-6.51348e-12
9.54566e-12
-8.21583e-12
1.03878e-11
-1.02859e-11
1.26938e-11
-1.25636e-11
1.38704e-11
-1.54754e-11
1.7901e-11
-1.86281e-11
1.9207e-11
-2.29076e-11
2.63914e-11
-2.74072e-11
2.74113e-11
-3.39293e-11
4.04305e-11
-4.04815e-11
3.98814e-11
-5.08326e-11
6.45859e-11
-6.05583e-11
5.92394e-11
-7.77107e-11
1.07983e-10
-9.22557e-11
8.87379e-11
-1.21863e-10
1.88968e-10
-1.42555e-10
1.2664e-10
-1.94995e-10
3.42526e-10
-2.14877e-10
1.21934e-10
-3.03191e-10
6.05614e-10
-2.53059e-10
-3.15478e-10
-3.42857e-10
7.47189e-10
1.86044e-10
-3.13562e-09
4.85181e-10
-6.93406e-10
3.17031e-09
6.34312e-09
7.93096e-09
-6.5236e-09
1.62355e-09
-9.22118e-09
1.0845e-08
-3.83586e-09
-1.19089e-08
-6.06467e-10
3.11375e-09
-2.24535e-10
-1.07533e-09
3.69719e-10
-3.7299e-09
2.7938e-10
8.37524e-10
3.3465e-10
-3.70739e-10
2.39228e-10
7.01037e-10
2.16786e-10
1.44372e-10
1.59244e-10
4.00078e-10
1.35973e-10
1.49926e-10
1.03248e-10
2.21679e-10
8.6893e-11
1.05074e-10
6.78554e-11
1.26998e-10
5.69203e-11
7.01583e-11
4.5393e-11
7.61013e-11
3.80265e-11
4.72681e-11
3.07401e-11
4.77617e-11
2.5683e-11
3.24713e-11
2.09014e-11
3.11698e-11
1.7352e-11
2.28007e-11
1.40865e-11
2.12025e-11
1.15313e-11
1.6424e-11
9.21363e-12
1.49959e-11
7.302e-12
1.22952e-11
5.55457e-12
1.12892e-11
4.03454e-12
9.77959e-12
2.61105e-12
9.18921e-12
1.28697e-12
8.53354e-12
-2.16417e-15
8.31487e-12
-1.29161e-12
8.3227e-12
-2.61576e-12
8.524e-12
-4.03706e-12
9.17751e-12
-5.55719e-12
9.79352e-12
-7.3069e-12
1.12957e-11
-9.2183e-12
1.23043e-11
-1.15377e-11
1.50197e-11
-1.40958e-11
1.64378e-11
-1.73554e-11
2.1167e-11
-2.08974e-11
2.27546e-11
-2.5682e-11
3.11748e-11
-3.07384e-11
3.2473e-11
-3.80181e-11
4.77174e-11
-4.53841e-11
4.7246e-11
-5.69116e-11
7.61133e-11
-6.78482e-11
7.0184e-11
-8.68909e-11
1.27022e-10
-1.03248e-10
1.05093e-10
-1.35972e-10
2.21678e-10
-1.59243e-10
1.49905e-10
-2.16781e-10
4.00051e-10
-2.39223e-10
1.44372e-10
-3.34649e-10
7.01045e-10
-2.79378e-10
-3.70744e-10
-3.69718e-10
8.37527e-10
2.24532e-10
-3.72987e-09
6.06466e-10
-1.07534e-09
3.83586e-09
3.11373e-09
9.22118e-09
-1.19089e-08
1.08447e-08
-1.05629e-08
2.14079e-08
-4.54004e-09
-1.79318e-08
-7.42056e-10
-6.84242e-10
-2.67419e-10
-1.54997e-09
3.96207e-10
-4.39353e-09
3.06802e-10
9.26925e-10
3.67419e-10
-4.31362e-10
2.64964e-10
8.03487e-10
2.39776e-10
1.69551e-10
1.76992e-10
4.62866e-10
1.50959e-10
1.75958e-10
1.1498e-10
2.57667e-10
9.66805e-11
1.23376e-10
7.56524e-11
1.48025e-10
6.34169e-11
8.23974e-11
5.06436e-11
8.88786e-11
4.2403e-11
5.55071e-11
3.43105e-11
5.58581e-11
2.86552e-11
3.81276e-11
2.33349e-11
3.6481e-11
1.93669e-11
2.67748e-11
1.57292e-11
2.48452e-11
1.28732e-11
1.92837e-11
1.02886e-11
1.7586e-11
8.15242e-12
1.44274e-11
6.20271e-12
1.32373e-11
4.5046e-12
1.14861e-11
2.91569e-12
1.07792e-11
1.43704e-12
1.00104e-11
-2.27516e-15
9.75641e-12
-1.44203e-12
9.75508e-12
-2.92086e-12
1.00023e-11
-4.50738e-12
1.07673e-11
-6.20556e-12
1.14877e-11
-8.15786e-12
1.32498e-11
-1.02937e-11
1.44337e-11
-1.28801e-11
1.7608e-11
-1.57391e-11
1.929e-11
-1.93705e-11
2.4788e-11
-2.33307e-11
2.67073e-11
-2.86542e-11
3.64972e-11
-3.43085e-11
3.81223e-11
-4.23939e-11
5.58029e-11
-5.06341e-11
5.54881e-11
-6.34076e-11
8.88862e-11
-7.56447e-11
8.24148e-11
-9.66783e-11
1.48062e-10
-1.1498e-10
1.234e-10
-1.50958e-10
2.57667e-10
-1.7699e-10
1.75931e-10
-2.39771e-10
4.62841e-10
-2.64959e-10
1.69568e-10
-3.67418e-10
8.03503e-10
-3.068e-10
-4.31359e-10
-3.96205e-10
9.26945e-10
2.67416e-10
-4.3935e-09
7.42054e-10
-1.54997e-09
4.54005e-09
-6.84269e-10
1.05629e-08
-1.79318e-08
2.14077e-08
-1.1962e-08
3.33699e-08
-5.2858e-09
-2.4608e-08
-8.92048e-10
-5.07798e-09
-3.14784e-10
-2.12723e-09
4.22208e-10
-5.13051e-09
3.35329e-10
1.01381e-09
4.01498e-10
-4.97523e-10
2.92126e-10
9.12866e-10
2.64005e-10
1.97677e-10
1.95842e-10
5.31029e-10
1.66859e-10
2.04935e-10
1.27486e-10
2.97032e-10
1.07105e-10
1.43761e-10
8.39825e-11
1.71147e-10
7.03528e-11
9.60252e-11
5.62608e-11
1.0297e-10
4.70825e-11
6.4683e-11
3.81335e-11
6.48071e-11
3.18365e-11
4.44223e-11
2.59421e-11
4.23784e-11
2.15251e-11
3.1192e-11
1.74899e-11
2.88829e-11
1.43112e-11
2.24565e-11
1.14409e-11
2.04483e-11
9.06383e-12
1.68093e-11
6.89756e-12
1.54118e-11
5.00841e-12
1.33738e-11
3.24228e-12
1.25459e-11
1.59794e-12
1.16527e-11
-2.39644e-15
1.13602e-11
-1.60324e-12
1.13547e-11
-3.24794e-12
1.1644e-11
-5.01149e-12
1.25275e-11
-6.90063e-12
1.3374e-11
-9.06986e-12
1.54166e-11
-1.14465e-11
1.68224e-11
-1.43185e-11
2.04792e-11
-1.75004e-11
2.24771e-11
-2.15288e-11
2.88242e-11
-2.59377e-11
3.11229e-11
-3.18355e-11
4.23989e-11
-3.81313e-11
4.44238e-11
-4.70728e-11
6.4741e-11
-5.62508e-11
6.46766e-11
-7.03429e-11
1.02979e-10
-8.39742e-11
9.60496e-11
-1.07103e-10
1.71182e-10
-1.27486e-10
1.43771e-10
-1.66858e-10
2.97037e-10
-1.9584e-10
2.0492e-10
-2.64e-10
5.31005e-10
-2.9212e-10
1.97684e-10
-4.01497e-10
9.12878e-10
-3.35327e-10
-4.97536e-10
-4.22206e-10
1.01381e-09
3.1478e-10
-5.13048e-09
8.92046e-10
-2.12724e-09
5.2858e-09
-5.07802e-09
1.1962e-08
-2.4608e-08
3.33697e-08
-1.34239e-08
4.67938e-08
-6.07604e-09
-3.19559e-08
-1.05637e-09
-1.00977e-08
-3.66643e-10
-2.81695e-09
4.47616e-10
-5.94478e-09
3.64958e-10
1.09645e-09
4.36882e-10
-5.69452e-10
3.20747e-10
1.029e-09
2.89507e-10
2.28917e-10
2.15835e-10
6.04699e-10
1.83709e-10
2.37075e-10
1.40802e-10
3.39938e-10
1.18196e-10
1.66357e-10
9.2873e-11
1.9647e-10
7.7751e-11
1.11151e-10
6.22646e-11
1.18453e-10
5.20818e-11
7.48679e-11
4.22236e-11
7.46591e-11
3.52388e-11
5.14047e-11
2.87331e-11
4.88812e-11
2.38348e-11
3.60891e-11
1.93754e-11
3.3337e-11
1.58508e-11
2.5977e-11
1.26752e-11
2.36316e-11
1.00399e-11
1.94417e-11
7.64191e-12
1.78005e-11
5.54803e-12
1.54734e-11
3.59216e-12
1.44964e-11
1.77031e-12
1.34809e-11
-2.53767e-15
1.31311e-11
-1.7759e-12
1.31267e-11
-3.59832e-12
1.34694e-11
-5.55143e-12
1.44836e-11
-7.64521e-12
1.54733e-11
-1.00465e-11
1.78249e-11
-1.26813e-11
1.94427e-11
-1.58585e-11
2.36544e-11
-1.93864e-11
2.60027e-11
-2.38387e-11
3.32779e-11
-2.87286e-11
3.60109e-11
-3.52378e-11
4.89018e-11
-4.22211e-11
5.14031e-11
-5.20715e-11
7.45945e-11
-6.22542e-11
7.48476e-11
-7.77405e-11
1.18468e-10
-9.2864e-11
1.11168e-10
-1.18194e-10
1.96513e-10
-1.40801e-10
1.66387e-10
-1.83708e-10
3.39947e-10
-2.15833e-10
2.37048e-10
-2.89501e-10
6.0466e-10
-3.20741e-10
2.28925e-10
-4.36881e-10
1.02902e-09
-3.64955e-10
-5.69458e-10
-4.47615e-10
1.09648e-09
3.66639e-10
-5.94473e-09
1.05636e-09
-2.81697e-09
6.07604e-09
-1.00977e-08
1.34239e-08
-3.19559e-08
4.67936e-08
-1.49547e-08
6.17486e-08
-6.91362e-09
-3.9997e-08
-1.23472e-09
-1.57766e-08
-4.22925e-10
-3.62875e-09
4.72335e-10
-6.84003e-09
3.95688e-10
1.17311e-09
4.73561e-10
-6.47324e-10
3.50858e-10
1.1517e-09
3.16311e-10
2.63462e-10
2.37011e-10
6.83994e-10
2.01546e-10
2.72523e-10
1.54964e-10
3.86522e-10
1.29986e-10
1.91339e-10
1.02352e-10
2.24104e-10
8.5635e-11
1.27861e-10
6.86757e-11
1.35416e-10
5.74184e-11
8.61264e-11
4.65956e-11
8.54853e-11
3.88746e-11
5.91243e-11
3.17185e-11
5.60419e-11
2.63048e-11
4.15089e-11
2.13931e-11
3.82549e-11
1.74981e-11
2.98815e-11
1.39964e-11
2.71346e-11
1.10845e-11
2.23589e-11
8.43877e-12
2.04543e-11
6.12558e-12
1.77795e-11
3.96676e-12
1.66641e-11
1.95481e-12
1.54902e-11
-2.67009e-15
1.50826e-11
-1.96068e-12
1.50949e-11
-3.97339e-12
1.5487e-11
-6.12932e-12
1.66389e-11
-8.44226e-12
1.77848e-11
-1.10917e-11
2.04673e-11
-1.4003e-11
2.23668e-11
-1.75061e-11
2.71577e-11
-2.14047e-11
2.98995e-11
-2.63088e-11
3.81782e-11
-3.17138e-11
4.1419e-11
-3.88736e-11
5.60721e-11
-4.65928e-11
5.9127e-11
-5.74075e-11
8.53985e-11
-6.86649e-11
8.61073e-11
-8.56241e-11
1.35425e-10
-1.02342e-10
1.27894e-10
-1.29983e-10
2.24154e-10
-1.54963e-10
1.91366e-10
-2.01543e-10
3.8652e-10
-2.37009e-10
2.7251e-10
-3.16304e-10
6.83966e-10
-3.50852e-10
2.63469e-10
-4.73559e-10
1.15173e-09
-3.95686e-10
-6.47331e-10
-4.72333e-10
1.17312e-09
4.22921e-10
-6.83999e-09
1.23472e-09
-3.62876e-09
6.91362e-09
-1.57766e-08
1.49547e-08
-3.9997e-08
6.17483e-08
-1.65608e-08
7.83094e-08
-7.80141e-09
-4.87564e-08
-1.42656e-09
-2.21514e-08
-4.83448e-10
-4.57185e-09
4.9628e-10
-7.81976e-09
4.27521e-10
1.24186e-09
5.11518e-10
-7.31326e-10
3.82485e-10
1.28074e-09
3.44445e-10
3.01505e-10
2.59411e-10
7.69032e-10
2.20404e-10
3.1154e-10
1.70008e-10
4.3692e-10
1.42505e-10
2.18849e-10
1.12447e-10
2.54158e-10
9.40293e-11
1.46284e-10
7.55154e-11
1.53932e-10
6.31101e-11
9.85297e-11
5.12649e-11
9.73373e-11
4.27569e-11
6.76367e-11
3.49092e-11
6.38946e-11
2.89444e-11
4.74679e-11
2.35507e-11
4.36402e-11
1.92594e-11
3.41661e-11
1.54094e-11
3.09726e-11
1.22016e-11
2.55631e-11
9.29115e-12
2.3356e-11
6.74336e-12
2.03248e-11
4.3675e-12
1.90367e-11
2.15217e-12
1.77005e-11
-2.75334e-15
1.72432e-11
-2.15834e-12
1.7239e-11
-4.37463e-12
1.76969e-11
-6.74744e-12
1.90033e-11
-9.29488e-12
2.03314e-11
-1.22094e-11
2.33857e-11
-1.54166e-11
2.55643e-11
-1.92677e-11
3.10071e-11
-2.35627e-11
3.41968e-11
-2.89484e-11
4.3567e-11
-3.49043e-11
4.73666e-11
-4.2756e-11
6.39149e-11
-5.12619e-11
6.76289e-11
-6.30986e-11
9.72421e-11
-7.55043e-11
9.85105e-11
-9.40179e-11
1.53934e-10
-1.12437e-10
1.46314e-10
-1.42502e-10
2.54224e-10
-1.70006e-10
2.18869e-10
-2.20402e-10
4.36923e-10
-2.59409e-10
3.11525e-10
-3.44438e-10
7.68986e-10
-3.82479e-10
3.01515e-10
-5.11516e-10
1.28076e-09
-4.27518e-10
-7.31328e-10
-4.96278e-10
1.24189e-09
4.83444e-10
-7.81971e-09
1.42656e-09
-4.57188e-09
7.80142e-09
-2.21515e-08
1.65608e-08
-4.87564e-08
7.83092e-08
-1.82493e-08
9.65588e-08
-8.74229e-09
-5.82635e-08
-1.63103e-09
-2.92627e-08