/*--------------------------------*- C++ -*----------------------------------*\
| =========                 |                                                 |
| \\      /  F ield         | foam-extend: Open Source CFD                    |
|  \\    /   O peration     | Version:     4.0                                |
|   \\  /    A nd           | Web:         http://www.foam-extend.org         |
|    \\/     M anipulation  |                                                 |
\*---------------------------------------------------------------------------*/
FoamFile
{
    version     2.0;
    format      ascii;
    class       volVectorField;
    location    "7";
    object      bodyForce;
}
// * * * * * * * * * * * * * * * * * * * * * * * * * * * * * * * * * * * * * //

dimensions      [1 -2 -2 0 0 0 0];

internalField   nonuniform List<vector> 
6960
(
(4.60633e-32 -2.89673e-15 -0)
(3.68506e-32 -2.89673e-15 -0)
(1.28977e-31 -2.89673e-15 -0)
(9.21266e-33 -2.89673e-15 -0)
(3.68506e-32 -2.89673e-15 -0)
(3.1323e-31 -2.89673e-15 -0)
(1.84253e-32 -2.89673e-15 -0)
(-5.52759e-32 -2.89673e-15 -0)
(7.37012e-32 -2.89673e-15 -0)
(-2.02678e-31 -2.89673e-15 -0)
(-1.7504e-31 -2.89673e-15 -0)
(-2.7638e-32 -2.89673e-15 -0)
(-8.29139e-32 -2.89673e-15 -0)
(-1.10552e-31 -2.89673e-15 -0)
(9.21266e-32 -2.89673e-15 -0)
(-4.60633e-32 -2.89673e-15 -0)
(1.10552e-31 -2.89673e-15 -0)
(2.67167e-31 -2.89673e-15 -0)
(9.21266e-33 -2.89673e-15 -0)
(-2.11891e-31 -2.89673e-15 -0)
(-1.56615e-31 -2.89673e-15 -0)
(7.37012e-32 -2.89673e-15 -0)
(1.7504e-31 -2.89673e-15 -0)
(1.84253e-31 -2.89673e-15 -0)
(8.29139e-32 -2.89673e-15 -0)
(4.60633e-32 -2.89673e-15 -0)
(-1.19765e-31 -2.89673e-15 -0)
(-1.28977e-31 -2.89673e-15 -0)
(-0 -2.89673e-15 -0)
(2.21104e-31 -2.89673e-15 -0)
(2.39529e-31 -2.89673e-15 -0)
(-7.37012e-32 -2.89673e-15 -0)
(-1.65828e-31 -2.89673e-15 -0)
(-1.7504e-31 -2.89673e-15 -0)
(-2.30316e-31 -2.89673e-15 -0)
(9.21266e-33 -2.89673e-15 -0)
(1.01339e-31 -2.89673e-15 -0)
(-1.47402e-31 -2.89673e-15 -0)
(-1.7504e-31 -2.89673e-15 -0)
(2.02678e-31 -2.89673e-15 -0)
(3.04018e-31 -2.89673e-15 -0)
(-4.60633e-32 -2.89673e-15 -0)
(1.84253e-32 -2.89673e-15 -0)
(1.84253e-32 -2.89673e-15 -0)
(-8.29139e-32 -2.89673e-15 -0)
(9.21266e-32 -2.89673e-15 -0)
(6.44886e-32 -2.89673e-15 -0)
(6.44886e-32 -2.89673e-15 -0)
(1.84253e-31 -2.89673e-15 -0)
(1.93466e-31 -2.89673e-15 -0)
(2.7638e-32 -2.89673e-15 -0)
(-1.56615e-31 -2.89673e-15 -0)
(-2.85592e-31 -2.89673e-15 -0)
(-2.57954e-31 -2.89673e-15 -0)
(3.04018e-31 -2.89673e-15 -0)
(2.39529e-31 -2.89673e-15 -0)
(-2.02678e-31 -2.89673e-15 -0)
(3.68506e-32 -2.89673e-15 -0)
(-5.52759e-32 -2.89673e-15 -0)
(-1.65828e-31 -2.89673e-15 -0)
(1.96771e-31 -2.89671e-15 -0)
(1.96771e-31 -2.89671e-15 -0)
(3.041e-31 -2.89671e-15 -0)
(-1.78882e-32 -2.89671e-15 -0)
(1.25218e-31 -2.89671e-15 -0)
(1.03752e-30 -2.89671e-15 -0)
(5.36647e-32 -2.89671e-15 -0)
(-2.68324e-31 -2.89671e-15 -0)
(2.86212e-31 -2.89671e-15 -0)
(-5.90312e-31 -2.89671e-15 -0)
(-5.54535e-31 -2.89671e-15 -0)
(-1.78882e-32 -2.89671e-15 -0)
(-2.32547e-31 -2.89671e-15 -0)
(-5.00871e-31 -2.89671e-15 -0)
(-5.36647e-32 -2.89671e-15 -0)
(-1.43106e-31 -2.89671e-15 -0)
(3.57765e-31 -2.89671e-15 -0)
(9.65965e-31 -2.89671e-15 -0)
(1.25218e-31 -2.89671e-15 -0)
(-8.04971e-31 -2.89671e-15 -0)
(-5.00871e-31 -2.89671e-15 -0)
(2.68324e-31 -2.89671e-15 -0)
(6.26088e-31 -2.89671e-15 -0)
(6.79753e-31 -2.89671e-15 -0)
(1.78882e-31 -2.89671e-15 -0)
(1.78882e-32 -2.89671e-15 -0)
(-3.57765e-31 -2.89671e-15 -0)
(-3.21988e-31 -2.89671e-15 -0)
(5.36647e-32 -2.89671e-15 -0)
(7.15529e-31 -2.89671e-15 -0)
(6.43976e-31 -2.89671e-15 -0)
(-4.11429e-31 -2.89671e-15 -0)
(-3.93541e-31 -2.89671e-15 -0)
(-3.93541e-31 -2.89671e-15 -0)
(-7.51306e-31 -2.89671e-15 -0)
(1.25218e-31 -2.89671e-15 -0)
(1.78882e-31 -2.89671e-15 -0)
(-5.18759e-31 -2.89671e-15 -0)
(-4.29318e-31 -2.89671e-15 -0)
(5.72424e-31 -2.89671e-15 -0)
(8.58635e-31 -2.89671e-15 -0)
(-1.07329e-31 -2.89671e-15 -0)
(-5.36647e-32 -2.89671e-15 -0)
(1.07329e-31 -2.89671e-15 -0)
(-1.60994e-31 -2.89671e-15 -0)
(1.78882e-31 -2.89671e-15 -0)
(1.78882e-31 -2.89671e-15 -0)
(2.32547e-31 -2.89671e-15 -0)
(4.82982e-31 -2.89671e-15 -0)
(5.36647e-31 -2.89671e-15 -0)
(8.94412e-32 -2.89671e-15 -0)
(-6.26088e-31 -2.89671e-15 -0)
(-8.58635e-31 -2.89671e-15 -0)
(-7.33418e-31 -2.89671e-15 -0)
(9.65965e-31 -2.89671e-15 -0)
(7.51306e-31 -2.89671e-15 -0)
(-6.79753e-31 -2.89671e-15 -0)
(1.78882e-32 -2.89671e-15 -0)
(-1.78882e-31 -2.89671e-15 -0)
(-4.65094e-31 -2.89671e-15 -0)
(2.08402e-31 -2.89669e-15 -0)
(2.08402e-31 -2.89669e-15 -0)
(6.25205e-31 -2.89669e-15 -0)
(1.38934e-31 -2.89669e-15 -0)
(3.47336e-32 -2.89669e-15 -0)
(1.31988e-30 -2.89669e-15 -0)
(2.08402e-31 -2.89669e-15 -0)
(-1.73668e-31 -2.89669e-15 -0)
(4.51537e-31 -2.89669e-15 -0)
(-1.00727e-30 -2.89669e-15 -0)
(-1.04201e-30 -2.89669e-15 -0)
(-3.47336e-32 -2.89669e-15 -0)
(-5.21004e-31 -2.89669e-15 -0)
(-6.94672e-31 -2.89669e-15 -0)
(5.90471e-31 -2.89669e-15 -0)
(-1.04201e-31 -2.89669e-15 -0)
(5.90471e-31 -2.89669e-15 -0)
(1.56301e-30 -2.89669e-15 -0)
(3.47336e-32 -2.89669e-15 -0)
(-1.25041e-30 -2.89669e-15 -0)
(-6.59939e-31 -2.89669e-15 -0)
(3.47336e-31 -2.89669e-15 -0)
(1.00727e-30 -2.89669e-15 -0)
(1.18094e-30 -2.89669e-15 -0)
(6.94672e-32 -2.89669e-15 -0)
(1.38934e-31 -2.89669e-15 -0)
(-3.8207e-31 -2.89669e-15 -0)
(-5.90471e-31 -2.89669e-15 -0)
(-0 -2.89669e-15 -0)
(1.18094e-30 -2.89669e-15 -0)
(1.14621e-30 -2.89669e-15 -0)
(-6.25205e-31 -2.89669e-15 -0)
(-7.98873e-31 -2.89669e-15 -0)
(-7.98873e-31 -2.89669e-15 -0)
(-1.25041e-30 -2.89669e-15 -0)
(3.47336e-31 -2.89669e-15 -0)
(5.21004e-31 -2.89669e-15 -0)
(-8.6834e-31 -2.89669e-15 -0)
(-9.03074e-31 -2.89669e-15 -0)
(9.37808e-31 -2.89669e-15 -0)
(1.73668e-30 -2.89669e-15 -0)
(-2.08402e-31 -2.89669e-15 -0)
(-2.08402e-31 -2.89669e-15 -0)
(3.47336e-32 -2.89669e-15 -0)
(-3.8207e-31 -2.89669e-15 -0)
(4.86271e-31 -2.89669e-15 -0)
(2.43135e-31 -2.89669e-15 -0)
(3.8207e-31 -2.89669e-15 -0)
(9.03074e-31 -2.89669e-15 -0)
(9.72541e-31 -2.89669e-15 -0)
(2.43135e-31 -2.89669e-15 -0)
(-9.03074e-31 -2.89669e-15 -0)
(-1.45881e-30 -2.89669e-15 -0)
(-1.42408e-30 -2.89669e-15 -0)
(1.45881e-30 -2.89669e-15 -0)
(1.07674e-30 -2.89669e-15 -0)
(-1.04201e-30 -2.89669e-15 -0)
(2.43135e-31 -2.89669e-15 -0)
(-2.43135e-31 -2.89669e-15 -0)
(-7.98873e-31 -2.89669e-15 -0)
(2.02327e-31 -2.89667e-15 -0)
(1.34885e-31 -2.89667e-15 -0)
(6.74423e-31 -2.89667e-15 -0)
(2.69769e-31 -2.89667e-15 -0)
(2.69769e-31 -2.89667e-15 -0)
(1.88838e-30 -2.89667e-15 -0)
(3.37212e-31 -2.89667e-15 -0)
(6.74423e-32 -2.89667e-15 -0)
(4.72096e-31 -2.89667e-15 -0)
(-1.68606e-30 -2.89667e-15 -0)
(-1.41629e-30 -2.89667e-15 -0)
(-0 -2.89667e-15 -0)
(-8.7675e-31 -2.89667e-15 -0)
(-9.44192e-31 -2.89667e-15 -0)
(6.74423e-31 -2.89667e-15 -0)
(-1.34885e-31 -2.89667e-15 -0)
(8.09308e-31 -2.89667e-15 -0)
(1.82094e-30 -2.89667e-15 -0)
(-6.74423e-32 -2.89667e-15 -0)
(-1.61862e-30 -2.89667e-15 -0)
(-1.01163e-30 -2.89667e-15 -0)
(2.69769e-31 -2.89667e-15 -0)
(1.2814e-30 -2.89667e-15 -0)
(1.61862e-30 -2.89667e-15 -0)
(6.74423e-31 -2.89667e-15 -0)
(3.37212e-31 -2.89667e-15 -0)
(-7.41865e-31 -2.89667e-15 -0)
(-9.44192e-31 -2.89667e-15 -0)
(-6.74423e-32 -2.89667e-15 -0)
(1.68606e-30 -2.89667e-15 -0)
(1.61862e-30 -2.89667e-15 -0)
(-7.41865e-31 -2.89667e-15 -0)
(-1.14652e-30 -2.89667e-15 -0)
(-8.7675e-31 -2.89667e-15 -0)
(-1.68606e-30 -2.89667e-15 -0)
(1.34885e-31 -2.89667e-15 -0)
(6.74423e-31 -2.89667e-15 -0)
(-1.21396e-30 -2.89667e-15 -0)
(-1.2814e-30 -2.89667e-15 -0)
(1.41629e-30 -2.89667e-15 -0)
(2.09071e-30 -2.89667e-15 -0)
(-4.04654e-31 -2.89667e-15 -0)
(6.74423e-32 -2.89667e-15 -0)
(1.34885e-31 -2.89667e-15 -0)
(-6.06981e-31 -2.89667e-15 -0)
(6.06981e-31 -2.89667e-15 -0)
(2.69769e-31 -2.89667e-15 -0)
(6.06981e-31 -2.89667e-15 -0)
(1.34885e-30 -2.89667e-15 -0)
(1.41629e-30 -2.89667e-15 -0)
(2.69769e-31 -2.89667e-15 -0)
(-1.14652e-30 -2.89667e-15 -0)
(-1.95583e-30 -2.89667e-15 -0)
(-1.68606e-30 -2.89667e-15 -0)
(1.88838e-30 -2.89667e-15 -0)
(1.61862e-30 -2.89667e-15 -0)
(-1.48373e-30 -2.89667e-15 -0)
(3.37212e-31 -2.89667e-15 -0)
(-4.04654e-31 -2.89667e-15 -0)
(-1.41629e-30 -2.89667e-15 -0)
(5.89288e-31 -2.89665e-15 -0)
(4.58335e-31 -2.89665e-15 -0)
(1.17858e-30 -2.89665e-15 -0)
(2.61906e-31 -2.89665e-15 -0)
(1.30953e-31 -2.89665e-15 -0)
(2.4881e-30 -2.89665e-15 -0)
(1.30953e-31 -2.89665e-15 -0)
(-1.30953e-31 -2.89665e-15 -0)
(7.85717e-31 -2.89665e-15 -0)
(-2.09524e-30 -2.89665e-15 -0)
(-2.2262e-30 -2.89665e-15 -0)
(-0 -2.89665e-15 -0)
(-2.61906e-31 -2.89665e-15 -0)
(-1.04762e-30 -2.89665e-15 -0)
(7.85717e-31 -2.89665e-15 -0)
(-2.61906e-31 -2.89665e-15 -0)
(1.44048e-30 -2.89665e-15 -0)
(2.68453e-30 -2.89665e-15 -0)
(-3.27382e-31 -2.89665e-15 -0)
(-2.16072e-30 -2.89665e-15 -0)
(-9.1667e-31 -2.89665e-15 -0)
(5.23811e-31 -2.89665e-15 -0)
(1.50596e-30 -2.89665e-15 -0)
(2.02977e-30 -2.89665e-15 -0)
(6.54764e-31 -2.89665e-15 -0)
(5.23811e-31 -2.89665e-15 -0)
(-8.51193e-31 -2.89665e-15 -0)
(-1.30953e-30 -2.89665e-15 -0)
(-1.30953e-31 -2.89665e-15 -0)
(2.29167e-30 -2.89665e-15 -0)
(2.09524e-30 -2.89665e-15 -0)
(-9.1667e-31 -2.89665e-15 -0)
(-1.375e-30 -2.89665e-15 -0)
(-1.50596e-30 -2.89665e-15 -0)
(-2.02977e-30 -2.89665e-15 -0)
(3.27382e-31 -2.89665e-15 -0)
(8.51193e-31 -2.89665e-15 -0)
(-1.50596e-30 -2.89665e-15 -0)
(-1.375e-30 -2.89665e-15 -0)
(1.76786e-30 -2.89665e-15 -0)
(2.68453e-30 -2.89665e-15 -0)
(-6.54764e-31 -2.89665e-15 -0)
(-3.92858e-31 -2.89665e-15 -0)
(4.58335e-31 -2.89665e-15 -0)
(-5.23811e-31 -2.89665e-15 -0)
(5.89288e-31 -2.89665e-15 -0)
(4.58335e-31 -2.89665e-15 -0)
(9.82146e-31 -2.89665e-15 -0)
(1.76786e-30 -2.89665e-15 -0)
(1.63691e-30 -2.89665e-15 -0)
(3.27382e-31 -2.89665e-15 -0)
(-1.76786e-30 -2.89665e-15 -0)
(-2.55358e-30 -2.89665e-15 -0)
(-2.16072e-30 -2.89665e-15 -0)
(2.75001e-30 -2.89665e-15 -0)
(1.70239e-30 -2.89665e-15 -0)
(-2.16072e-30 -2.89665e-15 -0)
(3.92858e-31 -2.89665e-15 -0)
(-5.23811e-31 -2.89665e-15 -0)
(-1.70239e-30 -2.89665e-15 -0)
(6.99245e-31 -2.89663e-15 -0)
(6.35678e-31 -2.89663e-15 -0)
(1.58919e-30 -2.89663e-15 -0)
(5.7211e-31 -2.89663e-15 -0)
(4.44974e-31 -2.89663e-15 -0)
(3.7505e-30 -2.89663e-15 -0)
(4.44974e-31 -2.89663e-15 -0)
(-1.08065e-30 -2.89663e-15 -0)
(6.35678e-31 -2.89663e-15 -0)
(-1.9706e-30 -2.89663e-15 -0)
(-2.47914e-30 -2.89663e-15 -0)
(-2.54271e-31 -2.89663e-15 -0)
(-5.08542e-31 -2.89663e-15 -0)
(-1.9706e-30 -2.89663e-15 -0)
(5.08542e-31 -2.89663e-15 -0)
(-6.99245e-31 -2.89663e-15 -0)
(8.26381e-31 -2.89663e-15 -0)
(3.9412e-30 -2.89663e-15 -0)
(3.17839e-31 -2.89663e-15 -0)
(-2.92412e-30 -2.89663e-15 -0)
(-1.65276e-30 -2.89663e-15 -0)
(6.35678e-31 -2.89663e-15 -0)
(2.35201e-30 -2.89663e-15 -0)
(2.28844e-30 -2.89663e-15 -0)
(5.7211e-31 -2.89663e-15 -0)
(6.99245e-31 -2.89663e-15 -0)
(-9.53516e-31 -2.89663e-15 -0)
(-1.65276e-30 -2.89663e-15 -0)
(-1.90703e-31 -2.89663e-15 -0)
(2.98769e-30 -2.89663e-15 -0)
(2.60628e-30 -2.89663e-15 -0)
(-1.14422e-30 -2.89663e-15 -0)
(-1.65276e-30 -2.89663e-15 -0)
(-1.65276e-30 -2.89663e-15 -0)
(-2.41558e-30 -2.89663e-15 -0)
(3.17839e-31 -2.89663e-15 -0)
(1.90703e-31 -2.89663e-15 -0)
(-2.35201e-30 -2.89663e-15 -0)
(-1.46206e-30 -2.89663e-15 -0)
(2.47914e-30 -2.89663e-15 -0)
(3.43266e-30 -2.89663e-15 -0)
(-9.53517e-31 -2.89663e-15 -0)
(-1.90703e-31 -2.89663e-15 -0)
(9.53516e-31 -2.89663e-15 -0)
(-6.35678e-31 -2.89663e-15 -0)
(9.53517e-31 -2.89663e-15 -0)
(9.53516e-31 -2.89663e-15 -0)
(1.33492e-30 -2.89663e-15 -0)
(1.84347e-30 -2.89663e-15 -0)
(1.71633e-30 -2.89663e-15 -0)
(-0 -2.89663e-15 -0)
(-2.22487e-30 -2.89663e-15 -0)
(-3.30552e-30 -2.89663e-15 -0)
(-3.11482e-30 -2.89663e-15 -0)
(3.17839e-30 -2.89663e-15 -0)
(2.86055e-30 -2.89663e-15 -0)
(-2.09774e-30 -2.89663e-15 -0)
(3.81407e-31 -2.89663e-15 -0)
(-8.89949e-31 -2.89663e-15 -0)
(-2.09774e-30 -2.89663e-15 -0)
(7.40577e-31 -2.89661e-15 -0)
(8.64007e-31 -2.89661e-15 -0)
(1.72801e-30 -2.89661e-15 -0)
(1.2343e-31 -2.89661e-15 -0)
(6.17148e-31 -2.89661e-15 -0)
(3.70289e-30 -2.89661e-15 -0)
(1.2343e-31 -2.89661e-15 -0)
(-3.70289e-31 -2.89661e-15 -0)
(1.2343e-30 -2.89661e-15 -0)
(-2.22173e-30 -2.89661e-15 -0)
(-3.08574e-30 -2.89661e-15 -0)
(-6.17148e-31 -2.89661e-15 -0)
(-1.11087e-30 -2.89661e-15 -0)
(-1.35772e-30 -2.89661e-15 -0)
(1.72801e-30 -2.89661e-15 -0)
(-9.87436e-31 -2.89661e-15 -0)
(1.35772e-30 -2.89661e-15 -0)
(3.70289e-30 -2.89661e-15 -0)
(-1.2343e-31 -2.89661e-15 -0)
(-2.46859e-30 -2.89661e-15 -0)
(-2.0983e-30 -2.89661e-15 -0)
(2.46859e-31 -2.89661e-15 -0)
(2.34516e-30 -2.89661e-15 -0)
(3.45603e-30 -2.89661e-15 -0)
(1.2343e-30 -2.89661e-15 -0)
(6.17148e-31 -2.89661e-15 -0)
(-1.60458e-30 -2.89661e-15 -0)
(-1.85144e-30 -2.89661e-15 -0)
(-2.46859e-31 -2.89661e-15 -0)
(3.3326e-30 -2.89661e-15 -0)
(2.96231e-30 -2.89661e-15 -0)
(-1.60458e-30 -2.89661e-15 -0)
(-1.85144e-30 -2.89661e-15 -0)
(-1.97487e-30 -2.89661e-15 -0)
(-2.96231e-30 -2.89661e-15 -0)
(3.70289e-31 -2.89661e-15 -0)
(7.40577e-31 -2.89661e-15 -0)
(-2.59202e-30 -2.89661e-15 -0)
(-1.85144e-30 -2.89661e-15 -0)
(2.96231e-30 -2.89661e-15 -0)
(4.07317e-30 -2.89661e-15 -0)
(-6.17148e-31 -2.89661e-15 -0)
(-3.70289e-31 -2.89661e-15 -0)
(4.93718e-31 -2.89661e-15 -0)
(-1.2343e-30 -2.89661e-15 -0)
(4.93718e-31 -2.89661e-15 -0)
(6.17148e-31 -2.89661e-15 -0)
(1.60458e-30 -2.89661e-15 -0)
(2.96231e-30 -2.89661e-15 -0)
(2.46859e-30 -2.89661e-15 -0)
(6.17148e-31 -2.89661e-15 -0)
(-2.34516e-30 -2.89661e-15 -0)
(-4.1966e-30 -2.89661e-15 -0)
(-3.45603e-30 -2.89661e-15 -0)
(4.07317e-30 -2.89661e-15 -0)
(2.83888e-30 -2.89661e-15 -0)
(-2.59202e-30 -2.89661e-15 -0)
(7.40577e-31 -2.89661e-15 -0)
(-9.87436e-31 -2.89661e-15 -0)
(-2.59202e-30 -2.89661e-15 -0)
(7.18989e-31 -2.89659e-15 -0)
(7.18989e-31 -2.89659e-15 -0)
(1.55781e-30 -2.89659e-15 -0)
(-0 -2.89659e-15 -0)
(8.3882e-31 -2.89659e-15 -0)
(5.03292e-30 -2.89659e-15 -0)
(-0 -2.89659e-15 -0)
(-5.99157e-31 -2.89659e-15 -0)
(1.07848e-30 -2.89659e-15 -0)
(-3.47511e-30 -2.89659e-15 -0)
(-2.99579e-30 -2.89659e-15 -0)
(1.19831e-31 -2.89659e-15 -0)
(-9.58652e-31 -2.89659e-15 -0)
(-2.15697e-30 -2.89659e-15 -0)
(1.43798e-30 -2.89659e-15 -0)
(-3.59494e-31 -2.89659e-15 -0)
(1.55781e-30 -2.89659e-15 -0)
(4.5536e-30 -2.89659e-15 -0)
(1.19831e-31 -2.89659e-15 -0)
(-3.59494e-30 -2.89659e-15 -0)
(-2.03714e-30 -2.89659e-15 -0)
(9.58652e-31 -2.89659e-15 -0)
(2.75612e-30 -2.89659e-15 -0)
(3.23545e-30 -2.89659e-15 -0)
(1.07848e-30 -2.89659e-15 -0)
(1.31815e-30 -2.89659e-15 -0)
(-2.03714e-30 -2.89659e-15 -0)
(-2.99579e-30 -2.89659e-15 -0)
(3.59494e-31 -2.89659e-15 -0)
(4.07427e-30 -2.89659e-15 -0)
(3.71478e-30 -2.89659e-15 -0)
(-1.67764e-30 -2.89659e-15 -0)
(-2.51646e-30 -2.89659e-15 -0)
(-2.2768e-30 -2.89659e-15 -0)
(-3.59494e-30 -2.89659e-15 -0)
(4.79326e-31 -2.89659e-15 -0)
(1.31815e-30 -2.89659e-15 -0)
(-2.87596e-30 -2.89659e-15 -0)
(-2.39663e-30 -2.89659e-15 -0)
(3.83461e-30 -2.89659e-15 -0)
(5.15275e-30 -2.89659e-15 -0)
(-1.31815e-30 -2.89659e-15 -0)
(-3.59494e-31 -2.89659e-15 -0)
(5.99157e-31 -2.89659e-15 -0)
(-1.43798e-30 -2.89659e-15 -0)
(1.07848e-30 -2.89659e-15 -0)
(8.3882e-31 -2.89659e-15 -0)
(1.67764e-30 -2.89659e-15 -0)
(3.23545e-30 -2.89659e-15 -0)
(2.75612e-30 -2.89659e-15 -0)
(5.99157e-31 -2.89659e-15 -0)
(-2.39663e-30 -2.89659e-15 -0)
(-4.43376e-30 -2.89659e-15 -0)
(-4.43377e-30 -2.89659e-15 -0)
(4.91309e-30 -2.89659e-15 -0)
(3.35528e-30 -2.89659e-15 -0)
(-2.87596e-30 -2.89659e-15 -0)
(1.31815e-30 -2.89659e-15 -0)
(-1.55781e-30 -2.89659e-15 -0)
(-3.11562e-30 -2.89659e-15 -0)
(6.9803e-31 -2.89656e-15 -0)
(1.27972e-30 -2.89656e-15 -0)
(2.32677e-30 -2.89656e-15 -0)
(-0 -2.89656e-15 -0)
(-0 -2.89656e-15 -0)
(5.23522e-30 -2.89656e-15 -0)
(1.16338e-31 -2.89656e-15 -0)
(-1.16338e-30 -2.89656e-15 -0)
(1.16338e-30 -2.89656e-15 -0)
(-3.25747e-30 -2.89656e-15 -0)
(-3.60649e-30 -2.89656e-15 -0)
(-4.65353e-31 -2.89656e-15 -0)
(-4.65353e-31 -2.89656e-15 -0)
(-1.74507e-30 -2.89656e-15 -0)
(1.39606e-30 -2.89656e-15 -0)
(-0 -2.89656e-15 -0)
(2.4431e-30 -2.89656e-15 -0)
(4.88621e-30 -2.89656e-15 -0)
(1.16338e-31 -2.89656e-15 -0)
(-3.37381e-30 -2.89656e-15 -0)
(-2.4431e-30 -2.89656e-15 -0)
(3.49015e-31 -2.89656e-15 -0)
(2.21043e-30 -2.89656e-15 -0)
(4.18818e-30 -2.89656e-15 -0)
(2.09409e-30 -2.89656e-15 -0)
(1.16338e-30 -2.89656e-15 -0)
(-2.09409e-30 -2.89656e-15 -0)
(-2.90846e-30 -2.89656e-15 -0)
(-0 -2.89656e-15 -0)
(4.88621e-30 -2.89656e-15 -0)
(4.30452e-30 -2.89656e-15 -0)
(-1.62874e-30 -2.89656e-15 -0)
(-2.4431e-30 -2.89656e-15 -0)
(-3.0248e-30 -2.89656e-15 -0)
(-3.72283e-30 -2.89656e-15 -0)
(8.14368e-31 -2.89656e-15 -0)
(8.14368e-31 -2.89656e-15 -0)
(-2.90846e-30 -2.89656e-15 -0)
(-2.32677e-30 -2.89656e-15 -0)
(3.60649e-30 -2.89656e-15 -0)
(5.00255e-30 -2.89656e-15 -0)
(-1.27972e-30 -2.89656e-15 -0)
(-1.16338e-30 -2.89656e-15 -0)
(4.65353e-31 -2.89656e-15 -0)
(-9.30706e-31 -2.89656e-15 -0)
(1.5124e-30 -2.89656e-15 -0)
(8.14368e-31 -2.89656e-15 -0)
(2.4431e-30 -2.89656e-15 -0)
(3.49015e-30 -2.89656e-15 -0)
(2.55944e-30 -2.89656e-15 -0)
(6.9803e-31 -2.89656e-15 -0)
(-2.4431e-30 -2.89656e-15 -0)
(-5.11889e-30 -2.89656e-15 -0)
(-4.88621e-30 -2.89656e-15 -0)
(5.93325e-30 -2.89656e-15 -0)
(2.90846e-30 -2.89656e-15 -0)
(-4.65353e-30 -2.89656e-15 -0)
(9.30706e-31 -2.89656e-15 -0)
(-1.86141e-30 -2.89656e-15 -0)
(-3.49015e-30 -2.89656e-15 -0)
(9.03575e-31 -2.89654e-15 -0)
(1.46831e-30 -2.89654e-15 -0)
(1.24242e-30 -2.89654e-15 -0)
(-4.51788e-31 -2.89654e-15 -0)
(1.24242e-30 -2.89654e-15 -0)
(5.98619e-30 -2.89654e-15 -0)
(1.35536e-30 -2.89654e-15 -0)
(-2.25894e-31 -2.89654e-15 -0)
(3.38841e-31 -2.89654e-15 -0)
(-4.51788e-30 -2.89654e-15 -0)
(-3.6143e-30 -2.89654e-15 -0)
(-3.38841e-31 -2.89654e-15 -0)
(-1.9201e-30 -2.89654e-15 -0)
(-3.27546e-30 -2.89654e-15 -0)
(1.01652e-30 -2.89654e-15 -0)
(-6.77682e-31 -2.89654e-15 -0)
(1.24242e-30 -2.89654e-15 -0)
(6.66387e-30 -2.89654e-15 -0)
(2.14599e-30 -2.89654e-15 -0)
(-4.40493e-30 -2.89654e-15 -0)
(-3.50135e-30 -2.89654e-15 -0)
(2.25894e-31 -2.89654e-15 -0)
(2.03304e-30 -2.89654e-15 -0)
(4.40493e-30 -2.89654e-15 -0)
(2.93662e-30 -2.89654e-15 -0)
(1.01652e-30 -2.89654e-15 -0)
(-2.71073e-30 -2.89654e-15 -0)
(-2.93662e-30 -2.89654e-15 -0)
(2.25894e-31 -2.89654e-15 -0)
(5.19556e-30 -2.89654e-15 -0)
(4.74377e-30 -2.89654e-15 -0)
(-1.80715e-30 -2.89654e-15 -0)
(-2.25894e-30 -2.89654e-15 -0)
(-3.6143e-30 -2.89654e-15 -0)
(-4.40493e-30 -2.89654e-15 -0)
(1.6942e-30 -2.89654e-15 -0)
(2.25894e-31 -2.89654e-15 -0)
(-4.74377e-30 -2.89654e-15 -0)
(-2.37189e-30 -2.89654e-15 -0)
(5.08261e-30 -2.89654e-15 -0)
(5.76029e-30 -2.89654e-15 -0)
(-1.46831e-30 -2.89654e-15 -0)
(-3.38841e-31 -2.89654e-15 -0)
(1.24242e-30 -2.89654e-15 -0)
(-1.46831e-30 -2.89654e-15 -0)
(1.80715e-30 -2.89654e-15 -0)
(1.12947e-30 -2.89654e-15 -0)
(2.25894e-30 -2.89654e-15 -0)
(4.40493e-30 -2.89654e-15 -0)
(2.82367e-30 -2.89654e-15 -0)
(4.51788e-31 -2.89654e-15 -0)
(-2.93662e-30 -2.89654e-15 -0)
(-6.43797e-30 -2.89654e-15 -0)
(-5.64735e-30 -2.89654e-15 -0)
(6.66387e-30 -2.89654e-15 -0)
(3.6143e-30 -2.89654e-15 -0)
(-4.63082e-30 -2.89654e-15 -0)
(1.01652e-30 -2.89654e-15 -0)
(-2.25894e-30 -2.89654e-15 -0)
(-3.72725e-30 -2.89654e-15 -0)
(1.09654e-30 -2.89651e-15 -0)
(1.97378e-30 -2.89651e-15 -0)
(2.4124e-30 -2.89651e-15 -0)
(-8.77235e-31 -2.89651e-15 -0)
(6.57926e-31 -2.89651e-15 -0)
(7.89511e-30 -2.89651e-15 -0)
(4.38617e-31 -2.89651e-15 -0)
(-1.97378e-30 -2.89651e-15 -0)
(1.09654e-30 -2.89651e-15 -0)
(-4.82479e-30 -2.89651e-15 -0)
(-3.50894e-30 -2.89651e-15 -0)
(-4.38617e-31 -2.89651e-15 -0)
(-1.31585e-30 -2.89651e-15 -0)
(-3.50894e-30 -2.89651e-15 -0)
(2.19309e-31 -2.89651e-15 -0)
(-1.09654e-30 -2.89651e-15 -0)
(2.4124e-30 -2.89651e-15 -0)
(7.23719e-30 -2.89651e-15 -0)
(1.53516e-30 -2.89651e-15 -0)
(-4.38617e-30 -2.89651e-15 -0)
(-3.50894e-30 -2.89651e-15 -0)
(-0 -2.89651e-15 -0)
(2.6317e-30 -2.89651e-15 -0)
(5.92134e-30 -2.89651e-15 -0)
(2.4124e-30 -2.89651e-15 -0)
(4.38617e-31 -2.89651e-15 -0)
(-3.72825e-30 -2.89651e-15 -0)
(-3.28963e-30 -2.89651e-15 -0)
(1.09654e-30 -2.89651e-15 -0)
(6.57926e-30 -2.89651e-15 -0)
(5.48272e-30 -2.89651e-15 -0)
(-2.85101e-30 -2.89651e-15 -0)
(-1.75447e-30 -2.89651e-15 -0)
(-3.50894e-30 -2.89651e-15 -0)
(-5.48272e-30 -2.89651e-15 -0)
(8.77235e-31 -2.89651e-15 -0)
(4.38617e-31 -2.89651e-15 -0)
(-4.38617e-30 -2.89651e-15 -0)
(-2.19309e-30 -2.89651e-15 -0)
(5.0441e-30 -2.89651e-15 -0)
(5.26341e-30 -2.89651e-15 -0)
(-2.19309e-30 -2.89651e-15 -0)
(-4.38617e-31 -2.89651e-15 -0)
(6.57926e-31 -2.89651e-15 -0)
(-8.77235e-31 -2.89651e-15 -0)
(2.19309e-30 -2.89651e-15 -0)
(6.57926e-31 -2.89651e-15 -0)
(2.19309e-30 -2.89651e-15 -0)
(4.60548e-30 -2.89651e-15 -0)
(2.85101e-30 -2.89651e-15 -0)
(1.09654e-30 -2.89651e-15 -0)
(-3.07032e-30 -2.89651e-15 -0)
(-6.57926e-30 -2.89651e-15 -0)
(-6.14064e-30 -2.89651e-15 -0)
(8.33373e-30 -2.89651e-15 -0)
(5.0441e-30 -2.89651e-15 -0)
(-5.48272e-30 -2.89651e-15 -0)
(6.57926e-31 -2.89651e-15 -0)
(-3.07032e-30 -2.89651e-15 -0)
(-4.82479e-30 -2.89651e-15 -0)
(1.27749e-30 -2.89648e-15 -0)
(2.12915e-30 -2.89648e-15 -0)
(2.34207e-30 -2.89648e-15 -0)
(2.12915e-31 -2.89648e-15 -0)
(1.27749e-30 -2.89648e-15 -0)
(7.87787e-30 -2.89648e-15 -0)
(-2.12915e-31 -2.89648e-15 -0)
(-2.55499e-30 -2.89648e-15 -0)
(6.38746e-31 -2.89648e-15 -0)
(-4.68414e-30 -2.89648e-15 -0)
(-3.40665e-30 -2.89648e-15 -0)
(-1.06458e-30 -2.89648e-15 -0)
(-2.55499e-30 -2.89648e-15 -0)
(-1.70332e-30 -2.89648e-15 -0)
(2.7679e-30 -2.89648e-15 -0)
(-6.38746e-31 -2.89648e-15 -0)
(2.55499e-30 -2.89648e-15 -0)
(5.10997e-30 -2.89648e-15 -0)
(1.06458e-30 -2.89648e-15 -0)
(-3.61956e-30 -2.89648e-15 -0)
(-3.83248e-30 -2.89648e-15 -0)
(-0 -2.89648e-15 -0)
(2.34207e-30 -2.89648e-15 -0)
(5.96163e-30 -2.89648e-15 -0)
(4.68414e-30 -2.89648e-15 -0)
(6.38746e-31 -2.89648e-15 -0)
(-5.32289e-30 -2.89648e-15 -0)
(-3.83248e-30 -2.89648e-15 -0)
(1.49041e-30 -2.89648e-15 -0)
(6.8133e-30 -2.89648e-15 -0)
(6.17455e-30 -2.89648e-15 -0)
(-2.34207e-30 -2.89648e-15 -0)
(-3.83248e-30 -2.89648e-15 -0)
(-3.40665e-30 -2.89648e-15 -0)
(-5.5358e-30 -2.89648e-15 -0)
(2.12915e-31 -2.89648e-15 -0)
(1.27749e-30 -2.89648e-15 -0)
(-5.32289e-30 -2.89648e-15 -0)
(-3.83248e-30 -2.89648e-15 -0)
(6.38746e-30 -2.89648e-15 -0)
(7.23913e-30 -2.89648e-15 -0)
(-2.55499e-30 -2.89648e-15 -0)
(-6.38746e-31 -2.89648e-15 -0)
(1.49041e-30 -2.89648e-15 -0)
(-1.27749e-30 -2.89648e-15 -0)
(2.55499e-30 -2.89648e-15 -0)
(2.12915e-31 -2.89648e-15 -0)
(2.12915e-30 -2.89648e-15 -0)
(5.5358e-30 -2.89648e-15 -0)
(3.40665e-30 -2.89648e-15 -0)
(1.70332e-30 -2.89648e-15 -0)
(-1.49041e-30 -2.89648e-15 -0)
(-7.87787e-30 -2.89648e-15 -0)
(-7.23913e-30 -2.89648e-15 -0)
(8.51662e-30 -2.89648e-15 -0)
(5.5358e-30 -2.89648e-15 -0)
(-5.96163e-30 -2.89648e-15 -0)
(4.25831e-31 -2.89648e-15 -0)
(-2.7679e-30 -2.89648e-15 -0)
(-5.10997e-30 -2.89648e-15 -0)
(6.20126e-31 -2.89645e-15 -0)
(1.44696e-30 -2.89645e-15 -0)
(2.68721e-30 -2.89645e-15 -0)
(2.06709e-31 -2.89645e-15 -0)
(2.06709e-31 -2.89645e-15 -0)
(7.85492e-30 -2.89645e-15 -0)
(2.27379e-30 -2.89645e-15 -0)
(-1.24025e-30 -2.89645e-15 -0)
(-6.20126e-31 -2.89645e-15 -0)
(-5.37442e-30 -2.89645e-15 -0)
(-3.51405e-30 -2.89645e-15 -0)
(-4.13417e-31 -2.89645e-15 -0)
(-2.68721e-30 -2.89645e-15 -0)
(-3.51405e-30 -2.89645e-15 -0)
(1.03354e-30 -2.89645e-15 -0)
(-4.13417e-31 -2.89645e-15 -0)
(4.13417e-30 -2.89645e-15 -0)
(7.85492e-30 -2.89645e-15 -0)
(1.03354e-30 -2.89645e-15 -0)
(-5.78784e-30 -2.89645e-15 -0)
(-4.7543e-30 -2.89645e-15 -0)
(1.03354e-30 -2.89645e-15 -0)
(2.68721e-30 -2.89645e-15 -0)
(6.82138e-30 -2.89645e-15 -0)
(5.37442e-30 -2.89645e-15 -0)
(2.06709e-31 -2.89645e-15 -0)
(-5.58113e-30 -2.89645e-15 -0)
(-3.72075e-30 -2.89645e-15 -0)
(1.65367e-30 -2.89645e-15 -0)
(6.40796e-30 -2.89645e-15 -0)
(5.58113e-30 -2.89645e-15 -0)
(-2.27379e-30 -2.89645e-15 -0)
(-3.30734e-30 -2.89645e-15 -0)
(-4.34088e-30 -2.89645e-15 -0)
(-5.99455e-30 -2.89645e-15 -0)
(2.06709e-31 -2.89645e-15 -0)
(1.44696e-30 -2.89645e-15 -0)
(-5.16771e-30 -2.89645e-15 -0)
(-3.30734e-30 -2.89645e-15 -0)
(6.40797e-30 -2.89645e-15 -0)
(6.61467e-30 -2.89645e-15 -0)
(-2.4805e-30 -2.89645e-15 -0)
(-4.13417e-31 -2.89645e-15 -0)
(1.44696e-30 -2.89645e-15 -0)
(-1.03354e-30 -2.89645e-15 -0)
(2.4805e-30 -2.89645e-15 -0)
(-0 -2.89645e-15 -0)
(3.10063e-30 -2.89645e-15 -0)
(6.20126e-30 -2.89645e-15 -0)
(3.10063e-30 -2.89645e-15 -0)
(2.27379e-30 -2.89645e-15 -0)
(-1.65367e-30 -2.89645e-15 -0)
(-8.26834e-30 -2.89645e-15 -0)
(-7.2348e-30 -2.89645e-15 -0)
(9.50859e-30 -2.89645e-15 -0)
(5.58113e-30 -2.89645e-15 -0)
(-7.64822e-30 -2.89645e-15 -0)
(6.20126e-31 -2.89645e-15 -0)
(-3.30734e-30 -2.89645e-15 -0)
(-5.78784e-30 -2.89645e-15 -0)
(1.80614e-30 -2.89642e-15 -0)
(3.01024e-30 -2.89642e-15 -0)
(2.60887e-30 -2.89642e-15 -0)
(-1.40478e-30 -2.89642e-15 -0)
(1.20409e-30 -2.89642e-15 -0)
(9.63276e-30 -2.89642e-15 -0)
(6.02047e-31 -2.89642e-15 -0)
(-1.20409e-30 -2.89642e-15 -0)
(-2.00682e-31 -2.89642e-15 -0)
(-6.22116e-30 -2.89642e-15 -0)
(-4.41501e-30 -2.89642e-15 -0)
(-1.40478e-30 -2.89642e-15 -0)
(-2.60887e-30 -2.89642e-15 -0)
(-3.21092e-30 -2.89642e-15 -0)
(2.40819e-30 -2.89642e-15 -0)
(-0 -2.89642e-15 -0)
(4.01365e-30 -2.89642e-15 -0)
(8.42866e-30 -2.89642e-15 -0)
(1.80614e-30 -2.89642e-15 -0)
(-6.02047e-30 -2.89642e-15 -0)
(-5.61911e-30 -2.89642e-15 -0)
(1.60546e-30 -2.89642e-15 -0)
(3.61228e-30 -2.89642e-15 -0)
(7.62593e-30 -2.89642e-15 -0)
(5.61911e-30 -2.89642e-15 -0)
(-4.01365e-31 -2.89642e-15 -0)
(-6.62252e-30 -2.89642e-15 -0)
(-5.01706e-30 -2.89642e-15 -0)
(1.80614e-30 -2.89642e-15 -0)
(7.42525e-30 -2.89642e-15 -0)
(5.61911e-30 -2.89642e-15 -0)
(-1.40478e-30 -2.89642e-15 -0)
(-2.40819e-30 -2.89642e-15 -0)
(-6.62252e-30 -2.89642e-15 -0)
(-7.02389e-30 -2.89642e-15 -0)
(1.60546e-30 -2.89642e-15 -0)
(1.00341e-30 -2.89642e-15 -0)
(-5.81979e-30 -2.89642e-15 -0)
(-2.00682e-30 -2.89642e-15 -0)
(7.42525e-30 -2.89642e-15 -0)
(7.02389e-30 -2.89642e-15 -0)
(-3.01024e-30 -2.89642e-15 -0)
(-2.00682e-31 -2.89642e-15 -0)
(2.20751e-30 -2.89642e-15 -0)
(-1.40478e-30 -2.89642e-15 -0)
(2.40819e-30 -2.89642e-15 -0)
(8.0273e-31 -2.89642e-15 -0)
(3.61228e-30 -2.89642e-15 -0)
(6.02047e-30 -2.89642e-15 -0)
(2.60887e-30 -2.89642e-15 -0)
(3.4116e-30 -2.89642e-15 -0)
(-2.00682e-30 -2.89642e-15 -0)
(-8.83003e-30 -2.89642e-15 -0)
(-7.02389e-30 -2.89642e-15 -0)
(9.63276e-30 -2.89642e-15 -0)
(6.22116e-30 -2.89642e-15 -0)
(-7.22457e-30 -2.89642e-15 -0)
(-0 -2.89642e-15 -0)
(-3.21092e-30 -2.89642e-15 -0)
(-5.21774e-30 -2.89642e-15 -0)
(1.75349e-30 -2.89639e-15 -0)
(2.92248e-30 -2.89639e-15 -0)
(2.33798e-30 -2.89639e-15 -0)
(-1.16899e-30 -2.89639e-15 -0)
(7.79328e-31 -2.89639e-15 -0)
(9.54677e-30 -2.89639e-15 -0)
(1.75349e-30 -2.89639e-15 -0)
(-3.11731e-30 -2.89639e-15 -0)
(-0 -2.89639e-15 -0)
(-4.67597e-30 -2.89639e-15 -0)
(-5.65013e-30 -2.89639e-15 -0)
(-1.55866e-30 -2.89639e-15 -0)
(-1.55866e-30 -2.89639e-15 -0)
(-3.11731e-30 -2.89639e-15 -0)
(1.75349e-30 -2.89639e-15 -0)
(-1.94832e-31 -2.89639e-15 -0)
(4.67597e-30 -2.89639e-15 -0)
(8.57261e-30 -2.89639e-15 -0)
(1.16899e-30 -2.89639e-15 -0)
(-5.06563e-30 -2.89639e-15 -0)
(-5.06563e-30 -2.89639e-15 -0)
(1.55866e-30 -2.89639e-15 -0)
(3.70181e-30 -2.89639e-15 -0)
(8.57261e-30 -2.89639e-15 -0)
(7.01395e-30 -2.89639e-15 -0)
(-1.16899e-30 -2.89639e-15 -0)
(-8.76744e-30 -2.89639e-15 -0)
(-5.06563e-30 -2.89639e-15 -0)
(2.53282e-30 -2.89639e-15 -0)
(7.98811e-30 -2.89639e-15 -0)
(6.42946e-30 -2.89639e-15 -0)
(-2.72765e-30 -2.89639e-15 -0)
(-1.94832e-30 -2.89639e-15 -0)
(-5.4553e-30 -2.89639e-15 -0)
(-7.40362e-30 -2.89639e-15 -0)
(2.14315e-30 -2.89639e-15 -0)
(1.36382e-30 -2.89639e-15 -0)
(-7.79328e-30 -2.89639e-15 -0)
(-2.92248e-30 -2.89639e-15 -0)
(7.98811e-30 -2.89639e-15 -0)
(6.03979e-30 -2.89639e-15 -0)
(-3.11731e-30 -2.89639e-15 -0)
(5.84496e-31 -2.89639e-15 -0)
(2.92248e-30 -2.89639e-15 -0)
(-1.36382e-30 -2.89639e-15 -0)
(2.14315e-30 -2.89639e-15 -0)
(1.94832e-31 -2.89639e-15 -0)
(3.70181e-30 -2.89639e-15 -0)
(6.42946e-30 -2.89639e-15 -0)
(3.70181e-30 -2.89639e-15 -0)
(3.11731e-30 -2.89639e-15 -0)
(-1.94832e-30 -2.89639e-15 -0)
(-8.57261e-30 -2.89639e-15 -0)
(-7.59845e-30 -2.89639e-15 -0)
(1.09106e-29 -2.89639e-15 -0)
(6.62429e-30 -2.89639e-15 -0)
(-7.59845e-30 -2.89639e-15 -0)
(-1.75349e-30 -2.89639e-15 -0)
(-4.67597e-30 -2.89639e-15 -0)
(-6.03979e-30 -2.89639e-15 -0)
(2.45898e-30 -2.89636e-15 -0)
(4.3505e-30 -2.89636e-15 -0)
(2.26982e-30 -2.89636e-15 -0)
(-9.4576e-31 -2.89636e-15 -0)
(1.13491e-30 -2.89636e-15 -0)
(9.0793e-30 -2.89636e-15 -0)
(2.08067e-30 -2.89636e-15 -0)
(-1.70237e-30 -2.89636e-15 -0)
(3.78304e-31 -2.89636e-15 -0)
(-5.67456e-30 -2.89636e-15 -0)
(-5.86371e-30 -2.89636e-15 -0)
(-2.64813e-30 -2.89636e-15 -0)
(-3.40474e-30 -2.89636e-15 -0)
(-3.02643e-30 -2.89636e-15 -0)
(1.51322e-30 -2.89636e-15 -0)
(9.4576e-31 -2.89636e-15 -0)
(6.05286e-30 -2.89636e-15 -0)
(9.4576e-30 -2.89636e-15 -0)
(2.83728e-30 -2.89636e-15 -0)
(-6.80947e-30 -2.89636e-15 -0)
(-6.05286e-30 -2.89636e-15 -0)
(2.26982e-30 -2.89636e-15 -0)
(4.7288e-30 -2.89636e-15 -0)
(9.0793e-30 -2.89636e-15 -0)
(5.67456e-30 -2.89636e-15 -0)
(-1.13491e-30 -2.89636e-15 -0)
(-8.51184e-30 -2.89636e-15 -0)
(-5.86371e-30 -2.89636e-15 -0)
(4.16134e-30 -2.89636e-15 -0)
(9.26845e-30 -2.89636e-15 -0)
(5.29626e-30 -2.89636e-15 -0)
(-3.21558e-30 -2.89636e-15 -0)
(-2.08067e-30 -2.89636e-15 -0)
(-6.24202e-30 -2.89636e-15 -0)
(-6.80947e-30 -2.89636e-15 -0)
(2.45898e-30 -2.89636e-15 -0)
(-7.56608e-31 -2.89636e-15 -0)
(-7.56608e-30 -2.89636e-15 -0)
(-1.51322e-30 -2.89636e-15 -0)
(7.75523e-30 -2.89636e-15 -0)
(7.18778e-30 -2.89636e-15 -0)
(-3.40474e-30 -2.89636e-15 -0)
(-3.78304e-31 -2.89636e-15 -0)
(3.59389e-30 -2.89636e-15 -0)
(-9.4576e-31 -2.89636e-15 -0)
(2.08067e-30 -2.89636e-15 -0)
(3.78304e-31 -2.89636e-15 -0)
(3.97219e-30 -2.89636e-15 -0)
(5.86371e-30 -2.89636e-15 -0)
(2.45898e-30 -2.89636e-15 -0)
(4.3505e-30 -2.89636e-15 -0)
(-1.32406e-30 -2.89636e-15 -0)
(-9.8359e-30 -2.89636e-15 -0)
(-6.43117e-30 -2.89636e-15 -0)
(1.05925e-29 -2.89636e-15 -0)
(4.3505e-30 -2.89636e-15 -0)
(-8.32269e-30 -2.89636e-15 -0)
(-1.32406e-30 -2.89636e-15 -0)
(-4.91795e-30 -2.89636e-15 -0)
(-5.67456e-30 -2.89636e-15 -0)
(2.20365e-30 -2.89633e-15 -0)
(4.77457e-30 -2.89633e-15 -0)
(2.9382e-30 -2.89633e-15 -0)
(-1.83637e-30 -2.89633e-15 -0)
(3.67275e-31 -2.89633e-15 -0)