/*--------------------------------*- C++ -*----------------------------------*\
| =========                 |                                                 |
| \\      /  F ield         | foam-extend: Open Source CFD                    |
|  \\    /   O peration     | Version:     4.0                                |
|   \\  /    A nd           | Web:         http://www.foam-extend.org         |
|    \\/     M anipulation  |                                                 |
\*---------------------------------------------------------------------------*/
FoamFile
{
    version     2.0;
    format      ascii;
    class       volScalarField;
    location    "7";
    object      p;
}
// * * * * * * * * * * * * * * * * * * * * * * * * * * * * * * * * * * * * * //

dimensions      [0 2 -2 0 0 0 0];

internalField   nonuniform List<scalar> 
6960
(
3.09491e-07
4.59597e-07
4.56808e-07
4.58309e-07
4.58092e-07
4.59349e-07
4.56912e-07
4.56282e-07
4.55183e-07
4.54459e-07
4.53522e-07
4.53817e-07
4.54805e-07
4.5573e-07
4.55744e-07
4.55195e-07
4.55214e-07
4.54938e-07
4.53837e-07
4.52626e-07
4.52486e-07
4.53525e-07
4.54119e-07
4.54212e-07
4.54792e-07
4.55962e-07
4.56665e-07
4.56094e-07
4.55464e-07
4.55587e-07
4.55766e-07
4.55023e-07
4.53874e-07
4.53483e-07
4.53573e-07
4.53604e-07
4.5335e-07
4.54494e-07
4.5663e-07
4.58741e-07
4.60085e-07
4.59771e-07
4.59299e-07
4.56417e-07
4.5255e-07
4.48104e-07
4.44435e-07
4.44001e-07
4.43404e-07
4.476e-07
4.50475e-07
4.55856e-07
4.60125e-07
4.6027e-07
4.62036e-07
4.57876e-07
4.57553e-07
4.5285e-07
4.53894e-07
4.52151e-07
4.39778e-07
4.59459e-07
4.56793e-07
4.58327e-07
4.58104e-07
4.59363e-07
4.56918e-07
4.56283e-07
4.55177e-07
4.5445e-07
4.5351e-07
4.53806e-07
4.54796e-07
4.55727e-07
4.55746e-07
4.55202e-07
4.55223e-07
4.54948e-07
4.53845e-07
4.52632e-07
4.52487e-07
4.53521e-07
4.54112e-07
4.54204e-07
4.54783e-07
4.55954e-07
4.56659e-07
4.56091e-07
4.55466e-07
4.55592e-07
4.55774e-07
4.55033e-07
4.53885e-07
4.53491e-07
4.53577e-07
4.53601e-07
4.53341e-07
4.54483e-07
4.56617e-07
4.58732e-07
4.60083e-07
4.59776e-07
4.59311e-07
4.5643e-07
4.52565e-07
4.48114e-07
4.44441e-07
4.44001e-07
4.43398e-07
4.47591e-07
4.50459e-07
4.55843e-07
4.6011e-07
4.60264e-07
4.62037e-07
4.57882e-07
4.57566e-07
4.52859e-07
4.53897e-07
4.52142e-07
4.60903e-07
4.59257e-07
4.56773e-07
4.58337e-07
4.58117e-07
4.59385e-07
4.56938e-07
4.56295e-07
4.5518e-07
4.54443e-07
4.53497e-07
4.5379e-07
4.5478e-07
4.55718e-07
4.55747e-07
4.55212e-07
4.55239e-07
4.54964e-07
4.53861e-07
4.52642e-07
4.52489e-07
4.53514e-07
4.541e-07
4.54191e-07
4.54768e-07
4.5594e-07
4.56648e-07
4.56087e-07
4.55467e-07
4.55597e-07
4.55784e-07
4.55047e-07
4.53901e-07
4.53504e-07
4.53582e-07
4.53598e-07
4.53329e-07
4.54463e-07
4.56591e-07
4.58712e-07
4.60074e-07
4.59786e-07
4.59338e-07
4.56468e-07
4.52611e-07
4.48151e-07
4.44467e-07
4.44003e-07
4.43381e-07
4.47556e-07
4.50411e-07
4.55805e-07
4.6007e-07
4.60255e-07
4.62041e-07
4.57902e-07
4.57591e-07
4.52876e-07
4.53902e-07
4.52132e-07
4.51159e-07
4.59042e-07
4.56748e-07
4.5834e-07
4.58131e-07
4.59411e-07
4.56967e-07
4.56316e-07
4.5519e-07
4.54439e-07
4.53483e-07
4.5377e-07
4.54757e-07
4.55705e-07
4.55745e-07
4.55225e-07
4.5526e-07
4.54987e-07
4.53884e-07
4.52658e-07
4.52493e-07
4.53506e-07
4.54083e-07
4.54172e-07
4.54749e-07
4.55921e-07
4.56633e-07
4.5608e-07
4.55469e-07
4.55603e-07
4.55795e-07
4.55064e-07
4.53922e-07
4.53521e-07
4.53591e-07
4.53595e-07
4.53314e-07
4.54435e-07
4.56552e-07
4.5868e-07
4.60057e-07
4.59798e-07
4.59377e-07
4.56525e-07
4.52684e-07
4.48213e-07
4.44514e-07
4.44009e-07
4.4336e-07
4.47502e-07
4.50336e-07
4.55743e-07
4.60005e-07
4.60241e-07
4.62044e-07
4.57933e-07
4.57628e-07
4.52901e-07
4.53912e-07
4.52124e-07
4.47139e-07
4.58825e-07
4.56712e-07
4.58333e-07
4.58145e-07
4.59443e-07
4.57009e-07
4.56348e-07
4.55209e-07
4.54438e-07
4.53469e-07
4.53746e-07
4.54726e-07
4.55685e-07
4.5574e-07
4.55241e-07
4.55286e-07
4.55016e-07
4.53914e-07
4.52681e-07
4.52501e-07
4.53495e-07
4.54062e-07
4.54149e-07
4.54725e-07
4.55896e-07
4.56614e-07
4.56071e-07
4.55471e-07
4.5561e-07
4.55806e-07
4.55083e-07
4.53948e-07
4.53544e-07
4.53604e-07
4.53592e-07
4.53296e-07
4.544e-07
4.56501e-07
4.58637e-07
4.60031e-07
4.59812e-07
4.59427e-07
4.56605e-07
4.52787e-07
4.48301e-07
4.44583e-07
4.44021e-07
4.43333e-07
4.47426e-07
4.50233e-07
4.55655e-07
4.59912e-07
4.60222e-07
4.62044e-07
4.57974e-07
4.57675e-07
4.52935e-07
4.53926e-07
4.52117e-07
4.47544e-07
4.58603e-07
4.56665e-07
4.58318e-07
4.58159e-07
4.59479e-07
4.57061e-07
4.5639e-07
4.55237e-07
4.5444e-07
4.53454e-07
4.53717e-07
4.54688e-07
4.55659e-07
4.55732e-07
4.55258e-07
4.55317e-07
4.55051e-07
4.53952e-07
4.52709e-07
4.52512e-07
4.53484e-07
4.54036e-07
4.54122e-07
4.54695e-07
4.55867e-07
4.56589e-07
4.5606e-07
4.55472e-07
4.55617e-07
4.55819e-07
4.55105e-07
4.53979e-07
4.53571e-07
4.53619e-07
4.5359e-07
4.53275e-07
4.54357e-07
4.56438e-07
4.58581e-07
4.59995e-07
4.59827e-07
4.59488e-07
4.56704e-07
4.52917e-07
4.48416e-07
4.44676e-07
4.4404e-07
4.43303e-07
4.4733e-07
4.50103e-07
4.55543e-07
4.59793e-07
4.60196e-07
4.62042e-07
4.58026e-07
4.57732e-07
4.52978e-07
4.53944e-07
4.52111e-07
4.48166e-07
4.58369e-07
4.56608e-07
4.58293e-07
4.58171e-07
4.59518e-07
4.57122e-07
4.56442e-07
4.55273e-07
4.54447e-07
4.53441e-07
4.53685e-07
4.54644e-07
4.55627e-07
4.55721e-07
4.55277e-07
4.55352e-07
4.55091e-07
4.53996e-07
4.52744e-07
4.52527e-07
4.53471e-07
4.54007e-07
4.5409e-07
4.54662e-07
4.55832e-07
4.5656e-07
4.56047e-07
4.55473e-07
4.55624e-07
4.55832e-07
4.55129e-07
4.54014e-07
4.53603e-07
4.53638e-07
4.53588e-07
4.53253e-07
4.54309e-07
4.56363e-07
4.58513e-07
4.5995e-07
4.59842e-07
4.59557e-07
4.56822e-07
4.53074e-07
4.48557e-07
4.44791e-07
4.44067e-07
4.43271e-07
4.47216e-07
4.49947e-07
4.55407e-07
4.59648e-07
4.60163e-07
4.62035e-07
4.58086e-07
4.57799e-07
4.5303e-07
4.53966e-07
4.52107e-07
4.4834e-07
4.58125e-07
4.5654e-07
4.58258e-07
4.58181e-07
4.5956e-07
4.57192e-07
4.56503e-07
4.55318e-07
4.54457e-07
4.53428e-07
4.53651e-07
4.54593e-07
4.55589e-07
4.55706e-07
4.55298e-07
4.55391e-07
4.55137e-07
4.54046e-07
4.52785e-07
4.52545e-07
4.53458e-07
4.53974e-07
4.54055e-07
4.54624e-07
4.55793e-07
4.56527e-07
4.56031e-07
4.55474e-07
4.55631e-07
4.55845e-07
4.55155e-07
4.54053e-07
4.53639e-07
4.5366e-07
4.53587e-07
4.53229e-07
4.54254e-07
4.56278e-07
4.58433e-07
4.59895e-07
4.59856e-07
4.59634e-07
4.56957e-07
4.53256e-07
4.48725e-07
4.44931e-07
4.44103e-07
4.43239e-07
4.47086e-07
4.49769e-07
4.55246e-07
4.59477e-07
4.60121e-07
4.62024e-07
4.58155e-07
4.57875e-07
4.5309e-07
4.53992e-07
4.52103e-07
4.48396e-07
4.57872e-07
4.56462e-07
4.58213e-07
4.58187e-07
4.59604e-07
4.5727e-07
4.56572e-07
4.5537e-07
4.54472e-07
4.53418e-07
4.53614e-07
4.54537e-07
4.55546e-07
4.55687e-07
4.55319e-07
4.55434e-07
4.55188e-07
4.54103e-07
4.52832e-07
4.52567e-07
4.53445e-07
4.53938e-07
4.54016e-07
4.54582e-07
4.5575e-07
4.56489e-07
4.56013e-07
4.55475e-07
4.55638e-07
4.55858e-07
4.55183e-07
4.54096e-07
4.53678e-07
4.53685e-07
4.53586e-07
4.53203e-07
4.54194e-07
4.56182e-07
4.58342e-07
4.59829e-07
4.59868e-07
4.59716e-07
4.57108e-07
4.53462e-07
4.48917e-07
4.45093e-07
4.44151e-07
4.43208e-07
4.46941e-07
4.49569e-07
4.55063e-07
4.59282e-07
4.60071e-07
4.62007e-07
4.5823e-07
4.57958e-07
4.5316e-07
4.54023e-07
4.52101e-07
4.4847e-07
4.57611e-07
4.56373e-07
4.58156e-07
4.58188e-07
4.59648e-07
4.57354e-07
4.5665e-07
4.55431e-07
4.54491e-07
4.5341e-07
4.53575e-07
4.54476e-07
4.55497e-07
4.55665e-07
4.5534e-07
4.55478e-07
4.55243e-07
4.54166e-07
4.52884e-07
4.52593e-07
4.53432e-07
4.53901e-07
4.53975e-07
4.54537e-07
4.55702e-07
4.56447e-07
4.55992e-07
4.55475e-07
4.55645e-07
4.55871e-07
4.55212e-07
4.54142e-07
4.53722e-07
4.53713e-07
4.53587e-07
4.53177e-07
4.54129e-07
4.56077e-07
4.5824e-07
4.59753e-07
4.59877e-07
4.59803e-07
4.57272e-07
4.53691e-07
4.49135e-07
4.4528e-07
4.4421e-07
4.43181e-07
4.46785e-07
4.49349e-07
4.54856e-07
4.59061e-07
4.6001e-07
4.61983e-07
4.58312e-07
4.58049e-07
4.53238e-07
4.54058e-07
4.521e-07
4.48553e-07
4.57342e-07
4.56273e-07
4.58088e-07
4.58184e-07
4.5969e-07
4.57442e-07
4.56736e-07
4.555e-07
4.54516e-07
4.53405e-07
4.53536e-07
4.54412e-07
4.55443e-07
4.55639e-07
4.55362e-07
4.55525e-07
4.55301e-07
4.54234e-07
4.52943e-07
4.52623e-07
4.53419e-07
4.53861e-07
4.53931e-07
4.54489e-07
4.55651e-07
4.56402e-07
4.5597e-07
4.55474e-07
4.55651e-07
4.55884e-07
4.55241e-07
4.54191e-07
4.53769e-07
4.53744e-07
4.5359e-07
4.53151e-07
4.54061e-07
4.55963e-07
4.58126e-07
4.59667e-07
4.59881e-07
4.59891e-07
4.57449e-07
4.5394e-07
4.49376e-07
4.4549e-07
4.44284e-07
4.43159e-07
4.46619e-07
4.49112e-07
4.54628e-07
4.58816e-07
4.59937e-07
4.61951e-07
4.58398e-07
4.58147e-07
4.53325e-07
4.54098e-07
4.52101e-07
4.48631e-07
4.57067e-07
4.56163e-07
4.58009e-07
4.58173e-07
4.59731e-07
4.57534e-07
4.56828e-07
4.55576e-07
4.54546e-07
4.53404e-07
4.53497e-07
4.54343e-07
4.55385e-07
4.55609e-07
4.55382e-07
4.55573e-07
4.55362e-07
4.54307e-07
4.53007e-07
4.52657e-07
4.53407e-07
4.53819e-07
4.53885e-07
4.54438e-07
4.55596e-07
4.56352e-07
4.55945e-07
4.55473e-07
4.55657e-07
4.55896e-07
4.55272e-07
4.54243e-07
4.5382e-07
4.53778e-07
4.53594e-07
4.53126e-07
4.53989e-07
4.55841e-07
4.58002e-07
4.59569e-07
4.59879e-07
4.59981e-07
4.57635e-07
4.54207e-07
4.49641e-07
4.45725e-07
4.44372e-07
4.43145e-07
4.46446e-07
4.4886e-07
4.54379e-07
4.58548e-07
4.59852e-07
4.61909e-07
4.58487e-07
4.58249e-07
4.5342e-07
4.54142e-07
4.52103e-07
4.48701e-07
4.56786e-07
4.56044e-07
4.57917e-07
4.58153e-07
4.59769e-07
4.57629e-07
4.56926e-07
4.55659e-07
4.54582e-07
4.53407e-07
4.53458e-07
4.54272e-07
4.55322e-07
4.55574e-07
4.55402e-07
4.55622e-07
4.55426e-07
4.54384e-07
4.53076e-07
4.52696e-07
4.53396e-07
4.53777e-07
4.53837e-07
4.54384e-07
4.55537e-07
4.56299e-07
4.55918e-07
4.55471e-07
4.55662e-07
4.55908e-07
4.55303e-07
4.54297e-07
4.53873e-07
4.53815e-07
4.536e-07
4.53102e-07
4.53915e-07
4.55712e-07
4.57867e-07
4.5946e-07
4.59871e-07
4.60069e-07
4.57829e-07
4.54491e-07
4.49929e-07
4.45983e-07
4.44477e-07
4.4314e-07
4.46268e-07
4.48595e-07
4.54111e-07
4.58257e-07
4.59752e-07
4.61857e-07
4.58578e-07
4.58355e-07
4.53524e-07
4.54192e-07
4.52108e-07
4.48766e-07
4.565e-07
4.55914e-07
4.57813e-07
4.58126e-07
4.59803e-07
4.57724e-07
4.57029e-07
4.55748e-07
4.54623e-07
4.53416e-07
4.53421e-07
4.54199e-07
4.55254e-07
4.55536e-07
4.5542e-07
4.5567e-07
4.55492e-07
4.54465e-07
4.53151e-07
4.52739e-07
4.53388e-07
4.53735e-07
4.53788e-07
4.54328e-07
4.55475e-07
4.56242e-07
4.5589e-07
4.55469e-07
4.55667e-07
4.55918e-07
4.55334e-07
4.54354e-07
4.5393e-07
4.53854e-07
4.53608e-07
4.53079e-07
4.5384e-07
4.55577e-07
4.57723e-07
4.5934e-07
4.59855e-07
4.60153e-07
4.58029e-07
4.5479e-07
4.50237e-07
4.46266e-07
4.44601e-07
4.43147e-07
4.46088e-07
4.48319e-07
4.53824e-07
4.57944e-07
4.59637e-07
4.61792e-07
4.58669e-07
4.58464e-07
4.53637e-07
4.54246e-07
4.52114e-07
4.48829e-07
4.5621e-07
4.55776e-07
4.57696e-07
4.58089e-07
4.59831e-07
4.57819e-07
4.57137e-07
4.55844e-07
4.5467e-07
4.53429e-07
4.53385e-07
4.54124e-07
4.55183e-07
4.55494e-07
4.55436e-07
4.55718e-07
4.55559e-07
4.5455e-07
4.53231e-07
4.52787e-07
4.53381e-07
4.53692e-07
4.53739e-07
4.54271e-07
4.55411e-07
4.56182e-07
4.55858e-07
4.55465e-07
4.55671e-07
4.55928e-07
4.55365e-07
4.54412e-07
4.53989e-07
4.53897e-07
4.53619e-07
4.53058e-07
4.53763e-07
4.55436e-07
4.57569e-07
4.59209e-07
4.5983e-07
4.60233e-07
4.58233e-07
4.55101e-07
4.50566e-07
4.46571e-07
4.44743e-07
4.43168e-07
4.45909e-07
4.48036e-07
4.53519e-07
4.5761e-07
4.59506e-07
4.61713e-07
4.58758e-07
4.58575e-07
4.53757e-07
4.54305e-07
4.52122e-07
4.4889e-07
4.55918e-07
4.55629e-07
4.57567e-07
4.58041e-07
4.59852e-07
4.57911e-07
4.57248e-07
4.55946e-07
4.54724e-07
4.53449e-07
4.53353e-07
4.54049e-07
4.55108e-07
4.55447e-07
4.55449e-07
4.55765e-07
4.55627e-07
4.54638e-07
4.53316e-07
4.5284e-07
4.53376e-07
4.53651e-07
4.53689e-07
4.54213e-07
4.55343e-07
4.56118e-07
4.55825e-07
4.5546e-07
4.55673e-07
4.55936e-07
4.55396e-07
4.54471e-07
4.5405e-07
4.53942e-07
4.53633e-07
4.5304e-07
4.53687e-07
4.55291e-07
4.57406e-07
4.59066e-07
4.59794e-07
4.60305e-07
4.58437e-07
4.55421e-07
4.50913e-07
4.469e-07
4.44906e-07
4.43204e-07
4.45733e-07
4.47748e-07
4.532e-07
4.57255e-07
4.59358e-07
4.61619e-07
4.58843e-07
4.58685e-07
4.53884e-07
4.54369e-07
4.52132e-07
4.4895e-07
4.55625e-07
4.55474e-07
4.57425e-07
4.57983e-07
4.59866e-07
4.58001e-07
4.57362e-07
4.56052e-07
4.54783e-07
4.53476e-07
4.53323e-07
4.53975e-07
4.5503e-07
4.55397e-07
4.55459e-07
4.5581e-07
4.55695e-07
4.54729e-07
4.53405e-07
4.52898e-07
4.53375e-07
4.5361e-07
4.53639e-07
4.54153e-07
4.55273e-07
4.56051e-07
4.55789e-07
4.55454e-07
4.55674e-07
4.55943e-07
4.55426e-07
4.54532e-07
4.54114e-07
4.5399e-07
4.5365e-07
4.53025e-07
4.53611e-07
4.55143e-07
4.57235e-07
4.58912e-07
4.59748e-07
4.60369e-07
4.58641e-07
4.55749e-07
4.51277e-07
4.47251e-07
4.45091e-07
4.43258e-07
4.45564e-07
4.47458e-07
4.52866e-07
4.56882e-07
4.59191e-07
4.61509e-07
4.58924e-07
4.58794e-07
4.54018e-07
4.54437e-07
4.52144e-07
4.49012e-07
4.55332e-07
4.55311e-07
4.57272e-07
4.57913e-07
4.59871e-07
4.58085e-07
4.57477e-07
4.56162e-07
4.54849e-07
4.53509e-07
4.53298e-07
4.53901e-07
4.54949e-07
4.55342e-07
4.55467e-07
4.55852e-07
4.55762e-07
4.54821e-07
4.53499e-07
4.5296e-07
4.53376e-07
4.53572e-07
4.5359e-07
4.54093e-07
4.55201e-07
4.55982e-07
4.55751e-07
4.55446e-07
4.55674e-07
4.55949e-07
4.55456e-07
4.54593e-07
4.54179e-07
4.5404e-07
4.5367e-07
4.53014e-07
4.53537e-07
4.54993e-07
4.57057e-07
4.58747e-07
4.59689e-07
4.60422e-07
4.5884e-07
4.56082e-07
4.51656e-07
4.47623e-07
4.45298e-07
4.43332e-07
4.45405e-07
4.4717e-07
4.52521e-07
4.56492e-07
4.59006e-07
4.61381e-07
4.58997e-07
4.589e-07
4.54159e-07
4.5451e-07
4.52158e-07
4.49075e-07
4.5504e-07
4.55143e-07
4.57105e-07
4.57832e-07
4.59867e-07
4.58163e-07
4.57593e-07
4.56276e-07
4.54921e-07
4.5355e-07
4.53277e-07
4.53829e-07
4.54866e-07
4.55284e-07
4.5547e-07
4.55891e-07
4.55829e-07
4.54915e-07
4.53596e-07
4.53027e-07
4.53382e-07
4.53536e-07
4.53542e-07
4.54033e-07
4.55127e-07
4.55909e-07
4.55711e-07
4.55437e-07
4.55672e-07
4.55952e-07
4.55485e-07
4.54655e-07
4.54247e-07
4.54094e-07
4.53695e-07
4.53008e-07
4.53466e-07
4.54842e-07
4.56872e-07
4.58571e-07
4.59617e-07
4.60463e-07
4.59034e-07
4.56417e-07
4.52049e-07
4.48016e-07
4.45529e-07
4.43427e-07
4.45259e-07
4.46885e-07
4.52166e-07
4.56085e-07
4.588e-07
4.61234e-07
4.59061e-07
4.59e-07
4.54304e-07
4.54586e-07
4.52175e-07
4.49142e-07
4.54751e-07
4.5497e-07
4.56928e-07
4.57739e-07
4.59851e-07
4.58234e-07
4.57708e-07
4.56392e-07
4.54998e-07
4.53598e-07
4.53261e-07
4.5376e-07
4.54782e-07
4.55222e-07
4.55469e-07
4.55926e-07
4.55893e-07
4.55009e-07
4.53698e-07
4.53099e-07
4.53391e-07
4.53503e-07
4.53495e-07
4.53972e-07
4.55052e-07
4.55834e-07
4.55669e-07
4.55425e-07
4.55669e-07
4.55954e-07
4.55512e-07
4.54717e-07
4.54316e-07
4.5415e-07
4.53723e-07
4.53006e-07
4.53398e-07
4.5469e-07
4.56681e-07
4.58384e-07
4.59531e-07
4.6049e-07
4.59219e-07
4.56752e-07
4.52452e-07
4.48428e-07
4.45784e-07
4.43546e-07
4.45128e-07
4.46608e-07
4.51804e-07
4.55665e-07
4.58575e-07
4.61068e-07
4.59114e-07
4.59094e-07
4.54454e-07
4.54666e-07
4.52194e-07
4.49212e-07
4.54466e-07
4.54792e-07
4.56738e-07
4.57633e-07
4.59824e-07
4.58296e-07
4.57821e-07
4.5651e-07
4.55082e-07
4.53654e-07
4.53251e-07
4.53695e-07
4.54697e-07
4.55157e-07
4.55464e-07
4.55956e-07
4.55955e-07
4.55104e-07
4.53803e-07
4.53176e-07
4.53404e-07
4.53473e-07
4.53451e-07
4.53913e-07
4.54975e-07
4.55756e-07
4.55624e-07
4.55412e-07
4.55663e-07
4.55953e-07
4.55538e-07
4.54779e-07
4.54386e-07
4.54208e-07
4.53755e-07
4.5301e-07
4.53335e-07
4.5454e-07
4.56485e-07
4.58187e-07
4.59431e-07
4.60501e-07
4.59393e-07
4.57083e-07
4.52865e-07
4.48858e-07
4.46063e-07
4.4369e-07
4.45016e-07
4.46341e-07
4.51437e-07
4.55232e-07
4.5833e-07
4.6088e-07
4.59154e-07
4.5918e-07
4.54607e-07
4.5475e-07
4.52215e-07
4.49288e-07
4.54187e-07
4.54612e-07
4.56539e-07
4.57515e-07
4.59785e-07
4.58348e-07
4.57931e-07
4.56628e-07
4.5517e-07
4.53718e-07
4.53248e-07
4.53633e-07
4.54611e-07
4.55089e-07
4.55455e-07
4.55982e-07
4.56014e-07
4.55199e-07
4.5391e-07
4.53257e-07
4.53422e-07
4.53447e-07
4.53409e-07
4.53854e-07
4.54898e-07
4.55676e-07
4.55577e-07
4.55397e-07
4.55656e-07
4.55951e-07
4.55563e-07
4.54841e-07
4.54458e-07
4.54269e-07
4.53792e-07
4.5302e-07
4.53276e-07
4.54391e-07
4.56285e-07
4.57981e-07
4.59317e-07
4.60495e-07
4.59554e-07
4.57407e-07
4.53283e-07
4.49305e-07
4.46367e-07
4.43861e-07
4.44925e-07
4.46088e-07
4.51068e-07
4.54788e-07
4.58064e-07
4.6067e-07
4.59179e-07
4.59256e-07
4.54762e-07
4.54836e-07
4.52238e-07
4.49369e-07
4.53915e-07
4.5443e-07
4.56329e-07
4.57386e-07
4.59733e-07
4.58388e-07
4.58038e-07
4.56746e-07
4.55264e-07
4.53789e-07
4.53251e-07
4.53577e-07
4.54525e-07
4.55018e-07
4.5544e-07
4.56003e-07
4.5607e-07
4.55292e-07
4.54021e-07
4.53343e-07
4.53445e-07
4.53425e-07
4.5337e-07
4.53797e-07
4.54819e-07
4.55594e-07
4.55528e-07
4.5538e-07
4.55646e-07
4.55946e-07
4.55586e-07
4.54902e-07
4.5453e-07
4.54333e-07
4.53833e-07
4.53035e-07
4.53223e-07
4.54247e-07
4.56082e-07
4.57766e-07
4.59187e-07
4.60471e-07
4.59699e-07
4.57723e-07
4.53706e-07
4.49765e-07
4.46695e-07
4.44059e-07
4.44858e-07
4.45852e-07
4.50699e-07
4.54337e-07
4.57778e-07
4.60438e-07
4.59187e-07
4.59319e-07
4.54917e-07
4.54923e-07
4.52264e-07
4.49457e-07
4.53651e-07
4.54248e-07
4.5611e-07
4.57244e-07
4.59667e-07
4.58416e-07
4.58139e-07
4.56862e-07
4.55362e-07
4.53868e-07
4.53261e-07
4.53526e-07
4.5444e-07
4.54944e-07
4.55421e-07
4.56018e-07
4.56121e-07
4.55384e-07
4.54133e-07
4.53434e-07
4.53473e-07
4.53408e-07
4.53335e-07
4.53741e-07
4.54741e-07
4.5551e-07
4.55476e-07
4.5536e-07
4.55634e-07
4.55939e-07
4.55607e-07
4.54962e-07
4.54603e-07
4.54399e-07
4.53879e-07
4.53058e-07
4.53177e-07
4.54106e-07
4.55878e-07
4.57543e-07
4.59042e-07
4.60427e-07
4.59827e-07
4.58026e-07
4.54129e-07
4.50238e-07
4.47047e-07
4.44285e-07
4.44818e-07
4.45636e-07
4.50334e-07
4.53881e-07
4.57472e-07
4.60183e-07
4.59177e-07
4.59369e-07
4.55072e-07
4.55012e-07
4.52291e-07
4.49552e-07
4.53398e-07
4.54067e-07
4.55883e-07
4.57092e-07
4.59587e-07
4.5843e-07
4.58233e-07
4.56975e-07
4.55464e-07
4.53955e-07
4.53279e-07
4.53481e-07
4.54356e-07
4.54869e-07
4.55397e-07
4.56026e-07
4.56168e-07
4.55473e-07
4.54246e-07
4.53528e-07
4.53506e-07
4.53396e-07
4.53303e-07
4.53688e-07
4.54662e-07
4.55425e-07
4.55422e-07
4.55338e-07
4.55619e-07
4.55929e-07
4.55625e-07
4.55021e-07
4.54676e-07
4.54466e-07
4.53929e-07
4.53087e-07
4.53138e-07
4.53971e-07
4.55674e-07
4.57313e-07
4.58882e-07
4.60363e-07
4.59935e-07
4.58315e-07
4.5455e-07
4.50721e-07
4.47422e-07
4.44541e-07
4.44807e-07
4.45444e-07
4.49976e-07
4.53421e-07
4.57148e-07
4.59904e-07
4.59147e-07
4.59402e-07
4.55224e-07
4.55102e-07
4.5232e-07
4.49655e-07
4.53156e-07
4.5389e-07
4.55649e-07
4.5693e-07
4.59492e-07
4.5843e-07
4.5832e-07
4.57085e-07
4.55569e-07
4.54048e-07
4.53304e-07
4.53444e-07
4.54275e-07
4.54792e-07
4.55368e-07
4.56028e-07
4.5621e-07
4.5556e-07
4.54361e-07
4.53626e-07
4.53545e-07
4.5339e-07
4.53276e-07
4.53637e-07
4.54584e-07
4.55338e-07
4.55366e-07
4.55313e-07
4.55602e-07
4.55916e-07
4.55642e-07
4.55078e-07
4.54749e-07
4.54536e-07
4.53984e-07
4.53123e-07
4.53107e-07
4.53843e-07
4.5547e-07
4.57078e-07
4.58708e-07
4.60279e-07
4.60021e-07
4.58586e-07
4.54966e-07
4.51212e-07
4.47819e-07
4.44826e-07
4.44828e-07
4.45277e-07
4.49628e-07
4.52962e-07
4.56806e-07
4.59603e-07
4.59096e-07
4.59419e-07
4.55372e-07
4.55191e-07
4.52351e-07
4.49765e-07
4.52928e-07
4.53717e-07
4.55409e-07
4.56758e-07
4.59383e-07
4.58415e-07
4.58398e-07
4.57189e-07
4.55676e-07
4.54148e-07
4.53338e-07
4.53414e-07
4.54196e-07
4.54714e-07
4.55333e-07
4.56024e-07
4.56245e-07
4.55643e-07
4.54476e-07
4.53728e-07
4.53589e-07
4.5339e-07
4.53253e-07
4.5359e-07
4.54506e-07
4.55251e-07
4.55308e-07
4.55285e-07
4.55582e-07
4.55901e-07
4.55656e-07
4.55134e-07
4.54821e-07
4.54607e-07
4.54044e-07
4.53166e-07
4.53084e-07
4.53723e-07
4.55269e-07
4.56838e-07
4.58519e-07
4.60173e-07
4.60085e-07
4.58837e-07
4.55374e-07
4.51707e-07
4.48237e-07
4.4514e-07
4.44882e-07
4.45141e-07
4.49294e-07
4.52506e-07
4.56447e-07
4.59279e-07
4.59021e-07
4.59415e-07
4.55515e-07
4.55278e-07
4.52384e-07
4.49883e-07
4.52714e-07
4.5355e-07
4.55165e-07
4.56577e-07
4.59259e-07
4.58384e-07
4.58467e-07
4.57286e-07
4.55785e-07
4.54255e-07
4.53379e-07
4.53393e-07
4.54121e-07
4.54636e-07
4.55295e-07
4.56012e-07
4.56275e-07
4.55721e-07
4.5459e-07
4.53832e-07
4.53638e-07
4.53396e-07
4.53235e-07
4.53545e-07
4.5443e-07
4.55163e-07
4.55248e-07
4.55255e-07
4.55559e-07
4.55883e-07
4.55667e-07
4.55188e-07
4.54893e-07
4.54679e-07
4.54108e-07
4.53217e-07
4.53071e-07
4.53611e-07
4.55072e-07
4.56594e-07
4.58316e-07
4.60045e-07
4.60124e-07
4.59066e-07
4.55771e-07
4.52203e-07
4.48673e-07
4.45484e-07
4.4497e-07
4.45036e-07
4.48976e-07
4.52056e-07
4.56074e-07
4.58933e-07
4.58922e-07
4.59391e-07
4.55649e-07
4.55362e-07
4.52418e-07
4.50009e-07
4.52516e-07
4.5339e-07
4.54918e-07
4.5639e-07
4.5912e-07
4.58337e-07
4.58525e-07
4.57376e-07
4.55895e-07
4.54367e-07
4.53428e-07
4.5338e-07
4.5405e-07
4.54558e-07
4.55251e-07
4.55994e-07
4.56297e-07
4.55795e-07
4.54703e-07
4.5394e-07
4.53693e-07
4.53409e-07
4.53223e-07
4.53505e-07
4.54356e-07
4.55074e-07
4.55187e-07
4.55222e-07
4.55534e-07
4.55862e-07
4.55676e-07
4.55239e-07
4.54964e-07
4.54753e-07
4.54176e-07
4.53275e-07
4.53067e-07
4.5351e-07
4.54879e-07
4.56349e-07
4.58102e-07
4.59897e-07
4.60137e-07
4.59269e-07
4.56154e-07
4.52698e-07
4.49126e-07
4.45856e-07
4.45094e-07
4.44965e-07
4.48678e-07
4.51616e-07
4.55689e-07
4.58566e-07
4.58799e-07
4.59345e-07
4.55774e-07
4.55443e-07
4.52452e-07
4.50143e-07
4.52336e-07
4.5324e-07
4.5467e-07
4.56198e-07
4.58967e-07
4.58274e-07
4.5857e-07
4.57457e-07
4.56005e-07
4.54483e-07
4.53485e-07
4.53376e-07
4.53984e-07
4.54481e-07
4.55203e-07
4.55969e-07
4.56313e-07
4.55863e-07
4.54815e-07
4.54049e-07
4.53753e-07
4.53428e-07
4.53217e-07
4.53469e-07
4.54283e-07
4.54985e-07
4.55123e-07
4.55186e-07
4.55505e-07
4.55838e-07
4.55682e-07
4.55287e-07
4.55033e-07
4.54827e-07
4.54248e-07
4.5334e-07
4.53073e-07
4.53419e-07
4.54693e-07
4.56104e-07
4.57875e-07
4.59727e-07
4.60123e-07
4.59446e-07
4.5652e-07
4.53188e-07
4.49593e-07
4.46254e-07
4.45255e-07
4.44931e-07
4.48404e-07
4.51189e-07
4.55293e-07
4.58179e-07
4.5865e-07
4.59275e-07
4.55888e-07
4.55518e-07
4.52487e-07
4.50284e-07
4.52174e-07
4.531e-07
4.54423e-07
4.56001e-07
4.58801e-07
4.58195e-07
4.58604e-07
4.57528e-07
4.56114e-07
4.54603e-07
4.5355e-07
4.53381e-07
4.53924e-07
4.54406e-07
4.55152e-07
4.55936e-07
4.56322e-07
4.55925e-07
4.54925e-07
4.5416e-07
4.53818e-07
4.53453e-07
4.53216e-07
4.53437e-07
4.54213e-07
4.54897e-07
4.55058e-07
4.55148e-07
4.55474e-07
4.55811e-07
4.55684e-07
4.55332e-07
4.55101e-07
4.54902e-07
4.54323e-07
4.53413e-07
4.53089e-07
4.5334e-07
4.54515e-07
4.5586e-07
4.57639e-07
4.59537e-07
4.60083e-07
4.59593e-07
4.56865e-07
4.53671e-07
4.50072e-07
4.46679e-07
4.45453e-07
4.44935e-07
4.48156e-07
4.50778e-07
4.5489e-07
4.57775e-07
4.58475e-07
4.5918e-07
4.55987e-07
4.55587e-07
4.52522e-07
4.50433e-07
4.52032e-07
4.52973e-07
4.54178e-07
4.55802e-07
4.58621e-07
4.58101e-07
4.58623e-07
4.57587e-07
4.5622e-07
4.54726e-07
4.53623e-07
4.53396e-07
4.53869e-07
4.54333e-07
4.55097e-07
4.55897e-07
4.56322e-07
4.55981e-07
4.55031e-07
4.54272e-07
4.53888e-07
4.53486e-07
4.53222e-07
4.53411e-07
4.54146e-07
4.5481e-07
4.54992e-07
4.55107e-07
4.55439e-07
4.5578e-07
4.55684e-07
4.55374e-07
4.55166e-07
4.54976e-07
4.54402e-07
4.53492e-07
4.53116e-07
4.53273e-07
4.54346e-07
4.5562e-07
4.57394e-07
4.59328e-07
4.60014e-07
4.5971e-07
4.57186e-07
4.54141e-07
4.50559e-07
4.47127e-07
4.45688e-07
4.44979e-07
4.47938e-07
4.50388e-07
4.54483e-07
4.57354e-07
4.58274e-07
4.59059e-07
4.56072e-07
4.55647e-07
4.52556e-07
4.50589e-07
4.5191e-07
4.52859e-07
4.53937e-07
4.55602e-07
4.58429e-07
4.57991e-07
4.58629e-07
4.57634e-07
4.56323e-07
4.54851e-07
4.53702e-07
4.5342e-07
4.53821e-07
4.54264e-07
4.55039e-07
4.55851e-07
4.56316e-07
4.56029e-07
4.55134e-07
4.54384e-07
4.53962e-07
4.53525e-07
4.53235e-07
4.5339e-07
4.54082e-07
4.54723e-07
4.54924e-07
4.55063e-07
4.55402e-07
4.55747e-07
4.5568e-07
4.55413e-07
4.55229e-07
4.5505e-07
4.54485e-07
4.53578e-07
4.53153e-07
4.53219e-07
4.54188e-07
4.55384e-07
4.57143e-07
4.59102e-07
4.59919e-07
4.59795e-07
4.57482e-07
4.54597e-07
4.51051e-07
4.47596e-07
4.45959e-07
4.45064e-07
4.47753e-07
4.50021e-07
4.54075e-07
4.56921e-07
4.58048e-07
4.58911e-07
4.56139e-07
4.55699e-07
4.52589e-07
4.50751e-07
4.5181e-07
4.5276e-07
4.53702e-07
4.55405e-07
4.58225e-07
4.57866e-07
4.5862e-07
4.57668e-07
4.56422e-07
4.54976e-07
4.53787e-07
4.53454e-07
4.5378e-07
4.54198e-07
4.54978e-07
4.558e-07
4.56301e-07
4.5607e-07
4.55232e-07
4.54496e-07
4.54041e-07
4.53572e-07
4.53254e-07
4.53375e-07
4.54022e-07
4.54639e-07
4.54856e-07
4.55016e-07
4.55361e-07
4.5571e-07
4.55672e-07
4.55447e-07
4.55289e-07
4.55124e-07
4.54569e-07
4.5367e-07
4.532e-07
4.53179e-07
4.54042e-07
4.55156e-07
4.56887e-07
4.58858e-07
4.59796e-07
4.59847e-07
4.57749e-07
4.55034e-07
4.51545e-07
4.48083e-07
4.46265e-07
4.45191e-07
4.47603e-07
4.49681e-07
4.53669e-07
4.56477e-07
4.57797e-07
4.58737e-07
4.56187e-07
4.55739e-07
4.5262e-07
4.50919e-07
4.51731e-07
4.52676e-07
4.53476e-07
4.5521e-07
4.58012e-07
4.57727e-07
4.58597e-07
4.57688e-07
4.56515e-07
4.55101e-07
4.53879e-07
4.53497e-07
4.53747e-07
4.54136e-07
4.54916e-07
4.55742e-07
4.56278e-07
4.56103e-07
4.55325e-07
4.54607e-07
4.54123e-07
4.53624e-07
4.5328e-07
4.53365e-07
4.53966e-07
4.54557e-07
4.54787e-07
4.54967e-07
4.55318e-07
4.5567e-07
4.55661e-07
4.55478e-07
4.55346e-07
4.55196e-07
4.54655e-07
4.53768e-07
4.53258e-07
4.53153e-07
4.53909e-07
4.54935e-07
4.56628e-07
4.586e-07
4.59647e-07
4.59865e-07
4.57985e-07
4.55448e-07
4.52036e-07
4.48585e-07
4.46606e-07
4.45359e-07
4.47491e-07
4.49373e-07
4.53269e-07
4.56026e-07
4.57522e-07
4.58536e-07
4.56215e-07
4.55768e-07
4.52649e-07
4.51093e-07
4.51676e-07
4.52608e-07
4.53259e-07
4.55021e-07
4.57789e-07
4.57577e-07
4.58559e-07
4.57694e-07
4.56602e-07
4.55223e-07
4.53975e-07
4.53549e-07
4.53722e-07
4.5408e-07
4.54852e-07
4.55679e-07
4.56248e-07
4.56127e-07
4.55412e-07
4.54715e-07
4.54208e-07
4.53683e-07
4.53314e-07
4.53363e-07
4.53915e-07
4.54477e-07
4.54718e-07
4.54916e-07
4.55271e-07
4.55627e-07
4.55646e-07
4.55504e-07
4.554e-07
4.55266e-07
4.54743e-07
4.53871e-07
4.53325e-07
4.53141e-07
4.53791e-07
4.54725e-07
4.56369e-07
4.5833e-07
4.59473e-07
4.5985e-07
4.58188e-07
4.55838e-07
4.52522e-07
4.49099e-07
4.46978e-07
4.45569e-07
4.47419e-07
4.49097e-07
4.52879e-07
4.55571e-07
4.57226e-07
4.58309e-07
4.5622e-07
4.55783e-07
4.52674e-07
4.51271e-07
4.51642e-07
4.52558e-07
4.53054e-07
4.5484e-07
4.5756e-07
4.57415e-07
4.58505e-07
4.57684e-07
4.56682e-07
4.55343e-07
4.54076e-07
4.53611e-07
4.53706e-07
4.5403e-07
4.54788e-07
4.55611e-07
4.56209e-07
4.56143e-07
4.55493e-07
4.54821e-07
4.54296e-07
4.53748e-07
4.53354e-07
4.53366e-07
4.5387e-07
4.54401e-07
4.5465e-07
4.54863e-07
4.55222e-07
4.55581e-07
4.55627e-07
4.55525e-07
4.55449e-07
4.55334e-07
4.54832e-07
4.53978e-07
4.53402e-07
4.53144e-07
4.53687e-07
4.54527e-07
4.56111e-07
4.58049e-07
4.59275e-07
4.59801e-07
4.58357e-07
4.562e-07
4.52997e-07
4.49621e-07
4.47379e-07
4.4582e-07
4.47388e-07
4.48859e-07
4.52504e-07
4.55116e-07
4.5691e-07
4.58055e-07
4.56202e-07
4.55783e-07
4.52695e-07
4.51453e-07
4.51632e-07
4.52525e-07
4.52863e-07
4.54668e-07
4.57324e-07
4.57243e-07
4.58437e-07
4.57659e-07
4.56753e-07
4.55458e-07
4.54181e-07
4.5368e-07
4.53697e-07
4.53986e-07
4.54724e-07
4.55539e-07
4.56164e-07
4.5615e-07
4.55566e-07
4.54924e-07
4.54386e-07
4.53819e-07
4.53401e-07
4.53377e-07
4.5383e-07
4.54328e-07
4.54582e-07
4.54808e-07
4.5517e-07
4.55531e-07
4.55605e-07
4.55542e-07
4.55493e-07
4.55399e-07
4.5492e-07
4.5409e-07
4.53489e-07
4.53161e-07
4.536e-07
4.54343e-07
4.55858e-07
4.5776e-07
4.59056e-07
4.59719e-07
4.58489e-07
4.5653e-07
4.53458e-07
4.50147e-07
4.47806e-07
4.46109e-07
4.474e-07
4.4866e-07
4.52146e-07
4.54665e-07
4.56577e-07
4.57778e-07
4.56161e-07
4.55768e-07
4.52712e-07
4.51638e-07
4.51643e-07
4.5251e-07
4.52687e-07
4.54507e-07
4.57085e-07
4.57064e-07
4.58355e-07
4.57619e-07
4.56816e-07
4.55567e-07
4.54288e-07
4.53757e-07
4.53698e-07
4.5395e-07
4.54662e-07
4.55464e-07
4.56111e-07
4.56147e-07
4.55631e-07
4.55022e-07
4.54478e-07
4.53894e-07
4.53454e-07
4.53395e-07
4.53796e-07
4.5426e-07
4.54515e-07
4.54752e-07
4.55115e-07
4.55479e-07
4.55578e-07
4.55553e-07
4.55533e-07
4.5546e-07
4.55008e-07
4.54204e-07
4.53583e-07
4.53193e-07
4.5353e-07
4.54174e-07
4.55611e-07
4.57467e-07
4.58816e-07
4.59605e-07
4.58585e-07
4.56826e-07
4.539e-07
4.50672e-07
4.48256e-07
4.46436e-07
4.47455e-07
4.48502e-07
4.5181e-07
4.54223e-07
4.56229e-07
4.57477e-07
4.56094e-07
4.55736e-07
4.52722e-07
4.51826e-07
4.51677e-07
4.52512e-07
4.52527e-07
4.54359e-07
4.56844e-07
4.56879e-07
4.58258e-07
4.57564e-07
4.56868e-07
4.55669e-07
4.54396e-07
4.5384e-07
4.53707e-07
4.53921e-07
4.54601e-07
4.55386e-07
4.56051e-07
4.56136e-07
4.55688e-07
4.55116e-07
4.54569e-07
4.53975e-07
4.53514e-07
4.53419e-07
4.53768e-07
4.54196e-07
4.5445e-07
4.54694e-07
4.55058e-07
4.55423e-07
4.55547e-07
4.55559e-07
4.55568e-07
4.55518e-07
4.55095e-07
4.54321e-07
4.53686e-07
4.53238e-07
4.53477e-07
4.54022e-07
4.55372e-07
4.5717e-07
4.5856e-07
4.5946e-07
4.58643e-07
4.57087e-07
4.54321e-07
4.51192e-07
4.48725e-07
4.46797e-07
4.47553e-07
4.48389e-07
4.515e-07
4.53793e-07
4.5587e-07
4.57155e-07
4.56003e-07
4.55687e-07
4.52726e-07
4.52014e-07
4.51731e-07
4.5253e-07
4.52386e-07
4.54225e-07
4.56602e-07
4.5669e-07
4.58149e-07
4.57493e-07
4.5691e-07
4.55763e-07
4.54505e-07
4.5393e-07
4.53725e-07
4.539e-07
4.54542e-07
4.55306e-07
4.55985e-07
4.56116e-07
4.55736e-07
4.55203e-07
4.54661e-07
4.54059e-07
4.53581e-07
4.53451e-07
4.53748e-07
4.54138e-07
4.54387e-07
4.54636e-07
4.54999e-07
4.55364e-07
4.55512e-07
4.5556e-07
4.55597e-07
4.55572e-07
4.5518e-07
4.54439e-07
4.53795e-07
4.53297e-07
4.53441e-07
4.53887e-07
4.55145e-07
4.56875e-07
4.58288e-07
4.59287e-07
4.58664e-07
4.57309e-07
4.54716e-07
4.51703e-07
4.49208e-07
4.4719e-07