/*--------------------------------*- C++ -*----------------------------------*\
| =========                 |                                                 |
| \\      /  F ield         | foam-extend: Open Source CFD                    |
|  \\    /   O peration     | Version:     4.0                                |
|   \\  /    A nd           | Web:         http://www.foam-extend.org         |
|    \\/     M anipulation  |                                                 |
\*---------------------------------------------------------------------------*/
FoamFile
{
    version     2.0;
    format      ascii;
    class       volVectorField;
    location    "7";
    object      U;
}
// * * * * * * * * * * * * * * * * * * * * * * * * * * * * * * * * * * * * * //

dimensions      [0 1 -1 0 0 0 0];

internalField   nonuniform List<vector> 
6960
(
(-9.56713e-15 -2.53992e-13 0)
(-7.44486e-15 -1.64899e-16 0)
(9.05824e-16 -1.97823e-17 0)
(-5.11046e-16 1.97268e-18 0)
(2.11186e-16 -4.99676e-19 0)
(-1.8569e-16 -1.28488e-18 0)
(1.05436e-16 -1.55862e-18 0)
(-3.15653e-17 -1.94656e-18 0)
(1.15079e-16 -1.45824e-18 0)
(6.55773e-17 -9.78866e-19 0)
(1.36544e-16 -2.06997e-20 0)
(1.15796e-16 7.61548e-19 0)
(1.49731e-16 1.43015e-18 0)
(1.36402e-16 1.62133e-18 0)
(1.47558e-16 1.51689e-18 0)
(1.44363e-16 1.09667e-18 0)
(1.60806e-16 5.04054e-19 0)
(1.68407e-16 -1.79685e-19 0)
(1.79032e-16 -6.95893e-19 0)
(1.86395e-16 -9.10031e-19 0)
(1.98853e-16 -8.22634e-19 0)
(2.04144e-16 -5.33106e-19 0)
(2.00052e-16 -7.60778e-20 0)
(1.88168e-16 4.80201e-19 0)
(1.75525e-16 9.80368e-19 0)
(1.59393e-16 1.27968e-18 0)
(1.37365e-16 1.37491e-18 0)
(1.11968e-16 1.32229e-18 0)
(8.87047e-17 1.13072e-18 0)
(6.74417e-17 8.12724e-19 0)
(4.57679e-17 4.7355e-19 0)
(2.36756e-17 2.21498e-19 0)
(2.51109e-18 5.77235e-20 0)
(-1.85071e-17 -5.40833e-20 0)
(-3.9958e-17 -7.84715e-20 0)
(-6.05224e-17 2.78987e-20 0)
(-7.9823e-17 2.02505e-19 0)
(-9.915e-17 3.50011e-19 0)
(-1.17282e-16 4.73469e-19 0)
(-1.30307e-16 6.15413e-19 0)
(-1.37931e-16 7.2548e-19 0)
(-1.44271e-16 6.98565e-19 0)
(-1.50817e-16 5.38895e-19 0)
(-1.53845e-16 3.29403e-19 0)
(-1.52639e-16 1.01862e-19 0)
(-1.52414e-16 -1.90063e-19 0)
(-1.56761e-16 -4.98374e-19 0)
(-1.61169e-16 -7.08528e-19 0)
(-1.61237e-16 -7.33119e-19 0)
(-1.58504e-16 -6.39105e-19 0)
(-1.56617e-16 -4.58629e-19 0)
(-1.51886e-16 -2.2489e-19 0)
(-1.40478e-16 4.8492e-20 0)
(-1.22355e-16 2.21904e-19 0)
(-1.0497e-16 2.26384e-19 0)
(-8.66457e-17 3.79617e-20 0)
(-7.06784e-17 -2.26388e-19 0)
(-4.91704e-17 -5.59577e-19 0)
(-3.51684e-17 -7.23222e-19 0)
(-9.37439e-18 -7.88513e-19 0)
(-2.04009e-14 -5.29974e-13 0)
(-1.43726e-14 -5.09329e-16 0)
(2.46881e-15 -1.20477e-16 0)
(-1.51859e-15 1.38621e-17 0)
(5.97394e-16 -4.51149e-18 0)
(-5.51608e-16 -1.25774e-18 0)
(2.96473e-16 -4.86768e-18 0)
(-9.88993e-17 -4.88163e-18 0)
(3.32435e-16 -5.05164e-18 0)
(1.92526e-16 -3.69841e-18 0)
(4.02254e-16 -1.80165e-18 0)
(3.46975e-16 4.5176e-19 0)
(4.52072e-16 2.12521e-18 0)
(4.16832e-16 2.97787e-18 0)
(4.48849e-16 3.07333e-18 0)
(4.39086e-16 2.54277e-18 0)
(4.88508e-16 1.32838e-18 0)
(5.11105e-16 -2.48689e-19 0)
(5.39269e-16 -1.48312e-18 0)
(5.57941e-16 -1.92892e-18 0)
(5.94496e-16 -1.74834e-18 0)
(6.11108e-16 -1.1657e-18 0)
(5.98229e-16 -1.09229e-19 0)
(5.61634e-16 1.3676e-18 0)
(5.24273e-16 2.76132e-18 0)
(4.77407e-16 3.61857e-18 0)
(4.119e-16 3.98706e-18 0)
(3.35379e-16 4.06946e-18 0)
(2.65254e-16 3.80028e-18 0)
(2.00993e-16 3.11454e-18 0)
(1.35087e-16 2.2983e-18 0)
(6.81518e-17 1.678e-18 0)
(4.23534e-18 1.23451e-18 0)
(-5.99622e-17 8.51848e-19 0)
(-1.25849e-16 6.63554e-19 0)
(-1.87767e-16 8.16576e-19 0)
(-2.44704e-16 1.13498e-18 0)
(-3.02744e-16 1.3835e-18 0)
(-3.58538e-16 1.62911e-18 0)
(-3.97853e-16 1.989e-18 0)
(-4.18991e-16 2.2664e-18 0)
(-4.36975e-16 2.16524e-18 0)
(-4.57804e-16 1.75093e-18 0)
(-4.67911e-16 1.23929e-18 0)
(-4.63094e-16 6.22275e-19 0)
(-4.60946e-16 -2.71505e-19 0)
(-4.74649e-16 -1.23864e-18 0)
(-4.8924e-16 -1.91324e-18 0)
(-4.89013e-16 -2.09755e-18 0)
(-4.79249e-16 -2.00356e-18 0)
(-4.73342e-16 -1.65005e-18 0)
(-4.59945e-16 -1.04463e-18 0)
(-4.2567e-16 -2.64903e-19 0)
(-3.70196e-16 2.49454e-19 0)
(-3.1744e-16 2.67592e-19 0)
(-2.62585e-16 -2.27564e-19 0)
(-2.1438e-16 -9.84882e-19 0)
(-1.49299e-16 -2.00409e-18 0)
(-1.06571e-16 -2.61057e-18 0)
(-2.81706e-17 -2.98978e-18 0)
(-3.02617e-14 -5.20479e-13 0)
(-2.06108e-14 -9.52969e-16 0)
(3.80396e-15 -3.40046e-16 0)
(-2.52702e-15 4.25884e-17 0)
(9.52531e-16 -1.62306e-17 0)
(-9.16335e-16 4.07298e-18 0)
(4.72309e-16 -9.51219e-18 0)
(-1.69438e-16 -6.01696e-18 0)
(5.41589e-16 -1.03312e-17 0)
(3.18446e-16 -7.76158e-18 0)
(6.65977e-16 -6.95289e-18 0)
(5.82167e-16 -3.16568e-18 0)
(7.61637e-16 -1.16896e-18 0)
(7.08542e-16 9.15168e-19 0)
(7.60987e-16 1.78612e-18 0)
(7.44837e-16 2.44274e-18 0)
(8.27325e-16 1.63449e-18 0)
(8.64665e-16 1.01913e-19 0)
(9.07683e-16 -1.28212e-18 0)
(9.35163e-16 -1.56953e-18 0)
(9.95048e-16 -1.35145e-18 0)
(1.02326e-15 -8.8018e-19 0)
(1.00095e-15 2.32387e-19 0)
(9.38719e-16 2.2576e-18 0)
(8.76635e-16 4.3465e-18 0)
(7.9956e-16 5.71238e-18 0)
(6.90316e-16 6.5085e-18 0)
(5.61685e-16 7.15229e-18 0)
(4.43628e-16 7.37425e-18 0)
(3.35166e-16 6.8487e-18 0)
(2.23531e-16 5.95978e-18 0)
(1.10419e-16 5.24537e-18 0)
(2.62739e-18 4.61883e-18 0)
(-1.06275e-16 3.85371e-18 0)
(-2.18318e-16 3.23711e-18 0)
(-3.22401e-16 3.08848e-18 0)
(-4.16951e-16 3.14694e-18 0)
(-5.14315e-16 3.09411e-18 0)
(-6.09224e-16 3.16801e-18 0)
(-6.75465e-16 3.60179e-18 0)
(-7.09379e-16 3.98592e-18 0)
(-7.38638e-16 3.80277e-18 0)
(-7.74744e-16 3.22985e-18 0)
(-7.92686e-16 2.60691e-18 0)
(-7.83421e-16 1.74177e-18 0)
(-7.78238e-16 2.34349e-19 0)
(-8.01534e-16 -1.51091e-18 0)
(-8.26978e-16 -2.79779e-18 0)
(-8.25918e-16 -3.37448e-18 0)
(-8.07848e-16 -3.62001e-18 0)
(-7.97548e-16 -3.4675e-18 0)
(-7.75796e-16 -2.7117e-18 0)
(-7.18356e-16 -1.53376e-18 0)
(-6.24442e-16 -6.6633e-19 0)
(-5.35454e-16 -6.28423e-19 0)
(-4.43562e-16 -1.27397e-18 0)
(-3.62191e-16 -2.48199e-18 0)
(-2.52379e-16 -4.15723e-18 0)
(-1.79592e-16 -5.49268e-18 0)
(-4.72624e-17 -6.52614e-18 0)
(-4.04075e-14 -4.87331e-13 0)
(-2.74208e-14 -1.6084e-15 0)
(4.90892e-15 -6.64234e-16 0)
(-3.53716e-15 8.70479e-17 0)
(1.27549e-15 -3.77331e-17 0)
(-1.27883e-15 1.39547e-17 0)
(6.34349e-16 -1.71931e-17 0)
(-2.41435e-16 -6.18443e-18 0)
(7.43652e-16 -1.80291e-17 0)
(4.44449e-16 -1.29486e-17 0)
(9.28929e-16 -1.47848e-17 0)
(8.22258e-16 -8.74604e-18 0)
(1.07836e-15 -6.93337e-18 0)
(1.01122e-15 -3.04908e-18 0)
(1.08429e-15 -1.2396e-18 0)
(1.06237e-15 1.3793e-18 0)
(1.17759e-15 1.40679e-18 0)
(1.22919e-15 3.84721e-19 0)
(1.28501e-15 -8.97109e-19 0)
(1.31942e-15 -6.92346e-19 0)
(1.40157e-15 -3.0312e-19 0)
(1.44109e-15 2.93391e-20 0)
(1.40875e-15 1.07951e-18 0)
(1.32027e-15 3.66285e-18 0)
(1.23328e-15 6.52521e-18 0)
(1.12603e-15 8.48608e-18 0)
(9.72625e-16 9.83154e-18 0)
(7.90976e-16 1.12877e-17 0)
(6.23868e-16 1.23245e-17 0)
(4.6991e-16 1.22454e-17 0)
(3.11074e-16 1.14894e-17 0)
(1.50426e-16 1.08178e-17 0)
(-2.43769e-18 1.00444e-17 0)
(-1.57364e-16 8.80643e-18 0)
(-3.16896e-16 7.57597e-18 0)
(-4.63939e-16 6.87923e-18 0)
(-5.96421e-16 6.37068e-18 0)
(-7.33714e-16 5.69312e-18 0)
(-8.68771e-16 5.35435e-18 0)
(-9.62594e-16 5.73528e-18 0)
(-1.00923e-15 6.14308e-18 0)
(-1.04983e-15 5.81205e-18 0)
(-1.10185e-15 5.09408e-18 0)
(-1.12806e-15 4.45819e-18 0)
(-1.11386e-15 3.39354e-18 0)
(-1.10485e-15 1.17992e-18 0)
(-1.13748e-15 -1.52059e-18 0)
(-1.1737e-15 -3.59209e-18 0)
(-1.17117e-15 -4.78473e-18 0)
(-1.14385e-15 -5.67769e-18 0)
(-1.12872e-15 -6.05923e-18 0)
(-1.09862e-15 -5.33555e-18 0)
(-1.01779e-15 -3.84666e-18 0)
(-8.84839e-16 -2.60725e-18 0)
(-7.58979e-16 -2.57368e-18 0)
(-6.29463e-16 -3.23048e-18 0)
(-5.13848e-16 -4.91539e-18 0)
(-3.58163e-16 -7.21084e-18 0)
(-2.53809e-16 -9.67725e-18 0)
(-6.66249e-17 -1.16724e-17 0)
(-5.02548e-14 -4.80943e-13 0)
(-3.42198e-14 -2.49903e-15 0)
(5.78365e-15 -1.08869e-15 0)
(-4.54998e-15 1.4408e-16 0)
(1.56499e-15 -6.98735e-17 0)
(-1.63872e-15 2.71228e-17 0)
(7.82992e-16 -2.92289e-17 0)
(-3.14186e-16 -6.72416e-18 0)
(9.3896e-16 -2.91553e-17 0)
(5.70939e-16 -1.97518e-17 0)
(1.19155e-15 -2.51353e-17 0)
(1.06762e-15 -1.55188e-17 0)
(1.40225e-15 -1.39537e-17 0)
(1.32482e-15 -7.53669e-18 0)
(1.41905e-15 -4.76093e-18 0)
(1.39218e-15 2.08474e-19 0)
(1.53961e-15 9.79476e-19 0)
(1.60487e-15 4.04924e-19 0)
(1.67168e-15 -9.35227e-19 0)
(1.71136e-15 -1.11292e-19 0)
(1.81453e-15 6.21504e-19 0)
(1.86477e-15 1.04475e-18 0)
(1.8218e-15 2.30587e-18 0)
(1.70659e-15 5.87952e-18 0)
(1.59439e-15 9.9517e-18 0)
(1.45679e-15 1.28207e-17 0)
(1.25872e-15 1.48959e-17 0)
(1.02317e-15 1.7307e-17 0)
(8.0587e-16 1.9252e-17 0)
(6.05068e-16 1.96251e-17 0)
(3.97557e-16 1.89487e-17 0)
(1.87995e-16 1.82662e-17 0)
(-1.11723e-17 1.7284e-17 0)
(-2.13351e-16 1.54864e-17 0)
(-4.2153e-16 1.35495e-17 0)
(-6.12323e-16 1.22037e-17 0)
(-7.83203e-16 1.09673e-17 0)
(-9.61022e-16 9.4528e-18 0)
(-1.13708e-15 8.52197e-18 0)
(-1.25916e-15 8.72814e-18 0)
(-1.31879e-15 9.02222e-18 0)
(-1.37097e-15 8.3727e-18 0)
(-1.43941e-15 7.39956e-18 0)
(-1.47418e-15 6.73525e-18 0)
(-1.45469e-15 5.43134e-18 0)
(-1.44116e-15 2.35717e-18 0)
(-1.4826e-15 -1.50134e-18 0)
(-1.52915e-15 -4.52226e-18 0)
(-1.52444e-15 -6.51442e-18 0)
(-1.48705e-15 -8.32639e-18 0)
(-1.46661e-15 -9.53473e-18 0)
(-1.42804e-15 -9.01508e-18 0)
(-1.32367e-15 -7.28815e-18 0)
(-1.15131e-15 -5.69089e-18 0)
(-9.8805e-16 -5.70618e-18 0)
(-8.20284e-16 -6.3037e-18 0)
(-6.69267e-16 -8.52019e-18 0)
(-4.6655e-16 -1.14827e-17 0)
(-3.29021e-16 -1.55212e-17 0)
(-8.62311e-17 -1.87323e-17 0)
(-5.95215e-14 -4.82154e-13 0)
(-4.07261e-14 -3.60174e-15 0)
(6.42876e-15 -1.6195e-15 0)
(-5.56634e-15 2.10672e-16 0)
(1.81967e-15 -1.13165e-16 0)
(-1.99587e-15 4.33567e-17 0)
(9.18328e-16 -4.57051e-17 0)
(-3.87327e-16 -7.80133e-18 0)
(1.1276e-15 -4.39529e-17 0)
(6.98075e-16 -2.85275e-17 0)
(1.45402e-15 -3.84131e-17 0)
(1.31844e-15 -2.39025e-17 0)
(1.7333e-15 -2.25903e-17 0)
(1.64939e-15 -1.28163e-17 0)
(1.76553e-15 -8.92765e-18 0)
(1.73471e-15 -1.10337e-18 0)
(1.91371e-15 4.12363e-19 0)
(1.99193e-15 2.70573e-19 0)
(2.06803e-15 -1.28337e-18 0)
(2.11141e-15 2.60467e-19 0)
(2.2342e-15 1.46892e-18 0)
(2.29436e-15 2.17064e-18 0)
(2.24012e-15 3.88677e-18 0)
(2.09773e-15 8.87626e-18 0)
(1.95999e-15 1.46138e-17 0)
(1.79172e-15 1.87425e-17 0)
(1.54842e-15 2.17739e-17 0)
(1.25813e-15 2.5324e-17 0)
(9.89466e-16 2.83015e-17 0)
(7.40437e-16 2.91537e-17 0)
(4.8277e-16 2.85171e-17 0)
(2.22901e-16 2.77738e-17 0)
(-2.38261e-17 2.6516e-17 0)
(-2.74435e-16 2.40665e-17 0)
(-5.32315e-16 2.13294e-17 0)
(-7.67637e-16 1.92291e-17 0)
(-9.77466e-16 1.70846e-17 0)
(-1.19641e-15 1.4487e-17 0)
(-1.41422e-15 1.27467e-17 0)
(-1.56524e-15 1.26185e-17 0)
(-1.63833e-15 1.26207e-17 0)
(-1.70248e-15 1.14459e-17 0)
(-1.78773e-15 1.00933e-17 0)
(-1.83124e-15 9.40064e-18 0)
(-1.80618e-15 7.84961e-18 0)
(-1.78748e-15 3.79354e-18 0)
(-1.83703e-15 -1.39775e-18 0)
(-1.89323e-15 -5.51455e-18 0)
(-1.88556e-15 -8.49578e-18 0)
(-1.83733e-15 -1.15389e-17 0)
(-1.81109e-15 -1.39292e-17 0)
(-1.76385e-15 -1.38548e-17 0)
(-1.63579e-15 -1.20107e-17 0)
(-1.42383e-15 -1.0109e-17 0)
(-1.22272e-15 -1.02105e-17 0)
(-1.01605e-15 -1.06691e-17 0)
(-8.28418e-16 -1.34181e-17 0)
(-5.77486e-16 -1.7101e-17 0)
(-4.05099e-16 -2.3133e-17 0)
(-1.06054e-16 -2.78359e-17 0)
(-6.82138e-14 -4.81399e-13 0)
(-4.69453e-14 -4.90383e-15 0)
(6.84553e-15 -2.2605e-15 0)
(-6.58703e-15 2.83828e-16 0)
(2.03824e-15 -1.68322e-16 0)
(-2.35026e-15 6.25628e-17 0)
(1.04034e-15 -6.65851e-17 0)
(-4.60637e-16 -9.31385e-18 0)
(1.30956e-15 -6.24259e-17 0)
(8.25904e-16 -3.94007e-17 0)
(1.71638e-15 -5.49052e-17 0)
(1.57481e-15 -3.42968e-17 0)
(2.07151e-15 -3.33123e-17 0)
(1.985e-15 -1.93485e-17 0)
(2.12399e-15 -1.41247e-17 0)
(2.09033e-15 -2.80296e-18 0)
(2.3002e-15 -3.82634e-19 0)
(2.39062e-15 4.02464e-20 0)
(2.47435e-15 -1.77644e-18 0)
(2.51989e-15 6.4579e-19 0)
(2.66075e-15 2.46422e-18 0)
(2.72985e-15 3.58478e-18 0)
(2.66367e-15 5.92369e-18 0)
(2.49367e-15 1.26771e-17 0)
(2.32998e-15 2.04792e-17 0)
(2.13063e-15 2.61951e-17 0)
(1.84153e-15 3.04206e-17 0)
(1.49564e-15 3.53389e-17 0)
(1.17445e-15 3.95398e-17 0)
(8.75782e-16 4.09728e-17 0)
(5.66474e-16 4.04025e-17 0)
(2.54891e-16 3.9594e-17 0)
(-4.0673e-17 3.80101e-17 0)
(-3.40854e-16 3.48042e-17 0)
(-6.49419e-16 3.11414e-17 0)
(-9.30043e-16 2.81341e-17 0)
(-1.17942e-15 2.48438e-17 0)
(-1.44008e-15 2.08606e-17 0)
(-1.70032e-15 1.80517e-17 0)
(-1.88099e-15 1.74084e-17 0)
(-1.96813e-15 1.6933e-17 0)
(-2.04471e-15 1.50309e-17 0)
(-2.14711e-15 1.31923e-17 0)
(-2.1995e-15 1.25e-17 0)
(-2.16861e-15 1.07177e-17 0)
(-2.14412e-15 5.56658e-18 0)
(-2.20092e-15 -1.14149e-18 0)
(-2.26588e-15 -6.51929e-18 0)
(-2.2544e-15 -1.07136e-17 0)
(-2.1946e-15 -1.53428e-17 0)
(-2.16202e-15 -1.93195e-17 0)
(-2.10586e-15 -1.99614e-17 0)
(-1.95405e-15 -1.81385e-17 0)
(-1.70238e-15 -1.5981e-17 0)
(-1.46302e-15 -1.61966e-17 0)
(-1.2168e-15 -1.64149e-17 0)
(-9.91295e-16 -1.96867e-17 0)
(-6.90939e-16 -2.41407e-17 0)
(-4.81953e-16 -3.2597e-17 0)
(-1.26069e-16 -3.91096e-17 0)
(-7.63595e-14 -4.79059e-13 0)
(-5.29038e-14 -6.40412e-15 0)
(7.03623e-15 -3.01275e-15 0)
(-7.61274e-15 3.60307e-16 0)
(2.2194e-15 -2.36197e-16 0)
(-2.7019e-15 8.4485e-17 0)
(1.14896e-15 -9.19755e-17 0)
(-5.33962e-16 -1.12776e-17 0)
(1.48479e-15 -8.46478e-17 0)
(9.54416e-16 -5.24982e-17 0)
(1.97861e-15 -7.48309e-17 0)
(1.83673e-15 -4.69746e-17 0)
(2.41683e-15 -4.64301e-17 0)
(2.33169e-15 -2.74334e-17 0)
(2.49466e-15 -2.0607e-17 0)
(2.4594e-15 -5.061e-18 0)
(2.69938e-15 -1.48146e-18 0)
(2.80118e-15 -2.73192e-19 0)
(2.89091e-15 -2.33349e-18 0)
(2.93707e-15 1.17135e-18 0)
(3.0943e-15 3.75111e-18 0)
(3.17121e-15 5.42043e-18 0)
(3.09233e-15 8.52202e-18 0)
(2.89433e-15 1.73584e-17 0)
(2.70421e-15 2.76042e-17 0)
(2.47329e-15 3.52276e-17 0)
(2.1378e-15 4.08932e-17 0)
(1.7355e-15 4.7432e-17 0)
(1.36058e-15 5.3081e-17 0)
(1.01085e-15 5.52332e-17 0)
(6.48401e-16 5.47888e-17 0)
(2.83686e-16 5.39327e-17 0)
(-6.20066e-17 5.19796e-17 0)
(-4.12879e-16 4.79057e-17 0)
(-7.73057e-16 4.31738e-17 0)
(-1.09975e-15 3.90803e-17 0)
(-1.38932e-15 3.43726e-17 0)
(-1.69227e-15 2.86651e-17 0)
(-1.99557e-15 2.44992e-17 0)
(-2.20661e-15 2.31408e-17 0)
(-2.30849e-15 2.19895e-17 0)
(-2.39803e-15 1.91498e-17 0)
(-2.51787e-15 1.6718e-17 0)
(-2.57921e-15 1.60618e-17 0)
(-2.54227e-15 1.40691e-17 0)
(-2.51135e-15 7.70629e-18 0)
(-2.57443e-15 -7.14798e-19 0)
(-2.6471e-15 -7.53362e-18 0)
(-2.63091e-15 -1.31868e-17 0)
(-2.55879e-15 -1.97833e-17 0)
(-2.5193e-15 -2.57816e-17 0)
(-2.45394e-15 -2.74305e-17 0)
(-2.27833e-15 -2.57824e-17 0)
(-1.98696e-15 -2.34195e-17 0)
(-1.70901e-15 -2.37826e-17 0)
(-1.42256e-15 -2.36506e-17 0)
(-1.1579e-15 -2.74404e-17 0)
(-8.06885e-16 -3.27102e-17 0)
(-5.59511e-16 -4.40394e-17 0)
(-1.46251e-16 -5.26845e-17 0)
(-8.39563e-14 -4.76329e-13 0)
(-5.85968e-14 -8.10128e-15 0)
(7.0042e-15 -3.87689e-15 0)
(-8.64416e-15 4.36593e-16 0)
(2.36192e-15 -3.17713e-16 0)
(-3.05088e-15 1.08754e-16 0)
(1.24412e-15 -1.22039e-16 0)
(-6.07174e-16 -1.3769e-17 0)
(1.65325e-15 -1.10718e-16 0)
(1.08357e-15 -6.79546e-17 0)
(2.24065e-15 -9.83854e-17 0)
(2.10418e-15 -6.21671e-17 0)
(2.76921e-15 -6.21968e-17 0)
(2.6895e-15 -3.73137e-17 0)
(2.87773e-15 -2.85809e-17 0)
(2.84224e-15 -8.01993e-18 0)
(3.11154e-15 -2.95455e-18 0)
(3.22387e-15 -6.72668e-19 0)
(3.31798e-15 -2.90307e-18 0)
(3.36317e-15 1.92929e-18 0)
(3.53496e-15 5.44429e-18 0)
(3.61838e-15 7.79634e-18 0)
(3.526e-15 1.17922e-17 0)
(3.29953e-15 2.30214e-17 0)
(3.08248e-15 3.6085e-17 0)
(2.81945e-15 4.59372e-17 0)
(2.43695e-15 5.32966e-17 0)
(1.97742e-15 6.17235e-17 0)
(1.54759e-15 6.90659e-17 0)
(1.14534e-15 7.20969e-17 0)
(7.28262e-16 7.18559e-17 0)
(3.08986e-16 7.09819e-17 0)
(-8.81393e-17 6.86193e-17 0)
(-4.90801e-16 6.35601e-17 0)
(-9.03476e-16 5.76042e-17 0)
(-1.27699e-15 5.22286e-17 0)
(-1.60742e-15 4.58089e-17 0)
(-1.95323e-15 3.80112e-17 0)
(-2.30017e-15 3.21747e-17 0)
(-2.5423e-15 2.98806e-17 0)
(-2.65972e-15 2.78359e-17 0)
(-2.7628e-15 2.383e-17 0)
(-2.90033e-15 2.06849e-17 0)
(-2.97065e-15 2.00952e-17 0)
(-2.92744e-15 1.79101e-17 0)
(-2.88944e-15 1.02135e-17 0)
(-2.9577e-15 -1.24818e-19 0)
(-3.03689e-15 -8.5722e-18 0)
(-3.01501e-15 -1.59409e-17 0)
(-2.92984e-15 -2.49035e-17 0)
(-2.88284e-15 -3.33824e-17 0)
(-2.80795e-15 -3.63504e-17 0)
(-2.60852e-15 -3.505e-17 0)
(-2.27753e-15 -3.25459e-17 0)
(-1.96071e-15 -3.3103e-17 0)
(-1.63336e-15 -3.25123e-17 0)
(-1.32824e-15 -3.68175e-17 0)
(-9.25305e-16 -4.294e-17 0)
(-6.37715e-16 -5.76006e-17 0)
(-1.66579e-16 -6.86881e-17 0)
(-9.09949e-14 -4.73404e-13 0)
(-6.40112e-14 -9.99103e-15 0)
(6.75386e-15 -4.85356e-15 0)
(-9.68188e-15 5.08937e-16 0)
(2.46461e-15 -4.13864e-16 0)
(-3.39729e-15 1.34899e-16 0)
(1.32579e-15 -1.56983e-16 0)
(-6.80151e-16 -1.69121e-17 0)
(1.81489e-15 -1.40758e-16 0)
(1.21333e-15 -8.59181e-17 0)
(2.50243e-15 -1.25759e-16 0)
(2.3771e-15 -8.00911e-17 0)
(3.12856e-15 -8.08417e-17 0)
(3.05843e-15 -4.92078e-17 0)
(3.27337e-15 -3.82318e-17 0)
(3.23911e-15 -1.1811e-17 0)
(3.53696e-15 -4.87153e-18 0)
(3.65893e-15 -1.16987e-18 0)
(3.75581e-15 -3.44839e-18 0)
(3.79843e-15 2.99508e-18 0)
(3.9828e-15 7.64514e-18 0)
(4.07127e-15 1.08258e-17 0)
(3.9645e-15 1.585e-17 0)
(3.70911e-15 2.97823e-17 0)
(3.46455e-15 4.60409e-17 0)
(3.16879e-15 5.84485e-17 0)
(2.73865e-15 6.77635e-17 0)
(2.2211e-15 7.83577e-17 0)
(1.73518e-15 8.76528e-17 0)
(1.27895e-15 9.17359e-17 0)
(8.05741e-16 9.17869e-17 0)
(3.30472e-16 9.09321e-17 0)
(-1.19401e-16 8.81217e-17 0)
(-5.74932e-16 8.19567e-17 0)
(-1.04095e-15 7.4614e-17 0)
(-1.46202e-15 6.77484e-17 0)
(-1.834e-15 5.93031e-17 0)
(-2.22324e-15 4.90251e-17 0)
(-2.61435e-15 4.11788e-17 0)
(-2.8883e-15 3.77035e-17 0)
(-3.0221e-15 3.45234e-17 0)
(-3.13934e-15 2.90985e-17 0)
(-3.2948e-15 2.51017e-17 0)
(-3.37409e-15 2.45997e-17 0)
(-3.32441e-15 2.22366e-17 0)
(-3.27866e-15 1.30808e-17 0)
(-3.3509e-15 6.17474e-19 0)
(-3.4353e-15 -9.64965e-18 0)
(-3.40667e-15 -1.89986e-17 0)
(-3.30767e-15 -3.0743e-17 0)
(-3.25254e-15 -4.2186e-17 0)
(-3.16776e-15 -4.68117e-17 0)
(-2.94451e-15 -4.60566e-17 0)
(-2.57406e-15 -4.34957e-17 0)
(-2.21813e-15 -4.43075e-17 0)
(-1.84922e-15 -4.31537e-17 0)
(-1.50232e-15 -4.79688e-17 0)
(-1.04619e-15 -5.49729e-17 0)
(-7.16518e-16 -7.34254e-17 0)
(-1.87033e-16 -8.7252e-17 0)
(-9.74693e-14 -4.70186e-13 0)
(-6.91362e-14 -1.20675e-14 0)
(6.29061e-15 -5.94309e-15 0)
(-1.07264e-14 5.73376e-16 0)
(2.52638e-15 -5.2572e-16 0)
(-3.74123e-15 1.62362e-16 0)
(1.39394e-15 -1.97051e-16 0)
(-7.52766e-16 -2.08643e-17 0)
(1.96971e-15 -1.74902e-16 0)
(1.34364e-15 -1.06548e-16 0)
(2.76385e-15 -1.57142e-16 0)
(2.65538e-15 -1.00964e-16 0)
(3.49477e-15 -1.02592e-16 0)
(3.43846e-15 -6.3332e-17 0)
(3.68169e-15 -4.97436e-17 0)
(3.65028e-15 -1.65673e-17 0)
(3.9759e-15 -7.30605e-18 0)
(4.10661e-15 -1.78154e-18 0)
(4.20462e-15 -3.93713e-18 0)
(4.24302e-15 4.44084e-18 0)
(4.43788e-15 1.04546e-17 0)
(4.5298e-15 1.46261e-17 0)
(4.40767e-15 2.08199e-17 0)
(4.12283e-15 3.77704e-17 0)
(3.85013e-15 5.76066e-17 0)
(3.52098e-15 7.29028e-17 0)
(3.04256e-15 8.44432e-17 0)
(2.46621e-15 9.74938e-17 0)
(1.92301e-15 1.09012e-16 0)
(1.41134e-15 1.14331e-16 0)
(8.805e-16 1.14772e-16 0)
(3.47803e-16 1.1398e-16 0)
(-1.5614e-16 1.10685e-16 0)
(-6.65605e-16 1.03291e-16 0)
(-1.18577e-15 9.43927e-17 0)
(-1.65514e-15 8.58181e-17 0)
(-2.06936e-15 7.50165e-17 0)
(-2.50258e-15 6.18441e-17 0)
(-2.93836e-15 5.16219e-17 0)
(-3.24485e-15 4.66925e-17 0)
(-3.39595e-15 4.21068e-17 0)
(-3.52802e-15 3.49836e-17 0)
(-3.70158e-15 2.99759e-17 0)
(-3.78982e-15 2.95711e-17 0)
(-3.73345e-15 2.70394e-17 0)
(-3.67927e-15 1.6297e-17 0)
(-3.75419e-15 1.49879e-18 0)
(-3.84234e-15 -1.07819e-17 0)
(-3.80586e-15 -2.23837e-17 0)
(-3.69223e-15 -3.73418e-17 0)
(-3.62829e-15 -5.22582e-17 0)
(-3.53322e-15 -5.89084e-17 0)
(-3.28619e-15 -5.89237e-17 0)
(-2.8765e-15 -5.64134e-17 0)
(-2.48128e-15 -5.75562e-17 0)
(-2.07015e-15 -5.574e-17 0)
(-1.68015e-15 -6.1056e-17 0)
(-1.16952e-15 -6.89625e-17 0)
(-7.95882e-16 -9.16647e-17 0)
(-2.07595e-16 -1.08513e-16 0)
(-1.03377e-13 -4.66632e-13 0)
(-7.39635e-14 -1.43241e-14 0)
(5.62093e-15 -7.14526e-15 0)
(-1.17782e-14 6.25751e-16 0)
(2.5462e-15 -6.54421e-16 0)
(-4.08284e-15 1.90498e-16 0)
(1.4486e-15 -2.42509e-16 0)
(-8.24871e-16 -2.58075e-17 0)
(2.11773e-15 -2.13293e-16 0)
(1.47445e-15 -1.3001e-16 0)
(3.0248e-15 -1.92728e-16 0)
(2.93889e-15 -1.2501e-16 0)
(3.86769e-15 -1.27679e-16 0)
(3.82951e-15 -7.9911e-17 0)
(4.10279e-15 -6.33083e-17 0)
(4.07595e-15 -2.24304e-17 0)
(4.42859e-15 -1.03381e-17 0)
(4.56713e-15 -2.52765e-18 0)
(4.66466e-15 -4.33625e-18 0)
(4.69715e-15 6.34254e-18 0)
(4.90026e-15 1.39802e-17 0)
(4.99386e-15 1.93242e-17 0)
(4.85529e-15 2.68387e-17 0)
(4.54045e-15 4.71281e-17 0)
(4.23891e-15 7.093e-17 0)
(3.87562e-15 8.94548e-17 0)
(3.34827e-15 1.03498e-16 0)
(2.71236e-15 1.19303e-16 0)
(2.1107e-15 1.33325e-16 0)
(1.54214e-15 1.40074e-16 0)
(9.52176e-16 1.41011e-16 0)
(3.60616e-16 1.40329e-16 0)
(-1.98721e-16 1.36515e-16 0)
(-7.63169e-16 1.27767e-16 0)
(-1.33826e-15 1.17138e-16 0)
(-1.85665e-15 1.06626e-16 0)
(-2.3138e-15 9.31198e-17 0)
(-2.79153e-15 7.66156e-17 0)
(-3.27243e-15 6.36235e-17 0)
(-3.6122e-15 5.69374e-17 0)
(-3.78156e-15 5.06456e-17 0)
(-3.92913e-15 4.15155e-17 0)
(-4.12099e-15 3.53139e-17 0)
(-4.21809e-15 3.50011e-17 0)
(-4.15484e-15 3.23035e-17 0)
(-4.09154e-15 1.98444e-17 0)
(-4.16774e-15 2.50046e-18 0)
(-4.25807e-15 -1.19891e-17 0)
(-4.21254e-15 -2.61227e-17 0)
(-4.08345e-15 -4.47418e-17 0)
(-4.00997e-15 -6.36652e-17 0)
(-3.90418e-15 -7.27361e-17 0)
(-3.63341e-15 -7.37768e-17 0)
(-3.18478e-15 -7.14501e-17 0)
(-2.75012e-15 -7.30184e-17 0)
(-2.29614e-15 -7.04486e-17 0)
(-1.86172e-15 -7.62535e-17 0)
(-1.29529e-15 -8.5074e-17 0)
(-8.75778e-16 -1.12477e-16 0)
(-2.2825e-16 -1.32614e-16 0)
(-1.08718e-13 -4.62746e-13 0)
(-7.84858e-14 -1.67534e-14 0)
(4.75234e-15 -8.4594e-15 0)
(-1.28374e-14 6.61721e-16 0)
(2.52314e-15 -8.01178e-16 0)
(-4.42225e-15 2.18572e-16 0)
(1.48984e-15 -2.93648e-16 0)
(-8.96296e-16 -3.19464e-17 0)
(2.25902e-15 -2.56074e-16 0)
(1.60576e-15 -1.56477e-16 0)
(3.2852e-15 -2.32712e-16 0)
(3.2275e-15 -1.52458e-16 0)
(4.24715e-15 -1.56345e-16 0)
(4.23148e-15 -9.91806e-17 0)
(4.53671e-15 -7.91289e-17 0)
(4.51626e-15 -2.95528e-17 0)
(4.89522e-15 -1.40554e-17 0)
(5.04069e-15 -3.43137e-18 0)
(5.13615e-15 -4.61056e-18 0)
(5.16098e-15 8.78225e-18 0)
(5.36997e-15 1.83393e-17 0)
(5.46334e-15 2.50593e-17 0)
(5.30716e-15 3.40573e-17 0)
(4.96167e-15 5.80121e-17 0)
(4.63051e-15 8.61729e-17 0)
(4.2323e-15 1.08272e-16 0)
(3.65536e-15 1.25102e-16 0)
(2.95915e-15 1.43967e-16 0)
(2.29787e-15 1.60782e-16 0)
(1.67094e-15 1.69164e-16 0)
(1.02038e-15 1.7071e-16 0)
(3.68528e-16 1.70192e-16 0)
(-2.47531e-16 1.65826e-16 0)
(-8.67994e-16 1.55597e-16 0)
(-1.49876e-15 1.43058e-16 0)
(-2.06686e-15 1.30368e-16 0)
(-2.56766e-15 1.13794e-16 0)
(-3.0904e-15 9.34971e-17 0)
(-3.61683e-15 7.73122e-17 0)
(-3.9906e-15 6.85349e-17 0)
(-4.17921e-15 6.02033e-17 0)
(-4.34302e-15 4.87254e-17 0)
(-4.5533e-15 4.11201e-17 0)
(-4.65918e-15 4.0876e-17 0)
(-4.58887e-15 3.80063e-17 0)
(-4.51571e-15 2.36977e-17 0)
(-4.59171e-15 3.59718e-18 0)
(-4.68254e-15 -1.32967e-17 0)
(-4.6267e-15 -3.02457e-17 0)
(-4.48127e-15 -5.29861e-17 0)
(-4.39747e-15 -7.64734e-17 0)
(-4.28047e-15 -8.83913e-17 0)
(-3.98603e-15 -9.07446e-17 0)
(-3.4988e-15 -8.87639e-17 0)
(-3.02462e-15 -9.08737e-17 0)
(-2.52717e-15 -8.74695e-17 0)
(-2.04703e-15 -9.37494e-17 0)
(-1.42349e-15 -1.03485e-16 0)
(-9.56183e-16 -1.3603e-16 0)
(-2.48987e-16 -1.59697e-16 0)
(-1.13492e-13 -4.58539e-13 0)
(-8.26961e-14 -1.93471e-14 0)
(3.69338e-15 -9.88429e-15 0)
(-1.39042e-14 6.76787e-16 0)
(2.45638e-15 -9.67273e-16 0)
(-4.7596e-15 2.45754e-16 0)
(1.51775e-15 -3.50791e-16 0)
(-9.66841e-16 -3.95118e-17 0)
(2.39371e-15 -3.03393e-16 0)
(1.73755e-15 -1.86124e-16 0)
(3.54496e-15 -2.77291e-16 0)
(3.52103e-15 -1.83548e-16 0)
(4.63293e-15 -1.88839e-16 0)
(4.6442e-15 -1.21388e-16 0)
(4.98342e-15 -9.74196e-17 0)
(4.97134e-15 -3.80989e-17 0)
(5.37595e-15 -1.85546e-17 0)
(5.52747e-15 -4.52021e-18 0)
(5.61926e-15 -4.72363e-18 0)
(5.63468e-15 1.18477e-17 0)
(5.84703e-15 2.36586e-17 0)
(5.9381e-15 3.19837e-17 0)
(5.76303e-15 4.26418e-17 0)
(5.38618e-15 7.05945e-17 0)
(5.02455e-15 1.03512e-16 0)
(4.59056e-15 1.29536e-16 0)
(3.96336e-15 1.49443e-16 0)
(3.20612e-15 1.7168e-16 0)
(2.48405e-15 1.91585e-16 0)
(1.79732e-15 2.0181e-16 0)
(1.08469e-15 2.04087e-16 0)
(3.71131e-16 2.0379e-16 0)
(-3.02973e-16 1.98842e-16 0)
(-9.80467e-16 1.87004e-16 0)
(-1.66761e-15 1.7237e-16 0)
(-2.28612e-15 1.57253e-16 0)
(-2.83126e-15 1.3723e-16 0)
(-3.39949e-15 1.12656e-16 0)
(-3.97182e-15 9.28262e-17 0)
(-4.3803e-15 8.15888e-17 0)
(-4.5892e-15 7.08475e-17 0)
(-4.76996e-15 5.66462e-17 0)
(-4.9988e-15 4.7397e-17 0)
(-5.11336e-15 4.71768e-17 0)
(-5.03579e-15 4.41172e-17 0)
(-4.95205e-15 2.78235e-17 0)
(-5.02627e-15 4.75694e-18 0)
(-5.11581e-15 -1.47353e-17 0)
(-5.04831e-15 -3.47861e-17 0)
(-4.88561e-15 -6.21189e-17 0)
(-4.79066e-15 -9.07494e-17 0)
(-4.66192e-15 -1.05972e-16 0)
(-4.34387e-15 -1.0996e-16 0)
(-3.81844e-15 -1.0852e-16 0)
(-3.3047e-15 -1.11312e-16 0)
(-2.7632e-15 -1.07007e-16 0)
(-2.23606e-15 -1.13746e-16 0)
(-1.5541e-15 -1.24387e-16 0)
(-1.03708e-15 -1.62498e-16 0)
(-2.698e-16 -1.89912e-16 0)
(-1.17704e-13 -4.54013e-13 0)
(-8.65886e-14 -2.2096e-14 0)
(2.4536e-15 -1.14182e-14 0)
(-1.49785e-14 6.66311e-16 0)
(2.34522e-15 -1.15406e-15 0)
(-5.09502e-15 2.71109e-16 0)
(1.5325e-15 -4.1429e-16 0)
(-1.03627e-15 -4.87655e-17 0)
(2.52196e-15 -3.55403e-16 0)
(1.86986e-15 -2.19136e-16 0)
(3.804e-15 -3.26658e-16 0)
(3.8193e-15 -2.18519e-16 0)
(5.02481e-15 -2.25414e-16 0)
(5.06749e-15 -1.46789e-16 0)
(5.44285e-15 -1.18405e-16 0)
(5.44123e-15 -4.82445e-17 0)
(5.8709e-15 -2.39416e-17 0)
(6.02763e-15 -5.82676e-18 0)
(6.11419e-15 -4.63862e-18 0)
(6.11837e-15 1.56314e-17 0)
(6.33148e-15 3.00739e-17 0)
(6.41801e-15 4.02625e-17 0)
(6.22266e-15 5.27739e-17 0)
(5.81364e-15 8.50637e-17 0)
(5.4206e-15 1.23138e-16 0)
(4.94991e-15 1.53442e-16 0)
(4.27174e-15 1.76721e-16 0)
(3.45277e-15 2.02649e-16 0)
(2.66878e-15 2.25947e-16 0)
(1.92081e-15 2.38233e-16 0)
(1.14466e-15 2.41366e-16 0)
(3.67995e-16 2.41353e-16 0)
(-3.65472e-16 2.35793e-16 0)
(-1.10099e-15 2.22218e-16 0)
(-1.8452e-15 2.05299e-16 0)
(-2.51477e-15 1.87496e-16 0)
(-3.10495e-15 1.63629e-16 0)
(-3.71913e-15 1.34272e-16 0)
(-4.33767e-15 1.10314e-16 0)
(-4.78154e-15 9.62104e-17 0)
(-5.01179e-15 8.26505e-17 0)
(-5.21027e-15 6.53121e-17 0)
(-5.45777e-15 5.41454e-17 0)
(-5.58087e-15 5.38788e-17 0)
(-5.49586e-15 5.05979e-17 0)
(-5.40079e-15 3.21803e-17 0)
(-5.47159e-15 5.94046e-18 0)
(-5.55795e-15 -1.63411e-17 0)
(-5.47738e-15 -3.97811e-17 0)
(-5.29643e-15 -7.21864e-17 0)
(-5.18941e-15 -1.0656e-16 0)
(-5.04832e-15 -1.25576e-16 0)
(-4.70673e-15 -1.31559e-16 0)
(-4.14355e-15 -1.30893e-16 0)
(-3.59026e-15 -1.34535e-16 0)
(-3.00418e-15 -1.29279e-16 0)
(-2.42879e-15 -1.36461e-16 0)
(-1.68713e-15 -1.47983e-16 0)
(-1.11848e-15 -1.92064e-16 0)
(-2.90686e-16 -2.23412e-16 0)
(-1.21357e-13 -4.49174e-13 0)
(-9.01584e-14 -2.49898e-14 0)
(1.04353e-15 -1.30589e-14 0)
(-1.60602e-14 6.25549e-16 0)
(2.18909e-15 -1.36296e-15 0)
(-5.42865e-15 2.93592e-16 0)
(1.53431e-15 -4.84538e-16 0)
(-1.10431e-15 -6.00028e-17 0)
(2.64401e-15 -4.12267e-16 0)
(2.00274e-15 -2.557e-16 0)
(4.06227e-15 -3.8101e-16 0)
(4.12211e-15 -2.57619e-16 0)
(5.42251e-15 -2.6633e-16 0)
(5.5011e-15 -1.7565e-16 0)
(5.91489e-15 -1.4232e-16 0)
(5.92593e-15 -6.01772e-17 0)
(6.38014e-15 -3.03317e-17 0)
(6.54127e-15 -7.38901e-18 0)
(6.62109e-15 -4.31854e-18 0)
(6.6122e-15 2.02308e-17 0)
(6.8233e-15 3.77306e-17 0)
(6.90291e-15 5.00744e-17 0)
(6.68575e-15 6.46517e-17 0)
(6.24368e-15 1.01625e-16 0)
(5.81819e-15 1.45261e-16 0)
(5.3098e-15 1.80203e-16 0)
(4.57995e-15 2.07154e-16 0)
(3.69857e-15 2.37093e-16 0)
(2.85154e-15 2.64091e-16 0)
(2.04091e-15 2.78662e-16 0)
(1.19983e-15 2.82783e-16 0)
(3.58665e-16 2.8312e-16 0)
(-4.35472e-16 2.7692e-16 0)
(-1.23e-15 2.61478e-16 0)
(-2.03192e-15 2.42081e-16 0)
(-2.7532e-15 2.21325e-16 0)
(-3.38909e-15 1.93204e-16 0)
(-4.04963e-15 1.58534e-16 0)
(-4.71465e-15 1.29932e-16 0)
(-5.19458e-15 1.12519e-16 0)
(-5.44724e-15 9.56897e-17 0)
(-5.66419e-15 7.47596e-17 0)
(-5.93044e-15 6.1364e-17 0)
(-6.06195e-15 6.09515e-17 0)
(-5.96934e-15 5.74013e-17 0)
(-5.86217e-15 3.67171e-17 0)
(-5.92784e-15 7.10012e-18 0)
(-6.00902e-15 -1.81575e-17 0)
(-5.91388e-15 -4.52728e-17 0)
(-5.71363e-15 -8.32372e-17 0)
(-5.59356e-15 -1.23973e-16 0)
(-5.43948e-15 -1.47304e-16 0)
(-5.0744e-15 -1.55684e-16 0)
(-4.47395e-15 -1.56062e-16 0)
(-3.88119e-15 -1.60756e-16 0)
(-3.25001e-15 -1.54517e-16 0)
(-2.62518e-15 -1.62128e-16 0)
(-1.82254e-15 -1.74492e-16 0)
(-1.20036e-15 -2.24923e-16 0)
(-3.11648e-16 -2.60352e-16 0)
(-1.2446e-13 -4.44026e-13 0)
(-9.34017e-14 -2.80175e-14 0)
(-5.25348e-16 -1.48035e-14 0)
(-1.71487e-14 5.49681e-16 0)
(1.98754e-15 -1.59546e-15 0)
(-5.76062e-15 3.12047e-16 0)
(1.52344e-15 -5.61967e-16 0)
(-1.17065e-15 -7.35561e-17 0)
(2.76014e-15 -4.74154e-16 0)
(2.13631e-15 -2.96016e-16 0)
(4.31974e-15 -4.40541e-16 0)
(4.42927e-15 -3.01095e-16 0)
(5.82575e-15 -3.11849e-16 0)
(5.94471e-15 -2.08244e-16 0)
(6.39935e-15 -1.69409e-16 0)
(6.42537e-15 -7.4096e-17 0)
(6.9037e-15 -3.785e-17 0)
(7.06848e-15 -9.25047e-18 0)
(7.14008e-15 -3.72622e-18 0)
(7.11624e-15 2.57484e-17 0)
(7.32248e-15 4.67837e-17 0)
(7.39263e-15 6.16123e-17 0)
(7.15203e-15 7.84911e-17 0)
(6.6759e-15 1.20504e-16 0)
(6.21682e-15 1.70108e-16 0)
(5.66965e-15 2.10048e-16 0)
(4.8874e-15 2.40972e-16 0)
(3.94293e-15 2.75246e-16 0)
(3.03178e-15 3.06254e-16 0)
(2.15709e-15 3.23338e-16 0)
(1.24968e-15 3.28583e-16 0)
(3.4266e-16 3.29337e-16 0)
(-5.13439e-16 3.22471e-16 0)
(-1.36793e-15 3.05034e-16 0)
(-2.22818e-15 2.82961e-16 0)
(-3.00178e-15 2.58976e-16 0)
(-3.68405e-15 2.26175e-16 0)
(-4.39132e-15 1.85643e-16 0)
(-5.10304e-15 1.51851e-16 0)
(-5.61965e-15 1.30642e-16 0)
(-5.8958e-15 1.10048e-16 0)
(-6.13199e-15 8.50271e-17 0)
(-6.41706e-15 6.90501e-17 0)
(-6.55682e-15 6.83584e-17 0)
(-6.45646e-15 6.44708e-17 0)
(-6.33644e-15 4.13725e-17 0)
(-6.39519e-15 8.17868e-18 0)
(-6.4691e-15 -2.02357e-17 0)
(-6.35783e-15 -5.13091e-17 0)
(-6.13716e-15 -9.53223e-17 0)
(-6.00295e-15 -1.43056e-16 0)