/*--------------------------------*- C++ -*----------------------------------*\
| =========                 |                                                 |
| \\      /  F ield         | foam-extend: Open Source CFD                    |
|  \\    /   O peration     | Version:     4.0                                |
|   \\  /    A nd           | Web:         http://www.foam-extend.org         |
|    \\/     M anipulation  |                                                 |
\*---------------------------------------------------------------------------*/
FoamFile
{
    version     2.0;
    format      ascii;
    class       volScalarField;
    location    "1110";
    object      cMinus;
}
// * * * * * * * * * * * * * * * * * * * * * * * * * * * * * * * * * * * * * //

dimensions      [0 0 0 0 0 0 0];

internalField   nonuniform List<scalar> 
6960
(
5.01315e-21
5.00783e-21
4.99956e-21
4.99365e-21
4.9898e-21
4.98736e-21
4.98583e-21
4.98487e-21
4.98426e-21
4.98387e-21
4.98362e-21
4.98347e-21
4.98337e-21
4.98332e-21
4.98329e-21
4.98329e-21
4.9833e-21
4.98331e-21
4.98334e-21
4.98336e-21
4.98339e-21
4.98342e-21
4.98345e-21
4.98348e-21
4.9835e-21
4.98352e-21
4.98354e-21
4.98355e-21
4.98356e-21
4.98357e-21
4.98357e-21
4.98356e-21
4.98355e-21
4.98354e-21
4.98352e-21
4.9835e-21
4.98348e-21
4.98345e-21
4.98342e-21
4.98339e-21
4.98336e-21
4.98334e-21
4.98331e-21
4.9833e-21
4.98329e-21
4.98329e-21
4.98332e-21
4.98337e-21
4.98347e-21
4.98362e-21
4.98387e-21
4.98426e-21
4.98487e-21
4.98583e-21
4.98736e-21
4.9898e-21
4.99365e-21
4.99956e-21
5.00783e-21
5.01315e-21
2.60112e-20
2.59937e-20
2.59587e-20
2.59332e-20
2.59165e-20
2.59058e-20
2.5899e-20
2.58947e-20
2.5892e-20
2.58903e-20
2.58892e-20
2.58886e-20
2.58882e-20
2.5888e-20
2.58879e-20
2.5888e-20
2.58881e-20
2.58882e-20
2.58884e-20
2.58886e-20
2.58888e-20
2.58889e-20
2.58891e-20
2.58893e-20
2.58894e-20
2.58896e-20
2.58897e-20
2.58897e-20
2.58898e-20
2.58898e-20
2.58898e-20
2.58898e-20
2.58897e-20
2.58897e-20
2.58896e-20
2.58894e-20
2.58893e-20
2.58891e-20
2.58889e-20
2.58888e-20
2.58886e-20
2.58884e-20
2.58882e-20
2.58881e-20
2.5888e-20
2.58879e-20
2.5888e-20
2.58882e-20
2.58886e-20
2.58892e-20
2.58903e-20
2.5892e-20
2.58947e-20
2.5899e-20
2.59058e-20
2.59165e-20
2.59332e-20
2.59587e-20
2.59937e-20
2.60112e-20
1.29373e-19
1.29343e-19
1.29213e-19
1.29116e-19
1.2905e-19
1.29008e-19
1.28981e-19
1.28963e-19
1.28952e-19
1.28945e-19
1.28941e-19
1.28938e-19
1.28937e-19
1.28936e-19
1.28936e-19
1.28936e-19
1.28937e-19
1.28938e-19
1.28939e-19
1.2894e-19
1.28941e-19
1.28942e-19
1.28943e-19
1.28943e-19
1.28944e-19
1.28945e-19
1.28945e-19
1.28946e-19
1.28946e-19
1.28946e-19
1.28946e-19
1.28946e-19
1.28946e-19
1.28945e-19
1.28945e-19
1.28944e-19
1.28943e-19
1.28943e-19
1.28942e-19
1.28941e-19
1.2894e-19
1.28939e-19
1.28938e-19
1.28937e-19
1.28936e-19
1.28936e-19
1.28936e-19
1.28937e-19
1.28938e-19
1.28941e-19
1.28945e-19
1.28952e-19
1.28963e-19
1.28981e-19
1.29008e-19
1.2905e-19
1.29116e-19
1.29213e-19
1.29343e-19
1.29373e-19
6.5721e-19
6.57356e-19
6.56937e-19
6.566e-19
6.56366e-19
6.56209e-19
6.56105e-19
6.56038e-19
6.55994e-19
6.55966e-19
6.55948e-19
6.55938e-19
6.55933e-19
6.55931e-19
6.55932e-19
6.55935e-19
6.55939e-19
6.55944e-19
6.55949e-19
6.55955e-19
6.5596e-19
6.55965e-19
6.5597e-19
6.55975e-19
6.55979e-19
6.55983e-19
6.55986e-19
6.55988e-19
6.55989e-19
6.5599e-19
6.5599e-19
6.55989e-19
6.55988e-19
6.55986e-19
6.55983e-19
6.55979e-19
6.55975e-19
6.5597e-19
6.55965e-19
6.5596e-19
6.55955e-19
6.55949e-19
6.55944e-19
6.55939e-19
6.55935e-19
6.55932e-19
6.55931e-19
6.55933e-19
6.55938e-19
6.55948e-19
6.55966e-19
6.55994e-19
6.56038e-19
6.56105e-19
6.56209e-19
6.56366e-19
6.566e-19
6.56937e-19
6.57356e-19
6.5721e-19
3.45207e-18
3.45446e-18
3.45357e-18
3.45265e-18
3.45195e-18
3.45144e-18
3.45109e-18
3.45085e-18
3.45069e-18
3.45058e-18
3.45052e-18
3.45048e-18
3.45047e-18
3.45047e-18
3.45048e-18
3.4505e-18
3.45053e-18
3.45055e-18
3.45059e-18
3.45062e-18
3.45065e-18
3.45068e-18
3.4507e-18
3.45073e-18
3.45075e-18
3.45077e-18
3.45079e-18
3.4508e-18
3.45081e-18
3.45081e-18
3.45081e-18
3.45081e-18
3.4508e-18
3.45079e-18
3.45077e-18
3.45075e-18
3.45073e-18
3.4507e-18
3.45068e-18
3.45065e-18
3.45062e-18
3.45059e-18
3.45055e-18
3.45053e-18
3.4505e-18
3.45048e-18
3.45047e-18
3.45047e-18
3.45048e-18
3.45052e-18
3.45058e-18
3.45069e-18
3.45085e-18
3.45109e-18
3.45144e-18
3.45195e-18
3.45265e-18
3.45357e-18
3.45446e-18
3.45207e-18
1.87811e-17
1.88031e-17
1.88055e-17
1.88052e-17
1.88044e-17
1.88034e-17
1.88026e-17
1.88019e-17
1.88014e-17
1.8801e-17
1.88008e-17
1.88008e-17
1.88007e-17
1.88008e-17
1.88009e-17
1.8801e-17
1.88012e-17
1.88014e-17
1.88016e-17
1.88017e-17
1.88019e-17
1.88021e-17
1.88022e-17
1.88024e-17
1.88025e-17
1.88026e-17
1.88027e-17
1.88028e-17
1.88028e-17
1.88029e-17
1.88029e-17
1.88028e-17
1.88028e-17
1.88027e-17
1.88026e-17
1.88025e-17
1.88024e-17
1.88022e-17
1.88021e-17
1.88019e-17
1.88017e-17
1.88016e-17
1.88014e-17
1.88012e-17
1.8801e-17
1.88009e-17
1.88008e-17
1.88007e-17
1.88008e-17
1.88008e-17
1.8801e-17
1.88014e-17
1.88019e-17
1.88026e-17
1.88034e-17
1.88044e-17
1.88052e-17
1.88055e-17
1.88031e-17
1.87811e-17
1.05751e-16
1.05926e-16
1.05981e-16
1.06007e-16
1.06019e-16
1.06024e-16
1.06025e-16
1.06025e-16
1.06024e-16
1.06024e-16
1.06023e-16
1.06024e-16
1.06024e-16
1.06024e-16
1.06025e-16
1.06026e-16
1.06027e-16
1.06028e-16
1.06029e-16
1.06031e-16
1.06032e-16
1.06033e-16
1.06034e-16
1.06034e-16
1.06035e-16
1.06036e-16
1.06036e-16
1.06037e-16
1.06037e-16
1.06037e-16
1.06037e-16
1.06037e-16
1.06037e-16
1.06036e-16
1.06036e-16
1.06035e-16
1.06034e-16
1.06034e-16
1.06033e-16
1.06032e-16
1.06031e-16
1.06029e-16
1.06028e-16
1.06027e-16
1.06026e-16
1.06025e-16
1.06024e-16
1.06024e-16
1.06024e-16
1.06023e-16
1.06024e-16
1.06024e-16
1.06025e-16
1.06025e-16
1.06024e-16
1.06019e-16
1.06007e-16
1.05981e-16
1.05926e-16
1.05751e-16
6.15212e-16
6.1653e-16
6.17093e-16
6.17406e-16
6.17575e-16
6.17663e-16
6.17706e-16
6.17727e-16
6.17737e-16
6.17742e-16
6.17746e-16
6.1775e-16
6.17754e-16
6.17759e-16
6.17765e-16
6.17771e-16
6.17778e-16
6.17785e-16
6.17792e-16
6.17799e-16
6.17806e-16
6.17812e-16
6.17818e-16
6.17823e-16
6.17827e-16
6.17831e-16
6.17834e-16
6.17837e-16
6.17839e-16
6.17839e-16
6.17839e-16
6.17839e-16
6.17837e-16
6.17834e-16
6.17831e-16
6.17827e-16
6.17823e-16
6.17818e-16
6.17812e-16
6.17806e-16
6.17799e-16
6.17792e-16
6.17785e-16
6.17778e-16
6.17771e-16
6.17765e-16
6.17759e-16
6.17754e-16
6.1775e-16
6.17746e-16
6.17742e-16
6.17737e-16
6.17727e-16
6.17706e-16
6.17663e-16
6.17575e-16
6.17406e-16
6.17093e-16
6.1653e-16
6.15212e-16
3.68893e-15
3.69863e-15
3.70348e-15
3.70632e-15
3.70794e-15
3.70883e-15
3.70931e-15
3.70956e-15
3.7097e-15
3.70978e-15
3.70983e-15
3.70988e-15
3.70992e-15
3.70996e-15
3.71e-15
3.71004e-15
3.71009e-15
3.71013e-15
3.71018e-15
3.71022e-15
3.71026e-15
3.7103e-15
3.71034e-15
3.71037e-15
3.7104e-15
3.71043e-15
3.71044e-15
3.71046e-15
3.71047e-15
3.71047e-15
3.71047e-15
3.71047e-15
3.71046e-15
3.71044e-15
3.71043e-15
3.7104e-15
3.71037e-15
3.71034e-15
3.7103e-15
3.71026e-15
3.71022e-15
3.71018e-15
3.71013e-15
3.71009e-15
3.71004e-15
3.71e-15
3.70996e-15
3.70992e-15
3.70988e-15
3.70983e-15
3.70978e-15
3.7097e-15
3.70956e-15
3.70931e-15
3.70883e-15
3.70794e-15
3.70632e-15
3.70348e-15
3.69863e-15
3.68893e-15
2.27277e-14
2.27984e-14
2.28373e-14
2.28608e-14
2.28745e-14
2.28822e-14
2.28864e-14
2.28888e-14
2.28901e-14
2.28909e-14
2.28915e-14
2.28919e-14
2.28922e-14
2.28925e-14
2.28928e-14
2.28931e-14
2.28934e-14
2.28937e-14
2.2894e-14
2.28943e-14
2.28946e-14
2.28948e-14
2.28951e-14
2.28953e-14
2.28954e-14
2.28956e-14
2.28957e-14
2.28958e-14
2.28959e-14
2.28959e-14
2.28959e-14
2.28959e-14
2.28958e-14
2.28957e-14
2.28956e-14
2.28954e-14
2.28953e-14
2.28951e-14
2.28948e-14
2.28946e-14
2.28943e-14
2.2894e-14
2.28937e-14
2.28934e-14
2.28931e-14
2.28928e-14
2.28925e-14
2.28922e-14
2.28919e-14
2.28915e-14
2.28909e-14
2.28901e-14
2.28888e-14
2.28864e-14
2.28822e-14
2.28745e-14
2.28608e-14
2.28373e-14
2.27984e-14
2.27277e-14
1.43309e-13
1.43824e-13
1.44125e-13
1.4431e-13
1.44419e-13
1.44482e-13
1.44517e-13
1.44537e-13
1.44549e-13
1.44555e-13
1.4456e-13
1.44563e-13
1.44566e-13
1.44568e-13
1.4457e-13
1.44572e-13
1.44575e-13
1.44577e-13
1.44579e-13
1.4458e-13
1.44582e-13
1.44584e-13
1.44585e-13
1.44587e-13
1.44588e-13
1.44589e-13
1.4459e-13
1.4459e-13
1.44591e-13
1.44591e-13
1.44591e-13
1.44591e-13
1.4459e-13
1.4459e-13
1.44589e-13
1.44588e-13
1.44587e-13
1.44585e-13
1.44584e-13
1.44582e-13
1.4458e-13
1.44579e-13
1.44577e-13
1.44575e-13
1.44572e-13
1.4457e-13
1.44568e-13
1.44566e-13
1.44563e-13
1.4456e-13
1.44555e-13
1.44549e-13
1.44537e-13
1.44517e-13
1.44482e-13
1.44419e-13
1.4431e-13
1.44125e-13
1.43824e-13
1.43309e-13
9.20323e-13
9.24054e-13
9.26341e-13
9.27763e-13
9.28608e-13
9.29096e-13
9.29375e-13
9.29534e-13
9.29627e-13
9.29683e-13
9.29719e-13
9.29745e-13
9.29765e-13
9.29783e-13
9.29799e-13
9.29814e-13
9.29828e-13
9.29842e-13
9.29855e-13
9.29867e-13
9.29879e-13
9.2989e-13
9.299e-13
9.29909e-13
9.29916e-13
9.29923e-13
9.29928e-13
9.29932e-13
9.29935e-13
9.29936e-13
9.29936e-13
9.29935e-13
9.29932e-13
9.29928e-13
9.29923e-13
9.29916e-13
9.29909e-13
9.299e-13
9.2989e-13
9.29879e-13
9.29867e-13
9.29855e-13
9.29842e-13
9.29828e-13
9.29814e-13
9.29799e-13
9.29783e-13
9.29765e-13
9.29745e-13
9.29719e-13
9.29683e-13
9.29627e-13
9.29534e-13
9.29375e-13
9.29096e-13
9.28608e-13
9.27763e-13
9.26341e-13
9.24054e-13
9.20323e-13
5.98394e-12
6.01086e-12
6.02793e-12
6.03862e-12
6.04502e-12
6.04874e-12
6.05088e-12
6.05211e-12
6.05283e-12
6.05327e-12
6.05355e-12
6.05375e-12
6.0539e-12
6.05403e-12
6.05414e-12
6.05425e-12
6.05434e-12
6.05444e-12
6.05453e-12
6.05461e-12
6.05469e-12
6.05476e-12
6.05483e-12
6.05489e-12
6.05494e-12
6.05498e-12
6.05502e-12
6.05504e-12
6.05506e-12
6.05507e-12
6.05507e-12
6.05506e-12
6.05504e-12
6.05502e-12
6.05498e-12
6.05494e-12
6.05489e-12
6.05483e-12
6.05476e-12
6.05469e-12
6.05461e-12
6.05453e-12
6.05444e-12
6.05434e-12
6.05425e-12
6.05414e-12
6.05403e-12
6.0539e-12
6.05375e-12
6.05355e-12
6.05327e-12
6.05283e-12
6.05211e-12
6.05088e-12
6.04874e-12
6.04502e-12
6.03862e-12
6.02793e-12
6.01086e-12
5.98394e-12
3.91165e-11
3.93089e-11
3.9434e-11
3.95128e-11
3.95601e-11
3.95878e-11
3.96038e-11
3.96131e-11
3.96185e-11
3.96218e-11
3.9624e-11
3.96255e-11
3.96266e-11
3.96275e-11
3.96283e-11
3.9629e-11
3.96297e-11
3.96303e-11
3.96309e-11
3.96315e-11
3.9632e-11
3.96325e-11
3.9633e-11
3.96333e-11
3.96337e-11
3.9634e-11
3.96342e-11
3.96344e-11
3.96345e-11
3.96346e-11
3.96346e-11
3.96345e-11
3.96344e-11
3.96342e-11
3.9634e-11
3.96337e-11
3.96333e-11
3.9633e-11
3.96325e-11
3.9632e-11
3.96315e-11
3.96309e-11
3.96303e-11
3.96297e-11
3.9629e-11
3.96283e-11
3.96275e-11
3.96266e-11
3.96255e-11
3.9624e-11
3.96218e-11
3.96185e-11
3.96131e-11
3.96038e-11
3.95878e-11
3.95601e-11
3.95128e-11
3.9434e-11
3.93089e-11
3.91165e-11
2.5497e-10
2.56323e-10
2.57219e-10
2.57786e-10
2.58128e-10
2.58328e-10
2.58444e-10
2.58512e-10
2.58552e-10
2.58576e-10
2.58592e-10
2.58603e-10
2.58611e-10
2.58617e-10
2.58623e-10
2.58628e-10
2.58632e-10
2.58637e-10
2.58641e-10
2.58644e-10
2.58648e-10
2.58651e-10
2.58654e-10
2.58657e-10
2.58659e-10
2.58661e-10
2.58662e-10
2.58663e-10
2.58664e-10
2.58664e-10
2.58664e-10
2.58664e-10
2.58663e-10
2.58662e-10
2.58661e-10
2.58659e-10
2.58657e-10
2.58654e-10
2.58651e-10
2.58648e-10
2.58644e-10
2.58641e-10
2.58637e-10
2.58632e-10
2.58628e-10
2.58623e-10
2.58617e-10
2.58611e-10
2.58603e-10
2.58592e-10
2.58576e-10
2.58552e-10
2.58512e-10
2.58444e-10
2.58328e-10
2.58128e-10
2.57786e-10
2.57219e-10
2.56323e-10
2.5497e-10
1.64164e-09
1.65091e-09
1.65715e-09
1.6611e-09
1.66349e-09
1.66489e-09
1.66571e-09
1.66619e-09
1.66647e-09
1.66664e-09
1.66675e-09
1.66683e-09
1.66689e-09
1.66693e-09
1.66697e-09
1.667e-09
1.66703e-09
1.66706e-09
1.66709e-09
1.66711e-09
1.66713e-09
1.66715e-09
1.66717e-09
1.66719e-09
1.6672e-09
1.66722e-09
1.66723e-09
1.66723e-09
1.66724e-09
1.66724e-09
1.66724e-09
1.66724e-09
1.66723e-09
1.66723e-09
1.66722e-09
1.6672e-09
1.66719e-09
1.66717e-09
1.66715e-09
1.66713e-09
1.66711e-09
1.66709e-09
1.66706e-09
1.66703e-09
1.667e-09
1.66697e-09
1.66693e-09
1.66689e-09
1.66683e-09
1.66675e-09
1.66664e-09
1.66647e-09
1.66619e-09
1.66571e-09
1.66489e-09
1.66349e-09
1.6611e-09
1.65715e-09
1.65091e-09
1.64164e-09
1.03302e-08
1.03915e-08
1.04332e-08
1.04597e-08
1.04758e-08
1.04852e-08
1.04907e-08
1.04939e-08
1.04959e-08
1.0497e-08
1.04978e-08
1.04983e-08
1.04987e-08
1.0499e-08
1.04992e-08
1.04994e-08
1.04996e-08
1.04998e-08
1.05e-08
1.05001e-08
1.05003e-08
1.05004e-08
1.05005e-08
1.05006e-08
1.05007e-08
1.05008e-08
1.05008e-08
1.05009e-08
1.05009e-08
1.05009e-08
1.05009e-08
1.05009e-08
1.05009e-08
1.05008e-08
1.05008e-08
1.05007e-08
1.05006e-08
1.05005e-08
1.05004e-08
1.05003e-08
1.05001e-08
1.05e-08
1.04998e-08
1.04996e-08
1.04994e-08
1.04992e-08
1.0499e-08
1.04987e-08
1.04983e-08
1.04978e-08
1.0497e-08
1.04959e-08
1.04939e-08
1.04907e-08
1.04852e-08
1.04758e-08
1.04597e-08
1.04332e-08
1.03915e-08
1.03302e-08
6.27865e-08
6.31736e-08
6.34386e-08
6.36074e-08
6.37097e-08
6.377e-08
6.38053e-08
6.3826e-08
6.38383e-08
6.38458e-08
6.38506e-08
6.38539e-08
6.38563e-08
6.38581e-08
6.38597e-08
6.3861e-08
6.38623e-08
6.38634e-08
6.38644e-08
6.38653e-08
6.38662e-08
6.3867e-08
6.38677e-08
6.38683e-08
6.38688e-08
6.38693e-08
6.38696e-08
6.38699e-08
6.38701e-08
6.38702e-08
6.38702e-08
6.38701e-08
6.38699e-08
6.38696e-08
6.38693e-08
6.38688e-08
6.38683e-08
6.38677e-08
6.3867e-08
6.38662e-08
6.38653e-08
6.38644e-08
6.38634e-08
6.38623e-08
6.3861e-08
6.38597e-08
6.38581e-08
6.38563e-08
6.38539e-08
6.38506e-08
6.38458e-08
6.38383e-08
6.3826e-08
6.38053e-08
6.377e-08
6.37097e-08
6.36074e-08
6.34386e-08
6.31736e-08
6.27865e-08
3.63895e-07
3.66195e-07
3.67778e-07
3.68787e-07
3.69399e-07
3.6976e-07
3.69972e-07
3.70096e-07
3.7017e-07
3.70215e-07
3.70244e-07
3.70264e-07
3.70278e-07
3.70289e-07
3.70299e-07
3.70306e-07
3.70314e-07
3.7032e-07
3.70326e-07
3.70331e-07
3.70336e-07
3.7034e-07
3.70344e-07
3.70348e-07
3.70351e-07
3.70354e-07
3.70356e-07
3.70357e-07
3.70358e-07
3.70359e-07
3.70359e-07
3.70358e-07
3.70357e-07
3.70356e-07
3.70354e-07
3.70351e-07
3.70348e-07
3.70344e-07
3.7034e-07
3.70336e-07
3.70331e-07
3.70326e-07
3.7032e-07
3.70314e-07
3.70306e-07
3.70299e-07
3.70289e-07
3.70278e-07
3.70264e-07
3.70244e-07
3.70215e-07
3.7017e-07
3.70096e-07
3.69972e-07
3.6976e-07
3.69399e-07
3.68787e-07
3.67778e-07
3.66195e-07
3.63895e-07
1.98357e-06
1.99625e-06
2.00501e-06
2.01059e-06
2.01398e-06
2.01598e-06
2.01716e-06
2.01785e-06
2.01826e-06
2.01851e-06
2.01867e-06
2.01878e-06
2.01886e-06
2.01892e-06
2.01897e-06
2.01901e-06
2.01905e-06
2.01908e-06
2.01912e-06
2.01914e-06
2.01917e-06
2.01919e-06
2.01921e-06
2.01923e-06
2.01925e-06
2.01926e-06
2.01927e-06
2.01928e-06
2.01929e-06
2.01929e-06
2.01929e-06
2.01929e-06
2.01928e-06
2.01927e-06
2.01926e-06
2.01925e-06
2.01923e-06
2.01921e-06
2.01919e-06
2.01917e-06
2.01914e-06
2.01912e-06
2.01908e-06
2.01905e-06
2.01901e-06
2.01897e-06
2.01892e-06
2.01886e-06
2.01878e-06
2.01867e-06
2.01851e-06
2.01826e-06
2.01785e-06
2.01716e-06
2.01598e-06
2.01398e-06
2.01059e-06
2.00501e-06
1.99625e-06
1.98357e-06
1.00208e-05
1.00848e-05
1.01289e-05
1.0157e-05
1.01741e-05
1.01843e-05
1.01902e-05
1.01937e-05
1.01958e-05
1.01971e-05
1.01979e-05
1.01984e-05
1.01988e-05
1.01991e-05
1.01994e-05
1.01996e-05
1.01998e-05
1.01999e-05
1.02001e-05
1.02002e-05
1.02004e-05
1.02005e-05
1.02006e-05
1.02007e-05
1.02007e-05
1.02008e-05
1.02009e-05
1.02009e-05
1.02009e-05
1.02009e-05
1.02009e-05
1.02009e-05
1.02009e-05
1.02009e-05
1.02008e-05
1.02007e-05
1.02007e-05
1.02006e-05
1.02005e-05
1.02004e-05
1.02002e-05
1.02001e-05
1.01999e-05
1.01998e-05
1.01996e-05
1.01994e-05
1.01991e-05
1.01988e-05
1.01984e-05
1.01979e-05
1.01971e-05
1.01958e-05
1.01937e-05
1.01902e-05
1.01843e-05
1.01741e-05
1.0157e-05
1.01289e-05
1.00848e-05
1.00208e-05
4.61951e-05
4.64843e-05
4.66839e-05
4.6811e-05
4.68883e-05
4.69341e-05
4.6961e-05
4.69768e-05
4.69863e-05
4.69921e-05
4.69958e-05
4.69983e-05
4.70001e-05
4.70015e-05
4.70026e-05
4.70035e-05
4.70043e-05
4.70051e-05
4.70057e-05
4.70063e-05
4.70069e-05
4.70074e-05
4.70078e-05
4.70082e-05
4.70086e-05
4.70088e-05
4.70091e-05
4.70092e-05
4.70094e-05
4.70094e-05
4.70094e-05
4.70094e-05
4.70092e-05
4.70091e-05
4.70088e-05
4.70086e-05
4.70082e-05
4.70078e-05
4.70074e-05
4.70069e-05
4.70063e-05
4.70057e-05
4.70051e-05
4.70043e-05
4.70035e-05
4.70026e-05
4.70015e-05
4.70001e-05
4.69983e-05
4.69958e-05
4.69921e-05
4.69863e-05
4.69768e-05
4.6961e-05
4.69341e-05
4.68883e-05
4.6811e-05
4.66839e-05
4.64843e-05
4.61951e-05
0.000191153
0.000192306
0.0001931
0.000193605
0.000193912
0.000194095
0.000194202
0.000194265
0.000194303
0.000194326
0.000194341
0.00019435
0.000194358
0.000194363
0.000194367
0.000194371
0.000194374
0.000194377
0.00019438
0.000194382
0.000194384
0.000194386
0.000194388
0.000194389
0.000194391
0.000194392
0.000194393
0.000194393
0.000194394
0.000194394
0.000194394
0.000194394
0.000194393
0.000194393
0.000194392
0.000194391
0.000194389
0.000194388
0.000194386
0.000194384
0.000194382
0.00019438
0.000194377
0.000194374
0.000194371
0.000194367
0.000194363
0.000194358
0.00019435
0.000194341
0.000194326
0.000194303
0.000194265
0.000194202
0.000194095
0.000193912
0.000193605
0.0001931
0.000192306
0.000191153
0.000697845
0.000701811
0.000704532
0.000706262
0.000707314
0.000707939
0.000708306
0.000708523
0.000708652
0.000708732
0.000708783
0.000708817
0.000708841
0.00070886
0.000708874
0.000708887
0.000708898
0.000708907
0.000708916
0.000708924
0.000708931
0.000708937
0.000708943
0.000708948
0.000708952
0.000708956
0.000708958
0.000708961
0.000708962
0.000708963
0.000708963
0.000708962
0.000708961
0.000708958
0.000708956
0.000708952
0.000708948
0.000708943
0.000708937
0.000708931
0.000708924
0.000708916
0.000708907
0.000708898
0.000708887
0.000708874
0.00070886
0.000708841
0.000708817
0.000708783
0.000708732
0.000708652
0.000708523
0.000708306
0.000707939
0.000707314
0.000706262
0.000704532
0.000701811
0.000697845
0.00220872
0.00222023
0.00222809
0.00223308
0.00223612
0.00223792
0.00223898
0.00223961
0.00223998
0.00224021
0.00224036
0.00224046
0.00224053
0.00224058
0.00224063
0.00224066
0.00224069
0.00224072
0.00224074
0.00224076
0.00224078
0.0022408
0.00224082
0.00224083
0.00224084
0.00224085
0.00224086
0.00224087
0.00224087
0.00224087
0.00224087
0.00224087
0.00224087
0.00224086
0.00224085
0.00224084
0.00224083
0.00224082
0.0022408
0.00224078
0.00224076
0.00224074
0.00224072
0.00224069
0.00224066
0.00224063
0.00224058
0.00224053
0.00224046
0.00224036
0.00224021
0.00223998
0.00223961
0.00223898
0.00223792
0.00223612
0.00223308
0.00222809
0.00222023
0.00220872
0.00596688
0.0059945
0.00601325
0.00602514
0.00603237
0.00603667
0.00603921
0.0060407
0.0060416
0.00604215
0.0060425
0.00604274
0.00604291
0.00604303
0.00604313
0.00604322
0.00604329
0.00604335
0.00604341
0.00604346
0.00604351
0.00604355
0.00604358
0.00604362
0.00604364
0.00604367
0.00604368
0.0060437
0.00604371
0.00604371
0.00604371
0.00604371
0.0060437
0.00604368
0.00604367
0.00604364
0.00604362
0.00604358
0.00604355
0.00604351
0.00604346
0.00604341
0.00604335
0.00604329
0.00604322
0.00604313
0.00604303
0.00604291
0.00604274
0.0060425
0.00604215
0.0060416
0.0060407
0.00603921
0.00603667
0.00603237
0.00602514
0.00601325
0.0059945
0.00596688
0.0136283
0.0136825
0.013719
0.0137421
0.0137562
0.0137645
0.0137695
0.0137724
0.0137742
0.0137752
0.0137759
0.0137764
0.0137767
0.013777
0.0137771
0.0137773
0.0137774
0.0137776
0.0137777
0.0137778
0.0137779
0.0137779
0.013778
0.0137781
0.0137781
0.0137782
0.0137782
0.0137782
0.0137782
0.0137782
0.0137782
0.0137782
0.0137782
0.0137782
0.0137782
0.0137781
0.0137781
0.013778
0.0137779
0.0137779
0.0137778
0.0137777
0.0137776
0.0137774
0.0137773
0.0137771
0.013777
0.0137767
0.0137764
0.0137759
0.0137752
0.0137742
0.0137724
0.0137695
0.0137645
0.0137562
0.0137421
0.013719
0.0136825
0.0136283
0.0263651
0.0264524
0.0265108
0.0265477
0.0265702
0.0265836
0.0265915
0.0265962
0.026599
0.0266007
0.0266018
0.0266026
0.0266031
0.0266035
0.0266038
0.026604
0.0266043
0.0266044
0.0266046
0.0266048
0.0266049
0.026605
0.0266051
0.0266052
0.0266053
0.0266054
0.0266054
0.0266055
0.0266055
0.0266055
0.0266055
0.0266055
0.0266055
0.0266054
0.0266054
0.0266053
0.0266052
0.0266051
0.026605
0.0266049
0.0266048
0.0266046
0.0266044
0.0266043
0.026604
0.0266038
0.0266035
0.0266031
0.0266026
0.0266018
0.0266007
0.026599
0.0265962
0.0265915
0.0265836
0.0265702
0.0265477
0.0265108
0.0264524
0.0263651
0.0439004
0.0440195
0.0440986
0.0441485
0.0441789
0.0441971
0.0442078
0.0442142
0.044218
0.0442203
0.0442219
0.0442229
0.0442236
0.0442241
0.0442245
0.0442248
0.0442251
0.0442254
0.0442256
0.0442258
0.044226
0.0442261
0.0442263
0.0442264
0.0442265
0.0442266
0.0442266
0.0442267
0.0442267
0.0442267
0.0442267
0.0442267
0.0442267
0.0442266
0.0442266
0.0442265
0.0442264
0.0442263
0.0442261
0.044226
0.0442258
0.0442256
0.0442254
0.0442251
0.0442248
0.0442245
0.0442241
0.0442236
0.0442229
0.0442219
0.0442203
0.044218
0.0442142
0.0442078
0.0441971
0.0441789
0.0441485
0.0440986
0.0440195
0.0439004
0.0646529
0.0647972
0.0648922
0.0649521
0.0649887
0.0650105
0.0650235
0.0650312
0.0650358
0.0650387
0.0650405
0.0650417
0.0650426
0.0650432
0.0650437
0.0650441
0.0650444
0.0650447
0.065045
0.0650452
0.0650454
0.0650456
0.0650458
0.0650459
0.065046
0.0650461
0.0650462
0.0650463
0.0650463
0.0650463
0.0650463
0.0650463
0.0650463
0.0650462
0.0650461
0.065046
0.0650459
0.0650458
0.0650456
0.0650454
0.0650452
0.065045
0.0650447
0.0650444
0.0650441
0.0650437
0.0650432
0.0650426
0.0650417
0.0650405
0.0650387
0.0650358
0.0650312
0.0650235
0.0650105
0.0649887
0.0649521
0.0648922
0.0647972
0.0646529
0.0868581
0.087021
0.0871275
0.0871948
0.0872358
0.0872604
0.087275
0.0872837
0.087289
0.0872922
0.0872943
0.0872957
0.0872967
0.0872974
0.0872979
0.0872983
0.0872987
0.087299
0.0872993
0.0872996
0.0872998
0.0873
0.0873002
0.0873003
0.0873004
0.0873005
0.0873006
0.0873007
0.0873007
0.0873008
0.0873008
0.0873007
0.0873007
0.0873006
0.0873005
0.0873004
0.0873003
0.0873002
0.0873
0.0872998
0.0872996
0.0872993
0.087299
0.0872987
0.0872983
0.0872979
0.0872974
0.0872967
0.0872957
0.0872943
0.0872922
0.087289
0.0872837
0.087275
0.0872604
0.0872358
0.0871948
0.0871275
0.087021
0.0868581
0.109397
0.109575
0.109691
0.109764
0.109808
0.109835
0.109851
0.109861
0.109867
0.10987
0.109872
0.109874
0.109875
0.109876
0.109876
0.109877
0.109877
0.109878
0.109878
0.109878
0.109878
0.109879
0.109879
0.109879
0.109879
0.109879
0.109879
0.109879
0.109879
0.109879
0.109879
0.109879
0.109879
0.109879
0.109879
0.109879
0.109879
0.109879
0.109879
0.109878
0.109878
0.109878
0.109878
0.109877
0.109877
0.109876
0.109876
0.109875
0.109874
0.109872
0.10987
0.109867
0.109861
0.109851
0.109835
0.109808
0.109764
0.109691
0.109575
0.109397
0.131829
0.13202
0.132144
0.132223
0.132271
0.1323
0.132317
0.132328
0.132334
0.132338
0.13234
0.132342
0.132343
0.132344
0.132345
0.132345
0.132346
0.132346
0.132346
0.132347
0.132347
0.132347
0.132347
0.132347
0.132347
0.132348
0.132348
0.132348
0.132348
0.132348
0.132348
0.132348
0.132348
0.132348
0.132348
0.132347
0.132347
0.132347
0.132347
0.132347
0.132347
0.132346
0.132346
0.132346
0.132345
0.132345
0.132344
0.132343
0.132342
0.13234
0.132338
0.132334
0.132328
0.132317
0.1323
0.132271
0.132223
0.132144
0.13202
0.131829
0.154072
0.154276
0.154408
0.154492
0.154544
0.154575
0.154593
0.154605
0.154612
0.154616
0.154618
0.15462
0.154622
0.154622
0.154623
0.154624
0.154624
0.154624
0.154625
0.154625
0.154625
0.154626
0.154626
0.154626
0.154626
0.154626
0.154626
0.154626
0.154626
0.154626
0.154626
0.154626
0.154626
0.154626
0.154626
0.154626
0.154626
0.154626
0.154626
0.154625
0.154625
0.154625
0.154624
0.154624
0.154624
0.154623
0.154622
0.154622
0.15462
0.154618
0.154616
0.154612
0.154605
0.154593
0.154575
0.154544
0.154492
0.154408
0.154276
0.154072
0.17615
0.176367
0.176507
0.176596
0.176651
0.176685
0.176705
0.176717
0.176724
0.176729
0.176732
0.176734
0.176735
0.176736
0.176737
0.176738
0.176738
0.176738
0.176739
0.176739
0.176739
0.17674
0.17674
0.17674
0.17674
0.17674
0.17674
0.17674
0.17674
0.17674
0.17674
0.17674
0.17674
0.17674
0.17674
0.17674
0.17674
0.17674
0.17674
0.176739
0.176739
0.176739
0.176738
0.176738
0.176738
0.176737
0.176736
0.176735
0.176734
0.176732
0.176729
0.176724
0.176717
0.176705
0.176685
0.176651
0.176596
0.176507
0.176367
0.17615
0.198091
0.19832
0.198468
0.198563
0.198622
0.198657
0.198679
0.198692
0.1987
0.198705
0.198708
0.19871
0.198712
0.198713
0.198714
0.198714
0.198715
0.198715
0.198716
0.198716
0.198716
0.198716
0.198717
0.198717
0.198717
0.198717
0.198717
0.198717
0.198717
0.198717
0.198717
0.198717
0.198717
0.198717
0.198717
0.198717
0.198717
0.198717
0.198716
0.198716
0.198716
0.198716
0.198715
0.198715
0.198714
0.198714
0.198713
0.198712
0.19871
0.198708
0.198705
0.1987
0.198692
0.198679
0.198657
0.198622
0.198563
0.198468
0.19832
0.198091
0.219904
0.220144
0.220301
0.220401
0.220463
0.220501
0.220524
0.220538
0.220547
0.220552
0.220556
0.220558
0.22056
0.220561
0.220562
0.220562
0.220563
0.220563
0.220564
0.220564
0.220564
0.220564
0.220565
0.220565
0.220565
0.220565
0.220565
0.220565
0.220565
0.220565
0.220565
0.220565
0.220565
0.220565
0.220565
0.220565
0.220565
0.220565
0.220564
0.220564
0.220564
0.220564
0.220563
0.220563
0.220562
0.220562
0.220561
0.22056
0.220558
0.220556
0.220552
0.220547
0.220538
0.220524
0.220501
0.220463
0.220401
0.220301
0.220144
0.219904
0.241582
0.241833
0.241998
0.242103
0.242169
0.24221
0.242234
0.242249
0.242259
0.242264
0.242268
0.242271
0.242272
0.242274
0.242274
0.242275
0.242276
0.242276
0.242276
0.242277
0.242277
0.242277
0.242278
0.242278
0.242278
0.242278
0.242278
0.242278
0.242278
0.242278
0.242278
0.242278
0.242278
0.242278
0.242278
0.242278
0.242278
0.242278
0.242277
0.242277
0.242277
0.242276
0.242276
0.242276
0.242275
0.242274
0.242274
0.242272
0.242271
0.242268
0.242264
0.242259
0.242249
0.242234
0.24221
0.242169
0.242103
0.241998
0.241833
0.241582
0.263112
0.263373
0.263545
0.263656
0.263726
0.263769
0.263795
0.263811
0.263821
0.263828
0.263832
0.263834
0.263836
0.263837
0.263838
0.263839
0.26384
0.26384
0.26384
0.263841
0.263841
0.263841
0.263841
0.263842
0.263842
0.263842
0.263842
0.263842
0.263842
0.263842
0.263842
0.263842
0.263842
0.263842
0.263842
0.263842
0.263842
0.263841
0.263841
0.263841
0.263841
0.26384
0.26384
0.26384
0.263839
0.263838
0.263837
0.263836
0.263834
0.263832
0.263828
0.263821
0.263811
0.263795
0.263769
0.263726
0.263656
0.263545
0.263373
0.263112
0.284476
0.284747
0.284926
0.285042
0.285115
0.285161
0.285189
0.285206
0.285217
0.285224
0.285228
0.285231
0.285233
0.285234
0.285235
0.285236
0.285236
0.285237
0.285237
0.285238
0.285238
0.285238
0.285238
0.285239
0.285239
0.285239
0.285239
0.285239
0.285239
0.285239
0.285239
0.285239
0.285239
0.285239
0.285239
0.285239
0.285239
0.285238
0.285238
0.285238
0.285238
0.285237
0.285237
0.285236
0.285236
0.285235
0.285234
0.285233
0.285231
0.285228
0.285224
0.285217
0.285206
0.285189
0.285161
0.285115
0.285042
0.284926
0.284747
0.284476
0.305655
0.305934
0.306121
0.306242
0.306319
0.306367
0.306397
0.306415
0.306426
0.306434
0.306438
0.306441
0.306443
0.306445
0.306446
0.306447
0.306447
0.306448
0.306448
0.306449
0.306449
0.306449
0.306449
0.30645
0.30645
0.30645
0.30645
0.30645
0.30645
0.30645
0.30645
0.30645
0.30645
0.30645
0.30645
0.30645
0.30645
0.306449
0.306449
0.306449
0.306449
0.306448
0.306448
0.306447
0.306447
0.306446
0.306445
0.306443
0.306441
0.306438
0.306434
0.306426
0.306415
0.306397
0.306367
0.306319
0.306242
0.306121
0.305934
0.305655
0.326629
0.326917
0.32711
0.327236
0.327317
0.327367
0.327399
0.327418
0.32743
0.327438
0.327443
0.327446
0.327449
0.32745
0.327451
0.327452
0.327453
0.327453
0.327454
0.327454
0.327455
0.327455
0.327455
0.327455
0.327455
0.327456
0.327456
0.327456
0.327456
0.327456
0.327456
0.327456
0.327456
0.327456
0.327456
0.327455
0.327455
0.327455
0.327455
0.327455
0.327454
0.327454
0.327453
0.327453
0.327452
0.327451
0.32745
0.327449
0.327446
0.327443
0.327438
0.32743
0.327418
0.327399
0.327367
0.327317
0.327236
0.32711
0.326917
0.326629
0.34738
0.347675
0.347874
0.348006
0.34809
0.348143
0.348176
0.348197
0.34821
0.348218
0.348223
0.348227
0.348229
0.348231
0.348232
0.348233
0.348234
0.348234
0.348235
0.348235
0.348236
0.348236
0.348236
0.348236
0.348236
0.348237
0.348237
0.348237
0.348237
0.348237
0.348237
0.348237
0.348237
0.348237
0.348237
0.348236
0.348236
0.348236
0.348236
0.348236
0.348235
0.348235
0.348234
0.348234
0.348233
0.348232
0.348231
0.348229
0.348227
0.348223
0.348218
0.34821
0.348197
0.348176
0.348143
0.34809
0.348006
0.347874
0.347675
0.34738
0.367889
0.36819
0.368396
0.368532
0.36862
0.368675
0.36871
0.368732
0.368746
0.368755
0.368761
0.368765
0.368767
0.368769
0.36877
0.368771
0.368772
0.368772
0.368773
0.368773
0.368774
0.368774
0.368774
0.368774
0.368774
0.368775
0.368775
0.368775
0.368775
0.368775
0.368775
0.368775
0.368775
0.368775
0.368775
0.368774
0.368774
0.368774
0.368774
0.368774
0.368773
0.368773
0.368772
0.368772
0.368771
0.36877
0.368769
0.368767
0.368765
0.368761
0.368755
0.368746
0.368732
0.36871
0.368675
0.36862
0.368532
0.368396
0.36819
0.367889
0.388138
0.388446
0.388657
0.388797
0.388889
0.388947
0.388984
0.389007
0.389022
0.389031
0.389037
0.389041
0.389044
0.389046
0.389047
0.389048
0.389049
0.38905
0.38905
0.389051
0.389051
0.389051
0.389052
0.389052
0.389052
0.389052
0.389052
0.389052
0.389052
0.389052
0.389052
0.389052
0.389052
0.389052
0.389052
0.389052
0.389052
0.389052
0.389051
0.389051
0.389051
0.38905
0.38905
0.389049
0.389048
0.389047
0.389046
0.389044
0.389041
0.389037
0.389031
0.389022
0.389007
0.388984
0.388947
0.388889
0.388797
0.388657
0.388446
0.388138
0.408111
0.408424
0.40864
0.408785
0.40888
0.408941
0.40898
0.409004
0.40902
0.40903
0.409037
0.409041
0.409044
0.409046
0.409047
0.409048
0.409049
0.40905
0.40905
0.409051
0.409051
0.409051
0.409052
0.409052
0.409052
0.409052
0.409052
0.409052
0.409052