/*--------------------------------*- C++ -*----------------------------------*\
| =========                 |                                                 |
| \\      /  F ield         | foam-extend: Open Source CFD                    |
|  \\    /   O peration     | Version:     4.0                                |
|   \\  /    A nd           | Web:         http://www.foam-extend.org         |
|    \\/     M anipulation  |                                                 |
\*---------------------------------------------------------------------------*/
FoamFile
{
    version     2.0;
    format      ascii;
    class       volScalarField;
    location    "1890";
    object      cPlus;
}
// * * * * * * * * * * * * * * * * * * * * * * * * * * * * * * * * * * * * * //

dimensions      [0 0 0 0 0 0 0];

internalField   nonuniform List<scalar> 
6960
(
0.332549
0.332539
0.332528
0.332516
0.332505
0.332494
0.332485
0.332476
0.332468
0.332461
0.332454
0.332448
0.332443
0.332438
0.332434
0.33243
0.332427
0.332424
0.332422
0.33242
0.332418
0.332416
0.332415
0.332414
0.332413
0.332412
0.332412
0.332411
0.332411
0.332411
0.332411
0.332411
0.332411
0.332412
0.332412
0.332413
0.332414
0.332415
0.332416
0.332418
0.33242
0.332422
0.332424
0.332427
0.33243
0.332434
0.332438
0.332443
0.332448
0.332454
0.332461
0.332468
0.332476
0.332485
0.332494
0.332505
0.332516
0.332528
0.332539
0.332549
0.112307
0.1123
0.112291
0.112283
0.112274
0.112266
0.112259
0.112252
0.112246
0.112241
0.112236
0.112231
0.112227
0.112224
0.112221
0.112218
0.112216
0.112213
0.112212
0.11221
0.112209
0.112207
0.112206
0.112205
0.112205
0.112204
0.112204
0.112203
0.112203
0.112203
0.112203
0.112203
0.112203
0.112204
0.112204
0.112205
0.112205
0.112206
0.112207
0.112209
0.11221
0.112212
0.112213
0.112216
0.112218
0.112221
0.112224
0.112227
0.112231
0.112236
0.112241
0.112246
0.112252
0.112259
0.112266
0.112274
0.112283
0.112291
0.1123
0.112307
0.0449551
0.0449512
0.0449461
0.0449408
0.0449357
0.0449309
0.0449266
0.0449226
0.0449189
0.0449156
0.0449127
0.04491
0.0449076
0.0449055
0.0449037
0.044902
0.0449006
0.0448993
0.0448982
0.0448972
0.0448964
0.0448956
0.044895
0.0448945
0.0448941
0.0448937
0.0448935
0.0448933
0.0448931
0.0448931
0.0448931
0.0448931
0.0448933
0.0448935
0.0448937
0.0448941
0.0448945
0.044895
0.0448956
0.0448964
0.0448972
0.0448982
0.0448993
0.0449006
0.044902
0.0449037
0.0449055
0.0449076
0.04491
0.0449127
0.0449156
0.0449189
0.0449226
0.0449266
0.0449309
0.0449357
0.0449408
0.0449461
0.0449512
0.0449551
0.0203764
0.0203746
0.0203721
0.0203695
0.0203669
0.0203646
0.0203624
0.0203604
0.0203585
0.0203569
0.0203554
0.0203541
0.0203529
0.0203518
0.0203509
0.0203501
0.0203494
0.0203487
0.0203482
0.0203477
0.0203472
0.0203469
0.0203466
0.0203463
0.0203461
0.0203459
0.0203458
0.0203457
0.0203456
0.0203456
0.0203456
0.0203456
0.0203457
0.0203458
0.0203459
0.0203461
0.0203463
0.0203466
0.0203469
0.0203472
0.0203477
0.0203482
0.0203487
0.0203494
0.0203501
0.0203509
0.0203518
0.0203529
0.0203541
0.0203554
0.0203569
0.0203585
0.0203604
0.0203624
0.0203646
0.0203669
0.0203695
0.0203721
0.0203746
0.0203764
0.0109089
0.0109084
0.0109075
0.0109066
0.0109057
0.0109048
0.010904
0.0109032
0.0109026
0.0109019
0.0109014
0.0109009
0.0109005
0.0109001
0.0108997
0.0108994
0.0108991
0.0108989
0.0108987
0.0108985
0.0108984
0.0108982
0.0108981
0.010898
0.0108979
0.0108979
0.0108978
0.0108978
0.0108978
0.0108977
0.0108977
0.0108978
0.0108978
0.0108978
0.0108979
0.0108979
0.010898
0.0108981
0.0108982
0.0108984
0.0108985
0.0108987
0.0108989
0.0108991
0.0108994
0.0108997
0.0109001
0.0109005
0.0109009
0.0109014
0.0109019
0.0109026
0.0109032
0.010904
0.0109048
0.0109057
0.0109066
0.0109075
0.0109084
0.0109089
0.00724556
0.00724586
0.00724592
0.00724592
0.00724589
0.00724585
0.00724582
0.00724578
0.00724575
0.00724572
0.0072457
0.00724567
0.00724565
0.00724563
0.00724561
0.0072456
0.00724558
0.00724557
0.00724556
0.00724555
0.00724554
0.00724553
0.00724553
0.00724552
0.00724552
0.00724551
0.00724551
0.00724551
0.00724551
0.0072455
0.0072455
0.00724551
0.00724551
0.00724551
0.00724551
0.00724552
0.00724552
0.00724553
0.00724553
0.00724554
0.00724555
0.00724556
0.00724557
0.00724558
0.0072456
0.00724561
0.00724563
0.00724565
0.00724567
0.0072457
0.00724572
0.00724575
0.00724578
0.00724582
0.00724585
0.00724589
0.00724592
0.00724592
0.00724586
0.00724556
0.00585919
0.00585988
0.00586042
0.0058609
0.00586134
0.00586174
0.0058621
0.00586244
0.00586274
0.00586301
0.00586325
0.00586347
0.00586366
0.00586383
0.00586399
0.00586412
0.00586424
0.00586434
0.00586443
0.00586451
0.00586458
0.00586464
0.00586469
0.00586473
0.00586476
0.00586479
0.00586481
0.00586483
0.00586484
0.00586484
0.00586484
0.00586484
0.00586483
0.00586481
0.00586479
0.00586476
0.00586473
0.00586469
0.00586464
0.00586458
0.00586451
0.00586443
0.00586434
0.00586424
0.00586412
0.00586399
0.00586383
0.00586366
0.00586347
0.00586325
0.00586301
0.00586274
0.00586244
0.0058621
0.00586174
0.00586134
0.0058609
0.00586042
0.00585988
0.00585919
0.00536129
0.00536217
0.00536294
0.00536366
0.00536432
0.00536493
0.00536549
0.005366
0.00536647
0.00536688
0.00536726
0.00536759
0.00536789
0.00536816
0.00536839
0.0053686
0.00536878
0.00536894
0.00536908
0.0053692
0.00536931
0.0053694
0.00536948
0.00536954
0.00536959
0.00536964
0.00536967
0.0053697
0.00536971
0.00536972
0.00536972
0.00536971
0.0053697
0.00536967
0.00536964
0.00536959
0.00536954
0.00536948
0.0053694
0.00536931
0.0053692
0.00536908
0.00536894
0.00536878
0.0053686
0.00536839
0.00536816
0.00536789
0.00536759
0.00536726
0.00536688
0.00536647
0.005366
0.00536549
0.00536493
0.00536432
0.00536366
0.00536294
0.00536217
0.00536129
0.00520487
0.00520585
0.00520673
0.00520756
0.00520833
0.00520905
0.0052097
0.00521029
0.00521083
0.00521132
0.00521175
0.00521214
0.00521249
0.0052128
0.00521308
0.00521332
0.00521353
0.00521372
0.00521388
0.00521403
0.00521415
0.00521425
0.00521434
0.00521442
0.00521448
0.00521453
0.00521457
0.0052146
0.00521462
0.00521463
0.00521463
0.00521462
0.0052146
0.00521457
0.00521453
0.00521448
0.00521442
0.00521434
0.00521425
0.00521415
0.00521403
0.00521388
0.00521372
0.00521353
0.00521332
0.00521308
0.0052128
0.00521249
0.00521214
0.00521175
0.00521132
0.00521083
0.00521029
0.0052097
0.00520905
0.00520833
0.00520756
0.00520673
0.00520585
0.00520487
0.00517782
0.00517884
0.00517978
0.00518067
0.00518149
0.00518225
0.00518295
0.00518358
0.00518416
0.00518468
0.00518515
0.00518556
0.00518594
0.00518627
0.00518656
0.00518682
0.00518705
0.00518725
0.00518743
0.00518758
0.00518771
0.00518782
0.00518792
0.005188
0.00518807
0.00518812
0.00518816
0.00518819
0.00518821
0.00518822
0.00518822
0.00518821
0.00518819
0.00518816
0.00518812
0.00518807
0.005188
0.00518792
0.00518782
0.00518771
0.00518758
0.00518743
0.00518725
0.00518705
0.00518682
0.00518656
0.00518627
0.00518594
0.00518556
0.00518515
0.00518468
0.00518416
0.00518358
0.00518295
0.00518225
0.00518149
0.00518067
0.00517978
0.00517884
0.00517782
0.00519975
0.0052008
0.00520177
0.00520268
0.00520353
0.00520432
0.00520504
0.0052057
0.0052063
0.00520684
0.00520732
0.00520775
0.00520814
0.00520848
0.00520879
0.00520906
0.00520929
0.0052095
0.00520968
0.00520984
0.00520998
0.00521009
0.00521019
0.00521028
0.00521034
0.0052104
0.00521044
0.00521048
0.0052105
0.00521051
0.00521051
0.0052105
0.00521048
0.00521044
0.0052104
0.00521034
0.00521028
0.00521019
0.00521009
0.00520998
0.00520984
0.00520968
0.0052095
0.00520929
0.00520906
0.00520879
0.00520848
0.00520814
0.00520775
0.00520732
0.00520684
0.0052063
0.0052057
0.00520504
0.00520432
0.00520353
0.00520268
0.00520177
0.0052008
0.00519975
0.00524105
0.00524212
0.00524311
0.00524405
0.00524492
0.00524572
0.00524646
0.00524714
0.00524775
0.0052483
0.00524879
0.00524923
0.00524963
0.00524998
0.00525029
0.00525057
0.00525081
0.00525102
0.00525121
0.00525137
0.00525151
0.00525163
0.00525173
0.00525182
0.00525189
0.00525195
0.00525199
0.00525202
0.00525205
0.00525206
0.00525206
0.00525205
0.00525202
0.00525199
0.00525195
0.00525189
0.00525182
0.00525173
0.00525163
0.00525151
0.00525137
0.00525121
0.00525102
0.00525081
0.00525057
0.00525029
0.00524998
0.00524963
0.00524923
0.00524879
0.0052483
0.00524775
0.00524714
0.00524646
0.00524572
0.00524492
0.00524405
0.00524311
0.00524212
0.00524105
0.00529122
0.00529232
0.00529333
0.00529428
0.00529517
0.00529599
0.00529674
0.00529743
0.00529805
0.00529861
0.00529911
0.00529957
0.00529997
0.00530033
0.00530065
0.00530093
0.00530117
0.00530139
0.00530158
0.00530174
0.00530189
0.00530201
0.00530211
0.0053022
0.00530227
0.00530233
0.00530238
0.00530241
0.00530243
0.00530244
0.00530244
0.00530243
0.00530241
0.00530238
0.00530233
0.00530227
0.0053022
0.00530211
0.00530201
0.00530189
0.00530174
0.00530158
0.00530139
0.00530117
0.00530093
0.00530065
0.00530033
0.00529997
0.00529957
0.00529911
0.00529861
0.00529805
0.00529743
0.00529674
0.00529599
0.00529517
0.00529428
0.00529333
0.00529232
0.00529122
0.00534678
0.0053479
0.00534893
0.0053499
0.0053508
0.00535164
0.0053524
0.0053531
0.00535373
0.0053543
0.00535482
0.00535528
0.00535569
0.00535605
0.00535638
0.00535666
0.00535692
0.00535714
0.00535733
0.0053575
0.00535764
0.00535777
0.00535787
0.00535796
0.00535804
0.00535809
0.00535814
0.00535818
0.0053582
0.00535821
0.00535821
0.0053582
0.00535818
0.00535814
0.00535809
0.00535804
0.00535796
0.00535787
0.00535777
0.00535764
0.0053575
0.00535733
0.00535714
0.00535692
0.00535666
0.00535638
0.00535605
0.00535569
0.00535528
0.00535482
0.0053543
0.00535373
0.0053531
0.0053524
0.00535164
0.0053508
0.0053499
0.00534893
0.0053479
0.00534678
0.00540676
0.00540789
0.00540894
0.00540993
0.00541085
0.0054117
0.00541248
0.00541319
0.00541384
0.00541442
0.00541494
0.00541541
0.00541583
0.0054162
0.00541653
0.00541682
0.00541708
0.0054173
0.0054175
0.00541767
0.00541782
0.00541795
0.00541805
0.00541814
0.00541822
0.00541828
0.00541833
0.00541836
0.00541839
0.0054184
0.0054184
0.00541839
0.00541836
0.00541833
0.00541828
0.00541822
0.00541814
0.00541805
0.00541795
0.00541782
0.00541767
0.0054175
0.0054173
0.00541708
0.00541682
0.00541653
0.0054162
0.00541583
0.00541541
0.00541494
0.00541442
0.00541384
0.00541319
0.00541248
0.0054117
0.00541085
0.00540993
0.00540894
0.00540789
0.00540676
0.00547107
0.00547223
0.0054733
0.00547431
0.00547525
0.00547611
0.00547691
0.00547763
0.00547829
0.00547888
0.00547942
0.00547989
0.00548032
0.0054807
0.00548104
0.00548133
0.0054816
0.00548183
0.00548203
0.0054822
0.00548235
0.00548248
0.00548259
0.00548268
0.00548276
0.00548282
0.00548287
0.00548291
0.00548293
0.00548294
0.00548294
0.00548293
0.00548291
0.00548287
0.00548282
0.00548276
0.00548268
0.00548259
0.00548248
0.00548235
0.0054822
0.00548203
0.00548183
0.0054816
0.00548133
0.00548104
0.0054807
0.00548032
0.00547989
0.00547942
0.00547888
0.00547829
0.00547763
0.00547691
0.00547611
0.00547525
0.00547431
0.0054733
0.00547223
0.00547107
0.00553999
0.00554118
0.00554227
0.0055433
0.00554426
0.00554514
0.00554595
0.00554669
0.00554736
0.00554797
0.00554851
0.005549
0.00554944
0.00554982
0.00555017
0.00555047
0.00555074
0.00555097
0.00555118
0.00555136
0.00555151
0.00555164
0.00555175
0.00555185
0.00555193
0.00555199
0.00555204
0.00555208
0.0055521
0.00555211
0.00555211
0.0055521
0.00555208
0.00555204
0.00555199
0.00555193
0.00555185
0.00555175
0.00555164
0.00555151
0.00555136
0.00555118
0.00555097
0.00555074
0.00555047
0.00555017
0.00554982
0.00554944
0.005549
0.00554851
0.00554797
0.00554736
0.00554669
0.00554595
0.00554514
0.00554426
0.0055433
0.00554227
0.00554118
0.00553999
0.00561394
0.00561515
0.00561627
0.00561732
0.0056183
0.0056192
0.00562003
0.00562079
0.00562147
0.00562209
0.00562265
0.00562315
0.00562359
0.00562399
0.00562434
0.00562465
0.00562492
0.00562516
0.00562537
0.00562556
0.00562571
0.00562585
0.00562596
0.00562606
0.00562614
0.00562621
0.00562626
0.00562629
0.00562632
0.00562633
0.00562633
0.00562632
0.00562629
0.00562626
0.00562621
0.00562614
0.00562606
0.00562596
0.00562585
0.00562571
0.00562556
0.00562537
0.00562516
0.00562492
0.00562465
0.00562434
0.00562399
0.00562359
0.00562315
0.00562265
0.00562209
0.00562147
0.00562079
0.00562003
0.0056192
0.0056183
0.00561732
0.00561627
0.00561515
0.00561394
0.00569343
0.00569467
0.00569582
0.00569689
0.00569789
0.00569882
0.00569967
0.00570044
0.00570114
0.00570177
0.00570234
0.00570285
0.00570331
0.00570372
0.00570407
0.00570439
0.00570467
0.00570492
0.00570513
0.00570532
0.00570548
0.00570562
0.00570574
0.00570584
0.00570592
0.00570598
0.00570604
0.00570607
0.0057061
0.00570611
0.00570611
0.0057061
0.00570607
0.00570604
0.00570598
0.00570592
0.00570584
0.00570574
0.00570562
0.00570548
0.00570532
0.00570513
0.00570492
0.00570467
0.00570439
0.00570407
0.00570372
0.00570331
0.00570285
0.00570234
0.00570177
0.00570114
0.00570044
0.00569967
0.00569882
0.00569789
0.00569689
0.00569582
0.00569467
0.00569343
0.00577906
0.00578034
0.00578151
0.00578261
0.00578364
0.00578459
0.00578546
0.00578625
0.00578697
0.00578762
0.0057882
0.00578872
0.00578919
0.00578961
0.00578998
0.0057903
0.00579059
0.00579084
0.00579106
0.00579125
0.00579142
0.00579156
0.00579168
0.00579178
0.00579187
0.00579194
0.00579199
0.00579203
0.00579205
0.00579207
0.00579207
0.00579205
0.00579203
0.00579199
0.00579194
0.00579187
0.00579178
0.00579168
0.00579156
0.00579142
0.00579125
0.00579106
0.00579084
0.00579059
0.0057903
0.00578998
0.00578961
0.00578919
0.00578872
0.0057882
0.00578762
0.00578697
0.00578625
0.00578546
0.00578459
0.00578364
0.00578261
0.00578151
0.00578034
0.00577906
0.00587154
0.00587285
0.00587406
0.00587519
0.00587624
0.00587722
0.00587811
0.00587892
0.00587966
0.00588033
0.00588093
0.00588147
0.00588195
0.00588237
0.00588275
0.00588309
0.00588338
0.00588364
0.00588387
0.00588406
0.00588423
0.00588438
0.0058845
0.00588461
0.00588469
0.00588476
0.00588482
0.00588486
0.00588489
0.0058849
0.0058849
0.00588489
0.00588486
0.00588482
0.00588476
0.00588469
0.00588461
0.0058845
0.00588438
0.00588423
0.00588406
0.00588387
0.00588364
0.00588338
0.00588309
0.00588275
0.00588237
0.00588195
0.00588147
0.00588093
0.00588033
0.00587966
0.00587892
0.00587811
0.00587722
0.00587624
0.00587519
0.00587406
0.00587285
0.00587154
0.00597169
0.00597304
0.00597428
0.00597544
0.00597652
0.00597753
0.00597845
0.00597928
0.00598004
0.00598073
0.00598135
0.0059819
0.00598239
0.00598283
0.00598322
0.00598357
0.00598387
0.00598414
0.00598437
0.00598457
0.00598475
0.0059849
0.00598503
0.00598513
0.00598522
0.00598529
0.00598535
0.00598539
0.00598542
0.00598543
0.00598543
0.00598542
0.00598539
0.00598535
0.00598529
0.00598522
0.00598513
0.00598503
0.0059849
0.00598475
0.00598457
0.00598437
0.00598414
0.00598387
0.00598357
0.00598322
0.00598283
0.00598239
0.0059819
0.00598135
0.00598073
0.00598004
0.00597928
0.00597845
0.00597753
0.00597652
0.00597544
0.00597428
0.00597304
0.00597169
0.00608046
0.00608185
0.00608313
0.00608433
0.00608545
0.00608648
0.00608743
0.00608829
0.00608908
0.00608978
0.00609042
0.00609099
0.0060915
0.00609195
0.00609236
0.00609271
0.00609302
0.0060933
0.00609354
0.00609375
0.00609393
0.00609408
0.00609422
0.00609433
0.00609442
0.00609449
0.00609455
0.00609459
0.00609462
0.00609464
0.00609464
0.00609462
0.00609459
0.00609455
0.00609449
0.00609442
0.00609433
0.00609422
0.00609408
0.00609393
0.00609375
0.00609354
0.0060933
0.00609302
0.00609271
0.00609236
0.00609195
0.0060915
0.00609099
0.00609042
0.00608978
0.00608908
0.00608829
0.00608743
0.00608648
0.00608545
0.00608433
0.00608313
0.00608185
0.00608046
0.00619899
0.00620043
0.00620176
0.006203
0.00620415
0.00620522
0.0062062
0.00620709
0.0062079
0.00620863
0.00620929
0.00620988
0.00621041
0.00621088
0.00621129
0.00621166
0.00621198
0.00621227
0.00621252
0.00621273
0.00621292
0.00621308
0.00621322
0.00621333
0.00621343
0.0062135
0.00621356
0.00621361
0.00621364
0.00621365
0.00621365
0.00621364
0.00621361
0.00621356
0.0062135
0.00621343
0.00621333
0.00621322
0.00621308
0.00621292
0.00621273
0.00621252
0.00621227
0.00621198
0.00621166
0.00621129
0.00621088
0.00621041
0.00620988
0.00620929
0.00620863
0.0062079
0.00620709
0.0062062
0.00620522
0.00620415
0.006203
0.00620176
0.00620043
0.00619899
0.00632864
0.00633013
0.0063315
0.00633279
0.00633399
0.00633509
0.00633611
0.00633703
0.00633787
0.00633863
0.00633931
0.00633992
0.00634047
0.00634096
0.00634139
0.00634177
0.0063421
0.0063424
0.00634266
0.00634288
0.00634308
0.00634324
0.00634338
0.0063435
0.0063436
0.00634368
0.00634374
0.00634379
0.00634382
0.00634384
0.00634384
0.00634382
0.00634379
0.00634374
0.00634368
0.0063436
0.0063435
0.00634338
0.00634324
0.00634308
0.00634288
0.00634266
0.0063424
0.0063421
0.00634177
0.00634139
0.00634096
0.00634047
0.00633992
0.00633931
0.00633863
0.00633787
0.00633703
0.00633611
0.00633509
0.00633399
0.00633279
0.0063315
0.00633013
0.00632864
0.00647102
0.00647257
0.006474
0.00647533
0.00647658
0.00647773
0.00647878
0.00647975
0.00648062
0.00648141
0.00648212
0.00648275
0.00648332
0.00648383
0.00648427
0.00648467
0.00648502
0.00648533
0.0064856
0.00648583
0.00648603
0.0064862
0.00648635
0.00648648
0.00648658
0.00648666
0.00648673
0.00648677
0.00648681
0.00648682
0.00648682
0.00648681
0.00648677
0.00648673
0.00648666
0.00648658
0.00648648
0.00648635
0.0064862
0.00648603
0.00648583
0.0064856
0.00648533
0.00648502
0.00648467
0.00648427
0.00648383
0.00648332
0.00648275
0.00648212
0.00648141
0.00648062
0.00647975
0.00647878
0.00647773
0.00647658
0.00647533
0.006474
0.00647257
0.00647102
0.00662809
0.00662972
0.0066312
0.0066326
0.0066339
0.0066351
0.0066362
0.0066372
0.00663811
0.00663893
0.00663968
0.00664034
0.00664093
0.00664146
0.00664193
0.00664234
0.00664271
0.00664303
0.00664331
0.00664355
0.00664376
0.00664394
0.0066441
0.00664423
0.00664433
0.00664442
0.00664449
0.00664454
0.00664457
0.00664459
0.00664459
0.00664457
0.00664454
0.00664449
0.00664442
0.00664433
0.00664423
0.0066441
0.00664394
0.00664376
0.00664355
0.00664331
0.00664303
0.00664271
0.00664234
0.00664193
0.00664146
0.00664093
0.00664034
0.00663968
0.00663893
0.00663811
0.0066372
0.0066362
0.0066351
0.0066339
0.0066326
0.0066312
0.00662972
0.00662809
0.00680227
0.00680398
0.00680553
0.00680699
0.00680835
0.00680961
0.00681076
0.00681181
0.00681277
0.00681363
0.00681441
0.0068151
0.00681572
0.00681627
0.00681677
0.0068172
0.00681758
0.00681792
0.00681821
0.00681847
0.00681869
0.00681888
0.00681904
0.00681917
0.00681929
0.00681938
0.00681945
0.0068195
0.00681954
0.00681955
0.00681955
0.00681954
0.0068195
0.00681945
0.00681938
0.00681929
0.00681917
0.00681904
0.00681888
0.00681869
0.00681847
0.00681821
0.00681792
0.00681758
0.0068172
0.00681677
0.00681627
0.00681572
0.0068151
0.00681441
0.00681363
0.00681277
0.00681181
0.00681076
0.00680961
0.00680835
0.00680699
0.00680553
0.00680398
0.00680227
0.00699653
0.00699833
0.00699996
0.0070015
0.00700293
0.00700426
0.00700547
0.00700657
0.00700758
0.00700848
0.0070093
0.00701003
0.00701069
0.00701127
0.00701179
0.00701224
0.00701265
0.007013
0.00701331
0.00701358
0.00701381
0.00701401
0.00701418
0.00701432
0.00701444
0.00701454
0.00701461
0.00701467
0.0070147
0.00701472
0.00701472
0.0070147
0.00701467
0.00701461
0.00701454
0.00701444
0.00701432
0.00701418
0.00701401
0.00701381
0.00701358
0.00701331
0.007013
0.00701265
0.00701224
0.00701179
0.00701127
0.00701069
0.00701003
0.0070093
0.00700848
0.00700758
0.00700657
0.00700547
0.00700426
0.00700293
0.0070015
0.00699996
0.00699833
0.00699653
0.00721461
0.00721651
0.00721824
0.00721987
0.00722138
0.00722278
0.00722406
0.00722523
0.0072263
0.00722726
0.00722812
0.00722889
0.00722959
0.0072302
0.00723075
0.00723123
0.00723166
0.00723203
0.00723236
0.00723265
0.00723289
0.0072331
0.00723328
0.00723343
0.00723356
0.00723366
0.00723374
0.0072338
0.00723384
0.00723386
0.00723386
0.00723384
0.0072338
0.00723374
0.00723366
0.00723356
0.00723343
0.00723328
0.0072331
0.00723289
0.00723265
0.00723236
0.00723203
0.00723166
0.00723123
0.00723075
0.0072302
0.00722959
0.00722889
0.00722812
0.00722726
0.0072263
0.00722523
0.00722406
0.00722278
0.00722138
0.00721987
0.00721824
0.00721651
0.00721461
0.00746126
0.00746329
0.00746513
0.00746686
0.00746847
0.00746996
0.00747133
0.00747258
0.00747371
0.00747473
0.00747565
0.00747647
0.00747721
0.00747786
0.00747845
0.00747896
0.00747942
0.00747981
0.00748016
0.00748047
0.00748073
0.00748095
0.00748115
0.00748131
0.00748144
0.00748155
0.00748163
0.0074817
0.00748174
0.00748176
0.00748176
0.00748174
0.0074817
0.00748163
0.00748155
0.00748144
0.00748131
0.00748115
0.00748095
0.00748073
0.00748047
0.00748016
0.00747981
0.00747942
0.00747896
0.00747845
0.00747786
0.00747721
0.00747647
0.00747565
0.00747473
0.00747371
0.00747258
0.00747133
0.00746996
0.00746847
0.00746686
0.00746513
0.00746329
0.00746126
0.00774265
0.00774482
0.0077468
0.00774866
0.00775038
0.00775198
0.00775345
0.00775478
0.00775599
0.00775709
0.00775808
0.00775896
0.00775975
0.00776046
0.00776108
0.00776163
0.00776212
0.00776255
0.00776292
0.00776325
0.00776353
0.00776377
0.00776398
0.00776415
0.00776429
0.00776441
0.0077645
0.00776457
0.00776461
0.00776463
0.00776463
0.00776461
0.00776457
0.0077645
0.00776441
0.00776429
0.00776415
0.00776398
0.00776377
0.00776353
0.00776325
0.00776292
0.00776255
0.00776212
0.00776163
0.00776108
0.00776046
0.00775975
0.00775896
0.00775808
0.00775709
0.00775599
0.00775478
0.00775345
0.00775198
0.00775038
0.00774866
0.0077468
0.00774482
0.00774265
0.0080669
0.00806924
0.00807138
0.00807339
0.00807526
0.00807698
0.00807857
0.00808001
0.00808132
0.00808251
0.00808358
0.00808454
0.00808539
0.00808615
0.00808683
0.00808743
0.00808796
0.00808842
0.00808882
0.00808918
0.00808948
0.00808974
0.00808997
0.00809015
0.00809031
0.00809044
0.00809053
0.00809061
0.00809065
0.00809068
0.00809068
0.00809065
0.00809061
0.00809053
0.00809044
0.00809031
0.00809015
0.00808997
0.00808974
0.00808948
0.00808918
0.00808882
0.00808842
0.00808796
0.00808743
0.00808683
0.00808615
0.00808539
0.00808454
0.00808358
0.00808251
0.00808132
0.00808001
0.00807857
0.00807698
0.00807526
0.00807339
0.00807138
0.00806924
0.0080669
0.00844493
0.00844749
0.00844982
0.00845201
0.00845406
0.00845594
0.00845768
0.00845926
0.00846069
0.00846199
0.00846316
0.0084642
0.00846514
0.00846597
0.00846671
0.00846737
0.00846794
0.00846845
0.00846889
0.00846928
0.00846961
0.0084699
0.00847014
0.00847035
0.00847052
0.00847066
0.00847077
0.00847084
0.0084709
0.00847092
0.00847092
0.0084709
0.00847084
0.00847077
0.00847066
0.00847052
0.00847035
0.00847014
0.0084699
0.00846961
0.00846928
0.00846889
0.00846845
0.00846794
0.00846737
0.00846671
0.00846597
0.00846514
0.0084642
0.00846316
0.00846199
0.00846069
0.00845926
0.00845768
0.00845594
0.00845406
0.00845201
0.00844982
0.00844749
0.00844493
0.0088918
0.00889463
0.00889721
0.00889963
0.0089019
0.00890399
0.00890591
0.00890766
0.00890924
0.00891068
0.00891197
0.00891313
0.00891417
0.0089151
0.00891592
0.00891664
0.00891728
0.00891784
0.00891833
0.00891876
0.00891913
0.00891945
0.00891972
0.00891995
0.00892014
0.00892029
0.00892041
0.0089205
0.00892056
0.00892058
0.00892058
0.00892056
0.0089205
0.00892041
0.00892029
0.00892014
0.00891995
0.00891972
0.00891945
0.00891913
0.00891876
0.00891833
0.00891784
0.00891728
0.00891664
0.00891592
0.0089151
0.00891417
0.00891313
0.00891197
0.00891068
0.00890924
0.00890766
0.00890591
0.00890399
0.0089019
0.00889963
0.00889721
0.00889463
0.0088918
0.00942878
0.00943194
0.00943484
0.00943757
0.00944011
0.00944247
0.00944462
0.00944659
0.00944838
0.00945
0.00945145
0.00945276
0.00945393
0.00945497
0.00945589
0.00945671
0.00945743
0.00945806
0.00945861
0.00945909
0.00945951
0.00945987
0.00946017
0.00946043
0.00946064
0.00946082
0.00946095
0.00946105
0.00946111
0.00946115
0.00946115
0.00946111
0.00946105
0.00946095
0.00946082
0.00946064
0.00946043
0.00946017
0.00945987
0.00945951
0.00945909
0.00945861
0.00945806
0.00945743
0.00945671
0.00945589
0.00945497
0.00945393
0.00945276
0.00945145
0.00945
0.00944838
0.00944659
0.00944462
0.00944247
0.00944011
0.00943757
0.00943484
0.00943194
0.00942878
0.0100865
0.0100901
0.0100935
0.0100966
0.0100995
0.0101022
0.0101047
0.0101069
0.010109
0.0101108
0.0101125
0.010114
0.0101153
0.0101165
0.0101176
0.0101185
0.0101194
0.0101201
0.0101207
0.0101213
0.0101218
0.0101222
0.0101225
0.0101228
0.0101231
0.0101233
0.0101234
0.0101235
0.0101236
0.0101236
0.0101236
0.0101236
0.0101235
0.0101234
0.0101233
0.0101231
0.0101228
0.0101225
0.0101222
0.0101218
0.0101213
0.0101207
0.0101201
0.0101194
0.0101185
0.0101176
0.0101165
0.0101153
0.010114
0.0101125
0.0101108
0.010109
0.0101069
0.0101047
0.0101022
0.0100995
0.0100966
0.0100935
0.0100901
0.0100865
0.01091
0.0109142
0.0109181
0.0109217
0.0109251
0.0109283
0.0109312
0.0109339
0.0109363
0.0109385
0.0109404
0.0109422
0.0109437
0.0109451
0.0109464
0.0109475
0.0109485
0.0109493
0.0109501
0.0109507
0.0109513
0.0109518
0.0109522
0.0109525
0.0109528
0.010953
0.0109532
0.0109534
0.0109534
0.0109535
0.0109535
0.0109534
0.0109534
0.0109532
0.010953
0.0109528
0.0109525
0.0109522
0.0109518
0.0109513
0.0109507
0.0109501
0.0109493
0.0109485
0.0109475
0.0109464
0.0109451
0.0109437
0.0109422
0.0109404
0.0109385
0.0109363
0.0109339
0.0109312
0.0109283
0.0109251
0.0109217
0.0109181
0.0109142
0.01091
0.0119647
0.0119697
0.0119744
0.0119788
0.0119829
0.0119867
0.0119902
0.0119934
0.0119963
0.0119989
0.0120013
0.0120034
0.0120053
0.012007
0.0120085
0.0120098
0.012011
0.012012
0.0120129
0.0120137
0.0120144
0.012015
0.0120155
0.0120159
0.0120162
0.0120165
0.0120167
0.0120169
0.012017
0.0120171
0.0120171
0.012017
0.0120169
0.0120167
0.0120165
0.0120162
0.0120159
0.0120155
0.012015
0.0120144
0.0120137
0.0120129
0.012012
0.012011
0.0120098
0.0120085
0.012007
0.0120053
0.0120034
0.0120013
0.0119989
0.0119963
0.0119934
0.0119902
0.0119867
0.0119829
0.0119788
0.0119744
0.0119697
0.0119647
0.0133438
0.0133499
0.0133557
0.0133611
0.0133662
0.0133709
0.0133752
0.0133791
0.0133827
0.013386
0.0133889
0.0133915
0.0133938
0.0133959
0.0133978
0.0133994
0.0134009
0.0134021
0.0134032
0.0134042
0.013405
0.0134058
0.0134064
0.0134069
0.0134073
0.0134077
0.0134079
0.0134081
0.0134083
0.0134083
0.0134083
0.0134083
0.0134081
0.0134079
0.0134077
0.0134073
0.0134069
0.0134064
0.0134058
0.013405
0.0134042
0.0134032
0.0134021
0.0134009
0.0133994
0.0133978
0.0133959
0.0133938
0.0133915
0.0133889
0.013386
0.0133827
0.0133791
0.0133752
0.0133709
0.0133662
0.0133611
0.0133557
0.0133499
0.0133438
0.0151702
0.0151779
0.0151852
0.015192
0.0151984
0.0152043
0.0152097
0.0152147
0.0152192
0.0152232
0.0152269
0.0152302
0.0152332
0.0152358
0.0152381
0.0152402
0.015242
0.0152436
0.015245
0.0152462
0.0152473
0.0152482
0.015249
0.0152496
0.0152502
0.0152506
0.0152509
0.0152512
0.0152513
0.0152514
0.0152514
0.0152513
0.0152512
0.0152509
0.0152506
0.0152502
0.0152496
0.015249
0.0152482
0.0152473
0.0152462
0.015245
0.0152436
0.015242
0.0152402
0.0152381
0.0152358
0.0152332
0.0152302
0.0152269
0.0152232
0.0152192
0.0152147
0.0152097
0.0152043
0.0151984
0.015192
0.0151852
0.0151779
0.0151702
0.0175881
0.0175978
0.017607
0.0176156
0.0176237
0.0176312
0.0176381
0.0176443
0.01765
0.0176552
0.0176599
0.017664
0.0176678
0.0176711
0.0176741
0.0176767
0.017679
0.017681
0.0176828
0.0176843
0.0176857
0.0176868
0.0176878
0.0176886
0.0176893
0.0176899
0.0176903
0.0176906
0.0176908
0.0176909
0.0176909
0.0176908
0.0176906
0.0176903
0.0176899
0.0176893
0.0176886
0.0176878
0.0176868
0.0176857
0.0176843
0.0176828
0.017681
0.017679
0.0176767
0.0176741
0.0176711
0.0176678
0.017664
0.0176599
0.0176552
0.01765
0.0176443
0.0176381
0.0176312
0.0176237
0.0176156
0.017607
0.0175978
0.0175881
0.0207346
0.0207468
0.0207583
0.0207692
0.0207794
0.0207888
0.0207974
0.0208053
0.0208125
0.020819
0.0208248
0.0208301
0.0208348
0.0208389
0.0208427
0.0208459
0.0208489
0.0208514
0.0208536
0.0208556
0.0208573
0.0208587
0.02086
0.020861
0.0208619
0.0208626
0.0208631
0.0208635
0.0208638
0.0208639
0.0208639
0.0208638
0.0208635
0.0208631
0.0208626
0.0208619
0.020861
0.02086
0.0208587
0.0208573
0.0208556
0.0208536
0.0208514
0.0208489
0.0208459
0.0208427
0.0208389
0.0208348
0.0208301
0.0208248
0.020819
0.0208125
0.0208053
0.0207974
0.0207888
0.0207794
0.0207692
0.0207583
0.0207468
0.0207346
0.0246988
0.0247139
0.024728
0.0247414
0.0247539
0.0247654
0.0247761
0.0247858
0.0247946
0.0248026
0.0248097
0.0248162
0.024822
0.0248271
0.0248317
0.0248357
0.0248393
0.0248424
0.0248452
0.0248476
0.0248496
0.0248514
0.0248529
0.0248542
0.0248553
0.0248561
0.0248568
0.0248573
0.0248576
0.0248578
0.0248578
0.0248576
0.0248573
0.0248568
0.0248561
0.0248553
0.0248542
0.0248529
0.0248514
0.0248496
0.0248476
0.0248452
0.0248424
0.0248393
0.0248357
0.0248317
0.0248271
0.024822
0.0248162
0.0248097
0.0248026
0.0247946
0.0247858
0.0247761
0.0247654
0.0247539
0.0247414
0.024728
0.0247139
0.0246988
0.0294866
0.0295046
0.0295216
0.0295375
0.0295524
0.0295662
0.0295789
0.0295904
0.0296009
0.0296104
0.029619
0.0296267
0.0296335
0.0296397
0.0296451
0.02965
0.0296542
0.029658
0.0296612
0.0296641
0.0296666
0.0296687
0.0296705
0.029672
0.0296733
0.0296743
0.0296751
0.0296757
0.0296761
0.0296763
0.0296763
0.0296761
0.0296757
0.0296751
0.0296743
0.0296733
0.029672
0.0296705
0.0296687
0.0296666
0.0296641
0.0296612
0.029658
0.0296542
0.02965
0.0296451
0.0296397
0.0296335
0.0296267
0.029619
0.0296104
0.0296009
0.0295904
0.0295789
0.0295662
0.0295524
0.0295375
0.0295216
0.0295046
0.0294866
0.0350178
0.0350388
0.0350584
0.0350768
0.035094
0.0351099
0.0351246
0.0351379
0.03515
0.035161
0.0351709
0.0351797
0.0351877
0.0351948
0.0352011
0.0352067
0.0352116
0.0352159
0.0352197
0.035223
0.0352258
0.0352283
0.0352304
0.0352322
0.0352336
0.0352348
0.0352357
0.0352364
0.0352369
0.0352371
0.0352371
0.0352369
0.0352364
0.0352357
0.0352348
0.0352336
0.0352322
0.0352304
0.0352283
0.0352258
0.035223
0.0352197
0.0352159
0.0352116
0.0352067
0.0352011
0.0351948
0.0351877
0.0351797
0.0351709
0.035161
0.03515
0.0351379
0.0351246
0.0351099
0.035094
0.0350768
0.0350584
0.0350388
0.0350178
0.0411589
0.0411825
0.0412046
0.0412254
0.0412447
0.0412626
0.041279
0.041294
0.0413076
0.0413199