/*--------------------------------*- C++ -*----------------------------------*\
| =========                 |                                                 |
| \\      /  F ield         | foam-extend: Open Source CFD                    |
|  \\    /   O peration     | Version:     4.0                                |
|   \\  /    A nd           | Web:         http://www.foam-extend.org         |
|    \\/     M anipulation  |                                                 |
\*---------------------------------------------------------------------------*/
FoamFile
{
    version     2.0;
    format      ascii;
    class       volScalarField;
    location    "1910";
    object      cPlus;
}
// * * * * * * * * * * * * * * * * * * * * * * * * * * * * * * * * * * * * * //

dimensions      [0 0 0 0 0 0 0];

internalField   nonuniform List<scalar> 
6960
(
0.2414
0.241347
0.241301
0.241267
0.241243
0.241227
0.241216
0.241209
0.241205
0.241202
0.2412
0.241198
0.241198
0.241197
0.241196
0.241196
0.241196
0.241196
0.241195
0.241195
0.241195
0.241195
0.241195
0.241195
0.241195
0.241195
0.241195
0.241195
0.241195
0.241195
0.241195
0.241195
0.241195
0.241195
0.241195
0.241195
0.241195
0.241195
0.241195
0.241195
0.241195
0.241195
0.241196
0.241196
0.241196
0.241196
0.241197
0.241198
0.241198
0.2412
0.241202
0.241205
0.241209
0.241216
0.241227
0.241243
0.241267
0.241301
0.241347
0.2414
0.0602826
0.060262
0.060243
0.0602289
0.0602191
0.0602125
0.0602081
0.0602052
0.0602033
0.060202
0.0602012
0.0602006
0.0602002
0.0602
0.0601998
0.0601996
0.0601995
0.0601994
0.0601994
0.0601993
0.0601993
0.0601993
0.0601992
0.0601992
0.0601992
0.0601992
0.0601992
0.0601992
0.0601992
0.0601992
0.0601992
0.0601992
0.0601992
0.0601992
0.0601992
0.0601992
0.0601992
0.0601992
0.0601993
0.0601993
0.0601993
0.0601994
0.0601994
0.0601995
0.0601996
0.0601998
0.0602
0.0602002
0.0602006
0.0602012
0.060202
0.0602033
0.0602052
0.0602081
0.0602125
0.0602191
0.0602289
0.060243
0.060262
0.0602826
0.0234917
0.0234886
0.0234848
0.0234819
0.0234798
0.0234784
0.0234774
0.0234768
0.0234763
0.023476
0.0234758
0.0234757
0.0234756
0.0234756
0.0234755
0.0234755
0.0234755
0.0234754
0.0234754
0.0234754
0.0234754
0.0234754
0.0234754
0.0234754
0.0234754
0.0234754
0.0234754
0.0234754
0.0234754
0.0234754
0.0234754
0.0234754
0.0234754
0.0234754
0.0234754
0.0234754
0.0234754
0.0234754
0.0234754
0.0234754
0.0234754
0.0234754
0.0234754
0.0234755
0.0234755
0.0234755
0.0234756
0.0234756
0.0234757
0.0234758
0.023476
0.0234763
0.0234768
0.0234774
0.0234784
0.0234798
0.0234819
0.0234848
0.0234886
0.0234917
0.0155717
0.0155753
0.0155774
0.0155787
0.0155796
0.0155802
0.0155805
0.0155808
0.0155809
0.015581
0.0155811
0.0155811
0.0155811
0.0155811
0.0155811
0.0155812
0.0155812
0.0155812
0.0155812
0.0155812
0.0155812
0.0155812
0.0155812
0.0155812
0.0155812
0.0155812
0.0155812
0.0155812
0.0155812
0.0155812
0.0155812
0.0155812
0.0155812
0.0155812
0.0155812
0.0155812
0.0155812
0.0155812
0.0155812
0.0155812
0.0155812
0.0155812
0.0155812
0.0155812
0.0155812
0.0155811
0.0155811
0.0155811
0.0155811
0.0155811
0.015581
0.0155809
0.0155808
0.0155805
0.0155802
0.0155796
0.0155787
0.0155774
0.0155753
0.0155717
0.013994
0.0139998
0.0140038
0.0140065
0.0140084
0.0140096
0.0140104
0.0140109
0.0140112
0.0140114
0.0140116
0.0140116
0.0140117
0.0140118
0.0140118
0.0140118
0.0140118
0.0140118
0.0140118
0.0140119
0.0140119
0.0140119
0.0140119
0.0140119
0.0140119
0.0140119
0.0140119
0.0140119
0.0140119
0.0140119
0.0140119
0.0140119
0.0140119
0.0140119
0.0140119
0.0140119
0.0140119
0.0140119
0.0140119
0.0140119
0.0140119
0.0140118
0.0140118
0.0140118
0.0140118
0.0140118
0.0140118
0.0140117
0.0140116
0.0140116
0.0140114
0.0140112
0.0140109
0.0140104
0.0140096
0.0140084
0.0140065
0.0140038
0.0139998
0.013994
0.0138059
0.0138124
0.013817
0.0138202
0.0138224
0.0138238
0.0138247
0.0138253
0.0138257
0.013826
0.0138261
0.0138262
0.0138263
0.0138264
0.0138264
0.0138264
0.0138264
0.0138265
0.0138265
0.0138265
0.0138265
0.0138265
0.0138265
0.0138265
0.0138265
0.0138265
0.0138265
0.0138265
0.0138265
0.0138265
0.0138265
0.0138265
0.0138265
0.0138265
0.0138265
0.0138265
0.0138265
0.0138265
0.0138265
0.0138265
0.0138265
0.0138265
0.0138265
0.0138264
0.0138264
0.0138264
0.0138264
0.0138263
0.0138262
0.0138261
0.013826
0.0138257
0.0138253
0.0138247
0.0138238
0.0138224
0.0138202
0.013817
0.0138124
0.0138059
0.0139218
0.0139286
0.0139335
0.0139368
0.0139391
0.0139406
0.0139416
0.0139422
0.0139426
0.0139429
0.0139431
0.0139432
0.0139432
0.0139433
0.0139433
0.0139434
0.0139434
0.0139434
0.0139434
0.0139434
0.0139434
0.0139434
0.0139435
0.0139435
0.0139435
0.0139435
0.0139435
0.0139435
0.0139435
0.0139435
0.0139435
0.0139435
0.0139435
0.0139435
0.0139435
0.0139435
0.0139435
0.0139435
0.0139434
0.0139434
0.0139434
0.0139434
0.0139434
0.0139434
0.0139434
0.0139433
0.0139433
0.0139432
0.0139432
0.0139431
0.0139429
0.0139426
0.0139422
0.0139416
0.0139406
0.0139391
0.0139368
0.0139335
0.0139286
0.0139218
0.0141118
0.0141188
0.0141238
0.0141273
0.0141296
0.0141312
0.0141322
0.0141328
0.0141333
0.0141335
0.0141337
0.0141338
0.0141339
0.014134
0.014134
0.014134
0.0141341
0.0141341
0.0141341
0.0141341
0.0141341
0.0141341
0.0141341
0.0141341
0.0141341
0.0141341
0.0141341
0.0141341
0.0141341
0.0141341
0.0141341
0.0141341
0.0141341
0.0141341
0.0141341
0.0141341
0.0141341
0.0141341
0.0141341
0.0141341
0.0141341
0.0141341
0.0141341
0.0141341
0.014134
0.014134
0.014134
0.0141339
0.0141338
0.0141337
0.0141335
0.0141333
0.0141328
0.0141322
0.0141312
0.0141296
0.0141273
0.0141238
0.0141188
0.0141118
0.0143302
0.0143374
0.0143425
0.0143461
0.0143485
0.0143501
0.0143512
0.0143518
0.0143523
0.0143525
0.0143527
0.0143529
0.0143529
0.014353
0.014353
0.0143531
0.0143531
0.0143531
0.0143531
0.0143531
0.0143531
0.0143532
0.0143532
0.0143532
0.0143532
0.0143532
0.0143532
0.0143532
0.0143532
0.0143532
0.0143532
0.0143532
0.0143532
0.0143532
0.0143532
0.0143532
0.0143532
0.0143532
0.0143532
0.0143531
0.0143531
0.0143531
0.0143531
0.0143531
0.0143531
0.014353
0.014353
0.0143529
0.0143529
0.0143527
0.0143525
0.0143523
0.0143518
0.0143512
0.0143501
0.0143485
0.0143461
0.0143425
0.0143374
0.0143302
0.0145697
0.0145771
0.0145824
0.014586
0.0145885
0.0145902
0.0145912
0.0145919
0.0145924
0.0145927
0.0145928
0.014593
0.0145931
0.0145931
0.0145932
0.0145932
0.0145932
0.0145932
0.0145932
0.0145933
0.0145933
0.0145933
0.0145933
0.0145933
0.0145933
0.0145933
0.0145933
0.0145933
0.0145933
0.0145933
0.0145933
0.0145933
0.0145933
0.0145933
0.0145933
0.0145933
0.0145933
0.0145933
0.0145933
0.0145933
0.0145933
0.0145932
0.0145932
0.0145932
0.0145932
0.0145932
0.0145931
0.0145931
0.014593
0.0145928
0.0145927
0.0145924
0.0145919
0.0145912
0.0145902
0.0145885
0.014586
0.0145824
0.0145771
0.0145697
0.0148308
0.0148384
0.0148439
0.0148476
0.0148502
0.0148519
0.014853
0.0148537
0.0148542
0.0148545
0.0148547
0.0148548
0.0148549
0.014855
0.014855
0.014855
0.0148551
0.0148551
0.0148551
0.0148551
0.0148551
0.0148551
0.0148551
0.0148551
0.0148551
0.0148551
0.0148551
0.0148551
0.0148551
0.0148551
0.0148551
0.0148551
0.0148551
0.0148551
0.0148551
0.0148551
0.0148551
0.0148551
0.0148551
0.0148551
0.0148551
0.0148551
0.0148551
0.0148551
0.014855
0.014855
0.014855
0.0148549
0.0148548
0.0148547
0.0148545
0.0148542
0.0148537
0.014853
0.0148519
0.0148502
0.0148476
0.0148439
0.0148384
0.0148308
0.015116
0.0151239
0.0151295
0.0151335
0.0151361
0.0151379
0.015139
0.0151397
0.0151402
0.0151405
0.0151407
0.0151409
0.0151409
0.015141
0.0151411
0.0151411
0.0151411
0.0151411
0.0151412
0.0151412
0.0151412
0.0151412
0.0151412
0.0151412
0.0151412
0.0151412
0.0151412
0.0151412
0.0151412
0.0151412
0.0151412
0.0151412
0.0151412
0.0151412
0.0151412
0.0151412
0.0151412
0.0151412
0.0151412
0.0151412
0.0151412
0.0151412
0.0151411
0.0151411
0.0151411
0.0151411
0.015141
0.0151409
0.0151409
0.0151407
0.0151405
0.0151402
0.0151397
0.015139
0.0151379
0.0151361
0.0151335
0.0151295
0.0151239
0.015116
0.0154287
0.0154369
0.0154427
0.0154468
0.0154495
0.0154513
0.0154525
0.0154533
0.0154538
0.0154541
0.0154543
0.0154544
0.0154545
0.0154546
0.0154546
0.0154547
0.0154547
0.0154547
0.0154547
0.0154547
0.0154548
0.0154548
0.0154548
0.0154548
0.0154548
0.0154548
0.0154548
0.0154548
0.0154548
0.0154548
0.0154548
0.0154548
0.0154548
0.0154548
0.0154548
0.0154548
0.0154548
0.0154548
0.0154548
0.0154548
0.0154547
0.0154547
0.0154547
0.0154547
0.0154547
0.0154546
0.0154546
0.0154545
0.0154544
0.0154543
0.0154541
0.0154538
0.0154533
0.0154525
0.0154513
0.0154495
0.0154468
0.0154427
0.0154369
0.0154287
0.0157728
0.0157814
0.0157874
0.0157916
0.0157944
0.0157963
0.0157976
0.0157983
0.0157989
0.0157992
0.0157994
0.0157996
0.0157997
0.0157997
0.0157998
0.0157998
0.0157998
0.0157999
0.0157999
0.0157999
0.0157999
0.0157999
0.0157999
0.0157999
0.0157999
0.0157999
0.0157999
0.0157999
0.0157999
0.0157999
0.0157999
0.0157999
0.0157999
0.0157999
0.0157999
0.0157999
0.0157999
0.0157999
0.0157999
0.0157999
0.0157999
0.0157999
0.0157999
0.0157998
0.0157998
0.0157998
0.0157997
0.0157997
0.0157996
0.0157994
0.0157992
0.0157989
0.0157983
0.0157976
0.0157963
0.0157944
0.0157916
0.0157874
0.0157814
0.0157728
0.0161533
0.0161622
0.0161685
0.0161729
0.0161758
0.0161778
0.0161791
0.0161799
0.0161804
0.0161808
0.016181
0.0161812
0.0161813
0.0161814
0.0161814
0.0161814
0.0161815
0.0161815
0.0161815
0.0161815
0.0161815
0.0161815
0.0161816
0.0161816
0.0161816
0.0161816
0.0161816
0.0161816
0.0161816
0.0161816
0.0161816
0.0161816
0.0161816
0.0161816
0.0161816
0.0161816
0.0161816
0.0161816
0.0161815
0.0161815
0.0161815
0.0161815
0.0161815
0.0161815
0.0161814
0.0161814
0.0161814
0.0161813
0.0161812
0.016181
0.0161808
0.0161804
0.0161799
0.0161791
0.0161778
0.0161758
0.0161729
0.0161685
0.0161622
0.0161533
0.0165761
0.0165854
0.016592
0.0165966
0.0165997
0.0166018
0.0166031
0.016604
0.0166045
0.0166049
0.0166052
0.0166053
0.0166054
0.0166055
0.0166056
0.0166056
0.0166056
0.0166056
0.0166057
0.0166057
0.0166057
0.0166057
0.0166057
0.0166057
0.0166057
0.0166057
0.0166057
0.0166057
0.0166057
0.0166057
0.0166057
0.0166057
0.0166057
0.0166057
0.0166057
0.0166057
0.0166057
0.0166057
0.0166057
0.0166057
0.0166057
0.0166057
0.0166056
0.0166056
0.0166056
0.0166056
0.0166055
0.0166054
0.0166053
0.0166052
0.0166049
0.0166045
0.016604
0.0166031
0.0166018
0.0165997
0.0165966
0.016592
0.0165854
0.0165761
0.0170488
0.0170586
0.0170655
0.0170703
0.0170736
0.0170758
0.0170772
0.0170781
0.0170787
0.0170791
0.0170793
0.0170795
0.0170796
0.0170797
0.0170797
0.0170798
0.0170798
0.0170798
0.0170799
0.0170799
0.0170799
0.0170799
0.0170799
0.0170799
0.0170799
0.0170799
0.0170799
0.0170799
0.0170799
0.0170799
0.0170799
0.0170799
0.0170799
0.0170799
0.0170799
0.0170799
0.0170799
0.0170799
0.0170799
0.0170799
0.0170799
0.0170799
0.0170798
0.0170798
0.0170798
0.0170797
0.0170797
0.0170796
0.0170795
0.0170793
0.0170791
0.0170787
0.0170781
0.0170772
0.0170758
0.0170736
0.0170703
0.0170655
0.0170586
0.0170488
0.0175807
0.0175911
0.0175984
0.0176035
0.0176069
0.0176092
0.0176107
0.0176117
0.0176123
0.0176127
0.017613
0.0176132
0.0176133
0.0176134
0.0176134
0.0176135
0.0176135
0.0176135
0.0176135
0.0176136
0.0176136
0.0176136
0.0176136
0.0176136
0.0176136
0.0176136
0.0176136
0.0176136
0.0176136
0.0176136
0.0176136
0.0176136
0.0176136
0.0176136
0.0176136
0.0176136
0.0176136
0.0176136
0.0176136
0.0176136
0.0176136
0.0176135
0.0176135
0.0176135
0.0176135
0.0176134
0.0176134
0.0176133
0.0176132
0.017613
0.0176127
0.0176123
0.0176117
0.0176107
0.0176092
0.0176069
0.0176035
0.0175984
0.0175911
0.0175807
0.0181839
0.0181949
0.0182027
0.0182081
0.0182118
0.0182142
0.0182158
0.0182168
0.0182175
0.018218
0.0182182
0.0182184
0.0182186
0.0182187
0.0182187
0.0182188
0.0182188
0.0182188
0.0182188
0.0182189
0.0182189
0.0182189
0.0182189
0.0182189
0.0182189
0.0182189
0.0182189
0.0182189
0.0182189
0.0182189
0.0182189
0.0182189
0.0182189
0.0182189
0.0182189
0.0182189
0.0182189
0.0182189
0.0182189
0.0182189
0.0182189
0.0182188
0.0182188
0.0182188
0.0182188
0.0182187
0.0182187
0.0182186
0.0182184
0.0182182
0.018218
0.0182175
0.0182168
0.0182158
0.0182142
0.0182118
0.0182081
0.0182027
0.0181949
0.0181839
0.0188741
0.0188859
0.0188942
0.0189
0.0189039
0.0189066
0.0189083
0.0189094
0.0189101
0.0189106
0.0189109
0.0189111
0.0189112
0.0189113
0.0189114
0.0189114
0.0189115
0.0189115
0.0189115
0.0189115
0.0189115
0.0189116
0.0189116
0.0189116
0.0189116
0.0189116
0.0189116
0.0189116
0.0189116
0.0189116
0.0189116
0.0189116
0.0189116
0.0189116
0.0189116
0.0189116
0.0189116
0.0189116
0.0189116
0.0189115
0.0189115
0.0189115
0.0189115
0.0189115
0.0189114
0.0189114
0.0189113
0.0189112
0.0189111
0.0189109
0.0189106
0.0189101
0.0189094
0.0189083
0.0189066
0.0189039
0.0189
0.0188942
0.0188859
0.0188741
0.019672
0.0196848
0.0196937
0.0197
0.0197043
0.0197071
0.0197089
0.0197101
0.0197109
0.0197114
0.0197118
0.019712
0.0197121
0.0197122
0.0197123
0.0197124
0.0197124
0.0197124
0.0197125
0.0197125
0.0197125
0.0197125
0.0197125
0.0197125
0.0197125
0.0197125
0.0197125
0.0197125
0.0197126
0.0197126
0.0197126
0.0197126
0.0197125
0.0197125
0.0197125
0.0197125
0.0197125
0.0197125
0.0197125
0.0197125
0.0197125
0.0197125
0.0197124
0.0197124
0.0197124
0.0197123
0.0197122
0.0197121
0.019712
0.0197118
0.0197114
0.0197109
0.0197101
0.0197089
0.0197071
0.0197043
0.0197
0.0196937
0.0196848
0.019672
0.020606
0.0206198
0.0206296
0.0206365
0.0206411
0.0206442
0.0206463
0.0206476
0.0206484
0.020649
0.0206493
0.0206496
0.0206497
0.0206499
0.0206499
0.02065
0.02065
0.0206501
0.0206501
0.0206501
0.0206501
0.0206501
0.0206502
0.0206502
0.0206502
0.0206502
0.0206502
0.0206502
0.0206502
0.0206502
0.0206502
0.0206502
0.0206502
0.0206502
0.0206502
0.0206502
0.0206502
0.0206502
0.0206501
0.0206501
0.0206501
0.0206501
0.0206501
0.02065
0.02065
0.0206499
0.0206499
0.0206497
0.0206496
0.0206493
0.020649
0.0206484
0.0206476
0.0206463
0.0206442
0.0206411
0.0206365
0.0206296
0.0206198
0.020606
0.0217152
0.0217305
0.0217414
0.0217489
0.0217541
0.0217575
0.0217598
0.0217612
0.0217621
0.0217628
0.0217632
0.0217634
0.0217636
0.0217637
0.0217638
0.0217639
0.0217639
0.021764
0.021764
0.021764
0.0217641
0.0217641
0.0217641
0.0217641
0.0217641
0.0217641
0.0217641
0.0217641
0.0217641
0.0217641
0.0217641
0.0217641
0.0217641
0.0217641
0.0217641
0.0217641
0.0217641
0.0217641
0.0217641
0.0217641
0.021764
0.021764
0.021764
0.0217639
0.0217639
0.0217638
0.0217637
0.0217636
0.0217634
0.0217632
0.0217628
0.0217621
0.0217612
0.0217598
0.0217575
0.0217541
0.0217489
0.0217414
0.0217305
0.0217152
0.0230561
0.0230733
0.0230855
0.023094
0.0230998
0.0231037
0.0231062
0.0231078
0.0231089
0.0231096
0.02311
0.0231104
0.0231106
0.0231107
0.0231108
0.0231109
0.0231109
0.023111
0.023111
0.023111
0.0231111
0.0231111
0.0231111
0.0231111
0.0231111
0.0231111
0.0231111
0.0231111
0.0231111
0.0231111
0.0231111
0.0231111
0.0231111
0.0231111
0.0231111
0.0231111
0.0231111
0.0231111
0.0231111
0.0231111
0.023111
0.023111
0.023111
0.0231109
0.0231109
0.0231108
0.0231107
0.0231106
0.0231104
0.02311
0.0231096
0.0231089
0.0231078
0.0231062
0.0231037
0.0230998
0.023094
0.0230855
0.0230733
0.0230561
0.024712
0.0247317
0.0247457
0.0247555
0.0247622
0.0247666
0.0247695
0.0247714
0.0247726
0.0247734
0.024774
0.0247743
0.0247745
0.0247747
0.0247748
0.0247749
0.024775
0.024775
0.0247751
0.0247751
0.0247751
0.0247751
0.0247752
0.0247752
0.0247752
0.0247752
0.0247752
0.0247752
0.0247752
0.0247752
0.0247752
0.0247752
0.0247752
0.0247752
0.0247752
0.0247752
0.0247752
0.0247752
0.0247751
0.0247751
0.0247751
0.0247751
0.024775
0.024775
0.0247749
0.0247748
0.0247747
0.0247745
0.0247743
0.024774
0.0247734
0.0247726
0.0247714
0.0247695
0.0247666
0.0247622
0.0247555
0.0247457
0.0247317
0.024712
0.0268091
0.0268323
0.0268488
0.0268604
0.0268683
0.0268735
0.0268769
0.0268791
0.0268806
0.0268815
0.0268821
0.0268826
0.0268828
0.026883
0.0268832
0.0268833
0.0268833
0.0268834
0.0268834
0.0268835
0.0268835
0.0268835
0.0268835
0.0268836
0.0268836
0.0268836
0.0268836
0.0268836
0.0268836
0.0268836
0.0268836
0.0268836
0.0268836
0.0268836
0.0268836
0.0268836
0.0268836
0.0268835
0.0268835
0.0268835
0.0268835
0.0268834
0.0268834
0.0268833
0.0268833
0.0268832
0.026883
0.0268828
0.0268826
0.0268821
0.0268815
0.0268806
0.0268791
0.0268769
0.0268735
0.0268683
0.0268604
0.0268488
0.0268323
0.0268091
0.0295402
0.0295682
0.0295882
0.0296023
0.0296119
0.0296183
0.0296224
0.0296251
0.0296269
0.029628
0.0296288
0.0296293
0.0296296
0.0296299
0.02963
0.0296301
0.0296302
0.0296303
0.0296304
0.0296304
0.0296304
0.0296305
0.0296305
0.0296305
0.0296305
0.0296305
0.0296306
0.0296306
0.0296306
0.0296306
0.0296306
0.0296306
0.0296306
0.0296306
0.0296305
0.0296305
0.0296305
0.0296305
0.0296305
0.0296304
0.0296304
0.0296304
0.0296303
0.0296302
0.0296301
0.02963
0.0296299
0.0296296
0.0296293
0.0296288
0.029628
0.0296269
0.0296251
0.0296224
0.0296183
0.0296119
0.0296023
0.0295882
0.0295682
0.0295402
0.0331914
0.0332264
0.0332515
0.0332691
0.0332812
0.0332892
0.0332944
0.0332978
0.0333
0.0333014
0.0333024
0.033303
0.0333034
0.0333037
0.033304
0.0333041
0.0333042
0.0333043
0.0333044
0.0333044
0.0333045
0.0333045
0.0333045
0.0333046
0.0333046
0.0333046
0.0333046
0.0333046
0.0333046
0.0333046
0.0333046
0.0333046
0.0333046
0.0333046
0.0333046
0.0333046
0.0333046
0.0333045
0.0333045
0.0333045
0.0333044
0.0333044
0.0333043
0.0333042
0.0333041
0.033304
0.0333037
0.0333034
0.033303
0.0333024
0.0333014
0.0333
0.0332978
0.0332944
0.0332892
0.0332812
0.0332691
0.0332515
0.0332264
0.0331914
0.0381558
0.0382006
0.0382328
0.0382556
0.038271
0.0382813
0.0382881
0.0382925
0.0382953
0.0382972
0.0382984
0.0382992
0.0382998
0.0383001
0.0383004
0.0383006
0.0383008
0.0383009
0.038301
0.038301
0.0383011
0.0383011
0.0383012
0.0383012
0.0383012
0.0383012
0.0383013
0.0383013
0.0383013
0.0383013
0.0383013
0.0383013
0.0383013
0.0383013
0.0383012
0.0383012
0.0383012
0.0383012
0.0383011
0.0383011
0.038301
0.038301
0.0383009
0.0383008
0.0383006
0.0383004
0.0383001
0.0382998
0.0382992
0.0382984
0.0382972
0.0382953
0.0382925
0.0382881
0.0382813
0.038271
0.0382556
0.0382328
0.0382006
0.0381558
0.0448959
0.0449538
0.0449956
0.0450251
0.0450452
0.0450585
0.0450673
0.045073
0.0450767
0.0450791
0.0450807
0.0450818
0.0450825
0.045083
0.0450834
0.0450836
0.0450838
0.0450839
0.0450841
0.0450841
0.0450842
0.0450843
0.0450843
0.0450844
0.0450844
0.0450844
0.0450845
0.0450845
0.0450845
0.0450845
0.0450845
0.0450845
0.0450845
0.0450845
0.0450844
0.0450844
0.0450844
0.0450843
0.0450843
0.0450842
0.0450841
0.0450841
0.0450839
0.0450838
0.0450836
0.0450834
0.045083
0.0450825
0.0450818
0.0450807
0.0450791
0.0450767
0.045073
0.0450673
0.0450585
0.0450452
0.0450251
0.0449956
0.0449538
0.0448959
0.0538249
0.0538988
0.0539524
0.0539901
0.0540159
0.0540331
0.0540443
0.0540517
0.0540564
0.0540595
0.0540616
0.0540629
0.0540639
0.0540645
0.054065
0.0540653
0.0540655
0.0540657
0.0540659
0.054066
0.0540661
0.0540662
0.0540662
0.0540663
0.0540663
0.0540664
0.0540664
0.0540664
0.0540664
0.0540664
0.0540664
0.0540664
0.0540664
0.0540664
0.0540664
0.0540663
0.0540663
0.0540662
0.0540662
0.0540661
0.054066
0.0540659
0.0540657
0.0540655
0.0540653
0.054065
0.0540645
0.0540639
0.0540629
0.0540616
0.0540595
0.0540564
0.0540517
0.0540443
0.0540331
0.0540159
0.0539901
0.0539524
0.0538988
0.0538249
0.065137
0.0652289
0.0652954
0.0653423
0.0653744
0.0653958
0.0654098
0.0654189
0.0654249
0.0654288
0.0654314
0.0654331
0.0654342
0.065435
0.0654356
0.065436
0.0654363
0.0654365
0.0654367
0.0654369
0.065437
0.0654371
0.0654372
0.0654372
0.0654373
0.0654373
0.0654374
0.0654374
0.0654374
0.0654374
0.0654374
0.0654374
0.0654374
0.0654374
0.0654373
0.0654373
0.0654372
0.0654372
0.0654371
0.065437
0.0654369
0.0654367
0.0654365
0.0654363
0.065436
0.0654356
0.065435
0.0654342
0.0654331
0.0654314
0.0654288
0.0654249
0.0654189
0.0654098
0.0653958
0.0653744
0.0653423
0.0652954
0.0652289
0.065137
0.0786993
0.0788094
0.0788889
0.078945
0.0789833
0.0790089
0.0790257
0.0790367
0.0790439
0.0790486
0.0790517
0.0790538
0.0790552
0.0790561
0.0790568
0.0790573
0.0790577
0.079058
0.0790582
0.0790584
0.0790585
0.0790586
0.0790587
0.0790588
0.0790589
0.0790589
0.079059
0.079059
0.079059
0.079059
0.079059
0.079059
0.079059
0.079059
0.0790589
0.0790589
0.0790588
0.0790587
0.0790586
0.0790585
0.0790584
0.0790582
0.079058
0.0790577
0.0790573
0.0790568
0.0790561
0.0790552
0.0790538
0.0790517
0.0790486
0.0790439
0.0790367
0.0790257
0.0790089
0.0789833
0.078945
0.0788889
0.0788094
0.0786993
0.0941004
0.0942273
0.0943189
0.0943834
0.0944276
0.0944572
0.0944767
0.0944894
0.0944978
0.0945032
0.0945068
0.0945092
0.0945109
0.094512
0.0945128
0.0945134
0.0945138
0.0945142
0.0945144
0.0945146
0.0945148
0.0945149
0.094515
0.0945151
0.0945152
0.0945153
0.0945153
0.0945154
0.0945154
0.0945154
0.0945154
0.0945154
0.0945154
0.0945153
0.0945153
0.0945152
0.0945151
0.094515
0.0945149
0.0945148
0.0945146
0.0945144
0.0945142
0.0945138
0.0945134
0.0945128
0.094512
0.0945109
0.0945092
0.0945068
0.0945032
0.0944978
0.0944894
0.0944767
0.0944572
0.0944276
0.0943834
0.0943189
0.0942273
0.0941004
0.110821
0.110963
0.111066
0.111138
0.111187
0.11122
0.111242
0.111257
0.111266
0.111272
0.111276
0.111279
0.111281
0.111282
0.111283
0.111284
0.111284
0.111285
0.111285
0.111285
0.111285
0.111286
0.111286
0.111286
0.111286
0.111286
0.111286
0.111286
0.111286
0.111286
0.111286
0.111286
0.111286
0.111286
0.111286
0.111286
0.111286
0.111286
0.111286
0.111285
0.111285
0.111285
0.111285
0.111284
0.111284
0.111283
0.111282
0.111281
0.111279
0.111276
0.111272
0.111266
0.111257
0.111242
0.11122
0.111187
0.111138
0.111066
0.110963
0.110821
0.128399
0.128555
0.128667
0.128746
0.1288
0.128837
0.128861
0.128877
0.128887
0.128894
0.128898
0.128901
0.128904
0.128905
0.128906
0.128907
0.128907
0.128908
0.128908
0.128908
0.128909
0.128909
0.128909
0.128909
0.128909
0.128909
0.128909
0.128909
0.128909
0.128909
0.128909
0.128909
0.128909
0.128909
0.128909
0.128909
0.128909
0.128909
0.128909
0.128909
0.128908
0.128908
0.128908
0.128907
0.128907
0.128906
0.128905
0.128904
0.128901
0.128898
0.128894
0.128887
0.128877
0.128861
0.128837
0.1288
0.128746
0.128667
0.128555
0.128399
0.146502
0.14667
0.146791
0.146876
0.146935
0.146974
0.147001
0.147018
0.147029
0.147037
0.147042
0.147045
0.147047
0.147049
0.14705
0.147051
0.147052
0.147052
0.147052
0.147053
0.147053
0.147053
0.147053
0.147053
0.147054
0.147054
0.147054
0.147054
0.147054
0.147054
0.147054
0.147054
0.147054
0.147054
0.147054
0.147054
0.147053
0.147053
0.147053
0.147053
0.147053
0.147052
0.147052
0.147052
0.147051
0.14705
0.147049
0.147047
0.147045
0.147042
0.147037
0.147029
0.147018
0.147001
0.146974
0.146935
0.146876
0.146791
0.14667
0.146502
0.164919
0.165098
0.165227
0.165318
0.165381
0.165424
0.165452
0.165471
0.165483
0.165491
0.165497
0.165501
0.165503
0.165505
0.165506
0.165507
0.165508
0.165508
0.165509
0.165509
0.165509
0.165509
0.165509
0.16551
0.16551
0.16551
0.16551
0.16551
0.16551
0.16551
0.16551
0.16551
0.16551
0.16551
0.16551
0.16551
0.16551
0.165509
0.165509
0.165509
0.165509
0.165509
0.165508
0.165508
0.165507
0.165506
0.165505
0.165503
0.165501
0.165497
0.165491
0.165483
0.165471
0.165452
0.165424
0.165381
0.165318
0.165227
0.165098
0.164919
0.183522
0.183712
0.183849
0.183946
0.184013
0.184058
0.184089
0.184109
0.184122
0.184131
0.184137
0.184141
0.184144
0.184146
0.184147
0.184148
0.184149
0.18415
0.18415
0.18415
0.184151
0.184151
0.184151
0.184151
0.184151
0.184151
0.184151
0.184151
0.184152
0.184152
0.184152
0.184152
0.184151
0.184151
0.184151
0.184151
0.184151
0.184151
0.184151
0.184151
0.18415
0.18415
0.18415
0.184149
0.184148
0.184147
0.184146
0.184144
0.184141
0.184137
0.184131
0.184122
0.184109
0.184089
0.184058
0.184013
0.183946
0.183849
0.183712
0.183522
0.202234
0.202433
0.202578
0.202681
0.202752
0.2028
0.202833
0.202854
0.202869
0.202878
0.202885
0.202889
0.202892
0.202894
0.202896
0.202897
0.202898
0.202898
0.202899
0.202899
0.202899
0.202899
0.2029
0.2029
0.2029
0.2029
0.2029
0.2029
0.2029
0.2029
0.2029
0.2029
0.2029
0.2029
0.2029
0.2029
0.2029
0.2029
0.202899
0.202899
0.202899
0.202899
0.202898
0.202898
0.202897
0.202896
0.202894
0.202892
0.202889
0.202885
0.202878
0.202869
0.202854
0.202833
0.2028
0.202752
0.202681
0.202578
0.202433
0.202234
0.221
0.221209
0.221361
0.221469
0.221545
0.221596
0.221631
0.221654
0.221669
0.22168
0.221687
0.221691
0.221695
0.221697
0.221698
0.2217
0.2217
0.221701
0.221702
0.221702
0.221702
0.221702
0.221703
0.221703
0.221703
0.221703
0.221703
0.221703
0.221703
0.221703
0.221703
0.221703
0.221703
0.221703
0.221703
0.221703
0.221703
0.221703
0.221702
0.221702
0.221702
0.221702
0.221701
0.2217
0.2217
0.221698
0.221697
0.221695
0.221691
0.221687
0.22168
0.221669
0.221654
0.221631
0.221596
0.221545
0.221469
0.221361
0.221209
0.221
0.239783
0.240001
0.24016
0.240274
0.240353
0.240407
0.240444
0.240469
0.240485
0.240496
0.240504
0.240509
0.240513
0.240515
0.240517
0.240518
0.240519
0.24052
0.24052
0.240521
0.240521
0.240521
0.240521
0.240522
0.240522
0.240522
0.240522
0.240522
0.240522
0.240522
0.240522
0.240522
0.240522
0.240522
0.240522
0.240522
0.240522
0.240521
0.240521
0.240521
0.240521
0.24052
0.24052
0.240519
0.240518
0.240517
0.240515
0.240513
0.240509
0.240504
0.240496
0.240485
0.240469
0.240444
0.240407
0.240353
0.240274
0.24016
0.240001
0.239783
0.258551
0.258778
0.258943
0.259062
0.259146
0.259203
0.259242
0.259268
0.259286
0.259297
0.259306
0.259311
0.259315
0.259317
0.259319
0.259321
0.259322
0.259322
0.259323
0.259323
0.259324
0.259324
0.259324
0.259325
0.259325
0.259325
0.259325
0.259325
0.259325
0.259325
0.259325
0.259325
0.259325
0.259325
0.259325
0.259325
0.259325
0.259324
0.259324
0.259324
0.259323
0.259323
0.259322
0.259322
0.259321
0.259319
0.259317
0.259315
0.259311
0.259306
0.259297
0.259286
0.259268
0.259242
0.259203
0.259146
0.259062
0.258943
0.258778
0.258551
0.277277
0.277512
0.277684
0.277808
0.277896
0.277956
0.277997
0.278025
0.278043
0.278056
0.278065
0.278071
0.278075
0.278078
0.27808
0.278081
0.278082
0.278083
0.278084
0.278084
0.278084
0.278085
0.278085
0.278085
0.278085
0.278085
0.278086
0.278086
0.278086
0.278086
0.278086
0.278086
0.278086
0.278086
0.278085
0.278085
0.278085
0.278085
0.278085
0.278084
0.278084
0.278084
0.278083
0.278082
0.278081
0.27808
0.278078
0.278075
0.278071
0.278065
0.278056
0.278043
0.278025
0.277997
0.277956
0.277896
0.277808
0.277684
0.277512
0.277277
0.295938
0.29618
0.296359
0.296488
0.296579
0.296642
0.296686
0.296715
0.296735
0.296749
0.296758
0.296764
0.296769
0.296772
0.296774
0.296776
0.296777
0.296778
0.296778
0.296779
0.296779
0.296779
0.29678
0.29678
0.29678
0.29678
0.29678
0.29678
0.29678
0.29678
0.29678
0.29678
0.29678
0.29678
0.29678
0.29678
0.29678
0.29678
0.296779
0.296779
0.296779
0.296778
0.296778
0.296777
0.296776
0.296774
0.296772
0.296769
0.296764
0.296758
0.296749
0.296735
0.296715
0.296686
0.296642
0.296579
0.296488
0.296359
0.29618
0.295938
0.314512
0.314761
0.314946
0.31508
0.315175
0.315241
0.315287
0.315318
0.315339
0.315354
0.315364
0.31537
0.315375
0.315378
0.315381
0.315382
0.315384
0.315385
0.315385
0.315386
0.315386
0.315387
0.315387
0.315387
0.315387
0.315387
0.315388
0.315388
0.315388
0.315388
0.315388
0.315388
0.315388
0.315388
0.315387
0.315387
0.315387
0.315387
0.315387
0.315386
0.315386
0.315385
0.315385
0.315384
0.315382
0.315381
0.315378
0.315375
0.31537
0.315364
0.315354
0.315339
0.315318
0.315287
0.315241
0.315175
0.31508
0.314946
0.314761
0.314512
0.332979
0.333235
0.333426
0.333565
0.333664
0.333733
0.333781
0.333813
0.333836
0.333851
0.333862
0.333869
0.333874
0.333878
0.33388
0.333882
0.333883
0.333884
0.333885
0.333886
0.333886
0.333887
0.333887
0.333887
0.333887
0.333887
0.333887
0.333887
0.333888
0.333888
0.333888
0.333888
0.333887
0.333887
0.333887
0.333887
0.333887
0.333887
0.333887
0.333886
0.333886
0.333885
0.333884
0.333883
0.333882
0.33388
0.333878
0.333874
0.333869
0.333862
0.333851
0.333836
0.333813
0.333781
0.333733
0.333664
0.333565
0.333426
0.333235
0.332979
0.351321
0.351583
0.35178
0.351923
0.352026
0.352098
0.352148
0.352183
0.352206
0.352223
0.352234
0.352242
0.352247
0.352251
0.352254
0.352256
0.352257
0.352258
0.352259
0.35226
0.35226
0.35226
0.352261
0.352261
0.352261
0.352261
0.352261
0.352261
0.352262
0.352262
0.352262
0.352262
0.352261
0.352261
0.352261
0.352261
0.352261
0.352261
0.35226
0.35226
0.35226
0.352259
0.352258
0.352257
0.352256
0.352254
0.352251
0.352247
0.352242
0.352234
0.352223
0.352206
0.352183
0.352148
0.352098
0.352026
0.351923
0.35178
0.351583
0.351321
0.369521
0.369789
0.36999
0.370138
0.370244
0.37032
0.370372
0.370408
0.370433
0.370451
0.370463
0.370471
0.370477
0.370481
0.370484
0.370486
0.370487
0.370489
0.37049
0.37049
0.370491
0.370491
0.370491
0.370492
0.370492
0.370492
0.370492
0.370492
0.370492
0.370492
0.370492
0.370492
0.370492
0.370492
0.370492
0.370492
0.370492
0.370491
0.370491
0.370491
0.37049
0.37049
0.370489
0.370487
0.370486
0.370484
0.370481
0.370477
0.370471
0.370463
0.370451
0.370433
0.370408
0.370372
0.37032
0.370244
0.370138
0.36999
0.369789
0.369521
0.387562
0.387834
0.388041
0.388193
0.388303
0.388381
0.388436
0.388474
0.388501
0.388519
0.388531
0.38854
0.388547
0.388551
0.388554
0.388556
0.388558
0.388559
0.38856
0.388561
0.388562
0.388562
0.388562
0.388563
0.388563
0.388563
0.388563
0.388563
0.388563
0.388563
0.388563
0.388563
0.388563
0.388563
0.388563
0.388563
0.388563
0.388562
0.388562
0.388562
0.388561
0.38856
0.388559
0.388558
0.388556
0.388554
0.388551
0.388547
0.38854
0.388531
0.388519
0.388501
0.388474
0.388436
0.388381
0.388303
0.388193
0.388041
0.387834
0.387562
0.405428
0.405706
0.405916
0.406073
0.406187
0.406268
0.406325
0.406365
0.406392
0.406412
0.406425
0.406434
0.406441
0.406446
0.406449
0.406452
0.406454
0.406455
0.406456
0.406457
0.406457
0.406458
0.406458
0.406458
0.406459
0.406459
0.406459
0.406459
0.406459
0.406459
0.406459
0.406459
0.406459
0.406459
0.406459
0.406459
0.406458
0.406458
0.406458
0.406457
0.406457
0.406456
0.406455
0.406454
0.406452
0.406449
0.406446
0.406441
0.406434
0.406425
0.406412
0.406392