/*--------------------------------*- C++ -*----------------------------------*\
| =========                 |                                                 |
| \\      /  F ield         | foam-extend: Open Source CFD                    |
|  \\    /   O peration     | Version:     4.0                                |
|   \\  /    A nd           | Web:         http://www.foam-extend.org         |
|    \\/     M anipulation  |                                                 |
\*---------------------------------------------------------------------------*/
FoamFile
{
    version     2.0;
    format      ascii;
    class       volScalarField;
    location    "25";
    object      cMinus;
}
// * * * * * * * * * * * * * * * * * * * * * * * * * * * * * * * * * * * * * //

dimensions      [0 -3 0 0 0 0 0];

internalField   nonuniform List<scalar> 
6960
(
5.20308e-12
5.20071e-12
5.19859e-12
5.1967e-12
5.19505e-12
5.1936e-12
5.19236e-12
5.1913e-12
5.19041e-12
5.18966e-12
5.18904e-12
5.18853e-12
5.18812e-12
5.18779e-12
5.18752e-12
5.18732e-12
5.18715e-12
5.18702e-12
5.18693e-12
5.18685e-12
5.18679e-12
5.18675e-12
5.18672e-12
5.1867e-12
5.18668e-12
5.18667e-12
5.18666e-12
5.18665e-12
5.18665e-12
5.18665e-12
5.18665e-12
5.18665e-12
5.18665e-12
5.18666e-12
5.18667e-12
5.18668e-12
5.1867e-12
5.18672e-12
5.18675e-12
5.18679e-12
5.18685e-12
5.18693e-12
5.18702e-12
5.18715e-12
5.18732e-12
5.18752e-12
5.18779e-12
5.18812e-12
5.18853e-12
5.18904e-12
5.18966e-12
5.19041e-12
5.1913e-12
5.19236e-12
5.1936e-12
5.19505e-12
5.1967e-12
5.19859e-12
5.20071e-12
5.20308e-12
5.33999e-12
5.33757e-12
5.33539e-12
5.33346e-12
5.33176e-12
5.33029e-12
5.32901e-12
5.32793e-12
5.32701e-12
5.32624e-12
5.32561e-12
5.32509e-12
5.32467e-12
5.32433e-12
5.32405e-12
5.32384e-12
5.32367e-12
5.32354e-12
5.32344e-12
5.32337e-12
5.32331e-12
5.32326e-12
5.32323e-12
5.32321e-12
5.32319e-12
5.32318e-12
5.32317e-12
5.32316e-12
5.32316e-12
5.32316e-12
5.32316e-12
5.32316e-12
5.32316e-12
5.32317e-12
5.32318e-12
5.32319e-12
5.32321e-12
5.32323e-12
5.32326e-12
5.32331e-12
5.32337e-12
5.32344e-12
5.32354e-12
5.32367e-12
5.32384e-12
5.32405e-12
5.32433e-12
5.32467e-12
5.32509e-12
5.32561e-12
5.32624e-12
5.32701e-12
5.32793e-12
5.32901e-12
5.33029e-12
5.33176e-12
5.33346e-12
5.33539e-12
5.33757e-12
5.33999e-12
5.49024e-12
5.48775e-12
5.48553e-12
5.48355e-12
5.48181e-12
5.4803e-12
5.47899e-12
5.47788e-12
5.47694e-12
5.47616e-12
5.47551e-12
5.47497e-12
5.47454e-12
5.47419e-12
5.47392e-12
5.4737e-12
5.47352e-12
5.47339e-12
5.47329e-12
5.47321e-12
5.47315e-12
5.47311e-12
5.47307e-12
5.47305e-12
5.47303e-12
5.47302e-12
5.47301e-12
5.473e-12
5.473e-12
5.47299e-12
5.47299e-12
5.473e-12
5.473e-12
5.47301e-12
5.47302e-12
5.47303e-12
5.47305e-12
5.47307e-12
5.47311e-12
5.47315e-12
5.47321e-12
5.47329e-12
5.47339e-12
5.47352e-12
5.4737e-12
5.47392e-12
5.47419e-12
5.47454e-12
5.47497e-12
5.47551e-12
5.47616e-12
5.47694e-12
5.47788e-12
5.47899e-12
5.4803e-12
5.48181e-12
5.48355e-12
5.48553e-12
5.48775e-12
5.49024e-12
5.65483e-12
5.65229e-12
5.65001e-12
5.64798e-12
5.6462e-12
5.64466e-12
5.64332e-12
5.64218e-12
5.64122e-12
5.64042e-12
5.63975e-12
5.63921e-12
5.63877e-12
5.63841e-12
5.63813e-12
5.6379e-12
5.63773e-12
5.63759e-12
5.63748e-12
5.6374e-12
5.63734e-12
5.6373e-12
5.63726e-12
5.63724e-12
5.63722e-12
5.63721e-12
5.6372e-12
5.63719e-12
5.63719e-12
5.63718e-12
5.63718e-12
5.63719e-12
5.63719e-12
5.6372e-12
5.63721e-12
5.63722e-12
5.63724e-12
5.63726e-12
5.6373e-12
5.63734e-12
5.6374e-12
5.63748e-12
5.63759e-12
5.63773e-12
5.6379e-12
5.63813e-12
5.63841e-12
5.63877e-12
5.63921e-12
5.63975e-12
5.64042e-12
5.64122e-12
5.64218e-12
5.64332e-12
5.64466e-12
5.6462e-12
5.64798e-12
5.65001e-12
5.65229e-12
5.65483e-12
5.83487e-12
5.83227e-12
5.82994e-12
5.82787e-12
5.82605e-12
5.82447e-12
5.8231e-12
5.82194e-12
5.82096e-12
5.82014e-12
5.81946e-12
5.8189e-12
5.81844e-12
5.81808e-12
5.81779e-12
5.81756e-12
5.81738e-12
5.81724e-12
5.81713e-12
5.81705e-12
5.81699e-12
5.81694e-12
5.81691e-12
5.81688e-12
5.81686e-12
5.81685e-12
5.81684e-12
5.81683e-12
5.81683e-12
5.81683e-12
5.81683e-12
5.81683e-12
5.81683e-12
5.81684e-12
5.81685e-12
5.81686e-12
5.81688e-12
5.81691e-12
5.81694e-12
5.81699e-12
5.81705e-12
5.81713e-12
5.81724e-12
5.81738e-12
5.81756e-12
5.81779e-12
5.81808e-12
5.81844e-12
5.8189e-12
5.81946e-12
5.82014e-12
5.82096e-12
5.82194e-12
5.8231e-12
5.82447e-12
5.82605e-12
5.82787e-12
5.82994e-12
5.83227e-12
5.83487e-12
6.03155e-12
6.0289e-12
6.02651e-12
6.0244e-12
6.02254e-12
6.02092e-12
6.01953e-12
6.01834e-12
6.01734e-12
6.0165e-12
6.0158e-12
6.01523e-12
6.01477e-12
6.0144e-12
6.0141e-12
6.01387e-12
6.01368e-12
6.01354e-12
6.01343e-12
6.01335e-12
6.01328e-12
6.01324e-12
6.0132e-12
6.01317e-12
6.01315e-12
6.01314e-12
6.01313e-12
6.01312e-12
6.01312e-12
6.01312e-12
6.01312e-12
6.01312e-12
6.01312e-12
6.01313e-12
6.01314e-12
6.01315e-12
6.01317e-12
6.0132e-12
6.01324e-12
6.01328e-12
6.01335e-12
6.01343e-12
6.01354e-12
6.01368e-12
6.01387e-12
6.0141e-12
6.0144e-12
6.01477e-12
6.01523e-12
6.0158e-12
6.0165e-12
6.01734e-12
6.01834e-12
6.01953e-12
6.02092e-12
6.02254e-12
6.0244e-12
6.02651e-12
6.0289e-12
6.03155e-12
6.24618e-12
6.24346e-12
6.24103e-12
6.23888e-12
6.23698e-12
6.23533e-12
6.23391e-12
6.23269e-12
6.23167e-12
6.23081e-12
6.2301e-12
6.22952e-12
6.22905e-12
6.22867e-12
6.22836e-12
6.22812e-12
6.22794e-12
6.22779e-12
6.22768e-12
6.22759e-12
6.22753e-12
6.22748e-12
6.22744e-12
6.22742e-12
6.2274e-12
6.22738e-12
6.22737e-12
6.22736e-12
6.22736e-12
6.22736e-12
6.22736e-12
6.22736e-12
6.22736e-12
6.22737e-12
6.22738e-12
6.2274e-12
6.22742e-12
6.22744e-12
6.22748e-12
6.22753e-12
6.22759e-12
6.22768e-12
6.22779e-12
6.22794e-12
6.22812e-12
6.22836e-12
6.22867e-12
6.22905e-12
6.22952e-12
6.2301e-12
6.23081e-12
6.23167e-12
6.23269e-12
6.23391e-12
6.23533e-12
6.23698e-12
6.23888e-12
6.24103e-12
6.24346e-12
6.24618e-12
6.48016e-12
6.47739e-12
6.47491e-12
6.47271e-12
6.47077e-12
6.46909e-12
6.46764e-12
6.4664e-12
6.46536e-12
6.46448e-12
6.46376e-12
6.46317e-12
6.46268e-12
6.4623e-12
6.46199e-12
6.46174e-12
6.46155e-12
6.4614e-12
6.46129e-12
6.4612e-12
6.46113e-12
6.46108e-12
6.46105e-12
6.46102e-12
6.461e-12
6.46098e-12
6.46097e-12
6.46097e-12
6.46096e-12
6.46096e-12
6.46096e-12
6.46096e-12
6.46097e-12
6.46097e-12
6.46098e-12
6.461e-12
6.46102e-12
6.46105e-12
6.46108e-12
6.46113e-12
6.4612e-12
6.46129e-12
6.4614e-12
6.46155e-12
6.46174e-12
6.46199e-12
6.4623e-12
6.46268e-12
6.46317e-12
6.46376e-12
6.46448e-12
6.46536e-12
6.4664e-12
6.46764e-12
6.46909e-12
6.47077e-12
6.47271e-12
6.47491e-12
6.47739e-12
6.48016e-12
6.73503e-12
6.73221e-12
6.72968e-12
6.72744e-12
6.72547e-12
6.72375e-12
6.72227e-12
6.72101e-12
6.71994e-12
6.71905e-12
6.71831e-12
6.71771e-12
6.71722e-12
6.71682e-12
6.71651e-12
6.71626e-12
6.71606e-12
6.71591e-12
6.7158e-12
6.71571e-12
6.71564e-12
6.71559e-12
6.71555e-12
6.71552e-12
6.7155e-12
6.71549e-12
6.71547e-12
6.71547e-12
6.71546e-12
6.71546e-12
6.71546e-12
6.71546e-12
6.71547e-12
6.71547e-12
6.71549e-12
6.7155e-12
6.71552e-12
6.71555e-12
6.71559e-12
6.71564e-12
6.71571e-12
6.7158e-12
6.71591e-12
6.71606e-12
6.71626e-12
6.71651e-12
6.71682e-12
6.71722e-12
6.71771e-12
6.71831e-12
6.71905e-12
6.71994e-12
6.72101e-12
6.72227e-12
6.72375e-12
6.72547e-12
6.72744e-12
6.72968e-12
6.73221e-12
6.73503e-12
7.01247e-12
7.0096e-12
7.00702e-12
7.00474e-12
7.00273e-12
7.00098e-12
6.99948e-12
6.99819e-12
6.99711e-12
6.9962e-12
6.99545e-12
6.99483e-12
6.99433e-12
6.99393e-12
6.99361e-12
6.99335e-12
6.99315e-12
6.993e-12
6.99288e-12
6.99279e-12
6.99272e-12
6.99267e-12
6.99263e-12
6.9926e-12
6.99258e-12
6.99256e-12
6.99255e-12
6.99255e-12
6.99254e-12
6.99254e-12
6.99254e-12
6.99254e-12
6.99255e-12
6.99255e-12
6.99256e-12
6.99258e-12
6.9926e-12
6.99263e-12
6.99267e-12
6.99272e-12
6.99279e-12
6.99288e-12
6.993e-12
6.99315e-12
6.99335e-12
6.99361e-12
6.99393e-12
6.99433e-12
6.99483e-12
6.99545e-12
6.9962e-12
6.99711e-12
6.99819e-12
6.99948e-12
7.00098e-12
7.00273e-12
7.00474e-12
7.00702e-12
7.0096e-12
7.01247e-12
7.31431e-12
7.31139e-12
7.30877e-12
7.30644e-12
7.3044e-12
7.30262e-12
7.30109e-12
7.29978e-12
7.29868e-12
7.29775e-12
7.29699e-12
7.29636e-12
7.29585e-12
7.29544e-12
7.29511e-12
7.29486e-12
7.29465e-12
7.2945e-12
7.29437e-12
7.29428e-12
7.29421e-12
7.29416e-12
7.29412e-12
7.29409e-12
7.29407e-12
7.29405e-12
7.29404e-12
7.29403e-12
7.29403e-12
7.29403e-12
7.29403e-12
7.29403e-12
7.29403e-12
7.29404e-12
7.29405e-12
7.29407e-12
7.29409e-12
7.29412e-12
7.29416e-12
7.29421e-12
7.29428e-12
7.29437e-12
7.2945e-12
7.29465e-12
7.29486e-12
7.29511e-12
7.29544e-12
7.29585e-12
7.29636e-12
7.29699e-12
7.29775e-12
7.29868e-12
7.29978e-12
7.30109e-12
7.30262e-12
7.3044e-12
7.30644e-12
7.30877e-12
7.31139e-12
7.31431e-12
7.64256e-12
7.63959e-12
7.63692e-12
7.63456e-12
7.63248e-12
7.63067e-12
7.62911e-12
7.62778e-12
7.62666e-12
7.62572e-12
7.62494e-12
7.6243e-12
7.62379e-12
7.62337e-12
7.62304e-12
7.62277e-12
7.62257e-12
7.62241e-12
7.62228e-12
7.62219e-12
7.62212e-12
7.62206e-12
7.62202e-12
7.62199e-12
7.62197e-12
7.62196e-12
7.62195e-12
7.62194e-12
7.62193e-12
7.62193e-12
7.62193e-12
7.62193e-12
7.62194e-12
7.62195e-12
7.62196e-12
7.62197e-12
7.62199e-12
7.62202e-12
7.62206e-12
7.62212e-12
7.62219e-12
7.62228e-12
7.62241e-12
7.62257e-12
7.62277e-12
7.62304e-12
7.62337e-12
7.62379e-12
7.6243e-12
7.62494e-12
7.62572e-12
7.62666e-12
7.62778e-12
7.62911e-12
7.63067e-12
7.63248e-12
7.63456e-12
7.63692e-12
7.63959e-12
7.64256e-12
7.99941e-12
7.99639e-12
7.99368e-12
7.99128e-12
7.98917e-12
7.98733e-12
7.98575e-12
7.9844e-12
7.98326e-12
7.9823e-12
7.98151e-12
7.98086e-12
7.98033e-12
7.97991e-12
7.97957e-12
7.9793e-12
7.9791e-12
7.97893e-12
7.97881e-12
7.97871e-12
7.97864e-12
7.97858e-12
7.97854e-12
7.97851e-12
7.97849e-12
7.97847e-12
7.97846e-12
7.97845e-12
7.97845e-12
7.97845e-12
7.97845e-12
7.97845e-12
7.97845e-12
7.97846e-12
7.97847e-12
7.97849e-12
7.97851e-12
7.97854e-12
7.97858e-12
7.97864e-12
7.97871e-12
7.97881e-12
7.97893e-12
7.9791e-12
7.9793e-12
7.97957e-12
7.97991e-12
7.98033e-12
7.98086e-12
7.98151e-12
7.9823e-12
7.98326e-12
7.9844e-12
7.98575e-12
7.98733e-12
7.98917e-12
7.99128e-12
7.99368e-12
7.99639e-12
7.99941e-12
8.38727e-12
8.38421e-12
8.38146e-12
8.37902e-12
8.37688e-12
8.37501e-12
8.3734e-12
8.37203e-12
8.37087e-12
8.3699e-12
8.3691e-12
8.36844e-12
8.36791e-12
8.36748e-12
8.36713e-12
8.36686e-12
8.36665e-12
8.36648e-12
8.36635e-12
8.36626e-12
8.36618e-12
8.36613e-12
8.36608e-12
8.36605e-12
8.36603e-12
8.36602e-12
8.366e-12
8.366e-12
8.36599e-12
8.36599e-12
8.36599e-12
8.36599e-12
8.366e-12
8.366e-12
8.36602e-12
8.36603e-12
8.36605e-12
8.36608e-12
8.36613e-12
8.36618e-12
8.36626e-12
8.36635e-12
8.36648e-12
8.36665e-12
8.36686e-12
8.36713e-12
8.36748e-12
8.36791e-12
8.36844e-12
8.3691e-12
8.3699e-12
8.37087e-12
8.37203e-12
8.3734e-12
8.37501e-12
8.37688e-12
8.37902e-12
8.38146e-12
8.38421e-12
8.38727e-12
8.80881e-12
8.8057e-12
8.80291e-12
8.80044e-12
8.79826e-12
8.79637e-12
8.79473e-12
8.79334e-12
8.79216e-12
8.79118e-12
8.79036e-12
8.7897e-12
8.78915e-12
8.78871e-12
8.78837e-12
8.78809e-12
8.78787e-12
8.78771e-12
8.78758e-12
8.78748e-12
8.7874e-12
8.78735e-12
8.7873e-12
8.78727e-12
8.78725e-12
8.78723e-12
8.78722e-12
8.78721e-12
8.78721e-12
8.78721e-12
8.78721e-12
8.78721e-12
8.78721e-12
8.78722e-12
8.78723e-12
8.78725e-12
8.78727e-12
8.7873e-12
8.78735e-12
8.7874e-12
8.78748e-12
8.78758e-12
8.78771e-12
8.78787e-12
8.78809e-12
8.78837e-12
8.78871e-12
8.78915e-12
8.7897e-12
8.79036e-12
8.79118e-12
8.79216e-12
8.79334e-12
8.79473e-12
8.79637e-12
8.79826e-12
8.80044e-12
8.80291e-12
8.8057e-12
8.80881e-12
9.26692e-12
9.26377e-12
9.26094e-12
9.25844e-12
9.25623e-12
9.25431e-12
9.25265e-12
9.25124e-12
9.25005e-12
9.24905e-12
9.24822e-12
9.24754e-12
9.24699e-12
9.24655e-12
9.2462e-12
9.24592e-12
9.2457e-12
9.24553e-12
9.24539e-12
9.24529e-12
9.24522e-12
9.24516e-12
9.24512e-12
9.24509e-12
9.24506e-12
9.24505e-12
9.24503e-12
9.24503e-12
9.24502e-12
9.24502e-12
9.24502e-12
9.24502e-12
9.24503e-12
9.24503e-12
9.24505e-12
9.24506e-12
9.24509e-12
9.24512e-12
9.24516e-12
9.24522e-12
9.24529e-12
9.24539e-12
9.24553e-12
9.2457e-12
9.24592e-12
9.2462e-12
9.24655e-12
9.24699e-12
9.24754e-12
9.24822e-12
9.24905e-12
9.25005e-12
9.25124e-12
9.25265e-12
9.25431e-12
9.25623e-12
9.25844e-12
9.26094e-12
9.26377e-12
9.26692e-12
9.76485e-12
9.76165e-12
9.75879e-12
9.75624e-12
9.75401e-12
9.75206e-12
9.75039e-12
9.74895e-12
9.74775e-12
9.74673e-12
9.7459e-12
9.74521e-12
9.74465e-12
9.7442e-12
9.74384e-12
9.74356e-12
9.74333e-12
9.74316e-12
9.74303e-12
9.74293e-12
9.74285e-12
9.74279e-12
9.74275e-12
9.74271e-12
9.74269e-12
9.74267e-12
9.74266e-12
9.74265e-12
9.74265e-12
9.74265e-12
9.74265e-12
9.74265e-12
9.74265e-12
9.74266e-12
9.74267e-12
9.74269e-12
9.74271e-12
9.74275e-12
9.74279e-12
9.74285e-12
9.74293e-12
9.74303e-12
9.74316e-12
9.74333e-12
9.74356e-12
9.74384e-12
9.7442e-12
9.74465e-12
9.74521e-12
9.7459e-12
9.74673e-12
9.74775e-12
9.74895e-12
9.75039e-12
9.75206e-12
9.75401e-12
9.75624e-12
9.75879e-12
9.76165e-12
9.76485e-12
1.03061e-11
1.03029e-11
1.03e-11
1.02974e-11
1.02952e-11
1.02932e-11
1.02915e-11
1.029e-11
1.02888e-11
1.02878e-11
1.02869e-11
1.02862e-11
1.02857e-11
1.02852e-11
1.02849e-11
1.02846e-11
1.02843e-11
1.02842e-11
1.0284e-11
1.02839e-11
1.02839e-11
1.02838e-11
1.02837e-11
1.02837e-11
1.02837e-11
1.02837e-11
1.02837e-11
1.02837e-11
1.02836e-11
1.02836e-11
1.02836e-11
1.02836e-11
1.02837e-11
1.02837e-11
1.02837e-11
1.02837e-11
1.02837e-11
1.02837e-11
1.02838e-11
1.02839e-11
1.02839e-11
1.0284e-11
1.02842e-11
1.02843e-11
1.02846e-11
1.02849e-11
1.02852e-11
1.02857e-11
1.02862e-11
1.02869e-11
1.02878e-11
1.02888e-11
1.029e-11
1.02915e-11
1.02932e-11
1.02952e-11
1.02974e-11
1.03e-11
1.03029e-11
1.03061e-11
1.08947e-11
1.08914e-11
1.08885e-11
1.08859e-11
1.08836e-11
1.08816e-11
1.08799e-11
1.08784e-11
1.08772e-11
1.08762e-11
1.08753e-11
1.08746e-11
1.0874e-11
1.08736e-11
1.08732e-11
1.08729e-11
1.08727e-11
1.08725e-11
1.08724e-11
1.08722e-11
1.08722e-11
1.08721e-11
1.08721e-11
1.0872e-11
1.0872e-11
1.0872e-11
1.0872e-11
1.0872e-11
1.0872e-11
1.0872e-11
1.0872e-11
1.0872e-11
1.0872e-11
1.0872e-11
1.0872e-11
1.0872e-11
1.0872e-11
1.08721e-11
1.08721e-11
1.08722e-11
1.08722e-11
1.08724e-11
1.08725e-11
1.08727e-11
1.08729e-11
1.08732e-11
1.08736e-11
1.0874e-11
1.08746e-11
1.08753e-11
1.08762e-11
1.08772e-11
1.08784e-11
1.08799e-11
1.08816e-11
1.08836e-11
1.08859e-11
1.08885e-11
1.08914e-11
1.08947e-11
1.1535e-11
1.15317e-11
1.15287e-11
1.15261e-11
1.15237e-11
1.15217e-11
1.152e-11
1.15185e-11
1.15172e-11
1.15162e-11
1.15153e-11
1.15146e-11
1.1514e-11
1.15136e-11
1.15132e-11
1.15129e-11
1.15127e-11
1.15125e-11
1.15123e-11
1.15122e-11
1.15122e-11
1.15121e-11
1.15121e-11
1.1512e-11
1.1512e-11
1.1512e-11
1.1512e-11
1.1512e-11
1.1512e-11
1.1512e-11
1.1512e-11
1.1512e-11
1.1512e-11
1.1512e-11
1.1512e-11
1.1512e-11
1.1512e-11
1.15121e-11
1.15121e-11
1.15122e-11
1.15122e-11
1.15123e-11
1.15125e-11
1.15127e-11
1.15129e-11
1.15132e-11
1.15136e-11
1.1514e-11
1.15146e-11
1.15153e-11
1.15162e-11
1.15172e-11
1.15185e-11
1.152e-11
1.15217e-11
1.15237e-11
1.15261e-11
1.15287e-11
1.15317e-11
1.1535e-11
1.22317e-11
1.22284e-11
1.22254e-11
1.22227e-11
1.22204e-11
1.22183e-11
1.22166e-11
1.22151e-11
1.22138e-11
1.22128e-11
1.22119e-11
1.22112e-11
1.22106e-11
1.22101e-11
1.22097e-11
1.22094e-11
1.22092e-11
1.2209e-11
1.22089e-11
1.22088e-11
1.22087e-11
1.22086e-11
1.22086e-11
1.22085e-11
1.22085e-11
1.22085e-11
1.22085e-11
1.22085e-11
1.22085e-11
1.22085e-11
1.22085e-11
1.22085e-11
1.22085e-11
1.22085e-11
1.22085e-11
1.22085e-11
1.22085e-11
1.22086e-11
1.22086e-11
1.22087e-11
1.22088e-11
1.22089e-11
1.2209e-11
1.22092e-11
1.22094e-11
1.22097e-11
1.22101e-11
1.22106e-11
1.22112e-11
1.22119e-11
1.22128e-11
1.22138e-11
1.22151e-11
1.22166e-11
1.22183e-11
1.22204e-11
1.22227e-11
1.22254e-11
1.22284e-11
1.22317e-11
1.29904e-11
1.2987e-11
1.2984e-11
1.29813e-11
1.29789e-11
1.29769e-11
1.29751e-11
1.29736e-11
1.29723e-11
1.29712e-11
1.29704e-11
1.29696e-11
1.2969e-11
1.29686e-11
1.29682e-11
1.29679e-11
1.29676e-11
1.29675e-11
1.29673e-11
1.29672e-11
1.29671e-11
1.29671e-11
1.2967e-11
1.2967e-11
1.2967e-11
1.29669e-11
1.29669e-11
1.29669e-11
1.29669e-11
1.29669e-11
1.29669e-11
1.29669e-11
1.29669e-11
1.29669e-11
1.29669e-11
1.2967e-11
1.2967e-11
1.2967e-11
1.29671e-11
1.29671e-11
1.29672e-11
1.29673e-11
1.29675e-11
1.29676e-11
1.29679e-11
1.29682e-11
1.29686e-11
1.2969e-11
1.29696e-11
1.29704e-11
1.29712e-11
1.29723e-11
1.29736e-11
1.29751e-11
1.29769e-11
1.29789e-11
1.29813e-11
1.2984e-11
1.2987e-11
1.29904e-11
1.3817e-11
1.38136e-11
1.38105e-11
1.38078e-11
1.38054e-11
1.38034e-11
1.38016e-11
1.38e-11
1.37987e-11
1.37977e-11
1.37968e-11
1.3796e-11
1.37954e-11
1.37949e-11
1.37946e-11
1.37943e-11
1.3794e-11
1.37938e-11
1.37937e-11
1.37936e-11
1.37935e-11
1.37934e-11
1.37934e-11
1.37933e-11
1.37933e-11
1.37933e-11
1.37933e-11
1.37933e-11
1.37933e-11
1.37933e-11
1.37933e-11
1.37933e-11
1.37933e-11
1.37933e-11
1.37933e-11
1.37933e-11
1.37933e-11
1.37934e-11
1.37934e-11
1.37935e-11
1.37936e-11
1.37937e-11
1.37938e-11
1.3794e-11
1.37943e-11
1.37946e-11
1.37949e-11
1.37954e-11
1.3796e-11
1.37968e-11
1.37977e-11
1.37987e-11
1.38e-11
1.38016e-11
1.38034e-11
1.38054e-11
1.38078e-11
1.38105e-11
1.38136e-11
1.3817e-11
1.47182e-11
1.47148e-11
1.47117e-11
1.4709e-11
1.47066e-11
1.47045e-11
1.47027e-11
1.47011e-11
1.46998e-11
1.46987e-11
1.46978e-11
1.46971e-11
1.46965e-11
1.4696e-11
1.46956e-11
1.46953e-11
1.4695e-11
1.46949e-11
1.46947e-11
1.46946e-11
1.46945e-11
1.46945e-11
1.46944e-11
1.46944e-11
1.46943e-11
1.46943e-11
1.46943e-11
1.46943e-11
1.46943e-11
1.46943e-11
1.46943e-11
1.46943e-11
1.46943e-11
1.46943e-11
1.46943e-11
1.46943e-11
1.46944e-11
1.46944e-11
1.46945e-11
1.46945e-11
1.46946e-11
1.46947e-11
1.46949e-11
1.4695e-11
1.46953e-11
1.46956e-11
1.4696e-11
1.46965e-11
1.46971e-11
1.46978e-11
1.46987e-11
1.46998e-11
1.47011e-11
1.47027e-11
1.47045e-11
1.47066e-11
1.4709e-11
1.47117e-11
1.47148e-11
1.47182e-11
1.57016e-11
1.56981e-11
1.5695e-11
1.56923e-11
1.56898e-11
1.56877e-11
1.56859e-11
1.56844e-11
1.5683e-11
1.56819e-11
1.5681e-11
1.56803e-11
1.56797e-11
1.56792e-11
1.56788e-11
1.56785e-11
1.56782e-11
1.5678e-11
1.56779e-11
1.56778e-11
1.56777e-11
1.56776e-11
1.56776e-11
1.56775e-11
1.56775e-11
1.56775e-11
1.56775e-11
1.56775e-11
1.56775e-11
1.56775e-11
1.56775e-11
1.56775e-11
1.56775e-11
1.56775e-11
1.56775e-11
1.56775e-11
1.56775e-11
1.56776e-11
1.56776e-11
1.56777e-11
1.56778e-11
1.56779e-11
1.5678e-11
1.56782e-11
1.56785e-11
1.56788e-11
1.56792e-11
1.56797e-11
1.56803e-11
1.5681e-11
1.56819e-11
1.5683e-11
1.56844e-11
1.56859e-11
1.56877e-11
1.56898e-11
1.56923e-11
1.5695e-11
1.56981e-11
1.57016e-11
1.67755e-11
1.6772e-11
1.67689e-11
1.67661e-11
1.67637e-11
1.67616e-11
1.67597e-11
1.67582e-11
1.67568e-11
1.67557e-11
1.67548e-11
1.67541e-11
1.67534e-11
1.6753e-11
1.67526e-11
1.67522e-11
1.6752e-11
1.67518e-11
1.67517e-11
1.67515e-11
1.67515e-11
1.67514e-11
1.67513e-11
1.67513e-11
1.67513e-11
1.67513e-11
1.67513e-11
1.67512e-11
1.67512e-11
1.67512e-11
1.67512e-11
1.67512e-11
1.67512e-11
1.67513e-11
1.67513e-11
1.67513e-11
1.67513e-11
1.67513e-11
1.67514e-11
1.67515e-11
1.67515e-11
1.67517e-11
1.67518e-11
1.6752e-11
1.67522e-11
1.67526e-11
1.6753e-11
1.67534e-11
1.67541e-11
1.67548e-11
1.67557e-11
1.67568e-11
1.67582e-11
1.67597e-11
1.67616e-11
1.67637e-11
1.67661e-11
1.67689e-11
1.6772e-11
1.67755e-11
1.79495e-11
1.7946e-11
1.79428e-11
1.794e-11
1.79376e-11
1.79354e-11
1.79336e-11
1.7932e-11
1.79307e-11
1.79296e-11
1.79286e-11
1.79279e-11
1.79273e-11
1.79268e-11
1.79264e-11
1.7926e-11
1.79258e-11
1.79256e-11
1.79255e-11
1.79253e-11
1.79253e-11
1.79252e-11
1.79251e-11
1.79251e-11
1.79251e-11
1.79251e-11
1.7925e-11
1.7925e-11
1.7925e-11
1.7925e-11
1.7925e-11
1.7925e-11
1.7925e-11
1.7925e-11
1.79251e-11
1.79251e-11
1.79251e-11
1.79251e-11
1.79252e-11
1.79253e-11
1.79253e-11
1.79255e-11
1.79256e-11
1.79258e-11
1.7926e-11
1.79264e-11
1.79268e-11
1.79273e-11
1.79279e-11
1.79286e-11
1.79296e-11
1.79307e-11
1.7932e-11
1.79336e-11
1.79354e-11
1.79376e-11
1.794e-11
1.79428e-11
1.7946e-11
1.79495e-11
1.92341e-11
1.92306e-11
1.92274e-11
1.92246e-11
1.92221e-11
1.922e-11
1.92181e-11
1.92165e-11
1.92152e-11
1.92141e-11
1.92131e-11
1.92124e-11
1.92117e-11
1.92112e-11
1.92108e-11
1.92105e-11
1.92103e-11
1.92101e-11
1.92099e-11
1.92098e-11
1.92097e-11
1.92097e-11
1.92096e-11
1.92096e-11
1.92095e-11
1.92095e-11
1.92095e-11
1.92095e-11
1.92095e-11
1.92095e-11
1.92095e-11
1.92095e-11
1.92095e-11
1.92095e-11
1.92095e-11
1.92095e-11
1.92096e-11
1.92096e-11
1.92097e-11
1.92097e-11
1.92098e-11
1.92099e-11
1.92101e-11
1.92103e-11
1.92105e-11
1.92108e-11
1.92112e-11
1.92117e-11
1.92124e-11
1.92131e-11
1.92141e-11
1.92152e-11
1.92165e-11
1.92181e-11
1.922e-11
1.92221e-11
1.92246e-11
1.92274e-11
1.92306e-11
1.92341e-11
2.06414e-11
2.06378e-11
2.06347e-11
2.06318e-11
2.06293e-11
2.06272e-11
2.06253e-11
2.06237e-11
2.06224e-11
2.06212e-11
2.06203e-11
2.06195e-11
2.06189e-11
2.06184e-11
2.0618e-11
2.06177e-11
2.06174e-11
2.06172e-11
2.06171e-11
2.0617e-11
2.06169e-11
2.06168e-11
2.06168e-11
2.06167e-11
2.06167e-11
2.06167e-11
2.06167e-11
2.06166e-11
2.06166e-11
2.06166e-11
2.06166e-11
2.06166e-11
2.06166e-11
2.06167e-11
2.06167e-11
2.06167e-11
2.06167e-11
2.06168e-11
2.06168e-11
2.06169e-11
2.0617e-11
2.06171e-11
2.06172e-11
2.06174e-11
2.06177e-11
2.0618e-11
2.06184e-11
2.06189e-11
2.06195e-11
2.06203e-11
2.06212e-11
2.06224e-11
2.06237e-11
2.06253e-11
2.06272e-11
2.06293e-11
2.06318e-11
2.06347e-11
2.06378e-11
2.06414e-11
2.21849e-11
2.21813e-11
2.21781e-11
2.21753e-11
2.21728e-11
2.21706e-11
2.21687e-11
2.21671e-11
2.21658e-11
2.21646e-11
2.21637e-11
2.21629e-11
2.21623e-11
2.21618e-11
2.21614e-11
2.2161e-11
2.21608e-11
2.21606e-11
2.21604e-11
2.21603e-11
2.21602e-11
2.21602e-11
2.21601e-11
2.21601e-11
2.21601e-11
2.216e-11
2.216e-11
2.216e-11
2.216e-11
2.216e-11
2.216e-11
2.216e-11
2.216e-11
2.216e-11
2.216e-11
2.21601e-11
2.21601e-11
2.21601e-11
2.21602e-11
2.21602e-11
2.21603e-11
2.21604e-11
2.21606e-11
2.21608e-11
2.2161e-11
2.21614e-11
2.21618e-11
2.21623e-11
2.21629e-11
2.21637e-11
2.21646e-11
2.21658e-11
2.21671e-11
2.21687e-11
2.21706e-11
2.21728e-11
2.21753e-11
2.21781e-11
2.21813e-11
2.21849e-11
2.38799e-11
2.38763e-11
2.38731e-11
2.38703e-11
2.38678e-11
2.38656e-11
2.38637e-11
2.38621e-11
2.38607e-11
2.38596e-11
2.38586e-11
2.38579e-11
2.38572e-11
2.38567e-11
2.38563e-11
2.3856e-11
2.38557e-11
2.38555e-11
2.38554e-11
2.38553e-11
2.38552e-11
2.38551e-11
2.38551e-11
2.3855e-11
2.3855e-11
2.3855e-11
2.3855e-11
2.38549e-11
2.38549e-11
2.38549e-11
2.38549e-11
2.38549e-11
2.38549e-11
2.3855e-11
2.3855e-11
2.3855e-11
2.3855e-11
2.38551e-11
2.38551e-11
2.38552e-11
2.38553e-11
2.38554e-11
2.38555e-11
2.38557e-11
2.3856e-11
2.38563e-11
2.38567e-11
2.38572e-11
2.38579e-11
2.38586e-11
2.38596e-11
2.38607e-11
2.38621e-11
2.38637e-11
2.38656e-11
2.38678e-11
2.38703e-11
2.38731e-11
2.38763e-11
2.38799e-11
2.57439e-11
2.57403e-11
2.57371e-11
2.57343e-11
2.57317e-11
2.57295e-11
2.57277e-11
2.5726e-11
2.57247e-11
2.57235e-11
2.57226e-11
2.57218e-11
2.57211e-11
2.57206e-11
2.57202e-11
2.57199e-11
2.57196e-11
2.57194e-11
2.57193e-11
2.57192e-11
2.57191e-11
2.5719e-11
2.5719e-11
2.57189e-11
2.57189e-11
2.57189e-11
2.57189e-11
2.57189e-11
2.57188e-11
2.57188e-11
2.57188e-11
2.57188e-11
2.57189e-11
2.57189e-11
2.57189e-11
2.57189e-11
2.57189e-11
2.5719e-11
2.5719e-11
2.57191e-11
2.57192e-11
2.57193e-11
2.57194e-11
2.57196e-11
2.57199e-11
2.57202e-11
2.57206e-11
2.57211e-11
2.57218e-11
2.57226e-11
2.57235e-11
2.57247e-11
2.5726e-11
2.57277e-11
2.57295e-11
2.57317e-11
2.57343e-11
2.57371e-11
2.57403e-11
2.57439e-11
2.77967e-11
2.77931e-11
2.77899e-11
2.7787e-11
2.77845e-11
2.77823e-11
2.77804e-11
2.77787e-11
2.77774e-11
2.77762e-11
2.77753e-11
2.77745e-11
2.77738e-11
2.77733e-11
2.77729e-11
2.77726e-11
2.77723e-11
2.77721e-11
2.7772e-11
2.77719e-11
2.77718e-11
2.77717e-11
2.77716e-11
2.77716e-11
2.77716e-11
2.77716e-11
2.77715e-11
2.77715e-11
2.77715e-11
2.77715e-11
2.77715e-11
2.77715e-11
2.77715e-11
2.77715e-11
2.77716e-11
2.77716e-11
2.77716e-11
2.77716e-11
2.77717e-11
2.77718e-11
2.77719e-11
2.7772e-11
2.77721e-11
2.77723e-11
2.77726e-11
2.77729e-11
2.77733e-11
2.77738e-11
2.77745e-11
2.77753e-11
2.77762e-11
2.77774e-11
2.77787e-11
2.77804e-11
2.77823e-11
2.77845e-11
2.7787e-11
2.77899e-11
2.77931e-11
2.77967e-11
3.00608e-11
3.00571e-11
3.00539e-11
3.0051e-11
3.00485e-11
3.00463e-11
3.00444e-11
3.00428e-11
3.00414e-11
3.00402e-11
3.00393e-11
3.00385e-11
3.00378e-11
3.00373e-11
3.00369e-11
3.00366e-11
3.00363e-11
3.00361e-11
3.0036e-11
3.00358e-11
3.00358e-11
3.00357e-11
3.00356e-11
3.00356e-11
3.00356e-11
3.00355e-11
3.00355e-11
3.00355e-11
3.00355e-11
3.00355e-11
3.00355e-11
3.00355e-11
3.00355e-11
3.00355e-11
3.00355e-11
3.00356e-11
3.00356e-11
3.00356e-11
3.00357e-11
3.00358e-11
3.00358e-11
3.0036e-11
3.00361e-11
3.00363e-11
3.00366e-11
3.00369e-11
3.00373e-11
3.00378e-11
3.00385e-11
3.00393e-11
3.00402e-11
3.00414e-11
3.00428e-11
3.00444e-11
3.00463e-11
3.00485e-11
3.0051e-11
3.00539e-11
3.00571e-11
3.00608e-11
3.25619e-11
3.25583e-11
3.2555e-11
3.25521e-11
3.25496e-11
3.25474e-11
3.25455e-11
3.25439e-11
3.25425e-11
3.25413e-11
3.25404e-11
3.25396e-11
3.25389e-11
3.25384e-11
3.2538e-11
3.25377e-11
3.25374e-11
3.25372e-11
3.2537e-11
3.25369e-11
3.25368e-11
3.25368e-11
3.25367e-11
3.25367e-11
3.25366e-11
3.25366e-11
3.25366e-11
3.25366e-11
3.25366e-11
3.25366e-11
3.25366e-11
3.25366e-11
3.25366e-11
3.25366e-11
3.25366e-11
3.25366e-11
3.25367e-11
3.25367e-11
3.25368e-11
3.25368e-11
3.25369e-11
3.2537e-11
3.25372e-11
3.25374e-11
3.25377e-11
3.2538e-11
3.25384e-11
3.25389e-11
3.25396e-11
3.25404e-11
3.25413e-11
3.25425e-11
3.25439e-11
3.25455e-11
3.25474e-11
3.25496e-11
3.25521e-11
3.2555e-11
3.25583e-11
3.25619e-11
3.53296e-11
3.53259e-11
3.53227e-11
3.53198e-11
3.53173e-11
3.5315e-11
3.53131e-11
3.53115e-11
3.53101e-11
3.5309e-11
3.5308e-11
3.53072e-11
3.53066e-11
3.5306e-11
3.53056e-11
3.53053e-11
3.5305e-11
3.53048e-11
3.53047e-11
3.53046e-11
3.53045e-11
3.53044e-11
3.53043e-11
3.53043e-11
3.53043e-11
3.53042e-11
3.53042e-11
3.53042e-11
3.53042e-11
3.53042e-11
3.53042e-11
3.53042e-11
3.53042e-11
3.53042e-11
3.53042e-11
3.53043e-11
3.53043e-11
3.53043e-11
3.53044e-11
3.53045e-11
3.53046e-11
3.53047e-11
3.53048e-11
3.5305e-11
3.53053e-11
3.53056e-11
3.5306e-11
3.53066e-11
3.53072e-11
3.5308e-11
3.5309e-11
3.53101e-11
3.53115e-11
3.53131e-11
3.5315e-11
3.53173e-11
3.53198e-11
3.53227e-11
3.53259e-11
3.53296e-11
3.83976e-11
3.8394e-11
3.83907e-11
3.83878e-11
3.83853e-11
3.83831e-11
3.83812e-11
3.83795e-11
3.83781e-11
3.8377e-11
3.8376e-11
3.83752e-11
3.83746e-11
3.83741e-11
3.83736e-11
3.83733e-11
3.83731e-11
3.83728e-11
3.83727e-11
3.83726e-11
3.83725e-11
3.83724e-11
3.83724e-11
3.83723e-11
3.83723e-11
3.83723e-11
3.83722e-11
3.83722e-11
3.83722e-11
3.83722e-11
3.83722e-11
3.83722e-11
3.83722e-11
3.83722e-11
3.83723e-11
3.83723e-11
3.83723e-11
3.83724e-11
3.83724e-11
3.83725e-11
3.83726e-11
3.83727e-11
3.83728e-11
3.83731e-11
3.83733e-11
3.83736e-11
3.83741e-11
3.83746e-11
3.83752e-11
3.8376e-11
3.8377e-11
3.83781e-11
3.83795e-11
3.83812e-11
3.83831e-11
3.83853e-11
3.83878e-11
3.83907e-11
3.8394e-11
3.83976e-11
4.18049e-11
4.18013e-11
4.17981e-11
4.17952e-11
4.17926e-11
4.17904e-11
4.17885e-11
4.17869e-11
4.17855e-11
4.17843e-11
4.17833e-11
4.17825e-11
4.17819e-11
4.17814e-11
4.1781e-11
4.17806e-11
4.17804e-11
4.17802e-11
4.178e-11
4.17799e-11
4.17798e-11
4.17797e-11
4.17797e-11
4.17796e-11
4.17796e-11
4.17796e-11
4.17796e-11
4.17795e-11
4.17795e-11
4.17795e-11
4.17795e-11
4.17795e-11
4.17795e-11
4.17796e-11
4.17796e-11
4.17796e-11
4.17796e-11
4.17797e-11
4.17797e-11
4.17798e-11
4.17799e-11
4.178e-11
4.17802e-11
4.17804e-11
4.17806e-11
4.1781e-11
4.17814e-11
4.17819e-11
4.17825e-11
4.17833e-11
4.17843e-11
4.17855e-11
4.17869e-11
4.17885e-11
4.17904e-11
4.17926e-11
4.17952e-11
4.17981e-11
4.18013e-11
4.18049e-11
4.55964e-11
4.55928e-11
4.55895e-11
4.55866e-11
4.55841e-11
4.55819e-11
4.558e-11
4.55783e-11
4.55769e-11
4.55758e-11
4.55748e-11
4.5574e-11
4.55734e-11
4.55728e-11
4.55724e-11
4.55721e-11
4.55718e-11
4.55716e-11
4.55715e-11
4.55713e-11
4.55713e-11
4.55712e-11
4.55711e-11
4.55711e-11
4.55711e-11
4.5571e-11
4.5571e-11
4.5571e-11
4.5571e-11
4.5571e-11
4.5571e-11
4.5571e-11
4.5571e-11
4.5571e-11
4.5571e-11
4.55711e-11
4.55711e-11
4.55711e-11
4.55712e-11
4.55713e-11
4.55713e-11
4.55715e-11
4.55716e-11
4.55718e-11
4.55721e-11
4.55724e-11
4.55728e-11
4.55734e-11
4.5574e-11
4.55748e-11
4.55758e-11
4.55769e-11
4.55783e-11
4.558e-11
4.55819e-11
4.55841e-11
4.55866e-11
4.55895e-11
4.55928e-11
4.55964e-11
4.98239e-11
4.98202e-11
4.9817e-11
4.98141e-11
4.98116e-11
4.98094e-11
4.98074e-11
4.98058e-11
4.98044e-11
4.98033e-11
4.98023e-11
4.98015e-11
4.98008e-11
4.98003e-11
4.97999e-11
4.97996e-11
4.97993e-11
4.97991e-11
4.97989e-11
4.97988e-11
4.97987e-11
4.97987e-11
4.97986e-11
4.97986e-11
4.97985e-11
4.97985e-11
4.97985e-11
4.97985e-11
4.97985e-11
4.97985e-11
4.97985e-11
4.97985e-11
4.97985e-11
4.97985e-11
4.97985e-11
4.97985e-11
4.97986e-11
4.97986e-11
4.97987e-11
4.97987e-11
4.97988e-11
4.97989e-11
4.97991e-11
4.97993e-11
4.97996e-11
4.97999e-11
4.98003e-11
4.98008e-11
4.98015e-11
4.98023e-11
4.98033e-11
4.98044e-11
4.98058e-11
4.98074e-11
4.98094e-11
4.98116e-11
4.98141e-11
4.9817e-11
4.98202e-11
4.98239e-11
5.45474e-11
5.45438e-11
5.45406e-11
5.45377e-11
5.45351e-11
5.45329e-11
5.4531e-11
5.45294e-11
5.4528e-11
5.45268e-11
5.45259e-11
5.45251e-11
5.45244e-11
5.45239e-11
5.45235e-11
5.45232e-11
5.45229e-11
5.45227e-11
5.45225e-11
5.45224e-11
5.45223e-11
5.45222e-11
5.45222e-11
5.45221e-11
5.45221e-11
5.45221e-11
5.45221e-11
5.45221e-11
5.45221e-11
5.45221e-11
5.45221e-11
5.45221e-11
5.45221e-11
5.45221e-11
5.45221e-11
5.45221e-11
5.45221e-11
5.45222e-11
5.45222e-11
5.45223e-11
5.45224e-11
5.45225e-11
5.45227e-11
5.45229e-11
5.45232e-11
5.45235e-11
5.45239e-11
5.45244e-11
5.45251e-11
5.45259e-11
5.45268e-11
5.4528e-11
5.45294e-11
5.4531e-11
5.45329e-11
5.45351e-11