/*--------------------------------*- C++ -*----------------------------------*\
| =========                 |                                                 |
| \\      /  F ield         | foam-extend: Open Source CFD                    |
|  \\    /   O peration     | Version:     4.0                                |
|   \\  /    A nd           | Web:         http://www.foam-extend.org         |
|    \\/     M anipulation  |                                                 |
\*---------------------------------------------------------------------------*/
FoamFile
{
    version     2.0;
    format      ascii;
    class       volScalarField;
    location    "25";
    object      p;
}
// * * * * * * * * * * * * * * * * * * * * * * * * * * * * * * * * * * * * * //

dimensions      [0 2 -2 0 0 0 0];

internalField   nonuniform List<scalar> 
6960
(
5.846e-23
8.83387e-23
8.70928e-23
8.71054e-23
8.67321e-23
8.69595e-23
8.67596e-23
8.67489e-23
8.64965e-23
8.63152e-23
8.60568e-23
8.58883e-23
8.57827e-23
8.57676e-23
8.57398e-23
8.56547e-23
8.54923e-23
8.53287e-23
8.52397e-23
8.52715e-23
8.53967e-23
8.55584e-23
8.56985e-23
8.57853e-23
8.58054e-23
8.57598e-23
8.56554e-23
8.5517e-23
8.53918e-23
8.53332e-23
8.53747e-23
8.55024e-23
8.56596e-23
8.57754e-23
8.58033e-23
8.57347e-23
8.55957e-23
8.54323e-23
8.52944e-23
8.5226e-23
8.52485e-23
8.53507e-23
8.54868e-23
8.55987e-23
8.56505e-23
8.56577e-23
8.56723e-23
8.57497e-23
8.59067e-23
8.6123e-23
8.63562e-23
8.65703e-23
8.67546e-23
8.68874e-23
8.6993e-23
8.70253e-23
8.69895e-23
8.70456e-23
8.67019e-23
8.71945e-23
8.25569e-23
8.75835e-23
8.63429e-23
8.63553e-23
8.59537e-23
8.61588e-23
8.59449e-23
8.59358e-23
8.56925e-23
8.552e-23
8.52722e-23
8.51236e-23
8.50426e-23
8.50386e-23
8.49921e-23
8.48672e-23
8.46723e-23
8.45047e-23
8.44371e-23
8.44949e-23
8.46312e-23
8.47867e-23
8.49144e-23
8.49961e-23
8.50252e-23
8.49973e-23
8.49124e-23
8.47914e-23
8.468e-23
8.4631e-23
8.46751e-23
8.47988e-23
8.49488e-23
8.50554e-23
8.50687e-23
8.49823e-23
8.48317e-23
8.46725e-23
8.45527e-23
8.44965e-23
8.45057e-23
8.45695e-23
8.46683e-23
8.47733e-23
8.48548e-23
8.4901e-23
8.49322e-23
8.49943e-23
8.5123e-23
8.53203e-23
8.55484e-23
8.57635e-23
8.59468e-23
8.60808e-23
8.62007e-23
8.62629e-23
8.62742e-23
8.63681e-23
8.60503e-23
8.65713e-23
8.64079e-23
8.71454e-23
8.59109e-23
8.59125e-23
8.54958e-23
8.56982e-23
8.54959e-23
8.55148e-23
8.53091e-23
8.51757e-23
8.49625e-23
8.48401e-23
8.47692e-23
8.47547e-23
8.46822e-23
8.45313e-23
8.43269e-23
8.41704e-23
8.41244e-23
8.4197e-23
8.43304e-23
8.4466e-23
8.45698e-23
8.46368e-23
8.46649e-23
8.46445e-23
8.45688e-23
8.44555e-23
8.43485e-23
8.43012e-23
8.43436e-23
8.44631e-23
8.46061e-23
8.47037e-23
8.47066e-23
8.46143e-23
8.44699e-23
8.43324e-23
8.42424e-23
8.4209e-23
8.42218e-23
8.42683e-23
8.4341e-23
8.44294e-23
8.45175e-23
8.45898e-23
8.46483e-23
8.47183e-23
8.48295e-23
8.49922e-23
8.5182e-23
8.53628e-23
8.55181e-23
8.56312e-23
8.5741e-23
8.58066e-23
8.58386e-23
8.59594e-23
8.56726e-23
8.62181e-23
8.47833e-23
8.67189e-23
8.54936e-23
8.54903e-23
8.50723e-23
8.5287e-23
8.51065e-23
8.51608e-23
8.50057e-23
8.49326e-23
8.47737e-23
8.46817e-23
8.46065e-23
8.45618e-23
8.44571e-23
8.42927e-23
8.40987e-23
8.39657e-23
8.3941e-23
8.40204e-23
8.41424e-23
8.4252e-23
8.43242e-23
8.43637e-23
8.4375e-23
8.43505e-23
8.42803e-23
8.41763e-23
8.40762e-23
8.40309e-23
8.40695e-23
8.41791e-23
8.43065e-23
8.4389e-23
8.43872e-23
8.43072e-23
8.41909e-23
8.40891e-23
8.40329e-23
8.40243e-23
8.4049e-23
8.4091e-23
8.41436e-23
8.42064e-23
8.42816e-23
8.43671e-23
8.44584e-23
8.45543e-23
8.46594e-23
8.47792e-23
8.49072e-23
8.50298e-23
8.51437e-23
8.52322e-23
8.53279e-23
8.5385e-23
8.54173e-23
8.55449e-23
8.52839e-23
8.58542e-23
8.41024e-23
8.62618e-23
8.50508e-23
8.5057e-23
8.46556e-23
8.48959e-23
8.47416e-23
8.48289e-23
8.47223e-23
8.47095e-23
8.46026e-23
8.45318e-23
8.44414e-23
8.43631e-23
8.4235e-23
8.40739e-23
8.3906e-23
8.38044e-23
8.37997e-23
8.38797e-23
8.39848e-23
8.40662e-23
8.41039e-23
8.41091e-23
8.40944e-23
8.40586e-23
8.39917e-23
8.38983e-23
8.38075e-23
8.37642e-23
8.37953e-23
8.3889e-23
8.39967e-23
8.40651e-23
8.40663e-23
8.401e-23
8.39325e-23
8.38724e-23
8.38516e-23
8.3869e-23
8.39082e-23
8.39505e-23
8.39866e-23
8.40229e-23
8.40755e-23
8.41566e-23
8.42638e-23
8.43805e-23
8.44879e-23
8.45789e-23
8.46545e-23
8.47208e-23
8.47902e-23
8.48492e-23
8.49242e-23
8.49641e-23
8.49855e-23
8.51037e-23
8.48543e-23
8.54372e-23
8.41157e-23
8.57737e-23
8.45903e-23
8.46224e-23
8.42481e-23
8.45182e-23
8.43892e-23
8.45043e-23
8.44349e-23
8.44631e-23
8.4385e-23
8.43192e-23
8.42139e-23
8.4119e-23
8.39898e-23
8.38489e-23
8.37137e-23
8.36427e-23
8.36531e-23
8.37291e-23
8.38148e-23
8.38682e-23
8.38731e-23
8.38453e-23
8.38028e-23
8.37506e-23
8.36808e-23
8.35936e-23
8.35111e-23
8.34686e-23
8.34889e-23
8.35635e-23
8.36543e-23
8.37176e-23
8.37314e-23
8.37034e-23
8.36642e-23
8.36445e-23
8.36599e-23
8.3705e-23
8.37592e-23
8.3802e-23
8.38251e-23
8.38402e-23
8.38695e-23
8.39312e-23
8.40272e-23
8.41418e-23
8.42494e-23
8.43324e-23
8.4385e-23
8.44174e-23
8.44502e-23
8.44769e-23
8.45243e-23
8.45415e-23
8.45479e-23
8.46458e-23
8.43908e-23
8.49667e-23
8.41088e-23
8.52268e-23
8.40848e-23
8.41535e-23
8.38045e-23
8.40959e-23
8.39844e-23
8.41185e-23
8.40694e-23
8.4111e-23
8.40343e-23
8.39619e-23
8.38536e-23
8.37694e-23
8.36658e-23
8.35591e-23
8.34565e-23
8.34078e-23
8.34254e-23
8.3494e-23
8.35608e-23
8.35886e-23
8.35654e-23
8.351e-23
8.34428e-23
8.3371e-23
8.32907e-23
8.32027e-23
8.31239e-23
8.30802e-23
8.30898e-23
8.3148e-23
8.3228e-23
8.3295e-23
8.33277e-23
8.33286e-23
8.33233e-23
8.33394e-23
8.3389e-23
8.34611e-23
8.35297e-23
8.35741e-23
8.35892e-23
8.35893e-23
8.3596e-23
8.36272e-23
8.36897e-23
8.3778e-23
8.3874e-23
8.39585e-23
8.40144e-23
8.40415e-23
8.40556e-23
8.40561e-23
8.40764e-23
8.40713e-23
8.40635e-23
8.41355e-23
8.38666e-23
8.44235e-23
8.39577e-23
8.45799e-23
8.34793e-23
8.35837e-23
8.32482e-23
8.35454e-23
8.34378e-23
8.35769e-23
8.35301e-23
8.35651e-23
8.34764e-23
8.33991e-23
8.3304e-23
8.32538e-23
8.31961e-23
8.31335e-23
8.30608e-23
8.30236e-23
8.30379e-23
8.30947e-23
8.31454e-23
8.31541e-23
8.3111e-23
8.30354e-23
8.2948e-23
8.28579e-23
8.2764e-23
8.26695e-23
8.25881e-23
8.25409e-23
8.25432e-23
8.25928e-23
8.26689e-23
8.27423e-23
8.27925e-23
8.28194e-23
8.28438e-23
8.28903e-23
8.29672e-23
8.30596e-23
8.31409e-23
8.31913e-23
8.32062e-23
8.31962e-23
8.31789e-23
8.31726e-23
8.31908e-23
8.32388e-23
8.33094e-23
8.33888e-23
8.34548e-23
8.3494e-23
8.35094e-23
8.34994e-23
8.35028e-23
8.34823e-23
8.34644e-23
8.35127e-23
8.32371e-23
8.37776e-23
8.37033e-23
8.38035e-23
8.2726e-23
8.28519e-23
8.2514e-23
8.2802e-23
8.26826e-23
8.28094e-23
8.27518e-23
8.27778e-23
8.26867e-23
8.26193e-23
8.25509e-23
8.25438e-23
8.25384e-23
8.25225e-23
8.24767e-23
8.24425e-23
8.24442e-23
8.24847e-23
8.25225e-23
8.25216e-23
8.24688e-23
8.23808e-23
8.22791e-23
8.21757e-23
8.20711e-23
8.19688e-23
8.18816e-23
8.18301e-23
8.18293e-23
8.18773e-23
8.19531e-23
8.20304e-23
8.20917e-23
8.21391e-23
8.21892e-23
8.2259e-23
8.23517e-23
8.24541e-23
8.25453e-23
8.2607e-23
8.26291e-23
8.26128e-23
8.25712e-23
8.25269e-23
8.25017e-23
8.25082e-23
8.25442e-23
8.26015e-23
8.26632e-23
8.27125e-23
8.27419e-23
8.27399e-23
8.27425e-23
8.27178e-23
8.26987e-23
8.27332e-23
8.24706e-23
8.30029e-23
8.33579e-23
8.28887e-23
8.18045e-23
8.19315e-23
8.15763e-23
8.18431e-23
8.16988e-23
8.18008e-23
8.17302e-23
8.17606e-23
8.16906e-23
8.16536e-23
8.16208e-23
8.16534e-23
8.16915e-23
8.1714e-23
8.16898e-23
8.1656e-23
8.16429e-23
8.16662e-23
8.16937e-23
8.169e-23
8.16359e-23
8.15436e-23
8.14355e-23
8.1327e-23
8.12192e-23
8.11139e-23
8.10236e-23
8.09699e-23
8.09683e-23
8.10155e-23
8.10897e-23
8.11663e-23
8.12322e-23
8.12927e-23
8.13603e-23
8.14438e-23
8.15417e-23
8.1646e-23
8.17431e-23
8.18161e-23
8.18471e-23
8.18279e-23
8.1768e-23
8.16945e-23
8.16354e-23
8.16055e-23
8.16022e-23
8.16208e-23
8.16558e-23
8.16995e-23
8.17414e-23
8.17577e-23
8.17725e-23
8.17565e-23
8.17502e-23
8.17867e-23
8.15611e-23
8.20876e-23
8.29161e-23
8.185e-23
8.07333e-23
8.08467e-23
8.04629e-23
8.06988e-23
8.05221e-23
8.05988e-23
8.05259e-23
8.05809e-23
8.05541e-23
8.05632e-23
8.05691e-23
8.06319e-23
8.06948e-23
8.07385e-23
8.07279e-23
8.06967e-23
8.06755e-23
8.06864e-23
8.07047e-23
8.06987e-23
8.06471e-23
8.0559e-23
8.04554e-23
8.03521e-23
8.02507e-23
8.01516e-23
8.00666e-23
8.00155e-23
8.00124e-23
8.0054e-23
8.01212e-23
8.01927e-23
8.02583e-23
8.03225e-23
8.03944e-23
8.04797e-23
8.05766e-23
8.068e-23
8.07788e-23
8.08562e-23
8.08912e-23
8.08721e-23
8.0806e-23
8.07194e-23
8.06391e-23
8.05788e-23
8.0535e-23
8.05071e-23
8.05007e-23
8.0521e-23
8.05608e-23
8.05903e-23
8.06214e-23
8.06249e-23
8.06462e-23
8.07004e-23
8.05325e-23
8.10449e-23
8.23854e-23
8.07286e-23
7.95704e-23
7.96692e-23
7.92517e-23
7.94492e-23
7.92393e-23
7.93018e-23
7.92457e-23
7.93428e-23
7.93691e-23
7.94271e-23
7.94673e-23
7.95485e-23
7.96179e-23
7.96647e-23
7.96593e-23
7.9634e-23
7.96141e-23
7.96196e-23
7.9629e-23
7.96182e-23
7.95707e-23
7.94952e-23
7.9408e-23
7.93208e-23
7.92353e-23
7.91523e-23
7.90814e-23
7.90372e-23
7.90315e-23
7.90626e-23
7.91177e-23
7.91798e-23
7.92395e-23
7.92967e-23
7.9359e-23
7.94351e-23
7.95268e-23
7.96284e-23
7.97249e-23
7.97983e-23
7.9831e-23
7.98142e-23
7.97538e-23
7.96695e-23
7.95802e-23
7.94964e-23
7.94167e-23
7.93468e-23
7.92978e-23
7.9283e-23
7.93011e-23
7.93276e-23
7.93704e-23
7.93987e-23
7.94555e-23
7.95345e-23
7.94351e-23
7.99185e-23
8.17909e-23
7.9588e-23
7.83969e-23
7.84938e-23
7.80461e-23
7.82041e-23
7.7966e-23
7.80291e-23
7.80072e-23
7.81552e-23
7.82309e-23
7.83265e-23
7.8388e-23
7.84752e-23
7.85396e-23
7.85798e-23
7.85744e-23
7.85557e-23
7.85413e-23
7.85447e-23
7.85463e-23
7.85308e-23
7.84908e-23
7.84352e-23
7.83742e-23
7.8313e-23
7.82514e-23
7.81906e-23
7.81376e-23
7.81028e-23
7.80953e-23
7.8116e-23
7.81571e-23
7.82056e-23
7.8251e-23
7.82911e-23
7.83341e-23
7.8393e-23
7.84741e-23
7.85698e-23
7.86611e-23
7.87273e-23
7.87555e-23
7.87419e-23
7.86923e-23
7.86181e-23
7.8529e-23
7.84317e-23
7.83294e-23
7.82317e-23
7.81492e-23
7.80962e-23
7.80785e-23
7.80869e-23
7.8133e-23
7.81825e-23
7.82698e-23
7.83675e-23
7.83351e-23
7.87717e-23
8.11668e-23
7.84986e-23
7.72926e-23
7.74063e-23
7.69425e-23
7.70709e-23
7.68149e-23
7.68885e-23
7.69061e-23
7.71011e-23
7.72123e-23
7.73265e-23
7.7392e-23
7.74741e-23
7.75296e-23
7.75626e-23
7.75561e-23
7.75406e-23
7.75285e-23
7.75289e-23
7.75256e-23
7.75108e-23
7.74839e-23
7.74535e-23
7.74244e-23
7.73955e-23
7.73624e-23
7.73248e-23
7.72884e-23
7.72631e-23
7.72571e-23
7.72721e-23
7.73011e-23
7.73321e-23
7.73552e-23
7.73707e-23
7.73895e-23
7.74267e-23
7.74902e-23
7.75734e-23
7.76568e-23
7.77178e-23
7.77439e-23
7.77331e-23
7.76922e-23
7.76279e-23
7.75451e-23
7.74479e-23
7.73417e-23
7.72343e-23
7.71317e-23
7.70465e-23
7.69932e-23
7.69781e-23
7.70183e-23
7.7076e-23
7.71766e-23
7.72769e-23
7.7298e-23
7.76689e-23
8.05445e-23
7.75191e-23
7.63159e-23
7.6464e-23
7.60055e-23
7.61247e-23
7.58644e-23
7.59499e-23
7.59971e-23
7.62221e-23
7.635e-23
7.64645e-23
7.65203e-23
7.65895e-23
7.66355e-23
7.66634e-23
7.66552e-23
7.66381e-23
7.6623e-23
7.66194e-23
7.66159e-23
7.66093e-23
7.66011e-23
7.65986e-23
7.66023e-23
7.66064e-23
7.66013e-23
7.65848e-23
7.65624e-23
7.65465e-23
7.65454e-23
7.65594e-23
7.65785e-23
7.65906e-23
7.65885e-23
7.65769e-23
7.65695e-23
7.65821e-23
7.66231e-23
7.66883e-23
7.6761e-23
7.6818e-23
7.68438e-23
7.68355e-23
7.67998e-23
7.67434e-23
7.66711e-23
7.65862e-23
7.6492e-23
7.6391e-23
7.62836e-23
7.61819e-23
7.61066e-23
7.60728e-23
7.60988e-23
7.61468e-23
7.62384e-23
7.6321e-23
7.63751e-23
7.66613e-23
7.99434e-23
7.66803e-23
7.54938e-23
7.56903e-23
7.52591e-23
7.53919e-23
7.51398e-23
7.5232e-23
7.5289e-23
7.55196e-23
7.56448e-23
7.57481e-23
7.57885e-23
7.58419e-23
7.5876e-23
7.58964e-23
7.58836e-23
7.58623e-23
7.58435e-23
7.58388e-23
7.58406e-23
7.58477e-23
7.5861e-23
7.58855e-23
7.59182e-23
7.59497e-23
7.59679e-23
7.597e-23
7.59618e-23
7.59563e-23
7.59612e-23
7.59742e-23
7.59838e-23
7.59791e-23
7.59555e-23
7.59199e-23
7.58872e-23
7.58742e-23
7.58915e-23
7.59367e-23
7.59946e-23
7.60434e-23
7.60666e-23
7.60606e-23
7.60308e-23
7.59844e-23
7.59263e-23
7.58593e-23
7.57845e-23
7.57009e-23
7.56057e-23
7.55099e-23
7.54325e-23
7.53888e-23
7.53948e-23
7.54172e-23
7.54807e-23
7.55278e-23
7.55927e-23
7.57798e-23
7.93676e-23
7.59793e-23
7.48222e-23
7.50779e-23
7.46891e-23
7.48499e-23
7.46118e-23
7.47027e-23
7.47501e-23
7.49645e-23
7.50725e-23
7.51598e-23
7.51848e-23
7.52215e-23
7.52383e-23
7.52443e-23
7.52225e-23
7.51982e-23
7.5181e-23
7.51822e-23
7.51948e-23
7.52182e-23
7.52519e-23
7.52982e-23
7.53513e-23
7.54008e-23
7.54361e-23
7.54552e-23
7.54632e-23
7.54694e-23
7.54786e-23
7.54872e-23
7.54865e-23
7.54686e-23
7.54308e-23
7.53786e-23
7.53261e-23
7.52911e-23
7.52864e-23
7.53103e-23
7.53479e-23
7.53807e-23
7.5396e-23
7.53923e-23
7.5373e-23
7.53421e-23
7.53008e-23
7.52513e-23
7.51959e-23
7.51365e-23
7.50695e-23
7.50002e-23
7.49376e-23
7.48919e-23
7.48769e-23
7.48668e-23
7.48918e-23
7.48918e-23
7.49492e-23
7.50307e-23
7.88086e-23
7.53865e-23
7.42712e-23
7.45926e-23
7.42501e-23
7.44392e-23
7.42115e-23
7.42931e-23
7.43201e-23
7.45082e-23
7.4593e-23
7.46628e-23
7.46716e-23
7.4689e-23
7.46831e-23
7.46698e-23
7.46378e-23
7.46141e-23
7.46052e-23
7.46188e-23
7.46467e-23
7.46873e-23
7.47376e-23
7.47971e-23
7.48595e-23
7.49173e-23
7.49638e-23
7.49981e-23
7.50224e-23
7.50397e-23
7.50507e-23
7.50526e-23
7.50416e-23
7.50138e-23
7.4968e-23
7.49084e-23
7.48466e-23
7.47979e-23
7.47739e-23
7.47737e-23
7.47856e-23
7.47968e-23
7.48009e-23
7.47994e-23
7.47933e-23
7.47804e-23
7.47564e-23
7.47229e-23
7.46868e-23
7.46558e-23
7.46252e-23
7.45925e-23
7.45534e-23
7.45124e-23
7.44814e-23
7.44417e-23
7.44288e-23
7.43794e-23
7.44179e-23
7.43947e-23
7.82517e-23
7.48594e-23
7.37927e-23
7.41782e-23
7.38746e-23
7.40818e-23
7.38547e-23
7.39208e-23
7.39262e-23
7.40908e-23
7.41552e-23
7.42064e-23
7.41942e-23
7.41874e-23
7.41578e-23
7.41279e-23
7.409e-23
7.40704e-23
7.40722e-23
7.4101e-23
7.41464e-23
7.42035e-23
7.42656e-23
7.43295e-23
7.43918e-23
7.44499e-23
7.4502e-23
7.45469e-23
7.45831e-23
7.46084e-23
7.46202e-23
7.46169e-23
7.45977e-23
7.45625e-23
7.4513e-23
7.44545e-23
7.43947e-23
7.43419e-23
7.43021e-23
7.42759e-23
7.42598e-23
7.42494e-23
7.42435e-23
7.42431e-23
7.42463e-23
7.42466e-23
7.42379e-23
7.42226e-23
7.42096e-23
7.42074e-23
7.42102e-23
7.42105e-23
7.41959e-23
7.41662e-23
7.41291e-23
7.40705e-23
7.40293e-23
7.39381e-23
7.39555e-23
7.38339e-23
7.76819e-23
7.43546e-23
7.33301e-23
7.37662e-23
7.34874e-23
7.37001e-23
7.34645e-23
7.35119e-23
7.35002e-23
7.365e-23
7.37002e-23
7.37323e-23
7.36946e-23
7.36613e-23
7.36128e-23
7.35751e-23
7.35386e-23
7.35251e-23
7.35361e-23
7.35778e-23
7.36389e-23
7.37099e-23
7.37792e-23
7.38421e-23
7.38984e-23
7.39511e-23
7.40018e-23
7.40499e-23
7.40907e-23
7.41199e-23
7.41331e-23
7.41278e-23
7.4104e-23
7.40646e-23
7.40158e-23
7.39644e-23
7.39137e-23
7.38633e-23
7.38125e-23
7.37641e-23
7.37241e-23
7.36971e-23
7.36841e-23
7.36816e-23
7.36846e-23
7.36884e-23
7.36921e-23
7.36992e-23
7.37132e-23
7.37357e-23
7.37598e-23
7.37812e-23
7.37877e-23
7.37751e-23
7.37434e-23
7.36796e-23
7.36255e-23
7.35075e-23
7.35118e-23
7.33054e-23
7.70883e-23
7.38349e-23
7.28304e-23
7.32936e-23
7.30233e-23
7.32333e-23
7.29865e-23
7.30164e-23
7.29917e-23
7.31322e-23
7.31725e-23
7.3188e-23
7.31277e-23
7.30734e-23
7.30141e-23
7.29772e-23
7.29475e-23
7.29413e-23
7.29591e-23
7.30093e-23
7.30805e-23
7.31599e-23
7.32322e-23
7.32915e-23
7.33387e-23
7.33811e-23
7.34235e-23
7.34668e-23
7.35065e-23
7.35369e-23
7.35513e-23
7.35455e-23
7.35199e-23
7.34809e-23
7.3438e-23
7.33974e-23
7.33577e-23
7.33124e-23
7.32574e-23
7.31973e-23
7.31438e-23
7.31067e-23
7.30868e-23
7.30769e-23
7.3071e-23
7.30711e-23
7.3084e-23
7.31128e-23
7.31506e-23
7.31889e-23
7.32214e-23
7.32525e-23
7.3275e-23
7.32824e-23
7.32651e-23
7.32095e-23
7.31588e-23
7.30327e-23
7.30405e-23
7.27731e-23
7.64672e-23
7.32737e-23
7.22586e-23
7.2722e-23
7.24457e-23
7.265e-23
7.23959e-23
7.24125e-23
7.23762e-23
7.25061e-23
7.25375e-23
7.25431e-23
7.24728e-23
7.24109e-23
7.23495e-23
7.23164e-23
7.22939e-23
7.22958e-23
7.23206e-23
7.23764e-23
7.24511e-23
7.2532e-23
7.2602e-23
7.26539e-23
7.2689e-23
7.27169e-23
7.27463e-23
7.27814e-23
7.28183e-23
7.28483e-23
7.28618e-23
7.28534e-23
7.28268e-23
7.27919e-23
7.27592e-23
7.27317e-23
7.27039e-23
7.26665e-23
7.26158e-23
7.2557e-23
7.25014e-23
7.24585e-23
7.24285e-23
7.24062e-23
7.23888e-23
7.23844e-23
7.24023e-23
7.2443e-23
7.24918e-23
7.25352e-23
7.25687e-23
7.26035e-23
7.26366e-23
7.26622e-23
7.2664e-23
7.26267e-23
7.25939e-23
7.24777e-23
7.25106e-23
7.22139e-23
7.5824e-23
7.26605e-23
7.1608e-23
7.20505e-23
7.17571e-23
7.19548e-23
7.16986e-23
7.17067e-23
7.16584e-23
7.1774e-23
7.17966e-23
7.18022e-23
7.17386e-23
7.16846e-23
7.16275e-23
7.15967e-23
7.15788e-23
7.15894e-23
7.16239e-23
7.16855e-23
7.17601e-23
7.18355e-23
7.18949e-23
7.19322e-23
7.19502e-23
7.19614e-23
7.19787e-23
7.20076e-23
7.20429e-23
7.20712e-23
7.20799e-23
7.20656e-23
7.20366e-23
7.20061e-23
7.19846e-23
7.19719e-23
7.19596e-23
7.19371e-23
7.18999e-23
7.1852e-23
7.18005e-23
7.17521e-23
7.17092e-23
7.16733e-23
7.1648e-23
7.16415e-23
7.16582e-23
7.16949e-23
7.17379e-23
7.17771e-23
7.18095e-23
7.18467e-23
7.18858e-23
7.19245e-23
7.19448e-23
7.19316e-23
7.19281e-23
7.18367e-23
7.19137e-23
7.16192e-23
7.51769e-23
7.20072e-23
7.09034e-23
7.13149e-23
7.09974e-23
7.1186e-23
7.09295e-23
7.09317e-23
7.08722e-23
7.09734e-23
7.09902e-23
7.10046e-23
7.09601e-23
7.09242e-23
7.08757e-23
7.08464e-23
7.08315e-23
7.08514e-23
7.08985e-23
7.09686e-23
7.1042e-23
7.11054e-23
7.11446e-23
7.11584e-23
7.11547e-23
7.11504e-23
7.11601e-23
7.11873e-23
7.12221e-23
7.12466e-23
7.12477e-23
7.12252e-23
7.11915e-23
7.11626e-23
7.11501e-23
7.11535e-23
7.1163e-23
7.11645e-23
7.11493e-23
7.11158e-23
7.1068e-23
7.10125e-23
7.09572e-23
7.09113e-23
7.08821e-23
7.0873e-23
7.08809e-23
7.09009e-23
7.09262e-23
7.09545e-23
7.09845e-23
7.10236e-23
7.10653e-23
7.11114e-23
7.11468e-23
7.11596e-23
7.11922e-23
7.11348e-23
7.12671e-23
7.09982e-23
7.45573e-23
7.13498e-23
7.01943e-23
7.05743e-23
7.02304e-23
7.04062e-23
7.0147e-23
7.01437e-23
7.00764e-23
7.01683e-23
7.01849e-23
7.02127e-23
7.01907e-23
7.01756e-23
7.01391e-23
7.01145e-23
7.01048e-23
7.01354e-23
7.01963e-23
7.02757e-23
7.03463e-23
7.03923e-23
7.04045e-23
7.03899e-23
7.03643e-23
7.03479e-23
7.03542e-23
7.03816e-23
7.04146e-23
7.04333e-23
7.04259e-23
7.03951e-23
7.03555e-23
7.0326e-23
7.03206e-23
7.03409e-23
7.03759e-23
7.04071e-23
7.04175e-23
7.03987e-23
7.03526e-23
7.029e-23
7.02259e-23
7.01738e-23
7.01404e-23
7.01235e-23
7.01168e-23
7.01159e-23
7.01205e-23
7.01346e-23
7.01587e-23
7.01968e-23
7.02385e-23
7.02886e-23
7.03361e-23
7.03738e-23
7.04434e-23
7.04219e-23
7.06111e-23
7.03814e-23
7.40063e-23
7.07434e-23
6.95427e-23
6.98956e-23
6.95271e-23
6.96879e-23
6.94238e-23
6.94151e-23
6.93438e-23
6.94326e-23
6.94531e-23
6.94941e-23
6.94922e-23
6.9497e-23
6.94761e-23
6.94627e-23
6.94636e-23
6.95063e-23
6.95789e-23
6.96631e-23
6.97263e-23
6.97524e-23
6.97386e-23
6.96997e-23
6.96569e-23
6.96316e-23
6.96341e-23
6.96586e-23
6.96869e-23
6.96988e-23
6.96836e-23
6.96456e-23
6.96017e-23
6.95733e-23
6.95764e-23
6.96136e-23
6.96719e-23
6.9729e-23
6.97617e-23
6.97566e-23
6.97148e-23
6.96499e-23
6.95809e-23
6.95222e-23
6.94791e-23
6.94485e-23
6.94254e-23
6.94066e-23
6.93936e-23
6.93927e-23
6.94066e-23
6.94392e-23
6.94787e-23
6.95321e-23
6.95907e-23
6.96508e-23
6.9752e-23
6.97607e-23
7.00011e-23
6.98182e-23
7.35655e-23
7.02484e-23
6.9011e-23
6.93403e-23
6.89514e-23
6.90997e-23
6.8833e-23
6.88208e-23
6.87475e-23
6.88342e-23
6.88583e-23
6.891e-23
6.89259e-23
6.89514e-23
6.89506e-23
6.89547e-23
6.89706e-23
6.90246e-23
6.91023e-23
6.91825e-23
6.9233e-23
6.92419e-23
6.92115e-23
6.91594e-23
6.91066e-23
6.90732e-23
6.90673e-23
6.90837e-23
6.91041e-23
6.91088e-23
6.90867e-23
6.90435e-23
6.89992e-23
6.89776e-23
6.89939e-23
6.90473e-23
6.91216e-23
6.91923e-23
6.92373e-23
6.92439e-23
6.92126e-23
6.91538e-23
6.90831e-23
6.90148e-23
6.89563e-23
6.89092e-23
6.88708e-23
6.8838e-23
6.8811e-23
6.87962e-23
6.87979e-23
6.88218e-23
6.88576e-23
6.89148e-23
6.89843e-23
6.90628e-23
6.91867e-23
6.92168e-23
6.94981e-23
6.93659e-23
7.32658e-23
6.99146e-23
6.86512e-23
6.89592e-23
6.85549e-23
6.86971e-23
6.84348e-23
6.84226e-23
6.83459e-23
6.84261e-23
6.84491e-23
6.85098e-23
6.85455e-23
6.85963e-23
6.86207e-23
6.86454e-23
6.86748e-23
6.87337e-23
6.88066e-23
6.88745e-23
6.89116e-23
6.89116e-23
6.88778e-23
6.88241e-23
6.87668e-23
6.87241e-23
6.87059e-23
6.87105e-23
6.87214e-23
6.87181e-23
6.86897e-23
6.86439e-23
6.8604e-23
6.8595e-23
6.86286e-23
6.86972e-23
6.87789e-23
6.88501e-23
6.88952e-23
6.89084e-23
6.88903e-23
6.88439e-23
6.87761e-23
6.86994e-23
6.86263e-23
6.85637e-23
6.85106e-23
6.84637e-23
6.84231e-23
6.83959e-23
6.8387e-23
6.84033e-23
6.84355e-23
6.84959e-23
6.8574e-23
6.86654e-23
6.8804e-23
6.88482e-23
6.91573e-23
6.90743e-23
7.31218e-23
6.97709e-23
6.84977e-23
6.87889e-23
6.83756e-23
6.85185e-23
6.82676e-23
6.82583e-23
6.81757e-23
6.82437e-23
6.82619e-23
6.83323e-23
6.83925e-23
6.84747e-23
6.8527e-23
6.85696e-23
6.8604e-23
6.86561e-23
6.87148e-23
6.87685e-23
6.87982e-23
6.87999e-23
6.87725e-23
6.87231e-23
6.86635e-23
6.86117e-23
6.85815e-23
6.85747e-23
6.85759e-23
6.85644e-23
6.85305e-23
6.84844e-23
6.8452e-23
6.84578e-23
6.8509e-23
6.85903e-23
6.86746e-23
6.87392e-23
6.87758e-23
6.87867e-23
6.87755e-23
6.87409e-23
6.86824e-23
6.86079e-23
6.85293e-23
6.84552e-23
6.83863e-23
6.83215e-23
6.82648e-23
6.82261e-23
6.82104e-23
6.82232e-23
6.82537e-23
6.83149e-23
6.83956e-23
6.84938e-23
6.86416e-23
6.86961e-23
6.90182e-23
6.89756e-23
7.31307e-23
6.98233e-23
6.85638e-23
6.88495e-23
6.84359e-23
6.85839e-23
6.83468e-23
6.8341e-23
6.82517e-23
6.83074e-23
6.83222e-23
6.84056e-23
6.84935e-23
6.8608e-23
6.8685e-23
6.87363e-23
6.87629e-23
6.87972e-23
6.88384e-23
6.88831e-23
6.89145e-23
6.89244e-23
6.89056e-23
6.88602e-23
6.8799e-23
6.87418e-23
6.87047e-23
6.86902e-23
6.86835e-23
6.86648e-23
6.86264e-23
6.85815e-23
6.85566e-23
6.85746e-23
6.86386e-23
6.8729e-23
6.88153e-23
6.8874e-23
6.88993e-23
6.88987e-23
6.88819e-23
6.88521e-23
6.88085e-23
6.87509e-23
6.86815e-23
6.86032e-23
6.85185e-23
6.84329e-23
6.83577e-23
6.83072e-23
6.82871e-23
6.83e-23
6.83302e-23
6.83891e-23
6.84664e-23
6.8565e-23
6.87165e-23
6.87783e-23
6.90978e-23
6.90816e-23
7.3275e-23
7.00605e-23
6.88424e-23
6.91401e-23
6.87385e-23
6.8894e-23
6.86691e-23
6.86655e-23
6.85729e-23
6.86232e-23
6.86419e-23
6.87417e-23
6.88548e-23
6.89935e-23
6.9083e-23
6.91295e-23
6.91379e-23
6.91512e-23
6.91794e-23
6.92229e-23
6.92609e-23
6.92783e-23
6.9264e-23
6.92201e-23
6.91594e-23
6.91029e-23
6.90658e-23
6.90489e-23
6.90375e-23
6.90141e-23
6.89731e-23
6.89292e-23
6.89087e-23
6.89329e-23
6.90031e-23
6.90986e-23
6.91876e-23
6.92442e-23
6.92596e-23
6.92426e-23
6.92108e-23
6.91786e-23
6.91501e-23
6.91181e-23
6.90703e-23
6.89986e-23
6.89049e-23
6.88018e-23
6.8709e-23
6.86463e-23
6.86209e-23
6.86327e-23
6.86616e-23
6.87165e-23
6.87865e-23
6.88792e-23
6.90253e-23
6.90878e-23
6.93896e-23
6.93832e-23
7.3526e-23
7.04597e-23
6.93094e-23
6.96371e-23
6.92624e-23
6.94297e-23
6.92163e-23
6.92159e-23
6.91262e-23
6.91817e-23
6.92132e-23
6.93298e-23
6.94582e-23
6.96034e-23
6.96866e-23
6.97156e-23
6.97032e-23
6.97018e-23
6.97257e-23
6.9772e-23
6.9814e-23
6.98327e-23
6.98178e-23
6.97746e-23
6.97179e-23
6.96677e-23
6.96362e-23
6.9622e-23
6.96106e-23
6.95859e-23
6.95438e-23
6.94995e-23
6.94789e-23
6.95032e-23
6.9574e-23
6.96712e-23
6.97622e-23
6.98178e-23
6.98256e-23
6.97946e-23
6.97485e-23
6.97112e-23
6.96924e-23
6.96825e-23
6.96601e-23
6.96066e-23
6.95186e-23
6.94106e-23
6.93075e-23
6.92336e-23
6.91988e-23
6.92036e-23
6.92278e-23
6.92778e-23
6.93385e-23
6.94177e-23
6.95451e-23
6.95978e-23
6.98671e-23
6.98534e-23
7.38468e-23
7.09884e-23
6.99272e-23
7.02975e-23
6.99635e-23
7.01511e-23
6.99556e-23
6.99642e-23
6.98852e-23
6.99541e-23
7.0002e-23
7.01296e-23
7.02573e-23
7.03874e-23
7.04465e-23
7.04513e-23
7.04233e-23
7.04171e-23
7.04425e-23
7.04901e-23
7.05294e-23
7.05433e-23
7.05254e-23
7.04843e-23
7.04346e-23
7.03936e-23
7.03709e-23
7.03638e-23
7.03568e-23
7.03341e-23
7.02916e-23
7.02447e-23
7.02203e-23
7.02409e-23
7.03093e-23
7.04054e-23
7.04951e-23
7.05474e-23
7.05494e-23
7.05119e-23
7.04604e-23
7.04203e-23
7.04039e-23
7.0405e-23
7.04029e-23
7.03749e-23
7.03095e-23
7.02155e-23
7.01156e-23
7.00354e-23
6.9988e-23
6.99797e-23
6.99942e-23
7.00365e-23
7.0084e-23
7.0141e-23
7.02357e-23
7.02668e-23
7.0489e-23
7.04514e-23
7.4195e-23
7.1604e-23
7.0646e-23
7.10654e-23
7.07826e-23
7.1001e-23
7.08356e-23
7.08643e-23
7.08037e-23
7.08878e-23
7.09467e-23
7.10721e-23
7.11806e-23
7.12786e-23
7.13045e-23
7.12864e-23
7.12498e-23
7.12444e-23
7.12713e-23
7.13157e-23
7.13479e-23
7.13552e-23
7.13351e-23
7.12973e-23
7.12549e-23
7.12234e-23
7.12112e-23
7.12141e-23
7.12151e-23
7.11964e-23
7.11535e-23
7.11025e-23
7.10723e-23
7.10876e-23
7.11521e-23
7.12444e-23
7.1329e-23
7.13755e-23
7.13743e-23
7.13375e-23
7.12886e-23
7.12494e-23
7.12317e-23
7.12347e-23
7.12447e-23
7.1242e-23
7.12098e-23
7.11469e-23
7.10667e-23
7.09903e-23
7.09335e-23
7.09102e-23
7.09101e-23
7.09379e-23
7.09641e-23
7.09898e-23
7.10414e-23
7.10415e-23
7.12043e-23
7.11286e-23
7.45261e-23
7.22533e-23
7.14073e-23
7.1878e-23
7.16524e-23
7.19092e-23
7.17856e-23
7.18459e-23
7.18094e-23
7.19048e-23
7.19622e-23
7.20685e-23
7.2143e-23
7.22017e-23
7.21956e-23
7.21598e-23
7.2118e-23
7.21119e-23
7.21365e-23
7.21754e-23
7.22013e-23
7.22045e-23
7.21838e-23
7.21487e-23
7.21121e-23
7.20895e-23
7.20883e-23
7.21027e-23
7.21131e-23
7.20992e-23
7.20559e-23
7.20006e-23
7.19646e-23
7.1974e-23
7.20325e-23
7.21181e-23
7.21959e-23
7.22379e-23
7.22366e-23
7.22033e-23
7.21584e-23
7.2121e-23
7.21029e-23
7.21067e-23
7.21247e-23
7.21421e-23
7.21428e-23
7.21182e-23
7.20702e-23
7.20118e-23
7.19569e-23
7.19231e-23
7.19047e-23
7.19084e-23
7.19036e-23
7.18912e-23
7.18945e-23
7.18591e-23
7.19562e-23
7.18331e-23
7.4797e-23
7.28773e-23
7.21479e-23
7.26702e-23
7.25031e-23
7.27986e-23
7.27201e-23
7.28166e-23
7.28056e-23
7.29062e-23
7.29494e-23
7.30239e-23
7.30581e-23
7.30793e-23
7.30478e-23
7.29985e-23
7.29501e-23
7.29389e-23
7.29586e-23
7.29934e-23
7.3017e-23
7.30194e-23
7.29988e-23
7.29653e-23
7.29333e-23
7.29189e-23
7.29287e-23
7.29543e-23
7.29734e-23
7.29641e-23
7.29213e-23
7.28632e-23
7.28222e-23
7.28244e-23
7.28739e-23
7.29505e-23
7.30228e-23
7.30644e-23
7.30656e-23
7.30344e-23
7.29893e-23
7.29513e-23
7.29351e-23
7.29442e-23
7.29716e-23
7.30048e-23
7.30304e-23
7.30394e-23
7.30278e-23
7.29994e-23
7.29605e-23
7.29246e-23
7.28878e-23
7.28615e-23
7.28198e-23
7.27667e-23
7.27212e-23
7.26513e-23
7.26839e-23
7.25113e-23
7.49706e-23
7.34193e-23
7.28061e-23
7.33768e-23
7.32644e-23
7.35911e-23
7.35498e-23
7.36757e-23
7.36847e-23
7.3785e-23
7.38097e-23
7.3851e-23
7.38482e-23
7.38379e-23
7.37856e-23
7.37239e-23
7.36673e-23
7.36498e-23
7.36653e-23
7.36986e-23
7.37226e-23
7.37255e-23
7.37056e-23
7.36743e-23
7.36475e-23
7.36413e-23
7.36609e-23
7.36956e-23
7.37214e-23
7.37164e-23
7.36756e-23
7.36171e-23
7.35717e-23
7.3565e-23
7.36029e-23
7.36701e-23
7.3739e-23
7.37829e-23
7.37873e-23
7.37553e-23
7.37062e-23
7.3665e-23
7.36508e-23
7.36685e-23
7.37085e-23
7.37558e-23
7.37984e-23
7.38309e-23
7.38503e-23
7.38545e-23
7.38391e-23
7.38091e-23
7.37592e-23
7.37061e-23
7.363e-23
7.35394e-23
7.34501e-23
7.33513e-23
7.33271e-23
7.31097e-23
7.50216e-23
7.38325e-23
7.33279e-23
7.39375e-23
7.38697e-23
7.42139e-23
7.4194e-23
7.43332e-23
7.43506e-23
7.44476e-23
7.44597e-23
7.44783e-23
7.44485e-23
7.44126e-23
7.43415e-23
7.42683e-23
7.42059e-23
7.41852e-23
7.41987e-23
7.42306e-23
7.42541e-23
7.42578e-23
7.42407e-23
7.42145e-23
7.41947e-23
7.41963e-23
7.42232e-23
7.42639e-23
7.42946e-23
7.42939e-23
7.42568e-23
7.41991e-23
7.41495e-23
7.4133e-23
7.41594e-23
7.42181e-23
7.42841e-23
7.43289e-23
7.43342e-23
7.43006e-23
7.42477e-23
7.42034e-23
7.41901e-23
7.42144e-23
7.42657e-23
7.43261e-23
7.4382e-23
7.443e-23
7.44695e-23
7.44963e-23
7.45e-23
7.44794e-23
7.44267e-23
7.43593e-23
7.42603e-23
7.41425e-23
7.40195e-23
7.39008e-23
7.38319e-23
7.35812e-23
7.49387e-23
7.40853e-23
7.36728e-23
7.43039e-23
7.42646e-23
7.46093e-23
7.45927e-23
7.47271e-23
7.4741e-23
7.48346e-23
7.48449e-23
7.48561e-23
7.48111e-23
7.47559e-23
7.46699e-23
7.45908e-23
7.45288e-23
7.45088e-23
7.45197e-23
7.45466e-23
7.45668e-23
7.45723e-23
7.4562e-23
7.45449e-23
7.45334e-23
7.4541e-23
7.45717e-23
7.46156e-23
7.46504e-23
7.46548e-23
7.4622e-23
7.45649e-23
7.45108e-23
7.44862e-23
7.45038e-23
7.45554e-23
7.46162e-23
7.46571e-23
7.466e-23
7.46257e-23
7.45731e-23
7.45293e-23
7.45162e-23
7.45421e-23
7.4598e-23
7.46671e-23
7.47346e-23
7.47937e-23
7.48414e-23
7.48739e-23
7.48835e-23
7.48702e-23
7.48242e-23
7.47587e-23
7.46542e-23
7.45255e-23
7.43844e-23
7.42577e-23
7.41594e-23
7.38929e-23
7.47244e-23
7.41632e-23
7.38188e-23
7.44485e-23
7.44178e-23
7.47452e-23
7.47167e-23
7.48347e-23
7.48396e-23
7.49312e-23
7.49474e-23
7.49615e-23
7.49116e-23
7.48475e-23
7.47577e-23
7.46829e-23
7.46279e-23
7.46091e-23
7.46128e-23
7.46297e-23
7.46451e-23
7.4655e-23
7.46555e-23
7.46501e-23
7.46462e-23
7.46564e-23
7.46875e-23
7.4733e-23
7.47722e-23
7.47824e-23
7.47532e-23
7.46958e-23
7.46378e-23
7.46081e-23
7.46202e-23
7.46653e-23
7.4718e-23
7.47509e-23
7.47491e-23
7.47154e-23
7.46676e-23
7.46291e-23
7.4618e-23
7.46415e-23
7.46941e-23
7.47639e-23
7.48373e-23
7.49018e-23
7.49481e-23
7.49727e-23
7.49752e-23
7.49628e-23
7.49266e-23
7.48746e-23
7.47817e-23
7.46613e-23
7.4521e-23
7.44007e-23
7.42916e-23
7.40306e-23
7.43905e-23
7.40674e-23
7.37655e-23
7.43707e-23
7.43287e-23
7.46234e-23
7.45742e-23
7.46737e-23
7.46721e-23
7.47642e-23
7.47868e-23
7.48056e-23
7.47587e-23
7.47001e-23
7.46231e-23
7.45644e-23
7.452e-23
7.44992e-23
7.44907e-23
7.44945e-23
7.45054e-23
7.45216e-23
7.45347e-23
7.45403e-23
7.45413e-23
7.45507e-23
7.45798e-23
7.46262e-23
7.46702e-23
7.46859e-23
7.46597e-23
7.46017e-23
7.45413e-23
7.45088e-23
7.45171e-23
7.45558e-23
7.45997e-23
7.46242e-23
7.4618e-23
7.4586e-23
7.45453e-23
7.4515e-23
7.45084e-23
7.45295e-23
7.45747e-23
7.46365e-23
7.47041e-23
7.47632e-23
7.48009e-23