/*--------------------------------*- C++ -*----------------------------------*\
| =========                 |                                                 |
| \\      /  F ield         | foam-extend: Open Source CFD                    |
|  \\    /   O peration     | Version:     4.0                                |
|   \\  /    A nd           | Web:         http://www.foam-extend.org         |
|    \\/     M anipulation  |                                                 |
\*---------------------------------------------------------------------------*/
FoamFile
{
    version     2.0;
    format      ascii;
    class       volScalarField;
    location    "1530";
    object      cPlus;
}
// * * * * * * * * * * * * * * * * * * * * * * * * * * * * * * * * * * * * * //

dimensions      [0 0 0 0 0 0 0];

internalField   nonuniform List<scalar> 
6960
(
0.348241
0.348238
0.348234
0.348231
0.348227
0.348223
0.348219
0.348216
0.348213
0.34821
0.348207
0.348205
0.348202
0.3482
0.348198
0.348196
0.348195
0.348193
0.348192
0.34819
0.348189
0.348188
0.348187
0.348187
0.348186
0.348185
0.348185
0.348185
0.348184
0.348184
0.348184
0.348184
0.348185
0.348185
0.348185
0.348186
0.348187
0.348187
0.348188
0.348189
0.34819
0.348192
0.348193
0.348195
0.348196
0.348198
0.3482
0.348202
0.348205
0.348207
0.34821
0.348213
0.348216
0.348219
0.348223
0.348227
0.348231
0.348234
0.348238
0.348241
0.124649
0.124647
0.124644
0.124641
0.124638
0.124635
0.124632
0.124629
0.124626
0.124624
0.124622
0.12462
0.124618
0.124616
0.124614
0.124613
0.124611
0.12461
0.124609
0.124608
0.124607
0.124606
0.124605
0.124605
0.124604
0.124604
0.124603
0.124603
0.124603
0.124603
0.124603
0.124603
0.124603
0.124603
0.124604
0.124604
0.124605
0.124605
0.124606
0.124607
0.124608
0.124609
0.12461
0.124611
0.124613
0.124614
0.124616
0.124618
0.12462
0.124622
0.124624
0.124626
0.124629
0.124632
0.124635
0.124638
0.124641
0.124644
0.124647
0.124649
0.0527817
0.0527802
0.0527782
0.0527761
0.052774
0.0527719
0.05277
0.0527681
0.0527664
0.0527648
0.0527633
0.0527618
0.0527605
0.0527593
0.0527582
0.0527572
0.0527563
0.0527554
0.0527546
0.0527539
0.0527533
0.0527528
0.0527523
0.0527519
0.0527515
0.0527512
0.052751
0.0527508
0.0527507
0.0527507
0.0527507
0.0527507
0.0527508
0.052751
0.0527512
0.0527515
0.0527519
0.0527523
0.0527528
0.0527533
0.0527539
0.0527546
0.0527554
0.0527563
0.0527572
0.0527582
0.0527593
0.0527605
0.0527618
0.0527633
0.0527648
0.0527664
0.0527681
0.05277
0.0527719
0.052774
0.0527761
0.0527782
0.0527802
0.0527817
0.024616
0.0246152
0.024614
0.0246128
0.0246116
0.0246104
0.0246092
0.0246081
0.0246071
0.0246062
0.0246053
0.0246045
0.0246037
0.024603
0.0246023
0.0246017
0.0246012
0.0246007
0.0246002
0.0245998
0.0245995
0.0245991
0.0245989
0.0245986
0.0245984
0.0245982
0.0245981
0.024598
0.0245979
0.0245979
0.0245979
0.0245979
0.024598
0.0245981
0.0245982
0.0245984
0.0245986
0.0245989
0.0245991
0.0245995
0.0245998
0.0246002
0.0246007
0.0246012
0.0246017
0.0246023
0.024603
0.0246037
0.0246045
0.0246053
0.0246062
0.0246071
0.0246081
0.0246092
0.0246104
0.0246116
0.0246128
0.024614
0.0246152
0.024616
0.0127427
0.0127423
0.0127418
0.0127412
0.0127406
0.01274
0.0127394
0.0127389
0.0127384
0.0127379
0.0127375
0.0127371
0.0127367
0.0127363
0.012736
0.0127357
0.0127354
0.0127352
0.012735
0.0127348
0.0127346
0.0127344
0.0127343
0.0127342
0.0127341
0.012734
0.0127339
0.0127339
0.0127338
0.0127338
0.0127338
0.0127338
0.0127339
0.0127339
0.012734
0.0127341
0.0127342
0.0127343
0.0127344
0.0127346
0.0127348
0.012735
0.0127352
0.0127354
0.0127357
0.012736
0.0127363
0.0127367
0.0127371
0.0127375
0.0127379
0.0127384
0.0127389
0.0127394
0.01274
0.0127406
0.0127412
0.0127418
0.0127423
0.0127427
0.00763709
0.00763704
0.00763688
0.00763668
0.00763647
0.00763626
0.00763606
0.00763588
0.0076357
0.00763553
0.00763538
0.00763524
0.0076351
0.00763498
0.00763487
0.00763476
0.00763467
0.00763458
0.00763451
0.00763444
0.00763437
0.00763432
0.00763427
0.00763423
0.00763419
0.00763416
0.00763414
0.00763412
0.00763411
0.0076341
0.0076341
0.00763411
0.00763412
0.00763414
0.00763416
0.00763419
0.00763423
0.00763427
0.00763432
0.00763437
0.00763444
0.00763451
0.00763458
0.00763467
0.00763476
0.00763487
0.00763498
0.0076351
0.00763524
0.00763538
0.00763553
0.0076357
0.00763588
0.00763606
0.00763626
0.00763647
0.00763668
0.00763688
0.00763704
0.00763709
0.00545559
0.00545572
0.00545578
0.00545581
0.00545584
0.00545586
0.00545588
0.00545589
0.00545591
0.00545592
0.00545594
0.00545595
0.00545596
0.00545597
0.00545598
0.00545599
0.005456
0.00545601
0.00545601
0.00545602
0.00545602
0.00545603
0.00545603
0.00545604
0.00545604
0.00545604
0.00545604
0.00545605
0.00545605
0.00545605
0.00545605
0.00545605
0.00545605
0.00545604
0.00545604
0.00545604
0.00545604
0.00545603
0.00545603
0.00545602
0.00545602
0.00545601
0.00545601
0.005456
0.00545599
0.00545598
0.00545597
0.00545596
0.00545595
0.00545594
0.00545592
0.00545591
0.00545589
0.00545588
0.00545586
0.00545584
0.00545581
0.00545578
0.00545572
0.00545559
0.00454566
0.00454588
0.00454606
0.00454623
0.00454638
0.00454652
0.00454666
0.00454679
0.00454691
0.00454702
0.00454713
0.00454722
0.00454731
0.0045474
0.00454748
0.00454755
0.00454761
0.00454767
0.00454772
0.00454777
0.00454782
0.00454785
0.00454789
0.00454792
0.00454794
0.00454796
0.00454798
0.00454799
0.004548
0.004548
0.004548
0.004548
0.00454799
0.00454798
0.00454796
0.00454794
0.00454792
0.00454789
0.00454785
0.00454782
0.00454777
0.00454772
0.00454767
0.00454761
0.00454755
0.00454748
0.0045474
0.00454731
0.00454722
0.00454713
0.00454702
0.00454691
0.00454679
0.00454666
0.00454652
0.00454638
0.00454623
0.00454606
0.00454588
0.00454566
0.00418378
0.00418405
0.0041843
0.00418453
0.00418475
0.00418496
0.00418516
0.00418534
0.00418552
0.00418568
0.00418584
0.00418598
0.00418611
0.00418623
0.00418634
0.00418645
0.00418654
0.00418663
0.00418671
0.00418678
0.00418684
0.00418689
0.00418694
0.00418698
0.00418702
0.00418705
0.00418707
0.00418709
0.0041871
0.00418711
0.00418711
0.0041871
0.00418709
0.00418707
0.00418705
0.00418702
0.00418698
0.00418694
0.00418689
0.00418684
0.00418678
0.00418671
0.00418663
0.00418654
0.00418645
0.00418634
0.00418623
0.00418611
0.00418598
0.00418584
0.00418568
0.00418552
0.00418534
0.00418516
0.00418496
0.00418475
0.00418453
0.0041843
0.00418405
0.00418378
0.00405462
0.00405491
0.00405519
0.00405546
0.00405571
0.00405595
0.00405618
0.0040564
0.0040566
0.00405679
0.00405697
0.00405714
0.00405729
0.00405743
0.00405756
0.00405768
0.00405779
0.00405789
0.00405798
0.00405806
0.00405814
0.0040582
0.00405826
0.0040583
0.00405835
0.00405838
0.00405841
0.00405843
0.00405844
0.00405845
0.00405845
0.00405844
0.00405843
0.00405841
0.00405838
0.00405835
0.0040583
0.00405826
0.0040582
0.00405814
0.00405806
0.00405798
0.00405789
0.00405779
0.00405768
0.00405756
0.00405743
0.00405729
0.00405714
0.00405697
0.00405679
0.0040566
0.0040564
0.00405618
0.00405595
0.00405571
0.00405546
0.00405519
0.00405491
0.00405462
0.00402284
0.00402316
0.00402345
0.00402374
0.00402401
0.00402427
0.00402451
0.00402474
0.00402496
0.00402517
0.00402536
0.00402553
0.0040257
0.00402585
0.00402599
0.00402612
0.00402623
0.00402634
0.00402644
0.00402653
0.0040266
0.00402667
0.00402673
0.00402678
0.00402683
0.00402686
0.00402689
0.00402692
0.00402693
0.00402694
0.00402694
0.00402693
0.00402692
0.00402689
0.00402686
0.00402683
0.00402678
0.00402673
0.00402667
0.0040266
0.00402653
0.00402644
0.00402634
0.00402623
0.00402612
0.00402599
0.00402585
0.0040257
0.00402553
0.00402536
0.00402517
0.00402496
0.00402474
0.00402451
0.00402427
0.00402401
0.00402374
0.00402345
0.00402316
0.00402284
0.00403162
0.00403194
0.00403224
0.00403254
0.00403282
0.00403309
0.00403334
0.00403358
0.00403381
0.00403402
0.00403422
0.0040344
0.00403457
0.00403473
0.00403487
0.00403501
0.00403513
0.00403524
0.00403534
0.00403543
0.00403551
0.00403558
0.00403564
0.0040357
0.00403574
0.00403578
0.00403581
0.00403583
0.00403585
0.00403586
0.00403586
0.00403585
0.00403583
0.00403581
0.00403578
0.00403574
0.0040357
0.00403564
0.00403558
0.00403551
0.00403543
0.00403534
0.00403524
0.00403513
0.00403501
0.00403487
0.00403473
0.00403457
0.0040344
0.00403422
0.00403402
0.00403381
0.00403358
0.00403334
0.00403309
0.00403282
0.00403254
0.00403224
0.00403194
0.00403162
0.00405764
0.00405797
0.00405828
0.00405858
0.00405887
0.00405915
0.00405941
0.00405965
0.00405988
0.0040601
0.0040603
0.00406049
0.00406066
0.00406082
0.00406097
0.00406111
0.00406123
0.00406135
0.00406145
0.00406154
0.00406163
0.0040617
0.00406176
0.00406182
0.00406186
0.0040619
0.00406193
0.00406196
0.00406197
0.00406198
0.00406198
0.00406197
0.00406196
0.00406193
0.0040619
0.00406186
0.00406182
0.00406176
0.0040617
0.00406163
0.00406154
0.00406145
0.00406135
0.00406123
0.00406111
0.00406097
0.00406082
0.00406066
0.00406049
0.0040603
0.0040601
0.00405988
0.00405965
0.00405941
0.00405915
0.00405887
0.00405858
0.00405828
0.00405797
0.00405764
0.00409167
0.00409201
0.00409233
0.00409263
0.00409293
0.00409321
0.00409347
0.00409372
0.00409396
0.00409418
0.00409438
0.00409457
0.00409475
0.00409491
0.00409507
0.0040952
0.00409533
0.00409545
0.00409555
0.00409565
0.00409573
0.0040958
0.00409587
0.00409593
0.00409597
0.00409601
0.00409604
0.00409607
0.00409608
0.00409609
0.00409609
0.00409608
0.00409607
0.00409604
0.00409601
0.00409597
0.00409593
0.00409587
0.0040958
0.00409573
0.00409565
0.00409555
0.00409545
0.00409533
0.0040952
0.00409507
0.00409491
0.00409475
0.00409457
0.00409438
0.00409418
0.00409396
0.00409372
0.00409347
0.00409321
0.00409293
0.00409263
0.00409233
0.00409201
0.00409167
0.00413021
0.00413055
0.00413087
0.00413118
0.00413148
0.00413176
0.00413203
0.00413229
0.00413252
0.00413275
0.00413296
0.00413315
0.00413333
0.0041335
0.00413365
0.00413379
0.00413392
0.00413404
0.00413415
0.00413424
0.00413433
0.0041344
0.00413447
0.00413453
0.00413457
0.00413461
0.00413465
0.00413467
0.00413468
0.00413469
0.00413469
0.00413468
0.00413467
0.00413465
0.00413461
0.00413457
0.00413453
0.00413447
0.0041344
0.00413433
0.00413424
0.00413415
0.00413404
0.00413392
0.00413379
0.00413365
0.0041335
0.00413333
0.00413315
0.00413296
0.00413275
0.00413252
0.00413229
0.00413203
0.00413176
0.00413148
0.00413118
0.00413087
0.00413055
0.00413021
0.00417202
0.00417237
0.0041727
0.00417301
0.00417332
0.0041736
0.00417388
0.00417414
0.00417438
0.00417461
0.00417482
0.00417502
0.0041752
0.00417537
0.00417552
0.00417567
0.0041758
0.00417592
0.00417603
0.00417612
0.00417621
0.00417629
0.00417636
0.00417641
0.00417646
0.0041765
0.00417654
0.00417656
0.00417658
0.00417658
0.00417658
0.00417658
0.00417656
0.00417654
0.0041765
0.00417646
0.00417641
0.00417636
0.00417629
0.00417621
0.00417612
0.00417603
0.00417592
0.0041758
0.00417567
0.00417552
0.00417537
0.0041752
0.00417502
0.00417482
0.00417461
0.00417438
0.00417414
0.00417388
0.0041736
0.00417332
0.00417301
0.0041727
0.00417237
0.00417202
0.00421682
0.00421717
0.00421751
0.00421783
0.00421814
0.00421843
0.00421871
0.00421897
0.00421922
0.00421945
0.00421966
0.00421986
0.00422005
0.00422022
0.00422038
0.00422053
0.00422066
0.00422078
0.00422089
0.00422099
0.00422108
0.00422116
0.00422123
0.00422129
0.00422134
0.00422138
0.00422141
0.00422143
0.00422145
0.00422146
0.00422146
0.00422145
0.00422143
0.00422141
0.00422138
0.00422134
0.00422129
0.00422123
0.00422116
0.00422108
0.00422099
0.00422089
0.00422078
0.00422066
0.00422053
0.00422038
0.00422022
0.00422005
0.00421986
0.00421966
0.00421945
0.00421922
0.00421897
0.00421871
0.00421843
0.00421814
0.00421783
0.00421751
0.00421717
0.00421682
0.00426465
0.00426501
0.00426535
0.00426568
0.00426599
0.00426629
0.00426657
0.00426684
0.00426709
0.00426733
0.00426755
0.00426775
0.00426794
0.00426812
0.00426828
0.00426843
0.00426856
0.00426869
0.0042688
0.0042689
0.00426899
0.00426907
0.00426914
0.0042692
0.00426925
0.00426929
0.00426932
0.00426935
0.00426937
0.00426937
0.00426937
0.00426937
0.00426935
0.00426932
0.00426929
0.00426925
0.0042692
0.00426914
0.00426907
0.00426899
0.0042689
0.0042688
0.00426869
0.00426856
0.00426843
0.00426828
0.00426812
0.00426794
0.00426775
0.00426755
0.00426733
0.00426709
0.00426684
0.00426657
0.00426629
0.00426599
0.00426568
0.00426535
0.00426501
0.00426465
0.00431573
0.0043161
0.00431644
0.00431678
0.0043171
0.0043174
0.00431769
0.00431796
0.00431822
0.00431846
0.00431868
0.00431889
0.00431908
0.00431926
0.00431942
0.00431958
0.00431971
0.00431984
0.00431995
0.00432006
0.00432015
0.00432023
0.0043203
0.00432036
0.00432041
0.00432046
0.00432049
0.00432052
0.00432053
0.00432054
0.00432054
0.00432053
0.00432052
0.00432049
0.00432046
0.00432041
0.00432036
0.0043203
0.00432023
0.00432015
0.00432006
0.00431995
0.00431984
0.00431971
0.00431958
0.00431942
0.00431926
0.00431908
0.00431889
0.00431868
0.00431846
0.00431822
0.00431796
0.00431769
0.0043174
0.0043171
0.00431678
0.00431644
0.0043161
0.00431573
0.00437034
0.00437072
0.00437107
0.00437141
0.00437174
0.00437205
0.00437234
0.00437262
0.00437288
0.00437312
0.00437335
0.00437356
0.00437376
0.00437394
0.00437411
0.00437426
0.00437441
0.00437453
0.00437465
0.00437476
0.00437485
0.00437493
0.004375
0.00437507
0.00437512
0.00437516
0.0043752
0.00437522
0.00437524
0.00437525
0.00437525
0.00437524
0.00437522
0.0043752
0.00437516
0.00437512
0.00437507
0.004375
0.00437493
0.00437485
0.00437476
0.00437465
0.00437453
0.00437441
0.00437426
0.00437411
0.00437394
0.00437376
0.00437356
0.00437335
0.00437312
0.00437288
0.00437262
0.00437234
0.00437205
0.00437174
0.00437141
0.00437107
0.00437072
0.00437034
0.00442884
0.00442922
0.00442958
0.00442993
0.00443026
0.00443058
0.00443088
0.00443116
0.00443143
0.00443168
0.00443191
0.00443213
0.00443233
0.00443251
0.00443269
0.00443284
0.00443299
0.00443312
0.00443324
0.00443334
0.00443344
0.00443352
0.0044336
0.00443366
0.00443372
0.00443376
0.0044338
0.00443382
0.00443384
0.00443385
0.00443385
0.00443384
0.00443382
0.0044338
0.00443376
0.00443372
0.00443366
0.0044336
0.00443352
0.00443344
0.00443334
0.00443324
0.00443312
0.00443299
0.00443284
0.00443269
0.00443251
0.00443233
0.00443213
0.00443191
0.00443168
0.00443143
0.00443116
0.00443088
0.00443058
0.00443026
0.00442993
0.00442958
0.00442922
0.00442884
0.00449162
0.00449201
0.00449238
0.00449273
0.00449307
0.0044934
0.00449371
0.004494
0.00449427
0.00449452
0.00449476
0.00449498
0.00449519
0.00449538
0.00449556
0.00449572
0.00449586
0.004496
0.00449612
0.00449623
0.00449633
0.00449641
0.00449649
0.00449655
0.00449661
0.00449666
0.00449669
0.00449672
0.00449674
0.00449675
0.00449675
0.00449674
0.00449672
0.00449669
0.00449666
0.00449661
0.00449655
0.00449649
0.00449641
0.00449633
0.00449623
0.00449612
0.004496
0.00449586
0.00449572
0.00449556
0.00449538
0.00449519
0.00449498
0.00449476
0.00449452
0.00449427
0.004494
0.00449371
0.0044934
0.00449307
0.00449273
0.00449238
0.00449201
0.00449162
0.00455915
0.00455956
0.00455993
0.0045603
0.00456065
0.00456098
0.00456129
0.00456159
0.00456187
0.00456213
0.00456238
0.0045626
0.00456281
0.00456301
0.00456319
0.00456335
0.0045635
0.00456364
0.00456377
0.00456388
0.00456398
0.00456407
0.00456414
0.00456421
0.00456427
0.00456432
0.00456435
0.00456438
0.0045644
0.00456441
0.00456441
0.0045644
0.00456438
0.00456435
0.00456432
0.00456427
0.00456421
0.00456414
0.00456407
0.00456398
0.00456388
0.00456377
0.00456364
0.0045635
0.00456335
0.00456319
0.00456301
0.00456281
0.0045626
0.00456238
0.00456213
0.00456187
0.00456159
0.00456129
0.00456098
0.00456065
0.0045603
0.00455993
0.00455956
0.00455915
0.00463198
0.0046324
0.00463279
0.00463316
0.00463352
0.00463386
0.00463418
0.00463449
0.00463477
0.00463504
0.00463529
0.00463552
0.00463574
0.00463594
0.00463613
0.0046363
0.00463645
0.00463659
0.00463672
0.00463683
0.00463694
0.00463703
0.00463711
0.00463718
0.00463723
0.00463728
0.00463732
0.00463735
0.00463737
0.00463738
0.00463738
0.00463737
0.00463735
0.00463732
0.00463728
0.00463723
0.00463718
0.00463711
0.00463703
0.00463694
0.00463683
0.00463672
0.00463659
0.00463645
0.0046363
0.00463613
0.00463594
0.00463574
0.00463552
0.00463529
0.00463504
0.00463477
0.00463449
0.00463418
0.00463386
0.00463352
0.00463316
0.00463279
0.0046324
0.00463198
0.00471074
0.00471117
0.00471157
0.00471195
0.00471232
0.00471267
0.004713
0.00471331
0.00471361
0.00471388
0.00471414
0.00471438
0.0047146
0.00471481
0.004715
0.00471517
0.00471533
0.00471548
0.00471561
0.00471573
0.00471583
0.00471593
0.00471601
0.00471608
0.00471614
0.00471619
0.00471623
0.00471626
0.00471628
0.00471629
0.00471629
0.00471628
0.00471626
0.00471623
0.00471619
0.00471614
0.00471608
0.00471601
0.00471593
0.00471583
0.00471573
0.00471561
0.00471548
0.00471533
0.00471517
0.004715
0.00471481
0.0047146
0.00471438
0.00471414
0.00471388
0.00471361
0.00471331
0.004713
0.00471267
0.00471232
0.00471195
0.00471157
0.00471117
0.00471074
0.00479616
0.0047966
0.00479701
0.00479741
0.00479778
0.00479815
0.00479849
0.00479881
0.00479911
0.0047994
0.00479966
0.00479991
0.00480014
0.00480035
0.00480055
0.00480073
0.00480089
0.00480104
0.00480118
0.0048013
0.00480141
0.0048015
0.00480159
0.00480166
0.00480172
0.00480177
0.00480182
0.00480185
0.00480187
0.00480188
0.00480188
0.00480187
0.00480185
0.00480182
0.00480177
0.00480172
0.00480166
0.00480159
0.0048015
0.00480141
0.0048013
0.00480118
0.00480104
0.00480089
0.00480073
0.00480055
0.00480035
0.00480014
0.00479991
0.00479966
0.0047994
0.00479911
0.00479881
0.00479849
0.00479815
0.00479778
0.00479741
0.00479701
0.0047966
0.00479616
0.00488911
0.00488956
0.00488999
0.00489039
0.00489079
0.00489116
0.00489151
0.00489185
0.00489216
0.00489245
0.00489273
0.00489298
0.00489322
0.00489344
0.00489364
0.00489383
0.004894
0.00489415
0.00489429
0.00489442
0.00489453
0.00489463
0.00489472
0.00489479
0.00489486
0.00489491
0.00489495
0.00489498
0.004895
0.00489501
0.00489501
0.004895
0.00489498
0.00489495
0.00489491
0.00489486
0.00489479
0.00489472
0.00489463
0.00489453
0.00489442
0.00489429
0.00489415
0.004894
0.00489383
0.00489364
0.00489344
0.00489322
0.00489298
0.00489273
0.00489245
0.00489216
0.00489185
0.00489151
0.00489116
0.00489079
0.00489039
0.00488999
0.00488956
0.00488911
0.00499061
0.00499109
0.00499153
0.00499195
0.00499236
0.00499274
0.00499311
0.00499345
0.00499378
0.00499408
0.00499437
0.00499463
0.00499488
0.0049951
0.00499531
0.00499551
0.00499568
0.00499584
0.00499599
0.00499612
0.00499623
0.00499634
0.00499643
0.00499651
0.00499657
0.00499663
0.00499667
0.0049967
0.00499672
0.00499673
0.00499673
0.00499672
0.0049967
0.00499667
0.00499663
0.00499657
0.00499651
0.00499643
0.00499634
0.00499623
0.00499612
0.00499599
0.00499584
0.00499568
0.00499551
0.00499531
0.0049951
0.00499488
0.00499463
0.00499437
0.00499408
0.00499378
0.00499345
0.00499311
0.00499274
0.00499236
0.00499195
0.00499153
0.00499109
0.00499061
0.00510192
0.00510241
0.00510287
0.00510331
0.00510373
0.00510413
0.00510451
0.00510487
0.00510521
0.00510552
0.00510582
0.00510609
0.00510635
0.00510658
0.0051068
0.005107
0.00510718
0.00510735
0.0051075
0.00510764
0.00510776
0.00510786
0.00510796
0.00510804
0.00510811
0.00510816
0.00510821
0.00510824
0.00510827
0.00510828
0.00510828
0.00510827
0.00510824
0.00510821
0.00510816
0.00510811
0.00510804
0.00510796
0.00510786
0.00510776
0.00510764
0.0051075
0.00510735
0.00510718
0.005107
0.0051068
0.00510658
0.00510635
0.00510609
0.00510582
0.00510552
0.00510521
0.00510487
0.00510451
0.00510413
0.00510373
0.00510331
0.00510287
0.00510241
0.00510192
0.00522451
0.00522502
0.0052255
0.00522596
0.0052264
0.00522682
0.00522721
0.00522759
0.00522794
0.00522827
0.00522858
0.00522886
0.00522913
0.00522937
0.0052296
0.00522981
0.00523
0.00523017
0.00523033
0.00523047
0.0052306
0.00523071
0.00523081
0.00523089
0.00523096
0.00523102
0.00523107
0.0052311
0.00523113
0.00523114
0.00523114
0.00523113
0.0052311
0.00523107
0.00523102
0.00523096
0.00523089
0.00523081
0.00523071
0.0052306
0.00523047
0.00523033
0.00523017
0.00523
0.00522981
0.0052296
0.00522937
0.00522913
0.00522886
0.00522858
0.00522827
0.00522794
0.00522759
0.00522721
0.00522682
0.0052264
0.00522596
0.0052255
0.00522502
0.00522451
0.00536021
0.00536075
0.00536125
0.00536173
0.00536219
0.00536262
0.00536304
0.00536343
0.0053638
0.00536414
0.00536447
0.00536477
0.00536504
0.0053653
0.00536554
0.00536576
0.00536596
0.00536614
0.0053663
0.00536645
0.00536658
0.0053667
0.0053668
0.00536689
0.00536697
0.00536703
0.00536708
0.00536711
0.00536714
0.00536715
0.00536715
0.00536714
0.00536711
0.00536708
0.00536703
0.00536697
0.00536689
0.0053668
0.0053667
0.00536658
0.00536645
0.0053663
0.00536614
0.00536596
0.00536576
0.00536554
0.0053653
0.00536504
0.00536477
0.00536447
0.00536414
0.0053638
0.00536343
0.00536304
0.00536262
0.00536219
0.00536173
0.00536125
0.00536075
0.00536021
0.00551127
0.00551184
0.00551236
0.00551286
0.00551335
0.00551381
0.00551424
0.00551466
0.00551504
0.0055154
0.00551574
0.00551606
0.00551635
0.00551662
0.00551687
0.0055171
0.00551731
0.0055175
0.00551767
0.00551783
0.00551797
0.00551809
0.0055182
0.00551829
0.00551837
0.00551844
0.00551849
0.00551853
0.00551855
0.00551857
0.00551857
0.00551855
0.00551853
0.00551849
0.00551844
0.00551837
0.00551829
0.0055182
0.00551809
0.00551797
0.00551783
0.00551767
0.0055175
0.00551731
0.0055171
0.00551687
0.00551662
0.00551635
0.00551606
0.00551574
0.0055154
0.00551504
0.00551466
0.00551424
0.00551381
0.00551335
0.00551286
0.00551236
0.00551184
0.00551127
0.0056805
0.0056811
0.00568165
0.00568218
0.00568269
0.00568318
0.00568364
0.00568408
0.00568449
0.00568487
0.00568523
0.00568556
0.00568587
0.00568615
0.00568642
0.00568666
0.00568688
0.00568708
0.00568727
0.00568743
0.00568758
0.00568771
0.00568782
0.00568792
0.005688
0.00568807
0.00568813
0.00568817
0.0056882
0.00568821
0.00568821
0.0056882
0.00568817
0.00568813
0.00568807
0.005688
0.00568792
0.00568782
0.00568771
0.00568758
0.00568743
0.00568727
0.00568708
0.00568688
0.00568666
0.00568642
0.00568615
0.00568587
0.00568556
0.00568523
0.00568487
0.00568449
0.00568408
0.00568364
0.00568318
0.00568269
0.00568218
0.00568165
0.0056811
0.0056805
0.00587146
0.0058721
0.00587269
0.00587326
0.0058738
0.00587431
0.0058748
0.00587527
0.0058757
0.00587611
0.00587649
0.00587684
0.00587717
0.00587748
0.00587776
0.00587801
0.00587825
0.00587846
0.00587866
0.00587883
0.00587899
0.00587913
0.00587925
0.00587935
0.00587944
0.00587952
0.00587957
0.00587962
0.00587965
0.00587966
0.00587966
0.00587965
0.00587962
0.00587957
0.00587952
0.00587944
0.00587935
0.00587925
0.00587913
0.00587899
0.00587883
0.00587866
0.00587846
0.00587825
0.00587801
0.00587776
0.00587748
0.00587717
0.00587684
0.00587649
0.00587611
0.0058757
0.00587527
0.0058748
0.00587431
0.0058738
0.00587326
0.00587269
0.0058721
0.00587146
0.00608876
0.00608944
0.00609007
0.00609067
0.00609125
0.00609181
0.00609233
0.00609283
0.00609329
0.00609373
0.00609414
0.00609451
0.00609487
0.00609519
0.00609549
0.00609577
0.00609602
0.00609625
0.00609646
0.00609665
0.00609681
0.00609696
0.00609709
0.0060972
0.0060973
0.00609738
0.00609744
0.00609749
0.00609752
0.00609753
0.00609753
0.00609752
0.00609749
0.00609744
0.00609738
0.0060973
0.0060972
0.00609709
0.00609696
0.00609681
0.00609665
0.00609646
0.00609625
0.00609602
0.00609577
0.00609549
0.00609519
0.00609487
0.00609451
0.00609414
0.00609373
0.00609329
0.00609283
0.00609233
0.00609181
0.00609125
0.00609067
0.00609007
0.00608944
0.00608876
0.0063384
0.00633913
0.00633981
0.00634047
0.0063411
0.00634169
0.00634226
0.00634279
0.0063433
0.00634377
0.00634421
0.00634462
0.006345
0.00634535
0.00634567
0.00634597
0.00634624
0.00634649
0.00634671
0.00634692
0.0063471
0.00634726
0.0063474
0.00634752
0.00634762
0.00634771
0.00634777
0.00634782
0.00634786
0.00634787
0.00634787
0.00634786
0.00634782
0.00634777
0.00634771
0.00634762
0.00634752
0.0063474
0.00634726
0.0063471
0.00634692
0.00634671
0.00634649
0.00634624
0.00634597
0.00634567
0.00634535
0.006345
0.00634462
0.00634421
0.00634377
0.0063433
0.00634279
0.00634226
0.00634169
0.0063411
0.00634047
0.00633981
0.00633913
0.0063384
0.00662845
0.00662925
0.00662999
0.00663071
0.00663139
0.00663204
0.00663266
0.00663324
0.00663379
0.0066343
0.00663478
0.00663523
0.00663564
0.00663603
0.00663638
0.0066367
0.006637
0.00663727
0.00663752
0.00663774
0.00663794
0.00663811
0.00663826
0.0066384
0.00663851
0.0066386
0.00663867
0.00663873
0.00663877
0.00663878
0.00663878
0.00663877
0.00663873
0.00663867
0.0066386
0.00663851
0.0066384
0.00663826
0.00663811
0.00663794
0.00663774
0.00663752
0.00663727
0.006637
0.0066367
0.00663638
0.00663603
0.00663564
0.00663523
0.00663478
0.0066343
0.00663379
0.00663324
0.00663266
0.00663204
0.00663139
0.00663071
0.00662999
0.00662925
0.00662845
0.00696994
0.00697081
0.00697163
0.00697242
0.00697317
0.00697389
0.00697457
0.00697522
0.00697582
0.00697639
0.00697692
0.00697741
0.00697787
0.00697829
0.00697868
0.00697904
0.00697937
0.00697967
0.00697994
0.00698018
0.0069804
0.0069806
0.00698077
0.00698091
0.00698104
0.00698114
0.00698122
0.00698128
0.00698132
0.00698134
0.00698134
0.00698132
0.00698128
0.00698122
0.00698114
0.00698104
0.00698091
0.00698077
0.0069806
0.0069804
0.00698018
0.00697994
0.00697967
0.00697937
0.00697904
0.00697868
0.00697829
0.00697787
0.00697741
0.00697692
0.00697639
0.00697582
0.00697522
0.00697457
0.00697389
0.00697317
0.00697242
0.00697163
0.00697081
0.00696994
0.00737827
0.00737925
0.00738017
0.00738105
0.00738189
0.0073827
0.00738346
0.00738418
0.00738486
0.0073855
0.00738609
0.00738664
0.00738716
0.00738763
0.00738807
0.00738847
0.00738884
0.00738918
0.00738948
0.00738975
0.00739
0.00739021
0.0073904
0.00739057
0.00739071
0.00739082
0.00739091
0.00739098
0.00739102
0.00739105
0.00739105
0.00739102
0.00739098
0.00739091
0.00739082
0.00739071
0.00739057
0.0073904
0.00739021
0.00739
0.00738975
0.00738948
0.00738918
0.00738884
0.00738847
0.00738807
0.00738763
0.00738716
0.00738664
0.00738609
0.0073855
0.00738486
0.00738418
0.00738346
0.0073827
0.00738189
0.00738105
0.00738017
0.00737925
0.00737827
0.00787552
0.00787663
0.00787767
0.00787867
0.00787964
0.00788056
0.00788143
0.00788225
0.00788303
0.00788375
0.00788443
0.00788506
0.00788565
0.00788619
0.00788669
0.00788715
0.00788757
0.00788795
0.0078883
0.00788861
0.00788889
0.00788914
0.00788935
0.00788954
0.0078897
0.00788983
0.00788993
0.00789001
0.00789006
0.00789009
0.00789009
0.00789006
0.00789001
0.00788993
0.00788983
0.0078897
0.00788954
0.00788935
0.00788914
0.00788889
0.00788861
0.0078883
0.00788795
0.00788757
0.00788715
0.00788669
0.00788619
0.00788565
0.00788506
0.00788443
0.00788375
0.00788303
0.00788225
0.00788143
0.00788056
0.00787964
0.00787867
0.00787767
0.00787663
0.00787552
0.00849366
0.00849495
0.00849616
0.00849733
0.00849845
0.00849953
0.00850054
0.0085015
0.0085024
0.00850325
0.00850404
0.00850478
0.00850546
0.00850609
0.00850668
0.00850721
0.0085077
0.00850815
0.00850855
0.00850892
0.00850925
0.00850953
0.00850979
0.00851001
0.00851019
0.00851034
0.00851046
0.00851055
0.00851061
0.00851064
0.00851064
0.00851061
0.00851055
0.00851046
0.00851034
0.00851019
0.00851001
0.00850979
0.00850953
0.00850925
0.00850892
0.00850855
0.00850815
0.0085077
0.00850721
0.00850668
0.00850609
0.00850546
0.00850478
0.00850404
0.00850325
0.0085024
0.0085015
0.00850054
0.00849953
0.00849845
0.00849733
0.00849616
0.00849495
0.00849366
0.00927915
0.00928068
0.00928212
0.00928351
0.00928486
0.00928614
0.00928735
0.0092885
0.00928958
0.00929059
0.00929153
0.00929241
0.00929323
0.00929398
0.00929468
0.00929532
0.00929591
0.00929644
0.00929693
0.00929736
0.00929775
0.0092981
0.0092984
0.00929866
0.00929888
0.00929906
0.00929921
0.00929932
0.00929939
0.00929942
0.00929942
0.00929939
0.00929932
0.00929921
0.00929906
0.00929888
0.00929866
0.0092984
0.0092981
0.00929775
0.00929736
0.00929693
0.00929644
0.00929591
0.00929532
0.00929468
0.00929398
0.00929323
0.00929241
0.00929153
0.00929059
0.00928958
0.0092885
0.00928735
0.00928614
0.00928486
0.00928351
0.00928212
0.00928068
0.00927915
0.0102978
0.0102997
0.0103014
0.0103031
0.0103048
0.0103063
0.0103078
0.0103092
0.0103106
0.0103118
0.0103129
0.010314
0.010315
0.0103159
0.0103168
0.0103176
0.0103183
0.010319
0.0103196
0.0103201
0.0103206
0.010321
0.0103214
0.0103217
0.0103219
0.0103222
0.0103223
0.0103225
0.0103226
0.0103226
0.0103226
0.0103226
0.0103225
0.0103223
0.0103222
0.0103219
0.0103217
0.0103214
0.010321
0.0103206
0.0103201
0.0103196
0.010319
0.0103183
0.0103176
0.0103168
0.0103159
0.010315
0.010314
0.0103129
0.0103118
0.0103106
0.0103092
0.0103078
0.0103063
0.0103048
0.0103031
0.0103014
0.0102997
0.0102978
0.0116377
0.01164
0.0116422
0.0116443
0.0116464
0.0116483
0.0116502
0.0116519
0.0116536
0.0116551
0.0116566
0.0116579
0.0116592
0.0116603
0.0116614
0.0116624
0.0116633
0.0116641
0.0116648
0.0116655
0.0116661
0.0116666
0.0116671
0.0116675
0.0116678
0.0116681
0.0116683
0.0116685
0.0116686
0.0116687
0.0116687
0.0116686
0.0116685
0.0116683
0.0116681
0.0116678
0.0116675
0.0116671
0.0116666
0.0116661
0.0116655
0.0116648
0.0116641
0.0116633
0.0116624
0.0116614
0.0116603
0.0116592
0.0116579
0.0116566
0.0116551
0.0116536
0.0116519
0.0116502
0.0116483
0.0116464
0.0116443
0.0116422
0.01164
0.0116377
0.013405
0.0134079
0.0134106
0.0134133
0.0134159
0.0134184
0.0134207
0.0134229
0.013425
0.0134269
0.0134288
0.0134305
0.013432
0.0134335
0.0134348
0.0134361
0.0134372
0.0134382
0.0134392
0.01344
0.0134408
0.0134414
0.013442
0.0134425
0.0134429
0.0134433
0.0134436
0.0134438
0.0134439
0.013444
0.013444
0.0134439
0.0134438
0.0134436
0.0134433
0.0134429
0.0134425
0.013442
0.0134414
0.0134408
0.01344
0.0134392
0.0134382
0.0134372
0.0134361
0.0134348
0.0134335
0.013432
0.0134305
0.0134288
0.0134269
0.013425
0.0134229
0.0134207
0.0134184
0.0134159
0.0134133
0.0134106
0.0134079
0.013405
0.0157075
0.0157111
0.0157146
0.0157179
0.0157212
0.0157243
0.0157272
0.01573
0.0157326
0.015735
0.0157373
0.0157394
0.0157414
0.0157432
0.0157449
0.0157465
0.0157479
0.0157492
0.0157503
0.0157514
0.0157523
0.0157532
0.0157539
0.0157545
0.0157551
0.0157555
0.0157559
0.0157561
0.0157563
0.0157564
0.0157564
0.0157563
0.0157561
0.0157559
0.0157555
0.0157551
0.0157545