/*--------------------------------*- C++ -*----------------------------------*\
| =========                 |                                                 |
| \\      /  F ield         | foam-extend: Open Source CFD                    |
|  \\    /   O peration     | Version:     4.0                                |
|   \\  /    A nd           | Web:         http://www.foam-extend.org         |
|    \\/     M anipulation  |                                                 |
\*---------------------------------------------------------------------------*/
FoamFile
{
    version     2.0;
    format      ascii;
    class       volScalarField;
    location    "1680";
    object      cPlus;
}
// * * * * * * * * * * * * * * * * * * * * * * * * * * * * * * * * * * * * * //

dimensions      [0 0 0 0 0 0 0];

internalField   nonuniform List<scalar> 
6960
(
0.350624
0.350622
0.35062
0.350617
0.350615
0.350612
0.35061
0.350608
0.350605
0.350603
0.350602
0.3506
0.350598
0.350597
0.350595
0.350594
0.350593
0.350592
0.350591
0.35059
0.350589
0.350588
0.350588
0.350587
0.350587
0.350586
0.350586
0.350586
0.350586
0.350586
0.350586
0.350586
0.350586
0.350586
0.350586
0.350587
0.350587
0.350588
0.350588
0.350589
0.35059
0.350591
0.350592
0.350593
0.350594
0.350595
0.350597
0.350598
0.3506
0.350602
0.350603
0.350605
0.350608
0.35061
0.350612
0.350615
0.350617
0.35062
0.350622
0.350624
0.126616
0.126615
0.126613
0.126611
0.126609
0.126607
0.126605
0.126603
0.126601
0.126599
0.126598
0.126596
0.126595
0.126594
0.126593
0.126592
0.126591
0.12659
0.126589
0.126588
0.126587
0.126587
0.126586
0.126586
0.126586
0.126585
0.126585
0.126585
0.126585
0.126585
0.126585
0.126585
0.126585
0.126585
0.126585
0.126586
0.126586
0.126586
0.126587
0.126587
0.126588
0.126589
0.12659
0.126591
0.126592
0.126593
0.126594
0.126595
0.126596
0.126598
0.126599
0.126601
0.126603
0.126605
0.126607
0.126609
0.126611
0.126613
0.126615
0.126616
0.0541094
0.0541085
0.0541072
0.0541058
0.0541043
0.054103
0.0541016
0.0541004
0.0540992
0.0540981
0.054097
0.054096
0.0540951
0.0540942
0.0540934
0.0540927
0.054092
0.0540914
0.0540909
0.0540904
0.0540899
0.0540895
0.0540891
0.0540888
0.0540886
0.0540883
0.0540882
0.054088
0.054088
0.0540879
0.0540879
0.054088
0.054088
0.0540882
0.0540883
0.0540886
0.0540888
0.0540891
0.0540895
0.0540899
0.0540904
0.0540909
0.0540914
0.054092
0.0540927
0.0540934
0.0540942
0.0540951
0.054096
0.054097
0.0540981
0.0540992
0.0541004
0.0541016
0.054103
0.0541043
0.0541058
0.0541072
0.0541085
0.0541094
0.0254
0.0253994
0.0253986
0.0253978
0.0253969
0.0253961
0.0253953
0.0253946
0.0253939
0.0253932
0.0253926
0.025392
0.0253914
0.0253909
0.0253904
0.02539
0.0253896
0.0253892
0.0253889
0.0253886
0.0253883
0.0253881
0.0253879
0.0253877
0.0253875
0.0253874
0.0253873
0.0253872
0.0253871
0.0253871
0.0253871
0.0253871
0.0253872
0.0253873
0.0253874
0.0253875
0.0253877
0.0253879
0.0253881
0.0253883
0.0253886
0.0253889
0.0253892
0.0253896
0.02539
0.0253904
0.0253909
0.0253914
0.025392
0.0253926
0.0253932
0.0253939
0.0253946
0.0253953
0.0253961
0.0253969
0.0253978
0.0253986
0.0253994
0.0254
0.0131354
0.0131352
0.0131348
0.0131344
0.013134
0.0131335
0.0131331
0.0131327
0.0131324
0.013132
0.0131317
0.0131314
0.0131311
0.0131309
0.0131306
0.0131304
0.0131302
0.01313
0.0131298
0.0131297
0.0131295
0.0131294
0.0131293
0.0131292
0.0131291
0.0131291
0.013129
0.013129
0.0131289
0.0131289
0.0131289
0.0131289
0.013129
0.013129
0.0131291
0.0131291
0.0131292
0.0131293
0.0131294
0.0131295
0.0131297
0.0131298
0.01313
0.0131302
0.0131304
0.0131306
0.0131309
0.0131311
0.0131314
0.0131317
0.013132
0.0131324
0.0131327
0.0131331
0.0131335
0.013134
0.0131344
0.0131348
0.0131352
0.0131354
0.00777785
0.0077778
0.00777767
0.00777752
0.00777735
0.00777719
0.00777704
0.00777689
0.00777675
0.00777662
0.0077765
0.00777638
0.00777627
0.00777617
0.00777608
0.007776
0.00777592
0.00777584
0.00777578
0.00777572
0.00777567
0.00777562
0.00777558
0.00777554
0.00777551
0.00777549
0.00777546
0.00777545
0.00777544
0.00777543
0.00777543
0.00777544
0.00777545
0.00777546
0.00777549
0.00777551
0.00777554
0.00777558
0.00777562
0.00777567
0.00777572
0.00777578
0.00777584
0.00777592
0.007776
0.00777608
0.00777617
0.00777627
0.00777638
0.0077765
0.00777662
0.00777675
0.00777689
0.00777704
0.00777719
0.00777735
0.00777752
0.00777767
0.0077778
0.00777785
0.00544723
0.0054473
0.00544732
0.00544733
0.00544733
0.00544732
0.00544732
0.00544731
0.00544731
0.00544731
0.0054473
0.0054473
0.0054473
0.00544729
0.00544729
0.00544729
0.00544728
0.00544728
0.00544728
0.00544728
0.00544728
0.00544728
0.00544727
0.00544727
0.00544727
0.00544727
0.00544727
0.00544727
0.00544727
0.00544727
0.00544727
0.00544727
0.00544727
0.00544727
0.00544727
0.00544727
0.00544727
0.00544727
0.00544728
0.00544728
0.00544728
0.00544728
0.00544728
0.00544728
0.00544729
0.00544729
0.00544729
0.0054473
0.0054473
0.0054473
0.00544731
0.00544731
0.00544731
0.00544732
0.00544732
0.00544733
0.00544733
0.00544732
0.0054473
0.00544723
0.0044547
0.00445483
0.00445494
0.00445504
0.00445512
0.00445521
0.00445529
0.00445536
0.00445544
0.0044555
0.00445557
0.00445562
0.00445568
0.00445573
0.00445578
0.00445582
0.00445586
0.0044559
0.00445593
0.00445596
0.00445599
0.00445602
0.00445604
0.00445606
0.00445607
0.00445608
0.0044561
0.0044561
0.00445611
0.00445611
0.00445611
0.00445611
0.0044561
0.0044561
0.00445608
0.00445607
0.00445606
0.00445604
0.00445602
0.00445599
0.00445596
0.00445593
0.0044559
0.00445586
0.00445582
0.00445578
0.00445573
0.00445568
0.00445562
0.00445557
0.0044555
0.00445544
0.00445536
0.00445529
0.00445521
0.00445512
0.00445504
0.00445494
0.00445483
0.0044547
0.00404924
0.00404941
0.00404956
0.0040497
0.00404984
0.00404997
0.0040501
0.00405022
0.00405033
0.00405043
0.00405053
0.00405062
0.00405071
0.00405079
0.00405086
0.00405093
0.004051
0.00405105
0.00405111
0.00405115
0.0040512
0.00405123
0.00405127
0.0040513
0.00405132
0.00405134
0.00405136
0.00405137
0.00405138
0.00405138
0.00405138
0.00405138
0.00405137
0.00405136
0.00405134
0.00405132
0.0040513
0.00405127
0.00405123
0.0040512
0.00405115
0.00405111
0.00405105
0.004051
0.00405093
0.00405086
0.00405079
0.00405071
0.00405062
0.00405053
0.00405043
0.00405033
0.00405022
0.0040501
0.00404997
0.00404984
0.0040497
0.00404956
0.00404941
0.00404924
0.00389769
0.00389787
0.00389805
0.00389822
0.00389838
0.00389854
0.00389868
0.00389882
0.00389896
0.00389908
0.0038992
0.00389931
0.00389941
0.0038995
0.00389959
0.00389967
0.00389975
0.00389982
0.00389988
0.00389994
0.00389999
0.00390003
0.00390007
0.00390011
0.00390014
0.00390016
0.00390018
0.00390019
0.0039002
0.00390021
0.00390021
0.0039002
0.00390019
0.00390018
0.00390016
0.00390014
0.00390011
0.00390007
0.00390003
0.00389999
0.00389994
0.00389988
0.00389982
0.00389975
0.00389967
0.00389959
0.0038995
0.00389941
0.00389931
0.0038992
0.00389908
0.00389896
0.00389882
0.00389868
0.00389854
0.00389838
0.00389822
0.00389805
0.00389787
0.00389769
0.00385431
0.00385451
0.0038547
0.00385488
0.00385505
0.00385522
0.00385538
0.00385553
0.00385567
0.00385581
0.00385593
0.00385605
0.00385616
0.00385627
0.00385636
0.00385645
0.00385653
0.00385661
0.00385667
0.00385673
0.00385679
0.00385684
0.00385688
0.00385692
0.00385695
0.00385698
0.003857
0.00385701
0.00385702
0.00385703
0.00385703
0.00385702
0.00385701
0.003857
0.00385698
0.00385695
0.00385692
0.00385688
0.00385684
0.00385679
0.00385673
0.00385667
0.00385661
0.00385653
0.00385645
0.00385636
0.00385627
0.00385616
0.00385605
0.00385593
0.00385581
0.00385567
0.00385553
0.00385538
0.00385522
0.00385505
0.00385488
0.0038547
0.00385451
0.00385431
0.00385664
0.00385684
0.00385704
0.00385723
0.00385741
0.00385758
0.00385775
0.00385791
0.00385805
0.00385819
0.00385833
0.00385845
0.00385857
0.00385867
0.00385877
0.00385886
0.00385895
0.00385903
0.0038591
0.00385916
0.00385922
0.00385927
0.00385931
0.00385935
0.00385938
0.00385941
0.00385943
0.00385945
0.00385946
0.00385947
0.00385947
0.00385946
0.00385945
0.00385943
0.00385941
0.00385938
0.00385935
0.00385931
0.00385927
0.00385922
0.00385916
0.0038591
0.00385903
0.00385895
0.00385886
0.00385877
0.00385867
0.00385857
0.00385845
0.00385833
0.00385819
0.00385805
0.00385791
0.00385775
0.00385758
0.00385741
0.00385723
0.00385704
0.00385684
0.00385664
0.00387853
0.00387874
0.00387894
0.00387913
0.00387932
0.00387949
0.00387966
0.00387983
0.00387998
0.00388012
0.00388026
0.00388038
0.0038805
0.00388061
0.00388071
0.00388081
0.00388089
0.00388097
0.00388105
0.00388111
0.00388117
0.00388122
0.00388127
0.00388131
0.00388134
0.00388137
0.00388139
0.00388141
0.00388142
0.00388142
0.00388142
0.00388142
0.00388141
0.00388139
0.00388137
0.00388134
0.00388131
0.00388127
0.00388122
0.00388117
0.00388111
0.00388105
0.00388097
0.00388089
0.00388081
0.00388071
0.00388061
0.0038805
0.00388038
0.00388026
0.00388012
0.00387998
0.00387983
0.00387966
0.00387949
0.00387932
0.00387913
0.00387894
0.00387874
0.00387853
0.00390935
0.00390956
0.00390977
0.00390996
0.00391015
0.00391034
0.00391051
0.00391067
0.00391083
0.00391098
0.00391111
0.00391124
0.00391136
0.00391147
0.00391158
0.00391167
0.00391176
0.00391184
0.00391192
0.00391198
0.00391204
0.00391209
0.00391214
0.00391218
0.00391222
0.00391224
0.00391227
0.00391228
0.0039123
0.0039123
0.0039123
0.0039123
0.00391228
0.00391227
0.00391224
0.00391222
0.00391218
0.00391214
0.00391209
0.00391204
0.00391198
0.00391192
0.00391184
0.00391176
0.00391167
0.00391158
0.00391147
0.00391136
0.00391124
0.00391111
0.00391098
0.00391083
0.00391067
0.00391051
0.00391034
0.00391015
0.00390996
0.00390977
0.00390956
0.00390935
0.00394495
0.00394517
0.00394538
0.00394558
0.00394577
0.00394596
0.00394613
0.0039463
0.00394646
0.00394661
0.00394675
0.00394688
0.003947
0.00394711
0.00394722
0.00394732
0.0039474
0.00394749
0.00394756
0.00394763
0.00394769
0.00394774
0.00394779
0.00394783
0.00394787
0.0039479
0.00394792
0.00394794
0.00394795
0.00394795
0.00394795
0.00394795
0.00394794
0.00394792
0.0039479
0.00394787
0.00394783
0.00394779
0.00394774
0.00394769
0.00394763
0.00394756
0.00394749
0.0039474
0.00394732
0.00394722
0.00394711
0.003947
0.00394688
0.00394675
0.00394661
0.00394646
0.0039463
0.00394613
0.00394596
0.00394577
0.00394558
0.00394538
0.00394517
0.00394495
0.00398384
0.00398406
0.00398427
0.00398447
0.00398466
0.00398485
0.00398503
0.0039852
0.00398536
0.00398551
0.00398565
0.00398579
0.00398591
0.00398603
0.00398613
0.00398623
0.00398632
0.00398641
0.00398648
0.00398655
0.00398661
0.00398667
0.00398672
0.00398676
0.00398679
0.00398682
0.00398685
0.00398686
0.00398688
0.00398688
0.00398688
0.00398688
0.00398686
0.00398685
0.00398682
0.00398679
0.00398676
0.00398672
0.00398667
0.00398661
0.00398655
0.00398648
0.00398641
0.00398632
0.00398623
0.00398613
0.00398603
0.00398591
0.00398579
0.00398565
0.00398551
0.00398536
0.0039852
0.00398503
0.00398485
0.00398466
0.00398447
0.00398427
0.00398406
0.00398384
0.00402555
0.00402577
0.00402599
0.00402619
0.00402639
0.00402658
0.00402676
0.00402694
0.0040271
0.00402725
0.0040274
0.00402753
0.00402766
0.00402778
0.00402788
0.00402798
0.00402808
0.00402816
0.00402824
0.00402831
0.00402837
0.00402843
0.00402848
0.00402852
0.00402855
0.00402858
0.00402861
0.00402863
0.00402864
0.00402864
0.00402864
0.00402864
0.00402863
0.00402861
0.00402858
0.00402855
0.00402852
0.00402848
0.00402843
0.00402837
0.00402831
0.00402824
0.00402816
0.00402808
0.00402798
0.00402788
0.00402778
0.00402766
0.00402753
0.0040274
0.00402725
0.0040271
0.00402694
0.00402676
0.00402658
0.00402639
0.00402619
0.00402599
0.00402577
0.00402555
0.00407007
0.0040703
0.00407052
0.00407073
0.00407093
0.00407113
0.00407131
0.00407149
0.00407165
0.00407181
0.00407196
0.00407209
0.00407222
0.00407234
0.00407245
0.00407255
0.00407265
0.00407273
0.00407281
0.00407288
0.00407295
0.004073
0.00407305
0.0040731
0.00407313
0.00407316
0.00407319
0.00407321
0.00407322
0.00407322
0.00407322
0.00407322
0.00407321
0.00407319
0.00407316
0.00407313
0.0040731
0.00407305
0.004073
0.00407295
0.00407288
0.00407281
0.00407273
0.00407265
0.00407255
0.00407245
0.00407234
0.00407222
0.00407209
0.00407196
0.00407181
0.00407165
0.00407149
0.00407131
0.00407113
0.00407093
0.00407073
0.00407052
0.0040703
0.00407007
0.00411758
0.00411781
0.00411803
0.00411825
0.00411845
0.00411865
0.00411884
0.00411902
0.00411919
0.00411935
0.00411949
0.00411963
0.00411976
0.00411989
0.00412
0.0041201
0.0041202
0.00412029
0.00412037
0.00412044
0.0041205
0.00412056
0.00412061
0.00412066
0.00412069
0.00412072
0.00412075
0.00412077
0.00412078
0.00412079
0.00412079
0.00412078
0.00412077
0.00412075
0.00412072
0.00412069
0.00412066
0.00412061
0.00412056
0.0041205
0.00412044
0.00412037
0.00412029
0.0041202
0.0041201
0.00412
0.00411989
0.00411976
0.00411963
0.00411949
0.00411935
0.00411919
0.00411902
0.00411884
0.00411865
0.00411845
0.00411825
0.00411803
0.00411781
0.00411758
0.00416831
0.00416855
0.00416878
0.00416899
0.0041692
0.0041694
0.0041696
0.00416978
0.00416995
0.00417011
0.00417026
0.00417041
0.00417054
0.00417066
0.00417078
0.00417088
0.00417098
0.00417107
0.00417115
0.00417123
0.00417129
0.00417135
0.0041714
0.00417145
0.00417149
0.00417152
0.00417154
0.00417156
0.00417157
0.00417158
0.00417158
0.00417157
0.00417156
0.00417154
0.00417152
0.00417149
0.00417145
0.0041714
0.00417135
0.00417129
0.00417123
0.00417115
0.00417107
0.00417098
0.00417088
0.00417078
0.00417066
0.00417054
0.00417041
0.00417026
0.00417011
0.00416995
0.00416978
0.0041696
0.0041694
0.0041692
0.00416899
0.00416878
0.00416855
0.00416831
0.00422258
0.00422282
0.00422305
0.00422327
0.00422349
0.00422369
0.00422389
0.00422408
0.00422425
0.00422442
0.00422457
0.00422472
0.00422485
0.00422498
0.0042251
0.0042252
0.0042253
0.0042254
0.00422548
0.00422555
0.00422562
0.00422568
0.00422573
0.00422578
0.00422582
0.00422585
0.00422588
0.0042259
0.00422591
0.00422592
0.00422592
0.00422591
0.0042259
0.00422588
0.00422585
0.00422582
0.00422578
0.00422573
0.00422568
0.00422562
0.00422555
0.00422548
0.0042254
0.0042253
0.0042252
0.0042251
0.00422498
0.00422485
0.00422472
0.00422457
0.00422442
0.00422425
0.00422408
0.00422389
0.00422369
0.00422349
0.00422327
0.00422305
0.00422282
0.00422258
0.00428074
0.00428099
0.00428123
0.00428145
0.00428167
0.00428188
0.00428208
0.00428227
0.00428245
0.00428262
0.00428278
0.00428293
0.00428307
0.0042832
0.00428332
0.00428343
0.00428353
0.00428362
0.00428371
0.00428378
0.00428385
0.00428391
0.00428397
0.00428401
0.00428405
0.00428409
0.00428411
0.00428413
0.00428415
0.00428415
0.00428415
0.00428415
0.00428413
0.00428411
0.00428409
0.00428405
0.00428401
0.00428397
0.00428391
0.00428385
0.00428378
0.00428371
0.00428362
0.00428353
0.00428343
0.00428332
0.0042832
0.00428307
0.00428293
0.00428278
0.00428262
0.00428245
0.00428227
0.00428208
0.00428188
0.00428167
0.00428145
0.00428123
0.00428099
0.00428074
0.00434322
0.00434347
0.00434371
0.00434394
0.00434417
0.00434438
0.00434459
0.00434478
0.00434497
0.00434514
0.0043453
0.00434545
0.0043456
0.00434573
0.00434585
0.00434596
0.00434607
0.00434616
0.00434625
0.00434633
0.0043464
0.00434646
0.00434652
0.00434657
0.00434661
0.00434664
0.00434667
0.00434669
0.0043467
0.00434671
0.00434671
0.0043467
0.00434669
0.00434667
0.00434664
0.00434661
0.00434657
0.00434652
0.00434646
0.0043464
0.00434633
0.00434625
0.00434616
0.00434607
0.00434596
0.00434585
0.00434573
0.0043456
0.00434545
0.0043453
0.00434514
0.00434497
0.00434478
0.00434459
0.00434438
0.00434417
0.00434394
0.00434371
0.00434347
0.00434322
0.00441048
0.00441074
0.00441099
0.00441123
0.00441146
0.00441168
0.00441189
0.00441209
0.00441228
0.00441245
0.00441262
0.00441277
0.00441292
0.00441306
0.00441318
0.0044133
0.0044134
0.0044135
0.00441359
0.00441367
0.00441374
0.00441381
0.00441387
0.00441392
0.00441396
0.00441399
0.00441402
0.00441404
0.00441405
0.00441406
0.00441406
0.00441405
0.00441404
0.00441402
0.00441399
0.00441396
0.00441392
0.00441387
0.00441381
0.00441374
0.00441367
0.00441359
0.0044135
0.0044134
0.0044133
0.00441318
0.00441306
0.00441292
0.00441277
0.00441262
0.00441245
0.00441228
0.00441209
0.00441189
0.00441168
0.00441146
0.00441123
0.00441099
0.00441074
0.00441048
0.00448309
0.00448336
0.00448362
0.00448386
0.0044841
0.00448432
0.00448454
0.00448474
0.00448494
0.00448512
0.00448529
0.00448545
0.0044856
0.00448574
0.00448587
0.00448599
0.0044861
0.0044862
0.00448629
0.00448637
0.00448645
0.00448651
0.00448657
0.00448662
0.00448666
0.0044867
0.00448673
0.00448675
0.00448676
0.00448677
0.00448677
0.00448676
0.00448675
0.00448673
0.0044867
0.00448666
0.00448662
0.00448657
0.00448651
0.00448645
0.00448637
0.00448629
0.0044862
0.0044861
0.00448599
0.00448587
0.00448574
0.0044856
0.00448545
0.00448529
0.00448512
0.00448494
0.00448474
0.00448454
0.00448432
0.0044841
0.00448386
0.00448362
0.00448336
0.00448309
0.0045617
0.00456198
0.00456224
0.00456249
0.00456273
0.00456297
0.00456319
0.0045634
0.0045636
0.00456378
0.00456396
0.00456413
0.00456428
0.00456442
0.00456456
0.00456468
0.00456479
0.00456489
0.00456499
0.00456507
0.00456515
0.00456522
0.00456528
0.00456533
0.00456537
0.00456541
0.00456544
0.00456546
0.00456548
0.00456548
0.00456548
0.00456548
0.00456546
0.00456544
0.00456541
0.00456537
0.00456533
0.00456528
0.00456522
0.00456515
0.00456507
0.00456499
0.00456489
0.00456479
0.00456468
0.00456456
0.00456442
0.00456428
0.00456413
0.00456396
0.00456378
0.0045636
0.0045634
0.00456319
0.00456297
0.00456273
0.00456249
0.00456224
0.00456198
0.0045617
0.00464706
0.00464735
0.00464762
0.00464788
0.00464813
0.00464837
0.0046486
0.00464882
0.00464902
0.00464921
0.0046494
0.00464957
0.00464972
0.00464987
0.00465001
0.00465014
0.00465025
0.00465036
0.00465046
0.00465054
0.00465062
0.00465069
0.00465076
0.00465081
0.00465085
0.00465089
0.00465092
0.00465094
0.00465096
0.00465097
0.00465097
0.00465096
0.00465094
0.00465092
0.00465089
0.00465085
0.00465081
0.00465076
0.00465069
0.00465062
0.00465054
0.00465046
0.00465036
0.00465025
0.00465014
0.00465001
0.00464987
0.00464972
0.00464957
0.0046494
0.00464921
0.00464902
0.00464882
0.0046486
0.00464837
0.00464813
0.00464788
0.00464762
0.00464735
0.00464706
0.00474008
0.00474038
0.00474066
0.00474093
0.00474119
0.00474144
0.00474167
0.0047419
0.00474211
0.00474231
0.0047425
0.00474267
0.00474284
0.00474299
0.00474313
0.00474326
0.00474338
0.00474349
0.00474359
0.00474368
0.00474377
0.00474384
0.0047439
0.00474396
0.00474401
0.00474404
0.00474408
0.0047441
0.00474411
0.00474412
0.00474412
0.00474411
0.0047441
0.00474408
0.00474404
0.00474401
0.00474396
0.0047439
0.00474384
0.00474377
0.00474368
0.00474359
0.00474349
0.00474338
0.00474326
0.00474313
0.00474299
0.00474284
0.00474267
0.0047425
0.00474231
0.00474211
0.0047419
0.00474167
0.00474144
0.00474119
0.00474093
0.00474066
0.00474038
0.00474008
0.00484183
0.00484214
0.00484243
0.00484271
0.00484298
0.00484324
0.00484348
0.00484371
0.00484393
0.00484414
0.00484434
0.00484452
0.00484469
0.00484485
0.00484499
0.00484513
0.00484525
0.00484537
0.00484547
0.00484557
0.00484565
0.00484573
0.00484579
0.00484585
0.0048459
0.00484594
0.00484597
0.004846
0.00484601
0.00484602
0.00484602
0.00484601
0.004846
0.00484597
0.00484594
0.0048459
0.00484585
0.00484579
0.00484573
0.00484565
0.00484557
0.00484547
0.00484537
0.00484525
0.00484513
0.00484499
0.00484485
0.00484469
0.00484452
0.00484434
0.00484414
0.00484393
0.00484371
0.00484348
0.00484324
0.00484298
0.00484271
0.00484243
0.00484214
0.00484183
0.0049536
0.00495393
0.00495423
0.00495452
0.0049548
0.00495506
0.00495532
0.00495556
0.00495579
0.004956
0.00495621
0.0049564
0.00495657
0.00495674
0.00495689
0.00495703
0.00495716
0.00495728
0.00495739
0.00495749
0.00495758
0.00495766
0.00495773
0.00495778
0.00495784
0.00495788
0.00495791
0.00495794
0.00495795
0.00495796
0.00495796
0.00495795
0.00495794
0.00495791
0.00495788
0.00495784
0.00495778
0.00495773
0.00495766
0.00495758
0.00495749
0.00495739
0.00495728
0.00495716
0.00495703
0.00495689
0.00495674
0.00495657
0.0049564
0.00495621
0.004956
0.00495579
0.00495556
0.00495532
0.00495506
0.0049548
0.00495452
0.00495423
0.00495393
0.0049536
0.00507696
0.00507729
0.00507761
0.00507791
0.0050782
0.00507848
0.00507875
0.005079
0.00507924
0.00507947
0.00507968
0.00507988
0.00508006
0.00508023
0.00508039
0.00508054
0.00508068
0.0050808
0.00508091
0.00508102
0.00508111
0.00508119
0.00508126
0.00508132
0.00508138
0.00508142
0.00508146
0.00508148
0.0050815
0.00508151
0.00508151
0.0050815
0.00508148
0.00508146
0.00508142
0.00508138
0.00508132
0.00508126
0.00508119
0.00508111
0.00508102
0.00508091
0.0050808
0.00508068
0.00508054
0.00508039
0.00508023
0.00508006
0.00507988
0.00507968
0.00507947
0.00507924
0.005079
0.00507875
0.00507848
0.0050782
0.00507791
0.00507761
0.00507729
0.00507696
0.00521382
0.00521417
0.0052145
0.00521482
0.00521512
0.00521542
0.0052157
0.00521596
0.00521621
0.00521645
0.00521667
0.00521688
0.00521707
0.00521725
0.00521742
0.00521757
0.00521772
0.00521785
0.00521796
0.00521807
0.00521817
0.00521826
0.00521833
0.0052184
0.00521845
0.0052185
0.00521854
0.00521856
0.00521858
0.00521859
0.00521859
0.00521858
0.00521856
0.00521854
0.0052185
0.00521845
0.0052184
0.00521833
0.00521826
0.00521817
0.00521807
0.00521796
0.00521785
0.00521772
0.00521757
0.00521742
0.00521725
0.00521707
0.00521688
0.00521667
0.00521645
0.00521621
0.00521596
0.0052157
0.00521542
0.00521512
0.00521482
0.0052145
0.00521417
0.00521382
0.00536656
0.00536694
0.00536728
0.00536762
0.00536794
0.00536825
0.00536854
0.00536882
0.00536909
0.00536934
0.00536957
0.00536979
0.00536999
0.00537018
0.00537036
0.00537052
0.00537067
0.00537081
0.00537094
0.00537105
0.00537115
0.00537124
0.00537132
0.00537139
0.00537145
0.0053715
0.00537154
0.00537157
0.00537158
0.00537159
0.00537159
0.00537158
0.00537157
0.00537154
0.0053715
0.00537145
0.00537139
0.00537132
0.00537124
0.00537115
0.00537105
0.00537094
0.00537081
0.00537067
0.00537052
0.00537036
0.00537018
0.00536999
0.00536979
0.00536957
0.00536934
0.00536909
0.00536882
0.00536854
0.00536825
0.00536794
0.00536762
0.00536728
0.00536694
0.00536656
0.0055382
0.00553859
0.00553896
0.00553932
0.00553966
0.00553998
0.0055403
0.00554059
0.00554087
0.00554113
0.00554138
0.00554161
0.00554183
0.00554203
0.00554222
0.00554239
0.00554255
0.0055427
0.00554283
0.00554295
0.00554306
0.00554315
0.00554324
0.00554331
0.00554337
0.00554342
0.00554347
0.0055435
0.00554352
0.00554353
0.00554353
0.00554352
0.0055435
0.00554347
0.00554342
0.00554337
0.00554331
0.00554324
0.00554315
0.00554306
0.00554295
0.00554283
0.0055427
0.00554255
0.00554239
0.00554222
0.00554203
0.00554183
0.00554161
0.00554138
0.00554113
0.00554087
0.00554059
0.0055403
0.00553998
0.00553966
0.00553932
0.00553896
0.00553859
0.0055382
0.00573254
0.00573297
0.00573336
0.00573374
0.0057341
0.00573445
0.00573478
0.0057351
0.00573539
0.00573567
0.00573594
0.00573619
0.00573642
0.00573663
0.00573683
0.00573701
0.00573718
0.00573734
0.00573748
0.00573761
0.00573772
0.00573783
0.00573792
0.005738
0.00573806
0.00573812
0.00573816
0.00573819
0.00573822
0.00573823
0.00573823
0.00573822
0.00573819
0.00573816
0.00573812
0.00573806
0.005738
0.00573792
0.00573783
0.00573772
0.00573761
0.00573748
0.00573734
0.00573718
0.00573701
0.00573683
0.00573663
0.00573642
0.00573619
0.00573594
0.00573567
0.00573539
0.0057351
0.00573478
0.00573445
0.0057341
0.00573374
0.00573336
0.00573297
0.00573254
0.00595457
0.00595502
0.00595544
0.00595585
0.00595624
0.00595661
0.00595697
0.00595731
0.00595763
0.00595793
0.00595821
0.00595848
0.00595873
0.00595896
0.00595917
0.00595937
0.00595955
0.00595972
0.00595987
0.00596001
0.00596013
0.00596024
0.00596034
0.00596042
0.0059605
0.00596056
0.0059606
0.00596064
0.00596066
0.00596067
0.00596067
0.00596066
0.00596064
0.0059606
0.00596056
0.0059605
0.00596042
0.00596034
0.00596024
0.00596013
0.00596001
0.00595987
0.00595972
0.00595955
0.00595937
0.00595917
0.00595896
0.00595873
0.00595848
0.00595821
0.00595793
0.00595763
0.00595731
0.00595697
0.00595661
0.00595624
0.00595585
0.00595544
0.00595502
0.00595457
0.00621084
0.00621133
0.00621178
0.00621222
0.00621265
0.00621305
0.00621344
0.00621381
0.00621415
0.00621448
0.00621479
0.00621508
0.00621535
0.0062156
0.00621583
0.00621604
0.00621624
0.00621642
0.00621659
0.00621674
0.00621687
0.00621699
0.0062171
0.00621719
0.00621726
0.00621733
0.00621738
0.00621742
0.00621744
0.00621746
0.00621746
0.00621744
0.00621742
0.00621738
0.00621733
0.00621726
0.00621719
0.0062171
0.00621699
0.00621687
0.00621674
0.00621659
0.00621642
0.00621624
0.00621604
0.00621583
0.0062156
0.00621535
0.00621508
0.00621479
0.00621448
0.00621415
0.00621381
0.00621344
0.00621305
0.00621265
0.00621222
0.00621178
0.00621133
0.00621084
0.00651022
0.00651076
0.00651126
0.00651174
0.0065122
0.00651265
0.00651307
0.00651347
0.00651385
0.00651421
0.00651455
0.00651487
0.00651516
0.00651544
0.00651569
0.00651593
0.00651614
0.00651634
0.00651652
0.00651669
0.00651683
0.00651696
0.00651708
0.00651718
0.00651727
0.00651734
0.00651739
0.00651743
0.00651746
0.00651747
0.00651747
0.00651746
0.00651743
0.00651739
0.00651734
0.00651727
0.00651718
0.00651708
0.00651696
0.00651683
0.00651669
0.00651652
0.00651634
0.00651614
0.00651593
0.00651569
0.00651544
0.00651516
0.00651487
0.00651455
0.00651421
0.00651385
0.00651347
0.00651307
0.00651265
0.0065122
0.00651174
0.00651126
0.00651076
0.00651022
0.00686497
0.00686556
0.00686611
0.00686665
0.00686717
0.00686766
0.00686813
0.00686858
0.006869
0.0068694
0.00686977
0.00687013
0.00687045
0.00687076
0.00687104
0.0068713
0.00687154
0.00687177
0.00687197
0.00687215
0.00687231
0.00687246
0.00687259
0.0068727
0.00687279
0.00687287
0.00687293
0.00687298
0.00687301
0.00687302
0.00687302
0.00687301
0.00687298
0.00687293
0.00687287
0.00687279
0.0068727
0.00687259
0.00687246
0.00687231
0.00687215
0.00687197
0.00687177
0.00687154
0.0068713
0.00687104
0.00687076
0.00687045
0.00687013
0.00686977
0.0068694
0.006869
0.00686858
0.00686813
0.00686766
0.00686717
0.00686665
0.00686611
0.00686556
0.00686497
0.00729238
0.00729305
0.00729367
0.00729427
0.00729486
0.00729542
0.00729595
0.00729645
0.00729693
0.00729738
0.0072978
0.0072982
0.00729857
0.00729891
0.00729923
0.00729953
0.0072998
0.00730005
0.00730028
0.00730049
0.00730067
0.00730083
0.00730098
0.0073011
0.00730121
0.0073013
0.00730137
0.00730142
0.00730146
0.00730148
0.00730148
0.00730146
0.00730142
0.00730137
0.0073013
0.00730121
0.0073011
0.00730098
0.00730083
0.00730067
0.00730049
0.00730028
0.00730005
0.0072998
0.00729953
0.00729923
0.00729891
0.00729857
0.0072982
0.0072978
0.00729738
0.00729693
0.00729645
0.00729595
0.00729542
0.00729486
0.00729427
0.00729367
0.00729305
0.00729238
0.00781737
0.00781813
0.00781885
0.00781954
0.00782021
0.00782086
0.00782147
0.00782205
0.0078226
0.00782312
0.00782361
0.00782406
0.00782449
0.00782489
0.00782525
0.0078256
0.00782591
0.0078262
0.00782646
0.0078267
0.00782691
0.0078271
0.00782726
0.00782741
0.00782753
0.00782763
0.00782772
0.00782778
0.00782782
0.00782784
0.00782784
0.00782782
0.00782778
0.00782772
0.00782763
0.00782753
0.00782741
0.00782726
0.0078271
0.00782691
0.0078267
0.00782646
0.0078262
0.00782591
0.0078256
0.00782525
0.00782489
0.00782449
0.00782406
0.00782361
0.00782312
0.0078226
0.00782205
0.00782147
0.00782086
0.00782021
0.00781954
0.00781885
0.00781813
0.00781737
0.00847612
0.00847701
0.00847785
0.00847867
0.00847946
0.00848021
0.00848094
0.00848162
0.00848227
0.00848288
0.00848345
0.00848399
0.0084845
0.00848496
0.0084854
0.0084858
0.00848617
0.00848651
0.00848682
0.0084871
0.00848735
0.00848757
0.00848777
0.00848794
0.00848808
0.0084882
0.0084883
0.00848837
0.00848842
0.00848844
0.00848844
0.00848842
0.00848837
0.0084883
0.0084882
0.00848808
0.00848794
0.00848777
0.00848757
0.00848735
0.0084871
0.00848682
0.00848651
0.00848617
0.0084858
0.0084854
0.00848496
0.0084845
0.00848399
0.00848345
0.00848288
0.00848227
0.00848162
0.00848094
0.00848021
0.00847946
0.00847867
0.00847785
0.00847701
0.00847612
0.00932071
0.00932178
0.00932279
0.00932378
0.00932473
0.00932565
0.00932652
0.00932734
0.00932813
0.00932886
0.00932956
0.00933021
0.00933081
0.00933138
0.0093319
0.00933239
0.00933284
0.00933325
0.00933362
0.00933396
0.00933426
0.00933453
0.00933477
0.00933497
0.00933515
0.00933529
0.00933541
0.0093355
0.00933555
0.00933558
0.00933558
0.00933555
0.0093355
0.00933541
0.00933529
0.00933515
0.00933497
0.00933477
0.00933453
0.00933426
0.00933396
0.00933362
0.00933325
0.00933284
0.00933239
0.0093319
0.00933138
0.00933081
0.00933021
0.00932956
0.00932886
0.00932813
0.00932734
0.00932652
0.00932565
0.00932473
0.00932378
0.00932279
0.00932178
0.00932071
0.0104234
0.0104247
0.0104259
0.0104272
0.0104283
0.0104295
0.0104305
0.0104316
0.0104325
0.0104334
0.0104343
0.0104351
0.0104358
0.0104365
0.0104372
0.0104378
0.0104383
0.0104389
0.0104393
0.0104397
0.0104401
0.0104404
0.0104407
0.010441
0.0104412
0.0104414
0.0104415
0.0104416
0.0104417
0.0104417
0.0104417
0.0104417
0.0104416
0.0104415
0.0104414
0.0104412
0.010441
0.0104407
0.0104404
0.0104401
0.0104397
0.0104393
0.0104389
0.0104383
0.0104378
0.0104372
0.0104365
0.0104358
0.0104351
0.0104343
0.0104334
0.0104325
0.0104316
0.0104305
0.0104295
0.0104283
0.0104272
0.0104259
0.0104247
0.0104234
0.011877
0.0118786
0.0118801
0.0118817
0.0118831
0.0118846
0.0118859
0.0118872
0.0118884
0.0118895
0.0118906
0.0118916
0.0118926
0.0118934
0.0118943
0.011895
0.0118957
0.0118963
0.0118969
0.0118974
0.0118979
0.0118983
0.0118987
0.011899
0.0118993
0.0118995
0.0118997
0.0118998
0.0118999
0.0119
0.0119
0.0118999
0.0118998
0.0118997
0.0118995
0.0118993
0.011899
0.0118987
0.0118983
0.0118979
0.0118974
0.0118969
0.0118963
0.0118957
0.011895
0.0118943
0.0118934
0.0118926
0.0118916
0.0118906
0.0118895
0.0118884
0.0118872
0.0118859
0.0118846
0.0118831
0.0118817
0.0118801
0.0118786
0.011877
0.0137862
0.0137883
0.0137902
0.0137922
0.013794
0.0137958
0.0137975
0.0137991
0.0138007
0.0138021
0.0138034
0.0138047
0.0138059
0.013807
0.013808
0.013809
0.0138098
0.0138106
0.0138114
0.013812
0.0138126
0.0138132
0.0138136
0.013814
0.0138144
0.0138147
0.0138149
0.013815
0.0138152
0.0138152
0.0138152