/*--------------------------------*- C++ -*----------------------------------*\
| =========                 |                                                 |
| \\      /  F ield         | foam-extend: Open Source CFD                    |
|  \\    /   O peration     | Version:     4.0                                |
|   \\  /    A nd           | Web:         http://www.foam-extend.org         |
|    \\/     M anipulation  |                                                 |
\*---------------------------------------------------------------------------*/
FoamFile
{
    version     2.0;
    format      ascii;
    class       volScalarField;
    location    "1240";
    object      cPlus;
}
// * * * * * * * * * * * * * * * * * * * * * * * * * * * * * * * * * * * * * //

dimensions      [0 0 0 0 0 0 0];

internalField   nonuniform List<scalar> 
6960
(
0.299901
0.299879
0.299854
0.29983
0.299809
0.299791
0.299776
0.299763
0.299753
0.299744
0.299737
0.299731
0.299727
0.299723
0.29972
0.299717
0.299715
0.299714
0.299712
0.299711
0.29971
0.29971
0.299709
0.299709
0.299708
0.299708
0.299708
0.299708
0.299708
0.299708
0.299708
0.299708
0.299708
0.299708
0.299708
0.299708
0.299709
0.299709
0.29971
0.29971
0.299711
0.299712
0.299714
0.299715
0.299717
0.29972
0.299723
0.299727
0.299731
0.299737
0.299744
0.299753
0.299763
0.299776
0.299791
0.299809
0.29983
0.299854
0.299879
0.299901
0.0899175
0.0899039
0.0898883
0.0898735
0.0898605
0.0898493
0.0898398
0.0898319
0.0898253
0.0898199
0.0898155
0.0898119
0.0898089
0.0898065
0.0898046
0.089803
0.0898018
0.0898008
0.0897999
0.0897993
0.0897987
0.0897983
0.089798
0.0897977
0.0897975
0.0897973
0.0897972
0.0897971
0.0897971
0.089797
0.089797
0.0897971
0.0897971
0.0897972
0.0897973
0.0897975
0.0897977
0.089798
0.0897983
0.0897987
0.0897993
0.0897999
0.0898008
0.0898018
0.089803
0.0898046
0.0898065
0.0898089
0.0898119
0.0898155
0.0898199
0.0898253
0.0898319
0.0898398
0.0898493
0.0898605
0.0898735
0.0898883
0.0899039
0.0899175
0.0331226
0.0331167
0.0331096
0.0331028
0.0330968
0.0330916
0.0330872
0.0330836
0.0330805
0.033078
0.033076
0.0330743
0.0330729
0.0330718
0.0330709
0.0330702
0.0330696
0.0330691
0.0330687
0.0330684
0.0330682
0.033068
0.0330678
0.0330677
0.0330676
0.0330675
0.0330674
0.0330674
0.0330674
0.0330674
0.0330674
0.0330674
0.0330674
0.0330674
0.0330675
0.0330676
0.0330677
0.0330678
0.033068
0.0330682
0.0330684
0.0330687
0.0330691
0.0330696
0.0330702
0.0330709
0.0330718
0.0330729
0.0330743
0.033076
0.033078
0.0330805
0.0330836
0.0330872
0.0330916
0.0330968
0.0331028
0.0331096
0.0331167
0.0331226
0.0155662
0.0155648
0.0155627
0.0155607
0.0155588
0.0155572
0.0155558
0.0155547
0.0155537
0.0155529
0.0155522
0.0155517
0.0155513
0.0155509
0.0155506
0.0155504
0.0155502
0.01555
0.0155499
0.0155498
0.0155497
0.0155497
0.0155496
0.0155496
0.0155495
0.0155495
0.0155495
0.0155495
0.0155495
0.0155495
0.0155495
0.0155495
0.0155495
0.0155495
0.0155495
0.0155495
0.0155496
0.0155496
0.0155497
0.0155497
0.0155498
0.0155499
0.01555
0.0155502
0.0155504
0.0155506
0.0155509
0.0155513
0.0155517
0.0155522
0.0155529
0.0155537
0.0155547
0.0155558
0.0155572
0.0155588
0.0155607
0.0155627
0.0155648
0.0155662
0.010035
0.0100359
0.0100363
0.0100365
0.0100367
0.0100368
0.010037
0.0100371
0.0100371
0.0100372
0.0100372
0.0100372
0.0100373
0.0100373
0.0100373
0.0100373
0.0100373
0.0100373
0.0100373
0.0100373
0.0100373
0.0100373
0.0100373
0.0100373
0.0100373
0.0100373
0.0100373
0.0100373
0.0100373
0.0100373
0.0100373
0.0100373
0.0100373
0.0100373
0.0100373
0.0100373
0.0100373
0.0100373
0.0100373
0.0100373
0.0100373
0.0100373
0.0100373
0.0100373
0.0100373
0.0100373
0.0100373
0.0100373
0.0100372
0.0100372
0.0100372
0.0100371
0.0100371
0.010037
0.0100368
0.0100367
0.0100365
0.0100363
0.0100359
0.010035
0.00834588
0.00834775
0.00834925
0.00835053
0.00835162
0.00835253
0.0083533
0.00835394
0.00835446
0.00835489
0.00835523
0.00835551
0.00835574
0.00835592
0.00835606
0.00835618
0.00835627
0.00835635
0.00835641
0.00835645
0.00835649
0.00835652
0.00835655
0.00835657
0.00835658
0.00835659
0.0083566
0.00835661
0.00835661
0.00835661
0.00835661
0.00835661
0.00835661
0.0083566
0.00835659
0.00835658
0.00835657
0.00835655
0.00835652
0.00835649
0.00835645
0.00835641
0.00835635
0.00835627
0.00835618
0.00835606
0.00835592
0.00835574
0.00835551
0.00835523
0.00835489
0.00835446
0.00835394
0.0083533
0.00835253
0.00835162
0.00835053
0.00834925
0.00834775
0.00834588
0.00787911
0.00788139
0.00788335
0.00788505
0.00788651
0.00788775
0.00788879
0.00788965
0.00789036
0.00789094
0.00789141
0.00789179
0.0078921
0.00789235
0.00789255
0.00789271
0.00789284
0.00789294
0.00789303
0.00789309
0.00789315
0.00789319
0.00789322
0.00789325
0.00789327
0.00789329
0.0078933
0.00789331
0.00789331
0.00789331
0.00789331
0.00789331
0.00789331
0.0078933
0.00789329
0.00789327
0.00789325
0.00789322
0.00789319
0.00789315
0.00789309
0.00789303
0.00789294
0.00789284
0.00789271
0.00789255
0.00789235
0.0078921
0.00789179
0.00789141
0.00789094
0.00789036
0.00788965
0.00788879
0.00788775
0.00788651
0.00788505
0.00788335
0.00788139
0.00787911
0.00779501
0.00779747
0.00779961
0.00780149
0.00780311
0.00780448
0.00780563
0.00780658
0.00780737
0.00780801
0.00780854
0.00780897
0.00780931
0.00780959
0.00780981
0.00780999
0.00781013
0.00781025
0.00781034
0.00781042
0.00781048
0.00781052
0.00781056
0.00781059
0.00781061
0.00781063
0.00781064
0.00781065
0.00781066
0.00781066
0.00781066
0.00781066
0.00781065
0.00781064
0.00781063
0.00781061
0.00781059
0.00781056
0.00781052
0.00781048
0.00781042
0.00781034
0.00781025
0.00781013
0.00780999
0.00780981
0.00780959
0.00780931
0.00780897
0.00780854
0.00780801
0.00780737
0.00780658
0.00780563
0.00780448
0.00780311
0.00780149
0.00779961
0.00779747
0.00779501
0.00783006
0.00783262
0.00783486
0.00783682
0.0078385
0.00783994
0.00784114
0.00784214
0.00784296
0.00784364
0.00784419
0.00784464
0.007845
0.00784529
0.00784552
0.00784571
0.00784586
0.00784598
0.00784608
0.00784616
0.00784622
0.00784627
0.00784631
0.00784634
0.00784636
0.00784638
0.0078464
0.00784641
0.00784641
0.00784642
0.00784642
0.00784641
0.00784641
0.0078464
0.00784638
0.00784636
0.00784634
0.00784631
0.00784627
0.00784622
0.00784616
0.00784608
0.00784598
0.00784586
0.00784571
0.00784552
0.00784529
0.007845
0.00784464
0.00784419
0.00784364
0.00784296
0.00784214
0.00784114
0.00783994
0.0078385
0.00783682
0.00783486
0.00783262
0.00783006
0.00790409
0.00790672
0.00790901
0.00791102
0.00791276
0.00791423
0.00791547
0.00791649
0.00791734
0.00791803
0.0079186
0.00791906
0.00791943
0.00791973
0.00791997
0.00792016
0.00792032
0.00792044
0.00792055
0.00792063
0.00792069
0.00792074
0.00792078
0.00792081
0.00792084
0.00792086
0.00792087
0.00792088
0.00792089
0.00792089
0.00792089
0.00792089
0.00792088
0.00792087
0.00792086
0.00792084
0.00792081
0.00792078
0.00792074
0.00792069
0.00792063
0.00792055
0.00792044
0.00792032
0.00792016
0.00791997
0.00791973
0.00791943
0.00791906
0.0079186
0.00791803
0.00791734
0.00791649
0.00791547
0.00791423
0.00791276
0.00791102
0.00790901
0.00790672
0.00790409
0.00799372
0.0079964
0.00799874
0.0080008
0.00800257
0.00800408
0.00800534
0.00800639
0.00800726
0.00800797
0.00800855
0.00800902
0.0080094
0.0080097
0.00800995
0.00801015
0.00801031
0.00801044
0.00801054
0.00801062
0.00801069
0.00801074
0.00801078
0.00801081
0.00801084
0.00801086
0.00801087
0.00801089
0.00801089
0.0080109
0.0080109
0.00801089
0.00801089
0.00801087
0.00801086
0.00801084
0.00801081
0.00801078
0.00801074
0.00801069
0.00801062
0.00801054
0.00801044
0.00801031
0.00801015
0.00800995
0.0080097
0.0080094
0.00800902
0.00800855
0.00800797
0.00800726
0.00800639
0.00800534
0.00800408
0.00800257
0.0080008
0.00799874
0.0079964
0.00799372
0.00809266
0.0080954
0.0080978
0.0080999
0.00810171
0.00810324
0.00810454
0.00810561
0.00810649
0.00810722
0.00810781
0.00810829
0.00810868
0.00810899
0.00810925
0.00810945
0.00810961
0.00810974
0.00810985
0.00810993
0.00811
0.00811005
0.0081101
0.00811013
0.00811016
0.00811018
0.00811019
0.0081102
0.00811021
0.00811021
0.00811021
0.00811021
0.0081102
0.00811019
0.00811018
0.00811016
0.00811013
0.0081101
0.00811005
0.00811
0.00810993
0.00810985
0.00810974
0.00810961
0.00810945
0.00810925
0.00810899
0.00810868
0.00810829
0.00810781
0.00810722
0.00810649
0.00810561
0.00810454
0.00810324
0.00810171
0.0080999
0.0080978
0.0080954
0.00809266
0.00819969
0.00820249
0.00820494
0.00820709
0.00820894
0.00821051
0.00821183
0.00821293
0.00821384
0.00821458
0.00821518
0.00821568
0.00821607
0.00821639
0.00821665
0.00821686
0.00821703
0.00821716
0.00821727
0.00821736
0.00821742
0.00821748
0.00821752
0.00821756
0.00821759
0.00821761
0.00821762
0.00821763
0.00821764
0.00821764
0.00821764
0.00821764
0.00821763
0.00821762
0.00821761
0.00821759
0.00821756
0.00821752
0.00821748
0.00821742
0.00821736
0.00821727
0.00821716
0.00821703
0.00821686
0.00821665
0.00821639
0.00821607
0.00821568
0.00821518
0.00821458
0.00821384
0.00821293
0.00821183
0.00821051
0.00820894
0.00820709
0.00820494
0.00820249
0.00819969
0.00831507
0.00831794
0.00832045
0.00832265
0.00832454
0.00832615
0.0083275
0.00832863
0.00832955
0.00833031
0.00833093
0.00833144
0.00833185
0.00833217
0.00833244
0.00833265
0.00833282
0.00833296
0.00833307
0.00833316
0.00833323
0.00833329
0.00833333
0.00833337
0.0083334
0.00833342
0.00833343
0.00833345
0.00833345
0.00833346
0.00833346
0.00833345
0.00833345
0.00833343
0.00833342
0.0083334
0.00833337
0.00833333
0.00833329
0.00833323
0.00833316
0.00833307
0.00833296
0.00833282
0.00833265
0.00833244
0.00833217
0.00833185
0.00833144
0.00833093
0.00833031
0.00832955
0.00832863
0.0083275
0.00832615
0.00832454
0.00832265
0.00832045
0.00831794
0.00831507
0.00843957
0.00844252
0.00844509
0.00844734
0.00844928
0.00845093
0.00845232
0.00845347
0.00845442
0.0084552
0.00845584
0.00845635
0.00845677
0.00845711
0.00845738
0.0084576
0.00845778
0.00845792
0.00845803
0.00845812
0.00845819
0.00845825
0.0084583
0.00845833
0.00845836
0.00845839
0.0084584
0.00845841
0.00845842
0.00845843
0.00845843
0.00845842
0.00845841
0.0084584
0.00845839
0.00845836
0.00845833
0.0084583
0.00845825
0.00845819
0.00845812
0.00845803
0.00845792
0.00845778
0.0084576
0.00845738
0.00845711
0.00845677
0.00845635
0.00845584
0.0084552
0.00845442
0.00845347
0.00845232
0.00845093
0.00844928
0.00844734
0.00844509
0.00844252
0.00843957
0.00857419
0.00857722
0.00857986
0.00858217
0.00858417
0.00858586
0.00858728
0.00858847
0.00858945
0.00859025
0.0085909
0.00859143
0.00859186
0.00859221
0.00859249
0.00859271
0.0085929
0.00859304
0.00859316
0.00859325
0.00859333
0.00859339
0.00859343
0.00859347
0.0085935
0.00859352
0.00859354
0.00859355
0.00859356
0.00859356
0.00859356
0.00859356
0.00859355
0.00859354
0.00859352
0.0085935
0.00859347
0.00859343
0.00859339
0.00859333
0.00859325
0.00859316
0.00859304
0.0085929
0.00859271
0.00859249
0.00859221
0.00859186
0.00859143
0.0085909
0.00859025
0.00858945
0.00858847
0.00858728
0.00858586
0.00858417
0.00858217
0.00857986
0.00857722
0.00857419
0.00872014
0.00872326
0.00872598
0.00872836
0.00873041
0.00873216
0.00873362
0.00873484
0.00873585
0.00873667
0.00873734
0.00873789
0.00873833
0.00873869
0.00873898
0.00873921
0.0087394
0.00873955
0.00873967
0.00873976
0.00873984
0.0087399
0.00873995
0.00873999
0.00874002
0.00874005
0.00874006
0.00874008
0.00874008
0.00874009
0.00874009
0.00874008
0.00874008
0.00874006
0.00874005
0.00874002
0.00873999
0.00873995
0.0087399
0.00873984
0.00873976
0.00873967
0.00873955
0.0087394
0.00873921
0.00873898
0.00873869
0.00873833
0.00873789
0.00873734
0.00873667
0.00873585
0.00873484
0.00873362
0.00873216
0.00873041
0.00872836
0.00872598
0.00872326
0.00872014
0.00887885
0.00888208
0.00888488
0.00888733
0.00888945
0.00889124
0.00889276
0.00889401
0.00889505
0.0088959
0.0088966
0.00889716
0.00889762
0.00889799
0.00889829
0.00889853
0.00889872
0.00889887
0.008899
0.0088991
0.00889918
0.00889924
0.00889929
0.00889933
0.00889936
0.00889939
0.00889941
0.00889942
0.00889943
0.00889943
0.00889943
0.00889943
0.00889942
0.00889941
0.00889939
0.00889936
0.00889933
0.00889929
0.00889924
0.00889918
0.0088991
0.008899
0.00889887
0.00889872
0.00889853
0.00889829
0.00889799
0.00889762
0.00889716
0.0088966
0.0088959
0.00889505
0.00889401
0.00889276
0.00889124
0.00888945
0.00888733
0.00888488
0.00888208
0.00887885
0.00905201
0.00905535
0.00905824
0.00906078
0.00906296
0.00906482
0.00906638
0.00906768
0.00906876
0.00906964
0.00907036
0.00907094
0.00907142
0.0090718
0.00907211
0.00907235
0.00907255
0.00907271
0.00907284
0.00907295
0.00907303
0.00907309
0.00907315
0.00907319
0.00907322
0.00907325
0.00907326
0.00907328
0.00907329
0.00907329
0.00907329
0.00907329
0.00907328
0.00907326
0.00907325
0.00907322
0.00907319
0.00907315
0.00907309
0.00907303
0.00907295
0.00907284
0.00907271
0.00907255
0.00907235
0.00907211
0.0090718
0.00907142
0.00907094
0.00907036
0.00906964
0.00906876
0.00906768
0.00906638
0.00906482
0.00906296
0.00906078
0.00905824
0.00905535
0.00905201
0.00924163
0.00924509
0.00924809
0.00925072
0.00925298
0.00925491
0.00925653
0.00925788
0.00925899
0.0092599
0.00926065
0.00926126
0.00926175
0.00926214
0.00926246
0.00926272
0.00926293
0.00926309
0.00926323
0.00926333
0.00926342
0.00926349
0.00926354
0.00926359
0.00926362
0.00926365
0.00926367
0.00926368
0.00926369
0.00926369
0.00926369
0.00926369
0.00926368
0.00926367
0.00926365
0.00926362
0.00926359
0.00926354
0.00926349
0.00926342
0.00926333
0.00926323
0.00926309
0.00926293
0.00926272
0.00926246
0.00926214
0.00926175
0.00926126
0.00926065
0.0092599
0.00925899
0.00925788
0.00925653
0.00925491
0.00925298
0.00925072
0.00924809
0.00924509
0.00924163
0.00945012
0.00945372
0.00945684
0.00945958
0.00946193
0.00946394
0.00946562
0.00946702
0.00946818
0.00946913
0.00946991
0.00947054
0.00947105
0.00947146
0.00947179
0.00947206
0.00947228
0.00947245
0.00947259
0.0094727
0.00947279
0.00947286
0.00947292
0.00947296
0.009473
0.00947303
0.00947305
0.00947306
0.00947307
0.00947307
0.00947307
0.00947307
0.00947306
0.00947305
0.00947303
0.009473
0.00947296
0.00947292
0.00947286
0.00947279
0.0094727
0.00947259
0.00947245
0.00947228
0.00947206
0.00947179
0.00947146
0.00947105
0.00947054
0.00946991
0.00946913
0.00946818
0.00946702
0.00946562
0.00946394
0.00946193
0.00945958
0.00945684
0.00945372
0.00945012
0.00968043
0.00968419
0.00968745
0.0096903
0.00969276
0.00969485
0.00969661
0.00969807
0.00969928
0.00970027
0.00970108
0.00970174
0.00970227
0.0097027
0.00970305
0.00970333
0.00970356
0.00970374
0.00970388
0.009704
0.00970409
0.00970417
0.00970423
0.00970427
0.00970431
0.00970434
0.00970436
0.00970438
0.00970439
0.00970439
0.00970439
0.00970439
0.00970438
0.00970436
0.00970434
0.00970431
0.00970427
0.00970423
0.00970417
0.00970409
0.009704
0.00970388
0.00970374
0.00970356
0.00970333
0.00970305
0.0097027
0.00970227
0.00970174
0.00970108
0.00970027
0.00969928
0.00969807
0.00969661
0.00969485
0.00969276
0.0096903
0.00968745
0.00968419
0.00968043
0.00993616
0.00994011
0.00994352
0.00994651
0.00994908
0.00995127
0.00995311
0.00995465
0.00995591
0.00995695
0.0099578
0.00995849
0.00995905
0.0099595
0.00995987
0.00996016
0.0099604
0.00996059
0.00996074
0.00996086
0.00996096
0.00996104
0.0099611
0.00996115
0.00996119
0.00996122
0.00996124
0.00996126
0.00996127
0.00996127
0.00996127
0.00996127
0.00996126
0.00996124
0.00996122
0.00996119
0.00996115
0.0099611
0.00996104
0.00996096
0.00996086
0.00996074
0.00996059
0.0099604
0.00996016
0.00995987
0.0099595
0.00995905
0.00995849
0.0099578
0.00995695
0.00995591
0.00995465
0.00995311
0.00995127
0.00994908
0.00994651
0.00994352
0.00994011
0.00993616
0.0102218
0.0102259
0.0102295
0.0102327
0.0102354
0.0102377
0.0102396
0.0102412
0.0102426
0.0102437
0.0102446
0.0102453
0.0102459
0.0102464
0.0102467
0.0102471
0.0102473
0.0102475
0.0102477
0.0102478
0.0102479
0.010248
0.0102481
0.0102481
0.0102481
0.0102482
0.0102482
0.0102482
0.0102482
0.0102482
0.0102482
0.0102482
0.0102482
0.0102482
0.0102482
0.0102481
0.0102481
0.0102481
0.010248
0.0102479
0.0102478
0.0102477
0.0102475
0.0102473
0.0102471
0.0102467
0.0102464
0.0102459
0.0102453
0.0102446
0.0102437
0.0102426
0.0102412
0.0102396
0.0102377
0.0102354
0.0102327
0.0102295
0.0102259
0.0102218
0.010543
0.0105474
0.0105512
0.0105545
0.0105573
0.0105598
0.0105618
0.0105635
0.010565
0.0105661
0.0105671
0.0105678
0.0105685
0.010569
0.0105694
0.0105697
0.01057
0.0105702
0.0105703
0.0105705
0.0105706
0.0105707
0.0105707
0.0105708
0.0105708
0.0105709
0.0105709
0.0105709
0.0105709
0.0105709
0.0105709
0.0105709
0.0105709
0.0105709
0.0105709
0.0105708
0.0105708
0.0105707
0.0105707
0.0105706
0.0105705
0.0105703
0.0105702
0.01057
0.0105697
0.0105694
0.010569
0.0105685
0.0105678
0.0105671
0.0105661
0.010565
0.0105635
0.0105618
0.0105598
0.0105573
0.0105545
0.0105512
0.0105474
0.010543
0.0109068
0.0109115
0.0109156
0.0109191
0.0109222
0.0109248
0.0109269
0.0109288
0.0109303
0.0109315
0.0109325
0.0109333
0.010934
0.0109345
0.010935
0.0109353
0.0109356
0.0109358
0.010936
0.0109362
0.0109363
0.0109364
0.0109364
0.0109365
0.0109366
0.0109366
0.0109366
0.0109366
0.0109366
0.0109366
0.0109366
0.0109366
0.0109366
0.0109366
0.0109366
0.0109366
0.0109365
0.0109364
0.0109364
0.0109363
0.0109362
0.010936
0.0109358
0.0109356
0.0109353
0.010935
0.0109345
0.010934
0.0109333
0.0109325
0.0109315
0.0109303
0.0109288
0.0109269
0.0109248
0.0109222
0.0109191
0.0109156
0.0109115
0.0109068
0.0113228
0.0113278
0.0113322
0.011336
0.0113392
0.011342
0.0113444
0.0113463
0.0113479
0.0113493
0.0113503
0.0113512
0.0113519
0.0113525
0.011353
0.0113534
0.0113537
0.0113539
0.0113541
0.0113543
0.0113544
0.0113545
0.0113546
0.0113546
0.0113547
0.0113547
0.0113547
0.0113548
0.0113548
0.0113548
0.0113548
0.0113548
0.0113548
0.0113547
0.0113547
0.0113547
0.0113546
0.0113546
0.0113545
0.0113544
0.0113543
0.0113541
0.0113539
0.0113537
0.0113534
0.011353
0.0113525
0.0113519
0.0113512
0.0113503
0.0113493
0.0113479
0.0113463
0.0113444
0.011342
0.0113392
0.011336
0.0113322
0.0113278
0.0113228
0.0118032
0.0118086
0.0118133
0.0118174
0.011821
0.011824
0.0118265
0.0118287
0.0118304
0.0118318
0.011833
0.011834
0.0118347
0.0118354
0.0118359
0.0118363
0.0118366
0.0118369
0.0118371
0.0118373
0.0118374
0.0118375
0.0118376
0.0118377
0.0118377
0.0118378
0.0118378
0.0118378
0.0118378
0.0118378
0.0118378
0.0118378
0.0118378
0.0118378
0.0118378
0.0118377
0.0118377
0.0118376
0.0118375
0.0118374
0.0118373
0.0118371
0.0118369
0.0118366
0.0118363
0.0118359
0.0118354
0.0118347
0.011834
0.011833
0.0118318
0.0118304
0.0118287
0.0118265
0.011824
0.011821
0.0118174
0.0118133
0.0118086
0.0118032
0.0123648
0.0123708
0.0123759
0.0123804
0.0123843
0.0123876
0.0123903
0.0123927
0.0123946
0.0123961
0.0123974
0.0123985
0.0123993
0.0124
0.0124006
0.012401
0.0124014
0.0124017
0.0124019
0.0124021
0.0124022
0.0124023
0.0124024
0.0124025
0.0124026
0.0124026
0.0124027
0.0124027
0.0124027
0.0124027
0.0124027
0.0124027
0.0124027
0.0124027
0.0124026
0.0124026
0.0124025
0.0124024
0.0124023
0.0124022
0.0124021
0.0124019
0.0124017
0.0124014
0.012401
0.0124006
0.0124
0.0123993
0.0123985
0.0123974
0.0123961
0.0123946
0.0123927
0.0123903
0.0123876
0.0123843
0.0123804
0.0123759
0.0123708
0.0123648
0.0130309
0.0130375
0.0130431
0.0130481
0.0130524
0.0130561
0.0130592
0.0130617
0.0130639
0.0130656
0.013067
0.0130682
0.0130691
0.0130699
0.0130705
0.013071
0.0130714
0.0130717
0.013072
0.0130722
0.0130723
0.0130725
0.0130726
0.0130727
0.0130727
0.0130728
0.0130728
0.0130728
0.0130729
0.0130729
0.0130729
0.0130729
0.0130728
0.0130728
0.0130728
0.0130727
0.0130727
0.0130726
0.0130725
0.0130723
0.0130722
0.013072
0.0130717
0.0130714
0.013071
0.0130705
0.0130699
0.0130691
0.0130682
0.013067
0.0130656
0.0130639
0.0130617
0.0130592
0.0130561
0.0130524
0.0130481
0.0130431
0.0130375
0.0130309
0.0138345
0.0138419
0.0138483
0.0138539
0.0138588
0.0138629
0.0138664
0.0138693
0.0138717
0.0138736
0.0138752
0.0138765
0.0138776
0.0138785
0.0138792
0.0138797
0.0138802
0.0138805
0.0138808
0.013881
0.0138812
0.0138814
0.0138815
0.0138816
0.0138817
0.0138817
0.0138818
0.0138818
0.0138818
0.0138818
0.0138818
0.0138818
0.0138818
0.0138818
0.0138817
0.0138817
0.0138816
0.0138815
0.0138814
0.0138812
0.013881
0.0138808
0.0138805
0.0138802
0.0138797
0.0138792
0.0138785
0.0138776
0.0138765
0.0138752
0.0138736
0.0138717
0.0138693
0.0138664
0.0138629
0.0138588
0.0138539
0.0138483
0.0138419
0.0138345
0.0148241
0.0148326
0.0148399
0.0148464
0.014852
0.0148567
0.0148607
0.014864
0.0148668
0.0148691
0.0148709
0.0148724
0.0148737
0.0148746
0.0148754
0.0148761
0.0148766
0.014877
0.0148774
0.0148776
0.0148778
0.014878
0.0148781
0.0148783
0.0148783
0.0148784
0.0148785
0.0148785
0.0148785
0.0148785
0.0148785
0.0148785
0.0148785
0.0148785
0.0148784
0.0148783
0.0148783
0.0148781
0.014878
0.0148778
0.0148776
0.0148774
0.014877
0.0148766
0.0148761
0.0148754
0.0148746
0.0148737
0.0148724
0.0148709
0.0148691
0.0148668
0.014864
0.0148607
0.0148567
0.014852
0.0148464
0.0148399
0.0148326
0.0148241
0.0160717
0.0160816
0.0160903
0.0160979
0.0161045
0.0161101
0.0161148
0.0161187
0.016122
0.0161246
0.0161268
0.0161286
0.01613
0.0161312
0.0161322
0.0161329
0.0161335
0.016134
0.0161344
0.0161347
0.016135
0.0161352
0.0161353
0.0161355
0.0161356
0.0161357
0.0161357
0.0161358
0.0161358
0.0161358
0.0161358
0.0161358
0.0161358
0.0161357
0.0161357
0.0161356
0.0161355
0.0161353
0.0161352
0.016135
0.0161347
0.0161344
0.016134
0.0161335
0.0161329
0.0161322
0.0161312
0.01613
0.0161286
0.0161268
0.0161246
0.016122
0.0161187
0.0161148
0.0161101
0.0161045
0.0160979
0.0160903
0.0160816
0.0160717
0.0176843
0.0176963
0.0177067
0.017716
0.0177239
0.0177307
0.0177364
0.0177412
0.0177452
0.0177484
0.017751
0.0177532
0.017755
0.0177564
0.0177575
0.0177584
0.0177592
0.0177598
0.0177603
0.0177606
0.017761
0.0177612
0.0177614
0.0177616
0.0177617
0.0177618
0.0177618
0.0177619
0.0177619
0.0177619
0.0177619
0.0177619
0.0177619
0.0177618
0.0177618
0.0177617
0.0177616
0.0177614
0.0177612
0.017761
0.0177606
0.0177603
0.0177598
0.0177592
0.0177584
0.0177575
0.0177564
0.017755
0.0177532
0.017751
0.0177484
0.0177452
0.0177412
0.0177364
0.0177307
0.0177239
0.017716
0.0177067
0.0176963
0.0176843
0.0198162
0.019831
0.019844
0.0198555
0.0198654
0.0198739
0.019881
0.019887
0.0198919
0.0198959
0.0198992
0.0199019
0.0199041
0.0199059
0.0199073
0.0199085
0.0199094
0.0199101
0.0199107
0.0199112
0.0199116
0.0199119
0.0199122
0.0199124
0.0199125
0.0199126
0.0199127
0.0199128
0.0199128
0.0199128
0.0199128
0.0199128
0.0199128
0.0199127
0.0199126
0.0199125
0.0199124
0.0199122
0.0199119
0.0199116
0.0199112
0.0199107
0.0199101
0.0199094
0.0199085
0.0199073
0.0199059
0.0199041
0.0199019
0.0198992
0.0198959
0.0198919
0.019887
0.019881
0.0198739
0.0198654
0.0198555
0.019844
0.019831
0.0198162
0.022673
0.0226916
0.0227082
0.0227228
0.0227354
0.0227462
0.0227552
0.0227628
0.022769
0.0227742
0.0227784
0.0227818
0.0227846
0.0227869
0.0227887
0.0227902
0.0227913
0.0227923
0.022793
0.0227937
0.0227942
0.0227945
0.0227949
0.0227951
0.0227953
0.0227955
0.0227956
0.0227956
0.0227957
0.0227957
0.0227957
0.0227957
0.0227956
0.0227956
0.0227955
0.0227953
0.0227951
0.0227949
0.0227945
0.0227942
0.0227937
0.022793
0.0227923
0.0227913
0.0227902
0.0227887
0.0227869
0.0227846
0.0227818
0.0227784
0.0227742
0.022769
0.0227628
0.0227552
0.0227462
0.0227354
0.0227228
0.0227082
0.0226916
0.022673
0.0264923
0.0265161
0.0265373
0.0265559
0.0265721
0.0265859
0.0265975
0.0266072
0.0266152
0.0266218
0.0266272
0.0266316
0.0266351
0.026638
0.0266404
0.0266422
0.0266438
0.026645
0.026646
0.0266467
0.0266474
0.0266479
0.0266483
0.0266486
0.0266488
0.026649
0.0266492
0.0266493
0.0266494
0.0266494
0.0266494
0.0266494
0.0266493
0.0266492
0.026649
0.0266488
0.0266486
0.0266483
0.0266479
0.0266474
0.0266467
0.026646
0.026645
0.0266438
0.0266422
0.0266404
0.026638
0.0266351
0.0266316
0.0266272
0.0266218
0.0266152
0.0266072
0.0265975
0.0265859
0.0265721
0.0265559
0.0265373
0.0265161
0.0264923
0.0314901
0.0315203
0.0315471
0.0315707
0.0315911
0.0316086
0.0316233
0.0316355
0.0316457
0.031654
0.0316609
0.0316665
0.031671
0.0316746
0.0316776
0.03168
0.0316819
0.0316835
0.0316847
0.0316857
0.0316865
0.0316872
0.0316877
0.0316881
0.0316884
0.0316886
0.0316888
0.031689
0.031689
0.0316891
0.0316891
0.031689
0.031689
0.0316888
0.0316886
0.0316884
0.0316881
0.0316877
0.0316872
0.0316865
0.0316857
0.0316847
0.0316835
0.0316819
0.03168
0.0316776
0.0316746
0.031671
0.0316665
0.0316609
0.031654
0.0316457
0.0316355
0.0316233
0.0316086
0.0315911
0.0315707
0.0315471
0.0315203
0.0314901
0.0377843
0.0378216
0.0378546
0.0378837
0.0379089
0.0379304
0.0379485
0.0379636
0.0379762
0.0379865
0.0379949
0.0380018
0.0380074
0.0380119
0.0380156
0.0380186
0.0380209
0.0380229
0.0380244
0.0380256
0.0380266
0.0380274
0.0380281
0.0380286
0.038029
0.0380293
0.0380295
0.0380297
0.0380298
0.0380298
0.0380298
0.0380298
0.0380297
0.0380295
0.0380293
0.038029
0.0380286
0.0380281
0.0380274
0.0380266
0.0380256
0.0380244
0.0380229
0.0380209
0.0380186
0.0380156
0.0380119
0.0380074
0.0380018
0.0379949
0.0379865
0.0379762
0.0379636
0.0379485
0.0379304
0.0379089
0.0378837
0.0378546
0.0378216
0.0377843
0.0453405
0.0453851
0.0454245
0.0454592
0.0454892
0.0455148
0.0455364
0.0455544
0.0455694
0.0455817
0.0455918
0.0456
0.0456067
0.0456121
0.0456165
0.04562
0.0456229
0.0456252
0.045627
0.0456285
0.0456297
0.0456307
0.0456314
0.045632
0.0456325
0.0456329
0.0456331
0.0456333
0.0456335
0.0456335
0.0456335
0.0456335
0.0456333
0.0456331
0.0456329
0.0456325
0.045632
0.0456314
0.0456307
0.0456297
0.0456285
0.045627
0.0456252
0.0456229
0.04562
0.0456165
0.0456121
0.0456067
0.0456
0.0455918
0.0455817
0.0455694
0.0455544
0.0455364
0.0455148
0.0454892
0.0454592
0.0454245
0.0453851
0.0453405
0.0539844
0.054036
0.0540815
0.0541214
0.054156
0.0541855
0.0542103
0.0542311
0.0542483
0.0542625
0.0542742
0.0542837
0.0542914
0.0542976
0.0543027
0.0543068
0.0543101
0.0543128
0.054315
0.0543167
0.0543181
0.0543192
0.0543201
0.0543208
0.0543213
0.0543218
0.0543221
0.0543223
0.0543225
0.0543225
0.0543225
0.0543225
0.0543223
0.0543221
0.0543218
0.0543213
0.0543208
0.0543201
0.0543192
0.0543181
0.0543167
0.054315
0.0543128
0.0543101
0.0543068
0.0543027
0.0542976
0.0542914
0.0542837
0.0542742
0.0542625
0.0542483
0.0542311
0.0542103
0.0541855
0.054156
0.0541214
0.0540815
0.054036
0.0539844
0.0634721
0.0635302
0.0635813
0.0636261
0.0636647
0.0636977
0.0637256
0.0637489
0.0637682
0.0637841
0.0637972
0.0638079
0.0638166
0.0638237
0.0638294
0.063834
0.0638377
0.0638408
0.0638432
0.0638451
0.0638467
0.063848
0.063849
0.0638498
0.0638504
0.0638509
0.0638513
0.0638515
0.0638517
0.0638518
0.0638518
0.0638517
0.0638515
0.0638513
0.0638509
0.0638504
0.0638498
0.063849
0.063848
0.0638467
0.0638451
0.0638432
0.0638408
0.0638377
0.063834
0.0638294
0.0638237
0.0638166
0.0638079
0.0637972
0.0637841
0.0637682
0.0637489
0.0637256
0.0636977
0.0636647
0.0636261
0.0635813
0.0635302
0.0634721
0.0735705
0.0736345
0.0736907
0.0737398
0.0737822
0.0738184
0.073849
0.0738746
0.0738958
0.0739134
0.0739278
0.0739396
0.0739492
0.073957
0.0739633
0.0739684
0.0739726
0.0739759
0.0739786
0.0739808
0.0739825
0.0739839
0.0739851
0.073986
0.0739867
0.0739872
0.0739876
0.0739879
0.0739881
0.0739882
0.0739882
0.0739881
0.0739879
0.0739876
0.0739872
0.0739867
0.073986
0.0739851
0.0739839
0.0739825
0.0739808
0.0739786
0.0739759
0.0739726
0.0739684
0.0739633
0.073957
0.0739492
0.0739396
0.0739278
0.0739134
0.0738958
0.0738746
0.073849
0.0738184
0.0737822
0.0737398
0.0736907
0.0736345
0.0735705
0.0841013
0.0841709
0.0842317
0.0842849
0.0843308
0.08437
0.0844031
0.0844308
0.0844539
0.084473
0.0844886
0.0845014
0.0845119
0.0845204
0.0845273
0.0845329
0.0845374
0.0845411
0.0845441
0.0845464
0.0845484
0.0845499
0.0845511
0.0845521
0.0845529
0.0845535
0.084554
0.0845543
0.0845545
0.0845546
0.0845546
0.0845545
0.0845543
0.084554
0.0845535
0.0845529
0.0845521
0.0845511
0.0845499
0.0845484
0.0845464
0.0845441
0.0845411
0.0845374
0.0845329
0.0845273
0.0845204
0.0845119
0.0845014
0.0844886
0.084473
0.0844539
0.0844308
0.0844031
0.08437
0.0843308
0.0842849
0.0842317
0.0841709
0.0841013
0.0949473
0.0950221
0.0950874
0.0951444
0.0951937
0.0952357
0.0952713
0.0953011
0.0953259
0.0953464
0.0953633
0.0953771
0.0953884
0.0953976
0.0954051
0.0954111
0.0954161
0.09542
0.0954233
0.0954259
0.095428
0.0954296
0.095431
0.0954321
0.0954329
0.0954336
0.0954341
0.0954344
0.0954346
0.0954347
0.0954347
0.0954346
0.0954344
0.0954341
0.0954336
0.0954329
0.0954321
0.095431
0.0954296
0.095428
0.0954259
0.0954233
0.09542
0.0954161
0.0954111
0.0954051
0.0953976
0.0953884
0.0953771
0.0953633
0.0953464
0.0953259
0.0953011
0.0952713
0.0952357
0.0951937
0.0951444
0.0950874
0.0950221
0.0949473
0.106037
0.106117
0.106187
0.106248
0.1063
0.106345
0.106383
0.106415
0.106441
0.106463
0.106481
0.106496
0.106508
0.106518
0.106526
0.106533
0.106538
0.106542
0.106546
0.106548
0.106551
0.106553
0.106554
0.106555
0.106556
0.106557
0.106557
0.106558
0.106558
0.106558
0.106558
0.106558
0.106558
0.106557
0.106557
0.106556
0.106555
0.106554
0.106553
0.106551
0.106548
0.106546
0.106542
0.106538
0.106533
0.106526
0.106518
0.106508
0.106496
0.106481
0.106463
0.106441
0.106415
0.106383
0.106345
0.1063
0.106248
0.106187
0.106117
0.106037
0.117328
0.117413
0.117487
0.117552
0.117607
0.117655
0.117695
0.117729
0.117757
0.117781
0.1178
0.117816
0.117829
0.117839
0.117848
0.117855
0.117861
0.117865
0.117869
0.117872
0.117875
0.117877
0.117878
0.117879
0.11788
0.117881
0.117882
0.117882
0.117882
0.117883
0.117883
0.117882
0.117882
0.117882
0.117881
0.11788
0.117879
0.117878
0.117877
0.117875
0.117872
0.117869
0.117865
0.117861
0.117855
0.117848
0.117839
0.117829
0.117816
0.1178
0.117781
0.117757
0.117729
0.117695
0.117655
0.117607
0.117552
0.117487
0.117413
0.117328
0.128794
0.128884
0.128962
0.12903
0.129089
0.129139
0.129182
0.129218
0.129248
0.129272
0.129293
0.12931
0.129324
0.129335
0.129344
0.129352
0.129358
0.129363
0.129367
0.12937
0.129373
0.129375
0.129377
0.129378
0.129379
0.12938
0.129381
0.129381
0.129381
0.129381
0.129381
0.129381
0.129381
0.129381
0.12938
0.129379
0.129378
0.129377