/*--------------------------------*- C++ -*----------------------------------*\
| =========                 |                                                 |
| \\      /  F ield         | foam-extend: Open Source CFD                    |
|  \\    /   O peration     | Version:     4.0                                |
|   \\  /    A nd           | Web:         http://www.foam-extend.org         |
|    \\/     M anipulation  |                                                 |
\*---------------------------------------------------------------------------*/
FoamFile
{
    version     2.0;
    format      ascii;
    class       volScalarField;
    location    "1240";
    object      psiE;
}
// * * * * * * * * * * * * * * * * * * * * * * * * * * * * * * * * * * * * * //

dimensions      [0 0 0 0 0 0 0];

internalField   nonuniform List<scalar> 
6960
(
0.351677
0.351689
0.351703
0.351715
0.351726
0.351736
0.351744
0.351751
0.351756
0.351761
0.351765
0.351768
0.351771
0.351773
0.351774
0.351776
0.351777
0.351778
0.351779
0.35178
0.35178
0.351781
0.351781
0.351781
0.351781
0.351782
0.351782
0.351782
0.351782
0.351782
0.351782
0.351782
0.351782
0.351782
0.351782
0.351781
0.351781
0.351781
0.351781
0.35178
0.35178
0.351779
0.351778
0.351777
0.351776
0.351774
0.351773
0.351771
0.351768
0.351765
0.351761
0.351756
0.351751
0.351744
0.351736
0.351726
0.351715
0.351703
0.351689
0.351677
0.903943
0.903991
0.904045
0.904096
0.904141
0.904179
0.904212
0.904239
0.904262
0.904281
0.904296
0.904309
0.90432
0.904328
0.904335
0.904341
0.904346
0.904349
0.904353
0.904355
0.904357
0.904359
0.90436
0.904362
0.904362
0.904363
0.904364
0.904364
0.904364
0.904364
0.904364
0.904364
0.904364
0.904364
0.904363
0.904362
0.904362
0.90436
0.904359
0.904357
0.904355
0.904353
0.904349
0.904346
0.904341
0.904335
0.904328
0.90432
0.904309
0.904296
0.904281
0.904262
0.904239
0.904212
0.904179
0.904141
0.904096
0.904045
0.903991
0.903943
1.42137
1.42146
1.42157
1.42166
1.42175
1.42183
1.42189
1.42194
1.42199
1.42202
1.42205
1.42208
1.4221
1.42212
1.42213
1.42214
1.42215
1.42216
1.42216
1.42217
1.42217
1.42217
1.42218
1.42218
1.42218
1.42218
1.42218
1.42218
1.42218
1.42218
1.42218
1.42218
1.42218
1.42218
1.42218
1.42218
1.42218
1.42218
1.42217
1.42217
1.42217
1.42216
1.42216
1.42215
1.42214
1.42213
1.42212
1.4221
1.42208
1.42205
1.42202
1.42199
1.42194
1.42189
1.42183
1.42175
1.42166
1.42157
1.42146
1.42137
1.93423
1.93437
1.93453
1.93469
1.93482
1.93494
1.93503
1.93511
1.93518
1.93524
1.93529
1.93532
1.93535
1.93538
1.9354
1.93542
1.93543
1.93544
1.93545
1.93546
1.93547
1.93547
1.93547
1.93548
1.93548
1.93548
1.93548
1.93549
1.93549
1.93549
1.93549
1.93549
1.93549
1.93548
1.93548
1.93548
1.93548
1.93547
1.93547
1.93547
1.93546
1.93545
1.93544
1.93543
1.93542
1.9354
1.93538
1.93535
1.93532
1.93529
1.93524
1.93518
1.93511
1.93503
1.93494
1.93482
1.93469
1.93453
1.93437
1.93423
2.45247
2.45266
2.45288
2.45309
2.45328
2.45343
2.45357
2.45368
2.45377
2.45385
2.45391
2.45397
2.45401
2.45404
2.45407
2.45409
2.45411
2.45413
2.45414
2.45415
2.45416
2.45417
2.45417
2.45418
2.45418
2.45418
2.45419
2.45419
2.45419
2.45419
2.45419
2.45419
2.45419
2.45419
2.45418
2.45418
2.45418
2.45417
2.45417
2.45416
2.45415
2.45414
2.45413
2.45411
2.45409
2.45407
2.45404
2.45401
2.45397
2.45391
2.45385
2.45377
2.45368
2.45357
2.45343
2.45328
2.45309
2.45288
2.45266
2.45247
2.97941
2.97966
2.97994
2.9802
2.98044
2.98064
2.98081
2.98096
2.98108
2.98117
2.98126
2.98132
2.98138
2.98142
2.98146
2.98149
2.98151
2.98153
2.98155
2.98156
2.98157
2.98158
2.98159
2.98159
2.9816
2.9816
2.9816
2.9816
2.98161
2.98161
2.98161
2.98161
2.9816
2.9816
2.9816
2.9816
2.98159
2.98159
2.98158
2.98157
2.98156
2.98155
2.98153
2.98151
2.98149
2.98146
2.98142
2.98138
2.98132
2.98126
2.98117
2.98108
2.98096
2.98081
2.98064
2.98044
2.9802
2.97994
2.97966
2.97941
3.51612
3.51642
3.51677
3.51709
3.51738
3.51762
3.51783
3.51801
3.51815
3.51827
3.51837
3.51845
3.51852
3.51857
3.51862
3.51866
3.51868
3.51871
3.51873
3.51874
3.51876
3.51877
3.51878
3.51878
3.51879
3.51879
3.5188
3.5188
3.5188
3.5188
3.5188
3.5188
3.5188
3.5188
3.51879
3.51879
3.51878
3.51878
3.51877
3.51876
3.51874
3.51873
3.51871
3.51868
3.51866
3.51862
3.51857
3.51852
3.51845
3.51837
3.51827
3.51815
3.51801
3.51783
3.51762
3.51738
3.51709
3.51677
3.51642
3.51612
4.06288
4.06324
4.06365
4.06403
4.06437
4.06466
4.06491
4.06512
4.06529
4.06543
4.06555
4.06564
4.06572
4.06579
4.06584
4.06588
4.06592
4.06594
4.06597
4.06599
4.066
4.06601
4.06602
4.06603
4.06604
4.06604
4.06605
4.06605
4.06605
4.06605
4.06605
4.06605
4.06605
4.06605
4.06604
4.06604
4.06603
4.06602
4.06601
4.066
4.06599
4.06597
4.06594
4.06592
4.06588
4.06584
4.06579
4.06572
4.06564
4.06555
4.06543
4.06529
4.06512
4.06491
4.06466
4.06437
4.06403
4.06365
4.06324
4.06288
4.6197
4.62011
4.62059
4.62103
4.62142
4.62176
4.62204
4.62228
4.62248
4.62264
4.62278
4.62289
4.62298
4.62306
4.62312
4.62317
4.62321
4.62324
4.62327
4.62329
4.6233
4.62332
4.62333
4.62334
4.62335
4.62335
4.62336
4.62336
4.62336
4.62336
4.62336
4.62336
4.62336
4.62336
4.62335
4.62335
4.62334
4.62333
4.62332
4.6233
4.62329
4.62327
4.62324
4.62321
4.62317
4.62312
4.62306
4.62298
4.62289
4.62278
4.62264
4.62248
4.62228
4.62204
4.62176
4.62142
4.62103
4.62059
4.62011
4.6197
5.18646
5.18693
5.18746
5.18796
5.18841
5.18879
5.18911
5.18939
5.18961
5.1898
5.18995
5.19008
5.19018
5.19027
5.19033
5.19039
5.19044
5.19047
5.1905
5.19053
5.19055
5.19056
5.19058
5.19059
5.1906
5.1906
5.19061
5.19061
5.19061
5.19062
5.19062
5.19061
5.19061
5.19061
5.1906
5.1906
5.19059
5.19058
5.19056
5.19055
5.19053
5.1905
5.19047
5.19044
5.19039
5.19033
5.19027
5.19018
5.19008
5.18995
5.1898
5.18961
5.18939
5.18911
5.18879
5.18841
5.18796
5.18746
5.18693
5.18646
5.76298
5.7635
5.7641
5.76466
5.76515
5.76558
5.76594
5.76625
5.7665
5.76671
5.76688
5.76702
5.76714
5.76723
5.76731
5.76737
5.76742
5.76746
5.7675
5.76753
5.76755
5.76757
5.76758
5.76759
5.7676
5.76761
5.76762
5.76762
5.76762
5.76762
5.76762
5.76762
5.76762
5.76762
5.76761
5.7676
5.76759
5.76758
5.76757
5.76755
5.76753
5.7675
5.76746
5.76742
5.76737
5.76731
5.76723
5.76714
5.76702
5.76688
5.76671
5.7665
5.76625
5.76594
5.76558
5.76515
5.76466
5.7641
5.7635
5.76298
6.34902
6.34959
6.35025
6.35087
6.35142
6.35189
6.35229
6.35263
6.35291
6.35314
6.35333
6.35348
6.35361
6.35372
6.3538
6.35387
6.35393
6.35397
6.35401
6.35404
6.35407
6.35409
6.3541
6.35412
6.35413
6.35414
6.35414
6.35415
6.35415
6.35415
6.35415
6.35415
6.35415
6.35414
6.35414
6.35413
6.35412
6.3541
6.35409
6.35407
6.35404
6.35401
6.35397
6.35393
6.35387
6.3538
6.35372
6.35361
6.35348
6.35333
6.35314
6.35291
6.35263
6.35229
6.35189
6.35142
6.35087
6.35025
6.34959
6.34902
6.94428
6.94491
6.94563
6.94631
6.94691
6.94743
6.94787
6.94824
6.94854
6.9488
6.949
6.94917
6.94931
6.94943
6.94952
6.9496
6.94966
6.94971
6.94975
6.94979
6.94981
6.94983
6.94985
6.94987
6.94988
6.94989
6.9499
6.9499
6.9499
6.9499
6.9499
6.9499
6.9499
6.9499
6.94989
6.94988
6.94987
6.94985
6.94983
6.94981
6.94979
6.94975
6.94971
6.94966
6.9496
6.94952
6.94943
6.94931
6.94917
6.949
6.9488
6.94854
6.94824
6.94787
6.94743
6.94691
6.94631
6.94563
6.94491
6.94428
7.54843
7.54911
7.54989
7.55063
7.55128
7.55184
7.55232
7.55272
7.55305
7.55333
7.55355
7.55374
7.55389
7.55402
7.55412
7.5542
7.55427
7.55432
7.55437
7.5544
7.55443
7.55446
7.55448
7.55449
7.55451
7.55452
7.55452
7.55453
7.55453
7.55453
7.55453
7.55453
7.55453
7.55452
7.55452
7.55451
7.55449
7.55448
7.55446
7.55443
7.5544
7.55437
7.55432
7.55427
7.5542
7.55412
7.55402
7.55389
7.55374
7.55355
7.55333
7.55305
7.55272
7.55232
7.55184
7.55128
7.55063
7.54989
7.54911
7.54843
8.16104
8.16177
8.16261
8.16341
8.16411
8.16472
8.16523
8.16566
8.16602
8.16632
8.16656
8.16676
8.16693
8.16706
8.16717
8.16726
8.16733
8.16739
8.16744
8.16748
8.16751
8.16754
8.16756
8.16758
8.16759
8.1676
8.16761
8.16762
8.16762
8.16762
8.16762
8.16762
8.16762
8.16761
8.1676
8.16759
8.16758
8.16756
8.16754
8.16751
8.16748
8.16744
8.16739
8.16733
8.16726
8.16717
8.16706
8.16693
8.16676
8.16656
8.16632
8.16602
8.16566
8.16523
8.16472
8.16411
8.16341
8.16261
8.16177
8.16104
8.78162
8.7824
8.78331
8.78416
8.78492
8.78557
8.78612
8.78658
8.78696
8.78728
8.78754
8.78776
8.78793
8.78808
8.78819
8.78829
8.78837
8.78843
8.78848
8.78853
8.78856
8.78859
8.78861
8.78863
8.78865
8.78866
8.78867
8.78867
8.78868
8.78868
8.78868
8.78868
8.78867
8.78867
8.78866
8.78865
8.78863
8.78861
8.78859
8.78856
8.78853
8.78848
8.78843
8.78837
8.78829
8.78819
8.78808
8.78793
8.78776
8.78754
8.78728
8.78696
8.78658
8.78612
8.78557
8.78492
8.78416
8.78331
8.7824
8.78162
9.40961
9.41044
9.41141
9.41232
9.41312
9.41381
9.4144
9.41489
9.4153
9.41564
9.41592
9.41615
9.41633
9.41649
9.41661
9.41671
9.4168
9.41687
9.41692
9.41697
9.417
9.41703
9.41706
9.41708
9.41709
9.41711
9.41711
9.41712
9.41713
9.41713
9.41713
9.41713
9.41712
9.41711
9.41711
9.41709
9.41708
9.41706
9.41703
9.417
9.41697
9.41692
9.41687
9.4168
9.41671
9.41661
9.41649
9.41633
9.41615
9.41592
9.41564
9.4153
9.41489
9.4144
9.41381
9.41312
9.41232
9.41141
9.41044
9.40961
10.0443
10.0452
10.0462
10.0472
10.0481
10.0488
10.0494
10.0499
10.0504
10.0507
10.051
10.0513
10.0515
10.0516
10.0518
10.0519
10.052
10.052
10.0521
10.0521
10.0522
10.0522
10.0522
10.0523
10.0523
10.0523
10.0523
10.0523
10.0523
10.0523
10.0523
10.0523
10.0523
10.0523
10.0523
10.0523
10.0523
10.0522
10.0522
10.0522
10.0521
10.0521
10.052
10.052
10.0519
10.0518
10.0516
10.0515
10.0513
10.051
10.0507
10.0504
10.0499
10.0494
10.0488
10.0481
10.0472
10.0462
10.0452
10.0443
10.685
10.686
10.687
10.6881
10.689
10.6897
10.6904
10.6909
10.6914
10.6918
10.6921
10.6923
10.6925
10.6927
10.6929
10.693
10.6931
10.6931
10.6932
10.6933
10.6933
10.6933
10.6934
10.6934
10.6934
10.6934
10.6934
10.6934
10.6934
10.6934
10.6934
10.6934
10.6934
10.6934
10.6934
10.6934
10.6934
10.6934
10.6933
10.6933
10.6933
10.6932
10.6931
10.6931
10.693
10.6929
10.6927
10.6925
10.6923
10.6921
10.6918
10.6914
10.6909
10.6904
10.6897
10.689
10.6881
10.687
10.686
10.685
11.3308
11.3318
11.3329
11.334
11.3349
11.3357
11.3364
11.337
11.3375
11.3379
11.3382
11.3385
11.3387
11.3389
11.339
11.3391
11.3392
11.3393
11.3394
11.3394
11.3395
11.3395
11.3395
11.3396
11.3396
11.3396
11.3396
11.3396
11.3396
11.3396
11.3396
11.3396
11.3396
11.3396
11.3396
11.3396
11.3396
11.3395
11.3395
11.3395
11.3394
11.3394
11.3393
11.3392
11.3391
11.339
11.3389
11.3387
11.3385
11.3382
11.3379
11.3375
11.337
11.3364
11.3357
11.3349
11.334
11.3329
11.3318
11.3308
11.9806
11.9817
11.9828
11.984
11.9849
11.9858
11.9865
11.9871
11.9876
11.988
11.9884
11.9886
11.9889
11.9891
11.9892
11.9893
11.9894
11.9895
11.9896
11.9897
11.9897
11.9897
11.9898
11.9898
11.9898
11.9898
11.9898
11.9898
11.9899
11.9899
11.9899
11.9899
11.9898
11.9898
11.9898
11.9898
11.9898
11.9898
11.9897
11.9897
11.9897
11.9896
11.9895
11.9894
11.9893
11.9892
11.9891
11.9889
11.9886
11.9884
11.988
11.9876
11.9871
11.9865
11.9858
11.9849
11.984
11.9828
11.9817
11.9806
12.6333
12.6344
12.6356
12.6368
12.6378
12.6387
12.6394
12.6401
12.6406
12.641
12.6414
12.6417
12.6419
12.6421
12.6423
12.6424
12.6425
12.6426
12.6427
12.6427
12.6428
12.6428
12.6428
12.6429
12.6429
12.6429
12.6429
12.6429
12.6429
12.6429
12.6429
12.6429
12.6429
12.6429
12.6429
12.6429
12.6429
12.6428
12.6428
12.6428
12.6427
12.6427
12.6426
12.6425
12.6424
12.6423
12.6421
12.6419
12.6417
12.6414
12.641
12.6406
12.6401
12.6394
12.6387
12.6378
12.6368
12.6356
12.6344
12.6333
13.2876
13.2887
13.2899
13.2911
13.2922
13.2931
13.2939
13.2945
13.2951
13.2955
13.2959
13.2962
13.2964
13.2966
13.2968
13.2969
13.2971
13.2972
13.2972
13.2973
13.2973
13.2974
13.2974
13.2974
13.2975
13.2975
13.2975
13.2975
13.2975
13.2975
13.2975
13.2975
13.2975
13.2975
13.2975
13.2975
13.2974
13.2974
13.2974
13.2973
13.2973
13.2972
13.2972
13.2971
13.2969
13.2968
13.2966
13.2964
13.2962
13.2959
13.2955
13.2951
13.2945
13.2939
13.2931
13.2922
13.2911
13.2899
13.2887
13.2876
13.9418
13.9429
13.9442
13.9454
13.9465
13.9475
13.9483
13.9489
13.9495
13.9499
13.9503
13.9506
13.9509
13.9511
13.9513
13.9514
13.9515
13.9516
13.9517
13.9518
13.9518
13.9519
13.9519
13.9519
13.9519
13.952
13.952
13.952
13.952
13.952
13.952
13.952
13.952
13.952
13.952
13.9519
13.9519
13.9519
13.9519
13.9518
13.9518
13.9517
13.9516
13.9515
13.9514
13.9513
13.9511
13.9509
13.9506
13.9503
13.9499
13.9495
13.9489
13.9483
13.9475
13.9465
13.9454
13.9442
13.9429
13.9418
14.5941
14.5953
14.5966
14.5979
14.599
14.6
14.6008
14.6015
14.602
14.6025
14.6029
14.6032
14.6035
14.6037
14.6039
14.604
14.6041
14.6042
14.6043
14.6044
14.6044
14.6045
14.6045
14.6045
14.6045
14.6046
14.6046
14.6046
14.6046
14.6046
14.6046
14.6046
14.6046
14.6046
14.6046
14.6045
14.6045
14.6045
14.6045
14.6044
14.6044
14.6043
14.6042
14.6041
14.604
14.6039
14.6037
14.6035
14.6032
14.6029
14.6025
14.602
14.6015
14.6008
14.6
14.599
14.5979
14.5966
14.5953
14.5941
15.2425
15.2437
15.2451
15.2464
15.2475
15.2485
15.2493
15.25
15.2506
15.2511
15.2515
15.2518
15.2521
15.2523
15.2525
15.2526
15.2527
15.2528
15.2529
15.253
15.253
15.2531
15.2531
15.2532
15.2532
15.2532
15.2532
15.2532
15.2532
15.2532
15.2532
15.2532
15.2532
15.2532
15.2532
15.2532
15.2532
15.2531
15.2531
15.253
15.253
15.2529
15.2528
15.2527
15.2526
15.2525
15.2523
15.2521
15.2518
15.2515
15.2511
15.2506
15.25
15.2493
15.2485
15.2475
15.2464
15.2451
15.2437
15.2425
15.8846
15.8858
15.8872
15.8885
15.8897
15.8907
15.8915
15.8922
15.8928
15.8933
15.8937
15.894
15.8943
15.8945
15.8947
15.8948
15.895
15.8951
15.8952
15.8952
15.8953
15.8953
15.8954
15.8954
15.8954
15.8954
15.8954
15.8955
15.8955
15.8955
15.8955
15.8955
15.8955
15.8954
15.8954
15.8954
15.8954
15.8954
15.8953
15.8953
15.8952
15.8952
15.8951
15.895
15.8948
15.8947
15.8945
15.8943
15.894
15.8937
15.8933
15.8928
15.8922
15.8915
15.8907
15.8897
15.8885
15.8872
15.8858
15.8846
16.5175
16.5188
16.5202
16.5215
16.5226
16.5236
16.5245
16.5252
16.5258
16.5263
16.5267
16.527
16.5273
16.5275
16.5277
16.5279
16.528
16.5281
16.5282
16.5282
16.5283
16.5283
16.5284
16.5284
16.5284
16.5285
16.5285
16.5285
16.5285
16.5285
16.5285
16.5285
16.5285
16.5285
16.5285
16.5284
16.5284
16.5284
16.5283
16.5283
16.5282
16.5282
16.5281
16.528
16.5279
16.5277
16.5275
16.5273
16.527
16.5267
16.5263
16.5258
16.5252
16.5245
16.5236
16.5226
16.5215
16.5202
16.5188
16.5175
17.1381
17.1393
17.1407
17.142
17.1432
17.1442
17.145
17.1457
17.1463
17.1468
17.1472
17.1475
17.1478
17.148
17.1482
17.1484
17.1485
17.1486
17.1487
17.1488
17.1488
17.1489
17.1489
17.1489
17.149
17.149
17.149
17.149
17.149
17.149
17.149
17.149
17.149
17.149
17.149
17.149
17.1489
17.1489
17.1489
17.1488
17.1488
17.1487
17.1486
17.1485
17.1484
17.1482
17.148
17.1478
17.1475
17.1472
17.1468
17.1463
17.1457
17.145
17.1442
17.1432
17.142
17.1407
17.1393
17.1381
17.7423
17.7435
17.7449
17.7462
17.7473
17.7483
17.7492
17.7499
17.7504
17.7509
17.7513
17.7517
17.7519
17.7522
17.7523
17.7525
17.7526
17.7527
17.7528
17.7529
17.7529
17.753
17.753
17.7531
17.7531
17.7531
17.7531
17.7531
17.7531
17.7531
17.7531
17.7531
17.7531
17.7531
17.7531
17.7531
17.7531
17.753
17.753
17.7529
17.7529
17.7528
17.7527
17.7526
17.7525
17.7523
17.7522
17.7519
17.7517
17.7513
17.7509
17.7504
17.7499
17.7492
17.7483
17.7473
17.7462
17.7449
17.7435
17.7423
18.3256
18.3268
18.3282
18.3294
18.3306
18.3315
18.3323
18.333
18.3336
18.3341
18.3345
18.3348
18.3351
18.3353
18.3355
18.3356
18.3357
18.3358
18.3359
18.336
18.3361
18.3361
18.3361
18.3362
18.3362
18.3362
18.3362
18.3362
18.3363
18.3363
18.3363
18.3363
18.3362
18.3362
18.3362
18.3362
18.3362
18.3361
18.3361
18.3361
18.336
18.3359
18.3358
18.3357
18.3356
18.3355
18.3353
18.3351
18.3348
18.3345
18.3341
18.3336
18.333
18.3323
18.3315
18.3306
18.3294
18.3282
18.3268
18.3256
18.8826
18.8838
18.8851
18.8863
18.8874
18.8883
18.8891
18.8897
18.8903
18.8908
18.8911
18.8914
18.8917
18.8919
18.8921
18.8922
18.8924
18.8925
18.8925
18.8926
18.8927
18.8927
18.8928
18.8928
18.8928
18.8928
18.8928
18.8929
18.8929
18.8929
18.8929
18.8929
18.8929
18.8928
18.8928
18.8928
18.8928
18.8928
18.8927
18.8927
18.8926
18.8925
18.8925
18.8924
18.8922
18.8921
18.8919
18.8917
18.8914
18.8911
18.8908
18.8903
18.8897
18.8891
18.8883
18.8874
18.8863
18.8851
18.8838
18.8826
19.4067
19.4078
19.409
19.4102
19.4112
19.4121
19.4128
19.4134
19.414
19.4144
19.4148
19.4151
19.4153
19.4155
19.4157
19.4158
19.4159
19.416
19.4161
19.4162
19.4162
19.4163
19.4163
19.4163
19.4164
19.4164
19.4164
19.4164
19.4164
19.4164
19.4164
19.4164
19.4164
19.4164
19.4164
19.4164
19.4163
19.4163
19.4163
19.4162
19.4162
19.4161
19.416
19.4159
19.4158
19.4157
19.4155
19.4153
19.4151
19.4148
19.4144
19.414
19.4134
19.4128
19.4121
19.4112
19.4102
19.409
19.4078
19.4067
19.8904
19.8914
19.8925
19.8936
19.8945
19.8953
19.896
19.8965
19.897
19.8974
19.8978
19.898
19.8983
19.8985
19.8986
19.8988
19.8989
19.899
19.899
19.8991
19.8991
19.8992
19.8992
19.8992
19.8993
19.8993
19.8993
19.8993
19.8993
19.8993
19.8993
19.8993
19.8993
19.8993
19.8993
19.8993
19.8992
19.8992
19.8992
19.8991
19.8991
19.899
19.899
19.8989
19.8988
19.8986
19.8985
19.8983
19.898
19.8978
19.8974
19.897
19.8965
19.896
19.8953
19.8945
19.8936
19.8925
19.8914
19.8904
20.3255
20.3264
20.3273
20.3283
20.3291
20.3298
20.3304
20.3309
20.3314
20.3317
20.332
20.3323
20.3325
20.3327
20.3328
20.3329
20.333
20.3331
20.3332
20.3332
20.3333
20.3333
20.3333
20.3334
20.3334
20.3334
20.3334
20.3334
20.3334
20.3334
20.3334
20.3334
20.3334
20.3334
20.3334
20.3334
20.3334
20.3333
20.3333
20.3333
20.3332
20.3332
20.3331
20.333
20.3329
20.3328
20.3327
20.3325
20.3323
20.332
20.3317
20.3314
20.3309
20.3304
20.3298
20.3291
20.3283
20.3273
20.3264
20.3255
20.7046
20.7053
20.7061
20.7069
20.7076
20.7082
20.7088
20.7092
20.7096
20.7099
20.7101
20.7104
20.7105
20.7107
20.7108
20.7109
20.711
20.7111
20.7111
20.7112
20.7112
20.7113
20.7113
20.7113
20.7113
20.7114
20.7114
20.7114
20.7114
20.7114
20.7114
20.7114
20.7114
20.7114
20.7114
20.7113
20.7113
20.7113
20.7113
20.7112
20.7112
20.7111
20.7111
20.711
20.7109
20.7108
20.7107
20.7105
20.7104
20.7101
20.7099
20.7096
20.7092
20.7088
20.7082
20.7076
20.7069
20.7061
20.7053
20.7046
21.0232
21.0238
21.0244
21.0251
21.0256
21.0261
21.0266
21.0269
21.0272
21.0275
21.0277
21.0279
21.028
21.0281
21.0283
21.0283
21.0284
21.0285
21.0285
21.0286
21.0286
21.0287
21.0287
21.0287
21.0287
21.0287
21.0288
21.0288
21.0288
21.0288
21.0288
21.0288
21.0288
21.0288
21.0287
21.0287
21.0287
21.0287
21.0287
21.0286
21.0286
21.0285
21.0285
21.0284
21.0283
21.0283
21.0281
21.028
21.0279
21.0277
21.0275
21.0272
21.0269
21.0266
21.0261
21.0256
21.0251
21.0244
21.0238
21.0232
21.282
21.2824
21.2829
21.2834
21.2839
21.2842
21.2846
21.2848
21.2851
21.2853
21.2855
21.2856
21.2857
21.2858
21.2859
21.286
21.2861
21.2861
21.2862
21.2862
21.2862
21.2863
21.2863
21.2863
21.2863
21.2863
21.2864
21.2864
21.2864
21.2864
21.2864
21.2864
21.2864
21.2864
21.2863
21.2863
21.2863
21.2863
21.2863
21.2862
21.2862
21.2862
21.2861
21.2861
21.286
21.2859
21.2858
21.2857
21.2856
21.2855
21.2853
21.2851
21.2848
21.2846
21.2842
21.2839
21.2834
21.2829
21.2824
21.282
21.4874
21.4877
21.488
21.4884
21.4887
21.489
21.4892
21.4894
21.4896
21.4898
21.4899
21.49
21.4901
21.4902
21.4903
21.4904
21.4904
21.4905
21.4905
21.4905
21.4906
21.4906
21.4906
21.4906
21.4907
21.4907
21.4907
21.4907
21.4907
21.4907
21.4907
21.4907
21.4907
21.4907
21.4907
21.4907
21.4906
21.4906
21.4906
21.4906
21.4905
21.4905
21.4905
21.4904
21.4904
21.4903
21.4902
21.4901
21.49
21.4899
21.4898
21.4896
21.4894
21.4892
21.489
21.4887
21.4884
21.488
21.4877
21.4874
21.6494
21.6496
21.6499
21.6502
21.6504
21.6506
21.6508
21.6509
21.6511
21.6512
21.6513
21.6514
21.6515
21.6516
21.6516
21.6517
21.6517
21.6518
21.6518
21.6518
21.6519
21.6519
21.6519
21.6519
21.6519
21.652
21.652
21.652
21.652
21.652
21.652
21.652
21.652
21.652
21.652
21.6519
21.6519
21.6519
21.6519
21.6519
21.6518
21.6518
21.6518
21.6517
21.6517
21.6516
21.6516
21.6515
21.6514
21.6513
21.6512
21.6511
21.6509
21.6508
21.6506
21.6504
21.6502
21.6499
21.6496
21.6494
21.7792
21.7794
21.7795
21.7797
21.7799
21.7801
21.7802
21.7803
21.7804
21.7805
21.7806
21.7807
21.7807
21.7808
21.7809
21.7809
21.781
21.781
21.781
21.7811
21.7811
21.7811
21.7811
21.7811
21.7811
21.7812
21.7812
21.7812
21.7812
21.7812
21.7812
21.7812
21.7812
21.7812
21.7812
21.7811
21.7811
21.7811
21.7811
21.7811
21.7811
21.781
21.781
21.781
21.7809
21.7809
21.7808
21.7807
21.7807
21.7806
21.7805
21.7804
21.7803
21.7802
21.7801
21.7799
21.7797
21.7795
21.7794
21.7792
21.8861
21.8862
21.8863
21.8864
21.8866
21.8867
21.8868
21.8869
21.887
21.887
21.8871
21.8872
21.8872
21.8873
21.8873
21.8874
21.8874
21.8874
21.8875
21.8875
21.8875
21.8875
21.8876
21.8876
21.8876
21.8876
21.8876
21.8876
21.8876
21.8876
21.8876
21.8876
21.8876
21.8876
21.8876
21.8876
21.8876
21.8876
21.8875
21.8875
21.8875
21.8875
21.8874
21.8874
21.8874
21.8873
21.8873
21.8872
21.8872
21.8871
21.887
21.887
21.8869
21.8868
21.8867
21.8866
21.8864
21.8863
21.8862
21.8861
21.9769
21.9769
21.977
21.9771
21.9772
21.9773
21.9774
21.9775
21.9775
21.9776
21.9777
21.9777
21.9778
21.9778
21.9779
21.9779
21.9779
21.978
21.978
21.978
21.978
21.9781
21.9781
21.9781
21.9781
21.9781
21.9781
21.9781
21.9781
21.9781
21.9781
21.9781
21.9781
21.9781
21.9781
21.9781
21.9781
21.9781
21.9781
21.978
21.978
21.978
21.978
21.9779
21.9779
21.9779
21.9778
21.9778
21.9777
21.9777
21.9776
21.9775
21.9775
21.9774
21.9773
21.9772
21.9771
21.977
21.9769
21.9769
22.0563
22.0563
22.0563
22.0564
22.0565
22.0566
22.0566
22.0567
22.0567
22.0568
22.0569
22.0569
22.057
22.057
22.057
22.0571
22.0571
22.0571
22.0572
22.0572
22.0572
22.0572
22.0573
22.0573
22.0573
22.0573
22.0573
22.0573
22.0573
22.0573
22.0573
22.0573
22.0573
22.0573
22.0573
22.0573
22.0573
22.0573
22.0572
22.0572
22.0572
22.0572
22.0571
22.0571
22.0571
22.057
22.057
22.057
22.0569
22.0569
22.0568
22.0567
22.0567
22.0566
22.0566
22.0565
22.0564
22.0563
22.0563
22.0563
22.1272
22.1272
22.1273
22.1273
22.1274
22.1274
22.1275
22.1275
22.1276
22.1276
22.1277
22.1277
22.1278
22.1278
22.1279
22.1279
22.1279
22.128
22.128
22.128
22.128
22.1281
22.1281
22.1281
22.1281
22.1281
22.1281
22.1281
22.1281
22.1281
22.1281
22.1281
22.1281
22.1281
22.1281
22.1281
22.1281
22.1281
22.1281
22.128
22.128
22.128
22.128
22.1279
22.1279
22.1279
22.1278
22.1278
22.1277
22.1277
22.1276
22.1276
22.1275
22.1275
22.1274
22.1274
22.1273
22.1273
22.1272
22.1272
22.1918
22.1918
22.1918
22.1918
22.1919
22.1919
22.192
22.192
22.1921
22.1921
22.1922
22.1922
22.1922
22.1923
22.1923
22.1923
22.1924
22.1924
22.1924
22.1925
22.1925
22.1925
22.1925
22.1925
22.1926
22.1926
22.1926
22.1926
22.1926
22.1926
22.1926
22.1926
22.1926
22.1926
22.1926
22.1926
22.1925
22.1925
22.1925
22.1925
22.1925
22.1924
22.1924
22.1924
22.1923
22.1923
22.1923
22.1922
22.1922
22.1922
22.1921
22.1921
22.192
22.192
22.1919
22.1919
22.1918
22.1918
22.1918
22.1918
22.2513
22.2513
22.2513
22.2513
22.2513
22.2514
22.2514
22.2514
22.2515
22.2515
22.2516
22.2516
22.2516
22.2517
22.2517
22.2518
22.2518
22.2518
22.2519
22.2519
22.2519
22.2519
22.2519
22.252
22.252
22.252
22.252
22.252
22.252
22.252
22.252
22.252
22.252
22.252
22.252
22.252
22.252
22.2519
22.2519
22.2519
22.2519
22.2519
22.2518
22.2518
22.2518
22.2517
22.2517
22.2516
22.2516
22.2516
22.2515
22.2515
22.2514
22.2514
22.2514
22.2513
22.2513
22.2513
22.2513
22.2513
22.3067
22.3066
22.3067
22.3067
22.3067
22.3067
22.3068
22.3068
22.3068
22.3069
22.3069
22.3069
22.307
22.307
22.3071
22.3071
22.3071
22.3072
22.3072
22.3072
22.3072
22.3073
22.3073
22.3073
22.3073
22.3073
22.3073
22.3073
22.3073
22.3073
22.3073
22.3073
22.3073
22.3073
22.3073
22.3073
22.3073
22.3073
22.3073
22.3072
22.3072
22.3072
22.3072
22.3071
22.3071
22.3071
22.307
22.307
22.3069
22.3069
22.3069
22.3068
22.3068
22.3068
22.3067
22.3067
22.3067
22.3067
22.3066
22.3067
22.3587
22.3587
22.3587
22.3587
22.3587
22.3587
22.3587
22.3588
22.3588
22.3588
22.3589
22.3589
22.359
22.359
22.359
22.3591
22.3591
22.3591
22.3592
22.3592
22.3592
22.3592
22.3592
22.3593
22.3593
22.3593
22.3593
22.3593
22.3593
22.3593
22.3593
22.3593
22.3593
22.3593
22.3593
22.3593
22.3593
22.3592
22.3592
22.3592
22.3592
22.3592
22.3591
22.3591
22.3591
22.359
22.359
22.359
22.3589
22.3589
22.3588
22.3588
22.3588
22.3587
22.3587
22.3587
22.3587
22.3587
22.3587
22.3587
22.4078
22.4078
22.4078
22.4078
22.4078
22.4079
22.4079
22.4079
22.4079
22.408
22.408
22.4081
22.4081
22.4081
22.4082
22.4082
22.4082
22.4083
22.4083
22.4083
22.4083
22.4084
22.4084
22.4084
22.4084
22.4084
22.4084
22.4084
22.4085
22.4085
22.4085
22.4085
22.4084
22.4084
22.4084
22.4084
22.4084
22.4084
22.4084
22.4083
22.4083
22.4083
22.4083
22.4082
22.4082
22.4082
22.4081
22.4081
22.4081
22.408
22.408
22.4079
22.4079
22.4079
22.4079
22.4078
22.4078
22.4078
22.4078
22.4078
22.4546
22.4546
22.4546
22.4546
22.4546
22.4546
22.4546
22.4547
22.4547
22.4547
22.4548
22.4548
22.4548
22.4549
22.4549
22.455
22.455
22.455
22.455
22.4551
22.4551
22.4551
22.4551
22.4552
22.4552
22.4552
22.4552
22.4552
22.4552
22.4552
22.4552
22.4552
22.4552
22.4552
22.4552
22.4552
22.4552
22.4551
22.4551
22.4551
22.4551
22.455
22.455
22.455
22.455
22.4549
22.4549
22.4548
22.4548
22.4548
22.4547
22.4547
22.4547
22.4546
22.4546
22.4546
22.4546
22.4546
22.4546
22.4546
22.4993
22.4993
22.4993
22.4993
22.4993
22.4993
22.4994
22.4994
22.4994
22.4994
22.4995
22.4995
22.4995
22.4996
22.4996
22.4997
22.4997
22.4997
22.4997
22.4998
22.4998
22.4998
22.4998
22.4999
22.4999
22.4999
22.4999
22.4999
22.4999
22.4999
22.4999
22.4999
22.4999
22.4999
22.4999
22.4999
22.4999
22.4998
22.4998
22.4998
22.4998
22.4997
22.4997
22.4997
22.4997
22.4996
22.4996
22.4995
22.4995
22.4995
22.4994
22.4994
22.4994
22.4994
22.4993
22.4993
22.4993
22.4993
22.4993
22.4993
22.5423
22.5423
22.5423
22.5423
22.5423
22.5423
22.5423
22.5423
22.5423
22.5424
22.5424
22.5424
22.5425
22.5425
22.5426
22.5426
22.5426
22.5427
22.5427
22.5427
22.5427
22.5428
22.5428
22.5428
22.5428
22.5428
22.5428
22.5428
22.5429
22.5429
22.5429
22.5429
22.5428
22.5428
22.5428
22.5428
22.5428
22.5428
22.5428
22.5427
22.5427
22.5427
22.5427
22.5426
22.5426
22.5426
22.5425
22.5425
22.5424
22.5424
22.5424
22.5423
22.5423
22.5423
22.5423
22.5423
22.5423
22.5423
22.5423
22.5423
22.5837
22.5837
22.5837
22.5837
22.5837
22.5837
22.5837
22.5837
22.5837
22.5838
22.5838
22.5838
22.5839
22.5839
22.5839
22.584
22.584
22.5841
22.5841
22.5841
22.5841
22.5842
22.5842
22.5842
22.5842
22.5842
22.5842
22.5843
22.5843
22.5843
22.5843
22.5843
22.5843
22.5842
22.5842
22.5842
22.5842
22.5842
22.5842
22.5841
22.5841
22.5841
22.5841
22.584
22.584
22.5839
22.5839
22.5839
22.5838
22.5838
22.5838
22.5837
22.5837
22.5837
22.5837
22.5837
22.5837
22.5837
22.5837
22.5837
22.6238
22.6238
22.6237
22.6237
22.6237
22.6237
22.6238
22.6238
22.6238
22.6238
22.6239
22.6239
22.6239
22.624
22.624
22.624
22.6241
22.6241
22.6241
22.6242
22.6242
22.6242
22.6243
22.6243
22.6243
22.6243
22.6243
22.6243
22.6243
22.6243
22.6243
22.6243
22.6243
22.6243
22.6243
22.6243
22.6243
22.6243
22.6242
22.6242
22.6242
22.6241
22.6241
22.6241
22.624
22.624
22.624
22.6239
22.6239
22.6239
22.6238
22.6238
22.6238
22.6238
22.6237
22.6237
22.6237
22.6237
22.6238
22.6238
22.6627
22.6626
22.6626
22.6626
22.6626
22.6626
22.6626
22.6627
22.6627
22.6627
22.6627
22.6628
22.6628
22.6629
22.6629
22.6629
22.663
22.663
22.663
22.6631
22.6631
22.6631
22.6631
22.6632
22.6632
22.6632
22.6632
22.6632
22.6632
22.6632
22.6632
22.6632
22.6632
22.6632
22.6632
22.6632
22.6632
22.6631
22.6631
22.6631
22.6631
22.663
22.663
22.663
22.6629
22.6629
22.6629
22.6628
22.6628
22.6627
22.6627
22.6627
22.6627
22.6626
22.6626
22.6626
22.6626
22.6626
22.6626
22.6627
22.7005
22.7005
22.7005
22.7005
22.7005
22.7005
22.7005
22.7005
22.7005
22.7006
22.7006
22.7006
22.7007
22.7007
22.7008
22.7008
22.7008
22.7009
22.7009
22.7009
22.701
22.701
22.701
22.701
22.701
22.7011
22.7011
22.7011
22.7011
22.7011
22.7011
22.7011
22.7011
22.7011
22.7011
22.701
22.701
22.701
22.701
22.701
22.7009
22.7009
22.7009
22.7008
22.7008
22.7008
22.7007
22.7007
22.7006
22.7006
22.7006
22.7005
22.7005
22.7005
22.7005
22.7005
22.7005
22.7005
22.7005
22.7005
22.7375
22.7374
22.7374
22.7374
22.7374
22.7374
22.7374
22.7375
22.7375
22.7375
22.7375
22.7376
22.7376
22.7377
22.7377
22.7377
22.7378
22.7378
22.7378
22.7379
22.7379
22.7379
22.738
22.738
22.738
22.738
22.738
22.738
22.738
22.738
22.738
22.738
22.738
22.738
22.738
22.738
22.738
22.738
22.7379
22.7379
22.7379
22.7378
22.7378
22.7378
22.7377
22.7377
22.7377
22.7376
22.7376
22.7375
22.7375
22.7375
22.7375
22.7374
22.7374
22.7374
22.7374
22.7374
22.7374
22.7375
22.7736
22.7736
22.7736
22.7736
22.7736
22.7736
22.7736
22.7736
22.7736
22.7737
22.7737
22.7737
22.7738
22.7738
22.7739
22.7739
22.7739
22.774
22.774
22.774
22.7741
22.7741
22.7741
22.7741
22.7742
22.7742
22.7742
22.7742
22.7742
22.7742
22.7742
22.7742
22.7742
22.7742
22.7742
22.7742
22.7741
22.7741
22.7741
22.7741
22.774
22.774
22.774
22.7739
22.7739
22.7739
22.7738
22.7738
22.7737
22.7737
22.7737
22.7736
22.7736
22.7736
22.7736
22.7736
22.7736
22.7736
22.7736
22.7736
22.809
22.809
22.809
22.809
22.809
22.809
22.809
22.809
22.8091
22.8091
22.8091
22.8092
22.8092
22.8093
22.8093
22.8093
22.8094
22.8094
22.8095
22.8095
22.8095
22.8095
22.8096
22.8096
22.8096
22.8096
22.8096
22.8096
22.8097
22.8097
22.8097
22.8097
22.8096
22.8096
22.8096
22.8096
22.8096
22.8096
22.8095
22.8095
22.8095
22.8095
22.8094
22.8094
22.8093
22.8093
22.8093
22.8092
22.8092
22.8091
22.8091
22.8091
22.809
22.809
22.809
22.809
22.809
22.809
22.809
22.809
22.8439
22.8438
22.8438
22.8438
22.8438
22.8438
22.8438
22.8439
22.8439
22.8439
22.844
22.844
22.844
22.8441
22.8441
22.8442
22.8442
22.8442
22.8443
22.8443
22.8443
22.8444
22.8444
22.8444
22.8444
22.8445
22.8445
22.8445
22.8445
22.8445
22.8445
22.8445
22.8445
22.8445
22.8445
22.8444
22.8444
22.8444
22.8444
22.8443
22.8443
22.8443
22.8442
22.8442
22.8442
22.8441
22.8441
22.844
22.844
22.844
22.8439
22.8439
22.8439
22.8438
22.8438
22.8438
22.8438
22.8438
22.8438
22.8439
22.8781
22.8781
22.8781
22.8781
22.8781
22.8781
22.8781
22.8781
22.8782
22.8782
22.8782
22.8783
22.8783
22.8784