/*--------------------------------*- C++ -*----------------------------------*\
| =========                 |                                                 |
| \\      /  F ield         | foam-extend: Open Source CFD                    |
|  \\    /   O peration     | Version:     4.0                                |
|   \\  /    A nd           | Web:         http://www.foam-extend.org         |
|    \\/     M anipulation  |                                                 |
\*---------------------------------------------------------------------------*/
FoamFile
{
    version     2.0;
    format      ascii;
    class       surfaceScalarField;
    location    "19";
    object      phi;
}
// * * * * * * * * * * * * * * * * * * * * * * * * * * * * * * * * * * * * * //

dimensions      [0 3 -1 0 0 0 0];

internalField   nonuniform List<scalar> 
13744
(
1.09835e-30
-4.96116e-27
7.29286e-30
-7.4629e-30
6.2194e-30
-2.66318e-30
3.2504e-30
1.2542e-30
-1.23462e-30
4.12464e-30
-5.71045e-30
5.31678e-30
-8.87298e-30
4.95933e-30
-1.03385e-29
2.96911e-30
-1.01738e-29
1.59284e-30
-8.76148e-30
1.3308e-31
-6.78862e-30
-2.49648e-30
-4.90874e-30
-3.1702e-30
-3.60526e-30
-3.11849e-30
-3.07423e-30
-2.49255e-30
-3.24416e-30
-1.54347e-30
-3.83166e-30
-6.33478e-31
-4.47276e-30
-2.45382e-32
-4.85289e-30
1.8555e-31
-4.79784e-30
3.82129e-32
-4.30858e-30
-3.24591e-31
-3.53934e-30
-7.07992e-31
-2.73069e-30
-9.66712e-31
-2.12398e-30
-9.82872e-31
-1.88759e-30
-7.78205e-31
-2.06923e-30
-4.19391e-31
-2.59044e-30
-3.51433e-32
-3.27509e-30
2.63659e-31
-3.90207e-30
3.83349e-31
-4.26529e-30
3.00232e-31
-4.22468e-30
4.7986e-32
-3.73564e-30
-2.98066e-31
-2.85437e-30
-6.3705e-31
-1.72135e-30
-8.88811e-31
-5.28312e-31
-9.92291e-31
5.21763e-31
-9.30908e-31
1.25344e-30
-7.25228e-31
1.5508e-30
-4.20475e-31
1.37734e-30
-7.29225e-32
7.84136e-31
2.58989e-31
-9.82533e-32
5.32371e-31
-1.07728e-30
7.21075e-31
-1.93289e-30
8.01199e-31
-2.45329e-30
7.76452e-31
-2.48251e-30
6.6178e-31
-1.95018e-30
4.58655e-31
-9.02599e-31
2.51695e-31
5.02926e-31
-1.51092e-32
2.01615e-30
-2.13601e-31
3.34558e-30
-3.65257e-31
4.22527e-30
-3.85449e-31
4.46352e-30
-3.42298e-31
4.04884e-30
-1.86423e-31
3.07155e-30
1.04868e-32
1.888e-30
2.0664e-31
7.31732e-31
3.64218e-31
1.40612e-31
3.08106e-31
-8.54006e-32
3.94882e-31
4.20543e-31
2.71999e-31
2.08115e-31
1.10256e-30
1.0752e-30
6.77285e-30
-4.965e-27
2.03957e-29
-2.51408e-29
1.88438e-29
-1.26645e-29
1.05615e-29
8.35765e-31
-2.3005e-30
1.19777e-29
-1.57922e-29
1.71056e-29
-2.56185e-29
1.66569e-29
-3.07393e-29
1.38468e-29
-3.09466e-29
6.96698e-30
-2.73501e-29
-1.32643e-32
-2.17864e-29
-6.09545e-30
-1.62693e-29
-9.21363e-30
-1.22431e-29
-9.94335e-30
-1.04227e-29
-8.64221e-30
-1.06754e-29
-5.76831e-30
-1.2249e-29
-2.69926e-30
-1.4082e-29
-4.75313e-31
-1.52351e-29
5.00762e-31
-1.51451e-29
2.00708e-31
-1.37669e-29
-9.28055e-31
-1.15161e-29
-2.25728e-30
-9.09042e-30
-3.17235e-30
-7.21488e-30
-3.32811e-30
-6.41814e-30
-2.64205e-30
-6.87817e-30
-1.36988e-30
-8.39179e-30
4.94186e-32
-1.04496e-29
1.19324e-30
-1.2388e-29
1.67859e-30
-1.35702e-29
1.38918e-30
-1.3546e-29
4.22702e-31
-1.21496e-29
-9.54813e-31
-9.52559e-30
-2.3618e-30
-6.08617e-30
-3.43831e-30
-2.41375e-30
-3.93063e-30
8.62365e-31
-3.71527e-30
3.18868e-30
-2.86985e-30
4.19073e-30
-1.57283e-30
3.74108e-30
-9.69195e-32
1.98611e-30
1.28561e-30
-6.75659e-31
2.33717e-30
-3.65119e-30
2.92097e-30
-6.26012e-30
2.96599e-30
-7.84826e-30
2.52285e-30
-7.93765e-30
1.73414e-30
-6.31028e-30
7.38735e-31
-3.12145e-30
-1.90155e-31
1.16029e-30
-9.77199e-31
5.74057e-30
-1.36217e-30
9.77873e-30
-1.44494e-30
1.23962e-29
-9.25397e-31
1.31359e-29
-3.37521e-31
1.17989e-29
4.26611e-31
8.92622e-30
1.14867e-30
5.22402e-30
1.63318e-30
1.93053e-30
1.41274e-30
-1.04335e-31
1.15533e-30
-4.43184e-31
8.11448e-31
5.71057e-31
8.71621e-31
7.63832e-31
3.1131e-30
3.89981e-30
1.15307e-29
-4.96589e-27
3.33987e-29
-4.52203e-29
3.17925e-29
-3.03602e-29
1.86101e-29
-1.41754e-30
-2.48084e-30
2.08983e-29
-2.52525e-29
3.32266e-29
-4.22195e-29
3.50453e-29
-5.16412e-29
3.07873e-29
-5.27849e-29
1.84155e-29
-4.74244e-29
5.85731e-30
-3.84575e-29
-8.40784e-30
-2.93038e-29
-1.67259e-29
-2.2408e-29
-1.95651e-29
-1.90951e-29
-1.74454e-29
-1.92404e-29
-1.21942e-29
-2.16814e-29
-6.21378e-30
-2.46676e-29
-1.62863e-30
-2.66186e-29
6.43066e-31
-2.65419e-29
3.83213e-31
-2.43077e-29
-1.65287e-30
-2.05654e-29
-4.19225e-30
-1.64642e-29
-6.06747e-30
-1.3228e-29
-6.41947e-30
-1.1775e-29
-5.07399e-30
-1.24451e-29
-2.48447e-30
-1.49334e-29
4.71843e-31
-1.84037e-29
2.84089e-30
-2.17374e-29
3.84982e-30
-2.38401e-29
3.17824e-30
-2.39171e-29
9.88302e-31
-2.16508e-29
-2.13325e-30
-1.72543e-29
-5.33328e-30
-1.14086e-29
-7.79169e-30
-5.10132e-30
-8.88215e-30
5.84258e-31
-8.34713e-30
4.68259e-30
-6.30865e-30
6.52845e-30
-3.21922e-30
5.8809e-30
2.38628e-31
2.97304e-30
3.36059e-30
-1.52093e-30
5.55122e-30
-6.58645e-30
6.44713e-30
-1.10528e-29
5.95138e-30
-1.37915e-29
4.2884e-30
-1.39768e-29
1.91577e-30
-1.12263e-29
-6.50669e-31
-5.80727e-30
-2.70749e-30
1.4917e-30
-4.01106e-30
9.29613e-30
-4.02974e-30
1.62013e-29
-3.10744e-30
2.06582e-29
-9.93368e-31
2.19656e-29
1.14156e-30
1.96664e-29
3.44771e-30
1.48565e-29
4.33642e-30
8.47749e-30
4.79725e-30
2.99895e-30
3.05606e-30
-6.68751e-31
1.74645e-30
-1.04685e-30
-9.98442e-32
2.86012e-31
9.62281e-31
1.27127e-30
5.09721e-30
8.27011e-30
1.54177e-29
-4.96357e-27
4.63549e-29
-7.56846e-29
4.48791e-29
-5.44531e-29
2.71714e-29
-6.72745e-30
-2.11211e-30
3.05695e-29
-3.43938e-29
5.42275e-29
-5.89422e-29
5.94059e-29
-7.31797e-29
5.50818e-29
-7.57266e-29
3.55624e-29
-6.89473e-29
1.39288e-29
-5.67321e-29
-9.07847e-30
-4.39308e-29
-2.47165e-29
-3.40439e-29
-3.09233e-29
-2.90677e-29
-2.8831e-29
-2.89527e-29
-2.1073e-29
-3.21658e-29
-1.15369e-29
-3.62748e-29
-3.73114e-30
-3.90412e-29
4.24239e-31
-3.90117e-29
4.37153e-31
-3.59381e-29
-2.59174e-30
-3.06814e-29
-6.65496e-30
-2.48392e-29
-9.7171e-30
-2.01487e-29
-1.03486e-29
-1.79432e-29
-8.16405e-30
-1.87528e-29
-3.85467e-30
-2.21917e-29
1.10415e-30
-2.71025e-29
5.10967e-30
-3.19017e-29
6.76802e-30
-3.50139e-29
5.50477e-30
-3.52696e-29
1.55545e-30
-3.21703e-29
-4.0344e-30
-2.59785e-29
-9.78328e-30
-1.76384e-29
-1.419e-29
-8.55253e-30
-1.61151e-29
-2.80926e-31
-1.50361e-29
5.76869e-30
-1.12128e-29
8.60979e-30
-5.49352e-30
7.86331e-30
8.26591e-31
3.83614e-30
6.3896e-30
-2.521e-30
1.00582e-29
-9.75732e-30
1.11398e-29
-1.61861e-29
9.56002e-30
-2.01742e-29
5.80621e-30
-2.05184e-29
8.96212e-31
-1.66498e-29
-4.06104e-30
-8.93865e-30
-7.68695e-30
1.50108e-30
-9.39752e-30
1.26947e-29
-8.39395e-30
2.2643e-29
-5.48087e-30
2.90917e-29
-5.26564e-31
3.1065e-29
4.08706e-30
2.78282e-29
8.64943e-30
2.10314e-29
9.69143e-30
1.18647e-29
9.69379e-30
4.06415e-30
5.05954e-30
-1.36801e-30
2.19219e-30
-1.87264e-30
-2.30606e-30
-2.52463e-31
4.43838e-31
1.62881e-30
6.74795e-30
1.40825e-29
1.87628e-29
-4.95808e-27
5.86948e-29
-1.09522e-28
5.80004e-29
-8.74449e-29
3.61634e-29
-1.59737e-29
-1.2444e-30
4.12298e-29
-4.3248e-29
7.9805e-29
-7.58069e-29
8.99742e-29
-9.53779e-29
8.60398e-29
-9.98193e-29
5.95316e-29
-9.19734e-29
2.67052e-29
-7.66789e-29
-9.03835e-30
-6.02311e-29
-3.30135e-29
-4.7227e-29
-4.44103e-29
-4.04069e-29
-4.29223e-29
-3.9867e-29
-3.25648e-29
-4.37465e-29
-1.86633e-29
-4.89428e-29
-6.91098e-30
-5.25431e-29
-2.62537e-31
-5.26004e-29
2.86499e-31
-4.87132e-29
-3.78923e-30
-4.19274e-29
-9.59879e-30
-3.42826e-29
-1.4135e-29
-2.80411e-29
-1.51299e-29
-2.49769e-29
-1.19413e-29
-2.58398e-29
-5.52573e-30
-3.01868e-29
1.93063e-30
-3.65492e-29
7.9572e-30
-4.28719e-29
1.04206e-29
-4.70777e-29
8.35895e-30
-4.75926e-29
2.14025e-30
-4.37075e-29
-6.66264e-30
-3.5712e-29
-1.57289e-29
-2.48042e-29
-2.26729e-29
-1.28074e-29
-2.56653e-29
-1.77768e-30
-2.38736e-29
6.40709e-30
-1.76824e-29
1.04089e-29
-8.48187e-30
9.68411e-30
1.60627e-30
4.59681e-30
1.03486e-29
-3.62948e-30
1.58599e-29
-1.30979e-29
1.70396e-29
-2.15848e-29
1.38032e-29
-2.69236e-29
7.06953e-30
-2.75039e-29
-1.37012e-30
-2.25454e-29
-9.54042e-30
-1.25069e-29
-1.51758e-29
1.17343e-30
-1.72527e-29
1.59067e-29
-1.45946e-29
2.90731e-29
-8.67186e-30
3.76801e-29
4.90681e-31
4.04438e-29
8.55756e-30
3.63247e-29
1.60485e-29
2.75221e-29
1.72298e-29
1.54762e-29
1.63532e-29
5.22292e-30
7.67727e-30
-2.12051e-30
2.16004e-30
-2.858e-30
-6.13512e-30
-1.00194e-30
-7.37946e-31
1.84596e-30
7.96961e-30
2.12333e-29
2.17946e-29
-4.94487e-27
7.03665e-29
-1.51233e-28
7.10219e-29
-1.28633e-28
4.54977e-29
-2.83008e-29
7.94011e-32
5.18897e-29
-5.18002e-29
1.08159e-28
-9.27801e-29
1.26614e-28
-1.18219e-28
1.24208e-28
-1.25073e-28
8.85912e-29
-1.16546e-28
4.24941e-29
-9.83718e-29
-5.72101e-30
-7.82974e-29
-4.08899e-29
-6.20585e-29
-5.96109e-29
-5.32103e-29
-5.95513e-29
-5.20708e-29
-4.65309e-29
-5.64958e-29
-2.77475e-29
-6.27317e-29
-1.13214e-29
-6.71802e-29
-1.52639e-30
-6.73671e-29
-1.13961e-31
-6.26986e-29
-5.27373e-30
-5.4377e-29
-1.30885e-29
-4.48722e-29
-1.93185e-29
-3.69811e-29
-2.07793e-29
-3.29432e-29
-1.64409e-29
-3.37589e-29
-7.53816e-30
-3.89548e-29
2.89072e-30
-4.67648e-29
1.13476e-29
-5.46591e-29
1.47774e-29
-6.004e-29
1.17586e-29
-6.08997e-29
2.76329e-30
-5.62876e-29
-9.99904e-30
-4.64947e-29
-2.31687e-29
-3.296e-29
-3.32779e-29
-1.79296e-29
-3.76131e-29
-3.97173e-30
-3.49563e-29
6.5394e-30
-2.58265e-29
1.18831e-29
-1.22941e-29
1.1323e-29
2.49293e-30
5.25988e-30
1.51819e-29
-4.81812e-30
2.29388e-29
-1.6563e-29
2.41302e-29
-2.7196e-29
1.86944e-29
-3.39906e-29
8.08209e-30
-3.48987e-29
-4.91104e-30
-2.89005e-29
-1.72023e-29
-1.65237e-29
-2.53314e-29
4.75882e-31
-2.77051e-29
1.88878e-29
-2.27482e-29
3.5448e-29
-1.27311e-29
4.63918e-29
1.78559e-30
5.00957e-29
1.45523e-29
4.51817e-29
2.59172e-29
3.43813e-29
2.71536e-29
1.93804e-29
2.49771e-29
6.54603e-30
1.08496e-29
-2.86571e-30
1.90655e-30
-3.9626e-30
-1.13316e-29
-1.94517e-30
-2.84404e-30
1.92143e-30
8.65822e-30
2.96126e-29
2.44905e-29
-4.92519e-27
8.14531e-29
-2.00069e-28
8.38238e-29
-1.75734e-28
5.51088e-29
-4.52335e-29
1.84178e-30
6.19325e-29
-6.00001e-29
1.41235e-28
-1.09792e-28
1.68042e-28
-1.41659e-28
1.70001e-28
-1.5148e-28
1.25881e-28
-1.4271e-28
6.49091e-29
-1.21902e-28
-6.16099e-31
-9.82374e-29
-4.8967e-29
-7.86544e-29
-7.63378e-29
-6.75953e-29
-7.86187e-29
-6.56649e-29
-6.3099e-29
-7.0499e-29
-3.89751e-29
-7.77152e-29
-1.70624e-29
-8.30208e-29
-3.52142e-30
-8.33812e-29
-8.92586e-31
-7.79702e-29
-7.08557e-30
-6.8113e-29
-1.71085e-29
-5.66948e-29
-2.52912e-29
-4.70534e-29
-2.73311e-29
-4.19174e-29
-2.17088e-29
-4.25709e-29
-9.9792e-30
-4.854e-29
3.91543e-30
-5.77791e-29
1.52319e-29
-6.72843e-29
1.98311e-29
-7.39204e-29
1.57144e-29
-7.52173e-29
3.44136e-30
-6.99495e-29
-1.40095e-29
-5.83812e-29
-3.20984e-29
-4.21746e-29
-4.60242e-29
-2.39967e-29
-5.20354e-29
-6.94104e-30
-4.83872e-29
6.09653e-30
-3.57744e-29
1.29811e-29
-1.70542e-29
1.27525e-29
3.37998e-30
5.82368e-30
2.08201e-29
-6.06547e-30
3.12687e-29
-2.01151e-29
3.24404e-29
-3.29767e-29
2.4263e-29
-4.13381e-29
8.86799e-30
-4.26815e-29
-9.73496e-30
-3.5716e-29
-2.70715e-29
-2.10132e-29
-3.82108e-29
-6.34556e-31
-4.08824e-29
2.15847e-29
-3.29933e-29
4.17164e-29
-1.78136e-29
5.5194e-29
3.49717e-30
6.00117e-29
2.21367e-29
5.44187e-29
3.81066e-29
4.16538e-29
3.95168e-29
2.36382e-29
3.57323e-29
8.09313e-30
1.48556e-29
-3.5593e-30
1.45259e-30
-5.16474e-30
-1.79598e-29
-3.07567e-30
-5.69281e-30
1.84679e-30
8.75432e-30
3.91172e-29
2.65556e-29
-4.90162e-27
9.16765e-29
-2.51063e-28
9.62449e-29
-2.32146e-28
6.49064e-29
-6.69646e-29
4.0202e-30
7.08663e-29
-6.78618e-29
1.76496e-28
-1.26836e-28
2.15312e-28
-1.65661e-28
2.22203e-28
-1.79034e-28
1.69181e-28
-1.70506e-28
9.21868e-29
-1.47347e-28
7.52489e-30
-1.20163e-28
-5.68105e-29
-9.71339e-29
-9.43684e-29
-8.36761e-29
-1.00091e-28
-8.0755e-29
-8.24792e-29
-8.58456e-29
-5.24301e-29
-9.39707e-29
-2.43612e-29
-1.00137e-28
-6.35865e-30
-1.00718e-28
-2.10228e-30
-9.46116e-29
-9.26966e-30
-8.32278e-29
-2.16918e-29
-6.98478e-29
-3.20462e-29
-5.83534e-29
-3.47951e-29
-5.19853e-29
-2.77897e-29
-5.23454e-29
-1.28868e-29
-5.89937e-29
4.94177e-30
-6.96272e-29
1.95499e-29
-8.07723e-29
2.55459e-29
-8.87424e-29
2.02224e-29
-9.05765e-29
4.20962e-30
-8.47385e-29
-1.86687e-29
-7.14337e-29
-4.24912e-29
-5.25259e-29
-6.09306e-29
-3.10964e-29
-6.89705e-29
-1.07742e-29
-6.4274e-29
4.99918e-30
-4.76576e-29
1.36422e-29
-2.29107e-29
1.39366e-29
4.13396e-30
6.27931e-30
2.71647e-29
-7.35625e-30
4.08024e-29
-2.37218e-29
4.19559e-29
-3.8888e-29
3.05323e-29
-4.89323e-29
9.46629e-30
-5.08339e-29
-1.58192e-29
-4.29962e-29
-3.91467e-29
-2.60044e-29
-5.39209e-29
-2.20751e-30
-5.68947e-29
2.39373e-29
-4.5449e-29
4.78209e-29
-2.40142e-29
6.40422e-29
5.59392e-30
7.01725e-29
3.121e-29
6.40494e-29
5.26988e-29
4.93786e-29
5.44897e-29
2.83037e-29
4.88015e-29
9.91876e-30
1.9779e-29
-4.15432e-30
1.07261e-30
-6.4368e-30
-2.57176e-29
-4.38399e-30
-9.43561e-30
1.61318e-30
8.13056e-30
4.96031e-29
2.79239e-29
-4.87113e-27
1.00738e-28
-3.06428e-28
1.08124e-28
-2.95702e-28
7.47573e-29
-9.38606e-29
6.55795e-30
7.83206e-29
-7.53392e-29
2.13901e-28
-1.43844e-28
2.67536e-28
-1.90184e-28
2.8145e-28
-2.07717e-28
2.19769e-28
-1.9995e-28
1.25718e-28
-1.74764e-28
1.90308e-29
-1.44167e-28
-6.36569e-29
-1.17624e-28
-1.13577e-28
-1.01583e-28
-1.23984e-28
-9.74561e-29
-1.04508e-28
-1.02633e-28
-6.82485e-29
-1.11581e-28
-3.33073e-29
-1.18606e-28
-1.01663e-29
-1.19457e-28
-3.84368e-30
-1.12712e-28
-1.18734e-29
-9.98205e-29
-2.68249e-29
-8.44365e-29
-3.96067e-29
-7.0985e-29
-4.32061e-29
-6.32409e-29
-3.47385e-29
-6.31599e-29
-1.63501e-29
-7.03738e-29
5.89099e-30
-8.23493e-29
2.42369e-29
-9.51519e-29
3.18898e-29
-1.04532e-28
2.53e-29
-1.0701e-28
5.09654e-30
-1.00702e-28
-2.39214e-29
-8.57184e-29
-5.4312e-29
-6.40974e-29
-7.79983e-29
-3.9324e-29
-8.84934e-29
-1.55692e-29
-8.27232e-29
3.15741e-30
-6.16249e-29
1.37946e-29
-3.00209e-29
1.48294e-29
4.61704e-30
6.60951e-30
3.41144e-29
-8.68087e-30
5.14806e-29
-2.73539e-29
5.26757e-29
-4.48914e-29
3.75448e-29
-5.67377e-29
9.90834e-30
-5.93356e-29
-2.31401e-29
-5.07443e-29
-5.34993e-29
-3.15265e-29
-7.24851e-29
-4.29371e-30
-7.58602e-29
2.58813e-29
-6.03016e-29
5.36961e-29
-3.15455e-29
7.28859e-29
7.74955e-30
8.05525e-29
4.17475e-29
7.40732e-29
7.01271e-29
5.75852e-29
7.21235e-29
3.34309e-29
6.42336e-29
1.2083e-29
2.58675e-29
-4.60424e-30
1.00334e-30
-7.75746e-30
-3.50133e-29
-5.86695e-30
-1.39089e-29
1.20941e-30
6.70799e-30
6.0918e-29
2.86113e-29
-4.82977e-27
1.08541e-28
-3.62793e-28
1.19287e-28
-3.67075e-28
8.45748e-29
-1.25899e-28
9.42769e-30
8.36494e-29
-8.24248e-29
2.52739e-28
-1.60759e-28
3.23393e-28
-2.15151e-28
3.47484e-28
-2.375e-28
2.77063e-28
-2.31073e-28
1.6491e-28
-2.04247e-28
3.56851e-29
-1.70379e-28
-6.88689e-29
-1.40255e-28
-1.33264e-28
-1.21446e-28
-1.4993e-28
-1.15892e-28
-1.28931e-28
-1.20969e-28
-8.64708e-29
-1.30641e-28
-4.40563e-29
-1.38514e-28
-1.51313e-29
-1.39685e-28
-6.24498e-30
-1.32364e-28
-1.49595e-29
-1.17995e-28
-3.25698e-29
-1.00572e-28
-4.79857e-29
-8.50588e-29
-5.25839e-29
-7.57858e-29
-4.26154e-29
-7.50991e-29
-2.04498e-29
-8.27447e-29
6.66188e-30
-9.59908e-29
2.92288e-29
-1.10455e-28
3.88282e-29
-1.21319e-28
3.09278e-29
-1.24554e-28
6.14856e-30
-1.17891e-28
-2.97283e-29
-1.01305e-28
-6.75279e-29
-7.69782e-29
-9.72196e-29
-4.87822e-29
-1.10652e-28
-2.14327e-29
-1.03836e-28
4.72026e-31
-7.78346e-29
1.33577e-29
-3.85632e-29
1.53771e-29
4.65985e-30
6.79138e-30
4.15356e-29
-1.00332e-29
6.32369e-29
-3.09832e-29
6.45765e-29
-5.09482e-29
4.53265e-29
-6.47189e-29
1.02674e-29
-6.81665e-29
-3.16526e-29
-5.89641e-29
-7.00707e-29
-3.7611e-29
-9.40301e-29
-6.9494e-30
-9.7902e-29
2.73447e-29
-7.7695e-29
5.92679e-29
-4.06327e-29
8.16633e-29
9.98473e-30
9.11168e-29
5.36316e-29
8.44896e-29
8.98628e-29
6.63043e-29
9.25483e-29
3.90717e-29
8.23183e-29
1.4645e-29
3.32589e-29
-4.86247e-30
1.10858e-30
-9.10035e-30
-4.50971e-29
-7.52384e-30
-1.94067e-29
6.21887e-31
4.38931e-30
7.28822e-29
2.84088e-29
-4.77732e-27
1.14999e-28
-4.19963e-28
1.29559e-28
-4.44982e-28
9.41948e-29
-1.63517e-28
1.2572e-29
8.63781e-29
-8.90812e-29
2.9239e-28
-1.77499e-28
3.84274e-28
-2.40497e-28
4.2036e-28
-2.68322e-28
3.43587e-28
-2.63832e-28
2.11793e-28
-2.35815e-28
5.55675e-29
-1.98895e-28
-7.18709e-29
-1.65167e-28
-1.5333e-28
-1.43403e-28
-1.77818e-28
-1.36194e-28
-1.56187e-28
-1.4097e-28
-1.07237e-28
-1.51248e-28
-5.68205e-29
-1.59952e-28
-2.13464e-29
-1.61494e-28
-9.39936e-30
-1.53669e-28
-1.85889e-29
-1.37861e-28
-3.89126e-29
-1.18371e-28
-5.71953e-29
-1.00693e-28
-6.29675e-29
-8.9729e-29
-5.1479e-29
-8.82557e-29
-2.52638e-29
-9.61774e-29
7.16847e-30
-1.10602e-28
3.44407e-29
-1.26719e-28
4.62997e-29
-1.39133e-28
3.71049e-29
-1.43245e-28
7.39811e-30
-1.36359e-28
-3.60048e-29
-1.18268e-28
-8.2074e-29
-9.12629e-29
-1.18578e-28
-5.95806e-29
-1.35484e-28
-2.84794e-29
-1.27724e-28
-3.16445e-30
-9.6443e-29
1.2243e-29
-4.87258e-29
1.55193e-29
4.0645e-30
6.79668e-30
4.92768e-29
-1.14108e-29
7.59803e-29
-3.45837e-29
7.76627e-29
-5.70206e-29
5.39292e-29
-7.28399e-29
1.05827e-29
-7.73058e-29
-4.1283e-29
-6.76601e-29
-8.88636e-29
-4.42916e-29
-1.18511e-28
-1.02355e-29
-1.23144e-28
2.82514e-29
-9.78517e-29
6.44595e-29
-5.13091e-29
9.03102e-29
1.17832e-29
1.01827e-28
6.67429e-29
9.52974e-29
1.12203e-28
7.55674e-29
1.15895e-28
4.52805e-29
1.03136e-28
1.7665e-29
4.21933e-29
-4.87351e-30
1.63051e-30
-1.04371e-29
-5.66409e-29
-9.35321e-30
-2.56694e-29
-1.60462e-31
1.08363e-30
8.52985e-29
2.71649e-29
-4.71651e-27
1.19659e-28
-4.7885e-28
1.38664e-28
-5.29763e-28
1.03485e-28
-2.07765e-28
1.59284e-29
8.51973e-29
-9.5298e-29
3.30791e-28
-1.93994e-28
4.48364e-28
-2.66116e-28
5.00481e-28
-3.00146e-28
4.16158e-28
-2.983e-28
2.65321e-28
-2.69562e-28
8.0868e-29
-2.29805e-28
-7.32503e-29
-1.92486e-28
-1.73007e-28
-1.67603e-28
-2.07256e-28
-1.58499e-28
-1.85926e-28
-1.62757e-28
-1.30627e-28
-1.7351e-28
-7.16296e-29
-1.83016e-28
-2.90002e-29
-1.8498e-28
-1.34365e-29
-1.7673e-28
-2.28352e-29
-1.59534e-28
-4.58977e-29
-1.37959e-28
-6.72652e-29
-1.18013e-28
-7.4396e-29
-1.05188e-28
-6.13961e-29
-1.0273e-28
-3.0892e-29
-1.1075e-28
7.29998e-30
-1.26238e-28
3.97659e-29
-1.43981e-28
5.42572e-29
-1.58008e-28
4.3839e-29
-1.63122e-28
8.89494e-30
-1.56158e-28
-4.27057e-29
-1.36683e-28
-9.78827e-29
-1.07049e-28
-1.42037e-28
-7.18343e-29
-1.63004e-28
-3.68318e-29
-1.54486e-28
-7.86925e-30
-1.17607e-28
1.03516e-29
-6.07162e-29
1.51859e-29
2.636e-30
6.58946e-30
5.71777e-29
-1.28162e-29
8.96057e-29
-3.81318e-29
9.18984e-29
-6.30707e-29
6.33856e-29
-8.10632e-29
1.09791e-29
-8.67309e-29
-5.19469e-29
-7.68356e-29
-1.09783e-28
-5.16019e-29
-1.46018e-28
-1.42131e-29
-1.517e-28
2.852e-29
-1.20875e-28
6.91827e-29
-6.38787e-29
9.87551e-29
1.33435e-29
1.1264e-28
8.09835e-29
1.06485e-28
1.37106e-28
8.53978e-29
1.42155e-28
5.21099e-29
1.26948e-28
2.1202e-29
5.29483e-29
-4.58803e-30
3.10917e-30
-1.17386e-29
-6.86476e-29
-1.13499e-29
-3.27477e-29
-1.14972e-30
-3.31604e-30
9.79456e-29
2.49416e-29
-4.64258e-27
1.22354e-28
-5.38627e-28
1.4635e-28
-6.20171e-28
1.12195e-28
-2.58713e-28
1.9368e-29
8.03165e-29
-1.01092e-28
3.70178e-28
-2.10255e-28
5.14781e-28
-2.92009e-28
5.85574e-28
-3.32904e-28
4.9786e-28
-3.34408e-28
3.2608e-28
-3.0551e-28
1.12065e-28
-2.63232e-28
-7.07741e-29
-2.22361e-28
-1.92785e-28
-1.942e-28
-2.38183e-28
-1.82958e-28
-2.18064e-28
-1.86464e-28
-1.56638e-28
-1.97542e-28
-8.87453e-29
-2.0781e-28
-3.82324e-29
-2.10244e-28
-1.84745e-29
-2.01656e-28
-2.77669e-29
-1.83136e-28
-5.35761e-29
-1.59467e-28
-7.82238e-29
-1.37154e-28
-8.69072e-29
-1.2229e-28
-7.24331e-29
-1.1863e-28
-3.74357e-29
-1.26547e-28
6.94109e-30
-1.42961e-28
4.51086e-29
-1.62286e-28
6.26288e-29
-1.7798e-28
5.11147e-29
-1.84224e-28
1.06755e-29
-1.77344e-28
-4.97236e-29
-1.56625e-28
-1.14874e-28
-1.24438e-28
-1.67553e-28
-8.56638e-29
-1.93227e-28
-4.66201e-29
-1.84226e-28
-1.37691e-29
-1.41515e-28
7.57412e-30
-7.47575e-29
1.42961e-29
1.42827e-31
6.12458e-30
6.50346e-29
-1.42589e-29
1.03991e-28
-4.16073e-29
1.07236e-28
-6.90607e-29
7.37415e-29
-8.93487e-29
1.15372e-29
-9.64148e-29
-6.35483e-29
-8.649e-29
-1.32856e-28
-5.95741e-29
-1.76522e-28
-1.89467e-29
-1.83647e-28
2.80644e-29
-1.47e-28
7.33465e-29
-7.86372e-29
1.06917e-28
1.40732e-29
1.23502e-28
9.61328e-29
1.18033e-28
1.64026e-28
9.58163e-29
1.71479e-28
5.96097e-29
1.53912e-28
2.53208e-29
6.57846e-29
-3.95136e-30
5.55892e-30
-1.29789e-29
-8.15588e-29
-1.35027e-29
-4.0596e-29
-2.35197e-30
-8.87167e-30
1.10576e-28
2.17163e-29
-4.55976e-27
1.23015e-28
-5.93113e-28
1.52435e-28
-7.16148e-28
1.20104e-28
-3.14276e-28
2.27687e-29
7.03414e-29
-1.06469e-28
4.07643e-28
-2.2616e-28
5.83865e-28
-3.17996e-28
6.7617e-28
-3.66471e-28
5.86187e-28
-3.72118e-28
3.95391e-28
-3.43715e-28
1.49482e-28
-2.9928e-28
-6.45473e-29
-2.54929e-28
-2.10964e-28
-2.23344e-28
-2.70032e-28
-2.09724e-28
-2.5245e-28
-2.12231e-28
-1.85285e-28
-2.23464e-28
-1.08121e-28
-2.34442e-28
-4.9179e-29
-2.37396e-28
-2.46611e-29
-2.28562e-28
-3.34858e-29
-2.08792e-28
-6.19798e-29
-1.83031e-28
-9.00743e-29
-1.58254e-28
-1.00535e-28
-1.41167e-28
-8.46591e-29
-1.36074e-28
-4.49963e-29
-1.43663e-28
5.95721e-30
-1.60839e-28
5.03554e-29
-1.81681e-28
7.13462e-29
-1.99084e-28
5.89157e-29
-2.0659e-28
1.2786e-29
-1.9997e-28
-5.69956e-29
-1.78174e-28
-1.32952e-28
-1.43533e-28
-1.95064e-28
-1.01195e-28
-2.26197e-28
-5.79822e-29
-2.17033e-28
-2.10005e-29
-1.68342e-28
3.79049e-30
-9.10778e-29
1.2759e-29
-3.66445e-30
5.34783e-30
7.26335e-29
-1.57545e-29
1.18992e-28
-4.49936e-29
1.23628e-28
-7.49534e-29
8.5039e-29
-9.76548e-29
1.23512e-29
-1.06329e-28
-7.5957e-29
-9.66198e-29
-1.57884e-28
-6.82385e-29
-2.10003e-28
-2.45005e-29
-2.19104e-28
2.67952e-29
-1.76444e-28
7.68506e-29
-9.57463e-29
1.14702e-28
1.41051e-29
1.34343e-28
1.11979e-28
1.2992e-28
1.93218e-28
1.0684e-28
2.0387e-28
6.78302e-29
1.84253e-28
3.00888e-29
8.09767e-29
-2.89585e-30
9.40598e-30
-1.41058e-29
-9.49215e-29
-1.57989e-29
-4.93034e-29
-3.78135e-30
-1.56976e-29
1.22927e-28
1.71035e-29
-4.45965e-27
1.21287e-28
-6.40829e-28
1.56617e-28
-8.15901e-28
1.27043e-28
-3.77196e-28
2.5997e-29
5.4902e-29
-1.11487e-28
4.42849e-28
-2.41663e-28
6.54368e-28
-3.44018e-28
7.73054e-28
-4.00837e-28
6.82288e-28
-4.11414e-28
4.71467e-28
-3.84165e-28
1.92718e-28
-3.3798e-28
-5.41156e-29
-2.9029e-28
-2.27795e-28
-2.55196e-28
-3.02564e-28
-2.3896e-28
-2.88943e-28
-2.40208e-28
-2.1654e-28
-2.51411e-28
-1.30055e-28
-2.63033e-28
-6.20265e-29
-2.66546e-28
-3.20833e-29
-2.57567e-28
-4.00655e-29
-2.36635e-28
-7.11871e-29
-2.08795e-28
-1.02862e-28
-1.81464e-28
-1.15321e-28
-1.61965e-28
-9.81492e-29
-1.5519e-28
-5.36954e-29
-1.62201e-28
4.23005e-30
-1.79948e-28
5.53727e-29
-2.02219e-28
8.03185e-29
-2.21361e-28
6.72131e-29
-2.30261e-28
1.52829e-29
-2.2409e-28
-6.44087e-29
-2.01405e-28
-1.52012e-28
-1.6444e-28
-2.24491e-28
-1.18556e-28
-2.61879e-28
-7.1063e-29
-2.52999e-28
-2.97093e-29
-1.98268e-28
-1.13061e-30
-1.09932e-28
1.04722e-29
-9.05344e-30
4.19507e-30
7.97408e-29
-1.73268e-29
1.34449e-28
-4.82788e-29
1.41023e-28
-8.07136e-29
9.73195e-29
-1.05939e-28
1.35484e-29
-1.1644e-28
-8.903e-29
-1.07219e-28
-1.84819e-28
-7.76241e-29
-2.46463e-28
-3.09385e-29
-2.58167e-28
2.46203e-29
-2.09324e-28
7.95909e-29
-1.15564e-28
1.22012e-28
1.2707e-29
1.45091e-28
1.28277e-28
1.42112e-28
2.2492e-28
1.18478e-28
2.39385e-28
7.68174e-29
2.18033e-28
3.55752e-29
9.87451e-29
-1.35276e-30
1.48536e-29
-1.5073e-29
-1.08481e-28
-1.82176e-29
-5.85957e-29
-5.442e-30
-2.38404e-29
1.34697e-28
1.10091e-29
-4.34522e-27
1.16888e-28
-6.88863e-28
1.58606e-28
-9.21705e-28
1.32703e-28
-4.46468e-28
2.88773e-29
3.34405e-29
-1.16206e-28
4.74868e-28
-2.56816e-28
7.25754e-28
-3.70092e-28
8.7387e-28
-4.35936e-28
7.84519e-28
-4.52227e-28
5.55278e-28
-4.26869e-28
2.4406e-28
-3.79458e-28
-3.76618e-29
-3.28612e-28
-2.42523e-28
-2.89926e-28
-3.3538e-28
-2.7083e-28
-3.27346e-28
-2.70544e-28
-2.50461e-28
-2.81518e-28
-1.54489e-28
-2.93705e-28
-7.69031e-29
-2.97815e-28
-4.09367e-29
-2.88794e-28
-4.76199e-29
-2.66797e-28
-8.12343e-29
-2.36907e-28
-1.16627e-28
-2.06939e-28
-1.31306e-28
-1.84836e-28
-1.12981e-28
-1.76115e-28
-6.36293e-29
-1.82273e-28
1.60954e-30
-2.00372e-28
6.00254e-29
-2.23958e-28
8.94591e-29
-2.44854e-28
7.59954e-29
-2.55278e-28
1.81984e-29
-2.49758e-28
-7.18647e-29
-2.26397e-28
-1.71932e-28
-1.87263e-28
-2.55749e-28
-1.37883e-28
-3.00264e-28
-8.60143e-29
-2.92201e-28
-4.00512e-29
-2.31465e-28
-7.33222e-30
-1.31574e-28
7.32059e-30
-1.63122e-29
2.58988e-30
8.60927e-29
-1.90093e-29
1.50168e-28
-5.1458e-29
1.59347e-28
-8.63087e-29
1.10626e-28
-1.14158e-28
1.52491e-29
-1.26714e-28
-1.02601e-28
-1.18276e-28
-2.13538e-28
-8.77563e-29
-2.85855e-28
-3.83258e-29
-3.00815e-28
2.14435e-29
-2.45916e-28
8.14534e-29
-1.3837e-28
1.2874e-28
9.97946e-30
1.55666e-28
1.44759e-28
1.54564e-28
2.58172e-28
1.30735e-28
2.77986e-28
8.6616e-29
2.55603e-28
4.18485e-29
1.19627e-28
7.49611e-31
2.23452e-29
-1.58393e-29
-1.22055e-28
-2.07466e-29
-6.86004e-29
-7.33697e-30
-3.34144e-29
1.45577e-28
3.49678e-30
-4.21574e-27
1.09629e-28
-7.28969e-28
1.58109e-28
-1.02944e-27
1.36808e-28
-5.22702e-28
3.12016e-29
5.17666e-30
-1.20756e-28
5.03296e-28
-2.71584e-28
7.96417e-28
-3.96072e-28
9.78387e-28
-4.71637e-28
8.94922e-28
-4.94503e-28
6.4758e-28
-4.71841e-28
3.02465e-28
-4.23727e-28
-1.61005e-29
-3.69988e-28
-2.53932e-28
-3.27684e-28
-3.67853e-28
-3.055e-28
-3.67152e-28
-3.03408e-28
-2.86847e-28
-3.13935e-28
-1.81546e-28
-3.26591e-28
-9.39414e-29
-3.31327e-28
-5.13426e-29
-3.22372e-28
-5.62478e-29
-2.99422e-28
-9.2166e-29
-2.67523e-28
-1.31393e-28
-2.34843e-28
-1.48543e-28
-2.09942e-28
-1.29238e-28
-1.98996e-28
-7.49627e-29
-2.04001e-28
-2.05106e-30
-2.22203e-28
6.41738e-29
-2.46963e-28
9.86503e-29
-2.69609e-28
8.52118e-29
-2.81681e-28
2.1583e-29
-2.77026e-28
-7.92714e-29
-2.53225e-28
-1.92579e-28
-2.12111e-28
-2.88726e-28
-1.5931e-28
-3.413e-28
-1.02994e-28
-3.3471e-28
-5.21914e-29
-2.68124e-28
-1.49696e-29
-1.56274e-28
3.17571e-30
-2.57533e-29
4.43286e-31
9.13905e-29
-2.08462e-29
1.65946e-28
-5.45324e-29
1.78497e-28
-9.17086e-29
1.24985e-28
-1.22267e-28
1.75994e-29
-1.37111e-28
-1.1649e-28
-1.29777e-28
-2.4385e-28
-9.86572e-29
-3.28097e-28
-4.67235e-29
-3.47214e-28
1.71687e-29
-2.86365e-28
8.23228e-29
-1.64446e-28
1.34767e-28
5.15946e-30
1.65971e-28
1.61037e-28
1.67227e-28
2.93325e-28
1.43607e-28
3.19666e-28
9.7267e-29
2.96964e-28
4.8973e-29
1.43748e-28
3.47653e-30
3.21777e-29
-1.63556e-29
-1.35201e-28
-2.33678e-29
-7.89947e-29
-9.47436e-30
-4.4474e-29
1.5522e-28
-5.79407e-30
-4.06823e-27
9.91831e-29
-7.55716e-28
1.54697e-28
-1.13833e-27
1.38974e-28
-6.0428e-28
3.27028e-29
-3.02623e-29
-1.25207e-28
5.25727e-28
-2.85931e-28
8.65168e-28
-4.21863e-28
1.0861e-27
-5.0783e-28
1.01104e-27
-5.38171e-28
7.49214e-28
-5.19104e-28
3.69059e-28
-4.70906e-28
1.11564e-29
-4.14555e-28
-2.62673e-28
-3.68628e-28
-3.99518e-28
-3.4315e-28
-4.08295e-28
-3.38968e-28
-3.25562e-28
-3.48815e-28
-2.11271e-28
-3.61828e-28
-1.13255e-28
-3.67212e-28
-6.3431e-29
-3.58433e-28
-6.60609e-29
-3.34653e-28
-1.04085e-28
-3.008e-28
-1.47215e-28
-2.65347e-28
-1.67082e-28
-2.37454e-28
-1.47002e-28
-2.23991e-28
-8.77815e-29
-2.2752e-28
-6.92231e-30
-2.45544e-28
6.76528e-29
-2.71307e-28
1.07779e-28
-2.95678e-28
9.48211e-29
-3.09515e-28
2.54649e-29
-3.05946e-28
-8.65161e-29
-2.81964e-28
-2.13807e-28
-2.39088e-28
-3.23298e-28
-1.82976e-28
-3.84958e-28
-1.22165e-28
-3.80586e-28
-6.63039e-29
-3.08418e-28
-2.42102e-29
-1.84311e-28
-2.10538e-30
-3.77175e-29
-2.34836e-30
9.53281e-29
-2.28943e-29
1.8154e-28
-5.75136e-29
1.98351e-28
-9.68892e-29
1.40424e-28
-1.30223e-28
2.07286e-29
-1.47589e-28
-1.30481e-28
-1.41702e-28
-2.75524e-28
-1.10342e-28
-3.73026e-28
-5.619e-29
-3.9734e-28
1.16982e-29
-3.30885e-28
8.20753e-29
-1.94187e-28
1.39969e-28
-1.87539e-30
1.75897e-28
1.76751e-28
1.80023e-28
3.30208e-28
1.57067e-28
3.64325e-28
1.08805e-28
3.42436e-28
5.70208e-29
1.71517e-28
6.91043e-30
4.49232e-29
-1.65558e-29
-1.47526e-28
-2.60407e-29
-8.971e-29
-1.18443e-29
-5.70656e-29
1.63261e-28
-1.70069e-29
-3.90437e-27
8.53297e-29
-7.72935e-28
1.48133e-28
-1.24869e-27
1.38873e-28
-6.92956e-28
3.31429e-29
-7.35609e-29
-1.29697e-28
5.40592e-28
-2.99857e-28
9.32283e-28
-4.47418e-28
1.19653e-27
-5.44459e-28
1.1322e-27
-5.83193e-28
8.58857e-28
-5.68618e-28
4.42156e-28
-5.20979e-28
4.60869e-29
-4.62403e-28
-2.66583e-28
-4.12918e-28
-4.29678e-28
-3.83947e-28
-4.50332e-28
-3.774e-28
-3.66559e-28
-3.8632e-28
-2.43657e-28
-3.99564e-28
-1.34955e-28
-4.05607e-28
-7.73527e-29
-3.97115e-28
-7.71697e-29
-3.72639e-28
-1.17025e-28
-3.36906e-28
-1.64135e-28
-2.98627e-28
-1.86944e-28
-2.67552e-28
-1.6636e-28
-2.51272e-28
-1.02238e-28
-2.52975e-28
-1.31627e-29
-2.70509e-28
7.02875e-29
-2.97071e-28
1.16709e-28
-3.23115e-28
1.04771e-28
-3.38824e-28
2.9895e-29
-3.36568e-28
-9.34564e-29
-3.12685e-28
-2.3547e-28
-2.68298e-28
-3.59325e-28
-2.0902e-28
-4.31146e-28
-1.43694e-28
-4.29871e-28
-8.25722e-29
-3.52529e-28
-3.52342e-29
-2.1597e-28
-8.68031e-30
-5.25369e-29
-5.90414e-30
9.75615e-29
-2.52244e-29
1.96686e-28
-6.04232e-29
2.18803e-28
-1.01832e-28
1.56959e-28
-1.37985e-28
2.48088e-29
-1.58106e-28
-1.44358e-28
-1.54027e-28
-3.08407e-28
-1.22823e-28
-4.20535e-28
-6.67832e-29
-4.51187e-28
4.93158e-30
-3.79719e-28
8.05829e-29
-2.27847e-28
1.44211e-28
-1.16271e-29
1.85332e-28
1.91504e-28
1.92887e-28
3.67749e-28
1.71106e-28
4.11902e-28
1.21258e-28
3.92099e-28
6.60589e-29
2.03295e-28
1.11375e-29
6.1033e-29
-1.63577e-29
-1.58662e-28
-2.8719e-29
-1.0051e-28
-1.44427e-29
-7.12139e-29
1.69325e-28
-3.01632e-29
-3.71932e-27
6.79744e-29
-7.77984e-28
1.38105e-28
-1.35677e-27
1.36116e-28
-7.87465e-28
3.21922e-29
-1.24271e-28
-1.34398e-28
5.49743e-28
-3.13469e-28
9.95275e-28
-4.72708e-28
1.30802e-27
-5.81373e-28
1.26031e-27
-6.29416e-28
9.75708e-28
-6.20305e-28
5.26499e-28
-5.74017e-28
8.69302e-29
-5.1363e-28
-2.66777e-28
-4.60685e-28
-4.57817e-28
-4.28071e-28
-4.92629e-28
-4.18886e-28
-4.09531e-28
-4.26621e-28
-2.78653e-28
-4.39951e-28
-1.59128e-28
-4.46653e-28
-9.32154e-29
-4.3856e-28
-8.96894e-29
-4.13533e-28
-1.31109e-28
-3.76009e-28
-1.82205e-28
-3.3487e-28
-2.0824e-28
-3.00427e-28
-1.87401e-28
-2.81018e-28
-1.18465e-28
-2.80526e-28
-2.09557e-29
-2.97223e-28
7.19109e-29
-3.24346e-28
1.25298e-28
-3.51982e-28
1.14988e-28
-3.69656e-28
3.48914e-29
-3.68942e-28
-1.00006e-28
-3.45458e-28