/*--------------------------------*- C++ -*----------------------------------*\
| =========                 |                                                 |
| \\      /  F ield         | foam-extend: Open Source CFD                    |
|  \\    /   O peration     | Version:     4.0                                |
|   \\  /    A nd           | Web:         http://www.foam-extend.org         |
|    \\/     M anipulation  |                                                 |
\*---------------------------------------------------------------------------*/
FoamFile
{
    version     2.0;
    format      ascii;
    class       volScalarField;
    location    "1770";
    object      cPlus;
}
// * * * * * * * * * * * * * * * * * * * * * * * * * * * * * * * * * * * * * //

dimensions      [0 0 0 0 0 0 0];

internalField   nonuniform List<scalar> 
6960
(
0.184823
0.184735
0.18469
0.18467
0.184662
0.184658
0.184656
0.184655
0.184655
0.184655
0.184655
0.184655
0.184655
0.184655
0.184655
0.184655
0.184656
0.184656
0.184656
0.184656
0.184656
0.184656
0.184656
0.184656
0.184656
0.184656
0.184656
0.184656
0.184656
0.184656
0.184656
0.184656
0.184656
0.184656
0.184656
0.184656
0.184656
0.184656
0.184656
0.184656
0.184656
0.184656
0.184656
0.184656
0.184655
0.184655
0.184655
0.184655
0.184655
0.184655
0.184655
0.184655
0.184655
0.184656
0.184658
0.184662
0.18467
0.18469
0.184735
0.184823
0.0479473
0.0479328
0.0479244
0.0479205
0.0479189
0.0479182
0.0479179
0.0479178
0.0479178
0.0479178
0.0479179
0.0479179
0.047918
0.047918
0.047918
0.0479181
0.0479181
0.0479182
0.0479182
0.0479183
0.0479183
0.0479183
0.0479183
0.0479184
0.0479184
0.0479184
0.0479184
0.0479184
0.0479184
0.0479184
0.0479184
0.0479184
0.0479184
0.0479184
0.0479184
0.0479184
0.0479184
0.0479183
0.0479183
0.0479183
0.0479183
0.0479182
0.0479182
0.0479181
0.0479181
0.047918
0.047918
0.047918
0.0479179
0.0479179
0.0479178
0.0479178
0.0479178
0.0479179
0.0479182
0.0479189
0.0479205
0.0479244
0.0479328
0.0479473
0.0297315
0.029741
0.0297445
0.0297459
0.0297465
0.0297468
0.029747
0.0297471
0.0297472
0.0297472
0.0297473
0.0297473
0.0297474
0.0297474
0.0297475
0.0297475
0.0297475
0.0297476
0.0297476
0.0297476
0.0297476
0.0297476
0.0297477
0.0297477
0.0297477
0.0297477
0.0297477
0.0297477
0.0297477
0.0297477
0.0297477
0.0297477
0.0297477
0.0297477
0.0297477
0.0297477
0.0297477
0.0297477
0.0297476
0.0297476
0.0297476
0.0297476
0.0297476
0.0297475
0.0297475
0.0297475
0.0297474
0.0297474
0.0297473
0.0297473
0.0297472
0.0297472
0.0297471
0.029747
0.0297468
0.0297465
0.0297459
0.0297445
0.029741
0.0297315
0.0276375
0.0276529
0.0276592
0.0276619
0.0276631
0.0276637
0.0276639
0.0276641
0.0276642
0.0276643
0.0276643
0.0276644
0.0276644
0.0276645
0.0276645
0.0276645
0.0276646
0.0276646
0.0276646
0.0276646
0.0276646
0.0276647
0.0276647
0.0276647
0.0276647
0.0276647
0.0276647
0.0276647
0.0276647
0.0276647
0.0276647
0.0276647
0.0276647
0.0276647
0.0276647
0.0276647
0.0276647
0.0276647
0.0276647
0.0276646
0.0276646
0.0276646
0.0276646
0.0276646
0.0276645
0.0276645
0.0276645
0.0276644
0.0276644
0.0276643
0.0276643
0.0276642
0.0276641
0.0276639
0.0276637
0.0276631
0.0276619
0.0276592
0.0276529
0.0276375
0.0278575
0.0278745
0.0278816
0.0278847
0.027886
0.0278866
0.0278869
0.0278871
0.0278872
0.0278872
0.0278873
0.0278874
0.0278874
0.0278874
0.0278875
0.0278875
0.0278875
0.0278876
0.0278876
0.0278876
0.0278876
0.0278876
0.0278877
0.0278877
0.0278877
0.0278877
0.0278877
0.0278877
0.0278877
0.0278877
0.0278877
0.0278877
0.0278877
0.0278877
0.0278877
0.0278877
0.0278877
0.0278877
0.0278876
0.0278876
0.0278876
0.0278876
0.0278876
0.0278875
0.0278875
0.0278875
0.0278874
0.0278874
0.0278874
0.0278873
0.0278872
0.0278872
0.0278871
0.0278869
0.0278866
0.027886
0.0278847
0.0278816
0.0278745
0.0278575
0.0284502
0.028468
0.0284755
0.0284787
0.0284802
0.0284808
0.0284811
0.0284813
0.0284814
0.0284815
0.0284815
0.0284816
0.0284816
0.0284817
0.0284817
0.0284818
0.0284818
0.0284818
0.0284818
0.0284819
0.0284819
0.0284819
0.0284819
0.0284819
0.0284819
0.028482
0.028482
0.028482
0.028482
0.028482
0.028482
0.028482
0.028482
0.028482
0.028482
0.0284819
0.0284819
0.0284819
0.0284819
0.0284819
0.0284819
0.0284818
0.0284818
0.0284818
0.0284818
0.0284817
0.0284817
0.0284816
0.0284816
0.0284815
0.0284815
0.0284814
0.0284813
0.0284811
0.0284808
0.0284802
0.0284787
0.0284755
0.028468
0.0284502
0.0291559
0.0291745
0.0291824
0.0291858
0.0291872
0.0291879
0.0291882
0.0291884
0.0291885
0.0291886
0.0291887
0.0291888
0.0291888
0.0291888
0.0291889
0.0291889
0.029189
0.029189
0.029189
0.029189
0.0291891
0.0291891
0.0291891
0.0291891
0.0291891
0.0291891
0.0291891
0.0291891
0.0291891
0.0291891
0.0291891
0.0291891
0.0291891
0.0291891
0.0291891
0.0291891
0.0291891
0.0291891
0.0291891
0.0291891
0.029189
0.029189
0.029189
0.029189
0.0291889
0.0291889
0.0291888
0.0291888
0.0291888
0.0291887
0.0291886
0.0291885
0.0291884
0.0291882
0.0291879
0.0291872
0.0291858
0.0291824
0.0291745
0.0291559
0.0299506
0.0299702
0.0299784
0.0299819
0.0299835
0.0299842
0.0299845
0.0299847
0.0299848
0.0299849
0.029985
0.0299851
0.0299851
0.0299852
0.0299852
0.0299852
0.0299853
0.0299853
0.0299853
0.0299854
0.0299854
0.0299854
0.0299854
0.0299854
0.0299854
0.0299854
0.0299855
0.0299855
0.0299855
0.0299855
0.0299855
0.0299855
0.0299855
0.0299855
0.0299854
0.0299854
0.0299854
0.0299854
0.0299854
0.0299854
0.0299854
0.0299853
0.0299853
0.0299853
0.0299852
0.0299852
0.0299852
0.0299851
0.0299851
0.029985
0.0299849
0.0299848
0.0299847
0.0299845
0.0299842
0.0299835
0.0299819
0.0299784
0.0299702
0.0299506
0.030845
0.0308655
0.0308742
0.0308779
0.0308795
0.0308803
0.0308807
0.0308809
0.030881
0.0308811
0.0308812
0.0308812
0.0308813
0.0308813
0.0308814
0.0308814
0.0308814
0.0308815
0.0308815
0.0308815
0.0308816
0.0308816
0.0308816
0.0308816
0.0308816
0.0308816
0.0308817
0.0308817
0.0308817
0.0308817
0.0308817
0.0308817
0.0308817
0.0308817
0.0308816
0.0308816
0.0308816
0.0308816
0.0308816
0.0308816
0.0308815
0.0308815
0.0308815
0.0308814
0.0308814
0.0308814
0.0308813
0.0308813
0.0308812
0.0308812
0.0308811
0.030881
0.0308809
0.0308807
0.0308803
0.0308795
0.0308779
0.0308742
0.0308655
0.030845
0.031858
0.0318797
0.0318889
0.0318928
0.0318946
0.0318954
0.0318958
0.031896
0.0318961
0.0318962
0.0318963
0.0318964
0.0318964
0.0318965
0.0318965
0.0318966
0.0318966
0.0318966
0.0318967
0.0318967
0.0318967
0.0318968
0.0318968
0.0318968
0.0318968
0.0318968
0.0318968
0.0318968
0.0318968
0.0318968
0.0318968
0.0318968
0.0318968
0.0318968
0.0318968
0.0318968
0.0318968
0.0318968
0.0318968
0.0318967
0.0318967
0.0318967
0.0318966
0.0318966
0.0318966
0.0318965
0.0318965
0.0318964
0.0318964
0.0318963
0.0318962
0.0318961
0.031896
0.0318958
0.0318954
0.0318946
0.0318928
0.0318889
0.0318797
0.031858
0.033015
0.0330382
0.033048
0.0330522
0.033054
0.0330549
0.0330553
0.0330555
0.0330557
0.0330558
0.0330559
0.0330559
0.033056
0.0330561
0.0330561
0.0330562
0.0330562
0.0330562
0.0330563
0.0330563
0.0330563
0.0330564
0.0330564
0.0330564
0.0330564
0.0330564
0.0330564
0.0330565
0.0330565
0.0330565
0.0330565
0.0330565
0.0330565
0.0330564
0.0330564
0.0330564
0.0330564
0.0330564
0.0330564
0.0330563
0.0330563
0.0330563
0.0330562
0.0330562
0.0330562
0.0330561
0.0330561
0.033056
0.0330559
0.0330559
0.0330558
0.0330557
0.0330555
0.0330553
0.0330549
0.033054
0.0330522
0.033048
0.0330382
0.033015
0.0343497
0.0343746
0.0343851
0.0343896
0.0343916
0.0343925
0.034393
0.0343932
0.0343934
0.0343935
0.0343936
0.0343937
0.0343938
0.0343938
0.0343939
0.0343939
0.034394
0.034394
0.0343941
0.0343941
0.0343941
0.0343941
0.0343942
0.0343942
0.0343942
0.0343942
0.0343942
0.0343942
0.0343942
0.0343943
0.0343943
0.0343942
0.0343942
0.0343942
0.0343942
0.0343942
0.0343942
0.0343942
0.0343941
0.0343941
0.0343941
0.0343941
0.034394
0.034394
0.0343939
0.0343939
0.0343938
0.0343938
0.0343937
0.0343936
0.0343935
0.0343934
0.0343932
0.034393
0.0343925
0.0343916
0.0343896
0.0343851
0.0343746
0.0343497
0.0359073
0.0359344
0.0359457
0.0359506
0.0359528
0.0359538
0.0359543
0.0359546
0.0359548
0.0359549
0.035955
0.0359551
0.0359552
0.0359552
0.0359553
0.0359554
0.0359554
0.0359555
0.0359555
0.0359555
0.0359556
0.0359556
0.0359556
0.0359556
0.0359557
0.0359557
0.0359557
0.0359557
0.0359557
0.0359557
0.0359557
0.0359557
0.0359557
0.0359557
0.0359557
0.0359557
0.0359556
0.0359556
0.0359556
0.0359556
0.0359555
0.0359555
0.0359555
0.0359554
0.0359554
0.0359553
0.0359552
0.0359552
0.0359551
0.035955
0.0359549
0.0359548
0.0359546
0.0359543
0.0359538
0.0359528
0.0359506
0.0359457
0.0359344
0.0359073
0.0377507
0.0377804
0.0377928
0.0377983
0.0378006
0.0378017
0.0378023
0.0378026
0.0378028
0.0378029
0.0378031
0.0378032
0.0378032
0.0378033
0.0378034
0.0378035
0.0378035
0.0378036
0.0378036
0.0378037
0.0378037
0.0378037
0.0378038
0.0378038
0.0378038
0.0378038
0.0378038
0.0378039
0.0378039
0.0378039
0.0378039
0.0378039
0.0378039
0.0378038
0.0378038
0.0378038
0.0378038
0.0378038
0.0378037
0.0378037
0.0378037
0.0378036
0.0378036
0.0378035
0.0378035
0.0378034
0.0378033
0.0378032
0.0378032
0.0378031
0.0378029
0.0378028
0.0378026
0.0378023
0.0378017
0.0378006
0.0377983
0.0377928
0.0377804
0.0377507
0.0399692
0.0400022
0.0400161
0.0400222
0.0400248
0.0400261
0.0400267
0.040027
0.0400272
0.0400274
0.0400275
0.0400276
0.0400277
0.0400278
0.0400279
0.040028
0.0400281
0.0400281
0.0400282
0.0400282
0.0400283
0.0400283
0.0400283
0.0400284
0.0400284
0.0400284
0.0400284
0.0400284
0.0400285
0.0400285
0.0400285
0.0400285
0.0400284
0.0400284
0.0400284
0.0400284
0.0400284
0.0400283
0.0400283
0.0400283
0.0400282
0.0400282
0.0400281
0.0400281
0.040028
0.0400279
0.0400278
0.0400277
0.0400276
0.0400275
0.0400274
0.0400272
0.040027
0.0400267
0.0400261
0.0400248
0.0400222
0.0400161
0.0400022
0.0399692
0.0426941
0.0427315
0.0427473
0.0427542
0.0427572
0.0427587
0.0427594
0.0427597
0.04276
0.0427602
0.0427603
0.0427605
0.0427606
0.0427607
0.0427608
0.0427609
0.042761
0.042761
0.0427611
0.0427612
0.0427612
0.0427613
0.0427613
0.0427613
0.0427614
0.0427614
0.0427614
0.0427614
0.0427614
0.0427614
0.0427614
0.0427614
0.0427614
0.0427614
0.0427614
0.0427614
0.0427613
0.0427613
0.0427613
0.0427612
0.0427612
0.0427611
0.042761
0.042761
0.0427609
0.0427608
0.0427607
0.0427606
0.0427605
0.0427603
0.0427602
0.04276
0.0427597
0.0427594
0.0427587
0.0427572
0.0427542
0.0427473
0.0427315
0.0426941
0.0461238
0.0461673
0.0461857
0.0461938
0.0461973
0.046199
0.0461998
0.0462003
0.0462006
0.0462008
0.046201
0.0462011
0.0462013
0.0462014
0.0462015
0.0462016
0.0462017
0.0462018
0.0462019
0.0462019
0.046202
0.0462021
0.0462021
0.0462022
0.0462022
0.0462022
0.0462022
0.0462023
0.0462023
0.0462023
0.0462023
0.0462023
0.0462023
0.0462022
0.0462022
0.0462022
0.0462022
0.0462021
0.0462021
0.046202
0.0462019
0.0462019
0.0462018
0.0462017
0.0462016
0.0462015
0.0462014
0.0462013
0.0462011
0.046201
0.0462008
0.0462006
0.0462003
0.0461998
0.046199
0.0461973
0.0461938
0.0461857
0.0461673
0.0461238
0.0505629
0.0506149
0.050637
0.0506466
0.0506509
0.0506529
0.0506539
0.0506545
0.0506548
0.0506551
0.0506553
0.0506555
0.0506557
0.0506559
0.050656
0.0506561
0.0506562
0.0506564
0.0506564
0.0506565
0.0506566
0.0506567
0.0506567
0.0506568
0.0506568
0.0506569
0.0506569
0.0506569
0.0506569
0.050657
0.050657
0.0506569
0.0506569
0.0506569
0.0506569
0.0506568
0.0506568
0.0506567
0.0506567
0.0506566
0.0506565
0.0506564
0.0506564
0.0506562
0.0506561
0.050656
0.0506559
0.0506557
0.0506555
0.0506553
0.0506551
0.0506548
0.0506545
0.0506539
0.0506529
0.0506509
0.0506466
0.050637
0.0506149
0.0505629
0.0564702
0.0565344
0.0565618
0.0565737
0.0565791
0.0565815
0.0565828
0.0565835
0.056584
0.0565843
0.0565846
0.0565848
0.0565851
0.0565853
0.0565854
0.0565856
0.0565858
0.0565859
0.056586
0.0565861
0.0565862
0.0565863
0.0565864
0.0565865
0.0565865
0.0565866
0.0565866
0.0565866
0.0565867
0.0565867
0.0565867
0.0565867
0.0565866
0.0565866
0.0565866
0.0565865
0.0565865
0.0565864
0.0565863
0.0565862
0.0565861
0.056586
0.0565859
0.0565858
0.0565856
0.0565854
0.0565853
0.0565851
0.0565848
0.0565846
0.0565843
0.056584
0.0565835
0.0565828
0.0565815
0.0565791
0.0565737
0.0565618
0.0565344
0.0564702
0.0644908
0.0645723
0.0646072
0.0646225
0.0646293
0.0646325
0.0646341
0.064635
0.0646356
0.064636
0.0646364
0.0646367
0.064637
0.0646373
0.0646375
0.0646377
0.0646379
0.0646381
0.0646383
0.0646384
0.0646385
0.0646387
0.0646388
0.0646389
0.0646389
0.064639
0.064639
0.0646391
0.0646391
0.0646391
0.0646391
0.0646391
0.0646391
0.064639
0.064639
0.0646389
0.0646389
0.0646388
0.0646387
0.0646385
0.0646384
0.0646383
0.0646381
0.0646379
0.0646377
0.0646375
0.0646373
0.064637
0.0646367
0.0646364
0.064636
0.0646356
0.064635
0.0646341
0.0646325
0.0646293
0.0646225
0.0646072
0.0645723
0.0644908
0.0754071
0.075512
0.0755572
0.0755771
0.0755859
0.07559
0.0755921
0.0755933
0.0755941
0.0755947
0.0755952
0.0755956
0.075596
0.0755963
0.0755966
0.0755969
0.0755971
0.0755974
0.0755976
0.0755978
0.0755979
0.0755981
0.0755982
0.0755983
0.0755984
0.0755985
0.0755986
0.0755986
0.0755987
0.0755987
0.0755987
0.0755987
0.0755986
0.0755986
0.0755985
0.0755984
0.0755983
0.0755982
0.0755981
0.0755979
0.0755978
0.0755976
0.0755974
0.0755971
0.0755969
0.0755966
0.0755963
0.075596
0.0755956
0.0755952
0.0755947
0.0755941
0.0755933
0.0755921
0.07559
0.0755859
0.0755771
0.0755572
0.075512
0.0754071
0.0899426
0.0900769
0.090135
0.0901606
0.090172
0.0901773
0.09018
0.0901815
0.0901825
0.0901833
0.0901839
0.0901844
0.0901849
0.0901853
0.0901857
0.0901861
0.0901864
0.0901867
0.0901869
0.0901872
0.0901874
0.0901876
0.0901878
0.0901879
0.090188
0.0901881
0.0901882
0.0901883
0.0901883
0.0901883
0.0901883
0.0901883
0.0901883
0.0901882
0.0901881
0.090188
0.0901879
0.0901878
0.0901876
0.0901874
0.0901872
0.0901869
0.0901867
0.0901864
0.0901861
0.0901857
0.0901853
0.0901849
0.0901844
0.0901839
0.0901833
0.0901825
0.0901815
0.09018
0.0901773
0.090172
0.0901606
0.090135
0.0900769
0.0899426
0.108452
0.108619
0.108692
0.108724
0.108738
0.108745
0.108748
0.10875
0.108751
0.108752
0.108753
0.108753
0.108754
0.108755
0.108755
0.108755
0.108756
0.108756
0.108757
0.108757
0.108757
0.108757
0.108758
0.108758
0.108758
0.108758
0.108758
0.108758
0.108758
0.108758
0.108758
0.108758
0.108758
0.108758
0.108758
0.108758
0.108758
0.108758
0.108757
0.108757
0.108757
0.108757
0.108756
0.108756
0.108755
0.108755
0.108755
0.108754
0.108753
0.108753
0.108752
0.108751
0.10875
0.108748
0.108745
0.108738
0.108724
0.108692
0.108619
0.108452
0.130692
0.130892
0.130979
0.131018
0.131035
0.131043
0.131048
0.13105
0.131051
0.131052
0.131053
0.131054
0.131055
0.131055
0.131056
0.131056
0.131057
0.131057
0.131058
0.131058
0.131058
0.131058
0.131059
0.131059
0.131059
0.131059
0.131059
0.131059
0.131059
0.131059
0.131059
0.131059
0.131059
0.131059
0.131059
0.131059
0.131059
0.131059
0.131058
0.131058
0.131058
0.131058
0.131057
0.131057
0.131056
0.131056
0.131055
0.131055
0.131054
0.131053
0.131052
0.131051
0.13105
0.131048
0.131043
0.131035
0.131018
0.130979
0.130892
0.130692
0.155882
0.156113
0.156214
0.156259
0.156279
0.156288
0.156293
0.156296
0.156297
0.156298
0.156299
0.1563
0.156301
0.156302
0.156302
0.156303
0.156303
0.156304
0.156304
0.156304
0.156305
0.156305
0.156305
0.156306
0.156306
0.156306
0.156306
0.156306
0.156306
0.156306
0.156306
0.156306
0.156306
0.156306
0.156306
0.156306
0.156306
0.156305
0.156305
0.156305
0.156304
0.156304
0.156304
0.156303
0.156303
0.156302
0.156302
0.156301
0.1563
0.156299
0.156298
0.156297
0.156296
0.156293
0.156288
0.156279
0.156259
0.156214
0.156113
0.155882
0.183016
0.183273
0.183386
0.183436
0.183459
0.18347
0.183475
0.183478
0.18348
0.183481
0.183482
0.183483
0.183484
0.183484
0.183485
0.183486
0.183486
0.183487
0.183487
0.183487
0.183488
0.183488
0.183488
0.183489
0.183489
0.183489
0.183489
0.183489
0.183489
0.183489
0.183489
0.183489
0.183489
0.183489
0.183489
0.183489
0.183489
0.183488
0.183488
0.183488
0.183487
0.183487
0.183487
0.183486
0.183486
0.183485
0.183484
0.183484
0.183483
0.183482
0.183481
0.18348
0.183478
0.183475
0.18347
0.183459
0.183436
0.183386
0.183273
0.183016
0.211182
0.211461
0.211585
0.21164
0.211665
0.211677
0.211683
0.211686
0.211688
0.211689
0.21169
0.211691
0.211692
0.211693
0.211694
0.211694
0.211695
0.211695
0.211696
0.211696
0.211696
0.211697
0.211697
0.211697
0.211697
0.211697
0.211698
0.211698
0.211698
0.211698
0.211698
0.211698
0.211698
0.211698
0.211697
0.211697
0.211697
0.211697
0.211697
0.211696
0.211696
0.211696
0.211695
0.211695
0.211694
0.211694
0.211693
0.211692
0.211691
0.21169
0.211689
0.211688
0.211686
0.211683
0.211677
0.211665
0.21164
0.211585
0.211461
0.211182
0.23972
0.240017
0.240151
0.240211
0.240238
0.240251
0.240257
0.24026
0.240263
0.240264
0.240265
0.240266
0.240267
0.240268
0.240268
0.240269
0.240269
0.24027
0.24027
0.240271
0.240271
0.240271
0.240272
0.240272
0.240272
0.240272
0.240272
0.240272
0.240273
0.240273
0.240273
0.240273
0.240272
0.240272
0.240272
0.240272
0.240272
0.240272
0.240271
0.240271
0.240271
0.24027
0.24027
0.240269
0.240269
0.240268
0.240268
0.240267
0.240266
0.240265
0.240264
0.240263
0.24026
0.240257
0.240251
0.240238
0.240211
0.240151
0.240017
0.23972
0.268212
0.268525
0.268667
0.268732
0.268761
0.268775
0.268782
0.268785
0.268788
0.268789
0.26879
0.268791
0.268792
0.268793
0.268794
0.268794
0.268795
0.268795
0.268796
0.268796
0.268796
0.268797
0.268797
0.268797
0.268797
0.268797
0.268798
0.268798
0.268798
0.268798
0.268798
0.268798
0.268798
0.268798
0.268797
0.268797
0.268797
0.268797
0.268797
0.268796
0.268796
0.268796
0.268795
0.268795
0.268794
0.268794
0.268793
0.268792
0.268791
0.26879
0.268789
0.268788
0.268785
0.268782
0.268775
0.268761
0.268732
0.268667
0.268525
0.268212
0.296413
0.29674
0.29689
0.296959
0.29699
0.297005
0.297012
0.297016
0.297018
0.29702
0.297021
0.297022
0.297023
0.297024
0.297024
0.297025
0.297025
0.297026
0.297026
0.297027
0.297027
0.297027
0.297028
0.297028
0.297028
0.297028
0.297028
0.297028
0.297029
0.297029
0.297029
0.297029
0.297028
0.297028
0.297028
0.297028
0.297028
0.297028
0.297027
0.297027
0.297027
0.297026
0.297026
0.297025
0.297025
0.297024
0.297024
0.297023
0.297022
0.297021
0.29702
0.297018
0.297016
0.297012
0.297005
0.29699
0.296959
0.29689
0.29674
0.296413
0.324178
0.324517
0.324674
0.324747
0.324781
0.324796
0.324804
0.324808
0.324811
0.324813
0.324814
0.324815
0.324816
0.324816
0.324817
0.324817
0.324818
0.324818
0.324819
0.324819
0.32482
0.32482
0.32482
0.32482
0.32482
0.324821
0.324821
0.324821
0.324821
0.324821
0.324821
0.324821
0.324821
0.324821
0.324821
0.32482
0.32482
0.32482
0.32482
0.32482
0.324819
0.324819
0.324818
0.324818
0.324817
0.324817
0.324816
0.324816
0.324815
0.324814
0.324813
0.324811
0.324808
0.324804
0.324796
0.324781
0.324747
0.324674
0.324517
0.324178
0.351418
0.351768
0.351932
0.352009
0.352044
0.352061
0.35207
0.352074
0.352077
0.352078
0.35208
0.352081
0.352081
0.352082
0.352083
0.352083
0.352084
0.352084
0.352085
0.352085
0.352085
0.352086
0.352086
0.352086
0.352086
0.352086
0.352086
0.352087
0.352087
0.352087
0.352087
0.352087
0.352087
0.352086
0.352086
0.352086
0.352086
0.352086
0.352086
0.352085
0.352085
0.352085
0.352084
0.352084
0.352083
0.352083
0.352082
0.352081
0.352081
0.35208
0.352078
0.352077
0.352074
0.35207
0.352061
0.352044
0.352009
0.351932
0.351768
0.351418
0.378076
0.378434
0.378605
0.378686
0.378724
0.378742
0.37875
0.378755
0.378758
0.37876
0.378761
0.378762
0.378763
0.378763
0.378764
0.378765
0.378765
0.378765
0.378766
0.378766
0.378767
0.378767
0.378767
0.378767
0.378767
0.378768
0.378768
0.378768
0.378768
0.378768
0.378768
0.378768
0.378768
0.378768
0.378768
0.378767
0.378767
0.378767
0.378767
0.378767
0.378766
0.378766
0.378765
0.378765
0.378765
0.378764
0.378763
0.378763
0.378762
0.378761
0.37876
0.378758
0.378755
0.37875
0.378742
0.378724
0.378686
0.378605
0.378434
0.378076
0.404111
0.404477
0.404654
0.404739
0.404778
0.404798
0.404807
0.404812
0.404815
0.404817
0.404818
0.404819
0.40482
0.40482
0.404821
0.404822
0.404822
0.404822
0.404823
0.404823
0.404824
0.404824
0.404824
0.404824
0.404824
0.404825
0.404825
0.404825
0.404825
0.404825
0.404825
0.404825
0.404825
0.404825
0.404825
0.404824
0.404824
0.404824
0.404824
0.404824
0.404823
0.404823
0.404822
0.404822
0.404822
0.404821
0.40482
0.40482
0.404819
0.404818
0.404817
0.404815
0.404812
0.404807
0.404798
0.404778
0.404739
0.404654
0.404477
0.404111
0.429495
0.429868
0.430051
0.430139
0.430181
0.430201
0.430211
0.430216
0.430219
0.430221
0.430222
0.430223
0.430224
0.430225
0.430225
0.430226
0.430226
0.430227
0.430227
0.430227
0.430228
0.430228
0.430228
0.430228
0.430229
0.430229
0.430229
0.430229
0.430229
0.430229
0.430229
0.430229
0.430229
0.430229
0.430229
0.430229
0.430228
0.430228
0.430228
0.430228
0.430227
0.430227
0.430227
0.430226
0.430226
0.430225
0.430225
0.430224
0.430223
0.430222
0.430221
0.430219
0.430216
0.430211
0.430201
0.430181
0.430139
0.430051
0.429868
0.429495
0.454207
0.454585
0.454774
0.454865
0.454909
0.454931
0.454941
0.454947
0.45495
0.454952
0.454953
0.454954
0.454955
0.454956
0.454956
0.454957
0.454957
0.454958
0.454958
0.454958
0.454959
0.454959
0.454959
0.454959
0.454959
0.45496
0.45496
0.45496
0.45496
0.45496
0.45496
0.45496
0.45496
0.45496
0.45496
0.454959
0.454959
0.454959
0.454959
0.454959
0.454958
0.454958
0.454958
0.454957
0.454957
0.454956
0.454956
0.454955
0.454954
0.454953
0.454952
0.45495
0.454947
0.454941
0.454931
0.454909
0.454865
0.454774
0.454585
0.454207
0.478234
0.478615
0.478809
0.478903
0.47895
0.478972
0.478983
0.478989
0.478993
0.478995
0.478996
0.478997
0.478998
0.478999
0.478999
0.479
0.479
0.479
0.479001
0.479001
0.479001
0.479002
0.479002
0.479002
0.479002
0.479002
0.479002
0.479002
0.479003
0.479003
0.479003
0.479003
0.479002
0.479002
0.479002
0.479002
0.479002
0.479002
0.479002
0.479001
0.479001
0.479001
0.479
0.479
0.479
0.478999
0.478999
0.478998
0.478997
0.478996
0.478995
0.478993
0.478989
0.478983
0.478972
0.47895
0.478903
0.478809
0.478615
0.478234
0.501563
0.501948
0.502145
0.502243
0.502292
0.502315
0.502327
0.502334
0.502337
0.502339
0.502341
0.502342
0.502343
0.502343
0.502344
0.502344
0.502345
0.502345
0.502345
0.502346
0.502346
0.502346
0.502346
0.502346
0.502347
0.502347
0.502347
0.502347
0.502347
0.502347
0.502347
0.502347
0.502347
0.502347
0.502347
0.502347
0.502346
0.502346
0.502346
0.502346
0.502346
0.502345
0.502345
0.502345
0.502344
0.502344
0.502343
0.502343
0.502342
0.502341
0.502339
0.502337
0.502334
0.502327
0.502315
0.502292
0.502243
0.502145
0.501948
0.501563
0.52419
0.524576
0.524777
0.524879
0.524929
0.524954
0.524967
0.524973
0.524977
0.524979
0.524981
0.524982
0.524982
0.524983
0.524984
0.524984
0.524985
0.524985
0.524985
0.524985
0.524986
0.524986
0.524986
0.524986
0.524986
0.524987
0.524987
0.524987
0.524987
0.524987
0.524987
0.524987
0.524987
0.524987
0.524987
0.524986
0.524986
0.524986
0.524986
0.524986
0.524985
0.524985
0.524985
0.524985
0.524984
0.524984
0.524983
0.524982
0.524982
0.524981
0.524979
0.524977
0.524973
0.524967
0.524954
0.524929
0.524879
0.524777
0.524576
0.52419
0.54611
0.546497
0.546702
0.546806
0.546858
0.546885
0.546898
0.546905
0.546909
0.546911
0.546913
0.546914
0.546914
0.546915
0.546916
0.546916
0.546916
0.546917
0.546917
0.546917
0.546918
0.546918
0.546918
0.546918
0.546918
0.546918
0.546919
0.546919
0.546919
0.546919
0.546919
0.546919
0.546919
0.546919
0.546918
0.546918
0.546918
0.546918
0.546918
0.546918
0.546917
0.546917
0.546917
0.546916
0.546916
0.546916
0.546915
0.546914
0.546914
0.546913
0.546911
0.546909
0.546905
0.546898
0.546885
0.546858
0.546806
0.546702
0.546497
0.54611
0.567323
0.567709
0.567917
0.568025
0.568079
0.568107
0.568121
0.568128
0.568132
0.568135
0.568136
0.568137
0.568138
0.568139
0.568139
0.56814
0.56814
0.56814
0.568141
0.568141
0.568141
0.568141
0.568141
0.568142
0.568142
0.568142
0.568142
0.568142
0.568142
0.568142
0.568142
0.568142
0.568142
0.568142
0.568142
0.568142
0.568142
0.568141
0.568141
0.568141
0.568141
0.568141
0.56814
0.56814
0.56814
0.568139
0.568139
0.568138
0.568137
0.568136
0.568135
0.568132
0.568128
0.568121
0.568107
0.568079
0.568025
0.567917
0.567709
0.567323
0.587831
0.588216
0.588427
0.588537
0.588593
0.588622
0.588637
0.588645
0.588649
0.588651
0.588653
0.588654
0.588655
0.588656
0.588656
0.588656
0.588657
0.588657
0.588657
0.588658
0.588658
0.588658
0.588658
0.588658
0.588658
0.588659
0.588659
0.588659
0.588659
0.588659
0.588659
0.588659
0.588659
0.588659
0.588659
0.588658
0.588658
0.588658
0.588658
0.588658
0.588658
0.588657
0.588657
0.588657
0.588656
0.588656
0.588656
0.588655
0.588654
0.588653
0.588651
0.588649
0.588645
0.588637
0.588622
0.588593
0.588537
0.588427
0.588216
0.587831
0.607638
0.608021
0.608233
0.608346
0.608404
0.608434
0.60845
0.608458
0.608463
0.608465
0.608467
0.608468
0.608469
0.60847
0.60847
0.60847
0.608471
0.608471
0.608471
0.608472
0.608472
0.608472
0.608472
0.608472
0.608472
0.608473
0.608473
0.608473
0.608473
0.608473
0.608473
0.608473
0.608473
0.608473
0.608473
0.608472
0.608472
0.608472
0.608472
0.608472
0.608472
0.608471
0.608471
0.608471
0.60847
0.60847
0.60847
0.608469
0.608468
0.608467
0.608465
0.608463
0.608458
0.60845
0.608434
0.608404
0.608346
0.608233
0.608021
0.607638
0.626749
0.627129
0.627343
0.627458
0.627518
0.627549
0.627566
0.627575
0.62758
0.627582
0.627584
0.627585
0.627586
0.627587
0.627587
0.627587
0.627588
0.627588
0.627588
0.627589
0.627589
0.627589
0.627589
0.627589
0.627589
0.627589
0.627589
0.62759
0.62759
0.62759
0.62759
0.62759
0.62759
0.627589
0.627589
0.627589
0.627589
0.627589
0.627589
0.627589
0.627589
0.627588
0.627588
0.627588
0.627587
0.627587
0.627587
0.627586
0.627585
0.627584
0.627582
0.62758
0.627575
0.627566
0.627549
0.627518
0.627458
0.627343
0.627129
0.626749
0.645171
0.645548
0.645763
0.64588
0.645942
0.645975
0.645992
0.646001
0.646006
0.646009
0.646011
0.646012
0.646013
0.646014
0.646014
0.646015
0.646015
0.646015
0.646016
0.646016
0.646016
0.646016
0.646016
0.646016
0.646016
0.646017
0.646017
0.646017
0.646017
0.646017
0.646017
0.646017
0.646017
0.646017
0.646017
0.646016
0.646016
0.646016
0.646016
0.646016
0.646016
0.646016
0.646015
0.646015
0.646015
0.646014
0.646014
0.646013
0.646012
0.646011
0.646009
0.646006
0.646001
0.645992
0.645975
0.645942
0.64588
0.645763
0.645548
0.645171
0.662914
0.663286
0.663502
0.663621
0.663685
0.663719
0.663737
0.663747
0.663752
0.663756
0.663757
0.663759
0.663759
0.66376
0.663761
0.663761
0.663761
0.663762
0.663762
0.663762
0.663762
0.663762
0.663762
0.663763
0.663763
0.663763
0.663763
0.663763
0.663763
0.663763
0.663763
0.663763
0.663763
0.663763
0.663763
0.663763
0.663763
0.663762
0.663762
0.663762
0.663762
0.663762
0.663762
0.663761
0.663761
0.663761
0.66376
0.663759
0.663759
0.663757
0.663756
0.663752
0.663747
0.663737
0.663719
0.663685
0.663621
0.663502
0.663286
0.662914
0.679988
0.680355
0.680571
0.680692
0.680757
0.680792
0.680811
0.680822
0.680827
0.680831
0.680833
0.680834
0.680835
0.680835
0.680836
0.680836
0.680837
0.680837
0.680837
0.680837
0.680837
0.680838
0.680838
0.680838
0.680838
0.680838
0.680838
0.680838
0.680838
0.680838
0.680838
0.680838
0.680838
0.680838
0.680838
0.680838
0.680838
0.680838
0.680838
0.680837
0.680837
0.680837
0.680837
0.680837
0.680836
0.680836
0.680835
0.680835
0.680834
0.680833
0.680831
0.680827
0.680822
0.680811
0.680792
0.680757
0.680692
0.680571
0.680355
0.679988
0.696403
0.696764
0.69698
0.697102
0.697169
0.697206
0.697226
0.697237
0.697243
0.697246
0.697248
0.697249
0.69725
0.697251
0.697251
0.697252
0.697252
0.697252
0.697252
0.697253
0.697253
0.697253
0.697253
0.697253
0.697253
0.697253
0.697253
0.697253
0.697253
0.697253
0.697253
0.697253
0.697253
0.697253
0.697253
0.697253
0.697253
0.697253
0.697253
0.697253
0.697253
0.697252
0.697252
0.697252
0.697252
0.697251
0.697251
0.69725
0.697249
0.697248
0.697246
0.697243
0.697237
0.697226
0.697206
0.697169
0.697102
0.69698
0.696764
0.696403
0.712171
0.712526
0.712741
0.712865
0.712934
0.712971
0.712992
0.713003
0.71301
0.713014
0.713016
0.713017
0.713018
0.713019
0.713019
0.713019
0.71302
0.71302
0.71302
0.71302
0.71302
0.713021
0.713021
0.713021
0.713021
0.713021
0.713021
0.713021
0.713021
0.713021
0.713021
0.713021
0.713021
0.713021
0.713021
0.713021
0.713021
0.713021
0.713021
0.71302
0.71302
0.71302
0.71302
0.71302
0.713019
0.713019
0.713019
0.713018
0.713017
0.713016
0.713014
0.71301
0.713003
0.712992
0.712971
0.712934
0.712865
0.712741
0.712526
0.712171
0.727306
0.727654
0.727868
0.727993
0.728063
0.728102
0.728124
0.728136
0.728142
0.728146
0.728149
0.72815
0.728151
0.728152
0.728152
0.728152
0.728153
0.728153
0.728153
0.728153
0.728153
0.728154
0.728154
0.728154
0.728154
0.728154
0.728154
0.728154
0.728154
0.728154
0.728154
0.728154
0.728154
0.728154
0.728154
0.728154
0.728154
0.728154
0.728154
0.728153
0.728153
0.728153
0.728153
0.728153
0.728152
0.728152
0.728152
0.728151
0.72815
0.728149
0.728146
0.728142
0.728136
0.728124
0.728102
0.728063
0.727993
0.727868
0.727654
0.727306
0.74182
0.742162
0.742374
0.7425
0.742571
0.742612
0.742634
0.742647
0.742654
0.742658
0.74266
0.742662
0.742663
0.742663
0.742664
0.742664
0.742664
0.742665
0.742665
0.742665
0.742665
0.742665
0.742665
0.742665
0.742665
0.742666
0.742666
0.742666
0.742666
0.742666
0.742666
0.742666
0.742666
0.742666
0.742666
0.742665
0.742665
0.742665
0.742665
0.742665
0.742665
0.742665
0.742665
0.742664
0.742664
0.742664
0.742663
0.742663
0.742662
0.74266
0.742658
0.742654
0.742647
0.742634
0.742612
0.742571
0.7425
0.742374
0.742162
0.74182
0.755729
0.756063
0.756274
0.7564
0.756473
0.756514
0.756537
0.756551
0.756558
0.756562
0.756565
0.756567
0.756568
0.756568
0.756569
0.756569
0.756569
0.75657
0.75657
0.75657
0.75657
0.75657
0.75657
0.75657
0.75657
0.75657
0.75657
0.75657
0.75657
0.75657
0.75657
0.75657
0.75657
0.75657
0.75657
0.75657
0.75657
0.75657
0.75657
0.75657
0.75657
0.75657
0.75657
0.756569
0.756569
0.756569
0.756568
0.756568
0.756567
0.756565
0.756562
0.756558
0.756551
0.756537
0.756514
0.756473
0.7564
0.756274
0.756063
0.755729
0.769047
0.769373
0.769582
0.769708
0.769782
0.769824
0.769849
0.769862
0.76987
0.769875