/*--------------------------------*- C++ -*----------------------------------*\
| =========                 |                                                 |
| \\      /  F ield         | foam-extend: Open Source CFD                    |
|  \\    /   O peration     | Version:     4.0                                |
|   \\  /    A nd           | Web:         http://www.foam-extend.org         |
|    \\/     M anipulation  |                                                 |
\*---------------------------------------------------------------------------*/
FoamFile
{
    version     2.0;
    format      ascii;
    class       volScalarField;
    location    "16";
    object      dPhi;
}
// * * * * * * * * * * * * * * * * * * * * * * * * * * * * * * * * * * * * * //

dimensions      [0 -1 0 0 0 0 0];

internalField   nonuniform List<scalar> 
6960
(
-8.58854e-16
9.63849e-16
-1.43962e-15
1.6266e-15
3.99562e-17
-5.76553e-16
-2.56011e-15
7.31262e-16
1.83508e-15
8.31153e-16
-7.3475e-17
1.15885e-15
3.34639e-16
2.91214e-15
-1.25605e-15
-6.20086e-16
1.8707e-15
-3.63789e-15
-2.44842e-15
-1.37627e-15
5.66936e-16
-3.54399e-16
8.26331e-16
-4.27514e-16
1.28423e-15
5.30436e-16
1.47619e-15
-4.23772e-16
7.69382e-16
1.50376e-15
-3.8779e-16
-1.22456e-15
1.2343e-15
-4.19258e-16
-1.02315e-15
-1.94438e-15
-5.47212e-16
-2.05917e-15
3.08061e-15
5.88688e-18
1.06941e-15
5.44495e-16
2.43059e-16
1.20834e-15
-2.06867e-15
-2.70365e-15
-1.30253e-15
2.18255e-16
-7.35384e-16
1.515e-16
7.15487e-16
-1.3865e-15
1.40474e-15
4.39446e-16
1.53541e-15
-6.14404e-16
-1.58862e-15
-9.35878e-16
-1.79764e-15
-2.57322e-15
2.93972e-15
-2.89268e-15
6.23315e-17
5.3813e-16
-4.85985e-15
2.4198e-15
3.96808e-15
1.85001e-15
-5.3775e-15
3.94845e-15
1.46647e-15
-8.10827e-16
1.2961e-15
1.76428e-15
-2.51397e-15
1.23921e-15
9.02134e-16
1.58774e-15
8.00189e-16
8.03614e-16
3.31925e-15
4.82832e-16
-5.30605e-16
-4.7361e-16
4.39197e-16
-3.36548e-15
-3.17434e-15
-2.70337e-15
9.59434e-16
-7.14012e-16
-1.20812e-15
2.26712e-15
-9.91909e-17
-7.95174e-16
-3.5138e-15
-4.40124e-15
-5.39719e-16
-3.44705e-16
-1.79715e-15
-2.5103e-15
2.19846e-16
1.74745e-15
-1.68407e-15
-2.33862e-16
-3.68263e-16
2.43239e-15
-1.25809e-15
-3.11762e-16
1.2401e-15
2.16458e-16
-1.09897e-15
6.86222e-16
-3.82657e-15
-2.38982e-15
-3.15895e-15
3.80101e-15
3.51487e-15
-5.95898e-16
-5.01227e-16
2.17818e-15
-1.36977e-15
9.36927e-16
7.14706e-16
-1.63549e-15
-2.02259e-15
3.35547e-16
-1.32124e-15
-4.23468e-15
5.64232e-16
1.04581e-15
1.55107e-15
1.17327e-15
-1.87919e-16
-1.04352e-15
9.2496e-17
1.57598e-15
-2.7082e-15
-3.13696e-15
1.03877e-15
-3.61392e-16
-1.56358e-15
-2.15538e-15
-8.03665e-17
3.6325e-15
-3.55971e-15
6.31141e-17
-1.02379e-15
2.89402e-15
-4.93614e-15
-8.8578e-16
6.65294e-17
1.56269e-15
-5.11979e-15
-3.29543e-16
-1.07446e-15
6.23362e-16
-5.6575e-16
2.94612e-15
4.34169e-16
-2.2416e-15
7.42042e-16
-1.23438e-15
-1.46904e-15
3.84539e-15
1.88461e-16
-1.45252e-15
-3.53625e-15
3.64146e-15
-1.28116e-15
5.46899e-16
-1.05902e-15
-9.63354e-16
-8.16106e-16
-3.31643e-15
3.34394e-15
-4.44817e-15
1.69e-16
-5.32262e-16
-4.86492e-15
-7.11616e-16
-3.63487e-15
-1.26789e-15
4.13965e-15
8.04939e-16
-1.9543e-15
-3.1949e-15
6.60255e-15
1.48403e-15
4.75715e-15
-4.53855e-15
-2.05042e-15
1.41803e-15
7.2979e-15
5.13944e-15
-2.37893e-15
3.20246e-16
-1.55979e-15
1.0133e-15
-4.98736e-15
-3.01801e-15
3.00598e-15
4.38256e-15
6.51904e-16
4.18369e-15
2.01225e-15
-1.78056e-15
-1.84436e-15
5.65737e-16
-1.03593e-15
-1.65915e-15
-4.761e-15
-6.81744e-15
2.30753e-15
-1.42695e-15
4.41243e-16
5.78476e-16
-1.43654e-15
-1.56491e-15
-1.23515e-15
6.5095e-15
1.15115e-16
1.91635e-15
4.17003e-15
7.03994e-15
3.75378e-15
6.70658e-15
1.94682e-15
-8.34559e-15
1.37902e-15
-4.98906e-15
4.33957e-15
-4.97757e-16
5.71049e-16
-9.12654e-16
-2.81055e-15
6.13721e-15
-2.28791e-15
1.77961e-15
7.87944e-17
-9.58787e-16
-4.59886e-15
3.02959e-15
6.59358e-15
-3.58193e-15
-4.97286e-15
3.27597e-15
1.97384e-15
-1.33948e-15
-4.32158e-15
4.71156e-15
7.15151e-15
-2.54343e-15
-5.2638e-15
-2.47214e-15
2.9023e-15
-4.18838e-15
8.35757e-16
-2.1008e-15
-1.58776e-15
4.72354e-15
1.10784e-15
-2.86121e-16
-1.0919e-15
-2.69207e-16
-1.88152e-15
4.88688e-15
4.83007e-15
-4.73856e-15
-2.72194e-15
4.09584e-15
2.69571e-15
9.87757e-15
-1.24933e-15
-1.01584e-15
-2.93531e-15
9.35368e-15
-2.49285e-15
-5.06133e-15
-9.52114e-15
-3.48305e-15
-4.12046e-15
9.99201e-16
-5.19582e-15
-3.16826e-15
-3.44288e-16
-1.02593e-14
9.35721e-16
8.29713e-15
2.26208e-15
1.31351e-16
-1.3739e-15
6.0119e-16
-3.07415e-15
-9.45804e-16
9.50607e-15
-1.17491e-14
6.74591e-16
-5.81252e-15
-2.12612e-15
-2.30073e-15
6.26116e-15
-8.12989e-15
-1.59454e-15
5.98404e-15
3.95452e-15
4.38993e-16
-9.44893e-15
4.03204e-15
1.0147e-15
-6.30214e-15
9.32522e-16
-1.62088e-16
5.86738e-15
3.15362e-15
-1.09791e-14
2.38091e-16
-3.16967e-15
-2.59168e-15
-9.04767e-15
6.9725e-16
-1.28066e-15
1.55475e-15
-5.05032e-15
-2.83996e-15
4.18589e-15
-3.00649e-15
6.58111e-17
4.73102e-15
-7.12798e-15
-2.15962e-15
1.31492e-15
-2.49551e-15
-7.78403e-15
3.26573e-15
-3.20946e-15
-1.45847e-14
6.67326e-15
4.43536e-15
1.84878e-15
3.07209e-15
6.9621e-15
-1.27036e-15
5.58191e-15
3.92666e-15
-8.78128e-15
8.84351e-15
-9.05526e-15
-7.47763e-15
-1.21756e-15
2.52511e-16
1.93769e-15
6.16477e-16
2.86121e-15
1.25692e-15
-8.93491e-15
-4.67291e-17
-1.2258e-15
6.36698e-15
1.27285e-16
-2.45789e-16
-1.02457e-15
9.5464e-15
5.78205e-15
-9.04095e-15
-3.98488e-15
-3.67111e-16
7.47384e-15
-1.09288e-16
-3.16847e-15
6.00865e-15
-6.55834e-15
5.06778e-15
-3.44147e-15
-2.70465e-15
1.42872e-14
-3.03837e-15
-5.21371e-15
4.12561e-15
8.47065e-15
-1.93161e-15
-6.9931e-16
-3.40114e-15
-3.05398e-15
6.0067e-15
-3.81271e-15
-2.71484e-15
-8.53918e-16
-4.39232e-15
8.45634e-15
8.86769e-15
2.37007e-15
-5.5793e-16
9.35189e-15
-3.32915e-15
1.99493e-16
9.15023e-15
-5.83951e-15
2.02182e-15
1.47647e-15
4.81169e-16
8.16838e-16
3.59998e-15
-2.81589e-15
-7.01479e-15
4.17114e-15
-5.9501e-16
1.44112e-15
9.50347e-15
3.76283e-15
1.65211e-15
3.00216e-15
-3.01191e-15
6.40482e-15
3.77259e-15
9.2799e-15
-1.42464e-16
-4.54953e-15
1.23686e-15
-4.12929e-15
3.39724e-15
-4.18329e-15
-1.19696e-16
-4.2041e-15
8.2833e-16
7.13015e-15
6.60322e-15
-6.00431e-15
-6.04031e-15
5.34729e-15
-4.6946e-15
6.23069e-15
1.81712e-15
5.85513e-15
-5.12394e-15
-6.34518e-15
3.97035e-15
-3.43042e-15
-3.94823e-15
-4.86026e-15
-7.5699e-15
-2.37744e-15
3.40136e-15
9.19187e-15
-5.50298e-15
1.22515e-15
1.05749e-14
-6.93803e-15
-2.03743e-15
-1.09864e-14
-1.23295e-15
2.70834e-15
-5.39282e-15
-1.36263e-14
3.35235e-16
1.02414e-14
-1.62795e-14
1.2258e-14
-1.08724e-14
4.20757e-15
-1.20433e-15
1.52916e-15
-5.61617e-15
1.89996e-15
-9.58001e-16
8.78247e-15
-5.28223e-15
-1.52656e-16
-4.51288e-15
-6.06416e-15
-1.58857e-15
-5.9887e-15
6.55552e-15
-6.56549e-15
-5.84602e-16
-5.30131e-15
-1.81539e-15
7.15487e-15
1.04127e-15
-5.10876e-16
-5.46915e-15
5.88201e-15
1.48145e-15
1.55908e-15
-7.20561e-15
-1.00076e-14
-1.05666e-14
1.08247e-15
2.30978e-15
-3.86887e-15
4.67812e-15
9.979e-16
-1.3154e-14
1.86049e-15
-6.0763e-15
1.0339e-15
6.15827e-15
-1.11239e-15
9.83241e-15
8.82974e-16
8.4867e-15
-1.06954e-14
-1.01117e-14
-9.35189e-15
-3.84805e-15
3.49113e-16
-8.83061e-15
1.06278e-14
-7.72386e-16
9.09862e-16
2.23042e-15
7.33051e-15
-1.16704e-15
2.01284e-14
-3.79818e-15
-2.18215e-14
1.28604e-14
-1.58198e-14
1.01676e-14
-3.3697e-15
6.43582e-16
-3.17281e-15
-7.80626e-17
6.69256e-15
-6.33217e-15
-6.10059e-15
-6.12097e-15
-5.19767e-15
-7.71952e-15
1.34849e-14
2.00144e-14
6.15393e-15
-1.40378e-14
1.44416e-15
6.08888e-15
3.83374e-16
4.30385e-15
-1.20563e-15
-9.81637e-15
-1.02999e-15
9.5696e-15
-3.57613e-15
-8.94597e-15
-5.60055e-15
-7.39079e-15
8.84536e-15
1.14605e-14
1.04673e-14
-2.15713e-15
9.00148e-15
-2.15366e-15
3.33934e-16
5.09748e-15
1.24067e-14
1.72197e-14
-7.18783e-15
-6.00475e-15
4.35849e-15
-5.35336e-15
8.65107e-15
-2.72352e-16
8.78637e-15
9.84889e-15
8.32927e-15
1.53818e-14
-5.75061e-16
-6.55118e-15
-1.72258e-15
5.26836e-15
1.31128e-14
4.59615e-15
-9.34149e-15
1.05038e-15
-2.50668e-16
3.36536e-16
1.02418e-14
2.94036e-16
4.71324e-15
-6.36644e-15
6.43843e-15
9.1151e-15
6.35082e-15
8.1931e-15
-2.28637e-15
3.12771e-15
-1.82666e-15
7.8158e-15
1.40461e-14
1.57704e-14
6.76542e-17
2.18228e-15
-1.94818e-14
1.03051e-14
7.39339e-15
-2.16927e-15
-6.77756e-15
-5.93275e-15
1.35135e-15
2.63765e-15
5.47479e-15
3.37751e-15
-6.10276e-15
4.7462e-15
5.94837e-15
1.18794e-14
-6.97532e-15
-1.45751e-14
5.83388e-15
4.12344e-15
-4.33334e-15
-2.5327e-15
-7.92769e-16
-9.78904e-15
-1.71425e-14
-1.83898e-14
1.55032e-14
-1.11855e-14
-8.67709e-15
4.34548e-15
-9.28077e-15
-1.01967e-14
-1.21222e-14
-8.74127e-15
1.11022e-15
-1.99701e-14
1.13468e-14
6.76716e-15
-3.64639e-15
4.42528e-15
-1.53193e-14
-2.76862e-15
7.11584e-15
-6.92849e-15
9.83935e-15
6.4844e-15
-8.88178e-16
-7.27543e-15
1.93422e-15
-1.80585e-15
1.01412e-14
-1.1359e-14
1.92207e-15
-2.38524e-15
3.40526e-15
2.79811e-15
8.75515e-15
-3.58741e-15
-4.22926e-15
-8.08902e-15
-5.68989e-16
-6.4046e-15
2.04524e-14
-6.4046e-15
-1.23252e-14
1.42074e-15
-4.5814e-15
5.27009e-15
2.21177e-15
7.32053e-15
-1.39645e-15
-1.32047e-14
-6.40113e-15
4.25354e-15
3.29597e-16
-1.38778e-14
2.42237e-14
1.65042e-14
-9.05526e-15
5.48173e-16
8.06299e-15
6.38031e-15
3.78864e-15
-5.73847e-15
-1.03841e-14
1.22888e-14
8.82974e-15
6.00214e-16
-4.76355e-15
-1.53801e-14
1.7427e-14
1.34684e-14
3.42781e-15
3.96211e-15
-4.42008e-15
8.96158e-15
-6.31786e-15
-6.11663e-15
4.91621e-15
-1.33574e-15
1.33712e-14
-8.80546e-15
-4.02456e-15
1.25906e-14
-7.70911e-15
-3.31332e-15
-1.41553e-15
4.26395e-15
-6.34215e-15
-2.55351e-15
-8.47239e-15
6.6093e-15
3.77823e-15
3.35149e-15
-8.16014e-15
-1.13416e-14
-4.44089e-16
6.00214e-16
-8.51402e-15
-2.49453e-15
1.83742e-14
-5.93622e-15
1.42594e-15
8.87485e-15
2.05912e-14
-1.34961e-15
6.69603e-16
-1.7996e-14
-7.47319e-15
-8.59729e-15
-4.19803e-15
1.43045e-14
6.09235e-15
-1.59109e-14
6.73073e-15
4.41314e-15
-1.27606e-14
-9.33975e-15
2.51466e-14
-8.01442e-15
4.25354e-15
-2.39392e-15
-4.95437e-15
9.41608e-15
2.02477e-14
-4.3715e-15
-1.24067e-14
1.24137e-14
1.56264e-14
5.02376e-15
-2.81303e-14
-9.65894e-15
5.09315e-15
-1.05957e-14
6.17562e-16
-3.16414e-15
1.25455e-14
-1.34059e-14
7.74381e-15
1.32255e-14
-6.55725e-15
1.35794e-14
5.41234e-16
-3.05311e-16
4.83641e-15
-1.19349e-15
1.05471e-15
-1.71391e-15
6.62664e-15
3.6221e-15
2.33216e-14
5.8703e-15
1.2372e-14
1.33366e-14
1.61537e-14
-3.14332e-15
-2.06571e-14
1.0672e-14
6.57113e-15
9.0622e-15
-1.89362e-14
3.41394e-15
-5.7454e-15
-9.5271e-15
-7.29278e-15
-6.59195e-16
2.17187e-15
1.37321e-14
-4.62824e-15
4.98213e-15
6.75848e-15
8.08381e-15
-1.4537e-14
1.99146e-14
-6.47399e-15
-1.07692e-14
2.15106e-14
1.54529e-14
-1.9075e-14
6.63358e-15
-2.57988e-14
-1.80828e-14
-1.56125e-15
-6.50174e-15
-2.47025e-14
1.01447e-14
6.80705e-15
-6.2797e-15
-1.36904e-14
-2.13718e-15
2.53825e-14
3.96905e-15
-1.33227e-15
7.43849e-15
8.07687e-15
6.55032e-15
-9.54792e-15
2.2711e-14
2.42167e-15
-2.14898e-14
1.06234e-14
-1.63064e-15
-1.11994e-14
6.52256e-15
8.38912e-15
-1.01238e-14
2.79637e-15
9.88792e-15
1.91097e-14
-1.34961e-14
-2.01714e-14
-5.00294e-15
-1.90126e-14
-2.05738e-14
-2.20449e-14
1.16226e-14
2.3051e-14
-2.05461e-14
8.41688e-15
-1.49186e-14
2.21975e-14
-5.75928e-15
4.4964e-15
-9.70057e-15
-1.92207e-15
1.00475e-14
-8.72913e-15
-5.41234e-15
9.98507e-15
-1.30451e-15
-7.09155e-15
-1.33019e-14
1.9193e-14
-8.71525e-15
-1.38778e-16
1.47937e-14
-2.10665e-14
8.38218e-15
3.1225e-15
-1.31145e-14
9.60343e-15
1.73195e-14
6.05072e-15
1.81799e-15
2.498e-15
-1.12133e-14
1.42941e-15
-6.50868e-15
-1.55292e-14
9.00668e-15
-6.84175e-15
-1.03806e-14
8.53484e-15
6.8695e-15
7.02216e-15
-1.15602e-14
2.24543e-14
-1.21153e-14
-3.07115e-14
1.65284e-14
5.38458e-15
5.82867e-16
1.57374e-14
-3.20716e-14
-1.12826e-14
1.53072e-14
-1.16435e-14
1.30451e-15
-2.8616e-14
2.41196e-14
6.18949e-15
1.25039e-14
9.39526e-15
1.70697e-14
1.12133e-14
-1.28925e-14
-1.58762e-14
-1.67921e-15
-4.19109e-15
-1.04083e-15
-1.99424e-14
3.8719e-15
-2.0095e-14
-7.21645e-16
7.77156e-15
-1.19904e-14
-1.2268e-14
-5.84255e-15
-2.38143e-14
1.62093e-14
-1.70558e-14
4.17721e-15
-1.42525e-14
-8.72913e-15
-9.71445e-17
3.16414e-15
-2.2482e-15
-2.63678e-16
7.07767e-16
1.34198e-14
6.96665e-15
-1.16851e-14
-3.06699e-15
-1.11161e-14
4.91274e-15
1.52101e-14
3.85803e-15
-1.58207e-15
1.60982e-14
-2.30926e-14
1.00059e-14
-5.03764e-15
-3.17246e-14
6.245e-15
-1.48215e-14
1.24623e-14
-2.72282e-14
5.59275e-15
2.45776e-14
-1.65146e-15
-3.03924e-15
6.09235e-15
1.96926e-14
2.51743e-14
-1.55431e-14
-6.14786e-15
1.15186e-14
-1.02418e-14
-1.60982e-15
-9.04832e-15
-1.64729e-14
-4.71845e-16
-1.83326e-14
-2.34396e-14
-1.23651e-14
-2.73392e-15
-5.92582e-15
-2.8727e-15
1.52656e-14
-2.77556e-16
-1.06859e-15
-2.31204e-14
3.89966e-15
5.91194e-15
-4.996e-16
-2.51188e-15
9.60343e-15
9.85323e-15
1.02279e-14
-1.9304e-14
2.00534e-14
7.14706e-15
1.08247e-14
-8.65974e-15
-1.71252e-14
2.47025e-15
2.68396e-14
-1.79301e-14
-5.80092e-15
6.46705e-15
-4.27436e-15
2.16493e-15
1.60982e-15
2.12885e-14
5.57887e-15
1.02696e-15
9.60343e-15
3.05311e-16
2.94209e-15
-5.02376e-15
-6.38378e-16
6.10623e-15
2.15383e-14
-1.63758e-14
1.20182e-14
-3.19189e-15
3.2363e-14
-5.9952e-15
-1.16573e-15
8.96505e-15
-1.27121e-14
4.27436e-15
-1.97897e-14
-3.21965e-15
2.4869e-14
2.77556e-15
5.30131e-15
5.07927e-15
1.7375e-14
-7.52176e-15
1.7486e-14
3.44169e-15
1.06581e-14
6.96665e-15
-6.63358e-15
8.38218e-15
5.93969e-15
-1.11022e-15
-5.55112e-17
4.96825e-15
1.42386e-14
1.79856e-14
-4.66294e-15
3.60822e-16
4.82947e-15
9.46465e-15
4.77396e-15
1.02696e-15
1.59317e-14
2.47857e-14
-2.73115e-14
-5.41234e-15
-1.32949e-14
1.72085e-14
1.88738e-14
-6.46705e-15
-4.08562e-14
1.16018e-14
3.30291e-15
-1.59317e-14
-1.55431e-14
-1.23512e-14
5.35683e-15
-1.84575e-14
-1.27398e-14
-6.77236e-15
3.08087e-15
-7.79932e-15
-9.85323e-15
1.29896e-14
-1.77636e-15
4.82947e-15
6.18949e-15
1.113e-14
-2.09277e-14
3.69149e-15
-1.09912e-14
9.96425e-15
1.47105e-15
-7.38298e-15
2.62845e-14
-1.62925e-14
1.64313e-14
1.80411e-15
-1.62648e-14
-1.75693e-14
-2.2371e-14
1.19349e-15
-1.70419e-14
5.91194e-15
-2.15661e-14
-1.8735e-14
6.43929e-15
3.80251e-15
-6.10623e-16
-3.66374e-15
-4.16334e-16
-2.22045e-16
-1.91236e-14
-2.73115e-14
-1.84019e-14
8.88178e-15
2.02061e-14
-1.08524e-14
-8.10463e-15
-6.13398e-15
-2.68952e-14
-1.01863e-14
-3.66374e-14
-1.65423e-14
2.74503e-14
-1.56541e-14
5.38458e-15
-4.77396e-15
-4.44089e-15
9.4369e-16
1.99285e-14
5.05151e-15
-8.60423e-15
1.69309e-14
1.77636e-14
2.49245e-14
-2.83107e-15
1.92069e-14
6.43929e-15
7.32747e-15
-1.44884e-14
2.67564e-14
1.38778e-15
-4.44089e-15
-1.88738e-15
-9.4369e-16
-7.88258e-15
7.10543e-15
2.34812e-14
-8.60423e-15
6.88338e-15
-2.4758e-14
2.77556e-16
2.9976e-15
-3.88023e-14
2.33147e-14
-1.84852e-14
4.44089e-16
1.78191e-14
1.39333e-14
2.06501e-14
-3.38618e-15
2.56462e-14
1.15463e-14
2.94209e-15
2.01505e-14
-1.70974e-14
-2.05391e-15
2.33147e-14
8.16014e-15
8.82627e-15
-4.05231e-15
2.28706e-14
2.41474e-14
-9.99201e-16
-2.43139e-14
-2.94764e-14
1.08247e-14
2.22045e-15
4.996e-16
1.41553e-14
1.77636e-15
3.01981e-14
1.11577e-14
-1.9984e-15
3.747e-14
7.66054e-15
-7.43849e-15
7.82707e-15
1.12133e-14
-8.71525e-15
-4.71845e-15
2.5091e-14
6.10623e-15
-2.27596e-15
-3.13083e-14
-3.55271e-15
-2.33702e-14
2.77556e-16
-4.4964e-15
3.9968e-14
-9.9365e-15
1.11022e-14
1.18239e-14
-5.77316e-15
2.77556e-15
1.60982e-15
-2.47025e-14
-7.32747e-15
3.33067e-15
-2.22045e-15
1.80966e-14
3.83027e-15
-1.16573e-15
2.40363e-14
-2.57017e-14
2.69229e-14
-2.498e-15
-2.72005e-14
1.66533e-15
-1.29341e-14
-6.27276e-15
-1.44884e-14
-1.64313e-14
1.21014e-14
-4.66294e-15
1.55431e-14
-1.66533e-16
-1.5099e-14
-1.80966e-14
-6.16174e-15
1.4988e-15
-2.11497e-14
-1.7264e-14
-5.55112e-17
1.31561e-14
2.80886e-14
-9.4369e-15
-7.88258e-15
-4.05231e-15
3.05311e-15
-6.32827e-15
-6.32827e-15
-1.43774e-14
-6.05072e-15
-2.05391e-14
-6.88338e-15
1.87073e-14
-1.58762e-14
-1.38778e-15
1.34337e-14
2.88658e-15
-2.10387e-14
-2.63123e-14
-1.98175e-14
2.15383e-14
8.04912e-15
8.21565e-15
-2.05391e-15
-7.27196e-15
-2.2371e-14
-1.32117e-14
1.2601e-14
-1.36557e-14
-3.04756e-14
2.16493e-15
1.32117e-14
2.44804e-14
-6.71685e-15
9.04832e-15
8.99281e-15
5.55112e-15
-1.16018e-14
-2.88658e-15
7.43849e-15
9.60343e-15
-2.83107e-14
1.43774e-14
1.78191e-14
-1.54876e-14
5.55112e-17
1.13243e-14
-2.16493e-15
-3.83027e-15
-9.99201e-16
1.03251e-14
1.88738e-15
-1.05471e-14
-6.66134e-16
1.40443e-14
1.43774e-14
5.55112e-17
8.88178e-16
6.99441e-15
6.77236e-15
-6.16174e-15
-1.83187e-14
-7.21645e-15
2.9865e-14
-3.10862e-15
-3.05311e-15
1.7486e-14
-1.82632e-14
-2.60902e-15
4.996e-16
1.15463e-14
8.99281e-15
-3.59712e-14
1.59317e-14
1.11022e-16
-1.68199e-14
-2.88658e-15
7.04992e-15
2.7367e-14
1.53766e-14
-3.60822e-15
-1.30451e-14
8.10463e-15
8.32667e-15
-7.32747e-15
1.02696e-14
-1.84852e-14
-1.88738e-15
0
4.59632e-14
-6.43929e-15
6.27276e-15
-5.71765e-15
1.33782e-14
1.77636e-15
-4.94049e-15
-1.18239e-14
1.09357e-14
1.66533e-15
-1.97065e-14
-2.94764e-14
6.71685e-15
-1.4877e-14
5.60663e-15
-2.88658e-15
1.14908e-14
6.99441e-15
5.77316e-15
-8.32667e-15
-1.21569e-14
-1.37668e-14
-1.06026e-14
1.43219e-14
-2.22045e-15
-1.88738e-15
-1.16573e-14
1.55431e-15
6.82787e-15
-4.44089e-16
6.66134e-16
-2.44249e-15
-4.44089e-16
5.60663e-15
-3.29736e-14
-1.11022e-15
3.88578e-16
-1.54876e-14
4.94049e-15
2.07612e-14
5.9952e-15
4.66294e-15
-1.9984e-15
2.37588e-14
-1.95399e-14
-1.35447e-14
7.54952e-15
-1.9984e-15
4.66294e-15
-5.9952e-15
-5.10703e-15
9.10383e-15
-1.88738e-15
6.55032e-15
-4.44089e-16
1.67644e-14
-2.88658e-15
1.92069e-14
-2.498e-14
-1.44329e-15
-3.04201e-14
1.07692e-14
-1.07692e-14
-1.23235e-14
-1.38778e-14
-1.12133e-14
0
4.21885e-15
-7.77156e-16
1.22125e-15
4.10783e-15
1.90958e-14
1.25455e-14
5.66214e-15
-2.10942e-14
2.03171e-14
-2.62013e-14
1.03251e-14
-1.88738e-15
1.02141e-14
9.10383e-15
1.19904e-14
-3.55271e-15
-7.77156e-16
1.4877e-14
-1.89848e-14
-2.66454e-15
5.44009e-15
5.21805e-15
-2.16493e-14
-2.22045e-16
9.10383e-15
-2.22045e-16
-1.22125e-14
1.69864e-14
1.57652e-14
3.33067e-16
1.37668e-14
1.06581e-14
-1.77636e-14
4.55191e-15
-1.22125e-15
7.77156e-16
-2.18714e-14
9.99201e-15
1.12133e-14
1.19904e-14
-1.57652e-14
-1.35447e-14
6.66134e-16
1.05471e-14
-1.60982e-14
-2.22045e-15
-3.33067e-16
-4.66294e-15
-1.0103e-14
-8.88178e-15
1.88738e-15
1.43219e-14
1.07692e-14
2.02061e-14
8.43769e-15
1.38778e-14
1.66533e-14
2.10942e-15
1.11022e-15
1.85407e-14
1.15463e-14
-1.11022e-15
-4.21885e-15
-1.11022e-15
-6.21725e-15
-2.30926e-14
6.32827e-15
1.73195e-14
-3.08642e-14
2.5091e-14
-2.84217e-14
5.55112e-16
-1.09912e-14
2.22045e-16
4.44089e-16
-3.55271e-15
-1.78746e-14
-1.53211e-14
1.36557e-14
1.94289e-14
-1.70974e-14
-1.03251e-14
2.59792e-14
2.16493e-14
5.9952e-15
2.32037e-14
4.996e-15
5.9952e-15
-2.63123e-14
1.11022e-15
-4.66294e-15
-9.21485e-15
-4.44089e-16
-8.21565e-15
-8.88178e-16
-1.33227e-15
1.23235e-14
-1.63203e-14
-5.9952e-15
-1.52101e-14
2.23155e-14
-4.10783e-15
-1.83187e-14
-3.33067e-16
-8.88178e-16
6.32827e-15
-7.43849e-15
4.10783e-15
1.06581e-14
-4.44089e-16
3.33067e-16
0
-1.77636e-15
-1.4877e-14
-1.85407e-14
-1.17684e-14
-2.37588e-14
-8.88178e-16
4.32987e-15
-1.43219e-14
-2.62013e-14
1.62093e-14
-1.55431e-15
6.43929e-15
-8.32667e-15
2.22045e-15
9.54792e-15
-1.07692e-14
3.13083e-14
-2.55351e-15
2.60902e-14
-1.77636e-15
8.77076e-15
1.08802e-14
1.57652e-14
6.55032e-15
9.88098e-15
5.88418e-15
-1.24345e-14
-1.36557e-14
6.10623e-15
1.12133e-14
-1.58762e-14
-1.88738e-14
-8.77076e-15
-1.56541e-14
-1.11022e-14
-5.21805e-15
1.14353e-14
2.74225e-14
1.07692e-14
2.10942e-15
1.22125e-15
1.08802e-14
-2.40918e-14
-2.22045e-15
-2.08722e-14
1.63203e-14
2.10942e-15
1.88738e-15
-2.06501e-14
-1.22125e-15
5.32907e-15
7.32747e-15
1.38778e-14
2.88658e-15
-1.55431e-15
-8.54872e-15
-1.84297e-14
-1.22125e-15
1.35447e-14
-1.9984e-15
-5.55112e-16
2.12053e-14
2.12053e-14
2.33147e-15
2.25375e-14
2.22045e-15
1.26565e-14
4.77396e-15
2.58682e-14
-1.57652e-14
-1.11022e-15
-4.66294e-15
3.10862e-15
9.4369e-15
-2.77556e-15
-5.44009e-15
3.9968e-15
-8.21565e-15
-1.19904e-14
-4.32987e-15
-5.66214e-15
-4.32987e-15
-1.77636e-14
-1.78746e-14
-9.99201e-15
4.10783e-15
1.42109e-14
2.77556e-15
-5.55112e-16
3.9968e-15
1.32117e-14
8.77076e-15
4.55191e-15
1.04361e-14
7.99361e-15
1.60982e-14
1.68754e-14
-4.09672e-14
-2.4758e-14
-1.11022e-15
4.77396e-15
4.21885e-15
1.9984e-14
-1.03251e-14
2.39808e-14
-4.21885e-15
2.44249e-15
1.40998e-14
-4.21885e-15
1.5099e-14
1.33227e-15
-1.36557e-14
-1.70974e-14
9.54792e-15
2.44249e-15
7.54952e-15
1.4988e-14
1.13243e-14
-1.53211e-14
-6.88338e-15
1.03251e-14
1.44329e-15
-1.22125e-14
-6.32827e-15
-1.25455e-14
-1.09912e-14
-1.94289e-14
-5.55112e-16
-2.91989e-14
3.88578e-15
-3.33067e-16
4.88498e-15
-1.56541e-14
1.55431e-15
6.21725e-15
2.19824e-14
-2.4758e-14
6.99441e-15
-1.33227e-15
1.0103e-14
-5.55112e-16
-1.31006e-14
1.57652e-14
2.28706e-14
-8.88178e-15
-1.5099e-14
-8.88178e-15
-1.19904e-14
1.9984e-15
-1.77636e-15
-1.44329e-15
-7.66054e-15
1.28786e-14
-1.14353e-14
6.55032e-15
-1.22125e-14
-2.23155e-14
1.88738e-14
2.54241e-14
-5.55112e-16
1.25455e-14
-1.44329e-15
9.99201e-16
-2.88658e-15
-2.64233e-14
4.21885e-15
-8.43769e-15
-1.33227e-14
7.54952e-15
-8.43769e-15
1.55431e-15
1.66533e-14
5.10703e-15
-3.10862e-15
-7.77156e-15
-2.66454e-15
8.88178e-16
-1.31006e-14
1.35447e-14
7.77156e-15
8.21565e-15
-5.9952e-15
5.10703e-15
7.32747e-15
-7.10543e-15
-3.10862e-15
1.5099e-14
1.06581e-14
2.81997e-14
-7.54952e-15
-2.88658e-15
2.44249e-15
2.4869e-14
-1.82077e-14
5.9952e-15
-2.39808e-14
1.04361e-14
-1.66533e-14
5.32907e-15
1.11022e-14
6.88338e-15
1.93179e-14
1.02141e-14
-2.19824e-14
6.66134e-15
4.44089e-16
-4.88498e-15
-8.43769e-15
-3.55271e-15
-6.43929e-15
-1.55431e-14
6.66134e-16
-1.15463e-14
1.5099e-14
-1.13243e-14
-9.76996e-15
-4.44089e-16
9.10383e-15
-4.21885e-15
8.65974e-15
-2.57572e-14
-1.46549e-14
-2.10942e-14
3.77476e-15
2.55351e-14
-4.21885e-15
4.66294e-15
1.39888e-14
-6.21725e-15
-7.99361e-15
-1.04361e-14
-4.44089e-15
2.15383e-14
6.66134e-16
-1.39888e-14
6.66134e-15
-6.88338e-15
-6.66134e-16
2.66454e-15
-9.76996e-15
-1.5099e-14
-1.77636e-15
-1.08802e-14
3.33067e-15
1.70974e-14
-1.9984e-15
-5.55112e-15
1.26565e-14
-2.13163e-14
-8.88178e-15
-5.55112e-15
1.06581e-14
-2.30926e-14
-2.22045e-15
-8.65974e-15
2.62013e-14
-7.77156e-15
2.39808e-14
-1.11022e-15
-3.08642e-14
0
-1.66533e-14
-2.24265e-14
5.55112e-15
-3.77476e-15
-1.19904e-14
-5.32907e-15
1.08802e-14
-9.99201e-15
1.9984e-15
2.04281e-14
-1.11022e-15
-4.44089e-16
5.32907e-15
8.88178e-15
1.66533e-14
-1.11022e-15
-1.68754e-14
1.02141e-14
-8.43769e-15
1.9762e-14
1.28786e-14
1.11022e-14
-2.22045e-15
-1.39888e-14
7.77156e-15
4.88498e-15
-3.9968e-15
-3.10862e-15
-8.21565e-15
-4.44089e-16
-7.54952e-15
-3.06422e-14
1.33227e-14
1.02141e-14
-1.35447e-14
-7.54952e-15
1.28786e-14
-9.10383e-15
-3.77476e-15
6.21725e-15
1.08802e-14
1.82077e-14
-2.5091e-14
-1.13243e-14
-4.44089e-16
-1.55431e-15
-1.53211e-14
6.43929e-15
1.73195e-14
2.15383e-14
6.21725e-15
1.55431e-14
6.21725e-15
1.77636e-15
-4.21885e-15
-1.11022e-15
9.99201e-15
-3.9968e-15
9.54792e-15
-1.66533e-14
1.93179e-14
1.57652e-14
1.55431e-15
-8.21565e-15
1.88738e-14
4.88498e-15
7.32747e-15
2.66454e-15
6.43929e-15
-1.88738e-14
4.66294e-15
9.54792e-15
-1.02141e-14
-8.88178e-15
-1.02141e-14
-6.43929e-15
3.10862e-15
-8.65974e-15
4.44089e-15
-1.28786e-14
-1.4877e-14
9.99201e-15
1.77636e-15
2.88658e-15
-7.77156e-15
-5.77316e-15
-2.44249e-15
4.66294e-15
2.30926e-14
-4.44089e-16
1.42109e-14
1.02141e-14
-1.5099e-14
5.55112e-15
6.88338e-15
4.21885e-15
-8.65974e-15
-8.88178e-16
1.22125e-14
8.88178e-15
-5.32907e-15
-2.81997e-14
3.75255e-14
4.44089e-15
-6.66134e-16
5.9952e-15
3.9968e-15
5.55112e-15
-2.33147e-14
-4.44089e-15
-3.33067e-15
-6.43929e-15
1.55431e-15
-3.77476e-15
5.32907e-15
-2.22045e-15
-1.15463e-14
5.9952e-15
-3.77476e-15
1.28786e-14
0
-8.43769e-15
-2.22045e-15
4.44089e-15
-1.06581e-14
-1.22125e-14
-1.64313e-14
4.21885e-15
-1.68754e-14
1.64313e-14
0
-1.59872e-14
1.42109e-14
-8.43769e-15
-4.66294e-15
3.77476e-15
-1.33227e-15
3.33067e-15
-5.77316e-15
5.55112e-15
-4.21885e-15
-1.35447e-14
1.9984e-15
-1.55431e-15
1.19904e-14
6.43929e-15
-1.17684e-14
-2.22045e-15
-3.9968e-15
1.33227e-15
-1.24345e-14
-3.33067e-15
1.77636e-15
-8.65974e-15
2.44249e-15
-2.22045e-16
-2.22045e-16
-1.11022e-15
-1.70974e-14
-7.32747e-15
-5.77316e-15
1.35447e-14
-1.70974e-14
-1.4877e-14
1.19904e-14
-2.44249e-15
-3.10862e-15
-1.44329e-14
1.39888e-14
-1.28786e-14
-1.19904e-14
-2.88658e-15
2.88658e-15
3.9968e-15
-1.24345e-14
6.21725e-15
-5.55112e-15
0
9.32587e-15
-8.21565e-15
-1.08802e-14
1.11022e-14
-1.55431e-15
5.32907e-15
5.9952e-15
1.24345e-14
1.42109e-14
4.66294e-15
1.13243e-14
-4.44089e-15
-8.43769e-15
2.06501e-14
-1.93179e-14
5.32907e-15
4.44089e-15
7.32747e-15
-6.43929e-15
-3.10862e-15
8.88178e-15
-3.33067e-15
8.88178e-15
1.26565e-14
-6.21725e-15
2.22045e-15
-1.31006e-14
-1.35447e-14
9.99201e-15
1.77636e-15
-1.59872e-14
9.99201e-15
6.43929e-15
5.77316e-15
4.66294e-15
5.9952e-15
-8.43769e-15
9.99201e-15
-1.55431e-15
1.77636e-15
1.19904e-14
-4.44089e-16
-9.76996e-15
7.54952e-15
-5.55112e-15
8.43769e-15
-6.43929e-15
-1.55431e-15
-2.22045e-16
1.37668e-14
-2.44249e-15
1.5099e-14
1.02141e-14
2.22045e-15
-3.33067e-15
-9.76996e-15
1.11022e-14
-4.44089e-16
1.11022e-15
-2.22045e-16
-4.44089e-16
9.54792e-15
1.02141e-14
-1.08802e-14
2.44249e-15
-2.44249e-15
-1.02141e-14
-8.88178e-15
2.44249e-15
-1.88738e-14
-1.11022e-15
-3.55271e-15
8.21565e-15
-3.55271e-15
1.28786e-14
1.33227e-15
6.21725e-15
-4.21885e-15
2.44249e-15
5.10703e-15
-7.32747e-15
-2.22045e-15
-7.99361e-15
-1.75415e-14
1.57652e-14
7.32747e-15
1.57652e-14
1.11022e-14
-1.02141e-14
-4.44089e-15
1.17684e-14
-3.10862e-15
-1.77636e-15
-1.31006e-14
1.02141e-14
-9.76996e-15
3.77476e-15
-2.06501e-14
-4.66294e-15
-5.10703e-15
-6.43929e-15
-6.21725e-15
2.22045e-14
-1.44329e-14
5.10703e-15
-5.77316e-15
-8.65974e-15
1.15463e-14
7.54952e-15
-8.88178e-15
-3.33067e-15
1.11022e-15
-5.55112e-15
1.9984e-15
1.04361e-14
8.21565e-15
-7.54952e-15
-3.9968e-15
7.77156e-15
2.44249e-15
4.66294e-15
-1.02141e-14
6.88338e-15
1.39888e-14
-8.65974e-15
7.54952e-15
1.19904e-14
1.08802e-14
-1.39888e-14
5.77316e-15
2.26485e-14
1.59872e-14
7.10543e-15
-1.15463e-14
-5.9952e-15
-8.65974e-15
-9.76996e-15
-2.22045e-15
1.11022e-15
-7.77156e-15
2.22045e-16
-2.44249e-15
1.13243e-14
1.08802e-14
-1.06581e-14
-9.32587e-15
-1.5099e-14
-8.88178e-16
7.10543e-15
-1.77636e-15
-7.10543e-15
-7.99361e-15
8.88178e-16
7.99361e-15
-1.42109e-14
3.55271e-15
2.66454e-15
1.24345e-14
1.02141e-14
9.32587e-15
-3.55271e-15
1.02141e-14
-1.37668e-14
1.64313e-14
4.44089e-15
-2.66454e-15
7.54952e-15
-1.33227e-14
1.77636e-15
7.10543e-15
4.44089e-16
-5.32907e-15
1.06581e-14
1.06581e-14
4.44089e-15
-9.76996e-15
-4.44089e-15
2.66454e-15
1.28786e-14
-1.02141e-14
-2.22045e-15
-6.66134e-15
-1.64313e-14
-1.06581e-14
2.66454e-15
-4.44089e-16
-1.02141e-14
-1.77636e-15
3.55271e-15
7.54952e-15
-2.88658e-14
-9.32587e-15
-4.44089e-15
3.9968e-15
-1.33227e-15
-1.77636e-15
1.42109e-14
1.64313e-14
-3.9968e-15
1.46549e-14
1.46549e-14
5.32907e-15
-1.11022e-14
-1.77636e-15
4.44089e-15
1.11022e-14
7.10543e-15
-1.77636e-15
-4.44089e-15
3.10862e-15
1.33227e-15
2.44249e-14
-5.32907e-15
8.88178e-16
1.02141e-14
-7.10543e-15
2.22045e-15
-1.64313e-14
-4.44089e-15
-2.22045e-15
1.42109e-14
-9.76996e-15
0
-6.21725e-15
-2.66454e-15
4.88498e-15
-7.99361e-15
6.21725e-15
-1.77636e-15
1.77636e-15
5.32907e-15
8.88178e-16
-1.59872e-14
-9.76996e-15
-1.28786e-14
-1.33227e-15
1.24345e-14
1.33227e-15
-2.88658e-14
4.44089e-15
-1.33227e-15
1.02141e-14
1.15463e-14
6.66134e-15
-6.21725e-15
-7.99361e-15
3.55271e-15
-9.76996e-15
4.44089e-15
-1.33227e-14
1.68754e-14
8.43769e-15
-6.66134e-15
4.44089e-15
9.32587e-15
-2.66454e-15
1.33227e-15
-2.22045e-15
2.22045e-15
1.77636e-15
-1.5099e-14
5.32907e-15
-1.33227e-15
3.55271e-15
-3.55271e-15
-6.66134e-15
8.88178e-16
-7.54952e-15
5.32907e-15
-1.59872e-14
8.43769e-15
-1.68754e-14
-3.10862e-15
1.33227e-15
0
3.55271e-15
4.44089e-15
1.55431e-14
-2.66454e-15
3.10862e-15
-1.5099e-14
0
6.66134e-15
-3.9968e-15
8.88178e-16
-9.76996e-15
8.43769e-15
3.9968e-15
-2.66454e-15
-4.44089e-15
-3.55271e-15
-8.43769e-15
2.26485e-14
3.55271e-15
7.54952e-15
8.88178e-16
3.9968e-15
1.37668e-14
8.43769e-15
1.77636e-15
-1.19904e-14
-2.66454e-15
-1.02141e-14
-2.66454e-15
1.33227e-15
-8.88178e-16
6.66134e-15
2.22045e-15
-1.33227e-15
8.43769e-15
-2.22045e-15
-4.44089e-16
4.44089e-16
7.54952e-15
-8.88178e-16
6.66134e-15
-6.66134e-15
-2.39808e-14
2.66454e-15
4.44089e-16
5.32907e-15
-7.99361e-15
1.06581e-14
4.44089e-16
1.19904e-14
1.77636e-15
-1.77636e-15
2.66454e-15
-4.88498e-15
1.82077e-14
-1.02141e-14
5.77316e-15
8.43769e-15
-3.10862e-15
-3.55271e-15
-3.9968e-15
-1.19904e-14
-9.76996e-15
0
-3.55271e-15
4.44089e-15
-1.33227e-15
2.66454e-15
-8.88178e-16
-1.15463e-14
3.10862e-15
1.77636e-15
-1.33227e-15
2.66454e-15
3.9968e-15
7.10543e-15
6.21725e-15
-2.08722e-14
4.88498e-15
6.66134e-15
-5.77316e-15
-1.33227e-15
4.88498e-15
1.19904e-14
3.10862e-15
2.30926e-14
-2.22045e-15
8.88178e-16
0
1.77636e-15
5.77316e-15
-7.99361e-15
1.77636e-15
-5.77316e-15
4.44089e-15
-7.54952e-15
-8.88178e-16
7.99361e-15
-9.32587e-15
-5.32907e-15
-1.37668e-14
1.42109e-14
2.26485e-14
1.77636e-15
-9.32587e-15
5.77316e-15
-1.15463e-14
-1.77636e-14
-3.55271e-15
8.88178e-16
-4.44089e-16
-2.66454e-15
-5.77316e-15
-2.22045e-15
-9.32587e-15
1.64313e-14
-7.99361e-15
-4.44089e-15
-1.55431e-14
1.33227e-15
6.66134e-15
4.88498e-15
3.10862e-15
-2.22045e-15
5.32907e-15
7.99361e-15
6.21725e-15
-1.06581e-14
5.32907e-15
4.44089e-15
-4.44089e-15
-6.66134e-15
-6.66134e-15
8.88178e-16
1.77636e-15
-1.55431e-14
4.44089e-16
7.54952e-15
-1.02141e-14
-1.33227e-14
3.9968e-15
-7.54952e-15
-2.22045e-14
-5.32907e-15
-6.21725e-15
-1.5099e-14
1.77636e-15
7.99361e-15
-2.66454e-15
3.55271e-15
-4.88498e-15
-2.22045e-15
-2.66454e-15
3.10862e-15
-6.21725e-15
-1.77636e-15
5.32907e-15
-8.43769e-15
4.44089e-15
-1.28786e-14
0
3.10862e-15
-8.43769e-15
2.22045e-15
6.66134e-15
-2.66454e-15
2.39808e-14
1.55431e-14
8.88178e-16
-7.99361e-15
-4.88498e-15
-1.77636e-15
3.10862e-15
1.77636e-15
-9.76996e-15
-1.19904e-14
3.55271e-15
0
1.28786e-14
2.66454e-15
-1.02141e-14
-1.42109e-14
1.77636e-15
-1.24345e-14
-6.21725e-15
2.66454e-15
-3.9968e-15