/*--------------------------------*- C++ -*----------------------------------*\
| =========                 |                                                 |
| \\      /  F ield         | foam-extend: Open Source CFD                    |
|  \\    /   O peration     | Version:     4.0                                |
|   \\  /    A nd           | Web:         http://www.foam-extend.org         |
|    \\/     M anipulation  |                                                 |
\*---------------------------------------------------------------------------*/
FoamFile
{
    version     2.0;
    format      ascii;
    class       volScalarField;
    location    "320";
    object      cPlus;
}
// * * * * * * * * * * * * * * * * * * * * * * * * * * * * * * * * * * * * * //

dimensions      [0 0 0 0 0 0 0];

internalField   nonuniform List<scalar> 
6960
(
0.189311
0.189226
0.189178
0.189155
0.189144
0.189139
0.189137
0.189136
0.189135
0.189135
0.189135
0.189134
0.189134
0.189134
0.189134
0.189134
0.189134
0.189135
0.189135
0.189135
0.189135
0.189135
0.189135
0.189135
0.189135
0.189135
0.189135
0.189135
0.189135
0.189135
0.189135
0.189135
0.189135
0.189135
0.189135
0.189135
0.189135
0.189135
0.189135
0.189135
0.189135
0.189135
0.189135
0.189134
0.189134
0.189134
0.189134
0.189134
0.189134
0.189135
0.189135
0.189135
0.189136
0.189137
0.189139
0.189144
0.189155
0.189178
0.189226
0.189311
0.047394
0.0473776
0.0473673
0.0473622
0.0473598
0.0473587
0.0473582
0.0473579
0.0473579
0.0473578
0.0473579
0.0473579
0.0473579
0.047358
0.047358
0.0473581
0.0473581
0.0473582
0.0473582
0.0473583
0.0473583
0.0473583
0.0473584
0.0473584
0.0473584
0.0473585
0.0473585
0.0473585
0.0473585
0.0473585
0.0473585
0.0473585
0.0473585
0.0473585
0.0473585
0.0473584
0.0473584
0.0473584
0.0473583
0.0473583
0.0473583
0.0473582
0.0473582
0.0473581
0.0473581
0.047358
0.047358
0.0473579
0.0473579
0.0473579
0.0473578
0.0473579
0.0473579
0.0473582
0.0473587
0.0473598
0.0473622
0.0473673
0.0473776
0.047394
0.0274876
0.0274949
0.0274976
0.0274987
0.0274993
0.0274996
0.0274997
0.0274998
0.0274999
0.0275
0.0275001
0.0275001
0.0275002
0.0275003
0.0275003
0.0275004
0.0275004
0.0275005
0.0275005
0.0275006
0.0275006
0.0275007
0.0275007
0.0275007
0.0275008
0.0275008
0.0275008
0.0275008
0.0275008
0.0275008
0.0275008
0.0275008
0.0275008
0.0275008
0.0275008
0.0275008
0.0275007
0.0275007
0.0275007
0.0275006
0.0275006
0.0275005
0.0275005
0.0275004
0.0275004
0.0275003
0.0275003
0.0275002
0.0275001
0.0275001
0.0275
0.0274999
0.0274998
0.0274997
0.0274996
0.0274993
0.0274987
0.0274976
0.0274949
0.0274876
0.0249274
0.0249407
0.0249467
0.0249494
0.0249507
0.0249514
0.0249517
0.0249519
0.024952
0.0249521
0.0249522
0.0249523
0.0249524
0.0249524
0.0249525
0.0249525
0.0249526
0.0249527
0.0249527
0.0249528
0.0249528
0.0249528
0.0249529
0.0249529
0.0249529
0.024953
0.024953
0.024953
0.024953
0.024953
0.024953
0.024953
0.024953
0.024953
0.024953
0.0249529
0.0249529
0.0249529
0.0249528
0.0249528
0.0249528
0.0249527
0.0249527
0.0249526
0.0249525
0.0249525
0.0249524
0.0249524
0.0249523
0.0249522
0.0249521
0.024952
0.0249519
0.0249517
0.0249514
0.0249507
0.0249494
0.0249467
0.0249407
0.0249274
0.024968
0.0249829
0.0249897
0.0249929
0.0249944
0.0249951
0.0249955
0.0249957
0.0249958
0.0249959
0.024996
0.0249961
0.0249962
0.0249963
0.0249963
0.0249964
0.0249965
0.0249965
0.0249966
0.0249966
0.0249967
0.0249967
0.0249967
0.0249968
0.0249968
0.0249968
0.0249968
0.0249969
0.0249969
0.0249969
0.0249969
0.0249969
0.0249969
0.0249968
0.0249968
0.0249968
0.0249968
0.0249967
0.0249967
0.0249967
0.0249966
0.0249966
0.0249965
0.0249965
0.0249964
0.0249963
0.0249963
0.0249962
0.0249961
0.024996
0.0249959
0.0249958
0.0249957
0.0249955
0.0249951
0.0249944
0.0249929
0.0249897
0.0249829
0.024968
0.025426
0.0254416
0.0254488
0.0254522
0.0254537
0.0254545
0.0254549
0.0254551
0.0254553
0.0254554
0.0254555
0.0254556
0.0254557
0.0254557
0.0254558
0.0254559
0.0254559
0.025456
0.025456
0.0254561
0.0254561
0.0254562
0.0254562
0.0254563
0.0254563
0.0254563
0.0254563
0.0254563
0.0254564
0.0254564
0.0254564
0.0254564
0.0254563
0.0254563
0.0254563
0.0254563
0.0254563
0.0254562
0.0254562
0.0254561
0.0254561
0.025456
0.025456
0.0254559
0.0254559
0.0254558
0.0254557
0.0254557
0.0254556
0.0254555
0.0254554
0.0254553
0.0254551
0.0254549
0.0254545
0.0254537
0.0254522
0.0254488
0.0254416
0.025426
0.0259899
0.0260062
0.0260137
0.0260172
0.0260188
0.0260196
0.02602
0.0260203
0.0260204
0.0260206
0.0260207
0.0260207
0.0260208
0.0260209
0.026021
0.0260211
0.0260211
0.0260212
0.0260212
0.0260213
0.0260213
0.0260214
0.0260214
0.0260215
0.0260215
0.0260215
0.0260215
0.0260215
0.0260216
0.0260216
0.0260216
0.0260216
0.0260215
0.0260215
0.0260215
0.0260215
0.0260215
0.0260214
0.0260214
0.0260213
0.0260213
0.0260212
0.0260212
0.0260211
0.0260211
0.026021
0.0260209
0.0260208
0.0260207
0.0260207
0.0260206
0.0260204
0.0260203
0.02602
0.0260196
0.0260188
0.0260172
0.0260137
0.0260062
0.0259899
0.0266233
0.0266402
0.0266481
0.0266517
0.0266534
0.0266543
0.0266547
0.026655
0.0266551
0.0266552
0.0266554
0.0266554
0.0266555
0.0266556
0.0266557
0.0266558
0.0266558
0.0266559
0.026656
0.026656
0.0266561
0.0266561
0.0266562
0.0266562
0.0266562
0.0266562
0.0266563
0.0266563
0.0266563
0.0266563
0.0266563
0.0266563
0.0266563
0.0266563
0.0266562
0.0266562
0.0266562
0.0266562
0.0266561
0.0266561
0.026656
0.026656
0.0266559
0.0266558
0.0266558
0.0266557
0.0266556
0.0266555
0.0266554
0.0266554
0.0266552
0.0266551
0.026655
0.0266547
0.0266543
0.0266534
0.0266517
0.0266481
0.0266402
0.0266233
0.0273304
0.0273482
0.0273564
0.0273602
0.027362
0.0273629
0.0273633
0.0273636
0.0273638
0.0273639
0.027364
0.0273641
0.0273642
0.0273643
0.0273644
0.0273644
0.0273645
0.0273646
0.0273646
0.0273647
0.0273648
0.0273648
0.0273648
0.0273649
0.0273649
0.0273649
0.027365
0.027365
0.027365
0.027365
0.027365
0.027365
0.027365
0.027365
0.0273649
0.0273649
0.0273649
0.0273648
0.0273648
0.0273648
0.0273647
0.0273646
0.0273646
0.0273645
0.0273644
0.0273644
0.0273643
0.0273642
0.0273641
0.027364
0.0273639
0.0273638
0.0273636
0.0273633
0.0273629
0.027362
0.0273602
0.0273564
0.0273482
0.0273304
0.0281237
0.0281423
0.0281509
0.028155
0.0281569
0.0281578
0.0281583
0.0281585
0.0281587
0.0281589
0.028159
0.0281591
0.0281592
0.0281593
0.0281594
0.0281594
0.0281595
0.0281596
0.0281597
0.0281597
0.0281598
0.0281598
0.0281599
0.0281599
0.0281599
0.02816
0.02816
0.02816
0.02816
0.02816
0.02816
0.02816
0.02816
0.02816
0.02816
0.0281599
0.0281599
0.0281599
0.0281598
0.0281598
0.0281597
0.0281597
0.0281596
0.0281595
0.0281594
0.0281594
0.0281593
0.0281592
0.0281591
0.028159
0.0281589
0.0281587
0.0281585
0.0281583
0.0281578
0.0281569
0.028155
0.0281509
0.0281423
0.0281237
0.0290196
0.0290393
0.0290484
0.0290526
0.0290547
0.0290556
0.0290561
0.0290564
0.0290566
0.0290568
0.0290569
0.029057
0.0290571
0.0290572
0.0290573
0.0290574
0.0290575
0.0290576
0.0290576
0.0290577
0.0290578
0.0290578
0.0290579
0.0290579
0.0290579
0.029058
0.029058
0.029058
0.029058
0.029058
0.029058
0.029058
0.029058
0.029058
0.029058
0.0290579
0.0290579
0.0290579
0.0290578
0.0290578
0.0290577
0.0290576
0.0290576
0.0290575
0.0290574
0.0290573
0.0290572
0.0290571
0.029057
0.0290569
0.0290568
0.0290566
0.0290564
0.0290561
0.0290556
0.0290547
0.0290526
0.0290484
0.0290393
0.0290196
0.0300396
0.0300606
0.0300702
0.0300748
0.0300769
0.030078
0.0300785
0.0300788
0.030079
0.0300792
0.0300793
0.0300794
0.0300795
0.0300797
0.0300798
0.0300798
0.0300799
0.03008
0.0300801
0.0300802
0.0300802
0.0300803
0.0300803
0.0300804
0.0300804
0.0300805
0.0300805
0.0300805
0.0300805
0.0300805
0.0300805
0.0300805
0.0300805
0.0300805
0.0300805
0.0300804
0.0300804
0.0300803
0.0300803
0.0300802
0.0300802
0.0300801
0.03008
0.0300799
0.0300798
0.0300798
0.0300797
0.0300795
0.0300794
0.0300793
0.0300792
0.030079
0.0300788
0.0300785
0.030078
0.0300769
0.0300748
0.0300702
0.0300606
0.0300396
0.0312119
0.0312344
0.0312447
0.0312496
0.0312519
0.031253
0.0312536
0.0312539
0.0312541
0.0312543
0.0312545
0.0312546
0.0312547
0.0312548
0.0312549
0.031255
0.0312551
0.0312552
0.0312553
0.0312554
0.0312555
0.0312555
0.0312556
0.0312556
0.0312557
0.0312557
0.0312557
0.0312558
0.0312558
0.0312558
0.0312558
0.0312558
0.0312558
0.0312557
0.0312557
0.0312557
0.0312556
0.0312556
0.0312555
0.0312555
0.0312554
0.0312553
0.0312552
0.0312551
0.031255
0.0312549
0.0312548
0.0312547
0.0312546
0.0312545
0.0312543
0.0312541
0.0312539
0.0312536
0.031253
0.0312519
0.0312496
0.0312447
0.0312344
0.0312119
0.0325741
0.0325984
0.0326096
0.0326149
0.0326174
0.0326186
0.0326192
0.0326196
0.0326198
0.03262
0.0326202
0.0326203
0.0326204
0.0326206
0.0326207
0.0326208
0.0326209
0.032621
0.0326211
0.0326212
0.0326213
0.0326213
0.0326214
0.0326215
0.0326215
0.0326216
0.0326216
0.0326216
0.0326216
0.0326216
0.0326216
0.0326216
0.0326216
0.0326216
0.0326216
0.0326215
0.0326215
0.0326214
0.0326213
0.0326213
0.0326212
0.0326211
0.032621
0.0326209
0.0326208
0.0326207
0.0326206
0.0326204
0.0326203
0.0326202
0.03262
0.0326198
0.0326196
0.0326192
0.0326186
0.0326174
0.0326149
0.0326096
0.0325984
0.0325741
0.034178
0.0342045
0.0342168
0.0342225
0.0342253
0.0342266
0.0342273
0.0342277
0.034228
0.0342282
0.0342284
0.0342285
0.0342287
0.0342288
0.034229
0.0342291
0.0342292
0.0342293
0.0342294
0.0342295
0.0342296
0.0342297
0.0342297
0.0342298
0.0342299
0.0342299
0.0342299
0.03423
0.03423
0.03423
0.03423
0.03423
0.03423
0.0342299
0.0342299
0.0342299
0.0342298
0.0342297
0.0342297
0.0342296
0.0342295
0.0342294
0.0342293
0.0342292
0.0342291
0.034229
0.0342288
0.0342287
0.0342285
0.0342284
0.0342282
0.034228
0.0342277
0.0342273
0.0342266
0.0342253
0.0342225
0.0342168
0.0342045
0.034178
0.0360964
0.0361259
0.0361395
0.0361459
0.0361489
0.0361504
0.0361512
0.0361516
0.0361519
0.0361522
0.0361524
0.0361525
0.0361527
0.0361529
0.036153
0.0361532
0.0361533
0.0361534
0.0361535
0.0361536
0.0361537
0.0361538
0.0361539
0.036154
0.036154
0.0361541
0.0361541
0.0361542
0.0361542
0.0361542
0.0361542
0.0361542
0.0361542
0.0361541
0.0361541
0.036154
0.036154
0.0361539
0.0361538
0.0361537
0.0361536
0.0361535
0.0361534
0.0361533
0.0361532
0.036153
0.0361529
0.0361527
0.0361525
0.0361524
0.0361522
0.0361519
0.0361516
0.0361512
0.0361504
0.0361489
0.0361459
0.0361395
0.0361259
0.0360964
0.0384357
0.0384689
0.0384842
0.0384915
0.0384949
0.0384966
0.0384975
0.038498
0.0384984
0.0384986
0.0384989
0.0384991
0.0384993
0.0384994
0.0384996
0.0384998
0.0384999
0.0385001
0.0385002
0.0385003
0.0385004
0.0385006
0.0385006
0.0385007
0.0385008
0.0385009
0.0385009
0.0385009
0.038501
0.038501
0.038501
0.038501
0.0385009
0.0385009
0.0385009
0.0385008
0.0385007
0.0385006
0.0385006
0.0385004
0.0385003
0.0385002
0.0385001
0.0384999
0.0384998
0.0384996
0.0384994
0.0384993
0.0384991
0.0384989
0.0384986
0.0384984
0.038498
0.0384975
0.0384966
0.0384949
0.0384915
0.0384842
0.0384689
0.0384357
0.0413554
0.0413937
0.0414114
0.0414198
0.0414238
0.0414257
0.0414268
0.0414274
0.0414278
0.0414281
0.0414284
0.0414286
0.0414288
0.041429
0.0414292
0.0414294
0.0414296
0.0414298
0.04143
0.0414301
0.0414302
0.0414304
0.0414305
0.0414306
0.0414307
0.0414307
0.0414308
0.0414308
0.0414309
0.0414309
0.0414309
0.0414309
0.0414308
0.0414308
0.0414307
0.0414307
0.0414306
0.0414305
0.0414304
0.0414302
0.0414301
0.04143
0.0414298
0.0414296
0.0414294
0.0414292
0.041429
0.0414288
0.0414286
0.0414284
0.0414281
0.0414278
0.0414274
0.0414268
0.0414257
0.0414238
0.0414198
0.0414114
0.0413937
0.0413554
0.0451011
0.0451465
0.0451675
0.0451775
0.0451822
0.0451846
0.0451858
0.0451865
0.045187
0.0451874
0.0451877
0.045188
0.0451883
0.0451886
0.0451888
0.0451891
0.0451893
0.0451895
0.0451897
0.0451899
0.04519
0.0451902
0.0451903
0.0451904
0.0451905
0.0451906
0.0451907
0.0451907
0.0451908
0.0451908
0.0451908
0.0451908
0.0451907
0.0451907
0.0451906
0.0451905
0.0451904
0.0451903
0.0451902
0.04519
0.0451899
0.0451897
0.0451895
0.0451893
0.0451891
0.0451888
0.0451886
0.0451883
0.045188
0.0451877
0.0451874
0.045187
0.0451865
0.0451858
0.0451846
0.0451822
0.0451775
0.0451675
0.0451465
0.0451011
0.0500492
0.0501047
0.0501306
0.0501428
0.0501487
0.0501515
0.0501531
0.050154
0.0501546
0.0501551
0.0501555
0.0501558
0.0501562
0.0501565
0.0501568
0.0501571
0.0501574
0.0501577
0.0501579
0.0501582
0.0501584
0.0501586
0.0501587
0.0501589
0.050159
0.0501591
0.0501592
0.0501593
0.0501593
0.0501593
0.0501593
0.0501593
0.0501593
0.0501592
0.0501591
0.050159
0.0501589
0.0501587
0.0501586
0.0501584
0.0501582
0.0501579
0.0501577
0.0501574
0.0501571
0.0501568
0.0501565
0.0501562
0.0501558
0.0501555
0.0501551
0.0501546
0.050154
0.0501531
0.0501515
0.0501487
0.0501428
0.0501306
0.0501047
0.0500492
0.0567481
0.0568181
0.056851
0.0568665
0.056874
0.0568776
0.0568796
0.0568807
0.0568815
0.0568821
0.0568826
0.0568831
0.0568836
0.056884
0.0568844
0.0568848
0.0568851
0.0568855
0.0568858
0.0568861
0.0568864
0.0568866
0.0568868
0.056887
0.0568872
0.0568873
0.0568875
0.0568875
0.0568876
0.0568876
0.0568876
0.0568876
0.0568875
0.0568875
0.0568873
0.0568872
0.056887
0.0568868
0.0568866
0.0568864
0.0568861
0.0568858
0.0568855
0.0568851
0.0568848
0.0568844
0.056884
0.0568836
0.0568831
0.0568826
0.0568821
0.0568815
0.0568807
0.0568796
0.0568776
0.056874
0.0568665
0.056851
0.0568181
0.0567481
0.0659052
0.0659953
0.0660378
0.066058
0.0660676
0.0660724
0.0660749
0.0660764
0.0660774
0.0660782
0.0660789
0.0660795
0.0660801
0.0660807
0.0660812
0.0660817
0.0660822
0.0660826
0.066083
0.0660834
0.0660838
0.0660841
0.0660844
0.0660846
0.0660848
0.066085
0.0660852
0.0660853
0.0660854
0.0660854
0.0660854
0.0660854
0.0660853
0.0660852
0.066085
0.0660848
0.0660846
0.0660844
0.0660841
0.0660838
0.0660834
0.066083
0.0660826
0.0660822
0.0660817
0.0660812
0.0660807
0.0660801
0.0660795
0.0660789
0.0660782
0.0660774
0.0660764
0.0660749
0.0660724
0.0660676
0.066058
0.0660378
0.0659953
0.0659052
0.0782487
0.0783648
0.0784198
0.0784459
0.0784584
0.0784646
0.0784678
0.0784698
0.0784711
0.0784721
0.078473
0.0784738
0.0784746
0.0784753
0.078476
0.0784766
0.0784772
0.0784778
0.0784783
0.0784788
0.0784793
0.0784797
0.07848
0.0784804
0.0784807
0.0784809
0.0784811
0.0784812
0.0784813
0.0784814
0.0784814
0.0784813
0.0784812
0.0784811
0.0784809
0.0784807
0.0784804
0.07848
0.0784797
0.0784793
0.0784788
0.0784783
0.0784778
0.0784772
0.0784766
0.078476
0.0784753
0.0784746
0.0784738
0.078473
0.0784721
0.0784711
0.0784698
0.0784678
0.0784646
0.0784584
0.0784459
0.0784198
0.0783648
0.0782487
0.0942581
0.0944045
0.094474
0.0945071
0.0945229
0.0945308
0.0945349
0.0945374
0.0945391
0.0945403
0.0945414
0.0945424
0.0945434
0.0945442
0.0945451
0.0945459
0.0945466
0.0945473
0.094548
0.0945486
0.0945492
0.0945497
0.0945501
0.0945505
0.0945509
0.0945512
0.0945514
0.0945516
0.0945517
0.0945518
0.0945518
0.0945517
0.0945516
0.0945514
0.0945512
0.0945509
0.0945505
0.0945501
0.0945497
0.0945492
0.0945486
0.094548
0.0945473
0.0945466
0.0945459
0.0945451
0.0945442
0.0945434
0.0945424
0.0945414
0.0945403
0.0945391
0.0945374
0.0945349
0.0945308
0.0945229
0.0945071
0.094474
0.0944045
0.0942581
0.113904
0.114082
0.114167
0.114208
0.114227
0.114237
0.114242
0.114245
0.114247
0.114248
0.114249
0.114251
0.114252
0.114253
0.114254
0.114255
0.114256
0.114256
0.114257
0.114258
0.114259
0.114259
0.11426
0.11426
0.114261
0.114261
0.114261
0.114261
0.114262
0.114262
0.114262
0.114262
0.114261
0.114261
0.114261
0.114261
0.11426
0.11426
0.114259
0.114259
0.114258
0.114257
0.114256
0.114256
0.114255
0.114254
0.114253
0.114252
0.114251
0.114249
0.114248
0.114247
0.114245
0.114242
0.114237
0.114227
0.114208
0.114167
0.114082
0.113904
0.136614
0.136821
0.13692
0.136968
0.136991
0.137002
0.137008
0.137011
0.137014
0.137015
0.137017
0.137018
0.137019
0.137021
0.137022
0.137023
0.137024
0.137025
0.137026
0.137026
0.137027
0.137028
0.137028
0.137029
0.137029
0.13703
0.13703
0.13703
0.13703
0.137031
0.137031
0.13703
0.13703
0.13703
0.13703
0.137029
0.137029
0.137028
0.137028
0.137027
0.137026
0.137026
0.137025
0.137024
0.137023
0.137022
0.137021
0.137019
0.137018
0.137017
0.137015
0.137014
0.137011
0.137008
0.137002
0.136991
0.136968
0.13692
0.136821
0.136614
0.161498
0.161732
0.161844
0.161898
0.161924
0.161936
0.161943
0.161947
0.16195
0.161952
0.161953
0.161955
0.161956
0.161957
0.161958
0.16196
0.161961
0.161962
0.161963
0.161963
0.161964
0.161965
0.161966
0.161966
0.161967
0.161967
0.161967
0.161968
0.161968
0.161968
0.161968
0.161968
0.161968
0.161967
0.161967
0.161967
0.161966
0.161966
0.161965
0.161964
0.161963
0.161963
0.161962
0.161961
0.16196
0.161958
0.161957
0.161956
0.161955
0.161953
0.161952
0.16195
0.161947
0.161943
0.161936
0.161924
0.161898
0.161844
0.161732
0.161498
0.187673
0.187929
0.188053
0.188112
0.188141
0.188155
0.188163
0.188167
0.18817
0.188172
0.188174
0.188175
0.188177
0.188178
0.188179
0.18818
0.188181
0.188182
0.188183
0.188184
0.188185
0.188186
0.188187
0.188187
0.188188
0.188188
0.188188
0.188189
0.188189
0.188189
0.188189
0.188189
0.188189
0.188188
0.188188
0.188188
0.188187
0.188187
0.188186
0.188185
0.188184
0.188183
0.188182
0.188181
0.18818
0.188179
0.188178
0.188177
0.188175
0.188174
0.188172
0.18817
0.188167
0.188163
0.188155
0.188141
0.188112
0.188053
0.187929
0.187673
0.214455
0.21473
0.214863
0.214928
0.214959
0.214975
0.214983
0.214988
0.214991
0.214993
0.214995
0.214997
0.214998
0.214999
0.215001
0.215002
0.215003
0.215004
0.215005
0.215006
0.215007
0.215007
0.215008
0.215009
0.215009
0.21501
0.21501
0.21501
0.21501
0.215011
0.215011
0.21501
0.21501
0.21501
0.21501
0.215009
0.215009
0.215008
0.215007
0.215007
0.215006
0.215005
0.215004
0.215003
0.215002
0.215001
0.214999
0.214998
0.214997
0.214995
0.214993
0.214991
0.214988
0.214983
0.214975
0.214959
0.214928
0.214863
0.21473
0.214455
0.241393
0.241684
0.241826
0.241896
0.24193
0.241947
0.241956
0.241961
0.241964
0.241966
0.241968
0.24197
0.241971
0.241972
0.241974
0.241975
0.241976
0.241977
0.241978
0.241979
0.24198
0.241981
0.241981
0.241982
0.241982
0.241983
0.241983
0.241983
0.241984
0.241984
0.241984
0.241984
0.241983
0.241983
0.241983
0.241982
0.241982
0.241981
0.241981
0.24198
0.241979
0.241978
0.241977
0.241976
0.241975
0.241974
0.241972
0.241971
0.24197
0.241968
0.241966
0.241964
0.241961
0.241956
0.241947
0.24193
0.241896
0.241826
0.241684
0.241393
0.268214
0.26852
0.268671
0.268745
0.268782
0.2688
0.268809
0.268815
0.268818
0.26882
0.268822
0.268824
0.268825
0.268827
0.268828
0.268829
0.26883
0.268831
0.268832
0.268833
0.268834
0.268835
0.268836
0.268836
0.268837
0.268837
0.268837
0.268838
0.268838
0.268838
0.268838
0.268838
0.268838
0.268837
0.268837
0.268837
0.268836
0.268836
0.268835
0.268834
0.268833
0.268832
0.268831
0.26883
0.268829
0.268828
0.268827
0.268825
0.268824
0.268822
0.26882
0.268818
0.268815
0.268809
0.2688
0.268782
0.268745
0.268671
0.26852
0.268214
0.29476
0.295078
0.295237
0.295315
0.295354
0.295374
0.295384
0.29539
0.295393
0.295396
0.295398
0.295399
0.295401
0.295402
0.295403
0.295404
0.295406
0.295407
0.295408
0.295408
0.295409
0.29541
0.295411
0.295411
0.295412
0.295412
0.295413
0.295413
0.295413
0.295413
0.295413
0.295413
0.295413
0.295413
0.295412
0.295412
0.295411
0.295411
0.29541
0.295409
0.295408
0.295408
0.295407
0.295406
0.295404
0.295403
0.295402
0.295401
0.295399
0.295398
0.295396
0.295393
0.29539
0.295384
0.295374
0.295354
0.295315
0.295237
0.295078
0.29476
0.320929
0.321259
0.321425
0.321508
0.32155
0.32157
0.321581
0.321587
0.321591
0.321594
0.321596
0.321597
0.321599
0.3216
0.321601
0.321602
0.321603
0.321604
0.321605
0.321606
0.321607
0.321608
0.321609
0.321609
0.32161
0.32161
0.32161
0.321611
0.321611
0.321611
0.321611
0.321611
0.321611
0.32161
0.32161
0.32161
0.321609
0.321609
0.321608
0.321607
0.321606
0.321605
0.321604
0.321603
0.321602
0.321601
0.3216
0.321599
0.321597
0.321596
0.321594
0.321591
0.321587
0.321581
0.32157
0.32155
0.321508
0.321425
0.321259
0.320929
0.346659
0.346998
0.347172
0.347259
0.347303
0.347325
0.347336
0.347343
0.347347
0.347349
0.347351
0.347353
0.347354
0.347356
0.347357
0.347358
0.347359
0.34736
0.347361
0.347362
0.347363
0.347364
0.347364
0.347365
0.347365
0.347366
0.347366
0.347366
0.347366
0.347367
0.347367
0.347366
0.347366
0.347366
0.347366
0.347365
0.347365
0.347364
0.347364
0.347363
0.347362
0.347361
0.34736
0.347359
0.347358
0.347357
0.347356
0.347354
0.347353
0.347351
0.347349
0.347347
0.347343
0.347336
0.347325
0.347303
0.347259
0.347172
0.346998
0.346659
0.371902
0.37225
0.37243
0.372522
0.372568
0.372591
0.372604
0.37261
0.372614
0.372617
0.372619
0.372621
0.372622
0.372624
0.372625
0.372626
0.372627
0.372628
0.372629
0.37263
0.372631
0.372631
0.372632
0.372632
0.372633
0.372633
0.372634
0.372634
0.372634
0.372634
0.372634
0.372634
0.372634
0.372634
0.372633
0.372633
0.372632
0.372632
0.372631
0.372631
0.37263
0.372629
0.372628
0.372627
0.372626
0.372625
0.372624
0.372622
0.372621
0.372619
0.372617
0.372614
0.37261
0.372604
0.372591
0.372568
0.372522
0.37243
0.37225
0.371902
0.396625
0.396981
0.397167
0.397263
0.397311
0.397336
0.397349
0.397356
0.397361
0.397363
0.397365
0.397367
0.397368
0.39737
0.397371
0.397372
0.397373
0.397374
0.397375
0.397376
0.397376
0.397377
0.397378
0.397378
0.397379
0.397379
0.39738
0.39738
0.39738
0.39738
0.39738
0.39738
0.39738
0.39738
0.397379
0.397379
0.397378
0.397378
0.397377
0.397376
0.397376
0.397375
0.397374
0.397373
0.397372
0.397371
0.39737
0.397368
0.397367
0.397365
0.397363
0.397361
0.397356
0.397349
0.397336
0.397311
0.397263
0.397167
0.396981
0.396625
0.420802
0.421164
0.421356
0.421456
0.421507
0.421533
0.421547
0.421554
0.421559
0.421562
0.421564
0.421565
0.421567
0.421568
0.421569
0.42157
0.421571
0.421572
0.421573
0.421574
0.421575
0.421575
0.421576
0.421576
0.421577
0.421577
0.421577
0.421578
0.421578
0.421578
0.421578
0.421578
0.421578
0.421577
0.421577
0.421577
0.421576
0.421576
0.421575
0.421575
0.421574
0.421573
0.421572
0.421571
0.42157
0.421569
0.421568
0.421567
0.421565
0.421564
0.421562
0.421559
0.421554
0.421547
0.421533
0.421507
0.421456
0.421356
0.421164
0.420802
0.444413
0.444779
0.444977
0.44508
0.445134
0.445161
0.445176
0.445184
0.445189
0.445192
0.445194
0.445195
0.445197
0.445198
0.445199
0.4452
0.445201
0.445202
0.445203
0.445204
0.445204
0.445205
0.445206
0.445206
0.445207
0.445207
0.445207
0.445207
0.445208
0.445208
0.445208
0.445208
0.445207
0.445207
0.445207
0.445207
0.445206
0.445206
0.445205
0.445204
0.445204
0.445203
0.445202
0.445201
0.4452
0.445199
0.445198
0.445197
0.445195
0.445194
0.445192
0.445189
0.445184
0.445176
0.445161
0.445134
0.44508
0.444977
0.444779
0.444413
0.467441
0.467812
0.468014
0.468121
0.468177
0.468206
0.468221
0.46823
0.468235
0.468238
0.46824
0.468242
0.468243
0.468244
0.468245
0.468246
0.468247
0.468248
0.468249
0.46825
0.46825
0.468251
0.468251
0.468252
0.468252
0.468253
0.468253
0.468253
0.468253
0.468253
0.468253
0.468253
0.468253
0.468253
0.468253
0.468252
0.468252
0.468251
0.468251
0.46825
0.46825
0.468249
0.468248
0.468247
0.468246
0.468245
0.468244
0.468243
0.468242
0.46824
0.468238
0.468235
0.46823
0.468221
0.468206
0.468177
0.468121
0.468014
0.467812
0.467441
0.489874
0.490248
0.490455
0.490566
0.490624
0.490654
0.49067
0.490679
0.490685
0.490688
0.49069
0.490692
0.490693
0.490694
0.490695
0.490696
0.490697
0.490698
0.490699
0.490699
0.4907
0.4907
0.490701
0.490702
0.490702
0.490702
0.490703
0.490703
0.490703
0.490703
0.490703
0.490703
0.490703
0.490703
0.490702
0.490702
0.490702
0.490701
0.4907
0.4907
0.490699
0.490699
0.490698
0.490697
0.490696
0.490695
0.490694
0.490693
0.490692
0.49069
0.490688
0.490685
0.490679
0.49067
0.490654
0.490624
0.490566
0.490455
0.490248
0.489874
0.511704
0.51208
0.512291
0.512405
0.512465
0.512497
0.512514
0.512524
0.512529
0.512532
0.512535
0.512536
0.512538
0.512539
0.51254
0.512541
0.512541
0.512542
0.512543
0.512544
0.512544
0.512545
0.512545
0.512546
0.512546
0.512547
0.512547
0.512547
0.512547
0.512547
0.512547
0.512547
0.512547
0.512547
0.512547
0.512546
0.512546
0.512545
0.512545
0.512544
0.512544
0.512543
0.512542
0.512541
0.512541
0.51254
0.512539
0.512538
0.512536
0.512535
0.512532
0.512529
0.512524
0.512514
0.512497
0.512465
0.512405
0.512291
0.51208
0.511704
0.532924
0.533301
0.533515
0.533632
0.533695
0.533728
0.533746
0.533756
0.533762
0.533765
0.533768
0.533769
0.533771
0.533772
0.533773
0.533774
0.533774
0.533775
0.533776
0.533776
0.533777
0.533778
0.533778
0.533778
0.533779
0.533779
0.533779
0.53378
0.53378
0.53378
0.53378
0.53378
0.53378
0.533779
0.533779
0.533779
0.533778
0.533778
0.533778
0.533777
0.533776
0.533776
0.533775
0.533774
0.533774
0.533773
0.533772
0.533771
0.533769
0.533768
0.533765
0.533762
0.533756
0.533746
0.533728
0.533695
0.533632
0.533515
0.533301
0.532924
0.55353
0.553907
0.554124
0.554244
0.554309
0.554344
0.554363
0.554373
0.554379
0.554383
0.554385
0.554387
0.554388
0.554389
0.55439
0.554391
0.554392
0.554392
0.554393
0.554393
0.554394
0.554395
0.554395
0.554395
0.554396
0.554396
0.554396
0.554396
0.554397
0.554397
0.554397
0.554397
0.554396
0.554396
0.554396
0.554396
0.554395
0.554395
0.554395
0.554394
0.554393
0.554393
0.554392
0.554392
0.554391
0.55439
0.554389
0.554388
0.554387
0.554385
0.554383
0.554379
0.554373
0.554363
0.554344
0.554309
0.554244
0.554124
0.553907
0.55353
0.573519
0.573895
0.574115
0.574238
0.574305
0.574342
0.574361
0.574372
0.574379
0.574382
0.574385
0.574387
0.574388
0.574389
0.57439
0.57439
0.574391
0.574392
0.574392
0.574393
0.574393
0.574394
0.574394
0.574395
0.574395
0.574395
0.574396
0.574396
0.574396
0.574396
0.574396
0.574396
0.574396
0.574396
0.574395
0.574395
0.574395
0.574394
0.574394
0.574393
0.574393
0.574392
0.574392
0.574391
0.57439
0.57439
0.574389
0.574388
0.574387
0.574385
0.574382
0.574379
0.574372
0.574361
0.574342
0.574305
0.574238
0.574115
0.573895
0.573519
0.592893
0.593267
0.593489
0.593614
0.593684
0.593722
0.593742
0.593754
0.593761
0.593765
0.593767
0.593769
0.59377
0.593771
0.593772
0.593772
0.593773
0.593774
0.593774
0.593775
0.593775
0.593776
0.593776
0.593776
0.593777
0.593777
0.593777
0.593777
0.593777
0.593778
0.593778
0.593777
0.593777
0.593777
0.593777
0.593777
0.593776
0.593776
0.593776
0.593775
0.593775
0.593774
0.593774
0.593773
0.593772
0.593772
0.593771
0.59377
0.593769
0.593767
0.593765
0.593761
0.593754
0.593742
0.593722
0.593684
0.593614
0.593489
0.593267
0.592893
0.611652
0.612024
0.612247
0.612375
0.612446
0.612486
0.612508
0.61252
0.612527
0.612531
0.612533
0.612535
0.612536
0.612537
0.612538
0.612539
0.612539
0.61254
0.61254
0.612541
0.612541
0.612542
0.612542
0.612542
0.612543
0.612543
0.612543
0.612543
0.612543
0.612543
0.612543
0.612543
0.612543
0.612543
0.612543
0.612543
0.612542
0.612542
0.612542
0.612541
0.612541
0.61254
0.61254
0.612539
0.612539
0.612538
0.612537
0.612536
0.612535
0.612533
0.612531
0.612527
0.61252
0.612508
0.612486
0.612446
0.612375
0.612247
0.612024
0.611652
0.6298
0.630169
0.630393
0.630523
0.630596
0.630637
0.63066
0.630673
0.63068
0.630684
0.630687
0.630689
0.63069
0.630691
0.630691
0.630692
0.630693
0.630693
0.630694
0.630694
0.630694
0.630695
0.630695
0.630695
0.630696
0.630696
0.630696
0.630696
0.630696
0.630696
0.630696
0.630696
0.630696
0.630696
0.630696
0.630696
0.630695
0.630695
0.630695
0.630694
0.630694
0.630694
0.630693
0.630693
0.630692
0.630691
0.630691
0.63069
0.630689
0.630687
0.630684
0.63068
0.630673
0.63066
0.630637
0.630596
0.630523
0.630393
0.630169
0.6298
0.647341
0.647707
0.647931
0.648063
0.648139
0.648181
0.648205
0.648218
0.648226
0.64823
0.648233
0.648235
0.648236
0.648237
0.648237
0.648238
0.648238
0.648239
0.648239
0.64824
0.64824
0.64824
0.648241
0.648241
0.648241
0.648241
0.648241
0.648242
0.648242
0.648242
0.648242
0.648242
0.648242
0.648241
0.648241
0.648241
0.648241
0.648241
0.64824
0.64824
0.64824
0.648239
0.648239
0.648238
0.648238
0.648237
0.648237
0.648236
0.648235
0.648233
0.64823
0.648226
0.648218
0.648205
0.648181
0.648139
0.648063
0.647931
0.647707
0.647341
0.664282
0.664643
0.664868
0.665002
0.665079
0.665123
0.665147
0.665161
0.665169
0.665174
0.665177
0.665179
0.66518
0.665181
0.665181
0.665182
0.665182
0.665183
0.665183
0.665183
0.665184
0.665184
0.665184
0.665184
0.665185
0.665185
0.665185
0.665185
0.665185
0.665185
0.665185
0.665185
0.665185
0.665185
0.665185
0.665185
0.665184
0.665184
0.665184
0.665184
0.665183
0.665183
0.665183
0.665182
0.665182
0.665181
0.665181
0.66518
0.665179
0.665177
0.665174
0.665169
0.665161
0.665147
0.665123
0.665079
0.665002
0.664868
0.664643
0.664282
0.68063
0.680986
0.681211
0.681346
0.681425
0.68147
0.681495
0.68151
0.681518
0.681523
0.681526
0.681528
0.681529
0.68153
0.681531
0.681531
0.681531
0.681532
0.681532
0.681532
0.681533
0.681533
0.681533
0.681533
0.681533
0.681534
0.681534
0.681534
0.681534
0.681534
0.681534
0.681534
0.681534
0.681534
0.681534
0.681533
0.681533
0.681533
0.681533
0.681533
0.681532
0.681532
0.681532
0.681531
0.681531
0.681531
0.68153
0.681529
0.681528
0.681526
0.681523
0.681518
0.68151
0.681495
0.68147
0.681425
0.681346
0.681211
0.680986
0.68063
0.696393
0.696743
0.696967
0.697104
0.697184
0.69723
0.697257
0.697272
0.697281
0.697286
0.697289
0.697291
0.697292
0.697293
0.697293
0.697294
0.697294
0.697294
0.697295
0.697295
0.697295
0.697295
0.697296
0.697296
0.697296
0.697296
0.697296
0.697296
0.697296
0.697296
0.697296
0.697296
0.697296
0.697296
0.697296
0.697296
0.697296
0.697296
0.697295
0.697295
0.697295
0.697295
0.697294
0.697294
0.697294
0.697293
0.697293
0.697292
0.697291
0.697289
0.697286
0.697281
0.697272
0.697257
0.69723
0.697184
0.697104
0.696967
0.696743
0.696393
0.711579
0.711924
0.712147
0.712284
0.712366
0.712414
0.712441
0.712457
0.712467
0.712472
0.712475
0.712477
0.712478
0.712479
0.712479
0.71248
0.71248
0.71248
0.71248
0.71248
0.712481
0.712481
0.712481
0.712481
0.712481
0.712481
0.712481
0.712481
0.712482
0.712482
0.712482
0.712482
0.712481
0.712481
0.712481
0.712481
0.712481
0.712481
0.712481
0.712481
0.71248
0.71248
0.71248
0.71248
0.71248
0.712479
0.712479
0.712478
0.712477
0.712475
0.712472
0.712467
0.712457
0.712441
0.712414
0.712366
0.712284
0.712147
0.711924
0.711579
0.7262
0.726538
0.72676
0.726898
0.726981
0.72703