/*--------------------------------*- C++ -*----------------------------------*\
| =========                 |                                                 |
| \\      /  F ield         | foam-extend: Open Source CFD                    |
|  \\    /   O peration     | Version:     4.0                                |
|   \\  /    A nd           | Web:         http://www.foam-extend.org         |
|    \\/     M anipulation  |                                                 |
\*---------------------------------------------------------------------------*/
FoamFile
{
    version     2.0;
    format      ascii;
    class       volScalarField;
    location    "630";
    object      cMinus;
}
// * * * * * * * * * * * * * * * * * * * * * * * * * * * * * * * * * * * * * //

dimensions      [0 0 0 0 0 0 0];

internalField   nonuniform List<scalar> 
6960
(
1.49118e-19
1.48357e-19
1.48805e-19
1.49041e-19
1.49132e-19
1.49132e-19
1.49078e-19
1.48991e-19
1.48882e-19
1.4876e-19
1.4863e-19
1.48496e-19
1.4836e-19
1.48224e-19
1.48091e-19
1.47962e-19
1.47839e-19
1.47721e-19
1.47611e-19
1.47509e-19
1.47416e-19
1.47331e-19
1.47255e-19
1.47189e-19
1.47131e-19
1.47084e-19
1.47046e-19
1.47017e-19
1.46998e-19
1.46989e-19
1.46989e-19
1.46998e-19
1.47017e-19
1.47046e-19
1.47084e-19
1.47131e-19
1.47189e-19
1.47255e-19
1.47331e-19
1.47416e-19
1.47509e-19
1.47611e-19
1.47721e-19
1.47839e-19
1.47962e-19
1.48091e-19
1.48224e-19
1.4836e-19
1.48496e-19
1.4863e-19
1.4876e-19
1.48882e-19
1.48991e-19
1.49078e-19
1.49132e-19
1.49132e-19
1.49041e-19
1.48805e-19
1.48357e-19
1.49118e-19
2.53022e-19
2.51923e-19
2.52608e-19
2.52965e-19
2.53099e-19
2.53096e-19
2.53008e-19
2.52868e-19
2.52696e-19
2.52504e-19
2.523e-19
2.52089e-19
2.51875e-19
2.51663e-19
2.51455e-19
2.51253e-19
2.51059e-19
2.50875e-19
2.50703e-19
2.50543e-19
2.50396e-19
2.50263e-19
2.50145e-19
2.5004e-19
2.49951e-19
2.49876e-19
2.49817e-19
2.49772e-19
2.49742e-19
2.49727e-19
2.49727e-19
2.49742e-19
2.49772e-19
2.49817e-19
2.49876e-19
2.49951e-19
2.5004e-19
2.50145e-19
2.50263e-19
2.50396e-19
2.50543e-19
2.50703e-19
2.50875e-19
2.51059e-19
2.51253e-19
2.51455e-19
2.51663e-19
2.51875e-19
2.52089e-19
2.523e-19
2.52504e-19
2.52696e-19
2.52868e-19
2.53008e-19
2.53096e-19
2.53099e-19
2.52965e-19
2.52608e-19
2.51923e-19
2.53022e-19
8.61259e-19
8.58004e-19
8.60165e-19
8.61284e-19
8.61698e-19
8.61675e-19
8.61387e-19
8.60937e-19
8.60385e-19
8.59769e-19
8.59115e-19
8.5844e-19
8.57757e-19
8.57078e-19
8.56412e-19
8.55766e-19
8.55147e-19
8.5456e-19
8.54009e-19
8.53498e-19
8.53029e-19
8.52605e-19
8.52226e-19
8.51893e-19
8.51608e-19
8.5137e-19
8.51179e-19
8.51036e-19
8.50941e-19
8.50894e-19
8.50894e-19
8.50941e-19
8.51036e-19
8.51179e-19
8.5137e-19
8.51608e-19
8.51893e-19
8.52226e-19
8.52605e-19
8.53029e-19
8.53498e-19
8.54009e-19
8.5456e-19
8.55147e-19
8.55766e-19
8.56412e-19
8.57078e-19
8.57757e-19
8.5844e-19
8.59115e-19
8.59769e-19
8.60385e-19
8.60937e-19
8.61387e-19
8.61675e-19
8.61698e-19
8.61284e-19
8.60165e-19
8.58004e-19
8.61259e-19
3.23326e-18
3.22285e-18
3.23038e-18
3.23426e-18
3.23569e-18
3.23559e-18
3.23458e-18
3.233e-18
3.23107e-18
3.22892e-18
3.22664e-18
3.22428e-18
3.2219e-18
3.21953e-18
3.21721e-18
3.21496e-18
3.21281e-18
3.21076e-18
3.20885e-18
3.20707e-18
3.20543e-18
3.20396e-18
3.20264e-18
3.20148e-18
3.20049e-18
3.19966e-18
3.19899e-18
3.1985e-18
3.19817e-18
3.198e-18
3.198e-18
3.19817e-18
3.1985e-18
3.19899e-18
3.19966e-18
3.20049e-18
3.20148e-18
3.20264e-18
3.20396e-18
3.20543e-18
3.20707e-18
3.20885e-18
3.21076e-18
3.21281e-18
3.21496e-18
3.21721e-18
3.21953e-18
3.2219e-18
3.22428e-18
3.22664e-18
3.22892e-18
3.23107e-18
3.233e-18
3.23458e-18
3.23559e-18
3.23569e-18
3.23426e-18
3.23038e-18
3.22285e-18
3.23326e-18
1.26456e-17
1.26136e-17
1.26405e-17
1.26543e-17
1.26594e-17
1.26591e-17
1.26555e-17
1.265e-17
1.26432e-17
1.26357e-17
1.26277e-17
1.26194e-17
1.26111e-17
1.26028e-17
1.25947e-17
1.25868e-17
1.25793e-17
1.25721e-17
1.25654e-17
1.25592e-17
1.25535e-17
1.25483e-17
1.25437e-17
1.25397e-17
1.25362e-17
1.25333e-17
1.2531e-17
1.25292e-17
1.25281e-17
1.25275e-17
1.25275e-17
1.25281e-17
1.25292e-17
1.2531e-17
1.25333e-17
1.25362e-17
1.25397e-17
1.25437e-17
1.25483e-17
1.25535e-17
1.25592e-17
1.25654e-17
1.25721e-17
1.25793e-17
1.25868e-17
1.25947e-17
1.26028e-17
1.26111e-17
1.26194e-17
1.26277e-17
1.26357e-17
1.26432e-17
1.265e-17
1.26555e-17
1.26591e-17
1.26594e-17
1.26543e-17
1.26405e-17
1.26136e-17
1.26456e-17
5.22163e-17
5.21282e-17
5.22284e-17
5.228e-17
5.22995e-17
5.22994e-17
5.22873e-17
5.22681e-17
5.22444e-17
5.2218e-17
5.219e-17
5.21611e-17
5.21319e-17
5.2103e-17
5.20745e-17
5.2047e-17
5.20207e-17
5.19957e-17
5.19723e-17
5.19506e-17
5.19307e-17
5.19127e-17
5.18966e-17
5.18825e-17
5.18704e-17
5.18603e-17
5.18522e-17
5.18461e-17
5.18421e-17
5.18401e-17
5.18401e-17
5.18421e-17
5.18461e-17
5.18522e-17
5.18603e-17
5.18704e-17
5.18825e-17
5.18966e-17
5.19127e-17
5.19307e-17
5.19506e-17
5.19723e-17
5.19957e-17
5.20207e-17
5.2047e-17
5.20745e-17
5.2103e-17
5.21319e-17
5.21611e-17
5.219e-17
5.2218e-17
5.22444e-17
5.22681e-17
5.22873e-17
5.22994e-17
5.22995e-17
5.228e-17
5.22284e-17
5.21282e-17
5.22163e-17
2.31872e-16
2.31712e-16
2.32116e-16
2.32328e-16
2.32414e-16
2.32423e-16
2.32385e-16
2.32321e-16
2.32239e-16
2.32147e-16
2.32049e-16
2.31949e-16
2.31847e-16
2.31746e-16
2.31647e-16
2.31551e-16
2.31459e-16
2.31373e-16
2.31291e-16
2.31216e-16
2.31147e-16
2.31084e-16
2.31028e-16
2.30979e-16
2.30937e-16
2.30902e-16
2.30874e-16
2.30853e-16
2.30839e-16
2.30832e-16
2.30832e-16
2.30839e-16
2.30853e-16
2.30874e-16
2.30902e-16
2.30937e-16
2.30979e-16
2.31028e-16
2.31084e-16
2.31147e-16
2.31216e-16
2.31291e-16
2.31373e-16
2.31459e-16
2.31551e-16
2.31647e-16
2.31746e-16
2.31847e-16
2.31949e-16
2.32049e-16
2.32147e-16
2.32239e-16
2.32321e-16
2.32385e-16
2.32423e-16
2.32414e-16
2.32328e-16
2.32116e-16
2.31712e-16
2.31872e-16
1.12319e-15
1.12362e-15
1.12548e-15
1.1265e-15
1.12695e-15
1.12707e-15
1.12699e-15
1.12678e-15
1.12651e-15
1.1262e-15
1.12586e-15
1.12551e-15
1.12516e-15
1.12481e-15
1.12447e-15
1.12414e-15
1.12382e-15
1.12352e-15
1.12324e-15
1.12298e-15
1.12274e-15
1.12253e-15
1.12233e-15
1.12217e-15
1.12202e-15
1.1219e-15
1.12181e-15
1.12173e-15
1.12169e-15
1.12166e-15
1.12166e-15
1.12169e-15
1.12173e-15
1.12181e-15
1.1219e-15
1.12202e-15
1.12217e-15
1.12233e-15
1.12253e-15
1.12274e-15
1.12298e-15
1.12324e-15
1.12352e-15
1.12382e-15
1.12414e-15
1.12447e-15
1.12481e-15
1.12516e-15
1.12551e-15
1.12586e-15
1.1262e-15
1.12651e-15
1.12678e-15
1.12699e-15
1.12707e-15
1.12695e-15
1.1265e-15
1.12548e-15
1.12362e-15
1.12319e-15
5.95753e-15
5.96607e-15
5.9763e-15
5.98209e-15
5.985e-15
5.98615e-15
5.98626e-15
5.98578e-15
5.98495e-15
5.98393e-15
5.9828e-15
5.98162e-15
5.98042e-15
5.97922e-15
5.97805e-15
5.97693e-15
5.97585e-15
5.97483e-15
5.97388e-15
5.973e-15
5.97219e-15
5.97147e-15
5.97082e-15
5.97025e-15
5.96976e-15
5.96936e-15
5.96903e-15
5.96879e-15
5.96863e-15
5.96855e-15
5.96855e-15
5.96863e-15
5.96879e-15
5.96903e-15
5.96936e-15
5.96976e-15
5.97025e-15
5.97082e-15
5.97147e-15
5.97219e-15
5.973e-15
5.97388e-15
5.97483e-15
5.97585e-15
5.97693e-15
5.97805e-15
5.97922e-15
5.98042e-15
5.98162e-15
5.9828e-15
5.98393e-15
5.98495e-15
5.98578e-15
5.98626e-15
5.98615e-15
5.985e-15
5.98209e-15
5.9763e-15
5.96607e-15
5.95753e-15
3.43072e-14
3.43887e-14
3.44542e-14
3.44926e-14
3.45134e-14
3.45235e-14
3.45273e-14
3.45275e-14
3.45257e-14
3.45227e-14
3.45192e-14
3.45154e-14
3.45114e-14
3.45075e-14
3.45037e-14
3.44999e-14
3.44964e-14
3.44931e-14
3.44899e-14
3.44871e-14
3.44845e-14
3.44821e-14
3.448e-14
3.44782e-14
3.44766e-14
3.44753e-14
3.44742e-14
3.44735e-14
3.44729e-14
3.44727e-14
3.44727e-14
3.44729e-14
3.44735e-14
3.44742e-14
3.44753e-14
3.44766e-14
3.44782e-14
3.448e-14
3.44821e-14
3.44845e-14
3.44871e-14
3.44899e-14
3.44931e-14
3.44964e-14
3.44999e-14
3.45037e-14
3.45075e-14
3.45114e-14
3.45154e-14
3.45192e-14
3.45227e-14
3.45257e-14
3.45275e-14
3.45273e-14
3.45235e-14
3.45134e-14
3.44926e-14
3.44542e-14
3.43887e-14
3.43072e-14
2.10904e-13
2.11575e-13
2.12037e-13
2.12316e-13
2.12475e-13
2.12559e-13
2.12599e-13
2.12615e-13
2.12618e-13
2.12613e-13
2.12604e-13
2.12593e-13
2.12581e-13
2.12569e-13
2.12558e-13
2.12546e-13
2.12536e-13
2.12526e-13
2.12516e-13
2.12508e-13
2.125e-13
2.12493e-13
2.12487e-13
2.12482e-13
2.12477e-13
2.12473e-13
2.1247e-13
2.12468e-13
2.12466e-13
2.12466e-13
2.12466e-13
2.12466e-13
2.12468e-13
2.1247e-13
2.12473e-13
2.12477e-13
2.12482e-13
2.12487e-13
2.12493e-13
2.125e-13
2.12508e-13
2.12516e-13
2.12526e-13
2.12536e-13
2.12546e-13
2.12558e-13
2.12569e-13
2.12581e-13
2.12593e-13
2.12604e-13
2.12613e-13
2.12618e-13
2.12615e-13
2.12599e-13
2.12559e-13
2.12475e-13
2.12316e-13
2.12037e-13
2.11575e-13
2.10904e-13
1.35778e-12
1.36302e-12
1.36646e-12
1.36856e-12
1.36979e-12
1.37047e-12
1.37083e-12
1.371e-12
1.37108e-12
1.37111e-12
1.3711e-12
1.37109e-12
1.37106e-12
1.37103e-12
1.371e-12
1.37098e-12
1.37095e-12
1.37093e-12
1.37091e-12
1.37089e-12
1.37087e-12
1.37085e-12
1.37084e-12
1.37083e-12
1.37082e-12
1.37081e-12
1.37081e-12
1.3708e-12
1.3708e-12
1.3708e-12
1.3708e-12
1.3708e-12
1.3708e-12
1.37081e-12
1.37081e-12
1.37082e-12
1.37083e-12
1.37084e-12
1.37085e-12
1.37087e-12
1.37089e-12
1.37091e-12
1.37093e-12
1.37095e-12
1.37098e-12
1.371e-12
1.37103e-12
1.37106e-12
1.37109e-12
1.3711e-12
1.37111e-12
1.37108e-12
1.371e-12
1.37083e-12
1.37047e-12
1.36979e-12
1.36856e-12
1.36646e-12
1.36302e-12
1.35778e-12
8.99323e-12
9.03313e-12
9.05908e-12
9.07514e-12
9.08457e-12
9.08991e-12
9.09285e-12
9.09442e-12
9.09525e-12
9.09566e-12
9.09586e-12
9.09595e-12
9.09598e-12
9.09599e-12
9.09599e-12
9.09598e-12
9.09598e-12
9.09597e-12
9.09598e-12
9.09598e-12
9.09599e-12
9.096e-12
9.09601e-12
9.09602e-12
9.09603e-12
9.09604e-12
9.09605e-12
9.09606e-12
9.09607e-12
9.09607e-12
9.09607e-12
9.09607e-12
9.09606e-12
9.09605e-12
9.09604e-12
9.09603e-12
9.09602e-12
9.09601e-12
9.096e-12
9.09599e-12
9.09598e-12
9.09598e-12
9.09597e-12
9.09598e-12
9.09598e-12
9.09599e-12
9.09599e-12
9.09598e-12
9.09595e-12
9.09586e-12
9.09566e-12
9.09525e-12
9.09442e-12
9.09285e-12
9.08991e-12
9.08457e-12
9.07514e-12
9.05908e-12
9.03313e-12
8.99323e-12
6.03464e-11
6.06443e-11
6.08392e-11
6.09605e-11
6.10322e-11
6.10732e-11
6.10961e-11
6.11088e-11
6.11158e-11
6.11198e-11
6.11221e-11
6.11235e-11
6.11245e-11
6.11253e-11
6.1126e-11
6.11266e-11
6.11271e-11
6.11277e-11
6.11282e-11
6.11287e-11
6.11292e-11
6.11297e-11
6.11301e-11
6.11305e-11
6.11309e-11
6.11312e-11
6.11314e-11
6.11316e-11
6.11317e-11
6.11318e-11
6.11318e-11
6.11317e-11
6.11316e-11
6.11314e-11
6.11312e-11
6.11309e-11
6.11305e-11
6.11301e-11
6.11297e-11
6.11292e-11
6.11287e-11
6.11282e-11
6.11277e-11
6.11271e-11
6.11266e-11
6.1126e-11
6.11253e-11
6.11245e-11
6.11235e-11
6.11221e-11
6.11198e-11
6.11158e-11
6.11088e-11
6.10961e-11
6.10732e-11
6.10322e-11
6.09605e-11
6.08392e-11
6.06443e-11
6.03464e-11
4.0464e-10
4.06812e-10
4.08247e-10
4.09144e-10
4.09676e-10
4.09981e-10
4.10154e-10
4.1025e-10
4.10305e-10
4.10337e-10
4.10357e-10
4.1037e-10
4.1038e-10
4.10388e-10
4.10395e-10
4.10401e-10
4.10407e-10
4.10413e-10
4.10418e-10
4.10424e-10
4.10428e-10
4.10433e-10
4.10437e-10
4.10441e-10
4.10444e-10
4.10447e-10
4.10449e-10
4.10451e-10
4.10452e-10
4.10452e-10
4.10452e-10
4.10452e-10
4.10451e-10
4.10449e-10
4.10447e-10
4.10444e-10
4.10441e-10
4.10437e-10
4.10433e-10
4.10428e-10
4.10424e-10
4.10418e-10
4.10413e-10
4.10407e-10
4.10401e-10
4.10395e-10
4.10388e-10
4.1038e-10
4.1037e-10
4.10357e-10
4.10337e-10
4.10305e-10
4.1025e-10
4.10154e-10
4.09981e-10
4.09676e-10
4.09144e-10
4.08247e-10
4.06812e-10
4.0464e-10
2.67608e-09
2.69143e-09
2.70167e-09
2.70808e-09
2.71189e-09
2.71408e-09
2.71533e-09
2.71603e-09
2.71643e-09
2.71667e-09
2.71682e-09
2.71692e-09
2.717e-09
2.71706e-09
2.71712e-09
2.71717e-09
2.71722e-09
2.71726e-09
2.7173e-09
2.71734e-09
2.71738e-09
2.71741e-09
2.71745e-09
2.71747e-09
2.7175e-09
2.71752e-09
2.71753e-09
2.71755e-09
2.71756e-09
2.71756e-09
2.71756e-09
2.71756e-09
2.71755e-09
2.71753e-09
2.71752e-09
2.7175e-09
2.71747e-09
2.71745e-09
2.71741e-09
2.71738e-09
2.71734e-09
2.7173e-09
2.71726e-09
2.71722e-09
2.71717e-09
2.71712e-09
2.71706e-09
2.717e-09
2.71692e-09
2.71682e-09
2.71667e-09
2.71643e-09
2.71603e-09
2.71533e-09
2.71408e-09
2.71189e-09
2.70808e-09
2.70167e-09
2.69143e-09
2.67608e-09
1.72287e-08
1.73327e-08
1.74026e-08
1.74464e-08
1.74725e-08
1.74875e-08
1.74961e-08
1.75009e-08
1.75037e-08
1.75054e-08
1.75064e-08
1.75072e-08
1.75077e-08
1.75081e-08
1.75085e-08
1.75089e-08
1.75092e-08
1.75095e-08
1.75098e-08
1.75101e-08
1.75103e-08
1.75106e-08
1.75108e-08
1.7511e-08
1.75111e-08
1.75113e-08
1.75114e-08
1.75115e-08
1.75115e-08
1.75116e-08
1.75116e-08
1.75115e-08
1.75115e-08
1.75114e-08
1.75113e-08
1.75111e-08
1.7511e-08
1.75108e-08
1.75106e-08
1.75103e-08
1.75101e-08
1.75098e-08
1.75095e-08
1.75092e-08
1.75089e-08
1.75085e-08
1.75081e-08
1.75077e-08
1.75072e-08
1.75064e-08
1.75054e-08
1.75037e-08
1.75009e-08
1.74961e-08
1.74875e-08
1.74725e-08
1.74464e-08
1.74026e-08
1.73327e-08
1.72287e-08
1.06521e-07
1.07189e-07
1.0764e-07
1.07922e-07
1.08091e-07
1.08188e-07
1.08243e-07
1.08274e-07
1.08293e-07
1.08304e-07
1.0831e-07
1.08315e-07
1.08319e-07
1.08322e-07
1.08324e-07
1.08326e-07
1.08328e-07
1.0833e-07
1.08332e-07
1.08334e-07
1.08335e-07
1.08337e-07
1.08338e-07
1.08339e-07
1.0834e-07
1.08341e-07
1.08342e-07
1.08342e-07
1.08343e-07
1.08343e-07
1.08343e-07
1.08343e-07
1.08342e-07
1.08342e-07
1.08341e-07
1.0834e-07
1.08339e-07
1.08338e-07
1.08337e-07
1.08335e-07
1.08334e-07
1.08332e-07
1.0833e-07
1.08328e-07
1.08326e-07
1.08324e-07
1.08322e-07
1.08319e-07
1.08315e-07
1.0831e-07
1.08304e-07
1.08293e-07
1.08274e-07
1.08243e-07
1.08188e-07
1.08091e-07
1.07922e-07
1.0764e-07
1.07189e-07
1.06521e-07
6.2357e-07
6.27565e-07
6.30275e-07
6.31973e-07
6.32984e-07
6.33569e-07
6.33901e-07
6.34091e-07
6.34201e-07
6.34267e-07
6.34308e-07
6.34337e-07
6.34358e-07
6.34375e-07
6.34389e-07
6.34403e-07
6.34415e-07
6.34426e-07
6.34437e-07
6.34447e-07
6.34456e-07
6.34464e-07
6.34472e-07
6.34479e-07
6.34484e-07
6.34489e-07
6.34493e-07
6.34496e-07
6.34498e-07
6.34499e-07
6.34499e-07
6.34498e-07
6.34496e-07
6.34493e-07
6.34489e-07
6.34484e-07
6.34479e-07
6.34472e-07
6.34464e-07
6.34456e-07
6.34447e-07
6.34437e-07
6.34426e-07
6.34415e-07
6.34403e-07
6.34389e-07
6.34375e-07
6.34358e-07
6.34337e-07
6.34308e-07
6.34267e-07
6.34201e-07
6.34091e-07
6.33901e-07
6.33569e-07
6.32984e-07
6.31973e-07
6.30275e-07
6.27565e-07
6.2357e-07
3.40519e-06
3.42718e-06
3.44212e-06
3.45148e-06
3.45705e-06
3.46027e-06
3.46211e-06
3.46316e-06
3.46376e-06
3.46413e-06
3.46436e-06
3.46451e-06
3.46463e-06
3.46472e-06
3.4648e-06
3.46487e-06
3.46494e-06
3.465e-06
3.46505e-06
3.4651e-06
3.46515e-06
3.4652e-06
3.46524e-06
3.46527e-06
3.4653e-06
3.46533e-06
3.46535e-06
3.46537e-06
3.46538e-06
3.46538e-06
3.46538e-06
3.46538e-06
3.46537e-06
3.46535e-06
3.46533e-06
3.4653e-06
3.46527e-06
3.46524e-06
3.4652e-06
3.46515e-06
3.4651e-06
3.46505e-06
3.465e-06
3.46494e-06
3.46487e-06
3.4648e-06
3.46472e-06
3.46463e-06
3.46451e-06
3.46436e-06
3.46413e-06
3.46376e-06
3.46316e-06
3.46211e-06
3.46027e-06
3.45705e-06
3.45148e-06
3.44212e-06
3.42718e-06
3.40519e-06
1.7079e-05
1.71885e-05
1.72628e-05
1.73093e-05
1.7337e-05
1.73531e-05
1.73622e-05
1.73674e-05
1.73705e-05
1.73723e-05
1.73734e-05
1.73742e-05
1.73748e-05
1.73752e-05
1.73756e-05
1.73759e-05
1.73763e-05
1.73765e-05
1.73768e-05
1.73771e-05
1.73773e-05
1.73775e-05
1.73777e-05
1.73779e-05
1.7378e-05
1.73781e-05
1.73782e-05
1.73783e-05
1.73784e-05
1.73784e-05
1.73784e-05
1.73784e-05
1.73783e-05
1.73782e-05
1.73781e-05
1.7378e-05
1.73779e-05
1.73777e-05
1.73775e-05
1.73773e-05
1.73771e-05
1.73768e-05
1.73765e-05
1.73763e-05
1.73759e-05
1.73756e-05
1.73752e-05
1.73748e-05
1.73742e-05
1.73734e-05
1.73723e-05
1.73705e-05
1.73674e-05
1.73622e-05
1.73531e-05
1.7337e-05
1.73093e-05
1.72628e-05
1.71885e-05
1.7079e-05
7.74121e-05
7.78959e-05
7.82239e-05
7.84291e-05
7.85512e-05
7.86218e-05
7.86621e-05
7.86852e-05
7.86985e-05
7.87065e-05
7.87116e-05
7.8715e-05
7.87175e-05
7.87195e-05
7.87211e-05
7.87226e-05
7.87239e-05
7.87252e-05
7.87263e-05
7.87274e-05
7.87283e-05
7.87292e-05
7.873e-05
7.87308e-05
7.87314e-05
7.87319e-05
7.87323e-05
7.87326e-05
7.87328e-05
7.87329e-05
7.87329e-05
7.87328e-05
7.87326e-05
7.87323e-05
7.87319e-05
7.87314e-05
7.87308e-05
7.873e-05
7.87292e-05
7.87283e-05
7.87274e-05
7.87263e-05
7.87252e-05
7.87239e-05
7.87226e-05
7.87211e-05
7.87195e-05
7.87175e-05
7.8715e-05
7.87116e-05
7.87065e-05
7.86985e-05
7.86852e-05
7.86621e-05
7.86218e-05
7.85512e-05
7.84291e-05
7.82239e-05
7.78959e-05
7.74121e-05
0.000311761
0.000313623
0.000314882
0.000315668
0.000316136
0.000316406
0.000316561
0.000316649
0.000316701
0.000316731
0.000316751
0.000316764
0.000316773
0.000316781
0.000316787
0.000316793
0.000316798
0.000316802
0.000316806
0.00031681
0.000316814
0.000316817
0.00031682
0.000316823
0.000316825
0.000316827
0.000316828
0.00031683
0.00031683
0.000316831
0.000316831
0.00031683
0.00031683
0.000316828
0.000316827
0.000316825
0.000316823
0.00031682
0.000316817
0.000316814
0.00031681
0.000316806
0.000316802
0.000316798
0.000316793
0.000316787
0.000316781
0.000316773
0.000316764
0.000316751
0.000316731
0.000316701
0.000316649
0.000316561
0.000316406
0.000316136
0.000315668
0.000314882
0.000313623
0.000311761
0.00109625
0.00110235
0.00110646
0.00110903
0.00111055
0.00111143
0.00111194
0.00111223
0.00111239
0.00111249
0.00111256
0.0011126
0.00111263
0.00111265
0.00111268
0.00111269
0.00111271
0.00111272
0.00111274
0.00111275
0.00111276
0.00111277
0.00111278
0.00111279
0.00111279
0.0011128
0.00111281
0.00111281
0.00111281
0.00111281
0.00111281
0.00111281
0.00111281
0.00111281
0.0011128
0.00111279
0.00111279
0.00111278
0.00111277
0.00111276
0.00111275
0.00111274
0.00111272
0.00111271
0.00111269
0.00111268
0.00111265
0.00111263
0.0011126
0.00111256
0.00111249
0.00111239
0.00111223
0.00111194
0.00111143
0.00111055
0.00110903
0.00110646
0.00110235
0.00109625
0.00330894
0.00332564
0.00333681
0.00334377
0.00334791
0.00335031
0.00335168
0.00335247
0.00335292
0.00335319
0.00335337
0.00335348
0.00335356
0.00335363
0.00335368
0.00335373
0.00335377
0.00335381
0.00335384
0.00335388
0.00335391
0.00335393
0.00335396
0.00335398
0.003354
0.00335401
0.00335402
0.00335403
0.00335404
0.00335404
0.00335404
0.00335404
0.00335403
0.00335402
0.00335401
0.003354
0.00335398
0.00335396
0.00335393
0.00335391
0.00335388
0.00335384
0.00335381
0.00335377
0.00335373
0.00335368
0.00335363
0.00335356
0.00335348
0.00335337
0.00335319
0.00335292
0.00335247
0.00335168
0.00335031
0.00334791
0.00334377
0.00333681
0.00332564
0.00330894
0.00845776
0.00849513
0.00851998
0.00853544
0.00854464
0.00854997
0.00855302
0.00855477
0.00855579
0.00855639
0.00855677
0.00855703
0.00855721
0.00855735
0.00855747
0.00855757
0.00855766
0.00855774
0.00855782
0.00855789
0.00855795
0.00855801
0.00855806
0.00855811
0.00855815
0.00855818
0.00855821
0.00855823
0.00855824
0.00855825
0.00855825
0.00855824
0.00855823
0.00855821
0.00855818
0.00855815
0.00855811
0.00855806
0.00855801
0.00855795
0.00855789
0.00855782
0.00855774
0.00855766
0.00855757
0.00855747
0.00855735
0.00855721
0.00855703
0.00855677
0.00855639
0.00855579
0.00855477
0.00855302
0.00854997
0.00854464
0.00853544
0.00851998
0.00849513
0.00845776
0.0182098
0.0182779
0.0183229
0.0183508
0.0183674
0.0183771
0.0183826
0.0183858
0.0183876
0.0183887
0.0183894
0.0183899
0.0183902
0.0183905
0.0183907
0.0183908
0.018391
0.0183911
0.0183913
0.0183914
0.0183915
0.0183916
0.0183917
0.0183918
0.0183918
0.0183919
0.0183919
0.018392
0.018392
0.018392
0.018392
0.018392
0.018392
0.0183919
0.0183919
0.0183918
0.0183918
0.0183917
0.0183916
0.0183915
0.0183914
0.0183913
0.0183911
0.018391
0.0183908
0.0183907
0.0183905
0.0183902
0.0183899
0.0183894
0.0183887
0.0183876
0.0183858
0.0183826
0.0183771
0.0183674
0.0183508
0.0183229
0.0182779
0.0182098
0.0332846
0.0333873
0.0334546
0.0334964
0.0335213
0.0335357
0.033544
0.0335488
0.0335515
0.0335532
0.0335542
0.0335549
0.0335554
0.0335558
0.0335561
0.0335564
0.0335566
0.0335568
0.033557
0.0335572
0.0335573
0.0335575
0.0335576
0.0335577
0.0335578
0.0335579
0.0335579
0.033558
0.033558
0.033558
0.033558
0.033558
0.033558
0.0335579
0.0335579
0.0335578
0.0335577
0.0335576
0.0335575
0.0335573
0.0335572
0.033557
0.0335568
0.0335566
0.0335564
0.0335561
0.0335558
0.0335554
0.0335549
0.0335542
0.0335532
0.0335515
0.0335488
0.033544
0.0335357
0.0335213
0.0334964
0.0334546
0.0333873
0.0332846
0.0527824
0.0529157
0.0530023
0.053056
0.053088
0.0531066
0.0531173
0.0531235
0.0531271
0.0531292
0.0531306
0.0531315
0.0531321
0.0531326
0.053133
0.0531333
0.0531336
0.0531338
0.053134
0.0531343
0.0531345
0.0531346
0.0531348
0.0531349
0.053135
0.0531351
0.0531352
0.0531353
0.0531353
0.0531353
0.0531353
0.0531353
0.0531353
0.0531352
0.0531351
0.053135
0.0531349
0.0531348
0.0531346
0.0531345
0.0531343
0.053134
0.0531338
0.0531336
0.0531333
0.053133
0.0531326
0.0531321
0.0531315
0.0531306
0.0531292
0.0531271
0.0531235
0.0531173
0.0531066
0.053088
0.053056
0.0530023
0.0529157
0.0527824
0.0748463
0.0750025
0.0751034
0.0751659
0.0752032
0.075225
0.0752375
0.0752448
0.075249
0.0752515
0.0752531
0.0752541
0.0752549
0.0752554
0.0752558
0.0752562
0.0752565
0.0752568
0.0752571
0.0752573
0.0752575
0.0752577
0.0752579
0.075258
0.0752581
0.0752583
0.0752583
0.0752584
0.0752585
0.0752585
0.0752585
0.0752585
0.0752584
0.0752583
0.0752583
0.0752581
0.075258
0.0752579
0.0752577
0.0752575
0.0752573
0.0752571
0.0752568
0.0752565
0.0752562
0.0752558
0.0752554
0.0752549
0.0752541
0.0752531
0.0752515
0.075249
0.0752448
0.0752375
0.075225
0.0752032
0.0751659
0.0751034
0.0750025
0.0748463
0.0978559
0.0980294
0.0981409
0.0982099
0.0982512
0.0982753
0.0982893
0.0982973
0.0983021
0.0983049
0.0983066
0.0983078
0.0983086
0.0983092
0.0983097
0.09831
0.0983104
0.0983107
0.098311
0.0983112
0.0983114
0.0983116
0.0983118
0.098312
0.0983121
0.0983122
0.0983123
0.0983124
0.0983124
0.0983124
0.0983124
0.0983124
0.0983124
0.0983123
0.0983122
0.0983121
0.098312
0.0983118
0.0983116
0.0983114
0.0983112
0.098311
0.0983107
0.0983104
0.09831
0.0983097
0.0983092
0.0983086
0.0983078
0.0983066
0.0983049
0.0983021
0.0982973
0.0982893
0.0982753
0.0982512
0.0982099
0.0981409
0.0980294
0.0978559
0.120955
0.121143
0.121263
0.121338
0.121383
0.121409
0.121424
0.121433
0.121438
0.121441
0.121443
0.121444
0.121445
0.121446
0.121446
0.121447
0.121447
0.121447
0.121448
0.121448
0.121448
0.121448
0.121449
0.121449
0.121449
0.121449
0.121449
0.121449
0.121449
0.121449
0.121449
0.121449
0.121449
0.121449
0.121449
0.121449
0.121449
0.121449
0.121448
0.121448
0.121448
0.121448
0.121447
0.121447
0.121447
0.121446
0.121446
0.121445
0.121444
0.121443
0.121441
0.121438
0.121433
0.121424
0.121409
0.121383
0.121338
0.121263
0.121143
0.120955
0.143872
0.144073
0.144202
0.144282
0.14433
0.144358
0.144375
0.144384
0.14439
0.144393
0.144395
0.144397
0.144398
0.144398
0.144399
0.144399
0.1444
0.1444
0.1444
0.1444
0.144401
0.144401
0.144401
0.144401
0.144401
0.144401
0.144402
0.144402
0.144402
0.144402
0.144402
0.144402
0.144402
0.144402
0.144401
0.144401
0.144401
0.144401
0.144401
0.144401
0.1444
0.1444
0.1444
0.1444
0.144399
0.144399
0.144398
0.144398
0.144397
0.144395
0.144393
0.14439
0.144384
0.144375
0.144358
0.14433
0.144282
0.144202
0.144073
0.143872
0.166586
0.1668
0.166937
0.167022
0.167074
0.167104
0.167122
0.167132
0.167138
0.167142
0.167144
0.167146
0.167147
0.167147
0.167148
0.167148
0.167149
0.167149
0.167149
0.16715
0.16715
0.16715
0.16715
0.16715
0.167151
0.167151
0.167151
0.167151
0.167151
0.167151
0.167151
0.167151
0.167151
0.167151
0.167151
0.167151
0.16715
0.16715
0.16715
0.16715
0.16715
0.167149
0.167149
0.167149
0.167148
0.167148
0.167147
0.167147
0.167146
0.167144
0.167142
0.167138
0.167132
0.167122
0.167104
0.167074
0.167022
0.166937
0.1668
0.166586
0.189129
0.189356
0.189502
0.189592
0.189647
0.18968
0.189699
0.18971
0.189717
0.189721
0.189723
0.189725
0.189726
0.189726
0.189727
0.189728
0.189728
0.189728
0.189729
0.189729
0.189729
0.189729
0.189729
0.18973
0.18973
0.18973
0.18973
0.18973
0.18973
0.18973
0.18973
0.18973
0.18973
0.18973
0.18973
0.18973
0.18973
0.189729
0.189729
0.189729
0.189729
0.189729
0.189728
0.189728
0.189728
0.189727
0.189726
0.189726
0.189725
0.189723
0.189721
0.189717
0.18971
0.189699
0.18968
0.189647
0.189592
0.189502
0.189356
0.189129
0.211524
0.211763
0.211917
0.212013
0.212071
0.212106
0.212127
0.212139
0.212146
0.21215
0.212153
0.212155
0.212156
0.212157
0.212157
0.212158
0.212158
0.212158
0.212159
0.212159
0.212159
0.212159
0.21216
0.21216
0.21216
0.21216
0.21216
0.21216
0.21216
0.21216
0.21216
0.21216
0.21216
0.21216
0.21216
0.21216
0.21216
0.21216
0.212159
0.212159
0.212159
0.212159
0.212158
0.212158
0.212158
0.212157
0.212157
0.212156
0.212155
0.212153
0.21215
0.212146
0.212139
0.212127
0.212106
0.212071
0.212013
0.211917
0.211763
0.211524
0.233773
0.234023
0.234185
0.234287
0.234349
0.234386
0.234408
0.234421
0.234428
0.234433
0.234436
0.234438
0.234439
0.23444
0.234441
0.234441
0.234441
0.234442
0.234442
0.234442
0.234443
0.234443
0.234443
0.234443
0.234443
0.234443
0.234444
0.234444
0.234444
0.234444
0.234444
0.234444
0.234444
0.234444
0.234443
0.234443
0.234443
0.234443
0.234443
0.234443
0.234442
0.234442
0.234442
0.234441
0.234441
0.234441
0.23444
0.234439
0.234438
0.234436
0.234433
0.234428
0.234421
0.234408
0.234386
0.234349
0.234287
0.234185
0.234023
0.233773
0.255866
0.256127
0.256296
0.256403
0.256469
0.256508
0.256532
0.256546
0.256554
0.256559
0.256562
0.256564
0.256565
0.256566
0.256567
0.256568
0.256568
0.256568
0.256569
0.256569
0.256569
0.256569
0.25657
0.25657
0.25657
0.25657
0.25657
0.25657
0.25657
0.25657
0.25657
0.25657
0.25657
0.25657
0.25657
0.25657
0.25657
0.25657
0.256569
0.256569
0.256569
0.256569
0.256568
0.256568
0.256568
0.256567
0.256566
0.256565
0.256564
0.256562
0.256559
0.256554
0.256546
0.256532
0.256508
0.256469
0.256403
0.256296
0.256127
0.255866
0.277786
0.278057
0.278234
0.278347
0.278416
0.278458
0.278483
0.278498
0.278507
0.278512
0.278515
0.278518
0.278519
0.27852
0.278521
0.278521
0.278522
0.278522
0.278522
0.278523
0.278523
0.278523
0.278523
0.278523
0.278524
0.278524
0.278524
0.278524
0.278524
0.278524
0.278524
0.278524
0.278524
0.278524
0.278524
0.278524
0.278523
0.278523
0.278523
0.278523
0.278523
0.278522
0.278522
0.278522
0.278521
0.278521
0.27852
0.278519
0.278518
0.278515
0.278512
0.278507
0.278498
0.278483
0.278458
0.278416
0.278347
0.278234
0.278057
0.277786
0.299516
0.299797
0.299981
0.300098
0.300171
0.300215
0.300242
0.300258
0.300267
0.300273
0.300277
0.300279
0.300281
0.300282
0.300283
0.300283
0.300284
0.300284
0.300284
0.300285
0.300285
0.300285
0.300285
0.300285
0.300285
0.300286
0.300286
0.300286
0.300286
0.300286
0.300286
0.300286
0.300286
0.300286
0.300286
0.300285
0.300285
0.300285
0.300285
0.300285
0.300285
0.300284
0.300284
0.300284
0.300283
0.300283
0.300282
0.300281
0.300279
0.300277
0.300273
0.300267
0.300258
0.300242
0.300215
0.300171
0.300098
0.299981
0.299797
0.299516
0.321035
0.321324
0.321516
0.321638
0.321715
0.321761
0.32179
0.321807
0.321817
0.321823
0.321827
0.32183
0.321831
0.321832
0.321833
0.321834
0.321834
0.321834
0.321835
0.321835
0.321835
0.321836
0.321836
0.321836
0.321836
0.321836
0.321836
0.321836
0.321836
0.321836
0.321836
0.321836
0.321836
0.321836
0.321836
0.321836
0.321836
0.321836
0.321836
0.321835
0.321835
0.321835
0.321834
0.321834
0.321834
0.321833
0.321832
0.321831
0.32183
0.321827
0.321823
0.321817
0.321807
0.32179
0.321761
0.321715
0.321638
0.321516
0.321324
0.321035
0.342325
0.342622
0.342819
0.342947
0.343027
0.343076
0.343106
0.343124
0.343135
0.343142
0.343146
0.343149
0.343151
0.343152
0.343153
0.343153
0.343154
0.343154
0.343154
0.343155
0.343155
0.343155
0.343155
0.343155
0.343156
0.343156
0.343156
0.343156
0.343156
0.343156
0.343156
0.343156
0.343156
0.343156
0.343156
0.343156
0.343155
0.343155
0.343155
0.343155
0.343155
0.343154
0.343154
0.343154
0.343153
0.343153
0.343152
0.343151
0.343149
0.343146
0.343142
0.343135
0.343124
0.343106
0.343076
0.343027
0.342947
0.342819
0.342622
0.342325
0.363365
0.363669
0.363873
0.364005
0.364089
0.364141
0.364172
0.364192
0.364203
0.364211
0.364215
0.364218
0.36422
0.364221
0.364222
0.364223
0.364223
0.364224
0.364224
0.364224
0.364224
0.364225
0.364225
0.364225
0.364225
0.364225
0.364225
0.364225
0.364225
0.364225
0.364225
0.364225
0.364225
0.364225
0.364225
0.364225
0.364225
0.364225
0.364225
0.364224
0.364224
0.364224
0.364224
0.364223
0.364223
0.364222
0.364221
0.36422
0.364218
0.364215
0.364211
0.364203
0.364192
0.364172
0.364141
0.364089
0.364005
0.363873
0.363669
0.363365
0.384138
0.384449
0.384658
0.384795
0.384882
0.384937
0.38497
0.38499
0.385003
0.385011
0.385016
0.385019
0.385021
0.385022
0.385023
0.385024
0.385024
0.385024
0.385025
0.385025
0.385025
0.385025
0.385026
0.385026
0.385026
0.385026
0.385026
0.385026
0.385026
0.385026
0.385026
0.385026
0.385026
0.385026
0.385026
0.385026
0.385026
0.385026
0.385025
0.385025
0.385025
0.385025
0.385024
0.385024
0.385024
0.385023
0.385022
0.385021
0.385019
0.385016
0.385011
0.385003
0.38499
0.38497
0.384937
0.384882
0.384795
0.384658
0.384449
0.384138
0.404626
0.404942
0.405158
0.405299
0.40539
0.405447
0.405482
0.405503
0.405517
0.405525
0.40553
0.405533
0.405535
0.405537
0.405538
0.405539
0.405539
0.40554
0.40554
0.40554
0.40554
0.40554
0.405541
0.405541
0.405541
0.405541
0.405541
0.405541
0.405541
0.405541
0.405541
0.405541
0.405541
0.405541
0.405541
0.405541
0.405541
0.405541
0.40554
0.40554
0.40554
0.40554
0.40554
0.405539
0.405539
0.405538
0.405537
0.405535
0.405533
0.40553
0.405525
0.405517
0.405503
0.405482
0.405447
0.40539
0.405299
0.405158
0.404942
0.404626
0.424813
0.425134
0.425355
0.425501
0.425595
0.425654
0.425691
0.425714
0.425728
0.425737
0.425742
0.425746
0.425748
0.425749
0.42575
0.425751
0.425752
0.425752
0.425752
0.425753
0.425753
0.425753
0.425753
0.425753
0.425754
0.425754
0.425754
0.425754
0.425754
0.425754
0.425754
0.425754
0.425754
0.425754
0.425754
0.425754
0.425753
0.425753
0.425753
0.425753