/*--------------------------------*- C++ -*----------------------------------*\
| =========                 |                                                 |
| \\      /  F ield         | foam-extend: Open Source CFD                    |
|  \\    /   O peration     | Version:     4.0                                |
|   \\  /    A nd           | Web:         http://www.foam-extend.org         |
|    \\/     M anipulation  |                                                 |
\*---------------------------------------------------------------------------*/
FoamFile
{
    version     2.0;
    format      ascii;
    class       volVectorField;
    location    "10";
    object      U;
}
// * * * * * * * * * * * * * * * * * * * * * * * * * * * * * * * * * * * * * //

dimensions      [0 1 -1 0 0 0 0];

internalField   nonuniform List<vector> 
6960
(
(-1.96662e-27 -5.23816e-26 0)
(-1.53249e-27 -1.21895e-29 0)
(1.82637e-28 1.85447e-29 0)
(-1.07121e-28 2.51596e-29 0)
(4.09827e-29 2.52332e-29 0)
(-3.78028e-29 2.29214e-29 0)
(2.78896e-29 1.80272e-29 0)
(-4.34708e-30 1.21969e-29 0)
(1.03162e-29 8.74075e-30 0)
(-1.61168e-29 8.00097e-30 0)
(-1.44767e-29 9.27899e-30 0)
(-2.47813e-29 1.10464e-29 0)
(-1.71537e-29 1.33855e-29 0)
(-1.55802e-29 1.64552e-29 0)
(-7.78583e-30 1.77085e-29 0)
(-4.666e-30 1.43492e-29 0)
(-6.50377e-31 8.50579e-30 0)
(-1.71058e-31 6.08129e-30 0)
(1.40983e-31 1.02156e-29 0)
(-8.23418e-31 1.72513e-29 0)
(-8.5797e-31 1.9798e-29 0)
(-5.73066e-31 1.54259e-29 0)
(5.94642e-31 9.7846e-30 0)
(1.73789e-30 9.51546e-30 0)
(2.65676e-30 1.49281e-29 0)
(2.796e-30 2.10857e-29 0)
(2.24203e-30 2.41699e-29 0)
(1.176e-30 2.46716e-29 0)
(1.88776e-31 2.54809e-29 0)
(-6.10233e-31 2.8034e-29 0)
(-1.52951e-30 3.04553e-29 0)
(-2.25077e-30 3.10379e-29 0)
(-2.44157e-30 2.99182e-29 0)
(-2.45966e-30 2.69467e-29 0)
(-2.27149e-30 2.1799e-29 0)
(-1.9518e-30 1.51687e-29 0)
(-1.66213e-30 1.07313e-29 0)
(-1.55973e-30 1.25511e-29 0)
(-1.49668e-30 1.86691e-29 0)
(-1.24244e-30 2.34987e-29 0)
(-9.50614e-31 2.40481e-29 0)
(-8.96247e-31 2.11129e-29 0)
(-1.00232e-30 1.77654e-29 0)
(-1.25148e-30 1.67955e-29 0)
(-1.65704e-30 1.75759e-29 0)
(-1.72892e-30 1.78107e-29 0)
(-1.40014e-30 1.77211e-29 0)
(-8.4038e-31 1.94878e-29 0)
(-3.95324e-31 2.35057e-29 0)
(1.95667e-31 2.71186e-29 0)
(5.87049e-31 2.6776e-29 0)
(7.04493e-31 2.21395e-29 0)
(4.26139e-31 1.63643e-29 0)
(4.49578e-31 1.39162e-29 0)
(4.24709e-31 1.52652e-29 0)
(6.8237e-31 1.7831e-29 0)
(6.15947e-31 1.77663e-29 0)
(7.15979e-31 1.42882e-29 0)
(6.03009e-31 7.80552e-30 0)
(4.69347e-31 3.89934e-30 0)
(-4.18819e-27 -1.09101e-25 0)
(-2.95631e-27 4.18586e-29 0)
(4.9429e-28 1.22704e-28 0)
(-3.19625e-28 1.5513e-28 0)
(1.17829e-28 1.5645e-28 0)
(-1.09714e-28 1.57823e-28 0)
(7.81814e-29 1.48059e-28 0)
(-1.82397e-29 1.31206e-28 0)
(2.36439e-29 1.17785e-28 0)
(-5.17952e-29 1.14889e-28 0)
(-4.38749e-29 1.21802e-28 0)
(-7.11054e-29 1.32313e-28 0)
(-4.73333e-29 1.41245e-28 0)
(-4.23072e-29 1.47296e-28 0)
(-2.0321e-29 1.46754e-28 0)
(-1.23891e-29 1.35831e-28 0)
(-1.65436e-30 1.20276e-28 0)
(-6.29246e-31 1.13616e-28 0)
(4.2978e-31 1.23856e-28 0)
(-2.14368e-30 1.43734e-28 0)
(-2.19327e-30 1.55707e-28 0)
(-1.3661e-30 1.5052e-28 0)
(2.07671e-30 1.36407e-28 0)
(5.29277e-30 1.28505e-28 0)
(7.47965e-30 1.33688e-28 0)
(7.1589e-30 1.46859e-28 0)
(4.97793e-30 1.59089e-28 0)
(1.76878e-30 1.65958e-28 0)
(-7.87733e-31 1.69473e-28 0)
(-2.65654e-30 1.7347e-28 0)
(-4.99072e-30 1.77907e-28 0)
(-6.95271e-30 1.81227e-28 0)
(-7.50355e-30 1.81159e-28 0)
(-7.55234e-30 1.73786e-28 0)
(-6.94175e-30 1.58623e-28 0)
(-5.84132e-30 1.41014e-28 0)
(-4.65268e-30 1.31426e-28 0)
(-4.04208e-30 1.36804e-28 0)
(-3.88957e-30 1.50056e-28 0)
(-3.51016e-30 1.5864e-28 0)
(-3.08658e-30 1.57559e-28 0)
(-3.18135e-30 1.50409e-28 0)
(-3.47771e-30 1.44229e-28 0)
(-4.04981e-30 1.4349e-28 0)
(-5.18249e-30 1.45732e-28 0)
(-5.46113e-30 1.46284e-28 0)
(-4.51849e-30 1.46479e-28 0)
(-2.83955e-30 1.51276e-28 0)
(-1.56729e-30 1.60563e-28 0)
(-4.23515e-32 1.67812e-28 0)
(8.1396e-31 1.65999e-28 0)
(1.08094e-30 1.55468e-28 0)
(4.29843e-31 1.425e-28 0)
(8.4741e-31 1.34723e-28 0)
(9.94703e-31 1.33366e-28 0)
(1.75587e-30 1.35138e-28 0)
(1.45473e-30 1.33478e-28 0)
(1.72591e-30 1.25567e-28 0)
(1.40849e-30 1.11769e-28 0)
(1.42055e-30 1.00338e-28 0)
(-6.21257e-27 -1.06839e-25 0)
(-4.24215e-27 -1.27889e-28 0)
(7.5692e-28 -1.07588e-30 0)
(-5.33235e-28 8.67005e-29 0)
(1.9026e-28 8.81843e-29 0)
(-1.79584e-28 1.0127e-28 0)
(1.23234e-28 8.87266e-29 0)
(-3.75804e-29 6.0226e-29 0)
(3.05513e-29 3.43906e-29 0)
(-9.02786e-29 3.08432e-29 0)
(-7.31161e-29 4.71671e-29 0)
(-1.14383e-28 7.33176e-29 0)
(-7.41374e-29 9.28989e-29 0)
(-6.58826e-29 9.98689e-29 0)
(-3.09505e-29 9.27926e-29 0)
(-1.92725e-29 7.23347e-29 0)
(-2.71e-30 4.75215e-29 0)
(-1.34223e-30 3.42517e-29 0)
(7.68398e-31 4.39169e-29 0)
(-2.86202e-30 7.21136e-29 0)
(-2.68961e-30 9.90753e-29 0)
(-1.56341e-30 1.06448e-28 0)
(3.51942e-30 9.12948e-29 0)
(8.18043e-30 6.76129e-29 0)
(1.12711e-29 5.5126e-29 0)
(1.03903e-29 6.3064e-29 0)
(6.56146e-30 8.43746e-29 0)
(1.20302e-30 1.04463e-28 0)
(-2.84735e-30 1.14884e-28 0)
(-5.50787e-30 1.18339e-28 0)
(-8.82512e-30 1.21776e-28 0)
(-1.17558e-29 1.28389e-28 0)
(-1.27132e-29 1.3213e-28 0)
(-1.29263e-29 1.23686e-28 0)
(-1.1856e-29 1.03499e-28 0)
(-9.74746e-30 8.24358e-29 0)
(-7.43855e-30 7.25025e-29 0)
(-6.31322e-30 7.57437e-29 0)
(-6.28713e-30 8.24891e-29 0)
(-6.05591e-30 8.35064e-29 0)
(-5.64816e-30 7.79279e-29 0)
(-5.85905e-30 7.14324e-29 0)
(-6.23388e-30 6.95206e-29 0)
(-7.02655e-30 7.26923e-29 0)
(-8.83189e-30 7.74927e-29 0)
(-9.32014e-30 8.02927e-29 0)
(-7.79766e-30 8.25075e-29 0)
(-5.09285e-30 8.86074e-29 0)
(-3.14721e-30 9.82061e-29 0)
(-8.65649e-31 1.05269e-28 0)
(3.66856e-31 1.03966e-28 0)
(8.53677e-31 9.50271e-29 0)
(-1.17958e-31 8.20957e-29 0)
(7.2426e-31 6.90622e-29 0)
(1.06535e-30 5.89343e-29 0)
(2.40925e-30 5.3155e-29 0)
(1.984e-30 4.90424e-29 0)
(2.54672e-30 4.17736e-29 0)
(1.97699e-30 3.06164e-29 0)
(2.34327e-30 1.50553e-29 0)
(-8.30579e-27 -9.97522e-26 0)
(-5.65663e-27 -3.73175e-28 0)
(9.70621e-28 -1.75e-28 0)
(-7.47876e-28 -5.49897e-30 0)
(2.57244e-28 -1.33016e-29 0)
(-2.48328e-28 7.90394e-30 0)
(1.62854e-28 -9.93439e-30 0)
(-6.16606e-29 -4.16178e-29 0)
(3.22407e-29 -7.04669e-29 0)
(-1.30467e-28 -7.18695e-29 0)
(-1.01738e-28 -5.43212e-29 0)
(-1.54704e-28 -2.31129e-29 0)
(-9.80723e-29 2.90113e-30 0)
(-8.70177e-29 1.57219e-29 0)
(-4.03204e-29 1.09584e-29 0)
(-2.57259e-29 -1.16998e-29 0)
(-4.00857e-30 -4.25818e-29 0)
(-2.41898e-30 -6.36012e-29 0)
(1.0468e-30 -5.90499e-29 0)
(-3.0197e-30 -2.83749e-29 0)
(-2.25053e-30 9.02294e-30 0)
(-1.04211e-30 2.84782e-29 0)
(4.85666e-30 1.69291e-29 0)
(1.00926e-29 -1.60968e-29 0)
(1.3685e-29 -4.43758e-29 0)
(1.23789e-29 -4.75145e-29 0)
(7.21446e-30 -2.68291e-29 0)
(-1.15616e-31 1.25008e-32 0)
(-5.64754e-30 1.73271e-29 0)
(-9.01925e-30 2.32957e-29 0)
(-1.30503e-29 2.60519e-29 0)
(-1.67147e-29 3.19371e-29 0)
(-1.80265e-29 3.60834e-29 0)
(-1.8376e-29 3.01156e-29 0)
(-1.67351e-29 1.512e-29 0)
(-1.35476e-29 -4.95125e-31 0)
(-1.02663e-29 -1.06467e-29 0)
(-8.9194e-30 -1.72293e-29 0)
(-9.19734e-30 -2.47819e-29 0)
(-9.08427e-30 -3.30165e-29 0)
(-8.54401e-30 -3.89154e-29 0)
(-8.72969e-30 -3.92602e-29 0)
(-9.1419e-30 -3.3817e-29 0)
(-1.01404e-29 -2.608e-29 0)
(-1.25521e-29 -1.85887e-29 0)
(-1.3234e-29 -1.42858e-29 0)
(-1.1241e-29 -1.40143e-29 0)
(-7.67133e-30 -1.31008e-29 0)
(-5.12907e-30 -7.31179e-30 0)
(-2.07833e-30 1.12619e-30 0)
(-4.05674e-31 4.91691e-30 0)
(3.55373e-31 7.28976e-32 0)
(-1.01558e-30 -1.34155e-29 0)
(1.51677e-31 -3.17832e-29 0)
(6.63475e-31 -4.79768e-29 0)
(2.70929e-30 -5.78708e-29 0)
(2.36509e-30 -6.19298e-29 0)
(3.42681e-30 -6.49198e-29 0)
(2.58057e-30 -6.7786e-29 0)
(3.28429e-30 -8.02553e-29 0)
(-1.03403e-26 -9.8474e-26 0)
(-7.07224e-27 -5.77467e-28 0)
(1.13585e-27 -2.77409e-28 0)
(-9.63718e-28 -1.81043e-30 0)
(3.17538e-28 -2.87788e-29 0)
(-3.1699e-28 -6.26564e-30 0)
(1.96983e-28 -3.72913e-29 0)
(-8.94735e-29 -6.77695e-29 0)
(3.00238e-29 -8.98714e-29 0)
(-1.71536e-28 -8.22934e-29 0)
(-1.29834e-28 -6.77641e-29 0)
(-1.92656e-28 -4.25481e-29 0)
(-1.19683e-28 -1.75878e-29 0)
(-1.06018e-28 4.62697e-30 0)
(-4.86028e-29 1.21148e-29 0)
(-3.19124e-29 -5.25521e-30 0)
(-5.66931e-30 -4.05588e-29 0)
(-3.87215e-30 -6.9494e-29 0)
(1.26386e-30 -6.91526e-29 0)
(-2.78409e-30 -3.69852e-29 0)
(-1.24017e-30 3.43403e-30 0)
(-1.15797e-31 2.41664e-29 0)
(6.10464e-30 1.26519e-29 0)
(1.13212e-29 -2.08229e-29 0)
(1.49448e-29 -5.22365e-29 0)
(1.3066e-29 -6.33886e-29 0)
(6.75139e-30 -5.30111e-29 0)
(-2.19316e-30 -3.22024e-29 0)
(-8.93351e-30 -1.27412e-29 0)
(-1.29214e-29 -2.0433e-31 0)
(-1.76441e-29 6.07864e-30 0)
(-2.19841e-29 1.00385e-29 0)
(-2.34792e-29 1.16849e-29 0)
(-2.37002e-29 9.05347e-30 0)
(-2.13566e-29 3.06062e-30 0)
(-1.72665e-29 -5.69178e-30 0)
(-1.3391e-29 -1.79787e-29 0)
(-1.20942e-29 -3.44747e-29 0)
(-1.2659e-29 -5.21227e-29 0)
(-1.24713e-29 -6.43137e-29 0)
(-1.16243e-29 -6.78346e-29 0)
(-1.17109e-29 -6.2559e-29 0)
(-1.21696e-29 -5.09817e-29 0)
(-1.33672e-29 -3.81774e-29 0)
(-1.63628e-29 -2.74404e-29 0)
(-1.73356e-29 -2.41233e-29 0)
(-1.50543e-29 -3.08008e-29 0)
(-1.06727e-29 -3.8662e-29 0)
(-7.37214e-30 -3.61537e-29 0)
(-3.4055e-30 -2.3573e-29 0)
(-1.32369e-30 -1.43695e-29 0)
(-4.16316e-31 -1.86403e-29 0)
(-2.25155e-30 -3.54897e-29 0)
(-6.69557e-31 -5.5448e-29 0)
(1.21739e-31 -6.88504e-29 0)
(2.92272e-30 -7.48841e-29 0)
(2.74371e-30 -7.65555e-29 0)
(4.44559e-30 -7.62482e-29 0)
(3.38899e-30 -7.27235e-29 0)
(4.3275e-30 -7.77819e-29 0)
(-1.22531e-26 -9.88376e-26 0)
(-8.42595e-27 -7.91207e-28 0)
(1.25304e-27 -3.69115e-28 0)
(-1.18095e-27 3.44771e-29 0)
(3.70132e-28 -1.71467e-29 0)
(-3.86397e-28 7.67017e-30 0)
(2.2552e-28 -4.23e-29 0)
(-1.20257e-28 -7.55094e-29 0)
(2.50305e-29 -9.21745e-29 0)
(-2.12591e-28 -6.96596e-29 0)
(-1.57273e-28 -5.00487e-29 0)
(-2.28717e-28 -2.61956e-29 0)
(-1.39616e-28 -4.07464e-30 0)
(-1.23359e-28 2.34168e-29 0)
(-5.60585e-29 4.04237e-29 0)
(-3.79834e-29 2.78142e-29 0)
(-7.74773e-30 -1.09954e-29 0)
(-5.62337e-30 -4.49629e-29 0)
(1.50718e-30 -4.51691e-29 0)
(-2.2898e-30 -1.08397e-29 0)
(-8.66785e-32 2.76043e-29 0)
(7.41546e-31 4.12922e-29 0)
(7.09877e-30 2.41292e-29 0)
(1.20905e-29 -8.5909e-30 0)
(1.53812e-29 -3.67545e-29 0)
(1.25619e-29 -5.07121e-29 0)
(5.03085e-30 -5.17066e-29 0)
(-5.1737e-30 -4.32403e-29 0)
(-1.26433e-29 -2.75336e-29 0)
(-1.70053e-29 -9.51765e-30 0)
(-2.24391e-29 3.72171e-30 0)
(-2.74998e-29 1.04663e-29 0)
(-2.90552e-29 1.20172e-29 0)
(-2.89192e-29 1.03842e-29 0)
(-2.58072e-29 7.2727e-30 0)
(-2.10008e-29 4.84308e-31 0)
(-1.67849e-29 -1.19792e-29 0)
(-1.56469e-29 -2.89529e-29 0)
(-1.64578e-29 -4.59283e-29 0)
(-1.61382e-29 -5.71066e-29 0)
(-1.49542e-29 -6.07998e-29 0)
(-1.48835e-29 -5.60655e-29 0)
(-1.53098e-29 -4.29905e-29 0)
(-1.66641e-29 -2.66826e-29 0)
(-2.02975e-29 -1.33979e-29 0)
(-2.17228e-29 -1.15275e-29 0)
(-1.92754e-29 -2.29654e-29 0)
(-1.4016e-29 -3.48417e-29 0)
(-9.76841e-30 -3.32315e-29 0)
(-4.83411e-30 -2.04477e-29 0)
(-2.45762e-30 -1.33044e-29 0)
(-1.47847e-30 -2.06803e-29 0)
(-3.64692e-30 -3.67694e-29 0)
(-1.40944e-30 -4.9459e-29 0)
(-2.35691e-31 -5.2578e-29 0)
(3.22174e-30 -5.13522e-29 0)
(3.11184e-30 -5.1761e-29 0)
(5.47741e-30 -5.35113e-29 0)
(4.3524e-30 -5.05911e-29 0)
(5.46757e-30 -5.05616e-29 0)
(-1.40466e-26 -9.87634e-26 0)
(-9.72018e-27 -1.05366e-27 0)
(1.32251e-27 -4.98443e-28 0)
(-1.39983e-27 5.07326e-29 0)
(4.14337e-28 -2.87507e-29 0)
(-4.56956e-28 7.31082e-30 0)
(2.48454e-28 -6.0455e-29 0)
(-1.53632e-28 -1.02106e-28 0)
(1.78882e-29 -1.24714e-28 0)
(-2.52864e-28 -8.93049e-29 0)
(-1.83571e-28 -5.30863e-29 0)
(-2.62932e-28 -1.28866e-29 0)
(-1.58424e-28 1.52647e-29 0)
(-1.39802e-28 4.22987e-29 0)
(-6.3285e-29 5.50001e-29 0)
(-4.4193e-29 3.73056e-29 0)
(-1.02057e-29 -5.63389e-30 0)
(-7.52727e-30 -4.01121e-29 0)
(1.82206e-30 -3.81285e-29 0)
(-1.67802e-30 -2.36495e-30 0)
(9.38929e-31 3.32565e-29 0)
(1.23162e-30 4.06705e-29 0)
(7.60493e-30 1.69152e-29 0)
(1.23266e-29 -2.01138e-29 0)
(1.51292e-29 -5.00537e-29 0)
(1.11203e-29 -6.56599e-29 0)
(2.24303e-30 -7.1004e-29 0)
(-9.03508e-30 -6.92237e-29 0)
(-1.68423e-29 -5.86252e-29 0)
(-2.12484e-29 -4.04806e-29 0)
(-2.7248e-29 -2.18657e-29 0)
(-3.30335e-29 -7.8416e-30 0)
(-3.47102e-29 -2.21681e-30 0)
(-3.42567e-29 -5.83208e-30 0)
(-3.03836e-29 -1.42524e-29 0)
(-2.48164e-29 -2.37054e-29 0)
(-2.0185e-29 -3.18815e-29 0)
(-1.91755e-29 -3.89885e-29 0)
(-2.03227e-29 -4.65845e-29 0)
(-2.00678e-29 -5.41597e-29 0)
(-1.87022e-29 -6.1072e-29 0)
(-1.84522e-29 -6.29456e-29 0)
(-1.87106e-29 -5.53328e-29 0)
(-2.0115e-29 -4.15922e-29 0)
(-2.43564e-29 -2.81197e-29 0)
(-2.62433e-29 -2.35213e-29 0)
(-2.36224e-29 -3.01456e-29 0)
(-1.7496e-29 -3.79336e-29 0)
(-1.23917e-29 -3.77589e-29 0)
(-6.64179e-30 -3.32253e-29 0)
(-3.96988e-30 -3.5459e-29 0)
(-2.67262e-30 -4.41609e-29 0)
(-4.82994e-30 -5.05709e-29 0)
(-1.76346e-30 -4.86905e-29 0)
(-2.86821e-31 -4.06206e-29 0)
(3.58497e-30 -3.50752e-29 0)
(3.32864e-30 -3.75183e-29 0)
(6.26588e-30 -4.59504e-29 0)
(5.23193e-30 -4.95769e-29 0)
(6.59331e-30 -4.96153e-29 0)
(-1.57265e-26 -9.83514e-26 0)
(-1.09602e-26 -1.36182e-27 0)
(1.34452e-27 -6.64929e-28 0)
(-1.62074e-27 4.60697e-29 0)
(4.49659e-28 -6.48012e-29 0)
(-5.28715e-28 -7.88506e-30 0)
(2.66003e-28 -8.83615e-29 0)
(-1.89352e-28 -1.38439e-28 0)
(8.76821e-30 -1.7672e-28 0)
(-2.92005e-28 -1.36172e-28 0)
(-2.08261e-28 -8.00501e-29 0)
(-2.95016e-28 -8.35356e-30 0)
(-1.76345e-28 3.97112e-29 0)
(-1.56092e-28 6.70693e-29 0)
(-7.10868e-29 6.34942e-29 0)
(-5.09611e-29 2.80768e-29 0)
(-1.3064e-29 -2.39317e-29 0)
(-9.51564e-30 -5.87878e-29 0)
(2.15292e-30 -5.52174e-29 0)
(-1.03987e-30 -1.83894e-29 0)
(1.85101e-30 1.8799e-29 0)
(1.38512e-30 2.80559e-29 0)
(7.46027e-30 1.56749e-30 0)
(1.16962e-29 -4.57445e-29 0)
(1.4008e-29 -8.82012e-29 0)
(8.96822e-30 -1.09407e-28 0)
(-1.12483e-30 -1.11067e-28 0)
(-1.34349e-29 -1.03376e-28 0)
(-2.15304e-29 -9.22628e-29 0)
(-2.57978e-29 -7.80701e-29 0)
(-3.20849e-29 -6.08391e-29 0)
(-3.84587e-29 -4.24401e-29 0)
(-4.03969e-29 -3.21444e-29 0)
(-3.98517e-29 -3.69641e-29 0)
(-3.5255e-29 -5.04281e-29 0)
(-2.87018e-29 -6.14013e-29 0)
(-2.33882e-29 -6.31178e-29 0)
(-2.24452e-29 -5.8599e-29 0)
(-2.41202e-29 -5.63032e-29 0)
(-2.42434e-29 -6.03522e-29 0)
(-2.29445e-29 -7.07188e-29 0)
(-2.25913e-29 -8.1037e-29 0)
(-2.26151e-29 -8.4009e-29 0)
(-2.38895e-29 -7.91436e-29 0)
(-2.8456e-29 -6.72295e-29 0)
(-3.05591e-29 -5.4464e-29 0)
(-2.77439e-29 -4.85191e-29 0)
(-2.10209e-29 -4.92222e-29 0)
(-1.54289e-29 -5.32476e-29 0)
(-9.02575e-30 -5.97503e-29 0)
(-5.79168e-30 -6.88055e-29 0)
(-3.68964e-30 -7.21325e-29 0)
(-5.51708e-30 -6.41848e-29 0)
(-1.68745e-30 -4.91005e-29 0)
(-1.66529e-31 -3.54867e-29 0)
(3.86598e-30 -3.11621e-29 0)
(3.3064e-30 -3.79462e-29 0)
(6.71713e-30 -5.23839e-29 0)
(5.88897e-30 -6.15977e-29 0)
(7.61053e-30 -6.38578e-29 0)
(-1.72927e-26 -9.78239e-26 0)
(-1.21457e-26 -1.71266e-27 0)
(1.31957e-27 -8.60949e-28 0)
(-1.84407e-27 3.23653e-29 0)
(4.75586e-28 -1.14178e-28 0)
(-6.01691e-28 -3.28841e-29 0)
(2.78562e-28 -1.23991e-28 0)
(-2.26956e-28 -1.76123e-28 0)
(-2.19659e-30 -2.28603e-28 0)
(-3.30082e-28 -1.87084e-28 0)
(-2.31387e-28 -1.18145e-28 0)
(-3.24891e-28 -1.62603e-29 0)
(-1.93392e-28 5.74241e-29 0)
(-1.72557e-28 9.24152e-29 0)
(-8.00076e-29 7.4365e-29 0)
(-5.87563e-29 1.64388e-29 0)
(-1.65974e-29 -5.28583e-29 0)
(-1.17518e-29 -9.55733e-29 0)
(2.40439e-30 -9.38669e-29 0)
(-3.20667e-31 -5.33932e-29 0)
(2.86516e-30 -7.29026e-30 0)
(1.39523e-30 1.15314e-29 0)
(6.61335e-30 -1.41193e-29 0)
(9.90184e-30 -7.385e-29 0)
(1.17596e-29 -1.34332e-28 0)
(6.20605e-30 -1.64782e-28 0)
(-4.60604e-30 -1.59981e-28 0)
(-1.78756e-29 -1.37775e-28 0)
(-2.65171e-29 -1.17903e-28 0)
(-3.08071e-29 -1.06381e-28 0)
(-3.7229e-29 -9.74055e-29 0)
(-4.39451e-29 -8.42152e-29 0)
(-4.60818e-29 -7.35785e-29 0)
(-4.55236e-29 -7.48052e-29 0)
(-4.02356e-29 -8.34609e-29 0)
(-3.2595e-29 -8.96245e-29 0)
(-2.64835e-29 -8.70622e-29 0)
(-2.56039e-29 -7.88748e-29 0)
(-2.79323e-29 -7.38585e-29 0)
(-2.86352e-29 -7.6798e-29 0)
(-2.76155e-29 -8.91045e-29 0)
(-2.73209e-29 -1.05633e-28 0)
(-2.71444e-29 -1.18289e-28 0)
(-2.8069e-29 -1.22257e-28 0)
(-3.25124e-29 -1.11732e-28 0)
(-3.44994e-29 -9.15367e-29 0)
(-3.15683e-29 -7.62771e-29 0)
(-2.46375e-29 -7.3499e-29 0)
(-1.88559e-29 -7.98971e-29 0)
(-1.17469e-29 -8.78073e-29 0)
(-7.58307e-30 -9.21889e-29 0)
(-4.35056e-30 -8.57622e-29 0)
(-5.797e-30 -6.8709e-29 0)
(-1.4317e-30 -4.97584e-29 0)
(-1.03978e-31 -3.7769e-29 0)
(3.95597e-30 -3.78172e-29 0)
(3.10154e-30 -4.81287e-29 0)
(6.98613e-30 -6.3517e-29 0)
(6.41383e-30 -7.20602e-29 0)
(8.51212e-30 -7.52239e-29 0)
(-1.87438e-26 -9.72348e-26 0)
(-1.32744e-26 -2.10849e-27 0)
(1.24863e-27 -1.08143e-27 0)
(-2.07011e-27 2.07848e-29 0)
(4.91517e-28 -1.6439e-28 0)
(-6.7609e-28 -6.0155e-29 0)
(2.86488e-28 -1.65712e-28 0)
(-2.65752e-28 -2.13632e-28 0)
(-1.461e-29 -2.71031e-28 0)
(-3.67283e-28 -2.24251e-28 0)
(-2.53576e-28 -1.51457e-28 0)
(-3.53115e-28 -3.48894e-29 0)
(-2.0972e-28 5.50824e-29 0)
(-1.89068e-28 1.02729e-28 0)
(-8.9989e-29 8.31151e-29 0)
(-6.7823e-29 1.02416e-29 0)
(-2.12555e-29 -8.03856e-29 0)
(-1.45902e-29 -1.39596e-28 0)
(2.51032e-30 -1.43085e-28 0)
(6.37037e-31 -9.54545e-29 0)
(4.1611e-30 -3.61114e-29 0)
(1.34348e-30 -6.68276e-30 0)
(5.07437e-30 -3.13847e-29 0)
(6.94233e-30 -1.00396e-28 0)
(8.38608e-30 -1.73977e-28 0)
(2.8718e-30 -2.12095e-28 0)
(-8.03887e-30 -2.03757e-28 0)
(-2.20505e-29 -1.68959e-28 0)
(-3.15178e-29 -1.36785e-28 0)
(-3.62642e-29 -1.22696e-28 0)
(-4.29843e-29 -1.22551e-28 0)
(-4.98268e-29 -1.21619e-28 0)
(-5.17742e-29 -1.16011e-28 0)
(-5.09219e-29 -1.10249e-28 0)
(-4.4951e-29 -1.0479e-28 0)
(-3.64495e-29 -1.00446e-28 0)
(-2.97823e-29 -9.72299e-29 0)
(-2.90585e-29 -9.53288e-29 0)
(-3.20005e-29 -9.68156e-29 0)
(-3.32586e-29 -1.02942e-28 0)
(-3.25934e-29 -1.16681e-28 0)
(-3.24665e-29 -1.35176e-28 0)
(-3.21104e-29 -1.50149e-28 0)
(-3.25306e-29 -1.55756e-28 0)
(-3.65922e-29 -1.46152e-28 0)
(-3.8341e-29 -1.27698e-28 0)
(-3.53767e-29 -1.15363e-28 0)
(-2.83218e-29 -1.13042e-28 0)
(-2.22323e-29 -1.12437e-28 0)
(-1.42116e-29 -1.06015e-28 0)
(-9.027e-30 -9.62511e-29 0)
(-4.80072e-30 -8.30729e-29 0)
(-6.06614e-30 -6.75185e-29 0)
(-1.33485e-30 -5.40689e-29 0)
(-2.3665e-31 -4.75925e-29 0)
(3.88618e-30 -5.13197e-29 0)
(2.89295e-30 -6.16872e-29 0)
(7.33619e-30 -7.25053e-29 0)
(6.98637e-30 -7.52703e-29 0)
(9.32724e-30 -7.82406e-29 0)
(-2.00788e-26 -9.65837e-26 0)
(-1.4344e-26 -2.5509e-27 0)
(1.13314e-27 -1.32407e-27 0)
(-2.29896e-27 1.6667e-29 0)
(4.96922e-28 -2.0627e-28 0)
(-7.52228e-28 -7.86172e-29 0)
(2.8992e-28 -2.0453e-28 0)
(-3.05169e-28 -2.47761e-28 0)
(-2.79739e-29 -3.04805e-28 0)
(-4.03657e-28 -2.45745e-28 0)
(-2.75579e-28 -1.71606e-28 0)
(-3.80681e-28 -5.42184e-29 0)
(-2.25873e-28 3.57981e-29 0)
(-2.05478e-28 9.11264e-29 0)
(-1.00598e-28 7.85132e-29 0)
(-7.79869e-29 3.60206e-30 0)
(-2.72301e-29 -1.00617e-28 0)
(-1.82689e-29 -1.74184e-28 0)
(2.41534e-30 -1.8254e-28 0)
(1.8531e-30 -1.28778e-28 0)
(5.65561e-30 -6.06135e-29 0)
(1.10475e-30 -2.65076e-29 0)
(2.90529e-30 -5.14908e-29 0)
(3.13245e-30 -1.22615e-28 0)
(4.21736e-30 -1.9831e-28 0)
(-9.65158e-31 -2.38909e-28 0)
(-1.15751e-29 -2.32182e-28 0)
(-2.60303e-29 -1.94229e-28 0)
(-3.6365e-29 -1.53571e-28 0)
(-4.19524e-29 -1.32154e-28 0)
(-4.93387e-29 -1.33301e-28 0)
(-5.62655e-29 -1.41132e-28 0)
(-5.75602e-29 -1.42197e-28 0)
(-5.5933e-29 -1.3264e-28 0)
(-4.92377e-29 -1.14758e-28 0)
(-4.02763e-29 -1.00272e-28 0)
(-3.35279e-29 -9.76023e-29 0)
(-3.315e-29 -1.05493e-28 0)
(-3.65912e-29 -1.18644e-28 0)
(-3.82138e-29 -1.32489e-28 0)
(-3.77826e-29 -1.48782e-28 0)
(-3.77288e-29 -1.64929e-28 0)
(-3.71183e-29 -1.73553e-28 0)
(-3.70776e-29 -1.7379e-28 0)
(-4.09342e-29 -1.66647e-28 0)
(-4.25975e-29 -1.59432e-28 0)
(-3.94687e-29 -1.58028e-28 0)
(-3.18413e-29 -1.5435e-28 0)
(-2.49827e-29 -1.37486e-28 0)
(-1.59875e-29 -1.10066e-28 0)
(-1.01287e-29 -8.81304e-29 0)
(-5.36876e-30 -7.55325e-29 0)
(-6.66464e-30 -6.75998e-29 0)
(-1.56783e-30 -6.18688e-29 0)
(-5.51471e-31 -6.01812e-29 0)
(3.78433e-30 -6.50767e-29 0)
(2.86293e-30 -7.2298e-29 0)
(7.91465e-30 -7.66286e-29 0)
(7.65531e-30 -7.43813e-29 0)
(1.00386e-29 -7.80332e-29 0)
(-2.12971e-26 -9.58668e-26 0)
(-1.53526e-26 -3.03683e-27 0)
(9.7483e-28 -1.58871e-27 0)
(-2.53057e-27 1.85827e-29 0)
(4.91527e-28 -2.37228e-28 0)
(-8.30266e-28 -7.90475e-29 0)
(2.88831e-28 -2.27347e-28 0)
(-3.45074e-28 -2.69903e-28 0)
(-4.21289e-29 -3.32148e-28 0)
(-4.39192e-28 -2.60748e-28 0)
(-2.97775e-28 -1.82271e-28 0)
(-4.08339e-28 -6.39571e-29 0)
(-2.42584e-28 1.79695e-29 0)
(-2.22098e-28 6.89083e-29 0)
(-1.11633e-28 5.68851e-29 0)
(-8.87732e-29 -1.31977e-29 0)
(-3.40868e-29 -1.136e-28 0)
(-2.25877e-29 -1.8482e-28 0)
(2.02862e-30 -1.92665e-28 0)
(2.9947e-30 -1.40109e-28 0)
(6.94847e-30 -7.58292e-29 0)
(4.73043e-31 -4.54299e-29 0)
(2.67591e-31 -6.96433e-29 0)
(-1.08801e-30 -1.34605e-28 0)
(-3.44464e-31 -2.03782e-28 0)
(-5.22956e-30 -2.43959e-28 0)
(-1.54714e-29 -2.43396e-28 0)
(-3.0114e-29 -2.11101e-28 0)
(-4.10808e-29 -1.68466e-28 0)
(-4.75573e-29 -1.37724e-28 0)
(-5.58828e-29 -1.29337e-28 0)
(-6.30721e-29 -1.34037e-28 0)
(-6.35898e-29 -1.38701e-28 0)
(-6.08971e-29 -1.3361e-28 0)
(-5.33749e-29 -1.15632e-28 0)
(-4.41699e-29 -9.79579e-29 0)
(-3.77103e-29 -9.47346e-29 0)
(-3.79174e-29 -1.08165e-28 0)
(-4.18374e-29 -1.31352e-28 0)
(-4.36152e-29 -1.54459e-28 0)
(-4.31271e-29 -1.74109e-28 0)
(-4.28662e-29 -1.85662e-28 0)
(-4.19188e-29 -1.85278e-28 0)
(-4.1673e-29 -1.80553e-28 0)
(-4.5727e-29 -1.77941e-28 0)
(-4.74398e-29 -1.80614e-28 0)
(-4.37644e-29 -1.83778e-28 0)
(-3.49406e-29 -1.72878e-28 0)
(-2.69877e-29 -1.41885e-28 0)
(-1.72556e-29 -1.044e-28 0)
(-1.1199e-29 -8.21972e-29 0)
(-6.23601e-30 -7.4839e-29 0)
(-7.58179e-30 -7.16142e-29 0)
(-2.03921e-30 -6.85126e-29 0)
(-9.4478e-31 -6.80848e-29 0)
(3.74554e-30 -7.22807e-29 0)
(3.04928e-30 -7.62489e-29 0)
(8.62671e-30 -7.73928e-29 0)
(8.30162e-30 -7.56339e-29 0)
(1.05976e-29 -7.99535e-29 0)
(-2.23986e-26 -9.50773e-26 0)
(-1.62982e-26 -3.55855e-27 0)
(7.75502e-28 -1.87535e-27 0)
(-2.76484e-27 2.16188e-29 0)
(4.75328e-28 -2.61229e-28 0)
(-9.10071e-28 -6.0979e-29 0)
(2.83235e-28 -2.2798e-28 0)
(-3.85698e-28 -2.72162e-28 0)
(-5.74504e-29 -3.50702e-28 0)
(-4.74091e-28 -2.75585e-28 0)
(-3.20149e-28 -1.91489e-28 0)
(-4.36167e-28 -6.2016e-29 0)
(-2.60309e-28 1.73546e-29 0)
(-2.39607e-28 5.60926e-29 0)
(-1.23428e-28 3.07048e-29 0)
(-9.97844e-29 -3.73852e-29 0)
(-4.09796e-29 -1.19492e-28 0)
(-2.69568e-29 -1.68869e-28 0)
(1.25748e-30 -1.68753e-28 0)
(3.4869e-30 -1.25483e-28 0)
(7.51371e-30 -7.7743e-29 0)
(-6.71581e-31 -5.65076e-29 0)
(-2.59355e-30 -7.65776e-29 0)
(-5.39318e-30 -1.29953e-28 0)
(-5.12268e-30 -1.91243e-28 0)
(-9.94091e-30 -2.33538e-28 0)
(-1.98904e-29 -2.42337e-28 0)
(-3.45104e-29 -2.18526e-28 0)
(-4.57339e-29 -1.76534e-28 0)
(-5.2823e-29 -1.3615e-28 0)
(-6.21106e-29 -1.11664e-28 0)
(-6.98803e-29 -1.03245e-28 0)
(-6.99902e-29 -1.06782e-28 0)
(-6.63676e-29 -1.12094e-28 0)
(-5.79153e-29 -1.06261e-28 0)
(-4.83225e-29 -9.42819e-29 0)
(-4.21736e-29 -9.05769e-29 0)
(-4.31308e-29 -1.03354e-28 0)
(-4.76361e-29 -1.30093e-28 0)
(-4.9452e-29 -1.58789e-28 0)
(-4.86091e-29 -1.80662e-28 0)
(-4.78956e-29 -1.89459e-28 0)
(-4.66473e-29 -1.85871e-28 0)
(-4.64459e-29 -1.8218e-28 0)
(-5.08179e-29 -1.81905e-28 0)
(-5.23897e-29 -1.81029e-28 0)
(-4.78281e-29 -1.73678e-28 0)
(-3.76769e-29 -1.53327e-28 0)
(-2.88427e-29 -1.22734e-28 0)
(-1.87198e-29 -9.54459e-29 0)
(-1.25785e-29 -8.49201e-29 0)
(-7.29492e-30 -8.23627e-29 0)
(-8.51708e-30 -7.69527e-29 0)
(-2.51349e-30 -7.0032e-29 0)
(-1.31088e-30 -6.7413e-29 0)
(3.75278e-30 -7.04066e-29 0)
(3.29719e-30 -7.3911e-29 0)
(9.20888e-30 -7.77517e-29 0)
(8.81541e-30 -8.13567e-29 0)
(1.10245e-29 -8.29288e-29 0)
(-2.33835e-26 -9.42076e-26 0)
(-1.71797e-26 -4.1061e-27 0)
(5.36923e-28 -2.18142e-27 0)
(-3.00175e-27 2.20876e-29 0)
(4.48378e-28 -2.85307e-28 0)
(-9.91363e-28 -3.36401e-29 0)
(2.73306e-28 -2.13816e-28 0)
(-4.2726e-28 -2.55991e-28 0)
(-7.45214e-29 -3.56044e-28 0)
(-5.08835e-28 -2.85433e-28 0)
(-3.42689e-28 -1.99673e-28 0)
(-4.63854e-28 -5.28361e-29 0)
(-2.78991e-28 3.39355e-29 0)
(-2.58434e-28 6.47076e-29 0)
(-1.3647e-28 2.18563e-29 0)
(-1.10998e-28 -4.94503e-29 0)
(-4.738e-29 -1.12932e-28 0)
(-3.08993e-29 -1.35571e-28 0)
(8.04961e-32 -1.24384e-28 0)
(2.93465e-30 -9.19241e-29 0)
(7.04079e-30 -6.33115e-29 0)
(-2.31266e-30 -5.07793e-29 0)
(-5.49623e-30 -6.4561e-29 0)
(-9.71626e-30 -1.06968e-28 0)
(-1.02267e-29 -1.65039e-28 0)
(-1.5222e-29 -2.14574e-28 0)
(-2.48416e-29 -2.34119e-28 0)
(-3.91653e-29 -2.16355e-28 0)
(-5.02824e-29 -1.7255e-28 0)
(-5.76679e-29 -1.22915e-28 0)
(-6.78285e-29 -8.41039e-29 0)
(-7.64842e-29 -6.23035e-29 0)
(-7.67634e-29 -6.18753e-29 0)
(-7.26372e-29 -7.54929e-29 0)
(-6.32644e-29 -8.35319e-29 0)
(-5.29748e-29 -8.17292e-29 0)
(-4.68634e-29 -8.04906e-29 0)
(-4.85283e-29 -9.0671e-29 0)
(-5.36966e-29 -1.14558e-28 0)
(-5.55491e-29 -1.41982e-28 0)
(-5.42733e-29 -1.63958e-28 0)
(-5.31092e-29 -1.75074e-28 0)
(-5.16541e-29 -1.76584e-28 0)
(-5.14269e-29 -1.76815e-28 0)
(-5.57093e-29 -1.71245e-28 0)
(-5.67268e-29 -1.53517e-28 0)
(-5.13482e-29 -1.28245e-28 0)
(-4.04807e-29 -1.04174e-28 0)
(-3.13968e-29 -8.82558e-29 0)
(-2.10317e-29 -8.30117e-29 0)
(-1.44243e-29 -8.79815e-29 0)
(-8.36269e-30 -8.88794e-29 0)
(-9.22359e-30 -7.92332e-29 0)
(-2.82584e-30 -6.69501e-29 0)
(-1.59509e-30 -6.09389e-29 0)
(3.72316e-30 -6.27666e-29 0)
(3.39844e-30 -6.80822e-29 0)
(9.45795e-30 -7.74336e-29 0)
(9.23627e-30 -8.64263e-29 0)
(1.14189e-29 -8.19635e-29 0)
(-2.42524e-26 -9.3256e-26 0)
(-1.79958e-26 -4.67084e-27 0)
(2.60856e-28 -2.50146e-27 0)
(-3.24145e-27 1.9595e-29 0)
(4.1053e-28 -3.15495e-28 0)
(-1.07401e-27 -9.91433e-30 0)
(2.59303e-28 -2.01275e-28 0)
(-4.69654e-28 -2.336e-28 0)
(-9.35827e-29 -3.48882e-28 0)
(-5.43879e-28 -2.80603e-28 0)
(-3.65707e-28 -1.97801e-28 0)
(-4.91351e-28 -3.85898e-29 0)
(-2.98307e-28 5.77626e-29 0)
(-2.78306e-28 9.22707e-29 0)
(-1.50772e-28 4.41438e-29 0)
(-1.22686e-28 -2.90703e-29 0)
(-5.3596e-29 -8.55998e-29 0)
(-3.45713e-29 -9.58794e-29 0)
(-1.48672e-30 -7.91697e-29 0)
(1.4488e-30 -5.2047e-29 0)
(5.6677e-30 -3.30493e-29 0)
(-4.35889e-30 -2.37692e-29 0)
(-8.47999e-30 -3.29965e-29 0)
(-1.4237e-29 -7.07282e-29 0)
(-1.58656e-29 -1.31492e-28 0)
(-2.11598e-29 -1.90636e-28 0)
(-3.0223e-29 -2.19562e-28 0)
(-4.38804e-29 -2.04356e-28 0)
(-5.46355e-29 -1.56335e-28 0)
(-6.223e-29 -1.00046e-28 0)
(-7.32845e-29 -5.49013e-29 0)
(-8.29887e-29 -2.72786e-29 0)
(-8.3772e-29 -2.27124e-29 0)
(-7.94969e-29 -3.61272e-29 0)
(-6.93766e-29 -4.848e-29 0)
(-5.82724e-29 -5.35683e-29 0)
(-5.19158e-29 -5.7749e-29 0)
(-5.40338e-29 -6.82315e-29 0)
(-5.97545e-29 -8.7286e-29 0)
(-6.17077e-29 -1.0889e-28 0)
(-6.02126e-29 -1.2987e-28 0)
(-5.88031e-29 -1.46672e-28 0)
(-5.70835e-29 -1.54993e-28 0)
(-5.63856e-29 -1.54631e-28 0)
(-5.99845e-29 -1.37671e-28 0)
(-6.02531e-29 -1.04075e-28 0)
(-5.45411e-29 -7.00619e-29 0)
(-4.37891e-29 -5.10992e-29 0)
(-3.49693e-29 -5.02931e-29 0)
(-2.42742e-29 -6.08295e-29 0)
(-1.67339e-29 -7.67189e-29 0)
(-9.49996e-30 -8.31501e-29 0)
(-9.79942e-30 -7.53939e-29 0)
(-3.02853e-30 -6.26529e-29 0)
(-1.80427e-30 -5.49045e-29 0)
(3.63205e-30 -5.51783e-29 0)
(3.33003e-30 -6.06303e-29 0)
(9.42686e-30 -7.15538e-29 0)
(9.65303e-30 -8.1907e-29 0)
(1.18065e-29 -7.44955e-29 0)
(-2.50064e-26 -9.22288e-26 0)
(-1.87456e-26 -5.24921e-27 0)
(-5.08077e-29 -2.83103e-27 0)
(-3.48431e-27 1.52498e-29 0)
(3.61341e-28 -3.54574e-28 0)
(-1.15818e-27 1.70631e-30 0)
(2.41361e-28 -2.04054e-28 0)
(-5.12518e-28 -2.19932e-28 0)
(-1.14328e-28 -3.38359e-28 0)
(-5.79291e-28 -2.60069e-28 0)
(-3.8966e-28 -1.78383e-28 0)
(-5.19082e-28 -1.4742e-29 0)
(-3.18121e-28 8.48008e-29 0)
(-2.98554e-28 1.29891e-28 0)
(-1.65801e-28 9.16864e-29 0)
(-1.3507e-28 2.3681e-29 0)
(-6.04772e-29 -3.65116e-29 0)
(-3.87211e-29 -5.37284e-29 0)
(-3.5294e-30 -4.20366e-29 0)
(-5.09853e-31 -1.4798e-29 0)
(3.8568e-30 6.87386e-30 0)
(-6.72792e-30 1.8696e-29 0)
(-1.17853e-29 9.81753e-30 0)
(-1.92186e-29 -3.04644e-29 0)
(-2.21194e-29 -9.6635e-29 0)
(-2.76655e-29 -1.62745e-28 0)
(-3.5894e-29 -1.97355e-28 0)
(-4.85722e-29 -1.83781e-28 0)
(-5.88772e-29 -1.34413e-28 0)
(-6.68344e-29 -7.77821e-29 0)
(-7.89285e-29 -3.48994e-29 0)
(-8.96494e-29 -8.76598e-30 0)
(-9.08322e-29 -7.22886e-31 0)
(-8.64384e-29 -5.69172e-30 0)
(-7.58113e-29 -9.77242e-30 0)
(-6.41191e-29 -1.27938e-29 0)
(-5.74894e-29 -2.09659e-29 0)
(-5.97755e-29 -3.48975e-29 0)
(-6.57868e-29 -5.20316e-29 0)
(-6.78823e-29 -6.9071e-29 0)
(-6.64532e-29 -8.894e-29 0)
(-6.49356e-29 -1.08341e-28 0)
(-6.26923e-29 -1.16536e-28 0)
(-6.10862e-29 -1.09965e-28 0)
(-6.38138e-29 -8.61358e-29 0)
(-6.35912e-29 -5.30057e-29 0)
(-5.79835e-29 -2.71723e-29 0)
(-4.76116e-29 -1.62633e-29 0)
(-3.90544e-29 -1.73443e-29 0)
(-2.79649e-29 -2.66504e-29 0)
(-1.94628e-29 -4.57235e-29 0)
(-1.10464e-29 -6.13967e-29 0)
(-1.06517e-29 -6.42948e-29 0)
(-3.37018e-30 -5.84249e-29 0)
(-1.99216e-30 -5.23278e-29 0)
(3.58765e-30 -5.02072e-29 0)
(3.3519e-30 -5.0595e-29 0)
(9.3908e-30 -5.52059e-29 0)
(1.00039e-29 -6.32541e-29 0)
(1.20124e-29 -6.16781e-29 0)
(-2.56466e-26 -9.11346e-26 0)
(-1.94279e-26 -5.84342e-27 0)
(-3.95905e-28 -3.17129e-27 0)
(-3.73069e-27 8.21701e-30 0)
(3.0024e-28 -4.02121e-28 0)
(-1.2443e-27 1.456e-30 0)
(2.1938e-28 -2.24151e-28 0)
(-5.55594e-28 -2.22317e-28 0)
(-1.36271e-28 -3.37232e-28 0)
(-6.14741e-28 -2.36727e-28 0)
(-4.14653e-28 -1.46453e-28 0)
(-5.47462e-28 2.40762e-29 0)
(-3.38645e-28 1.22222e-28 0)
(-3.18909e-28 1.73216e-28 0)
(-1.81122e-28 1.44919e-28 0)
(-1.48127e-28 8.50644e-29 0)
(-6.85706e-29 2.10513e-29 0)
(-4.4009e-29 -8.1398e-30 0)
(-6.25968e-30 -6.7494e-30 0)
(-2.65852e-30 1.99891e-29 0)
(1.93714e-30 4.68596e-29 0)
(-9.41176e-30 6.15971e-29 0)
(-1.56324e-29 4.99746e-29 0)
(-2.4779e-29 4.85522e-30 0)
(-2.88554e-29 -6.45165e-29 0)
(-3.45075e-29 -1.32405e-28 0)
(-4.17709e-29 -1.69583e-28 0)
(-5.34139e-29 -1.6033e-28 0)
(-6.33617e-29 -1.17168e-28 0)
(-7.18731e-29 -6.81319e-29 0)
(-8.50805e-29 -3.23551e-29 0)
(-9.6618e-29 -9.47665e-30 0)
(-9.78251e-29 2.31466e-30 0)
(-9.30635e-29 8.82136e-30 0)
(-8.20717e-29 1.97932e-29 0)
(-7.01828e-29 2.75693e-29 0)
(-6.35376e-29 2.18722e-29 0)