/*--------------------------------*- C++ -*----------------------------------*\
| =========                 |                                                 |
| \\      /  F ield         | foam-extend: Open Source CFD                    |
|  \\    /   O peration     | Version:     4.0                                |
|   \\  /    A nd           | Web:         http://www.foam-extend.org         |
|    \\/     M anipulation  |                                                 |
\*---------------------------------------------------------------------------*/
FoamFile
{
    version     2.0;
    format      ascii;
    class       volScalarField;
    location    "450";
    object      cMinus;
}
// * * * * * * * * * * * * * * * * * * * * * * * * * * * * * * * * * * * * * //

dimensions      [0 0 0 0 0 0 0];

internalField   nonuniform List<scalar> 
6960
(
6.51779e-16
6.50688e-16
6.51986e-16
6.52433e-16
6.52484e-16
6.52348e-16
6.52117e-16
6.5183e-16
6.51505e-16
6.51155e-16
6.50789e-16
6.50412e-16
6.50031e-16
6.49653e-16
6.49281e-16
6.4892e-16
6.48573e-16
6.48244e-16
6.47936e-16
6.47649e-16
6.47386e-16
6.47148e-16
6.46935e-16
6.46749e-16
6.46589e-16
6.46455e-16
6.46348e-16
6.46268e-16
6.46215e-16
6.46188e-16
6.46188e-16
6.46215e-16
6.46268e-16
6.46348e-16
6.46455e-16
6.46589e-16
6.46749e-16
6.46935e-16
6.47148e-16
6.47386e-16
6.47649e-16
6.47936e-16
6.48244e-16
6.48573e-16
6.4892e-16
6.49281e-16
6.49653e-16
6.50031e-16
6.50412e-16
6.50789e-16
6.51155e-16
6.51505e-16
6.5183e-16
6.52117e-16
6.52348e-16
6.52484e-16
6.52433e-16
6.51986e-16
6.50688e-16
6.51779e-16
1.08103e-15
1.07976e-15
1.08172e-15
1.08238e-15
1.08245e-15
1.08224e-15
1.08189e-15
1.08145e-15
1.08095e-15
1.08042e-15
1.07985e-15
1.07928e-15
1.07869e-15
1.07811e-15
1.07754e-15
1.07699e-15
1.07646e-15
1.07595e-15
1.07548e-15
1.07504e-15
1.07464e-15
1.07427e-15
1.07394e-15
1.07366e-15
1.07341e-15
1.07321e-15
1.07304e-15
1.07292e-15
1.07284e-15
1.0728e-15
1.0728e-15
1.07284e-15
1.07292e-15
1.07304e-15
1.07321e-15
1.07341e-15
1.07366e-15
1.07394e-15
1.07427e-15
1.07464e-15
1.07504e-15
1.07548e-15
1.07595e-15
1.07646e-15
1.07699e-15
1.07754e-15
1.07811e-15
1.07869e-15
1.07928e-15
1.07985e-15
1.08042e-15
1.08095e-15
1.08145e-15
1.08189e-15
1.08224e-15
1.08245e-15
1.08238e-15
1.08172e-15
1.07976e-15
1.08103e-15
3.76536e-15
3.76247e-15
3.76853e-15
3.77058e-15
3.77078e-15
3.77012e-15
3.76901e-15
3.76763e-15
3.76608e-15
3.7644e-15
3.76264e-15
3.76083e-15
3.75901e-15
3.75719e-15
3.7554e-15
3.75366e-15
3.75199e-15
3.75041e-15
3.74893e-15
3.74755e-15
3.74628e-15
3.74513e-15
3.74411e-15
3.74321e-15
3.74244e-15
3.7418e-15
3.74128e-15
3.7409e-15
3.74064e-15
3.74051e-15
3.74051e-15
3.74064e-15
3.7409e-15
3.74128e-15
3.7418e-15
3.74244e-15
3.74321e-15
3.74411e-15
3.74513e-15
3.74628e-15
3.74755e-15
3.74893e-15
3.75041e-15
3.75199e-15
3.75366e-15
3.7554e-15
3.75719e-15
3.75901e-15
3.76083e-15
3.76264e-15
3.7644e-15
3.76608e-15
3.76763e-15
3.76901e-15
3.77012e-15
3.77078e-15
3.77058e-15
3.76853e-15
3.76247e-15
3.76536e-15
1.52709e-14
1.52663e-14
1.52873e-14
1.52944e-14
1.52952e-14
1.5293e-14
1.52893e-14
1.52847e-14
1.52795e-14
1.52738e-14
1.52679e-14
1.52617e-14
1.52555e-14
1.52494e-14
1.52433e-14
1.52374e-14
1.52317e-14
1.52264e-14
1.52213e-14
1.52166e-14
1.52123e-14
1.52084e-14
1.5205e-14
1.52019e-14
1.51993e-14
1.51971e-14
1.51954e-14
1.5194e-14
1.51932e-14
1.51927e-14
1.51927e-14
1.51932e-14
1.5194e-14
1.51954e-14
1.51971e-14
1.51993e-14
1.52019e-14
1.5205e-14
1.52084e-14
1.52123e-14
1.52166e-14
1.52213e-14
1.52264e-14
1.52317e-14
1.52374e-14
1.52433e-14
1.52494e-14
1.52555e-14
1.52617e-14
1.52679e-14
1.52738e-14
1.52795e-14
1.52847e-14
1.52893e-14
1.5293e-14
1.52952e-14
1.52944e-14
1.52873e-14
1.52663e-14
1.52709e-14
6.97483e-14
6.97726e-14
6.98533e-14
6.98814e-14
6.9886e-14
6.98799e-14
6.98682e-14
6.98534e-14
6.98364e-14
6.9818e-14
6.97985e-14
6.97783e-14
6.97579e-14
6.97374e-14
6.97173e-14
6.96978e-14
6.9679e-14
6.96611e-14
6.96443e-14
6.96287e-14
6.96144e-14
6.96015e-14
6.95899e-14
6.95797e-14
6.9571e-14
6.95638e-14
6.9558e-14
6.95536e-14
6.95507e-14
6.95492e-14
6.95492e-14
6.95507e-14
6.95536e-14
6.9558e-14
6.95638e-14
6.9571e-14
6.95797e-14
6.95899e-14
6.96015e-14
6.96144e-14
6.96287e-14
6.96443e-14
6.96611e-14
6.9679e-14
6.96978e-14
6.97173e-14
6.97374e-14
6.97579e-14
6.97783e-14
6.97985e-14
6.9818e-14
6.98364e-14
6.98534e-14
6.98682e-14
6.98799e-14
6.9886e-14
6.98814e-14
6.98533e-14
6.97726e-14
6.97483e-14
3.69536e-13
3.69985e-13
3.70372e-13
3.70519e-13
3.70561e-13
3.70555e-13
3.70527e-13
3.70486e-13
3.70437e-13
3.70383e-13
3.70325e-13
3.70264e-13
3.70202e-13
3.7014e-13
3.70078e-13
3.70018e-13
3.6996e-13
3.69905e-13
3.69853e-13
3.69805e-13
3.69761e-13
3.69721e-13
3.69685e-13
3.69653e-13
3.69626e-13
3.69604e-13
3.69586e-13
3.69572e-13
3.69564e-13
3.69559e-13
3.69559e-13
3.69564e-13
3.69572e-13
3.69586e-13
3.69604e-13
3.69626e-13
3.69653e-13
3.69685e-13
3.69721e-13
3.69761e-13
3.69805e-13
3.69853e-13
3.69905e-13
3.6996e-13
3.70018e-13
3.70078e-13
3.7014e-13
3.70202e-13
3.70264e-13
3.70325e-13
3.70383e-13
3.70437e-13
3.70486e-13
3.70527e-13
3.70555e-13
3.70561e-13
3.70519e-13
3.70372e-13
3.69985e-13
3.69536e-13
2.2674e-12
2.27234e-12
2.27491e-12
2.27598e-12
2.2764e-12
2.27654e-12
2.27655e-12
2.2765e-12
2.27642e-12
2.27631e-12
2.27618e-12
2.27605e-12
2.2759e-12
2.27576e-12
2.27561e-12
2.27546e-12
2.27532e-12
2.27519e-12
2.27506e-12
2.27494e-12
2.27483e-12
2.27473e-12
2.27464e-12
2.27456e-12
2.27449e-12
2.27444e-12
2.27439e-12
2.27436e-12
2.27434e-12
2.27433e-12
2.27433e-12
2.27434e-12
2.27436e-12
2.27439e-12
2.27444e-12
2.27449e-12
2.27456e-12
2.27464e-12
2.27473e-12
2.27483e-12
2.27494e-12
2.27506e-12
2.27519e-12
2.27532e-12
2.27546e-12
2.27561e-12
2.27576e-12
2.2759e-12
2.27605e-12
2.27618e-12
2.27631e-12
2.27642e-12
2.2765e-12
2.27655e-12
2.27654e-12
2.2764e-12
2.27598e-12
2.27491e-12
2.27234e-12
2.2674e-12
1.54984e-11
1.55465e-11
1.55678e-11
1.55772e-11
1.55814e-11
1.55833e-11
1.55843e-11
1.55849e-11
1.55853e-11
1.55856e-11
1.55858e-11
1.55859e-11
1.55859e-11
1.5586e-11
1.5586e-11
1.5586e-11
1.55859e-11
1.55859e-11
1.55859e-11
1.55858e-11
1.55858e-11
1.55857e-11
1.55857e-11
1.55857e-11
1.55856e-11
1.55856e-11
1.55856e-11
1.55856e-11
1.55856e-11
1.55856e-11
1.55856e-11
1.55856e-11
1.55856e-11
1.55856e-11
1.55856e-11
1.55856e-11
1.55857e-11
1.55857e-11
1.55857e-11
1.55858e-11
1.55858e-11
1.55859e-11
1.55859e-11
1.55859e-11
1.5586e-11
1.5586e-11
1.5586e-11
1.55859e-11
1.55859e-11
1.55858e-11
1.55856e-11
1.55853e-11
1.55849e-11
1.55843e-11
1.55833e-11
1.55814e-11
1.55772e-11
1.55678e-11
1.55465e-11
1.54984e-11
1.1225e-10
1.1269e-10
1.1288e-10
1.12966e-10
1.13006e-10
1.13025e-10
1.13037e-10
1.13045e-10
1.13052e-10
1.13058e-10
1.13063e-10
1.13068e-10
1.13072e-10
1.13076e-10
1.1308e-10
1.13084e-10
1.13087e-10
1.13091e-10
1.13093e-10
1.13096e-10
1.13099e-10
1.13101e-10
1.13103e-10
1.13104e-10
1.13106e-10
1.13107e-10
1.13108e-10
1.13109e-10
1.13109e-10
1.1311e-10
1.1311e-10
1.13109e-10
1.13109e-10
1.13108e-10
1.13107e-10
1.13106e-10
1.13104e-10
1.13103e-10
1.13101e-10
1.13099e-10
1.13096e-10
1.13093e-10
1.13091e-10
1.13087e-10
1.13084e-10
1.1308e-10
1.13076e-10
1.13072e-10
1.13068e-10
1.13063e-10
1.13058e-10
1.13052e-10
1.13045e-10
1.13037e-10
1.13025e-10
1.13006e-10
1.12966e-10
1.1288e-10
1.1269e-10
1.1225e-10
8.26419e-10
8.30241e-10
8.31911e-10
8.3267e-10
8.33022e-10
8.332e-10
8.33305e-10
8.3338e-10
8.33442e-10
8.33498e-10
8.33551e-10
8.336e-10
8.33647e-10
8.33692e-10
8.33734e-10
8.33774e-10
8.33811e-10
8.33846e-10
8.33878e-10
8.33907e-10
8.33935e-10
8.33959e-10
8.33981e-10
8.34e-10
8.34017e-10
8.3403e-10
8.34041e-10
8.3405e-10
8.34055e-10
8.34058e-10
8.34058e-10
8.34055e-10
8.3405e-10
8.34041e-10
8.3403e-10
8.34017e-10
8.34e-10
8.33981e-10
8.33959e-10
8.33935e-10
8.33907e-10
8.33878e-10
8.33846e-10
8.33811e-10
8.33774e-10
8.33734e-10
8.33692e-10
8.33647e-10
8.336e-10
8.33551e-10
8.33498e-10
8.33442e-10
8.3338e-10
8.33305e-10
8.332e-10
8.33022e-10
8.3267e-10
8.31911e-10
8.30241e-10
8.26419e-10
6.00125e-09
6.0325e-09
6.04642e-09
6.05276e-09
6.05568e-09
6.05715e-09
6.058e-09
6.0586e-09
6.0591e-09
6.05954e-09
6.05996e-09
6.06036e-09
6.06074e-09
6.0611e-09
6.06144e-09
6.06177e-09
6.06207e-09
6.06236e-09
6.06262e-09
6.06286e-09
6.06309e-09
6.06329e-09
6.06347e-09
6.06362e-09
6.06376e-09
6.06387e-09
6.06396e-09
6.06403e-09
6.06408e-09
6.0641e-09
6.0641e-09
6.06408e-09
6.06403e-09
6.06396e-09
6.06387e-09
6.06376e-09
6.06362e-09
6.06347e-09
6.06329e-09
6.06309e-09
6.06286e-09
6.06262e-09
6.06236e-09
6.06207e-09
6.06177e-09
6.06144e-09
6.0611e-09
6.06074e-09
6.06036e-09
6.05996e-09
6.05954e-09
6.0591e-09
6.0586e-09
6.058e-09
6.05715e-09
6.05568e-09
6.05276e-09
6.04642e-09
6.0325e-09
6.00125e-09
4.20166e-08
4.22551e-08
4.23631e-08
4.24122e-08
4.24347e-08
4.24459e-08
4.24522e-08
4.24566e-08
4.24602e-08
4.24634e-08
4.24664e-08
4.24692e-08
4.24719e-08
4.24745e-08
4.2477e-08
4.24793e-08
4.24815e-08
4.24835e-08
4.24854e-08
4.24871e-08
4.24887e-08
4.24902e-08
4.24915e-08
4.24926e-08
4.24935e-08
4.24944e-08
4.2495e-08
4.24955e-08
4.24958e-08
4.2496e-08
4.2496e-08
4.24958e-08
4.24955e-08
4.2495e-08
4.24944e-08
4.24935e-08
4.24926e-08
4.24915e-08
4.24902e-08
4.24887e-08
4.24871e-08
4.24854e-08
4.24835e-08
4.24815e-08
4.24793e-08
4.2477e-08
4.24745e-08
4.24719e-08
4.24692e-08
4.24664e-08
4.24634e-08
4.24602e-08
4.24566e-08
4.24522e-08
4.24459e-08
4.24347e-08
4.24122e-08
4.23631e-08
4.22551e-08
4.20166e-08
2.78261e-07
2.79939e-07
2.80708e-07
2.81057e-07
2.81216e-07
2.81294e-07
2.81338e-07
2.81367e-07
2.81391e-07
2.81412e-07
2.81431e-07
2.81449e-07
2.81467e-07
2.81484e-07
2.815e-07
2.81515e-07
2.81529e-07
2.81542e-07
2.81554e-07
2.81565e-07
2.81576e-07
2.81585e-07
2.81593e-07
2.81601e-07
2.81607e-07
2.81612e-07
2.81617e-07
2.8162e-07
2.81622e-07
2.81623e-07
2.81623e-07
2.81622e-07
2.8162e-07
2.81617e-07
2.81612e-07
2.81607e-07
2.81601e-07
2.81593e-07
2.81585e-07
2.81576e-07
2.81565e-07
2.81554e-07
2.81542e-07
2.81529e-07
2.81515e-07
2.815e-07
2.81484e-07
2.81467e-07
2.81449e-07
2.81431e-07
2.81412e-07
2.81391e-07
2.81367e-07
2.81338e-07
2.81294e-07
2.81216e-07
2.81057e-07
2.80708e-07
2.79939e-07
2.78261e-07
1.71303e-06
1.72375e-06
1.72871e-06
1.73096e-06
1.73198e-06
1.73247e-06
1.73274e-06
1.73292e-06
1.73306e-06
1.73319e-06
1.7333e-06
1.73341e-06
1.73351e-06
1.73361e-06
1.7337e-06
1.73379e-06
1.73388e-06
1.73395e-06
1.73402e-06
1.73409e-06
1.73415e-06
1.73421e-06
1.73426e-06
1.7343e-06
1.73434e-06
1.73437e-06
1.73439e-06
1.73441e-06
1.73442e-06
1.73443e-06
1.73443e-06
1.73442e-06
1.73441e-06
1.73439e-06
1.73437e-06
1.73434e-06
1.7343e-06
1.73426e-06
1.73421e-06
1.73415e-06
1.73409e-06
1.73402e-06
1.73395e-06
1.73388e-06
1.73379e-06
1.7337e-06
1.73361e-06
1.73351e-06
1.73341e-06
1.7333e-06
1.73319e-06
1.73306e-06
1.73292e-06
1.73274e-06
1.73247e-06
1.73198e-06
1.73096e-06
1.72871e-06
1.72375e-06
1.71303e-06
9.64011e-06
9.7014e-06
9.72989e-06
9.7428e-06
9.74863e-06
9.75141e-06
9.75292e-06
9.7539e-06
9.75466e-06
9.75533e-06
9.75594e-06
9.75651e-06
9.75706e-06
9.75757e-06
9.75807e-06
9.75853e-06
9.75897e-06
9.75938e-06
9.75976e-06
9.76011e-06
9.76043e-06
9.76072e-06
9.76097e-06
9.7612e-06
9.76139e-06
9.76156e-06
9.76169e-06
9.76178e-06
9.76185e-06
9.76188e-06
9.76188e-06
9.76185e-06
9.76178e-06
9.76169e-06
9.76156e-06
9.76139e-06
9.7612e-06
9.76097e-06
9.76072e-06
9.76043e-06
9.76011e-06
9.75976e-06
9.75938e-06
9.75897e-06
9.75853e-06
9.75807e-06
9.75757e-06
9.75706e-06
9.75651e-06
9.75594e-06
9.75533e-06
9.75466e-06
9.7539e-06
9.75292e-06
9.75141e-06
9.74863e-06
9.7428e-06
9.72989e-06
9.7014e-06
9.64011e-06
4.87767e-05
4.90851e-05
4.92289e-05
4.9294e-05
4.93233e-05
4.93371e-05
4.93445e-05
4.93493e-05
4.93529e-05
4.9356e-05
4.93589e-05
4.93616e-05
4.93641e-05
4.93666e-05
4.93689e-05
4.9371e-05
4.93731e-05
4.9375e-05
4.93767e-05
4.93784e-05
4.93799e-05
4.93812e-05
4.93824e-05
4.93835e-05
4.93844e-05
4.93851e-05
4.93857e-05
4.93862e-05
4.93865e-05
4.93866e-05
4.93866e-05
4.93865e-05
4.93862e-05
4.93857e-05
4.93851e-05
4.93844e-05
4.93835e-05
4.93824e-05
4.93812e-05
4.93799e-05
4.93784e-05
4.93767e-05
4.9375e-05
4.93731e-05
4.9371e-05
4.93689e-05
4.93666e-05
4.93641e-05
4.93616e-05
4.93589e-05
4.9356e-05
4.93529e-05
4.93493e-05
4.93445e-05
4.93371e-05
4.93233e-05
4.9294e-05
4.92289e-05
4.90851e-05
4.87767e-05
0.000218237
0.000219579
0.000220205
0.000220488
0.000220615
0.000220675
0.000220707
0.000220726
0.000220741
0.000220754
0.000220766
0.000220777
0.000220787
0.000220797
0.000220806
0.000220815
0.000220823
0.000220831
0.000220838
0.000220845
0.000220851
0.000220856
0.000220861
0.000220865
0.000220869
0.000220872
0.000220875
0.000220876
0.000220878
0.000220878
0.000220878
0.000220878
0.000220876
0.000220875
0.000220872
0.000220869
0.000220865
0.000220861
0.000220856
0.000220851
0.000220845
0.000220838
0.000220831
0.000220823
0.000220815
0.000220806
0.000220797
0.000220787
0.000220777
0.000220766
0.000220754
0.000220741
0.000220726
0.000220707
0.000220675
0.000220615
0.000220488
0.000220205
0.000219579
0.000218237
0.000848989
0.00085394
0.000856249
0.000857291
0.000857757
0.000857975
0.00085809
0.000858161
0.000858213
0.000858258
0.000858299
0.000858336
0.000858372
0.000858406
0.000858438
0.000858468
0.000858497
0.000858523
0.000858548
0.00085857
0.000858591
0.00085861
0.000858627
0.000858641
0.000858654
0.000858664
0.000858673
0.000858679
0.000858683
0.000858685
0.000858685
0.000858683
0.000858679
0.000858673
0.000858664
0.000858654
0.000858641
0.000858627
0.00085861
0.000858591
0.00085857
0.000858548
0.000858523
0.000858497
0.000858468
0.000858438
0.000858406
0.000858372
0.000858336
0.000858299
0.000858258
0.000858213
0.000858161
0.00085809
0.000857975
0.000857757
0.000857291
0.000856249
0.00085394
0.000848989
0.00282427
0.00283943
0.00284649
0.00284968
0.0028511
0.00285176
0.00285211
0.00285232
0.00285247
0.0028526
0.00285272
0.00285283
0.00285293
0.00285303
0.00285312
0.0028532
0.00285329
0.00285336
0.00285343
0.0028535
0.00285356
0.00285361
0.00285366
0.0028537
0.00285374
0.00285377
0.00285379
0.00285381
0.00285382
0.00285383
0.00285383
0.00285382
0.00285381
0.00285379
0.00285377
0.00285374
0.0028537
0.00285366
0.00285361
0.00285356
0.0028535
0.00285343
0.00285336
0.00285329
0.0028532
0.00285312
0.00285303
0.00285293
0.00285283
0.00285272
0.0028526
0.00285247
0.00285232
0.00285211
0.00285176
0.0028511
0.00284968
0.00284649
0.00283943
0.00282427
0.00791891
0.00795677
0.00797436
0.00798228
0.00798581
0.00798745
0.00798829
0.0079888
0.00798917
0.00798948
0.00798975
0.00799001
0.00799025
0.00799048
0.00799069
0.0079909
0.00799109
0.00799126
0.00799143
0.00799158
0.00799172
0.00799184
0.00799196
0.00799205
0.00799214
0.00799221
0.00799226
0.00799231
0.00799233
0.00799235
0.00799235
0.00799233
0.00799231
0.00799226
0.00799221
0.00799214
0.00799205
0.00799196
0.00799184
0.00799172
0.00799158
0.00799143
0.00799126
0.00799109
0.0079909
0.00799069
0.00799048
0.00799025
0.00799001
0.00798975
0.00798948
0.00798917
0.0079888
0.00798829
0.00798745
0.00798581
0.00798228
0.00797436
0.00795677
0.00791891
0.0185647
0.018641
0.0186763
0.0186922
0.0186993
0.0187026
0.0187042
0.0187052
0.0187059
0.0187065
0.0187071
0.0187075
0.018708
0.0187084
0.0187088
0.0187092
0.0187096
0.0187099
0.0187102
0.0187105
0.0187108
0.018711
0.0187112
0.0187114
0.0187115
0.0187117
0.0187118
0.0187119
0.0187119
0.0187119
0.0187119
0.0187119
0.0187119
0.0187118
0.0187117
0.0187115
0.0187114
0.0187112
0.018711
0.0187108
0.0187105
0.0187102
0.0187099
0.0187096
0.0187092
0.0187088
0.0187084
0.018708
0.0187075
0.0187071
0.0187065
0.0187059
0.0187052
0.0187042
0.0187026
0.0186993
0.0186922
0.0186763
0.018641
0.0185647
0.0365236
0.0366486
0.0367063
0.0367323
0.0367438
0.0367492
0.0367518
0.0367534
0.0367545
0.0367554
0.0367563
0.036757
0.0367577
0.0367583
0.036759
0.0367595
0.0367601
0.0367606
0.0367611
0.0367615
0.0367619
0.0367623
0.0367626
0.0367629
0.0367631
0.0367633
0.0367635
0.0367636
0.0367637
0.0367637
0.0367637
0.0367637
0.0367636
0.0367635
0.0367633
0.0367631
0.0367629
0.0367626
0.0367623
0.0367619
0.0367615
0.0367611
0.0367606
0.0367601
0.0367595
0.036759
0.0367583
0.0367577
0.036757
0.0367563
0.0367554
0.0367545
0.0367534
0.0367518
0.0367492
0.0367438
0.0367323
0.0367063
0.0366486
0.0365236
0.0614009
0.0615729
0.0616521
0.0616877
0.0617036
0.0617109
0.0617145
0.0617167
0.0617181
0.0617193
0.0617203
0.0617213
0.0617222
0.061723
0.0617238
0.0617245
0.0617252
0.0617259
0.0617265
0.061727
0.0617275
0.061728
0.0617284
0.0617288
0.0617291
0.0617293
0.0617295
0.0617297
0.0617298
0.0617298
0.0617298
0.0617298
0.0617297
0.0617295
0.0617293
0.0617291
0.0617288
0.0617284
0.061728
0.0617275
0.061727
0.0617265
0.0617259
0.0617252
0.0617245
0.0617238
0.061723
0.0617222
0.0617213
0.0617203
0.0617193
0.0617181
0.0617167
0.0617145
0.0617109
0.0617036
0.0616877
0.0616521
0.0615729
0.0614009
0.0908206
0.0910294
0.0911252
0.0911684
0.0911877
0.0911966
0.0912009
0.0912034
0.0912051
0.0912065
0.0912077
0.0912087
0.0912097
0.0912107
0.0912115
0.0912124
0.0912131
0.0912139
0.0912145
0.0912152
0.0912157
0.0912162
0.0912167
0.0912171
0.0912174
0.0912177
0.0912179
0.0912181
0.0912182
0.0912183
0.0912183
0.0912182
0.0912181
0.0912179
0.0912177
0.0912174
0.0912171
0.0912167
0.0912162
0.0912157
0.0912152
0.0912145
0.0912139
0.0912131
0.0912124
0.0912115
0.0912107
0.0912097
0.0912087
0.0912077
0.0912065
0.0912051
0.0912034
0.0912009
0.0911966
0.0911877
0.0911684
0.0911252
0.0910294
0.0908206
0.122105
0.12234
0.122448
0.122497
0.122519
0.122529
0.122534
0.122537
0.122538
0.12254
0.122541
0.122542
0.122543
0.122544
0.122545
0.122546
0.122547
0.122548
0.122548
0.122549
0.122549
0.12255
0.12255
0.122551
0.122551
0.122551
0.122552
0.122552
0.122552
0.122552
0.122552
0.122552
0.122552
0.122552
0.122551
0.122551
0.122551
0.12255
0.12255
0.122549
0.122549
0.122548
0.122548
0.122547
0.122546
0.122545
0.122544
0.122543
0.122542
0.122541
0.12254
0.122538
0.122537
0.122534
0.122529
0.122519
0.122497
0.122448
0.12234
0.122105
0.153537
0.153792
0.15391
0.153963
0.153987
0.153998
0.154003
0.154006
0.154008
0.154009
0.154011
0.154012
0.154013
0.154014
0.154015
0.154016
0.154016
0.154017
0.154018
0.154018
0.154019
0.15402
0.15402
0.15402
0.154021
0.154021
0.154021
0.154022
0.154022
0.154022
0.154022
0.154022
0.154022
0.154021
0.154021
0.154021
0.15402
0.15402
0.15402
0.154019
0.154018
0.154018
0.154017
0.154016
0.154016
0.154015
0.154014
0.154013
0.154012
0.154011
0.154009
0.154008
0.154006
0.154003
0.153998
0.153987
0.153963
0.15391
0.153792
0.153537
0.184421
0.184694
0.18482
0.184877
0.184903
0.184914
0.18492
0.184923
0.184925
0.184927
0.184928
0.184929
0.18493
0.184931
0.184932
0.184933
0.184934
0.184934
0.184935
0.184936
0.184936
0.184937
0.184937
0.184938
0.184938
0.184938
0.184939
0.184939
0.184939
0.184939
0.184939
0.184939
0.184939
0.184939
0.184938
0.184938
0.184938
0.184937
0.184937
0.184936
0.184936
0.184935
0.184934
0.184934
0.184933
0.184932
0.184931
0.18493
0.184929
0.184928
0.184927
0.184925
0.184923
0.18492
0.184914
0.184903
0.184877
0.18482
0.184694
0.184421
0.214613
0.214901
0.215035
0.215096
0.215124
0.215137
0.215143
0.215146
0.215148
0.21515
0.215151
0.215152
0.215153
0.215154
0.215155
0.215156
0.215157
0.215157
0.215158
0.215159
0.215159
0.21516
0.21516
0.215161
0.215161
0.215161
0.215161
0.215162
0.215162
0.215162
0.215162
0.215162
0.215162
0.215161
0.215161
0.215161
0.215161
0.21516
0.21516
0.215159
0.215159
0.215158
0.215157
0.215157
0.215156
0.215155
0.215154
0.215153
0.215152
0.215151
0.21515
0.215148
0.215146
0.215143
0.215137
0.215124
0.215096
0.215035
0.214901
0.214613
0.24414
0.244443
0.244585
0.244651
0.24468
0.244694
0.244701
0.244704
0.244706
0.244708
0.244709
0.24471
0.244711
0.244712
0.244713
0.244714
0.244715
0.244715
0.244716
0.244717
0.244717
0.244718
0.244718
0.244718
0.244719
0.244719
0.244719
0.244719
0.24472
0.24472
0.24472
0.24472
0.244719
0.244719
0.244719
0.244719
0.244718
0.244718
0.244718
0.244717
0.244717
0.244716
0.244715
0.244715
0.244714
0.244713
0.244712
0.244711
0.24471
0.244709
0.244708
0.244706
0.244704
0.244701
0.244694
0.24468
0.244651
0.244585
0.244443
0.24414
0.273046
0.273363
0.273513
0.273582
0.273614
0.273628
0.273635
0.273639
0.273641
0.273643
0.273644
0.273645
0.273646
0.273647
0.273648
0.273649
0.27365
0.27365
0.273651
0.273652
0.273652
0.273653
0.273653
0.273654
0.273654
0.273654
0.273654
0.273655
0.273655
0.273655
0.273655
0.273655
0.273655
0.273654
0.273654
0.273654
0.273654
0.273653
0.273653
0.273652
0.273652
0.273651
0.27365
0.27365
0.273649
0.273648
0.273647
0.273646
0.273645
0.273644
0.273643
0.273641
0.273639
0.273635
0.273628
0.273614
0.273582
0.273513
0.273363
0.273046
0.30135
0.301679
0.301836
0.30191
0.301944
0.30196
0.301967
0.301971
0.301973
0.301975
0.301976
0.301977
0.301978
0.301979
0.30198
0.301981
0.301982
0.301982
0.301983
0.301984
0.301984
0.301985
0.301985
0.301985
0.301986
0.301986
0.301986
0.301986
0.301986
0.301986
0.301986
0.301986
0.301986
0.301986
0.301986
0.301986
0.301985
0.301985
0.301985
0.301984
0.301984
0.301983
0.301982
0.301982
0.301981
0.30198
0.301979
0.301978
0.301977
0.301976
0.301975
0.301973
0.301971
0.301967
0.30196
0.301944
0.30191
0.301836
0.301679
0.30135
0.329053
0.329394
0.329558
0.329636
0.329672
0.329689
0.329697
0.329701
0.329703
0.329705
0.329706
0.329707
0.329708
0.329709
0.32971
0.329711
0.329711
0.329712
0.329713
0.329713
0.329714
0.329714
0.329715
0.329715
0.329715
0.329716
0.329716
0.329716
0.329716
0.329716
0.329716
0.329716
0.329716
0.329716
0.329716
0.329715
0.329715
0.329715
0.329714
0.329714
0.329713
0.329713
0.329712
0.329711
0.329711
0.32971
0.329709
0.329708
0.329707
0.329706
0.329705
0.329703
0.329701
0.329697
0.329689
0.329672
0.329636
0.329558
0.329394
0.329053
0.356147
0.356498
0.356669
0.356751
0.356789
0.356807
0.356816
0.35682
0.356823
0.356824
0.356826
0.356827
0.356828
0.356829
0.356829
0.35683
0.356831
0.356831
0.356832
0.356833
0.356833
0.356834
0.356834
0.356834
0.356835
0.356835
0.356835
0.356835
0.356835
0.356835
0.356835
0.356835
0.356835
0.356835
0.356835
0.356835
0.356834
0.356834
0.356834
0.356833
0.356833
0.356832
0.356831
0.356831
0.35683
0.356829
0.356829
0.356828
0.356827
0.356826
0.356824
0.356823
0.35682
0.356816
0.356807
0.356789
0.356751
0.356669
0.356498
0.356147
0.38262
0.38298
0.383158
0.383244
0.383284
0.383303
0.383312
0.383317
0.383319
0.383321
0.383322
0.383324
0.383324
0.383325
0.383326
0.383327
0.383327
0.383328
0.383329
0.383329
0.38333
0.38333
0.383331
0.383331
0.383331
0.383331
0.383332
0.383332
0.383332
0.383332
0.383332
0.383332
0.383332
0.383332
0.383331
0.383331
0.383331
0.383331
0.38333
0.38333
0.383329
0.383329
0.383328
0.383327
0.383327
0.383326
0.383325
0.383324
0.383324
0.383322
0.383321
0.383319
0.383317
0.383312
0.383303
0.383284
0.383244
0.383158
0.38298
0.38262
0.40846
0.408827
0.409011
0.409101
0.409143
0.409163
0.409173
0.409178
0.409181
0.409183
0.409184
0.409185
0.409186
0.409187
0.409187
0.409188
0.409189
0.409189
0.40919
0.40919
0.409191
0.409191
0.409192
0.409192
0.409192
0.409193
0.409193
0.409193
0.409193
0.409193
0.409193
0.409193
0.409193
0.409193
0.409193
0.409192
0.409192
0.409192
0.409191
0.409191
0.40919
0.40919
0.409189
0.409189
0.409188
0.409187
0.409187
0.409186
0.409185
0.409184
0.409183
0.409181
0.409178
0.409173
0.409163
0.409143
0.409101
0.409011
0.408827
0.40846
0.433653
0.434027
0.434217
0.43431
0.434355
0.434376
0.434386
0.434392
0.434395
0.434397
0.434398
0.434399
0.4344
0.434401
0.434401
0.434402
0.434403
0.434403
0.434404
0.434404
0.434405
0.434405
0.434405
0.434406
0.434406
0.434406
0.434407
0.434407
0.434407
0.434407
0.434407
0.434407
0.434407
0.434407
0.434406
0.434406
0.434406
0.434405
0.434405
0.434405
0.434404
0.434404
0.434403
0.434403
0.434402
0.434401
0.434401
0.4344
0.434399
0.434398
0.434397
0.434395
0.434392
0.434386
0.434376
0.434355
0.43431
0.434217
0.434027
0.433653
0.45819
0.458569
0.458764
0.458861
0.458908
0.458931
0.458942
0.458948
0.458951
0.458953
0.458954
0.458955
0.458956
0.458957
0.458957
0.458958
0.458958
0.458959
0.45896
0.45896
0.45896
0.458961
0.458961
0.458962
0.458962
0.458962
0.458962
0.458962
0.458962
0.458962
0.458962
0.458962
0.458962
0.458962
0.458962
0.458962
0.458962
0.458961
0.458961
0.45896
0.45896
0.45896
0.458959
0.458958
0.458958
0.458957
0.458957
0.458956
0.458955
0.458954
0.458953
0.458951
0.458948
0.458942
0.458931
0.458908
0.458861
0.458764
0.458569
0.45819
0.482062
0.482445
0.482645
0.482746
0.482795
0.482819
0.482831
0.482837
0.48284
0.482842
0.482843
0.482844
0.482845
0.482846
0.482846
0.482847
0.482848
0.482848
0.482849
0.482849
0.48285
0.48285
0.48285
0.482851
0.482851
0.482851
0.482851
0.482851
0.482851
0.482851
0.482851
0.482851
0.482851
0.482851
0.482851
0.482851
0.482851
0.48285
0.48285
0.48285
0.482849
0.482849
0.482848
0.482848
0.482847
0.482846
0.482846
0.482845
0.482844
0.482843
0.482842
0.48284
0.482837
0.482831
0.482819
0.482795
0.482746
0.482645
0.482445
0.482062
0.505262
0.505648
0.505853
0.505957
0.506008
0.506033
0.506046
0.506052
0.506056
0.506058
0.506059
0.50606
0.506061
0.506061
0.506062
0.506063
0.506063
0.506064
0.506064
0.506065
0.506065
0.506065
0.506066
0.506066
0.506066
0.506066
0.506067
0.506067
0.506067
0.506067
0.506067
0.506067
0.506067
0.506067
0.506066
0.506066
0.506066
0.506066
0.506065
0.506065
0.506065
0.506064
0.506064
0.506063
0.506063
0.506062
0.506061
0.506061
0.50606
0.506059
0.506058
0.506056
0.506052
0.506046
0.506033
0.506008
0.505957
0.505853
0.505648
0.505262
0.527786
0.528173
0.528382
0.528489
0.528543
0.528569
0.528583
0.528589
0.528593
0.528595
0.528596
0.528597
0.528598
0.528599
0.528599
0.5286
0.5286
0.528601
0.528601
0.528602
0.528602
0.528602
0.528603
0.528603
0.528603
0.528603
0.528604
0.528604
0.528604
0.528604
0.528604
0.528604
0.528604
0.528604
0.528603
0.528603
0.528603
0.528603
0.528602
0.528602
0.528602
0.528601
0.528601
0.5286
0.5286
0.528599
0.528599
0.528598
0.528597
0.528596
0.528595
0.528593
0.528589
0.528583
0.528569
0.528543
0.528489
0.528382
0.528173
0.527786
0.549629
0.550018
0.55023
0.55034
0.550396
0.550424
0.550438
0.550445
0.550449
0.550451
0.550452
0.550453
0.550454
0.550455
0.550455
0.550456
0.550456
0.550457
0.550457
0.550457
0.550458
0.550458
0.550458
0.550459
0.550459
0.550459
0.550459
0.550459
0.550459
0.550459
0.550459
0.550459
0.550459
0.550459
0.550459
0.550459
0.550459
0.550458
0.550458
0.550458
0.550457
0.550457
0.550457
0.550456
0.550456
0.550455
0.550455
0.550454
0.550453
0.550452
0.550451
0.550449
0.550445
0.550438
0.550424
0.550396
0.55034
0.55023
0.550018
0.549629
0.570792
0.57118
0.571395
0.571509
0.571567
0.571596
0.57161
0.571618
0.571622
0.571624
0.571625
0.571626
0.571627
0.571628
0.571628
0.571629
0.571629
0.57163
0.57163
0.57163
0.571631
0.571631
0.571631
0.571632
0.571632
0.571632
0.571632
0.571632
0.571632
0.571632
0.571632
0.571632
0.571632
0.571632
0.571632
0.571632
0.571632
0.571631
0.571631
0.571631
0.57163
0.57163
0.57163
0.571629
0.571629
0.571628
0.571628
0.571627
0.571626
0.571625
0.571624
0.571622
0.571618
0.57161
0.571596
0.571567
0.571509
0.571395
0.57118
0.570792
0.591273
0.591661
0.591879
0.591995
0.592055
0.592085
0.592101
0.592109
0.592113
0.592115
0.592117
0.592118
0.592118
0.592119
0.59212
0.59212
0.59212
0.592121
0.592121
0.592122
0.592122
0.592122
0.592122
0.592123
0.592123
0.592123
0.592123
0.592123
0.592123
0.592123
0.592123
0.592123
0.592123
0.592123
0.592123
0.592123
0.592123
0.592122
0.592122
0.592122
0.592122
0.592121
0.592121
0.59212
0.59212
0.59212
0.592119
0.592118
0.592118
0.592117
0.592115
0.592113
0.592109
0.592101
0.592085
0.592055
0.591995
0.591879
0.591661
0.591273
0.611077
0.611463
0.611683
0.611801
0.611863
0.611895
0.611911
0.61192
0.611924
0.611927
0.611928
0.611929
0.61193
0.61193
0.611931
0.611931
0.611932
0.611932
0.611933
0.611933
0.611933
0.611933
0.611934
0.611934
0.611934
0.611934
0.611934
0.611934
0.611934
0.611934
0.611934
0.611934
0.611934
0.611934
0.611934
0.611934
0.611934
0.611934
0.611933
0.611933
0.611933
0.611933
0.611932
0.611932
0.611931
0.611931
0.61193
0.61193
0.611929
0.611928
0.611927
0.611924
0.61192
0.611911
0.611895
0.611863
0.611801
0.611683
0.611463
0.611077
0.630206
0.630589
0.630811
0.630932
0.630996
0.631029
0.631046
0.631055
0.63106
0.631062
0.631064
0.631065
0.631065
0.631066
0.631066
0.631067
0.631067
0.631068
0.631068
0.631068
0.631068
0.631069
0.631069
0.631069
0.631069
0.631069
0.63107
0.63107
0.63107
0.63107
0.63107
0.63107
0.63107
0.63107
0.631069
0.631069
0.631069
0.631069
0.631069
0.631068
0.631068
0.631068
0.631068
0.631067
0.631067
0.631066
0.631066
0.631065
0.631065
0.631064
0.631062
0.63106
0.631055
0.631046
0.631029
0.630996
0.630932
0.630811
0.630589
0.630206
0.648666
0.649046
0.649268
0.649392
0.649458
0.649492
0.64951
0.649519
0.649524
0.649527
0.649529
0.64953
0.64953
0.649531
0.649531
0.649532
0.649532
0.649532
0.649533
0.649533
0.649533
0.649533
0.649534
0.649534
0.649534
0.649534
0.649534
0.649534
0.649534
0.649534
0.649534
0.649534
0.649534
0.649534
0.649534
0.649534
0.649534
0.649534
0.649533
0.649533
0.649533
0.649533
0.649532
0.649532
0.649532
0.649531
0.649531
0.64953
0.64953
0.649529
0.649527
0.649524
0.649519
0.64951
0.649492
0.649458
0.649392
0.649268
0.649046
0.648666
0.666463
0.666839
0.667062
0.667187
0.667255
0.667291
0.66731
0.66732
0.667325
0.667328
0.667329
0.66733
0.667331
0.667332
0.667332
0.667332
0.667333
0.667333
0.667333
0.667333
0.667334
0.667334
0.667334
0.667334
0.667334
0.667334
0.667334
0.667335
0.667335
0.667335
0.667335
0.667335
0.667335
0.667334
0.667334
0.667334
0.667334
0.667334
0.667334
0.667334
0.667333
0.667333
0.667333
0.667333
0.667332
0.667332
0.667332
0.667331
0.66733
0.667329
0.667328
0.667325
0.66732
0.66731
0.667291
0.667255
0.667187
0.667062
0.666839
0.666463
0.683606
0.683976
0.6842
0.684327
0.684396
0.684434
0.684453
0.684464
0.684469
0.684472
0.684474
0.684475
0.684476
0.684476
0.684476
0.684477
0.684477
0.684477
0.684477
0.684478
0.684478
0.684478
0.684478
0.684478
0.684478
0.684479
0.684479
0.684479
0.684479
0.684479
0.684479
0.684479
0.684479
0.684479
0.684479
0.684478
0.684478
0.684478
0.684478