/*--------------------------------*- C++ -*----------------------------------*\
| =========                 |                                                 |
| \\      /  F ield         | foam-extend: Open Source CFD                    |
|  \\    /   O peration     | Version:     4.0                                |
|   \\  /    A nd           | Web:         http://www.foam-extend.org         |
|    \\/     M anipulation  |                                                 |
\*---------------------------------------------------------------------------*/
FoamFile
{
    version     2.0;
    format      ascii;
    class       volScalarField;
    location    "450";
    object      cPlus;
}
// * * * * * * * * * * * * * * * * * * * * * * * * * * * * * * * * * * * * * //

dimensions      [0 0 0 0 0 0 0];

internalField   nonuniform List<scalar> 
6960
(
0.186106
0.18602
0.185974
0.185953
0.185943
0.18594
0.185938
0.185937
0.185937
0.185937
0.185937
0.185937
0.185937
0.185937
0.185937
0.185937
0.185937
0.185937
0.185938
0.185938
0.185938
0.185938
0.185938
0.185938
0.185938
0.185938
0.185938
0.185938
0.185938
0.185938
0.185938
0.185938
0.185938
0.185938
0.185938
0.185938
0.185938
0.185938
0.185938
0.185938
0.185938
0.185938
0.185937
0.185937
0.185937
0.185937
0.185937
0.185937
0.185937
0.185937
0.185937
0.185937
0.185937
0.185938
0.18594
0.185943
0.185953
0.185974
0.18602
0.186106
0.047563
0.0475479
0.0475387
0.0475344
0.0475326
0.0475318
0.0475315
0.0475314
0.0475314
0.0475314
0.0475315
0.0475316
0.0475316
0.0475317
0.0475317
0.0475318
0.0475318
0.0475319
0.0475319
0.047532
0.047532
0.047532
0.0475321
0.0475321
0.0475321
0.0475321
0.0475322
0.0475322
0.0475322
0.0475322
0.0475322
0.0475322
0.0475322
0.0475322
0.0475321
0.0475321
0.0475321
0.0475321
0.047532
0.047532
0.047532
0.0475319
0.0475319
0.0475318
0.0475318
0.0475317
0.0475317
0.0475316
0.0475316
0.0475315
0.0475314
0.0475314
0.0475314
0.0475315
0.0475318
0.0475326
0.0475344
0.0475387
0.0475479
0.047563
0.0287969
0.0288055
0.0288087
0.02881
0.0288106
0.0288109
0.028811
0.0288111
0.0288112
0.0288112
0.0288113
0.0288114
0.0288114
0.0288115
0.0288115
0.0288116
0.0288116
0.0288116
0.0288117
0.0288117
0.0288117
0.0288118
0.0288118
0.0288118
0.0288118
0.0288118
0.0288119
0.0288119
0.0288119
0.0288119
0.0288119
0.0288119
0.0288119
0.0288119
0.0288118
0.0288118
0.0288118
0.0288118
0.0288118
0.0288117
0.0288117
0.0288117
0.0288116
0.0288116
0.0288116
0.0288115
0.0288115
0.0288114
0.0288114
0.0288113
0.0288112
0.0288112
0.0288111
0.028811
0.0288109
0.0288106
0.02881
0.0288087
0.0288055
0.0287969
0.0265477
0.0265622
0.0265684
0.0265711
0.0265723
0.0265728
0.0265731
0.0265732
0.0265733
0.0265734
0.0265734
0.0265735
0.0265736
0.0265736
0.0265736
0.0265737
0.0265737
0.0265738
0.0265738
0.0265738
0.0265739
0.0265739
0.0265739
0.0265739
0.0265739
0.026574
0.026574
0.026574
0.026574
0.026574
0.026574
0.026574
0.026574
0.026574
0.026574
0.0265739
0.0265739
0.0265739
0.0265739
0.0265739
0.0265738
0.0265738
0.0265738
0.0265737
0.0265737
0.0265736
0.0265736
0.0265736
0.0265735
0.0265734
0.0265734
0.0265733
0.0265732
0.0265731
0.0265728
0.0265723
0.0265711
0.0265684
0.0265622
0.0265477
0.0267018
0.0267178
0.0267248
0.0267279
0.0267293
0.0267299
0.0267301
0.0267303
0.0267304
0.0267305
0.0267305
0.0267306
0.0267306
0.0267307
0.0267307
0.0267308
0.0267308
0.0267309
0.0267309
0.0267309
0.026731
0.026731
0.026731
0.026731
0.026731
0.0267311
0.0267311
0.0267311
0.0267311
0.0267311
0.0267311
0.0267311
0.0267311
0.0267311
0.0267311
0.026731
0.026731
0.026731
0.026731
0.026731
0.0267309
0.0267309
0.0267309
0.0267308
0.0267308
0.0267307
0.0267307
0.0267306
0.0267306
0.0267305
0.0267305
0.0267304
0.0267303
0.0267301
0.0267299
0.0267293
0.0267279
0.0267248
0.0267178
0.0267018
0.0272407
0.0272575
0.0272649
0.0272682
0.0272696
0.0272702
0.0272705
0.0272707
0.0272708
0.0272709
0.0272709
0.027271
0.027271
0.0272711
0.0272711
0.0272712
0.0272712
0.0272713
0.0272713
0.0272713
0.0272714
0.0272714
0.0272714
0.0272714
0.0272715
0.0272715
0.0272715
0.0272715
0.0272715
0.0272715
0.0272715
0.0272715
0.0272715
0.0272715
0.0272715
0.0272715
0.0272714
0.0272714
0.0272714
0.0272714
0.0272713
0.0272713
0.0272713
0.0272712
0.0272712
0.0272711
0.0272711
0.027271
0.027271
0.0272709
0.0272709
0.0272708
0.0272707
0.0272705
0.0272702
0.0272696
0.0272682
0.0272649
0.0272575
0.0272407
0.0278883
0.0279059
0.0279136
0.027917
0.0279185
0.0279192
0.0279195
0.0279197
0.0279198
0.0279198
0.0279199
0.02792
0.02792
0.0279201
0.0279201
0.0279202
0.0279202
0.0279203
0.0279203
0.0279204
0.0279204
0.0279204
0.0279204
0.0279205
0.0279205
0.0279205
0.0279205
0.0279205
0.0279205
0.0279205
0.0279205
0.0279205
0.0279205
0.0279205
0.0279205
0.0279205
0.0279205
0.0279204
0.0279204
0.0279204
0.0279204
0.0279203
0.0279203
0.0279202
0.0279202
0.0279201
0.0279201
0.02792
0.02792
0.0279199
0.0279198
0.0279198
0.0279197
0.0279195
0.0279192
0.0279185
0.027917
0.0279136
0.0279059
0.0278883
0.0286165
0.0286349
0.0286429
0.0286465
0.028648
0.0286487
0.028649
0.0286492
0.0286493
0.0286494
0.0286495
0.0286496
0.0286496
0.0286497
0.0286497
0.0286498
0.0286498
0.0286499
0.0286499
0.02865
0.02865
0.02865
0.0286501
0.0286501
0.0286501
0.0286501
0.0286501
0.0286501
0.0286502
0.0286502
0.0286502
0.0286502
0.0286501
0.0286501
0.0286501
0.0286501
0.0286501
0.0286501
0.02865
0.02865
0.02865
0.0286499
0.0286499
0.0286498
0.0286498
0.0286497
0.0286497
0.0286496
0.0286496
0.0286495
0.0286494
0.0286493
0.0286492
0.028649
0.0286487
0.028648
0.0286465
0.0286429
0.0286349
0.0286165
0.0294332
0.0294525
0.0294609
0.0294647
0.0294663
0.029467
0.0294674
0.0294676
0.0294677
0.0294678
0.0294679
0.0294679
0.029468
0.0294681
0.0294681
0.0294682
0.0294682
0.0294683
0.0294683
0.0294683
0.0294684
0.0294684
0.0294684
0.0294685
0.0294685
0.0294685
0.0294685
0.0294685
0.0294685
0.0294685
0.0294685
0.0294685
0.0294685
0.0294685
0.0294685
0.0294685
0.0294685
0.0294684
0.0294684
0.0294684
0.0294683
0.0294683
0.0294683
0.0294682
0.0294682
0.0294681
0.0294681
0.029468
0.0294679
0.0294679
0.0294678
0.0294677
0.0294676
0.0294674
0.029467
0.0294663
0.0294647
0.0294609
0.0294525
0.0294332
0.0303545
0.0303749
0.0303838
0.0303878
0.0303895
0.0303903
0.0303906
0.0303908
0.030391
0.0303911
0.0303911
0.0303912
0.0303913
0.0303914
0.0303914
0.0303915
0.0303915
0.0303916
0.0303916
0.0303917
0.0303917
0.0303917
0.0303918
0.0303918
0.0303918
0.0303918
0.0303919
0.0303919
0.0303919
0.0303919
0.0303919
0.0303919
0.0303919
0.0303919
0.0303918
0.0303918
0.0303918
0.0303918
0.0303917
0.0303917
0.0303917
0.0303916
0.0303916
0.0303915
0.0303915
0.0303914
0.0303914
0.0303913
0.0303912
0.0303911
0.0303911
0.030391
0.0303908
0.0303906
0.0303903
0.0303895
0.0303878
0.0303838
0.0303749
0.0303545
0.031402
0.0314236
0.0314331
0.0314373
0.0314392
0.03144
0.0314404
0.0314406
0.0314407
0.0314408
0.0314409
0.031441
0.0314411
0.0314412
0.0314412
0.0314413
0.0314413
0.0314414
0.0314415
0.0314415
0.0314415
0.0314416
0.0314416
0.0314416
0.0314417
0.0314417
0.0314417
0.0314417
0.0314417
0.0314417
0.0314417
0.0314417
0.0314417
0.0314417
0.0314417
0.0314417
0.0314416
0.0314416
0.0314416
0.0314415
0.0314415
0.0314415
0.0314414
0.0314413
0.0314413
0.0314412
0.0314412
0.0314411
0.031441
0.0314409
0.0314408
0.0314407
0.0314406
0.0314404
0.03144
0.0314392
0.0314373
0.0314331
0.0314236
0.031402
0.0326038
0.032627
0.0326371
0.0326416
0.0326436
0.0326445
0.0326449
0.0326451
0.0326453
0.0326454
0.0326455
0.0326456
0.0326456
0.0326457
0.0326458
0.0326459
0.0326459
0.032646
0.032646
0.0326461
0.0326461
0.0326462
0.0326462
0.0326462
0.0326463
0.0326463
0.0326463
0.0326463
0.0326463
0.0326463
0.0326463
0.0326463
0.0326463
0.0326463
0.0326463
0.0326463
0.0326462
0.0326462
0.0326462
0.0326461
0.0326461
0.032646
0.032646
0.0326459
0.0326459
0.0326458
0.0326457
0.0326456
0.0326456
0.0326455
0.0326454
0.0326453
0.0326451
0.0326449
0.0326445
0.0326436
0.0326416
0.0326371
0.032627
0.0326038
0.0339975
0.0340225
0.0340335
0.0340383
0.0340404
0.0340414
0.0340419
0.0340421
0.0340423
0.0340424
0.0340425
0.0340426
0.0340427
0.0340428
0.0340429
0.0340429
0.034043
0.0340431
0.0340431
0.0340432
0.0340432
0.0340433
0.0340433
0.0340434
0.0340434
0.0340434
0.0340434
0.0340435
0.0340435
0.0340435
0.0340435
0.0340435
0.0340435
0.0340434
0.0340434
0.0340434
0.0340434
0.0340433
0.0340433
0.0340432
0.0340432
0.0340431
0.0340431
0.034043
0.0340429
0.0340429
0.0340428
0.0340427
0.0340426
0.0340425
0.0340424
0.0340423
0.0340421
0.0340419
0.0340414
0.0340404
0.0340383
0.0340335
0.0340225
0.0339975
0.0356345
0.0356617
0.0356737
0.035679
0.0356813
0.0356823
0.0356828
0.0356831
0.0356833
0.0356835
0.0356836
0.0356837
0.0356838
0.0356839
0.035684
0.0356841
0.0356841
0.0356842
0.0356843
0.0356843
0.0356844
0.0356844
0.0356845
0.0356845
0.0356846
0.0356846
0.0356846
0.0356846
0.0356846
0.0356846
0.0356846
0.0356846
0.0356846
0.0356846
0.0356846
0.0356846
0.0356845
0.0356845
0.0356844
0.0356844
0.0356843
0.0356843
0.0356842
0.0356841
0.0356841
0.035684
0.0356839
0.0356838
0.0356837
0.0356836
0.0356835
0.0356833
0.0356831
0.0356828
0.0356823
0.0356813
0.035679
0.0356737
0.0356617
0.0356345
0.0375867
0.0376168
0.03763
0.0376359
0.0376385
0.0376396
0.0376402
0.0376405
0.0376407
0.0376409
0.037641
0.0376411
0.0376412
0.0376413
0.0376414
0.0376415
0.0376416
0.0376417
0.0376418
0.0376418
0.0376419
0.037642
0.037642
0.0376421
0.0376421
0.0376421
0.0376422
0.0376422
0.0376422
0.0376422
0.0376422
0.0376422
0.0376422
0.0376422
0.0376421
0.0376421
0.0376421
0.037642
0.037642
0.0376419
0.0376418
0.0376418
0.0376417
0.0376416
0.0376415
0.0376414
0.0376413
0.0376412
0.0376411
0.037641
0.0376409
0.0376407
0.0376405
0.0376402
0.0376396
0.0376385
0.0376359
0.03763
0.0376168
0.0375867
0.0399584
0.0399922
0.0400071
0.0400137
0.0400166
0.0400179
0.0400185
0.0400189
0.0400191
0.0400193
0.0400195
0.0400196
0.0400197
0.0400198
0.04002
0.0400201
0.0400202
0.0400203
0.0400204
0.0400204
0.0400205
0.0400206
0.0400206
0.0400207
0.0400207
0.0400208
0.0400208
0.0400208
0.0400208
0.0400208
0.0400208
0.0400208
0.0400208
0.0400208
0.0400208
0.0400207
0.0400207
0.0400206
0.0400206
0.0400205
0.0400204
0.0400204
0.0400203
0.0400202
0.0400201
0.04002
0.0400198
0.0400197
0.0400196
0.0400195
0.0400193
0.0400191
0.0400189
0.0400185
0.0400179
0.0400166
0.0400137
0.0400071
0.0399922
0.0399584
0.0429052
0.042944
0.0429611
0.0429687
0.042972
0.0429735
0.0429743
0.0429747
0.042975
0.0429752
0.0429754
0.0429755
0.0429757
0.0429758
0.042976
0.0429761
0.0429762
0.0429763
0.0429764
0.0429765
0.0429766
0.0429767
0.0429768
0.0429768
0.0429769
0.0429769
0.042977
0.042977
0.042977
0.042977
0.042977
0.042977
0.042977
0.042977
0.0429769
0.0429769
0.0429768
0.0429768
0.0429767
0.0429766
0.0429765
0.0429764
0.0429763
0.0429762
0.0429761
0.042976
0.0429758
0.0429757
0.0429755
0.0429754
0.0429752
0.042975
0.0429747
0.0429743
0.0429735
0.042972
0.0429687
0.0429611
0.042944
0.0429052
0.0466653
0.046711
0.0467312
0.0467402
0.0467441
0.0467459
0.0467468
0.0467473
0.0467476
0.0467479
0.0467481
0.0467483
0.0467485
0.0467487
0.0467489
0.046749
0.0467492
0.0467493
0.0467494
0.0467495
0.0467496
0.0467497
0.0467498
0.0467499
0.04675
0.04675
0.0467501
0.0467501
0.0467501
0.0467501
0.0467501
0.0467501
0.0467501
0.0467501
0.04675
0.04675
0.0467499
0.0467498
0.0467497
0.0467496
0.0467495
0.0467494
0.0467493
0.0467492
0.046749
0.0467489
0.0467487
0.0467485
0.0467483
0.0467481
0.0467479
0.0467476
0.0467473
0.0467468
0.0467459
0.0467441
0.0467402
0.0467312
0.046711
0.0466653
0.0516042
0.0516597
0.0516844
0.0516953
0.0517002
0.0517024
0.0517035
0.0517041
0.0517045
0.0517048
0.0517051
0.0517054
0.0517056
0.0517058
0.051706
0.0517062
0.0517064
0.0517066
0.0517068
0.0517069
0.051707
0.0517072
0.0517073
0.0517074
0.0517074
0.0517075
0.0517076
0.0517076
0.0517076
0.0517076
0.0517076
0.0517076
0.0517076
0.0517076
0.0517075
0.0517074
0.0517074
0.0517073
0.0517072
0.051707
0.0517069
0.0517068
0.0517066
0.0517064
0.0517062
0.051706
0.0517058
0.0517056
0.0517054
0.0517051
0.0517048
0.0517045
0.0517041
0.0517035
0.0517024
0.0517002
0.0516953
0.0516844
0.0516597
0.0516042
0.0582606
0.0583303
0.0583613
0.0583752
0.0583813
0.0583841
0.0583855
0.0583863
0.0583868
0.0583872
0.0583876
0.0583879
0.0583882
0.0583885
0.0583888
0.058389
0.0583893
0.0583895
0.0583897
0.0583899
0.0583901
0.0583902
0.0583903
0.0583905
0.0583906
0.0583907
0.0583907
0.0583908
0.0583908
0.0583908
0.0583908
0.0583908
0.0583908
0.0583907
0.0583907
0.0583906
0.0583905
0.0583903
0.0583902
0.0583901
0.0583899
0.0583897
0.0583895
0.0583893
0.058389
0.0583888
0.0583885
0.0583882
0.0583879
0.0583876
0.0583872
0.0583868
0.0583863
0.0583855
0.0583841
0.0583813
0.0583752
0.0583613
0.0583303
0.0582606
0.0673489
0.0674383
0.0674784
0.0674963
0.0675042
0.0675078
0.0675096
0.0675106
0.0675113
0.0675119
0.0675123
0.0675128
0.0675132
0.0675135
0.0675139
0.0675142
0.0675145
0.0675148
0.0675151
0.0675153
0.0675156
0.0675158
0.0675159
0.0675161
0.0675162
0.0675163
0.0675164
0.0675165
0.0675166
0.0675166
0.0675166
0.0675166
0.0675165
0.0675164
0.0675163
0.0675162
0.0675161
0.0675159
0.0675158
0.0675156
0.0675153
0.0675151
0.0675148
0.0675145
0.0675142
0.0675139
0.0675135
0.0675132
0.0675128
0.0675123
0.0675119
0.0675113
0.0675106
0.0675096
0.0675078
0.0675042
0.0674963
0.0674784
0.0674383
0.0673489
0.0796443
0.0797596
0.0798115
0.0798347
0.0798451
0.0798498
0.0798521
0.0798534
0.0798543
0.079855
0.0798556
0.0798562
0.0798567
0.0798571
0.0798576
0.079858
0.0798584
0.0798588
0.0798591
0.0798595
0.0798598
0.07986
0.0798602
0.0798605
0.0798606
0.0798608
0.0798609
0.079861
0.079861
0.0798611
0.0798611
0.079861
0.079861
0.0798609
0.0798608
0.0798606
0.0798605
0.0798602
0.07986
0.0798598
0.0798595
0.0798591
0.0798588
0.0798584
0.079858
0.0798576
0.0798571
0.0798567
0.0798562
0.0798556
0.079855
0.0798543
0.0798534
0.0798521
0.0798498
0.0798451
0.0798347
0.0798115
0.0797596
0.0796443
0.0957203
0.0958664
0.0959323
0.0959619
0.0959751
0.0959811
0.0959841
0.0959858
0.0959869
0.0959878
0.0959885
0.0959892
0.0959899
0.0959905
0.095991
0.0959916
0.0959921
0.0959925
0.095993
0.0959933
0.0959937
0.095994
0.0959943
0.0959946
0.0959948
0.095995
0.0959951
0.0959952
0.0959953
0.0959953
0.0959953
0.0959953
0.0959952
0.0959951
0.095995
0.0959948
0.0959946
0.0959943
0.095994
0.0959937
0.0959933
0.095993
0.0959925
0.0959921
0.0959916
0.095991
0.0959905
0.0959899
0.0959892
0.0959885
0.0959878
0.0959869
0.0959858
0.0959841
0.0959811
0.0959751
0.0959619
0.0959323
0.0958664
0.0957203
0.115655
0.115833
0.115914
0.115951
0.115967
0.115975
0.115978
0.11598
0.115982
0.115983
0.115984
0.115984
0.115985
0.115986
0.115987
0.115987
0.115988
0.115988
0.115989
0.115989
0.11599
0.11599
0.115991
0.115991
0.115991
0.115991
0.115991
0.115992
0.115992
0.115992
0.115992
0.115992
0.115992
0.115991
0.115991
0.115991
0.115991
0.115991
0.11599
0.11599
0.115989
0.115989
0.115988
0.115988
0.115987
0.115987
0.115986
0.115985
0.115984
0.115984
0.115983
0.115982
0.11598
0.115978
0.115975
0.115967
0.115951
0.115914
0.115833
0.115655
0.138933
0.139143
0.139239
0.139282
0.139301
0.13931
0.139315
0.139317
0.139318
0.13932
0.139321
0.139322
0.139322
0.139323
0.139324
0.139325
0.139325
0.139326
0.139327
0.139327
0.139328
0.139328
0.139328
0.139329
0.139329
0.139329
0.139329
0.13933
0.13933
0.13933
0.13933
0.13933
0.13933
0.139329
0.139329
0.139329
0.139329
0.139328
0.139328
0.139328
0.139327
0.139327
0.139326
0.139325
0.139325
0.139324
0.139323
0.139322
0.139322
0.139321
0.13932
0.139318
0.139317
0.139315
0.13931
0.139301
0.139282
0.139239
0.139143
0.138933
0.16465
0.164888
0.164997
0.165047
0.165069
0.165079
0.165084
0.165086
0.165088
0.165089
0.165091
0.165092
0.165092
0.165093
0.165094
0.165095
0.165096
0.165096
0.165097
0.165097
0.165098
0.165098
0.165099
0.165099
0.165099
0.1651
0.1651
0.1651
0.1651
0.1651
0.1651
0.1651
0.1651
0.1651
0.1651
0.165099
0.165099
0.165099
0.165098
0.165098
0.165097
0.165097
0.165096
0.165096
0.165095
0.165094
0.165093
0.165092
0.165092
0.165091
0.165089
0.165088
0.165086
0.165084
0.165079
0.165069
0.165047
0.164997
0.164888
0.16465
0.191849
0.19211
0.192231
0.192285
0.19231
0.192321
0.192327
0.19233
0.192332
0.192333
0.192334
0.192335
0.192336
0.192337
0.192338
0.192339
0.192339
0.19234
0.192341
0.192341
0.192342
0.192342
0.192343
0.192343
0.192344
0.192344
0.192344
0.192344
0.192344
0.192344
0.192344
0.192344
0.192344
0.192344
0.192344
0.192344
0.192343
0.192343
0.192342
0.192342
0.192341
0.192341
0.19234
0.192339
0.192339
0.192338
0.192337
0.192336
0.192335
0.192334
0.192333
0.192332
0.19233
0.192327
0.192321
0.19231
0.192285
0.192231
0.19211
0.191849
0.219758
0.220039
0.22017
0.22023
0.220257
0.220269
0.220275
0.220278
0.22028
0.220282
0.220283
0.220284
0.220285
0.220286
0.220287
0.220288
0.220289
0.220289
0.22029
0.22029
0.220291
0.220291
0.220292
0.220292
0.220293
0.220293
0.220293
0.220293
0.220293
0.220293
0.220293
0.220293
0.220293
0.220293
0.220293
0.220293
0.220292
0.220292
0.220291
0.220291
0.22029
0.22029
0.220289
0.220289
0.220288
0.220287
0.220286
0.220285
0.220284
0.220283
0.220282
0.22028
0.220278
0.220275
0.220269
0.220257
0.22023
0.22017
0.220039
0.219758
0.24786
0.248159
0.248299
0.248363
0.248393
0.248406
0.248413
0.248416
0.248418
0.24842
0.248421
0.248422
0.248423
0.248424
0.248425
0.248426
0.248426
0.248427
0.248428
0.248428
0.248429
0.248429
0.24843
0.24843
0.248431
0.248431
0.248431
0.248431
0.248431
0.248431
0.248431
0.248431
0.248431
0.248431
0.248431
0.248431
0.24843
0.24843
0.248429
0.248429
0.248428
0.248428
0.248427
0.248426
0.248426
0.248425
0.248424
0.248423
0.248422
0.248421
0.24842
0.248418
0.248416
0.248413
0.248406
0.248393
0.248363
0.248299
0.248159
0.24786
0.275841
0.276155
0.276304
0.276373
0.276404
0.276419
0.276426
0.276429
0.276432
0.276433
0.276434
0.276435
0.276436
0.276437
0.276438
0.276439
0.27644
0.27644
0.276441
0.276442
0.276442
0.276443
0.276443
0.276443
0.276444
0.276444
0.276444
0.276444
0.276445
0.276445
0.276445
0.276445
0.276444
0.276444
0.276444
0.276444
0.276443
0.276443
0.276443
0.276442
0.276442
0.276441
0.27644
0.27644
0.276439
0.276438
0.276437
0.276436
0.276435
0.276434
0.276433
0.276432
0.276429
0.276426
0.276419
0.276404
0.276373
0.276304
0.276155
0.275841
0.303515
0.303843
0.304
0.304073
0.304106
0.304122
0.304129
0.304133
0.304136
0.304137
0.304139
0.30414
0.304141
0.304142
0.304142
0.304143
0.304144
0.304145
0.304145
0.304146
0.304146
0.304147
0.304147
0.304148
0.304148
0.304148
0.304148
0.304149
0.304149
0.304149
0.304149
0.304149
0.304149
0.304148
0.304148
0.304148
0.304148
0.304147
0.304147
0.304146
0.304146
0.304145
0.304145
0.304144
0.304143
0.304142
0.304142
0.304141
0.30414
0.304139
0.304137
0.304136
0.304133
0.304129
0.304122
0.304106
0.304073
0.304
0.303843
0.303515
0.330771
0.331111
0.331275
0.331352
0.331388
0.331404
0.331412
0.331417
0.331419
0.331421
0.331422
0.331423
0.331424
0.331425
0.331426
0.331426
0.331427
0.331428
0.331428
0.331429
0.33143
0.33143
0.33143
0.331431
0.331431
0.331431
0.331432
0.331432
0.331432
0.331432
0.331432
0.331432
0.331432
0.331432
0.331431
0.331431
0.331431
0.33143
0.33143
0.33143
0.331429
0.331428
0.331428
0.331427
0.331426
0.331426
0.331425
0.331424
0.331423
0.331422
0.331421
0.331419
0.331417
0.331412
0.331404
0.331388
0.331352
0.331275
0.331111
0.330771
0.357536
0.357885
0.358057
0.358138
0.358176
0.358194
0.358202
0.358207
0.358209
0.358211
0.358212
0.358213
0.358214
0.358215
0.358216
0.358217
0.358217
0.358218
0.358219
0.358219
0.35822
0.35822
0.358221
0.358221
0.358221
0.358222
0.358222
0.358222
0.358222
0.358222
0.358222
0.358222
0.358222
0.358222
0.358222
0.358221
0.358221
0.358221
0.35822
0.35822
0.358219
0.358219
0.358218
0.358217
0.358217
0.358216
0.358215
0.358214
0.358213
0.358212
0.358211
0.358209
0.358207
0.358202
0.358194
0.358176
0.358138
0.358057
0.357885
0.357536
0.383759
0.384118
0.384296
0.384381
0.384421
0.38444
0.38445
0.384454
0.384457
0.384459
0.38446
0.384461
0.384462
0.384463
0.384464
0.384464
0.384465
0.384466
0.384466
0.384467
0.384467
0.384468
0.384468
0.384468
0.384469
0.384469
0.384469
0.384469
0.384469
0.384469
0.384469
0.384469
0.384469
0.384469
0.384469
0.384469
0.384468
0.384468
0.384468
0.384467
0.384467
0.384466
0.384466
0.384465
0.384464
0.384464
0.384463
0.384462
0.384461
0.38446
0.384459
0.384457
0.384454
0.38445
0.38444
0.384421
0.384381
0.384296
0.384118
0.383759
0.409405
0.409772
0.409956
0.410045
0.410088
0.410108
0.410118
0.410122
0.410125
0.410127
0.410128
0.410129
0.41013
0.410131
0.410132
0.410133
0.410133
0.410134
0.410134
0.410135
0.410135
0.410136
0.410136
0.410137
0.410137
0.410137
0.410137
0.410137
0.410138
0.410138
0.410138
0.410138
0.410137
0.410137
0.410137
0.410137
0.410137
0.410136
0.410136
0.410135
0.410135
0.410134
0.410134
0.410133
0.410133
0.410132
0.410131
0.41013
0.410129
0.410128
0.410127
0.410125
0.410122
0.410118
0.410108
0.410088
0.410045
0.409956
0.409772
0.409405
0.434446
0.434819
0.435009
0.435102
0.435147
0.435168
0.435179
0.435184
0.435187
0.435189
0.43519
0.435191
0.435192
0.435193
0.435194
0.435194
0.435195
0.435196
0.435196
0.435197
0.435197
0.435197
0.435198
0.435198
0.435198
0.435199
0.435199
0.435199
0.435199
0.435199
0.435199
0.435199
0.435199
0.435199
0.435199
0.435198
0.435198
0.435198
0.435197
0.435197
0.435197
0.435196
0.435196
0.435195
0.435194
0.435194
0.435193
0.435192
0.435191
0.43519
0.435189
0.435187
0.435184
0.435179
0.435168
0.435147
0.435102
0.435009
0.434819
0.434446
0.458862
0.45924
0.459435
0.459532
0.459579
0.459602
0.459613
0.459618
0.459621
0.459623
0.459624
0.459625
0.459626
0.459627
0.459628
0.459628
0.459629
0.45963
0.45963
0.459631
0.459631
0.459631
0.459632
0.459632
0.459632
0.459633
0.459633
0.459633
0.459633
0.459633
0.459633
0.459633
0.459633
0.459633
0.459633
0.459632
0.459632
0.459632
0.459631
0.459631
0.459631
0.45963
0.45963
0.459629
0.459628
0.459628
0.459627
0.459626
0.459625
0.459624
0.459623
0.459621
0.459618
0.459613
0.459602
0.459579
0.459532
0.459435
0.45924
0.458862
0.482635
0.483017
0.483217
0.483318
0.483367
0.483391
0.483403
0.483408
0.483412
0.483414
0.483415
0.483416
0.483417
0.483418
0.483418
0.483419
0.483419
0.48342
0.483421
0.483421
0.483421
0.483422
0.483422
0.483422
0.483423
0.483423
0.483423
0.483423
0.483423
0.483423
0.483423
0.483423
0.483423
0.483423
0.483423
0.483423
0.483422
0.483422
0.483422
0.483421
0.483421
0.483421
0.48342
0.483419
0.483419
0.483418
0.483418
0.483417
0.483416
0.483415
0.483414
0.483412
0.483408
0.483403
0.483391
0.483367
0.483318
0.483217
0.483017
0.482635
0.505754
0.506139
0.506344
0.506448
0.506499
0.506524
0.506537
0.506543
0.506546
0.506548
0.50655
0.506551
0.506552
0.506552
0.506553
0.506554
0.506554
0.506555
0.506555
0.506556
0.506556
0.506556
0.506557
0.506557
0.506557
0.506557
0.506558
0.506558
0.506558
0.506558
0.506558
0.506558
0.506558
0.506558
0.506557
0.506557
0.506557
0.506557
0.506556
0.506556
0.506556
0.506555
0.506555
0.506554
0.506554
0.506553
0.506552
0.506552
0.506551
0.50655
0.506548
0.506546
0.506543
0.506537
0.506524
0.506499
0.506448
0.506344
0.506139
0.505754
0.52821
0.528597
0.528806
0.528913
0.528967
0.528993
0.529006
0.529013
0.529017
0.529019
0.52902
0.529021
0.529022
0.529023
0.529023
0.529024
0.529024
0.529025
0.529025
0.529026
0.529026
0.529026
0.529027
0.529027
0.529027
0.529027
0.529028
0.529028
0.529028
0.529028
0.529028
0.529028
0.529028
0.529028
0.529027
0.529027
0.529027
0.529027
0.529026
0.529026
0.529026
0.529025
0.529025
0.529024
0.529024
0.529023
0.529023
0.529022
0.529021
0.52902
0.529019
0.529017
0.529013
0.529006
0.528993
0.528967
0.528913
0.528806
0.528597
0.52821
0.549997
0.550386
0.550598
0.550708
0.550764
0.550792
0.550806
0.550813
0.550816
0.550819
0.55082
0.550821
0.550822
0.550823
0.550823
0.550824
0.550824
0.550825
0.550825
0.550825
0.550826
0.550826
0.550826
0.550827
0.550827
0.550827
0.550827
0.550827
0.550827
0.550827
0.550827
0.550827
0.550827
0.550827
0.550827
0.550827
0.550827
0.550826
0.550826
0.550826
0.550825
0.550825
0.550825
0.550824
0.550824
0.550823
0.550823
0.550822
0.550821
0.55082
0.550819
0.550816
0.550813
0.550806
0.550792
0.550764
0.550708
0.550598
0.550386
0.549997
0.571113
0.571501
0.571716
0.57183
0.571887
0.571917
0.571931
0.571939
0.571943
0.571945
0.571946
0.571947
0.571948
0.571949
0.571949
0.57195
0.57195
0.571951
0.571951
0.571951
0.571952
0.571952
0.571952
0.571953
0.571953
0.571953
0.571953
0.571953
0.571953
0.571953
0.571953
0.571953
0.571953
0.571953
0.571953
0.571953
0.571953
0.571952
0.571952
0.571952
0.571951
0.571951
0.571951
0.57195
0.57195
0.571949
0.571949
0.571948
0.571947
0.571946
0.571945
0.571943
0.571939
0.571931
0.571917
0.571887
0.57183
0.571716
0.571501
0.571113
0.591555
0.591942
0.59216
0.592276
0.592336
0.592366
0.592382
0.59239
0.592394
0.592396
0.592398
0.592399
0.592399
0.5924
0.592401
0.592401
0.592401
0.592402
0.592402
0.592403
0.592403
0.592403
0.592403
0.592404
0.592404
0.592404
0.592404
0.592404
0.592404
0.592404
0.592404
0.592404
0.592404
0.592404
0.592404
0.592404
0.592404
0.592403
0.592403
0.592403
0.592403
0.592402
0.592402
0.592401
0.592401
0.592401
0.5924
0.592399
0.592399
0.592398
0.592396
0.592394
0.59239
0.592382
0.592366
0.592336
0.592276
0.59216
0.591942
0.591555
0.611324
0.61171
0.61193
0.612048
0.61211
0.612142
0.612158
0.612167
0.612171
0.612174
0.612175
0.612176
0.612177
0.612177
0.612178
0.612178
0.612179
0.612179
0.61218
0.61218
0.61218
0.61218
0.612181
0.612181
0.612181
0.612181
0.612181
0.612181
0.612181
0.612181
0.612181
0.612181
0.612181
0.612181
0.612181
0.612181
0.612181
0.612181
0.61218
0.61218
0.61218
0.61218
0.612179
0.612179
0.612178
0.612178
0.612177
0.612177
0.612176
0.612175
0.612174
0.612171
0.612167
0.612158
0.612142
0.61211
0.612048
0.61193
0.61171
0.611324
0.630424
0.630807
0.631029
0.63115
0.631214
0.631247
0.631264
0.631273
0.631277
0.63128
0.631282
0.631283
0.631283
0.631284
0.631284
0.631285
0.631285
0.631285
0.631286
0.631286
0.631286
0.631287
0.631287
0.631287
0.631287
0.631287
0.631287
0.631287
0.631287
0.631288
0.631288
0.631287
0.631287
0.631287
0.631287
0.631287
0.631287
0.631287
0.631287
0.631286
0.631286
0.631286
0.631285
0.631285
0.631285
0.631284
0.631284
0.631283
0.631283
0.631282
0.63128
0.631277
0.631273
0.631264
0.631247
0.631214
0.63115
0.631029
0.630807
0.630424
0.648859
0.649239
0.649461
0.649584
0.64965
0.649685
0.649703
0.649712
0.649717
0.64972
0.649721
0.649722
0.649723
0.649724
0.649724
0.649724
0.649725
0.649725
0.649725
0.649726
0.649726
0.649726
0.649726
0.649726
0.649727
0.649727
0.649727
0.649727
0.649727
0.649727
0.649727
0.649727
0.649727
0.649727
0.649727
0.649727
0.649726
0.649726
0.649726
0.649726
0.649726
0.649725
0.649725
0.649725
0.649724
0.649724
0.649724
0.649723
0.649722
0.649721
0.64972
0.649717
0.649712
0.649703
0.649685
0.64965
0.649584
0.649461
0.649239
0.648859
0.666635
0.66701
0.667233
0.667358
0.667426
0.667462
0.667481
0.667491
0.667496
0.667499
0.6675
0.667501
0.667502
0.667503
0.667503
0.667503
0.667504
0.667504
0.667504
0.667504
0.667505
0.667505
0.667505
0.667505
0.667505
0.667505
0.667505
0.667505
0.667506
0.667506
0.667506
0.667506
0.667505
0.667505
0.667505
0.667505
0.667505
0.667505
0.667505
0.667505
0.667504
0.667504
0.667504
0.667504
0.667503
0.667503
0.667503
0.667502
0.667501
0.6675
0.667499
0.667496
0.667491
0.667481
0.667462
0.667426
0.667358
0.667233
0.66701
0.666635
0.683758
0.684129
0.684352
0.684479
0.684548
0.684586
0.684605
0.684616
0.684621
0.684624
0.684626
0.684627
0.684628
0.684628
0.684628
0.684629
0.684629
0.684629
0.684629
0.68463
0.68463
0.68463
0.68463
0.68463
0.68463
0.684631
0.684631
0.684631
0.684631
0.684631
0.684631
0.684631
0.684631
0.684631
0.684631
0.68463
0.68463
0.68463
0.68463
0.68463
0.68463
0.684629
0.684629
0.684629
0.684629
0.684628
0.684628
0.684628
0.684627
0.684626
0.684624
0.684621
0.684616
0.684605
0.684586
0.684548
0.684479
0.684352
0.684129
0.683758
0.700238
0.700603
0.700826
0.700954
0.701026
0.701064
0.701085
0.701096
0.701101
0.701105
0.701106
0.701107
0.701108
0.701109
0.701109
0.701109
0.701109
0.70111
0.70111
0.70111
0.70111
0.70111
0.70111
0.701111
0.701111
0.701111
0.701111
0.701111
0.701111
0.701111
0.701111
0.701111
0.701111
0.701111
0.701111
0.701111
0.701111
0.70111
0.70111
0.70111
0.70111
0.70111
0.70111
0.701109
0.701109
0.701109
0.701109
0.701108
0.701107
0.701106
0.701105
0.701101
0.701096
0.701085
0.701064
0.701026
0.700954
0.700826
0.700603
0.700238
0.716083
0.716443
0.716665
0.716795
0.716868
0.716907
0.716929
0.71694
0.716946
0.71695
0.716952
0.716953
0.716953
0.716954
0.716954
0.716954
0.716954
0.716955
0.716955
0.716955
0.716955
0.716955
0.716955
0.716955
0.716956
0.716956
0.716956
0.716956
0.716956
0.716956
0.716956
0.716956
0.716956
0.716956
0.716956
0.716956
0.716955
0.716955
0.716955
0.716955
0.716955
0.716955
0.716955
0.716954
0.716954
0.716954
0.716954
0.716953
0.716953
0.716952
0.71695
0.716946
0.71694
0.716929
0.716907
0.716868
0.716795
0.716665
0.716443
0.716083
0.731305
0.731659
0.73188
0.73201
0.732085
0.732126
0.732148
0.73216
0.732166
0.73217
0.732172
0.732173
0.732174
0.732174
0.732174
0.732175
0.732175
0.732175
0.732175
0.732175
0.732175
0.732175
0.732175
0.732176
0.732176
0.732176
0.732176
0.732176
0.732176
0.732176
0.732176
0.732176
0.732176
0.732176
0.732176
0.732176
0.732176
0.732175
0.732175
0.732175
0.732175
0.732175
0.732175
0.732175
0.732175
0.732174
0.732174
0.732174
0.732173
0.732172
0.73217
0.732166
0.73216
0.732148
0.732126
0.732085
0.73201
0.73188
0.731659
0.731305
0.745916
0.746262
0.746481
0.746613
0.746688
0.74673
0.746754
0.746766
0.746773
0.746777
0.746779
0.74678
0.746781
0.746781
0.746781
0.746782
0.746782
0.746782
0.746782
0.746782
0.746782
0.746782
0.746782
0.746782
0.746782
0.746782
0.746782
0.746783
0.746783
0.746783
0.746783
0.746783
0.746783
0.746782
0.746782
0.746782
0.746782
0.746782
0.746782
0.746782
0.746782
0.746782
0.746782
0.746782
0.746782
0.746781
0.746781
0.746781
0.74678
0.746779
0.746777
0.746773
0.746766
0.746754
0.74673
0.746688
0.746613
0.746481
0.746262
0.745916
0.759926
0.760265
0.760482
0.760614
0.760691
0.760734
0.760758
0.760772
0.760779
0.760783