/*--------------------------------*- C++ -*----------------------------------*\
| =========                 |                                                 |
| \\      /  F ield         | foam-extend: Open Source CFD                    |
|  \\    /   O peration     | Version:     4.0                                |
|   \\  /    A nd           | Web:         http://www.foam-extend.org         |
|    \\/     M anipulation  |                                                 |
\*---------------------------------------------------------------------------*/
FoamFile
{
    version     2.0;
    format      ascii;
    class       volScalarField;
    location    "1350";
    object      cPlus;
}
// * * * * * * * * * * * * * * * * * * * * * * * * * * * * * * * * * * * * * //

dimensions      [0 0 0 0 0 0 0];

internalField   nonuniform List<scalar> 
6960
(
0.202492
0.202419
0.202396
0.202388
0.202387
0.202386
0.202387
0.202387
0.202388
0.202388
0.202389
0.202389
0.20239
0.20239
0.202391
0.202391
0.202391
0.202392
0.202392
0.202392
0.202392
0.202393
0.202393
0.202393
0.202393
0.202393
0.202393
0.202393
0.202393
0.202393
0.202393
0.202393
0.202393
0.202393
0.202393
0.202393
0.202393
0.202393
0.202393
0.202392
0.202392
0.202392
0.202392
0.202391
0.202391
0.202391
0.20239
0.20239
0.202389
0.202389
0.202388
0.202388
0.202387
0.202387
0.202386
0.202387
0.202388
0.202396
0.202419
0.202492
0.0650207
0.0650153
0.0650128
0.0650122
0.0650122
0.0650125
0.0650128
0.065013
0.0650133
0.0650136
0.0650138
0.065014
0.0650143
0.0650144
0.0650146
0.0650148
0.0650149
0.0650151
0.0650152
0.0650153
0.0650154
0.0650155
0.0650156
0.0650157
0.0650157
0.0650158
0.0650158
0.0650158
0.0650159
0.0650159
0.0650159
0.0650159
0.0650158
0.0650158
0.0650158
0.0650157
0.0650157
0.0650156
0.0650155
0.0650154
0.0650153
0.0650152
0.0650151
0.0650149
0.0650148
0.0650146
0.0650144
0.0650143
0.065014
0.0650138
0.0650136
0.0650133
0.065013
0.0650128
0.0650125
0.0650122
0.0650122
0.0650128
0.0650153
0.0650207
0.0462157
0.0462332
0.0462381
0.0462397
0.0462404
0.0462408
0.0462411
0.0462413
0.0462415
0.0462416
0.0462418
0.0462419
0.0462421
0.0462422
0.0462423
0.0462424
0.0462424
0.0462425
0.0462426
0.0462426
0.0462427
0.0462427
0.0462428
0.0462428
0.0462428
0.0462429
0.0462429
0.0462429
0.0462429
0.0462429
0.0462429
0.0462429
0.0462429
0.0462429
0.0462429
0.0462428
0.0462428
0.0462428
0.0462427
0.0462427
0.0462426
0.0462426
0.0462425
0.0462424
0.0462424
0.0462423
0.0462422
0.0462421
0.0462419
0.0462418
0.0462416
0.0462415
0.0462413
0.0462411
0.0462408
0.0462404
0.0462397
0.0462381
0.0462332
0.0462157
0.0445007
0.0445249
0.0445318
0.0445342
0.0445351
0.0445355
0.0445358
0.044536
0.0445362
0.0445363
0.0445364
0.0445366
0.0445367
0.0445368
0.0445368
0.0445369
0.044537
0.044537
0.0445371
0.0445371
0.0445372
0.0445372
0.0445373
0.0445373
0.0445373
0.0445373
0.0445373
0.0445373
0.0445374
0.0445374
0.0445374
0.0445374
0.0445373
0.0445373
0.0445373
0.0445373
0.0445373
0.0445373
0.0445372
0.0445372
0.0445371
0.0445371
0.044537
0.044537
0.0445369
0.0445368
0.0445368
0.0445367
0.0445366
0.0445364
0.0445363
0.0445362
0.044536
0.0445358
0.0445355
0.0445351
0.0445342
0.0445318
0.0445249
0.0445007
0.0456025
0.0456295
0.0456373
0.0456399
0.0456409
0.0456414
0.0456417
0.0456419
0.0456421
0.0456422
0.0456424
0.0456425
0.0456426
0.0456427
0.0456428
0.0456429
0.0456429
0.045643
0.045643
0.0456431
0.0456431
0.0456432
0.0456432
0.0456432
0.0456433
0.0456433
0.0456433
0.0456433
0.0456433
0.0456433
0.0456433
0.0456433
0.0456433
0.0456433
0.0456433
0.0456433
0.0456432
0.0456432
0.0456432
0.0456431
0.0456431
0.045643
0.045643
0.0456429
0.0456429
0.0456428
0.0456427
0.0456426
0.0456425
0.0456424
0.0456422
0.0456421
0.0456419
0.0456417
0.0456414
0.0456409
0.0456399
0.0456373
0.0456295
0.0456025
0.0473665
0.0473956
0.0474041
0.0474069
0.047408
0.0474085
0.0474088
0.0474091
0.0474093
0.0474094
0.0474096
0.0474097
0.0474098
0.0474099
0.04741
0.0474101
0.0474102
0.0474103
0.0474103
0.0474104
0.0474104
0.0474105
0.0474105
0.0474105
0.0474106
0.0474106
0.0474106
0.0474106
0.0474106
0.0474106
0.0474106
0.0474106
0.0474106
0.0474106
0.0474106
0.0474106
0.0474105
0.0474105
0.0474105
0.0474104
0.0474104
0.0474103
0.0474103
0.0474102
0.0474101
0.04741
0.0474099
0.0474098
0.0474097
0.0474096
0.0474094
0.0474093
0.0474091
0.0474088
0.0474085
0.047408
0.0474069
0.0474041
0.0473956
0.0473665
0.0495089
0.0495404
0.0495496
0.0495527
0.0495539
0.0495544
0.0495548
0.049555
0.0495553
0.0495554
0.0495556
0.0495558
0.0495559
0.049556
0.0495561
0.0495562
0.0495563
0.0495564
0.0495564
0.0495565
0.0495565
0.0495566
0.0495566
0.0495567
0.0495567
0.0495567
0.0495567
0.0495568
0.0495568
0.0495568
0.0495568
0.0495568
0.0495568
0.0495567
0.0495567
0.0495567
0.0495567
0.0495566
0.0495566
0.0495565
0.0495565
0.0495564
0.0495564
0.0495563
0.0495562
0.0495561
0.049556
0.0495559
0.0495558
0.0495556
0.0495554
0.0495553
0.049555
0.0495548
0.0495544
0.0495539
0.0495527
0.0495496
0.0495404
0.0495089
0.0520617
0.0520962
0.0521063
0.0521097
0.052111
0.0521116
0.052112
0.0521123
0.0521126
0.0521128
0.052113
0.0521131
0.0521133
0.0521134
0.0521135
0.0521136
0.0521137
0.0521138
0.0521139
0.052114
0.052114
0.0521141
0.0521141
0.0521142
0.0521142
0.0521142
0.0521142
0.0521143
0.0521143
0.0521143
0.0521143
0.0521143
0.0521143
0.0521142
0.0521142
0.0521142
0.0521142
0.0521141
0.0521141
0.052114
0.052114
0.0521139
0.0521138
0.0521137
0.0521136
0.0521135
0.0521134
0.0521133
0.0521131
0.052113
0.0521128
0.0521126
0.0521123
0.052112
0.0521116
0.052111
0.0521097
0.0521063
0.0520962
0.0520617
0.055141
0.0551794
0.0551906
0.0551943
0.0551958
0.0551965
0.0551969
0.0551973
0.0551976
0.0551978
0.055198
0.0551982
0.0551984
0.0551985
0.0551987
0.0551988
0.0551989
0.055199
0.0551991
0.0551992
0.0551993
0.0551993
0.0551994
0.0551994
0.0551995
0.0551995
0.0551995
0.0551995
0.0551995
0.0551996
0.0551996
0.0551995
0.0551995
0.0551995
0.0551995
0.0551995
0.0551994
0.0551994
0.0551993
0.0551993
0.0551992
0.0551991
0.055199
0.0551989
0.0551988
0.0551987
0.0551985
0.0551984
0.0551982
0.055198
0.0551978
0.0551976
0.0551973
0.0551969
0.0551965
0.0551958
0.0551943
0.0551906
0.0551794
0.055141
0.0589283
0.0589717
0.0589844
0.0589887
0.0589903
0.0589912
0.0589917
0.0589921
0.0589924
0.0589927
0.0589929
0.0589932
0.0589934
0.0589936
0.0589937
0.0589939
0.058994
0.0589941
0.0589942
0.0589943
0.0589944
0.0589945
0.0589945
0.0589946
0.0589947
0.0589947
0.0589947
0.0589947
0.0589948
0.0589948
0.0589948
0.0589948
0.0589947
0.0589947
0.0589947
0.0589947
0.0589946
0.0589945
0.0589945
0.0589944
0.0589943
0.0589942
0.0589941
0.058994
0.0589939
0.0589937
0.0589936
0.0589934
0.0589932
0.0589929
0.0589927
0.0589924
0.0589921
0.0589917
0.0589912
0.0589903
0.0589887
0.0589844
0.0589717
0.0589283
0.0636962
0.0637465
0.0637612
0.0637662
0.0637681
0.0637691
0.0637697
0.0637702
0.0637706
0.0637709
0.0637712
0.0637715
0.0637717
0.063772
0.0637722
0.0637724
0.0637725
0.0637727
0.0637728
0.0637729
0.063773
0.0637731
0.0637732
0.0637732
0.0637733
0.0637734
0.0637734
0.0637734
0.0637734
0.0637734
0.0637734
0.0637734
0.0637734
0.0637734
0.0637734
0.0637733
0.0637732
0.0637732
0.0637731
0.063773
0.0637729
0.0637728
0.0637727
0.0637725
0.0637724
0.0637722
0.063772
0.0637717
0.0637715
0.0637712
0.0637709
0.0637706
0.0637702
0.0637697
0.0637691
0.0637681
0.0637662
0.0637612
0.0637465
0.0636962
0.0698511
0.0699108
0.0699284
0.0699343
0.0699367
0.0699379
0.0699386
0.0699392
0.0699397
0.0699401
0.0699405
0.0699409
0.0699412
0.0699414
0.0699417
0.0699419
0.0699421
0.0699423
0.0699425
0.0699426
0.0699427
0.0699428
0.0699429
0.069943
0.0699431
0.0699432
0.0699432
0.0699432
0.0699433
0.0699433
0.0699433
0.0699433
0.0699432
0.0699432
0.0699432
0.0699431
0.069943
0.0699429
0.0699428
0.0699427
0.0699426
0.0699425
0.0699423
0.0699421
0.0699419
0.0699417
0.0699414
0.0699412
0.0699409
0.0699405
0.0699401
0.0699397
0.0699392
0.0699386
0.0699379
0.0699367
0.0699343
0.0699284
0.0699108
0.0698511
0.077976
0.078049
0.0780705
0.0780779
0.0780808
0.0780823
0.0780832
0.078084
0.0780846
0.0780851
0.0780856
0.0780861
0.0780864
0.0780868
0.0780871
0.0780874
0.0780877
0.0780879
0.0780881
0.0780883
0.0780884
0.0780886
0.0780887
0.0780888
0.0780889
0.078089
0.0780891
0.0780891
0.0780891
0.0780891
0.0780891
0.0780891
0.0780891
0.0780891
0.078089
0.0780889
0.0780888
0.0780887
0.0780886
0.0780884
0.0780883
0.0780881
0.0780879
0.0780877
0.0780874
0.0780871
0.0780868
0.0780864
0.0780861
0.0780856
0.0780851
0.0780846
0.078084
0.0780832
0.0780823
0.0780808
0.0780779
0.0780705
0.078049
0.077976
0.0888333
0.0889246
0.0889517
0.088961
0.0889647
0.0889665
0.0889677
0.0889687
0.0889695
0.0889702
0.0889708
0.0889714
0.0889719
0.0889723
0.0889727
0.0889731
0.0889734
0.0889737
0.088974
0.0889742
0.0889744
0.0889746
0.0889748
0.0889749
0.088975
0.0889751
0.0889752
0.0889753
0.0889753
0.0889753
0.0889753
0.0889753
0.0889753
0.0889752
0.0889751
0.088975
0.0889749
0.0889748
0.0889746
0.0889744
0.0889742
0.088974
0.0889737
0.0889734
0.0889731
0.0889727
0.0889723
0.0889719
0.0889714
0.0889708
0.0889702
0.0889695
0.0889687
0.0889677
0.0889665
0.0889647
0.088961
0.0889517
0.0889246
0.0888333
0.10326
0.103376
0.10341
0.103422
0.103427
0.103429
0.103431
0.103432
0.103433
0.103434
0.103434
0.103435
0.103436
0.103436
0.103437
0.103437
0.103438
0.103438
0.103438
0.103439
0.103439
0.103439
0.10344
0.10344
0.10344
0.10344
0.10344
0.10344
0.10344
0.10344
0.10344
0.10344
0.10344
0.10344
0.10344
0.10344
0.10344
0.10344
0.103439
0.103439
0.103439
0.103438
0.103438
0.103438
0.103437
0.103437
0.103436
0.103436
0.103435
0.103434
0.103434
0.103433
0.103432
0.103431
0.103429
0.103427
0.103422
0.10341
0.103376
0.10326
0.121919
0.122063
0.122107
0.122122
0.122128
0.122131
0.122133
0.122134
0.122135
0.122137
0.122138
0.122138
0.122139
0.12214
0.122141
0.122141
0.122142
0.122142
0.122142
0.122143
0.122143
0.122143
0.122144
0.122144
0.122144
0.122144
0.122144
0.122145
0.122145
0.122145
0.122145
0.122145
0.122145
0.122144
0.122144
0.122144
0.122144
0.122144
0.122143
0.122143
0.122143
0.122142
0.122142
0.122142
0.122141
0.122141
0.12214
0.122139
0.122138
0.122138
0.122137
0.122135
0.122134
0.122133
0.122131
0.122128
0.122122
0.122107
0.122063
0.121919
0.144984
0.14516
0.145213
0.145232
0.145239
0.145243
0.145245
0.145247
0.145248
0.14525
0.145251
0.145252
0.145253
0.145253
0.145254
0.145255
0.145256
0.145256
0.145257
0.145257
0.145257
0.145258
0.145258
0.145258
0.145258
0.145259
0.145259
0.145259
0.145259
0.145259
0.145259
0.145259
0.145259
0.145259
0.145259
0.145258
0.145258
0.145258
0.145258
0.145257
0.145257
0.145257
0.145256
0.145256
0.145255
0.145254
0.145253
0.145253
0.145252
0.145251
0.14525
0.145248
0.145247
0.145245
0.145243
0.145239
0.145232
0.145213
0.14516
0.144984
0.171977
0.172184
0.172248
0.17227
0.172278
0.172282
0.172285
0.172287
0.172289
0.17229
0.172291
0.172293
0.172294
0.172294
0.172295
0.172296
0.172297
0.172297
0.172298
0.172298
0.172299
0.172299
0.1723
0.1723
0.1723
0.1723
0.1723
0.172301
0.172301
0.172301
0.172301
0.172301
0.172301
0.1723
0.1723
0.1723
0.1723
0.1723
0.172299
0.172299
0.172298
0.172298
0.172297
0.172297
0.172296
0.172295
0.172294
0.172294
0.172293
0.172291
0.17229
0.172289
0.172287
0.172285
0.172282
0.172278
0.17227
0.172248
0.172184
0.171977
0.201902
0.202137
0.20221
0.202236
0.202246
0.20225
0.202253
0.202255
0.202257
0.202259
0.20226
0.202261
0.202262
0.202263
0.202264
0.202265
0.202266
0.202266
0.202267
0.202267
0.202268
0.202268
0.202268
0.202269
0.202269
0.202269
0.202269
0.20227
0.20227
0.20227
0.20227
0.20227
0.20227
0.202269
0.202269
0.202269
0.202269
0.202268
0.202268
0.202268
0.202267
0.202267
0.202266
0.202266
0.202265
0.202264
0.202263
0.202262
0.202261
0.20226
0.202259
0.202257
0.202255
0.202253
0.20225
0.202246
0.202236
0.20221
0.202137
0.201902
0.23359
0.233849
0.233931
0.233959
0.23397
0.233975
0.233978
0.233981
0.233982
0.233984
0.233985
0.233987
0.233988
0.233989
0.23399
0.23399
0.233991
0.233992
0.233992
0.233993
0.233993
0.233994
0.233994
0.233994
0.233995
0.233995
0.233995
0.233995
0.233995
0.233995
0.233995
0.233995
0.233995
0.233995
0.233995
0.233995
0.233994
0.233994
0.233994
0.233993
0.233993
0.233992
0.233992
0.233991
0.23399
0.23399
0.233989
0.233988
0.233987
0.233985
0.233984
0.233982
0.233981
0.233978
0.233975
0.23397
0.233959
0.233931
0.233849
0.23359
0.266016
0.266295
0.266384
0.266416
0.266427
0.266433
0.266436
0.266438
0.26644
0.266442
0.266443
0.266444
0.266446
0.266447
0.266447
0.266448
0.266449
0.26645
0.26645
0.266451
0.266451
0.266451
0.266452
0.266452
0.266452
0.266453
0.266453
0.266453
0.266453
0.266453
0.266453
0.266453
0.266453
0.266453
0.266453
0.266452
0.266452
0.266452
0.266451
0.266451
0.266451
0.26645
0.26645
0.266449
0.266448
0.266447
0.266447
0.266446
0.266444
0.266443
0.266442
0.26644
0.266438
0.266436
0.266433
0.266427
0.266416
0.266384
0.266295
0.266016
0.298443
0.298739
0.298835
0.298869
0.298882
0.298888
0.298891
0.298893
0.298895
0.298897
0.298898
0.298899
0.2989
0.298901
0.298902
0.298903
0.298904
0.298904
0.298905
0.298905
0.298906
0.298906
0.298906
0.298907
0.298907
0.298907
0.298907
0.298907
0.298907
0.298907
0.298907
0.298907
0.298907
0.298907
0.298907
0.298907
0.298907
0.298906
0.298906
0.298906
0.298905
0.298905
0.298904
0.298904
0.298903
0.298902
0.298901
0.2989
0.298899
0.298898
0.298897
0.298895
0.298893
0.298891
0.298888
0.298882
0.298869
0.298835
0.298739
0.298443
0.330411
0.33072
0.330823
0.330859
0.330873
0.330879
0.330882
0.330885
0.330886
0.330888
0.330889
0.33089
0.330891
0.330892
0.330893
0.330894
0.330894
0.330895
0.330896
0.330896
0.330897
0.330897
0.330897
0.330897
0.330898
0.330898
0.330898
0.330898
0.330898
0.330898
0.330898
0.330898
0.330898
0.330898
0.330898
0.330898
0.330897
0.330897
0.330897
0.330897
0.330896
0.330896
0.330895
0.330894
0.330894
0.330893
0.330892
0.330891
0.33089
0.330889
0.330888
0.330886
0.330885
0.330882
0.330879
0.330873
0.330859
0.330823
0.33072
0.330411
0.361654
0.361975
0.362083
0.362122
0.362137
0.362143
0.362146
0.362149
0.36215
0.362152
0.362153
0.362154
0.362155
0.362156
0.362157
0.362158
0.362158
0.362159
0.362159
0.36216
0.36216
0.36216
0.362161
0.362161
0.362161
0.362161
0.362162
0.362162
0.362162
0.362162
0.362162
0.362162
0.362162
0.362162
0.362161
0.362161
0.362161
0.362161
0.36216
0.36216
0.36216
0.362159
0.362159
0.362158
0.362158
0.362157
0.362156
0.362155
0.362154
0.362153
0.362152
0.36215
0.362149
0.362146
0.362143
0.362137
0.362122
0.362083
0.361975
0.361654
0.392028
0.392359
0.392473
0.392514
0.39253
0.392536
0.39254
0.392542
0.392544
0.392545
0.392546
0.392548
0.392548
0.392549
0.39255
0.392551
0.392551
0.392552
0.392552
0.392553
0.392553
0.392553
0.392554
0.392554
0.392554
0.392554
0.392554
0.392555
0.392555
0.392555
0.392555
0.392555
0.392555
0.392554
0.392554
0.392554
0.392554
0.392554
0.392553
0.392553
0.392553
0.392552
0.392552
0.392551
0.392551
0.39255
0.392549
0.392548
0.392548
0.392546
0.392545
0.392544
0.392542
0.39254
0.392536
0.39253
0.392514
0.392473
0.392359
0.392028
0.42146
0.421799
0.421918
0.421961
0.421977
0.421984
0.421988
0.42199
0.421992
0.421993
0.421994
0.421995
0.421996
0.421997
0.421998
0.421998
0.421999
0.421999
0.422
0.422
0.422
0.422001
0.422001
0.422001
0.422001
0.422002
0.422002
0.422002
0.422002
0.422002
0.422002
0.422002
0.422002
0.422002
0.422002
0.422001
0.422001
0.422001
0.422001
0.422
0.422
0.422
0.421999
0.421999
0.421998
0.421998
0.421997
0.421996
0.421995
0.421994
0.421993
0.421992
0.42199
0.421988
0.421984
0.421977
0.421961
0.421918
0.421799
0.42146
0.449909
0.450255
0.450379
0.450424
0.450442
0.450449
0.450452
0.450455
0.450456
0.450458
0.450459
0.45046
0.450461
0.450461
0.450462
0.450463
0.450463
0.450464
0.450464
0.450464
0.450465
0.450465
0.450465
0.450465
0.450466
0.450466
0.450466
0.450466
0.450466
0.450466
0.450466
0.450466
0.450466
0.450466
0.450466
0.450466
0.450465
0.450465
0.450465
0.450465
0.450464
0.450464
0.450464
0.450463
0.450463
0.450462
0.450461
0.450461
0.45046
0.450459
0.450458
0.450456
0.450455
0.450452
0.450449
0.450442
0.450424
0.450379
0.450255
0.449909
0.477362
0.477713
0.477841
0.477889
0.477907
0.477915
0.477918
0.477921
0.477922
0.477924
0.477925
0.477925
0.477926
0.477927
0.477928
0.477928
0.477929
0.477929
0.477929
0.47793
0.47793
0.47793
0.477931
0.477931
0.477931
0.477931
0.477931
0.477931
0.477931
0.477931
0.477931
0.477931
0.477931
0.477931
0.477931
0.477931
0.477931
0.477931
0.47793
0.47793
0.47793
0.477929
0.477929
0.477929
0.477928
0.477928
0.477927
0.477926
0.477925
0.477925
0.477924
0.477922
0.477921
0.477918
0.477915
0.477907
0.477889
0.477841
0.477713
0.477362
0.503815
0.50417
0.504302
0.504352
0.504371
0.504379
0.504383
0.504385
0.504387
0.504388
0.504389
0.50439
0.504391
0.504391
0.504392
0.504392
0.504393
0.504393
0.504394
0.504394
0.504394
0.504394
0.504395
0.504395
0.504395
0.504395
0.504395
0.504395
0.504395
0.504395
0.504395
0.504395
0.504395
0.504395
0.504395
0.504395
0.504395
0.504395
0.504394
0.504394
0.504394
0.504394
0.504393
0.504393
0.504392
0.504392
0.504391
0.504391
0.50439
0.504389
0.504388
0.504387
0.504385
0.504383
0.504379
0.504371
0.504352
0.504302
0.50417
0.503815
0.529274
0.529631
0.529768
0.52982
0.52984
0.529848
0.529852
0.529854
0.529856
0.529857
0.529858
0.529859
0.529859
0.52986
0.52986
0.529861
0.529861
0.529862
0.529862
0.529862
0.529863
0.529863
0.529863
0.529863
0.529863
0.529863
0.529864
0.529864
0.529864
0.529864
0.529864
0.529864
0.529864
0.529864
0.529863
0.529863
0.529863
0.529863
0.529863
0.529863
0.529862
0.529862
0.529862
0.529861
0.529861
0.52986
0.52986
0.529859
0.529859
0.529858
0.529857
0.529856
0.529854
0.529852
0.529848
0.52984
0.52982
0.529768
0.529631
0.529274
0.553749
0.554108
0.554248
0.554302
0.554323
0.554332
0.554336
0.554338
0.55434
0.554341
0.554342
0.554343
0.554343
0.554344
0.554344
0.554345
0.554345
0.554346
0.554346
0.554346
0.554346
0.554347
0.554347
0.554347
0.554347
0.554347
0.554347
0.554347
0.554347
0.554347
0.554347
0.554347
0.554347
0.554347
0.554347
0.554347
0.554347
0.554347
0.554347
0.554346
0.554346
0.554346
0.554346
0.554345
0.554345
0.554344
0.554344
0.554343
0.554343
0.554342
0.554341
0.55434
0.554338
0.554336
0.554332
0.554323
0.554302
0.554248
0.554108
0.553749
0.577257
0.577616
0.577759
0.577816
0.577838
0.577847
0.577851
0.577853
0.577854
0.577856
0.577856
0.577857
0.577858
0.577858
0.577859
0.577859
0.57786
0.57786
0.57786
0.57786
0.577861
0.577861
0.577861
0.577861
0.577861
0.577861
0.577861
0.577862
0.577862
0.577862
0.577862
0.577862
0.577862
0.577861
0.577861
0.577861
0.577861
0.577861
0.577861
0.577861
0.57786
0.57786
0.57786
0.57786
0.577859
0.577859
0.577858
0.577858
0.577857
0.577856
0.577856
0.577854
0.577853
0.577851
0.577847
0.577838
0.577816
0.577759
0.577616
0.577257
0.599813
0.600172
0.600318
0.600377
0.6004
0.600409
0.600413
0.600416
0.600417
0.600418
0.600419
0.60042
0.60042
0.600421
0.600421
0.600422
0.600422
0.600422
0.600423
0.600423
0.600423
0.600423
0.600423
0.600423
0.600424
0.600424
0.600424
0.600424
0.600424
0.600424
0.600424
0.600424
0.600424
0.600424
0.600424
0.600424
0.600423
0.600423
0.600423
0.600423
0.600423
0.600423
0.600422
0.600422
0.600422
0.600421
0.600421
0.60042
0.60042
0.600419
0.600418
0.600417
0.600416
0.600413
0.600409
0.6004
0.600377
0.600318
0.600172
0.599813
0.621439
0.621796
0.621945
0.622005
0.62203
0.622039
0.622044
0.622046
0.622048
0.622049
0.622049
0.62205
0.622051
0.622051
0.622051
0.622052
0.622052
0.622052
0.622053
0.622053
0.622053
0.622053
0.622053
0.622054
0.622054
0.622054
0.622054
0.622054
0.622054
0.622054
0.622054
0.622054
0.622054
0.622054
0.622054
0.622054
0.622054
0.622053
0.622053
0.622053
0.622053
0.622053
0.622052
0.622052
0.622052
0.622051
0.622051
0.622051
0.62205
0.622049
0.622049
0.622048
0.622046
0.622044
0.622039
0.62203
0.622005
0.621945
0.621796
0.621439
0.642155
0.64251
0.642661
0.642723
0.642748
0.642759
0.642763
0.642765
0.642767
0.642768
0.642769
0.642769
0.64277
0.64277
0.642771
0.642771
0.642771
0.642771
0.642772
0.642772
0.642772
0.642772
0.642772
0.642772
0.642773
0.642773
0.642773
0.642773
0.642773
0.642773
0.642773
0.642773
0.642773
0.642773
0.642773
0.642773
0.642772
0.642772
0.642772
0.642772
0.642772
0.642772
0.642771
0.642771
0.642771
0.642771
0.64277
0.64277
0.642769
0.642769
0.642768
0.642767
0.642765
0.642763
0.642759
0.642748
0.642723
0.642661
0.64251
0.642155
0.661983
0.662334
0.662488
0.662552
0.662578
0.662589
0.662593
0.662596
0.662597
0.662598
0.662599
0.662599
0.6626
0.6626
0.662601
0.662601
0.662601
0.662601
0.662602
0.662602
0.662602
0.662602
0.662602
0.662602
0.662602
0.662603
0.662603
0.662603
0.662603
0.662603
0.662603
0.662603
0.662603
0.662603
0.662603
0.662602
0.662602
0.662602
0.662602
0.662602
0.662602
0.662602
0.662601
0.662601
0.662601
0.662601
0.6626
0.6626
0.662599
0.662599
0.662598
0.662597
0.662596
0.662593
0.662589
0.662578
0.662552
0.662488
0.662334
0.661983
0.680946
0.681293
0.681448
0.681514
0.681541
0.681553
0.681558
0.68156
0.681561
0.681562
0.681563
0.681563
0.681564
0.681564
0.681565
0.681565
0.681565
0.681565
0.681566
0.681566
0.681566
0.681566
0.681566
0.681566
0.681566
0.681566
0.681566
0.681567
0.681567
0.681567
0.681567
0.681567
0.681567
0.681566
0.681566
0.681566
0.681566
0.681566
0.681566
0.681566
0.681566
0.681566
0.681565
0.681565
0.681565
0.681565
0.681564
0.681564
0.681563
0.681563
0.681562
0.681561
0.68156
0.681558
0.681553
0.681541
0.681514
0.681448
0.681293
0.680946
0.699067
0.69941
0.699567
0.699634
0.699662
0.699674
0.699679
0.699681
0.699683
0.699684
0.699684
0.699685
0.699685
0.699686
0.699686
0.699686
0.699686
0.699687
0.699687
0.699687
0.699687
0.699687
0.699687
0.699687
0.699688
0.699688
0.699688
0.699688
0.699688
0.699688
0.699688
0.699688
0.699688
0.699688
0.699688
0.699688
0.699687
0.699687
0.699687
0.699687
0.699687
0.699687
0.699687
0.699686
0.699686
0.699686
0.699686
0.699685
0.699685
0.699684
0.699684
0.699683
0.699681
0.699679
0.699674
0.699662
0.699634
0.699567
0.69941
0.699067
0.71637
0.716709
0.716866
0.716934
0.716964
0.716976
0.716981
0.716984
0.716986
0.716986
0.716987
0.716987
0.716988
0.716988
0.716988
0.716989
0.716989
0.716989
0.716989
0.716989
0.71699
0.71699
0.71699
0.71699
0.71699
0.71699
0.71699
0.71699
0.71699
0.71699
0.71699
0.71699
0.71699
0.71699
0.71699
0.71699
0.71699
0.71699
0.71699
0.71699
0.716989
0.716989
0.716989
0.716989
0.716989
0.716988
0.716988
0.716988
0.716987
0.716987
0.716986
0.716986
0.716984
0.716981
0.716976
0.716964
0.716934
0.716866
0.716709
0.71637
0.73288
0.733212
0.73337
0.73344
0.73347
0.733483
0.733489
0.733492
0.733493
0.733494
0.733495
0.733495
0.733496
0.733496
0.733496
0.733496
0.733496
0.733497
0.733497
0.733497
0.733497
0.733497
0.733497
0.733497
0.733497
0.733497
0.733498
0.733498
0.733498
0.733498
0.733498
0.733498
0.733498
0.733498
0.733497
0.733497
0.733497
0.733497
0.733497
0.733497
0.733497
0.733497
0.733497
0.733496
0.733496
0.733496
0.733496
0.733496
0.733495
0.733495
0.733494
0.733493
0.733492
0.733489
0.733483
0.73347
0.73344
0.73337
0.733212
0.73288
0.748619
0.748946
0.749104
0.749175
0.749206
0.74922
0.749226
0.749229
0.74923
0.749231
0.749232
0.749232
0.749232
0.749233
0.749233
0.749233
0.749233
0.749234
0.749234
0.749234
0.749234
0.749234
0.749234
0.749234
0.749234
0.749234
0.749234
0.749234
0.749234
0.749234
0.749234
0.749234
0.749234
0.749234
0.749234
0.749234
0.749234
0.749234
0.749234
0.749234
0.749234
0.749234
0.749234
0.749233
0.749233
0.749233
0.749233
0.749232
0.749232
0.749232
0.749231
0.74923
0.749229
0.749226
0.74922
0.749206
0.749175
0.749104
0.748946
0.748619
0.763613
0.763933
0.764091
0.764164
0.764196
0.76421
0.764216
0.764219
0.764221
0.764221
0.764222
0.764222
0.764223
0.764223
0.764223
0.764223
0.764224
0.764224
0.764224
0.764224
0.764224
0.764224
0.764224
0.764224
0.764224
0.764224
0.764224
0.764224
0.764224
0.764224
0.764224
0.764224
0.764224
0.764224
0.764224
0.764224
0.764224
0.764224
0.764224
0.764224
0.764224
0.764224
0.764224
0.764224
0.764223
0.764223
0.764223
0.764223
0.764222
0.764222
0.764221
0.764221
0.764219
0.764216
0.76421
0.764196
0.764164
0.764091
0.763933
0.763613
0.777885
0.778199
0.778356
0.778429
0.778463
0.778477
0.778484
0.778487
0.778488
0.778489
0.77849
0.77849
0.778491
0.778491
0.778491
0.778491
0.778491
0.778491
0.778492
0.778492
0.778492
0.778492
0.778492
0.778492
0.778492
0.778492
0.778492
0.778492
0.778492
0.778492
0.778492
0.778492
0.778492
0.778492
0.778492
0.778492
0.778492
0.778492
0.778492
0.778492
0.778492
0.778492
0.778491
0.778491
0.778491
0.778491
0.778491
0.778491
0.77849
0.77849
0.778489
0.778488
0.778487
0.778484
0.778477
0.778463
0.778429
0.778356
0.778199
0.777885
0.79146
0.791766
0.791922
0.791997
0.792031
0.792046
0.792053
0.792056
0.792058
0.792059
0.792059
0.79206
0.79206
0.79206
0.79206
0.79206
0.792061
0.792061
0.792061
0.792061
0.792061
0.792061
0.792061
0.792061
0.792061
0.792061
0.792061
0.792061
0.792061
0.792061
0.792061
0.792061
0.792061
0.792061
0.792061
0.792061
0.792061
0.792061
0.792061
0.792061
0.792061
0.792061
0.792061
0.792061
0.79206
0.79206
0.79206
0.79206
0.79206
0.792059
0.792059
0.792058
0.792056
0.792053
0.792046
0.792031
0.791997
0.791922
0.791766
0.79146
0.80436
0.804659
0.804814
0.804889
0.804924
0.80494
0.804947
0.804951
0.804952
0.804953
0.804954
0.804954
0.804954
0.804955
0.804955
0.804955
0.804955
0.804955
0.804955
0.804955
0.804955
0.804955
0.804955
0.804956
0.804956
0.804956
0.804956
0.804956
0.804956
0.804956
0.804956
0.804956
0.804956
0.804956
0.804956
0.804956
0.804956
0.804955
0.804955
0.804955
0.804955
0.804955
0.804955
0.804955
0.804955
0.804955
0.804955
0.804954
0.804954
0.804954
0.804953
0.804952
0.804951
0.804947
0.80494
0.804924
0.804889
0.804814
0.804659
0.80436
0.81661
0.816901
0.817055
0.817131
0.817166
0.817183
0.81719
0.817194
0.817196
0.817197
0.817197
0.817197
0.817198
0.817198
0.817198
0.817198
0.817198
0.817198
0.817198
0.817199
0.817199
0.817199
0.817199
0.817199
0.817199
0.817199
0.817199
0.817199
0.817199
0.817199
0.817199
0.817199
0.817199
0.817199
0.817199
0.817199
0.817199
0.817199
0.817199
0.817199
0.817199
0.817198
0.817198
0.817198
0.817198
0.817198
0.817198
0.817198
0.817197
0.817197
0.817197
0.817196
0.817194
0.81719
0.817183
0.817166
0.817131
0.817055
0.816901
0.81661
0.828233
0.828515
0.828668
0.828744
0.828781
0.828798
0.828806
0.828809
0.828811
0.828812
0.828813
0.828813
0.828813
0.828813
0.828814
0.828814
0.828814
0.828814
0.828814
0.828814
0.828814
0.828814
0.828814
0.828814
0.828814
0.828814
0.828814
0.828814
0.828814
0.828814
0.828814
0.828814
0.828814
0.828814
0.828814
0.828814
0.828814
0.828814
0.828814
0.828814
0.828814
0.828814
0.828814
0.828814
0.828814
0.828814
0.828813
0.828813
0.828813
0.828813
0.828812
0.828811
0.828809
0.828806
0.828798
0.828781
0.828744
0.828668
0.828515
0.828233
0.839252
0.839526
0.839676
0.839753
0.83979
0.839808
0.839816
0.83982
0.839822
0.839823
0.839823
0.839824
0.839824
0.839824
0.839824
0.839824
0.839824
0.839825
0.839825
0.839825
0.839825
0.839825
0.839825
0.839825
0.839825
0.839825
0.839825
0.839825
0.839825
0.839825
0.839825
0.839825
0.839825
0.839825
0.839825
0.839825
0.839825
0.839825
0.839825
0.839825
0.839825
0.839825
0.839825
0.839824
0.839824
0.839824
0.839824
0.839824
0.839824
0.839823
0.839823
0.839822
0.83982
0.839816
0.839808
0.83979
0.839753
0.839676
0.839526
0.839252
0.849689
0.849955
0.850103
0.85018
0.850218
0.850236
0.850244
0.850248
0.85025
0.850251
0.850252
0.850252
0.850253
0.850253
0.850253
0.850253
0.850253
0.850253
0.850253
0.850253
0.850253
0.850253
0.850253
0.850253
0.850254
0.850254
0.850254
0.850254
0.850254
0.850254
0.850254
0.850254
0.850254
0.850254
0.850254
0.850254
0.850253
0.850253
0.850253
0.850253
0.850253
0.850253
0.850253
0.850253
0.850253
0.850253
0.850253
0.850253
0.850252
0.850252
0.850251
0.85025
0.850248
0.850244
0.850236
0.850218
0.85018
0.850103
0.849955
0.849689
0.859567
0.859824
0.85997
0.860047
0.860085
0.860104
0.860113
0.860117
0.860119
0.86012
0.860121
0.860121
0.860122
0.860122
0.860122
0.860122
0.860122
0.860122
0.860122
0.860122
0.860122
0.860122
0.860122
0.860122
0.860122
0.860122
0.860122
0.860122
0.860123
0.860123
0.860123
0.860123
0.860122
0.860122
0.860122
0.860122
0.860122
0.860122
0.860122
0.860122
0.860122
0.860122
0.860122
0.860122
0.860122
0.860122
0.860122
0.860122
0.860121
0.860121
0.86012
0.860119
0.860117
0.860113
0.860104
0.860085
0.860047
0.85997
0.859824
0.859567
0.868908
0.869156
0.8693
0.869376
0.869415
0.869435
0.869444
0.869448
0.869451
0.869452
0.869452
0.869453
0.869453
0.869453
0.869453
0.869453
0.869453
0.869453
0.869454
0.869454
0.869454
0.869454
0.869454
0.869454
0.869454
0.869454
0.869454
0.869454
0.869454
0.869454
0.869454
0.869454
0.869454
0.869454
0.869454
0.869454
0.869454
0.869454
0.869454
0.869454
0.869454
0.869454
0.869453
0.869453
0.869453
0.869453
0.869453
0.869453
0.869453
0.869452
0.869452
0.869451
0.869448
0.869444
0.869435
0.869415
0.869376
0.8693
0.869156
0.868908
0.877733
0.877973
0.878114
0.87819
0.878229
0.878249
0.878259
0.878264
0.878266
0.878267
0.878268
0.878268
0.878268
0.878268
0.878269
0.878269
0.878269
0.878269
0.878269
0.878269
0.878269
0.878269
0.878269
0.878269
0.878269
0.878269
0.878269
0.878269
0.878269
0.878269
0.878269
0.878269
0.878269
0.878269
0.878269
0.878269
0.878269
0.878269
0.878269
0.878269
0.878269
0.878269
0.878269
0.878269
0.878269
0.878269
0.878268
0.878268
0.878268
0.878268
0.878267
0.878266
0.878264
0.878259
0.878249
0.878229
0.87819
0.878114
0.877973
0.877733
0.886064
0.886295
0.886433
0.886509
0.886549
0.886569
0.886579
0.886584
0.886586
0.886588
0.886588
0.886589
0.886589
0.886589
0.886589
0.886589
0.886589
0.886589
0.886589
0.886589
0.886589
0.886589
0.886589
0.886589
0.886589
0.886589
0.886589
0.886589
0.886589
0.886589
0.886589
0.886589
0.886589
0.886589
0.886589
0.886589
0.886589
0.886589
0.886589
0.886589
0.886589
0.886589
0.886589
0.886589
0.886589
0.886589
0.886589
0.886589
0.886589
0.886588
0.886588
0.886586
0.886584
0.886579
0.886569
0.886549
0.886509
0.886433
0.886295
0.886064
0.893922
0.894144
0.894279
0.894354
0.894394
0.894414
0.894425