/*--------------------------------*- C++ -*----------------------------------*\
| =========                 |                                                 |
| \\      /  F ield         | foam-extend: Open Source CFD                    |
|  \\    /   O peration     | Version:     4.0                                |
|   \\  /    A nd           | Web:         http://www.foam-extend.org         |
|    \\/     M anipulation  |                                                 |
\*---------------------------------------------------------------------------*/
FoamFile
{
    version     2.0;
    format      ascii;
    class       volScalarField;
    location    "1280";
    object      cMinus;
}
// * * * * * * * * * * * * * * * * * * * * * * * * * * * * * * * * * * * * * //

dimensions      [0 0 0 0 0 0 0];

internalField   nonuniform List<scalar> 
6960
(
-2.71455e-21
-2.64724e-21
-2.64284e-21
-2.64274e-21
-2.64291e-21
-2.64316e-21
-2.64343e-21
-2.64373e-21
-2.64402e-21
-2.64431e-21
-2.64459e-21
-2.64485e-21
-2.64508e-21
-2.6453e-21
-2.64549e-21
-2.64565e-21
-2.6458e-21
-2.64592e-21
-2.64603e-21
-2.64612e-21
-2.6462e-21
-2.64626e-21
-2.64631e-21
-2.64636e-21
-2.64639e-21
-2.64642e-21
-2.64644e-21
-2.64646e-21
-2.64647e-21
-2.64647e-21
-2.64647e-21
-2.64647e-21
-2.64646e-21
-2.64644e-21
-2.64642e-21
-2.64639e-21
-2.64636e-21
-2.64631e-21
-2.64626e-21
-2.6462e-21
-2.64612e-21
-2.64603e-21
-2.64592e-21
-2.6458e-21
-2.64565e-21
-2.64549e-21
-2.6453e-21
-2.64508e-21
-2.64485e-21
-2.64459e-21
-2.64431e-21
-2.64402e-21
-2.64373e-21
-2.64343e-21
-2.64316e-21
-2.64291e-21
-2.64274e-21
-2.64284e-21
-2.64724e-21
-2.71455e-21
-3.41865e-21
-3.33401e-21
-3.32851e-21
-3.32839e-21
-3.32862e-21
-3.32893e-21
-3.32928e-21
-3.32966e-21
-3.33004e-21
-3.33042e-21
-3.33078e-21
-3.33111e-21
-3.33142e-21
-3.3317e-21
-3.33195e-21
-3.33217e-21
-3.33236e-21
-3.33253e-21
-3.33267e-21
-3.33279e-21
-3.3329e-21
-3.33299e-21
-3.33306e-21
-3.33312e-21
-3.33317e-21
-3.33321e-21
-3.33324e-21
-3.33326e-21
-3.33327e-21
-3.33328e-21
-3.33328e-21
-3.33327e-21
-3.33326e-21
-3.33324e-21
-3.33321e-21
-3.33317e-21
-3.33312e-21
-3.33306e-21
-3.33299e-21
-3.3329e-21
-3.33279e-21
-3.33267e-21
-3.33253e-21
-3.33236e-21
-3.33217e-21
-3.33195e-21
-3.3317e-21
-3.33142e-21
-3.33111e-21
-3.33078e-21
-3.33042e-21
-3.33004e-21
-3.32966e-21
-3.32928e-21
-3.32893e-21
-3.32862e-21
-3.32839e-21
-3.32851e-21
-3.33401e-21
-3.41865e-21
-6.23765e-21
-6.08386e-21
-6.07393e-21
-6.07371e-21
-6.07413e-21
-6.0747e-21
-6.07535e-21
-6.07605e-21
-6.07675e-21
-6.07745e-21
-6.07811e-21
-6.07872e-21
-6.07929e-21
-6.0798e-21
-6.08026e-21
-6.08066e-21
-6.08102e-21
-6.08133e-21
-6.08159e-21
-6.08182e-21
-6.08202e-21
-6.08218e-21
-6.08232e-21
-6.08243e-21
-6.08252e-21
-6.0826e-21
-6.08265e-21
-6.08269e-21
-6.08272e-21
-6.08273e-21
-6.08273e-21
-6.08272e-21
-6.08269e-21
-6.08265e-21
-6.0826e-21
-6.08252e-21
-6.08243e-21
-6.08232e-21
-6.08218e-21
-6.08202e-21
-6.08182e-21
-6.08159e-21
-6.08133e-21
-6.08102e-21
-6.08066e-21
-6.08026e-21
-6.0798e-21
-6.07929e-21
-6.07872e-21
-6.07811e-21
-6.07745e-21
-6.07675e-21
-6.07605e-21
-6.07535e-21
-6.0747e-21
-6.07413e-21
-6.07371e-21
-6.07393e-21
-6.08386e-21
-6.23765e-21
-1.24277e-20
-1.21227e-20
-1.21031e-20
-1.21027e-20
-1.21035e-20
-1.21047e-20
-1.2106e-20
-1.21073e-20
-1.21087e-20
-1.21101e-20
-1.21114e-20
-1.21127e-20
-1.21138e-20
-1.21148e-20
-1.21157e-20
-1.21165e-20
-1.21172e-20
-1.21178e-20
-1.21184e-20
-1.21188e-20
-1.21192e-20
-1.21195e-20
-1.21198e-20
-1.212e-20
-1.21202e-20
-1.21204e-20
-1.21205e-20
-1.21206e-20
-1.21206e-20
-1.21206e-20
-1.21206e-20
-1.21206e-20
-1.21206e-20
-1.21205e-20
-1.21204e-20
-1.21202e-20
-1.212e-20
-1.21198e-20
-1.21195e-20
-1.21192e-20
-1.21188e-20
-1.21184e-20
-1.21178e-20
-1.21172e-20
-1.21165e-20
-1.21157e-20
-1.21148e-20
-1.21138e-20
-1.21127e-20
-1.21114e-20
-1.21101e-20
-1.21087e-20
-1.21073e-20
-1.2106e-20
-1.21047e-20
-1.21035e-20
-1.21027e-20
-1.21031e-20
-1.21227e-20
-1.24277e-20
-2.48952e-20
-2.42869e-20
-2.42481e-20
-2.42472e-20
-2.42489e-20
-2.42512e-20
-2.42538e-20
-2.42565e-20
-2.42593e-20
-2.42621e-20
-2.42647e-20
-2.42671e-20
-2.42694e-20
-2.42714e-20
-2.42732e-20
-2.42748e-20
-2.42762e-20
-2.42775e-20
-2.42785e-20
-2.42794e-20
-2.42802e-20
-2.42808e-20
-2.42814e-20
-2.42818e-20
-2.42822e-20
-2.42825e-20
-2.42827e-20
-2.42828e-20
-2.42829e-20
-2.4283e-20
-2.4283e-20
-2.42829e-20
-2.42828e-20
-2.42827e-20
-2.42825e-20
-2.42822e-20
-2.42818e-20
-2.42814e-20
-2.42808e-20
-2.42802e-20
-2.42794e-20
-2.42785e-20
-2.42775e-20
-2.42762e-20
-2.42748e-20
-2.42732e-20
-2.42714e-20
-2.42694e-20
-2.42671e-20
-2.42647e-20
-2.42621e-20
-2.42593e-20
-2.42565e-20
-2.42538e-20
-2.42512e-20
-2.42489e-20
-2.42472e-20
-2.42481e-20
-2.42869e-20
-2.48952e-20
-4.95114e-20
-4.83072e-20
-4.82306e-20
-4.8229e-20
-4.82323e-20
-4.82368e-20
-4.82419e-20
-4.82474e-20
-4.8253e-20
-4.82585e-20
-4.82637e-20
-4.82685e-20
-4.8273e-20
-4.8277e-20
-4.82806e-20
-4.82838e-20
-4.82865e-20
-4.8289e-20
-4.8291e-20
-4.82928e-20
-4.82943e-20
-4.82956e-20
-4.82967e-20
-4.82975e-20
-4.82982e-20
-4.82988e-20
-4.82992e-20
-4.82995e-20
-4.82997e-20
-4.82998e-20
-4.82998e-20
-4.82997e-20
-4.82995e-20
-4.82992e-20
-4.82988e-20
-4.82982e-20
-4.82975e-20
-4.82967e-20
-4.82956e-20
-4.82943e-20
-4.82928e-20
-4.8291e-20
-4.8289e-20
-4.82865e-20
-4.82838e-20
-4.82806e-20
-4.8277e-20
-4.8273e-20
-4.82685e-20
-4.82637e-20
-4.82585e-20
-4.8253e-20
-4.82474e-20
-4.82419e-20
-4.82368e-20
-4.82323e-20
-4.8229e-20
-4.82306e-20
-4.83072e-20
-4.95114e-20
-9.78666e-20
-9.54975e-20
-9.53476e-20
-9.53445e-20
-9.53511e-20
-9.536e-20
-9.53701e-20
-9.5381e-20
-9.5392e-20
-9.54028e-20
-9.5413e-20
-9.54226e-20
-9.54314e-20
-9.54393e-20
-9.54464e-20
-9.54526e-20
-9.54581e-20
-9.54628e-20
-9.54669e-20
-9.54704e-20
-9.54734e-20
-9.54759e-20
-9.54779e-20
-9.54796e-20
-9.5481e-20
-9.54821e-20
-9.54829e-20
-9.54836e-20
-9.5484e-20
-9.54842e-20
-9.54842e-20
-9.5484e-20
-9.54836e-20
-9.54829e-20
-9.54821e-20
-9.5481e-20
-9.54796e-20
-9.54779e-20
-9.54759e-20
-9.54734e-20
-9.54704e-20
-9.54669e-20
-9.54628e-20
-9.54581e-20
-9.54526e-20
-9.54464e-20
-9.54393e-20
-9.54314e-20
-9.54226e-20
-9.5413e-20
-9.54028e-20
-9.5392e-20
-9.5381e-20
-9.53701e-20
-9.536e-20
-9.53511e-20
-9.53445e-20
-9.53476e-20
-9.54975e-20
-9.78666e-20
-1.92714e-19
-1.88071e-19
-1.87779e-19
-1.87773e-19
-1.87786e-19
-1.87803e-19
-1.87823e-19
-1.87845e-19
-1.87866e-19
-1.87888e-19
-1.87908e-19
-1.87927e-19
-1.87944e-19
-1.87959e-19
-1.87973e-19
-1.87986e-19
-1.87996e-19
-1.88006e-19
-1.88014e-19
-1.88021e-19
-1.88026e-19
-1.88031e-19
-1.88035e-19
-1.88039e-19
-1.88041e-19
-1.88043e-19
-1.88045e-19
-1.88046e-19
-1.88047e-19
-1.88047e-19
-1.88047e-19
-1.88047e-19
-1.88046e-19
-1.88045e-19
-1.88043e-19
-1.88041e-19
-1.88039e-19
-1.88035e-19
-1.88031e-19
-1.88026e-19
-1.88021e-19
-1.88014e-19
-1.88006e-19
-1.87996e-19
-1.87986e-19
-1.87973e-19
-1.87959e-19
-1.87944e-19
-1.87927e-19
-1.87908e-19
-1.87888e-19
-1.87866e-19
-1.87845e-19
-1.87823e-19
-1.87803e-19
-1.87786e-19
-1.87773e-19
-1.87779e-19
-1.88071e-19
-1.92714e-19
-3.78625e-19
-3.69545e-19
-3.68976e-19
-3.68965e-19
-3.68991e-19
-3.69025e-19
-3.69065e-19
-3.69107e-19
-3.69149e-19
-3.69191e-19
-3.69231e-19
-3.69268e-19
-3.69301e-19
-3.69332e-19
-3.69359e-19
-3.69383e-19
-3.69404e-19
-3.69422e-19
-3.69438e-19
-3.69452e-19
-3.69463e-19
-3.69472e-19
-3.6948e-19
-3.69487e-19
-3.69492e-19
-3.69496e-19
-3.69499e-19
-3.69502e-19
-3.69503e-19
-3.69504e-19
-3.69504e-19
-3.69503e-19
-3.69502e-19
-3.69499e-19
-3.69496e-19
-3.69492e-19
-3.69487e-19
-3.6948e-19
-3.69472e-19
-3.69463e-19
-3.69452e-19
-3.69438e-19
-3.69422e-19
-3.69404e-19
-3.69383e-19
-3.69359e-19
-3.69332e-19
-3.69301e-19
-3.69268e-19
-3.69231e-19
-3.69191e-19
-3.69149e-19
-3.69107e-19
-3.69065e-19
-3.69025e-19
-3.68991e-19
-3.68965e-19
-3.68976e-19
-3.69545e-19
-3.78625e-19
-7.42757e-19
-7.2502e-19
-7.23917e-19
-7.23896e-19
-7.23946e-19
-7.24014e-19
-7.24091e-19
-7.24174e-19
-7.24258e-19
-7.2434e-19
-7.24417e-19
-7.2449e-19
-7.24556e-19
-7.24616e-19
-7.2467e-19
-7.24717e-19
-7.24758e-19
-7.24794e-19
-7.24824e-19
-7.24851e-19
-7.24873e-19
-7.24891e-19
-7.24907e-19
-7.2492e-19
-7.2493e-19
-7.24938e-19
-7.24944e-19
-7.24949e-19
-7.24952e-19
-7.24953e-19
-7.24953e-19
-7.24952e-19
-7.24949e-19
-7.24944e-19
-7.24938e-19
-7.2493e-19
-7.2492e-19
-7.24907e-19
-7.24891e-19
-7.24873e-19
-7.24851e-19
-7.24824e-19
-7.24794e-19
-7.24758e-19
-7.24717e-19
-7.2467e-19
-7.24616e-19
-7.24556e-19
-7.2449e-19
-7.24417e-19
-7.2434e-19
-7.24258e-19
-7.24174e-19
-7.24091e-19
-7.24014e-19
-7.23946e-19
-7.23896e-19
-7.23917e-19
-7.2502e-19
-7.42757e-19
-1.45516e-18
-1.42054e-18
-1.4184e-18
-1.41836e-18
-1.41846e-18
-1.41859e-18
-1.41875e-18
-1.41891e-18
-1.41907e-18
-1.41923e-18
-1.41939e-18
-1.41953e-18
-1.41966e-18
-1.41978e-18
-1.41988e-18
-1.41997e-18
-1.42006e-18
-1.42013e-18
-1.42019e-18
-1.42024e-18
-1.42028e-18
-1.42032e-18
-1.42035e-18
-1.42037e-18
-1.42039e-18
-1.42041e-18
-1.42042e-18
-1.42043e-18
-1.42043e-18
-1.42044e-18
-1.42044e-18
-1.42043e-18
-1.42043e-18
-1.42042e-18
-1.42041e-18
-1.42039e-18
-1.42037e-18
-1.42035e-18
-1.42032e-18
-1.42028e-18
-1.42024e-18
-1.42019e-18
-1.42013e-18
-1.42006e-18
-1.41997e-18
-1.41988e-18
-1.41978e-18
-1.41966e-18
-1.41953e-18
-1.41939e-18
-1.41923e-18
-1.41907e-18
-1.41891e-18
-1.41875e-18
-1.41859e-18
-1.41846e-18
-1.41836e-18
-1.4184e-18
-1.42054e-18
-1.45516e-18
-2.84651e-18
-2.77896e-18
-2.77482e-18
-2.77475e-18
-2.77494e-18
-2.7752e-18
-2.7755e-18
-2.77582e-18
-2.77615e-18
-2.77646e-18
-2.77676e-18
-2.77704e-18
-2.7773e-18
-2.77753e-18
-2.77773e-18
-2.77792e-18
-2.77807e-18
-2.77821e-18
-2.77833e-18
-2.77843e-18
-2.77851e-18
-2.77858e-18
-2.77864e-18
-2.77869e-18
-2.77873e-18
-2.77876e-18
-2.77879e-18
-2.7788e-18
-2.77881e-18
-2.77882e-18
-2.77882e-18
-2.77881e-18
-2.7788e-18
-2.77879e-18
-2.77876e-18
-2.77873e-18
-2.77869e-18
-2.77864e-18
-2.77858e-18
-2.77851e-18
-2.77843e-18
-2.77833e-18
-2.77821e-18
-2.77807e-18
-2.77792e-18
-2.77773e-18
-2.77753e-18
-2.7773e-18
-2.77704e-18
-2.77676e-18
-2.77646e-18
-2.77615e-18
-2.77582e-18
-2.7755e-18
-2.7752e-18
-2.77494e-18
-2.77475e-18
-2.77482e-18
-2.77896e-18
-2.84651e-18
-5.55644e-18
-5.42471e-18
-5.4167e-18
-5.41657e-18
-5.41695e-18
-5.41746e-18
-5.41805e-18
-5.41868e-18
-5.41931e-18
-5.41994e-18
-5.42053e-18
-5.42108e-18
-5.42158e-18
-5.42203e-18
-5.42243e-18
-5.42279e-18
-5.4231e-18
-5.42337e-18
-5.4236e-18
-5.4238e-18
-5.42396e-18
-5.4241e-18
-5.42422e-18
-5.42431e-18
-5.42439e-18
-5.42445e-18
-5.4245e-18
-5.42453e-18
-5.42455e-18
-5.42456e-18
-5.42456e-18
-5.42455e-18
-5.42453e-18
-5.4245e-18
-5.42445e-18
-5.42439e-18
-5.42431e-18
-5.42422e-18
-5.4241e-18
-5.42396e-18
-5.4238e-18
-5.4236e-18
-5.42337e-18
-5.4231e-18
-5.42279e-18
-5.42243e-18
-5.42203e-18
-5.42158e-18
-5.42108e-18
-5.42053e-18
-5.41994e-18
-5.41931e-18
-5.41868e-18
-5.41805e-18
-5.41746e-18
-5.41695e-18
-5.41657e-18
-5.4167e-18
-5.42471e-18
-5.55644e-18
-1.0812e-17
-1.05552e-17
-1.05397e-17
-1.05395e-17
-1.05403e-17
-1.05413e-17
-1.05424e-17
-1.05437e-17
-1.05449e-17
-1.05461e-17
-1.05473e-17
-1.05484e-17
-1.05493e-17
-1.05502e-17
-1.0551e-17
-1.05517e-17
-1.05523e-17
-1.05529e-17
-1.05533e-17
-1.05537e-17
-1.0554e-17
-1.05543e-17
-1.05545e-17
-1.05547e-17
-1.05549e-17
-1.0555e-17
-1.05551e-17
-1.05551e-17
-1.05552e-17
-1.05552e-17
-1.05552e-17
-1.05552e-17
-1.05551e-17
-1.05551e-17
-1.0555e-17
-1.05549e-17
-1.05547e-17
-1.05545e-17
-1.05543e-17
-1.0554e-17
-1.05537e-17
-1.05533e-17
-1.05529e-17
-1.05523e-17
-1.05517e-17
-1.0551e-17
-1.05502e-17
-1.05493e-17
-1.05484e-17
-1.05473e-17
-1.05461e-17
-1.05449e-17
-1.05437e-17
-1.05424e-17
-1.05413e-17
-1.05403e-17
-1.05395e-17
-1.05397e-17
-1.05552e-17
-1.0812e-17
-2.09353e-17
-2.04349e-17
-2.0405e-17
-2.04045e-17
-2.0406e-17
-2.0408e-17
-2.04102e-17
-2.04127e-17
-2.04151e-17
-2.04175e-17
-2.04198e-17
-2.04219e-17
-2.04239e-17
-2.04256e-17
-2.04272e-17
-2.04285e-17
-2.04297e-17
-2.04308e-17
-2.04317e-17
-2.04324e-17
-2.0433e-17
-2.04336e-17
-2.0434e-17
-2.04344e-17
-2.04347e-17
-2.04349e-17
-2.04351e-17
-2.04352e-17
-2.04353e-17
-2.04353e-17
-2.04353e-17
-2.04353e-17
-2.04352e-17
-2.04351e-17
-2.04349e-17
-2.04347e-17
-2.04344e-17
-2.0434e-17
-2.04336e-17
-2.0433e-17
-2.04324e-17
-2.04317e-17
-2.04308e-17
-2.04297e-17
-2.04285e-17
-2.04272e-17
-2.04256e-17
-2.04239e-17
-2.04219e-17
-2.04198e-17
-2.04175e-17
-2.04151e-17
-2.04127e-17
-2.04102e-17
-2.0408e-17
-2.0406e-17
-2.04045e-17
-2.0405e-17
-2.04349e-17
-2.09353e-17
-4.0219e-17
-3.9244e-17
-3.91863e-17
-3.91855e-17
-3.91884e-17
-3.91923e-17
-3.91967e-17
-3.92015e-17
-3.92063e-17
-3.9211e-17
-3.92155e-17
-3.92197e-17
-3.92235e-17
-3.92269e-17
-3.923e-17
-3.92327e-17
-3.9235e-17
-3.92371e-17
-3.92388e-17
-3.92403e-17
-3.92415e-17
-3.92426e-17
-3.92434e-17
-3.92441e-17
-3.92447e-17
-3.92452e-17
-3.92455e-17
-3.92458e-17
-3.92459e-17
-3.9246e-17
-3.9246e-17
-3.92459e-17
-3.92458e-17
-3.92455e-17
-3.92452e-17
-3.92447e-17
-3.92441e-17
-3.92434e-17
-3.92426e-17
-3.92415e-17
-3.92403e-17
-3.92388e-17
-3.92371e-17
-3.9235e-17
-3.92327e-17
-3.923e-17
-3.92269e-17
-3.92235e-17
-3.92197e-17
-3.92155e-17
-3.9211e-17
-3.92063e-17
-3.92015e-17
-3.91967e-17
-3.91923e-17
-3.91884e-17
-3.91855e-17
-3.91863e-17
-3.9244e-17
-4.0219e-17
-7.62678e-17
-7.43691e-17
-7.42579e-17
-7.42564e-17
-7.42621e-17
-7.42698e-17
-7.42786e-17
-7.42879e-17
-7.42974e-17
-7.43067e-17
-7.43155e-17
-7.43237e-17
-7.43312e-17
-7.43379e-17
-7.43439e-17
-7.43492e-17
-7.43538e-17
-7.43577e-17
-7.43612e-17
-7.43641e-17
-7.43665e-17
-7.43685e-17
-7.43702e-17
-7.43716e-17
-7.43727e-17
-7.43736e-17
-7.43743e-17
-7.43748e-17
-7.43751e-17
-7.43752e-17
-7.43752e-17
-7.43751e-17
-7.43748e-17
-7.43743e-17
-7.43736e-17
-7.43727e-17
-7.43716e-17
-7.43702e-17
-7.43685e-17
-7.43665e-17
-7.43641e-17
-7.43612e-17
-7.43577e-17
-7.43538e-17
-7.43492e-17
-7.43439e-17
-7.43379e-17
-7.43312e-17
-7.43237e-17
-7.43155e-17
-7.43067e-17
-7.42974e-17
-7.42879e-17
-7.42786e-17
-7.42698e-17
-7.42621e-17
-7.42564e-17
-7.42579e-17
-7.43691e-17
-7.62678e-17
-1.41437e-16
-1.37741e-16
-1.37527e-16
-1.37525e-16
-1.37536e-16
-1.37551e-16
-1.37568e-16
-1.37586e-16
-1.37605e-16
-1.37623e-16
-1.3764e-16
-1.37657e-16
-1.37671e-16
-1.37684e-16
-1.37696e-16
-1.37707e-16
-1.37716e-16
-1.37723e-16
-1.3773e-16
-1.37736e-16
-1.3774e-16
-1.37744e-16
-1.37748e-16
-1.3775e-16
-1.37753e-16
-1.37754e-16
-1.37756e-16
-1.37757e-16
-1.37757e-16
-1.37757e-16
-1.37757e-16
-1.37757e-16
-1.37757e-16
-1.37756e-16
-1.37754e-16
-1.37753e-16
-1.3775e-16
-1.37748e-16
-1.37744e-16
-1.3774e-16
-1.37736e-16
-1.3773e-16
-1.37723e-16
-1.37716e-16
-1.37707e-16
-1.37696e-16
-1.37684e-16
-1.37671e-16
-1.37657e-16
-1.3764e-16
-1.37623e-16
-1.37605e-16
-1.37586e-16
-1.37568e-16
-1.37551e-16
-1.37536e-16
-1.37525e-16
-1.37527e-16
-1.37741e-16
-1.41437e-16
-2.51815e-16
-2.44624e-16
-2.44212e-16
-2.44207e-16
-2.44229e-16
-2.44258e-16
-2.44292e-16
-2.44328e-16
-2.44364e-16
-2.444e-16
-2.44434e-16
-2.44465e-16
-2.44494e-16
-2.4452e-16
-2.44543e-16
-2.44563e-16
-2.44581e-16
-2.44596e-16
-2.44609e-16
-2.4462e-16
-2.44629e-16
-2.44637e-16
-2.44643e-16
-2.44648e-16
-2.44653e-16
-2.44656e-16
-2.44659e-16
-2.4466e-16
-2.44662e-16
-2.44662e-16
-2.44662e-16
-2.44662e-16
-2.4466e-16
-2.44659e-16
-2.44656e-16
-2.44653e-16
-2.44648e-16
-2.44643e-16
-2.44637e-16
-2.44629e-16
-2.4462e-16
-2.44609e-16
-2.44596e-16
-2.44581e-16
-2.44563e-16
-2.44543e-16
-2.4452e-16
-2.44494e-16
-2.44465e-16
-2.44434e-16
-2.444e-16
-2.44364e-16
-2.44328e-16
-2.44292e-16
-2.44258e-16
-2.44229e-16
-2.44207e-16
-2.44212e-16
-2.44624e-16
-2.51815e-16
-4.12681e-16
-3.98696e-16
-3.97905e-16
-3.97895e-16
-3.97937e-16
-3.97993e-16
-3.98059e-16
-3.98129e-16
-3.982e-16
-3.98269e-16
-3.98335e-16
-3.98397e-16
-3.98453e-16
-3.98503e-16
-3.98548e-16
-3.98587e-16
-3.98621e-16
-3.98651e-16
-3.98676e-16
-3.98697e-16
-3.98715e-16
-3.9873e-16
-3.98742e-16
-3.98753e-16
-3.98761e-16
-3.98767e-16
-3.98772e-16
-3.98775e-16
-3.98778e-16
-3.98779e-16
-3.98779e-16
-3.98778e-16
-3.98775e-16
-3.98772e-16
-3.98767e-16
-3.98761e-16
-3.98753e-16
-3.98742e-16
-3.9873e-16
-3.98715e-16
-3.98697e-16
-3.98676e-16
-3.98651e-16
-3.98621e-16
-3.98587e-16
-3.98548e-16
-3.98503e-16
-3.98453e-16
-3.98397e-16
-3.98335e-16
-3.98269e-16
-3.982e-16
-3.98129e-16
-3.98059e-16
-3.97993e-16
-3.97937e-16
-3.97895e-16
-3.97905e-16
-3.98696e-16
-4.12681e-16
-5.48382e-16
-5.212e-16
-5.19679e-16
-5.19659e-16
-5.19739e-16
-5.19847e-16
-5.19973e-16
-5.20108e-16
-5.20245e-16
-5.2038e-16
-5.20507e-16
-5.20626e-16
-5.20734e-16
-5.20831e-16
-5.20918e-16
-5.20993e-16
-5.21059e-16
-5.21116e-16
-5.21164e-16
-5.21205e-16
-5.21239e-16
-5.21267e-16
-5.21291e-16
-5.2131e-16
-5.21325e-16
-5.21337e-16
-5.21346e-16
-5.21352e-16
-5.21357e-16
-5.21359e-16
-5.21359e-16
-5.21357e-16
-5.21352e-16
-5.21346e-16
-5.21337e-16
-5.21325e-16
-5.2131e-16
-5.21291e-16
-5.21267e-16
-5.21239e-16
-5.21205e-16
-5.21164e-16
-5.21116e-16
-5.21059e-16
-5.20993e-16
-5.20918e-16
-5.20831e-16
-5.20734e-16
-5.20626e-16
-5.20507e-16
-5.2038e-16
-5.20245e-16
-5.20108e-16
-5.19973e-16
-5.19847e-16
-5.19739e-16
-5.19659e-16
-5.19679e-16
-5.212e-16
-5.48382e-16
-2.24619e-16
-1.71813e-16
-1.6889e-16
-1.68844e-16
-1.68988e-16
-1.69191e-16
-1.69429e-16
-1.69685e-16
-1.69946e-16
-1.70202e-16
-1.70445e-16
-1.70671e-16
-1.70877e-16
-1.71062e-16
-1.71225e-16
-1.71369e-16
-1.71492e-16
-1.71599e-16
-1.71689e-16
-1.71765e-16
-1.71828e-16
-1.71881e-16
-1.71924e-16
-1.71958e-16
-1.71986e-16
-1.72007e-16
-1.72024e-16
-1.72035e-16
-1.72043e-16
-1.72047e-16
-1.72047e-16
-1.72043e-16
-1.72035e-16
-1.72024e-16
-1.72007e-16
-1.71986e-16
-1.71958e-16
-1.71924e-16
-1.71881e-16
-1.71828e-16
-1.71765e-16
-1.71689e-16
-1.71599e-16
-1.71492e-16
-1.71369e-16
-1.71225e-16
-1.71062e-16
-1.70877e-16
-1.70671e-16
-1.70445e-16
-1.70202e-16
-1.69946e-16
-1.69685e-16
-1.69429e-16
-1.69191e-16
-1.68988e-16
-1.68844e-16
-1.6889e-16
-1.71813e-16
-2.24619e-16
2.376e-15
2.47853e-15
2.48416e-15
2.48428e-15
2.48404e-15
2.48368e-15
2.48325e-15
2.48278e-15
2.4823e-15
2.48183e-15
2.48138e-15
2.48096e-15
2.48058e-15
2.48024e-15
2.47994e-15
2.47968e-15
2.47945e-15
2.47926e-15
2.4791e-15
2.47896e-15
2.47885e-15
2.47876e-15
2.47869e-15
2.47863e-15
2.47858e-15
2.47855e-15
2.47852e-15
2.4785e-15
2.47849e-15
2.47848e-15
2.47848e-15
2.47849e-15
2.4785e-15
2.47852e-15
2.47855e-15
2.47858e-15
2.47863e-15
2.47869e-15
2.47876e-15
2.47885e-15
2.47896e-15
2.4791e-15
2.47926e-15
2.47945e-15
2.47968e-15
2.47994e-15
2.48024e-15
2.48058e-15
2.48096e-15
2.48138e-15
2.48183e-15
2.4823e-15
2.48278e-15
2.48325e-15
2.48368e-15
2.48404e-15
2.48428e-15
2.48416e-15
2.47853e-15
2.376e-15
1.41301e-14
1.43291e-14
1.43399e-14
1.43403e-14
1.434e-14
1.43394e-14
1.43387e-14
1.43379e-14
1.43371e-14
1.43363e-14
1.43355e-14
1.43348e-14
1.43341e-14
1.43335e-14
1.4333e-14
1.43326e-14
1.43322e-14
1.43319e-14
1.43316e-14
1.43314e-14
1.43312e-14
1.43311e-14
1.4331e-14
1.43309e-14
1.43309e-14
1.43308e-14
1.43308e-14
1.43307e-14
1.43307e-14
1.43307e-14
1.43307e-14
1.43307e-14
1.43307e-14
1.43308e-14
1.43308e-14
1.43309e-14
1.43309e-14
1.4331e-14
1.43311e-14
1.43312e-14
1.43314e-14
1.43316e-14
1.43319e-14
1.43322e-14
1.43326e-14
1.4333e-14
1.43335e-14
1.43341e-14
1.43348e-14
1.43355e-14
1.43363e-14
1.43371e-14
1.43379e-14
1.43387e-14
1.43394e-14
1.434e-14
1.43403e-14
1.43399e-14
1.43291e-14
1.41301e-14
6.00586e-14
6.04446e-14
6.04659e-14
6.04671e-14
6.0467e-14
6.04664e-14
6.04655e-14
6.04644e-14
6.04632e-14
6.0462e-14
6.04608e-14
6.04597e-14
6.04588e-14
6.04579e-14
6.04572e-14
6.04566e-14
6.04561e-14
6.04557e-14
6.04554e-14
6.04552e-14
6.0455e-14
6.04549e-14
6.04549e-14
6.04548e-14
6.04548e-14
6.04548e-14
6.04548e-14
6.04548e-14
6.04548e-14
6.04548e-14
6.04548e-14
6.04548e-14
6.04548e-14
6.04548e-14
6.04548e-14
6.04548e-14
6.04548e-14
6.04549e-14
6.04549e-14
6.0455e-14
6.04552e-14
6.04554e-14
6.04557e-14
6.04561e-14
6.04566e-14
6.04572e-14
6.04579e-14
6.04588e-14
6.04597e-14
6.04608e-14
6.0462e-14
6.04632e-14
6.04644e-14
6.04655e-14
6.04664e-14
6.0467e-14
6.04671e-14
6.04659e-14
6.04446e-14
6.00586e-14
2.29974e-13
2.30723e-13
2.30765e-13
2.3077e-13
2.30771e-13
2.30772e-13
2.30772e-13
2.30771e-13
2.30771e-13
2.3077e-13
2.30769e-13
2.30768e-13
2.30767e-13
2.30767e-13
2.30766e-13
2.30766e-13
2.30766e-13
2.30766e-13
2.30766e-13
2.30767e-13
2.30767e-13
2.30767e-13
2.30768e-13
2.30768e-13
2.30768e-13
2.30769e-13
2.30769e-13
2.30769e-13
2.30769e-13
2.30769e-13
2.30769e-13
2.30769e-13
2.30769e-13
2.30769e-13
2.30769e-13
2.30768e-13
2.30768e-13
2.30768e-13
2.30767e-13
2.30767e-13
2.30767e-13
2.30766e-13
2.30766e-13
2.30766e-13
2.30766e-13
2.30766e-13
2.30767e-13
2.30767e-13
2.30768e-13
2.30769e-13
2.3077e-13
2.30771e-13
2.30771e-13
2.30772e-13
2.30772e-13
2.30771e-13
2.3077e-13
2.30765e-13
2.30723e-13
2.29974e-13
8.4579e-13
8.47245e-13
8.47332e-13
8.47348e-13
8.47358e-13
8.47367e-13
8.47373e-13
8.47378e-13
8.47382e-13
8.47386e-13
8.47389e-13
8.47393e-13
8.47396e-13
8.47399e-13
8.47402e-13
8.47405e-13
8.47408e-13
8.47412e-13
8.47415e-13
8.47418e-13
8.47421e-13
8.47423e-13
8.47426e-13
8.47428e-13
8.4743e-13
8.47432e-13
8.47433e-13
8.47434e-13
8.47435e-13
8.47435e-13
8.47435e-13
8.47435e-13
8.47434e-13
8.47433e-13
8.47432e-13
8.4743e-13
8.47428e-13
8.47426e-13
8.47423e-13
8.47421e-13
8.47418e-13
8.47415e-13
8.47412e-13
8.47408e-13
8.47405e-13
8.47402e-13
8.47399e-13
8.47396e-13
8.47393e-13
8.47389e-13
8.47386e-13
8.47382e-13
8.47378e-13
8.47373e-13
8.47367e-13
8.47358e-13
8.47348e-13
8.47332e-13
8.47245e-13
8.4579e-13
3.06633e-12
3.06917e-12
3.06936e-12
3.06942e-12
3.06946e-12
3.0695e-12
3.06954e-12
3.06957e-12
3.0696e-12
3.06963e-12
3.06966e-12
3.06968e-12
3.0697e-12
3.06973e-12
3.06975e-12
3.06977e-12
3.06978e-12
3.0698e-12
3.06982e-12
3.06983e-12
3.06985e-12
3.06986e-12
3.06987e-12
3.06988e-12
3.06989e-12
3.0699e-12
3.06991e-12
3.06991e-12
3.06991e-12
3.06991e-12
3.06991e-12
3.06991e-12
3.06991e-12
3.06991e-12
3.0699e-12
3.06989e-12
3.06988e-12
3.06987e-12
3.06986e-12
3.06985e-12
3.06983e-12
3.06982e-12
3.0698e-12
3.06978e-12
3.06977e-12
3.06975e-12
3.06973e-12
3.0697e-12
3.06968e-12
3.06966e-12
3.06963e-12
3.0696e-12
3.06957e-12
3.06954e-12
3.0695e-12
3.06946e-12
3.06942e-12
3.06936e-12
3.06917e-12
3.06633e-12
1.10905e-11
1.1096e-11
1.10965e-11
1.10967e-11
1.10969e-11
1.10971e-11
1.10973e-11
1.10974e-11
1.10975e-11
1.10977e-11
1.10978e-11
1.10979e-11
1.1098e-11
1.10981e-11
1.10982e-11
1.10983e-11
1.10984e-11
1.10985e-11
1.10985e-11
1.10986e-11
1.10987e-11
1.10987e-11
1.10988e-11
1.10988e-11
1.10988e-11
1.10989e-11
1.10989e-11
1.10989e-11
1.10989e-11
1.10989e-11
1.10989e-11
1.10989e-11
1.10989e-11
1.10989e-11
1.10989e-11
1.10988e-11
1.10988e-11
1.10988e-11
1.10987e-11
1.10987e-11
1.10986e-11
1.10985e-11
1.10985e-11
1.10984e-11
1.10983e-11
1.10982e-11
1.10981e-11
1.1098e-11
1.10979e-11
1.10978e-11
1.10977e-11
1.10975e-11
1.10974e-11
1.10973e-11
1.10971e-11
1.10969e-11
1.10967e-11
1.10965e-11
1.1096e-11
1.10905e-11
4.02327e-11
4.02437e-11
4.0245e-11
4.02458e-11
4.02465e-11
4.02472e-11
4.02479e-11
4.02485e-11
4.02491e-11
4.02496e-11
4.02502e-11
4.02506e-11
4.02511e-11
4.02515e-11
4.02519e-11
4.02522e-11
4.02526e-11
4.02529e-11
4.02532e-11
4.02534e-11
4.02537e-11
4.02539e-11
4.02541e-11
4.02542e-11
4.02544e-11
4.02545e-11
4.02546e-11
4.02547e-11
4.02547e-11
4.02547e-11
4.02547e-11
4.02547e-11
4.02547e-11
4.02546e-11
4.02545e-11
4.02544e-11
4.02542e-11
4.02541e-11
4.02539e-11
4.02537e-11
4.02534e-11
4.02532e-11
4.02529e-11
4.02526e-11
4.02522e-11
4.02519e-11
4.02515e-11
4.02511e-11
4.02506e-11
4.02502e-11
4.02496e-11
4.02491e-11
4.02485e-11
4.02479e-11
4.02472e-11
4.02465e-11
4.02458e-11
4.0245e-11
4.02437e-11
4.02327e-11
1.46634e-10
1.46657e-10
1.4666e-10
1.46663e-10
1.46666e-10
1.46669e-10
1.46672e-10
1.46674e-10
1.46676e-10
1.46679e-10
1.46681e-10
1.46682e-10
1.46684e-10
1.46686e-10
1.46687e-10
1.46689e-10
1.4669e-10
1.46691e-10
1.46692e-10
1.46693e-10
1.46694e-10
1.46695e-10
1.46696e-10
1.46697e-10
1.46697e-10
1.46697e-10
1.46698e-10
1.46698e-10
1.46698e-10
1.46698e-10
1.46698e-10
1.46698e-10
1.46698e-10
1.46698e-10
1.46697e-10
1.46697e-10
1.46697e-10
1.46696e-10
1.46695e-10
1.46694e-10
1.46693e-10
1.46692e-10
1.46691e-10
1.4669e-10
1.46689e-10
1.46687e-10
1.46686e-10
1.46684e-10
1.46682e-10
1.46681e-10
1.46679e-10
1.46676e-10
1.46674e-10
1.46672e-10
1.46669e-10
1.46666e-10
1.46663e-10
1.4666e-10
1.46657e-10
1.46634e-10
5.36617e-10
5.36666e-10
5.36678e-10
5.3669e-10
5.367e-10
5.36711e-10
5.36721e-10
5.3673e-10
5.36739e-10
5.36747e-10
5.36755e-10
5.36762e-10
5.36769e-10
5.36776e-10
5.36781e-10
5.36787e-10
5.36792e-10
5.36797e-10
5.36801e-10
5.36805e-10
5.36808e-10
5.36811e-10
5.36814e-10
5.36816e-10
5.36818e-10
5.3682e-10
5.36822e-10
5.36823e-10
5.36823e-10
5.36824e-10
5.36824e-10
5.36823e-10
5.36823e-10
5.36822e-10
5.3682e-10
5.36818e-10
5.36816e-10
5.36814e-10
5.36811e-10
5.36808e-10
5.36805e-10
5.36801e-10
5.36797e-10
5.36792e-10
5.36787e-10
5.36781e-10
5.36776e-10
5.36769e-10
5.36762e-10
5.36755e-10
5.36747e-10
5.36739e-10
5.3673e-10
5.36721e-10
5.36711e-10
5.367e-10
5.3669e-10
5.36678e-10
5.36666e-10
5.36617e-10
1.96763e-09
1.96775e-09
1.96779e-09
1.96783e-09
1.96787e-09
1.96791e-09
1.96795e-09
1.96799e-09
1.96802e-09
1.96805e-09
1.96808e-09
1.96811e-09
1.96814e-09
1.96816e-09
1.96818e-09
1.9682e-09
1.96822e-09
1.96824e-09
1.96826e-09
1.96827e-09
1.96828e-09
1.9683e-09
1.96831e-09
1.96831e-09
1.96832e-09
1.96833e-09
1.96833e-09
1.96834e-09
1.96834e-09
1.96834e-09
1.96834e-09
1.96834e-09
1.96834e-09
1.96833e-09
1.96833e-09
1.96832e-09
1.96831e-09
1.96831e-09
1.9683e-09
1.96828e-09
1.96827e-09
1.96826e-09
1.96824e-09
1.96822e-09
1.9682e-09
1.96818e-09
1.96816e-09
1.96814e-09
1.96811e-09
1.96808e-09
1.96805e-09
1.96802e-09
1.96799e-09
1.96795e-09
1.96791e-09
1.96787e-09
1.96783e-09
1.96779e-09
1.96775e-09
1.96763e-09
7.20523e-09
7.20552e-09
7.20568e-09
7.20583e-09
7.20599e-09
7.20614e-09
7.20628e-09
7.20642e-09
7.20654e-09
7.20666e-09
7.20677e-09
7.20688e-09
7.20697e-09
7.20706e-09
7.20715e-09
7.20722e-09
7.2073e-09
7.20736e-09
7.20742e-09
7.20748e-09
7.20753e-09
7.20757e-09
7.20761e-09
7.20764e-09
7.20767e-09
7.2077e-09
7.20772e-09
7.20773e-09
7.20774e-09
7.20774e-09
7.20774e-09
7.20774e-09
7.20773e-09
7.20772e-09
7.2077e-09
7.20767e-09
7.20764e-09
7.20761e-09
7.20757e-09
7.20753e-09
7.20748e-09
7.20742e-09
7.20736e-09
7.2073e-09
7.20722e-09
7.20715e-09
7.20706e-09
7.20697e-09
7.20688e-09
7.20677e-09
7.20666e-09
7.20654e-09
7.20642e-09
7.20628e-09
7.20614e-09
7.20599e-09
7.20583e-09
7.20568e-09
7.20552e-09
7.20523e-09
2.6238e-08
2.62388e-08
2.62394e-08
2.62399e-08
2.62405e-08
2.62411e-08
2.62416e-08
2.62421e-08
2.62426e-08
2.6243e-08
2.62434e-08
2.62438e-08
2.62442e-08
2.62445e-08
2.62448e-08
2.62451e-08
2.62454e-08
2.62456e-08
2.62458e-08
2.6246e-08
2.62462e-08
2.62464e-08
2.62465e-08
2.62467e-08
2.62468e-08
2.62469e-08
2.62469e-08
2.6247e-08
2.6247e-08
2.6247e-08
2.6247e-08
2.6247e-08
2.6247e-08
2.62469e-08
2.62469e-08
2.62468e-08
2.62467e-08
2.62465e-08
2.62464e-08
2.62462e-08
2.6246e-08
2.62458e-08
2.62456e-08
2.62454e-08
2.62451e-08
2.62448e-08
2.62445e-08
2.62442e-08
2.62438e-08
2.62434e-08
2.6243e-08
2.62426e-08
2.62421e-08
2.62416e-08
2.62411e-08
2.62405e-08
2.62399e-08
2.62394e-08
2.62388e-08
2.6238e-08
9.4529e-08
9.45315e-08
9.45336e-08
9.45357e-08
9.45378e-08
9.45398e-08
9.45418e-08
9.45436e-08
9.45453e-08
9.45469e-08
9.45484e-08
9.45498e-08
9.45511e-08
9.45523e-08
9.45535e-08
9.45545e-08
9.45555e-08
9.45564e-08
9.45572e-08
9.45579e-08
9.45586e-08
9.45592e-08
9.45597e-08
9.45602e-08
9.45606e-08
9.45609e-08
9.45612e-08
9.45613e-08
9.45615e-08
9.45615e-08
9.45615e-08
9.45615e-08
9.45613e-08
9.45612e-08
9.45609e-08
9.45606e-08
9.45602e-08
9.45597e-08
9.45592e-08
9.45586e-08
9.45579e-08
9.45572e-08
9.45564e-08
9.45555e-08
9.45545e-08
9.45535e-08
9.45523e-08
9.45511e-08
9.45498e-08
9.45484e-08
9.45469e-08
9.45453e-08
9.45436e-08
9.45418e-08
9.45398e-08
9.45378e-08
9.45357e-08
9.45336e-08
9.45315e-08
9.4529e-08
3.34927e-07
3.34935e-07
3.34943e-07
3.3495e-07
3.34958e-07
3.34965e-07
3.34972e-07
3.34978e-07
3.34984e-07
3.3499e-07
3.34995e-07
3.35e-07
3.35005e-07
3.35009e-07
3.35013e-07
3.35017e-07
3.35021e-07
3.35024e-07
3.35027e-07
3.35029e-07
3.35032e-07
3.35034e-07
3.35036e-07
3.35037e-07
3.35039e-07
3.3504e-07
3.35041e-07
3.35041e-07
3.35042e-07
3.35042e-07
3.35042e-07
3.35042e-07
3.35041e-07
3.35041e-07
3.3504e-07
3.35039e-07
3.35037e-07
3.35036e-07
3.35034e-07
3.35032e-07
3.35029e-07
3.35027e-07
3.35024e-07
3.35021e-07
3.35017e-07
3.35013e-07
3.35009e-07
3.35005e-07
3.35e-07
3.34995e-07
3.3499e-07
3.34984e-07
3.34978e-07
3.34972e-07
3.34965e-07
3.34958e-07
3.3495e-07
3.34943e-07
3.34935e-07
3.34927e-07
1.15903e-06
1.15906e-06
1.15908e-06
1.15911e-06
1.15914e-06
1.15916e-06
1.15918e-06
1.15921e-06
1.15923e-06
1.15925e-06
1.15927e-06
1.15928e-06
1.1593e-06
1.15931e-06
1.15933e-06
1.15934e-06
1.15935e-06
1.15936e-06
1.15937e-06
1.15938e-06
1.15939e-06
1.1594e-06
1.15941e-06
1.15941e-06
1.15942e-06
1.15942e-06
1.15942e-06
1.15943e-06
1.15943e-06
1.15943e-06
1.15943e-06
1.15943e-06
1.15943e-06
1.15942e-06
1.15942e-06
1.15942e-06
1.15941e-06
1.15941e-06
1.1594e-06
1.15939e-06
1.15938e-06
1.15937e-06
1.15936e-06
1.15935e-06
1.15934e-06
1.15933e-06
1.15931e-06
1.1593e-06
1.15928e-06
1.15927e-06
1.15925e-06
1.15923e-06
1.15921e-06
1.15918e-06
1.15916e-06
1.15914e-06
1.15911e-06
1.15908e-06
1.15906e-06
1.15903e-06
3.88681e-06
3.88689e-06
3.88698e-06
3.88707e-06
3.88715e-06
3.88724e-06
3.88731e-06
3.88739e-06
3.88746e-06
3.88752e-06
3.88758e-06
3.88764e-06
3.8877e-06
3.88775e-06
3.88779e-06
3.88783e-06
3.88787e-06
3.88791e-06
3.88794e-06
3.88797e-06
3.888e-06
3.88802e-06
3.88804e-06
3.88806e-06
3.88808e-06
3.88809e-06
3.8881e-06
3.88811e-06
3.88812e-06
3.88812e-06
3.88812e-06
3.88812e-06
3.88811e-06
3.8881e-06
3.88809e-06
3.88808e-06
3.88806e-06
3.88804e-06
3.88802e-06
3.888e-06
3.88797e-06
3.88794e-06
3.88791e-06
3.88787e-06
3.88783e-06
3.88779e-06
3.88775e-06
3.8877e-06
3.88764e-06
3.88758e-06
3.88752e-06
3.88746e-06
3.88739e-06
3.88731e-06
3.88724e-06
3.88715e-06
3.88707e-06
3.88698e-06
3.88689e-06
3.88681e-06