/*--------------------------------*- C++ -*----------------------------------*\
| =========                 |                                                 |
| \\      /  F ield         | foam-extend: Open Source CFD                    |
|  \\    /   O peration     | Version:     4.0                                |
|   \\  /    A nd           | Web:         http://www.foam-extend.org         |
|    \\/     M anipulation  |                                                 |
\*---------------------------------------------------------------------------*/
FoamFile
{
    version     2.0;
    format      ascii;
    class       volScalarField;
    location    "1920";
    object      psiE;
}
// * * * * * * * * * * * * * * * * * * * * * * * * * * * * * * * * * * * * * //

dimensions      [0 0 0 0 0 0 0];

internalField   nonuniform List<scalar> 
6960
(
0.404791
0.404833
0.404844
0.404847
0.404848
0.404848
0.404847
0.404847
0.404847
0.404846
0.404846
0.404846
0.404845
0.404845
0.404845
0.404845
0.404844
0.404844
0.404844
0.404844
0.404844
0.404844
0.404843
0.404843
0.404843
0.404843
0.404843
0.404843
0.404843
0.404843
0.404843
0.404843
0.404843
0.404843
0.404843
0.404843
0.404843
0.404843
0.404844
0.404844
0.404844
0.404844
0.404844
0.404844
0.404845
0.404845
0.404845
0.404845
0.404846
0.404846
0.404846
0.404847
0.404847
0.404847
0.404848
0.404848
0.404847
0.404844
0.404833
0.404791
1.10598
1.10614
1.10618
1.10619
1.10619
1.10619
1.10619
1.10619
1.10619
1.10619
1.10618
1.10618
1.10618
1.10618
1.10618
1.10618
1.10618
1.10618
1.10618
1.10618
1.10618
1.10617
1.10617
1.10617
1.10617
1.10617
1.10617
1.10617
1.10617
1.10617
1.10617
1.10617
1.10617
1.10617
1.10617
1.10617
1.10617
1.10617
1.10617
1.10618
1.10618
1.10618
1.10618
1.10618
1.10618
1.10618
1.10618
1.10618
1.10618
1.10618
1.10619
1.10619
1.10619
1.10619
1.10619
1.10619
1.10619
1.10618
1.10614
1.10598
1.78396
1.78424
1.78431
1.78433
1.78434
1.78434
1.78433
1.78433
1.78433
1.78432
1.78432
1.78432
1.78432
1.78431
1.78431
1.78431
1.78431
1.78431
1.78431
1.7843
1.7843
1.7843
1.7843
1.7843
1.7843
1.7843
1.7843
1.7843
1.7843
1.7843
1.7843
1.7843
1.7843
1.7843
1.7843
1.7843
1.7843
1.7843
1.7843
1.7843
1.7843
1.78431
1.78431
1.78431
1.78431
1.78431
1.78431
1.78432
1.78432
1.78432
1.78432
1.78433
1.78433
1.78433
1.78434
1.78434
1.78433
1.78431
1.78424
1.78396
2.44879
2.44919
2.4493
2.44932
2.44933
2.44932
2.44932
2.44932
2.44931
2.44931
2.4493
2.4493
2.44929
2.44929
2.44929
2.44928
2.44928
2.44928
2.44928
2.44928
2.44927
2.44927
2.44927
2.44927
2.44927
2.44927
2.44927
2.44927
2.44927
2.44927
2.44927
2.44927
2.44927
2.44927
2.44927
2.44927
2.44927
2.44927
2.44927
2.44927
2.44928
2.44928
2.44928
2.44928
2.44928
2.44929
2.44929
2.44929
2.4493
2.4493
2.44931
2.44931
2.44932
2.44932
2.44932
2.44933
2.44932
2.4493
2.44919
2.44879
3.09949
3.09999
3.10013
3.10016
3.10016
3.10016
3.10015
3.10015
3.10014
3.10013
3.10013
3.10012
3.10012
3.10011
3.10011
3.1001
3.1001
3.1001
3.10009
3.10009
3.10009
3.10009
3.10008
3.10008
3.10008
3.10008
3.10008
3.10008
3.10008
3.10008
3.10008
3.10008
3.10008
3.10008
3.10008
3.10008
3.10008
3.10008
3.10009
3.10009
3.10009
3.10009
3.1001
3.1001
3.1001
3.10011
3.10011
3.10012
3.10012
3.10013
3.10013
3.10014
3.10015
3.10015
3.10016
3.10016
3.10016
3.10013
3.09999
3.09949
3.73248
3.73306
3.73322
3.73326
3.73327
3.73326
3.73325
3.73324
3.73323
3.73322
3.73322
3.73321
3.7332
3.7332
3.73319
3.73319
3.73318
3.73318
3.73317
3.73317
3.73316
3.73316
3.73316
3.73316
3.73316
3.73315
3.73315
3.73315
3.73315
3.73315
3.73315
3.73315
3.73315
3.73315
3.73315
3.73316
3.73316
3.73316
3.73316
3.73316
3.73317
3.73317
3.73318
3.73318
3.73319
3.73319
3.7332
3.7332
3.73321
3.73322
3.73322
3.73323
3.73324
3.73325
3.73326
3.73327
3.73326
3.73322
3.73306
3.73248
4.34305
4.3437
4.34387
4.34391
4.34392
4.34391
4.3439
4.34388
4.34387
4.34386
4.34385
4.34384
4.34383
4.34383
4.34382
4.34381
4.34381
4.3438
4.3438
4.34379
4.34379
4.34378
4.34378
4.34378
4.34378
4.34377
4.34377
4.34377
4.34377
4.34377
4.34377
4.34377
4.34377
4.34377
4.34377
4.34378
4.34378
4.34378
4.34378
4.34379
4.34379
4.3438
4.3438
4.34381
4.34381
4.34382
4.34383
4.34383
4.34384
4.34385
4.34386
4.34387
4.34388
4.3439
4.34391
4.34392
4.34391
4.34387
4.3437
4.34305
4.9255
4.92618
4.92637
4.92641
4.92641
4.9264
4.92638
4.92637
4.92635
4.92634
4.92633
4.92632
4.92631
4.9263
4.92629
4.92628
4.92627
4.92627
4.92626
4.92625
4.92625
4.92625
4.92624
4.92624
4.92624
4.92623
4.92623
4.92623
4.92623
4.92623
4.92623
4.92623
4.92623
4.92623
4.92623
4.92624
4.92624
4.92624
4.92625
4.92625
4.92625
4.92626
4.92627
4.92627
4.92628
4.92629
4.9263
4.92631
4.92632
4.92633
4.92634
4.92635
4.92637
4.92638
4.9264
4.92641
4.92641
4.92637
4.92618
4.9255
5.47307
5.47376
5.47394
5.47398
5.47398
5.47396
5.47394
5.47393
5.47391
5.47389
5.47388
5.47387
5.47385
5.47384
5.47383
5.47382
5.47381
5.4738
5.4738
5.47379
5.47378
5.47378
5.47377
5.47377
5.47377
5.47376
5.47376
5.47376
5.47376
5.47376
5.47376
5.47376
5.47376
5.47376
5.47376
5.47377
5.47377
5.47377
5.47378
5.47378
5.47379
5.4738
5.4738
5.47381
5.47382
5.47383
5.47384
5.47385
5.47387
5.47388
5.47389
5.47391
5.47393
5.47394
5.47396
5.47398
5.47398
5.47394
5.47376
5.47307
5.97802
5.97867
5.97885
5.97888
5.97887
5.97885
5.97883
5.9788
5.97878
5.97876
5.97875
5.97873
5.97872
5.9787
5.97869
5.97868
5.97867
5.97866
5.97865
5.97864
5.97863
5.97863
5.97862
5.97862
5.97861
5.97861
5.97861
5.97861
5.9786
5.9786
5.9786
5.9786
5.97861
5.97861
5.97861
5.97861
5.97862
5.97862
5.97863
5.97863
5.97864
5.97865
5.97866
5.97867
5.97868
5.97869
5.9787
5.97872
5.97873
5.97875
5.97876
5.97878
5.9788
5.97883
5.97885
5.97887
5.97888
5.97885
5.97867
5.97802
6.43217
6.43275
6.43291
6.43293
6.43291
6.43288
6.43286
6.43283
6.43281
6.43279
6.43277
6.43275
6.43273
6.43271
6.4327
6.43268
6.43267
6.43266
6.43265
6.43264
6.43263
6.43263
6.43262
6.43261
6.43261
6.43261
6.4326
6.4326
6.4326
6.4326
6.4326
6.4326
6.4326
6.4326
6.43261
6.43261
6.43261
6.43262
6.43263
6.43263
6.43264
6.43265
6.43266
6.43267
6.43268
6.4327
6.43271
6.43273
6.43275
6.43277
6.43279
6.43281
6.43283
6.43286
6.43288
6.43291
6.43293
6.43291
6.43275
6.43217
6.82843
6.8289
6.82902
6.82903
6.829
6.82897
6.82894
6.82891
6.82888
6.82885
6.82883
6.82881
6.82879
6.82877
6.82875
6.82874
6.82872
6.82871
6.8287
6.82869
6.82868
6.82867
6.82866
6.82866
6.82865
6.82865
6.82864
6.82864
6.82864
6.82864
6.82864
6.82864
6.82864
6.82864
6.82865
6.82865
6.82866
6.82866
6.82867
6.82868
6.82869
6.8287
6.82871
6.82872
6.82874
6.82875
6.82877
6.82879
6.82881
6.82883
6.82885
6.82888
6.82891
6.82894
6.82897
6.829
6.82903
6.82902
6.8289
6.82843
7.16301
7.16336
7.16343
7.16343
7.16339
7.16336
7.16332
7.16329
7.16325
7.16322
7.1632
7.16317
7.16315
7.16313
7.16311
7.16309
7.16308
7.16306
7.16305
7.16304
7.16303
7.16302
7.16301
7.163
7.163
7.16299
7.16299
7.16299
7.16298
7.16298
7.16298
7.16298
7.16299
7.16299
7.16299
7.163
7.163
7.16301
7.16302
7.16303
7.16304
7.16305
7.16306
7.16308
7.16309
7.16311
7.16313
7.16315
7.16317
7.1632
7.16322
7.16325
7.16329
7.16332
7.16336
7.16339
7.16343
7.16343
7.16336
7.16301
7.43753
7.43774
7.43777
7.43775
7.43771
7.43767
7.43762
7.43759
7.43755
7.43752
7.43749
7.43746
7.43744
7.43741
7.43739
7.43737
7.43735
7.43734
7.43732
7.43731
7.4373
7.43729
7.43728
7.43727
7.43727
7.43726
7.43726
7.43725
7.43725
7.43725
7.43725
7.43725
7.43725
7.43726
7.43726
7.43727
7.43727
7.43728
7.43729
7.4373
7.43731
7.43732
7.43734
7.43735
7.43737
7.43739
7.43741
7.43744
7.43746
7.43749
7.43752
7.43755
7.43759
7.43762
7.43767
7.43771
7.43775
7.43777
7.43774
7.43753
7.65907
7.65915
7.65915
7.65911
7.65907
7.65902
7.65897
7.65893
7.65889
7.65886
7.65883
7.6588
7.65877
7.65875
7.65872
7.6587
7.65868
7.65867
7.65865
7.65864
7.65863
7.65861
7.65861
7.6586
7.65859
7.65858
7.65858
7.65858
7.65857
7.65857
7.65857
7.65857
7.65858
7.65858
7.65858
7.65859
7.6586
7.65861
7.65861
7.65863
7.65864
7.65865
7.65867
7.65868
7.6587
7.65872
7.65875
7.65877
7.6588
7.65883
7.65886
7.65889
7.65893
7.65897
7.65902
7.65907
7.65911
7.65915
7.65915
7.65907
7.8381
7.83809
7.83805
7.838
7.83795
7.8379
7.83785
7.83781
7.83777
7.83773
7.8377
7.83767
7.83764
7.83761
7.83759
7.83757
7.83755
7.83753
7.83751
7.8375
7.83749
7.83748
7.83747
7.83746
7.83745
7.83744
7.83744
7.83744
7.83743
7.83743
7.83743
7.83743
7.83744
7.83744
7.83744
7.83745
7.83746
7.83747
7.83748
7.83749
7.8375
7.83751
7.83753
7.83755
7.83757
7.83759
7.83761
7.83764
7.83767
7.8377
7.83773
7.83777
7.83781
7.83785
7.8379
7.83795
7.838
7.83805
7.83809
7.8381
7.98548
7.9854
7.98534
7.98529
7.98523
7.98518
7.98513
7.98508
7.98504
7.985
7.98497
7.98493
7.9849
7.98488
7.98485
7.98483
7.98481
7.98479
7.98478
7.98476
7.98475
7.98474
7.98473
7.98472
7.98471
7.9847
7.9847
7.98469
7.98469
7.98469
7.98469
7.98469
7.98469
7.9847
7.9847
7.98471
7.98472
7.98473
7.98474
7.98475
7.98476
7.98478
7.98479
7.98481
7.98483
7.98485
7.98488
7.9849
7.98493
7.98497
7.985
7.98504
7.98508
7.98513
7.98518
7.98523
7.98529
7.98534
7.9854
7.98548
8.11036
8.11023
8.11016
8.11009
8.11003
8.10998
8.10993
8.10988
8.10984
8.1098
8.10976
8.10973
8.1097
8.10967
8.10965
8.10962
8.1096
8.10959
8.10957
8.10955
8.10954
8.10953
8.10952
8.10951
8.1095
8.10949
8.10949
8.10949
8.10948
8.10948
8.10948
8.10948
8.10949
8.10949
8.10949
8.1095
8.10951
8.10952
8.10953
8.10954
8.10955
8.10957
8.10959
8.1096
8.10962
8.10965
8.10967
8.1097
8.10973
8.10976
8.1098
8.10984
8.10988
8.10993
8.10998
8.11003
8.11009
8.11016
8.11023
8.11036
8.21946
8.21931
8.21922
8.21915
8.21909
8.21903
8.21898
8.21893
8.21889
8.21885
8.21881
8.21878
8.21875
8.21872
8.21869
8.21867
8.21865
8.21863
8.21861
8.2186
8.21858
8.21857
8.21856
8.21855
8.21854
8.21854
8.21853
8.21853
8.21853
8.21853
8.21853
8.21853
8.21853
8.21853
8.21854
8.21854
8.21855
8.21856
8.21857
8.21858
8.2186
8.21861
8.21863
8.21865
8.21867
8.21869
8.21872
8.21875
8.21878
8.21881
8.21885
8.21889
8.21893
8.21898
8.21903
8.21909
8.21915
8.21922
8.21931
8.21946
8.31739
8.31721
8.31711
8.31704
8.31698
8.31692
8.31687
8.31682
8.31677
8.31673
8.3167
8.31666
8.31663
8.3166
8.31658
8.31655
8.31653
8.31651
8.3165
8.31648
8.31647
8.31646
8.31644
8.31644
8.31643
8.31642
8.31642
8.31641
8.31641
8.31641
8.31641
8.31641
8.31641
8.31642
8.31642
8.31643
8.31644
8.31644
8.31646
8.31647
8.31648
8.3165
8.31651
8.31653
8.31655
8.31658
8.3166
8.31663
8.31666
8.3167
8.31673
8.31677
8.31682
8.31687
8.31692
8.31698
8.31704
8.31711
8.31721
8.31739
8.40718
8.40699
8.40689
8.40681
8.40675
8.40669
8.40664
8.40659
8.40654
8.4065
8.40647
8.40643
8.4064
8.40637
8.40635
8.40632
8.4063
8.40628
8.40626
8.40625
8.40624
8.40622
8.40621
8.4062
8.40619
8.40619
8.40618
8.40618
8.40618
8.40618
8.40618
8.40618
8.40618
8.40618
8.40619
8.40619
8.4062
8.40621
8.40622
8.40624
8.40625
8.40626
8.40628
8.4063
8.40632
8.40635
8.40637
8.4064
8.40643
8.40647
8.4065
8.40654
8.40659
8.40664
8.40669
8.40675
8.40681
8.40689
8.40699
8.40718
8.49089
8.4907
8.49059
8.49051
8.49045
8.49039
8.49033
8.49029
8.49024
8.4902
8.49016
8.49013
8.4901
8.49007
8.49004
8.49002
8.49
8.48998
8.48996
8.48994
8.48993
8.48992
8.48991
8.4899
8.48989
8.48988
8.48988
8.48987
8.48987
8.48987
8.48987
8.48987
8.48987
8.48988
8.48988
8.48989
8.4899
8.48991
8.48992
8.48993
8.48994
8.48996
8.48998
8.49
8.49002
8.49004
8.49007
8.4901
8.49013
8.49016
8.4902
8.49024
8.49029
8.49033
8.49039
8.49045
8.49051
8.49059
8.4907
8.49089
8.56994
8.56975
8.56964
8.56956
8.56949
8.56943
8.56938
8.56933
8.56928
8.56924
8.5692
8.56917
8.56914
8.56911
8.56908
8.56906
8.56904
8.56902
8.569
8.56898
8.56897
8.56896
8.56895
8.56894
8.56893
8.56892
8.56892
8.56891
8.56891
8.56891
8.56891
8.56891
8.56891
8.56892
8.56892
8.56893
8.56894
8.56895
8.56896
8.56897
8.56898
8.569
8.56902
8.56904
8.56906
8.56908
8.56911
8.56914
8.56917
8.5692
8.56924
8.56928
8.56933
8.56938
8.56943
8.56949
8.56956
8.56964
8.56975
8.56994
8.64536
8.64516
8.64505
8.64496
8.6449
8.64484
8.64478
8.64473
8.64469
8.64465
8.64461
8.64458
8.64454
8.64452
8.64449
8.64447
8.64444
8.64442
8.64441
8.64439
8.64438
8.64436
8.64435
8.64434
8.64433
8.64433
8.64432
8.64432
8.64432
8.64431
8.64431
8.64432
8.64432
8.64432
8.64433
8.64433
8.64434
8.64435
8.64436
8.64438
8.64439
8.64441
8.64442
8.64444
8.64447
8.64449
8.64452
8.64454
8.64458
8.64461
8.64465
8.64469
8.64473
8.64478
8.64484
8.6449
8.64496
8.64505
8.64516
8.64536
8.7179
8.71771
8.71759
8.7175
8.71744
8.71738
8.71732
8.71727
8.71723
8.71719
8.71715
8.71711
8.71708
8.71705
8.71703
8.717
8.71698
8.71696
8.71694
8.71693
8.71691
8.7169
8.71689
8.71688
8.71687
8.71687
8.71686
8.71686
8.71685
8.71685
8.71685
8.71685
8.71686
8.71686
8.71687
8.71687
8.71688
8.71689
8.7169
8.71691
8.71693
8.71694
8.71696
8.71698
8.717
8.71703
8.71705
8.71708
8.71711
8.71715
8.71719
8.71723
8.71727
8.71732
8.71738
8.71744
8.7175
8.71759
8.71771
8.7179
8.78816
8.78797
8.78785
8.78777
8.7877
8.78764
8.78758
8.78753
8.78749
8.78745
8.78741
8.78738
8.78734
8.78732
8.78729
8.78727
8.78724
8.78722
8.78721
8.78719
8.78718
8.78716
8.78715
8.78714
8.78713
8.78713
8.78712
8.78712
8.78712
8.78711
8.78711
8.78712
8.78712
8.78712
8.78713
8.78713
8.78714
8.78715
8.78716
8.78718
8.78719
8.78721
8.78722
8.78724
8.78727
8.78729
8.78732
8.78734
8.78738
8.78741
8.78745
8.78749
8.78753
8.78758
8.78764
8.7877
8.78777
8.78785
8.78797
8.78816
8.85662
8.85643
8.85631
8.85623
8.85616
8.8561
8.85604
8.85599
8.85595
8.85591
8.85587
8.85583
8.8558
8.85577
8.85575
8.85572
8.8557
8.85568
8.85566
8.85565
8.85563
8.85562
8.85561
8.8556
8.85559
8.85559
8.85558
8.85558
8.85557
8.85557
8.85557
8.85557
8.85558
8.85558
8.85559
8.85559
8.8556
8.85561
8.85562
8.85563
8.85565
8.85566
8.85568
8.8557
8.85572
8.85575
8.85577
8.8558
8.85583
8.85587
8.85591
8.85595
8.85599
8.85604
8.8561
8.85616
8.85623
8.85631
8.85643
8.85662
8.92366
8.92347
8.92335
8.92326
8.9232
8.92314
8.92308
8.92303
8.92299
8.92295
8.92291
8.92287
8.92284
8.92281
8.92279
8.92276
8.92274
8.92272
8.9227
8.92269
8.92267
8.92266
8.92265
8.92264
8.92263
8.92262
8.92262
8.92261
8.92261
8.92261
8.92261
8.92261
8.92261
8.92262
8.92262
8.92263
8.92264
8.92265
8.92266
8.92267
8.92269
8.9227
8.92272
8.92274
8.92276
8.92279
8.92281
8.92284
8.92287
8.92291
8.92295
8.92299
8.92303
8.92308
8.92314
8.9232
8.92326
8.92335
8.92347
8.92366
8.98959
8.98941
8.98929
8.9892
8.98913
8.98907
8.98902
8.98897
8.98892
8.98888
8.98884
8.98881
8.98878
8.98875
8.98872
8.9887
8.98868
8.98866
8.98864
8.98862
8.98861
8.9886
8.98858
8.98857
8.98857
8.98856
8.98855
8.98855
8.98855
8.98855
8.98855
8.98855
8.98855
8.98855
8.98856
8.98857
8.98857
8.98858
8.9886
8.98861
8.98862
8.98864
8.98866
8.98868
8.9887
8.98872
8.98875
8.98878
8.98881
8.98884
8.98888
8.98892
8.98897
8.98902
8.98907
8.98913
8.9892
8.98929
8.98941
8.98959
9.05469
9.05452
9.05439
9.05431
9.05424
9.05418
9.05412
9.05407
9.05403
9.05398
9.05395
9.05391
9.05388
9.05385
9.05383
9.0538
9.05378
9.05376
9.05374
9.05373
9.05371
9.0537
9.05369
9.05368
9.05367
9.05366
9.05366
9.05365
9.05365
9.05365
9.05365
9.05365
9.05365
9.05366
9.05366
9.05367
9.05368
9.05369
9.0537
9.05371
9.05373
9.05374
9.05376
9.05378
9.0538
9.05383
9.05385
9.05388
9.05391
9.05395
9.05398
9.05403
9.05407
9.05412
9.05418
9.05424
9.05431
9.05439
9.05452
9.05469
9.11919
9.11902
9.11889
9.11881
9.11874
9.11868
9.11862
9.11857
9.11853
9.11849
9.11845
9.11841
9.11838
9.11835
9.11833
9.1183
9.11828
9.11826
9.11824
9.11823
9.11821
9.1182
9.11819
9.11818
9.11817
9.11816
9.11816
9.11815
9.11815
9.11815
9.11815
9.11815
9.11815
9.11816
9.11816
9.11817
9.11818
9.11819
9.1182
9.11821
9.11823
9.11824
9.11826
9.11828
9.1183
9.11833
9.11835
9.11838
9.11841
9.11845
9.11849
9.11853
9.11857
9.11862
9.11868
9.11874
9.11881
9.11889
9.11902
9.11919
9.18328
9.18312
9.18299
9.18291
9.18284
9.18277
9.18272
9.18267
9.18263
9.18258
9.18255
9.18251
9.18248
9.18245
9.18243
9.1824
9.18238
9.18236
9.18234
9.18233
9.18231
9.1823
9.18229
9.18228
9.18227
9.18226
9.18226
9.18225
9.18225
9.18225
9.18225
9.18225
9.18225
9.18226
9.18226
9.18227
9.18228
9.18229
9.1823
9.18231
9.18233
9.18234
9.18236
9.18238
9.1824
9.18243
9.18245
9.18248
9.18251
9.18255
9.18258
9.18263
9.18267
9.18272
9.18277
9.18284
9.18291
9.18299
9.18312
9.18328
9.24715
9.24699
9.24687
9.24678
9.24671
9.24665
9.24659
9.24655
9.2465
9.24646
9.24642
9.24639
9.24636
9.24633
9.2463
9.24628
9.24625
9.24623
9.24622
9.2462
9.24619
9.24617
9.24616
9.24615
9.24614
9.24614
9.24613
9.24613
9.24612
9.24612
9.24612
9.24612
9.24613
9.24613
9.24614
9.24614
9.24615
9.24616
9.24617
9.24619
9.2462
9.24622
9.24623
9.24625
9.24628
9.2463
9.24633
9.24636
9.24639
9.24642
9.24646
9.2465
9.24655
9.24659
9.24665
9.24671
9.24678
9.24687
9.24699
9.24715
9.31095
9.3108
9.31068
9.31059
9.31052
9.31046
9.3104
9.31035
9.31031
9.31027
9.31023
9.3102
9.31016
9.31013
9.31011
9.31008
9.31006
9.31004
9.31002
9.31001
9.30999
9.30998
9.30997
9.30996
9.30995
9.30995
9.30994
9.30994
9.30993
9.30993
9.30993
9.30993
9.30994
9.30994
9.30995
9.30995
9.30996
9.30997
9.30998
9.30999
9.31001
9.31002
9.31004
9.31006
9.31008
9.31011
9.31013
9.31016
9.3102
9.31023
9.31027
9.31031
9.31035
9.3104
9.31046
9.31052
9.31059
9.31068
9.3108
9.31095
9.37483
9.37468
9.37456
9.37447
9.3744
9.37434
9.37429
9.37424
9.37419
9.37415
9.37411
9.37408
9.37405
9.37402
9.37399
9.37397
9.37395
9.37393
9.37391
9.37389
9.37388
9.37387
9.37385
9.37384
9.37384
9.37383
9.37382
9.37382
9.37382
9.37382
9.37382
9.37382
9.37382
9.37382
9.37383
9.37384
9.37384
9.37385
9.37387
9.37388
9.37389
9.37391
9.37393
9.37395
9.37397
9.37399
9.37402
9.37405
9.37408
9.37411
9.37415
9.37419
9.37424
9.37429
9.37434
9.3744
9.37447
9.37456
9.37468
9.37483
9.43892
9.43877
9.43865
9.43856
9.43849
9.43843
9.43838
9.43833
9.43829
9.43824
9.43821
9.43817
9.43814
9.43811
9.43808
9.43806
9.43804
9.43802
9.438
9.43798
9.43797
9.43796
9.43795
9.43794
9.43793
9.43792
9.43792
9.43791
9.43791
9.43791
9.43791
9.43791
9.43791
9.43792
9.43792
9.43793
9.43794
9.43795
9.43796
9.43797
9.43798
9.438
9.43802
9.43804
9.43806
9.43808
9.43811
9.43814
9.43817
9.43821
9.43824
9.43829
9.43833
9.43838
9.43843
9.43849
9.43856
9.43865
9.43877
9.43892
9.50333
9.50319
9.50307
9.50298
9.50291
9.50285
9.5028
9.50275
9.5027
9.50266
9.50263
9.50259
9.50256
9.50253
9.5025
9.50248
9.50246
9.50244
9.50242
9.5024
9.50239
9.50238
9.50237
9.50236
9.50235
9.50234
9.50234
9.50233
9.50233
9.50233
9.50233
9.50233
9.50233
9.50234
9.50234
9.50235
9.50236
9.50237
9.50238
9.50239
9.5024
9.50242
9.50244
9.50246
9.50248
9.5025
9.50253
9.50256
9.50259
9.50263
9.50266
9.5027
9.50275
9.5028
9.50285
9.50291
9.50298
9.50307
9.50319
9.50333
9.56818
9.56805
9.56793
9.56784
9.56777
9.56771
9.56766
9.56761
9.56756
9.56752
9.56749
9.56745
9.56742
9.56739
9.56736
9.56734
9.56732
9.5673
9.56728
9.56727
9.56725
9.56724
9.56723
9.56722
9.56721
9.5672
9.5672
9.56719
9.56719
9.56719
9.56719
9.56719
9.56719
9.5672
9.5672
9.56721
9.56722
9.56723
9.56724
9.56725
9.56727
9.56728
9.5673
9.56732
9.56734
9.56736
9.56739
9.56742
9.56745
9.56749
9.56752
9.56756
9.56761
9.56766
9.56771
9.56777
9.56784
9.56793
9.56805
9.56818
9.63358
9.63345
9.63334
9.63325
9.63318
9.63312
9.63306
9.63301
9.63297
9.63293
9.63289
9.63286
9.63283
9.6328
9.63277
9.63275
9.63273
9.63271
9.63269
9.63267
9.63266
9.63264
9.63263
9.63262
9.63262
9.63261
9.6326
9.6326
9.6326
9.6326
9.6326
9.6326
9.6326
9.6326
9.63261
9.63262
9.63262
9.63263
9.63264
9.63266
9.63267
9.63269
9.63271
9.63273
9.63275
9.63277
9.6328
9.63283
9.63286
9.63289
9.63293
9.63297
9.63301
9.63306
9.63312
9.63318
9.63325
9.63334
9.63345
9.63358
9.69963
9.6995
9.69939
9.6993
9.69923
9.69917
9.69912
9.69907
9.69902
9.69898
9.69894
9.69891
9.69888
9.69885
9.69882
9.6988
9.69878
9.69876
9.69874
9.69872
9.69871
9.6987
9.69869
9.69868
9.69867
9.69866
9.69866
9.69865
9.69865
9.69865
9.69865
9.69865
9.69865
9.69866
9.69866
9.69867
9.69868
9.69869
9.6987
9.69871
9.69872
9.69874
9.69876
9.69878
9.6988
9.69882
9.69885
9.69888
9.69891
9.69894
9.69898
9.69902
9.69907
9.69912
9.69917
9.69923
9.6993
9.69939
9.6995
9.69963
9.76641
9.76629
9.76618
9.76609
9.76602
9.76596
9.76591
9.76586
9.76582
9.76578
9.76574
9.7657
9.76567
9.76564
9.76562
9.76559
9.76557
9.76555
9.76553
9.76552
9.7655
9.76549
9.76548
9.76547
9.76546
9.76546
9.76545
9.76545
9.76544
9.76544
9.76544
9.76544
9.76545
9.76545
9.76546
9.76546
9.76547
9.76548
9.76549
9.7655
9.76552
9.76553
9.76555
9.76557
9.76559
9.76562
9.76564
9.76567
9.7657
9.76574
9.76578
9.76582
9.76586
9.76591
9.76596
9.76602
9.76609
9.76618
9.76629
9.76641
9.83403
9.83392
9.83381
9.83372
9.83365
9.83359
9.83354
9.83349
9.83344
9.8334
9.83337
9.83333
9.8333
9.83327
9.83325
9.83322
9.8332
9.83318
9.83316
9.83315
9.83313
9.83312
9.83311
9.8331
9.83309
9.83308
9.83308
9.83307
9.83307
9.83307
9.83307
9.83307
9.83307
9.83308
9.83308
9.83309
9.8331
9.83311
9.83312
9.83313
9.83315
9.83316
9.83318
9.8332
9.83322
9.83325
9.83327
9.8333
9.83333
9.83337
9.8334
9.83344
9.83349
9.83354
9.83359
9.83365
9.83372
9.83381
9.83392
9.83403
9.90258
9.90247
9.90236
9.90227
9.9022
9.90214
9.90209
9.90204
9.902
9.90196
9.90192
9.90188
9.90185
9.90182
9.9018
9.90177
9.90175
9.90173
9.90171
9.9017
9.90168
9.90167
9.90166
9.90165
9.90164
9.90164
9.90163
9.90163
9.90162
9.90162
9.90162
9.90162
9.90163
9.90163
9.90164
9.90164
9.90165
9.90166
9.90167
9.90168
9.9017
9.90171
9.90173
9.90175
9.90177
9.9018
9.90182
9.90185
9.90188
9.90192
9.90196
9.902
9.90204
9.90209
9.90214
9.9022
9.90227
9.90236
9.90247
9.90258
9.97213
9.97203
9.97192
9.97183
9.97176
9.9717
9.97165
9.9716
9.97156
9.97152
9.97148
9.97145
9.97142
9.97139
9.97136
9.97134
9.97132
9.9713
9.97128
9.97126
9.97125
9.97123
9.97122
9.97121
9.97121
9.9712
9.97119
9.97119
9.97119
9.97119
9.97119
9.97119
9.97119
9.97119
9.9712
9.97121
9.97121
9.97122
9.97123
9.97125
9.97126
9.97128
9.9713
9.97132
9.97134
9.97136
9.97139
9.97142
9.97145
9.97148
9.97152
9.97156
9.9716
9.97165
9.9717
9.97176
9.97183
9.97192
9.97203
9.97213
10.0428
10.0427
10.0426
10.0425
10.0424
10.0424
10.0423
10.0423
10.0422
10.0422
10.0421
10.0421
10.0421
10.042
10.042
10.042
10.042
10.042
10.0419
10.0419
10.0419
10.0419
10.0419
10.0419
10.0419
10.0419
10.0419
10.0418
10.0418
10.0418
10.0418
10.0418
10.0418
10.0419
10.0419
10.0419
10.0419
10.0419
10.0419
10.0419
10.0419
10.0419
10.042
10.042
10.042
10.042
10.042
10.0421
10.0421
10.0421
10.0422
10.0422
10.0423
10.0423
10.0424
10.0424
10.0425
10.0426
10.0427
10.0428
10.1146
10.1145
10.1144
10.1143
10.1143
10.1142
10.1141
10.1141
10.1141
10.114
10.114
10.1139
10.1139
10.1139
10.1139
10.1138
10.1138
10.1138
10.1138
10.1138
10.1137
10.1137
10.1137
10.1137
10.1137
10.1137
10.1137
10.1137
10.1137
10.1137
10.1137
10.1137
10.1137
10.1137
10.1137
10.1137
10.1137
10.1137
10.1137
10.1137
10.1138
10.1138
10.1138
10.1138
10.1138
10.1139
10.1139
10.1139
10.1139
10.114
10.114
10.1141
10.1141
10.1141
10.1142
10.1143
10.1143
10.1144
10.1145
10.1146
10.1877
10.1876
10.1875
10.1874
10.1874
10.1873
10.1872
10.1872
10.1872
10.1871
10.1871
10.187
10.187
10.187
10.187
10.1869
10.1869
10.1869
10.1869
10.1869
10.1868
10.1868
10.1868
10.1868
10.1868
10.1868
10.1868
10.1868
10.1868
10.1868
10.1868
10.1868
10.1868
10.1868
10.1868
10.1868
10.1868
10.1868
10.1868
10.1868
10.1869
10.1869
10.1869
10.1869
10.1869
10.187
10.187
10.187
10.187
10.1871
10.1871
10.1872
10.1872
10.1872
10.1873
10.1874
10.1874
10.1875
10.1876
10.1877
10.2621
10.2621
10.262
10.2619
10.2618
10.2617
10.2617
10.2616
10.2616
10.2616
10.2615
10.2615
10.2615
10.2614
10.2614
10.2614
10.2614
10.2613
10.2613
10.2613
10.2613
10.2613
10.2613
10.2613
10.2613
10.2613
10.2612
10.2612
10.2612
10.2612
10.2612
10.2612
10.2612
10.2612
10.2613
10.2613
10.2613
10.2613
10.2613
10.2613
10.2613
10.2613
10.2613
10.2614
10.2614
10.2614
10.2614
10.2615
10.2615
10.2615
10.2616
10.2616
10.2616
10.2617
10.2617
10.2618
10.2619
10.262
10.2621
10.2621
10.338
10.3379
10.3378
10.3378
10.3377
10.3376
10.3376
10.3375
10.3375
10.3374
10.3374
10.3374
10.3373
10.3373
10.3373
10.3373
10.3372
10.3372
10.3372
10.3372
10.3372
10.3372
10.3372
10.3371
10.3371
10.3371
10.3371
10.3371
10.3371
10.3371
10.3371
10.3371
10.3371
10.3371
10.3371
10.3371
10.3371
10.3372
10.3372
10.3372
10.3372
10.3372
10.3372
10.3372
10.3373
10.3373
10.3373
10.3373
10.3374
10.3374
10.3374
10.3375
10.3375
10.3376
10.3376
10.3377
10.3378
10.3378
10.3379
10.338
10.4154
10.4153
10.4152
10.4151
10.4151
10.415
10.415
10.4149
10.4149
10.4148
10.4148
10.4148
10.4147
10.4147
10.4147
10.4147
10.4146
10.4146
10.4146
10.4146
10.4146
10.4146
10.4145
10.4145
10.4145
10.4145
10.4145
10.4145
10.4145
10.4145
10.4145
10.4145
10.4145
10.4145
10.4145
10.4145
10.4145
10.4145
10.4146
10.4146
10.4146
10.4146
10.4146
10.4146
10.4147
10.4147
10.4147
10.4147
10.4148
10.4148
10.4148
10.4149
10.4149
10.415
10.415
10.4151
10.4151
10.4152
10.4153
10.4154
10.4944
10.4943
10.4942
10.4941
10.4941
10.494
10.4939
10.4939
10.4939
10.4938
10.4938
10.4937
10.4937
10.4937
10.4937
10.4936
10.4936
10.4936
10.4936
10.4936
10.4935
10.4935
10.4935
10.4935
10.4935
10.4935
10.4935
10.4935
10.4935
10.4935
10.4935
10.4935
10.4935
10.4935
10.4935
10.4935
10.4935
10.4935
10.4935
10.4935
10.4936
10.4936
10.4936
10.4936
10.4936
10.4937
10.4937
10.4937
10.4937
10.4938
10.4938
10.4939
10.4939
10.4939
10.494
10.4941
10.4941
10.4942
10.4943
10.4944
10.575
10.5749
10.5749
10.5748
10.5747
10.5746
10.5746
10.5746
10.5745
10.5745
10.5744
10.5744
10.5744
10.5743
10.5743
10.5743
10.5743
10.5743
10.5742
10.5742
10.5742
10.5742
10.5742
10.5742
10.5742
10.5742
10.5742
10.5741
10.5741
10.5741
10.5741
10.5741
10.5741
10.5742
10.5742
10.5742
10.5742
10.5742
10.5742
10.5742
10.5742
10.5742
10.5743
10.5743
10.5743
10.5743
10.5743
10.5744
10.5744
10.5744
10.5745
10.5745
10.5746
10.5746
10.5746
10.5747
10.5748
10.5749
10.5749
10.575
10.6574
10.6574
10.6573
10.6572
10.6571
10.6571
10.657
10.657
10.6569
10.6569
10.6569
10.6568
10.6568
10.6568
10.6567
10.6567
10.6567
10.6567
10.6567
10.6566
10.6566
10.6566
10.6566
10.6566
10.6566
10.6566
10.6566
10.6566
10.6566
10.6566
10.6566
10.6566
10.6566
10.6566
10.6566
10.6566
10.6566
10.6566
10.6566
10.6566
10.6566
10.6567
10.6567
10.6567
10.6567
10.6567
10.6568
10.6568
10.6568
10.6569
10.6569
10.6569
10.657
10.657
10.6571
10.6571
10.6572
10.6573
10.6574
10.6574
10.7417
10.7416
10.7415
10.7415
10.7414
10.7413
10.7413
10.7412
10.7412
10.7411
10.7411
10.7411
10.7411
10.741
10.741
10.741
10.741
10.7409
10.7409
10.7409
10.7409
10.7409
10.7409
10.7409
10.7408
10.7408
10.7408
10.7408
10.7408
10.7408
10.7408
10.7408
10.7408
10.7408
10.7408
10.7408
10.7409
10.7409
10.7409
10.7409
10.7409
10.7409
10.7409
10.741
10.741
10.741
10.741
10.7411
10.7411
10.7411
10.7411
10.7412
10.7412
10.7413
10.7413
10.7414
10.7415
10.7415
10.7416
10.7417
10.8279
10.8278
10.8277
10.8276
10.8276
10.8275
10.8275
10.8274
10.8274
10.8273
10.8273
10.8273
10.8272
10.8272
10.8272
10.8272
10.8271
10.8271
10.8271
10.8271
10.8271
10.8271
10.8271
10.827
10.827
10.827
10.827
10.827
10.827
10.827
10.827
10.827
10.827
10.827
10.827
10.827
10.827
10.8271
10.8271
10.8271
10.8271
10.8271
10.8271
10.8271
10.8272
10.8272
10.8272
10.8272
10.8273
10.8273
10.8273
10.8274
10.8274
10.8275
10.8275
10.8276
10.8276
10.8277
10.8278
10.8279
10.9161
10.916
10.9159
10.9159
10.9158
10.9157
10.9157
10.9156
10.9156
10.9156
10.9155
10.9155
10.9155
10.9154
10.9154
10.9154
10.9154
10.9153
10.9153
10.9153
10.9153
10.9153
10.9153
10.9153
10.9152
10.9152
10.9152
10.9152
10.9152
10.9152
10.9152
10.9152
10.9152
10.9152
10.9152
10.9152
10.9153
10.9153
10.9153
10.9153
10.9153
10.9153
10.9153
10.9154
10.9154
10.9154
10.9154
10.9155
10.9155
10.9155
10.9156
10.9156
10.9156
10.9157
10.9157
10.9158
10.9159
10.9159
10.916
10.9161
11.0064
11.0063
11.0062
11.0062
11.0061
11.006
11.006
11.0059
11.0059
11.0059
11.0058
11.0058
11.0058
11.0057
11.0057
11.0057
11.0057
11.0057
11.0056
11.0056
11.0056
11.0056
11.0056
11.0056
11.0056
11.0056
11.0056
11.0056
11.0055
11.0055
11.0055
11.0055
11.0056
11.0056
11.0056
11.0056
11.0056
11.0056
11.0056
11.0056
11.0056
11.0056
11.0057
11.0057
11.0057
11.0057
11.0057
11.0058
11.0058
11.0058
11.0059
11.0059
11.0059
11.006
11.006
11.0061
11.0062
11.0062
11.0063
11.0064
11.0989
11.0988
11.0987
11.0987
11.0986
11.0986
11.0985
11.0985
11.0984
11.0984
11.0983
11.0983
11.0983
11.0983
11.0982
11.0982
11.0982
11.0982
11.0981
11.0981
11.0981
11.0981
11.0981
11.0981
11.0981
11.0981
11.0981
11.0981
11.0981
11.0981
11.0981
11.0981
11.0981
11.0981
11.0981
11.0981
11.0981
11.0981
11.0981
11.0981
11.0981
11.0981
11.0982
11.0982
11.0982
11.0982
11.0983
11.0983
11.0983
11.0983
11.0984
11.0984
11.0985
11.0985
11.0986
11.0986
11.0987
11.0987
11.0988
11.0989
11.1937
11.1936
11.1935
11.1935
11.1934
11.1933
11.1933
11.1933
11.1932
11.1932
11.1931
11.1931
11.1931
11.193
11.193
11.193
11.193
11.193
11.1929
11.1929
11.1929
11.1929
11.1929
11.1929
11.1929
11.1929
11.1929
11.1929
11.1929
11.1929
11.1929
11.1929
11.1929
11.1929
11.1929
11.1929
11.1929
11.1929
11.1929
11.1929
11.1929
11.1929
11.193
11.193
11.193
11.193
11.193
11.1931
11.1931
11.1931
11.1932
11.1932
11.1933
11.1933
11.1933
11.1934
11.1935
11.1935
11.1936
11.1937
11.2908
11.2908
11.2907
11.2906
11.2906
11.2905
11.2905
11.2904
11.2904
11.2903
11.2903
11.2903
11.2902
11.2902
11.2902
11.2902
11.2902
11.2901
11.2901
11.2901
11.2901
11.2901
11.2901
11.2901
11.29
11.29
11.29
11.29
11.29
11.29
11.29
11.29
11.29
11.29
11.29
11.29
11.2901
11.2901
11.2901
11.2901
11.2901
11.2901
11.2901
11.2902
11.2902
11.2902
11.2902
11.2902
11.2903
11.2903
11.2903
11.2904
11.2904
11.2905
11.2905
11.2906
11.2906
11.2907
11.2908
11.2908
11.3905
11.3904
11.3903
11.3903
11.3902
11.3902
11.3901
11.3901
11.39
11.39
11.39
11.3899
11.3899
11.3899
11.3898
11.3898
11.3898
11.3898
11.3898
11.3897
11.3897
11.3897
11.3897
11.3897
11.3897
11.3897
11.3897
11.3897
11.3897
11.3897
11.3897
11.3897
11.3897
11.3897
11.3897
11.3897
11.3897
11.3897
11.3897
11.3897
11.3897
11.3898
11.3898
11.3898
11.3898
11.3898
11.3899
11.3899
11.3899
11.39
11.39
11.39
11.3901
11.3901
11.3902
11.3902
11.3903
11.3903
11.3904
11.3905
11.4927
11.4926
11.4926
11.4925
11.4924
11.4924
11.4923
11.4923
11.4922
11.4922
11.4922
11.4921
11.4921
11.4921
11.4921
11.492
11.492
11.492
11.492
11.492
11.4919
11.4919
11.4919
11.4919
11.4919
11.4919