/*--------------------------------*- C++ -*----------------------------------*\
| =========                 |                                                 |
| \\      /  F ield         | foam-extend: Open Source CFD                    |
|  \\    /   O peration     | Version:     4.0                                |
|   \\  /    A nd           | Web:         http://www.foam-extend.org         |
|    \\/     M anipulation  |                                                 |
\*---------------------------------------------------------------------------*/
FoamFile
{
    version     2.0;
    format      ascii;
    class       volScalarField;
    location    "660";
    object      psiE;
}
// * * * * * * * * * * * * * * * * * * * * * * * * * * * * * * * * * * * * * //

dimensions      [0 0 0 0 0 0 0];

internalField   nonuniform List<scalar> 
6960
(
0.391983
0.392017
0.392045
0.392063
0.392075
0.392082
0.392087
0.39209
0.392092
0.392093
0.392095
0.392095
0.392096
0.392097
0.392098
0.392098
0.392099
0.392099
0.3921
0.3921
0.392101
0.392101
0.392101
0.392102
0.392102
0.392102
0.392102
0.392102
0.392102
0.392102
0.392102
0.392102
0.392102
0.392102
0.392102
0.392102
0.392102
0.392101
0.392101
0.392101
0.3921
0.3921
0.392099
0.392099
0.392098
0.392098
0.392097
0.392096
0.392095
0.392095
0.392093
0.392092
0.39209
0.392087
0.392082
0.392075
0.392063
0.392045
0.392017
0.391983
1.06672
1.06686
1.06697
1.06704
1.06709
1.06712
1.06714
1.06715
1.06716
1.06716
1.06717
1.06717
1.06717
1.06718
1.06718
1.06718
1.06718
1.06718
1.06718
1.06719
1.06719
1.06719
1.06719
1.06719
1.06719
1.06719
1.06719
1.06719
1.06719
1.06719
1.06719
1.06719
1.06719
1.06719
1.06719
1.06719
1.06719
1.06719
1.06719
1.06719
1.06719
1.06718
1.06718
1.06718
1.06718
1.06718
1.06718
1.06717
1.06717
1.06717
1.06716
1.06716
1.06715
1.06714
1.06712
1.06709
1.06704
1.06697
1.06686
1.06672
1.73066
1.73092
1.73112
1.73126
1.73135
1.7314
1.73144
1.73146
1.73147
1.73148
1.73149
1.7315
1.7315
1.7315
1.73151
1.73151
1.73151
1.73152
1.73152
1.73152
1.73152
1.73152
1.73153
1.73153
1.73153
1.73153
1.73153
1.73153
1.73153
1.73153
1.73153
1.73153
1.73153
1.73153
1.73153
1.73153
1.73153
1.73153
1.73152
1.73152
1.73152
1.73152
1.73152
1.73151
1.73151
1.73151
1.7315
1.7315
1.7315
1.73149
1.73148
1.73147
1.73146
1.73144
1.7314
1.73135
1.73126
1.73112
1.73092
1.73066
2.40052
2.4009
2.40121
2.40141
2.40154
2.40162
2.40167
2.4017
2.40172
2.40174
2.40175
2.40176
2.40176
2.40177
2.40177
2.40178
2.40178
2.40179
2.40179
2.40179
2.4018
2.4018
2.4018
2.4018
2.40181
2.40181
2.40181
2.40181
2.40181
2.40181
2.40181
2.40181
2.40181
2.40181
2.40181
2.40181
2.4018
2.4018
2.4018
2.4018
2.40179
2.40179
2.40179
2.40178
2.40178
2.40177
2.40177
2.40176
2.40176
2.40175
2.40174
2.40172
2.4017
2.40167
2.40162
2.40154
2.40141
2.40121
2.4009
2.40052
3.07943
3.07994
3.08034
3.08062
3.08079
3.0809
3.08096
3.081
3.08103
3.08105
3.08106
3.08107
3.08108
3.08109
3.08109
3.0811
3.08111
3.08111
3.08112
3.08112
3.08112
3.08113
3.08113
3.08113
3.08114
3.08114
3.08114
3.08114
3.08114
3.08114
3.08114
3.08114
3.08114
3.08114
3.08114
3.08114
3.08113
3.08113
3.08113
3.08112
3.08112
3.08112
3.08111
3.08111
3.0811
3.08109
3.08109
3.08108
3.08107
3.08106
3.08105
3.08103
3.081
3.08096
3.0809
3.08079
3.08062
3.08034
3.07994
3.07943
3.76764
3.76827
3.76878
3.76912
3.76933
3.76947
3.76955
3.7696
3.76963
3.76966
3.76967
3.76969
3.7697
3.76971
3.76971
3.76972
3.76973
3.76974
3.76974
3.76975
3.76975
3.76976
3.76976
3.76976
3.76977
3.76977
3.76977
3.76977
3.76977
3.76977
3.76977
3.76977
3.76977
3.76977
3.76977
3.76977
3.76976
3.76976
3.76976
3.76975
3.76975
3.76974
3.76974
3.76973
3.76972
3.76971
3.76971
3.7697
3.76969
3.76967
3.76966
3.76963
3.7696
3.76955
3.76947
3.76933
3.76912
3.76878
3.76827
3.76764
4.46474
4.46549
4.4661
4.46651
4.46676
4.46692
4.46702
4.46708
4.46712
4.46715
4.46717
4.46719
4.4672
4.46721
4.46722
4.46723
4.46724
4.46725
4.46725
4.46726
4.46727
4.46727
4.46728
4.46728
4.46728
4.46729
4.46729
4.46729
4.46729
4.46729
4.46729
4.46729
4.46729
4.46729
4.46729
4.46728
4.46728
4.46728
4.46727
4.46727
4.46726
4.46725
4.46725
4.46724
4.46723
4.46722
4.46721
4.4672
4.46719
4.46717
4.46715
4.46712
4.46708
4.46702
4.46692
4.46676
4.46651
4.4661
4.46549
4.46474
5.17012
5.17099
5.17169
5.17217
5.17247
5.17265
5.17277
5.17284
5.17289
5.17292
5.17294
5.17296
5.17298
5.17299
5.173
5.17301
5.17302
5.17303
5.17304
5.17305
5.17305
5.17306
5.17306
5.17307
5.17307
5.17308
5.17308
5.17308
5.17308
5.17308
5.17308
5.17308
5.17308
5.17308
5.17308
5.17307
5.17307
5.17306
5.17306
5.17305
5.17305
5.17304
5.17303
5.17302
5.17301
5.173
5.17299
5.17298
5.17296
5.17294
5.17292
5.17289
5.17284
5.17277
5.17265
5.17247
5.17217
5.17169
5.17099
5.17012
5.88304
5.88402
5.88482
5.88536
5.8857
5.88592
5.88605
5.88613
5.88618
5.88622
5.88625
5.88627
5.88628
5.8863
5.88631
5.88632
5.88633
5.88635
5.88635
5.88636
5.88637
5.88638
5.88638
5.88639
5.88639
5.8864
5.8864
5.8864
5.8864
5.88641
5.88641
5.8864
5.8864
5.8864
5.8864
5.88639
5.88639
5.88638
5.88638
5.88637
5.88636
5.88635
5.88635
5.88633
5.88632
5.88631
5.8863
5.88628
5.88627
5.88625
5.88622
5.88618
5.88613
5.88605
5.88592
5.8857
5.88536
5.88482
5.88402
5.88304
6.60263
6.60373
6.60462
6.60523
6.60561
6.60584
6.60599
6.60608
6.60614
6.60618
6.60622
6.60624
6.60626
6.60627
6.60629
6.6063
6.60632
6.60633
6.60634
6.60635
6.60636
6.60636
6.60637
6.60638
6.60638
6.60639
6.60639
6.60639
6.6064
6.6064
6.6064
6.6064
6.60639
6.60639
6.60639
6.60638
6.60638
6.60637
6.60636
6.60636
6.60635
6.60634
6.60633
6.60632
6.6063
6.60629
6.60627
6.60626
6.60624
6.60622
6.60618
6.60614
6.60608
6.60599
6.60584
6.60561
6.60523
6.60462
6.60373
6.60263
7.3279
7.32912
7.3301
7.33076
7.33118
7.33145
7.33161
7.33171
7.33178
7.33182
7.33186
7.33188
7.3319
7.33192
7.33194
7.33195
7.33197
7.33198
7.33199
7.332
7.33201
7.33202
7.33203
7.33204
7.33204
7.33205
7.33205
7.33205
7.33206
7.33206
7.33206
7.33206
7.33205
7.33205
7.33205
7.33204
7.33204
7.33203
7.33202
7.33201
7.332
7.33199
7.33198
7.33197
7.33195
7.33194
7.33192
7.3319
7.33188
7.33186
7.33182
7.33178
7.33171
7.33161
7.33145
7.33118
7.33076
7.3301
7.32912
7.3279
8.05771
8.05903
8.0601
8.06083
8.06128
8.06157
8.06175
8.06186
8.06193
8.06198
8.06202
8.06205
8.06207
8.06209
8.06211
8.06213
8.06214
8.06216
8.06217
8.06218
8.06219
8.0622
8.06221
8.06222
8.06223
8.06223
8.06224
8.06224
8.06224
8.06224
8.06224
8.06224
8.06224
8.06224
8.06223
8.06223
8.06222
8.06221
8.0622
8.06219
8.06218
8.06217
8.06216
8.06214
8.06213
8.06211
8.06209
8.06207
8.06205
8.06202
8.06198
8.06193
8.06186
8.06175
8.06157
8.06128
8.06083
8.0601
8.05903
8.05771
8.79073
8.79216
8.79331
8.79409
8.79459
8.7949
8.79509
8.79521
8.79529
8.79534
8.79538
8.79541
8.79544
8.79546
8.79548
8.7955
8.79552
8.79553
8.79555
8.79556
8.79557
8.79558
8.79559
8.7956
8.79561
8.79561
8.79562
8.79562
8.79562
8.79563
8.79563
8.79562
8.79562
8.79562
8.79561
8.79561
8.7956
8.79559
8.79558
8.79557
8.79556
8.79555
8.79553
8.79552
8.7955
8.79548
8.79546
8.79544
8.79541
8.79538
8.79534
8.79529
8.79521
8.79509
8.7949
8.79459
8.79409
8.79331
8.79216
8.79073
9.52545
9.52698
9.52821
9.52904
9.52957
9.5299
9.53011
9.53023
9.53032
9.53038
9.53042
9.53046
9.53048
9.53051
9.53053
9.53055
9.53057
9.53059
9.5306
9.53062
9.53063
9.53064
9.53065
9.53066
9.53067
9.53068
9.53068
9.53069
9.53069
9.53069
9.53069
9.53069
9.53069
9.53068
9.53068
9.53067
9.53066
9.53065
9.53064
9.53063
9.53062
9.5306
9.53059
9.53057
9.53055
9.53053
9.53051
9.53048
9.53046
9.53042
9.53038
9.53032
9.53023
9.53011
9.5299
9.52957
9.52904
9.52821
9.52698
9.52545
10.2601
10.2617
10.263
10.2639
10.2645
10.2648
10.2651
10.2652
10.2653
10.2653
10.2654
10.2654
10.2655
10.2655
10.2655
10.2655
10.2656
10.2656
10.2656
10.2656
10.2656
10.2656
10.2656
10.2657
10.2657
10.2657
10.2657
10.2657
10.2657
10.2657
10.2657
10.2657
10.2657
10.2657
10.2657
10.2657
10.2657
10.2656
10.2656
10.2656
10.2656
10.2656
10.2656
10.2656
10.2655
10.2655
10.2655
10.2655
10.2654
10.2654
10.2653
10.2653
10.2652
10.2651
10.2648
10.2645
10.2639
10.263
10.2617
10.2601
10.9927
10.9944
10.9958
10.9967
10.9973
10.9977
10.9979
10.9981
10.9982
10.9982
10.9983
10.9983
10.9983
10.9984
10.9984
10.9984
10.9984
10.9985
10.9985
10.9985
10.9985
10.9985
10.9985
10.9986
10.9986
10.9986
10.9986
10.9986
10.9986
10.9986
10.9986
10.9986
10.9986
10.9986
10.9986
10.9986
10.9986
10.9985
10.9985
10.9985
10.9985
10.9985
10.9985
10.9984
10.9984
10.9984
10.9984
10.9983
10.9983
10.9983
10.9982
10.9982
10.9981
10.9979
10.9977
10.9973
10.9967
10.9958
10.9944
10.9927
11.721
11.7227
11.7242
11.7251
11.7257
11.7261
11.7264
11.7265
11.7266
11.7267
11.7267
11.7268
11.7268
11.7268
11.7269
11.7269
11.7269
11.7269
11.727
11.727
11.727
11.727
11.727
11.727
11.727
11.7271
11.7271
11.7271
11.7271
11.7271
11.7271
11.7271
11.7271
11.7271
11.7271
11.727
11.727
11.727
11.727
11.727
11.727
11.727
11.7269
11.7269
11.7269
11.7269
11.7268
11.7268
11.7268
11.7267
11.7267
11.7266
11.7265
11.7264
11.7261
11.7257
11.7251
11.7242
11.7227
11.721
12.4421
12.4439
12.4454
12.4464
12.447
12.4474
12.4477
12.4479
12.448
12.448
12.4481
12.4481
12.4482
12.4482
12.4482
12.4483
12.4483
12.4483
12.4483
12.4483
12.4484
12.4484
12.4484
12.4484
12.4484
12.4484
12.4484
12.4484
12.4484
12.4484
12.4484
12.4484
12.4484
12.4484
12.4484
12.4484
12.4484
12.4484
12.4484
12.4484
12.4483
12.4483
12.4483
12.4483
12.4483
12.4482
12.4482
12.4482
12.4481
12.4481
12.448
12.448
12.4479
12.4477
12.4474
12.447
12.4464
12.4454
12.4439
12.4421
13.153
13.1549
13.1564
13.1574
13.1581
13.1585
13.1588
13.1589
13.159
13.1591
13.1592
13.1592
13.1593
13.1593
13.1593
13.1594
13.1594
13.1594
13.1594
13.1594
13.1595
13.1595
13.1595
13.1595
13.1595
13.1595
13.1595
13.1595
13.1596
13.1596
13.1596
13.1596
13.1595
13.1595
13.1595
13.1595
13.1595
13.1595
13.1595
13.1595
13.1594
13.1594
13.1594
13.1594
13.1594
13.1593
13.1593
13.1593
13.1592
13.1592
13.1591
13.159
13.1589
13.1588
13.1585
13.1581
13.1574
13.1564
13.1549
13.153
13.8501
13.852
13.8535
13.8546
13.8552
13.8556
13.8559
13.8561
13.8562
13.8563
13.8563
13.8564
13.8564
13.8565
13.8565
13.8565
13.8565
13.8566
13.8566
13.8566
13.8566
13.8567
13.8567
13.8567
13.8567
13.8567
13.8567
13.8567
13.8567
13.8567
13.8567
13.8567
13.8567
13.8567
13.8567
13.8567
13.8567
13.8567
13.8567
13.8566
13.8566
13.8566
13.8566
13.8565
13.8565
13.8565
13.8565
13.8564
13.8564
13.8563
13.8563
13.8562
13.8561
13.8559
13.8556
13.8552
13.8546
13.8535
13.852
13.8501
14.5289
14.5308
14.5324
14.5334
14.5341
14.5345
14.5348
14.5349
14.5351
14.5351
14.5352
14.5353
14.5353
14.5353
14.5354
14.5354
14.5354
14.5355
14.5355
14.5355
14.5355
14.5356
14.5356
14.5356
14.5356
14.5356
14.5356
14.5356
14.5356
14.5356
14.5356
14.5356
14.5356
14.5356
14.5356
14.5356
14.5356
14.5356
14.5356
14.5355
14.5355
14.5355
14.5355
14.5354
14.5354
14.5354
14.5353
14.5353
14.5353
14.5352
14.5351
14.5351
14.5349
14.5348
14.5345
14.5341
14.5334
14.5324
14.5308
14.5289
15.1844
15.1863
15.1878
15.1889
15.1895
15.19
15.1902
15.1904
15.1905
15.1906
15.1907
15.1907
15.1908
15.1908
15.1908
15.1909
15.1909
15.1909
15.191
15.191
15.191
15.191
15.191
15.1911
15.1911
15.1911
15.1911
15.1911
15.1911
15.1911
15.1911
15.1911
15.1911
15.1911
15.1911
15.1911
15.1911
15.191
15.191
15.191
15.191
15.191
15.1909
15.1909
15.1909
15.1908
15.1908
15.1908
15.1907
15.1907
15.1906
15.1905
15.1904
15.1902
15.19
15.1895
15.1889
15.1878
15.1863
15.1844
15.8104
15.8122
15.8137
15.8147
15.8154
15.8158
15.816
15.8162
15.8163
15.8164
15.8165
15.8165
15.8166
15.8166
15.8167
15.8167
15.8167
15.8168
15.8168
15.8168
15.8168
15.8169
15.8169
15.8169
15.8169
15.8169
15.8169
15.8169
15.8169
15.8169
15.8169
15.8169
15.8169
15.8169
15.8169
15.8169
15.8169
15.8169
15.8169
15.8168
15.8168
15.8168
15.8168
15.8167
15.8167
15.8167
15.8166
15.8166
15.8165
15.8165
15.8164
15.8163
15.8162
15.816
15.8158
15.8154
15.8147
15.8137
15.8122
15.8104
16.3994
16.4012
16.4026
16.4035
16.4042
16.4045
16.4048
16.405
16.4051
16.4052
16.4052
16.4053
16.4053
16.4054
16.4054
16.4054
16.4055
16.4055
16.4055
16.4056
16.4056
16.4056
16.4056
16.4057
16.4057
16.4057
16.4057
16.4057
16.4057
16.4057
16.4057
16.4057
16.4057
16.4057
16.4057
16.4057
16.4057
16.4056
16.4056
16.4056
16.4056
16.4055
16.4055
16.4055
16.4054
16.4054
16.4054
16.4053
16.4053
16.4052
16.4052
16.4051
16.405
16.4048
16.4045
16.4042
16.4035
16.4026
16.4012
16.3994
16.9426
16.9442
16.9456
16.9464
16.947
16.9474
16.9476
16.9478
16.9479
16.948
16.948
16.9481
16.9481
16.9482
16.9482
16.9483
16.9483
16.9483
16.9484
16.9484
16.9484
16.9484
16.9485
16.9485
16.9485
16.9485
16.9485
16.9485
16.9485
16.9485
16.9485
16.9485
16.9485
16.9485
16.9485
16.9485
16.9485
16.9485
16.9484
16.9484
16.9484
16.9484
16.9483
16.9483
16.9483
16.9482
16.9482
16.9481
16.9481
16.948
16.948
16.9479
16.9478
16.9476
16.9474
16.947
16.9464
16.9456
16.9442
16.9426
17.4302
17.4316
17.4328
17.4336
17.4341
17.4344
17.4346
17.4348
17.4349
17.435
17.435
17.4351
17.4351
17.4352
17.4352
17.4353
17.4353
17.4354
17.4354
17.4354
17.4354
17.4355
17.4355
17.4355
17.4355
17.4355
17.4355
17.4356
17.4356
17.4356
17.4356
17.4356
17.4356
17.4355
17.4355
17.4355
17.4355
17.4355
17.4355
17.4354
17.4354
17.4354
17.4354
17.4353
17.4353
17.4352
17.4352
17.4351
17.4351
17.435
17.435
17.4349
17.4348
17.4346
17.4344
17.4341
17.4336
17.4328
17.4316
17.4302
17.8527
17.8539
17.8549
17.8556
17.856
17.8563
17.8565
17.8566
17.8567
17.8568
17.8569
17.8569
17.857
17.857
17.8571
17.8571
17.8572
17.8572
17.8572
17.8573
17.8573
17.8573
17.8573
17.8574
17.8574
17.8574
17.8574
17.8574
17.8574
17.8574
17.8574
17.8574
17.8574
17.8574
17.8574
17.8574
17.8574
17.8573
17.8573
17.8573
17.8573
17.8572
17.8572
17.8572
17.8571
17.8571
17.857
17.857
17.8569
17.8569
17.8568
17.8567
17.8566
17.8565
17.8563
17.856
17.8556
17.8549
17.8539
17.8527
18.2043
18.2053
18.2061
18.2066
18.2069
18.2072
18.2074
18.2075
18.2076
18.2076
18.2077
18.2078
18.2078
18.2079
18.2079
18.2079
18.208
18.208
18.2081
18.2081
18.2081
18.2081
18.2082
18.2082
18.2082
18.2082
18.2082
18.2082
18.2083
18.2083
18.2083
18.2083
18.2082
18.2082
18.2082
18.2082
18.2082
18.2082
18.2081
18.2081
18.2081
18.2081
18.208
18.208
18.2079
18.2079
18.2079
18.2078
18.2078
18.2077
18.2076
18.2076
18.2075
18.2074
18.2072
18.2069
18.2066
18.2061
18.2053
18.2043
18.4857
18.4864
18.487
18.4874
18.4877
18.4879
18.488
18.4881
18.4882
18.4883
18.4883
18.4884
18.4884
18.4885
18.4885
18.4886
18.4886
18.4887
18.4887
18.4887
18.4888
18.4888
18.4888
18.4888
18.4889
18.4889
18.4889
18.4889
18.4889
18.4889
18.4889
18.4889
18.4889
18.4889
18.4889
18.4889
18.4888
18.4888
18.4888
18.4888
18.4887
18.4887
18.4887
18.4886
18.4886
18.4885
18.4885
18.4884
18.4884
18.4883
18.4883
18.4882
18.4881
18.488
18.4879
18.4877
18.4874
18.487
18.4864
18.4857
18.7052
18.7057
18.7061
18.7064
18.7066
18.7067
18.7068
18.7069
18.707
18.7071
18.7071
18.7072
18.7072
18.7073
18.7073
18.7074
18.7074
18.7075
18.7075
18.7075
18.7076
18.7076
18.7076
18.7077
18.7077
18.7077
18.7077
18.7077
18.7077
18.7077
18.7077
18.7077
18.7077
18.7077
18.7077
18.7077
18.7077
18.7076
18.7076
18.7076
18.7075
18.7075
18.7075
18.7074
18.7074
18.7073
18.7073
18.7072
18.7072
18.7071
18.7071
18.707
18.7069
18.7068
18.7067
18.7066
18.7064
18.7061
18.7057
18.7052
18.8757
18.876
18.8763
18.8765
18.8766
18.8768
18.8769
18.8769
18.877
18.8771
18.8771
18.8772
18.8773
18.8773
18.8774
18.8774
18.8775
18.8775
18.8775
18.8776
18.8776
18.8776
18.8777
18.8777
18.8777
18.8777
18.8777
18.8778
18.8778
18.8778
18.8778
18.8778
18.8778
18.8777
18.8777
18.8777
18.8777
18.8777
18.8776
18.8776
18.8776
18.8775
18.8775
18.8775
18.8774
18.8774
18.8773
18.8773
18.8772
18.8771
18.8771
18.877
18.8769
18.8769
18.8768
18.8766
18.8765
18.8763
18.876
18.8757
19.0108
19.0109
19.0111
19.0113
19.0114
19.0115
19.0116
19.0117
19.0117
19.0118
19.0119
19.0119
19.012
19.012
19.0121
19.0121
19.0122
19.0122
19.0123
19.0123
19.0123
19.0124
19.0124
19.0124
19.0124
19.0125
19.0125
19.0125
19.0125
19.0125
19.0125
19.0125
19.0125
19.0125
19.0125
19.0124
19.0124
19.0124
19.0124
19.0123
19.0123
19.0123
19.0122
19.0122
19.0121
19.0121
19.012
19.012
19.0119
19.0119
19.0118
19.0117
19.0117
19.0116
19.0115
19.0114
19.0113
19.0111
19.0109
19.0108
19.1214
19.1214
19.1216
19.1217
19.1218
19.1219
19.1219
19.122
19.1221
19.1221
19.1222
19.1223
19.1223
19.1224
19.1224
19.1225
19.1225
19.1226
19.1226
19.1227
19.1227
19.1227
19.1228
19.1228
19.1228
19.1228
19.1229
19.1229
19.1229
19.1229
19.1229
19.1229
19.1229
19.1229
19.1228
19.1228
19.1228
19.1228
19.1227
19.1227
19.1227
19.1226
19.1226
19.1225
19.1225
19.1224
19.1224
19.1223
19.1223
19.1222
19.1221
19.1221
19.122
19.1219
19.1219
19.1218
19.1217
19.1216
19.1214
19.1214
19.2152
19.2152
19.2153
19.2154
19.2154
19.2155
19.2156
19.2156
19.2157
19.2158
19.2158
19.2159
19.216
19.216
19.2161
19.2161
19.2162
19.2163
19.2163
19.2163
19.2164
19.2164
19.2164
19.2165
19.2165
19.2165
19.2165
19.2165
19.2165
19.2166
19.2166
19.2165
19.2165
19.2165
19.2165
19.2165
19.2165
19.2164
19.2164
19.2164
19.2163
19.2163
19.2163
19.2162
19.2161
19.2161
19.216
19.216
19.2159
19.2158
19.2158
19.2157
19.2156
19.2156
19.2155
19.2154
19.2154
19.2153
19.2152
19.2152
19.2972
19.2972
19.2972
19.2973
19.2973
19.2974
19.2975
19.2976
19.2976
19.2977
19.2978
19.2978
19.2979
19.298
19.298
19.2981
19.2981
19.2982
19.2982
19.2983
19.2983
19.2984
19.2984
19.2984
19.2984
19.2985
19.2985
19.2985
19.2985
19.2985
19.2985
19.2985
19.2985
19.2985
19.2985
19.2984
19.2984
19.2984
19.2984
19.2983
19.2983
19.2982
19.2982
19.2981
19.2981
19.298
19.298
19.2979
19.2978
19.2978
19.2977
19.2976
19.2976
19.2975
19.2974
19.2973
19.2973
19.2972
19.2972
19.2972
19.3706
19.3705
19.3706
19.3706
19.3707
19.3707
19.3708
19.3709
19.3709
19.371
19.3711
19.3712
19.3712
19.3713
19.3714
19.3714
19.3715
19.3715
19.3716
19.3716
19.3717
19.3717
19.3717
19.3718
19.3718
19.3718
19.3718
19.3718
19.3719
19.3719
19.3719
19.3719
19.3718
19.3718
19.3718
19.3718
19.3718
19.3717
19.3717
19.3717
19.3716
19.3716
19.3715
19.3715
19.3714
19.3714
19.3713
19.3712
19.3712
19.3711
19.371
19.3709
19.3709
19.3708
19.3707
19.3707
19.3706
19.3706
19.3705
19.3706
19.4374
19.4374
19.4374
19.4374
19.4375
19.4375
19.4376
19.4377
19.4377
19.4378
19.4379
19.438
19.438
19.4381
19.4382
19.4382
19.4383
19.4383
19.4384
19.4385
19.4385
19.4385
19.4386
19.4386
19.4386
19.4387
19.4387
19.4387
19.4387
19.4387
19.4387
19.4387
19.4387
19.4387
19.4387
19.4386
19.4386
19.4386
19.4385
19.4385
19.4385
19.4384
19.4383
19.4383
19.4382
19.4382
19.4381
19.438
19.438
19.4379
19.4378
19.4377
19.4377
19.4376
19.4375
19.4375
19.4374
19.4374
19.4374
19.4374
19.4991
19.4991
19.4991
19.4991
19.4991
19.4992
19.4993
19.4993
19.4994
19.4995
19.4996
19.4996
19.4997
19.4998
19.4998
19.4999
19.5
19.5
19.5001
19.5001
19.5002
19.5002
19.5003
19.5003
19.5003
19.5004
19.5004
19.5004
19.5004
19.5004
19.5004
19.5004
19.5004
19.5004
19.5004
19.5003
19.5003
19.5003
19.5002
19.5002
19.5001
19.5001
19.5
19.5
19.4999
19.4998
19.4998
19.4997
19.4996
19.4996
19.4995
19.4994
19.4993
19.4993
19.4992
19.4991
19.4991
19.4991
19.4991
19.4991
19.5567
19.5566
19.5566
19.5566
19.5567
19.5567
19.5568
19.5569
19.5569
19.557
19.5571
19.5572
19.5573
19.5573
19.5574
19.5575
19.5575
19.5576
19.5577
19.5577
19.5578
19.5578
19.5578
19.5579
19.5579
19.5579
19.558
19.558
19.558
19.558
19.558
19.558
19.558
19.558
19.5579
19.5579
19.5579
19.5578
19.5578
19.5578
19.5577
19.5577
19.5576
19.5575
19.5575
19.5574
19.5573
19.5573
19.5572
19.5571
19.557
19.5569
19.5569
19.5568
19.5567
19.5567
19.5566
19.5566
19.5566
19.5567
19.6108
19.6108
19.6108
19.6108
19.6108
19.6109
19.6109
19.611
19.6111
19.6112
19.6113
19.6113
19.6114
19.6115
19.6116
19.6116
19.6117
19.6118
19.6118
19.6119
19.6119
19.612
19.612
19.6121
19.6121
19.6121
19.6121
19.6122
19.6122
19.6122
19.6122
19.6122
19.6122
19.6121
19.6121
19.6121
19.6121
19.612
19.612
19.6119
19.6119
19.6118
19.6118
19.6117
19.6116
19.6116
19.6115
19.6114
19.6113
19.6113
19.6112
19.6111
19.611
19.6109
19.6109
19.6108
19.6108
19.6108
19.6108
19.6108
19.6622
19.6621
19.6621
19.6621
19.6621
19.6622
19.6623
19.6623
19.6624
19.6625
19.6626
19.6627
19.6628
19.6628
19.6629
19.663
19.6631
19.6631
19.6632
19.6633
19.6633
19.6634
19.6634
19.6634
19.6635
19.6635
19.6635
19.6635
19.6636
19.6636
19.6636
19.6636
19.6635
19.6635
19.6635
19.6635
19.6634
19.6634
19.6634
19.6633
19.6633
19.6632
19.6631
19.6631
19.663
19.6629
19.6628
19.6628
19.6627
19.6626
19.6625
19.6624
19.6623
19.6623
19.6622
19.6621
19.6621
19.6621
19.6621
19.6622
19.7111
19.7111
19.7111
19.7111
19.7111
19.7112
19.7112
19.7113
19.7114
19.7115
19.7115
19.7116
19.7117
19.7118
19.7119
19.712
19.7121
19.7121
19.7122
19.7123
19.7123
19.7124
19.7124
19.7124
19.7125
19.7125
19.7125
19.7125
19.7126
19.7126
19.7126
19.7126
19.7125
19.7125
19.7125
19.7125
19.7124
19.7124
19.7124
19.7123
19.7123
19.7122
19.7121
19.7121
19.712
19.7119
19.7118
19.7117
19.7116
19.7115
19.7115
19.7114
19.7113
19.7112
19.7112
19.7111
19.7111
19.7111
19.7111
19.7111
19.7581
19.758
19.758
19.758
19.758
19.7581
19.7582
19.7582
19.7583
19.7584
19.7585
19.7586
19.7587
19.7588
19.7589
19.759
19.759
19.7591
19.7592
19.7592
19.7593
19.7594
19.7594
19.7594
19.7595
19.7595
19.7595
19.7596
19.7596
19.7596
19.7596
19.7596
19.7596
19.7595
19.7595
19.7595
19.7594
19.7594
19.7594
19.7593
19.7592
19.7592
19.7591
19.759
19.759
19.7589
19.7588
19.7587
19.7586
19.7585
19.7584
19.7583
19.7582
19.7582
19.7581
19.758
19.758
19.758
19.758
19.7581
19.8033
19.8033
19.8032
19.8032
19.8033
19.8033
19.8034
19.8035
19.8036
19.8037
19.8038
19.8038
19.8039
19.804
19.8041
19.8042
19.8043
19.8044
19.8045
19.8045
19.8046
19.8046
19.8047
19.8047
19.8048
19.8048
19.8048
19.8048
19.8049
19.8049
19.8049
19.8049
19.8048
19.8048
19.8048
19.8048
19.8047
19.8047
19.8046
19.8046
19.8045
19.8045
19.8044
19.8043
19.8042
19.8041
19.804
19.8039
19.8038
19.8038
19.8037
19.8036
19.8035
19.8034
19.8033
19.8033
19.8032
19.8032
19.8033
19.8033
19.8471
19.847
19.847
19.847
19.847
19.8471
19.8472
19.8472
19.8473
19.8474
19.8475
19.8476
19.8477
19.8478
19.8479
19.848
19.8481
19.8482
19.8483
19.8483
19.8484
19.8485
19.8485
19.8486
19.8486
19.8486
19.8486
19.8487
19.8487
19.8487
19.8487
19.8487
19.8487
19.8486
19.8486
19.8486
19.8486
19.8485
19.8485
19.8484
19.8483
19.8483
19.8482
19.8481
19.848
19.8479
19.8478
19.8477
19.8476
19.8475
19.8474
19.8473
19.8472
19.8472
19.8471
19.847
19.847
19.847
19.847
19.8471
19.8896
19.8895
19.8895
19.8895
19.8895
19.8896
19.8897
19.8898
19.8898
19.8899
19.89
19.8902
19.8903
19.8904
19.8905
19.8906
19.8906
19.8907
19.8908
19.8909
19.8909
19.891
19.8911
19.8911
19.8912
19.8912
19.8912
19.8912
19.8912
19.8913
19.8913
19.8912
19.8912
19.8912
19.8912
19.8912
19.8911
19.8911
19.891
19.8909
19.8909
19.8908
19.8907
19.8906
19.8906
19.8905
19.8904
19.8903
19.8902
19.89
19.8899
19.8898
19.8898
19.8897
19.8896
19.8895
19.8895
19.8895
19.8895
19.8896
19.931
19.931
19.9309
19.9309
19.931
19.931
19.9311
19.9312
19.9313
19.9314
19.9315
19.9316
19.9317
19.9318
19.9319
19.932
19.9321
19.9322
19.9323
19.9324
19.9324
19.9325
19.9325
19.9326
19.9326
19.9327
19.9327
19.9327
19.9327
19.9327
19.9327
19.9327
19.9327
19.9327
19.9327
19.9326
19.9326
19.9325
19.9325
19.9324
19.9324
19.9323
19.9322
19.9321
19.932
19.9319
19.9318
19.9317
19.9316
19.9315
19.9314
19.9313
19.9312
19.9311
19.931
19.931
19.9309
19.9309
19.931
19.931
19.9715
19.9714
19.9714
19.9714
19.9714
19.9715
19.9716
19.9717
19.9718
19.9719
19.972
19.9721
19.9722
19.9723
19.9724
19.9725
19.9726
19.9727
19.9728
19.9729
19.973
19.973
19.9731
19.9731
19.9732
19.9732
19.9732
19.9733
19.9733
19.9733
19.9733
19.9733
19.9733
19.9732
19.9732
19.9732
19.9731
19.9731
19.973
19.973
19.9729
19.9728
19.9727
19.9726
19.9725
19.9724
19.9723
19.9722
19.9721
19.972
19.9719
19.9718
19.9717
19.9716
19.9715
19.9714
19.9714
19.9714
19.9714
19.9715
20.0112
20.0111
20.0111
20.0111
20.0111
20.0112
20.0113
20.0114
20.0115
20.0116
20.0117
20.0118
20.0119
20.012
20.0121
20.0123
20.0124
20.0125
20.0125
20.0126
20.0127
20.0128
20.0128
20.0129
20.0129
20.013
20.013
20.013
20.013
20.013
20.013
20.013
20.013
20.013
20.013
20.0129
20.0129
20.0128
20.0128
20.0127
20.0126
20.0125
20.0125
20.0124
20.0123
20.0121
20.012
20.0119
20.0118
20.0117
20.0116
20.0115
20.0114
20.0113
20.0112
20.0111
20.0111
20.0111
20.0111
20.0112
20.0501
20.0501
20.0501
20.0501
20.0501
20.0502
20.0503
20.0504
20.0505
20.0506
20.0507
20.0508
20.0509
20.0511
20.0512
20.0513
20.0514
20.0515
20.0516
20.0517
20.0518
20.0518
20.0519
20.052
20.052
20.052
20.0521
20.0521
20.0521
20.0521
20.0521
20.0521
20.0521
20.0521
20.052
20.052
20.052
20.0519
20.0518
20.0518
20.0517
20.0516
20.0515
20.0514
20.0513
20.0512
20.0511
20.0509
20.0508
20.0507
20.0506
20.0505
20.0504
20.0503
20.0502
20.0501
20.0501
20.0501
20.0501
20.0501
20.0886
20.0885
20.0885
20.0885
20.0885
20.0886
20.0887
20.0888
20.0889
20.089
20.0891
20.0893
20.0894
20.0895
20.0896
20.0897
20.0899
20.09
20.0901
20.0902
20.0902
20.0903
20.0904
20.0904
20.0905
20.0905
20.0906
20.0906
20.0906
20.0906
20.0906
20.0906
20.0906
20.0906
20.0905
20.0905
20.0904
20.0904
20.0903
20.0902
20.0902
20.0901
20.09
20.0899
20.0897
20.0896
20.0895
20.0894
20.0893
20.0891
20.089
20.0889
20.0888
20.0887
20.0886
20.0885
20.0885
20.0885
20.0885
20.0886
20.1265
20.1264
20.1264
20.1264
20.1265
20.1265
20.1266
20.1267
20.1268
20.1269
20.1271
20.1272
20.1273
20.1275
20.1276
20.1277
20.1278
20.1279
20.128
20.1281
20.1282
20.1283
20.1284
20.1284
20.1285
20.1285
20.1286
20.1286
20.1286
20.1286
20.1286
20.1286
20.1286
20.1286
20.1285
20.1285
20.1284
20.1284
20.1283
20.1282
20.1281
20.128
20.1279
20.1278
20.1277
20.1276
20.1275
20.1273
20.1272
20.1271
20.1269
20.1268
20.1267
20.1266
20.1265
20.1265
20.1264
20.1264
20.1264
20.1265
20.164
20.1639
20.1639
20.1639
20.164
20.164
20.1641
20.1642
20.1644
20.1645
20.1646
20.1647
20.1649
20.165
20.1652
20.1653
20.1654
20.1655
20.1656
20.1657
20.1658
20.1659
20.166
20.166
20.1661
20.1661
20.1662
20.1662
20.1662
20.1662
20.1662
20.1662
20.1662
20.1662
20.1661
20.1661
20.166
20.166
20.1659
20.1658
20.1657
20.1656
20.1655
20.1654
20.1653
20.1652
20.165
20.1649
20.1647
20.1646
20.1645
20.1644
20.1642
20.1641
20.164
20.164
20.1639
20.1639
20.1639
20.164
20.2011
20.2011
20.2011
20.2011
20.2011
20.2012
20.2013
20.2014
20.2015
20.2017
20.2018
20.202
20.2021
20.2022
20.2024
20.2025
20.2026
20.2028
20.2029
20.203
20.2031
20.2031
20.2032
20.2033
20.2033
20.2034
20.2034
20.2035
20.2035
20.2035
20.2035
20.2035
20.2035
20.2034
20.2034
20.2033
20.2033
20.2032
20.2031
20.2031
20.203
20.2029
20.2028
20.2026
20.2025
20.2024
20.2022
20.2021
20.202
20.2018
20.2017
20.2015
20.2014
20.2013
20.2012
20.2011
20.2011
20.2011
20.2011
20.2011
20.238
20.238
20.238
20.238
20.2381
20.2381
20.2382
20.2383
20.2385
20.2386
20.2388
20.2389
20.2391
20.2392
20.2393
20.2395
20.2396
20.2397
20.2398
20.24
20.2401
20.2401
20.2402
20.2403
20.2403
20.2404
20.2404
20.2405
20.2405
20.2405
20.2405
20.2405
20.2405
20.2404
20.2404
20.2403
20.2403
20.2402
20.2401
20.2401
20.24
20.2398
20.2397
20.2396
20.2395
20.2393
20.2392
20.2391
20.2389
20.2388
20.2386
20.2385
20.2383
20.2382
20.2381
20.2381
20.238
20.238
20.238
20.238
20.2747
20.2747
20.2747
20.2747
20.2748
20.2749
20.275
20.2751
20.2752
20.2753
20.2755
20.2757
20.2758
20.276
20.2761
20.2762
20.2764
20.2765
20.2766
20.2767
20.2768
20.2769
20.277
20.2771
20.2771
20.2772
20.2772
20.2773
20.2773
20.2773
20.2773
20.2773
20.2773
20.2772
20.2772
20.2771
20.2771
20.277
20.2769
20.2768
20.2767
20.2766
20.2765
20.2764
20.2762
20.2761
20.276
20.2758
20.2757
20.2755
20.2753
20.2752
20.2751
20.275
20.2749
20.2748
20.2747
20.2747
20.2747
20.2747
20.3113
20.3113
20.3113
20.3113
20.3113
20.3114
20.3115
20.3117
20.3118
20.3119
20.3121
20.3123
20.3124
20.3126
20.3127
20.3129
20.313
20.3132
20.3133
20.3134
20.3135
20.3136
20.3137
20.3137
20.3138
20.3139
20.3139
20.3139
20.314
20.314
20.314
20.314
20.3139
20.3139
20.3139
20.3138
20.3137
20.3137
20.3136
20.3135
20.3134
20.3133
20.3132
20.313
20.3129
20.3127
20.3126
20.3124
20.3123
20.3121
20.3119
20.3118
20.3117
20.3115
20.3114
20.3113
20.3113
20.3113
20.3113
20.3113
20.3478
20.3478
20.3477
20.3478
20.3478
20.3479
20.348
20.3481
20.3483
20.3484
20.3486
20.3488
20.3489
20.3491
20.3493
20.3494
20.3496
20.3497
20.3498
20.35
20.3501
20.3502
20.3502
20.3503
20.3504
20.3504
20.3505
20.3505
20.3505
20.3506
20.3506
20.3505
20.3505
20.3505
20.3504
20.3504
20.3503
20.3502
20.3502
20.3501
20.35
20.3498
20.3497
20.3496
20.3494
20.3493
20.3491
20.3489
20.3488
20.3486
20.3484
20.3483
20.3481
20.348
20.3479
20.3478
20.3478
20.3477
20.3478
20.3478
20.3842
20.3842
20.3842
20.3842
20.3843
20.3844
20.3845
20.3846
20.3848
20.3849
20.3851
20.3853
20.3854
20.3856
20.3858
20.3859
20.3861
20.3862
20.3864
20.3865
20.3866
20.3867
20.3868
20.3869
20.3869
20.387
20.387
20.3871
20.3871
20.3871
20.3871
20.3871
20.3871
20.387
20.387
20.3869
20.3869
20.3868
20.3867
20.3866
20.3865
20.3864
20.3862
20.3861
20.3859
20.3858
20.3856
20.3854
20.3853
20.3851
20.3849
20.3848
20.3846
20.3845
20.3844
20.3843
20.3842
20.3842
20.3842
20.3842
20.4206
20.4206
20.4206
20.4207
20.4207
20.4208
20.4209
20.4211
20.4212
20.4214
20.4216
20.4217
20.4219
20.4221
20.4223
20.4224
20.4226
20.4227
20.4229
20.423
20.4231
20.4232
20.4233
20.4234
20.4235
20.4235
20.4236
20.4236
20.4237
20.4237
20.4237
20.4237
20.4236
20.4236
20.4235
20.4235
20.4234
20.4233
20.4232
20.4231
20.423
20.4229
20.4227
20.4226
20.4224
20.4223
20.4221
20.4219
20.4217
20.4216
20.4214
20.4212
20.4211
20.4209
20.4208
20.4207
20.4207
20.4206
20.4206
20.4206
20.4571
20.4571
20.4571
20.4572
20.4572
20.4573
20.4574
20.4576
20.4577
20.4579
20.4581
20.4583
20.4585
20.4587
20.4588
20.459
20.4592
20.4593
20.4595
20.4596
20.4597
20.4598
20.4599
20.46
20.4601
20.4602
20.4602
20.4603
20.4603
20.4603
20.4603
20.4603
20.4603
20.4602
20.4602
20.4601
20.46
20.4599
20.4598
20.4597
20.4596
20.4595
20.4593
20.4592
20.459
20.4588
20.4587
20.4585
20.4583
20.4581
20.4579
20.4577
20.4576
20.4574
20.4573
20.4572
20.4572
20.4571
20.4571
20.4571
20.4937
20.4937
20.4937
20.4938
20.4938
20.4939
20.4941
20.4942
20.4944
20.4946
20.4947
20.4949
20.4951
20.4953
20.4955
20.4957
20.4959
20.496
20.4962