/*--------------------------------*- C++ -*----------------------------------*\
| =========                 |                                                 |
| \\      /  F ield         | foam-extend: Open Source CFD                    |
|  \\    /   O peration     | Version:     4.0                                |
|   \\  /    A nd           | Web:         http://www.foam-extend.org         |
|    \\/     M anipulation  |                                                 |
\*---------------------------------------------------------------------------*/
FoamFile
{
    version     2.0;
    format      ascii;
    class       volScalarField;
    location    "970";
    object      cPlus;
}
// * * * * * * * * * * * * * * * * * * * * * * * * * * * * * * * * * * * * * //

dimensions      [0 0 0 0 0 0 0];

internalField   nonuniform List<scalar> 
6960
(
0.272815
0.27278
0.272745
0.272714
0.27269
0.272671
0.272656
0.272645
0.272637
0.27263
0.272626
0.272622
0.27262
0.272618
0.272617
0.272616
0.272615
0.272614
0.272614
0.272613
0.272613
0.272613
0.272613
0.272613
0.272613
0.272613
0.272613
0.272613
0.272613
0.272612
0.272612
0.272613
0.272613
0.272613
0.272613
0.272613
0.272613
0.272613
0.272613
0.272613
0.272613
0.272614
0.272614
0.272615
0.272616
0.272617
0.272618
0.27262
0.272622
0.272626
0.27263
0.272637
0.272645
0.272656
0.272671
0.27269
0.272714
0.272745
0.27278
0.272815
0.0745515
0.074534
0.0745154
0.0744995
0.0744866
0.0744766
0.074469
0.0744632
0.0744588
0.0744556
0.0744531
0.0744513
0.07445
0.074449
0.0744483
0.0744477
0.0744473
0.074447
0.0744468
0.0744466
0.0744465
0.0744463
0.0744463
0.0744462
0.0744462
0.0744461
0.0744461
0.0744461
0.0744461
0.0744461
0.0744461
0.0744461
0.0744461
0.0744461
0.0744461
0.0744462
0.0744462
0.0744463
0.0744463
0.0744465
0.0744466
0.0744468
0.074447
0.0744473
0.0744477
0.0744483
0.074449
0.07445
0.0744513
0.0744531
0.0744556
0.0744588
0.0744632
0.074469
0.0744766
0.0744866
0.0744995
0.0745154
0.074534
0.0745515
0.0270405
0.027035
0.0270286
0.0270231
0.0270186
0.0270151
0.0270124
0.0270103
0.0270088
0.0270076
0.0270067
0.0270061
0.0270056
0.0270052
0.027005
0.0270048
0.0270046
0.0270045
0.0270044
0.0270044
0.0270043
0.0270043
0.0270042
0.0270042
0.0270042
0.0270042
0.0270042
0.0270042
0.0270042
0.0270042
0.0270042
0.0270042
0.0270042
0.0270042
0.0270042
0.0270042
0.0270042
0.0270042
0.0270043
0.0270043
0.0270044
0.0270044
0.0270045
0.0270046
0.0270048
0.027005
0.0270052
0.0270056
0.0270061
0.0270067
0.0270076
0.0270088
0.0270103
0.0270124
0.0270151
0.0270186
0.0270231
0.0270286
0.027035
0.0270405
0.0144655
0.0144658
0.0144654
0.0144649
0.0144645
0.0144641
0.0144638
0.0144636
0.0144634
0.0144633
0.0144632
0.0144631
0.014463
0.014463
0.0144629
0.0144629
0.0144629
0.0144628
0.0144628
0.0144628
0.0144628
0.0144628
0.0144628
0.0144628
0.0144628
0.0144628
0.0144628
0.0144628
0.0144628
0.0144628
0.0144628
0.0144628
0.0144628
0.0144628
0.0144628
0.0144628
0.0144628
0.0144628
0.0144628
0.0144628
0.0144628
0.0144628
0.0144628
0.0144629
0.0144629
0.0144629
0.014463
0.014463
0.0144631
0.0144632
0.0144633
0.0144634
0.0144636
0.0144638
0.0144641
0.0144645
0.0144649
0.0144654
0.0144658
0.0144655
0.0111769
0.0111796
0.0111816
0.0111832
0.0111844
0.0111853
0.011186
0.0111865
0.0111869
0.0111871
0.0111873
0.0111875
0.0111876
0.0111877
0.0111877
0.0111877
0.0111878
0.0111878
0.0111878
0.0111878
0.0111878
0.0111878
0.0111878
0.0111878
0.0111878
0.0111878
0.0111878
0.0111878
0.0111879
0.0111879
0.0111879
0.0111879
0.0111878
0.0111878
0.0111878
0.0111878
0.0111878
0.0111878
0.0111878
0.0111878
0.0111878
0.0111878
0.0111878
0.0111878
0.0111877
0.0111877
0.0111877
0.0111876
0.0111875
0.0111873
0.0111871
0.0111869
0.0111865
0.011186
0.0111853
0.0111844
0.0111832
0.0111816
0.0111796
0.0111769
0.0103974
0.0104011
0.010404
0.0104063
0.0104081
0.0104095
0.0104105
0.0104113
0.0104119
0.0104123
0.0104126
0.0104128
0.010413
0.0104131
0.0104132
0.0104133
0.0104133
0.0104134
0.0104134
0.0104134
0.0104134
0.0104134
0.0104134
0.0104134
0.0104134
0.0104134
0.0104135
0.0104135
0.0104135
0.0104135
0.0104135
0.0104135
0.0104135
0.0104135
0.0104134
0.0104134
0.0104134
0.0104134
0.0104134
0.0104134
0.0104134
0.0104134
0.0104134
0.0104133
0.0104133
0.0104132
0.0104131
0.010413
0.0104128
0.0104126
0.0104123
0.0104119
0.0104113
0.0104105
0.0104095
0.0104081
0.0104063
0.010404
0.0104011
0.0103974
0.0102866
0.0102907
0.0102939
0.0102965
0.0102985
0.0103001
0.0103012
0.0103021
0.0103028
0.0103033
0.0103036
0.0103039
0.010304
0.0103042
0.0103043
0.0103044
0.0103044
0.0103045
0.0103045
0.0103045
0.0103045
0.0103045
0.0103045
0.0103046
0.0103046
0.0103046
0.0103046
0.0103046
0.0103046
0.0103046
0.0103046
0.0103046
0.0103046
0.0103046
0.0103046
0.0103046
0.0103046
0.0103045
0.0103045
0.0103045
0.0103045
0.0103045
0.0103045
0.0103044
0.0103044
0.0103043
0.0103042
0.010304
0.0103039
0.0103036
0.0103033
0.0103028
0.0103021
0.0103012
0.0103001
0.0102985
0.0102965
0.0102939
0.0102907
0.0102866
0.0103536
0.0103577
0.0103611
0.0103638
0.0103659
0.0103676
0.0103688
0.0103697
0.0103704
0.0103709
0.0103713
0.0103716
0.0103718
0.0103719
0.010372
0.0103721
0.0103721
0.0103722
0.0103722
0.0103722
0.0103723
0.0103723
0.0103723
0.0103723
0.0103723
0.0103723
0.0103723
0.0103723
0.0103723
0.0103723
0.0103723
0.0103723
0.0103723
0.0103723
0.0103723
0.0103723
0.0103723
0.0103723
0.0103723
0.0103723
0.0103722
0.0103722
0.0103722
0.0103721
0.0103721
0.010372
0.0103719
0.0103718
0.0103716
0.0103713
0.0103709
0.0103704
0.0103697
0.0103688
0.0103676
0.0103659
0.0103638
0.0103611
0.0103577
0.0103536
0.0104715
0.0104758
0.0104792
0.010482
0.0104842
0.0104859
0.0104872
0.0104881
0.0104888
0.0104893
0.0104897
0.01049
0.0104902
0.0104903
0.0104905
0.0104905
0.0104906
0.0104906
0.0104907
0.0104907
0.0104907
0.0104907
0.0104907
0.0104907
0.0104908
0.0104908
0.0104908
0.0104908
0.0104908
0.0104908
0.0104908
0.0104908
0.0104908
0.0104908
0.0104908
0.0104908
0.0104907
0.0104907
0.0104907
0.0104907
0.0104907
0.0104907
0.0104906
0.0104906
0.0104905
0.0104905
0.0104903
0.0104902
0.01049
0.0104897
0.0104893
0.0104888
0.0104881
0.0104872
0.0104859
0.0104842
0.010482
0.0104792
0.0104758
0.0104715
0.0106094
0.0106137
0.0106173
0.0106202
0.0106224
0.0106241
0.0106254
0.0106264
0.0106271
0.0106277
0.010628
0.0106283
0.0106285
0.0106287
0.0106288
0.0106289
0.010629
0.010629
0.010629
0.0106291
0.0106291
0.0106291
0.0106291
0.0106291
0.0106291
0.0106291
0.0106291
0.0106291
0.0106291
0.0106291
0.0106291
0.0106291
0.0106291
0.0106291
0.0106291
0.0106291
0.0106291
0.0106291
0.0106291
0.0106291
0.0106291
0.010629
0.010629
0.010629
0.0106289
0.0106288
0.0106287
0.0106285
0.0106283
0.010628
0.0106277
0.0106271
0.0106264
0.0106254
0.0106241
0.0106224
0.0106202
0.0106173
0.0106137
0.0106094
0.0107605
0.010765
0.0107687
0.0107716
0.0107739
0.0107757
0.010777
0.010778
0.0107787
0.0107793
0.0107797
0.01078
0.0107802
0.0107804
0.0107805
0.0107806
0.0107806
0.0107807
0.0107807
0.0107807
0.0107807
0.0107808
0.0107808
0.0107808
0.0107808
0.0107808
0.0107808
0.0107808
0.0107808
0.0107808
0.0107808
0.0107808
0.0107808
0.0107808
0.0107808
0.0107808
0.0107808
0.0107808
0.0107808
0.0107807
0.0107807
0.0107807
0.0107807
0.0107806
0.0107806
0.0107805
0.0107804
0.0107802
0.01078
0.0107797
0.0107793
0.0107787
0.010778
0.010777
0.0107757
0.0107739
0.0107716
0.0107687
0.010765
0.0107605
0.0109244
0.010929
0.0109328
0.0109358
0.0109381
0.0109399
0.0109413
0.0109423
0.0109431
0.0109437
0.0109441
0.0109444
0.0109446
0.0109448
0.0109449
0.010945
0.010945
0.0109451
0.0109451
0.0109451
0.0109452
0.0109452
0.0109452
0.0109452
0.0109452
0.0109452
0.0109452
0.0109452
0.0109452
0.0109452
0.0109452
0.0109452
0.0109452
0.0109452
0.0109452
0.0109452
0.0109452
0.0109452
0.0109452
0.0109452
0.0109451
0.0109451
0.0109451
0.010945
0.010945
0.0109449
0.0109448
0.0109446
0.0109444
0.0109441
0.0109437
0.0109431
0.0109423
0.0109413
0.0109399
0.0109381
0.0109358
0.0109328
0.010929
0.0109244
0.011102
0.0111068
0.0111106
0.0111137
0.0111161
0.011118
0.0111194
0.0111204
0.0111212
0.0111218
0.0111222
0.0111225
0.0111228
0.0111229
0.011123
0.0111231
0.0111232
0.0111233
0.0111233
0.0111233
0.0111233
0.0111234
0.0111234
0.0111234
0.0111234
0.0111234
0.0111234
0.0111234
0.0111234
0.0111234
0.0111234
0.0111234
0.0111234
0.0111234
0.0111234
0.0111234
0.0111234
0.0111234
0.0111234
0.0111233
0.0111233
0.0111233
0.0111233
0.0111232
0.0111231
0.011123
0.0111229
0.0111228
0.0111225
0.0111222
0.0111218
0.0111212
0.0111204
0.0111194
0.011118
0.0111161
0.0111137
0.0111106
0.0111068
0.011102
0.0112949
0.0112998
0.0113037
0.0113069
0.0113094
0.0113113
0.0113128
0.0113139
0.0113147
0.0113153
0.0113157
0.011316
0.0113163
0.0113164
0.0113166
0.0113167
0.0113167
0.0113168
0.0113168
0.0113168
0.0113169
0.0113169
0.0113169
0.0113169
0.0113169
0.0113169
0.0113169
0.0113169
0.0113169
0.0113169
0.0113169
0.0113169
0.0113169
0.0113169
0.0113169
0.0113169
0.0113169
0.0113169
0.0113169
0.0113169
0.0113168
0.0113168
0.0113168
0.0113167
0.0113167
0.0113166
0.0113164
0.0113163
0.011316
0.0113157
0.0113153
0.0113147
0.0113139
0.0113128
0.0113113
0.0113094
0.0113069
0.0113037
0.0112998
0.0112949
0.011505
0.0115101
0.0115142
0.0115174
0.01152
0.011522
0.0115235
0.0115246
0.0115255
0.0115261
0.0115265
0.0115268
0.0115271
0.0115273
0.0115274
0.0115275
0.0115276
0.0115276
0.0115277
0.0115277
0.0115277
0.0115277
0.0115277
0.0115277
0.0115278
0.0115278
0.0115278
0.0115278
0.0115278
0.0115278
0.0115278
0.0115278
0.0115278
0.0115278
0.0115278
0.0115278
0.0115277
0.0115277
0.0115277
0.0115277
0.0115277
0.0115277
0.0115276
0.0115276
0.0115275
0.0115274
0.0115273
0.0115271
0.0115268
0.0115265
0.0115261
0.0115255
0.0115246
0.0115235
0.011522
0.01152
0.0115174
0.0115142
0.0115101
0.011505
0.0117347
0.01174
0.0117442
0.0117476
0.0117502
0.0117523
0.0117538
0.011755
0.0117558
0.0117565
0.011757
0.0117573
0.0117575
0.0117577
0.0117579
0.011758
0.011758
0.0117581
0.0117581
0.0117582
0.0117582
0.0117582
0.0117582
0.0117582
0.0117582
0.0117582
0.0117582
0.0117582
0.0117582
0.0117582
0.0117582
0.0117582
0.0117582
0.0117582
0.0117582
0.0117582
0.0117582
0.0117582
0.0117582
0.0117582
0.0117582
0.0117581
0.0117581
0.011758
0.011758
0.0117579
0.0117577
0.0117575
0.0117573
0.011757
0.0117565
0.0117558
0.011755
0.0117538
0.0117523
0.0117502
0.0117476
0.0117442
0.01174
0.0117347
0.0119868
0.0119922
0.0119966
0.0120001
0.0120028
0.012005
0.0120066
0.0120078
0.0120087
0.0120093
0.0120098
0.0120102
0.0120104
0.0120106
0.0120108
0.0120109
0.012011
0.012011
0.0120111
0.0120111
0.0120111
0.0120111
0.0120111
0.0120111
0.0120112
0.0120112
0.0120112
0.0120112
0.0120112
0.0120112
0.0120112
0.0120112
0.0120112
0.0120112
0.0120112
0.0120112
0.0120111
0.0120111
0.0120111
0.0120111
0.0120111
0.0120111
0.012011
0.012011
0.0120109
0.0120108
0.0120106
0.0120104
0.0120102
0.0120098
0.0120093
0.0120087
0.0120078
0.0120066
0.012005
0.0120028
0.0120001
0.0119966
0.0119922
0.0119868
0.0122645
0.0122702
0.0122747
0.0122784
0.0122812
0.0122834
0.0122851
0.0122864
0.0122873
0.012288
0.0122885
0.0122889
0.0122892
0.0122894
0.0122895
0.0122896
0.0122897
0.0122898
0.0122898
0.0122898
0.0122899
0.0122899
0.0122899
0.0122899
0.0122899
0.0122899
0.0122899
0.0122899
0.0122899
0.0122899
0.0122899
0.0122899
0.0122899
0.0122899
0.0122899
0.0122899
0.0122899
0.0122899
0.0122899
0.0122899
0.0122898
0.0122898
0.0122898
0.0122897
0.0122896
0.0122895
0.0122894
0.0122892
0.0122889
0.0122885
0.012288
0.0122873
0.0122864
0.0122851
0.0122834
0.0122812
0.0122784
0.0122747
0.0122702
0.0122645
0.0125721
0.012578
0.0125827
0.0125865
0.0125895
0.0125918
0.0125936
0.0125949
0.0125959
0.0125966
0.0125971
0.0125975
0.0125978
0.012598
0.0125982
0.0125983
0.0125984
0.0125984
0.0125985
0.0125985
0.0125985
0.0125986
0.0125986
0.0125986
0.0125986
0.0125986
0.0125986
0.0125986
0.0125986
0.0125986
0.0125986
0.0125986
0.0125986
0.0125986
0.0125986
0.0125986
0.0125986
0.0125986
0.0125986
0.0125985
0.0125985
0.0125985
0.0125984
0.0125984
0.0125983
0.0125982
0.012598
0.0125978
0.0125975
0.0125971
0.0125966
0.0125959
0.0125949
0.0125936
0.0125918
0.0125895
0.0125865
0.0125827
0.012578
0.0125721
0.0129145
0.0129207
0.0129257
0.0129297
0.0129328
0.0129352
0.0129371
0.0129385
0.0129395
0.0129402
0.0129408
0.0129412
0.0129415
0.0129417
0.0129419
0.012942
0.0129421
0.0129422
0.0129422
0.0129422
0.0129423
0.0129423
0.0129423
0.0129423
0.0129423
0.0129423
0.0129423
0.0129423
0.0129423
0.0129423
0.0129423
0.0129423
0.0129423
0.0129423
0.0129423
0.0129423
0.0129423
0.0129423
0.0129423
0.0129423
0.0129422
0.0129422
0.0129422
0.0129421
0.012942
0.0129419
0.0129417
0.0129415
0.0129412
0.0129408
0.0129402
0.0129395
0.0129385
0.0129371
0.0129352
0.0129328
0.0129297
0.0129257
0.0129207
0.0129145
0.0132981
0.0133046
0.0133099
0.0133141
0.0133174
0.01332
0.0133219
0.0133234
0.0133244
0.0133252
0.0133258
0.0133263
0.0133266
0.0133268
0.013327
0.0133271
0.0133272
0.0133273
0.0133273
0.0133274
0.0133274
0.0133274
0.0133274
0.0133274
0.0133274
0.0133274
0.0133274
0.0133275
0.0133275
0.0133275
0.0133275
0.0133275
0.0133275
0.0133274
0.0133274
0.0133274
0.0133274
0.0133274
0.0133274
0.0133274
0.0133274
0.0133273
0.0133273
0.0133272
0.0133271
0.013327
0.0133268
0.0133266
0.0133263
0.0133258
0.0133252
0.0133244
0.0133234
0.0133219
0.01332
0.0133174
0.0133141
0.0133099
0.0133046
0.0132981
0.0137309
0.0137378
0.0137434
0.0137478
0.0137514
0.0137541
0.0137561
0.0137577
0.0137588
0.0137597
0.0137603
0.0137608
0.0137611
0.0137613
0.0137615
0.0137616
0.0137617
0.0137618
0.0137619
0.0137619
0.0137619
0.013762
0.013762
0.013762
0.013762
0.013762
0.013762
0.013762
0.013762
0.013762
0.013762
0.013762
0.013762
0.013762
0.013762
0.013762
0.013762
0.013762
0.013762
0.0137619
0.0137619
0.0137619
0.0137618
0.0137617
0.0137616
0.0137615
0.0137613
0.0137611
0.0137608
0.0137603
0.0137597
0.0137588
0.0137577
0.0137561
0.0137541
0.0137514
0.0137478
0.0137434
0.0137378
0.0137309
0.0142231
0.0142305
0.0142365
0.0142413
0.014245
0.0142479
0.0142501
0.0142518
0.014253
0.0142539
0.0142546
0.014255
0.0142554
0.0142557
0.0142559
0.014256
0.0142561
0.0142562
0.0142562
0.0142563
0.0142563
0.0142563
0.0142564
0.0142564
0.0142564
0.0142564
0.0142564
0.0142564
0.0142564
0.0142564
0.0142564
0.0142564
0.0142564
0.0142564
0.0142564
0.0142564
0.0142564
0.0142564
0.0142563
0.0142563
0.0142563
0.0142562
0.0142562
0.0142561
0.014256
0.0142559
0.0142557
0.0142554
0.014255
0.0142546
0.0142539
0.014253
0.0142518
0.0142501
0.0142479
0.014245
0.0142413
0.0142365
0.0142305
0.0142231
0.0147884
0.0147964
0.0148027
0.0148079
0.0148119
0.014815
0.0148174
0.0148192
0.0148205
0.0148215
0.0148222
0.0148227
0.0148231
0.0148234
0.0148236
0.0148237
0.0148239
0.0148239
0.014824
0.014824
0.0148241
0.0148241
0.0148241
0.0148241
0.0148242
0.0148242
0.0148242
0.0148242
0.0148242
0.0148242
0.0148242
0.0148242
0.0148242
0.0148242
0.0148242
0.0148242
0.0148241
0.0148241
0.0148241
0.0148241
0.014824
0.014824
0.0148239
0.0148239
0.0148237
0.0148236
0.0148234
0.0148231
0.0148227
0.0148222
0.0148215
0.0148205
0.0148192
0.0148174
0.014815
0.0148119
0.0148079
0.0148027
0.0147964
0.0147884
0.0154447
0.0154533
0.0154602
0.0154658
0.0154702
0.0154736
0.0154762
0.0154781
0.0154795
0.0154806
0.0154814
0.0154819
0.0154824
0.0154827
0.0154829
0.0154831
0.0154832
0.0154833
0.0154833
0.0154834
0.0154834
0.0154835
0.0154835
0.0154835
0.0154835
0.0154835
0.0154835
0.0154835
0.0154835
0.0154835
0.0154835
0.0154835
0.0154835
0.0154835
0.0154835
0.0154835
0.0154835
0.0154835
0.0154835
0.0154834
0.0154834
0.0154833
0.0154833
0.0154832
0.0154831
0.0154829
0.0154827
0.0154824
0.0154819
0.0154814
0.0154806
0.0154795
0.0154781
0.0154762
0.0154736
0.0154702
0.0154658
0.0154602
0.0154533
0.0154447
0.0162167
0.0162261
0.0162338
0.0162399
0.0162447
0.0162484
0.0162513
0.0162534
0.016255
0.0162561
0.016257
0.0162576
0.0162581
0.0162584
0.0162587
0.0162588
0.016259
0.0162591
0.0162592
0.0162592
0.0162593
0.0162593
0.0162593
0.0162593
0.0162593
0.0162593
0.0162594
0.0162594
0.0162594
0.0162594
0.0162594
0.0162594
0.0162594
0.0162594
0.0162593
0.0162593
0.0162593
0.0162593
0.0162593
0.0162593
0.0162592
0.0162592
0.0162591
0.016259
0.0162588
0.0162587
0.0162584
0.0162581
0.0162576
0.016257
0.0162561
0.016255
0.0162534
0.0162513
0.0162484
0.0162447
0.0162399
0.0162338
0.0162261
0.0162167
0.0171391
0.0171497
0.0171582
0.017165
0.0171704
0.0171745
0.0171777
0.0171801
0.0171818
0.0171831
0.0171841
0.0171848
0.0171853
0.0171857
0.0171859
0.0171862
0.0171863
0.0171864
0.0171865
0.0171866
0.0171866
0.0171866
0.0171867
0.0171867
0.0171867
0.0171867
0.0171867
0.0171867
0.0171867
0.0171867
0.0171867
0.0171867
0.0171867
0.0171867
0.0171867
0.0171867
0.0171867
0.0171867
0.0171866
0.0171866
0.0171866
0.0171865
0.0171864
0.0171863
0.0171862
0.0171859
0.0171857
0.0171853
0.0171848
0.0171841
0.0171831
0.0171818
0.0171801
0.0171777
0.0171745
0.0171704
0.017165
0.0171582
0.0171497
0.0171391
0.0182623
0.0182743
0.0182839
0.0182917
0.0182978
0.0183025
0.0183061
0.0183088
0.0183108
0.0183123
0.0183133
0.0183141
0.0183147
0.0183152
0.0183155
0.0183157
0.0183159
0.018316
0.0183161
0.0183162
0.0183162
0.0183163
0.0183163
0.0183163
0.0183163
0.0183163
0.0183163
0.0183163
0.0183163
0.0183163
0.0183163
0.0183163
0.0183163
0.0183163
0.0183163
0.0183163
0.0183163
0.0183163
0.0183163
0.0183162
0.0183162
0.0183161
0.018316
0.0183159
0.0183157
0.0183155
0.0183152
0.0183147
0.0183141
0.0183133
0.0183123
0.0183108
0.0183088
0.0183061
0.0183025
0.0182978
0.0182917
0.0182839
0.0182743
0.0182623
0.019661
0.0196748
0.019686
0.019695
0.0197021
0.0197076
0.0197117
0.0197148
0.0197172
0.0197189
0.0197202
0.0197211
0.0197218
0.0197223
0.0197226
0.0197229
0.0197231
0.0197232
0.0197233
0.0197234
0.0197235
0.0197235
0.0197236
0.0197236
0.0197236
0.0197236
0.0197236
0.0197236
0.0197236
0.0197236
0.0197236
0.0197236
0.0197236
0.0197236
0.0197236
0.0197236
0.0197236
0.0197236
0.0197235
0.0197235
0.0197234
0.0197233
0.0197232
0.0197231
0.0197229
0.0197226
0.0197223
0.0197218
0.0197211
0.0197202
0.0197189
0.0197172
0.0197148
0.0197117
0.0197076
0.0197021
0.019695
0.019686
0.0196748
0.019661
0.0214477
0.0214641
0.0214775
0.0214882
0.0214967
0.0215032
0.0215082
0.0215119
0.0215147
0.0215168
0.0215183
0.0215194
0.0215202
0.0215208
0.0215212
0.0215215
0.0215218
0.021522
0.0215221
0.0215222
0.0215223
0.0215223
0.0215223
0.0215224
0.0215224
0.0215224
0.0215224
0.0215224
0.0215224
0.0215224
0.0215224
0.0215224
0.0215224
0.0215224
0.0215224
0.0215224
0.0215224
0.0215223
0.0215223
0.0215223
0.0215222
0.0215221
0.021522
0.0215218
0.0215215
0.0215212
0.0215208
0.0215202
0.0215194
0.0215183
0.0215168
0.0215147
0.0215119
0.0215082
0.0215032
0.0214967
0.0214882
0.0214775
0.0214641
0.0214477
0.0237914
0.0238115
0.0238278
0.023841
0.0238514
0.0238595
0.0238656
0.0238702
0.0238736
0.0238761
0.023878
0.0238794
0.0238804
0.0238811
0.0238816
0.023882
0.0238823
0.0238825
0.0238827
0.0238828
0.0238829
0.023883
0.023883
0.0238831
0.0238831
0.0238831
0.0238831
0.0238831
0.0238831
0.0238831
0.0238831
0.0238831
0.0238831
0.0238831
0.0238831
0.0238831
0.0238831
0.023883
0.023883
0.0238829
0.0238828
0.0238827
0.0238825
0.0238823
0.023882
0.0238816
0.0238811
0.0238804
0.0238794
0.023878
0.0238761
0.0238736
0.0238702
0.0238656
0.0238595
0.0238514
0.023841
0.0238278
0.0238115
0.0237914
0.026933
0.0269582
0.0269789
0.0269956
0.0270087
0.0270189
0.0270267
0.0270325
0.0270368
0.02704
0.0270424
0.0270441
0.0270453
0.0270463
0.027047
0.0270475
0.0270478
0.0270481
0.0270483
0.0270485
0.0270486
0.0270486
0.0270487
0.0270488
0.0270488
0.0270488
0.0270488
0.0270488
0.0270488
0.0270488
0.0270488
0.0270488
0.0270488
0.0270488
0.0270488
0.0270488
0.0270488
0.0270487
0.0270486
0.0270486
0.0270485
0.0270483
0.0270481
0.0270478
0.0270475
0.027047
0.0270463
0.0270453
0.0270441
0.0270424
0.02704
0.0270368
0.0270325
0.0270267
0.0270189
0.0270087
0.0269956
0.0269789
0.0269582
0.026933
0.0311828
0.031215
0.0312415
0.031263
0.03128
0.0312931
0.031303
0.0313105
0.0313161
0.0313202
0.0313232
0.0313255
0.0313271
0.0313283
0.0313292
0.0313298
0.0313303
0.0313307
0.0313309
0.0313311
0.0313313
0.0313314
0.0313314
0.0313315
0.0313315
0.0313316
0.0313316
0.0313316
0.0313316
0.0313316
0.0313316
0.0313316
0.0313316
0.0313316
0.0313316
0.0313315
0.0313315
0.0313314
0.0313314
0.0313313
0.0313311
0.0313309
0.0313307
0.0313303
0.0313298
0.0313292
0.0313283
0.0313271
0.0313255
0.0313232
0.0313202
0.0313161
0.0313105
0.031303
0.0312931
0.03128
0.031263
0.0312415
0.031215
0.0311828
0.0368722
0.0369136
0.0369477
0.0369753
0.0369971
0.0370139
0.0370268
0.0370364
0.0370436
0.0370489
0.0370528
0.0370557
0.0370578
0.0370593
0.0370605
0.0370613
0.0370619
0.0370624
0.0370627
0.037063
0.0370632
0.0370633
0.0370634
0.0370635
0.0370635
0.0370636
0.0370636
0.0370636
0.0370636
0.0370636
0.0370636
0.0370636
0.0370636
0.0370636
0.0370636
0.0370635
0.0370635
0.0370634
0.0370633
0.0370632
0.037063
0.0370627
0.0370624
0.0370619
0.0370613
0.0370605
0.0370593
0.0370578
0.0370557
0.0370528
0.0370489
0.0370436
0.0370364
0.0370268
0.0370139
0.0369971
0.0369753
0.0369477
0.0369136
0.0368722
0.0442548
0.044307
0.0443499
0.0443848
0.0444122
0.0444335
0.0444497
0.0444619
0.044471
0.0444777
0.0444826
0.0444863
0.044489
0.0444909
0.0444924
0.0444934
0.0444942
0.0444948
0.0444952
0.0444955
0.0444958
0.044496
0.0444961
0.0444962
0.0444963
0.0444963
0.0444963
0.0444964
0.0444964
0.0444964
0.0444964
0.0444964
0.0444964
0.0444963
0.0444963
0.0444963
0.0444962
0.0444961
0.044496
0.0444958
0.0444955
0.0444952
0.0444948
0.0444942
0.0444934
0.0444924
0.0444909
0.044489
0.0444863
0.0444826
0.0444777
0.044471
0.0444619
0.0444497
0.0444335
0.0444122
0.0443848
0.0443499
0.044307
0.0442548
0.0533965
0.0534604
0.0535128
0.0535553
0.0535889
0.0536148
0.0536346
0.0536495
0.0536606
0.0536689
0.0536749
0.0536794
0.0536827
0.0536851
0.0536869
0.0536882
0.0536892
0.0536899
0.0536904
0.0536908
0.0536911
0.0536913
0.0536915
0.0536916
0.0536917
0.0536918
0.0536918
0.0536918
0.0536919
0.0536919
0.0536919
0.0536919
0.0536918
0.0536918
0.0536918
0.0536917
0.0536916
0.0536915
0.0536913
0.0536911
0.0536908
0.0536904
0.0536899
0.0536892
0.0536882
0.0536869
0.0536851
0.0536827
0.0536794
0.0536749
0.0536689
0.0536606
0.0536495
0.0536346
0.0536148
0.0535889
0.0535553
0.0535128
0.0534604
0.0533965
0.064137
0.0642124
0.0642741
0.0643241
0.0643635
0.0643941
0.0644174
0.064435
0.0644481
0.0644578
0.064465
0.0644703
0.0644742
0.0644771
0.0644792
0.0644807
0.0644819
0.0644827
0.0644834
0.0644839
0.0644842
0.0644845
0.0644847
0.0644848
0.0644849
0.064485
0.0644851
0.0644851
0.0644851
0.0644851
0.0644851
0.0644851
0.0644851
0.0644851
0.064485
0.0644849
0.0644848
0.0644847
0.0644845
0.0644842
0.0644839
0.0644834
0.0644827
0.0644819
0.0644807
0.0644792
0.0644771
0.0644742
0.0644703
0.064465
0.0644578
0.0644481
0.064435
0.0644174
0.0643941
0.0643635
0.0643241
0.0642741
0.0642124
0.064137
0.0761569
0.0762429
0.0763132
0.07637
0.0764149
0.0764497
0.0764763
0.0764963
0.0765113
0.0765224
0.0765307
0.0765367
0.0765412
0.0765445
0.076547
0.0765488
0.0765501
0.0765511
0.0765518
0.0765524
0.0765528
0.0765531
0.0765533
0.0765535
0.0765536
0.0765537
0.0765538
0.0765538
0.0765539
0.0765539
0.0765539
0.0765539
0.0765538
0.0765538
0.0765537
0.0765536
0.0765535
0.0765533
0.0765531
0.0765528
0.0765524
0.0765518
0.0765511
0.0765501
0.0765488
0.076547
0.0765445
0.0765412
0.0765367
0.0765307
0.0765224
0.0765113
0.0764963
0.0764763
0.0764497
0.0764149
0.07637
0.0763132
0.0762429
0.0761569
0.0891007
0.0891964
0.0892744
0.0893374
0.0893871
0.0894257
0.0894553
0.0894776
0.0894943
0.0895067
0.0895159
0.0895228
0.0895278
0.0895315
0.0895343
0.0895363
0.0895378
0.0895389
0.0895398
0.0895404
0.0895409
0.0895412
0.0895415
0.0895417
0.0895418
0.0895419
0.089542
0.0895421
0.0895421
0.0895421
0.0895421
0.0895421
0.0895421
0.089542
0.0895419
0.0895418
0.0895417
0.0895415
0.0895412
0.0895409
0.0895404
0.0895398
0.0895389
0.0895378
0.0895363
0.0895343
0.0895315
0.0895278
0.0895228
0.0895159
0.0895067
0.0894943
0.0894776
0.0894553
0.0894257
0.0893871
0.0893374
0.0892744
0.0891964
0.0891007
0.102672
0.102776
0.102862
0.10293
0.102984
0.103026
0.103059
0.103083
0.103102
0.103115
0.103125
0.103133
0.103138
0.103143
0.103146
0.103148
0.10315
0.103151
0.103152
0.103152
0.103153
0.103153
0.103154
0.103154
0.103154
0.103154
0.103154
0.103154
0.103154
0.103154
0.103154
0.103154
0.103154
0.103154
0.103154
0.103154
0.103154
0.103154
0.103153
0.103153
0.103152
0.103152
0.103151
0.10315
0.103148
0.103146
0.103143
0.103138
0.103133
0.103125
0.103115
0.103102
0.103083
0.103059
0.103026
0.102984
0.10293
0.102862
0.102776
0.102672
0.116665
0.116778
0.11687
0.116943
0.117002
0.117047
0.117082
0.117109
0.117128
0.117143
0.117154
0.117163
0.117169
0.117173
0.117177
0.117179
0.117181
0.117182
0.117183
0.117184
0.117185
0.117185
0.117185
0.117186
0.117186
0.117186
0.117186
0.117186
0.117186
0.117186
0.117186
0.117186
0.117186
0.117186
0.117186
0.117186
0.117186
0.117185
0.117185
0.117185
0.117184
0.117183
0.117182
0.117181
0.117179
0.117177
0.117173
0.117169
0.117163
0.117154
0.117143
0.117128
0.117109
0.117082
0.117047
0.117002
0.116943
0.11687
0.116778
0.116665
0.130952
0.131073
0.131171
0.13125
0.131312
0.131361
0.131398
0.131427
0.131448
0.131464
0.131476
0.131485
0.131491
0.131496
0.1315
0.131503
0.131505
0.131506
0.131508
0.131508
0.131509
0.131509
0.13151
0.13151
0.13151
0.13151
0.131511
0.131511
0.131511
0.131511
0.131511
0.131511
0.131511
0.131511
0.13151
0.13151
0.13151
0.13151
0.131509
0.131509
0.131508
0.131508
0.131506
0.131505
0.131503
0.1315
0.131496
0.131491
0.131485
0.131476
0.131464
0.131448
0.131427
0.131398
0.131361
0.131312
0.13125
0.131171
0.131073
0.130952
0.145456
0.145584
0.145688
0.145772
0.145838
0.14589
0.14593
0.145961
0.145984
0.146001
0.146014
0.146023
0.14603
0.146036
0.14604
0.146043
0.146045
0.146047
0.146048
0.146049
0.14605
0.14605
0.14605
0.146051
0.146051
0.146051
0.146051
0.146051
0.146051
0.146051
0.146051
0.146051
0.146051
0.146051
0.146051
0.146051
0.146051
0.14605
0.14605
0.14605
0.146049
0.146048
0.146047
0.146045
0.146043
0.14604
0.146036
0.14603
0.146023
0.146014
0.146001
0.145984
0.145961
0.14593
0.14589
0.145838
0.145772
0.145688
0.145584
0.145456
0.160129
0.160264
0.160374
0.160463
0.160533
0.160588
0.160631
0.160663
0.160688
0.160706
0.16072
0.16073
0.160738
0.160744
0.160748
0.160751
0.160754
0.160755
0.160757
0.160758
0.160759
0.160759
0.16076
0.16076
0.16076
0.16076
0.160761
0.160761
0.160761
0.160761
0.160761
0.160761
0.160761
0.160761
0.16076
0.16076
0.16076
0.16076
0.160759
0.160759
0.160758
0.160757
0.160755
0.160754
0.160751
0.160748
0.160744
0.160738
0.16073
0.16072
0.160706
0.160688
0.160663
0.160631
0.160588
0.160533
0.160463
0.160374
0.160264
0.160129
0.174939
0.175081
0.175196
0.17529
0.175364
0.175422
0.175467
0.175501
0.175528
0.175547
0.175562
0.175573
0.175581
0.175588
0.175592
0.175596
0.175598
0.1756
0.175602
0.175603
0.175604
0.175604
0.175605
0.175605
0.175606
0.175606
0.175606
0.175606
0.175606
0.175606
0.175606
0.175606
0.175606
0.175606
0.175606
0.175606
0.175605
0.175605
0.175604
0.175604
0.175603
0.175602
0.1756
0.175598
0.175596
0.175592
0.175588
0.175581
0.175573
0.175562
0.175547
0.175528
0.175501
0.175467
0.175422
0.175364
0.17529
0.175196
0.175081
0.174939
0.18986
0.190009
0.19013
0.190228
0.190306
0.190368
0.190415
0.190452
0.190479
0.1905
0.190516
0.190528
0.190537
0.190543
0.190548
0.190552
0.190555
0.190557
0.190559
0.19056
0.190561
0.190562
0.190562
0.190563
0.190563
0.190563
0.190563
0.190563
0.190564
0.190564
0.190564
0.190564
0.190563
0.190563
0.190563
0.190563
0.190563
0.190562
0.190562
0.190561
0.19056
0.190559
0.190557
0.190555
0.190552
0.190548
0.190543
0.190537
0.190528
0.190516
0.1905
0.190479
0.190452
0.190415
0.190368
0.190306
0.190228
0.19013
0.190009
0.18986
0.204874
0.205029
0.205156
0.205259
0.205341
0.205405
0.205455
0.205494
0.205523
0.205545
0.205562
0.205575
0.205584
0.205592
0.205597
0.205601
0.205604
0.205606
0.205608
0.20561
0.205611
0.205611
0.205612
0.205612
0.205613
0.205613
0.205613
0.205613
0.205613
0.205613
0.205613
0.205613
0.205613
0.205613
0.205613
0.205613
0.205612
0.205612
0.205611
0.205611
0.20561
0.205608
0.205606
0.205604
0.205601
0.205597
0.205592
0.205584
0.205575
0.205562
0.205545
0.205523
0.205494
0.205455
0.205405
0.205341
0.205259
0.205156
0.205029
0.204874
0.219963
0.220125
0.220257
0.220365
0.22045
0.220518
0.220571
0.220611
0.220642
0.220666
0.220684
0.220697
0.220707
0.220715
0.220721
0.220725
0.220728
0.220731
0.220733
0.220734
0.220735
0.220736
0.220737
0.220737
0.220738
0.220738
0.220738
0.220738
0.220738
0.220738
0.220738
0.220738
0.220738
0.220738
0.220738
0.220738
0.220737
0.220737
0.220736
0.220735
0.220734
0.220733
0.220731
0.220728
0.220725
0.220721
0.220715
0.220707
0.220697
0.220684
0.220666
0.220642
0.220611
0.220571
0.220518
0.22045
0.220365
0.220257
0.220125
0.219963
0.235113
0.235281
0.235418
0.23553
0.23562
0.23569
0.235746
0.235788
0.235821
0.235846
0.235865
0.235879
0.23589
0.235898
0.235905
0.235909
0.235913
0.235916
0.235918
0.235919
0.23592
0.235921
0.235922
0.235923
0.235923
0.235923
0.235923
0.235924
0.235924
0.235924
0.235924
0.235924
0.235924
0.235923
0.235923
0.235923
0.235923
0.235922
0.235921
0.23592
0.235919
0.235918
0.235916
0.235913
0.235909
0.235905
0.235898
0.23589
0.235879
0.235865
0.235846
0.235821
0.235788
0.235746
0.23569
0.23562
0.23553
0.235418
0.235281
0.235113
0.250309
0.250482
0.250625
0.250741
0.250835
0.250908
0.250966
0.251011
0.251046
0.251072
0.251092
0.251107
0.251119
0.251128
0.251134
0.251139
0.251143
0.251146
0.251148
0.25115
0.251151
0.251152
0.251153
0.251154
0.251154
0.251154
0.251154
0.251155
0.251155
0.251155
0.251155
0.251155
0.251155
0.251154
0.251154
0.251154
0.251154
0.251153
0.251152
0.251151
0.25115
0.251148
0.251146
0.251143
0.251139
0.251134
0.251128
0.251119
0.251107
0.251092
0.251072
0.251046
0.251011
0.250966
0.250908
0.250835
0.250741
0.250625
0.250482
0.250309
0.265537
0.265716
0.265864
0.265985
0.266082
0.266159
0.266219
0.266266
0.266302
0.26633
0.266351
0.266367
0.26638
0.266389
0.266396
0.266402
0.266406
0.266409