/*--------------------------------*- C++ -*----------------------------------*\
| =========                 |                                                 |
| \\      /  F ield         | foam-extend: Open Source CFD                    |
|  \\    /   O peration     | Version:     4.0                                |
|   \\  /    A nd           | Web:         http://www.foam-extend.org         |
|    \\/     M anipulation  |                                                 |
\*---------------------------------------------------------------------------*/
FoamFile
{
    version     2.0;
    format      ascii;
    class       volScalarField;
    location    "970";
    object      psiE;
}
// * * * * * * * * * * * * * * * * * * * * * * * * * * * * * * * * * * * * * //

dimensions      [0 0 0 0 0 0 0];

internalField   nonuniform List<scalar> 
6960
(
0.365951
0.365969
0.365988
0.366005
0.366018
0.366028
0.366036
0.366042
0.366047
0.366051
0.366053
0.366055
0.366057
0.366058
0.366059
0.36606
0.366061
0.366061
0.366062
0.366062
0.366062
0.366063
0.366063
0.366063
0.366063
0.366063
0.366063
0.366063
0.366064
0.366064
0.366064
0.366064
0.366063
0.366063
0.366063
0.366063
0.366063
0.366063
0.366063
0.366062
0.366062
0.366062
0.366061
0.366061
0.36606
0.366059
0.366058
0.366057
0.366055
0.366053
0.366051
0.366047
0.366042
0.366036
0.366028
0.366018
0.366005
0.365988
0.365969
0.365951
0.961791
0.961866
0.961943
0.962009
0.962062
0.962104
0.962136
0.96216
0.962179
0.962193
0.962203
0.962212
0.962218
0.962223
0.962226
0.962229
0.962232
0.962234
0.962235
0.962237
0.962238
0.962239
0.96224
0.96224
0.962241
0.962241
0.962242
0.962242
0.962242
0.962242
0.962242
0.962242
0.962242
0.962242
0.962241
0.962241
0.96224
0.96224
0.962239
0.962238
0.962237
0.962235
0.962234
0.962232
0.962229
0.962226
0.962223
0.962218
0.962212
0.962203
0.962193
0.962179
0.96216
0.962136
0.962104
0.962062
0.962009
0.961943
0.961866
0.961791
1.53288
1.53303
1.53318
1.5333
1.5334
1.53348
1.53354
1.53359
1.53363
1.53365
1.53367
1.53369
1.5337
1.53371
1.53372
1.53372
1.53373
1.53373
1.53373
1.53374
1.53374
1.53374
1.53374
1.53374
1.53374
1.53374
1.53374
1.53374
1.53374
1.53375
1.53375
1.53374
1.53374
1.53374
1.53374
1.53374
1.53374
1.53374
1.53374
1.53374
1.53374
1.53373
1.53373
1.53373
1.53372
1.53372
1.53371
1.5337
1.53369
1.53367
1.53365
1.53363
1.53359
1.53354
1.53348
1.5334
1.5333
1.53318
1.53303
1.53288
2.10472
2.10493
2.10516
2.10535
2.1055
2.10562
2.10572
2.10579
2.10584
2.10588
2.10591
2.10594
2.10595
2.10597
2.10598
2.10599
2.10599
2.106
2.106
2.10601
2.10601
2.10601
2.10601
2.10602
2.10602
2.10602
2.10602
2.10602
2.10602
2.10602
2.10602
2.10602
2.10602
2.10602
2.10602
2.10602
2.10602
2.10601
2.10601
2.10601
2.10601
2.106
2.106
2.10599
2.10599
2.10598
2.10597
2.10595
2.10594
2.10591
2.10588
2.10584
2.10579
2.10572
2.10562
2.1055
2.10535
2.10516
2.10493
2.10472
2.6844
2.6847
2.685
2.68526
2.68547
2.68563
2.68576
2.68585
2.68592
2.68598
2.68602
2.68605
2.68608
2.68609
2.68611
2.68612
2.68613
2.68614
2.68614
2.68615
2.68615
2.68615
2.68616
2.68616
2.68616
2.68616
2.68616
2.68616
2.68616
2.68616
2.68616
2.68616
2.68616
2.68616
2.68616
2.68616
2.68616
2.68616
2.68615
2.68615
2.68615
2.68614
2.68614
2.68613
2.68612
2.68611
2.68609
2.68608
2.68605
2.68602
2.68598
2.68592
2.68585
2.68576
2.68563
2.68547
2.68526
2.685
2.6847
2.6844
3.27385
3.27423
3.27461
3.27494
3.2752
3.27541
3.27557
3.27569
3.27578
3.27585
3.2759
3.27594
3.27597
3.27599
3.27601
3.27603
3.27604
3.27605
3.27605
3.27606
3.27606
3.27607
3.27607
3.27608
3.27608
3.27608
3.27608
3.27608
3.27608
3.27608
3.27608
3.27608
3.27608
3.27608
3.27608
3.27608
3.27608
3.27607
3.27607
3.27606
3.27606
3.27605
3.27605
3.27604
3.27603
3.27601
3.27599
3.27597
3.27594
3.2759
3.27585
3.27578
3.27569
3.27557
3.27541
3.2752
3.27494
3.27461
3.27423
3.27385
3.87347
3.87392
3.87438
3.87478
3.8751
3.87535
3.87554
3.87569
3.8758
3.87588
3.87594
3.87599
3.87603
3.87606
3.87608
3.8761
3.87611
3.87612
3.87613
3.87614
3.87614
3.87615
3.87615
3.87616
3.87616
3.87616
3.87616
3.87616
3.87616
3.87616
3.87616
3.87616
3.87616
3.87616
3.87616
3.87616
3.87616
3.87615
3.87615
3.87614
3.87614
3.87613
3.87612
3.87611
3.8761
3.87608
3.87606
3.87603
3.87599
3.87594
3.87588
3.8758
3.87569
3.87554
3.87535
3.8751
3.87478
3.87438
3.87392
3.87347
4.48317
4.4837
4.48424
4.48471
4.48508
4.48538
4.4856
4.48578
4.48591
4.48601
4.48608
4.48614
4.48618
4.48621
4.48624
4.48626
4.48627
4.48629
4.4863
4.48631
4.48631
4.48632
4.48632
4.48633
4.48633
4.48633
4.48634
4.48634
4.48634
4.48634
4.48634
4.48634
4.48634
4.48634
4.48633
4.48633
4.48633
4.48632
4.48632
4.48631
4.48631
4.4863
4.48629
4.48627
4.48626
4.48624
4.48621
4.48618
4.48614
4.48608
4.48601
4.48591
4.48578
4.4856
4.48538
4.48508
4.48471
4.48424
4.4837
4.48317
5.10274
5.10334
5.10396
5.1045
5.10493
5.10527
5.10553
5.10572
5.10587
5.10599
5.10607
5.10614
5.10619
5.10623
5.10626
5.10628
5.1063
5.10631
5.10632
5.10633
5.10634
5.10635
5.10635
5.10636
5.10636
5.10637
5.10637
5.10637
5.10637
5.10637
5.10637
5.10637
5.10637
5.10637
5.10637
5.10636
5.10636
5.10635
5.10635
5.10634
5.10633
5.10632
5.10631
5.1063
5.10628
5.10626
5.10623
5.10619
5.10614
5.10607
5.10599
5.10587
5.10572
5.10553
5.10527
5.10493
5.1045
5.10396
5.10334
5.10274
5.73184
5.73251
5.73322
5.73382
5.73431
5.73469
5.73498
5.73521
5.73538
5.7355
5.7356
5.73567
5.73573
5.73577
5.73581
5.73583
5.73585
5.73587
5.73588
5.7359
5.73591
5.73591
5.73592
5.73592
5.73593
5.73593
5.73593
5.73594
5.73594
5.73594
5.73594
5.73594
5.73594
5.73593
5.73593
5.73593
5.73592
5.73592
5.73591
5.73591
5.7359
5.73588
5.73587
5.73585
5.73583
5.73581
5.73577
5.73573
5.73567
5.7356
5.7355
5.73538
5.73521
5.73498
5.73469
5.73431
5.73382
5.73322
5.73251
5.73184
6.37008
6.37084
6.37162
6.37229
6.37283
6.37326
6.37358
6.37383
6.37402
6.37416
6.37427
6.37435
6.37442
6.37446
6.3745
6.37453
6.37455
6.37457
6.37459
6.3746
6.37461
6.37462
6.37463
6.37463
6.37464
6.37464
6.37464
6.37465
6.37465
6.37465
6.37465
6.37465
6.37465
6.37464
6.37464
6.37464
6.37463
6.37463
6.37462
6.37461
6.3746
6.37459
6.37457
6.37455
6.37453
6.3745
6.37446
6.37442
6.37435
6.37427
6.37416
6.37402
6.37383
6.37358
6.37326
6.37283
6.37229
6.37162
6.37084
6.37008
7.01701
7.01783
7.0187
7.01943
7.02003
7.0205
7.02086
7.02113
7.02134
7.0215
7.02161
7.0217
7.02177
7.02183
7.02187
7.0219
7.02193
7.02195
7.02196
7.02198
7.02199
7.022
7.02201
7.02201
7.02202
7.02202
7.02203
7.02203
7.02203
7.02203
7.02203
7.02203
7.02203
7.02203
7.02202
7.02202
7.02201
7.02201
7.022
7.02199
7.02198
7.02196
7.02195
7.02193
7.0219
7.02187
7.02183
7.02177
7.0217
7.02161
7.0215
7.02134
7.02113
7.02086
7.0205
7.02003
7.01943
7.0187
7.01783
7.01701
7.67206
7.67296
7.6739
7.67471
7.67535
7.67586
7.67626
7.67656
7.67678
7.67695
7.67708
7.67718
7.67726
7.67731
7.67736
7.6774
7.67742
7.67745
7.67746
7.67748
7.67749
7.6775
7.67751
7.67752
7.67752
7.67753
7.67753
7.67754
7.67754
7.67754
7.67754
7.67754
7.67754
7.67753
7.67753
7.67752
7.67752
7.67751
7.6775
7.67749
7.67748
7.67746
7.67745
7.67742
7.6774
7.67736
7.67731
7.67726
7.67718
7.67708
7.67695
7.67678
7.67656
7.67626
7.67586
7.67535
7.67471
7.6739
7.67296
7.67206
8.33461
8.33558
8.33659
8.33746
8.33817
8.33872
8.33914
8.33946
8.33971
8.3399
8.34004
8.34014
8.34022
8.34029
8.34034
8.34037
8.3404
8.34043
8.34045
8.34047
8.34048
8.34049
8.3405
8.34051
8.34051
8.34052
8.34052
8.34053
8.34053
8.34053
8.34053
8.34053
8.34053
8.34052
8.34052
8.34051
8.34051
8.3405
8.34049
8.34048
8.34047
8.34045
8.34043
8.3404
8.34037
8.34034
8.34029
8.34022
8.34014
8.34004
8.3399
8.33971
8.33946
8.33914
8.33872
8.33817
8.33746
8.33659
8.33558
8.33461
9.00391
9.00495
9.00604
9.00697
9.00772
9.00831
9.00877
9.00912
9.00938
9.00958
9.00973
9.00984
9.00993
9.01
9.01005
9.01009
9.01013
9.01015
9.01018
9.01019
9.01021
9.01022
9.01023
9.01024
9.01025
9.01025
9.01026
9.01026
9.01026
9.01026
9.01026
9.01026
9.01026
9.01026
9.01025
9.01025
9.01024
9.01023
9.01022
9.01021
9.01019
9.01018
9.01015
9.01013
9.01009
9.01005
9.01
9.00993
9.00984
9.00973
9.00958
9.00938
9.00912
9.00877
9.00831
9.00772
9.00697
9.00604
9.00495
9.00391
9.6791
9.68021
9.68137
9.68236
9.68316
9.68379
9.68428
9.68465
9.68493
9.68514
9.6853
9.68543
9.68552
9.68559
9.68565
9.68569
9.68573
9.68576
9.68578
9.6858
9.68582
9.68583
9.68584
9.68585
9.68586
9.68586
9.68587
9.68587
9.68587
9.68588
9.68588
9.68587
9.68587
9.68587
9.68586
9.68586
9.68585
9.68584
9.68583
9.68582
9.6858
9.68578
9.68576
9.68573
9.68569
9.68565
9.68559
9.68552
9.68543
9.6853
9.68514
9.68493
9.68465
9.68428
9.68379
9.68316
9.68236
9.68137
9.68021
9.6791
10.3592
10.3604
10.3616
10.3627
10.3635
10.3642
10.3647
10.3651
10.3654
10.3656
10.3658
10.3659
10.366
10.3661
10.3661
10.3662
10.3662
10.3663
10.3663
10.3663
10.3663
10.3663
10.3663
10.3664
10.3664
10.3664
10.3664
10.3664
10.3664
10.3664
10.3664
10.3664
10.3664
10.3664
10.3664
10.3664
10.3664
10.3663
10.3663
10.3663
10.3663
10.3663
10.3663
10.3662
10.3662
10.3661
10.3661
10.366
10.3659
10.3658
10.3656
10.3654
10.3651
10.3647
10.3642
10.3635
10.3627
10.3616
10.3604
10.3592
11.0431
11.0443
11.0456
11.0467
11.0476
11.0483
11.0488
11.0492
11.0496
11.0498
11.05
11.0501
11.0502
11.0503
11.0504
11.0504
11.0505
11.0505
11.0505
11.0505
11.0506
11.0506
11.0506
11.0506
11.0506
11.0506
11.0506
11.0506
11.0506
11.0506
11.0506
11.0506
11.0506
11.0506
11.0506
11.0506
11.0506
11.0506
11.0506
11.0506
11.0505
11.0505
11.0505
11.0505
11.0504
11.0504
11.0503
11.0502
11.0501
11.05
11.0498
11.0496
11.0492
11.0488
11.0483
11.0476
11.0467
11.0456
11.0443
11.0431
11.7294
11.7307
11.732
11.7332
11.7341
11.7349
11.7354
11.7359
11.7362
11.7364
11.7366
11.7368
11.7369
11.737
11.737
11.7371
11.7371
11.7372
11.7372
11.7372
11.7372
11.7373
11.7373
11.7373
11.7373
11.7373
11.7373
11.7373
11.7373
11.7373
11.7373
11.7373
11.7373
11.7373
11.7373
11.7373
11.7373
11.7373
11.7373
11.7372
11.7372
11.7372
11.7372
11.7371
11.7371
11.737
11.737
11.7369
11.7368
11.7366
11.7364
11.7362
11.7359
11.7354
11.7349
11.7341
11.7332
11.732
11.7307
11.7294
12.4166
12.418
12.4194
12.4206
12.4216
12.4223
12.4229
12.4234
12.4237
12.424
12.4242
12.4243
12.4245
12.4246
12.4246
12.4247
12.4247
12.4248
12.4248
12.4248
12.4248
12.4249
12.4249
12.4249
12.4249
12.4249
12.4249
12.4249
12.4249
12.4249
12.4249
12.4249
12.4249
12.4249
12.4249
12.4249
12.4249
12.4249
12.4249
12.4248
12.4248
12.4248
12.4248
12.4247
12.4247
12.4246
12.4246
12.4245
12.4243
12.4242
12.424
12.4237
12.4234
12.4229
12.4223
12.4216
12.4206
12.4194
12.418
12.4166
13.1031
13.1045
13.106
13.1072
13.1082
13.109
13.1096
13.1101
13.1105
13.1107
13.1109
13.1111
13.1112
13.1113
13.1114
13.1114
13.1115
13.1115
13.1116
13.1116
13.1116
13.1116
13.1116
13.1117
13.1117
13.1117
13.1117
13.1117
13.1117
13.1117
13.1117
13.1117
13.1117
13.1117
13.1117
13.1117
13.1117
13.1116
13.1116
13.1116
13.1116
13.1116
13.1115
13.1115
13.1114
13.1114
13.1113
13.1112
13.1111
13.1109
13.1107
13.1105
13.1101
13.1096
13.109
13.1082
13.1072
13.106
13.1045
13.1031
13.7868
13.7882
13.7897
13.791
13.7921
13.7929
13.7935
13.794
13.7944
13.7946
13.7949
13.795
13.7951
13.7952
13.7953
13.7954
13.7954
13.7955
13.7955
13.7955
13.7956
13.7956
13.7956
13.7956
13.7956
13.7956
13.7956
13.7956
13.7956
13.7956
13.7956
13.7956
13.7956
13.7956
13.7956
13.7956
13.7956
13.7956
13.7956
13.7956
13.7955
13.7955
13.7955
13.7954
13.7954
13.7953
13.7952
13.7951
13.795
13.7949
13.7946
13.7944
13.794
13.7935
13.7929
13.7921
13.791
13.7897
13.7882
13.7868
14.4654
14.4668
14.4684
14.4697
14.4708
14.4716
14.4722
14.4727
14.4731
14.4734
14.4736
14.4738
14.4739
14.474
14.4741
14.4742
14.4742
14.4742
14.4743
14.4743
14.4743
14.4744
14.4744
14.4744
14.4744
14.4744
14.4744
14.4744
14.4744
14.4744
14.4744
14.4744
14.4744
14.4744
14.4744
14.4744
14.4744
14.4744
14.4744
14.4743
14.4743
14.4743
14.4742
14.4742
14.4742
14.4741
14.474
14.4739
14.4738
14.4736
14.4734
14.4731
14.4727
14.4722
14.4716
14.4708
14.4697
14.4684
14.4668
14.4654
15.1361
15.1376
15.1392
15.1405
15.1416
15.1425
15.1431
15.1436
15.144
15.1443
15.1445
15.1447
15.1448
15.1449
15.145
15.1451
15.1451
15.1452
15.1452
15.1452
15.1453
15.1453
15.1453
15.1453
15.1453
15.1453
15.1453
15.1453
15.1453
15.1454
15.1454
15.1453
15.1453
15.1453
15.1453
15.1453
15.1453
15.1453
15.1453
15.1453
15.1452
15.1452
15.1452
15.1451
15.1451
15.145
15.1449
15.1448
15.1447
15.1445
15.1443
15.144
15.1436
15.1431
15.1425
15.1416
15.1405
15.1392
15.1376
15.1361
15.7959
15.7975
15.799
15.8004
15.8015
15.8023
15.803
15.8035
15.8039
15.8042
15.8044
15.8046
15.8047
15.8048
15.8049
15.805
15.805
15.8051
15.8051
15.8052
15.8052
15.8052
15.8052
15.8052
15.8052
15.8053
15.8053
15.8053
15.8053
15.8053
15.8053
15.8053
15.8053
15.8053
15.8053
15.8052
15.8052
15.8052
15.8052
15.8052
15.8052
15.8051
15.8051
15.805
15.805
15.8049
15.8048
15.8047
15.8046
15.8044
15.8042
15.8039
15.8035
15.803
15.8023
15.8015
15.8004
15.799
15.7975
15.7959
16.4411
16.4427
16.4442
16.4456
16.4467
16.4475
16.4482
16.4487
16.4491
16.4494
16.4496
16.4498
16.4499
16.45
16.4501
16.4502
16.4502
16.4503
16.4503
16.4504
16.4504
16.4504
16.4504
16.4505
16.4505
16.4505
16.4505
16.4505
16.4505
16.4505
16.4505
16.4505
16.4505
16.4505
16.4505
16.4505
16.4505
16.4504
16.4504
16.4504
16.4504
16.4503
16.4503
16.4502
16.4502
16.4501
16.45
16.4499
16.4498
16.4496
16.4494
16.4491
16.4487
16.4482
16.4475
16.4467
16.4456
16.4442
16.4427
16.4411
17.0673
17.0689
17.0704
17.0718
17.0728
17.0737
17.0743
17.0748
17.0752
17.0755
17.0758
17.0759
17.0761
17.0762
17.0763
17.0763
17.0764
17.0764
17.0765
17.0765
17.0765
17.0766
17.0766
17.0766
17.0766
17.0766
17.0766
17.0766
17.0766
17.0766
17.0766
17.0766
17.0766
17.0766
17.0766
17.0766
17.0766
17.0766
17.0766
17.0765
17.0765
17.0765
17.0764
17.0764
17.0763
17.0763
17.0762
17.0761
17.0759
17.0758
17.0755
17.0752
17.0748
17.0743
17.0737
17.0728
17.0718
17.0704
17.0689
17.0673
17.6694
17.6709
17.6724
17.6737
17.6747
17.6756
17.6762
17.6767
17.6771
17.6774
17.6776
17.6778
17.6779
17.678
17.6781
17.6782
17.6782
17.6783
17.6783
17.6784
17.6784
17.6784
17.6784
17.6784
17.6785
17.6785
17.6785
17.6785
17.6785
17.6785
17.6785
17.6785
17.6785
17.6785
17.6785
17.6785
17.6784
17.6784
17.6784
17.6784
17.6784
17.6783
17.6783
17.6782
17.6782
17.6781
17.678
17.6779
17.6778
17.6776
17.6774
17.6771
17.6767
17.6762
17.6756
17.6747
17.6737
17.6724
17.6709
17.6694
18.241
18.2425
18.2439
18.2451
18.2462
18.247
18.2476
18.248
18.2484
18.2487
18.2489
18.2491
18.2492
18.2493
18.2494
18.2495
18.2495
18.2496
18.2496
18.2497
18.2497
18.2497
18.2497
18.2498
18.2498
18.2498
18.2498
18.2498
18.2498
18.2498
18.2498
18.2498
18.2498
18.2498
18.2498
18.2498
18.2498
18.2497
18.2497
18.2497
18.2497
18.2496
18.2496
18.2495
18.2495
18.2494
18.2493
18.2492
18.2491
18.2489
18.2487
18.2484
18.248
18.2476
18.247
18.2462
18.2451
18.2439
18.2425
18.241
18.7748
18.7762
18.7775
18.7787
18.7797
18.7804
18.781
18.7814
18.7818
18.7821
18.7823
18.7824
18.7826
18.7827
18.7827
18.7828
18.7829
18.7829
18.783
18.783
18.783
18.783
18.7831
18.7831
18.7831
18.7831
18.7831
18.7831
18.7831
18.7831
18.7831
18.7831
18.7831
18.7831
18.7831
18.7831
18.7831
18.7831
18.783
18.783
18.783
18.783
18.7829
18.7829
18.7828
18.7827
18.7827
18.7826
18.7824
18.7823
18.7821
18.7818
18.7814
18.781
18.7804
18.7797
18.7787
18.7775
18.7762
18.7748
19.2624
19.2636
19.2648
19.2659
19.2667
19.2674
19.2679
19.2683
19.2687
19.2689
19.2691
19.2693
19.2694
19.2695
19.2696
19.2696
19.2697
19.2697
19.2698
19.2698
19.2699
19.2699
19.2699
19.2699
19.2699
19.2699
19.27
19.27
19.27
19.27
19.27
19.27
19.27
19.27
19.2699
19.2699
19.2699
19.2699
19.2699
19.2699
19.2698
19.2698
19.2697
19.2697
19.2696
19.2696
19.2695
19.2694
19.2693
19.2691
19.2689
19.2687
19.2683
19.2679
19.2674
19.2667
19.2659
19.2648
19.2636
19.2624
19.6947
19.6958
19.6969
19.6978
19.6985
19.6991
19.6996
19.7
19.7002
19.7005
19.7007
19.7008
19.7009
19.701
19.7011
19.7011
19.7012
19.7012
19.7013
19.7013
19.7014
19.7014
19.7014
19.7014
19.7014
19.7015
19.7015
19.7015
19.7015
19.7015
19.7015
19.7015
19.7015
19.7015
19.7015
19.7014
19.7014
19.7014
19.7014
19.7014
19.7013
19.7013
19.7012
19.7012
19.7011
19.7011
19.701
19.7009
19.7008
19.7007
19.7005
19.7002
19.7
19.6996
19.6991
19.6985
19.6978
19.6969
19.6958
19.6947
20.0647
20.0656
20.0665
20.0672
20.0679
20.0684
20.0688
20.0691
20.0693
20.0695
20.0697
20.0698
20.0699
20.07
20.0701
20.0701
20.0702
20.0702
20.0703
20.0703
20.0703
20.0704
20.0704
20.0704
20.0704
20.0704
20.0704
20.0705
20.0705
20.0705
20.0705
20.0705
20.0705
20.0704
20.0704
20.0704
20.0704
20.0704
20.0704
20.0703
20.0703
20.0703
20.0702
20.0702
20.0701
20.0701
20.07
20.0699
20.0698
20.0697
20.0695
20.0693
20.0691
20.0688
20.0684
20.0679
20.0672
20.0665
20.0656
20.0647
20.3695
20.3701
20.3708
20.3714
20.3719
20.3723
20.3726
20.3729
20.3731
20.3733
20.3734
20.3735
20.3736
20.3737
20.3737
20.3738
20.3739
20.3739
20.3739
20.374
20.374
20.374
20.3741
20.3741
20.3741
20.3741
20.3741
20.3741
20.3741
20.3741
20.3741
20.3741
20.3741
20.3741
20.3741
20.3741
20.3741
20.3741
20.374
20.374
20.374
20.3739
20.3739
20.3739
20.3738
20.3737
20.3737
20.3736
20.3735
20.3734
20.3733
20.3731
20.3729
20.3726
20.3723
20.3719
20.3714
20.3708
20.3701
20.3695
20.6124
20.6129
20.6134
20.6138
20.6142
20.6145
20.6148
20.615
20.6151
20.6153
20.6154
20.6155
20.6156
20.6156
20.6157
20.6158
20.6158
20.6159
20.6159
20.6159
20.616
20.616
20.616
20.616
20.616
20.6161
20.6161
20.6161
20.6161
20.6161
20.6161
20.6161
20.6161
20.6161
20.6161
20.616
20.616
20.616
20.616
20.616
20.6159
20.6159
20.6159
20.6158
20.6158
20.6157
20.6156
20.6156
20.6155
20.6154
20.6153
20.6151
20.615
20.6148
20.6145
20.6142
20.6138
20.6134
20.6129
20.6124
20.8028
20.8031
20.8035
20.8038
20.8041
20.8043
20.8045
20.8047
20.8048
20.805
20.8051
20.8051
20.8052
20.8053
20.8053
20.8054
20.8054
20.8055
20.8055
20.8056
20.8056
20.8056
20.8056
20.8057
20.8057
20.8057
20.8057
20.8057
20.8057
20.8057
20.8057
20.8057
20.8057
20.8057
20.8057
20.8057
20.8057
20.8056
20.8056
20.8056
20.8056
20.8055
20.8055
20.8054
20.8054
20.8053
20.8053
20.8052
20.8051
20.8051
20.805
20.8048
20.8047
20.8045
20.8043
20.8041
20.8038
20.8035
20.8031
20.8028
20.9528
20.953
20.9532
20.9535
20.9537
20.9539
20.954
20.9541
20.9542
20.9543
20.9544
20.9545
20.9546
20.9546
20.9547
20.9548
20.9548
20.9548
20.9549
20.9549
20.9549
20.955
20.955
20.955
20.955
20.9551
20.9551
20.9551
20.9551
20.9551
20.9551
20.9551
20.9551
20.9551
20.9551
20.955
20.955
20.955
20.955
20.9549
20.9549
20.9549
20.9548
20.9548
20.9548
20.9547
20.9546
20.9546
20.9545
20.9544
20.9543
20.9542
20.9541
20.954
20.9539
20.9537
20.9535
20.9532
20.953
20.9528
21.0737
21.0738
21.0739
21.0741
21.0743
21.0744
21.0745
21.0746
21.0747
21.0748
21.0749
21.075
21.075
21.0751
21.0752
21.0752
21.0753
21.0753
21.0753
21.0754
21.0754
21.0754
21.0755
21.0755
21.0755
21.0755
21.0755
21.0755
21.0755
21.0755
21.0755
21.0755
21.0755
21.0755
21.0755
21.0755
21.0755
21.0755
21.0754
21.0754
21.0754
21.0753
21.0753
21.0753
21.0752
21.0752
21.0751
21.075
21.075
21.0749
21.0748
21.0747
21.0746
21.0745
21.0744
21.0743
21.0741
21.0739
21.0738
21.0737
21.1743
21.1744
21.1745
21.1746
21.1747
21.1749
21.175
21.175
21.1751
21.1752
21.1753
21.1754
21.1754
21.1755
21.1755
21.1756
21.1756
21.1757
21.1757
21.1758
21.1758
21.1758
21.1758
21.1759
21.1759
21.1759
21.1759
21.1759
21.1759
21.1759
21.1759
21.1759
21.1759
21.1759
21.1759
21.1759
21.1759
21.1758
21.1758
21.1758
21.1758
21.1757
21.1757
21.1756
21.1756
21.1755
21.1755
21.1754
21.1754
21.1753
21.1752
21.1751
21.175
21.175
21.1749
21.1747
21.1746
21.1745
21.1744
21.1743
21.2609
21.2609
21.261
21.2611
21.2612
21.2613
21.2614
21.2614
21.2615
21.2616
21.2617
21.2617
21.2618
21.2619
21.2619
21.262
21.262
21.2621
21.2621
21.2621
21.2622
21.2622
21.2622
21.2623
21.2623
21.2623
21.2623
21.2623
21.2623
21.2623
21.2623
21.2623
21.2623
21.2623
21.2623
21.2623
21.2623
21.2622
21.2622
21.2622
21.2621
21.2621
21.2621
21.262
21.262
21.2619
21.2619
21.2618
21.2617
21.2617
21.2616
21.2615
21.2614
21.2614
21.2613
21.2612
21.2611
21.261
21.2609
21.2609
21.3373
21.3374
21.3374
21.3375
21.3376
21.3376
21.3377
21.3378
21.3379
21.3379
21.338
21.3381
21.3381
21.3382
21.3383
21.3383
21.3384
21.3384
21.3384
21.3385
21.3385
21.3385
21.3386
21.3386
21.3386
21.3386
21.3386
21.3387
21.3387
21.3387
21.3387
21.3387
21.3387
21.3386
21.3386
21.3386
21.3386
21.3386
21.3385
21.3385
21.3385
21.3384
21.3384
21.3384
21.3383
21.3383
21.3382
21.3381
21.3381
21.338
21.3379
21.3379
21.3378
21.3377
21.3376
21.3376
21.3375
21.3374
21.3374
21.3373
21.4063
21.4063
21.4063
21.4064
21.4064
21.4065
21.4066
21.4066
21.4067
21.4068
21.4068
21.4069
21.407
21.407
21.4071
21.4071
21.4072
21.4072
21.4073
21.4073
21.4074
21.4074
21.4074
21.4074
21.4075
21.4075
21.4075
21.4075
21.4075
21.4075
21.4075
21.4075
21.4075
21.4075
21.4075
21.4075
21.4074
21.4074
21.4074
21.4074
21.4073
21.4073
21.4072
21.4072
21.4071
21.4071
21.407
21.407
21.4069
21.4068
21.4068
21.4067
21.4066
21.4066
21.4065
21.4064
21.4064
21.4063
21.4063
21.4063
21.4694
21.4694
21.4694
21.4694
21.4695
21.4695
21.4696
21.4697
21.4697
21.4698
21.4699
21.4699
21.47
21.4701
21.4701
21.4702
21.4702
21.4703
21.4703
21.4704
21.4704
21.4704
21.4705
21.4705
21.4705
21.4705
21.4705
21.4706
21.4706
21.4706
21.4706
21.4706
21.4706
21.4705
21.4705
21.4705
21.4705
21.4705
21.4704
21.4704
21.4704
21.4703
21.4703
21.4702
21.4702
21.4701
21.4701
21.47
21.4699
21.4699
21.4698
21.4697
21.4697
21.4696
21.4695
21.4695
21.4694
21.4694
21.4694
21.4694
21.5278
21.5278
21.5278
21.5279
21.5279
21.528
21.528
21.5281
21.5281
21.5282
21.5283
21.5283
21.5284
21.5285
21.5285
21.5286
21.5286
21.5287
21.5287
21.5288
21.5288
21.5288
21.5289
21.5289
21.5289
21.5289
21.529
21.529
21.529
21.529
21.529
21.529
21.529
21.529
21.5289
21.5289
21.5289
21.5289
21.5288
21.5288
21.5288
21.5287
21.5287
21.5286
21.5286
21.5285
21.5285
21.5284
21.5283
21.5283
21.5282
21.5281
21.5281
21.528
21.528
21.5279
21.5279
21.5278
21.5278
21.5278
21.5825
21.5825
21.5825
21.5825
21.5826
21.5826
21.5827
21.5827
21.5828
21.5828
21.5829
21.583
21.583
21.5831
21.5832
21.5832
21.5833
21.5833
21.5834
21.5834
21.5835
21.5835
21.5835
21.5835
21.5836
21.5836
21.5836
21.5836
21.5836
21.5836
21.5836
21.5836
21.5836
21.5836
21.5836
21.5836
21.5835
21.5835
21.5835
21.5835
21.5834
21.5834
21.5833
21.5833
21.5832
21.5832
21.5831
21.583
21.583
21.5829
21.5828
21.5828
21.5827
21.5827
21.5826
21.5826
21.5825
21.5825
21.5825
21.5825
21.634
21.634
21.634
21.634
21.6341
21.6341
21.6342
21.6342
21.6343
21.6343
21.6344
21.6345
21.6345
21.6346
21.6347
21.6347
21.6348
21.6348
21.6349
21.6349
21.635
21.635
21.635
21.6351
21.6351
21.6351
21.6351
21.6351
21.6351
21.6352
21.6352
21.6351
21.6351
21.6351
21.6351
21.6351
21.6351
21.635
21.635
21.635
21.6349
21.6349
21.6348
21.6348
21.6347
21.6347
21.6346
21.6345
21.6345
21.6344
21.6343
21.6343
21.6342
21.6342
21.6341
21.6341
21.634
21.634
21.634
21.634
21.6829
21.6829
21.6829
21.6829
21.6829
21.683
21.683
21.6831
21.6832
21.6832
21.6833
21.6834
21.6834
21.6835
21.6836
21.6836
21.6837
21.6837
21.6838
21.6838
21.6839
21.6839
21.6839
21.684
21.684
21.684
21.684
21.684
21.684
21.684
21.684
21.684
21.684
21.684
21.684
21.684
21.684
21.6839
21.6839
21.6839
21.6838
21.6838
21.6837
21.6837
21.6836
21.6836
21.6835
21.6834
21.6834
21.6833
21.6832
21.6832
21.6831
21.683
21.683
21.6829
21.6829
21.6829
21.6829
21.6829
21.7296
21.7296
21.7296
21.7296
21.7296
21.7296
21.7297
21.7297
21.7298
21.7299
21.7299
21.73
21.7301
21.7301
21.7302
21.7303
21.7303
21.7304
21.7304
21.7305
21.7305
21.7306
21.7306
21.7306
21.7306
21.7307
21.7307
21.7307
21.7307
21.7307
21.7307
21.7307
21.7307
21.7307
21.7307
21.7306
21.7306
21.7306
21.7306
21.7305
21.7305
21.7304
21.7304
21.7303
21.7303
21.7302
21.7301
21.7301
21.73
21.7299
21.7299
21.7298
21.7297
21.7297
21.7296
21.7296
21.7296
21.7296
21.7296
21.7296
21.7743
21.7743
21.7743
21.7743
21.7743
21.7744
21.7744
21.7745
21.7745
21.7746
21.7747
21.7747
21.7748
21.7749
21.7749
21.775
21.7751
21.7751
21.7752
21.7752
21.7753
21.7753
21.7753
21.7754
21.7754
21.7754
21.7754
21.7755
21.7755
21.7755
21.7755
21.7755
21.7755
21.7754
21.7754
21.7754
21.7754
21.7753
21.7753
21.7753
21.7752
21.7752
21.7751
21.7751
21.775
21.7749
21.7749
21.7748
21.7747
21.7747
21.7746
21.7745
21.7745
21.7744
21.7744
21.7743
21.7743
21.7743
21.7743
21.7743
21.8174
21.8174
21.8174
21.8174
21.8174
21.8175
21.8175
21.8176
21.8176
21.8177
21.8178
21.8178
21.8179
21.818
21.818
21.8181
21.8182
21.8182
21.8183
21.8183
21.8184
21.8184
21.8185
21.8185
21.8185
21.8185
21.8186
21.8186
21.8186
21.8186
21.8186
21.8186
21.8186
21.8186
21.8185
21.8185
21.8185
21.8185
21.8184
21.8184
21.8183
21.8183
21.8182
21.8182
21.8181
21.818
21.818
21.8179
21.8178
21.8178
21.8177
21.8176
21.8176
21.8175
21.8175
21.8174
21.8174
21.8174
21.8174
21.8174
21.8591
21.8591
21.8591
21.8591
21.8591
21.8591
21.8592
21.8592
21.8593
21.8593
21.8594
21.8595
21.8596
21.8596
21.8597
21.8598
21.8598
21.8599
21.86
21.86
21.8601
21.8601
21.8601
21.8602
21.8602
21.8602
21.8602
21.8603
21.8603
21.8603
21.8603
21.8603
21.8603
21.8602
21.8602
21.8602
21.8602
21.8601
21.8601
21.8601
21.86
21.86
21.8599
21.8598
21.8598
21.8597
21.8596
21.8596
21.8595
21.8594
21.8593
21.8593
21.8592
21.8592
21.8591
21.8591
21.8591
21.8591
21.8591
21.8591
21.8995
21.8995
21.8995
21.8995
21.8995
21.8995
21.8996
21.8996
21.8997
21.8998
21.8998
21.8999
21.9
21.9001
21.9001
21.9002
21.9003
21.9003
21.9004
21.9005
21.9005
21.9005
21.9006
21.9006
21.9007
21.9007
21.9007
21.9007
21.9007
21.9007
21.9007
21.9007
21.9007
21.9007
21.9007
21.9007
21.9006
21.9006
21.9005
21.9005
21.9005
21.9004
21.9003
21.9003
21.9002
21.9001
21.9001
21.9
21.8999
21.8998
21.8998
21.8997
21.8996
21.8996
21.8995
21.8995
21.8995
21.8995
21.8995
21.8995
21.9389
21.9388
21.9388
21.9388
21.9388
21.9389
21.9389
21.939
21.939
21.9391
21.9392
21.9393
21.9393
21.9394
21.9395
21.9396
21.9396
21.9397
21.9398
21.9398
21.9399
21.9399
21.94
21.94
21.94
21.94
21.9401
21.9401
21.9401
21.9401
21.9401
21.9401
21.9401
21.9401
21.94
21.94
21.94
21.94
21.9399
21.9399
21.9398
21.9398
21.9397
21.9396
21.9396
21.9395
21.9394
21.9393
21.9393
21.9392
21.9391
21.939
21.939
21.9389
21.9389
21.9388
21.9388
21.9388
21.9388
21.9389
21.9773
21.9772
21.9772
21.9772
21.9772
21.9773
21.9773
21.9774
21.9774
21.9775
21.9776
21.9777
21.9778
21.9778
21.9779
21.978
21.9781
21.9781
21.9782
21.9782
21.9783
21.9783
21.9784
21.9784
21.9785
21.9785
21.9785
21.9785
21.9785
21.9785
21.9785
21.9785
21.9785
21.9785
21.9785
21.9785
21.9784
21.9784
21.9783
21.9783
21.9782
21.9782
21.9781
21.9781
21.978
21.9779
21.9778
21.9778
21.9777
21.9776
21.9775
21.9774
21.9774
21.9773
21.9773
21.9772
21.9772
21.9772
21.9772
21.9773
22.0148
22.0148
22.0148
22.0148
22.0148
22.0149
22.0149
22.015
22.015
22.0151
22.0152
22.0153
22.0153
22.0154
22.0155
22.0156
22.0156
22.0157
22.0158
22.0158
22.0159
22.0159
22.016
22.016
22.0161
22.0161
22.0161
22.0161
22.0161
22.0161
22.0161
22.0161
22.0161
22.0161
22.0161
22.0161
22.016
22.016
22.0159
22.0159
22.0158
22.0158
22.0157
22.0156
22.0156
22.0155
22.0154
22.0153
22.0153
22.0152
22.0151
22.015
22.015
22.0149
22.0149
22.0148
22.0148
22.0148
22.0148
22.0148
22.0517
22.0517
22.0517
22.0517
22.0517
22.0517
22.0518
22.0518
22.0519
22.052
22.052
22.0521
22.0522
22.0523
22.0524
22.0525
22.0525
22.0526
22.0527
22.0527
22.0528
22.0528
22.0529
22.0529
22.0529
22.053
22.053
22.053
22.053
22.053
22.053
22.053
22.053
22.053
22.053
22.0529
22.0529
22.0529
22.0528
22.0528
22.0527
22.0527
22.0526
22.0525
22.0525
22.0524
22.0523
22.0522
22.0521
22.052
22.052
22.0519
22.0518
22.0518
22.0517
22.0517
22.0517
22.0517
22.0517
22.0517
22.0879
22.0879
22.0879
22.0879
22.0879
22.0879
22.088
22.088
22.0881
22.0882
22.0883
22.0884
22.0885
22.0885
22.0886
22.0887
22.0888
22.0889
22.0889
22.089
22.089
22.0891
22.0891
22.0892
22.0892
22.0892
22.0893
22.0893
22.0893
22.0893
22.0893
22.0893
22.0893
22.0893
22.0892
22.0892
22.0892
22.0891
22.0891
22.089
22.089
22.0889
22.0889
22.0888
22.0887
22.0886
22.0885
22.0885
22.0884
22.0883
22.0882
22.0881
22.088
22.088
22.0879
22.0879
22.0879
22.0879
22.0879
22.0879
22.1236
22.1236
22.1236
22.1236
22.1236
22.1236
22.1237
22.1237
22.1238
22.1239
22.124
22.1241
22.1242
22.1242
22.1243
22.1244
22.1245
22.1246
22.1246
22.1247
22.1248
22.1248
22.1249
22.1249
22.1249
22.125
22.125
22.125
22.125
22.125
22.125
22.125
22.125
22.125
22.125
22.1249
22.1249
22.1249
22.1248
22.1248
22.1247
22.1246
22.1246
22.1245
22.1244
22.1243
22.1242
22.1242
22.1241
22.124
22.1239
22.1238
22.1237
22.1237
22.1236
22.1236
22.1236
22.1236
22.1236
22.1236
22.1588
22.1588
22.1588
22.1588
22.1588
22.1588
22.1589
22.159
22.159
22.1591
22.1592
22.1593
22.1594
22.1595
22.1596
22.1596
22.1597
22.1598
22.1599
22.16
22.16
22.1601
22.1601
22.1602
22.1602
22.1602
22.1603
22.1603
22.1603
22.1603
22.1603
22.1603
22.1603
22.1603
22.1602
22.1602
22.1602
22.1601
22.1601
22.16
22.16
22.1599
22.1598
22.1597
22.1596
22.1596
22.1595
22.1594
22.1593
22.1592
22.1591
22.159
22.159
22.1589
22.1588
22.1588
22.1588
22.1588
22.1588
22.1588
22.1936
22.1936
22.1936
22.1936
22.1936
22.1937
22.1937
22.1938
22.1938
22.1939
22.194
22.1941
22.1942
22.1943
22.1944
22.1945
22.1946
22.1947
22.1947
22.1948
22.1949
22.1949
22.195
22.195
22.1951
22.1951
22.1951
22.1951
22.1951
22.1951
22.1951
22.1951
22.1951
22.1951
22.1951
22.1951
22.195
22.195
22.1949
22.1949
22.1948
22.1947
22.1947
22.1946
22.1945
22.1944
22.1943
22.1942
22.1941
22.194
22.1939
22.1938
22.1938
22.1937
22.1937
22.1936
22.1936
22.1936
22.1936
22.1936
22.2281
22.2281
22.2281
22.2281
22.2281
22.2281
22.2282
22.2282
22.2283
22.2284
22.2285
22.2286
22.2287
22.2288
22.2289
22.229
22.2291
22.2292
22.2292
22.2293
22.2294
22.2294
22.2295
22.2295
22.2296
22.2296
22.2296
22.2297
22.2297
22.2297
22.2297
22.2297
22.2297
22.2296
22.2296
22.2296
22.2295
22.2295
22.2294
22.2294
22.2293
22.2292
22.2292
22.2291
22.229
22.2289
22.2288
22.2287
22.2286
22.2285
22.2284
22.2283
22.2282
22.2282
22.2281
22.2281
22.2281
22.2281
22.2281
22.2281
22.2623
22.2622
22.2622
22.2622
22.2623
22.2623
22.2624
22.2624
22.2625
22.2626
22.2627
22.2628
22.2629
22.263
22.2631
22.2632
22.2633
22.2634