/*--------------------------------*- C++ -*----------------------------------*\
| =========                 |                                                 |
| \\      /  F ield         | foam-extend: Open Source CFD                    |
|  \\    /   O peration     | Version:     4.0                                |
|   \\  /    A nd           | Web:         http://www.foam-extend.org         |
|    \\/     M anipulation  |                                                 |
\*---------------------------------------------------------------------------*/
FoamFile
{
    version     2.0;
    format      ascii;
    class       volScalarField;
    location    "740";
    object      cMinus;
}
// * * * * * * * * * * * * * * * * * * * * * * * * * * * * * * * * * * * * * //

dimensions      [0 0 0 0 0 0 0];

internalField   nonuniform List<scalar> 
6960
(
4.12048e-21
4.0935e-21
4.10502e-21
4.11203e-21
4.11533e-21
4.116e-21
4.11488e-21
4.11257e-21
4.10946e-21
4.10583e-21
4.10188e-21
4.09775e-21
4.09355e-21
4.08934e-21
4.08521e-21
4.08119e-21
4.07734e-21
4.07368e-21
4.07025e-21
4.06706e-21
4.06414e-21
4.0615e-21
4.05913e-21
4.05706e-21
4.05528e-21
4.05379e-21
4.0526e-21
4.05171e-21
4.05112e-21
4.05082e-21
4.05082e-21
4.05112e-21
4.05171e-21
4.0526e-21
4.05379e-21
4.05528e-21
4.05706e-21
4.05913e-21
4.0615e-21
4.06414e-21
4.06706e-21
4.07025e-21
4.07368e-21
4.07734e-21
4.08119e-21
4.08521e-21
4.08934e-21
4.09355e-21
4.09775e-21
4.10188e-21
4.10583e-21
4.10946e-21
4.11257e-21
4.11488e-21
4.116e-21
4.11533e-21
4.11203e-21
4.10502e-21
4.0935e-21
4.12048e-21
8.64385e-21
8.60341e-21
8.61941e-21
8.62867e-21
8.63258e-21
8.63274e-21
8.63036e-21
8.62627e-21
8.62106e-21
8.61513e-21
8.60876e-21
8.60215e-21
8.59544e-21
8.58877e-21
8.58221e-21
8.57586e-21
8.56978e-21
8.56401e-21
8.5586e-21
8.55359e-21
8.54899e-21
8.54483e-21
8.54111e-21
8.53785e-21
8.53505e-21
8.53272e-21
8.53085e-21
8.52945e-21
8.52852e-21
8.52805e-21
8.52805e-21
8.52852e-21
8.52945e-21
8.53085e-21
8.53272e-21
8.53505e-21
8.53785e-21
8.54111e-21
8.54483e-21
8.54899e-21
8.55359e-21
8.5586e-21
8.56401e-21
8.56978e-21
8.57586e-21
8.58221e-21
8.58877e-21
8.59544e-21
8.60215e-21
8.60876e-21
8.61513e-21
8.62106e-21
8.62627e-21
8.63036e-21
8.63274e-21
8.63258e-21
8.62867e-21
8.61941e-21
8.60341e-21
8.64385e-21
3.20438e-20
3.19228e-20
3.19731e-20
3.20016e-20
3.20131e-20
3.20128e-20
3.20046e-20
3.1991e-20
3.19739e-20
3.19546e-20
3.19339e-20
3.19125e-20
3.18909e-20
3.18693e-20
3.18482e-20
3.18277e-20
3.18082e-20
3.17896e-20
3.17722e-20
3.17561e-20
3.17413e-20
3.1728e-20
3.1716e-20
3.17056e-20
3.16966e-20
3.16891e-20
3.16831e-20
3.16786e-20
3.16756e-20
3.16741e-20
3.16741e-20
3.16756e-20
3.16786e-20
3.16831e-20
3.16891e-20
3.16966e-20
3.17056e-20
3.1716e-20
3.1728e-20
3.17413e-20
3.17561e-20
3.17722e-20
3.17896e-20
3.18082e-20
3.18277e-20
3.18482e-20
3.18693e-20
3.18909e-20
3.19125e-20
3.19339e-20
3.19546e-20
3.19739e-20
3.1991e-20
3.20046e-20
3.20128e-20
3.20131e-20
3.20016e-20
3.19731e-20
3.19228e-20
3.20438e-20
1.26614e-19
1.2623e-19
1.26412e-19
1.26515e-19
1.26557e-19
1.26556e-19
1.26528e-19
1.2648e-19
1.2642e-19
1.26352e-19
1.2628e-19
1.26205e-19
1.26129e-19
1.26053e-19
1.25979e-19
1.25908e-19
1.25839e-19
1.25775e-19
1.25714e-19
1.25658e-19
1.25606e-19
1.25559e-19
1.25518e-19
1.25481e-19
1.2545e-19
1.25424e-19
1.25403e-19
1.25387e-19
1.25377e-19
1.25371e-19
1.25371e-19
1.25377e-19
1.25387e-19
1.25403e-19
1.25424e-19
1.2545e-19
1.25481e-19
1.25518e-19
1.25559e-19
1.25606e-19
1.25658e-19
1.25714e-19
1.25775e-19
1.25839e-19
1.25908e-19
1.25979e-19
1.26053e-19
1.26129e-19
1.26205e-19
1.2628e-19
1.26352e-19
1.2642e-19
1.2648e-19
1.26528e-19
1.26556e-19
1.26557e-19
1.26515e-19
1.26412e-19
1.2623e-19
1.26614e-19
5.16947e-19
5.15791e-19
5.16485e-19
5.16878e-19
5.17045e-19
5.17056e-19
5.16961e-19
5.16797e-19
5.16588e-19
5.16349e-19
5.16094e-19
5.1583e-19
5.15562e-19
5.15297e-19
5.15037e-19
5.14785e-19
5.14545e-19
5.14317e-19
5.14104e-19
5.13906e-19
5.13725e-19
5.13561e-19
5.13415e-19
5.13287e-19
5.13178e-19
5.13086e-19
5.13013e-19
5.12958e-19
5.12921e-19
5.12903e-19
5.12903e-19
5.12921e-19
5.12958e-19
5.13013e-19
5.13086e-19
5.13178e-19
5.13287e-19
5.13415e-19
5.13561e-19
5.13725e-19
5.13906e-19
5.14104e-19
5.14317e-19
5.14545e-19
5.14785e-19
5.15037e-19
5.15297e-19
5.15562e-19
5.1583e-19
5.16094e-19
5.16349e-19
5.16588e-19
5.16797e-19
5.16961e-19
5.17056e-19
5.17045e-19
5.16878e-19
5.16485e-19
5.15791e-19
5.16947e-19
2.19977e-18
2.19673e-18
2.19955e-18
2.20118e-18
2.20193e-18
2.20206e-18
2.20178e-18
2.20123e-18
2.20051e-18
2.19968e-18
2.19878e-18
2.19785e-18
2.19691e-18
2.19598e-18
2.19506e-18
2.19418e-18
2.19333e-18
2.19254e-18
2.19179e-18
2.19109e-18
2.19046e-18
2.18989e-18
2.18937e-18
2.18893e-18
2.18854e-18
2.18822e-18
2.18796e-18
2.18777e-18
2.18764e-18
2.18758e-18
2.18758e-18
2.18764e-18
2.18777e-18
2.18796e-18
2.18822e-18
2.18854e-18
2.18893e-18
2.18937e-18
2.18989e-18
2.19046e-18
2.19109e-18
2.19179e-18
2.19254e-18
2.19333e-18
2.19418e-18
2.19506e-18
2.19598e-18
2.19691e-18
2.19785e-18
2.19878e-18
2.19968e-18
2.20051e-18
2.20123e-18
2.20178e-18
2.20206e-18
2.20193e-18
2.20118e-18
2.19955e-18
2.19673e-18
2.19977e-18
9.8277e-18
9.82279e-18
9.83537e-18
9.84286e-18
9.84661e-18
9.84778e-18
9.84722e-18
9.84554e-18
9.84312e-18
9.84026e-18
9.83714e-18
9.83388e-18
9.83057e-18
9.82729e-18
9.82407e-18
9.82096e-18
9.81799e-18
9.81518e-18
9.81256e-18
9.81013e-18
9.8079e-18
9.80589e-18
9.8041e-18
9.80253e-18
9.80119e-18
9.80007e-18
9.79918e-18
9.79851e-18
9.79806e-18
9.79784e-18
9.79784e-18
9.79806e-18
9.79851e-18
9.79918e-18
9.80007e-18
9.80119e-18
9.80253e-18
9.8041e-18
9.80589e-18
9.8079e-18
9.81013e-18
9.81256e-18
9.81518e-18
9.81799e-18
9.82096e-18
9.82407e-18
9.82729e-18
9.83057e-18
9.83388e-18
9.83714e-18
9.84026e-18
9.84312e-18
9.84554e-18
9.84722e-18
9.84778e-18
9.84661e-18
9.84286e-18
9.83537e-18
9.82279e-18
9.8277e-18
4.62918e-17
4.63086e-17
4.63711e-17
4.64097e-17
4.6431e-17
4.64401e-17
4.64413e-17
4.64371e-17
4.64296e-17
4.64201e-17
4.64094e-17
4.63981e-17
4.63865e-17
4.63749e-17
4.63636e-17
4.63527e-17
4.63422e-17
4.63324e-17
4.63232e-17
4.63147e-17
4.63069e-17
4.62999e-17
4.62936e-17
4.62881e-17
4.62834e-17
4.62795e-17
4.62764e-17
4.62741e-17
4.62725e-17
4.62718e-17
4.62718e-17
4.62725e-17
4.62741e-17
4.62764e-17
4.62795e-17
4.62834e-17
4.62881e-17
4.62936e-17
4.62999e-17
4.63069e-17
4.63147e-17
4.63232e-17
4.63324e-17
4.63422e-17
4.63527e-17
4.63636e-17
4.63749e-17
4.63865e-17
4.63981e-17
4.64094e-17
4.64201e-17
4.64296e-17
4.64371e-17
4.64413e-17
4.64401e-17
4.6431e-17
4.64097e-17
4.63711e-17
4.63086e-17
4.62918e-17
2.30084e-16
2.30354e-16
2.30698e-16
2.30919e-16
2.3105e-16
2.31118e-16
2.31144e-16
2.31143e-16
2.31124e-16
2.31095e-16
2.31059e-16
2.31021e-16
2.3098e-16
2.3094e-16
2.309e-16
2.30862e-16
2.30825e-16
2.30791e-16
2.30759e-16
2.30729e-16
2.30702e-16
2.30677e-16
2.30656e-16
2.30637e-16
2.3062e-16
2.30607e-16
2.30596e-16
2.30588e-16
2.30582e-16
2.3058e-16
2.3058e-16
2.30582e-16
2.30588e-16
2.30596e-16
2.30607e-16
2.3062e-16
2.30637e-16
2.30656e-16
2.30677e-16
2.30702e-16
2.30729e-16
2.30759e-16
2.30791e-16
2.30825e-16
2.30862e-16
2.309e-16
2.3094e-16
2.3098e-16
2.31021e-16
2.31059e-16
2.31095e-16
2.31124e-16
2.31143e-16
2.31144e-16
2.31118e-16
2.3105e-16
2.30919e-16
2.30698e-16
2.30354e-16
2.30084e-16
1.2037e-15
1.20598e-15
1.20805e-15
1.20941e-15
1.21027e-15
1.21076e-15
1.211e-15
1.21109e-15
1.21108e-15
1.21101e-15
1.2109e-15
1.21078e-15
1.21064e-15
1.2105e-15
1.21036e-15
1.21023e-15
1.2101e-15
1.20998e-15
1.20987e-15
1.20977e-15
1.20967e-15
1.20959e-15
1.20951e-15
1.20945e-15
1.20939e-15
1.20934e-15
1.20931e-15
1.20928e-15
1.20926e-15
1.20925e-15
1.20925e-15
1.20926e-15
1.20928e-15
1.20931e-15
1.20934e-15
1.20939e-15
1.20945e-15
1.20951e-15
1.20959e-15
1.20967e-15
1.20977e-15
1.20987e-15
1.20998e-15
1.2101e-15
1.21023e-15
1.21036e-15
1.2105e-15
1.21064e-15
1.21078e-15
1.2109e-15
1.21101e-15
1.21108e-15
1.21109e-15
1.211e-15
1.21076e-15
1.21027e-15
1.20941e-15
1.20805e-15
1.20598e-15
1.2037e-15
6.59455e-15
6.61128e-15
6.62437e-15
6.63326e-15
6.63898e-15
6.64246e-15
6.64442e-15
6.6454e-15
6.64576e-15
6.64575e-15
6.64551e-15
6.64514e-15
6.6447e-15
6.64424e-15
6.64377e-15
6.64331e-15
6.64287e-15
6.64245e-15
6.64206e-15
6.64171e-15
6.64138e-15
6.6411e-15
6.64084e-15
6.64062e-15
6.64043e-15
6.64027e-15
6.64014e-15
6.64005e-15
6.63999e-15
6.63996e-15
6.63996e-15
6.63999e-15
6.64005e-15
6.64014e-15
6.64027e-15
6.64043e-15
6.64062e-15
6.64084e-15
6.6411e-15
6.64138e-15
6.64171e-15
6.64206e-15
6.64245e-15
6.64287e-15
6.64331e-15
6.64377e-15
6.64424e-15
6.6447e-15
6.64514e-15
6.64551e-15
6.64575e-15
6.64576e-15
6.6454e-15
6.64442e-15
6.64246e-15
6.63898e-15
6.63326e-15
6.62437e-15
6.61128e-15
6.59455e-15
3.7583e-14
3.76994e-14
3.77856e-14
3.78451e-14
3.78841e-14
3.79085e-14
3.79231e-14
3.79313e-14
3.79354e-14
3.79371e-14
3.79372e-14
3.79365e-14
3.79353e-14
3.79339e-14
3.79324e-14
3.79309e-14
3.79294e-14
3.7928e-14
3.79267e-14
3.79255e-14
3.79244e-14
3.79234e-14
3.79226e-14
3.79219e-14
3.79212e-14
3.79207e-14
3.79203e-14
3.792e-14
3.79198e-14
3.79197e-14
3.79197e-14
3.79198e-14
3.792e-14
3.79203e-14
3.79207e-14
3.79212e-14
3.79219e-14
3.79226e-14
3.79234e-14
3.79244e-14
3.79255e-14
3.79267e-14
3.7928e-14
3.79294e-14
3.79309e-14
3.79324e-14
3.79339e-14
3.79353e-14
3.79365e-14
3.79372e-14
3.79371e-14
3.79354e-14
3.79313e-14
3.79231e-14
3.79085e-14
3.78841e-14
3.78451e-14
3.77856e-14
3.76994e-14
3.7583e-14
2.21169e-13
2.21964e-13
2.22544e-13
2.22948e-13
2.23217e-13
2.23387e-13
2.23492e-13
2.23554e-13
2.23589e-13
2.23607e-13
2.23615e-13
2.23617e-13
2.23615e-13
2.23612e-13
2.23607e-13
2.23603e-13
2.23598e-13
2.23594e-13
2.23589e-13
2.23586e-13
2.23582e-13
2.23579e-13
2.23577e-13
2.23574e-13
2.23573e-13
2.23571e-13
2.2357e-13
2.23569e-13
2.23568e-13
2.23568e-13
2.23568e-13
2.23568e-13
2.23569e-13
2.2357e-13
2.23571e-13
2.23573e-13
2.23574e-13
2.23577e-13
2.23579e-13
2.23582e-13
2.23586e-13
2.23589e-13
2.23594e-13
2.23598e-13
2.23603e-13
2.23607e-13
2.23612e-13
2.23615e-13
2.23617e-13
2.23615e-13
2.23607e-13
2.23589e-13
2.23554e-13
2.23492e-13
2.23387e-13
2.23217e-13
2.22948e-13
2.22544e-13
2.21964e-13
2.21169e-13
1.3337e-12
1.33908e-12
1.34302e-12
1.34579e-12
1.34763e-12
1.34882e-12
1.34956e-12
1.35001e-12
1.35028e-12
1.35043e-12
1.35051e-12
1.35055e-12
1.35056e-12
1.35056e-12
1.35055e-12
1.35054e-12
1.35053e-12
1.35052e-12
1.35051e-12
1.3505e-12
1.35049e-12
1.35048e-12
1.35047e-12
1.35047e-12
1.35046e-12
1.35046e-12
1.35046e-12
1.35045e-12
1.35045e-12
1.35045e-12
1.35045e-12
1.35045e-12
1.35045e-12
1.35046e-12
1.35046e-12
1.35046e-12
1.35047e-12
1.35047e-12
1.35048e-12
1.35049e-12
1.3505e-12
1.35051e-12
1.35052e-12
1.35053e-12
1.35054e-12
1.35055e-12
1.35056e-12
1.35056e-12
1.35055e-12
1.35051e-12
1.35043e-12
1.35028e-12
1.35001e-12
1.34956e-12
1.34882e-12
1.34763e-12
1.34579e-12
1.34302e-12
1.33908e-12
1.3337e-12
8.17664e-12
8.21291e-12
8.23972e-12
8.25865e-12
8.27134e-12
8.27955e-12
8.28472e-12
8.2879e-12
8.28981e-12
8.29094e-12
8.29159e-12
8.29196e-12
8.29215e-12
8.29224e-12
8.29227e-12
8.29228e-12
8.29227e-12
8.29225e-12
8.29224e-12
8.29222e-12
8.29221e-12
8.2922e-12
8.29219e-12
8.29219e-12
8.29218e-12
8.29218e-12
8.29218e-12
8.29218e-12
8.29218e-12
8.29218e-12
8.29218e-12
8.29218e-12
8.29218e-12
8.29218e-12
8.29218e-12
8.29218e-12
8.29219e-12
8.29219e-12
8.2922e-12
8.29221e-12
8.29222e-12
8.29224e-12
8.29225e-12
8.29227e-12
8.29228e-12
8.29227e-12
8.29224e-12
8.29215e-12
8.29196e-12
8.29159e-12
8.29094e-12
8.28981e-12
8.2879e-12
8.28472e-12
8.27955e-12
8.27134e-12
8.25865e-12
8.23972e-12
8.21291e-12
8.17664e-12
5.05496e-11
5.07922e-11
5.09734e-11
5.11019e-11
5.11882e-11
5.12442e-11
5.12797e-11
5.13018e-11
5.13152e-11
5.13233e-11
5.13282e-11
5.1331e-11
5.13327e-11
5.13337e-11
5.13342e-11
5.13345e-11
5.13347e-11
5.13349e-11
5.1335e-11
5.1335e-11
5.13351e-11
5.13352e-11
5.13353e-11
5.13354e-11
5.13355e-11
5.13355e-11
5.13356e-11
5.13356e-11
5.13357e-11
5.13357e-11
5.13357e-11
5.13357e-11
5.13356e-11
5.13356e-11
5.13355e-11
5.13355e-11
5.13354e-11
5.13353e-11
5.13352e-11
5.13351e-11
5.1335e-11
5.1335e-11
5.13349e-11
5.13347e-11
5.13345e-11
5.13342e-11
5.13337e-11
5.13327e-11
5.1331e-11
5.13282e-11
5.13233e-11
5.13152e-11
5.13018e-11
5.12797e-11
5.12442e-11
5.11882e-11
5.11019e-11
5.09734e-11
5.07922e-11
5.05496e-11
3.12376e-10
3.13976e-10
3.15184e-10
3.16042e-10
3.1662e-10
3.16996e-10
3.17235e-10
3.17384e-10
3.17476e-10
3.17532e-10
3.17566e-10
3.17587e-10
3.17599e-10
3.17607e-10
3.17612e-10
3.17615e-10
3.17618e-10
3.17619e-10
3.17621e-10
3.17622e-10
3.17623e-10
3.17624e-10
3.17625e-10
3.17626e-10
3.17627e-10
3.17628e-10
3.17628e-10
3.17629e-10
3.17629e-10
3.17629e-10
3.17629e-10
3.17629e-10
3.17629e-10
3.17628e-10
3.17628e-10
3.17627e-10
3.17626e-10
3.17625e-10
3.17624e-10
3.17623e-10
3.17622e-10
3.17621e-10
3.17619e-10
3.17618e-10
3.17615e-10
3.17612e-10
3.17607e-10
3.17599e-10
3.17587e-10
3.17566e-10
3.17532e-10
3.17476e-10
3.17384e-10
3.17235e-10
3.16996e-10
3.1662e-10
3.16042e-10
3.15184e-10
3.13976e-10
3.12376e-10
1.91121e-09
1.92153e-09
1.9294e-09
1.935e-09
1.93877e-09
1.94123e-09
1.9428e-09
1.94378e-09
1.94439e-09
1.94476e-09
1.94499e-09
1.94513e-09
1.94522e-09
1.94528e-09
1.94532e-09
1.94534e-09
1.94536e-09
1.94537e-09
1.94539e-09
1.9454e-09
1.94541e-09
1.94541e-09
1.94542e-09
1.94543e-09
1.94544e-09
1.94544e-09
1.94545e-09
1.94545e-09
1.94545e-09
1.94545e-09
1.94545e-09
1.94545e-09
1.94545e-09
1.94545e-09
1.94544e-09
1.94544e-09
1.94543e-09
1.94542e-09
1.94541e-09
1.94541e-09
1.9454e-09
1.94539e-09
1.94537e-09
1.94536e-09
1.94534e-09
1.94532e-09
1.94528e-09
1.94522e-09
1.94513e-09
1.94499e-09
1.94476e-09
1.94439e-09
1.94378e-09
1.9428e-09
1.94123e-09
1.93877e-09
1.935e-09
1.9294e-09
1.92153e-09
1.91121e-09
1.14569e-08
1.15214e-08
1.1571e-08
1.16062e-08
1.163e-08
1.16456e-08
1.16555e-08
1.16617e-08
1.16656e-08
1.1668e-08
1.16695e-08
1.16704e-08
1.1671e-08
1.16714e-08
1.16716e-08
1.16718e-08
1.16719e-08
1.1672e-08
1.16721e-08
1.16722e-08
1.16723e-08
1.16723e-08
1.16724e-08
1.16724e-08
1.16725e-08
1.16725e-08
1.16725e-08
1.16725e-08
1.16726e-08
1.16726e-08
1.16726e-08
1.16726e-08
1.16725e-08
1.16725e-08
1.16725e-08
1.16725e-08
1.16724e-08
1.16724e-08
1.16723e-08
1.16723e-08
1.16722e-08
1.16721e-08
1.1672e-08
1.16719e-08
1.16718e-08
1.16716e-08
1.16714e-08
1.1671e-08
1.16704e-08
1.16695e-08
1.1668e-08
1.16656e-08
1.16617e-08
1.16555e-08
1.16456e-08
1.163e-08
1.16062e-08
1.1571e-08
1.15214e-08
1.14569e-08
6.65241e-08
6.69111e-08
6.72094e-08
6.74217e-08
6.75651e-08
6.76588e-08
6.77186e-08
6.77563e-08
6.77798e-08
6.77945e-08
6.78036e-08
6.78093e-08
6.78129e-08
6.78153e-08
6.78169e-08
6.78181e-08
6.78189e-08
6.78196e-08
6.78201e-08
6.78206e-08
6.7821e-08
6.78214e-08
6.78217e-08
6.7822e-08
6.78223e-08
6.78225e-08
6.78227e-08
6.78228e-08
6.78229e-08
6.7823e-08
6.7823e-08
6.78229e-08
6.78228e-08
6.78227e-08
6.78225e-08
6.78223e-08
6.7822e-08
6.78217e-08
6.78214e-08
6.7821e-08
6.78206e-08
6.78201e-08
6.78196e-08
6.78189e-08
6.78181e-08
6.78169e-08
6.78153e-08
6.78129e-08
6.78093e-08
6.78036e-08
6.77945e-08
6.77798e-08
6.77563e-08
6.77186e-08
6.76588e-08
6.75651e-08
6.74217e-08
6.72094e-08
6.69111e-08
6.65241e-08
3.69531e-07
3.71725e-07
3.73419e-07
3.74626e-07
3.75441e-07
3.75974e-07
3.76315e-07
3.7653e-07
3.76664e-07
3.76748e-07
3.76801e-07
3.76834e-07
3.76855e-07
3.76869e-07
3.76879e-07
3.76885e-07
3.7689e-07
3.76894e-07
3.76897e-07
3.769e-07
3.76903e-07
3.76905e-07
3.76907e-07
3.76908e-07
3.7691e-07
3.76911e-07
3.76912e-07
3.76913e-07
3.76914e-07
3.76914e-07
3.76914e-07
3.76914e-07
3.76913e-07
3.76912e-07
3.76911e-07
3.7691e-07
3.76908e-07
3.76907e-07
3.76905e-07
3.76903e-07
3.769e-07
3.76897e-07
3.76894e-07
3.7689e-07
3.76885e-07
3.76879e-07
3.76869e-07
3.76855e-07
3.76834e-07
3.76801e-07
3.76748e-07
3.76664e-07
3.7653e-07
3.76315e-07
3.75974e-07
3.75441e-07
3.74626e-07
3.73419e-07
3.71725e-07
3.69531e-07
1.93764e-06
1.94923e-06
1.9582e-06
1.96458e-06
1.96889e-06
1.97171e-06
1.97351e-06
1.97465e-06
1.97537e-06
1.97581e-06
1.97609e-06
1.97627e-06
1.97639e-06
1.97646e-06
1.97651e-06
1.97655e-06
1.97658e-06
1.9766e-06
1.97662e-06
1.97663e-06
1.97664e-06
1.97666e-06
1.97667e-06
1.97668e-06
1.97668e-06
1.97669e-06
1.97669e-06
1.9767e-06
1.9767e-06
1.9767e-06
1.9767e-06
1.9767e-06
1.9767e-06
1.97669e-06
1.97669e-06
1.97668e-06
1.97668e-06
1.97667e-06
1.97666e-06
1.97664e-06
1.97663e-06
1.97662e-06
1.9766e-06
1.97658e-06
1.97655e-06
1.97651e-06
1.97646e-06
1.97639e-06
1.97627e-06
1.97609e-06
1.97581e-06
1.97537e-06
1.97465e-06
1.97351e-06
1.97171e-06
1.96889e-06
1.96458e-06
1.9582e-06
1.94923e-06
1.93764e-06
9.45446e-06
9.51072e-06
9.55421e-06
9.58513e-06
9.60602e-06
9.6197e-06
9.62846e-06
9.63399e-06
9.63747e-06
9.63965e-06
9.64102e-06
9.64189e-06
9.64245e-06
9.64282e-06
9.64308e-06
9.64326e-06
9.6434e-06
9.6435e-06
9.64359e-06
9.64366e-06
9.64373e-06
9.64378e-06
9.64383e-06
9.64388e-06
9.64391e-06
9.64395e-06
9.64397e-06
9.64399e-06
9.644e-06
9.64401e-06
9.64401e-06
9.644e-06
9.64399e-06
9.64397e-06
9.64395e-06
9.64391e-06
9.64388e-06
9.64383e-06
9.64378e-06
9.64373e-06
9.64366e-06
9.64359e-06
9.6435e-06
9.6434e-06
9.64326e-06
9.64308e-06
9.64282e-06
9.64245e-06
9.64189e-06
9.64102e-06
9.63965e-06
9.63747e-06
9.63399e-06
9.62846e-06
9.6197e-06
9.60602e-06
9.58513e-06
9.55421e-06
9.51072e-06
9.45446e-06
4.22807e-05
4.25272e-05
4.27174e-05
4.28524e-05
4.29437e-05
4.30034e-05
4.30417e-05
4.30659e-05
4.30812e-05
4.30907e-05
4.30968e-05
4.31006e-05
4.31031e-05
4.31048e-05
4.31059e-05
4.31067e-05
4.31073e-05
4.31078e-05
4.31082e-05
4.31085e-05
4.31088e-05
4.3109e-05
4.31092e-05
4.31094e-05
4.31096e-05
4.31097e-05
4.31098e-05
4.31099e-05
4.311e-05
4.311e-05
4.311e-05
4.311e-05
4.31099e-05
4.31098e-05
4.31097e-05
4.31096e-05
4.31094e-05
4.31092e-05
4.3109e-05
4.31088e-05
4.31085e-05
4.31082e-05
4.31078e-05
4.31073e-05
4.31067e-05
4.31059e-05
4.31048e-05
4.31031e-05
4.31006e-05
4.30968e-05
4.30907e-05
4.30812e-05
4.30659e-05
4.30417e-05
4.30034e-05
4.29437e-05
4.28524e-05
4.27174e-05
4.25272e-05
4.22807e-05
0.000170521
0.000171478
0.000172214
0.000172736
0.000173088
0.000173319
0.000173467
0.000173561
0.00017362
0.000173657
0.000173681
0.000173696
0.000173705
0.000173712
0.000173716
0.000173719
0.000173722
0.000173724
0.000173725
0.000173726
0.000173727
0.000173728
0.000173729
0.00017373
0.000173731
0.000173731
0.000173732
0.000173732
0.000173732
0.000173732
0.000173732
0.000173732
0.000173732
0.000173732
0.000173731
0.000173731
0.00017373
0.000173729
0.000173728
0.000173727
0.000173726
0.000173725
0.000173724
0.000173722
0.000173719
0.000173716
0.000173712
0.000173705
0.000173696
0.000173681
0.000173657
0.00017362
0.000173561
0.000173467
0.000173319
0.000173088
0.000172736
0.000172214
0.000171478
0.000170521
0.00060976
0.000612984
0.000615451
0.000617199
0.000618379
0.000619152
0.000619648
0.000619962
0.00062016
0.000620285
0.000620364
0.000620415
0.000620448
0.00062047
0.000620485
0.000620496
0.000620504
0.00062051
0.000620515
0.000620519
0.000620523
0.000620526
0.000620529
0.000620531
0.000620533
0.000620535
0.000620536
0.000620537
0.000620538
0.000620538
0.000620538
0.000620538
0.000620537
0.000620536
0.000620535
0.000620533
0.000620531
0.000620529
0.000620526
0.000620523
0.000620519
0.000620515
0.00062051
0.000620504
0.000620496
0.000620485
0.00062047
0.000620448
0.000620415
0.000620364
0.000620285
0.00062016
0.000619962
0.000619648
0.000619152
0.000618379
0.000617199
0.000615451
0.000612984
0.00060976
0.00190015
0.00190937
0.00191639
0.00192135
0.0019247
0.00192689
0.0019283
0.0019292
0.00192976
0.00193012
0.00193034
0.00193049
0.00193058
0.00193064
0.00193069
0.00193072
0.00193074
0.00193076
0.00193077
0.00193079
0.0019308
0.0019308
0.00193081
0.00193082
0.00193082
0.00193083
0.00193083
0.00193084
0.00193084
0.00193084
0.00193084
0.00193084
0.00193084
0.00193083
0.00193083
0.00193082
0.00193082
0.00193081
0.0019308
0.0019308
0.00193079
0.00193077
0.00193076
0.00193074
0.00193072
0.00193069
0.00193064
0.00193058
0.00193049
0.00193034
0.00193012
0.00192976
0.0019292
0.0019283
0.00192689
0.0019247
0.00192135
0.00191639
0.00190937
0.00190015
0.0050807
0.00510264
0.00511922
0.00513092
0.00513882
0.005144
0.00514732
0.00514944
0.00515077
0.00515161
0.00515215
0.00515249
0.00515272
0.00515287
0.00515297
0.00515305
0.0051531
0.00515314
0.00515318
0.00515321
0.00515323
0.00515325
0.00515327
0.00515328
0.0051533
0.00515331
0.00515332
0.00515332
0.00515333
0.00515333
0.00515333
0.00515333
0.00515332
0.00515332
0.00515331
0.0051533
0.00515328
0.00515327
0.00515325
0.00515323
0.00515321
0.00515318
0.00515314
0.0051531
0.00515305
0.00515297
0.00515287
0.00515272
0.00515249
0.00515215
0.00515161
0.00515077
0.00514944
0.00514732
0.005144
0.00513882
0.00513092
0.00511922
0.00510264
0.0050807
0.0115429
0.0115858
0.011618
0.0116406
0.0116559
0.011666
0.0116724
0.0116765
0.0116791
0.0116807
0.0116818
0.0116825
0.0116829
0.0116832
0.0116834
0.0116835
0.0116836
0.0116837
0.0116838
0.0116839
0.0116839
0.0116839
0.011684
0.011684
0.011684
0.011684
0.0116841
0.0116841
0.0116841
0.0116841
0.0116841
0.0116841
0.0116841
0.0116841
0.011684
0.011684
0.011684
0.011684
0.0116839
0.0116839
0.0116839
0.0116838
0.0116837
0.0116836
0.0116835
0.0116834
0.0116832
0.0116829
0.0116825
0.0116818
0.0116807
0.0116791
0.0116765
0.0116724
0.011666
0.0116559
0.0116406
0.011618
0.0115858
0.0115429
0.0223053
0.0223746
0.0224261
0.0224623
0.0224867
0.0225028
0.0225131
0.0225197
0.0225238
0.0225265
0.0225282
0.0225292
0.02253
0.0225304
0.0225308
0.022531
0.0225312
0.0225313
0.0225314
0.0225315
0.0225316
0.0225316
0.0225317
0.0225317
0.0225318
0.0225318
0.0225318
0.0225319
0.0225319
0.0225319
0.0225319
0.0225319
0.0225319
0.0225318
0.0225318
0.0225318
0.0225317
0.0225317
0.0225316
0.0225316
0.0225315
0.0225314
0.0225313
0.0225312
0.022531
0.0225308
0.0225304
0.02253
0.0225292
0.0225282
0.0225265
0.0225238
0.0225197
0.0225131
0.0225028
0.0224867
0.0224623
0.0224261
0.0223746
0.0223053
0.0372032
0.0372981
0.0373681
0.0374172
0.0374504
0.0374721
0.0374862
0.0374951
0.0375008
0.0375044
0.0375067
0.0375082
0.0375092
0.0375099
0.0375103
0.0375106
0.0375109
0.0375111
0.0375112
0.0375113
0.0375114
0.0375115
0.0375116
0.0375116
0.0375117
0.0375117
0.0375118
0.0375118
0.0375118
0.0375118
0.0375118
0.0375118
0.0375118
0.0375118
0.0375117
0.0375117
0.0375116
0.0375116
0.0375115
0.0375114
0.0375113
0.0375112
0.0375111
0.0375109
0.0375106
0.0375103
0.0375099
0.0375092
0.0375082
0.0375067
0.0375044
0.0375008
0.0374951
0.0374862
0.0374721
0.0374504
0.0374172
0.0373681
0.0372981
0.0372032
0.0549581
0.0550737
0.0551582
0.0552173
0.0552572
0.0552835
0.0553005
0.0553113
0.0553182
0.0553226
0.0553254
0.0553272
0.0553284
0.0553293
0.0553298
0.0553302
0.0553305
0.0553307
0.0553309
0.055331
0.0553311
0.0553312
0.0553313
0.0553314
0.0553315
0.0553315
0.0553316
0.0553316
0.0553316
0.0553316
0.0553316
0.0553316
0.0553316
0.0553316
0.0553315
0.0553315
0.0553314
0.0553313
0.0553312
0.0553311
0.055331
0.0553309
0.0553307
0.0553305
0.0553302
0.0553298
0.0553293
0.0553284
0.0553272
0.0553254
0.0553226
0.0553182
0.0553113
0.0553005
0.0552835
0.0552572
0.0552173
0.0551582
0.0550737
0.0549581
0.0740837
0.0742148
0.0743098
0.0743762
0.0744211
0.0744507
0.0744698
0.0744821
0.07449
0.074495
0.0744982
0.0745003
0.0745016
0.0745026
0.0745032
0.0745037
0.074504
0.0745042
0.0745044
0.0745046
0.0745047
0.0745048
0.0745049
0.074505
0.0745051
0.0745051
0.0745052
0.0745052
0.0745052
0.0745052
0.0745052
0.0745052
0.0745052
0.0745052
0.0745051
0.0745051
0.074505
0.0745049
0.0745048
0.0745047
0.0745046
0.0745044
0.0745042
0.074504
0.0745037
0.0745032
0.0745026
0.0745016
0.0745003
0.0744982
0.074495
0.07449
0.0744821
0.0744698
0.0744507
0.0744211
0.0743762
0.0743098
0.0742148
0.0740837
0.0936055
0.0937491
0.0938524
0.0939247
0.0939736
0.0940059
0.0940268
0.0940403
0.0940489
0.0940544
0.094058
0.0940603
0.0940618
0.0940629
0.0940636
0.0940641
0.0940644
0.0940647
0.0940649
0.0940651
0.0940652
0.0940654
0.0940655
0.0940655
0.0940656
0.0940657
0.0940657
0.0940657
0.0940658
0.0940658
0.0940658
0.0940658
0.0940657
0.0940657
0.0940657
0.0940656
0.0940655
0.0940655
0.0940654
0.0940652
0.0940651
0.0940649
0.0940647
0.0940644
0.0940641
0.0940636
0.0940629
0.0940618
0.0940603
0.094058
0.0940544
0.0940489
0.0940403
0.0940268
0.0940059
0.0939736
0.0939247
0.0938524
0.0937491
0.0936055
0.113125
0.11328
0.113391
0.113469
0.113522
0.113556
0.113579
0.113594
0.113603
0.113609
0.113613
0.113615
0.113617
0.113618
0.113619
0.11362
0.11362
0.11362
0.113621
0.113621
0.113621
0.113621
0.113621
0.113621
0.113621
0.113621
0.113621
0.113621
0.113621
0.113621
0.113621
0.113621
0.113621
0.113621
0.113621
0.113621
0.113621
0.113621
0.113621
0.113621
0.113621
0.113621
0.11362
0.11362
0.11362
0.113619
0.113618
0.113617
0.113615
0.113613
0.113609
0.113603
0.113594
0.113579
0.113556
0.113522
0.113469
0.113391
0.11328
0.113125
0.132565
0.13273
0.132849
0.132932
0.132988
0.133026
0.13305
0.133066
0.133076
0.133082
0.133087
0.133089
0.133091
0.133093
0.133093
0.133094
0.133094
0.133095
0.133095
0.133095
0.133095
0.133095
0.133096
0.133096
0.133096
0.133096
0.133096
0.133096
0.133096
0.133096
0.133096
0.133096
0.133096
0.133096
0.133096
0.133096
0.133096
0.133096
0.133095
0.133095
0.133095
0.133095
0.133095
0.133094
0.133094
0.133093
0.133093
0.133091
0.133089
0.133087
0.133082
0.133076
0.133066
0.13305
0.133026
0.132988
0.132932
0.132849
0.13273
0.132565
0.151945
0.152121
0.152247
0.152336
0.152396
0.152436
0.152462
0.152479
0.15249
0.152497
0.152502
0.152505
0.152507
0.152508
0.152509
0.15251
0.15251
0.152511
0.152511
0.152511
0.152511
0.152511
0.152511
0.152512
0.152512
0.152512
0.152512
0.152512
0.152512
0.152512
0.152512
0.152512
0.152512
0.152512
0.152512
0.152512
0.152512
0.152511
0.152511
0.152511
0.152511
0.152511
0.152511
0.15251
0.15251
0.152509
0.152508
0.152507
0.152505
0.152502
0.152497
0.15249
0.152479
0.152462
0.152436
0.152396
0.152336
0.152247
0.152121
0.151945
0.171293
0.17148
0.171614
0.171708
0.171772
0.171815
0.171843
0.171861
0.171873
0.171881
0.171886
0.171889
0.171891
0.171893
0.171894
0.171894
0.171895
0.171895
0.171895
0.171896
0.171896
0.171896
0.171896
0.171896
0.171896
0.171896
0.171896
0.171896
0.171896
0.171896
0.171896
0.171896
0.171896
0.171896
0.171896
0.171896
0.171896
0.171896
0.171896
0.171896
0.171896
0.171895
0.171895
0.171895
0.171894
0.171894
0.171893
0.171891
0.171889
0.171886
0.171881
0.171873
0.171861
0.171843
0.171815
0.171772
0.171708
0.171614
0.17148
0.171293
0.190621
0.190818
0.19096
0.191059
0.191127
0.191173
0.191203
0.191222
0.191235
0.191243
0.191249
0.191252
0.191255
0.191256
0.191257
0.191258
0.191259
0.191259
0.191259
0.19126
0.19126
0.19126
0.19126
0.19126
0.19126
0.19126
0.19126
0.19126
0.191261
0.191261
0.191261
0.191261
0.19126
0.19126
0.19126
0.19126
0.19126
0.19126
0.19126
0.19126
0.19126
0.191259
0.191259
0.191259
0.191258
0.191257
0.191256
0.191255
0.191252
0.191249
0.191243
0.191235
0.191222
0.191203
0.191173
0.191127
0.191059
0.19096
0.190818
0.190621
0.209926
0.210133
0.210282
0.210387
0.210458
0.210507
0.210539
0.21056
0.210574
0.210583
0.210588
0.210592
0.210595
0.210597
0.210598
0.210599
0.210599
0.2106
0.2106
0.2106
0.210601
0.210601
0.210601
0.210601
0.210601
0.210601
0.210601
0.210601
0.210601
0.210601
0.210601
0.210601
0.210601
0.210601
0.210601
0.210601
0.210601
0.210601
0.210601
0.210601
0.2106
0.2106
0.2106
0.210599
0.210599
0.210598
0.210597
0.210595
0.210592
0.210588
0.210583
0.210574
0.21056
0.210539
0.210507
0.210458
0.210387
0.210282
0.210133
0.209926
0.229198
0.229414
0.22957
0.22968
0.229756
0.229807
0.229841
0.229863
0.229878
0.229888
0.229894
0.229898
0.229901
0.229903
0.229904
0.229905
0.229906
0.229906
0.229907
0.229907
0.229907
0.229907
0.229908
0.229908
0.229908
0.229908
0.229908
0.229908
0.229908
0.229908
0.229908
0.229908
0.229908
0.229908
0.229908
0.229908
0.229908
0.229908
0.229907
0.229907
0.229907
0.229907
0.229906
0.229906
0.229905
0.229904
0.229903
0.229901
0.229898
0.229894
0.229888
0.229878
0.229863
0.229841
0.229807
0.229756
0.22968
0.22957
0.229414
0.229198
0.248421
0.248646
0.248809
0.248925
0.249004
0.249058
0.249095
0.249119
0.249134
0.249145
0.249151
0.249156
0.249159
0.249161
0.249163
0.249164
0.249164
0.249165
0.249165
0.249165
0.249166
0.249166
0.249166
0.249166
0.249166
0.249166
0.249166
0.249166
0.249166
0.249166
0.249166
0.249166
0.249166
0.249166
0.249166
0.249166
0.249166
0.249166
0.249166
0.249166
0.249165
0.249165
0.249165
0.249164
0.249164
0.249163
0.249161
0.249159
0.249156
0.249151
0.249145
0.249134
0.249119
0.249095
0.249058
0.249004
0.248925
0.248809
0.248646
0.248421
0.267581
0.267814
0.267984
0.268104
0.268188
0.268245
0.268284
0.268309
0.268326
0.268337
0.268344
0.268349
0.268352
0.268355
0.268356
0.268357
0.268358
0.268359
0.268359
0.268359
0.268359
0.26836
0.26836
0.26836
0.26836
0.26836
0.26836
0.26836
0.26836
0.26836
0.26836
0.26836
0.26836
0.26836
0.26836
0.26836
0.26836
0.26836
0.26836
0.268359
0.268359
0.268359
0.268359
0.268358
0.268357
0.268356
0.268355
0.268352
0.268349
0.268344
0.268337
0.268326
0.268309
0.268284
0.268245
0.268188
0.268104
0.267984
0.267814
0.267581
0.286659
0.286901
0.287077
0.287203
0.28729
0.28735
0.287391
0.287418
0.287436
0.287447
0.287455
0.287461
0.287464
0.287467
0.287468
0.287469
0.28747
0.287471
0.287471
0.287472
0.287472
0.287472
0.287472
0.287472
0.287472
0.287472
0.287473
0.287473
0.287473
0.287473
0.287473
0.287473
0.287473
0.287473
0.287472
0.287472
0.287472
0.287472
0.287472
0.287472
0.287472
0.287471
0.287471
0.28747
0.287469
0.287468
0.287467
0.287464
0.287461
0.287455
0.287447
0.287436
0.287418
0.287391
0.28735
0.28729
0.287203
0.287077
0.286901
0.286659
0.30564
0.305889
0.306071
0.306202
0.306294
0.306357
0.306399
0.306428
0.306447
0.30646
0.306468
0.306474
0.306478
0.30648
0.306482
0.306483
0.306484
0.306485
0.306485
0.306486
0.306486
0.306486
0.306486
0.306486
0.306486
0.306486
0.306486
0.306486
0.306487
0.306487
0.306487
0.306487
0.306486
0.306486
0.306486
0.306486
0.306486
0.306486
0.306486
0.306486
0.306486
0.306485
0.306485
0.306484
0.306483
0.306482