/*--------------------------------*- C++ -*----------------------------------*\
| =========                 |                                                 |
| \\      /  F ield         | foam-extend: Open Source CFD                    |
|  \\    /   O peration     | Version:     4.0                                |
|   \\  /    A nd           | Web:         http://www.foam-extend.org         |
|    \\/     M anipulation  |                                                 |
\*---------------------------------------------------------------------------*/
FoamFile
{
    version     2.0;
    format      ascii;
    class       regIOobject;
    location    "4/uniform";
    object      profilingInfo;
}
// * * * * * * * * * * * * * * * * * * * * * * * * * * * * * * * * * * * * * //

profilingInfo
(

    {
        id              5;
        parentId        4;
        description     "Foam::Time::writeObject - outputTime";
        calls           4;
        totalTime       0.344561;
        childTime       0;
        onStack         1;
    }

    {
        id              4;
        parentId        1;
        description     "Foam::Time::writeObject";
        calls           4;
        totalTime       0.345053;
        childTime       0.344561;
        onStack         1;
    }

    {
        id              1;
        description     "application::main";
        calls           1;
        totalTime       49.2754;
        childTime       0.345085;
        onStack         1;
    }

    {
        id              3;
        parentId        2;
        description     "functionObjectList::read";
        calls           1;
        totalTime       4e-06;
        childTime       0;
        onStack         0;
    }

    {
        id              6;
        parentId        1;
        description     "functionObjects_.end()";
        calls           3;
        totalTime       9e-06;
        childTime       0;
        onStack         0;
    }

    {
        id              7;
        parentId        1;
        description     "functionObjects_.execute()";
        calls           3;
        totalTime       6e-06;
        childTime       0;
        onStack         0;
    }

    {
        id              2;
        parentId        1;
        description     "functionObjects_.start()";
        calls           1;
        totalTime       1.7e-05;
        childTime       4e-06;
        onStack         0;
    }
);


// ************************************************************************* //
