/*--------------------------------*- C++ -*----------------------------------*\
| =========                 |                                                 |
| \\      /  F ield         | foam-extend: Open Source CFD                    |
|  \\    /   O peration     | Version:     4.0                                |
|   \\  /    A nd           | Web:         http://www.foam-extend.org         |
|    \\/     M anipulation  |                                                 |
\*---------------------------------------------------------------------------*/
FoamFile
{
    version     2.0;
    format      ascii;
    class       volScalarField;
    location    "770";
    object      psiE;
}
// * * * * * * * * * * * * * * * * * * * * * * * * * * * * * * * * * * * * * //

dimensions      [0 0 0 0 0 0 0];

internalField   nonuniform List<scalar> 
6960
(
0.320877
0.320878
0.320876
0.320874
0.320872
0.32087
0.320869
0.320868
0.320867
0.320867
0.320866
0.320866
0.320865
0.320865
0.320865
0.320865
0.320864
0.320864
0.320864
0.320864
0.320864
0.320864
0.320864
0.320863
0.320863
0.320863
0.320863
0.320863
0.320863
0.320863
0.320863
0.320863
0.320863
0.320863
0.320863
0.320863
0.320863
0.320864
0.320864
0.320864
0.320864
0.320864
0.320864
0.320864
0.320865
0.320865
0.320865
0.320865
0.320866
0.320866
0.320867
0.320867
0.320868
0.320869
0.32087
0.320872
0.320874
0.320876
0.320878
0.320877
0.760071
0.760069
0.760059
0.76005
0.760043
0.760037
0.760033
0.760029
0.760026
0.760023
0.760021
0.76002
0.760018
0.760017
0.760016
0.760015
0.760014
0.760013
0.760013
0.760012
0.760012
0.760011
0.760011
0.760011
0.760011
0.76001
0.76001
0.76001
0.76001
0.76001
0.76001
0.76001
0.76001
0.76001
0.76001
0.760011
0.760011
0.760011
0.760011
0.760012
0.760012
0.760013
0.760013
0.760014
0.760015
0.760016
0.760017
0.760018
0.76002
0.760021
0.760023
0.760026
0.760029
0.760033
0.760037
0.760043
0.76005
0.760059
0.760069
0.760071
1.10135
1.10134
1.10132
1.1013
1.10128
1.10127
1.10126
1.10126
1.10125
1.10125
1.10124
1.10124
1.10124
1.10124
1.10123
1.10123
1.10123
1.10123
1.10123
1.10123
1.10123
1.10123
1.10122
1.10122
1.10122
1.10122
1.10122
1.10122
1.10122
1.10122
1.10122
1.10122
1.10122
1.10122
1.10122
1.10122
1.10122
1.10122
1.10123
1.10123
1.10123
1.10123
1.10123
1.10123
1.10123
1.10123
1.10124
1.10124
1.10124
1.10124
1.10125
1.10125
1.10126
1.10126
1.10127
1.10128
1.1013
1.10132
1.10134
1.10135
1.37533
1.37529
1.37526
1.37523
1.37521
1.37519
1.37518
1.37517
1.37516
1.37516
1.37515
1.37514
1.37514
1.37514
1.37513
1.37513
1.37513
1.37513
1.37513
1.37512
1.37512
1.37512
1.37512
1.37512
1.37512
1.37512
1.37512
1.37512
1.37512
1.37512
1.37512
1.37512
1.37512
1.37512
1.37512
1.37512
1.37512
1.37512
1.37512
1.37512
1.37512
1.37513
1.37513
1.37513
1.37513
1.37513
1.37514
1.37514
1.37514
1.37515
1.37516
1.37516
1.37517
1.37518
1.37519
1.37521
1.37523
1.37526
1.37529
1.37533
1.5972
1.59714
1.59709
1.59706
1.59703
1.59701
1.597
1.59698
1.59697
1.59696
1.59696
1.59695
1.59694
1.59694
1.59694
1.59693
1.59693
1.59693
1.59692
1.59692
1.59692
1.59692
1.59692
1.59692
1.59692
1.59692
1.59692
1.59691
1.59691
1.59691
1.59691
1.59691
1.59691
1.59692
1.59692
1.59692
1.59692
1.59692
1.59692
1.59692
1.59692
1.59692
1.59693
1.59693
1.59693
1.59694
1.59694
1.59694
1.59695
1.59696
1.59696
1.59697
1.59698
1.597
1.59701
1.59703
1.59706
1.59709
1.59714
1.5972
1.77811
1.77802
1.77796
1.77792
1.77789
1.77786
1.77784
1.77783
1.77781
1.7778
1.77779
1.77779
1.77778
1.77777
1.77777
1.77776
1.77776
1.77776
1.77776
1.77775
1.77775
1.77775
1.77775
1.77775
1.77775
1.77775
1.77774
1.77774
1.77774
1.77774
1.77774
1.77774
1.77774
1.77774
1.77775
1.77775
1.77775
1.77775
1.77775
1.77775
1.77775
1.77776
1.77776
1.77776
1.77776
1.77777
1.77777
1.77778
1.77779
1.77779
1.7778
1.77781
1.77783
1.77784
1.77786
1.77789
1.77792
1.77796
1.77802
1.77811
1.9276
1.92749
1.92743
1.92738
1.92734
1.92731
1.92729
1.92727
1.92726
1.92725
1.92724
1.92723
1.92722
1.92721
1.92721
1.9272
1.9272
1.9272
1.92719
1.92719
1.92719
1.92719
1.92719
1.92718
1.92718
1.92718
1.92718
1.92718
1.92718
1.92718
1.92718
1.92718
1.92718
1.92718
1.92718
1.92718
1.92718
1.92719
1.92719
1.92719
1.92719
1.92719
1.9272
1.9272
1.9272
1.92721
1.92721
1.92722
1.92723
1.92724
1.92725
1.92726
1.92727
1.92729
1.92731
1.92734
1.92738
1.92743
1.92749
1.9276
2.05381
2.05368
2.0536
2.05355
2.05351
2.05348
2.05346
2.05344
2.05342
2.05341
2.0534
2.05339
2.05338
2.05337
2.05337
2.05336
2.05336
2.05335
2.05335
2.05335
2.05334
2.05334
2.05334
2.05334
2.05334
2.05334
2.05334
2.05334
2.05334
2.05334
2.05334
2.05334
2.05334
2.05334
2.05334
2.05334
2.05334
2.05334
2.05334
2.05334
2.05335
2.05335
2.05335
2.05336
2.05336
2.05337
2.05337
2.05338
2.05339
2.0534
2.05341
2.05342
2.05344
2.05346
2.05348
2.05351
2.05355
2.0536
2.05368
2.05381
2.16312
2.16298
2.1629
2.16284
2.1628
2.16277
2.16274
2.16272
2.1627
2.16269
2.16268
2.16267
2.16266
2.16265
2.16265
2.16264
2.16264
2.16263
2.16263
2.16263
2.16262
2.16262
2.16262
2.16262
2.16262
2.16262
2.16262
2.16261
2.16261
2.16261
2.16261
2.16261
2.16261
2.16262
2.16262
2.16262
2.16262
2.16262
2.16262
2.16262
2.16263
2.16263
2.16263
2.16264
2.16264
2.16265
2.16265
2.16266
2.16267
2.16268
2.16269
2.1627
2.16272
2.16274
2.16277
2.1628
2.16284
2.1629
2.16298
2.16312
2.26027
2.26012
2.26004
2.25998
2.25994
2.2599
2.25987
2.25985
2.25983
2.25982
2.25981
2.2598
2.25979
2.25978
2.25977
2.25977
2.25976
2.25976
2.25976
2.25975
2.25975
2.25975
2.25975
2.25974
2.25974
2.25974
2.25974
2.25974
2.25974
2.25974
2.25974
2.25974
2.25974
2.25974
2.25974
2.25974
2.25974
2.25975
2.25975
2.25975
2.25975
2.25976
2.25976
2.25976
2.25977
2.25977
2.25978
2.25979
2.2598
2.25981
2.25982
2.25983
2.25985
2.25987
2.2599
2.25994
2.25998
2.26004
2.26012
2.26027
2.34859
2.34843
2.34835
2.34829
2.34824
2.3482
2.34818
2.34815
2.34814
2.34812
2.34811
2.3481
2.34809
2.34808
2.34807
2.34807
2.34806
2.34806
2.34805
2.34805
2.34805
2.34805
2.34804
2.34804
2.34804
2.34804
2.34804
2.34804
2.34804
2.34804
2.34804
2.34804
2.34804
2.34804
2.34804
2.34804
2.34804
2.34804
2.34805
2.34805
2.34805
2.34805
2.34806
2.34806
2.34807
2.34807
2.34808
2.34809
2.3481
2.34811
2.34812
2.34814
2.34815
2.34818
2.3482
2.34824
2.34829
2.34835
2.34843
2.34859
2.43036
2.43021
2.43012
2.43005
2.43001
2.42997
2.42994
2.42992
2.4299
2.42988
2.42987
2.42986
2.42985
2.42984
2.42984
2.42983
2.42983
2.42982
2.42982
2.42981
2.42981
2.42981
2.42981
2.4298
2.4298
2.4298
2.4298
2.4298
2.4298
2.4298
2.4298
2.4298
2.4298
2.4298
2.4298
2.4298
2.4298
2.42981
2.42981
2.42981
2.42981
2.42982
2.42982
2.42983
2.42983
2.42984
2.42984
2.42985
2.42986
2.42987
2.42988
2.4299
2.42992
2.42994
2.42997
2.43001
2.43005
2.43012
2.43021
2.43036
2.50719
2.50703
2.50694
2.50688
2.50683
2.50679
2.50676
2.50674
2.50672
2.50671
2.50669
2.50668
2.50667
2.50666
2.50666
2.50665
2.50665
2.50664
2.50664
2.50663
2.50663
2.50663
2.50663
2.50662
2.50662
2.50662
2.50662
2.50662
2.50662
2.50662
2.50662
2.50662
2.50662
2.50662
2.50662
2.50662
2.50662
2.50663
2.50663
2.50663
2.50663
2.50664
2.50664
2.50665
2.50665
2.50666
2.50666
2.50667
2.50668
2.50669
2.50671
2.50672
2.50674
2.50676
2.50679
2.50683
2.50688
2.50694
2.50703
2.50719
2.58021
2.58005
2.57996
2.57989
2.57984
2.5798
2.57977
2.57975
2.57973
2.57971
2.5797
2.57969
2.57968
2.57967
2.57966
2.57966
2.57965
2.57965
2.57964
2.57964
2.57964
2.57964
2.57963
2.57963
2.57963
2.57963
2.57963
2.57963
2.57963
2.57963
2.57963
2.57963
2.57963
2.57963
2.57963
2.57963
2.57963
2.57963
2.57964
2.57964
2.57964
2.57964
2.57965
2.57965
2.57966
2.57966
2.57967
2.57968
2.57969
2.5797
2.57971
2.57973
2.57975
2.57977
2.5798
2.57984
2.57989
2.57996
2.58005
2.58021
2.65024
2.65008
2.64999
2.64992
2.64987
2.64983
2.6498
2.64978
2.64976
2.64974
2.64973
2.64972
2.64971
2.6497
2.64969
2.64969
2.64968
2.64968
2.64967
2.64967
2.64966
2.64966
2.64966
2.64966
2.64966
2.64966
2.64965
2.64965
2.64965
2.64965
2.64965
2.64965
2.64965
2.64965
2.64966
2.64966
2.64966
2.64966
2.64966
2.64966
2.64967
2.64967
2.64968
2.64968
2.64969
2.64969
2.6497
2.64971
2.64972
2.64973
2.64974
2.64976
2.64978
2.6498
2.64983
2.64987
2.64992
2.64999
2.65008
2.65024
2.71792
2.71776
2.71767
2.7176
2.71755
2.71751
2.71748
2.71746
2.71744
2.71742
2.71741
2.7174
2.71739
2.71738
2.71737
2.71736
2.71736
2.71735
2.71735
2.71735
2.71734
2.71734
2.71734
2.71734
2.71733
2.71733
2.71733
2.71733
2.71733
2.71733
2.71733
2.71733
2.71733
2.71733
2.71733
2.71733
2.71734
2.71734
2.71734
2.71734
2.71735
2.71735
2.71735
2.71736
2.71736
2.71737
2.71738
2.71739
2.7174
2.71741
2.71742
2.71744
2.71746
2.71748
2.71751
2.71755
2.7176
2.71767
2.71776
2.71792
2.78375
2.78359
2.7835
2.78343
2.78338
2.78334
2.78331
2.78329
2.78326
2.78325
2.78323
2.78322
2.78321
2.7832
2.7832
2.78319
2.78318
2.78318
2.78317
2.78317
2.78317
2.78317
2.78316
2.78316
2.78316
2.78316
2.78316
2.78316
2.78316
2.78316
2.78316
2.78316
2.78316
2.78316
2.78316
2.78316
2.78316
2.78316
2.78317
2.78317
2.78317
2.78317
2.78318
2.78318
2.78319
2.7832
2.7832
2.78321
2.78322
2.78323
2.78325
2.78326
2.78329
2.78331
2.78334
2.78338
2.78343
2.7835
2.78359
2.78375
2.84813
2.84797
2.84788
2.84781
2.84776
2.84772
2.84769
2.84766
2.84764
2.84762
2.84761
2.8476
2.84759
2.84758
2.84757
2.84756
2.84756
2.84755
2.84755
2.84754
2.84754
2.84754
2.84754
2.84753
2.84753
2.84753
2.84753
2.84753
2.84753
2.84753
2.84753
2.84753
2.84753
2.84753
2.84753
2.84753
2.84753
2.84754
2.84754
2.84754
2.84754
2.84755
2.84755
2.84756
2.84756
2.84757
2.84758
2.84759
2.8476
2.84761
2.84762
2.84764
2.84766
2.84769
2.84772
2.84776
2.84781
2.84788
2.84797
2.84813
2.91138
2.91123
2.91113
2.91106
2.91101
2.91097
2.91094
2.91091
2.91089
2.91088
2.91086
2.91085
2.91084
2.91083
2.91082
2.91082
2.91081
2.91081
2.9108
2.9108
2.91079
2.91079
2.91079
2.91079
2.91079
2.91078
2.91078
2.91078
2.91078
2.91078
2.91078
2.91078
2.91078
2.91078
2.91078
2.91079
2.91079
2.91079
2.91079
2.91079
2.9108
2.9108
2.91081
2.91081
2.91082
2.91082
2.91083
2.91084
2.91085
2.91086
2.91088
2.91089
2.91091
2.91094
2.91097
2.91101
2.91106
2.91113
2.91123
2.91138
2.97379
2.97364
2.97354
2.97347
2.97342
2.97338
2.97335
2.97332
2.9733
2.97329
2.97327
2.97326
2.97325
2.97324
2.97323
2.97323
2.97322
2.97321
2.97321
2.97321
2.9732
2.9732
2.9732
2.9732
2.97319
2.97319
2.97319
2.97319
2.97319
2.97319
2.97319
2.97319
2.97319
2.97319
2.97319
2.97319
2.9732
2.9732
2.9732
2.9732
2.97321
2.97321
2.97321
2.97322
2.97323
2.97323
2.97324
2.97325
2.97326
2.97327
2.97329
2.9733
2.97332
2.97335
2.97338
2.97342
2.97347
2.97354
2.97364
2.97379
3.03559
3.03545
3.03535
3.03528
3.03523
3.03519
3.03516
3.03513
3.03511
3.03509
3.03508
3.03506
3.03505
3.03504
3.03504
3.03503
3.03502
3.03502
3.03501
3.03501
3.03501
3.035
3.035
3.035
3.035
3.035
3.035
3.035
3.03499
3.03499
3.03499
3.03499
3.035
3.035
3.035
3.035
3.035
3.035
3.035
3.03501
3.03501
3.03501
3.03502
3.03502
3.03503
3.03504
3.03504
3.03505
3.03506
3.03508
3.03509
3.03511
3.03513
3.03516
3.03519
3.03523
3.03528
3.03535
3.03545
3.03559
3.097
3.09686
3.09676
3.09669
3.09664
3.0966
3.09656
3.09654
3.09652
3.0965
3.09648
3.09647
3.09646
3.09645
3.09644
3.09644
3.09643
3.09643
3.09642
3.09642
3.09641
3.09641
3.09641
3.09641
3.09641
3.0964
3.0964
3.0964
3.0964
3.0964
3.0964
3.0964
3.0964
3.0964
3.0964
3.09641
3.09641
3.09641
3.09641
3.09641
3.09642
3.09642
3.09643
3.09643
3.09644
3.09644
3.09645
3.09646
3.09647
3.09648
3.0965
3.09652
3.09654
3.09656
3.0966
3.09664
3.09669
3.09676
3.09686
3.097
3.15819
3.15805
3.15795
3.15788
3.15783
3.15779
3.15776
3.15773
3.15771
3.15769
3.15768
3.15766
3.15765
3.15764
3.15763
3.15763
3.15762
3.15762
3.15761
3.15761
3.15761
3.1576
3.1576
3.1576
3.1576
3.1576
3.15759
3.15759
3.15759
3.15759
3.15759
3.15759
3.15759
3.15759
3.1576
3.1576
3.1576
3.1576
3.1576
3.15761
3.15761
3.15761
3.15762
3.15762
3.15763
3.15763
3.15764
3.15765
3.15766
3.15768
3.15769
3.15771
3.15773
3.15776
3.15779
3.15783
3.15788
3.15795
3.15805
3.15819
3.21933
3.21919
3.21909
3.21902
3.21897
3.21893
3.2189
3.21887
3.21885
3.21883
3.21882
3.2188
3.21879
3.21878
3.21878
3.21877
3.21876
3.21876
3.21875
3.21875
3.21875
3.21874
3.21874
3.21874
3.21874
3.21874
3.21873
3.21873
3.21873
3.21873
3.21873
3.21873
3.21873
3.21873
3.21874
3.21874
3.21874
3.21874
3.21874
3.21875
3.21875
3.21875
3.21876
3.21876
3.21877
3.21878
3.21878
3.21879
3.2188
3.21882
3.21883
3.21885
3.21887
3.2189
3.21893
3.21897
3.21902
3.21909
3.21919
3.21933
3.28057
3.28043
3.28033
3.28026
3.28021
3.28017
3.28014
3.28011
3.28009
3.28007
3.28005
3.28004
3.28003
3.28002
3.28001
3.28001
3.28
3.28
3.27999
3.27999
3.27998
3.27998
3.27998
3.27998
3.27998
3.27997
3.27997
3.27997
3.27997
3.27997
3.27997
3.27997
3.27997
3.27997
3.27997
3.27998
3.27998
3.27998
3.27998
3.27998
3.27999
3.27999
3.28
3.28
3.28001
3.28001
3.28002
3.28003
3.28004
3.28005
3.28007
3.28009
3.28011
3.28014
3.28017
3.28021
3.28026
3.28033
3.28043
3.28057
3.34203
3.3419
3.3418
3.34174
3.34168
3.34164
3.34161
3.34158
3.34156
3.34154
3.34153
3.34151
3.3415
3.34149
3.34148
3.34148
3.34147
3.34147
3.34146
3.34146
3.34145
3.34145
3.34145
3.34145
3.34145
3.34144
3.34144
3.34144
3.34144
3.34144
3.34144
3.34144
3.34144
3.34144
3.34144
3.34145
3.34145
3.34145
3.34145
3.34145
3.34146
3.34146
3.34147
3.34147
3.34148
3.34148
3.34149
3.3415
3.34151
3.34153
3.34154
3.34156
3.34158
3.34161
3.34164
3.34168
3.34174
3.3418
3.3419
3.34203
3.40386
3.40373
3.40363
3.40357
3.40351
3.40347
3.40344
3.40341
3.40339
3.40337
3.40335
3.40334
3.40333
3.40332
3.40331
3.40331
3.4033
3.40329
3.40329
3.40329
3.40328
3.40328
3.40328
3.40328
3.40327
3.40327
3.40327
3.40327
3.40327
3.40327
3.40327
3.40327
3.40327
3.40327
3.40327
3.40327
3.40328
3.40328
3.40328
3.40328
3.40329
3.40329
3.40329
3.4033
3.40331
3.40331
3.40332
3.40333
3.40334
3.40335
3.40337
3.40339
3.40341
3.40344
3.40347
3.40351
3.40357
3.40363
3.40373
3.40386
3.46616
3.46604
3.46594
3.46587
3.46582
3.46578
3.46574
3.46572
3.46569
3.46567
3.46566
3.46565
3.46563
3.46562
3.46562
3.46561
3.4656
3.4656
3.46559
3.46559
3.46559
3.46558
3.46558
3.46558
3.46558
3.46558
3.46557
3.46557
3.46557
3.46557
3.46557
3.46557
3.46557
3.46557
3.46558
3.46558
3.46558
3.46558
3.46558
3.46559
3.46559
3.46559
3.4656
3.4656
3.46561
3.46562
3.46562
3.46563
3.46565
3.46566
3.46567
3.46569
3.46572
3.46574
3.46578
3.46582
3.46587
3.46594
3.46604
3.46616
3.52905
3.52893
3.52883
3.52876
3.52871
3.52867
3.52863
3.52861
3.52858
3.52856
3.52855
3.52854
3.52852
3.52851
3.52851
3.5285
3.52849
3.52849
3.52848
3.52848
3.52848
3.52847
3.52847
3.52847
3.52847
3.52847
3.52846
3.52846
3.52846
3.52846
3.52846
3.52846
3.52846
3.52846
3.52847
3.52847
3.52847
3.52847
3.52847
3.52848
3.52848
3.52848
3.52849
3.52849
3.5285
3.52851
3.52851
3.52852
3.52854
3.52855
3.52856
3.52858
3.52861
3.52863
3.52867
3.52871
3.52876
3.52883
3.52893
3.52905
3.59263
3.59251
3.59241
3.59234
3.59229
3.59225
3.59221
3.59219
3.59216
3.59215
3.59213
3.59212
3.59211
3.5921
3.59209
3.59208
3.59207
3.59207
3.59206
3.59206
3.59206
3.59205
3.59205
3.59205
3.59205
3.59205
3.59205
3.59204
3.59204
3.59204
3.59204
3.59204
3.59204
3.59205
3.59205
3.59205
3.59205
3.59205
3.59205
3.59206
3.59206
3.59206
3.59207
3.59207
3.59208
3.59209
3.5921
3.59211
3.59212
3.59213
3.59215
3.59216
3.59219
3.59221
3.59225
3.59229
3.59234
3.59241
3.59251
3.59263
3.657
3.65688
3.65679
3.65672
3.65666
3.65662
3.65659
3.65656
3.65654
3.65652
3.6565
3.65649
3.65648
3.65647
3.65646
3.65645
3.65645
3.65644
3.65644
3.65643
3.65643
3.65643
3.65642
3.65642
3.65642
3.65642
3.65642
3.65642
3.65642
3.65642
3.65642
3.65642
3.65642
3.65642
3.65642
3.65642
3.65642
3.65642
3.65643
3.65643
3.65643
3.65644
3.65644
3.65645
3.65645
3.65646
3.65647
3.65648
3.65649
3.6565
3.65652
3.65654
3.65656
3.65659
3.65662
3.65666
3.65672
3.65679
3.65688
3.657
3.72225
3.72214
3.72205
3.72198
3.72193
3.72188
3.72185
3.72182
3.7218
3.72178
3.72177
3.72175
3.72174
3.72173
3.72172
3.72172
3.72171
3.7217
3.7217
3.72169
3.72169
3.72169
3.72169
3.72168
3.72168
3.72168
3.72168
3.72168
3.72168
3.72168
3.72168
3.72168
3.72168
3.72168
3.72168
3.72168
3.72168
3.72169
3.72169
3.72169
3.72169
3.7217
3.7217
3.72171
3.72172
3.72172
3.72173
3.72174
3.72175
3.72177
3.72178
3.7218
3.72182
3.72185
3.72188
3.72193
3.72198
3.72205
3.72214
3.72225
3.78849
3.78838
3.78829
3.78822
3.78817
3.78813
3.7881
3.78807
3.78805
3.78803
3.78801
3.788
3.78799
3.78798
3.78797
3.78796
3.78795
3.78795
3.78794
3.78794
3.78794
3.78793
3.78793
3.78793
3.78793
3.78793
3.78792
3.78792
3.78792
3.78792
3.78792
3.78792
3.78792
3.78792
3.78793
3.78793
3.78793
3.78793
3.78793
3.78794
3.78794
3.78794
3.78795
3.78795
3.78796
3.78797
3.78798
3.78799
3.788
3.78801
3.78803
3.78805
3.78807
3.7881
3.78813
3.78817
3.78822
3.78829
3.78838
3.78849
3.85581
3.8557
3.85561
3.85555
3.85549
3.85545
3.85542
3.85539
3.85537
3.85535
3.85533
3.85532
3.85531
3.8553
3.85529
3.85528
3.85527
3.85527
3.85526
3.85526
3.85526
3.85525
3.85525
3.85525
3.85525
3.85525
3.85524
3.85524
3.85524
3.85524
3.85524
3.85524
3.85524
3.85524
3.85525
3.85525
3.85525
3.85525
3.85525
3.85526
3.85526
3.85526
3.85527
3.85527
3.85528
3.85529
3.8553
3.85531
3.85532
3.85533
3.85535
3.85537
3.85539
3.85542
3.85545
3.85549
3.85555
3.85561
3.8557
3.85581
3.92429
3.92419
3.9241
3.92403
3.92398
3.92394
3.9239
3.92387
3.92385
3.92383
3.92382
3.9238
3.92379
3.92378
3.92377
3.92377
3.92376
3.92375
3.92375
3.92375
3.92374
3.92374
3.92374
3.92373
3.92373
3.92373
3.92373
3.92373
3.92373
3.92373
3.92373
3.92373
3.92373
3.92373
3.92373
3.92373
3.92373
3.92374
3.92374
3.92374
3.92375
3.92375
3.92375
3.92376
3.92377
3.92377
3.92378
3.92379
3.9238
3.92382
3.92383
3.92385
3.92387
3.9239
3.92394
3.92398
3.92403
3.9241
3.92419
3.92429
3.99403
3.99393
3.99384
3.99377
3.99372
3.99368
3.99364
3.99362
3.99359
3.99357
3.99356
3.99354
3.99353
3.99352
3.99351
3.99351
3.9935
3.99349
3.99349
3.99349
3.99348
3.99348
3.99348
3.99347
3.99347
3.99347
3.99347
3.99347
3.99347
3.99347
3.99347
3.99347
3.99347
3.99347
3.99347
3.99347
3.99347
3.99348
3.99348
3.99348
3.99349
3.99349
3.99349
3.9935
3.99351
3.99351
3.99352
3.99353
3.99354
3.99356
3.99357
3.99359
3.99362
3.99364
3.99368
3.99372
3.99377
3.99384
3.99393
3.99403
4.06511
4.06501
4.06492
4.06485
4.0648
4.06476
4.06473
4.0647
4.06468
4.06466
4.06464
4.06463
4.06461
4.0646
4.0646
4.06459
4.06458
4.06458
4.06457
4.06457
4.06456
4.06456
4.06456
4.06456
4.06455
4.06455
4.06455
4.06455
4.06455
4.06455
4.06455
4.06455
4.06455
4.06455
4.06455
4.06455
4.06456
4.06456
4.06456
4.06456
4.06457
4.06457
4.06458
4.06458
4.06459
4.0646
4.0646
4.06461
4.06463
4.06464
4.06466
4.06468
4.0647
4.06473
4.06476
4.0648
4.06485
4.06492
4.06501
4.06511
4.13761
4.13752
4.13743
4.13737
4.13731
4.13727
4.13724
4.13721
4.13719
4.13717
4.13715
4.13714
4.13713
4.13712
4.13711
4.1371
4.13709
4.13709
4.13708
4.13708
4.13708
4.13707
4.13707
4.13707
4.13707
4.13707
4.13706
4.13706
4.13706
4.13706
4.13706
4.13706
4.13706
4.13706
4.13707
4.13707
4.13707
4.13707
4.13707
4.13708
4.13708
4.13708
4.13709
4.13709
4.1371
4.13711
4.13712
4.13713
4.13714
4.13715
4.13717
4.13719
4.13721
4.13724
4.13727
4.13731
4.13737
4.13743
4.13752
4.13761
4.21164
4.21155
4.21146
4.2114
4.21134
4.2113
4.21127
4.21124
4.21122
4.2112
4.21118
4.21117
4.21116
4.21115
4.21114
4.21113
4.21112
4.21112
4.21111
4.21111
4.21111
4.2111
4.2111
4.2111
4.2111
4.21109
4.21109
4.21109
4.21109
4.21109
4.21109
4.21109
4.21109
4.21109
4.21109
4.2111
4.2111
4.2111
4.2111
4.21111
4.21111
4.21111
4.21112
4.21112
4.21113
4.21114
4.21115
4.21116
4.21117
4.21118
4.2112
4.21122
4.21124
4.21127
4.2113
4.21134
4.2114
4.21146
4.21155
4.21164
4.28726
4.28718
4.28709
4.28703
4.28698
4.28694
4.2869
4.28687
4.28685
4.28683
4.28681
4.2868
4.28679
4.28678
4.28677
4.28676
4.28676
4.28675
4.28675
4.28674
4.28674
4.28674
4.28673
4.28673
4.28673
4.28673
4.28673
4.28673
4.28673
4.28672
4.28672
4.28673
4.28673
4.28673
4.28673
4.28673
4.28673
4.28673
4.28674
4.28674
4.28674
4.28675
4.28675
4.28676
4.28676
4.28677
4.28678
4.28679
4.2868
4.28681
4.28683
4.28685
4.28687
4.2869
4.28694
4.28698
4.28703
4.28709
4.28718
4.28726
4.36458
4.3645
4.36442
4.36435
4.3643
4.36426
4.36423
4.3642
4.36418
4.36416
4.36414
4.36413
4.36411
4.3641
4.3641
4.36409
4.36408
4.36408
4.36407
4.36407
4.36406
4.36406
4.36406
4.36406
4.36405
4.36405
4.36405
4.36405
4.36405
4.36405
4.36405
4.36405
4.36405
4.36405
4.36405
4.36405
4.36406
4.36406
4.36406
4.36406
4.36407
4.36407
4.36408
4.36408
4.36409
4.3641
4.3641
4.36411
4.36413
4.36414
4.36416
4.36418
4.3642
4.36423
4.36426
4.3643
4.36435
4.36442
4.3645
4.36458
4.44368
4.4436
4.44352
4.44346
4.44341
4.44336
4.44333
4.4433
4.44328
4.44326
4.44324
4.44323
4.44322
4.44321
4.4432
4.44319
4.44318
4.44318
4.44317
4.44317
4.44317
4.44316
4.44316
4.44316
4.44316
4.44316
4.44315
4.44315
4.44315
4.44315
4.44315
4.44315
4.44315
4.44315
4.44316
4.44316
4.44316
4.44316
4.44316
4.44317
4.44317
4.44317
4.44318
4.44318
4.44319
4.4432
4.44321
4.44322
4.44323
4.44324
4.44326
4.44328
4.4433
4.44333
4.44336
4.44341
4.44346
4.44352
4.4436
4.44368
4.52464
4.52457
4.52449
4.52443
4.52438
4.52433
4.5243
4.52427
4.52425
4.52423
4.52421
4.5242
4.52419
4.52418
4.52417
4.52416
4.52415
4.52415
4.52414
4.52414
4.52414
4.52413
4.52413
4.52413
4.52413
4.52413
4.52412
4.52412
4.52412
4.52412
4.52412
4.52412
4.52412
4.52412
4.52413
4.52413
4.52413
4.52413
4.52413
4.52414
4.52414
4.52414
4.52415
4.52415
4.52416
4.52417
4.52418
4.52419
4.5242
4.52421
4.52423
4.52425
4.52427
4.5243
4.52433
4.52438
4.52443
4.52449
4.52457
4.52464
4.60756
4.60749
4.60741
4.60735
4.6073
4.60726
4.60723
4.6072
4.60717
4.60716
4.60714
4.60712
4.60711
4.6071
4.60709
4.60709
4.60708
4.60707
4.60707
4.60707
4.60706
4.60706
4.60706
4.60705
4.60705
4.60705
4.60705
4.60705
4.60705
4.60705
4.60705
4.60705
4.60705
4.60705
4.60705
4.60705
4.60705
4.60706
4.60706
4.60706
4.60707
4.60707
4.60707
4.60708
4.60709
4.60709
4.6071
4.60711
4.60712
4.60714
4.60716
4.60717
4.6072
4.60723
4.60726
4.6073
4.60735
4.60741
4.60749
4.60756
4.69253
4.69246
4.69238
4.69232
4.69227
4.69223
4.6922
4.69217
4.69215
4.69213
4.69211
4.6921
4.69208
4.69207
4.69206
4.69206
4.69205
4.69205
4.69204
4.69204
4.69203
4.69203
4.69203
4.69202
4.69202
4.69202
4.69202
4.69202
4.69202
4.69202
4.69202
4.69202
4.69202
4.69202
4.69202
4.69202
4.69202
4.69203
4.69203
4.69203
4.69204
4.69204
4.69205
4.69205
4.69206
4.69206
4.69207
4.69208
4.6921
4.69211
4.69213
4.69215
4.69217
4.6922
4.69223
4.69227
4.69232
4.69238
4.69246
4.69253
4.77963
4.77956
4.77949
4.77943
4.77938
4.77934
4.7793
4.77928
4.77925
4.77923
4.77922
4.7792
4.77919
4.77918
4.77917
4.77916
4.77916
4.77915
4.77915
4.77914
4.77914
4.77914
4.77913
4.77913
4.77913
4.77913
4.77913
4.77913
4.77913
4.77913
4.77913
4.77913
4.77913
4.77913
4.77913
4.77913
4.77913
4.77913
4.77914
4.77914
4.77914
4.77915
4.77915
4.77916
4.77916
4.77917
4.77918
4.77919
4.7792
4.77922
4.77923
4.77925
4.77928
4.7793
4.77934
4.77938
4.77943
4.77949
4.77956
4.77963
4.86896
4.86889
4.86882
4.86876
4.86871
4.86867
4.86864
4.86861
4.86859
4.86857
4.86855
4.86854
4.86853
4.86851
4.86851
4.8685
4.86849
4.86849
4.86848
4.86848
4.86847
4.86847
4.86847
4.86847
4.86846
4.86846
4.86846
4.86846
4.86846
4.86846
4.86846
4.86846
4.86846
4.86846
4.86846
4.86846
4.86847
4.86847
4.86847
4.86847
4.86848
4.86848
4.86849
4.86849
4.8685
4.86851
4.86851
4.86853
4.86854
4.86855
4.86857
4.86859
4.86861
4.86864
4.86867
4.86871
4.86876
4.86882
4.86889
4.86896
4.9606
4.96054
4.96047
4.96041
4.96037
4.96033
4.96029
4.96027
4.96024
4.96022
4.96021
4.96019
4.96018
4.96017
4.96016
4.96015
4.96015
4.96014
4.96014
4.96013
4.96013
4.96013
4.96012
4.96012
4.96012
4.96012
4.96012
4.96012
4.96012
4.96011
4.96011
4.96012
4.96012
4.96012
4.96012
4.96012
4.96012
4.96012
4.96013
4.96013
4.96013
4.96014
4.96014
4.96015
4.96015
4.96016
4.96017
4.96018
4.96019
4.96021
4.96022
4.96024
4.96027
4.96029
4.96033
4.96037
4.96041
4.96047
4.96054
4.9606
5.05467
5.05461
5.05454
5.05448
5.05444
5.0544
5.05436
5.05434
5.05431
5.05429
5.05428
5.05426
5.05425
5.05424
5.05423
5.05422
5.05422
5.05421
5.05421
5.0542
5.0542
5.0542
5.05419
5.05419
5.05419
5.05419
5.05419
5.05419
5.05419
5.05418
5.05418
5.05419
5.05419
5.05419
5.05419
5.05419
5.05419
5.05419
5.0542
5.0542
5.0542
5.05421
5.05421
5.05422
5.05422
5.05423
5.05424
5.05425
5.05426
5.05428
5.05429
5.05431
5.05434
5.05436
5.0544
5.05444
5.05448
5.05454
5.05461
5.05467
5.15124
5.15118
5.15112
5.15106
5.15102
5.15098
5.15094
5.15092
5.15089
5.15087
5.15086
5.15084
5.15083
5.15082
5.15081
5.1508
5.1508
5.15079
5.15079
5.15078
5.15078
5.15078
5.15077
5.15077
5.15077
5.15077
5.15077
5.15077
5.15077
5.15077
5.15077
5.15077
5.15077
5.15077
5.15077
5.15077
5.15077
5.15077
5.15078
5.15078
5.15078
5.15079
5.15079
5.1508
5.1508
5.15081
5.15082
5.15083
5.15084
5.15086
5.15087
5.15089
5.15092
5.15094
5.15098
5.15102
5.15106
5.15112
5.15118
5.15124
5.25042
5.25037
5.2503
5.25025
5.2502
5.25016
5.25013
5.25011
5.25008
5.25006
5.25005
5.25003
5.25002
5.25001
5.25
5.24999
5.24999
5.24998
5.24998
5.24997
5.24997
5.24997
5.24996
5.24996
5.24996
5.24996
5.24996
5.24996
5.24996
5.24996
5.24996
5.24996
5.24996
5.24996
5.24996
5.24996
5.24996
5.24996
5.24997
5.24997
5.24997
5.24998
5.24998
5.24999
5.24999
5.25
5.25001
5.25002
5.25003
5.25005
5.25006
5.25008
5.25011
5.25013
5.25016
5.2502
5.25025
5.2503
5.25037
5.25042
5.35231
5.35226
5.3522
5.35214
5.3521
5.35206
5.35203
5.352
5.35198
5.35196
5.35194
5.35193
5.35192
5.35191
5.3519
5.35189
5.35188
5.35188
5.35187
5.35187
5.35187
5.35186
5.35186
5.35186
5.35186
5.35185
5.35185
5.35185
5.35185
5.35185
5.35185
5.35185
5.35185
5.35185
5.35185
5.35186
5.35186
5.35186
5.35186
5.35187
5.35187
5.35187
5.35188
5.35188
5.35189
5.3519
5.35191
5.35192
5.35193
5.35194
5.35196
5.35198
5.352
5.35203
5.35206
5.3521
5.35214
5.3522
5.35226
5.35231
5.45701
5.45696
5.4569
5.45685
5.4568
5.45676
5.45673
5.45671
5.45668
5.45666
5.45665
5.45663
5.45662
5.45661
5.4566
5.4566
5.45659
5.45658
5.45658
5.45657
5.45657
5.45657
5.45657
5.45656
5.45656
5.45656
5.45656
5.45656
5.45656
5.45656
5.45656
5.45656
5.45656
5.45656
5.45656
5.45656
5.45656
5.45657
5.45657
5.45657
5.45657
5.45658
5.45658
5.45659
5.4566
5.4566
5.45661
5.45662
5.45663
5.45665
5.45666
5.45668
5.45671
5.45673
5.45676
5.4568
5.45685
5.4569
5.45696
5.45701
5.56461
5.56457
5.56451
5.56446
5.56442
5.56438
5.56435
5.56432
5.5643
5.56428
5.56426
5.56425
5.56424
5.56423
5.56422
5.56421
5.56421
5.5642
5.56419
5.56419
5.56419
5.56418
5.56418
5.56418
5.56418
5.56418
5.56417
5.56417
5.56417
5.56417
5.56417
5.56417
5.56417
5.56417
5.56418
5.56418
5.56418
5.56418
5.56418
5.56419
5.56419
5.56419
5.5642
5.56421
5.56421
5.56422
5.56423
5.56424
5.56425
5.56426
5.56428
5.5643
5.56432
5.56435
5.56438
5.56442
5.56446
5.56451
5.56457
5.56461
5.67524
5.67519
5.67514
5.67509
5.67505
5.67501
5.67498
5.67495
5.67493
5.67491
5.6749
5.67488
5.67487
5.67486
5.67485
5.67484
5.67484
5.67483
5.67483
5.67482
5.67482
5.67482
5.67481
5.67481
5.67481
5.67481
5.67481
5.67481
5.67481
5.6748
5.6748
5.67481
5.67481
5.67481
5.67481
5.67481
5.67481
5.67481
5.67482
5.67482
5.67482
5.67483
5.67483
5.67484
5.67484
5.67485
5.67486
5.67487
5.67488
5.6749
5.67491
5.67493
5.67495
5.67498
5.67501
5.67505
5.67509
5.67514
5.67519
5.67524
5.78898
5.78894
5.78889
5.78884
5.7888
5.78876
5.78873
5.78871
5.78869
5.78867
5.78865
5.78864
5.78863
5.78861
5.78861
5.7886
5.78859
5.78859
5.78858
5.78858
5.78857
5.78857
5.78857
5.78857
5.78856
5.78856
5.78856
5.78856
5.78856
5.78856
5.78856
5.78856
5.78856
5.78856
5.78856
5.78856
5.78857
5.78857
5.78857
5.78857
5.78858
5.78858
5.78859
5.78859
5.7886
5.78861
5.78861
5.78863
5.78864
5.78865
5.78867
5.78869
5.78871
5.78873
5.78876
5.7888
5.78884
5.78889
5.78894
5.78898
5.90596
5.90592
5.90587
5.90583
5.90579
5.90575
5.90572
5.90569
5.90567
5.90565
5.90564
5.90562
5.90561
5.9056
5.90559
5.90559
5.90558
5.90557
5.90557
5.90556
5.90556
5.90556
5.90556
5.90555
5.90555
5.90555
5.90555
5.90555
5.90555
5.90555
5.90555
5.90555
5.90555
5.90555
5.90555
5.90555
5.90555
5.90556
5.90556
5.90556
5.90556
5.90557
5.90557
5.90558
5.90559
5.90559
5.9056
5.90561
5.90562
5.90564
5.90565
5.90567
5.90569
5.90572
5.90575
5.90579
5.90583
5.90587
5.90592
5.90596
6.02628
6.02625
6.0262
6.02615
6.02611
6.02608
6.02605
6.02602
6.026
6.02598
6.02597
6.02595
6.02594
6.02593
6.02592
6.02592
6.02591
6.0259
6.0259
6.02589
6.02589
6.02589
6.02589
6.02588
6.02588
6.02588
6.02588
6.02588
6.02588
6.02588
6.02588
6.02588
6.02588
6.02588
6.02588
6.02588
6.02588
6.02589
6.02589
6.02589
6.02589
6.0259
6.0259
6.02591
6.02592
6.02592
6.02593
6.02594
6.02595
6.02597
6.02598
6.026
6.02602
6.02605
6.02608
6.02611
6.02615
6.0262
6.02625
6.02628
6.15006
6.15003
6.14998
6.14994
6.1499
6.14986
6.14984
6.14981
6.14979
6.14977
6.14975
6.14974
6.14973
6.14972
6.14971
6.1497
6.1497
6.14969
6.14969
6.14968
6.14968
6.14968
6.14967
6.14967
6.14967
6.14967
6.14967
6.14967
6.14967
6.14966
6.14966
6.14967
6.14967
6.14967
6.14967
6.14967
6.14967
6.14967
6.14968
6.14968
6.14968
6.14969
6.14969
6.1497
6.1497
6.14971
6.14972
6.14973
6.14974
6.14975
6.14977
6.14979
6.14981
6.14984
6.14986
6.1499
6.14994
6.14998
6.15003
6.15006
6.27741
6.27738
6.27734
6.2773
6.27726
6.27722
6.2772
6.27717
6.27715
6.27713
6.27712
6.2771
6.27709
6.27708
6.27707
6.27706
6.27706
6.27705
6.27705
6.27704
6.27704
6.27704
6.27703
6.27703
6.27703
6.27703
6.27703
6.27703
6.27703
6.27703
6.27703
6.27703
6.27703
6.27703
6.27703
6.27703
6.27703
6.27703
6.27704
6.27704
6.27704
6.27705
6.27705
6.27706
6.27706
6.27707
6.27708
6.27709
6.2771
6.27712
6.27713
6.27715
6.27717
6.2772
6.27722
6.27726
6.2773
6.27734
6.27738
6.27741
6.40846
6.40843
6.40839
6.40835
6.40831
6.40828
6.40825
6.40822
6.4082
6.40819
6.40817
6.40816
6.40814
6.40814
6.40813
6.40812
6.40811
6.40811
6.4081
6.4081
6.40809
6.40809
6.40809
6.40809
6.40809
6.40808
6.40808
6.40808
6.40808
6.40808
6.40808
6.40808
6.40808
6.40808
6.40808
6.40809
6.40809
6.40809
6.40809
6.40809
6.4081
6.4081
6.40811
6.40811
6.40812
6.40813
6.40814
6.40814
6.40816
6.40817
6.40819
6.4082
6.40822
6.40825
6.40828
6.40831
6.40835
6.40839
6.40843
6.40846
6.54332
6.54329
6.54325
6.54321
6.54318
6.54314
6.54312
6.54309
6.54307
6.54305
6.54304
6.54303
6.54301
6.543