/*--------------------------------*- C++ -*----------------------------------*\
| =========                 |                                                 |
| \\      /  F ield         | foam-extend: Open Source CFD                    |
|  \\    /   O peration     | Version:     4.0                                |
|   \\  /    A nd           | Web:         http://www.foam-extend.org         |
|    \\/     M anipulation  |                                                 |
\*---------------------------------------------------------------------------*/
FoamFile
{
    version     2.0;
    format      ascii;
    class       volScalarField;
    location    "80";
    object      psiE;
}
// * * * * * * * * * * * * * * * * * * * * * * * * * * * * * * * * * * * * * //

dimensions      [0 0 0 0 0 0 0];

internalField   nonuniform List<scalar> 
6960
(
0.28694
0.286936
0.286934
0.286933
0.286933
0.286933
0.286933
0.286933
0.286934
0.286934
0.286935
0.286936
0.286936
0.286937
0.286938
0.286939
0.286939
0.28694
0.286941
0.286941
0.286942
0.286942
0.286943
0.286943
0.286943
0.286944
0.286944
0.286944
0.286944
0.286944
0.286944
0.286944
0.286944
0.286944
0.286944
0.286943
0.286943
0.286943
0.286942
0.286942
0.286941
0.286941
0.28694
0.286939
0.286939
0.286938
0.286937
0.286936
0.286936
0.286935
0.286934
0.286934
0.286933
0.286933
0.286933
0.286933
0.286933
0.286934
0.286936
0.28694
0.633691
0.633673
0.633664
0.63366
0.633658
0.633658
0.633658
0.633659
0.633661
0.633663
0.633665
0.633667
0.633669
0.633671
0.633673
0.633675
0.633677
0.633679
0.633681
0.633683
0.633684
0.633686
0.633687
0.633688
0.633689
0.63369
0.633691
0.633691
0.633691
0.633692
0.633692
0.633691
0.633691
0.633691
0.63369
0.633689
0.633688
0.633687
0.633686
0.633684
0.633683
0.633681
0.633679
0.633677
0.633675
0.633673
0.633671
0.633669
0.633667
0.633665
0.633663
0.633661
0.633659
0.633658
0.633658
0.633658
0.63366
0.633664
0.633673
0.633691
0.864454
0.864416
0.8644
0.864393
0.86439
0.864389
0.86439
0.864392
0.864394
0.864397
0.8644
0.864404
0.864407
0.864411
0.864414
0.864418
0.864421
0.864425
0.864428
0.86443
0.864433
0.864435
0.864438
0.864439
0.864441
0.864442
0.864443
0.864444
0.864445
0.864445
0.864445
0.864445
0.864444
0.864443
0.864442
0.864441
0.864439
0.864438
0.864435
0.864433
0.86443
0.864428
0.864425
0.864421
0.864418
0.864414
0.864411
0.864407
0.864404
0.8644
0.864397
0.864394
0.864392
0.86439
0.864389
0.86439
0.864393
0.8644
0.864416
0.864454
1.02292
1.02286
1.02284
1.02283
1.02282
1.02282
1.02282
1.02283
1.02283
1.02283
1.02284
1.02284
1.02285
1.02285
1.02286
1.02286
1.02287
1.02287
1.02288
1.02288
1.02289
1.02289
1.02289
1.0229
1.0229
1.0229
1.0229
1.0229
1.0229
1.0229
1.0229
1.0229
1.0229
1.0229
1.0229
1.0229
1.0229
1.02289
1.02289
1.02289
1.02288
1.02288
1.02287
1.02287
1.02286
1.02286
1.02285
1.02285
1.02284
1.02284
1.02283
1.02283
1.02283
1.02282
1.02282
1.02282
1.02283
1.02284
1.02286
1.02292
1.13526
1.13518
1.13516
1.13514
1.13514
1.13514
1.13514
1.13514
1.13515
1.13515
1.13516
1.13517
1.13517
1.13518
1.13519
1.13519
1.1352
1.13521
1.13521
1.13522
1.13522
1.13523
1.13523
1.13523
1.13524
1.13524
1.13524
1.13524
1.13524
1.13524
1.13524
1.13524
1.13524
1.13524
1.13524
1.13524
1.13523
1.13523
1.13523
1.13522
1.13522
1.13521
1.13521
1.1352
1.13519
1.13519
1.13518
1.13517
1.13517
1.13516
1.13515
1.13515
1.13514
1.13514
1.13514
1.13514
1.13514
1.13516
1.13518
1.13526
1.21852
1.21843
1.21839
1.21838
1.21838
1.21837
1.21838
1.21838
1.21839
1.2184
1.2184
1.21841
1.21842
1.21843
1.21844
1.21845
1.21845
1.21846
1.21847
1.21848
1.21848
1.21849
1.21849
1.2185
1.2185
1.2185
1.21851
1.21851
1.21851
1.21851
1.21851
1.21851
1.21851
1.21851
1.2185
1.2185
1.2185
1.21849
1.21849
1.21848
1.21848
1.21847
1.21846
1.21845
1.21845
1.21844
1.21843
1.21842
1.21841
1.2184
1.2184
1.21839
1.21838
1.21838
1.21837
1.21838
1.21838
1.21839
1.21843
1.21852
1.28346
1.28336
1.28332
1.28331
1.2833
1.2833
1.28331
1.28331
1.28332
1.28333
1.28334
1.28335
1.28336
1.28337
1.28338
1.28339
1.2834
1.28341
1.28342
1.28343
1.28343
1.28344
1.28345
1.28345
1.28346
1.28346
1.28346
1.28347
1.28347
1.28347
1.28347
1.28347
1.28347
1.28346
1.28346
1.28346
1.28345
1.28345
1.28344
1.28343
1.28343
1.28342
1.28341
1.2834
1.28339
1.28338
1.28337
1.28336
1.28335
1.28334
1.28333
1.28332
1.28331
1.28331
1.2833
1.2833
1.28331
1.28332
1.28336
1.28346
1.33657
1.33647
1.33643
1.33641
1.3364
1.33641
1.33641
1.33642
1.33643
1.33644
1.33645
1.33646
1.33647
1.33649
1.3365
1.33651
1.33652
1.33653
1.33654
1.33655
1.33656
1.33657
1.33658
1.33659
1.33659
1.3366
1.3366
1.3366
1.3366
1.3366
1.3366
1.3366
1.3366
1.3366
1.3366
1.33659
1.33659
1.33658
1.33657
1.33656
1.33655
1.33654
1.33653
1.33652
1.33651
1.3365
1.33649
1.33647
1.33646
1.33645
1.33644
1.33643
1.33642
1.33641
1.33641
1.3364
1.33641
1.33643
1.33647
1.33657
1.38166
1.38155
1.38151
1.38149
1.38149
1.38149
1.3815
1.38151
1.38152
1.38153
1.38154
1.38156
1.38157
1.38159
1.3816
1.38161
1.38163
1.38164
1.38165
1.38167
1.38168
1.38168
1.38169
1.3817
1.38171
1.38171
1.38172
1.38172
1.38172
1.38172
1.38172
1.38172
1.38172
1.38172
1.38171
1.38171
1.3817
1.38169
1.38168
1.38168
1.38167
1.38165
1.38164
1.38163
1.38161
1.3816
1.38159
1.38157
1.38156
1.38154
1.38153
1.38152
1.38151
1.3815
1.38149
1.38149
1.38149
1.38151
1.38155
1.38166
1.42098
1.42087
1.42083
1.42081
1.42081
1.42081
1.42082
1.42083
1.42084
1.42086
1.42087
1.42089
1.42091
1.42092
1.42094
1.42096
1.42097
1.42099
1.421
1.42101
1.42103
1.42104
1.42105
1.42105
1.42106
1.42107
1.42107
1.42108
1.42108
1.42108
1.42108
1.42108
1.42108
1.42107
1.42107
1.42106
1.42105
1.42105
1.42104
1.42103
1.42101
1.421
1.42099
1.42097
1.42096
1.42094
1.42092
1.42091
1.42089
1.42087
1.42086
1.42084
1.42083
1.42082
1.42081
1.42081
1.42081
1.42083
1.42087
1.42098
1.45594
1.45583
1.45579
1.45577
1.45577
1.45577
1.45578
1.45579
1.45581
1.45582
1.45584
1.45586
1.45588
1.4559
1.45592
1.45594
1.45595
1.45597
1.45599
1.456
1.45601
1.45603
1.45604
1.45605
1.45606
1.45606
1.45607
1.45607
1.45608
1.45608
1.45608
1.45608
1.45607
1.45607
1.45606
1.45606
1.45605
1.45604
1.45603
1.45601
1.456
1.45599
1.45597
1.45595
1.45594
1.45592
1.4559
1.45588
1.45586
1.45584
1.45582
1.45581
1.45579
1.45578
1.45577
1.45577
1.45577
1.45579
1.45583
1.45594
1.48747
1.48735
1.48731
1.48729
1.48729
1.48729
1.48731
1.48732
1.48734
1.48736
1.48738
1.4874
1.48742
1.48744
1.48746
1.48748
1.4875
1.48752
1.48754
1.48756
1.48757
1.48758
1.4876
1.48761
1.48762
1.48762
1.48763
1.48764
1.48764
1.48764
1.48764
1.48764
1.48764
1.48763
1.48762
1.48762
1.48761
1.4876
1.48758
1.48757
1.48756
1.48754
1.48752
1.4875
1.48748
1.48746
1.48744
1.48742
1.4874
1.48738
1.48736
1.48734
1.48732
1.48731
1.48729
1.48729
1.48729
1.48731
1.48735
1.48747
1.51621
1.5161
1.51606
1.51604
1.51604
1.51604
1.51605
1.51607
1.51609
1.51611
1.51613
1.51616
1.51618
1.5162
1.51623
1.51625
1.51627
1.51629
1.51631
1.51633
1.51635
1.51637
1.51638
1.51639
1.5164
1.51641
1.51642
1.51642
1.51643
1.51643
1.51643
1.51643
1.51642
1.51642
1.51641
1.5164
1.51639
1.51638
1.51637
1.51635
1.51633
1.51631
1.51629
1.51627
1.51625
1.51623
1.5162
1.51618
1.51616
1.51613
1.51611
1.51609
1.51607
1.51605
1.51604
1.51604
1.51604
1.51606
1.5161
1.51621
1.54267
1.54256
1.54251
1.5425
1.5425
1.5425
1.54252
1.54254
1.54256
1.54258
1.54261
1.54263
1.54266
1.54269
1.54271
1.54274
1.54276
1.54278
1.54281
1.54283
1.54285
1.54286
1.54288
1.54289
1.5429
1.54291
1.54292
1.54293
1.54293
1.54293
1.54293
1.54293
1.54293
1.54292
1.54291
1.5429
1.54289
1.54288
1.54286
1.54285
1.54283
1.54281
1.54278
1.54276
1.54274
1.54271
1.54269
1.54266
1.54263
1.54261
1.54258
1.54256
1.54254
1.54252
1.5425
1.5425
1.5425
1.54251
1.54256
1.54267
1.56723
1.56712
1.56707
1.56706
1.56706
1.56706
1.56708
1.5671
1.56712
1.56715
1.56718
1.56721
1.56724
1.56726
1.56729
1.56732
1.56735
1.56737
1.5674
1.56742
1.56744
1.56746
1.56748
1.56749
1.5675
1.56751
1.56752
1.56753
1.56753
1.56753
1.56753
1.56753
1.56753
1.56752
1.56751
1.5675
1.56749
1.56748
1.56746
1.56744
1.56742
1.5674
1.56737
1.56735
1.56732
1.56729
1.56726
1.56724
1.56721
1.56718
1.56715
1.56712
1.5671
1.56708
1.56706
1.56706
1.56706
1.56707
1.56712
1.56723
1.59019
1.59008
1.59003
1.59002
1.59002
1.59003
1.59005
1.59007
1.5901
1.59012
1.59015
1.59019
1.59022
1.59025
1.59028
1.59031
1.59034
1.59037
1.59039
1.59042
1.59044
1.59046
1.59048
1.5905
1.59051
1.59052
1.59053
1.59054
1.59054
1.59054
1.59054
1.59054
1.59054
1.59053
1.59052
1.59051
1.5905
1.59048
1.59046
1.59044
1.59042
1.59039
1.59037
1.59034
1.59031
1.59028
1.59025
1.59022
1.59019
1.59015
1.59012
1.5901
1.59007
1.59005
1.59003
1.59002
1.59002
1.59003
1.59008
1.59019
1.61181
1.6117
1.61165
1.61164
1.61164
1.61165
1.61167
1.6117
1.61173
1.61176
1.61179
1.61182
1.61186
1.61189
1.61193
1.61196
1.61199
1.61202
1.61205
1.61208
1.6121
1.61212
1.61214
1.61216
1.61218
1.61219
1.6122
1.61221
1.61221
1.61221
1.61221
1.61221
1.61221
1.6122
1.61219
1.61218
1.61216
1.61214
1.61212
1.6121
1.61208
1.61205
1.61202
1.61199
1.61196
1.61193
1.61189
1.61186
1.61182
1.61179
1.61176
1.61173
1.6117
1.61167
1.61165
1.61164
1.61164
1.61165
1.6117
1.61181
1.6323
1.63219
1.63214
1.63213
1.63213
1.63215
1.63217
1.63219
1.63222
1.63226
1.63229
1.63233
1.63237
1.63241
1.63244
1.63248
1.63251
1.63255
1.63258
1.63261
1.63263
1.63266
1.63268
1.6327
1.63271
1.63273
1.63274
1.63274
1.63275
1.63275
1.63275
1.63275
1.63274
1.63274
1.63273
1.63271
1.6327
1.63268
1.63266
1.63263
1.63261
1.63258
1.63255
1.63251
1.63248
1.63244
1.63241
1.63237
1.63233
1.63229
1.63226
1.63222
1.63219
1.63217
1.63215
1.63213
1.63213
1.63214
1.63219
1.6323
1.65184
1.65173
1.65168
1.65167
1.65167
1.65169
1.65171
1.65174
1.65177
1.65181
1.65185
1.65189
1.65193
1.65197
1.65201
1.65205
1.65208
1.65212
1.65215
1.65218
1.65221
1.65224
1.65226
1.65228
1.6523
1.65231
1.65232
1.65233
1.65234
1.65234
1.65234
1.65234
1.65233
1.65232
1.65231
1.6523
1.65228
1.65226
1.65224
1.65221
1.65218
1.65215
1.65212
1.65208
1.65205
1.65201
1.65197
1.65193
1.65189
1.65185
1.65181
1.65177
1.65174
1.65171
1.65169
1.65167
1.65167
1.65168
1.65173
1.65184
1.67058
1.67047
1.67042
1.67041
1.67041
1.67043
1.67046
1.67049
1.67052
1.67056
1.67061
1.67065
1.67069
1.67074
1.67078
1.67082
1.67086
1.6709
1.67093
1.67097
1.671
1.67103
1.67105
1.67107
1.67109
1.67111
1.67112
1.67113
1.67113
1.67114
1.67114
1.67113
1.67113
1.67112
1.67111
1.67109
1.67107
1.67105
1.67103
1.671
1.67097
1.67093
1.6709
1.67086
1.67082
1.67078
1.67074
1.67069
1.67065
1.67061
1.67056
1.67052
1.67049
1.67046
1.67043
1.67041
1.67041
1.67042
1.67047
1.67058
1.68865
1.68855
1.6885
1.68849
1.6885
1.68851
1.68854
1.68858
1.68862
1.68866
1.6887
1.68875
1.6888
1.68884
1.68889
1.68893
1.68898
1.68902
1.68905
1.68909
1.68912
1.68915
1.68918
1.6892
1.68922
1.68924
1.68925
1.68926
1.68927
1.68927
1.68927
1.68927
1.68926
1.68925
1.68924
1.68922
1.6892
1.68918
1.68915
1.68912
1.68909
1.68905
1.68902
1.68898
1.68893
1.68889
1.68884
1.6888
1.68875
1.6887
1.68866
1.68862
1.68858
1.68854
1.68851
1.6885
1.68849
1.6885
1.68855
1.68865
1.70619
1.70608
1.70604
1.70603
1.70603
1.70606
1.70608
1.70612
1.70616
1.70621
1.70626
1.70631
1.70636
1.70641
1.70646
1.7065
1.70655
1.70659
1.70663
1.70667
1.70671
1.70674
1.70677
1.70679
1.70681
1.70683
1.70684
1.70686
1.70686
1.70687
1.70687
1.70686
1.70686
1.70684
1.70683
1.70681
1.70679
1.70677
1.70674
1.70671
1.70667
1.70663
1.70659
1.70655
1.7065
1.70646
1.70641
1.70636
1.70631
1.70626
1.70621
1.70616
1.70612
1.70608
1.70606
1.70603
1.70603
1.70604
1.70608
1.70619
1.72328
1.72318
1.72314
1.72313
1.72314
1.72316
1.72319
1.72323
1.72327
1.72332
1.72337
1.72343
1.72348
1.72353
1.72359
1.72364
1.72369
1.72373
1.72378
1.72382
1.72385
1.72389
1.72392
1.72394
1.72397
1.72399
1.724
1.72401
1.72402
1.72402
1.72402
1.72402
1.72401
1.724
1.72399
1.72397
1.72394
1.72392
1.72389
1.72385
1.72382
1.72378
1.72373
1.72369
1.72364
1.72359
1.72353
1.72348
1.72343
1.72337
1.72332
1.72327
1.72323
1.72319
1.72316
1.72314
1.72313
1.72314
1.72318
1.72328
1.74004
1.73994
1.73989
1.73988
1.73989
1.73992
1.73995
1.74
1.74004
1.7401
1.74015
1.74021
1.74026
1.74032
1.74038
1.74043
1.74048
1.74053
1.74058
1.74062
1.74066
1.7407
1.74073
1.74076
1.74078
1.7408
1.74082
1.74083
1.74084
1.74084
1.74084
1.74084
1.74083
1.74082
1.7408
1.74078
1.74076
1.74073
1.7407
1.74066
1.74062
1.74058
1.74053
1.74048
1.74043
1.74038
1.74032
1.74026
1.74021
1.74015
1.7401
1.74004
1.74
1.73995
1.73992
1.73989
1.73988
1.73989
1.73994
1.74004
1.75653
1.75643
1.75639
1.75638
1.7564
1.75642
1.75646
1.75651
1.75656
1.75661
1.75667
1.75673
1.75679
1.75685
1.75691
1.75697
1.75702
1.75708
1.75713
1.75717
1.75721
1.75725
1.75729
1.75732
1.75734
1.75736
1.75738
1.75739
1.7574
1.75741
1.75741
1.7574
1.75739
1.75738
1.75736
1.75734
1.75732
1.75729
1.75725
1.75721
1.75717
1.75713
1.75708
1.75702
1.75697
1.75691
1.75685
1.75679
1.75673
1.75667
1.75661
1.75656
1.75651
1.75646
1.75642
1.7564
1.75638
1.75639
1.75643
1.75653
1.77285
1.77275
1.77271
1.77271
1.77272
1.77275
1.77279
1.77284
1.77289
1.77295
1.77301
1.77307
1.77314
1.7732
1.77327
1.77333
1.77339
1.77344
1.77349
1.77354
1.77359
1.77363
1.77366
1.7737
1.77372
1.77375
1.77376
1.77378
1.77379
1.77379
1.77379
1.77379
1.77378
1.77376
1.77375
1.77372
1.7737
1.77366
1.77363
1.77359
1.77354
1.77349
1.77344
1.77339
1.77333
1.77327
1.7732
1.77314
1.77307
1.77301
1.77295
1.77289
1.77284
1.77279
1.77275
1.77272
1.77271
1.77271
1.77275
1.77285
1.78905
1.78896
1.78892
1.78892
1.78893
1.78897
1.78901
1.78906
1.78912
1.78918
1.78925
1.78931
1.78938
1.78945
1.78952
1.78958
1.78964
1.7897
1.78976
1.78981
1.78986
1.7899
1.78994
1.78997
1.79
1.79002
1.79004
1.79006
1.79007
1.79007
1.79007
1.79007
1.79006
1.79004
1.79002
1.79
1.78997
1.78994
1.7899
1.78986
1.78981
1.78976
1.7897
1.78964
1.78958
1.78952
1.78945
1.78938
1.78931
1.78925
1.78918
1.78912
1.78906
1.78901
1.78897
1.78893
1.78892
1.78892
1.78896
1.78905
1.80522
1.80513
1.80509
1.80509
1.80511
1.80514
1.80519
1.80524
1.8053
1.80537
1.80544
1.80551
1.80558
1.80565
1.80572
1.80579
1.80586
1.80592
1.80598
1.80603
1.80608
1.80613
1.80617
1.8062
1.80623
1.80626
1.80628
1.80629
1.80631
1.80631
1.80631
1.80631
1.80629
1.80628
1.80626
1.80623
1.8062
1.80617
1.80613
1.80608
1.80603
1.80598
1.80592
1.80586
1.80579
1.80572
1.80565
1.80558
1.80551
1.80544
1.80537
1.8053
1.80524
1.80519
1.80514
1.80511
1.80509
1.80509
1.80513
1.80522
1.8214
1.82131
1.82128
1.82128
1.8213
1.82133
1.82138
1.82144
1.8215
1.82157
1.82165
1.82172
1.8218
1.82187
1.82195
1.82202
1.82209
1.82216
1.82222
1.82227
1.82233
1.82238
1.82242
1.82246
1.82249
1.82251
1.82254
1.82255
1.82256
1.82257
1.82257
1.82256
1.82255
1.82254
1.82251
1.82249
1.82246
1.82242
1.82238
1.82233
1.82227
1.82222
1.82216
1.82209
1.82202
1.82195
1.82187
1.8218
1.82172
1.82165
1.82157
1.8215
1.82144
1.82138
1.82133
1.8213
1.82128
1.82128
1.82131
1.8214
1.83765
1.83757
1.83754
1.83753
1.83756
1.8376
1.83765
1.83771
1.83778
1.83785
1.83793
1.83801
1.83809
1.83817
1.83825
1.83832
1.8384
1.83847
1.83853
1.83859
1.83865
1.8387
1.83874
1.83878
1.83882
1.83884
1.83887
1.83888
1.8389
1.8389
1.8389
1.8389
1.83888
1.83887
1.83884
1.83882
1.83878
1.83874
1.8387
1.83865
1.83859
1.83853
1.83847
1.8384
1.83832
1.83825
1.83817
1.83809
1.83801
1.83793
1.83785
1.83778
1.83771
1.83765
1.8376
1.83756
1.83753
1.83754
1.83757
1.83765
1.85403
1.85395
1.85392
1.85392
1.85394
1.85398
1.85404
1.8541
1.85418
1.85425
1.85433
1.85442
1.8545
1.85459
1.85467
1.85475
1.85483
1.8549
1.85497
1.85503
1.85509
1.85515
1.85519
1.85523
1.85527
1.8553
1.85532
1.85534
1.85535
1.85536
1.85536
1.85535
1.85534
1.85532
1.8553
1.85527
1.85523
1.85519
1.85515
1.85509
1.85503
1.85497
1.8549
1.85483
1.85475
1.85467
1.85459
1.8545
1.85442
1.85433
1.85425
1.85418
1.8541
1.85404
1.85398
1.85394
1.85392
1.85392
1.85395
1.85403
1.87057
1.8705
1.87047
1.87047
1.8705
1.87054
1.8706
1.87067
1.87075
1.87083
1.87091
1.871
1.87109
1.87118
1.87127
1.87135
1.87143
1.87151
1.87158
1.87165
1.87171
1.87177
1.87182
1.87186
1.8719
1.87193
1.87196
1.87197
1.87199
1.87199
1.87199
1.87199
1.87197
1.87196
1.87193
1.8719
1.87186
1.87182
1.87177
1.87171
1.87165
1.87158
1.87151
1.87143
1.87135
1.87127
1.87118
1.87109
1.871
1.87091
1.87083
1.87075
1.87067
1.8706
1.87054
1.8705
1.87047
1.87047
1.8705
1.87057
1.88734
1.88727
1.88724
1.88724
1.88727
1.88732
1.88738
1.88745
1.88753
1.88762
1.88771
1.8878
1.8879
1.88799
1.88808
1.88817
1.88826
1.88834
1.88841
1.88849
1.88855
1.88861
1.88866
1.88871
1.88875
1.88878
1.88881
1.88883
1.88884
1.88885
1.88885
1.88884
1.88883
1.88881
1.88878
1.88875
1.88871
1.88866
1.88861
1.88855
1.88849
1.88841
1.88834
1.88826
1.88817
1.88808
1.88799
1.8879
1.8878
1.88771
1.88762
1.88753
1.88745
1.88738
1.88732
1.88727
1.88724
1.88724
1.88727
1.88734
1.90436
1.90429
1.90427
1.90427
1.90431
1.90436
1.90442
1.9045
1.90458
1.90467
1.90477
1.90486
1.90496
1.90506
1.90516
1.90525
1.90534
1.90543
1.90551
1.90558
1.90565
1.90571
1.90577
1.90581
1.90586
1.90589
1.90592
1.90594
1.90595
1.90596
1.90596
1.90595
1.90594
1.90592
1.90589
1.90586
1.90581
1.90577
1.90571
1.90565
1.90558
1.90551
1.90543
1.90534
1.90525
1.90516
1.90506
1.90496
1.90486
1.90477
1.90467
1.90458
1.9045
1.90442
1.90436
1.90431
1.90427
1.90427
1.90429
1.90436
1.92168
1.92162
1.92159
1.9216
1.92164
1.92169
1.92176
1.92184
1.92193
1.92202
1.92212
1.92222
1.92233
1.92243
1.92253
1.92263
1.92272
1.92281
1.9229
1.92298
1.92305
1.92311
1.92317
1.92322
1.92326
1.9233
1.92333
1.92335
1.92337
1.92337
1.92337
1.92337
1.92335
1.92333
1.9233
1.92326
1.92322
1.92317
1.92311
1.92305
1.92298
1.9229
1.92281
1.92272
1.92263
1.92253
1.92243
1.92233
1.92222
1.92212
1.92202
1.92193
1.92184
1.92176
1.92169
1.92164
1.9216
1.92159
1.92162
1.92168
1.93933
1.93927
1.93925
1.93926
1.9393
1.93936
1.93943
1.93951
1.93961
1.93971
1.93981
1.93992
1.94003
1.94014
1.94024
1.94035
1.94044
1.94054
1.94063
1.94071
1.94078
1.94085
1.94091
1.94096
1.94101
1.94105
1.94108
1.9411
1.94112
1.94112
1.94112
1.94112
1.9411
1.94108
1.94105
1.94101
1.94096
1.94091
1.94085
1.94078
1.94071
1.94063
1.94054
1.94044
1.94035
1.94024
1.94014
1.94003
1.93992
1.93981
1.93971
1.93961
1.93951
1.93943
1.93936
1.9393
1.93926
1.93925
1.93927
1.93933
1.95735
1.9573
1.95728
1.95729
1.95733
1.95739
1.95747
1.95756
1.95766
1.95776
1.95787
1.95798
1.9581
1.95821
1.95832
1.95843
1.95853
1.95863
1.95872
1.95881
1.95889
1.95896
1.95902
1.95908
1.95913
1.95917
1.9592
1.95922
1.95924
1.95925
1.95925
1.95924
1.95922
1.9592
1.95917
1.95913
1.95908
1.95902
1.95896
1.95889
1.95881
1.95872
1.95863
1.95853
1.95843
1.95832
1.95821
1.9581
1.95798
1.95787
1.95776
1.95766
1.95756
1.95747
1.95739
1.95733
1.95729
1.95728
1.9573
1.95735
1.97577
1.97573
1.97571
1.97573
1.97577
1.97583
1.97591
1.97601
1.97611
1.97622
1.97634
1.97645
1.97657
1.97669
1.97681
1.97692
1.97703
1.97713
1.97723
1.97732
1.9774
1.97748
1.97754
1.9776
1.97765
1.97769
1.97773
1.97775
1.97777
1.97778
1.97778
1.97777
1.97775
1.97773
1.97769
1.97765
1.9776
1.97754
1.97748
1.9774
1.97732
1.97723
1.97713
1.97703
1.97692
1.97681
1.97669
1.97657
1.97645
1.97634
1.97622
1.97611
1.97601
1.97591
1.97583
1.97577
1.97573
1.97571
1.97573
1.97577
1.99463
1.99459
1.99458
1.9946
1.99464
1.99471
1.99479
1.99489
1.995
1.99511
1.99523
1.99536
1.99548
1.99561
1.99573
1.99585
1.99596
1.99607
1.99617
1.99626
1.99635
1.99643
1.9965
1.99656
1.99661
1.99665
1.99669
1.99672
1.99673
1.99674
1.99674
1.99673
1.99672
1.99669
1.99665
1.99661
1.99656
1.9965
1.99643
1.99635
1.99626
1.99617
1.99607
1.99596
1.99585
1.99573
1.99561
1.99548
1.99536
1.99523
1.99511
1.995
1.99489
1.99479
1.99471
1.99464
1.9946
1.99458
1.99459
1.99463
2.01395
2.01391
2.0139
2.01393
2.01398
2.01405
2.01414
2.01424
2.01435
2.01447
2.0146
2.01473
2.01486
2.01499
2.01512
2.01524
2.01536
2.01547
2.01558
2.01568
2.01577
2.01585
2.01592
2.01598
2.01604
2.01608
2.01612
2.01615
2.01617
2.01617
2.01617
2.01617
2.01615
2.01612
2.01608
2.01604
2.01598
2.01592
2.01585
2.01577
2.01568
2.01558
2.01547
2.01536
2.01524
2.01512
2.01499
2.01486
2.01473
2.0146
2.01447
2.01435
2.01424
2.01414
2.01405
2.01398
2.01393
2.0139
2.01391
2.01395
2.03376
2.03373
2.03373
2.03375
2.03381
2.03388
2.03397
2.03408
2.0342
2.03433
2.03446
2.03459
2.03473
2.03487
2.035
2.03513
2.03525
2.03537
2.03548
2.03558
2.03568
2.03576
2.03584
2.0359
2.03596
2.03601
2.03605
2.03608
2.03609
2.0361
2.0361
2.03609
2.03608
2.03605
2.03601
2.03596
2.0359
2.03584
2.03576
2.03568
2.03558
2.03548
2.03537
2.03525
2.03513
2.035
2.03487
2.03473
2.03459
2.03446
2.03433
2.0342
2.03408
2.03397
2.03388
2.03381
2.03375
2.03373
2.03373
2.03376
2.0541
2.05407
2.05407
2.0541
2.05415
2.05423
2.05433
2.05444
2.05457
2.0547
2.05484
2.05498
2.05512
2.05527
2.0554
2.05554
2.05567
2.05579
2.05591
2.05601
2.05611
2.0562
2.05628
2.05635
2.05641
2.05646
2.0565
2.05653
2.05655
2.05656
2.05656
2.05655
2.05653
2.0565
2.05646
2.05641
2.05635
2.05628
2.0562
2.05611
2.05601
2.05591
2.05579
2.05567
2.05554
2.0554
2.05527
2.05512
2.05498
2.05484
2.0547
2.05457
2.05444
2.05433
2.05423
2.05415
2.0541
2.05407
2.05407
2.0541
2.07498
2.07496
2.07496
2.07499
2.07505
2.07514
2.07524
2.07536
2.07548
2.07562
2.07577
2.07592
2.07607
2.07621
2.07636
2.0765
2.07664
2.07676
2.07688
2.077
2.0771
2.07719
2.07727
2.07735
2.07741
2.07746
2.0775
2.07753
2.07755
2.07756
2.07756
2.07755
2.07753
2.0775
2.07746
2.07741
2.07735
2.07727
2.07719
2.0771
2.077
2.07688
2.07676
2.07664
2.0765
2.07636
2.07621
2.07607
2.07592
2.07577
2.07562
2.07548
2.07536
2.07524
2.07514
2.07505
2.07499
2.07496
2.07496
2.07498
2.09644
2.09642
2.09642
2.09646
2.09652
2.09661
2.09672
2.09684
2.09698
2.09712
2.09727
2.09743
2.09758
2.09774
2.09789
2.09804
2.09818
2.09831
2.09844
2.09856
2.09866
2.09876
2.09884
2.09892
2.09899
2.09904
2.09908
2.09911
2.09914
2.09915
2.09915
2.09914
2.09911
2.09908
2.09904
2.09899
2.09892
2.09884
2.09876
2.09866
2.09856
2.09844
2.09831
2.09818
2.09804
2.09789
2.09774
2.09758
2.09743
2.09727
2.09712
2.09698
2.09684
2.09672
2.09661
2.09652
2.09646
2.09642
2.09642
2.09644
2.11849
2.11848
2.11849
2.11853
2.11859
2.11869
2.1188
2.11893
2.11907
2.11922
2.11938
2.11954
2.1197
2.11987
2.12002
2.12018
2.12033
2.12046
2.1206
2.12072
2.12083
2.12093
2.12102
2.1211
2.12117
2.12122
2.12127
2.1213
2.12132
2.12133
2.12133
2.12132
2.1213
2.12127
2.12122
2.12117
2.1211
2.12102
2.12093
2.12083
2.12072
2.1206
2.12046
2.12033
2.12018
2.12002
2.11987
2.1197
2.11954
2.11938
2.11922
2.11907
2.11893
2.1188
2.11869
2.11859
2.11853
2.11849
2.11848
2.11849
2.14117
2.14116
2.14117
2.14122
2.14129
2.14139
2.14151
2.14164
2.14179
2.14195
2.14211
2.14228
2.14245
2.14262
2.14279
2.14295
2.1431
2.14324
2.14338
2.14351
2.14362
2.14373
2.14382
2.1439
2.14397
2.14403
2.14408
2.14412
2.14414
2.14415
2.14415
2.14414
2.14412
2.14408
2.14403
2.14397
2.1439
2.14382
2.14373
2.14362
2.14351
2.14338
2.14324
2.1431
2.14295
2.14279
2.14262
2.14245
2.14228
2.14211
2.14195
2.14179
2.14164
2.14151
2.14139
2.14129
2.14122
2.14117
2.14116
2.14117
2.1645
2.1645
2.16451
2.16456
2.16464
2.16474
2.16486
2.165
2.16516
2.16532
2.1655
2.16567
2.16585
2.16603
2.1662
2.16637
2.16653
2.16668
2.16682
2.16695
2.16707
2.16718
2.16728
2.16736
2.16744
2.1675
2.16755
2.16758
2.16761
2.16762
2.16762
2.16761
2.16758
2.16755
2.1675
2.16744
2.16736
2.16728
2.16718
2.16707
2.16695
2.16682
2.16668
2.16653
2.16637
2.1662
2.16603
2.16585
2.16567
2.1655
2.16532
2.16516
2.165
2.16486
2.16474
2.16464
2.16456
2.16451
2.1645
2.1645
2.18851
2.1885
2.18853
2.18858
2.18866
2.18877
2.1889
2.18904
2.18921
2.18938
2.18956
2.18974
2.18993
2.19011
2.19029
2.19046
2.19063
2.19079
2.19094
2.19107
2.1912
2.19131
2.19141
2.1915
2.19158
2.19164
2.19169
2.19173
2.19176
2.19177
2.19177
2.19176
2.19173
2.19169
2.19164
2.19158
2.1915
2.19141
2.19131
2.1912
2.19107
2.19094
2.19079
2.19063
2.19046
2.19029
2.19011
2.18993
2.18974
2.18956
2.18938
2.18921
2.18904
2.1889
2.18877
2.18866
2.18858
2.18853
2.1885
2.18851
2.21321
2.21321
2.21324
2.21329
2.21338
2.21349
2.21363
2.21378
2.21395
2.21413
2.21432
2.21451
2.2147
2.21489
2.21508
2.21526
2.21544
2.2156
2.21576
2.2159
2.21603
2.21615
2.21625
2.21635
2.21643
2.21649
2.21654
2.21658
2.21661
2.21662
2.21662
2.21661
2.21658
2.21654
2.21649
2.21643
2.21635
2.21625
2.21615
2.21603
2.2159
2.21576
2.2156
2.21544
2.21526
2.21508
2.21489
2.2147
2.21451
2.21432
2.21413
2.21395
2.21378
2.21363
2.21349
2.21338
2.21329
2.21324
2.21321
2.21321
2.23864
2.23864
2.23867
2.23873
2.23883
2.23894
2.23909
2.23925
2.23942
2.23961
2.23981
2.24001
2.24021
2.24041
2.2406
2.24079
2.24097
2.24114
2.2413
2.24145
2.24159
2.24171
2.24182
2.24192
2.242
2.24207
2.24212
2.24217
2.24219
2.24221
2.24221
2.24219
2.24217
2.24212
2.24207
2.242
2.24192
2.24182
2.24171
2.24159
2.24145
2.2413
2.24114
2.24097
2.24079
2.2406
2.24041
2.24021
2.24001
2.23981
2.23961
2.23942
2.23925
2.23909
2.23894
2.23883
2.23873
2.23867
2.23864
2.23864
2.26482
2.26482
2.26486
2.26492
2.26502
2.26514
2.26529
2.26546
2.26565
2.26584
2.26605
2.26625
2.26646
2.26667
2.26687
2.26707
2.26726
2.26744
2.2676
2.26776
2.2679
2.26803
2.26814
2.26824
2.26833
2.2684
2.26846
2.2685
2.26853
2.26854
2.26854
2.26853
2.2685
2.26846
2.2684
2.26833
2.26824
2.26814
2.26803
2.2679
2.26776
2.2676
2.26744
2.26726
2.26707
2.26687
2.26667
2.26646
2.26625
2.26605
2.26584
2.26565
2.26546
2.26529
2.26514
2.26502
2.26492
2.26486
2.26482
2.26482
2.29177
2.29178
2.29182
2.29189
2.29199
2.29212
2.29228
2.29245
2.29264
2.29285
2.29306
2.29328
2.29349
2.29371
2.29392
2.29413
2.29432
2.29451
2.29468
2.29484
2.29499
2.29512
2.29524
2.29535
2.29544
2.29551
2.29557
2.29561
2.29564
2.29566
2.29566
2.29564
2.29561
2.29557
2.29551
2.29544
2.29535
2.29524
2.29512
2.29499
2.29484
2.29468
2.29451
2.29432
2.29413
2.29392
2.29371
2.29349
2.29328
2.29306
2.29285
2.29264
2.29245
2.29228
2.29212
2.29199
2.29189
2.29182
2.29178
2.29177
2.31952
2.31953
2.31957
2.31965
2.31976
2.31989
2.32006
2.32024
2.32044
2.32065
2.32088
2.3211
2.32133
2.32155
2.32177
2.32199
2.32219
2.32238
2.32256
2.32273
2.32288
2.32302
2.32315
2.32326
2.32335
2.32343
2.32349
2.32353
2.32356
2.32358
2.32358
2.32356
2.32353
2.32349
2.32343
2.32335
2.32326
2.32315
2.32302
2.32288
2.32273
2.32256
2.32238
2.32219
2.32199
2.32177
2.32155
2.32133
2.3211
2.32088
2.32065
2.32044
2.32024
2.32006
2.31989
2.31976
2.31965
2.31957
2.31953
2.31952
2.34809
2.34811
2.34816
2.34824
2.34835
2.3485
2.34867
2.34886
2.34907
2.34929
2.34952
2.34975
2.34999
2.35023
2.35045
2.35068
2.35089
2.35109
2.35128
2.35145
2.35161
2.35175
2.35188
2.35199
2.35209
2.35217
2.35224
2.35228
2.35232
2.35233
2.35233
2.35232
2.35228
2.35224
2.35217
2.35209
2.35199
2.35188
2.35175
2.35161
2.35145
2.35128
2.35109
2.35089
2.35068
2.35045
2.35023
2.34999
2.34975
2.34952
2.34929
2.34907
2.34886
2.34867
2.3485
2.34835
2.34824
2.34816
2.34811
2.34809
2.37752
2.37754
2.37759
2.37768
2.3778
2.37795
2.37813
2.37833
2.37854
2.37878
2.37902
2.37926
2.37951
2.37975
2.37999
2.38022
2.38044
2.38065
2.38084
2.38103
2.38119
2.38134
2.38147
2.38159
2.38169
2.38177
2.38184
2.38189
2.38192
2.38194
2.38194
2.38192
2.38189
2.38184
2.38177
2.38169
2.38159
2.38147
2.38134
2.38119
2.38103
2.38084
2.38065
2.38044
2.38022
2.37999
2.37975
2.37951
2.37926
2.37902
2.37878
2.37854
2.37833
2.37813
2.37795
2.3778
2.37768
2.37759
2.37754
2.37752
2.40783
2.40785
2.4079
2.408
2.40812
2.40828
2.40847
2.40867
2.4089
2.40914
2.40939
2.40965
2.40991
2.41016
2.41041
2.41065
2.41088
2.41109
2.4113
2.41148
2.41166
2.41181
2.41195
2.41207
2.41217
2.41226
2.41233
2.41238
2.41242
2.41243
2.41243
2.41242
2.41238
2.41233
2.41226
2.41217
2.41207
2.41195
2.41181
2.41166
2.41148
2.4113
2.41109
2.41088
2.41065
2.41041
2.41016
2.40991
2.40965
2.40939
2.40914
2.4089
2.40867
2.40847
2.40828
2.40812
2.408
2.4079
2.40785
2.40783
2.43904
2.43906
2.43912
2.43922
2.43935
2.43952
2.43971
2.43993
2.44017
2.44042
2.44068
2.44095
2.44121
2.44148
2.44173
2.44198
2.44222
2.44245
2.44266
2.44285
2.44303
2.44319
2.44334
2.44346
2.44357
2.44366
2.44373
2.44379
2.44382
2.44384
2.44384
2.44382
2.44379
2.44373
2.44366
2.44357
2.44346
2.44334
2.44319
2.44303
2.44285
2.44266
2.44245
2.44222
2.44198
2.44173
2.44148
2.44121
2.44095
2.44068
2.44042
2.44017
2.43993
2.43971
2.43952
2.43935
2.43922
2.43912
2.43906
2.43904
2.47118
2.47121
2.47127
2.47138
2.47152
2.47169
2.47189
2.47212
2.47237
2.47263
2.4729
2.47318
2.47346
2.47373
2.474
2.47426
2.47451
2.47474
2.47496
2.47516
2.47535
2.47551
2.47566
2.47579
2.47591
2.476
2.47607
2.47613
2.47617
2.47619
2.47619
2.47617
2.47613
2.47607
2.476
2.47591
2.47579
2.47566
2.47551
2.47535
2.47516
2.47496
2.47474
2.47451
2.47426
2.474
2.47373
2.47346
2.47318
2.4729
2.47263
2.47237
2.47212
2.47189
2.47169
2.47152
2.47138
2.47127
2.47121
2.47118
2.50428
2.50432
2.50439
2.50449
2.50464
2.50482
2.50503
2.50527
2.50553
2.5058
2.50609
2.50638
2.50666
2.50695
2.50723
2.5075
2.50776
2.508
2.50823
2.50844
2.50863
2.5088
2.50896
2.50909
2.50921
2.50931
2.50938
2.50944
2.50948
2.5095
2.5095
2.50948
2.50944
2.50938
2.50931
2.50921
2.50909
2.50896
2.5088
2.50863
2.50844
2.50823
2.508
2.50776
2.5075
2.50723
2.50695
2.50666
2.50638
2.50609
2.5058
2.50553
2.50527
2.50503
2.50482
2.50464
2.50449
2.50439
2.50432
2.50428
2.53838
2.53841
2.53849
2.5386
2.53876
2.53895
2.53917
2.53942
2.53969
2.53997
2.54027
2.54057
2.54087
2.54117
2.54146
2.54174
2.542
2.54226
2.54249
2.54271
2.54291
2.54309
2.54325
2.54339
2.54351
2.54361
2.54369
2.54375
2.54379
2.54381
2.54381
2.54379
2.54375
2.54369
2.54361
2.54351
2.54339
2.54325
2.54309
2.54291
2.54271
2.54249
2.54226
2.542
2.54174
2.54146
2.54117
2.54087
2.54057
2.54027
2.53997
2.53969
2.53942
2.53917
2.53895
2.53876
2.5386
2.53849
2.53841
2.53838
2.5735
2.57353
2.57361
2.57373
2.5739
2.5741
2.57433
2.57459
2.57487
2.57517
2.57547
2.57579
2.5761
2.57641
2.57671
2.577
2.57728
2.57754
2.57779
2.57801
2.57822
2.57841
2.57857
2.57872
2.57884
2.57895
2.57903
2.57909
2.57914
2.57916
2.57916
2.57914
2.57909
2.57903
2.57895
2.57884
2.57872
2.57857
2.57841
2.57822
2.57801
2.57779
2.57754
2.57728
2.577
2.57671
2.57641
2.5761
2.57579
2.57547
2.57517
2.57487
2.57459
2.57433
2.5741
2.5739
2.57373
2.57361
2.57353
2.5735
2.60966
2.60971
2.60979
2.60992
2.61009
2.6103
2.61054
2.61081
2.6111
2.61141
2.61173