/*--------------------------------*- C++ -*----------------------------------*\
| =========                 |                                                 |
| \\      /  F ield         | foam-extend: Open Source CFD                    |
|  \\    /   O peration     | Version:     4.0                                |
|   \\  /    A nd           | Web:         http://www.foam-extend.org         |
|    \\/     M anipulation  |                                                 |
\*---------------------------------------------------------------------------*/
FoamFile
{
    version     2.0;
    format      ascii;
    class       volScalarField;
    location    "9";
    object      dPhi;
}
// * * * * * * * * * * * * * * * * * * * * * * * * * * * * * * * * * * * * * //

dimensions      [0 -1 0 0 0 0 0];

internalField   nonuniform List<scalar> 
6960
(
1.11673e-17
-4.44523e-17
3.21683e-16
-4.28151e-16
-6.24826e-16
9.47267e-16
8.45244e-16
1.30419e-15
-3.08022e-16
9.99526e-16
9.22656e-17
1.27806e-15
9.57134e-16
-1.47007e-15
7.36065e-16
-2.09359e-16
-1.20455e-16
1.57838e-15
1.57133e-15
4.94396e-16
5.24754e-16
7.22946e-16
-7.85288e-16
3.33284e-16
1.83154e-15
1.25659e-16
-4.72712e-17
5.10768e-16
1.50162e-16
5.42101e-17
6.47594e-16
-1.48601e-15
4.40945e-16
-4.77049e-18
-1.08268e-15
1.00061e-15
-8.78746e-16
2.7864e-16
-6.11382e-16
3.28405e-16
-6.37294e-16
-1.34441e-16
-1.09797e-15
-1.29237e-15
3.19406e-16
-4.8312e-16
1.44362e-15
-1.85832e-16
-1.04192e-15
-7.48208e-16
-3.37078e-16
7.56773e-17
-1.50813e-16
3.11491e-16
3.08781e-16
-5.56629e-16
3.76869e-16
-2.15648e-16
-1.00874e-15
-1.04734e-16
-8.47629e-16
9.54098e-17
1.10827e-15
-1.77787e-15
1.48991e-15
-1.23859e-15
7.62411e-16
-4.31512e-16
6.93889e-18
-9.14633e-16
-1.42226e-15
-5.86553e-16
8.82541e-16
5.66604e-16
-2.78098e-15
1.98431e-15
6.02383e-16
-2.0795e-16
1.21669e-15
-2.75604e-16
-1.19978e-15
9.69927e-16
1.05211e-15
-3.91939e-15
-2.47198e-16
-2.00122e-15
-2.34405e-16
1.1074e-15
-6.21898e-16
8.80372e-17
-1.48297e-15
4.9548e-16
-1.55756e-15
-2.35922e-16
6.30572e-16
1.12345e-15
-1.9817e-15
-1.86092e-15
2.77382e-15
-3.4998e-16
-1.37542e-15
1.07293e-15
-9.76216e-16
-1.13494e-15
-4.94613e-16
5.83734e-16
1.00896e-15
1.06751e-15
3.41307e-16
4.17201e-16
-1.79956e-15
-1.63346e-15
-1.867e-16
5.5728e-17
-1.39342e-15
-8.95551e-17
-2.02767e-15
-4.31296e-16
-1.45261e-15
-8.92732e-16
1.54867e-15
3.37404e-16
1.15359e-15
3.22659e-16
1.95156e-17
1.81929e-15
-1.60028e-16
-1.62891e-15
1.12714e-15
7.6935e-16
1.43678e-15
5.66821e-16
3.07913e-17
3.38271e-16
2.19703e-15
-2.24647e-15
4.77049e-17
2.42861e-16
-1.23816e-15
-1.89822e-15
-1.54304e-15
2.26165e-15
-1.05038e-15
1.28977e-15
2.45116e-15
-1.20693e-15
1.30018e-15
-4.54931e-16
-1.5838e-15
2.12243e-15
1.18742e-15
-1.98496e-15
6.91287e-16
-3.09431e-15
-2.76558e-15
-3.40656e-15
-9.24174e-16
-1.9186e-15
-2.83194e-15
-2.72005e-15
-8.50015e-17
-1.54867e-15
2.94469e-16
3.41307e-16
-1.96154e-15
-3.03577e-16
1.00484e-15
-1.44372e-15
-9.84022e-16
-2.7452e-16
1.38344e-16
-1.34918e-15
2.47502e-15
1.29237e-15
1.35742e-15
-1.49793e-15
-5.83301e-16
1.0868e-15
2.71094e-15
6.59195e-16
1.82406e-15
-1.54217e-15
-2.57693e-15
-1.59334e-15
-6.4445e-16
2.40259e-16
-9.4369e-16
1.13104e-15
-2.36703e-15
1.64799e-17
-2.37831e-15
5.63785e-17
-8.71699e-16
-3.38271e-16
7.43329e-16
3.09908e-15
-2.3653e-15
2.72352e-15
-9.31547e-16
-3.66027e-16
1.18221e-15
-6.1149e-16
-5.54244e-16
-2.76862e-15
-1.17181e-15
1.56732e-15
-1.56038e-15
-8.03177e-16
-1.20043e-15
-5.38632e-16
-3.55879e-15
-7.68482e-16
-6.34041e-16
1.78243e-15
2.56739e-15
1.64799e-15
1.68181e-15
1.7087e-16
1.17267e-15
1.65579e-15
-8.40474e-16
-8.67362e-16
2.52142e-15
7.17308e-16
8.98587e-16
-1.11456e-15
6.71338e-16
9.84456e-16
-6.23633e-16
-7.26849e-16
2.26381e-16
-5.36897e-16
-8.91648e-16
1.30104e-15
-3.74527e-15
5.40366e-16
-1.76074e-16
-1.74166e-15
-3.02709e-16
5.50775e-16
-2.18922e-15
2.43382e-15
4.35329e-15
-9.63639e-16
8.85576e-16
-3.28817e-15
-2.12417e-15
-1.73733e-15
1.93075e-15
-2.62811e-16
2.09902e-15
7.20778e-16
7.6935e-16
-1.08333e-15
-2.78423e-15
-8.59555e-16
-1.26114e-15
5.04805e-16
6.49654e-16
1.48145e-15
-5.41234e-16
4.94483e-15
3.28383e-15
1.71044e-15
3.80685e-15
-3.72966e-16
5.73326e-16
-2.64285e-15
1.38778e-16
-8.78637e-16
1.33313e-15
2.18228e-15
9.32414e-16
-5.08274e-15
-1.9559e-15
1.51788e-16
3.38271e-17
1.62717e-15
3.66113e-15
7.6935e-16
-5.26489e-16
6.74807e-16
1.15966e-15
8.57821e-16
-2.53009e-15
1.15619e-15
-1.50487e-15
-2.62464e-15
-1.56646e-15
-1.916e-15
1.66967e-15
1.20997e-15
-8.318e-16
2.79637e-15
-8.54351e-16
1.14232e-15
-1.43115e-16
1.3314e-15
1.30711e-15
3.10516e-16
1.26808e-15
-3.25261e-15
-7.37084e-15
1.89952e-15
-3.29597e-17
-1.43809e-15
2.10422e-15
1.74687e-15
-4.44089e-15
6.59195e-16
-1.89605e-15
4.00721e-16
1.14665e-15
3.35669e-15
5.21978e-15
3.34108e-15
1.5786e-15
-4.10089e-15
1.63064e-16
1.04951e-15
-2.61943e-16
-2.01228e-15
-1.29757e-15
-1.92207e-15
-2.09381e-15
-6.85216e-16
-4.01935e-15
3.662e-15
3.51108e-15
-1.12237e-15
1.72605e-15
5.89806e-17
-2.73045e-15
6.73767e-15
-1.72778e-15
-3.67241e-15
-1.19696e-16
-1.01308e-15
-2.77903e-15
-1.5439e-15
2.40086e-15
-6.07153e-17
-2.42688e-15
-1.33921e-15
-5.44703e-16
-5.77663e-16
2.52923e-15
2.76862e-15
1.33574e-15
4.00374e-15
-4.58487e-15
1.92034e-15
-1.85789e-15
-9.83588e-16
7.99708e-16
4.75314e-16
-3.93956e-15
3.1572e-15
1.27676e-15
-1.12757e-15
-1.53696e-15
9.90527e-16
4.42008e-15
2.56913e-15
-2.23259e-15
6.78277e-16
-6.36644e-16
-3.29597e-15
7.44196e-16
-3.29251e-15
-1.01655e-15
2.63504e-15
-7.75421e-16
-1.75901e-15
-5.2805e-15
1.44676e-15
-2.73913e-15
3.32026e-15
-2.25341e-15
-5.79398e-16
3.81466e-15
2.54137e-15
7.26849e-16
-9.33281e-16
1.93942e-15
1.38778e-15
4.9058e-15
-2.32453e-16
-9.95731e-16
-2.47198e-15
-4.80518e-16
2.52055e-15
1.00614e-16
-4.90059e-15
-2.18749e-15
-1.76421e-15
-1.36696e-15
4.21711e-15
-3.48679e-15
6.08194e-15
-2.72699e-15
1.36176e-15
2.47892e-15
1.36176e-15
8.62158e-16
-5.37764e-16
2.13024e-15
-3.3671e-15
-4.79998e-15
-8.53484e-16
-7.80626e-17
4.47038e-15
3.23526e-15
-6.01949e-16
1.3739e-15
-1.94289e-15
-2.15973e-15
2.48933e-15
1.32359e-15
-3.54924e-15
-1.03216e-15
-2.54137e-15
1.69136e-15
-2.65933e-15
4.35763e-15
1.11022e-16
1.24206e-15
2.61423e-15
-3.23006e-15
9.0726e-16
2.10422e-15
-5.34642e-15
-1.38778e-15
-5.18682e-16
6.7845e-15
-1.9186e-15
4.91968e-15
-1.60288e-15
5.30478e-15
2.35055e-15
-6.89553e-15
-3.37577e-15
4.37497e-15
2.01054e-15
4.38885e-16
8.67362e-16
-3.492e-15
1.75034e-15
7.61023e-15
5.14172e-15
-2.68188e-15
6.33521e-15
1.61676e-15
1.15429e-14
6.17562e-15
3.8719e-15
4.14946e-15
-5.55112e-17
-1.6185e-15
2.6576e-15
2.12851e-15
1.37737e-15
-1.84054e-15
1.72085e-15
2.79637e-15
3.22138e-15
-1.89779e-15
9.61731e-15
8.18789e-16
-5.18682e-16
4.16334e-15
-6.53991e-16
3.04964e-15
6.27103e-15
-6.19296e-16
5.96745e-16
3.51282e-15
9.31547e-16
-2.58474e-16
4.97345e-15
1.89779e-15
4.36456e-15
-1.45717e-16
2.74086e-15
-1.37737e-15
1.32186e-15
-1.06859e-15
1.19349e-15
4.86763e-15
2.19269e-15
-2.50147e-15
2.36616e-15
3.52843e-15
-7.91034e-16
-2.3731e-15
5.05498e-15
-5.68295e-15
1.70003e-15
-6.83481e-16
-8.25728e-16
1.21778e-15
3.92048e-15
2.15106e-15
-1.83534e-15
1.26982e-15
-2.91434e-16
-2.70617e-15
9.67976e-16
-3.54924e-15
-1.64799e-15
3.36536e-15
7.84095e-16
8.67362e-16
-1.08247e-15
-3.58047e-15
1.23165e-15
-1.2941e-15
6.06459e-15
4.92315e-15
-3.9066e-15
4.91968e-15
5.5754e-15
5.49213e-15
1.69309e-15
3.75741e-15
-3.1225e-17
2.09555e-15
-8.11504e-15
7.09155e-15
1.07553e-15
1.21431e-15
2.34188e-15
5.30478e-15
-4.83294e-15
4.64212e-15
1.42247e-15
5.30825e-16
5.62744e-15
8.25728e-16
-3.00801e-15
2.21351e-15
-2.10942e-15
4.23966e-15
4.92661e-16
-3.18495e-15
9.02056e-17
-1.2039e-15
-9.41261e-15
-6.98747e-15
3.87537e-15
3.74353e-15
2.57086e-15
2.80331e-15
3.74353e-15
2.62637e-15
-5.30825e-16
2.46678e-15
4.70457e-15
3.52843e-15
-1.31839e-15
-2.98372e-16
-9.4369e-16
-9.36751e-16
2.93862e-15
-3.00454e-15
4.66641e-15
5.54418e-15
-3.61169e-15
3.1572e-16
-9.71445e-17
1.67227e-15
1.14145e-15
2.81025e-15
-3.85109e-16
-7.70217e-16
-3.04617e-15
1.79717e-15
1.94289e-16
-1.17961e-16
5.56846e-15
-1.47451e-15
-7.5287e-16
3.60476e-15
2.97332e-15
1.88391e-15
8.36137e-16
-4.16334e-17
6.81746e-15
2.05391e-15
2.78944e-15
2.37657e-15
3.7817e-15
-4.23966e-15
-1.26635e-15
2.09555e-15
2.10248e-15
6.78624e-15
2.81025e-16
2.18575e-15
8.25728e-16
2.42861e-15
1.55431e-15
3.45557e-15
-1.20737e-15
-6.09235e-15
-2.59515e-15
-7.84095e-16
2.55351e-15
4.92661e-16
3.06005e-15
8.04912e-16
-1.48492e-15
1.06859e-15
-2.50841e-15
-2.53617e-15
-2.59515e-15
1.99493e-15
-4.85376e-15
-3.58741e-15
-2.21351e-15
-4.75314e-16
2.38351e-15
-1.23512e-15
3.41394e-15
1.59595e-16
-4.7809e-15
-8.98587e-16
-3.84415e-15
2.93862e-15
-4.91968e-15
1.08941e-15
3.13291e-15
-3.33067e-16
-6.245e-17
2.71311e-15
1.28023e-15
-5.68989e-16
1.95677e-15
3.1225e-15
-3.34108e-15
5.67602e-15
-2.15106e-15
-6.59889e-15
-4.36456e-15
-3.70884e-15
-2.89005e-15
4.48946e-15
3.09822e-15
1.45717e-16
2.18922e-15
-4.85029e-15
-4.93008e-15
3.30291e-15
1.14492e-16
-1.00961e-15
-3.33067e-15
-3.56312e-15
-3.30291e-15
2.86229e-15
1.51615e-15
1.70003e-15
-2.77556e-17
-1.3288e-14
3.73312e-15
6.34909e-15
3.9066e-15
7.77156e-16
3.11556e-15
2.10248e-15
3.60129e-15
-8.94423e-15
4.39232e-15
3.33067e-16
7.75074e-15
-1.95677e-15
4.39232e-15
1.65146e-15
7.06379e-15
5.79398e-15
-9.78384e-16
-3.29597e-15
-1.22818e-15
-1.55431e-15
4.85029e-15
-5.19723e-15
4.22579e-15
4.42701e-15
5.77316e-15
8.46545e-16
3.407e-15
4.71845e-16
-8.60423e-15
-2.95597e-15
2.38004e-15
-1.47105e-15
-1.67227e-15
-2.83107e-15
-2.08167e-15
-2.06779e-15
5.4054e-15
-2.93515e-15
-1.22818e-15
8.46545e-16
3.63598e-15
3.33067e-16
6.59195e-16
3.66374e-15
-9.00668e-15
1.45717e-15
-6.69603e-15
4.23273e-16
2.58821e-15
-1.249e-16
4.98906e-15
-1.2837e-15
1.97065e-15
3.31679e-15
-5.06539e-16
4.85723e-16
-3.28904e-15
4.656e-15
3.35149e-15
1.55223e-14
-4.32987e-15
4.47559e-15
-4.4062e-15
-1.11022e-16
-2.53964e-15
-8.38912e-15
-4.18415e-15
6.73767e-15
-5.87724e-15
8.91648e-15
-9.16628e-15
3.03924e-15
-2.08167e-17
-2.44943e-15
-7.68829e-15
1.79023e-15
7.0291e-15
5.13478e-16
-4.44089e-16
3.88578e-16
-7.55646e-15
1.0221e-14
-2.19963e-15
-6.30745e-15
-7.24421e-15
-3.94823e-15
-7.84095e-16
1.77636e-15
4.656e-15
1.76942e-15
-6.17562e-15
2.79637e-15
1.59595e-16
5.27356e-16
1.96371e-15
2.35229e-15
-3.18495e-15
-1.48492e-15
2.50494e-15
5.94663e-15
-7.03604e-15
8.06993e-15
-1.6237e-15
-2.91434e-15
7.58421e-15
-4.6213e-15
5.48173e-16
5.27356e-15
3.85803e-15
-2.24126e-15
-2.83801e-15
-1.10328e-15
2.07473e-15
-2.47025e-15
1.6584e-15
-2.80331e-15
3.26128e-16
-2.91434e-15
6.4046e-15
-7.95891e-15
7.19563e-15
2.64372e-15
4.84335e-15
-2.08167e-16
2.11636e-15
1.83881e-15
2.54657e-15
-3.05311e-16
1.03945e-14
2.77556e-17
7.77156e-15
5.72459e-15
1.08247e-15
3.43475e-15
2.9976e-15
4.22579e-15
-3.58047e-15
3.21271e-15
4.17721e-15
-2.158e-15
6.18949e-15
-4.26742e-15
-1.2837e-15
8.83321e-15
3.67761e-15
-1.09635e-15
1.52656e-15
-3.19189e-16
5.79398e-15
2.04003e-15
8.03524e-15
2.42861e-16
-2.25514e-15
-4.71151e-15
1.71391e-15
-5.7454e-15
-1.2837e-15
8.30586e-15
3.98986e-15
-2.94903e-15
5.7801e-15
-8.43769e-15
6.245e-16
1.36696e-15
-9.8116e-15
1.31145e-15
-1.31145e-15
5.59275e-15
-2.56739e-15
2.08167e-17
5.48173e-16
-5.79398e-15
-6.46705e-15
-1.31145e-15
-6.03684e-16
5.4956e-15
3.3723e-15
-6.52256e-16
-7.93809e-15
2.93515e-15
-6.79318e-15
-6.95971e-15
2.44943e-15
1.1588e-15
-1.76942e-15
-2.54657e-15
2.22738e-15
-7.68136e-15
-4.73926e-15
2.95597e-15
-6.05072e-15
3.88578e-16
-2.82413e-15
-3.00454e-15
1.44329e-15
-1.11716e-15
-1.01308e-15
-4.31599e-15
-6.16174e-15
2.36616e-15
-7.42462e-16
4.32293e-15
5.48173e-15
-3.89272e-15
3.26128e-15
9.26342e-15
-4.3715e-16
4.71845e-16
-5.62744e-15
-4.95437e-15
-7.29972e-15
5.7801e-15
-4.29518e-15
8.84015e-15
2.62984e-15
3.14332e-15
-1.15186e-15
-3.64986e-15
1.51268e-15
-1.32533e-15
8.46545e-16
9.85323e-16
1.06165e-15
-9.22873e-16
3.13638e-15
-7.42462e-16
-2.96291e-15
-1.38778e-15
6.94583e-15
2.15106e-15
-1.51962e-15
4.26048e-15
1.20737e-15
3.54577e-15
5.14866e-15
-7.5287e-15
-4.4062e-15
1.83881e-15
3.60822e-15
-5.82867e-15
4.16334e-16
-3.28904e-15
-3.30291e-15
-2.6229e-15
-4.30211e-16
5.68989e-16
1.58901e-15
3.21271e-15
-7.84095e-16
4.71845e-16
7.01522e-15
2.98372e-15
3.17801e-15
5.27356e-15
1.8735e-16
1.42247e-15
6.84175e-15
5.22499e-15
1.1241e-15
-1.02696e-15
2.49106e-15
-6.41154e-15
-2.22045e-15
2.26208e-15
-3.96905e-15
2.70617e-16
-1.55431e-15
-9.22873e-16
2.28983e-15
5.82173e-15
1.1588e-15
-8.83321e-15
2.71311e-15
-5.48173e-15
6.80012e-16
-2.60902e-15
3.44863e-15
-4.14252e-15
-4.996e-15
2.92821e-15
-5.48867e-15
4.71845e-16
2.97679e-15
-9.4369e-16
2.0331e-15
-4.6213e-15
2.58127e-15
2.60902e-15
-4.93355e-15
-6.48093e-15
5.44009e-15
-1.85962e-15
-2.77556e-17
-3.6568e-15
-7.93809e-15
7.54952e-15
4.82947e-15
-4.13558e-15
-4.89886e-15
3.40006e-15
1.40166e-15
4.92661e-15
5.30131e-15
-1.15186e-15
-2.2482e-15
1.67921e-15
-9.4369e-16
-5.68989e-16
-3.06699e-15
-2.77556e-17
-8.70137e-15
-3.78864e-15
-6.23113e-15
-6.57807e-15
1.56819e-15
4.20497e-15
-6.35603e-15
-7.27196e-15
9.10383e-15
-2.06779e-15
-4.89886e-15
-8.32667e-16
1.1241e-15
-1.249e-16
1.15186e-15
2.26208e-15
7.18869e-15
1.29063e-15
-1.80411e-16
-3.69149e-15
-3.78864e-15
6.82787e-15
1.15186e-15
-2.70617e-15
-5.10703e-15
1.7486e-15
-5.95357e-15
8.85403e-15
1.72085e-15
-4.996e-15
3.10862e-15
-5.96745e-16
-2.08167e-15
1.98452e-15
2.70617e-15
5.41234e-16
4.85723e-16
-5.39846e-15
2.34535e-15
7.92422e-15
-3.77476e-15
-1.52656e-15
1.33227e-15
-1.29063e-15
1.03667e-14
2.52576e-15
1.90126e-15
4.41314e-15
-7.77156e-16
1.6237e-15
-9.4369e-16
-2.8727e-15
-2.498e-15
-1.38778e-15
-2.69229e-15
-5.68989e-15
-6.38378e-16
-1.94289e-15
5.16254e-15
-1.94289e-15
8.31279e-15
7.35523e-15
1.29202e-14
2.45637e-15
-1.76248e-15
-4.2466e-15
5.03764e-15
-2.19269e-15
-5.96745e-15
4.06619e-15
8.07687e-15
-2.63678e-16
6.10623e-15
-3.747e-15
-4.39926e-15
8.32667e-16
-4.59355e-15
-4.91274e-15
-4.89886e-15
-4.16334e-15
1.27676e-15
-5.48173e-15
3.4972e-15
-2.15106e-15
3.33067e-15
-2.96985e-15
4.8711e-15
-6.56419e-15
8.85403e-15
1.94289e-15
1.249e-16
-2.63678e-16
-2.01228e-15
8.92342e-15
-1.1241e-15
-3.09475e-15
5.96745e-16
5.95357e-15
-7.61891e-15
-4.8711e-15
-4.05231e-15
-9.71445e-16
1.56819e-15
7.78544e-15
-3.80251e-15
-5.46785e-15
-2.47025e-15
-4.6213e-15
3.96905e-15
-4.64906e-15
4.98213e-15
3.10862e-15
-2.35922e-15
-3.77476e-15
-2.72005e-15
8.36831e-15
2.13718e-15
1.11022e-16
9.71445e-17
5.6205e-15
-1.67921e-15
-4.80171e-15
-1.0103e-14
-1.01308e-15
3.89966e-15
3.747e-16
-2.22045e-16
7.42462e-15
3.44169e-15
1.38778e-17
-5.64826e-15
7.21645e-16
-3.747e-16
3.20577e-15
6.70297e-15
-2.498e-16
3.09475e-15
1.33227e-15
-1.79023e-15
7.99361e-15
-7.57727e-15
9.57567e-16
2.48412e-15
7.53564e-15
-1.51268e-15
5.14866e-15
-2.94209e-15
-1.66533e-16
-5.19029e-15
-3.70537e-15
-1.63758e-15
2.16493e-15
4.19109e-15
-1.77636e-15
1.05471e-15
-2.77556e-15
-6.17562e-15
-7.16094e-15
1.3739e-15
5.55112e-17
7.49401e-16
6.93889e-16
4.30211e-16
-5.25968e-15
-2.23432e-15
-2.48412e-15
-4.7462e-15
8.04912e-16
-1.2032e-14
1.01308e-15
-6.20337e-15
-2.30371e-15
-4.71845e-16
1.19627e-14
7.06379e-15
-3.33067e-15
-6.8695e-15
-1.7486e-15
2.38698e-15
3.19189e-16
-8.32667e-16
2.2482e-15
3.26128e-15
4.28824e-15
1.94289e-16
-4.85723e-16
2.53964e-15
-6.73073e-15
-1.09773e-14
-2.80331e-15
5.6205e-15
1.66533e-16
8.50708e-15
-4.30211e-16
-1.14769e-14
-9.07607e-15
-2.8727e-15
-7.53564e-15
3.81639e-15
-7.63278e-15
5.68989e-15
-4.21885e-15
-7.17482e-15
-7.14706e-15
-8.60423e-16
-7.95197e-15
9.10383e-15
-1.33227e-15
1.94289e-15
6.43929e-15
-6.70297e-15
3.78864e-15
-2.31759e-15
2.77556e-16
-2.59515e-15
3.67761e-15
1.09912e-14
1.19349e-15
4.64906e-15
9.99201e-16
-2.02616e-15
-3.34455e-15
-4.7462e-15
2.72005e-15
-4.39926e-15
8.22953e-15
9.54792e-15
-4.84335e-15
8.50708e-15
-2.66454e-15
2.02616e-15
2.65066e-15
5.8703e-15
-4.14946e-15
1.11022e-16
8.74301e-16
2.04003e-15
7.91034e-16
-1.22125e-15
-8.85403e-15
1.98452e-15
-9.65894e-15
-1.38778e-16
2.65066e-15
-1.41553e-15
-1.79023e-15
8.32667e-15
4.91274e-15
1.52656e-14
8.8124e-15
-6.25888e-15
3.83027e-15
-6.38378e-16
5.96745e-16
8.49321e-15
1.04083e-14
1.19349e-15
6.38378e-15
-1.91513e-15
5.52336e-15
2.16493e-15
5.89806e-15
2.70617e-15
1.11161e-14
8.49321e-15
7.17482e-15
-8.46545e-15
3.69149e-15
1.97065e-15
-7.28584e-15
-4.13558e-15
-5.59275e-15
4.01068e-15
2.44249e-15
-3.53884e-15
2.08167e-16
-1.2837e-14
2.72005e-15
-2.80331e-15
-1.7486e-15
6.81399e-15
2.6229e-15
2.19269e-15
-9.07607e-15
6.55032e-15
-8.18789e-16
-9.60343e-15
9.50628e-15
-1.90126e-15
2.41474e-15
1.40166e-15
3.59435e-15
2.16493e-15
-2.40086e-15
-9.49241e-15
-8.50708e-15
7.91034e-16
-4.32987e-15
4.91274e-15
1.35586e-14
-6.89726e-15
1.02696e-14
-8.89566e-15
-9.29812e-16
1.19765e-14
8.95117e-15
-2.63678e-15
3.48332e-15
-4.10783e-15
-3.71925e-15
3.92741e-15
-1.17822e-14
-1.00753e-14
2.22045e-16
-1.38778e-16
-2.9976e-15
1.80411e-15
-2.56739e-15
-3.20577e-15
-2.88658e-15
-2.02616e-15
3.46945e-16
-5.73153e-15
-4.996e-15
-4.1217e-15
6.27276e-15
1.95677e-15
5.73153e-15
-2.08167e-15
-1.66533e-16
7.13318e-15
6.64746e-15
-5.42622e-15
-7.21645e-15
5.7454e-15
-1.27676e-15
1.50574e-14
2.498e-15
8.74301e-16
5.81479e-15
2.51188e-15
-6.93889e-15
3.85803e-15
-1.33227e-15
-3.16414e-15
-8.57647e-15
1.42941e-15
-7.27196e-15
2.92821e-15
2.63678e-16
-3.42781e-15
-4.03844e-15
-2.66454e-15
9.57567e-16
8.36831e-15
1.35864e-14
4.02456e-16
5.48173e-15
-4.02456e-16
-1.48215e-14
5.78704e-15
-6.32827e-15
8.00748e-15
9.29812e-16
-7.78544e-15
-8.07687e-15
5.25968e-15
-3.80251e-15
2.498e-15
4.16334e-15
-5.7454e-15
1.15186e-14
8.89566e-15
-3.41394e-15
-3.91354e-15
-3.19189e-15
-1.67921e-15
1.14214e-14
8.02136e-15
-2.70617e-15
-3.89966e-15
-4.19109e-15
1.1921e-14
-4.20497e-15
-1.85962e-15
-1.16573e-14
1.04083e-15
-1.97065e-15
5.6205e-15
-2.77556e-16
1.3739e-15
-7.42462e-15
7.10543e-15
5.34295e-15
-5.55112e-15
1.13798e-15
-6.92502e-15
7.41074e-15
-2.56739e-15
-3.60822e-15
-5.19029e-15
7.09155e-15
3.58047e-15
2.42861e-15
3.71925e-15
1.27537e-14
5.92582e-15
3.16414e-15
1.02696e-15
-7.52176e-15
-1.11022e-15
1.4988e-15
-2.44249e-15
-4.44089e-16
-8.79852e-15
2.94209e-15
6.13398e-15
-7.68829e-15
4.71845e-15
1.18516e-14
-1.04639e-14
1.2379e-14
2.2482e-15
2.35922e-15
1.38778e-15
1.63758e-15
-1.09635e-14
-3.02536e-15
5.21805e-15
2.10942e-15
1.08247e-14
-5.82867e-15
2.55351e-15
1.05471e-15
6.68909e-15
2.05391e-15
-4.02456e-15
-1.36557e-14
-7.27196e-15
2.69229e-15
4.44089e-15
-2.13718e-15
-8.07687e-15
5.9952e-15
5.52336e-15
8.02136e-15
1.60982e-15
-7.13318e-15
-7.68829e-15
-1.44329e-15
1.13798e-15
7.96585e-15
-1.02696e-14
-8.24341e-15
6.93889e-16
4.21885e-15
6.30052e-15
-9.1871e-15
3.88578e-16
-1.66533e-16
2.77556e-16
-2.35922e-15
-3.747e-15
1.4988e-15
-3.02536e-15
-9.60343e-15
-2.60902e-15
2.33147e-15
4.44089e-16
6.66134e-15
8.32667e-16
5.82867e-16
6.16174e-15
2.7478e-15
7.79932e-15
-1.10745e-14
-8.02136e-15
4.91274e-15
-7.74381e-15
-9.29812e-15
1.0103e-14
-1.28508e-14
-3.4972e-15
-1.52656e-15
-5.27356e-15
2.38698e-15
8.60423e-16
-8.04912e-16
-1.9984e-15
-2.77556e-15
-4.4964e-15
4.69069e-15
-6.18949e-15
2.88658e-15
-2.2482e-15
-9.71445e-16
7.99361e-15
1.11022e-14
3.13638e-15
1.19349e-15
-1.85962e-15
9.63118e-15
-1.58207e-15
2.30371e-15
-2.52576e-15
9.71445e-16
-1.63758e-15
4.52416e-15
5.32907e-15
2.96985e-15
-5.82867e-15
2.38698e-15
4.44089e-15
6.05072e-15
-3.19189e-15
-9.85323e-15
-3.08087e-15
-2.77556e-16
4.71845e-15
5.7454e-15
9.99201e-16
3.30291e-15
6.68909e-15
-3.16414e-15
4.77396e-15
5.32907e-15
-2.22045e-15
3.88578e-16
9.4369e-16
-2.33147e-15
-3.27516e-15
-4.63518e-15
-2.83107e-15
-1.94289e-16
8.32667e-17
2.05391e-15
4.44089e-15
5.55112e-16
9.38138e-15
6.7446e-15
-6.10623e-15
3.9968e-15
7.07767e-15
-2.02616e-15
9.21485e-15
-3.80251e-15
5.96745e-15
2.30371e-15
-2.44249e-15
-4.05231e-15
1.41553e-15
-9.52016e-15
6.4948e-15
4.71845e-16
-5.55112e-16
-8.43769e-15
-8.60423e-15
-3.80251e-15
1.13798e-15
-3.94129e-15
4.77396e-15
-1.03528e-14
2.44249e-15
-7.57727e-15
8.90954e-15
-1.88738e-15
1.249e-15
3.02536e-15
-2.10942e-15
1.08247e-15
9.9365e-15
-6.60583e-15
3.60822e-15
-1.41553e-15
4.94049e-15
7.49401e-15
-4.32987e-15
-1.66533e-16
-3.05311e-16
-9.57567e-15
3.63598e-15
-6.82787e-15
-2.91434e-15
4.05231e-15
-4.52416e-15
-2.9976e-15
2.96985e-15
-4.38538e-15
-1.30451e-15
5.60663e-15
4.08007e-15
4.44089e-15
5.2458e-15
-1.33227e-15
-9.52016e-15
1.47105e-15
-5.52336e-15
-4.69069e-15
-5.32907e-15
-1.85962e-15
1.94289e-15
-2.80331e-15
-2.30371e-15
1.16573e-14
-6.30052e-15
9.57567e-15
-1.22125e-15
-9.15934e-16
-3.19189e-15
1.97065e-15
-3.83027e-15
1.09912e-14
-1.00475e-14
-2.33147e-15
4.71845e-16
1.50435e-14
3.33067e-15
1.55431e-15
-5.27356e-16
4.32987e-15
-5.91194e-15
6.55032e-15
2.66454e-15
4.08007e-15
-6.66134e-15
4.55191e-15
-2.66454e-15
4.30211e-15
3.66374e-15
-1.58207e-15
-6.27276e-15
6.38378e-16
-1.33227e-15
-7.77156e-16
-1.9984e-15
-5.05151e-15
7.77156e-16
3.60822e-15
-5.44009e-15
4.80171e-15
-3.46945e-15
8.16014e-15
-2.9976e-15
-1.17129e-14
3.08087e-15
6.05072e-15
2.55351e-15
6.16174e-15
-1.83187e-15
-7.43849e-15
-4.27436e-15
-9.60343e-15
-7.24421e-15
7.71605e-15
7.79932e-15
7.77156e-16
4.4964e-15
1.02696e-15
2.66454e-15
5.82867e-16
-7.49401e-16
1.88738e-15
-6.41154e-15
-5.41234e-15
3.35842e-15
-6.4948e-15
1.19349e-15
-7.93809e-15
-5.82867e-16
8.32667e-17
-1.38778e-16
-1.04083e-14
1.44051e-14
1.91513e-15
-5.10703e-15
-4.82947e-15
3.4972e-15
-6.57807e-15
-4.02456e-15
-6.16174e-15
8.02136e-15
-3.33067e-16
-5.44009e-15
7.29972e-15
3.19189e-15
-3.83027e-15
-4.16334e-16
-1.33782e-14
-4.38538e-15
1.47105e-15
4.7462e-15
6.93889e-16
1.55431e-15
3.85803e-15
-4.77396e-15
-2.91434e-15
4.02456e-15
-1.60982e-15
-1.94289e-15
-8.88178e-15
1.36002e-15
-7.63278e-15
2.66454e-15
5.21805e-15
-1.52656e-15
-9.04832e-15
-2.83107e-15
-4.02456e-15
8.43769e-15
-2.72005e-15
1.33227e-15
1.61537e-14
1.00475e-14
-1.14353e-14
-2.91434e-15
-2.72005e-15
1.97065e-15
-3.88578e-16
-2.02616e-15
2.66454e-15
1.94289e-15
-2.498e-15
2.2482e-15
-8.35443e-15
5.27356e-16
4.21885e-15
-4.38538e-15
3.46945e-15
9.13158e-15
3.60822e-16
-4.16334e-15
2.7478e-15
-1.18239e-14
-1.38778e-16
4.44089e-15
-2.38698e-15
-4.21885e-15
2.22045e-16
2.88658e-15
6.05072e-15
-6.43929e-15
-4.19109e-15
5.55112e-17
-6.16174e-15
-1.91513e-15
-4.44089e-15
5.55112e-17
1.2268e-14
4.7462e-15
6.10623e-16
-4.55191e-15
-1.88738e-15
5.55112e-17
-5.80092e-15
4.66294e-15
8.63198e-15
-4.16334e-15
-7.21645e-16
4.52416e-15
8.21565e-15
-2.55351e-15
3.58047e-15
1.91513e-15
3.88578e-15
-9.4369e-16
4.46865e-15
-6.99441e-15
1.66533e-16
-3.05311e-15
4.05231e-15
1.38778e-16
-1.2601e-14
-1.31561e-14
7.57727e-15
6.35603e-15
3.52496e-15
-6.46705e-15
2.02616e-15
7.82707e-15
-3.58047e-15
2.498e-16
6.63358e-15
5.57887e-15
4.80171e-15
5.82867e-16
-6.88338e-15
9.71445e-16
-2.52576e-15
-9.38138e-15
3.77476e-15
6.41154e-15
-4.41314e-15
1.03251e-14
2.72005e-15
3.35842e-15
2.22045e-16
1.52656e-15
1.04083e-14
1.02696e-15
-1.30451e-15
1.30451e-15
8.04912e-15
1.02696e-15
1.83187e-15
-3.05311e-16
8.79852e-15
3.2474e-15
-4.71845e-15
-5.60663e-15
-8.60423e-16
9.9365e-15
-4.16334e-15
-6.38378e-16
-2.19269e-15
2.85882e-15
-6.68909e-15
-1.44329e-15
1.97065e-15
4.7462e-15
-5.63438e-15
7.49401e-16
-8.32667e-17
-2.96985e-15
1.69309e-15
-5.9952e-15
-5.07927e-15
8.57647e-15
-1.94289e-16
-5.19029e-15
4.4964e-15
3.60822e-16
6.68909e-15
8.07687e-15
-6.35603e-15
-8.54872e-15
3.52496e-15
4.35763e-15
1.30451e-15
-4.96825e-15
1.52656e-15
-3.21965e-15
-9.32587e-15
-9.04832e-15
2.77556e-16
-1.66533e-16
5.66214e-15
1.05471e-15
6.96665e-15
1.30451e-15
-5.38458e-15
-3.60822e-15
2.498e-15
-6.77236e-15
-8.32667e-17
-1.01308e-14
-1.69309e-15
-1.9984e-15
-9.13158e-15
-3.4972e-15
1.47105e-15
-9.15934e-16
-1.03806e-14
-8.43769e-15
-1.7486e-15
-1.47105e-15
-2.41474e-15
-2.9976e-15
5.55112e-17
7.91034e-15
4.71845e-15
-1.16573e-14
8.07687e-15
-3.46945e-15
7.74381e-15
-4.60743e-15
-6.10623e-16
-7.57727e-15
-2.22045e-15
-3.30291e-15
5.88418e-15
-1.9984e-15
2.27596e-15
3.77476e-15
-3.94129e-15
3.38618e-15
1.9984e-15
-3.16414e-15
9.27036e-15
6.91114e-15
-5.68989e-15
-3.80251e-15
2.77556e-16
3.41394e-15
7.91034e-15
7.54952e-15
-4.08007e-15
2.77556e-17
-4.2466e-15
-2.498e-16
2.16493e-15
7.21645e-16
7.07767e-15
4.66294e-15
-4.05231e-15
-4.66294e-15
-3.69149e-15
-1.08247e-15
-4.88498e-15
1.97065e-15
4.16334e-15
1.22125e-15
-4.16334e-16
2.02616e-15
2.77556e-16
7.32747e-15
3.66374e-15
-3.46945e-15
4.69069e-15
-3.88578e-16
8.32667e-17
2.91434e-15
1.06304e-14
8.79852e-15
3.30291e-15
-5.68989e-15
-4.02456e-15
3.30291e-15
3.63598e-15
-5.77316e-15
-5.91194e-15
7.49401e-15
-2.27596e-15
5.85643e-15
-7.38298e-15
1.77636e-15
3.41394e-15
9.49241e-15
1.88738e-15
7.77156e-16
-5.4956e-15
2.7478e-15
-2.77556e-15
-1.05471e-15
-3.33067e-16
-2.77556e-16
-3.63598e-15
-5.96745e-15
-1.28231e-14
-3.16414e-15
6.21725e-15
4.27436e-15
-9.99201e-16
-5.16254e-15
-3.44169e-15
-1.04916e-14
-7.21645e-16
-4.66294e-15
-1.83187e-15
-3.88578e-16
6.32827e-15
-1.27676e-15
-1.04916e-14
4.4964e-15
1.11022e-15
5.10703e-15
1.66533e-15
-3.88578e-16
5.4956e-15
4.27436e-15
-5.55112e-16
-7.43849e-15
9.99201e-16
1.88738e-15
0
-5.55112e-16
3.88578e-15
8.82627e-15
1.60982e-15
6.16174e-15
5.55112e-17
-3.4972e-15
-4.21885e-15
9.99201e-16
-1.11022e-16
6.66134e-15
-7.77156e-16
2.77556e-16
-3.83027e-15
-9.99201e-16
6.43929e-15
-7.21645e-16
4.996e-16
-9.27036e-15
1.22125e-15
3.21965e-15
-1.11022e-16
-5.4956e-15
-2.44249e-15
5.55112e-17
6.66134e-16
-4.05231e-15
5.16254e-15
-2.9976e-15
-5.16254e-15
2.16493e-15
-1.55431e-15
8.16014e-15
1.9984e-15
2.27596e-15
-5.60663e-15
-3.94129e-15
-1.16573e-15
6.27276e-15
7.21645e-16
8.38218e-15
2.498e-15
2.72005e-15
4.82947e-15
-3.33067e-16
-4.4964e-15
6.43929e-15
7.82707e-15
-6.38378e-15
-2.88658e-15
-5.38458e-15
-1.11022e-16
4.44089e-16
-5.32907e-15
-3.38618e-15
2.66454e-15
9.4369e-15
5.16254e-15
-4.05231e-15
4.10783e-15
-7.54952e-15
-1.55431e-15
-8.65974e-15
-7.04992e-15
2.66454e-15
-2.66454e-15
5.88418e-15
-1.55431e-15
4.27436e-15
-1.44329e-15
-3.88578e-15
3.60822e-15
-3.10862e-15
1.94289e-15
6.21725e-15
-2.88658e-15
7.21645e-16
-2.38698e-15
1.04916e-14
-5.55112e-16
-1.83187e-15
-3.33067e-16
6.88338e-15
-3.05311e-15
-4.32987e-15
4.82947e-15
3.4972e-15
-4.44089e-16
1.88738e-15
2.9976e-15
1.27676e-15
1.00475e-14
-3.88578e-16
4.44089e-15
-1.83187e-15
5.4956e-15
6.77236e-15
3.55271e-15
-1.66533e-15
9.4369e-16
-7.60503e-15
-2.22045e-15
4.996e-16
3.9968e-15
5.55112e-16
-6.66134e-16
-5.88418e-15
-1.44329e-15
9.4369e-16
4.05231e-15
5.71765e-15
3.94129e-15
-5.10703e-15
2.9976e-15
-5.55112e-16
1.77636e-15
4.44089e-16
-4.10783e-15
9.27036e-15
-3.71925e-15
1.14908e-14
-1.66533e-16
7.82707e-15
5.66214e-15
-7.27196e-15
2.22045e-15
-1.04361e-14
1.16573e-15
-3.27516e-15
6.16174e-15
4.16334e-15
1.60982e-15
5.44009e-15
-2.10942e-15
-3.94129e-15
-5.60663e-15
2.66454e-15
3.71925e-15
-1.22125e-15
1.44329e-15
-5.93969e-15
3.88578e-16
-2.66454e-15
8.16014e-15
2.94209e-15
-5.66214e-15
3.27516e-15
-9.4369e-16
1.11022e-15
-1.11022e-15
-4.4964e-15
-7.93809e-15
2.77556e-16
1.11022e-15
6.10623e-16
-5.55112e-17
-7.77156e-15
-4.82947e-15
1.88738e-15
3.60822e-15
7.21645e-15
1.16573e-15
-2.72005e-15
-5.9952e-15
-4.44089e-16
4.4964e-15
4.77396e-15
-2.88658e-15
2.16493e-15
-8.32667e-16
-6.77236e-15
-5.60663e-15
-1.11022e-16
-5.4956e-15
-4.55191e-15
4.996e-16
-3.4972e-15
6.66134e-16
-9.49241e-15
3.71925e-15
-6.71685e-15
-1.9984e-15
-2.16493e-15
-3.66374e-15
5.16254e-15
-1.4988e-15
8.60423e-15
-2.77556e-15
0
-2.33147e-15
-3.4972e-15
-7.21645e-15
-5.55112e-16
-1.44329e-15
1.22125e-15
5.93969e-15
-6.77236e-15
5.55112e-16
2.498e-15
1.66533e-15
3.38618e-15
-4.996e-16
-8.88178e-16
-3.77476e-15
-3.71925e-15
-1.60982e-15
-5.66214e-15
8.32667e-16
-2.77556e-15
5.66214e-15
3.66374e-15
2.27596e-15
-3.16414e-15
-5.38458e-15
1.16573e-15
-2.88658e-15
-9.4369e-16
4.10783e-15
-4.77396e-15
-2.33147e-15
-7.99361e-15
2.77556e-16
3.38618e-15
4.38538e-15
2.88658e-15
-3.88578e-16
-3.33067e-16
-2.38698e-15
-4.38538e-15
-3.9968e-15
4.94049e-15
3.60822e-15
8.21565e-15
2.83107e-15
8.65974e-15
-5.88418e-15
3.21965e-15
-4.44089e-15
-1.33227e-15
4.27436e-15
2.88658e-15
-1.66533e-16
-1.38778e-15
7.21645e-16
3.66374e-15
2.16493e-15
-2.88658e-15
6.32827e-15
4.05231e-15
1.72085e-15
2.66454e-15
5.05151e-15
-3.38618e-15
1.22125e-15
1.66533e-16
9.99201e-16
2.77556e-16
-9.4369e-16
-4.4964e-15
-3.33067e-16
-1.16573e-15
-5.55112e-16
-5.4956e-15
3.33067e-15
8.16014e-15
7.77156e-16
2.72005e-15
-4.996e-16
-2.22045e-15
-4.71845e-15
1.44329e-15
-4.44089e-16
4.996e-16
-4.44089e-16
-6.32827e-15
-5.32907e-15
6.55032e-15
-1.11022e-15
4.88498e-15
-3.9968e-15
5.38458e-15
-2.88658e-15
-3.10862e-15
-5.60663e-15
-3.38618e-15
-4.21885e-15
-1.83187e-15
1.4988e-15
-3.27516e-15
6.38378e-15
0
-2.83107e-15
-7.10543e-15
3.77476e-15
-3.71925e-15
7.71605e-15
0
7.60503e-15
3.05311e-15
-1.66533e-15
4.10783e-15
8.32667e-16
3.38618e-15
1.72085e-15
-7.82707e-15
1.88738e-15
3.33067e-16
-2.83107e-15
9.99201e-16
8.88178e-16
-1.16573e-15
5.93969e-15
5.77316e-15
-2.88658e-15
-3.27516e-15
-1.72085e-15
-3.33067e-16
-3.55271e-15
5.05151e-15
5.55112e-17
2.38698e-15
-3.83027e-15
5.93969e-15
-6.43929e-15
-1.55431e-15
3.9968e-15
-4.4964e-15
5.55112e-16
5.77316e-15
3.55271e-15
-3.55271e-15
-3.05311e-15
-1.11022e-15
4.66294e-15
5.27356e-15
3.38618e-15
-9.65894e-15
-1.27676e-15
-3.10862e-15
-8.88178e-16
4.05231e-15
2.9976e-15
2.33147e-15
2.33147e-15
-1.55431e-15
3.33067e-16
1.33227e-15
2.33147e-15
3.21965e-15
-2.55351e-15
-5.05151e-15
-1.33227e-15
0
-6.99441e-15
-3.27516e-15
-8.82627e-15
-1.22125e-15
-9.21485e-15
3.4972e-15
-2.88658e-15
-4.16334e-15
-3.77476e-15
-1.22125e-15
-3.88578e-16
5.77316e-15
-4.21885e-15
2.77556e-15
2.66454e-15
-1.9984e-15
-1.77636e-15
-2.16493e-15
-6.93889e-15
-1.88738e-15
2.88658e-15
5.27356e-15
-5.27356e-15
1.16573e-15
4.60743e-15
-5.21805e-15
-9.99201e-16
-1.88738e-15
3.33067e-15
-3.94129e-15
5.32907e-15
3.88578e-16
3.4972e-15
2.44249e-15
-3.88578e-16
-6.27276e-15
-2.22045e-15
5.55112e-17
8.27116e-15
3.60822e-15
-3.38618e-15
-8.32667e-16
5.55112e-17
4.16334e-15
-1.94289e-15
2.60902e-15
8.32667e-15
-3.88578e-15
-6.10623e-16
-1.94289e-15
-2.9976e-15
3.88578e-15
1.22125e-15
-1.16573e-15
-6.21725e-15
-5.55112e-17
-7.99361e-15
6.32827e-15
3.77476e-15
8.04912e-15