/*--------------------------------*- C++ -*----------------------------------*\
| =========                 |                                                 |
| \\      /  F ield         | foam-extend: Open Source CFD                    |
|  \\    /   O peration     | Version:     4.0                                |
|   \\  /    A nd           | Web:         http://www.foam-extend.org         |
|    \\/     M anipulation  |                                                 |
\*---------------------------------------------------------------------------*/
FoamFile
{
    version     2.0;
    format      ascii;
    class       volScalarField;
    location    "1190";
    object      cPlus;
}
// * * * * * * * * * * * * * * * * * * * * * * * * * * * * * * * * * * * * * //

dimensions      [0 0 0 0 0 0 0];

internalField   nonuniform List<scalar> 
6960
(
0.354505
0.354505
0.354505
0.354505
0.354505
0.354504
0.354504
0.354504
0.354504
0.354504
0.354504
0.354504
0.354504
0.354504
0.354503
0.354503
0.354503
0.354503
0.354503
0.354503
0.354503
0.354503
0.354503
0.354503
0.354503
0.354503
0.354503
0.354503
0.354503
0.354503
0.354503
0.354503
0.354503
0.354503
0.354503
0.354503
0.354503
0.354503
0.354503
0.354503
0.354503
0.354503
0.354503
0.354503
0.354503
0.354503
0.354504
0.354504
0.354504
0.354504
0.354504
0.354504
0.354504
0.354504
0.354504
0.354505
0.354505
0.354505
0.354505
0.354505
0.129874
0.129874
0.129874
0.129874
0.129874
0.129874
0.129874
0.129874
0.129874
0.129873
0.129873
0.129873
0.129873
0.129873
0.129873
0.129873
0.129873
0.129873
0.129873
0.129873
0.129873
0.129873
0.129873
0.129873
0.129873
0.129873
0.129873
0.129873
0.129873
0.129873
0.129873
0.129873
0.129873
0.129873
0.129873
0.129873
0.129873
0.129873
0.129873
0.129873
0.129873
0.129873
0.129873
0.129873
0.129873
0.129873
0.129873
0.129873
0.129873
0.129873
0.129873
0.129874
0.129874
0.129874
0.129874
0.129874
0.129874
0.129874
0.129874
0.129874
0.0563574
0.0563573
0.0563572
0.0563571
0.056357
0.056357
0.0563569
0.0563568
0.0563567
0.0563567
0.0563566
0.0563566
0.0563565
0.0563564
0.0563564
0.0563564
0.0563563
0.0563563
0.0563562
0.0563562
0.0563562
0.0563562
0.0563561
0.0563561
0.0563561
0.0563561
0.0563561
0.0563561
0.0563561
0.0563561
0.0563561
0.0563561
0.0563561
0.0563561
0.0563561
0.0563561
0.0563561
0.0563561
0.0563562
0.0563562
0.0563562
0.0563562
0.0563563
0.0563563
0.0563564
0.0563564
0.0563564
0.0563565
0.0563566
0.0563566
0.0563567
0.0563567
0.0563568
0.0563569
0.056357
0.056357
0.0563571
0.0563572
0.0563573
0.0563574
0.0267669
0.0267669
0.0267668
0.0267668
0.0267667
0.0267667
0.0267666
0.0267666
0.0267665
0.0267665
0.0267665
0.0267664
0.0267664
0.0267664
0.0267663
0.0267663
0.0267663
0.0267663
0.0267662
0.0267662
0.0267662
0.0267662
0.0267662
0.0267662
0.0267662
0.0267661
0.0267661
0.0267661
0.0267661
0.0267661
0.0267661
0.0267661
0.0267661
0.0267661
0.0267661
0.0267662
0.0267662
0.0267662
0.0267662
0.0267662
0.0267662
0.0267662
0.0267663
0.0267663
0.0267663
0.0267663
0.0267664
0.0267664
0.0267664
0.0267665
0.0267665
0.0267665
0.0267666
0.0267666
0.0267667
0.0267667
0.0267668
0.0267668
0.0267669
0.0267669
0.0138524
0.0138524
0.0138524
0.0138523
0.0138523
0.0138523
0.0138522
0.0138522
0.0138522
0.0138522
0.0138522
0.0138521
0.0138521
0.0138521
0.0138521
0.0138521
0.0138521
0.013852
0.013852
0.013852
0.013852
0.013852
0.013852
0.013852
0.013852
0.013852
0.013852
0.013852
0.013852
0.013852
0.013852
0.013852
0.013852
0.013852
0.013852
0.013852
0.013852
0.013852
0.013852
0.013852
0.013852
0.013852
0.013852
0.0138521
0.0138521
0.0138521
0.0138521
0.0138521
0.0138521
0.0138522
0.0138522
0.0138522
0.0138522
0.0138522
0.0138523
0.0138523
0.0138523
0.0138524
0.0138524
0.0138524
0.00806482
0.00806482
0.00806481
0.00806479
0.00806478
0.00806477
0.00806476
0.00806475
0.00806474
0.00806473
0.00806472
0.00806471
0.0080647
0.0080647
0.00806469
0.00806468
0.00806468
0.00806467
0.00806467
0.00806466
0.00806466
0.00806466
0.00806465
0.00806465
0.00806465
0.00806465
0.00806464
0.00806464
0.00806464
0.00806464
0.00806464
0.00806464
0.00806464
0.00806464
0.00806465
0.00806465
0.00806465
0.00806465
0.00806466
0.00806466
0.00806466
0.00806467
0.00806467
0.00806468
0.00806468
0.00806469
0.0080647
0.0080647
0.00806471
0.00806472
0.00806473
0.00806474
0.00806475
0.00806476
0.00806477
0.00806478
0.00806479
0.00806481
0.00806482
0.00806482
0.00547274
0.00547274
0.00547274
0.00547274
0.00547273
0.00547273
0.00547273
0.00547273
0.00547273
0.00547273
0.00547272
0.00547272
0.00547272
0.00547272
0.00547272
0.00547272
0.00547272
0.00547272
0.00547272
0.00547271
0.00547271
0.00547271
0.00547271
0.00547271
0.00547271
0.00547271
0.00547271
0.00547271
0.00547271
0.00547271
0.00547271
0.00547271
0.00547271
0.00547271
0.00547271
0.00547271
0.00547271
0.00547271
0.00547271
0.00547271
0.00547271
0.00547272
0.00547272
0.00547272
0.00547272
0.00547272
0.00547272
0.00547272
0.00547272
0.00547272
0.00547273
0.00547273
0.00547273
0.00547273
0.00547273
0.00547273
0.00547274
0.00547274
0.00547274
0.00547274
0.00433144
0.00433145
0.00433145
0.00433146
0.00433146
0.00433147
0.00433147
0.00433147
0.00433148
0.00433148
0.00433148
0.00433148
0.00433149
0.00433149
0.00433149
0.00433149
0.0043315
0.0043315
0.0043315
0.0043315
0.0043315
0.0043315
0.0043315
0.0043315
0.0043315
0.00433151
0.00433151
0.00433151
0.00433151
0.00433151
0.00433151
0.00433151
0.00433151
0.00433151
0.00433151
0.0043315
0.0043315
0.0043315
0.0043315
0.0043315
0.0043315
0.0043315
0.0043315
0.0043315
0.00433149
0.00433149
0.00433149
0.00433149
0.00433148
0.00433148
0.00433148
0.00433148
0.00433147
0.00433147
0.00433147
0.00433146
0.00433146
0.00433145
0.00433145
0.00433144
0.00384553
0.00384554
0.00384554
0.00384555
0.00384556
0.00384557
0.00384557
0.00384558
0.00384558
0.00384559
0.0038456
0.0038456
0.0038456
0.00384561
0.00384561
0.00384562
0.00384562
0.00384562
0.00384563
0.00384563
0.00384563
0.00384563
0.00384563
0.00384564
0.00384564
0.00384564
0.00384564
0.00384564
0.00384564
0.00384564
0.00384564
0.00384564
0.00384564
0.00384564
0.00384564
0.00384564
0.00384564
0.00384563
0.00384563
0.00384563
0.00384563
0.00384563
0.00384562
0.00384562
0.00384562
0.00384561
0.00384561
0.0038456
0.0038456
0.0038456
0.00384559
0.00384558
0.00384558
0.00384557
0.00384557
0.00384556
0.00384555
0.00384554
0.00384554
0.00384553
0.00365183
0.00365184
0.00365185
0.00365186
0.00365187
0.00365188
0.00365188
0.00365189
0.0036519
0.00365191
0.00365191
0.00365192
0.00365192
0.00365193
0.00365193
0.00365194
0.00365194
0.00365195
0.00365195
0.00365195
0.00365196
0.00365196
0.00365196
0.00365196
0.00365196
0.00365197
0.00365197
0.00365197
0.00365197
0.00365197
0.00365197
0.00365197
0.00365197
0.00365197
0.00365197
0.00365196
0.00365196
0.00365196
0.00365196
0.00365196
0.00365195
0.00365195
0.00365195
0.00365194
0.00365194
0.00365193
0.00365193
0.00365192
0.00365192
0.00365191
0.00365191
0.0036519
0.00365189
0.00365188
0.00365188
0.00365187
0.00365186
0.00365185
0.00365184
0.00365183
0.00358645
0.00358646
0.00358647
0.00358648
0.00358649
0.0035865
0.00358651
0.00358652
0.00358652
0.00358653
0.00358654
0.00358655
0.00358655
0.00358656
0.00358656
0.00358657
0.00358657
0.00358658
0.00358658
0.00358658
0.00358659
0.00358659
0.00358659
0.00358659
0.0035866
0.0035866
0.0035866
0.0035866
0.0035866
0.0035866
0.0035866
0.0035866
0.0035866
0.0035866
0.0035866
0.0035866
0.00358659
0.00358659
0.00358659
0.00358659
0.00358658
0.00358658
0.00358658
0.00358657
0.00358657
0.00358656
0.00358656
0.00358655
0.00358655
0.00358654
0.00358653
0.00358652
0.00358652
0.00358651
0.0035865
0.00358649
0.00358648
0.00358647
0.00358646
0.00358645
0.00357675
0.00357676
0.00357678
0.00357679
0.0035768
0.00357681
0.00357682
0.00357682
0.00357683
0.00357684
0.00357685
0.00357685
0.00357686
0.00357687
0.00357687
0.00357688
0.00357688
0.00357689
0.00357689
0.00357689
0.0035769
0.0035769
0.0035769
0.00357691
0.00357691
0.00357691
0.00357691
0.00357691
0.00357691
0.00357691
0.00357691
0.00357691
0.00357691
0.00357691
0.00357691
0.00357691
0.00357691
0.0035769
0.0035769
0.0035769
0.00357689
0.00357689
0.00357689
0.00357688
0.00357688
0.00357687
0.00357687
0.00357686
0.00357685
0.00357685
0.00357684
0.00357683
0.00357682
0.00357682
0.00357681
0.0035768
0.00357679
0.00357678
0.00357676
0.00357675
0.00359127
0.00359128
0.00359129
0.0035913
0.00359131
0.00359132
0.00359133
0.00359134
0.00359135
0.00359136
0.00359136
0.00359137
0.00359138
0.00359138
0.00359139
0.00359139
0.0035914
0.0035914
0.00359141
0.00359141
0.00359142
0.00359142
0.00359142
0.00359142
0.00359143
0.00359143
0.00359143
0.00359143
0.00359143
0.00359143
0.00359143
0.00359143
0.00359143
0.00359143
0.00359143
0.00359143
0.00359142
0.00359142
0.00359142
0.00359142
0.00359141
0.00359141
0.0035914
0.0035914
0.00359139
0.00359139
0.00359138
0.00359138
0.00359137
0.00359136
0.00359136
0.00359135
0.00359134
0.00359133
0.00359132
0.00359131
0.0035913
0.00359129
0.00359128
0.00359127
0.0036167
0.00361671
0.00361672
0.00361673
0.00361674
0.00361675
0.00361676
0.00361677
0.00361678
0.00361679
0.0036168
0.0036168
0.00361681
0.00361682
0.00361682
0.00361683
0.00361683
0.00361684
0.00361684
0.00361685
0.00361685
0.00361685
0.00361685
0.00361686
0.00361686
0.00361686
0.00361686
0.00361686
0.00361686
0.00361686
0.00361686
0.00361686
0.00361686
0.00361686
0.00361686
0.00361686
0.00361686
0.00361685
0.00361685
0.00361685
0.00361685
0.00361684
0.00361684
0.00361683
0.00361683
0.00361682
0.00361682
0.00361681
0.0036168
0.0036168
0.00361679
0.00361678
0.00361677
0.00361676
0.00361675
0.00361674
0.00361673
0.00361672
0.00361671
0.0036167
0.00364762
0.00364763
0.00364764
0.00364765
0.00364767
0.00364768
0.00364769
0.0036477
0.0036477
0.00364771
0.00364772
0.00364773
0.00364773
0.00364774
0.00364775
0.00364775
0.00364776
0.00364776
0.00364777
0.00364777
0.00364777
0.00364778
0.00364778
0.00364778
0.00364778
0.00364779
0.00364779
0.00364779
0.00364779
0.00364779
0.00364779
0.00364779
0.00364779
0.00364779
0.00364779
0.00364778
0.00364778
0.00364778
0.00364778
0.00364777
0.00364777
0.00364777
0.00364776
0.00364776
0.00364775
0.00364775
0.00364774
0.00364773
0.00364773
0.00364772
0.00364771
0.0036477
0.0036477
0.00364769
0.00364768
0.00364767
0.00364765
0.00364764
0.00364763
0.00364762
0.00368193
0.00368194
0.00368195
0.00368197
0.00368198
0.00368199
0.003682
0.00368201
0.00368202
0.00368202
0.00368203
0.00368204
0.00368205
0.00368205
0.00368206
0.00368206
0.00368207
0.00368207
0.00368208
0.00368208
0.00368209
0.00368209
0.00368209
0.00368209
0.0036821
0.0036821
0.0036821
0.0036821
0.0036821
0.0036821
0.0036821
0.0036821
0.0036821
0.0036821
0.0036821
0.0036821
0.00368209
0.00368209
0.00368209
0.00368209
0.00368208
0.00368208
0.00368207
0.00368207
0.00368206
0.00368206
0.00368205
0.00368205
0.00368204
0.00368203
0.00368202
0.00368202
0.00368201
0.003682
0.00368199
0.00368198
0.00368197
0.00368195
0.00368194
0.00368193
0.0037189
0.00371892
0.00371893
0.00371894
0.00371895
0.00371896
0.00371897
0.00371898
0.00371899
0.003719
0.00371901
0.00371902
0.00371902
0.00371903
0.00371904
0.00371904
0.00371905
0.00371905
0.00371906
0.00371906
0.00371906
0.00371907
0.00371907
0.00371907
0.00371907
0.00371908
0.00371908
0.00371908
0.00371908
0.00371908
0.00371908
0.00371908
0.00371908
0.00371908
0.00371908
0.00371907
0.00371907
0.00371907
0.00371907
0.00371906
0.00371906
0.00371906
0.00371905
0.00371905
0.00371904
0.00371904
0.00371903
0.00371902
0.00371902
0.00371901
0.003719
0.00371899
0.00371898
0.00371897
0.00371896
0.00371895
0.00371894
0.00371893
0.00371892
0.0037189
0.00375839
0.0037584
0.00375841
0.00375842
0.00375844
0.00375845
0.00375846
0.00375847
0.00375848
0.00375849
0.00375849
0.0037585
0.00375851
0.00375851
0.00375852
0.00375853
0.00375853
0.00375854
0.00375854
0.00375855
0.00375855
0.00375855
0.00375856
0.00375856
0.00375856
0.00375856
0.00375856
0.00375856
0.00375857
0.00375857
0.00375857
0.00375857
0.00375856
0.00375856
0.00375856
0.00375856
0.00375856
0.00375856
0.00375855
0.00375855
0.00375855
0.00375854
0.00375854
0.00375853
0.00375853
0.00375852
0.00375851
0.00375851
0.0037585
0.00375849
0.00375849
0.00375848
0.00375847
0.00375846
0.00375845
0.00375844
0.00375842
0.00375841
0.0037584
0.00375839
0.00380046
0.00380047
0.00380048
0.00380049
0.00380051
0.00380052
0.00380053
0.00380054
0.00380055
0.00380056
0.00380056
0.00380057
0.00380058
0.00380059
0.00380059
0.0038006
0.0038006
0.00380061
0.00380061
0.00380062
0.00380062
0.00380062
0.00380063
0.00380063
0.00380063
0.00380063
0.00380064
0.00380064
0.00380064
0.00380064
0.00380064
0.00380064
0.00380064
0.00380064
0.00380063
0.00380063
0.00380063
0.00380063
0.00380062
0.00380062
0.00380062
0.00380061
0.00380061
0.0038006
0.0038006
0.00380059
0.00380059
0.00380058
0.00380057
0.00380056
0.00380056
0.00380055
0.00380054
0.00380053
0.00380052
0.00380051
0.00380049
0.00380048
0.00380047
0.00380046
0.0038453
0.00384531
0.00384532
0.00384534
0.00384535
0.00384536
0.00384537
0.00384538
0.00384539
0.0038454
0.00384541
0.00384542
0.00384542
0.00384543
0.00384544
0.00384544
0.00384545
0.00384545
0.00384546
0.00384546
0.00384547
0.00384547
0.00384547
0.00384548
0.00384548
0.00384548
0.00384548
0.00384548
0.00384548
0.00384548
0.00384548
0.00384548
0.00384548
0.00384548
0.00384548
0.00384548
0.00384548
0.00384547
0.00384547
0.00384547
0.00384546
0.00384546
0.00384545
0.00384545
0.00384544
0.00384544
0.00384543
0.00384542
0.00384542
0.00384541
0.0038454
0.00384539
0.00384538
0.00384537
0.00384536
0.00384535
0.00384534
0.00384532
0.00384531
0.0038453
0.00389316
0.00389317
0.00389319
0.0038932
0.00389321
0.00389322
0.00389324
0.00389325
0.00389326
0.00389326
0.00389327
0.00389328
0.00389329
0.0038933
0.0038933
0.00389331
0.00389331
0.00389332
0.00389332
0.00389333
0.00389333
0.00389334
0.00389334
0.00389334
0.00389334
0.00389335
0.00389335
0.00389335
0.00389335
0.00389335
0.00389335
0.00389335
0.00389335
0.00389335
0.00389335
0.00389334
0.00389334
0.00389334
0.00389334
0.00389333
0.00389333
0.00389332
0.00389332
0.00389331
0.00389331
0.0038933
0.0038933
0.00389329
0.00389328
0.00389327
0.00389326
0.00389326
0.00389325
0.00389324
0.00389322
0.00389321
0.0038932
0.00389319
0.00389317
0.00389316
0.00394434
0.00394435
0.00394437
0.00394438
0.00394439
0.0039444
0.00394441
0.00394442
0.00394443
0.00394444
0.00394445
0.00394446
0.00394447
0.00394448
0.00394448
0.00394449
0.00394449
0.0039445
0.0039445
0.00394451
0.00394451
0.00394452
0.00394452
0.00394452
0.00394452
0.00394453
0.00394453
0.00394453
0.00394453
0.00394453
0.00394453
0.00394453
0.00394453
0.00394453
0.00394453
0.00394452
0.00394452
0.00394452
0.00394452
0.00394451
0.00394451
0.0039445
0.0039445
0.00394449
0.00394449
0.00394448
0.00394448
0.00394447
0.00394446
0.00394445
0.00394444
0.00394443
0.00394442
0.00394441
0.0039444
0.00394439
0.00394438
0.00394437
0.00394435
0.00394434
0.00399917
0.00399919
0.0039992
0.00399921
0.00399922
0.00399924
0.00399925
0.00399926
0.00399927
0.00399928
0.00399929
0.0039993
0.0039993
0.00399931
0.00399932
0.00399932
0.00399933
0.00399934
0.00399934
0.00399934
0.00399935
0.00399935
0.00399936
0.00399936
0.00399936
0.00399936
0.00399936
0.00399937
0.00399937
0.00399937
0.00399937
0.00399937
0.00399937
0.00399936
0.00399936
0.00399936
0.00399936
0.00399936
0.00399935
0.00399935
0.00399934
0.00399934
0.00399934
0.00399933
0.00399932
0.00399932
0.00399931
0.0039993
0.0039993
0.00399929
0.00399928
0.00399927
0.00399926
0.00399925
0.00399924
0.00399922
0.00399921
0.0039992
0.00399919
0.00399917
0.00405805
0.00405807
0.00405808
0.00405809
0.00405811
0.00405812
0.00405813
0.00405814
0.00405815
0.00405816
0.00405817
0.00405818
0.00405819
0.00405819
0.0040582
0.00405821
0.00405821
0.00405822
0.00405822
0.00405823
0.00405823
0.00405824
0.00405824
0.00405824
0.00405824
0.00405825
0.00405825
0.00405825
0.00405825
0.00405825
0.00405825
0.00405825
0.00405825
0.00405825
0.00405825
0.00405824
0.00405824
0.00405824
0.00405824
0.00405823
0.00405823
0.00405822
0.00405822
0.00405821
0.00405821
0.0040582
0.00405819
0.00405819
0.00405818
0.00405817
0.00405816
0.00405815
0.00405814
0.00405813
0.00405812
0.00405811
0.00405809
0.00405808
0.00405807
0.00405805
0.00412143
0.00412144
0.00412146
0.00412147
0.00412149
0.0041215
0.00412151
0.00412152
0.00412153
0.00412154
0.00412155
0.00412156
0.00412157
0.00412158
0.00412158
0.00412159
0.0041216
0.0041216
0.00412161
0.00412161
0.00412162
0.00412162
0.00412162
0.00412163
0.00412163
0.00412163
0.00412163
0.00412163
0.00412163
0.00412163
0.00412163
0.00412163
0.00412163
0.00412163
0.00412163
0.00412163
0.00412163
0.00412162
0.00412162
0.00412162
0.00412161
0.00412161
0.0041216
0.0041216
0.00412159
0.00412158
0.00412158
0.00412157
0.00412156
0.00412155
0.00412154
0.00412153
0.00412152
0.00412151
0.0041215
0.00412149
0.00412147
0.00412146
0.00412144
0.00412143
0.00418983
0.00418985
0.00418986
0.00418988
0.00418989
0.0041899
0.00418991
0.00418993
0.00418994
0.00418995
0.00418996
0.00418997
0.00418997
0.00418998
0.00418999
0.00419
0.00419
0.00419001
0.00419001
0.00419002
0.00419002
0.00419003
0.00419003
0.00419003
0.00419004
0.00419004
0.00419004
0.00419004
0.00419004
0.00419004
0.00419004
0.00419004
0.00419004
0.00419004
0.00419004
0.00419004
0.00419003
0.00419003
0.00419003
0.00419002
0.00419002
0.00419001
0.00419001
0.00419
0.00419
0.00418999
0.00418998
0.00418997
0.00418997
0.00418996
0.00418995
0.00418994
0.00418993
0.00418991
0.0041899
0.00418989
0.00418988
0.00418986
0.00418985
0.00418983
0.00426387
0.00426388
0.0042639
0.00426391
0.00426393
0.00426394
0.00426395
0.00426397
0.00426398
0.00426399
0.004264
0.00426401
0.00426401
0.00426402
0.00426403
0.00426404
0.00426404
0.00426405
0.00426406
0.00426406
0.00426406
0.00426407
0.00426407
0.00426408
0.00426408
0.00426408
0.00426408
0.00426408
0.00426408
0.00426408
0.00426408
0.00426408
0.00426408
0.00426408
0.00426408
0.00426408
0.00426408
0.00426407
0.00426407
0.00426406
0.00426406
0.00426406
0.00426405
0.00426404
0.00426404
0.00426403
0.00426402
0.00426401
0.00426401
0.004264
0.00426399
0.00426398
0.00426397
0.00426395
0.00426394
0.00426393
0.00426391
0.0042639
0.00426388
0.00426387
0.00434426
0.00434427
0.00434429
0.0043443
0.00434432
0.00434433
0.00434435
0.00434436
0.00434437
0.00434438
0.00434439
0.0043444
0.00434441
0.00434442
0.00434443
0.00434443
0.00434444
0.00434445
0.00434445
0.00434446
0.00434446
0.00434446
0.00434447
0.00434447
0.00434447
0.00434448
0.00434448
0.00434448
0.00434448
0.00434448
0.00434448
0.00434448
0.00434448
0.00434448
0.00434448
0.00434447
0.00434447
0.00434447
0.00434446
0.00434446
0.00434446
0.00434445
0.00434445
0.00434444
0.00434443
0.00434443
0.00434442
0.00434441
0.0043444
0.00434439
0.00434438
0.00434437
0.00434436
0.00434435
0.00434433
0.00434432
0.0043443
0.00434429
0.00434427
0.00434426
0.00443185
0.00443187
0.00443188
0.0044319
0.00443191
0.00443193
0.00443194
0.00443195
0.00443196
0.00443198
0.00443199
0.004432
0.00443201
0.00443201
0.00443202
0.00443203
0.00443204
0.00443204
0.00443205
0.00443205
0.00443206
0.00443206
0.00443207
0.00443207
0.00443207
0.00443208
0.00443208
0.00443208
0.00443208
0.00443208
0.00443208
0.00443208
0.00443208
0.00443208
0.00443208
0.00443207
0.00443207
0.00443207
0.00443206
0.00443206
0.00443205
0.00443205
0.00443204
0.00443204
0.00443203
0.00443202
0.00443201
0.00443201
0.004432
0.00443199
0.00443198
0.00443196
0.00443195
0.00443194
0.00443193
0.00443191
0.0044319
0.00443188
0.00443187
0.00443185
0.00452765
0.00452767
0.00452769
0.0045277
0.00452772
0.00452773
0.00452775
0.00452776
0.00452777
0.00452779
0.0045278
0.00452781
0.00452782
0.00452783
0.00452783
0.00452784
0.00452785
0.00452786
0.00452786
0.00452787
0.00452787
0.00452788
0.00452788
0.00452788
0.00452789
0.00452789
0.00452789
0.00452789
0.00452789
0.00452789
0.00452789
0.00452789
0.00452789
0.00452789
0.00452789
0.00452789
0.00452788
0.00452788
0.00452788
0.00452787
0.00452787
0.00452786
0.00452786
0.00452785
0.00452784
0.00452783
0.00452783
0.00452782
0.00452781
0.0045278
0.00452779
0.00452777
0.00452776
0.00452775
0.00452773
0.00452772
0.0045277
0.00452769
0.00452767
0.00452765
0.00463289
0.00463291
0.00463293
0.00463294
0.00463296
0.00463297
0.00463299
0.004633
0.00463302
0.00463303
0.00463304
0.00463305
0.00463306
0.00463307
0.00463308
0.00463309
0.00463309
0.0046331
0.00463311
0.00463311
0.00463312
0.00463312
0.00463313
0.00463313
0.00463313
0.00463314
0.00463314
0.00463314
0.00463314
0.00463314
0.00463314
0.00463314
0.00463314
0.00463314
0.00463314
0.00463313
0.00463313
0.00463313
0.00463312
0.00463312
0.00463311
0.00463311
0.0046331
0.00463309
0.00463309
0.00463308
0.00463307
0.00463306
0.00463305
0.00463304
0.00463303
0.00463302
0.004633
0.00463299
0.00463297
0.00463296
0.00463294
0.00463293
0.00463291
0.00463289
0.00474904
0.00474906
0.00474907
0.00474909
0.00474911
0.00474912
0.00474914
0.00474915
0.00474917
0.00474918
0.00474919
0.0047492
0.00474921
0.00474922
0.00474923
0.00474924
0.00474925
0.00474926
0.00474926
0.00474927
0.00474927
0.00474928
0.00474928
0.00474929
0.00474929
0.00474929
0.00474929
0.0047493
0.0047493
0.0047493
0.0047493
0.0047493
0.0047493
0.00474929
0.00474929
0.00474929
0.00474929
0.00474928
0.00474928
0.00474927
0.00474927
0.00474926
0.00474926
0.00474925
0.00474924
0.00474923
0.00474922
0.00474921
0.0047492
0.00474919
0.00474918
0.00474917
0.00474915
0.00474914
0.00474912
0.00474911
0.00474909
0.00474907
0.00474906
0.00474904
0.0048779
0.00487792
0.00487794
0.00487796
0.00487798
0.004878
0.00487801
0.00487803
0.00487804
0.00487805
0.00487807
0.00487808
0.00487809
0.0048781
0.00487811
0.00487812
0.00487813
0.00487813
0.00487814
0.00487815
0.00487815
0.00487816
0.00487816
0.00487817
0.00487817
0.00487817
0.00487817
0.00487818
0.00487818
0.00487818
0.00487818
0.00487818
0.00487818
0.00487817
0.00487817
0.00487817
0.00487817
0.00487816
0.00487816
0.00487815
0.00487815
0.00487814
0.00487813
0.00487813
0.00487812
0.00487811
0.0048781
0.00487809
0.00487808
0.00487807
0.00487805
0.00487804
0.00487803
0.00487801
0.004878
0.00487798
0.00487796
0.00487794
0.00487792
0.0048779
0.00502175
0.00502177
0.00502179
0.00502181
0.00502183
0.00502184
0.00502186
0.00502188
0.00502189
0.00502191
0.00502192
0.00502193
0.00502194
0.00502195
0.00502196
0.00502197
0.00502198
0.00502199
0.005022
0.005022
0.00502201
0.00502201
0.00502202
0.00502202
0.00502203
0.00502203
0.00502203
0.00502203
0.00502204
0.00502204
0.00502204
0.00502204
0.00502203
0.00502203
0.00502203
0.00502203
0.00502202
0.00502202
0.00502201
0.00502201
0.005022
0.005022
0.00502199
0.00502198
0.00502197
0.00502196
0.00502195
0.00502194
0.00502193
0.00502192
0.00502191
0.00502189
0.00502188
0.00502186
0.00502184
0.00502183
0.00502181
0.00502179
0.00502177
0.00502175
0.0051834
0.00518342
0.00518344
0.00518346
0.00518348
0.0051835
0.00518352
0.00518354
0.00518355
0.00518357
0.00518358
0.00518359
0.00518361
0.00518362
0.00518363
0.00518364
0.00518365
0.00518366
0.00518366
0.00518367
0.00518368
0.00518368
0.00518369
0.00518369
0.0051837
0.0051837
0.0051837
0.0051837
0.0051837
0.0051837
0.0051837
0.0051837
0.0051837
0.0051837
0.0051837
0.0051837
0.00518369
0.00518369
0.00518368
0.00518368
0.00518367
0.00518366
0.00518366
0.00518365
0.00518364
0.00518363
0.00518362
0.00518361
0.00518359
0.00518358
0.00518357
0.00518355
0.00518354
0.00518352
0.0051835
0.00518348
0.00518346
0.00518344
0.00518342
0.0051834
0.00536648
0.0053665
0.00536652
0.00536655
0.00536657
0.00536659
0.00536661
0.00536662
0.00536664
0.00536666
0.00536667
0.00536669
0.0053667
0.00536671
0.00536672
0.00536673
0.00536674
0.00536675
0.00536676
0.00536677
0.00536677
0.00536678
0.00536679
0.00536679
0.00536679
0.0053668
0.0053668
0.0053668
0.0053668
0.0053668
0.0053668
0.0053668
0.0053668
0.0053668
0.0053668
0.00536679
0.00536679
0.00536679
0.00536678
0.00536677
0.00536677
0.00536676
0.00536675
0.00536674
0.00536673
0.00536672
0.00536671
0.0053667
0.00536669
0.00536667
0.00536666
0.00536664
0.00536662
0.00536661
0.00536659
0.00536657
0.00536655
0.00536652
0.0053665
0.00536648
0.00557568
0.00557571
0.00557573
0.00557576
0.00557578
0.0055758
0.00557582
0.00557584
0.00557586
0.00557588
0.00557589
0.00557591
0.00557592
0.00557594
0.00557595
0.00557596
0.00557597
0.00557598
0.00557599
0.005576
0.005576
0.00557601
0.00557602
0.00557602
0.00557602
0.00557603
0.00557603
0.00557603
0.00557603
0.00557603
0.00557603
0.00557603
0.00557603
0.00557603
0.00557603
0.00557602
0.00557602
0.00557602
0.00557601
0.005576
0.005576
0.00557599
0.00557598
0.00557597
0.00557596
0.00557595
0.00557594
0.00557592
0.00557591
0.00557589
0.00557588
0.00557586
0.00557584
0.00557582
0.0055758
0.00557578
0.00557576
0.00557573
0.00557571
0.00557568
0.00581724
0.00581727
0.00581729
0.00581732
0.00581734
0.00581737
0.00581739
0.00581741
0.00581743
0.00581745
0.00581746
0.00581748
0.0058175
0.00581751
0.00581752
0.00581754
0.00581755
0.00581756
0.00581757
0.00581758
0.00581758
0.00581759
0.0058176
0.0058176
0.00581761
0.00581761
0.00581761
0.00581762
0.00581762
0.00581762
0.00581762
0.00581762
0.00581762
0.00581761
0.00581761
0.00581761
0.0058176
0.0058176
0.00581759
0.00581758
0.00581758
0.00581757
0.00581756
0.00581755
0.00581754
0.00581752
0.00581751
0.0058175
0.00581748
0.00581746
0.00581745
0.00581743
0.00581741
0.00581739
0.00581737
0.00581734
0.00581732
0.00581729
0.00581727
0.00581724
0.00609954
0.00609957
0.0060996
0.00609963
0.00609966
0.00609968
0.00609971
0.00609973
0.00609975
0.00609977
0.00609979
0.00609981
0.00609982
0.00609984
0.00609986
0.00609987
0.00609988
0.00609989
0.0060999
0.00609991
0.00609992
0.00609993
0.00609994
0.00609994
0.00609995
0.00609995
0.00609995
0.00609996
0.00609996
0.00609996
0.00609996
0.00609996
0.00609996
0.00609995
0.00609995
0.00609995
0.00609994
0.00609994
0.00609993
0.00609992
0.00609991
0.0060999
0.00609989
0.00609988
0.00609987
0.00609986
0.00609984
0.00609982
0.00609981
0.00609979
0.00609977
0.00609975
0.00609973
0.00609971
0.00609968
0.00609966
0.00609963
0.0060996
0.00609957
0.00609954
0.00643421
0.00643424
0.00643427
0.00643431
0.00643434
0.00643436
0.00643439
0.00643442
0.00643444
0.00643446
0.00643448
0.0064345
0.00643452
0.00643454
0.00643456
0.00643457
0.00643459
0.0064346
0.00643461
0.00643462
0.00643463
0.00643464
0.00643465
0.00643465
0.00643466
0.00643466
0.00643467
0.00643467
0.00643467
0.00643467
0.00643467
0.00643467
0.00643467
0.00643467
0.00643466
0.00643466
0.00643465
0.00643465
0.00643464
0.00643463
0.00643462
0.00643461
0.0064346
0.00643459
0.00643457
0.00643456
0.00643454
0.00643452
0.0064345
0.00643448
0.00643446
0.00643444
0.00643442
0.00643439
0.00643436
0.00643434
0.00643431
0.00643427
0.00643424
0.00643421
0.00683764
0.00683768
0.00683771
0.00683775
0.00683778
0.00683782
0.00683785
0.00683787
0.0068379
0.00683793
0.00683795
0.00683797
0.006838
0.00683801
0.00683803
0.00683805
0.00683807
0.00683808
0.00683809
0.00683811
0.00683812
0.00683813
0.00683813
0.00683814
0.00683815
0.00683815
0.00683816
0.00683816
0.00683816
0.00683816
0.00683816
0.00683816
0.00683816
0.00683816
0.00683815
0.00683815
0.00683814
0.00683813
0.00683813
0.00683812
0.00683811
0.00683809
0.00683808
0.00683807
0.00683805
0.00683803
0.00683801
0.006838
0.00683797
0.00683795
0.00683793
0.0068379
0.00683787
0.00683785
0.00683782
0.00683778
0.00683775
0.00683771
0.00683768
0.00683764
0.00733343
0.00733347
0.00733352
0.00733356
0.00733359
0.00733363
0.00733367
0.0073337
0.00733373
0.00733376
0.00733379
0.00733381
0.00733384
0.00733386
0.00733388
0.0073339
0.00733392
0.00733394
0.00733395
0.00733397
0.00733398
0.00733399
0.007334
0.00733401
0.00733401
0.00733402
0.00733403
0.00733403
0.00733403
0.00733403
0.00733403
0.00733403
0.00733403
0.00733403
0.00733402
0.00733401
0.00733401
0.007334
0.00733399
0.00733398
0.00733397
0.00733395
0.00733394
0.00733392
0.0073339
0.00733388
0.00733386
0.00733384
0.00733381
0.00733379
0.00733376
0.00733373
0.0073337
0.00733367
0.00733363
0.00733359
0.00733356
0.00733352
0.00733347
0.00733343
0.00795579
0.00795584
0.00795589
0.00795594
0.00795598
0.00795603
0.00795607
0.00795611
0.00795614
0.00795618
0.00795621
0.00795624
0.00795627
0.0079563
0.00795632
0.00795634
0.00795637
0.00795639
0.0079564
0.00795642
0.00795643
0.00795645
0.00795646
0.00795647
0.00795648
0.00795649
0.00795649
0.0079565
0.0079565
0.0079565
0.0079565
0.0079565
0.0079565
0.00795649
0.00795649
0.00795648
0.00795647
0.00795646
0.00795645
0.00795643
0.00795642
0.0079564
0.00795639
0.00795637
0.00795634
0.00795632
0.0079563
0.00795627
0.00795624
0.00795621
0.00795618
0.00795614
0.00795611
0.00795607
0.00795603
0.00795598
0.00795594
0.00795589
0.00795584
0.00795579
0.00875381
0.00875387
0.00875393
0.00875399
0.00875404
0.00875409
0.00875414
0.00875419
0.00875424
0.00875428
0.00875432
0.00875436
0.00875439
0.00875442
0.00875445
0.00875448
0.00875451
0.00875453
0.00875455
0.00875457
0.00875459
0.0087546
0.00875462
0.00875463
0.00875464
0.00875465
0.00875466
0.00875466
0.00875467
0.00875467
0.00875467
0.00875467
0.00875466
0.00875466
0.00875465
0.00875464
0.00875463
0.00875462
0.0087546
0.00875459
0.00875457
0.00875455
0.00875453
0.00875451
0.00875448
0.00875445
0.00875442
0.00875439
0.00875436
0.00875432
0.00875428
0.00875424
0.00875419
0.00875414
0.00875409
0.00875404
0.00875399
0.00875393
0.00875387
0.00875381
0.00979527
0.00979535
0.00979542
0.00979549
0.00979556
0.00979563
0.00979569
0.00979575
0.0097958
0.00979585
0.0097959
0.00979595
0.00979599
0.00979603
0.00979607
0.0097961
0.00979613
0.00979616
0.00979619
0.00979621
0.00979624
0.00979626
0.00979627
0.00979629
0.0097963
0.00979631
0.00979632
0.00979633
0.00979633
0.00979633
0.00979633
0.00979633
0.00979633
0.00979632
0.00979631
0.0097963
0.00979629
0.00979627
0.00979626
0.00979624
0.00979621
0.00979619
0.00979616
0.00979613
0.0097961
0.00979607
0.00979603
0.00979599
0.00979595
0.0097959
0.00979585
0.0097958
0.00979575
0.00979569
0.00979563
0.00979556
0.00979549
0.00979542
0.00979535
0.00979527
0.0111668
0.0111669
0.011167
0.0111671
0.0111672
0.0111673
0.0111673
0.0111674
0.0111675
0.0111676
0.0111676
0.0111677
0.0111677
0.0111678
0.0111678
0.0111679
0.0111679