/*--------------------------------*- C++ -*----------------------------------*\
| =========                 |                                                 |
| \\      /  F ield         | foam-extend: Open Source CFD                    |
|  \\    /   O peration     | Version:     4.0                                |
|   \\  /    A nd           | Web:         http://www.foam-extend.org         |
|    \\/     M anipulation  |                                                 |
\*---------------------------------------------------------------------------*/
FoamFile
{
    version     2.0;
    format      ascii;
    class       volScalarField;
    location    "1830";
    object      cPlus;
}
// * * * * * * * * * * * * * * * * * * * * * * * * * * * * * * * * * * * * * //

dimensions      [0 0 0 0 0 0 0];

internalField   nonuniform List<scalar> 
6960
(
0.238516
0.238465
0.238452
0.23845
0.23845
0.238451
0.238452
0.238453
0.238454
0.238455
0.238456
0.238457
0.238457
0.238458
0.238459
0.238459
0.23846
0.23846
0.238461
0.238461
0.238461
0.238462
0.238462
0.238462
0.238462
0.238463
0.238463
0.238463
0.238463
0.238463
0.238463
0.238463
0.238463
0.238463
0.238463
0.238462
0.238462
0.238462
0.238462
0.238461
0.238461
0.238461
0.23846
0.23846
0.238459
0.238459
0.238458
0.238457
0.238457
0.238456
0.238455
0.238454
0.238453
0.238452
0.238451
0.23845
0.23845
0.238452
0.238465
0.238516
0.0861058
0.0861057
0.0861055
0.086106
0.0861067
0.0861074
0.086108
0.0861086
0.0861091
0.0861096
0.0861101
0.0861105
0.0861108
0.0861112
0.0861115
0.0861118
0.086112
0.0861122
0.0861124
0.0861126
0.0861128
0.0861129
0.086113
0.0861132
0.0861132
0.0861133
0.0861134
0.0861134
0.0861135
0.0861135
0.0861135
0.0861135
0.0861134
0.0861134
0.0861133
0.0861132
0.0861132
0.086113
0.0861129
0.0861128
0.0861126
0.0861124
0.0861122
0.086112
0.0861118
0.0861115
0.0861112
0.0861108
0.0861105
0.0861101
0.0861096
0.0861091
0.0861086
0.086108
0.0861074
0.0861067
0.086106
0.0861055
0.0861057
0.0861058
0.0613257
0.061347
0.0613523
0.0613541
0.0613549
0.0613555
0.061356
0.0613564
0.0613567
0.061357
0.0613573
0.0613575
0.0613577
0.0613579
0.0613581
0.0613582
0.0613584
0.0613585
0.0613586
0.0613587
0.0613588
0.0613589
0.0613589
0.061359
0.061359
0.0613591
0.0613591
0.0613591
0.0613591
0.0613591
0.0613591
0.0613591
0.0613591
0.0613591
0.0613591
0.061359
0.061359
0.0613589
0.0613589
0.0613588
0.0613587
0.0613586
0.0613585
0.0613584
0.0613582
0.0613581
0.0613579
0.0613577
0.0613575
0.0613573
0.061357
0.0613567
0.0613564
0.061356
0.0613555
0.0613549
0.0613541
0.0613523
0.061347
0.0613257
0.0585912
0.0586208
0.0586281
0.0586305
0.0586315
0.058632
0.0586325
0.0586328
0.0586331
0.0586334
0.0586336
0.0586338
0.058634
0.0586341
0.0586342
0.0586344
0.0586345
0.0586346
0.0586346
0.0586347
0.0586348
0.0586348
0.0586349
0.0586349
0.058635
0.058635
0.058635
0.058635
0.058635
0.0586351
0.0586351
0.058635
0.058635
0.058635
0.058635
0.058635
0.0586349
0.0586349
0.0586348
0.0586348
0.0586347
0.0586346
0.0586346
0.0586345
0.0586344
0.0586342
0.0586341
0.058634
0.0586338
0.0586336
0.0586334
0.0586331
0.0586328
0.0586325
0.058632
0.0586315
0.0586305
0.0586281
0.0586208
0.0585912
0.0605151
0.0605493
0.0605579
0.0605606
0.0605616
0.0605623
0.0605627
0.0605631
0.0605634
0.0605637
0.0605639
0.0605641
0.0605643
0.0605644
0.0605646
0.0605647
0.0605648
0.0605649
0.060565
0.0605651
0.0605651
0.0605652
0.0605652
0.0605653
0.0605653
0.0605653
0.0605654
0.0605654
0.0605654
0.0605654
0.0605654
0.0605654
0.0605654
0.0605654
0.0605653
0.0605653
0.0605653
0.0605652
0.0605652
0.0605651
0.0605651
0.060565
0.0605649
0.0605648
0.0605647
0.0605646
0.0605644
0.0605643
0.0605641
0.0605639
0.0605637
0.0605634
0.0605631
0.0605627
0.0605623
0.0605616
0.0605606
0.0605579
0.0605493
0.0605151
0.0639225
0.0639609
0.0639706
0.0639736
0.0639749
0.0639756
0.0639761
0.0639765
0.0639768
0.0639771
0.0639774
0.0639776
0.0639778
0.063978
0.0639782
0.0639783
0.0639784
0.0639786
0.0639786
0.0639787
0.0639788
0.0639789
0.0639789
0.063979
0.063979
0.0639791
0.0639791
0.0639791
0.0639791
0.0639791
0.0639791
0.0639791
0.0639791
0.0639791
0.0639791
0.063979
0.063979
0.0639789
0.0639789
0.0639788
0.0639787
0.0639786
0.0639786
0.0639784
0.0639783
0.0639782
0.063978
0.0639778
0.0639776
0.0639774
0.0639771
0.0639768
0.0639765
0.0639761
0.0639756
0.0639749
0.0639736
0.0639706
0.0639609
0.0639225
0.0683623
0.068406
0.0684169
0.0684204
0.0684218
0.0684227
0.0684233
0.0684237
0.0684242
0.0684245
0.0684248
0.0684251
0.0684253
0.0684256
0.0684257
0.0684259
0.0684261
0.0684262
0.0684263
0.0684264
0.0684265
0.0684266
0.0684266
0.0684267
0.0684267
0.0684268
0.0684268
0.0684268
0.0684269
0.0684269
0.0684269
0.0684269
0.0684268
0.0684268
0.0684268
0.0684267
0.0684267
0.0684266
0.0684266
0.0684265
0.0684264
0.0684263
0.0684262
0.0684261
0.0684259
0.0684257
0.0684256
0.0684253
0.0684251
0.0684248
0.0684245
0.0684242
0.0684237
0.0684233
0.0684227
0.0684218
0.0684204
0.0684169
0.068406
0.0683623
0.0740139
0.0740643
0.0740771
0.0740811
0.0740828
0.0740838
0.0740845
0.0740851
0.0740856
0.074086
0.0740864
0.0740868
0.0740871
0.0740873
0.0740875
0.0740877
0.0740879
0.0740881
0.0740882
0.0740884
0.0740885
0.0740886
0.0740887
0.0740887
0.0740888
0.0740888
0.0740889
0.0740889
0.0740889
0.0740889
0.0740889
0.0740889
0.0740889
0.0740889
0.0740888
0.0740888
0.0740887
0.0740887
0.0740886
0.0740885
0.0740884
0.0740882
0.0740881
0.0740879
0.0740877
0.0740875
0.0740873
0.0740871
0.0740868
0.0740864
0.074086
0.0740856
0.0740851
0.0740845
0.0740838
0.0740828
0.0740811
0.0740771
0.0740643
0.0740139
0.0813073
0.0813671
0.0813823
0.0813872
0.0813892
0.0813904
0.0813913
0.081392
0.0813927
0.0813932
0.0813937
0.0813941
0.0813945
0.0813948
0.0813951
0.0813953
0.0813956
0.0813958
0.0813959
0.0813961
0.0813962
0.0813964
0.0813965
0.0813966
0.0813966
0.0813967
0.0813967
0.0813968
0.0813968
0.0813968
0.0813968
0.0813968
0.0813968
0.0813967
0.0813967
0.0813966
0.0813966
0.0813965
0.0813964
0.0813962
0.0813961
0.0813959
0.0813958
0.0813956
0.0813953
0.0813951
0.0813948
0.0813945
0.0813941
0.0813937
0.0813932
0.0813927
0.081392
0.0813913
0.0813904
0.0813892
0.0813872
0.0813823
0.0813671
0.0813073
0.0908635
0.0909363
0.0909548
0.0909608
0.0909633
0.0909648
0.090966
0.0909669
0.0909677
0.0909683
0.0909689
0.0909695
0.0909699
0.0909703
0.0909707
0.090971
0.0909713
0.0909716
0.0909718
0.090972
0.0909722
0.0909724
0.0909725
0.0909726
0.0909727
0.0909728
0.0909729
0.0909729
0.0909729
0.0909729
0.0909729
0.0909729
0.0909729
0.0909729
0.0909728
0.0909727
0.0909726
0.0909725
0.0909724
0.0909722
0.090972
0.0909718
0.0909716
0.0909713
0.090971
0.0909707
0.0909703
0.0909699
0.0909695
0.0909689
0.0909683
0.0909677
0.0909669
0.090966
0.0909648
0.0909633
0.0909608
0.0909548
0.0909363
0.0908635
0.103444
0.103534
0.103558
0.103565
0.103568
0.10357
0.103571
0.103573
0.103574
0.103575
0.103575
0.103576
0.103577
0.103577
0.103578
0.103578
0.103578
0.103579
0.103579
0.103579
0.103579
0.10358
0.10358
0.10358
0.10358
0.10358
0.10358
0.10358
0.10358
0.10358
0.10358
0.10358
0.10358
0.10358
0.10358
0.10358
0.10358
0.10358
0.10358
0.103579
0.103579
0.103579
0.103579
0.103578
0.103578
0.103578
0.103577
0.103577
0.103576
0.103575
0.103575
0.103574
0.103573
0.103571
0.10357
0.103568
0.103565
0.103558
0.103534
0.103444
0.119808
0.11992
0.119949
0.119958
0.119962
0.119964
0.119966
0.119968
0.119969
0.11997
0.119971
0.119972
0.119972
0.119973
0.119974
0.119974
0.119975
0.119975
0.119975
0.119976
0.119976
0.119976
0.119977
0.119977
0.119977
0.119977
0.119977
0.119977
0.119977
0.119977
0.119977
0.119977
0.119977
0.119977
0.119977
0.119977
0.119977
0.119977
0.119976
0.119976
0.119976
0.119975
0.119975
0.119975
0.119974
0.119974
0.119973
0.119972
0.119972
0.119971
0.11997
0.119969
0.119968
0.119966
0.119964
0.119962
0.119958
0.119949
0.11992
0.119808
0.140454
0.140592
0.140628
0.14064
0.140644
0.140647
0.140649
0.140651
0.140653
0.140654
0.140655
0.140656
0.140657
0.140658
0.140658
0.140659
0.140659
0.14066
0.14066
0.140661
0.140661
0.140661
0.140662
0.140662
0.140662
0.140662
0.140662
0.140662
0.140663
0.140663
0.140663
0.140663
0.140662
0.140662
0.140662
0.140662
0.140662
0.140662
0.140661
0.140661
0.140661
0.14066
0.14066
0.140659
0.140659
0.140658
0.140658
0.140657
0.140656
0.140655
0.140654
0.140653
0.140651
0.140649
0.140647
0.140644
0.14064
0.140628
0.140592
0.140454
0.16537
0.165535
0.165579
0.165593
0.165599
0.165602
0.165605
0.165607
0.165609
0.16561
0.165611
0.165612
0.165613
0.165614
0.165615
0.165616
0.165616
0.165617
0.165618
0.165618
0.165618
0.165619
0.165619
0.165619
0.165619
0.16562
0.16562
0.16562
0.16562
0.16562
0.16562
0.16562
0.16562
0.16562
0.16562
0.165619
0.165619
0.165619
0.165619
0.165618
0.165618
0.165618
0.165617
0.165616
0.165616
0.165615
0.165614
0.165613
0.165612
0.165611
0.16561
0.165609
0.165607
0.165605
0.165602
0.165599
0.165593
0.165579
0.165535
0.16537
0.193947
0.19414
0.194191
0.194208
0.194214
0.194218
0.194221
0.194223
0.194225
0.194227
0.194228
0.194229
0.19423
0.194231
0.194232
0.194233
0.194234
0.194234
0.194235
0.194235
0.194236
0.194236
0.194236
0.194236
0.194237
0.194237
0.194237
0.194237
0.194237
0.194237
0.194237
0.194237
0.194237
0.194237
0.194237
0.194237
0.194236
0.194236
0.194236
0.194236
0.194235
0.194235
0.194234
0.194234
0.194233
0.194232
0.194231
0.19423
0.194229
0.194228
0.194227
0.194225
0.194223
0.194221
0.194218
0.194214
0.194208
0.194191
0.19414
0.193947
0.225156
0.225374
0.225432
0.225451
0.225459
0.225463
0.225466
0.225468
0.22547
0.225471
0.225473
0.225474
0.225475
0.225476
0.225477
0.225478
0.225479
0.225479
0.22548
0.22548
0.225481
0.225481
0.225482
0.225482
0.225482
0.225482
0.225482
0.225482
0.225483
0.225483
0.225483
0.225483
0.225482
0.225482
0.225482
0.225482
0.225482
0.225482
0.225481
0.225481
0.22548
0.22548
0.225479
0.225479
0.225478
0.225477
0.225476
0.225475
0.225474
0.225473
0.225471
0.22547
0.225468
0.225466
0.225463
0.225459
0.225451
0.225432
0.225374
0.225156
0.257866
0.258105
0.25817
0.258191
0.258199
0.258204
0.258206
0.258209
0.258211
0.258212
0.258214
0.258215
0.258216
0.258217
0.258218
0.258219
0.25822
0.25822
0.258221
0.258221
0.258222
0.258222
0.258222
0.258223
0.258223
0.258223
0.258223
0.258223
0.258223
0.258223
0.258223
0.258223
0.258223
0.258223
0.258223
0.258223
0.258223
0.258222
0.258222
0.258222
0.258221
0.258221
0.25822
0.25822
0.258219
0.258218
0.258217
0.258216
0.258215
0.258214
0.258212
0.258211
0.258209
0.258206
0.258204
0.258199
0.258191
0.25817
0.258105
0.257866
0.291109
0.291366
0.291438
0.291461
0.291469
0.291474
0.291477
0.291479
0.291481
0.291483
0.291484
0.291485
0.291486
0.291487
0.291488
0.291489
0.29149
0.29149
0.291491
0.291491
0.291492
0.291492
0.291492
0.291493
0.291493
0.291493
0.291493
0.291493
0.291493
0.291493
0.291493
0.291493
0.291493
0.291493
0.291493
0.291493
0.291493
0.291492
0.291492
0.291492
0.291491
0.291491
0.29149
0.29149
0.291489
0.291488
0.291487
0.291486
0.291485
0.291484
0.291483
0.291481
0.291479
0.291477
0.291474
0.291469
0.291461
0.291438
0.291366
0.291109
0.324195
0.324467
0.324545
0.324569
0.324578
0.324583
0.324586
0.324588
0.32459
0.324592
0.324593
0.324594
0.324595
0.324596
0.324597
0.324598
0.324598
0.324599
0.324599
0.3246
0.3246
0.324601
0.324601
0.324601
0.324601
0.324601
0.324602
0.324602
0.324602
0.324602
0.324602
0.324602
0.324602
0.324602
0.324601
0.324601
0.324601
0.324601
0.324601
0.3246
0.3246
0.324599
0.324599
0.324598
0.324598
0.324597
0.324596
0.324595
0.324594
0.324593
0.324592
0.32459
0.324588
0.324586
0.324583
0.324578
0.324569
0.324545
0.324467
0.324195
0.35669
0.356975
0.357057
0.357084
0.357093
0.357098
0.357101
0.357103
0.357105
0.357106
0.357107
0.357109
0.35711
0.35711
0.357111
0.357112
0.357113
0.357113
0.357114
0.357114
0.357114
0.357115
0.357115
0.357115
0.357115
0.357115
0.357116
0.357116
0.357116
0.357116
0.357116
0.357116
0.357116
0.357116
0.357115
0.357115
0.357115
0.357115
0.357115
0.357114
0.357114
0.357114
0.357113
0.357113
0.357112
0.357111
0.35711
0.35711
0.357109
0.357107
0.357106
0.357105
0.357103
0.357101
0.357098
0.357093
0.357084
0.357057
0.356975
0.35669
0.388345
0.388641
0.388728
0.388756
0.388766
0.388771
0.388773
0.388776
0.388777
0.388779
0.38878
0.388781
0.388782
0.388783
0.388784
0.388784
0.388785
0.388785
0.388786
0.388786
0.388786
0.388787
0.388787
0.388787
0.388787
0.388787
0.388788
0.388788
0.388788
0.388788
0.388788
0.388788
0.388788
0.388788
0.388787
0.388787
0.388787
0.388787
0.388787
0.388786
0.388786
0.388786
0.388785
0.388785
0.388784
0.388784
0.388783
0.388782
0.388781
0.38878
0.388779
0.388777
0.388776
0.388773
0.388771
0.388766
0.388756
0.388728
0.388641
0.388345
0.419028
0.419333
0.419425
0.419454
0.419465
0.419469
0.419472
0.419474
0.419476
0.419477
0.419478
0.419479
0.41948
0.419481
0.419482
0.419482
0.419483
0.419483
0.419484
0.419484
0.419484
0.419485
0.419485
0.419485
0.419485
0.419485
0.419485
0.419486
0.419486
0.419486
0.419486
0.419486
0.419486
0.419485
0.419485
0.419485
0.419485
0.419485
0.419485
0.419484
0.419484
0.419484
0.419483
0.419483
0.419482
0.419482
0.419481
0.41948
0.419479
0.419478
0.419477
0.419476
0.419474
0.419472
0.419469
0.419465
0.419454
0.419425
0.419333
0.419028
0.448674
0.448985
0.449082
0.449113
0.449124
0.449129
0.449132
0.449133
0.449135
0.449136
0.449137
0.449138
0.449139
0.44914
0.44914
0.449141
0.449141
0.449142
0.449142
0.449143
0.449143
0.449143
0.449143
0.449143
0.449144
0.449144
0.449144
0.449144
0.449144
0.449144
0.449144
0.449144
0.449144
0.449144
0.449144
0.449144
0.449143
0.449143
0.449143
0.449143
0.449143
0.449142
0.449142
0.449141
0.449141
0.44914
0.44914
0.449139
0.449138
0.449137
0.449136
0.449135
0.449133
0.449132
0.449129
0.449124
0.449113
0.449082
0.448985
0.448674
0.477252
0.47757
0.477671
0.477704
0.477715
0.47772
0.477723
0.477725
0.477726
0.477727
0.477728
0.477729
0.47773
0.477731
0.477731
0.477732
0.477732
0.477733
0.477733
0.477733
0.477733
0.477734
0.477734
0.477734
0.477734
0.477734
0.477734
0.477734
0.477734
0.477734
0.477734
0.477734
0.477734
0.477734
0.477734
0.477734
0.477734
0.477734
0.477734
0.477733
0.477733
0.477733
0.477733
0.477732
0.477732
0.477731
0.477731
0.47773
0.477729
0.477728
0.477727
0.477726
0.477725
0.477723
0.47772
0.477715
0.477704
0.477671
0.47757
0.477252
0.504758
0.505081
0.505185
0.505219
0.505231
0.505236
0.505239
0.505241
0.505242
0.505243
0.505244
0.505245
0.505246
0.505246
0.505247
0.505247
0.505248
0.505248
0.505248
0.505249
0.505249
0.505249
0.505249
0.505249
0.50525
0.50525
0.50525
0.50525
0.50525
0.50525
0.50525
0.50525
0.50525
0.50525
0.50525
0.50525
0.505249
0.505249
0.505249
0.505249
0.505249
0.505248
0.505248
0.505248
0.505247
0.505247
0.505246
0.505246
0.505245
0.505244
0.505243
0.505242
0.505241
0.505239
0.505236
0.505231
0.505219
0.505185
0.505081
0.504758
0.531194
0.531521
0.531629
0.531665
0.531677
0.531682
0.531685
0.531687
0.531688
0.531689
0.53169
0.531691
0.531691
0.531692
0.531692
0.531693
0.531693
0.531694
0.531694
0.531694
0.531694
0.531695
0.531695
0.531695
0.531695
0.531695
0.531695
0.531695
0.531695
0.531695
0.531695
0.531695
0.531695
0.531695
0.531695
0.531695
0.531695
0.531695
0.531695
0.531694
0.531694
0.531694
0.531694
0.531693
0.531693
0.531692
0.531692
0.531691
0.531691
0.53169
0.531689
0.531688
0.531687
0.531685
0.531682
0.531677
0.531665
0.531629
0.531521
0.531194
0.556575
0.556904
0.557016
0.557053
0.557066
0.557071
0.557074
0.557075
0.557077
0.557078
0.557078
0.557079
0.55708
0.55708
0.557081
0.557081
0.557081
0.557082
0.557082
0.557082
0.557082
0.557083
0.557083
0.557083
0.557083
0.557083
0.557083
0.557083
0.557083
0.557083
0.557083
0.557083
0.557083
0.557083
0.557083
0.557083
0.557083
0.557083
0.557083
0.557082
0.557082
0.557082
0.557082
0.557081
0.557081
0.557081
0.55708
0.55708
0.557079
0.557078
0.557078
0.557077
0.557075
0.557074
0.557071
0.557066
0.557053
0.557016
0.556904
0.556575
0.580916
0.581247
0.581362
0.581401
0.581414
0.58142
0.581422
0.581424
0.581425
0.581426
0.581427
0.581427
0.581428
0.581428
0.581429
0.581429
0.58143
0.58143
0.58143
0.58143
0.58143
0.581431
0.581431
0.581431
0.581431
0.581431
0.581431
0.581431
0.581431
0.581431
0.581431
0.581431
0.581431
0.581431
0.581431
0.581431
0.581431
0.581431
0.581431
0.58143
0.58143
0.58143
0.58143
0.58143
0.581429
0.581429
0.581428
0.581428
0.581427
0.581427
0.581426
0.581425
0.581424
0.581422
0.58142
0.581414
0.581401
0.581362
0.581247
0.580916
0.604239
0.604571
0.604688
0.604729
0.604743
0.604749
0.604751
0.604753
0.604754
0.604755
0.604755
0.604756
0.604757
0.604757
0.604757
0.604758
0.604758
0.604758
0.604758
0.604759
0.604759
0.604759
0.604759
0.604759
0.604759
0.604759
0.604759
0.604759
0.604759
0.604759
0.604759
0.604759
0.604759
0.604759
0.604759
0.604759
0.604759
0.604759
0.604759
0.604759
0.604759
0.604758
0.604758
0.604758
0.604758
0.604757
0.604757
0.604757
0.604756
0.604755
0.604755
0.604754
0.604753
0.604751
0.604749
0.604743
0.604729
0.604688
0.604571
0.604239
0.626566
0.626898
0.627018
0.62706
0.627075
0.62708
0.627083
0.627084
0.627085
0.627086
0.627087
0.627087
0.627088
0.627088
0.627089
0.627089
0.627089
0.627089
0.62709
0.62709
0.62709
0.62709
0.62709
0.62709
0.62709
0.62709
0.62709
0.62709
0.62709
0.62709
0.62709
0.62709
0.62709
0.62709
0.62709
0.62709
0.62709
0.62709
0.62709
0.62709
0.62709
0.62709
0.627089
0.627089
0.627089
0.627089
0.627088
0.627088
0.627087
0.627087
0.627086
0.627085
0.627084
0.627083
0.62708
0.627075
0.62706
0.627018
0.626898
0.626566
0.647921
0.648251
0.648374
0.648417
0.648432
0.648438
0.648441
0.648442
0.648443
0.648444
0.648445
0.648445
0.648446
0.648446
0.648446
0.648447
0.648447
0.648447
0.648447
0.648447
0.648448
0.648448
0.648448
0.648448
0.648448
0.648448
0.648448
0.648448
0.648448
0.648448
0.648448
0.648448
0.648448
0.648448
0.648448
0.648448
0.648448
0.648448
0.648448
0.648448
0.648447
0.648447
0.648447
0.648447
0.648447
0.648446
0.648446
0.648446
0.648445
0.648445
0.648444
0.648443
0.648442
0.648441
0.648438
0.648432
0.648417
0.648374
0.648251
0.647921
0.668328
0.668656
0.668781
0.668825
0.668841
0.668848
0.66885
0.668852
0.668853
0.668853
0.668854
0.668854
0.668855
0.668855
0.668855
0.668856
0.668856
0.668856
0.668856
0.668856
0.668856
0.668856
0.668857
0.668857
0.668857
0.668857
0.668857
0.668857
0.668857
0.668857
0.668857
0.668857
0.668857
0.668857
0.668857
0.668857
0.668857
0.668857
0.668856
0.668856
0.668856
0.668856
0.668856
0.668856
0.668856
0.668855
0.668855
0.668855
0.668854
0.668854
0.668853
0.668853
0.668852
0.66885
0.668848
0.668841
0.668825
0.668781
0.668656
0.668328
0.687812
0.688138
0.688264
0.68831
0.688327
0.688333
0.688336
0.688337
0.688338
0.688339
0.688339
0.68834
0.68834
0.688341
0.688341
0.688341
0.688341
0.688341
0.688342
0.688342
0.688342
0.688342
0.688342
0.688342
0.688342
0.688342
0.688342
0.688342
0.688342
0.688342
0.688342
0.688342
0.688342
0.688342
0.688342
0.688342
0.688342
0.688342
0.688342
0.688342
0.688342
0.688342
0.688341
0.688341
0.688341
0.688341
0.688341
0.68834
0.68834
0.688339
0.688339
0.688338
0.688337
0.688336
0.688333
0.688327
0.68831
0.688264
0.688138
0.687812
0.706399
0.706722
0.70685
0.706897
0.706914
0.706921
0.706924
0.706925
0.706926
0.706927
0.706927
0.706928
0.706928
0.706928
0.706928
0.706929
0.706929
0.706929
0.706929
0.706929
0.706929
0.706929
0.706929
0.70693
0.70693
0.70693
0.70693
0.70693
0.70693
0.70693
0.70693
0.70693
0.70693
0.70693
0.70693
0.70693
0.70693
0.706929
0.706929
0.706929
0.706929
0.706929
0.706929
0.706929
0.706929
0.706928
0.706928
0.706928
0.706928
0.706927
0.706927
0.706926
0.706925
0.706924
0.706921
0.706914
0.706897
0.70685
0.706722
0.706399
0.724116
0.724434
0.724563
0.724612
0.72463
0.724637
0.72464
0.724641
0.724642
0.724643
0.724643
0.724643
0.724644
0.724644
0.724644
0.724644
0.724644
0.724645
0.724645
0.724645
0.724645
0.724645
0.724645
0.724645
0.724645
0.724645
0.724645
0.724645
0.724645
0.724645
0.724645
0.724645
0.724645
0.724645
0.724645
0.724645
0.724645
0.724645
0.724645
0.724645
0.724645
0.724645
0.724645
0.724644
0.724644
0.724644
0.724644
0.724644
0.724643
0.724643
0.724643
0.724642
0.724641
0.72464
0.724637
0.72463
0.724612
0.724563
0.724434
0.724116
0.740987
0.741301
0.741431
0.741481
0.7415
0.741507
0.74151
0.741511
0.741512
0.741512
0.741513
0.741513
0.741513
0.741514
0.741514
0.741514
0.741514
0.741514
0.741514
0.741515
0.741515
0.741515
0.741515
0.741515
0.741515
0.741515
0.741515
0.741515
0.741515
0.741515
0.741515
0.741515
0.741515
0.741515
0.741515
0.741515
0.741515
0.741515
0.741515
0.741515
0.741515
0.741514
0.741514
0.741514
0.741514
0.741514
0.741514
0.741513
0.741513
0.741513
0.741512
0.741512
0.741511
0.74151
0.741507
0.7415
0.741481
0.741431
0.741301
0.740987
0.757039
0.757348
0.757479
0.75753
0.757549
0.757557
0.75756
0.757561
0.757562
0.757563
0.757563
0.757563
0.757563
0.757564
0.757564
0.757564
0.757564
0.757564
0.757564
0.757564
0.757565
0.757565
0.757565
0.757565
0.757565
0.757565
0.757565
0.757565
0.757565
0.757565
0.757565
0.757565
0.757565
0.757565
0.757565
0.757565
0.757565
0.757565
0.757565
0.757565
0.757564
0.757564
0.757564
0.757564
0.757564
0.757564
0.757564
0.757563
0.757563
0.757563
0.757563
0.757562
0.757561
0.75756
0.757557
0.757549
0.75753
0.757479
0.757348
0.757039
0.772299
0.772602
0.772733
0.772785
0.772805
0.772813
0.772816
0.772817
0.772818
0.772819
0.772819
0.772819
0.77282
0.77282
0.77282
0.77282
0.77282
0.77282
0.77282
0.772821
0.772821
0.772821
0.772821
0.772821
0.772821
0.772821
0.772821
0.772821
0.772821
0.772821
0.772821
0.772821
0.772821
0.772821
0.772821
0.772821
0.772821
0.772821
0.772821
0.772821
0.772821
0.77282
0.77282
0.77282
0.77282
0.77282
0.77282
0.77282
0.772819
0.772819
0.772819
0.772818
0.772817
0.772816
0.772813
0.772805
0.772785
0.772733
0.772602
0.772299
0.786791
0.787088
0.787219
0.787273
0.787293
0.787301
0.787304
0.787306
0.787307
0.787307
0.787308
0.787308
0.787308
0.787308
0.787308
0.787308
0.787309
0.787309
0.787309
0.787309
0.787309
0.787309
0.787309
0.787309
0.787309
0.787309
0.787309
0.787309
0.787309
0.787309
0.787309
0.787309
0.787309
0.787309
0.787309
0.787309
0.787309
0.787309
0.787309
0.787309
0.787309
0.787309
0.787309
0.787309
0.787308
0.787308
0.787308
0.787308
0.787308
0.787308
0.787307
0.787307
0.787306
0.787304
0.787301
0.787293
0.787273
0.787219
0.787088
0.786791
0.800542
0.800833
0.800964
0.801018
0.801039
0.801048
0.801051
0.801052
0.801053
0.801054
0.801054
0.801054
0.801054
0.801055
0.801055
0.801055
0.801055
0.801055
0.801055
0.801055
0.801055
0.801055
0.801055
0.801055
0.801055
0.801055
0.801055
0.801055
0.801055
0.801055
0.801055
0.801055
0.801055
0.801055
0.801055
0.801055
0.801055
0.801055
0.801055
0.801055
0.801055
0.801055
0.801055
0.801055
0.801055
0.801055
0.801055
0.801054
0.801054
0.801054
0.801054
0.801053
0.801052
0.801051
0.801048
0.801039
0.801018
0.800964
0.800833
0.800542
0.813578
0.813861
0.813992
0.814047
0.814069
0.814078
0.814081
0.814083
0.814083
0.814084
0.814084
0.814084
0.814085
0.814085
0.814085
0.814085
0.814085
0.814085
0.814085
0.814085
0.814085
0.814085
0.814085
0.814085
0.814085
0.814085
0.814085
0.814085
0.814085
0.814085
0.814085
0.814085
0.814085
0.814085
0.814085
0.814085
0.814085
0.814085
0.814085
0.814085
0.814085
0.814085
0.814085
0.814085
0.814085
0.814085
0.814085
0.814085
0.814084
0.814084
0.814084
0.814083
0.814083
0.814081
0.814078
0.814069
0.814047
0.813992
0.813861
0.813578
0.825923
0.8262
0.82633
0.826385
0.826408
0.826417
0.826421
0.826422
0.826423
0.826423
0.826424
0.826424
0.826424
0.826424
0.826424
0.826424
0.826424
0.826424
0.826425
0.826425
0.826425
0.826425
0.826425
0.826425
0.826425
0.826425
0.826425
0.826425
0.826425
0.826425
0.826425
0.826425
0.826425
0.826425
0.826425
0.826425
0.826425
0.826425
0.826425
0.826425
0.826425
0.826425
0.826424
0.826424
0.826424
0.826424
0.826424
0.826424
0.826424
0.826424
0.826423
0.826423
0.826422
0.826421
0.826417
0.826408
0.826385
0.82633
0.8262
0.825923
0.837604
0.837873
0.838002
0.838058
0.838081
0.838091
0.838094
0.838096
0.838097
0.838097
0.838098
0.838098
0.838098
0.838098
0.838098
0.838098
0.838098
0.838098
0.838098
0.838099
0.838099
0.838099
0.838099
0.838099
0.838099
0.838099
0.838099
0.838099
0.838099
0.838099
0.838099
0.838099
0.838099
0.838099
0.838099
0.838099
0.838099
0.838099
0.838099
0.838099
0.838099
0.838098
0.838098
0.838098
0.838098
0.838098
0.838098
0.838098
0.838098
0.838098
0.838097
0.838097
0.838096
0.838094
0.838091
0.838081
0.838058
0.838002
0.837873
0.837604
0.848645
0.848906
0.849034
0.84909
0.849114
0.849124
0.849128
0.84913
0.849131
0.849131
0.849131
0.849131
0.849132
0.849132
0.849132
0.849132
0.849132
0.849132
0.849132
0.849132
0.849132
0.849132
0.849132
0.849132
0.849132
0.849132
0.849132
0.849132
0.849132
0.849132
0.849132
0.849132
0.849132
0.849132
0.849132
0.849132
0.849132
0.849132
0.849132
0.849132
0.849132
0.849132
0.849132
0.849132
0.849132
0.849132
0.849132
0.849132
0.849131
0.849131
0.849131
0.849131
0.84913
0.849128
0.849124
0.849114
0.84909
0.849034
0.848906
0.848645
0.85907
0.859324
0.85945
0.859507
0.859532
0.859542
0.859546
0.859548
0.859549
0.859549
0.859549
0.859549
0.859549
0.85955
0.85955
0.85955
0.85955
0.85955
0.85955
0.85955
0.85955
0.85955
0.85955
0.85955
0.85955
0.85955
0.85955
0.85955
0.85955
0.85955
0.85955
0.85955
0.85955
0.85955
0.85955
0.85955
0.85955
0.85955
0.85955
0.85955
0.85955
0.85955
0.85955
0.85955
0.85955
0.85955
0.85955
0.859549
0.859549
0.859549
0.859549
0.859549
0.859548
0.859546
0.859542
0.859532
0.859507
0.85945
0.859324
0.85907
0.868906
0.869151
0.869275
0.869333
0.869358
0.869368
0.869373
0.869374
0.869375
0.869376
0.869376
0.869376
0.869376
0.869376
0.869376
0.869376
0.869377
0.869377
0.869377
0.869377
0.869377
0.869377
0.869377
0.869377
0.869377
0.869377
0.869377
0.869377
0.869377
0.869377
0.869377
0.869377
0.869377
0.869377
0.869377
0.869377
0.869377
0.869377
0.869377
0.869377
0.869377
0.869377
0.869377
0.869377
0.869376
0.869376
0.869376
0.869376
0.869376
0.869376
0.869376
0.869375
0.869374
0.869373
0.869368
0.869358
0.869333
0.869275
0.869151
0.868906
0.878174
0.878411
0.878534
0.878591
0.878617
0.878627
0.878632
0.878634
0.878635
0.878635
0.878636
0.878636
0.878636
0.878636
0.878636
0.878636
0.878636
0.878636
0.878636
0.878636
0.878636
0.878636
0.878636
0.878636
0.878636
0.878636
0.878636
0.878636
0.878636
0.878636
0.878636
0.878636
0.878636
0.878636
0.878636
0.878636
0.878636
0.878636
0.878636
0.878636
0.878636
0.878636
0.878636
0.878636
0.878636
0.878636
0.878636
0.878636
0.878636
0.878636
0.878635
0.878635
0.878634
0.878632
0.878627
0.878617
0.878591
0.878534
0.878411
0.878174
0.8869
0.887129
0.887249
0.887306
0.887332
0.887343
0.887348
0.88735
0.887351
0.887352
0.887352
0.887352
0.887352
0.887352
0.887352
0.887352
0.887352
0.887352
0.887352
0.887352
0.887352
0.887353
0.887353
0.887353
0.887353
0.887353
0.887353
0.887353
0.887353
0.887353
0.887353
0.887353
0.887353
0.887353
0.887353
0.887353
0.887353
0.887353
0.887353
0.887352
0.887352
0.887352
0.887352
0.887352
0.887352
0.887352
0.887352
0.887352
0.887352
0.887352
0.887352
0.887351
0.88735
0.887348
0.887343
0.887332
0.887306
0.887249
0.887129
0.8869
0.895106
0.895326
0.895444
0.895501
0.895528
0.895539
0.895544
0.895546
0.895547
0.895548
0.895548
0.895548
0.895548
0.895548
0.895548
0.895549
0.895549
0.895549
0.895549
0.895549
0.895549
0.895549
0.895549
0.895549
0.895549
0.895549
0.895549
0.895549
0.895549
0.895549
0.895549
0.895549
0.895549
0.895549
0.895549
0.895549
0.895549
0.895549
0.895549
0.895549
0.895549
0.895549
0.895549
0.895549
0.895549
0.895548
0.895548
0.895548
0.895548
0.895548
0.895548
0.895547
0.895546
0.895544
0.895539
0.895528
0.895501
0.895444
0.895326
0.895106
0.902815
0.903027
0.903142
0.903199
0.903226
0.903238
0.903243
0.903245
0.903246
0.903247
0.903247
0.903247
0.903247
0.903247
0.903248
0.903248
0.903248
0.903248
0.903248
0.903248
0.903248
0.903248
0.903248
0.903248
0.903248
0.903248
0.903248
0.903248
0.903248
0.903248
0.903248
0.903248
0.903248
0.903248
0.903248
0.903248
0.903248
0.903248
0.903248
0.903248
0.903248
0.903248
0.903248
0.903248
0.903248
0.903248
0.903247
0.903247
0.903247
0.903247
0.903247
0.903246
0.903245
0.903243
0.903238
0.903226
0.903199
0.903142
0.903027
0.902815
0.91005
0.910254
0.910366
0.910423
0.91045
0.910462
0.910467
0.91047
0.910471
0.910471
0.910472
0.910472
0.910472
0.910472
0.910472
0.910472
0.910472
0.910472
0.910472
0.910472
0.910472
0.910472
0.910472
0.910472
0.910472
0.910472
0.910472
0.910472
0.910472
0.910472
0.910472
0.910472
0.910472
0.910472
0.910472
0.910472
0.910472
0.910472
0.910472
0.910472
0.910472
0.910472
0.910472
0.910472
0.910472
0.910472
0.910472
0.910472
0.910472
0.910472
0.910471
0.910471
0.91047
0.910467
0.910462
0.91045
0.910423
0.910366
0.910254
0.91005
0.916832
0.917028
0.917137
0.917194
0.917221
0.917233
0.917239
0.917241
0.917242
0.917243
0.917243
0.917243
0.917243
0.917243
0.917244
0.917244
0.917244
0.917244
0.917244
0.917244
0.917244
0.917244
0.917244
0.917244
0.917244
0.917244
0.917244
0.917244
0.917244
0.917244
0.917244
0.917244
0.917244
0.917244
0.917244
0.917244
0.917244
0.917244
0.917244
0.917244
0.917244
0.917244
0.917244
0.917244
0.917244
0.917244
0.917243
0.917243
0.917243
0.917243
0.917243
0.917242
0.917241
0.917239
0.917233
0.917221
0.917194
0.917137
0.917028
0.916832
0.923184
0.923371
0.923477
0.923533
0.92356
0.923573
0.923579
0.923581
0.923583
0.923583
0.923584
0.923584
0.923584
0.923584
0.923584
0.923584
0.923584
0.923584
0.923584
0.923584
0.923584
0.923584
0.923584
0.923584
0.923584
0.923584
0.923584
0.923584
0.923584
0.923584
0.923584
0.923584
0.923584
0.923584
0.923584
0.923584
0.923584
0.923584
0.923584
0.923584
0.923584
0.923584
0.923584
0.923584
0.923584
0.923584
0.923584
0.923584
0.923584
0.923584
0.923583
0.923583
0.923581
0.923579
0.923573
0.92356
0.923533
0.923477
0.923371
0.923184
0.929125
0.929304
0.929407
0.929462
0.92949
0.929503
0.929509
0.929511
0.929513
0.929513
0.929514
0.929514
0.929514
0.929514
0.929514
0.929514
0.929514
0.929514
0.929514
0.929514
0.929514
0.929514
0.929514
0.929514
0.929514
0.929514
0.929514
0.929514
0.929514
0.929514
0.929514
0.929514
0.929514
0.929514