/*--------------------------------*- C++ -*----------------------------------*\
| =========                 |                                                 |
| \\      /  F ield         | foam-extend: Open Source CFD                    |
|  \\    /   O peration     | Version:     4.0                                |
|   \\  /    A nd           | Web:         http://www.foam-extend.org         |
|    \\/     M anipulation  |                                                 |
\*---------------------------------------------------------------------------*/
FoamFile
{
    version     2.0;
    format      ascii;
    class       volScalarField;
    location    "12";
    object      dPhi;
}
// * * * * * * * * * * * * * * * * * * * * * * * * * * * * * * * * * * * * * //

dimensions      [0 -1 0 0 0 0 0];

internalField   nonuniform List<scalar> 
6960
(
1.31676e-15
-7.05165e-16
-1.24456e-15
1.07336e-17
-3.32156e-15
1.66772e-15
-3.06396e-16
2.99348e-16
1.78373e-15
-6.32632e-16
-4.63063e-16
8.20307e-16
-1.74741e-15
-7.83661e-16
-2.646e-15
-2.27899e-16
1.52623e-15
5.23995e-16
-4.92878e-16
-2.60425e-16
-1.43169e-15
-9.42714e-16
-1.47592e-15
-1.4138e-15
1.15034e-16
-3.3285e-16
-1.42605e-15
1.67021e-15
9.19837e-16
-5.14562e-16
2.35272e-17
5.7647e-16
-1.75662e-15
4.59702e-16
-3.93891e-15
1.50368e-15
9.21789e-16
1.755e-15
5.65845e-16
5.09575e-16
-1.48818e-15
1.61004e-16
1.63389e-15
1.74697e-15
6.44992e-16
1.91069e-15
1.18818e-15
3.81422e-16
-1.8104e-15
-2.58116e-15
1.11803e-15
-7.1579e-16
9.92804e-16
-1.12659e-15
1.4344e-16
6.42932e-16
-2.40444e-15
-1.47701e-15
-1.95688e-15
2.56089e-16
-3.01191e-16
4.51679e-16
2.8688e-16
-7.24247e-16
5.96962e-16
2.05695e-15
1.21561e-15
-1.40816e-15
-3.23027e-15
3.53168e-15
-6.16261e-16
-1.84098e-16
8.74084e-16
-1.32121e-15
4.07009e-15
1.84401e-15
7.275e-16
-4.22752e-15
-5.59665e-16
1.21864e-16
4.17635e-16
4.09004e-15
-1.47235e-16
-2.99348e-15
-1.7679e-15
4.19261e-15
3.03577e-17
9.66024e-16
2.00252e-15
-1.14513e-15
-4.26373e-15
1.87936e-15
3.71946e-15
1.27871e-15
3.94454e-15
6.52907e-16
2.14542e-15
-1.33248e-15
1.65167e-15
-8.46762e-16
1.98821e-15
-1.01134e-15
-3.40765e-15
-2.91065e-15
-1.13646e-15
-3.93652e-15
3.00996e-15
2.14629e-15
5.50992e-16
6.72639e-16
-2.17057e-16
-1.08008e-15
3.75177e-15
1.87177e-15
1.37043e-15
6.12791e-16
1.15619e-15
2.90826e-15
1.03064e-15
1.25117e-16
5.44703e-16
5.72025e-16
1.67704e-15
-2.48933e-15
-2.10595e-15
1.16487e-15
-3.42695e-15
3.02709e-16
3.85065e-15
-1.40643e-15
1.4164e-15
2.27813e-15
-1.02349e-16
3.07393e-15
-4.96781e-15
-2.48803e-15
2.328e-15
2.12677e-15
-6.34909e-16
1.12757e-17
3.07306e-15
-2.85709e-15
-2.27596e-15
2.61033e-15
3.93349e-15
-1.04257e-15
-1.28326e-15
2.90133e-15
-7.42028e-16
8.82541e-16
2.25557e-15
1.94116e-15
-1.07249e-15
7.03864e-16
8.62591e-16
1.60765e-15
-8.66061e-16
1.86266e-15
1.40252e-15
-1.42247e-16
-3.27689e-15
-1.92988e-15
1.72475e-15
-2.48369e-15
-1.16573e-15
5.28006e-15
-2.9924e-16
-5.87638e-16
-3.74787e-15
-3.15763e-15
2.0847e-15
-2.82326e-16
-1.3726e-15
-1.68268e-15
-4.22926e-15
5.08231e-15
-2.51838e-15
-6.04117e-16
-3.34628e-15
-1.98713e-15
-4.329e-15
4.23966e-15
-2.00621e-15
2.21784e-15
3.31419e-15
-8.97719e-16
5.2033e-15
5.23713e-15
-6.68562e-15
6.08021e-16
8.45678e-16
-4.43916e-15
3.21184e-15
-3.51282e-15
3.76435e-15
3.46598e-15
-3.08781e-16
-1.68442e-15
-5.85469e-16
-7.78891e-16
-3.65159e-16
2.14065e-15
4.98906e-15
3.31072e-15
6.6093e-16
-5.72372e-15
-2.02095e-15
-3.93782e-15
1.09721e-15
2.37657e-15
-4.02282e-15
-3.86323e-15
1.14925e-15
3.97252e-16
3.41133e-15
2.24126e-15
-6.7394e-16
1.72778e-15
-3.02449e-15
-3.33674e-15
5.38111e-15
-2.2456e-15
-1.14578e-15
6.54858e-16
-6.40113e-16
-5.39672e-15
2.97765e-15
-4.27176e-15
3.49373e-15
-3.37751e-15
2.7079e-15
-2.74173e-15
1.81018e-15
4.36109e-15
5.30131e-15
4.8312e-16
-1.77462e-15
2.85449e-15
-3.02709e-15
-7.9884e-16
-1.0443e-15
-1.58727e-15
3.74006e-15
1.72952e-15
-1.31666e-15
3.45904e-15
-5.03417e-15
-5.06366e-15
3.46598e-15
-1.00614e-16
-1.15533e-15
2.66107e-15
-2.44769e-15
2.76168e-15
-3.37577e-15
-4.03497e-15
-3.03577e-15
1.22471e-15
-6.13225e-15
2.31239e-15
1.1692e-15
-1.42594e-15
-1.5786e-16
-3.67761e-15
-1.30798e-15
6.75154e-15
1.97932e-15
3.92048e-15
-1.1588e-15
-6.40286e-15
3.06005e-15
-1.71391e-15
2.17534e-15
1.37043e-15
-3.91527e-15
1.38778e-15
-2.85535e-15
1.67227e-15
3.18842e-15
9.62078e-15
-5.00468e-15
3.67588e-15
1.79891e-15
1.46931e-15
-3.74874e-15
1.40513e-15
-4.996e-15
-3.22659e-16
-7.27543e-15
3.46945e-18
-2.75821e-15
1.38604e-15
-2.11636e-16
4.53804e-15
5.13478e-16
-3.10516e-15
3.21271e-15
-3.22659e-16
6.55552e-15
5.61703e-15
-4.1564e-15
-6.67522e-15
9.02056e-17
6.23113e-15
1.12063e-15
-8.71872e-15
4.09395e-16
5.75928e-16
7.80626e-16
2.73045e-15
5.97786e-15
-5.13825e-15
8.0734e-15
4.57273e-15
-1.65146e-15
3.94823e-15
1.73125e-15
-3.47292e-15
9.88098e-15
-4.69416e-15
-2.15106e-15
6.93542e-15
-6.41848e-16
-4.4062e-16
2.09555e-15
-2.06779e-15
6.19643e-15
3.13985e-15
-7.63278e-17
8.8124e-16
1.58554e-15
5.08274e-15
-6.66481e-15
3.70884e-15
-3.46945e-17
-4.66641e-15
3.34802e-15
1.53003e-15
-9.99201e-16
-8.74301e-15
9.22873e-16
-1.57513e-15
2.35922e-16
6.91461e-15
-1.48839e-15
1.64105e-15
5.10009e-15
-3.98986e-16
8.79505e-15
1.83534e-15
3.09822e-15
4.78437e-15
-5.18682e-15
-2.42861e-15
2.68535e-15
4.17028e-15
3.17107e-15
-9.66588e-15
-3.19883e-15
-6.10276e-15
9.15934e-16
1.1921e-14
3.01842e-16
-1.07726e-14
-7.59809e-16
8.78464e-15
-1.39125e-15
-2.498e-16
-2.02616e-15
-1.63758e-15
-3.07046e-15
-1.8284e-15
1.11716e-15
-6.14786e-15
7.48707e-15
-5.54418e-15
1.77983e-15
-1.54737e-15
-1.45786e-14
6.92155e-15
3.77129e-15
-1.38257e-14
3.81986e-15
-4.54498e-16
6.5746e-15
7.14706e-16
-6.25888e-15
7.83748e-15
6.49827e-15
6.31786e-15
-1.15186e-15
-1.34268e-15
-1.45717e-16
-3.52843e-15
3.24393e-15
1.9082e-15
-6.66134e-15
-4.37497e-15
6.76542e-16
4.26742e-15
1.9533e-15
6.70644e-15
-5.16254e-15
-6.30052e-15
2.78597e-15
1.38778e-17
-6.93889e-18
1.10675e-15
-1.53072e-14
-2.68535e-15
3.57006e-15
-5.54418e-15
7.70217e-16
5.0307e-15
-1.84575e-15
3.86843e-15
3.51802e-15
1.0613e-14
3.27169e-15
5.86683e-15
-6.48093e-15
-8.34749e-15
-9.36057e-15
-3.1572e-15
7.66748e-15
-7.34135e-15
4.85723e-16
7.28584e-15
4.03844e-15
-4.16334e-15
-1.45717e-16
4.29518e-15
-1.09149e-14
4.20497e-15
-2.87964e-15
5.16254e-15
3.86496e-15
-3.747e-16
2.44249e-15
-9.58261e-15
-6.66134e-16
1.44051e-14
-5.19029e-15
1.36002e-15
-8.50708e-15
-3.19189e-15
2.70617e-15
4.32293e-15
-4.07313e-15
-1.04222e-14
-5.39846e-15
-4.44089e-16
3.40006e-15
6.81399e-15
-2.76168e-15
3.88578e-16
-5.66908e-15
2.35922e-16
1.30451e-15
7.42462e-16
5.19029e-15
-1.12202e-14
1.8735e-16
4.78784e-15
-2.6229e-15
2.13718e-15
-2.57433e-15
-6.57113e-15
1.29063e-14
2.81025e-15
-1.08247e-14
4.996e-15
5.25274e-15
-9.99201e-16
-2.9074e-15
-7.07767e-15
-9.98507e-15
1.6584e-15
-1.60219e-14
-1.20737e-15
9.29812e-16
4.08007e-15
1.25455e-14
9.82547e-15
-4.91274e-15
7.27196e-15
1.58207e-15
-1.31284e-14
6.93889e-16
1.1921e-14
1.47105e-15
-1.24067e-14
1.62925e-14
-7.45237e-15
-1.00614e-14
-5.48173e-15
-5.68989e-15
1.67921e-15
5.07927e-15
9.70057e-15
6.13398e-15
-5.3707e-15
-5.6205e-15
-5.23193e-15
9.8116e-15
-1.54043e-15
-1.04083e-15
-1.89848e-14
8.32667e-16
6.27276e-15
2.09416e-14
2.98372e-15
-7.84095e-15
-9.52016e-15
1.21986e-14
6.88338e-15
1.81938e-14
8.60423e-16
-4.46865e-15
2.10942e-15
-4.14946e-15
6.8695e-15
-1.45717e-15
1.85962e-15
4.85723e-16
1.98452e-15
-6.6197e-15
-3.02536e-15
2.2482e-15
-4.28824e-15
1.13243e-14
-2.60902e-15
-1.36002e-15
7.09155e-15
1.41553e-15
4.42701e-15
5.31519e-15
-9.10383e-15
1.30312e-14
-2.498e-15
4.4964e-15
1.79023e-15
-7.84095e-15
-1.31978e-14
1.30035e-14
-1.18655e-14
-1.34615e-15
5.75928e-15
-9.92262e-15
-3.52496e-15
8.49321e-15
1.13659e-14
2.30371e-15
1.64452e-14
1.11022e-14
1.94289e-15
1.38778e-15
2.40086e-15
-1.10606e-14
-1.03806e-14
-1.52656e-15
-5.71765e-15
1.20182e-14
1.01308e-14
6.80012e-16
5.84255e-15
5.27356e-15
2.24265e-14
7.34135e-15
-1.03945e-14
-1.46688e-14
1.14908e-14
-9.4369e-16
-6.34215e-15
-1.79301e-14
-7.75768e-15
-6.52256e-16
-4.38538e-15
-8.18789e-16
-1.92901e-15
-4.06619e-15
1.76248e-15
2.66454e-15
6.20337e-15
-8.45157e-15
-3.31679e-15
1.52239e-14
9.92262e-15
-9.82547e-15
4.27436e-15
-3.59435e-15
-3.70537e-15
4.69069e-15
-7.56339e-15
1.16712e-14
-1.79023e-15
-1.38778e-16
1.32255e-14
1.67921e-15
9.99201e-15
2.85882e-15
-7.35523e-16
-4.27436e-15
1.79717e-14
-1.82632e-14
1.08941e-14
5.64826e-15
1.04083e-14
2.25653e-14
-8.77076e-15
-1.70419e-14
-6.53644e-15
-8.40994e-15
-9.50628e-15
1.36002e-15
-4.3715e-15
3.9968e-15
-8.67362e-15
2.28983e-15
3.16414e-15
-4.64906e-15
-1.33227e-15
-8.27116e-15
-1.49603e-14
2.41474e-15
1.80411e-16
-1.66533e-16
-1.58901e-14
-1.47521e-14
1.3059e-14
1.6806e-14
-8.75688e-15
4.52416e-15
1.04361e-14
1.49047e-14
1.20182e-14
-1.80411e-15
4.3715e-15
-1.47105e-15
1.79023e-15
7.88258e-15
1.31423e-14
1.34615e-15
-5.60663e-15
1.14769e-14
-6.245e-16
-9.5618e-15
-2.11359e-14
6.31439e-15
2.58127e-15
-1.8166e-14
1.84297e-14
3.40006e-15
2.31759e-15
-6.98053e-15
5.93969e-15
3.52496e-15
-6.18949e-15
-3.20577e-15
-1.24067e-14
-1.11022e-14
3.58047e-15
1.33227e-15
-8.71525e-15
1.54599e-14
-2.41474e-15
-1.39888e-14
-1.69309e-14
-1.37945e-14
1.06026e-14
9.74221e-15
-5.38458e-15
6.93889e-16
2.10942e-15
-1.99007e-14
5.27356e-16
-1.08524e-14
1.09079e-14
-3.747e-15
-1.06026e-14
7.16094e-15
1.00475e-14
7.93809e-15
7.29972e-15
-1.21014e-14
2.44249e-15
-7.10543e-15
4.16334e-15
1.12965e-14
1.09635e-14
-1.07414e-14
7.71605e-15
-7.46625e-15
-9.6867e-15
-7.38298e-15
-6.68909e-15
4.88498e-15
-4.77396e-15
1.43496e-14
-1.18516e-14
-9.4369e-16
-2.05946e-14
-1.02696e-14
4.91274e-15
-4.19109e-15
-7.49401e-16
3.05311e-16
1.7375e-14
-4.7462e-15
6.02296e-15
2.27873e-14
-2.37033e-14
-1.41553e-15
-5.88418e-15
-1.34059e-14
-5.52336e-15
4.10783e-15
-5.27356e-15
5.46785e-15
-8.71525e-15
-1.11022e-16
4.85723e-15
8.35443e-15
-6.68909e-15
-7.54952e-15
7.07767e-15
1.08524e-14
1.3628e-14
6.18949e-15
-6.88338e-15
-3.85803e-15
8.46545e-15
4.41314e-15
-3.71925e-15
9.21485e-15
4.32987e-15
1.88738e-15
-6.96665e-15
3.55271e-15
2.2482e-15
4.96825e-15
3.33067e-16
-1.74583e-14
6.80012e-15
6.88338e-15
-6.63358e-15
5.4956e-15
9.21485e-15
2.96985e-15
-1.16573e-14
1.01585e-14
-1.04361e-14
9.13158e-15
-4.94049e-15
1.04361e-14
4.66294e-15
-4.88498e-15
5.16254e-15
-1.62093e-14
1.11022e-14
-1.39055e-14
1.14353e-14
6.7446e-15
-7.91034e-15
-8.65974e-15
4.16334e-16
1.38778e-16
-1.27953e-14
-4.77396e-15
-6.30052e-15
-1.40443e-14
5.96745e-15
-1.10745e-14
1.33782e-14
1.34059e-14
-2.52576e-15
1.7486e-15
9.88098e-15
-7.02216e-15
1.58484e-14
1.91236e-14
-1.16296e-14
-5.27356e-15
8.74301e-15
1.83187e-15
-4.82947e-15
-3.33067e-16
-1.16573e-15
-1.11022e-16
6.07847e-15
5.82867e-16
4.38538e-15
-2.60902e-15
2.41474e-15
4.2466e-15
1.69309e-15
1.91513e-15
-1.22957e-14
-3.9968e-15
-6.05072e-15
-1.09357e-14
-2.02616e-15
2.6007e-14
-3.41394e-15
-1.41553e-15
8.29892e-15
-2.41474e-15
-1.06026e-14
-7.88258e-15
4.16334e-15
-7.82707e-15
1.28786e-14
-2.66454e-15
3.30291e-15
-1.36835e-14
-1.63758e-15
1.06304e-14
-8.18789e-15
3.33067e-16
2.58127e-15
-3.60822e-16
-1.63758e-15
7.54952e-15
8.88178e-16
5.52336e-15
4.94049e-15
-8.29892e-15
-2.66454e-15
-9.79772e-15
-7.77156e-16
2.01783e-14
1.52656e-15
5.71765e-15
-2.69229e-15
-4.91274e-15
4.08007e-15
-1.03251e-14
-6.32827e-15
6.07847e-15
-9.32587e-15
-1.41553e-14
1.28786e-14
7.99361e-15
-8.32667e-16
6.21725e-15
-3.66374e-15
-9.4369e-15
-7.66054e-15
3.4972e-15
1.66533e-15
1.20459e-14
-7.49401e-15
9.10383e-15
-2.83107e-15
2.498e-15
-1.94289e-15
3.16414e-15
7.66054e-15
7.88258e-15
5.38458e-15
5.21805e-15
2.22045e-16
-2.4647e-14
-2.10942e-15
-6.05072e-15
-4.16334e-15
-2.72005e-15
-4.38538e-15
1.4988e-15
-9.4369e-15
6.21725e-15
-7.04992e-15
2.83107e-15
-4.82947e-15
-3.83027e-15
3.83027e-15
-1.69864e-14
2.22045e-15
1.94289e-15
-1.77636e-15
1.34892e-14
3.88578e-15
-1.24345e-14
3.83027e-15
1.00475e-14
-1.22125e-15
1.64313e-14
1.72085e-15
7.04992e-15
3.4972e-15
-1.00475e-14
-7.10543e-15
7.93809e-15
-8.88178e-16
6.99441e-15
-1.29896e-14
6.93889e-15
1.05471e-15
-4.66294e-15
7.66054e-15
1.44329e-15
-7.10543e-15
-1.34892e-14
-4.66294e-15
-1.50435e-14
6.10623e-15
1.04361e-14
1.17129e-14
-2.22045e-16
-3.77476e-15
-4.44089e-15
5.60663e-15
-4.60743e-15
-1.16573e-15
-6.71685e-15
-1.46549e-14
-4.16334e-15
7.77156e-16
-3.66374e-15
1.94289e-15
0
3.21965e-15
2.17049e-14
-6.38378e-15
1.14908e-14
6.93889e-15
4.88498e-15
8.65974e-15
1.72085e-15
-1.16573e-15
-5.88418e-15
1.05471e-15
-1.11022e-15
6.99441e-15
-2.33147e-15
-4.38538e-15
2.20379e-14
1.4988e-15
1.72085e-15
2.9976e-15
-3.71925e-15
-1.42109e-14
7.54952e-15
-3.4972e-15
-1.79856e-14
6.38378e-15
-9.04832e-15
-1.38778e-15
4.44089e-16
-1.60982e-15
-7.32747e-15
1.04361e-14
-1.2601e-14
-2.44249e-15
-6.27276e-15
1.17129e-14
2.9976e-15
-4.44089e-15
7.21645e-16
-1.22125e-15
3.33067e-15
9.99201e-15
1.249e-14
-4.44089e-15
8.27116e-15
-3.94129e-15
-6.93889e-15
1.22125e-15
5.44009e-15
9.54792e-15
-5.55112e-15
1.07137e-14
-6.93889e-15
-7.16094e-15
8.71525e-15
1.68754e-14
1.55431e-15
-1.88738e-15
7.21645e-16
-5.71765e-15
-1.9984e-15
-1.50435e-14
-1.01585e-14
1.44329e-14
-1.52656e-14
-7.04992e-15
-1.33227e-15
-1.94289e-15
-9.15934e-15
1.4988e-15
9.04832e-15
-1.07692e-14
-3.16414e-15
2.33147e-15
7.10543e-15
1.44884e-14
-2.08722e-14
8.88178e-16
1.88738e-15
7.43849e-15
-9.88098e-15
1.99285e-14
-3.88578e-15
1.18239e-14
-5.32907e-15
-3.9968e-15
-2.10942e-15
7.21645e-15
6.71685e-15
-2.83107e-15
1.20459e-14
-9.49241e-15
-4.44089e-16
-5.55112e-16
1.18239e-14
5.55112e-17
-1.06026e-14
-1.44329e-15
-3.33067e-16
-6.05072e-15
5.60663e-15
-1.31006e-14
2.60902e-15
1.81521e-14
-6.66134e-15
8.21565e-15
-5.21805e-15
-6.27276e-15
-1.69864e-14
-3.83027e-15
9.21485e-15
-1.79301e-14
9.21485e-15
-2.22045e-16
-4.44089e-16
-1.21014e-14
4.38538e-15
5.55112e-16
-7.27196e-15
6.21725e-15
4.38538e-15
2.13163e-14
-4.82947e-15
-4.05231e-15
1.37113e-14
1.21569e-14
3.33067e-15
-1.55431e-14
6.77236e-15
-2.33147e-15
-8.82627e-15
6.88338e-15
6.99441e-15
-8.65974e-15
-5.60663e-15
-2.58127e-14
1.87073e-14
9.04832e-15
-7.49401e-15
-1.13243e-14
9.32587e-15
-2.44804e-14
-9.99201e-16
-3.10862e-15
1.4766e-14
1.13798e-14
6.60583e-15
-1.35447e-14
-8.38218e-15
1.31006e-14
-8.49321e-15
-7.04992e-15
3.88578e-15
7.54952e-15
-1.93734e-14
-1.77636e-15
-4.27436e-15
1.84297e-14
-1.66533e-15
7.93809e-15
-8.32667e-15
1.04361e-14
3.55271e-15
-1.25455e-14
9.65894e-15
-1.27676e-14
5.66214e-15
1.77636e-15
1.39888e-14
2.77556e-15
-4.32987e-15
7.54952e-15
3.55271e-15
1.26565e-14
-2.55351e-15
2.32037e-14
-1.59872e-14
-5.55112e-16
3.77476e-15
-2.77556e-15
-8.10463e-15
-1.12133e-14
1.25455e-14
-9.4369e-15
-5.9952e-15
-2.43139e-14
-6.10623e-15
1.22125e-14
3.55271e-15
-7.77156e-15
3.44169e-15
1.62093e-14
-1.34337e-14
-1.44329e-15
5.9952e-15
2.76446e-14
-1.83187e-14
-1.55431e-14
3.10862e-15
3.10862e-15
-1.77636e-15
1.4766e-14
9.4369e-15
-1.76525e-14
1.32117e-14
-1.76525e-14
-2.9976e-15
-3.55271e-15
1.31006e-14
-5.55112e-15
9.99201e-16
1.16573e-14
7.77156e-15
-7.66054e-15
1.28786e-14
-1.07692e-14
2.5091e-14
-5.21805e-15
-7.77156e-16
-7.77156e-16
1.9984e-15
1.31006e-14
-4.66294e-15
1.13243e-14
9.10383e-15
-3.88578e-15
2.88658e-15
1.12133e-14
2.33147e-15
-7.66054e-15
7.32747e-15
-1.76525e-14
-1.23235e-14
-7.88258e-15
-7.77156e-16
-3.27516e-14
4.55191e-15
1.09912e-14
1.15463e-14
1.96509e-14
7.77156e-15
-3.33067e-15
-7.32747e-15
-1.12133e-14
7.99361e-15
9.88098e-15
1.04361e-14
-5.66214e-15
1.15463e-14
1.07692e-14
1.33227e-15
-3.31957e-14
1.04361e-14
3.33067e-16
-2.9976e-15
-2.60902e-14
1.08802e-14
6.10623e-15
1.11022e-14
3.10862e-15
4.21885e-15
1.13243e-14
-2.32037e-14
2.55351e-14
-2.02061e-14
1.84297e-14
1.33227e-15
7.43849e-15
-8.10463e-15
6.10623e-15
7.88258e-15
2.55351e-15
-8.10463e-15
7.10543e-15
-1.11022e-16
5.32907e-15
-1.03251e-14
1.66533e-15
-5.88418e-15
1.63203e-14
5.55112e-16
-1.88738e-14
-5.66214e-15
-8.77076e-15
-1.4877e-14
1.73195e-14
-2.9976e-15
-1.32117e-14
-1.32117e-14
8.10463e-15
1.11022e-15
1.52101e-14
1.89848e-14
-5.44009e-15
-9.99201e-16
1.75415e-14
6.32827e-15
-1.4988e-14
-1.67644e-14
-1.4766e-14
1.19904e-14
6.43929e-15
1.22125e-15
1.22125e-14
-2.27596e-14
1.11022e-15
-3.33067e-16
2.9976e-15
-1.55431e-14
1.19904e-14
-7.43849e-15
8.21565e-15
-1.77636e-15
2.66454e-15
6.66134e-16
7.32747e-15
-4.55191e-15
1.22125e-15
-7.54952e-15
-4.44089e-15
-9.99201e-15
-1.73195e-14
1.94289e-14
-1.87628e-14
2.25375e-14
-3.9968e-15
-1.76525e-14
-8.88178e-15
3.9968e-15
-1.39888e-14
-4.10783e-15
-1.07692e-14
6.99441e-15
-1.29896e-14
-9.99201e-16
3.33067e-15
-4.88498e-15
-1.05471e-14
9.65894e-15
-1.93179e-14
-3.33067e-16
2.20934e-14
2.07612e-14
9.65894e-15
6.10623e-15
-2.77556e-15
9.99201e-16
1.03251e-14
1.9984e-15
-1.63203e-14
-7.66054e-15
4.44089e-16
5.55112e-16
8.88178e-16
1.06581e-14
-2.77556e-15
-1.65423e-14
-7.77156e-16
6.66134e-15
-7.77156e-15
-1.73195e-14
1.55431e-15
1.44329e-15
-4.77396e-15
3.28626e-14
1.33227e-15
-8.10463e-15
-2.69784e-14
1.19904e-14
-2.54241e-14
1.66533e-14
1.15463e-14
-6.10623e-15
-6.10623e-15
7.10543e-15
-3.10862e-15
-6.66134e-16
-1.08802e-14
-5.10703e-15
7.99361e-15
7.54952e-15
7.66054e-15
-8.88178e-16
9.76996e-15
-6.21725e-15
-3.55271e-15
2.4869e-14
7.43849e-15
-1.11022e-15
1.67644e-14
6.88338e-15
3.9968e-15
-5.44009e-15
7.32747e-15
-2.44249e-15
8.77076e-15
6.32827e-15
5.21805e-15
3.55271e-15
3.44169e-15
-4.32987e-15
-1.96509e-14
-7.43849e-15
-7.66054e-15
-6.66134e-15
-8.65974e-15
-1.11022e-15
-8.32667e-15
1.85407e-14
1.9873e-14
6.43929e-15
3.55271e-15
-1.9873e-14
1.57652e-14
-7.21645e-15
1.14353e-14
4.88498e-15
1.55431e-15
1.9984e-15
1.43219e-14
6.10623e-15
-1.88738e-14
-1.15463e-14
4.66294e-15
-6.10623e-15
-1.25455e-14
4.32987e-15
2.69784e-14
-7.66054e-15
-4.32987e-15
-1.86517e-14
-7.54952e-15
5.32907e-15
2.33147e-15
-1.31006e-14
6.43929e-15
-3.88578e-15
1.12133e-14
9.99201e-16
-7.10543e-15
-1.77636e-15
2.44249e-15
-6.21725e-15
4.88498e-15
-9.99201e-16
-1.77636e-15
-1.04361e-14
1.36557e-14
6.43929e-15
-1.25455e-14
-2.9976e-15
-1.08802e-14
9.4369e-15
8.99281e-15
-9.32587e-15
-6.66134e-16
1.22125e-15
-2.55351e-15
-9.54792e-15
6.99441e-15
1.06581e-14
-7.99361e-15
-7.43849e-15
2.66454e-15
1.57652e-14
1.17684e-14
1.02141e-14
4.996e-15
-1.92069e-14
-9.32587e-15
-4.32987e-15
-4.55191e-15
7.43849e-15
-7.88258e-15
-6.32827e-15
-1.75415e-14
7.21645e-15
-1.55431e-15
5.55112e-16
-8.43769e-15
5.66214e-15
1.42109e-14
7.10543e-15
-7.66054e-15
-1.58762e-14
1.55431e-14
1.27676e-14
2.9976e-15
5.44009e-15
2.13163e-14
1.55431e-14
-4.21885e-15
-6.43929e-15
4.21885e-15
1.07692e-14
1.22125e-15
-1.11022e-16
3.33067e-16
5.44009e-15
-5.21805e-15
4.66294e-15
-3.66374e-15
-1.11022e-16
-1.55431e-15
6.21725e-15
-2.22045e-15
-4.66294e-15
-2.64233e-14
2.22045e-16
-9.99201e-16
-4.21885e-15
2.29816e-14
-7.43849e-15
-1.02141e-14
4.21885e-15
-1.58762e-14
8.99281e-15
1.06581e-14
9.76996e-15
-1.68754e-14
-1.33227e-14
6.66134e-15
1.06581e-14
3.33067e-15
-1.95399e-14
-1.04361e-14
-1.19904e-14
-7.77156e-15
1.79856e-14
-2.44249e-15
-8.88178e-16
-6.66134e-16
9.10383e-15
-7.77156e-15
2.22045e-15
0
-4.88498e-15
-1.08802e-14
-8.21565e-15
-8.88178e-16
-6.21725e-15
1.11022e-14
3.10862e-15
4.66294e-15
1.24345e-14
-5.77316e-15
-2.73115e-14
-6.66134e-15
-8.65974e-15
-1.70974e-14
-1.57652e-14
-1.77636e-15
5.55112e-15
-1.08802e-14
1.77636e-15
-1.11022e-15
-1.33227e-14
-3.9968e-15
8.88178e-16
2.22045e-16
-5.77316e-15
7.99361e-15
3.10862e-15
-1.55431e-15
9.54792e-15
7.99361e-15
1.33227e-15
1.33227e-15
-9.54792e-15
1.28786e-14
1.93179e-14
-9.76996e-15
1.77636e-15
-1.77636e-15
4.66294e-15
7.32747e-15
-9.10383e-15
-1.59872e-14
-1.11022e-15
2.19824e-14
-6.66134e-16
-2.44249e-15
-2.39808e-14
-2.88658e-15
8.65974e-15
8.88178e-15
5.32907e-15
4.88498e-15
-2.44249e-15
1.68754e-14
-7.54952e-15
-3.33067e-15
-5.32907e-15
-2.44249e-15
-1.77636e-15
1.66533e-14
-2.44249e-15
1.55431e-14
-4.44089e-16
5.9952e-15
3.10862e-15
-2.5091e-14
-1.9984e-15
-1.11022e-15
-9.54792e-15
2.88658e-15
2.33147e-14
-5.10703e-15
1.5099e-14
-8.88178e-16
3.77476e-15
-4.44089e-16
-1.11022e-15
-5.55112e-15
-6.43929e-15
-5.55112e-15
1.9984e-14
7.99361e-15
-4.21885e-15
1.75415e-14
5.32907e-15
-1.44329e-14
-7.32747e-15
3.10862e-15
-2.55351e-14
-7.32747e-15
4.44089e-15
9.54792e-15
3.9968e-15
-5.32907e-15
-2.10942e-14
-1.31006e-14
-1.37668e-14
6.21725e-15
-4.21885e-15
-7.32747e-15
7.10543e-15
1.88738e-14
-7.77156e-15
-1.35447e-14
1.15463e-14
1.64313e-14
2.39808e-14
-2.88658e-15
-8.88178e-15
-2.66454e-15
-6.21725e-15
-5.77316e-15
-1.37668e-14
-1.46549e-14
1.42109e-14
4.21885e-15
4.21885e-15
1.9984e-15
-3.9968e-15
-1.84297e-14
6.66134e-16
-1.11022e-14
1.35447e-14
-6.88338e-15
-1.33227e-14
1.79856e-14
-1.68754e-14
-5.32907e-15
2.37588e-14
-1.02141e-14
-1.9984e-14
9.76996e-15
-9.54792e-15
6.43929e-15
3.33067e-15
-3.55271e-15
-1.33227e-15
-4.44089e-16
1.77636e-15
-5.32907e-15
-2.44249e-15
-8.88178e-15
1.39888e-14
-1.33227e-14
4.21885e-15
1.79856e-14
2.44249e-15
-2.44249e-15
1.86517e-14
3.33067e-15
-2.44249e-15
3.77476e-15
7.77156e-15
-3.9968e-15
5.55112e-15
2.35367e-14
9.10383e-15
-1.24345e-14
2.66454e-15
-3.33067e-15
-3.9968e-15
-7.99361e-15
6.21725e-15
3.9968e-15
2.22045e-15
-1.82077e-14
-1.11022e-15
5.9952e-15
1.22125e-14
1.57652e-14
7.32747e-15
4.44089e-15
1.4877e-14
6.66134e-15
-7.77156e-15
1.11022e-14
-1.55431e-15
1.24345e-14
1.9984e-15
1.26565e-14
0
8.88178e-16
-1.66533e-14
4.21885e-15
1.86517e-14
-8.65974e-15
2.02061e-14
3.33067e-15
-1.37668e-14
9.10383e-15
5.9952e-15
-8.21565e-15
-7.54952e-15
-4.44089e-15
-1.37668e-14
7.77156e-15
-3.55271e-15
2.73115e-14
8.88178e-15
7.10543e-15
8.43769e-15
1.28786e-14
-1.28786e-14
-1.55431e-15
-7.99361e-15
-1.64313e-14
-3.10862e-15
-2.66454e-15
-6.66134e-15
3.77476e-15
9.76996e-15
-1.04361e-14
-9.10383e-15
-4.66294e-15
3.10862e-15
-1.35447e-14
-1.08802e-14
2.35367e-14
-6.88338e-15
9.32587e-15
-1.55431e-14
1.79856e-14
-6.21725e-15
-7.54952e-15
-1.24345e-14
1.5099e-14
-5.55112e-15
-7.99361e-15
-1.55431e-14
-2.59792e-14
-9.99201e-15
-3.9968e-15
-8.43769e-15
-3.9968e-15
-8.88178e-15
-1.28786e-14
3.10862e-15
-1.11022e-14
-5.9952e-15
-1.35447e-14
5.77316e-15
5.55112e-15
2.66454e-15
2.44249e-15
-7.32747e-15
1.33227e-15
1.33227e-15
-1.44329e-14
-5.55112e-15
0
4.88498e-15
2.22045e-15
1.4877e-14
1.24345e-14
8.65974e-15
-1.68754e-14
-4.44089e-16
-2.73115e-14
-2.22045e-15
1.9984e-15
-1.62093e-14
-1.22125e-14
1.77636e-15
-3.9968e-15
1.04361e-14
1.19904e-14
1.55431e-15
-3.9968e-15
7.77156e-15
-1.11022e-15
-2.22045e-15
-2.22045e-16
8.43769e-15
6.66134e-15
-5.32907e-15
7.77156e-15
1.42109e-14
-1.77636e-14
1.62093e-14
-5.9952e-15
1.02141e-14
-1.86517e-14
5.55112e-15
1.53211e-14
4.88498e-15
-1.39888e-14
9.54792e-15
-1.9984e-15
1.44329e-14
1.77636e-14
3.10862e-15
8.21565e-15
1.19904e-14
3.10862e-15
2.13163e-14
1.08802e-14
-4.44089e-15
-2.88658e-15
1.55431e-15
1.17684e-14
-1.33227e-15
-3.55271e-15
6.66134e-15
-1.08802e-14
5.77316e-15
2.22045e-16
-9.99201e-15
1.39888e-14
-2.22045e-16
0
2.88658e-15
-1.11022e-15
-1.9984e-15
-1.17684e-14
2.66454e-15
1.95399e-14
1.19904e-14
8.65974e-15
7.99361e-15
-1.62093e-14
-4.44089e-16
6.88338e-15
8.88178e-15
1.44329e-14
-1.55431e-15
4.44089e-16
-6.21725e-15
2.88658e-15
-4.44089e-15
5.55112e-15
8.88178e-16
0
-1.77636e-15
8.65974e-15
9.76996e-15
-1.77636e-15
-4.21885e-15
0
-1.31006e-14
-9.99201e-15
-1.9984e-15
-2.44249e-15
-8.21565e-15
-9.32587e-15
7.32747e-15
4.44089e-16
-1.37668e-14
-8.88178e-16
-6.66134e-15
-1.37668e-14
2.22045e-15
-7.10543e-15
-4.44089e-16
-3.55271e-15
-2.08722e-14
-9.32587e-15
1.11022e-14
1.4877e-14
4.21885e-15
-1.24345e-14
-5.10703e-15
0
-9.76996e-15
6.21725e-15
-6.88338e-15
-5.32907e-15
9.32587e-15
-1.53211e-14
-4.66294e-15
8.21565e-15
6.66134e-16
5.9952e-15
-1.42109e-14
1.77636e-14
-7.99361e-15
-1.75415e-14
-1.55431e-14
-3.10862e-15
-1.66533e-14
1.46549e-14
1.33227e-14
-3.10862e-15
-1.04361e-14
-2.81997e-14
3.55271e-15
-1.35447e-14
9.99201e-15
-1.13243e-14
-5.55112e-15
-5.55112e-15
1.11022e-15
1.37668e-14
2.22045e-15
-1.42109e-14
-1.15463e-14
1.19904e-14
-1.55431e-15
7.10543e-15
1.53211e-14
1.44329e-14
-8.88178e-16
6.66134e-15
-2.44249e-15
7.54952e-15
-8.21565e-15
3.77476e-15
6.66134e-15
1.9984e-15
6.66134e-16
3.9968e-15
5.55112e-15
-9.10383e-15
3.55271e-15
-1.9984e-15
6.43929e-15
2.22045e-15
-2.04281e-14
-9.99201e-15
-2.13163e-14
-1.33227e-15
8.43769e-15
-8.21565e-15
-2.88658e-15
3.77476e-15
4.44089e-16
2.66454e-15
1.04361e-14
1.79856e-14
1.11022e-15
2.22045e-15
-9.76996e-15
-3.55271e-15
1.33227e-14
-2.44249e-14
1.13243e-14
-3.10862e-15
1.93179e-14
1.33227e-15
1.08802e-14
2.22045e-16
-1.19904e-14
-3.77476e-15
2.88658e-15
9.76996e-15
-6.88338e-15
4.66294e-15
-4.21885e-15
4.21885e-15
3.55271e-15
0
-4.66294e-15
-1.55431e-14
8.88178e-16
3.9968e-15
6.21725e-15
-2.39808e-14
2.44249e-15
-1.24345e-14
-1.66533e-14
-8.88178e-15
-8.21565e-15
-8.88178e-16
1.24345e-14
1.55431e-15
1.06581e-14
4.44089e-16
4.88498e-15
-1.11022e-14
-3.55271e-15
4.88498e-15
-9.76996e-15
1.77636e-14
-5.77316e-15
1.77636e-15
2.66454e-15
3.55271e-15
1.73195e-14
5.32907e-15
2.22045e-14
9.76996e-15
-7.99361e-15
5.32907e-15
1.64313e-14
-8.43769e-15
-4.44089e-15
-4.88498e-15
-8.43769e-15
-4.88498e-15
4.44089e-15
-6.66134e-15
1.90958e-14
6.21725e-15
-5.32907e-15
1.33227e-14
-1.02141e-14
1.46549e-14
-1.68754e-14
-6.66134e-15
-9.32587e-15
-1.11022e-14
5.77316e-15
8.88178e-15
-1.77636e-15
6.21725e-15
2.22045e-15
7.54952e-15
-8.43769e-15
1.24345e-14
-1.02141e-14
4.88498e-15
4.44089e-15
6.66134e-15
-3.10862e-15
-8.88178e-16
-7.99361e-15
2.70894e-14
1.11022e-14
7.54952e-15
-1.77636e-15
4.44089e-15
1.46549e-14
-4.44089e-15
-7.54952e-15
-9.76996e-15
1.77636e-15
7.99361e-15
8.88178e-16
9.32587e-15
-5.32907e-15
-4.88498e-15
-1.77636e-15
-1.33227e-15
1.42109e-14
-2.66454e-15
-1.11022e-14
-1.64313e-14
8.88178e-16
-4.44089e-16
-4.88498e-15
-3.55271e-15
3.9968e-15
0
-1.06581e-14
6.21725e-15
1.46549e-14
1.64313e-14
3.10862e-15
6.21725e-15
3.10862e-15
8.88178e-16
-8.43769e-15
1.77636e-15
1.33227e-15
-2.66454e-15
9.76996e-15
-8.43769e-15
4.44089e-16
5.77316e-15
1.33227e-14
1.64313e-14
-1.06581e-14
-1.37668e-14
4.44089e-15
-3.10862e-15
1.33227e-15
7.10543e-15
1.33227e-15
-4.88498e-15
9.32587e-15
8.88178e-15
8.88178e-16
5.77316e-15
6.21725e-15
4.44089e-16
5.32907e-15
-1.5099e-14
-8.88178e-15
-1.33227e-15
-4.88498e-15
-3.10862e-15
-5.77316e-15
1.15463e-14
7.10543e-15
5.32907e-15
-1.19904e-14
-1.5099e-14
-6.21725e-15
0
6.66134e-15
6.21725e-15
4.44089e-15
-4.88498e-15
-8.88178e-15
6.21725e-15
1.28786e-14
1.37668e-14
-1.82077e-14
-8.88178e-15
-4.88498e-15
2.66454e-15
-2.22045e-15
1.33227e-15
9.32587e-15
-2.66454e-15
-3.9968e-15
-7.99361e-15
-1.59872e-14
-9.32587e-15
-7.99361e-15
4.44089e-16
6.21725e-15
-1.02141e-14
-6.21725e-15
4.44089e-16
-6.66134e-15
4.88498e-15
1.5099e-14
-1.33227e-15
-1.06581e-14
-1.06581e-14
8.88178e-16
1.02141e-14
3.55271e-15
4.88498e-15
-6.66134e-15
-1.82077e-14
3.10862e-15
1.33227e-15
-8.88178e-16
-9.32587e-15
-1.33227e-15
-1.11022e-14
-6.21725e-15
7.10543e-15
-3.9968e-15
5.77316e-15
4.44089e-16
1.33227e-15
1.77636e-15
1.77636e-15
-6.66134e-15
-1.77636e-15
-7.99361e-15
-3.10862e-15
7.54952e-15
1.24345e-14
3.55271e-15
-1.77636e-14
-3.55271e-15
-3.55271e-15
2.22045e-15
8.88178e-16
7.99361e-15
-1.15463e-14
-5.77316e-15
0
1.02141e-14
8.43769e-15
3.9968e-15
-1.77636e-15
1.33227e-15
-6.66134e-15
-1.19904e-14
9.76996e-15
0
-3.9968e-15
2.13163e-14
6.21725e-15
-3.55271e-15
6.21725e-15
-3.10862e-15
4.88498e-15
1.11022e-14
-4.44089e-15
-9.32587e-15
-4.88498e-15
-8.43769e-15
3.10862e-15
-3.10862e-15
-6.21725e-15
3.55271e-15
3.55271e-15
-1.46549e-14
-1.55431e-14
4.88498e-15
1.11022e-14
-7.99361e-15
-8.88178e-15
-1.15463e-14
-1.02141e-14
-5.77316e-15
1.33227e-15
-8.88178e-16
3.9968e-15
3.55271e-15
1.02141e-14
-9.76996e-15
-9.32587e-15
1.68754e-14
-1.33227e-15
2.66454e-15
0
-3.10862e-15
1.33227e-15
3.55271e-15
-6.21725e-15
3.10862e-15
1.55431e-14
-1.33227e-15
-7.10543e-15
-7.10543e-15
4.44089e-16
-8.88178e-15
3.55271e-15
-2.66454e-15
-3.10862e-15
-2.66454e-15
-4.44089e-16
-1.77636e-15
1.77636e-15
9.32587e-15
6.21725e-15
1.11022e-14
-9.32587e-15
-4.88498e-15
-4.44089e-15
-1.19904e-14
-3.55271e-15
1.46549e-14
-8.43769e-15
4.88498e-15
-1.33227e-14
-7.99361e-15
-3.10862e-15
3.10862e-15
7.10543e-15
1.33227e-15
1.33227e-15
-2.22045e-15
1.68754e-14
3.9968e-15
-8.88178e-16
2.22045e-15
1.02141e-14
7.54952e-15
2.66454e-15
3.9968e-15
3.9968e-15
6.21725e-15
1.73195e-14
1.77636e-15
9.32587e-15
-3.10862e-15
-6.66134e-15
-4.44089e-16
-1.37668e-14
5.77316e-15
9.76996e-15
-7.54952e-15
2.66454e-15
-5.77316e-15
-1.5099e-14
-2.22045e-15
-3.10862e-15
-1.11022e-14
3.55271e-15
7.99361e-15
-1.11022e-14
7.54952e-15
9.32587e-15
4.44089e-16
-5.77316e-15
3.9968e-15
1.82077e-14
-2.22045e-15
-1.33227e-15
-6.21725e-15
-3.9968e-15
3.9968e-15
-2.66454e-15
-1.11022e-14
-5.77316e-15
-1.77636e-15
1.33227e-15
3.55271e-15
1.02141e-14
2.22045e-14
-4.44089e-15
-6.21725e-15
7.99361e-15
-1.33227e-14
1.11022e-14
9.32587e-15
3.10862e-15
1.28786e-14
-1.77636e-14
5.32907e-15
4.44089e-15
1.82077e-14
-7.99361e-15
-2.66454e-15
-3.9968e-15
8.43769e-15
-3.55271e-15
-1.33227e-14
-1.02141e-14
4.44089e-15
-3.55271e-15
-8.88178e-16
-1.06581e-14
2.22045e-15
-1.06581e-14
-4.44089e-16
2.66454e-15
2.66454e-15
1.11022e-14
-3.55271e-15
2.22045e-15
2.22045e-15
-1.77636e-15
-1.33227e-15
7.54952e-15
2.66454e-15
1.11022e-14
8.88178e-15
-1.28786e-14
-2.4869e-14
7.54952e-15
-1.77636e-15
-8.88178e-16
-4.44089e-15
1.15463e-14
-3.10862e-15
-1.15463e-14
1.06581e-14
6.21725e-15
8.88178e-16
3.55271e-15
8.88178e-16
-5.32907e-15
7.99361e-15
6.21725e-15
-7.99361e-15
3.10862e-15
-2.66454e-15
-3.9968e-15
-1.42109e-14
5.32907e-15
-4.44089e-16
-2.66454e-15
6.66134e-15
-6.21725e-15
-6.66134e-15
6.21725e-15
-1.77636e-14
2.13163e-14
8.88178e-16
-5.32907e-15
-1.90958e-14
-2.22045e-15
-4.88498e-15
-4.44089e-15
-4.44089e-15
-7.99361e-15
9.76996e-15
1.02141e-14
-3.55271e-15
3.9968e-15
6.66134e-15
-8.88178e-15
-7.10543e-15
9.32587e-15
2.66454e-15
-5.32907e-15
-1.42109e-14
-8.88178e-15
-3.55271e-15
-3.10862e-15
-9.32587e-15
1.33227e-15
5.77316e-15
-1.33227e-15
1.77636e-15
-1.55431e-14
3.55271e-15
1.15463e-14
1.33227e-14
-4.88498e-15
-1.19904e-14
0
1.37668e-14
-6.66134e-15
8.88178e-15
1.33227e-15
-4.44089e-15
-4.44089e-15
2.66454e-15
-8.43769e-15
3.9968e-15
7.54952e-15
-2.22045e-15
-1.02141e-14
1.24345e-14
1.33227e-15