/*--------------------------------*- C++ -*----------------------------------*\
| =========                 |                                                 |
| \\      /  F ield         | foam-extend: Open Source CFD                    |
|  \\    /   O peration     | Version:     4.0                                |
|   \\  /    A nd           | Web:         http://www.foam-extend.org         |
|    \\/     M anipulation  |                                                 |
\*---------------------------------------------------------------------------*/
FoamFile
{
    version     2.0;
    format      ascii;
    class       volVectorField;
    location    "12";
    object      U;
}
// * * * * * * * * * * * * * * * * * * * * * * * * * * * * * * * * * * * * * //

dimensions      [0 1 -1 0 0 0 0];

internalField   nonuniform List<vector> 
6960
(
(-5.56628e-06 -457.776 0)
(-2.83634e-06 -457.761 0)
(3.86373e-06 -457.761 0)
(1.4454e-06 -457.761 0)
(4.97326e-07 -457.761 0)
(2.67858e-07 -457.761 0)
(1.38974e-07 -457.761 0)
(8.50065e-08 -457.761 0)
(4.80119e-08 -457.761 0)
(2.86335e-08 -457.761 0)
(1.38687e-08 -457.761 0)
(5.07968e-09 -457.761 0)
(-1.92369e-09 -457.761 0)
(-6.36337e-09 -457.761 0)
(-9.87547e-09 -457.761 0)
(-1.20774e-08 -457.761 0)
(-1.36847e-08 -457.761 0)
(-1.45237e-08 -457.761 0)
(-1.493e-08 -457.761 0)
(-1.48379e-08 -457.761 0)
(-1.44177e-08 -457.761 0)
(-1.36521e-08 -457.761 0)
(-1.26383e-08 -457.761 0)
(-1.13827e-08 -457.761 0)
(-9.94418e-09 -457.761 0)
(-8.34244e-09 -457.761 0)
(-6.6188e-09 -457.761 0)
(-4.79412e-09 -457.761 0)
(-2.90458e-09 -457.761 0)
(-9.72846e-10 -457.761 0)
(9.73362e-10 -457.761 0)
(2.9044e-09 -457.761 0)
(4.79256e-09 -457.761 0)
(6.62023e-09 -457.761 0)
(8.3425e-09 -457.761 0)
(9.9434e-09 -457.761 0)
(1.1385e-08 -457.761 0)
(1.26387e-08 -457.761 0)
(1.36508e-08 -457.761 0)
(1.44196e-08 -457.761 0)
(1.48382e-08 -457.761 0)
(1.49291e-08 -457.761 0)
(1.45263e-08 -457.761 0)
(1.36862e-08 -457.761 0)
(1.20779e-08 -457.761 0)
(9.87915e-09 -457.761 0)
(6.36431e-09 -457.761 0)
(1.92314e-09 -457.761 0)
(-5.07699e-09 -457.761 0)
(-1.38674e-08 -457.761 0)
(-2.86342e-08 -457.761 0)
(-4.8009e-08 -457.761 0)
(-8.50052e-08 -457.761 0)
(-1.38975e-07 -457.761 0)
(-2.67855e-07 -457.761 0)
(-4.97323e-07 -457.761 0)
(-1.4454e-06 -457.761 0)
(-3.86372e-06 -457.761 0)
(2.83634e-06 -457.761 0)
(5.56627e-06 -457.776 0)
(0.000432755 31.8366 0)
(0.00044066 31.8503 0)
(1.11864e-05 31.8503 0)
(4.20849e-06 31.8503 0)
(1.48009e-06 31.8503 0)
(7.99616e-07 31.8503 0)
(4.17133e-07 31.8503 0)
(2.56185e-07 31.8503 0)
(1.46117e-07 31.8503 0)
(8.82567e-08 31.8503 0)
(4.43355e-08 31.8503 0)
(1.8131e-08 31.8503 0)
(-2.72596e-09 31.8503 0)
(-1.59659e-08 31.8503 0)
(-2.64327e-08 31.8503 0)
(-3.30653e-08 31.8503 0)
(-3.79067e-08 31.8503 0)
(-4.04921e-08 31.8503 0)
(-4.18376e-08 31.8503 0)
(-4.16957e-08 31.8503 0)
(-4.05968e-08 31.8503 0)
(-3.85227e-08 31.8503 0)
(-3.56974e-08 31.8503 0)
(-3.21705e-08 31.8503 0)
(-2.81442e-08 31.8503 0)
(-2.3615e-08 31.8503 0)
(-1.87334e-08 31.8503 0)
(-1.359e-08 31.8503 0)
(-8.2231e-09 31.8503 0)
(-2.72213e-09 31.8503 0)
(2.68134e-09 31.8503 0)
(8.23487e-09 31.8503 0)
(1.36764e-08 31.8503 0)
(1.86466e-08 31.8503 0)
(2.36152e-08 31.8503 0)
(2.82327e-08 31.8503 0)
(3.20864e-08 31.8503 0)
(3.56987e-08 31.8503 0)
(3.86099e-08 31.8503 0)
(4.05113e-08 31.8503 0)
(4.16965e-08 31.8503 0)
(4.19257e-08 31.8503 0)
(4.04087e-08 31.8503 0)
(3.79111e-08 31.8503 0)
(3.31574e-08 31.8503 0)
(2.63523e-08 31.8503 0)
(1.59685e-08 31.8503 0)
(2.81512e-09 31.8503 0)
(-1.82143e-08 31.8503 0)
(-4.43319e-08 31.8503 0)
(-8.81679e-08 31.8503 0)
(-1.462e-07 31.8503 0)
(-2.56181e-07 31.8503 0)
(-4.17044e-07 31.8503 0)
(-7.99698e-07 31.8503 0)
(-1.48009e-06 31.8503 0)
(-4.20839e-06 31.8503 0)
(-1.11865e-05 31.8503 0)
(-0.00044066 31.8503 0)
(-0.000432755 31.8366 0)
(0.000361987 83.7953 0)
(0.000374167 83.7877 0)
(1.74707e-05 83.7877 0)
(6.8215e-06 83.7877 0)
(2.44873e-06 83.7877 0)
(1.32962e-06 83.7877 0)
(6.97294e-07 83.7877 0)
(4.30456e-07 83.7877 0)
(2.47956e-07 83.7877 0)
(1.5192e-07 83.7877 0)
(7.91053e-08 83.7877 0)
(3.56184e-08 83.7877 0)
(1.06693e-09 83.7877 0)
(-2.0928e-08 83.7877 0)
(-3.83328e-08 83.7877 0)
(-4.94078e-08 83.7877 0)
(-5.75684e-08 83.7877 0)
(-6.2039e-08 83.7877 0)
(-6.447e-08 83.7877 0)
(-6.45056e-08 83.7877 0)
(-6.29944e-08 83.7877 0)
(-5.98835e-08 83.7877 0)
(-5.55862e-08 83.7877 0)
(-5.01591e-08 83.7877 0)
(-4.39085e-08 83.7877 0)
(-3.68727e-08 83.7877 0)
(-2.92726e-08 83.7877 0)
(-2.12306e-08 83.7877 0)
(-1.28579e-08 83.7877 0)
(-4.27928e-09 83.7877 0)
(4.24551e-09 83.7877 0)
(1.2868e-08 83.7877 0)
(2.13022e-08 83.7877 0)
(2.92006e-08 83.7877 0)
(3.68732e-08 83.7877 0)
(4.39833e-08 83.7877 0)
(5.00914e-08 83.7877 0)
(5.55884e-08 83.7877 0)
(5.99562e-08 83.7877 0)
(6.29245e-08 83.7877 0)
(6.45069e-08 83.7877 0)
(6.45439e-08 83.7877 0)
(6.19723e-08 83.7877 0)
(5.75752e-08 83.7877 0)
(4.94881e-08 83.7877 0)
(3.82707e-08 83.7877 0)
(2.0932e-08 83.7877 0)
(-9.91328e-10 83.7877 0)
(-3.56852e-08 83.7877 0)
(-7.91e-08 83.7877 0)
(-1.51845e-07 83.7877 0)
(-2.48022e-07 83.7877 0)
(-4.30451e-07 83.7877 0)
(-6.97219e-07 83.7877 0)
(-1.32968e-06 83.7877 0)
(-2.44872e-06 83.7877 0)
(-6.82142e-06 83.7877 0)
(-1.74708e-05 83.7877 0)
(-0.000374167 83.7877 0)
(-0.000361987 83.7953 0)
(0.000150506 19.1386 0)
(0.000166256 19.131 0)
(2.2874e-05 19.131 0)
(9.24239e-06 19.131 0)
(3.3966e-06 19.131 0)
(1.85553e-06 19.131 0)
(9.7854e-07 19.131 0)
(6.07507e-07 19.131 0)
(3.53517e-07 19.131 0)
(2.19765e-07 19.131 0)
(1.18435e-07 19.131 0)
(5.78785e-08 19.131 0)
(9.82344e-09 19.131 0)
(-2.08406e-08 19.131 0)
(-4.51381e-08 19.131 0)
(-6.06736e-08 19.131 0)
(-7.2228e-08 19.131 0)
(-7.87199e-08 19.131 0)
(-8.24111e-08 19.131 0)
(-8.28614e-08 19.131 0)
(-8.12194e-08 19.131 0)
(-7.73878e-08 19.131 0)
(-7.19819e-08 19.131 0)
(-6.50533e-08 19.131 0)
(-5.69971e-08 19.131 0)
(-4.7909e-08 19.131 0)
(-3.80652e-08 19.131 0)
(-2.76066e-08 19.131 0)
(-1.67329e-08 19.131 0)
(-5.59241e-09 19.131 0)
(5.57913e-09 19.131 0)
(1.67377e-08 19.131 0)
(2.76351e-08 19.131 0)
(3.80365e-08 19.131 0)
(4.79097e-08 19.131 0)
(5.70299e-08 19.131 0)
(6.50302e-08 19.131 0)
(7.19849e-08 19.131 0)
(7.74176e-08 19.131 0)
(8.11933e-08 19.131 0)
(8.28632e-08 19.131 0)
(8.24425e-08 19.131 0)
(7.8698e-08 19.131 0)
(7.22368e-08 19.131 0)
(6.07131e-08 19.131 0)
(4.51221e-08 19.131 0)
(2.08456e-08 19.131 0)
(-9.79013e-09 19.131 0)
(-5.79007e-08 19.131 0)
(-1.18429e-07 19.131 0)
(-2.19733e-07 19.131 0)
(-3.53539e-07 19.131 0)
(-6.075e-07 19.131 0)
(-9.78507e-07 19.131 0)
(-1.85555e-06 19.131 0)
(-3.39659e-06 19.131 0)
(-9.24235e-06 19.131 0)
(-2.28741e-05 19.131 0)
(-0.000166256 19.131 0)
(-0.000150506 19.1386 0)
(8.28942e-05 -4.63835 0)
(0.000101792 -4.6391 0)
(2.76928e-05 -4.6391 0)
(1.14822e-05 -4.63912 0)
(4.32125e-06 -4.63912 0)
(2.3763e-06 -4.63912 0)
(1.26048e-06 -4.63912 0)
(7.87099e-07 -4.63912 0)
(4.62656e-07 -4.63912 0)
(2.91656e-07 -4.63912 0)
(1.6221e-07 -4.63912 0)
(8.48033e-08 -4.63912 0)
(2.34245e-08 -4.63912 0)
(-1.58173e-08 -4.63912 0)
(-4.69555e-08 -4.63912 0)
(-6.6982e-08 -4.63912 0)
(-8.19966e-08 -4.63912 0)
(-9.06371e-08 -4.63912 0)
(-9.57724e-08 -4.63912 0)
(-9.68632e-08 -4.63912 0)
(-9.53592e-08 -4.63912 0)
(-9.11292e-08 -4.63912 0)
(-8.49637e-08 -4.63912 0)
(-7.69169e-08 -4.63912 0)
(-6.74775e-08 -4.63912 0)
(-5.67745e-08 -4.63912 0)
(-4.51449e-08 -4.63912 0)
(-3.27534e-08 -4.63912 0)
(-1.98619e-08 -4.63912 0)
(-6.64564e-09 -4.63912 0)
(6.6394e-09 -4.63912 0)
(1.98655e-08 -4.63912 0)
(3.27682e-08 -4.63912 0)
(4.51304e-08 -4.63912 0)
(5.67756e-08 -4.63912 0)
(6.74973e-08 -4.63912 0)
(7.69093e-08 -4.63912 0)
(8.49674e-08 -4.63912 0)
(9.11452e-08 -4.63912 0)
(9.53478e-08 -4.63912 0)
(9.68653e-08 -4.63912 0)
(9.57902e-08 -4.63912 0)
(9.06306e-08 -4.63912 0)
(8.20071e-08 -4.63912 0)
(6.70093e-08 -4.63912 0)
(4.69558e-08 -4.63912 0)
(1.5823e-08 -4.63912 0)
(-2.34047e-08 -4.63912 0)
(-8.48105e-08 -4.63912 0)
(-1.62203e-07 -4.63912 0)
(-2.91638e-07 -4.63912 0)
(-4.62663e-07 -4.63912 0)
(-7.87091e-07 -4.63912 0)
(-1.26046e-06 -4.63912 0)
(-2.3763e-06 -4.63912 0)
(-4.32123e-06 -4.63912 0)
(-1.14822e-05 -4.63912 0)
(-2.76928e-05 -4.6391 0)
(-0.000101792 -4.6391 0)
(-8.28942e-05 -4.63835 0)
(9.28249e-05 -3.85379 0)
(0.000114437 -3.85234 0)
(3.19476e-05 -3.85234 0)
(1.35727e-05 -3.85236 0)
(5.22172e-06 -3.85236 0)
(2.89135e-06 -3.85236 0)
(1.54294e-06 -3.85236 0)
(9.69032e-07 -3.85236 0)
(5.75178e-07 -3.85236 0)
(3.67363e-07 -3.85236 0)
(2.10174e-07 -3.85236 0)
(1.1611e-07 -3.85236 0)
(4.15737e-08 -3.85236 0)
(-6.17044e-09 -3.85236 0)
(-4.41065e-08 -3.85236 0)
(-6.86555e-08 -3.85236 0)
(-8.7197e-08 -3.85236 0)
(-9.81096e-08 -3.85236 0)
(-1.0486e-07 -3.85236 0)
(-1.06805e-07 -3.85236 0)
(-1.05693e-07 -3.85236 0)
(-1.01363e-07 -3.85236 0)
(-9.47651e-08 -3.85236 0)
(-8.59594e-08 -3.85236 0)
(-7.55277e-08 -3.85236 0)
(-6.3619e-08 -3.85236 0)
(-5.06312e-08 -3.85236 0)
(-3.67545e-08 -3.85236 0)
(-2.22971e-08 -3.85236 0)
(-7.46128e-09 -3.85236 0)
(7.45489e-09 -3.85236 0)
(2.23017e-08 -3.85236 0)
(3.67716e-08 -3.85236 0)
(5.06151e-08 -3.85236 0)
(6.36204e-08 -3.85236 0)
(7.55503e-08 -3.85236 0)
(8.59513e-08 -3.85236 0)
(9.47696e-08 -3.85236 0)
(1.01381e-07 -3.85236 0)
(1.0568e-07 -3.85236 0)
(1.06808e-07 -3.85236 0)
(1.0488e-07 -3.85236 0)
(9.81024e-08 -3.85236 0)
(8.72088e-08 -3.85236 0)
(6.86859e-08 -3.85236 0)
(4.41069e-08 -3.85236 0)
(6.17656e-09 -3.85236 0)
(-4.15518e-08 -3.85236 0)
(-1.16119e-07 -3.85236 0)
(-2.10167e-07 -3.85236 0)
(-3.67344e-07 -3.85236 0)
(-5.75186e-07 -3.85236 0)
(-9.69025e-07 -3.85236 0)
(-1.54292e-06 -3.85236 0)
(-2.89135e-06 -3.85236 0)
(-5.22171e-06 -3.85236 0)
(-1.35726e-05 -3.85236 0)
(-3.19476e-05 -3.85234 0)
(-0.000114437 -3.85234 0)
(-9.2825e-05 -3.85379 0)
(9.73927e-05 -1.95025 0)
(0.000121239 -1.94933 0)
(3.56047e-05 -1.94933 0)
(1.55283e-05 -1.94935 0)
(6.09772e-06 -1.94935 0)
(3.40032e-06 -1.94935 0)
(1.82583e-06 -1.94935 0)
(1.15313e-06 -1.94935 0)
(6.90865e-07 -1.94935 0)
(4.46603e-07 -1.94935 0)
(2.62003e-07 -1.94935 0)
(1.51431e-07 -1.94935 0)
(6.38785e-08 -1.94935 0)
(7.68402e-09 -1.94935 0)
(-3.70215e-08 -1.94935 0)
(-6.61269e-08 -1.94935 0)
(-8.8263e-08 -1.94935 0)
(-1.01566e-07 -1.94935 0)
(-1.10086e-07 -1.94935 0)
(-1.13084e-07 -1.94935 0)
(-1.12595e-07 -1.94935 0)
(-1.08434e-07 -1.94935 0)
(-1.01701e-07 -1.94935 0)
(-9.24629e-08 -1.94935 0)
(-8.13882e-08 -1.94935 0)
(-6.86442e-08 -1.94935 0)
(-5.46851e-08 -1.94935 0)
(-3.97232e-08 -1.94935 0)
(-2.41092e-08 -1.94935 0)
(-8.06893e-09 -1.94935 0)
(8.06297e-09 -1.94935 0)
(2.41147e-08 -1.94935 0)
(3.97415e-08 -1.94935 0)
(5.46686e-08 -1.94935 0)
(6.86461e-08 -1.94935 0)
(8.14126e-08 -1.94935 0)
(9.24551e-08 -1.94935 0)
(1.01706e-07 -1.94935 0)
(1.08452e-07 -1.94935 0)
(1.12582e-07 -1.94935 0)
(1.13087e-07 -1.94935 0)
(1.10107e-07 -1.94935 0)
(1.01559e-07 -1.94935 0)
(8.82756e-08 -1.94935 0)
(6.61589e-08 -1.94935 0)
(3.70226e-08 -1.94935 0)
(-7.67777e-09 -1.94935 0)
(-6.3856e-08 -1.94935 0)
(-1.5144e-07 -1.94935 0)
(-2.61995e-07 -1.94935 0)
(-4.46584e-07 -1.94935 0)
(-6.90873e-07 -1.94935 0)
(-1.15312e-06 -1.94935 0)
(-1.82581e-06 -1.94935 0)
(-3.40032e-06 -1.94935 0)
(-6.09771e-06 -1.94935 0)
(-1.55283e-05 -1.94935 0)
(-3.56047e-05 -1.94933 0)
(-0.000121239 -1.94933 0)
(-9.73928e-05 -1.95025 0)
(8.95962e-05 -2.18617 0)
(0.000115236 -2.18562 0)
(3.87063e-05 -2.18562 0)
(1.73499e-05 -2.18563 0)
(6.94933e-06 -2.18564 0)
(3.90297e-06 -2.18564 0)
(2.10913e-06 -2.18564 0)
(1.33921e-06 -2.18564 0)
(8.09487e-07 -2.18564 0)
(5.29065e-07 -2.18564 0)
(3.1733e-07 -2.18564 0)
(1.90351e-07 -2.18564 0)
(8.98922e-08 -2.18564 0)
(2.52733e-08 -2.18564 0)
(-2.61883e-08 -2.18564 0)
(-5.98914e-08 -2.18564 0)
(-8.5689e-08 -2.18564 0)
(-1.01494e-07 -2.18564 0)
(-1.11924e-07 -2.18564 0)
(-1.16151e-07 -2.18564 0)
(-1.16493e-07 -2.18564 0)
(-1.12736e-07 -2.18564 0)
(-1.06132e-07 -2.18564 0)
(-9.67473e-08 -2.18564 0)
(-8.53355e-08 -2.18564 0)
(-7.20807e-08 -2.18564 0)
(-5.74885e-08 -2.18564 0)
(-4.17902e-08 -2.18564 0)
(-2.53774e-08 -2.18564 0)
(-8.49561e-09 -2.18564 0)
(8.49135e-09 -2.18564 0)
(2.53836e-08 -2.18564 0)
(4.18077e-08 -2.18564 0)
(5.74741e-08 -2.18564 0)
(7.2083e-08 -2.18564 0)
(8.53591e-08 -2.18564 0)
(9.67423e-08 -2.18564 0)
(1.06138e-07 -2.18564 0)
(1.12754e-07 -2.18564 0)
(1.16483e-07 -2.18564 0)
(1.16155e-07 -2.18564 0)
(1.11943e-07 -2.18564 0)
(1.01489e-07 -2.18564 0)
(8.57024e-08 -2.18564 0)
(5.99223e-08 -2.18564 0)
(2.61921e-08 -2.18564 0)
(-2.52671e-08 -2.18564 0)
(-8.98715e-08 -2.18564 0)
(-1.90359e-07 -2.18564 0)
(-3.17323e-07 -2.18564 0)
(-5.29049e-07 -2.18564 0)
(-8.09495e-07 -2.18564 0)
(-1.3392e-06 -2.18564 0)
(-2.10911e-06 -2.18564 0)
(-3.90297e-06 -2.18564 0)
(-6.94931e-06 -2.18564 0)
(-1.73499e-05 -2.18563 0)
(-3.87063e-05 -2.18562 0)
(-0.000115236 -2.18562 0)
(-8.95963e-05 -2.18617 0)
(8.23341e-05 -2.65662 0)
(0.000109399 -2.65599 0)
(4.13238e-05 -2.65599 0)
(1.90384e-05 -2.656 0)
(7.77682e-06 -2.65601 0)
(4.39912e-06 -2.65601 0)
(2.39282e-06 -2.65601 0)
(1.52711e-06 -2.65601 0)
(9.30819e-07 -2.65601 0)
(6.14431e-07 -2.65601 0)
(3.7578e-07 -2.65601 0)
(2.32443e-07 -2.65601 0)
(1.1915e-07 -2.65601 0)
(4.61054e-08 -2.65601 0)
(-1.2115e-08 -2.65601 0)
(-5.04659e-08 -2.65601 0)
(-7.99913e-08 -2.65601 0)
(-9.84018e-08 -2.65601 0)
(-1.10867e-07 -2.65601 0)
(-1.16481e-07 -2.65601 0)
(-1.17831e-07 -2.65601 0)
(-1.14684e-07 -2.65601 0)
(-1.08432e-07 -2.65601 0)
(-9.91465e-08 -2.65601 0)
(-8.76589e-08 -2.65601 0)
(-7.41689e-08 -2.65601 0)
(-5.9231e-08 -2.65601 0)
(-4.30931e-08 -2.65601 0)
(-2.61845e-08 -2.65601 0)
(-8.76804e-09 -2.65601 0)
(8.7655e-09 -2.65601 0)
(2.61914e-08 -2.65601 0)
(4.31098e-08 -2.65601 0)
(5.92186e-08 -2.65601 0)
(7.41718e-08 -2.65601 0)
(8.76817e-08 -2.65601 0)
(9.9144e-08 -2.65601 0)
(1.08439e-07 -2.65601 0)
(1.147e-07 -2.65601 0)
(1.17823e-07 -2.65601 0)
(1.16484e-07 -2.65601 0)
(1.10884e-07 -2.65601 0)
(9.8399e-08 -2.65601 0)
(8.00052e-08 -2.65601 0)
(5.04954e-08 -2.65601 0)
(1.21208e-08 -2.65601 0)
(-4.60995e-08 -2.65601 0)
(-1.19131e-07 -2.65601 0)
(-2.32448e-07 -2.65601 0)
(-3.75774e-07 -2.65601 0)
(-6.14417e-07 -2.65601 0)
(-9.30825e-07 -2.65601 0)
(-1.5271e-06 -2.65601 0)
(-2.3928e-06 -2.65601 0)
(-4.39912e-06 -2.65601 0)
(-7.7768e-06 -2.65601 0)
(-1.90383e-05 -2.656 0)
(-4.13238e-05 -2.65599 0)
(-0.000109399 -2.65599 0)
(-8.23341e-05 -2.65662 0)
(7.8958e-05 -2.6875 0)
(0.000107132 -2.68676 0)
(4.35134e-05 -2.68676 0)
(2.05976e-05 -2.68678 0)
(8.58055e-06 -2.68678 0)
(4.88863e-06 -2.68678 0)
(2.67692e-06 -2.68678 0)
(1.71669e-06 -2.68678 0)
(1.05465e-06 -2.68678 0)
(7.02397e-07 -2.68678 0)
(4.36992e-07 -2.68678 0)
(2.77291e-07 -2.68678 0)
(1.512e-07 -2.68678 0)
(6.97012e-08 -2.68678 0)
(4.70268e-09 -2.68678 0)
(-3.83551e-08 -2.68678 0)
(-7.16744e-08 -2.68678 0)
(-9.27865e-08 -2.68678 0)
(-1.07398e-07 -2.68678 0)
(-1.14534e-07 -2.68678 0)
(-1.17047e-07 -2.68679 0)
(-1.14682e-07 -2.68679 0)
(-1.08971e-07 -2.68679 0)
(-9.99879e-08 -2.68679 0)
(-8.86414e-08 -2.68679 0)
(-7.51447e-08 -2.68679 0)
(-6.00984e-08 -2.68679 0)
(-4.3766e-08 -2.68679 0)
(-2.66114e-08 -2.68679 0)
(-8.91313e-09 -2.68679 0)
(8.91195e-09 -2.68679 0)
(2.66191e-08 -2.68679 0)
(4.37829e-08 -2.68679 0)
(6.00873e-08 -2.68679 0)
(7.51482e-08 -2.68679 0)
(8.86643e-08 -2.68679 0)
(9.99869e-08 -2.68679 0)
(1.08978e-07 -2.68679 0)
(1.14697e-07 -2.68679 0)
(1.1704e-07 -2.68679 0)
(1.14538e-07 -2.68678 0)
(1.07414e-07 -2.68678 0)
(9.27846e-08 -2.68678 0)
(7.16886e-08 -2.68678 0)
(3.83839e-08 -2.68678 0)
(-4.69587e-09 -2.68678 0)
(-6.96956e-08 -2.68678 0)
(-1.51183e-07 -2.68678 0)
(-2.77296e-07 -2.68678 0)
(-4.36987e-07 -2.68678 0)
(-7.02386e-07 -2.68678 0)
(-1.05466e-06 -2.68678 0)
(-1.71669e-06 -2.68678 0)
(-2.6769e-06 -2.68678 0)
(-4.88863e-06 -2.68678 0)
(-8.58053e-06 -2.68678 0)
(-2.05975e-05 -2.68678 0)
(-4.35134e-05 -2.68676 0)
(-0.000107132 -2.68676 0)
(-7.89581e-05 -2.6875 0)
(7.72481e-05 -2.43318 0)
(0.000106254 -2.43244 0)
(4.53165e-05 -2.43244 0)
(2.20313e-05 -2.43246 0)
(9.36079e-06 -2.43246 0)
(5.37135e-06 -2.43246 0)
(2.96143e-06 -2.43246 0)
(1.90783e-06 -2.43246 0)
(1.18079e-06 -2.43246 0)
(7.92695e-07 -2.43246 0)
(5.00639e-07 -2.43246 0)
(3.24517e-07 -2.43246 0)
(1.8563e-07 -2.43246 0)
(9.56204e-08 -2.43246 0)
(2.38079e-08 -2.43246 0)
(-2.40246e-08 -2.43246 0)
(-6.12047e-08 -2.43246 0)
(-8.51083e-08 -2.43246 0)
(-1.01965e-07 -2.43246 0)
(-1.1074e-07 -2.43246 0)
(-1.14543e-07 -2.43246 0)
(-1.13104e-07 -2.43246 0)
(-1.08088e-07 -2.43246 0)
(-9.95748e-08 -2.43246 0)
(-8.85456e-08 -2.43246 0)
(-7.52266e-08 -2.43246 0)
(-6.02632e-08 -2.43246 0)
(-4.39335e-08 -2.43246 0)
(-2.67333e-08 -2.43246 0)
(-8.95619e-09 -2.43246 0)
(8.95624e-09 -2.43246 0)
(2.67419e-08 -2.43246 0)
(4.3951e-08 -2.43246 0)
(6.02531e-08 -2.43246 0)
(7.52309e-08 -2.43246 0)
(8.85688e-08 -2.43246 0)
(9.95749e-08 -2.43246 0)
(1.08096e-07 -2.43246 0)
(1.13119e-07 -2.43246 0)
(1.14537e-07 -2.43246 0)
(1.10744e-07 -2.43246 0)
(1.01981e-07 -2.43246 0)
(8.5107e-08 -2.43246 0)
(6.12191e-08 -2.43246 0)
(2.40528e-08 -2.43246 0)
(-2.38007e-08 -2.43246 0)
(-9.56152e-08 -2.43246 0)
(-1.85614e-07 -2.43246 0)
(-3.24522e-07 -2.43246 0)
(-5.00634e-07 -2.43246 0)
(-7.92685e-07 -2.43246 0)
(-1.1808e-06 -2.43246 0)
(-1.90783e-06 -2.43246 0)
(-2.96142e-06 -2.43246 0)
(-5.37135e-06 -2.43246 0)
(-9.36078e-06 -2.43246 0)
(-2.20313e-05 -2.43246 0)
(-4.53165e-05 -2.43244 0)
(-0.000106254 -2.43244 0)
(-7.72482e-05 -2.43318 0)
(7.54463e-05 -2.0705 0)
(0.000105038 -2.06982 0)
(4.6767e-05 -2.06982 0)
(2.33421e-05 -2.06984 0)
(1.01176e-05 -2.06985 0)
(5.84708e-06 -2.06985 0)
(3.24636e-06 -2.06985 0)
(2.10042e-06 -2.06985 0)
(1.3091e-06 -2.06985 0)
(8.85099e-07 -2.06985 0)
(5.66443e-07 -2.06985 0)
(3.73799e-07 -2.06985 0)
(2.22084e-07 -2.06985 0)
(1.23481e-07 -2.06985 0)
(4.48033e-08 -2.06985 0)
(-7.8804e-09 -2.06985 0)
(-4.89893e-08 -2.06985 0)
(-7.57697e-08 -2.06985 0)
(-9.49585e-08 -2.06985 0)
(-1.05474e-07 -2.06985 0)
(-1.10673e-07 -2.06985 0)
(-1.10279e-07 -2.06985 0)
(-1.06084e-07 -2.06985 0)
(-9.81735e-08 -2.06985 0)
(-8.76015e-08 -2.06985 0)
(-7.46065e-08 -2.06985 0)
(-5.98766e-08 -2.06985 0)
(-4.37046e-08 -2.06985 0)
(-2.66164e-08 -2.06985 0)
(-8.9194e-09 -2.06985 0)
(8.92074e-09 -2.06985 0)
(2.66257e-08 -2.06985 0)
(4.37227e-08 -2.06985 0)
(5.98677e-08 -2.06985 0)
(7.46115e-08 -2.06985 0)
(8.76249e-08 -2.06985 0)
(9.81747e-08 -2.06985 0)
(1.06092e-07 -2.06985 0)
(1.10294e-07 -2.06985 0)
(1.10668e-07 -2.06985 0)
(1.05479e-07 -2.06985 0)
(9.49738e-08 -2.06985 0)
(7.57688e-08 -2.06985 0)
(4.90038e-08 -2.06985 0)
(7.90781e-09 -2.06985 0)
(-4.47959e-08 -2.06985 0)
(-1.23476e-07 -2.06985 0)
(-2.22068e-07 -2.06985 0)
(-3.73804e-07 -2.06985 0)
(-5.6644e-07 -2.06985 0)
(-8.85091e-07 -2.06985 0)
(-1.30911e-06 -2.06985 0)
(-2.10042e-06 -2.06985 0)
(-3.24635e-06 -2.06985 0)
(-5.84708e-06 -2.06985 0)
(-1.01176e-05 -2.06985 0)
(-2.33421e-05 -2.06984 0)
(-4.6767e-05 -2.06982 0)
(-0.000105038 -2.06982 0)
(-7.54464e-05 -2.0705 0)
(7.29723e-05 -1.68003 0)
(0.000102931 -1.67944 0)
(4.78937e-05 -1.67943 0)
(2.45313e-05 -1.67945 0)
(1.08508e-05 -1.67946 0)
(6.31555e-06 -1.67946 0)
(3.53167e-06 -1.67946 0)
(2.29438e-06 -1.67946 0)
(1.43945e-06 -1.67946 0)
(9.7943e-07 -1.67946 0)
(6.34185e-07 -1.67946 0)
(4.24874e-07 -1.67946 0)
(2.60271e-07 -1.67946 0)
(1.52972e-07 -1.67946 0)
(6.73625e-08 -1.67946 0)
(9.74326e-09 -1.67946 0)
(-3.53644e-08 -1.67946 0)
(-6.51033e-08 -1.67946 0)
(-8.67033e-08 -1.67946 0)
(-9.90463e-08 -1.67946 0)
(-1.05732e-07 -1.67946 0)
(-1.06479e-07 -1.67946 0)
(-1.03206e-07 -1.67946 0)
(-9.60049e-08 -1.67946 0)
(-8.60003e-08 -1.67946 0)
(-7.34437e-08 -1.67946 0)
(-5.90646e-08 -1.67946 0)
(-4.317e-08 -1.67946 0)
(-2.63153e-08 -1.67946 0)
(-8.82116e-09 -1.67946 0)
(8.82386e-09 -1.67946 0)
(2.63254e-08 -1.67946 0)
(4.31887e-08 -1.67946 0)
(5.9057e-08 -1.67946 0)
(7.34495e-08 -1.67946 0)
(8.60238e-08 -1.67946 0)
(9.60072e-08 -1.67946 0)
(1.03214e-07 -1.67946 0)
(1.06494e-07 -1.67946 0)
(1.05729e-07 -1.67946 0)
(9.90515e-08 -1.67946 0)
(8.67179e-08 -1.67946 0)
(6.51029e-08 -1.67946 0)
(3.5379e-08 -1.67946 0)
(-9.71681e-09 -1.67946 0)
(-6.73549e-08 -1.67946 0)
(-1.52967e-07 -1.67946 0)
(-2.60256e-07 -1.67946 0)
(-4.2488e-07 -1.67946 0)
(-6.34182e-07 -1.67946 0)
(-9.79425e-07 -1.67946 0)
(-1.43946e-06 -1.67946 0)
(-2.29438e-06 -1.67946 0)
(-3.53166e-06 -1.67946 0)
(-6.31555e-06 -1.67946 0)
(-1.08508e-05 -1.67946 0)
(-2.45313e-05 -1.67945 0)
(-4.78937e-05 -1.67943 0)
(-0.000102931 -1.67944 0)
(-7.29724e-05 -1.68003 0)
(6.9639e-05 -1.30686 0)
(9.97678e-05 -1.30634 0)
(4.87183e-05 -1.30634 0)
(2.55994e-05 -1.30636 0)
(1.15597e-05 -1.30636 0)
(6.77636e-06 -1.30637 0)
(3.81727e-06 -1.30637 0)
(2.48962e-06 -1.30637 0)
(1.57176e-06 -1.30637 0)
(1.07556e-06 -1.30637 0)
(7.03697e-07 -1.30637 0)
(4.77546e-07 -1.30637 0)
(2.9997e-07 -1.30637 0)
(1.83852e-07 -1.30637 0)
(9.12334e-08 -1.30637 0)
(2.85868e-08 -1.30637 0)
(-2.05917e-08 -1.30637 0)
(-5.33689e-08 -1.30637 0)
(-7.74523e-08 -1.30637 0)
(-9.17009e-08 -1.30637 0)
(-9.99502e-08 -1.30637 0)
(-1.01919e-07 -1.30637 0)
(-9.96485e-08 -1.30637 0)
(-9.32426e-08 -1.30637 0)
(-8.38921e-08 -1.30637 0)
(-7.18633e-08 -1.30637 0)
(-5.79257e-08 -1.30637 0)
(-4.24011e-08 -1.30637 0)
(-2.58732e-08 -1.30637 0)
(-8.67592e-09 -1.30637 0)
(8.68004e-09 -1.30637 0)
(2.58839e-08 -1.30637 0)
(4.24202e-08 -1.30637 0)
(5.79195e-08 -1.30637 0)
(7.18699e-08 -1.30637 0)
(8.39156e-08 -1.30637 0)
(9.32462e-08 -1.30637 0)
(9.96571e-08 -1.30637 0)
(1.01934e-07 -1.30637 0)
(9.9948e-08 -1.30637 0)
(9.17066e-08 -1.30637 0)
(7.74661e-08 -1.30637 0)
(5.3369e-08 -1.30637 0)
(2.06064e-08 -1.30637 0)
(-2.85615e-08 -1.30637 0)
(-9.12255e-08 -1.30637 0)
(-1.83848e-07 -1.30637 0)
(-2.99956e-07 -1.30637 0)
(-4.77552e-07 -1.30637 0)
(-7.03696e-07 -1.30637 0)
(-1.07555e-06 -1.30637 0)
(-1.57177e-06 -1.30637 0)
(-2.48962e-06 -1.30637 0)
(-3.81726e-06 -1.30637 0)
(-6.77636e-06 -1.30637 0)
(-1.15597e-05 -1.30636 0)
(-2.55994e-05 -1.30636 0)
(-4.87183e-05 -1.30634 0)
(-9.97679e-05 -1.30634 0)
(-6.96391e-05 -1.30686 0)
(6.53666e-05 -0.981615 0)
(9.54829e-05 -0.981178 0)
(4.92564e-05 -0.981171 0)
(2.65462e-05 -0.981196 0)
(1.22431e-05 -0.9812 0)
(7.22893e-06 -0.981202 0)
(4.10297e-06 -0.981202 0)
(2.68603e-06 -0.981203 0)
(1.70595e-06 -0.981203 0)
(1.17338e-06 -0.981203 0)
(7.74864e-07 -0.981203 0)
(5.31673e-07 -0.981203 0)
(3.41022e-07 -0.981203 0)
(2.15948e-07 -0.981203 0)
(1.16232e-07 -0.981203 0)
(4.84604e-08 -0.981203 0)
(-4.86351e-09 -0.981203 0)
(-4.07574e-08 -0.981203 0)
(-6.73925e-08 -0.981203 0)
(-8.36177e-08 -0.981203 0)
(-9.34969e-08 -0.981203 0)
(-9.67571e-08 -0.981203 0)
(-9.5557e-08 -0.981203 0)
(-9.00154e-08 -0.981203 0)
(-8.13886e-08 -0.981203 0)
(-6.99583e-08 -0.981203 0)
(-5.65334e-08 -0.981203 0)
(-4.14509e-08 -0.981203 0)
(-2.53221e-08 -0.981203 0)
(-8.49443e-09 -0.981203 0)
(8.50002e-09 -0.981203 0)
(2.53334e-08 -0.981203 0)
(4.14701e-08 -0.981203 0)
(5.65289e-08 -0.981203 0)
(6.99657e-08 -0.981203 0)
(8.14118e-08 -0.981203 0)
(9.00203e-08 -0.981203 0)
(9.5566e-08 -0.981203 0)
(9.6771e-08 -0.981203 0)
(9.34962e-08 -0.981203 0)
(8.36238e-08 -0.981203 0)
(6.74054e-08 -0.981203 0)
(4.07583e-08 -0.981203 0)
(4.87811e-09 -0.981203 0)
(-4.84366e-08 -0.981203 0)
(-1.16224e-07 -0.981203 0)
(-2.15944e-07 -0.981203 0)
(-3.41009e-07 -0.981203 0)
(-5.31679e-07 -0.981203 0)
(-7.74864e-07 -0.981203 0)
(-1.17338e-06 -0.981203 0)
(-1.70596e-06 -0.981203 0)
(-2.68603e-06 -0.981203 0)
(-4.10296e-06 -0.981202 0)
(-7.22894e-06 -0.981202 0)
(-1.22431e-05 -0.9812 0)
(-2.65462e-05 -0.981196 0)
(-4.92564e-05 -0.981171 0)
(-9.5483e-05 -0.981178 0)
(-6.53666e-05 -0.981615 0)
(6.0204e-05 -0.718612 0)
(9.01365e-05 -0.718246 0)
(4.95194e-05 -0.718238 0)
(2.73712e-05 -0.718263 0)
(1.28994e-05 -0.718267 0)
(7.67249e-06 -0.71827 0)
(4.3885e-06 -0.71827 0)
(2.88349e-06 -0.718271 0)
(1.84194e-06 -0.718271 0)
(1.27284e-06 -0.718271 0)
(8.47604e-07 -0.718271 0)
(5.87162e-07 -0.718271 0)
(3.83321e-07 -0.718271 0)
(2.49143e-07 -0.718271 0)
(1.42234e-07 -0.718271 0)
(6.92335e-08 -0.718271 0)
(1.16873e-08 -0.718271 0)
(-2.7402e-08 -0.718271 0)
(-5.66545e-08 -0.718271 0)
(-7.49225e-08 -0.718271 0)
(-8.6492e-08 -0.718271 0)
(-9.11038e-08 -0.718271 0)
(-9.10327e-08 -0.718271 0)
(-8.64139e-08 -0.718271 0)
(-7.85682e-08 -0.718271 0)
(-6.77941e-08 -0.718271 0)
(-5.49393e-08 -0.718271 0)
(-4.03566e-08 -0.718271 0)
(-2.46845e-08 -0.718271 0)
(-8.28421e-09 -0.718271 0)
(8.2913e-09 -0.718271 0)
(2.46964e-08 -0.718271 0)
(4.03758e-08 -0.718271 0)
(5.49367e-08 -0.718271 0)
(6.78024e-08 -0.718271 0)
(7.85908e-08 -0.718271 0)
(8.64202e-08 -0.718271 0)
(9.1042e-08 -0.718271 0)
(9.11171e-08 -0.718271 0)
(8.64929e-08 -0.718271 0)
(7.4929e-08 -0.718271 0)
(5.66663e-08 -0.718271 0)
(2.74038e-08 -0.718271 0)
(-1.16726e-08 -0.718271 0)
(-6.92112e-08 -0.718271 0)
(-1.42225e-07 -0.718271 0)
(-2.49139e-07 -0.718271 0)
(-3.8331e-07 -0.718271 0)
(-5.87168e-07 -0.718271 0)
(-8.47605e-07 -0.718271 0)
(-1.27284e-06 -0.718271 0)
(-1.84195e-06 -0.718271 0)
(-2.88349e-06 -0.718271 0)
(-4.38849e-06 -0.71827 0)
(-7.6725e-06 -0.71827 0)
(-1.28994e-05 -0.718267 0)
(-2.73712e-05 -0.718263 0)
(-4.95194e-05 -0.718238 0)
(-9.01366e-05 -0.718246 0)
(-6.02041e-05 -0.718612 0)
(5.43202e-05 -0.517706 0)
(8.39064e-05 -0.517397 0)
(4.95164e-05 -0.517388 0)
(2.8073e-05 -0.517414 0)
(1.35266e-05 -0.517419 0)
(8.10606e-06 -0.517421 0)
(4.67345e-06 -0.517422 0)
(3.0818e-06 -0.517423 0)
(1.97966e-06 -0.517423 0)
(1.37385e-06 -0.517423 0)
(9.2186e-07 -0.517423 0)
(6.4395e-07 -0.517423 0)
(4.26797e-07 -0.517423 0)
(2.8336e-07 -0.517423 0)
(1.69157e-07 -0.517423 0)
(9.08205e-08 -0.517423 0)
(2.89731e-08 -0.517423 0)
(-1.33903e-08 -0.517423 0)
(-4.53247e-08 -0.517423 0)
(-6.56989e-08 -0.517423 0)
(-7.90152e-08 -0.517423 0)
(-8.5034e-08 -0.517423 0)
(-8.61434e-08 -0.517423 0)
(-8.24987e-08 -0.517423 0)
(-7.54835e-08 -0.517423 0)
(-6.54147e-08 -0.517423 0)
(-5.31782e-08 -0.517423 0)
(-3.91434e-08 -0.517423 0)
(-2.39756e-08 -0.517423 0)
(-8.05031e-09 -0.517423 0)
(8.05893e-09 -0.517423 0)
(2.39879e-08 -0.517423 0)
(3.91624e-08 -0.517423 0)
(5.31777e-08 -0.517423 0)
(6.54239e-08 -0.517423 0)
(7.55054e-08 -0.517423 0)
(8.25066e-08 -0.517423 0)
(8.6153e-08 -0.517423 0)
(8.50464e-08 -0.517423 0)
(7.90177e-08 -0.517423 0)
(6.57059e-08 -0.517423 0)
(4.53353e-08 -0.517423 0)
(1.3393e-08 -0.517423 0)
(-2.89584e-08 -0.517423 0)
(-9.08e-08 -0.517423 0)
(-1.69147e-07 -0.517423 0)
(-2.83356e-07 -0.517423 0)
(-4.26787e-07 -0.517423 0)
(-6.43955e-07 -0.517423 0)
(-9.21863e-07 -0.517423 0)
(-1.37385e-06 -0.517423 0)
(-1.97967e-06 -0.517423 0)
(-3.08181e-06 -0.517423 0)
(-4.67345e-06 -0.517422 0)
(-8.10607e-06 -0.517421 0)
(-1.35266e-05 -0.517419 0)
(-2.8073e-05 -0.517414 0)
(-4.95164e-05 -0.517388 0)
(-8.39064e-05 -0.517397 0)
(-5.43202e-05 -0.517706 0)
(4.79425e-05 -0.370413 0)
(7.70279e-05 -0.37015 0)
(4.92557e-05 -0.370139 0)
(2.86503e-05 -0.370165 0)
(1.41221e-05 -0.370171 0)
(8.52844e-06 -0.370174 0)
(4.95732e-06 -0.370175 0)
(3.28075e-06 -0.370175 0)
(2.11898e-06 -0.370175 0)
(1.47637e-06 -0.370175 0)
(9.97587e-07 -0.370176 0)
(7.01994e-07 -0.370176 0)
(4.71405e-07 -0.370176 0)
(3.18552e-07 -0.370176 0)
(1.96949e-07 -0.370176 0)
(1.13168e-07 -0.370176 0)
(4.6939e-08 -0.370176 0)
(1.22211e-09 -0.370176 0)
(-3.34581e-08 -0.370176 0)
(-5.60006e-08 -0.370176 0)
(-7.11173e-08 -0.370176 0)
(-7.85953e-08 -0.370176 0)
(-8.0933e-08 -0.370176 0)
(-7.83089e-08 -0.370176 0)
(-7.21685e-08 -0.370176 0)
(-6.28484e-08 -0.370176 0)
(-5.12725e-08 -0.370176 0)
(-3.78275e-08 -0.370176 0)
(-2.32052e-08 -0.370176 0)
(-7.79598e-09 -0.370176 0)
(7.80617e-09 -0.370176 0)
(2.32179e-08 -0.370176 0)
(3.78462e-08 -0.370176 0)
(5.12742e-08 -0.370176 0)
(6.28587e-08 -0.370176 0)
(7.21896e-08 -0.370176 0)
(7.83185e-08 -0.370176 0)
(8.0943e-08 -0.370176 0)
(7.86067e-08 -0.370176 0)
(7.11216e-08 -0.370176 0)
(5.60079e-08 -0.370176 0)
(3.34674e-08 -0.370176 0)
(-1.21842e-09 -0.370176 0)
(-4.69244e-08 -0.370176 0)
(-1.13149e-07 -0.370176 0)
(-1.96939e-07 -0.370176 0)
(-3.18547e-07 -0.370176 0)
(-4.71397e-07 -0.370176 0)
(-7.01999e-07 -0.370176 0)
(-9.9759e-07 -0.370176 0)
(-1.47637e-06 -0.370175 0)
(-2.11899e-06 -0.370175 0)
(-3.28075e-06 -0.370175 0)
(-4.95732e-06 -0.370175 0)
(-8.52845e-06 -0.370174 0)
(-1.41221e-05 -0.370171 0)
(-2.86503e-05 -0.370165 0)
(-4.92557e-05 -0.370139 0)
(-7.7028e-05 -0.37015 0)
(-4.79426e-05 -0.370413 0)
(4.13014e-05 -0.265426 0)
(6.97398e-05 -0.265197 0)
(4.8746e-05 -0.265185 0)
(2.91017e-05 -0.265212 0)
(1.46831e-05 -0.265217 0)
(8.93824e-06 -0.265221 0)
(5.23946e-06 -0.265222 0)
(3.48002e-06 -0.265222 0)
(2.25977e-06 -0.265222 0)
(1.58031e-06 -0.265222 0)
(1.07474e-06 -0.265223 0)
(7.6126e-07 -0.265223 0)
(5.17116e-07 -0.265223 0)
(3.54688e-07 -0.265223 0)
(2.2558e-07 -0.265223 0)
(1.36244e-07 -0.265223 0)
(6.55512e-08 -0.265223 0)
(1.64011e-08 -0.265223 0)
(-2.10887e-08 -0.265223 0)
(-4.58607e-08 -0.265223 0)
(-6.28302e-08 -0.265223 0)
(-7.18175e-08 -0.265223 0)
(-7.5429e-08 -0.265223 0)
(-7.38693e-08 -0.265223 0)
(-6.86447e-08 -0.265223 0)
(-6.01133e-08 -0.265223 0)
(-4.92364e-08 -0.265223 0)
(-3.64191e-08 -0.265223 0)
(-2.23795e-08 -0.265223 0)
(-7.52334e-09 -0.265223 0)
(7.5351e-09 -0.265223 0)
(2.23926e-08 -0.265223 0)
(3.64375e-08 -0.265223 0)
(4.92405e-08 -0.265223 0)
(6.01245e-08 -0.265223 0)
(6.86649e-08 -0.265223 0)
(7.38804e-08 -0.265223 0)
(7.54394e-08 -0.265223 0)
(7.18281e-08 -0.265223 0)
(6.28363e-08 -0.265223 0)
(4.58683e-08 -0.265223 0)
(2.10968e-08 -0.265223 0)
(-1.63964e-08 -0.265223 0)
(-6.55366e-08 -0.265223 0)
(-1.36227e-07 -0.265223 0)
(-2.25569e-07 -0.265223 0)
(-3.54683e-07 -0.265223 0)
(-5.17109e-07 -0.265223 0)
(-7.61265e-07 -0.265223 0)
(-1.07474e-06 -0.265223 0)
(-1.58032e-06 -0.265222 0)
(-2.25978e-06 -0.265222 0)
(-3.48002e-06 -0.265222 0)
(-5.23946e-06 -0.265222 0)
(-8.93824e-06 -0.265221 0)
(-1.46831e-05 -0.265217 0)
(-2.91018e-05 -0.265212 0)
(-4.8746e-05 -0.265185 0)
(-6.97399e-05 -0.265197 0)
(-4.13015e-05 -0.265426 0)
(3.46002e-05 -0.191865 0)
(6.22542e-05 -0.191661 0)
(4.7997e-05 -0.191648 0)
(2.94264e-05 -0.191675 0)
(1.52067e-05 -0.191681 0)
(9.33389e-06 -0.191684 0)