/*--------------------------------*- C++ -*----------------------------------*\
| =========                 |                                                 |
| \\      /  F ield         | foam-extend: Open Source CFD                    |
|  \\    /   O peration     | Version:     4.0                                |
|   \\  /    A nd           | Web:         http://www.foam-extend.org         |
|    \\/     M anipulation  |                                                 |
\*---------------------------------------------------------------------------*/
FoamFile
{
    version     2.0;
    format      ascii;
    class       volScalarField;
    location    "6";
    object      dC1;
}
// * * * * * * * * * * * * * * * * * * * * * * * * * * * * * * * * * * * * * //

dimensions      [0 -1 0 0 0 0 0];

internalField   nonuniform List<scalar> 
6960
(
3.04358e-13
3.0233e-13
3.0342e-13
3.03832e-13
3.04019e-13
3.0278e-13
3.04284e-13
3.0417e-13
3.0462e-13
3.04207e-13
3.03907e-13
3.04395e-13
3.04244e-13
3.03831e-13
3.0447e-13
3.03869e-13
3.04508e-13
3.03945e-13
3.04244e-13
3.03794e-13
3.0387e-13
3.0447e-13
3.03494e-13
3.04507e-13
3.04995e-13
3.04169e-13
3.03681e-13
3.04283e-13
3.03832e-13
3.04058e-13
3.04057e-13
3.03456e-13
3.03609e-13
3.03643e-13
3.04208e-13
3.03982e-13
3.04208e-13
3.0447e-13
3.03981e-13
3.03682e-13
3.03982e-13
3.04319e-13
3.04582e-13
3.0357e-13
3.03757e-13
3.03607e-13
3.04281e-13
3.04359e-13
3.03682e-13
3.02818e-13
3.04058e-13
3.03231e-13
3.03682e-13
3.03794e-13
3.03419e-13
3.03981e-13
3.04846e-13
3.03868e-13
3.04546e-13
3.04169e-13
1.02546e-13
1.02715e-13
1.02489e-13
1.02829e-13
1.02376e-13
1.02114e-13
1.02528e-13
1.02546e-13
1.0249e-13
1.02846e-13
1.02414e-13
1.03072e-13
1.02565e-13
1.02489e-13
1.02659e-13
1.02265e-13
1.02808e-13
1.02584e-13
1.02359e-13
1.02001e-13
1.02471e-13
1.02603e-13
1.02658e-13
1.02471e-13
1.0234e-13
1.02378e-13
1.02319e-13
1.02999e-13
1.02413e-13
1.02585e-13
1.0232e-13
1.02508e-13
1.02435e-13
1.02132e-13
1.02397e-13
1.02546e-13
1.02433e-13
1.02397e-13
1.02508e-13
1.02847e-13
1.02752e-13
1.02245e-13
1.02529e-13
1.02434e-13
1.02846e-13
1.02602e-13
1.02583e-13
1.02867e-13
1.02377e-13
1.02527e-13
1.02547e-13
1.0247e-13
1.0234e-13
1.02828e-13
1.02677e-13
1.02789e-13
1.02529e-13
1.02413e-13
1.02755e-13
1.02226e-13
5.71409e-14
5.73036e-14
5.7562e-14
5.7219e-14
5.67654e-14
5.71787e-14
5.74809e-14
5.73014e-14
5.75174e-14
5.72446e-14
5.72077e-14
5.72463e-14
5.70286e-14
5.71323e-14
5.67493e-14
5.7095e-14
5.68972e-14
5.73591e-14
5.71878e-14
5.71787e-14
5.68976e-14
5.70681e-14
5.73656e-14
5.71982e-14
5.70963e-14
5.73773e-14
5.71396e-14
5.74454e-14
5.69514e-14
5.74345e-14
5.73565e-14
5.70468e-14
5.75655e-14
5.73656e-14
5.73673e-14
5.73855e-14
5.75074e-14
5.71045e-14
5.69536e-14
5.72359e-14
5.70485e-14
5.73755e-14
5.73491e-14
5.7592e-14
5.70672e-14
5.71882e-14
5.67471e-14
5.75468e-14
5.71782e-14
5.71982e-14
5.72086e-14
5.70178e-14
5.72463e-14
5.72177e-14
5.73664e-14
5.69709e-14
5.70971e-14
5.73842e-14
5.73873e-14
5.71223e-14
1.18018e-14
1.22133e-14
1.1313e-14
1.1895e-14
1.2304e-14
1.17879e-14
1.18933e-14
1.23022e-14
1.18924e-14
1.17549e-14
1.22398e-14
1.17753e-14
1.18451e-14
1.16621e-14
1.21656e-14
1.20008e-14
1.1882e-14
1.21704e-14
1.17931e-14
1.21691e-14
1.21548e-14
1.20255e-14
1.17649e-14
1.19197e-14
1.21838e-14
1.1954e-14
1.17866e-14
1.22194e-14
1.19453e-14
1.20967e-14
1.1722e-14
1.19245e-14
1.2068e-14
1.1751e-14
1.21886e-14
1.17749e-14
1.19067e-14
1.19028e-14
1.22242e-14
1.20242e-14
1.19631e-14
1.182e-14
1.21561e-14
1.18508e-14
1.1996e-14
1.19574e-14
1.22302e-14
1.18794e-14
1.22298e-14
1.21743e-14
1.18412e-14
1.17263e-14
1.17107e-14
1.23621e-14
1.215e-14
1.19327e-14
1.22042e-14
1.1895e-14
1.21196e-14
1.21118e-14
-5.44478e-14
-5.4064e-14
-5.39811e-14
-5.3998e-14
-5.41811e-14
-5.38757e-14
-5.42483e-14
-5.41091e-14
-5.40145e-14
-5.41151e-14
-5.42825e-14
-5.41876e-14
-5.40622e-14
-5.39976e-14
-5.39811e-14
-5.39681e-14
-5.43732e-14
-5.4155e-14
-5.41095e-14
-5.41841e-14
-5.4237e-14
-5.41824e-14
-5.40544e-14
-5.4119e-14
-5.3982e-14
-5.40705e-14
-5.40171e-14
-5.44061e-14
-5.41824e-14
-5.40783e-14
-5.43727e-14
-5.4185e-14
-5.40557e-14
-5.40349e-14
-5.41932e-14
-5.40379e-14
-5.40722e-14
-5.40943e-14
-5.44335e-14
-5.4423e-14
-5.41221e-14
-5.42513e-14
-5.42201e-14
-5.43576e-14
-5.41975e-14
-5.41481e-14
-5.42361e-14
-5.42726e-14
-5.43675e-14
-5.38783e-14
-5.40765e-14
-5.3858e-14
-5.40687e-14
-5.42821e-14
-5.42652e-14
-5.42136e-14
-5.43879e-14
-5.42556e-14
-5.39291e-14
-5.42925e-14
-1.23318e-13
-1.23521e-13
-1.23597e-13
-1.23329e-13
-1.23671e-13
-1.23353e-13
-1.23433e-13
-1.23527e-13
-1.23394e-13
-1.23497e-13
-1.23462e-13
-1.23463e-13
-1.23693e-13
-1.23467e-13
-1.23468e-13
-1.23688e-13
-1.23315e-13
-1.23687e-13
-1.23674e-13
-1.23587e-13
-1.23566e-13
-1.23406e-13
-1.23539e-13
-1.23901e-13
-1.23679e-13
-1.23444e-13
-1.23606e-13
-1.23288e-13
-1.23289e-13
-1.23461e-13
-1.23278e-13
-1.23433e-13
-1.23596e-13
-1.23575e-13
-1.23591e-13
-1.23603e-13
-1.23524e-13
-1.23494e-13
-1.23424e-13
-1.23464e-13
-1.23469e-13
-1.23288e-13
-1.23391e-13
-1.2349e-13
-1.23282e-13
-1.23621e-13
-1.2353e-13
-1.23473e-13
-1.23454e-13
-1.23681e-13
-1.23759e-13
-1.23838e-13
-1.23445e-13
-1.23403e-13
-1.23778e-13
-1.23575e-13
-1.23345e-13
-1.23431e-13
-1.23531e-13
-1.23547e-13
-1.70666e-13
-1.70347e-13
-1.70545e-13
-1.70529e-13
-1.7061e-13
-1.70781e-13
-1.70265e-13
-1.70604e-13
-1.70533e-13
-1.70771e-13
-1.70775e-13
-1.70598e-13
-1.70369e-13
-1.70744e-13
-1.70651e-13
-1.70486e-13
-1.70559e-13
-1.70599e-13
-1.70404e-13
-1.70545e-13
-1.70643e-13
-1.7043e-13
-1.70634e-13
-1.70266e-13
-1.70504e-13
-1.70565e-13
-1.70247e-13
-1.70466e-13
-1.7068e-13
-1.70744e-13
-1.70522e-13
-1.70461e-13
-1.70488e-13
-1.70351e-13
-1.70588e-13
-1.70548e-13
-1.70708e-13
-1.70463e-13
-1.70558e-13
-1.70547e-13
-1.70523e-13
-1.70726e-13
-1.70557e-13
-1.70401e-13
-1.70753e-13
-1.70573e-13
-1.7053e-13
-1.70705e-13
-1.70838e-13
-1.70604e-13
-1.70596e-13
-1.70476e-13
-1.7035e-13
-1.70514e-13
-1.70368e-13
-1.70369e-13
-1.70455e-13
-1.70669e-13
-1.70649e-13
-1.7047e-13
-1.91824e-13
-1.91979e-13
-1.91819e-13
-1.91746e-13
-1.91886e-13
-1.91768e-13
-1.91911e-13
-1.91725e-13
-1.92045e-13
-1.91866e-13
-1.91681e-13
-1.91676e-13
-1.91894e-13
-1.9179e-13
-1.91429e-13
-1.92015e-13
-1.92095e-13
-1.91923e-13
-1.91866e-13
-1.91693e-13
-1.91763e-13
-1.91822e-13
-1.91826e-13
-1.91817e-13
-1.91786e-13
-1.91789e-13
-1.91947e-13
-1.91944e-13
-1.91932e-13
-1.91886e-13
-1.91883e-13
-1.9181e-13
-1.91796e-13
-1.92107e-13
-1.91681e-13
-1.91906e-13
-1.91975e-13
-1.92005e-13
-1.91785e-13
-1.91857e-13
-1.91749e-13
-1.91858e-13
-1.91708e-13
-1.91586e-13
-1.91853e-13
-1.92045e-13
-1.91987e-13
-1.91527e-13
-1.91577e-13
-1.91772e-13
-1.91646e-13
-1.919e-13
-1.91751e-13
-1.9218e-13
-1.92083e-13
-1.92085e-13
-1.91695e-13
-1.91875e-13
-1.91824e-13
-1.91937e-13
-2.00223e-13
-2.0015e-13
-1.9997e-13
-2.0009e-13
-2.0009e-13
-2.00155e-13
-2.00136e-13
-2.0023e-13
-2.00002e-13
-1.99982e-13
-2.00122e-13
-2.0003e-13
-1.99898e-13
-1.99887e-13
-2.0017e-13
-2.00105e-13
-1.99987e-13
-2.00077e-13
-2.00214e-13
-2.00466e-13
-2.00133e-13
-2.00286e-13
-2.00175e-13
-2.00102e-13
-2.00006e-13
-2.001e-13
-2.00103e-13
-1.99969e-13
-2.002e-13
-1.99941e-13
-2.00243e-13
-2.00252e-13
-2.00212e-13
-1.99802e-13
-2.00114e-13
-2.00216e-13
-2.00017e-13
-2.00001e-13
-2.00139e-13
-1.99986e-13
-2.00023e-13
-1.99927e-13
-2.00092e-13
-2.00211e-13
-2.00145e-13
-2.00107e-13
-2.00004e-13
-2.00306e-13
-2.00133e-13
-2.00053e-13
-2.00165e-13
-2.0006e-13
-2.0007e-13
-2.00103e-13
-1.99892e-13
-1.99973e-13
-2.00207e-13
-1.99979e-13
-2.00055e-13
-1.9998e-13
-1.99883e-13
-2.00016e-13
-1.99994e-13
-1.99777e-13
-2.00012e-13
-1.99822e-13
-1.99777e-13
-1.99716e-13
-1.9991e-13
-1.99945e-13
-1.99936e-13
-1.99714e-13
-2.00059e-13
-1.99748e-13
-1.99765e-13
-1.99688e-13
-1.99935e-13
-1.99878e-13
-1.99891e-13
-1.9972e-13
-1.99667e-13
-1.99736e-13
-1.9978e-13
-2.00151e-13
-1.99955e-13
-1.997e-13
-1.99971e-13
-1.99846e-13
-1.99876e-13
-1.99822e-13
-1.99825e-13
-1.99794e-13
-1.99696e-13
-1.9991e-13
-1.99796e-13
-1.9944e-13
-1.99687e-13
-1.99794e-13
-1.99897e-13
-1.99849e-13
-1.99874e-13
-1.99872e-13
-1.99803e-13
-1.99792e-13
-1.99812e-13
-1.99775e-13
-1.99908e-13
-1.99732e-13
-1.9975e-13
-2.00036e-13
-1.9975e-13
-1.998e-13
-1.99871e-13
-1.9963e-13
-1.9994e-13
-1.99826e-13
-1.99731e-13
-1.99751e-13
-1.99979e-13
-2e-13
-1.83064e-13
-1.82918e-13
-1.82776e-13
-1.8295e-13
-1.82813e-13
-1.82944e-13
-1.82954e-13
-1.83054e-13
-1.83117e-13
-1.83084e-13
-1.83072e-13
-1.83091e-13
-1.82793e-13
-1.82952e-13
-1.8307e-13
-1.83042e-13
-1.82976e-13
-1.83171e-13
-1.82877e-13
-1.82709e-13
-1.83163e-13
-1.82839e-13
-1.83054e-13
-1.82837e-13
-1.82997e-13
-1.83103e-13
-1.82984e-13
-1.82833e-13
-1.83099e-13
-1.82962e-13
-1.82967e-13
-1.83241e-13
-1.83079e-13
-1.82865e-13
-1.82924e-13
-1.8301e-13
-1.83107e-13
-1.8286e-13
-1.82826e-13
-1.82902e-13
-1.8291e-13
-1.83013e-13
-1.82844e-13
-1.82945e-13
-1.8304e-13
-1.82919e-13
-1.82911e-13
-1.82852e-13
-1.83212e-13
-1.82966e-13
-1.83038e-13
-1.83032e-13
-1.82839e-13
-1.83229e-13
-1.8285e-13
-1.83066e-13
-1.83062e-13
-1.83188e-13
-1.82888e-13
-1.82891e-13
-1.41483e-13
-1.41647e-13
-1.41832e-13
-1.41485e-13
-1.41478e-13
-1.41665e-13
-1.41681e-13
-1.41396e-13
-1.4127e-13
-1.41283e-13
-1.41547e-13
-1.41411e-13
-1.41533e-13
-1.41729e-13
-1.41592e-13
-1.41382e-13
-1.41578e-13
-1.41223e-13
-1.41674e-13
-1.41617e-13
-1.4146e-13
-1.41517e-13
-1.41562e-13
-1.41667e-13
-1.41667e-13
-1.41475e-13
-1.41746e-13
-1.4164e-13
-1.41345e-13
-1.41366e-13
-1.41471e-13
-1.41437e-13
-1.41451e-13
-1.41468e-13
-1.41622e-13
-1.41499e-13
-1.41672e-13
-1.41698e-13
-1.41896e-13
-1.41579e-13
-1.4172e-13
-1.41404e-13
-1.41676e-13
-1.41501e-13
-1.41439e-13
-1.41507e-13
-1.41474e-13
-1.41807e-13
-1.41398e-13
-1.41528e-13
-1.4142e-13
-1.41585e-13
-1.41521e-13
-1.41356e-13
-1.41676e-13
-1.41486e-13
-1.41486e-13
-1.41331e-13
-1.41716e-13
-1.41534e-13
-7.93818e-14
-7.93645e-14
-7.95028e-14
-7.94412e-14
-7.95241e-14
-7.94447e-14
-7.93246e-14
-7.93081e-14
-7.93888e-14
-7.96594e-14
-7.93619e-14
-7.95974e-14
-7.94031e-14
-7.92014e-14
-7.95028e-14
-7.95934e-14
-7.93059e-14
-7.94876e-14
-7.93263e-14
-7.95926e-14
-7.9449e-14
-7.93688e-14
-7.94616e-14
-7.93567e-14
-7.94265e-14
-7.94586e-14
-7.92335e-14
-7.94859e-14
-7.94135e-14
-7.95948e-14
-7.94482e-14
-7.93354e-14
-7.9557e-14
-7.93645e-14
-7.94564e-14
-7.94907e-14
-7.91749e-14
-7.92972e-14
-7.92296e-14
-7.93042e-14
-7.93961e-14
-7.95822e-14
-7.93753e-14
-7.95453e-14
-7.93697e-14
-7.92951e-14
-7.93523e-14
-7.91203e-14
-7.95223e-14
-7.94326e-14
-7.94568e-14
-7.93445e-14
-7.94274e-14
-7.93658e-14
-7.9426e-14
-7.94794e-14
-7.93319e-14
-7.93363e-14
-7.92326e-14
-7.93922e-14
-1.05961e-14
-1.05645e-14
-1.05458e-14
-1.03624e-14
-1.0303e-14
-1.04704e-14
-1.04578e-14
-1.04101e-14
-1.04912e-14
-1.03888e-14
-1.04335e-14
-1.04335e-14
-1.04795e-14
-1.06031e-14
-1.04747e-14
-1.01989e-14
-1.05671e-14
-1.06495e-14
-1.06894e-14
-1.05319e-14
-1.04313e-14
-1.05502e-14
-1.04565e-14
-1.05441e-14
-1.06421e-14
-1.05198e-14
-1.06963e-14
-1.04526e-14
-1.05515e-14
-1.04747e-14
-1.04465e-14
-1.05432e-14
-1.03992e-14
-1.04682e-14
-1.05124e-14
-1.061e-14
-1.04955e-14
-1.04691e-14
-1.06677e-14
-1.05103e-14
-1.05606e-14
-1.04083e-14
-1.0613e-14
-1.06794e-14
-1.03897e-14
-1.05549e-14
-1.05085e-14
-1.06742e-14
-1.0522e-14
-1.05024e-14
-1.04335e-14
-1.07089e-14
-1.06837e-14
-1.03598e-14
-1.05588e-14
-1.04413e-14
-1.04448e-14
-1.05103e-14
-1.05415e-14
-1.04079e-14
4.95827e-14
4.95619e-14
4.93017e-14
4.93351e-14
4.94648e-14
4.94197e-14
4.94353e-14
4.93186e-14
4.92744e-14
4.92466e-14
4.94804e-14
4.94067e-14
4.95268e-14
4.96235e-14
4.94487e-14
4.93503e-14
4.96209e-14
4.95836e-14
4.96508e-14
4.93191e-14
4.94678e-14
4.94956e-14
4.93459e-14
4.93629e-14
4.96534e-14
4.93555e-14
4.94656e-14
4.94635e-14
4.94791e-14
4.93967e-14
4.94427e-14
4.9663e-14
4.9391e-14
4.94149e-14
4.94136e-14
4.96838e-14
4.92865e-14
4.94366e-14
4.95428e-14
4.93425e-14
4.94401e-14
4.94878e-14
4.94075e-14
4.96114e-14
4.95021e-14
4.93889e-14
4.95281e-14
4.9548e-14
4.95754e-14
4.94106e-14
4.92544e-14
4.9512e-14
4.94643e-14
4.94565e-14
4.93936e-14
4.91668e-14
4.92644e-14
4.93295e-14
4.94899e-14
4.95923e-14
9.06892e-14
9.07941e-14
9.08778e-14
9.0805e-14
9.06293e-14
9.07828e-14
9.06727e-14
9.07226e-14
9.08054e-14
9.09121e-14
9.06675e-14
9.05504e-14
9.04905e-14
9.04932e-14
9.05721e-14
9.06844e-14
9.06306e-14
9.06475e-14
9.05673e-14
9.08956e-14
9.06194e-14
9.07152e-14
9.07273e-14
9.07321e-14
9.072e-14
9.06996e-14
9.06471e-14
9.06558e-14
9.05955e-14
9.07312e-14
9.06762e-14
9.05192e-14
9.06818e-14
9.06315e-14
9.06419e-14
9.05716e-14
9.08939e-14
9.07694e-14
9.06536e-14
9.0762e-14
9.06775e-14
9.05265e-14
9.06653e-14
9.06983e-14
9.0743e-14
9.06406e-14
9.06874e-14
9.05907e-14
9.06909e-14
9.07031e-14
9.0942e-14
9.0795e-14
9.09572e-14
9.06163e-14
9.07456e-14
9.06844e-14
9.07421e-14
9.07443e-14
9.06944e-14
9.07438e-14
1.10927e-13
1.10915e-13
1.11077e-13
1.10964e-13
1.11148e-13
1.11021e-13
1.11116e-13
1.11109e-13
1.10929e-13
1.11031e-13
1.10998e-13
1.11127e-13
1.11136e-13
1.11012e-13
1.11073e-13
1.11023e-13
1.11024e-13
1.11175e-13
1.11267e-13
1.10892e-13
1.11146e-13
1.11023e-13
1.10939e-13
1.11148e-13
1.11069e-13
1.10959e-13
1.11038e-13
1.11137e-13
1.10972e-13
1.11137e-13
1.10932e-13
1.11088e-13
1.11041e-13
1.10844e-13
1.11084e-13
1.11031e-13
1.10938e-13
1.10941e-13
1.11091e-13
1.11024e-13
1.10968e-13
1.11175e-13
1.11132e-13
1.10931e-13
1.11087e-13
1.11188e-13
1.11218e-13
1.1105e-13
1.11136e-13
1.10938e-13
1.10784e-13
1.11002e-13
1.10924e-13
1.11077e-13
1.1094e-13
1.11133e-13
1.11074e-13
1.10978e-13
1.11117e-13
1.11118e-13
1.14087e-13
1.14234e-13
1.13998e-13
1.14087e-13
1.14109e-13
1.14101e-13
1.14011e-13
1.13911e-13
1.14103e-13
1.13983e-13
1.14362e-13
1.14165e-13
1.13969e-13
1.14247e-13
1.14018e-13
1.14006e-13
1.142e-13
1.13952e-13
1.14083e-13
1.1414e-13
1.14011e-13
1.13959e-13
1.14156e-13
1.14161e-13
1.14091e-13
1.14176e-13
1.14169e-13
1.13983e-13
1.1407e-13
1.14033e-13
1.14336e-13
1.14114e-13
1.14042e-13
1.14243e-13
1.14064e-13
1.14107e-13
1.14039e-13
1.14045e-13
1.1416e-13
1.14084e-13
1.1434e-13
1.14002e-13
1.14107e-13
1.14265e-13
1.14138e-13
1.1406e-13
1.1407e-13
1.14131e-13
1.14107e-13
1.14064e-13
1.14188e-13
1.14075e-13
1.14255e-13
1.14026e-13
1.14137e-13
1.14004e-13
1.1406e-13
1.14264e-13
1.14113e-13
1.14164e-13
1.05621e-13
1.05727e-13
1.05811e-13
1.05689e-13
1.05737e-13
1.05708e-13
1.05796e-13
1.0597e-13
1.0574e-13
1.05632e-13
1.05651e-13
1.0555e-13
1.05846e-13
1.05779e-13
1.0583e-13
1.05819e-13
1.05677e-13
1.05915e-13
1.05713e-13
1.05712e-13
1.05705e-13
1.05696e-13
1.05542e-13
1.05657e-13
1.05932e-13
1.05779e-13
1.05731e-13
1.05598e-13
1.05756e-13
1.05737e-13
1.05584e-13
1.05656e-13
1.05899e-13
1.05544e-13
1.05708e-13
1.05463e-13
1.05781e-13
1.05674e-13
1.05724e-13
1.0592e-13
1.05673e-13
1.05783e-13
1.05633e-13
1.05673e-13
1.05663e-13
1.05773e-13
1.05764e-13
1.05796e-13
1.05643e-13
1.05942e-13
1.05666e-13
1.05681e-13
1.05511e-13
1.05574e-13
1.05649e-13
1.0573e-13
1.05743e-13
1.05587e-13
1.0579e-13
1.05685e-13
9.15643e-14
9.13926e-14
9.13896e-14
9.14368e-14
9.15062e-14
9.15591e-14
9.16988e-14
9.13397e-14
9.13614e-14
9.17278e-14
9.15292e-14
9.16363e-14
9.12725e-14
9.13406e-14
9.15635e-14
9.12569e-14
9.14217e-14
9.14143e-14
9.14559e-14
9.14828e-14
9.15002e-14
9.15323e-14
9.15253e-14
9.17296e-14
9.13176e-14
9.13332e-14
9.14208e-14
9.1521e-14
9.14893e-14
9.14008e-14
9.14364e-14
9.15435e-14
9.12825e-14
9.17122e-14
9.1488e-14
9.16558e-14
9.13618e-14
9.15288e-14
9.14854e-14
9.13263e-14
9.14564e-14
9.14438e-14
9.13887e-14
9.15739e-14
9.15977e-14
9.14867e-14
9.15847e-14
9.13622e-14
9.157e-14
9.13046e-14
9.15114e-14
9.14681e-14
9.14338e-14
9.15613e-14
9.14746e-14
9.14984e-14
9.13284e-14
9.16363e-14
9.14433e-14
9.14763e-14
7.55025e-14
7.55711e-14
7.56045e-14
7.55676e-14
7.55325e-14
7.54921e-14
7.52189e-14
7.57068e-14
7.57324e-14
7.5359e-14
7.57385e-14
7.57393e-14
7.56014e-14
7.57519e-14
7.54757e-14
7.5738e-14
7.54483e-14
7.56019e-14
7.55945e-14
7.56279e-14
7.56036e-14
7.54418e-14
7.54882e-14
7.55038e-14
7.56834e-14
7.56903e-14
7.57463e-14
7.57051e-14
7.55698e-14
7.56326e-14
7.56665e-14
7.54622e-14
7.56318e-14
7.53247e-14
7.55845e-14
7.55242e-14
7.56348e-14
7.54028e-14
7.56292e-14
7.56014e-14
7.56417e-14
7.54223e-14
7.55489e-14
7.5568e-14
7.56253e-14
7.57454e-14
7.55112e-14
7.57137e-14
7.56014e-14
7.57333e-14
7.55203e-14
7.55433e-14
7.58829e-14
7.55099e-14
7.55147e-14
7.55724e-14
7.56487e-14
7.55034e-14
7.55546e-14
7.57107e-14
6.06364e-14
6.0619e-14
6.07474e-14
6.06737e-14
6.05822e-14
6.06654e-14
6.09109e-14
6.0616e-14
6.0636e-14
6.06789e-14
6.03875e-14
6.03675e-14
6.06607e-14
6.04751e-14
6.05692e-14
6.05761e-14
6.07101e-14
6.05722e-14
6.04599e-14
6.0498e-14
6.0397e-14
6.05523e-14
6.05076e-14
6.05987e-14
6.05635e-14
6.05579e-14
6.05275e-14
6.04464e-14
6.04811e-14
6.06537e-14
6.0554e-14
6.04976e-14
6.07006e-14
6.0734e-14
6.06347e-14
6.05817e-14
6.05839e-14
6.06095e-14
6.04534e-14
6.06633e-14
6.06034e-14
6.0482e-14
6.07006e-14
6.04634e-14
6.03306e-14
6.0502e-14
6.03445e-14
6.04946e-14
6.04343e-14
6.05015e-14
6.05661e-14
6.05874e-14
6.04889e-14
6.06611e-14
6.06282e-14
6.04876e-14
6.05453e-14
6.05765e-14
6.07179e-14
6.05223e-14
4.78528e-14
4.75566e-14
4.7341e-14
4.74169e-14
4.76524e-14
4.7475e-14
4.74815e-14
4.75544e-14
4.75227e-14
4.7505e-14
4.74763e-14
4.7822e-14
4.75457e-14
4.75462e-14
4.76945e-14
4.76203e-14
4.76351e-14
4.75319e-14
4.76017e-14
4.7711e-14
4.77222e-14
4.75726e-14
4.76186e-14
4.75952e-14
4.74781e-14
4.75496e-14
4.74477e-14
4.75731e-14
4.75535e-14
4.76247e-14
4.75744e-14
4.75718e-14
4.75826e-14
4.75908e-14
4.78242e-14
4.7789e-14
4.75861e-14
4.75887e-14
4.76177e-14
4.7534e-14
4.74208e-14
4.77071e-14
4.75505e-14
4.77162e-14
4.76242e-14
4.73658e-14
4.77608e-14
4.7606e-14
4.77882e-14
4.7583e-14
4.77222e-14
4.759e-14
4.7675e-14
4.75123e-14
4.75145e-14
4.75284e-14
4.75522e-14
4.76078e-14
4.76316e-14
4.76481e-14
3.681e-14
3.68581e-14
3.7199e-14
3.70958e-14
3.70086e-14
3.71959e-14
3.73247e-14
3.69687e-14
3.70828e-14
3.71925e-14
3.71691e-14
3.69839e-14
3.70667e-14
3.71261e-14
3.69843e-14
3.7029e-14
3.69552e-14
3.70524e-14
3.71417e-14
3.68924e-14
3.70164e-14
3.73243e-14
3.7114e-14
3.712e-14
3.70229e-14
3.69587e-14
3.70151e-14
3.69769e-14
3.70984e-14
3.70741e-14
3.70181e-14
3.69561e-14
3.70008e-14
3.71023e-14
3.66903e-14
3.6967e-14
3.70442e-14
3.71786e-14
3.70407e-14
3.6999e-14
3.72181e-14
3.69227e-14
3.70099e-14
3.70246e-14
3.71487e-14
3.71539e-14
3.71292e-14
3.69206e-14
3.69596e-14
3.70298e-14
3.69895e-14
3.7241e-14
3.7022e-14
3.7045e-14
3.71114e-14
3.71604e-14
3.69986e-14
3.69782e-14
3.68668e-14
3.70559e-14
2.8976e-14
2.89677e-14
2.86615e-14
2.8727e-14
2.89079e-14
2.88632e-14
2.86459e-14
2.88511e-14
2.88901e-14
2.9008e-14
2.87665e-14
2.87604e-14
2.88142e-14
2.877e-14
2.8819e-14
2.86767e-14
2.88801e-14
2.90774e-14
2.89387e-14
2.89755e-14
2.88831e-14
2.84855e-14
2.87552e-14
2.89109e-14
2.88519e-14
2.91217e-14
2.88992e-14
2.88758e-14
2.88957e-14
2.86008e-14
2.87661e-14
2.88918e-14
2.90848e-14
2.87075e-14
2.8904e-14
2.89092e-14
2.90163e-14
2.89131e-14
2.89083e-14
2.89942e-14
2.88615e-14
2.88298e-14
2.89014e-14
2.88597e-14
2.86802e-14
2.87895e-14
2.87786e-14
2.90093e-14
2.89777e-14
2.90475e-14
2.89044e-14
2.86485e-14
2.89747e-14
2.88012e-14
2.87413e-14
2.89512e-14
2.90163e-14
2.90397e-14
2.89339e-14
2.8727e-14
2.24985e-14
2.24686e-14
2.27067e-14
2.26273e-14
2.25813e-14
2.25748e-14
2.28337e-14
2.24452e-14
2.25583e-14
2.24274e-14
2.27244e-14
2.27032e-14
2.25787e-14
2.23684e-14
2.26442e-14
2.27791e-14
2.24269e-14
2.24018e-14
2.2459e-14
2.25622e-14
2.26728e-14
2.27708e-14
2.26555e-14
2.26477e-14
2.26126e-14
2.23615e-14
2.26763e-14
2.24972e-14
2.24538e-14
2.26538e-14
2.26585e-14
2.27761e-14
2.24287e-14
2.25319e-14
2.26577e-14
2.25354e-14
2.25059e-14
2.26585e-14
2.24664e-14
2.24131e-14
2.2544e-14
2.25297e-14
2.25106e-14
2.24664e-14
2.28428e-14
2.27674e-14
2.25171e-14
2.26078e-14
2.24243e-14
2.2283e-14
2.26342e-14
2.2551e-14
2.25536e-14
2.26338e-14
2.26373e-14
2.25991e-14
2.25315e-14
2.26412e-14
2.2518e-14
2.26737e-14
1.79895e-14
1.79791e-14
1.79253e-14
1.79865e-14
1.76864e-14
1.78035e-14
1.77332e-14
1.80511e-14
1.79058e-14
1.78434e-14
1.77783e-14
1.76924e-14
1.77931e-14
1.79362e-14
1.77215e-14
1.79891e-14
1.80628e-14
1.79618e-14
1.78629e-14
1.76439e-14
1.77094e-14
1.76877e-14
1.78425e-14
1.77493e-14
1.76452e-14
1.79548e-14
1.78481e-14
1.79049e-14
1.80264e-14
1.77675e-14
1.78815e-14
1.77232e-14
1.80233e-14
1.79284e-14
1.79414e-14
1.78794e-14
1.79093e-14
1.75944e-14
1.79184e-14
1.80225e-14
1.79258e-14
1.8006e-14
1.7839e-14
1.79483e-14
1.77024e-14
1.75467e-14
1.79084e-14
1.77514e-14
1.79856e-14
1.80069e-14
1.79635e-14
1.80984e-14
1.7908e-14
1.78655e-14
1.78724e-14
1.77696e-14
1.78677e-14
1.77774e-14
1.78854e-14
1.78434e-14
1.44364e-14
1.43431e-14
1.4066e-14
1.41753e-14
1.45595e-14
1.43388e-14
1.43947e-14
1.40886e-14
1.41423e-14
1.43262e-14
1.44359e-14
1.4566e-14
1.42685e-14
1.43908e-14
1.43444e-14
1.42755e-14
1.4112e-14
1.42529e-14
1.42867e-14
1.45196e-14
1.44138e-14
1.44242e-14
1.43735e-14
1.43158e-14
1.45955e-14
1.4442e-14
1.44776e-14
1.44099e-14
1.40339e-14
1.44173e-14
1.43384e-14
1.42139e-14
1.42473e-14
1.43006e-14
1.40929e-14
1.44455e-14
1.43362e-14
1.45392e-14
1.43462e-14
1.40235e-14
1.42343e-14
1.41874e-14
1.43058e-14
1.43813e-14
1.42338e-14
1.44914e-14
1.41762e-14
1.43973e-14
1.43375e-14
1.43869e-14
1.42503e-14
1.41432e-14
1.43431e-14
1.41918e-14
1.43067e-14
1.42616e-14
1.4239e-14
1.42989e-14
1.4272e-14
1.42187e-14
1.16456e-14
1.16352e-14
1.18378e-14
1.17263e-14
1.16027e-14
1.15788e-14
1.18659e-14
1.16929e-14
1.1872e-14
1.16951e-14
1.16569e-14
1.15494e-14
1.16704e-14
1.16023e-14
1.1774e-14
1.1483e-14
1.18018e-14
1.16439e-14
1.17146e-14
1.15238e-14
1.16799e-14
1.16075e-14
1.16586e-14
1.1601e-14
1.1434e-14
1.1522e-14
1.13282e-14
1.16782e-14
1.2052e-14
1.13963e-14
1.15147e-14
1.16916e-14
1.17623e-14
1.17519e-14
1.17371e-14
1.14466e-14
1.1689e-14
1.15884e-14
1.18824e-14
1.18746e-14
1.17072e-14
1.16213e-14
1.17536e-14
1.15689e-14
1.18365e-14
1.14466e-14
1.16274e-14
1.15294e-14
1.1692e-14
1.15654e-14
1.17883e-14
1.17471e-14
1.15511e-14
1.17896e-14
1.15524e-14
1.18126e-14
1.1673e-14
1.17376e-14
1.16027e-14
1.1686e-14
9.50889e-15
9.44817e-15
9.48373e-15
9.58912e-15
9.44861e-15
9.70361e-15
9.30245e-15
9.53881e-15
9.30592e-15
9.58608e-15
9.46292e-15
9.40741e-15
9.45511e-15
9.53014e-15
9.47419e-15
9.71228e-15
9.39179e-15
9.52407e-15
9.37661e-15
9.72226e-15
9.39049e-15
9.50108e-15
9.5258e-15
9.55139e-15
9.46552e-15
9.62728e-15
9.72182e-15
9.40697e-15
9.4009e-15
9.4807e-15
9.82461e-15
9.4859e-15
9.53838e-15
9.40784e-15
9.75608e-15
9.71402e-15
9.46508e-15
9.37054e-15
9.36404e-15
9.37531e-15
9.46595e-15
9.40697e-15
9.47029e-15
9.52233e-15
9.49935e-15
9.83198e-15
9.6546e-15
9.72529e-15
9.52623e-15
9.65504e-15
9.33281e-15
9.45251e-15
9.61167e-15
9.41218e-15
9.531e-15
9.38225e-15
9.6559e-15
9.45251e-15
9.54792e-15
9.53491e-15
7.75985e-15
7.85916e-15
7.91554e-15
7.96758e-15
7.71518e-15
7.81406e-15
7.85179e-15
7.88128e-15
8.00185e-15
7.87261e-15
7.82013e-15
7.95371e-15
7.93809e-15
7.80929e-15
7.80062e-15
7.66054e-15
7.73036e-15
7.60893e-15
8.16881e-15
7.6896e-15
7.906e-15
7.95371e-15
7.89429e-15
7.86133e-15
7.92595e-15
7.78631e-15
7.70564e-15
8.12024e-15
7.67008e-15
7.82317e-15
7.67268e-15
7.97409e-15
7.80452e-15
7.9923e-15
7.59852e-15
7.76506e-15
7.96455e-15
7.9073e-15
7.86437e-15
7.85873e-15
7.74077e-15
7.97062e-15
7.88388e-15
7.82317e-15
7.92335e-15
7.58421e-15
7.59028e-15
7.72039e-15
7.59722e-15
7.92118e-15
8.1571e-15
7.99924e-15
7.8171e-15
7.71778e-15
7.88562e-15
7.77199e-15
7.76766e-15
7.89906e-15
7.7373e-15
7.80712e-15
6.63705e-15
6.50521e-15
6.58544e-15
6.28447e-15
6.60756e-15
6.53861e-15
6.50478e-15
6.49264e-15
6.50912e-15
6.50174e-15
6.51562e-15
6.8244e-15
6.58241e-15
6.58978e-15
6.66871e-15
6.71989e-15
6.79881e-15
6.72335e-15
6.34041e-15
6.46184e-15
6.49437e-15
6.51259e-15
6.33217e-15
6.42715e-15
6.51475e-15
6.63662e-15
6.62621e-15
6.36036e-15
6.75978e-15
6.65136e-15
6.64616e-15
6.51432e-15
6.56723e-15
6.6106e-15
6.76108e-15
6.59759e-15
6.39636e-15
6.58631e-15
6.41891e-15
6.47095e-15
6.66307e-15
6.61624e-15
6.6184e-15
6.64182e-15
6.50391e-15
6.60713e-15
6.57287e-15
6.69039e-15
6.73767e-15
6.45577e-15
6.34605e-15
6.41978e-15
6.55379e-15
6.58024e-15
6.47225e-15
6.58458e-15
6.54034e-15
6.48656e-15
6.57981e-15
6.48526e-15
5.18986e-15
5.46568e-15
5.40236e-15
5.42275e-15
5.44877e-15
5.25621e-15
5.28484e-15
5.4028e-15
5.34382e-15
5.26228e-15
5.43662e-15
5.11917e-15
5.37981e-15
5.25968e-15
5.2792e-15
5.2046e-15
5.19073e-15
5.13955e-15
5.4015e-15
5.3243e-15
5.30999e-15
5.30131e-15
5.52466e-15
5.50514e-15
5.2033e-15
5.23366e-15
5.33991e-15
5.42968e-15
5.21198e-15
5.30175e-15
5.13522e-15
5.30218e-15
5.29828e-15
5.18205e-15
5.1595e-15
5.43749e-15
5.33471e-15
5.32343e-15
5.2007e-15
5.41407e-15
5.19333e-15
5.27703e-15
5.17511e-15
5.4904e-15
5.53724e-15
5.47088e-15
5.49907e-15
5.2883e-15
5.32257e-15
5.26228e-15
5.19463e-15
5.30782e-15
5.37114e-15
5.29524e-15
5.38805e-15
5.30652e-15
5.31866e-15
5.38979e-15
5.33861e-15
5.37591e-15
4.48383e-15
4.21451e-15
4.24877e-15
4.39709e-15
4.35242e-15
4.30949e-15
4.51462e-15
4.27002e-15
4.29908e-15
4.52373e-15
4.06663e-15
4.3637e-15
4.42008e-15
4.34852e-15
4.49554e-15
4.39839e-15
4.40316e-15
4.34722e-15
4.43699e-15
4.47645e-15
4.41314e-15
4.45781e-15
4.16724e-15
4.21321e-15
4.50594e-15
4.33551e-15
4.50074e-15
4.32336e-15
4.47385e-15
4.26742e-15
4.49293e-15
4.35806e-15
4.54411e-15
4.42398e-15
4.64776e-15
4.11997e-15
4.4127e-15
4.37064e-15
4.67335e-15
4.31512e-15
4.62998e-15
4.41487e-15
4.38365e-15
4.22969e-15
4.21408e-15
4.3637e-15
4.28433e-15
4.16377e-15
4.31773e-15
4.52026e-15
4.56406e-15
4.48122e-15
4.31079e-15
4.46041e-15
4.34028e-15
4.329e-15
4.29561e-15
4.51592e-15
4.37541e-15
4.35242e-15
3.68238e-15
3.58871e-15
3.62644e-15
3.59131e-15
3.36623e-15
3.54014e-15
3.31202e-15
3.44386e-15
3.76955e-15
3.51802e-15
3.70927e-15
3.48029e-15
3.61473e-15
3.45774e-15
3.33848e-15
3.55705e-15
3.3723e-15
3.69496e-15
3.40873e-15
3.4083e-15
3.53927e-15
3.42304e-15
3.53797e-15
3.56833e-15
3.42001e-15
3.59131e-15
3.51151e-15
3.44603e-15
3.35322e-15
3.56095e-15
3.62297e-15
3.55098e-15
3.53667e-15
3.63555e-15
3.28557e-15
3.75351e-15
3.47769e-15
3.31592e-15
3.20967e-15
3.48593e-15
3.08607e-15
3.27819e-15
3.67675e-15
3.69409e-15
3.6555e-15
3.42825e-15
3.55141e-15
3.7019e-15
3.58134e-15
3.40439e-15
3.36927e-15
3.39659e-15
3.53103e-15
3.44603e-15
3.70971e-15
3.56399e-15
3.59044e-15
3.55315e-15
3.42565e-15
3.54621e-15
2.75821e-15
2.81329e-15
2.68709e-15
2.67234e-15
2.96551e-15
2.82066e-15
3.0401e-15
2.88962e-15
2.49106e-15
2.60295e-15
2.9152e-15
2.76688e-15
2.72568e-15
2.86229e-15
2.7851e-15
2.70704e-15
2.90479e-15
2.60729e-15
2.77642e-15
2.73566e-15
2.77556e-15
2.77556e-15
2.75517e-15
2.72135e-15
2.74043e-15
2.67841e-15
2.56349e-15
2.84625e-15
2.83801e-15
2.76428e-15
2.70573e-15
2.81849e-15
2.78597e-15
2.52879e-15
2.86576e-15
2.6164e-15
2.6641e-15
3.10862e-15
2.85926e-15
2.84581e-15
3.16457e-15
2.89178e-15
2.65152e-15
2.61726e-15
2.67755e-15
2.84018e-15
2.81849e-15
2.68882e-15
2.64372e-15
2.91737e-15
2.89048e-15
2.65326e-15
2.86056e-15
2.82023e-15
2.63288e-15
2.6589e-15
2.69576e-15
2.46851e-15
2.98936e-15
2.60425e-15
2.00057e-15
2.10032e-15
2.26642e-15
2.18098e-15
1.96848e-15
2.04307e-15
2.122e-15
2.09338e-15
2.15496e-15
2.21828e-15
1.73733e-15
2.35402e-15
2.09815e-15
2.06129e-15
2.13414e-15
2.10118e-15
1.94376e-15
2.36963e-15
2.03873e-15
2.26208e-15
2.01011e-15
2.11896e-15
2.11029e-15
2.01401e-15
2.14455e-15
2.17448e-15
2.28376e-15
2.08557e-15
2.19703e-15
2.04437e-15
2.12764e-15
2.03049e-15
2.03743e-15
2.09945e-15
2.19963e-15
2.01748e-15
2.23953e-15
1.86309e-15
2.01098e-15
2.02182e-15
1.7512e-15
1.98843e-15
2.12157e-15
2.23085e-15
2.1233e-15
2.13978e-15
2.0782e-15
1.9147e-15
2.07646e-15
1.96544e-15
2.00361e-15
2.21394e-15
1.90516e-15
1.91557e-15
1.90993e-15
2.16754e-15
2.08297e-15
2.17187e-15
1.9984e-15
2.35402e-15
1.46584e-15
1.35916e-15
1.27936e-15
1.46064e-15
1.68658e-15
1.52092e-15
1.27936e-15
1.47018e-15
1.52049e-15
1.43071e-15
1.63151e-15
1.33357e-15
1.38518e-15
1.59855e-15
1.43158e-15
1.4511e-15
1.4936e-15
1.27372e-15
1.52049e-15
1.48232e-15
1.46584e-15
1.33834e-15
1.69049e-15
1.71044e-15
1.58944e-15
1.44416e-15
1.37043e-15
1.51441e-15
1.30018e-15
1.56776e-15
1.41857e-15
1.5348e-15
1.52873e-15
1.61199e-15
1.45066e-15
1.62934e-15
1.48492e-15
1.51485e-15
1.37303e-15
1.69526e-15
1.83143e-15
1.51528e-15
1.43245e-15
1.49316e-15
1.52005e-15
1.47148e-15
1.56732e-15
1.66577e-15
1.51788e-15
1.57253e-15
1.62847e-15
1.49923e-15
1.60419e-15
1.47235e-15
1.66056e-15
1.47885e-15
1.48189e-15
1.5335e-15
1.38171e-15
1.24033e-15
1.02349e-15
9.64073e-16
1.18135e-15
1.04691e-15
9.04225e-16
9.47593e-16
9.54965e-16
1.05645e-15
8.92949e-16
9.21138e-16
9.28511e-16
9.13332e-16
9.43256e-16
8.91214e-16
1.0443e-15
1.10719e-15
1.14318e-15
1.14882e-15
9.37184e-16
9.54098e-16
1.22385e-15
1.11022e-15
7.3986e-16
7.74554e-16
8.83842e-16
1.13408e-15
1.07032e-15
1.08247e-15
1.09591e-15
9.84456e-16
1.11109e-15
9.71011e-16
9.94864e-16
8.35269e-16
1.0764e-15
8.99888e-16
9.04658e-16
1.18785e-15
1.0855e-15
8.30933e-16
7.0343e-16
9.86624e-16
1.01785e-15
9.08561e-16
9.96599e-16
9.18102e-16
9.4369e-16
1.03259e-15
1.0031e-15
1.079e-15
9.36317e-16
9.47159e-16
8.28764e-16
9.21138e-16
9.55833e-16
1.13928e-15
1.1614e-15
9.41521e-16
9.14633e-16
1.10849e-15
5.09575e-16
4.52763e-16
4.04624e-16
7.48967e-16
6.43582e-16
4.38451e-16
6.67869e-16
5.60749e-16
6.10623e-16
5.56413e-16
6.30138e-16
7.11237e-16
8.23994e-16
6.84348e-16
3.92481e-16
4.43656e-16
4.85723e-16
4.56666e-16
5.5728e-16
6.88252e-16
2.87964e-16
5.83734e-16
6.55725e-16
5.9024e-16
5.99347e-16
3.97252e-16
5.39499e-16
4.66207e-16
5.03503e-16
5.52509e-16
4.79651e-16
6.32307e-16
4.13732e-16
6.08888e-16
4.47992e-16
5.07407e-16
5.47739e-16
2.44596e-16
5.29091e-16
7.32487e-16
6.34041e-16
6.17128e-16
4.64472e-16
6.04985e-16
4.97866e-16
5.92842e-16
7.38992e-16
5.87204e-16
5.56413e-16
4.25441e-16
4.46258e-16
4.80518e-16
6.93456e-16
7.63278e-16
6.35342e-16
3.46511e-16
4.77483e-16
6.20164e-16
5.62918e-16
4.51462e-16
9.36751e-17