/*--------------------------------*- C++ -*----------------------------------*\
| =========                 |                                                 |
| \\      /  F ield         | foam-extend: Open Source CFD                    |
|  \\    /   O peration     | Version:     4.0                                |
|   \\  /    A nd           | Web:         http://www.foam-extend.org         |
|    \\/     M anipulation  |                                                 |
\*---------------------------------------------------------------------------*/
FoamFile
{
    version     2.0;
    format      ascii;
    class       volScalarField;
    location    "20";
    object      cMinus;
}
// * * * * * * * * * * * * * * * * * * * * * * * * * * * * * * * * * * * * * //

dimensions      [0 -3 0 0 0 0 0];

internalField   nonuniform List<scalar> 
6960
(
1.66715e-09
1.66714e-09
1.66713e-09
1.66712e-09
1.66711e-09
1.66711e-09
1.6671e-09
1.66709e-09
1.66709e-09
1.66708e-09
1.66708e-09
1.66707e-09
1.66707e-09
1.66706e-09
1.66706e-09
1.66705e-09
1.66705e-09
1.66704e-09
1.66704e-09
1.66704e-09
1.66704e-09
1.66703e-09
1.66703e-09
1.66703e-09
1.66703e-09
1.66703e-09
1.66703e-09
1.66703e-09
1.66703e-09
1.66702e-09
1.66702e-09
1.66703e-09
1.66703e-09
1.66703e-09
1.66703e-09
1.66703e-09
1.66703e-09
1.66703e-09
1.66704e-09
1.66704e-09
1.66704e-09
1.66704e-09
1.66705e-09
1.66705e-09
1.66706e-09
1.66706e-09
1.66706e-09
1.66707e-09
1.66708e-09
1.66708e-09
1.66709e-09
1.66709e-09
1.6671e-09
1.66711e-09
1.66711e-09
1.66712e-09
1.66713e-09
1.66714e-09
1.66715e-09
1.66715e-09
1.70147e-09
1.70146e-09
1.70145e-09
1.70144e-09
1.70143e-09
1.70143e-09
1.70142e-09
1.70141e-09
1.70141e-09
1.7014e-09
1.70139e-09
1.70139e-09
1.70138e-09
1.70138e-09
1.70137e-09
1.70137e-09
1.70137e-09
1.70136e-09
1.70136e-09
1.70136e-09
1.70135e-09
1.70135e-09
1.70135e-09
1.70135e-09
1.70135e-09
1.70134e-09
1.70134e-09
1.70134e-09
1.70134e-09
1.70134e-09
1.70134e-09
1.70134e-09
1.70134e-09
1.70134e-09
1.70135e-09
1.70135e-09
1.70135e-09
1.70135e-09
1.70135e-09
1.70136e-09
1.70136e-09
1.70136e-09
1.70137e-09
1.70137e-09
1.70137e-09
1.70138e-09
1.70138e-09
1.70139e-09
1.70139e-09
1.7014e-09
1.70141e-09
1.70141e-09
1.70142e-09
1.70143e-09
1.70143e-09
1.70144e-09
1.70145e-09
1.70146e-09
1.70147e-09
1.70147e-09
1.73756e-09
1.73755e-09
1.73754e-09
1.73753e-09
1.73752e-09
1.73751e-09
1.73751e-09
1.7375e-09
1.73749e-09
1.73749e-09
1.73748e-09
1.73748e-09
1.73747e-09
1.73747e-09
1.73746e-09
1.73746e-09
1.73745e-09
1.73745e-09
1.73745e-09
1.73744e-09
1.73744e-09
1.73744e-09
1.73744e-09
1.73743e-09
1.73743e-09
1.73743e-09
1.73743e-09
1.73743e-09
1.73743e-09
1.73743e-09
1.73743e-09
1.73743e-09
1.73743e-09
1.73743e-09
1.73743e-09
1.73743e-09
1.73744e-09
1.73744e-09
1.73744e-09
1.73744e-09
1.73745e-09
1.73745e-09
1.73745e-09
1.73746e-09
1.73746e-09
1.73747e-09
1.73747e-09
1.73748e-09
1.73748e-09
1.73749e-09
1.73749e-09
1.7375e-09
1.73751e-09
1.73751e-09
1.73752e-09
1.73753e-09
1.73754e-09
1.73755e-09
1.73755e-09
1.73756e-09
1.77553e-09
1.77552e-09
1.77551e-09
1.7755e-09
1.77549e-09
1.77549e-09
1.77548e-09
1.77547e-09
1.77547e-09
1.77546e-09
1.77545e-09
1.77545e-09
1.77544e-09
1.77544e-09
1.77543e-09
1.77543e-09
1.77542e-09
1.77542e-09
1.77542e-09
1.77541e-09
1.77541e-09
1.77541e-09
1.77541e-09
1.7754e-09
1.7754e-09
1.7754e-09
1.7754e-09
1.7754e-09
1.7754e-09
1.7754e-09
1.7754e-09
1.7754e-09
1.7754e-09
1.7754e-09
1.7754e-09
1.7754e-09
1.77541e-09
1.77541e-09
1.77541e-09
1.77541e-09
1.77542e-09
1.77542e-09
1.77542e-09
1.77543e-09
1.77543e-09
1.77544e-09
1.77544e-09
1.77545e-09
1.77545e-09
1.77546e-09
1.77547e-09
1.77547e-09
1.77548e-09
1.77549e-09
1.77549e-09
1.7755e-09
1.77551e-09
1.77552e-09
1.77553e-09
1.77554e-09
1.81551e-09
1.8155e-09
1.81549e-09
1.81548e-09
1.81547e-09
1.81547e-09
1.81546e-09
1.81545e-09
1.81544e-09
1.81544e-09
1.81543e-09
1.81543e-09
1.81542e-09
1.81542e-09
1.81541e-09
1.81541e-09
1.8154e-09
1.8154e-09
1.81539e-09
1.81539e-09
1.81539e-09
1.81539e-09
1.81538e-09
1.81538e-09
1.81538e-09
1.81538e-09
1.81538e-09
1.81538e-09
1.81538e-09
1.81538e-09
1.81538e-09
1.81538e-09
1.81538e-09
1.81538e-09
1.81538e-09
1.81538e-09
1.81538e-09
1.81539e-09
1.81539e-09
1.81539e-09
1.81539e-09
1.8154e-09
1.8154e-09
1.81541e-09
1.81541e-09
1.81541e-09
1.81542e-09
1.81543e-09
1.81543e-09
1.81544e-09
1.81544e-09
1.81545e-09
1.81546e-09
1.81547e-09
1.81547e-09
1.81548e-09
1.81549e-09
1.8155e-09
1.81551e-09
1.81552e-09
1.85763e-09
1.85762e-09
1.85761e-09
1.8576e-09
1.85759e-09
1.85759e-09
1.85758e-09
1.85757e-09
1.85756e-09
1.85756e-09
1.85755e-09
1.85755e-09
1.85754e-09
1.85754e-09
1.85753e-09
1.85753e-09
1.85752e-09
1.85752e-09
1.85751e-09
1.85751e-09
1.85751e-09
1.85751e-09
1.8575e-09
1.8575e-09
1.8575e-09
1.8575e-09
1.8575e-09
1.8575e-09
1.8575e-09
1.8575e-09
1.8575e-09
1.8575e-09
1.8575e-09
1.8575e-09
1.8575e-09
1.8575e-09
1.8575e-09
1.8575e-09
1.85751e-09
1.85751e-09
1.85751e-09
1.85752e-09
1.85752e-09
1.85752e-09
1.85753e-09
1.85753e-09
1.85754e-09
1.85755e-09
1.85755e-09
1.85756e-09
1.85756e-09
1.85757e-09
1.85758e-09
1.85759e-09
1.85759e-09
1.8576e-09
1.85761e-09
1.85762e-09
1.85763e-09
1.85764e-09
1.90204e-09
1.90203e-09
1.90202e-09
1.90201e-09
1.902e-09
1.90199e-09
1.90199e-09
1.90198e-09
1.90197e-09
1.90196e-09
1.90196e-09
1.90195e-09
1.90195e-09
1.90194e-09
1.90194e-09
1.90193e-09
1.90193e-09
1.90192e-09
1.90192e-09
1.90192e-09
1.90191e-09
1.90191e-09
1.90191e-09
1.90191e-09
1.9019e-09
1.9019e-09
1.9019e-09
1.9019e-09
1.9019e-09
1.9019e-09
1.9019e-09
1.9019e-09
1.9019e-09
1.9019e-09
1.9019e-09
1.90191e-09
1.90191e-09
1.90191e-09
1.90191e-09
1.90191e-09
1.90192e-09
1.90192e-09
1.90193e-09
1.90193e-09
1.90193e-09
1.90194e-09
1.90195e-09
1.90195e-09
1.90196e-09
1.90196e-09
1.90197e-09
1.90198e-09
1.90199e-09
1.90199e-09
1.902e-09
1.90201e-09
1.90202e-09
1.90203e-09
1.90204e-09
1.90205e-09
1.94889e-09
1.94888e-09
1.94887e-09
1.94886e-09
1.94885e-09
1.94884e-09
1.94884e-09
1.94883e-09
1.94882e-09
1.94881e-09
1.94881e-09
1.9488e-09
1.9488e-09
1.94879e-09
1.94878e-09
1.94878e-09
1.94878e-09
1.94877e-09
1.94877e-09
1.94876e-09
1.94876e-09
1.94876e-09
1.94876e-09
1.94875e-09
1.94875e-09
1.94875e-09
1.94875e-09
1.94875e-09
1.94875e-09
1.94875e-09
1.94875e-09
1.94875e-09
1.94875e-09
1.94875e-09
1.94875e-09
1.94875e-09
1.94876e-09
1.94876e-09
1.94876e-09
1.94876e-09
1.94877e-09
1.94877e-09
1.94877e-09
1.94878e-09
1.94878e-09
1.94879e-09
1.94879e-09
1.9488e-09
1.94881e-09
1.94881e-09
1.94882e-09
1.94883e-09
1.94884e-09
1.94884e-09
1.94885e-09
1.94886e-09
1.94887e-09
1.94888e-09
1.94889e-09
1.9489e-09
1.99836e-09
1.99834e-09
1.99833e-09
1.99832e-09
1.99832e-09
1.99831e-09
1.9983e-09
1.99829e-09
1.99828e-09
1.99828e-09
1.99827e-09
1.99826e-09
1.99826e-09
1.99825e-09
1.99825e-09
1.99824e-09
1.99824e-09
1.99823e-09
1.99823e-09
1.99823e-09
1.99822e-09
1.99822e-09
1.99822e-09
1.99821e-09
1.99821e-09
1.99821e-09
1.99821e-09
1.99821e-09
1.99821e-09
1.99821e-09
1.99821e-09
1.99821e-09
1.99821e-09
1.99821e-09
1.99821e-09
1.99821e-09
1.99822e-09
1.99822e-09
1.99822e-09
1.99822e-09
1.99823e-09
1.99823e-09
1.99824e-09
1.99824e-09
1.99825e-09
1.99825e-09
1.99826e-09
1.99826e-09
1.99827e-09
1.99828e-09
1.99828e-09
1.99829e-09
1.9983e-09
1.99831e-09
1.99832e-09
1.99832e-09
1.99833e-09
1.99834e-09
1.99835e-09
1.99836e-09
2.05062e-09
2.05061e-09
2.0506e-09
2.05059e-09
2.05058e-09
2.05057e-09
2.05056e-09
2.05055e-09
2.05054e-09
2.05054e-09
2.05053e-09
2.05052e-09
2.05052e-09
2.05051e-09
2.05051e-09
2.0505e-09
2.0505e-09
2.05049e-09
2.05049e-09
2.05048e-09
2.05048e-09
2.05048e-09
2.05048e-09
2.05047e-09
2.05047e-09
2.05047e-09
2.05047e-09
2.05047e-09
2.05047e-09
2.05047e-09
2.05047e-09
2.05047e-09
2.05047e-09
2.05047e-09
2.05047e-09
2.05047e-09
2.05047e-09
2.05048e-09
2.05048e-09
2.05048e-09
2.05049e-09
2.05049e-09
2.05049e-09
2.0505e-09
2.0505e-09
2.05051e-09
2.05052e-09
2.05052e-09
2.05053e-09
2.05054e-09
2.05054e-09
2.05055e-09
2.05056e-09
2.05057e-09
2.05058e-09
2.05059e-09
2.05059e-09
2.0506e-09
2.05061e-09
2.05062e-09
2.10588e-09
2.10586e-09
2.10585e-09
2.10584e-09
2.10583e-09
2.10583e-09
2.10582e-09
2.10581e-09
2.1058e-09
2.10579e-09
2.10579e-09
2.10578e-09
2.10577e-09
2.10577e-09
2.10576e-09
2.10576e-09
2.10575e-09
2.10575e-09
2.10574e-09
2.10574e-09
2.10574e-09
2.10573e-09
2.10573e-09
2.10573e-09
2.10573e-09
2.10573e-09
2.10572e-09
2.10572e-09
2.10572e-09
2.10572e-09
2.10572e-09
2.10572e-09
2.10572e-09
2.10573e-09
2.10573e-09
2.10573e-09
2.10573e-09
2.10573e-09
2.10574e-09
2.10574e-09
2.10574e-09
2.10575e-09
2.10575e-09
2.10576e-09
2.10576e-09
2.10577e-09
2.10577e-09
2.10578e-09
2.10579e-09
2.10579e-09
2.1058e-09
2.10581e-09
2.10582e-09
2.10583e-09
2.10583e-09
2.10584e-09
2.10585e-09
2.10586e-09
2.10587e-09
2.10588e-09
2.16435e-09
2.16434e-09
2.16433e-09
2.16432e-09
2.16431e-09
2.1643e-09
2.16429e-09
2.16428e-09
2.16427e-09
2.16427e-09
2.16426e-09
2.16425e-09
2.16425e-09
2.16424e-09
2.16424e-09
2.16423e-09
2.16422e-09
2.16422e-09
2.16422e-09
2.16421e-09
2.16421e-09
2.16421e-09
2.1642e-09
2.1642e-09
2.1642e-09
2.1642e-09
2.1642e-09
2.1642e-09
2.16419e-09
2.16419e-09
2.16419e-09
2.1642e-09
2.1642e-09
2.1642e-09
2.1642e-09
2.1642e-09
2.1642e-09
2.1642e-09
2.16421e-09
2.16421e-09
2.16421e-09
2.16422e-09
2.16422e-09
2.16423e-09
2.16423e-09
2.16424e-09
2.16425e-09
2.16425e-09
2.16426e-09
2.16427e-09
2.16427e-09
2.16428e-09
2.16429e-09
2.1643e-09
2.16431e-09
2.16432e-09
2.16433e-09
2.16434e-09
2.16435e-09
2.16436e-09
2.22628e-09
2.22627e-09
2.22626e-09
2.22625e-09
2.22624e-09
2.22623e-09
2.22622e-09
2.22621e-09
2.2262e-09
2.22619e-09
2.22619e-09
2.22618e-09
2.22617e-09
2.22617e-09
2.22616e-09
2.22616e-09
2.22615e-09
2.22615e-09
2.22614e-09
2.22614e-09
2.22613e-09
2.22613e-09
2.22613e-09
2.22613e-09
2.22612e-09
2.22612e-09
2.22612e-09
2.22612e-09
2.22612e-09
2.22612e-09
2.22612e-09
2.22612e-09
2.22612e-09
2.22612e-09
2.22612e-09
2.22613e-09
2.22613e-09
2.22613e-09
2.22613e-09
2.22614e-09
2.22614e-09
2.22614e-09
2.22615e-09
2.22615e-09
2.22616e-09
2.22617e-09
2.22617e-09
2.22618e-09
2.22619e-09
2.22619e-09
2.2262e-09
2.22621e-09
2.22622e-09
2.22623e-09
2.22624e-09
2.22625e-09
2.22626e-09
2.22627e-09
2.22628e-09
2.22629e-09
2.29192e-09
2.29191e-09
2.2919e-09
2.29189e-09
2.29188e-09
2.29187e-09
2.29186e-09
2.29185e-09
2.29184e-09
2.29183e-09
2.29182e-09
2.29182e-09
2.29181e-09
2.2918e-09
2.2918e-09
2.29179e-09
2.29179e-09
2.29178e-09
2.29178e-09
2.29177e-09
2.29177e-09
2.29177e-09
2.29177e-09
2.29176e-09
2.29176e-09
2.29176e-09
2.29176e-09
2.29176e-09
2.29176e-09
2.29176e-09
2.29176e-09
2.29176e-09
2.29176e-09
2.29176e-09
2.29176e-09
2.29176e-09
2.29176e-09
2.29177e-09
2.29177e-09
2.29177e-09
2.29178e-09
2.29178e-09
2.29179e-09
2.29179e-09
2.2918e-09
2.2918e-09
2.29181e-09
2.29182e-09
2.29182e-09
2.29183e-09
2.29184e-09
2.29185e-09
2.29186e-09
2.29187e-09
2.29188e-09
2.29189e-09
2.2919e-09
2.29191e-09
2.29192e-09
2.29193e-09
2.36156e-09
2.36154e-09
2.36153e-09
2.36152e-09
2.36151e-09
2.3615e-09
2.36149e-09
2.36148e-09
2.36147e-09
2.36146e-09
2.36146e-09
2.36145e-09
2.36144e-09
2.36144e-09
2.36143e-09
2.36142e-09
2.36142e-09
2.36141e-09
2.36141e-09
2.36141e-09
2.3614e-09
2.3614e-09
2.3614e-09
2.36139e-09
2.36139e-09
2.36139e-09
2.36139e-09
2.36139e-09
2.36139e-09
2.36139e-09
2.36139e-09
2.36139e-09
2.36139e-09
2.36139e-09
2.36139e-09
2.36139e-09
2.36139e-09
2.3614e-09
2.3614e-09
2.3614e-09
2.36141e-09
2.36141e-09
2.36142e-09
2.36142e-09
2.36143e-09
2.36143e-09
2.36144e-09
2.36145e-09
2.36146e-09
2.36146e-09
2.36147e-09
2.36148e-09
2.36149e-09
2.3615e-09
2.36151e-09
2.36152e-09
2.36153e-09
2.36154e-09
2.36155e-09
2.36157e-09
2.43549e-09
2.43548e-09
2.43547e-09
2.43546e-09
2.43545e-09
2.43544e-09
2.43543e-09
2.43542e-09
2.43541e-09
2.4354e-09
2.43539e-09
2.43538e-09
2.43538e-09
2.43537e-09
2.43536e-09
2.43536e-09
2.43535e-09
2.43535e-09
2.43534e-09
2.43534e-09
2.43534e-09
2.43533e-09
2.43533e-09
2.43533e-09
2.43532e-09
2.43532e-09
2.43532e-09
2.43532e-09
2.43532e-09
2.43532e-09
2.43532e-09
2.43532e-09
2.43532e-09
2.43532e-09
2.43532e-09
2.43533e-09
2.43533e-09
2.43533e-09
2.43533e-09
2.43534e-09
2.43534e-09
2.43535e-09
2.43535e-09
2.43536e-09
2.43536e-09
2.43537e-09
2.43538e-09
2.43538e-09
2.43539e-09
2.4354e-09
2.43541e-09
2.43542e-09
2.43543e-09
2.43544e-09
2.43545e-09
2.43546e-09
2.43547e-09
2.43548e-09
2.43549e-09
2.4355e-09
2.51407e-09
2.51406e-09
2.51405e-09
2.51403e-09
2.51402e-09
2.51401e-09
2.514e-09
2.51399e-09
2.51398e-09
2.51398e-09
2.51397e-09
2.51396e-09
2.51395e-09
2.51395e-09
2.51394e-09
2.51393e-09
2.51393e-09
2.51392e-09
2.51392e-09
2.51391e-09
2.51391e-09
2.51391e-09
2.5139e-09
2.5139e-09
2.5139e-09
2.5139e-09
2.51389e-09
2.51389e-09
2.51389e-09
2.51389e-09
2.51389e-09
2.51389e-09
2.51389e-09
2.5139e-09
2.5139e-09
2.5139e-09
2.5139e-09
2.5139e-09
2.51391e-09
2.51391e-09
2.51392e-09
2.51392e-09
2.51393e-09
2.51393e-09
2.51394e-09
2.51394e-09
2.51395e-09
2.51396e-09
2.51397e-09
2.51397e-09
2.51398e-09
2.51399e-09
2.514e-09
2.51401e-09
2.51402e-09
2.51403e-09
2.51405e-09
2.51406e-09
2.51407e-09
2.51408e-09
2.59766e-09
2.59765e-09
2.59763e-09
2.59762e-09
2.59761e-09
2.5976e-09
2.59759e-09
2.59758e-09
2.59757e-09
2.59756e-09
2.59755e-09
2.59754e-09
2.59754e-09
2.59753e-09
2.59752e-09
2.59752e-09
2.59751e-09
2.59751e-09
2.5975e-09
2.5975e-09
2.59749e-09
2.59749e-09
2.59749e-09
2.59748e-09
2.59748e-09
2.59748e-09
2.59748e-09
2.59748e-09
2.59748e-09
2.59748e-09
2.59748e-09
2.59748e-09
2.59748e-09
2.59748e-09
2.59748e-09
2.59748e-09
2.59748e-09
2.59749e-09
2.59749e-09
2.59749e-09
2.5975e-09
2.5975e-09
2.59751e-09
2.59751e-09
2.59752e-09
2.59753e-09
2.59754e-09
2.59754e-09
2.59755e-09
2.59756e-09
2.59757e-09
2.59758e-09
2.59759e-09
2.5976e-09
2.59761e-09
2.59762e-09
2.59763e-09
2.59764e-09
2.59766e-09
2.59767e-09
2.68666e-09
2.68665e-09
2.68664e-09
2.68662e-09
2.68661e-09
2.6866e-09
2.68659e-09
2.68658e-09
2.68657e-09
2.68656e-09
2.68655e-09
2.68654e-09
2.68654e-09
2.68653e-09
2.68652e-09
2.68652e-09
2.68651e-09
2.6865e-09
2.6865e-09
2.68649e-09
2.68649e-09
2.68649e-09
2.68648e-09
2.68648e-09
2.68648e-09
2.68648e-09
2.68648e-09
2.68647e-09
2.68647e-09
2.68647e-09
2.68647e-09
2.68647e-09
2.68647e-09
2.68648e-09
2.68648e-09
2.68648e-09
2.68648e-09
2.68649e-09
2.68649e-09
2.68649e-09
2.6865e-09
2.6865e-09
2.68651e-09
2.68651e-09
2.68652e-09
2.68653e-09
2.68653e-09
2.68654e-09
2.68655e-09
2.68656e-09
2.68657e-09
2.68658e-09
2.68659e-09
2.6866e-09
2.68661e-09
2.68662e-09
2.68663e-09
2.68665e-09
2.68666e-09
2.68667e-09
2.78153e-09
2.78151e-09
2.7815e-09
2.78149e-09
2.78147e-09
2.78146e-09
2.78145e-09
2.78144e-09
2.78143e-09
2.78142e-09
2.78141e-09
2.7814e-09
2.7814e-09
2.78139e-09
2.78138e-09
2.78138e-09
2.78137e-09
2.78136e-09
2.78136e-09
2.78135e-09
2.78135e-09
2.78135e-09
2.78134e-09
2.78134e-09
2.78134e-09
2.78134e-09
2.78133e-09
2.78133e-09
2.78133e-09
2.78133e-09
2.78133e-09
2.78133e-09
2.78133e-09
2.78133e-09
2.78134e-09
2.78134e-09
2.78134e-09
2.78134e-09
2.78135e-09
2.78135e-09
2.78136e-09
2.78136e-09
2.78137e-09
2.78137e-09
2.78138e-09
2.78139e-09
2.7814e-09
2.7814e-09
2.78141e-09
2.78142e-09
2.78143e-09
2.78144e-09
2.78145e-09
2.78146e-09
2.78147e-09
2.78149e-09
2.7815e-09
2.78151e-09
2.78152e-09
2.78154e-09
2.88274e-09
2.88273e-09
2.88271e-09
2.8827e-09
2.88269e-09
2.88268e-09
2.88266e-09
2.88265e-09
2.88264e-09
2.88263e-09
2.88262e-09
2.88262e-09
2.88261e-09
2.8826e-09
2.88259e-09
2.88259e-09
2.88258e-09
2.88257e-09
2.88257e-09
2.88256e-09
2.88256e-09
2.88256e-09
2.88255e-09
2.88255e-09
2.88255e-09
2.88254e-09
2.88254e-09
2.88254e-09
2.88254e-09
2.88254e-09
2.88254e-09
2.88254e-09
2.88254e-09
2.88254e-09
2.88255e-09
2.88255e-09
2.88255e-09
2.88255e-09
2.88256e-09
2.88256e-09
2.88257e-09
2.88257e-09
2.88258e-09
2.88258e-09
2.88259e-09
2.8826e-09
2.88261e-09
2.88261e-09
2.88262e-09
2.88263e-09
2.88264e-09
2.88265e-09
2.88266e-09
2.88268e-09
2.88269e-09
2.8827e-09
2.88271e-09
2.88272e-09
2.88274e-09
2.88275e-09
2.99085e-09
2.99083e-09
2.99082e-09
2.9908e-09
2.99079e-09
2.99078e-09
2.99077e-09
2.99076e-09
2.99075e-09
2.99074e-09
2.99073e-09
2.99072e-09
2.99071e-09
2.9907e-09
2.99069e-09
2.99069e-09
2.99068e-09
2.99067e-09
2.99067e-09
2.99066e-09
2.99066e-09
2.99065e-09
2.99065e-09
2.99065e-09
2.99065e-09
2.99064e-09
2.99064e-09
2.99064e-09
2.99064e-09
2.99064e-09
2.99064e-09
2.99064e-09
2.99064e-09
2.99064e-09
2.99064e-09
2.99065e-09
2.99065e-09
2.99065e-09
2.99066e-09
2.99066e-09
2.99067e-09
2.99067e-09
2.99068e-09
2.99068e-09
2.99069e-09
2.9907e-09
2.99071e-09
2.99072e-09
2.99072e-09
2.99073e-09
2.99074e-09
2.99076e-09
2.99077e-09
2.99078e-09
2.99079e-09
2.9908e-09
2.99082e-09
2.99083e-09
2.99084e-09
2.99086e-09
3.10644e-09
3.10642e-09
3.10641e-09
3.10639e-09
3.10638e-09
3.10637e-09
3.10635e-09
3.10634e-09
3.10633e-09
3.10632e-09
3.10631e-09
3.1063e-09
3.10629e-09
3.10629e-09
3.10628e-09
3.10627e-09
3.10626e-09
3.10626e-09
3.10625e-09
3.10625e-09
3.10624e-09
3.10624e-09
3.10623e-09
3.10623e-09
3.10623e-09
3.10623e-09
3.10622e-09
3.10622e-09
3.10622e-09
3.10622e-09
3.10622e-09
3.10622e-09
3.10622e-09
3.10623e-09
3.10623e-09
3.10623e-09
3.10623e-09
3.10624e-09
3.10624e-09
3.10624e-09
3.10625e-09
3.10626e-09
3.10626e-09
3.10627e-09
3.10628e-09
3.10628e-09
3.10629e-09
3.1063e-09
3.10631e-09
3.10632e-09
3.10633e-09
3.10634e-09
3.10635e-09
3.10637e-09
3.10638e-09
3.10639e-09
3.1064e-09
3.10642e-09
3.10643e-09
3.10645e-09
3.23017e-09
3.23015e-09
3.23014e-09
3.23012e-09
3.23011e-09
3.23009e-09
3.23008e-09
3.23007e-09
3.23006e-09
3.23005e-09
3.23004e-09
3.23003e-09
3.23002e-09
3.23001e-09
3.23e-09
3.23e-09
3.22999e-09
3.22998e-09
3.22998e-09
3.22997e-09
3.22997e-09
3.22996e-09
3.22996e-09
3.22996e-09
3.22995e-09
3.22995e-09
3.22995e-09
3.22995e-09
3.22995e-09
3.22995e-09
3.22995e-09
3.22995e-09
3.22995e-09
3.22995e-09
3.22995e-09
3.22995e-09
3.22996e-09
3.22996e-09
3.22997e-09
3.22997e-09
3.22998e-09
3.22998e-09
3.22999e-09
3.22999e-09
3.23e-09
3.23001e-09
3.23002e-09
3.23003e-09
3.23004e-09
3.23005e-09
3.23006e-09
3.23007e-09
3.23008e-09
3.23009e-09
3.23011e-09
3.23012e-09
3.23013e-09
3.23015e-09
3.23016e-09
3.23018e-09
3.36277e-09
3.36275e-09
3.36273e-09
3.36272e-09
3.36271e-09
3.36269e-09
3.36268e-09
3.36267e-09
3.36266e-09
3.36264e-09
3.36263e-09
3.36262e-09
3.36262e-09
3.36261e-09
3.3626e-09
3.36259e-09
3.36258e-09
3.36258e-09
3.36257e-09
3.36257e-09
3.36256e-09
3.36256e-09
3.36255e-09
3.36255e-09
3.36255e-09
3.36254e-09
3.36254e-09
3.36254e-09
3.36254e-09
3.36254e-09
3.36254e-09
3.36254e-09
3.36254e-09
3.36254e-09
3.36254e-09
3.36255e-09
3.36255e-09
3.36255e-09
3.36256e-09
3.36256e-09
3.36257e-09
3.36257e-09
3.36258e-09
3.36259e-09
3.3626e-09
3.3626e-09
3.36261e-09
3.36262e-09
3.36263e-09
3.36264e-09
3.36266e-09
3.36267e-09
3.36268e-09
3.36269e-09
3.36271e-09
3.36272e-09
3.36273e-09
3.36275e-09
3.36276e-09
3.36278e-09
3.50504e-09
3.50502e-09
3.50501e-09
3.50499e-09
3.50498e-09
3.50496e-09
3.50495e-09
3.50494e-09
3.50493e-09
3.50491e-09
3.5049e-09
3.50489e-09
3.50488e-09
3.50487e-09
3.50487e-09
3.50486e-09
3.50485e-09
3.50484e-09
3.50484e-09
3.50483e-09
3.50483e-09
3.50482e-09
3.50482e-09
3.50481e-09
3.50481e-09
3.50481e-09
3.50481e-09
3.50481e-09
3.50481e-09
3.5048e-09
3.50481e-09
3.50481e-09
3.50481e-09
3.50481e-09
3.50481e-09
3.50481e-09
3.50482e-09
3.50482e-09
3.50482e-09
3.50483e-09
3.50484e-09
3.50484e-09
3.50485e-09
3.50486e-09
3.50486e-09
3.50487e-09
3.50488e-09
3.50489e-09
3.5049e-09
3.50491e-09
3.50492e-09
3.50494e-09
3.50495e-09
3.50496e-09
3.50498e-09
3.50499e-09
3.50501e-09
3.50502e-09
3.50504e-09
3.50505e-09
3.65788e-09
3.65786e-09
3.65785e-09
3.65783e-09
3.65781e-09
3.6578e-09
3.65779e-09
3.65777e-09
3.65776e-09
3.65775e-09
3.65774e-09
3.65773e-09
3.65772e-09
3.65771e-09
3.6577e-09
3.65769e-09
3.65768e-09
3.65768e-09
3.65767e-09
3.65766e-09
3.65766e-09
3.65765e-09
3.65765e-09
3.65765e-09
3.65764e-09
3.65764e-09
3.65764e-09
3.65764e-09
3.65764e-09
3.65764e-09
3.65764e-09
3.65764e-09
3.65764e-09
3.65764e-09
3.65764e-09
3.65765e-09
3.65765e-09
3.65765e-09
3.65766e-09
3.65766e-09
3.65767e-09
3.65767e-09
3.65768e-09
3.65769e-09
3.6577e-09
3.65771e-09
3.65772e-09
3.65773e-09
3.65774e-09
3.65775e-09
3.65776e-09
3.65777e-09
3.65779e-09
3.6578e-09
3.65781e-09
3.65783e-09
3.65784e-09
3.65786e-09
3.65788e-09
3.65789e-09
3.82228e-09
3.82226e-09
3.82224e-09
3.82223e-09
3.82221e-09
3.8222e-09
3.82218e-09
3.82217e-09
3.82216e-09
3.82214e-09
3.82213e-09
3.82212e-09
3.82211e-09
3.8221e-09
3.82209e-09
3.82208e-09
3.82208e-09
3.82207e-09
3.82206e-09
3.82206e-09
3.82205e-09
3.82205e-09
3.82204e-09
3.82204e-09
3.82203e-09
3.82203e-09
3.82203e-09
3.82203e-09
3.82203e-09
3.82203e-09
3.82203e-09
3.82203e-09
3.82203e-09
3.82203e-09
3.82203e-09
3.82204e-09
3.82204e-09
3.82204e-09
3.82205e-09
3.82205e-09
3.82206e-09
3.82207e-09
3.82207e-09
3.82208e-09
3.82209e-09
3.8221e-09
3.82211e-09
3.82212e-09
3.82213e-09
3.82214e-09
3.82215e-09
3.82217e-09
3.82218e-09
3.8222e-09
3.82221e-09
3.82223e-09
3.82224e-09
3.82226e-09
3.82227e-09
3.82229e-09
3.99934e-09
3.99932e-09
3.9993e-09
3.99929e-09
3.99927e-09
3.99925e-09
3.99924e-09
3.99923e-09
3.99921e-09
3.9992e-09
3.99919e-09
3.99918e-09
3.99917e-09
3.99916e-09
3.99915e-09
3.99914e-09
3.99913e-09
3.99912e-09
3.99912e-09
3.99911e-09
3.9991e-09
3.9991e-09
3.99909e-09
3.99909e-09
3.99909e-09
3.99908e-09
3.99908e-09
3.99908e-09
3.99908e-09
3.99908e-09
3.99908e-09
3.99908e-09
3.99908e-09
3.99908e-09
3.99909e-09
3.99909e-09
3.99909e-09
3.9991e-09
3.9991e-09
3.99911e-09
3.99911e-09
3.99912e-09
3.99913e-09
3.99914e-09
3.99914e-09
3.99915e-09
3.99916e-09
3.99918e-09
3.99919e-09
3.9992e-09
3.99921e-09
3.99923e-09
3.99924e-09
3.99925e-09
3.99927e-09
3.99929e-09
3.9993e-09
3.99932e-09
3.99934e-09
3.99935e-09
4.1903e-09
4.19027e-09
4.19026e-09
4.19024e-09
4.19022e-09
4.19021e-09
4.19019e-09
4.19018e-09
4.19016e-09
4.19015e-09
4.19014e-09
4.19013e-09
4.19012e-09
4.19011e-09
4.1901e-09
4.19009e-09
4.19008e-09
4.19007e-09
4.19006e-09
4.19006e-09
4.19005e-09
4.19005e-09
4.19004e-09
4.19004e-09
4.19003e-09
4.19003e-09
4.19003e-09
4.19003e-09
4.19003e-09
4.19003e-09
4.19003e-09
4.19003e-09
4.19003e-09
4.19003e-09
4.19003e-09
4.19004e-09
4.19004e-09
4.19004e-09
4.19005e-09
4.19005e-09
4.19006e-09
4.19007e-09
4.19008e-09
4.19008e-09
4.19009e-09
4.1901e-09
4.19011e-09
4.19012e-09
4.19014e-09
4.19015e-09
4.19016e-09
4.19018e-09
4.19019e-09
4.19021e-09
4.19022e-09
4.19024e-09
4.19026e-09
4.19027e-09
4.19029e-09
4.19031e-09
4.39652e-09
4.3965e-09
4.39648e-09
4.39646e-09
4.39644e-09
4.39643e-09
4.39641e-09
4.3964e-09
4.39638e-09
4.39637e-09
4.39636e-09
4.39634e-09
4.39633e-09
4.39632e-09
4.39631e-09
4.3963e-09
4.39629e-09
4.39629e-09
4.39628e-09
4.39627e-09
4.39627e-09
4.39626e-09
4.39626e-09
4.39625e-09
4.39625e-09
4.39625e-09
4.39624e-09
4.39624e-09
4.39624e-09
4.39624e-09
4.39624e-09
4.39624e-09
4.39624e-09
4.39624e-09
4.39625e-09
4.39625e-09
4.39625e-09
4.39626e-09
4.39626e-09
4.39627e-09
4.39628e-09
4.39628e-09
4.39629e-09
4.3963e-09
4.39631e-09
4.39632e-09
4.39633e-09
4.39634e-09
4.39636e-09
4.39637e-09
4.39638e-09
4.3964e-09
4.39641e-09
4.39643e-09
4.39644e-09
4.39646e-09
4.39648e-09
4.3965e-09
4.39651e-09
4.39653e-09
4.61955e-09
4.61953e-09
4.61951e-09
4.61949e-09
4.61947e-09
4.61946e-09
4.61944e-09
4.61942e-09
4.61941e-09
4.6194e-09
4.61938e-09
4.61937e-09
4.61936e-09
4.61935e-09
4.61934e-09
4.61933e-09
4.61932e-09
4.61931e-09
4.6193e-09
4.61929e-09
4.61929e-09
4.61928e-09
4.61928e-09
4.61927e-09
4.61927e-09
4.61927e-09
4.61926e-09
4.61926e-09
4.61926e-09
4.61926e-09
4.61926e-09
4.61926e-09
4.61926e-09
4.61926e-09
4.61927e-09
4.61927e-09
4.61927e-09
4.61928e-09
4.61928e-09
4.61929e-09
4.6193e-09
4.61931e-09
4.61931e-09
4.61932e-09
4.61933e-09
4.61934e-09
4.61936e-09
4.61937e-09
4.61938e-09
4.61939e-09
4.61941e-09
4.61942e-09
4.61944e-09
4.61945e-09
4.61947e-09
4.61949e-09
4.61951e-09
4.61953e-09
4.61955e-09
4.61957e-09
4.86111e-09
4.86109e-09
4.86107e-09
4.86105e-09
4.86103e-09
4.86101e-09
4.861e-09
4.86098e-09
4.86096e-09
4.86095e-09
4.86094e-09
4.86092e-09
4.86091e-09
4.8609e-09
4.86089e-09
4.86088e-09
4.86087e-09
4.86086e-09
4.86085e-09
4.86084e-09
4.86084e-09
4.86083e-09
4.86083e-09
4.86082e-09
4.86082e-09
4.86082e-09
4.86081e-09
4.86081e-09
4.86081e-09
4.86081e-09
4.86081e-09
4.86081e-09
4.86081e-09
4.86081e-09
4.86082e-09
4.86082e-09
4.86083e-09
4.86083e-09
4.86084e-09
4.86084e-09
4.86085e-09
4.86086e-09
4.86087e-09
4.86088e-09
4.86089e-09
4.8609e-09
4.86091e-09
4.86092e-09
4.86093e-09
4.86095e-09
4.86096e-09
4.86098e-09
4.861e-09
4.86101e-09
4.86103e-09
4.86105e-09
4.86107e-09
4.86109e-09
4.86111e-09
4.86113e-09
5.12314e-09
5.12311e-09
5.12309e-09
5.12307e-09
5.12305e-09
5.12303e-09
5.12302e-09
5.123e-09
5.12298e-09
5.12297e-09
5.12295e-09
5.12294e-09
5.12293e-09
5.12292e-09
5.1229e-09
5.12289e-09
5.12288e-09
5.12288e-09
5.12287e-09
5.12286e-09
5.12285e-09
5.12285e-09
5.12284e-09
5.12284e-09
5.12283e-09
5.12283e-09
5.12283e-09
5.12283e-09
5.12282e-09
5.12282e-09
5.12282e-09
5.12282e-09
5.12283e-09
5.12283e-09
5.12283e-09
5.12283e-09
5.12284e-09
5.12284e-09
5.12285e-09
5.12286e-09
5.12286e-09
5.12287e-09
5.12288e-09
5.12289e-09
5.1229e-09
5.12291e-09
5.12293e-09
5.12294e-09
5.12295e-09
5.12297e-09
5.12298e-09
5.123e-09
5.12302e-09
5.12303e-09
5.12305e-09
5.12307e-09
5.12309e-09
5.12311e-09
5.12313e-09
5.12315e-09
5.4078e-09
5.40778e-09
5.40775e-09
5.40773e-09
5.40771e-09
5.40769e-09
5.40768e-09
5.40766e-09
5.40764e-09
5.40763e-09
5.40761e-09
5.4076e-09
5.40759e-09
5.40757e-09
5.40756e-09
5.40755e-09
5.40754e-09
5.40753e-09
5.40752e-09
5.40751e-09
5.40751e-09
5.4075e-09
5.4075e-09
5.40749e-09
5.40749e-09
5.40748e-09
5.40748e-09
5.40748e-09
5.40748e-09
5.40748e-09
5.40748e-09
5.40748e-09
5.40748e-09
5.40748e-09
5.40748e-09
5.40749e-09
5.40749e-09
5.4075e-09
5.4075e-09
5.40751e-09
5.40752e-09
5.40753e-09
5.40754e-09
5.40755e-09
5.40756e-09
5.40757e-09
5.40758e-09
5.4076e-09
5.40761e-09
5.40763e-09
5.40764e-09
5.40766e-09
5.40768e-09
5.40769e-09
5.40771e-09
5.40773e-09
5.40775e-09
5.40777e-09
5.4078e-09
5.40782e-09
5.71756e-09
5.71753e-09
5.71751e-09
5.71749e-09
5.71747e-09
5.71745e-09
5.71743e-09
5.71741e-09
5.71739e-09
5.71738e-09
5.71736e-09
5.71735e-09
5.71733e-09
5.71732e-09
5.71731e-09
5.7173e-09
5.71729e-09
5.71728e-09
5.71727e-09
5.71726e-09
5.71725e-09
5.71725e-09
5.71724e-09
5.71723e-09
5.71723e-09
5.71723e-09
5.71722e-09
5.71722e-09
5.71722e-09
5.71722e-09
5.71722e-09
5.71722e-09
5.71722e-09
5.71723e-09
5.71723e-09
5.71723e-09
5.71724e-09
5.71724e-09
5.71725e-09
5.71726e-09
5.71726e-09
5.71727e-09
5.71728e-09
5.71729e-09
5.7173e-09
5.71732e-09
5.71733e-09
5.71734e-09
5.71736e-09
5.71738e-09
5.71739e-09
5.71741e-09
5.71743e-09
5.71745e-09
5.71747e-09
5.71749e-09
5.71751e-09
5.71753e-09
5.71755e-09
5.71758e-09
6.05517e-09
6.05515e-09
6.05512e-09
6.0551e-09
6.05508e-09
6.05506e-09
6.05504e-09
6.05502e-09
6.055e-09
6.05499e-09
6.05497e-09
6.05495e-09
6.05494e-09
6.05493e-09
6.05491e-09
6.0549e-09
6.05489e-09
6.05488e-09
6.05487e-09
6.05486e-09
6.05486e-09
6.05485e-09
6.05484e-09
6.05484e-09
6.05483e-09
6.05483e-09
6.05483e-09
6.05482e-09
6.05482e-09
6.05482e-09
6.05482e-09
6.05482e-09
6.05483e-09
6.05483e-09
6.05483e-09
6.05484e-09
6.05484e-09
6.05485e-09
6.05485e-09
6.05486e-09
6.05487e-09
6.05488e-09
6.05489e-09
6.0549e-09
6.05491e-09
6.05492e-09
6.05494e-09
6.05495e-09
6.05497e-09
6.05498e-09
6.055e-09
6.05502e-09
6.05504e-09
6.05506e-09
6.05508e-09
6.0551e-09
6.05512e-09
6.05514e-09
6.05517e-09
6.05519e-09
6.42378e-09
6.42375e-09
6.42373e-09
6.4237e-09
6.42368e-09
6.42366e-09
6.42364e-09
6.42362e-09
6.4236e-09
6.42358e-09
6.42357e-09
6.42355e-09
6.42354e-09
6.42352e-09
6.42351e-09
6.4235e-09
6.42349e-09
6.42348e-09
6.42347e-09
6.42346e-09
6.42345e-09
6.42344e-09
6.42344e-09
6.42343e-09
6.42343e-09
6.42342e-09
6.42342e-09
6.42342e-09
6.42342e-09
6.42341e-09
6.42341e-09
6.42342e-09
6.42342e-09
6.42342e-09
6.42342e-09
6.42343e-09
6.42343e-09
6.42344e-09
6.42345e-09
6.42345e-09
6.42346e-09
6.42347e-09
6.42348e-09
6.42349e-09
6.42351e-09
6.42352e-09
6.42353e-09
6.42355e-09
6.42357e-09
6.42358e-09
6.4236e-09
6.42362e-09
6.42364e-09
6.42366e-09
6.42368e-09
6.4237e-09
6.42373e-09
6.42375e-09
6.42377e-09
6.4238e-09
6.82692e-09
6.8269e-09
6.82687e-09
6.82685e-09
6.82682e-09
6.8268e-09
6.82678e-09
6.82676e-09
6.82674e-09
6.82672e-09
6.82671e-09
6.82669e-09
6.82667e-09
6.82666e-09
6.82664e-09
6.82663e-09
6.82662e-09
6.82661e-09
6.8266e-09
6.82659e-09
6.82658e-09
6.82657e-09
6.82657e-09
6.82656e-09
6.82656e-09
6.82655e-09
6.82655e-09
6.82655e-09
6.82655e-09
6.82655e-09
6.82655e-09
6.82655e-09
6.82655e-09
6.82655e-09
6.82655e-09
6.82656e-09
6.82656e-09
6.82657e-09
6.82658e-09
6.82659e-09
6.82659e-09
6.8266e-09
6.82662e-09
6.82663e-09
6.82664e-09
6.82666e-09
6.82667e-09
6.82669e-09
6.8267e-09
6.82672e-09
6.82674e-09
6.82676e-09
6.82678e-09
6.8268e-09
6.82682e-09
6.82685e-09
6.82687e-09
6.82689e-09
6.82692e-09
6.82695e-09
7.26864e-09
7.26861e-09
7.26859e-09
7.26856e-09
7.26854e-09
7.26851e-09
7.26849e-09
7.26847e-09
7.26845e-09
7.26843e-09
7.26841e-09
7.2684e-09
7.26838e-09
7.26837e-09
7.26835e-09
7.26834e-09
7.26833e-09
7.26831e-09
7.2683e-09
7.26829e-09
7.26828e-09
7.26828e-09
7.26827e-09
7.26826e-09
7.26826e-09
7.26826e-09
7.26825e-09
7.26825e-09
7.26825e-09
7.26825e-09
7.26825e-09
7.26825e-09
7.26825e-09
7.26825e-09
7.26826e-09
7.26826e-09
7.26827e-09
7.26827e-09
7.26828e-09
7.26829e-09
7.2683e-09
7.26831e-09
7.26832e-09
7.26833e-09
7.26835e-09
7.26836e-09
7.26838e-09
7.26839e-09
7.26841e-09
7.26843e-09
7.26845e-09
7.26847e-09
7.26849e-09
7.26851e-09
7.26854e-09
7.26856e-09
7.26859e-09
7.26861e-09
7.26864e-09
7.26866e-09
7.75352e-09
7.75349e-09
7.75346e-09
7.75344e-09
7.75341e-09
7.75339e-09
7.75336e-09
7.75334e-09
7.75332e-09
7.7533e-09
7.75328e-09
7.75327e-09
7.75325e-09
7.75323e-09
7.75322e-09
7.7532e-09
7.75319e-09
7.75318e-09
7.75317e-09
7.75316e-09
7.75315e-09
7.75314e-09
7.75313e-09
7.75313e-09
7.75312e-09
7.75312e-09
7.75311e-09
7.75311e-09
7.75311e-09
7.75311e-09
7.75311e-09
7.75311e-09
7.75311e-09
7.75312e-09
7.75312e-09
7.75312e-09
7.75313e-09
7.75314e-09
7.75314e-09
7.75315e-09
7.75316e-09
7.75317e-09
7.75319e-09
7.7532e-09
7.75321e-09
7.75323e-09
7.75324e-09
7.75326e-09