/*--------------------------------*- C++ -*----------------------------------*\
| =========                 |                                                 |
| \\      /  F ield         | foam-extend: Open Source CFD                    |
|  \\    /   O peration     | Version:     4.0                                |
|   \\  /    A nd           | Web:         http://www.foam-extend.org         |
|    \\/     M anipulation  |                                                 |
\*---------------------------------------------------------------------------*/
FoamFile
{
    version     2.0;
    format      ascii;
    class       volScalarField;
    location    "8";
    object      cMinus;
}
// * * * * * * * * * * * * * * * * * * * * * * * * * * * * * * * * * * * * * //

dimensions      [0 -3 0 0 0 0 0];

internalField   nonuniform List<scalar> 
6960
(
0.000331015
0.000331015
0.000331014
0.000331014
0.000331013
0.000331013
0.000331012
0.000331011
0.00033101
0.000331009
0.000331008
0.000331007
0.000331006
0.000331005
0.000331004
0.000331003
0.000331002
0.000331001
0.000331
0.000330999
0.000330998
0.000330998
0.000330997
0.000330996
0.000330996
0.000330996
0.000330995
0.000330995
0.000330995
0.000330995
0.000330995
0.000330995
0.000330995
0.000330995
0.000330996
0.000330996
0.000330996
0.000330997
0.000330998
0.000330998
0.000330999
0.000331
0.000331001
0.000331002
0.000331003
0.000331004
0.000331005
0.000331006
0.000331007
0.000331008
0.000331009
0.00033101
0.000331011
0.000331012
0.000331013
0.000331013
0.000331014
0.000331014
0.000331015
0.000331015
0.000333725
0.000333724
0.000333724
0.000333723
0.000333723
0.000333722
0.000333721
0.00033372
0.000333719
0.000333718
0.000333717
0.000333716
0.000333715
0.000333714
0.000333713
0.000333712
0.000333711
0.00033371
0.000333709
0.000333708
0.000333707
0.000333707
0.000333706
0.000333706
0.000333705
0.000333705
0.000333704
0.000333704
0.000333704
0.000333704
0.000333704
0.000333704
0.000333704
0.000333704
0.000333705
0.000333705
0.000333706
0.000333706
0.000333707
0.000333707
0.000333708
0.000333709
0.00033371
0.000333711
0.000333712
0.000333713
0.000333714
0.000333715
0.000333716
0.000333717
0.000333718
0.000333719
0.00033372
0.000333721
0.000333722
0.000333723
0.000333723
0.000333724
0.000333724
0.000333725
0.000336539
0.000336539
0.000336538
0.000336538
0.000336537
0.000336536
0.000336535
0.000336534
0.000336533
0.000336532
0.000336531
0.00033653
0.000336529
0.000336528
0.000336527
0.000336526
0.000336525
0.000336524
0.000336523
0.000336522
0.000336522
0.000336521
0.00033652
0.00033652
0.000336519
0.000336519
0.000336519
0.000336518
0.000336518
0.000336518
0.000336518
0.000336518
0.000336518
0.000336519
0.000336519
0.000336519
0.00033652
0.00033652
0.000336521
0.000336522
0.000336522
0.000336523
0.000336524
0.000336525
0.000336526
0.000336527
0.000336528
0.000336529
0.00033653
0.000336531
0.000336532
0.000336533
0.000336534
0.000336535
0.000336536
0.000336537
0.000336538
0.000336538
0.000336539
0.000336539
0.000339463
0.000339463
0.000339462
0.000339462
0.000339461
0.00033946
0.000339459
0.000339458
0.000339457
0.000339456
0.000339455
0.000339454
0.000339453
0.000339452
0.000339451
0.00033945
0.000339449
0.000339448
0.000339447
0.000339446
0.000339445
0.000339445
0.000339444
0.000339444
0.000339443
0.000339443
0.000339442
0.000339442
0.000339442
0.000339442
0.000339442
0.000339442
0.000339442
0.000339442
0.000339443
0.000339443
0.000339444
0.000339444
0.000339445
0.000339445
0.000339446
0.000339447
0.000339448
0.000339449
0.00033945
0.000339451
0.000339452
0.000339453
0.000339454
0.000339455
0.000339456
0.000339457
0.000339458
0.000339459
0.00033946
0.000339461
0.000339462
0.000339462
0.000339463
0.000339463
0.000342501
0.000342501
0.000342501
0.0003425
0.000342499
0.000342499
0.000342498
0.000342497
0.000342496
0.000342495
0.000342494
0.000342493
0.000342492
0.000342491
0.000342489
0.000342488
0.000342487
0.000342486
0.000342486
0.000342485
0.000342484
0.000342483
0.000342483
0.000342482
0.000342482
0.000342481
0.000342481
0.000342481
0.00034248
0.00034248
0.00034248
0.00034248
0.000342481
0.000342481
0.000342481
0.000342482
0.000342482
0.000342483
0.000342483
0.000342484
0.000342485
0.000342486
0.000342486
0.000342487
0.000342488
0.000342489
0.000342491
0.000342492
0.000342493
0.000342494
0.000342495
0.000342496
0.000342497
0.000342498
0.000342499
0.000342499
0.0003425
0.000342501
0.000342501
0.000342501
0.00034566
0.00034566
0.000345659
0.000345659
0.000345658
0.000345657
0.000345656
0.000345656
0.000345655
0.000345653
0.000345652
0.000345651
0.00034565
0.000345649
0.000345648
0.000345647
0.000345646
0.000345645
0.000345644
0.000345643
0.000345642
0.000345642
0.000345641
0.000345641
0.00034564
0.00034564
0.000345639
0.000345639
0.000345639
0.000345639
0.000345639
0.000345639
0.000345639
0.000345639
0.00034564
0.00034564
0.000345641
0.000345641
0.000345642
0.000345642
0.000345643
0.000345644
0.000345645
0.000345646
0.000345647
0.000345648
0.000345649
0.00034565
0.000345651
0.000345652
0.000345653
0.000345655
0.000345656
0.000345656
0.000345657
0.000345658
0.000345659
0.000345659
0.00034566
0.00034566
0.000348944
0.000348944
0.000348944
0.000348943
0.000348942
0.000348942
0.000348941
0.00034894
0.000348939
0.000348938
0.000348937
0.000348935
0.000348934
0.000348933
0.000348932
0.000348931
0.00034893
0.000348929
0.000348928
0.000348927
0.000348927
0.000348926
0.000348925
0.000348925
0.000348924
0.000348924
0.000348923
0.000348923
0.000348923
0.000348923
0.000348923
0.000348923
0.000348923
0.000348923
0.000348924
0.000348924
0.000348925
0.000348925
0.000348926
0.000348927
0.000348927
0.000348928
0.000348929
0.00034893
0.000348931
0.000348932
0.000348933
0.000348934
0.000348935
0.000348937
0.000348938
0.000348939
0.00034894
0.000348941
0.000348942
0.000348942
0.000348943
0.000348944
0.000348944
0.000348944
0.00035236
0.00035236
0.000352359
0.000352359
0.000352358
0.000352357
0.000352357
0.000352356
0.000352355
0.000352353
0.000352352
0.000352351
0.00035235
0.000352349
0.000352348
0.000352347
0.000352346
0.000352345
0.000352344
0.000352343
0.000352342
0.000352342
0.000352341
0.00035234
0.00035234
0.000352339
0.000352339
0.000352339
0.000352339
0.000352339
0.000352339
0.000352339
0.000352339
0.000352339
0.000352339
0.00035234
0.00035234
0.000352341
0.000352342
0.000352342
0.000352343
0.000352344
0.000352345
0.000352346
0.000352347
0.000352348
0.000352349
0.00035235
0.000352351
0.000352352
0.000352353
0.000352355
0.000352356
0.000352357
0.000352357
0.000352358
0.000352359
0.000352359
0.00035236
0.00035236
0.000355914
0.000355913
0.000355913
0.000355912
0.000355912
0.000355911
0.00035591
0.000355909
0.000355908
0.000355907
0.000355906
0.000355905
0.000355904
0.000355903
0.000355901
0.0003559
0.000355899
0.000355898
0.000355897
0.000355897
0.000355896
0.000355895
0.000355894
0.000355894
0.000355893
0.000355893
0.000355893
0.000355892
0.000355892
0.000355892
0.000355892
0.000355892
0.000355892
0.000355893
0.000355893
0.000355893
0.000355894
0.000355894
0.000355895
0.000355896
0.000355897
0.000355897
0.000355898
0.000355899
0.0003559
0.000355901
0.000355903
0.000355904
0.000355905
0.000355906
0.000355907
0.000355908
0.000355909
0.00035591
0.000355911
0.000355912
0.000355912
0.000355913
0.000355913
0.000355914
0.000359612
0.000359612
0.000359611
0.000359611
0.00035961
0.000359609
0.000359608
0.000359607
0.000359606
0.000359605
0.000359604
0.000359603
0.000359602
0.000359601
0.0003596
0.000359598
0.000359597
0.000359596
0.000359595
0.000359595
0.000359594
0.000359593
0.000359592
0.000359592
0.000359591
0.000359591
0.000359591
0.00035959
0.00035959
0.00035959
0.00035959
0.00035959
0.00035959
0.000359591
0.000359591
0.000359591
0.000359592
0.000359592
0.000359593
0.000359594
0.000359595
0.000359595
0.000359596
0.000359597
0.000359598
0.0003596
0.000359601
0.000359602
0.000359603
0.000359604
0.000359605
0.000359606
0.000359607
0.000359608
0.000359609
0.00035961
0.000359611
0.000359611
0.000359612
0.000359612
0.000363462
0.000363461
0.000363461
0.00036346
0.00036346
0.000363459
0.000363458
0.000363457
0.000363456
0.000363455
0.000363454
0.000363453
0.000363451
0.00036345
0.000363449
0.000363448
0.000363447
0.000363446
0.000363445
0.000363444
0.000363443
0.000363443
0.000363442
0.000363441
0.000363441
0.00036344
0.00036344
0.00036344
0.00036344
0.00036344
0.00036344
0.00036344
0.00036344
0.00036344
0.00036344
0.000363441
0.000363441
0.000363442
0.000363443
0.000363443
0.000363444
0.000363445
0.000363446
0.000363447
0.000363448
0.000363449
0.00036345
0.000363451
0.000363453
0.000363454
0.000363455
0.000363456
0.000363457
0.000363458
0.000363459
0.00036346
0.00036346
0.000363461
0.000363461
0.000363462
0.00036747
0.00036747
0.00036747
0.000367469
0.000367468
0.000367467
0.000367467
0.000367466
0.000367465
0.000367463
0.000367462
0.000367461
0.00036746
0.000367459
0.000367458
0.000367457
0.000367456
0.000367455
0.000367454
0.000367453
0.000367452
0.000367451
0.00036745
0.00036745
0.000367449
0.000367449
0.000367449
0.000367448
0.000367448
0.000367448
0.000367448
0.000367448
0.000367448
0.000367449
0.000367449
0.000367449
0.00036745
0.00036745
0.000367451
0.000367452
0.000367453
0.000367454
0.000367455
0.000367456
0.000367457
0.000367458
0.000367459
0.00036746
0.000367461
0.000367462
0.000367463
0.000367465
0.000367466
0.000367467
0.000367467
0.000367468
0.000367469
0.00036747
0.00036747
0.00036747
0.000371646
0.000371646
0.000371645
0.000371644
0.000371644
0.000371643
0.000371642
0.000371641
0.00037164
0.000371639
0.000371638
0.000371637
0.000371635
0.000371634
0.000371633
0.000371632
0.000371631
0.00037163
0.000371629
0.000371628
0.000371627
0.000371627
0.000371626
0.000371625
0.000371625
0.000371624
0.000371624
0.000371624
0.000371624
0.000371624
0.000371624
0.000371624
0.000371624
0.000371624
0.000371624
0.000371625
0.000371625
0.000371626
0.000371627
0.000371627
0.000371628
0.000371629
0.00037163
0.000371631
0.000371632
0.000371633
0.000371634
0.000371635
0.000371637
0.000371638
0.000371639
0.00037164
0.000371641
0.000371642
0.000371643
0.000371644
0.000371644
0.000371645
0.000371646
0.000371646
0.000375997
0.000375996
0.000375996
0.000375995
0.000375995
0.000375994
0.000375993
0.000375992
0.000375991
0.00037599
0.000375989
0.000375987
0.000375986
0.000375985
0.000375984
0.000375983
0.000375982
0.000375981
0.00037598
0.000375979
0.000375978
0.000375977
0.000375977
0.000375976
0.000375976
0.000375975
0.000375975
0.000375974
0.000375974
0.000375974
0.000375974
0.000375974
0.000375974
0.000375975
0.000375975
0.000375976
0.000375976
0.000375977
0.000375977
0.000375978
0.000375979
0.00037598
0.000375981
0.000375982
0.000375983
0.000375984
0.000375985
0.000375986
0.000375987
0.000375989
0.00037599
0.000375991
0.000375992
0.000375993
0.000375994
0.000375995
0.000375995
0.000375996
0.000375996
0.000375997
0.000380532
0.000380531
0.000380531
0.00038053
0.00038053
0.000380529
0.000380528
0.000380527
0.000380526
0.000380525
0.000380524
0.000380522
0.000380521
0.00038052
0.000380519
0.000380518
0.000380517
0.000380516
0.000380515
0.000380514
0.000380513
0.000380512
0.000380511
0.000380511
0.00038051
0.00038051
0.00038051
0.000380509
0.000380509
0.000380509
0.000380509
0.000380509
0.000380509
0.00038051
0.00038051
0.00038051
0.000380511
0.000380511
0.000380512
0.000380513
0.000380514
0.000380515
0.000380516
0.000380517
0.000380518
0.000380519
0.00038052
0.000380521
0.000380522
0.000380524
0.000380525
0.000380526
0.000380527
0.000380528
0.000380529
0.00038053
0.00038053
0.000380531
0.000380531
0.000380532
0.00038526
0.00038526
0.00038526
0.000385259
0.000385258
0.000385257
0.000385257
0.000385256
0.000385254
0.000385253
0.000385252
0.000385251
0.00038525
0.000385249
0.000385247
0.000385246
0.000385245
0.000385244
0.000385243
0.000385242
0.000385241
0.000385241
0.00038524
0.000385239
0.000385239
0.000385238
0.000385238
0.000385238
0.000385238
0.000385238
0.000385238
0.000385238
0.000385238
0.000385238
0.000385238
0.000385239
0.000385239
0.00038524
0.000385241
0.000385241
0.000385242
0.000385243
0.000385244
0.000385245
0.000385246
0.000385247
0.000385249
0.00038525
0.000385251
0.000385252
0.000385253
0.000385254
0.000385256
0.000385257
0.000385257
0.000385258
0.000385259
0.00038526
0.00038526
0.00038526
0.000390193
0.000390192
0.000390192
0.000390191
0.000390191
0.00039019
0.000390189
0.000390188
0.000390187
0.000390186
0.000390184
0.000390183
0.000390182
0.000390181
0.00039018
0.000390179
0.000390177
0.000390176
0.000390175
0.000390175
0.000390174
0.000390173
0.000390172
0.000390172
0.000390171
0.000390171
0.00039017
0.00039017
0.00039017
0.00039017
0.00039017
0.00039017
0.00039017
0.00039017
0.000390171
0.000390171
0.000390172
0.000390172
0.000390173
0.000390174
0.000390175
0.000390175
0.000390176
0.000390177
0.000390179
0.00039018
0.000390181
0.000390182
0.000390183
0.000390184
0.000390186
0.000390187
0.000390188
0.000390189
0.00039019
0.000390191
0.000390191
0.000390192
0.000390192
0.000390193
0.000395339
0.000395339
0.000395339
0.000395338
0.000395337
0.000395336
0.000395336
0.000395335
0.000395333
0.000395332
0.000395331
0.00039533
0.000395329
0.000395328
0.000395326
0.000395325
0.000395324
0.000395323
0.000395322
0.000395321
0.00039532
0.00039532
0.000395319
0.000395318
0.000395318
0.000395317
0.000395317
0.000395317
0.000395317
0.000395316
0.000395316
0.000395317
0.000395317
0.000395317
0.000395317
0.000395318
0.000395318
0.000395319
0.00039532
0.00039532
0.000395321
0.000395322
0.000395323
0.000395324
0.000395325
0.000395326
0.000395328
0.000395329
0.00039533
0.000395331
0.000395332
0.000395333
0.000395335
0.000395336
0.000395336
0.000395337
0.000395338
0.000395339
0.000395339
0.000395339
0.000400712
0.000400712
0.000400711
0.000400711
0.00040071
0.000400709
0.000400708
0.000400707
0.000400706
0.000400705
0.000400704
0.000400702
0.000400701
0.0004007
0.000400699
0.000400698
0.000400697
0.000400695
0.000400694
0.000400694
0.000400693
0.000400692
0.000400691
0.000400691
0.00040069
0.00040069
0.000400689
0.000400689
0.000400689
0.000400689
0.000400689
0.000400689
0.000400689
0.000400689
0.00040069
0.00040069
0.000400691
0.000400691
0.000400692
0.000400693
0.000400694
0.000400694
0.000400695
0.000400697
0.000400698
0.000400699
0.0004007
0.000400701
0.000400702
0.000400704
0.000400705
0.000400706
0.000400707
0.000400708
0.000400709
0.00040071
0.000400711
0.000400711
0.000400712
0.000400712
0.000406322
0.000406322
0.000406322
0.000406321
0.00040632
0.000406319
0.000406318
0.000406317
0.000406316
0.000406315
0.000406314
0.000406313
0.000406312
0.00040631
0.000406309
0.000406308
0.000406307
0.000406306
0.000406305
0.000406304
0.000406303
0.000406302
0.000406302
0.000406301
0.0004063
0.0004063
0.0004063
0.000406299
0.000406299
0.000406299
0.000406299
0.000406299
0.000406299
0.0004063
0.0004063
0.0004063
0.000406301
0.000406302
0.000406302
0.000406303
0.000406304
0.000406305
0.000406306
0.000406307
0.000406308
0.000406309
0.00040631
0.000406312
0.000406313
0.000406314
0.000406315
0.000406316
0.000406317
0.000406318
0.000406319
0.00040632
0.000406321
0.000406322
0.000406322
0.000406322
0.000412184
0.000412183
0.000412183
0.000412182
0.000412181
0.000412181
0.00041218
0.000412179
0.000412178
0.000412176
0.000412175
0.000412174
0.000412173
0.000412171
0.00041217
0.000412169
0.000412168
0.000412167
0.000412166
0.000412165
0.000412164
0.000412163
0.000412163
0.000412162
0.000412161
0.000412161
0.000412161
0.00041216
0.00041216
0.00041216
0.00041216
0.00041216
0.00041216
0.000412161
0.000412161
0.000412161
0.000412162
0.000412163
0.000412163
0.000412164
0.000412165
0.000412166
0.000412167
0.000412168
0.000412169
0.00041217
0.000412171
0.000412173
0.000412174
0.000412175
0.000412176
0.000412178
0.000412179
0.00041218
0.000412181
0.000412181
0.000412182
0.000412183
0.000412183
0.000412184
0.000418309
0.000418309
0.000418309
0.000418308
0.000418307
0.000418306
0.000418305
0.000418304
0.000418303
0.000418302
0.000418301
0.0004183
0.000418298
0.000418297
0.000418296
0.000418295
0.000418294
0.000418293
0.000418292
0.000418291
0.00041829
0.000418289
0.000418288
0.000418288
0.000418287
0.000418287
0.000418286
0.000418286
0.000418286
0.000418286
0.000418286
0.000418286
0.000418286
0.000418286
0.000418287
0.000418287
0.000418288
0.000418288
0.000418289
0.00041829
0.000418291
0.000418292
0.000418293
0.000418294
0.000418295
0.000418296
0.000418297
0.000418298
0.0004183
0.000418301
0.000418302
0.000418303
0.000418304
0.000418305
0.000418306
0.000418307
0.000418308
0.000418309
0.000418309
0.000418309
0.000424715
0.000424714
0.000424714
0.000424713
0.000424712
0.000424712
0.000424711
0.00042471
0.000424708
0.000424707
0.000424706
0.000424705
0.000424704
0.000424702
0.000424701
0.0004247
0.000424699
0.000424698
0.000424697
0.000424696
0.000424695
0.000424694
0.000424693
0.000424693
0.000424692
0.000424692
0.000424691
0.000424691
0.000424691
0.000424691
0.000424691
0.000424691
0.000424691
0.000424691
0.000424692
0.000424692
0.000424693
0.000424693
0.000424694
0.000424695
0.000424696
0.000424697
0.000424698
0.000424699
0.0004247
0.000424701
0.000424702
0.000424704
0.000424705
0.000424706
0.000424707
0.000424708
0.00042471
0.000424711
0.000424712
0.000424712
0.000424713
0.000424714
0.000424714
0.000424715
0.000431415
0.000431415
0.000431414
0.000431413
0.000431413
0.000431412
0.000431411
0.00043141
0.000431409
0.000431407
0.000431406
0.000431405
0.000431404
0.000431403
0.000431401
0.0004314
0.000431399
0.000431398
0.000431397
0.000431396
0.000431395
0.000431394
0.000431394
0.000431393
0.000431392
0.000431392
0.000431392
0.000431391
0.000431391
0.000431391
0.000431391
0.000431391
0.000431391
0.000431392
0.000431392
0.000431392
0.000431393
0.000431394
0.000431394
0.000431395
0.000431396
0.000431397
0.000431398
0.000431399
0.0004314
0.000431401
0.000431403
0.000431404
0.000431405
0.000431406
0.000431407
0.000431409
0.00043141
0.000431411
0.000431412
0.000431413
0.000431413
0.000431414
0.000431415
0.000431415
0.000438427
0.000438427
0.000438426
0.000438426
0.000438425
0.000438424
0.000438423
0.000438422
0.000438421
0.00043842
0.000438418
0.000438417
0.000438416
0.000438415
0.000438413
0.000438412
0.000438411
0.00043841
0.000438409
0.000438408
0.000438407
0.000438406
0.000438406
0.000438405
0.000438404
0.000438404
0.000438404
0.000438403
0.000438403
0.000438403
0.000438403
0.000438403
0.000438403
0.000438404
0.000438404
0.000438404
0.000438405
0.000438406
0.000438406
0.000438407
0.000438408
0.000438409
0.00043841
0.000438411
0.000438412
0.000438413
0.000438415
0.000438416
0.000438417
0.000438418
0.00043842
0.000438421
0.000438422
0.000438423
0.000438424
0.000438425
0.000438426
0.000438426
0.000438427
0.000438427
0.000445769
0.000445769
0.000445768
0.000445768
0.000445767
0.000445766
0.000445765
0.000445764
0.000445763
0.000445762
0.00044576
0.000445759
0.000445758
0.000445757
0.000445755
0.000445754
0.000445753
0.000445752
0.000445751
0.00044575
0.000445749
0.000445748
0.000445747
0.000445747
0.000445746
0.000445746
0.000445745
0.000445745
0.000445745
0.000445745
0.000445745
0.000445745
0.000445745
0.000445745
0.000445746
0.000445746
0.000445747
0.000445747
0.000445748
0.000445749
0.00044575
0.000445751
0.000445752
0.000445753
0.000445754
0.000445755
0.000445757
0.000445758
0.000445759
0.00044576
0.000445762
0.000445763
0.000445764
0.000445765
0.000445766
0.000445767
0.000445768
0.000445768
0.000445769
0.000445769
0.00045346
0.00045346
0.000453459
0.000453459
0.000453458
0.000453457
0.000453456
0.000453455
0.000453454
0.000453453
0.000453451
0.00045345
0.000453449
0.000453448
0.000453446
0.000453445
0.000453444
0.000453443
0.000453442
0.000453441
0.00045344
0.000453439
0.000453438
0.000453438
0.000453437
0.000453437
0.000453436
0.000453436
0.000453436
0.000453436
0.000453436
0.000453436
0.000453436
0.000453436
0.000453437
0.000453437
0.000453438
0.000453438
0.000453439
0.00045344
0.000453441
0.000453442
0.000453443
0.000453444
0.000453445
0.000453446
0.000453448
0.000453449
0.00045345
0.000453451
0.000453453
0.000453454
0.000453455
0.000453456
0.000453457
0.000453458
0.000453459
0.000453459
0.00045346
0.00045346
0.000461521
0.000461521
0.00046152
0.00046152
0.000461519
0.000461518
0.000461517
0.000461516
0.000461515
0.000461514
0.000461512
0.000461511
0.00046151
0.000461508
0.000461507
0.000461506
0.000461505
0.000461504
0.000461503
0.000461502
0.000461501
0.0004615
0.000461499
0.000461499
0.000461498
0.000461498
0.000461497
0.000461497
0.000461497
0.000461497
0.000461497
0.000461497
0.000461497
0.000461497
0.000461498
0.000461498
0.000461499
0.000461499
0.0004615
0.000461501
0.000461502
0.000461503
0.000461504
0.000461505
0.000461506
0.000461507
0.000461508
0.00046151
0.000461511
0.000461512
0.000461514
0.000461515
0.000461516
0.000461517
0.000461518
0.000461519
0.00046152
0.00046152
0.000461521
0.000461521
0.000469974
0.000469974
0.000469973
0.000469972
0.000469972
0.000469971
0.00046997
0.000469969
0.000469968
0.000469966
0.000469965
0.000469964
0.000469963
0.000469961
0.00046996
0.000469959
0.000469958
0.000469957
0.000469956
0.000469955
0.000469954
0.000469953
0.000469952
0.000469951
0.000469951
0.00046995
0.00046995
0.00046995
0.00046995
0.000469949
0.000469949
0.00046995
0.00046995
0.00046995
0.00046995
0.000469951
0.000469951
0.000469952
0.000469953
0.000469954
0.000469955
0.000469956
0.000469957
0.000469958
0.000469959
0.00046996
0.000469961
0.000469963
0.000469964
0.000469965
0.000469966
0.000469968
0.000469969
0.00046997
0.000469971
0.000469972
0.000469972
0.000469973
0.000469974
0.000469974
0.000478843
0.000478842
0.000478842
0.000478841
0.00047884
0.000478839
0.000478838
0.000478837
0.000478836
0.000478835
0.000478834
0.000478832
0.000478831
0.00047883
0.000478829
0.000478827
0.000478826
0.000478825
0.000478824
0.000478823
0.000478822
0.000478821
0.000478821
0.00047882
0.000478819
0.000478819
0.000478819
0.000478818
0.000478818
0.000478818
0.000478818
0.000478818
0.000478818
0.000478819
0.000478819
0.000478819
0.00047882
0.000478821
0.000478821
0.000478822
0.000478823
0.000478824
0.000478825
0.000478826
0.000478827
0.000478829
0.00047883
0.000478831
0.000478832
0.000478834
0.000478835
0.000478836
0.000478837
0.000478838
0.000478839
0.00047884
0.000478841
0.000478842
0.000478842
0.000478843
0.000488153
0.000488152
0.000488152
0.000488151
0.00048815
0.000488149
0.000488148
0.000488147
0.000488146
0.000488145
0.000488144
0.000488142
0.000488141
0.00048814
0.000488139
0.000488137
0.000488136
0.000488135
0.000488134
0.000488133
0.000488132
0.000488131
0.00048813
0.00048813
0.000488129
0.000488129
0.000488128
0.000488128
0.000488128
0.000488128
0.000488128
0.000488128
0.000488128
0.000488128
0.000488129
0.000488129
0.00048813
0.00048813
0.000488131
0.000488132
0.000488133
0.000488134
0.000488135
0.000488136
0.000488137
0.000488139
0.00048814
0.000488141
0.000488142
0.000488144
0.000488145
0.000488146
0.000488147
0.000488148
0.000488149
0.00048815
0.000488151
0.000488152
0.000488152
0.000488153
0.000497931
0.000497931
0.00049793
0.00049793
0.000497929
0.000497928
0.000497927
0.000497926
0.000497925
0.000497924
0.000497922
0.000497921
0.00049792
0.000497919
0.000497917
0.000497916
0.000497915
0.000497914
0.000497913
0.000497912
0.000497911
0.00049791
0.000497909
0.000497908
0.000497908
0.000497907
0.000497907
0.000497907
0.000497907
0.000497906
0.000497906
0.000497907
0.000497907
0.000497907
0.000497907
0.000497908
0.000497908
0.000497909
0.00049791
0.000497911
0.000497912
0.000497913
0.000497914
0.000497915
0.000497916
0.000497917
0.000497919
0.00049792
0.000497921
0.000497922
0.000497924
0.000497925
0.000497926
0.000497927
0.000497928
0.000497929
0.00049793
0.00049793
0.000497931
0.000497931
0.000508209
0.000508208
0.000508208
0.000508207
0.000508206
0.000508205
0.000508204
0.000508203
0.000508202
0.000508201
0.0005082
0.000508198
0.000508197
0.000508196
0.000508194
0.000508193
0.000508192
0.000508191
0.00050819
0.000508189
0.000508188
0.000508187
0.000508186
0.000508186
0.000508185
0.000508185
0.000508184
0.000508184
0.000508184
0.000508184
0.000508184
0.000508184
0.000508184
0.000508184
0.000508185
0.000508185
0.000508186
0.000508186
0.000508187
0.000508188
0.000508189
0.00050819
0.000508191
0.000508192
0.000508193
0.000508194
0.000508196
0.000508197
0.000508198
0.0005082
0.000508201
0.000508202
0.000508203
0.000508204
0.000508205
0.000508206
0.000508207
0.000508208
0.000508208
0.000508209
0.000519016
0.000519016
0.000519015
0.000519015
0.000519014
0.000519013
0.000519012
0.000519011
0.00051901
0.000519008
0.000519007
0.000519006
0.000519004
0.000519003
0.000519002
0.000519001
0.000518999
0.000518998
0.000518997
0.000518996
0.000518995
0.000518994
0.000518994
0.000518993
0.000518992
0.000518992
0.000518992
0.000518991
0.000518991
0.000518991
0.000518991
0.000518991
0.000518991
0.000518992
0.000518992
0.000518992
0.000518993
0.000518994
0.000518994
0.000518995
0.000518996
0.000518997
0.000518998
0.000518999
0.000519001
0.000519002
0.000519003
0.000519004
0.000519006
0.000519007
0.000519008
0.00051901
0.000519011
0.000519012
0.000519013
0.000519014
0.000519015
0.000519015
0.000519016
0.000519016
0.000530388
0.000530388
0.000530387
0.000530387
0.000530386
0.000530385
0.000530384
0.000530383
0.000530382
0.000530381
0.000530379
0.000530378
0.000530377
0.000530375
0.000530374
0.000530373
0.000530372
0.00053037
0.000530369
0.000530368
0.000530367
0.000530367
0.000530366
0.000530365
0.000530365
0.000530364
0.000530364
0.000530363
0.000530363
0.000530363
0.000530363
0.000530363
0.000530363
0.000530364
0.000530364
0.000530365
0.000530365
0.000530366
0.000530367
0.000530367
0.000530368
0.000530369
0.00053037
0.000530372
0.000530373
0.000530374
0.000530375
0.000530377
0.000530378
0.000530379
0.000530381
0.000530382
0.000530383
0.000530384
0.000530385
0.000530386
0.000530387
0.000530387
0.000530388
0.000530388
0.000542362
0.000542362
0.000542362
0.000542361
0.00054236
0.000542359
0.000542358
0.000542357
0.000542356
0.000542355
0.000542353
0.000542352
0.000542351
0.000542349
0.000542348
0.000542347
0.000542346
0.000542345
0.000542343
0.000542342
0.000542341
0.000542341
0.00054234
0.000542339
0.000542339
0.000542338
0.000542338
0.000542337
0.000542337
0.000542337
0.000542337
0.000542337
0.000542337
0.000542338
0.000542338
0.000542339
0.000542339
0.00054234
0.000542341
0.000542341
0.000542342
0.000542343
0.000542345
0.000542346
0.000542347
0.000542348
0.000542349
0.000542351
0.000542352
0.000542353
0.000542355
0.000542356
0.000542357
0.000542358
0.000542359
0.00054236
0.000542361
0.000542362
0.000542362
0.000542362
0.000554979
0.000554978
0.000554978
0.000554977
0.000554976
0.000554975
0.000554974
0.000554973
0.000554972
0.000554971
0.000554969
0.000554968
0.000554967
0.000554966
0.000554964
0.000554963
0.000554962
0.000554961
0.00055496
0.000554958
0.000554958
0.000554957
0.000554956
0.000554955
0.000554955
0.000554954
0.000554954
0.000554953
0.000554953
0.000554953
0.000554953
0.000554953
0.000554953
0.000554954
0.000554954
0.000554955
0.000554955
0.000554956
0.000554957
0.000554958
0.000554958
0.00055496
0.000554961
0.000554962
0.000554963
0.000554964
0.000554966
0.000554967
0.000554968
0.000554969
0.000554971
0.000554972
0.000554973
0.000554974
0.000554975
0.000554976
0.000554977
0.000554978
0.000554978
0.000554979
0.00056828
0.00056828
0.000568279
0.000568279
0.000568278
0.000568277
0.000568276
0.000568275
0.000568274
0.000568272
0.000568271
0.00056827
0.000568268
0.000568267
0.000568266
0.000568265
0.000568263
0.000568262
0.000568261
0.00056826
0.000568259
0.000568258
0.000568257
0.000568257
0.000568256
0.000568256
0.000568255
0.000568255
0.000568255
0.000568255
0.000568255
0.000568255
0.000568255
0.000568255
0.000568256
0.000568256
0.000568257
0.000568257
0.000568258
0.000568259
0.00056826
0.000568261
0.000568262
0.000568263
0.000568265
0.000568266
0.000568267
0.000568268
0.00056827
0.000568271
0.000568272
0.000568274
0.000568275
0.000568276
0.000568277
0.000568278
0.000568279
0.000568279
0.00056828
0.00056828
0.000582314
0.000582314
0.000582313
0.000582313
0.000582312
0.000582311
0.00058231
0.000582309
0.000582308
0.000582306
0.000582305
0.000582304
0.000582302
0.000582301
0.0005823
0.000582299
0.000582297
0.000582296
0.000582295
0.000582294
0.000582293
0.000582292
0.000582291
0.000582291
0.00058229
0.00058229
0.000582289
0.000582289
0.000582289
0.000582289
0.000582289
0.000582289
0.000582289
0.000582289
0.00058229
0.00058229
0.000582291
0.000582291
0.000582292
0.000582293
0.000582294
0.000582295
0.000582296
0.000582297
0.000582299
0.0005823
0.000582301
0.000582302
0.000582304
0.000582305
0.000582306
0.000582308
0.000582309
0.00058231
0.000582311
0.000582312
0.000582313
0.000582313
0.000582314
0.000582314
0.000597132
0.000597131
0.000597131
0.00059713
0.000597129
0.000597129
0.000597127
0.000597126
0.000597125
0.000597124
0.000597123
0.000597121
0.00059712
0.000597119
0.000597117
0.000597116
0.000597115
0.000597114
0.000597113
0.000597112
0.000597111
0.00059711
0.000597109
0.000597108
0.000597108
0.000597107
0.000597107
0.000597106
0.000597106
0.000597106
0.000597106
0.000597106
0.000597106
0.000597107
0.000597107
0.000597108
0.000597108
0.000597109
0.00059711
0.000597111
0.000597112
0.000597113
0.000597114
0.000597115
0.000597116
0.000597117
0.000597119
0.00059712
0.000597121
0.000597123
0.000597124
0.000597125
0.000597126
0.000597127
0.000597129
0.000597129
0.00059713
0.000597131
0.000597131
0.000597132
0.000612788
0.000612788
0.000612787
0.000612787
0.000612786
0.000612785
0.000612784
0.000612783
0.000612782
0.00061278
0.000612779
0.000612778
0.000612776
0.000612775
0.000612774
0.000612772
0.000612771
0.00061277
0.000612769
0.000612768
0.000612767
0.000612766
0.000612765
0.000612765
0.000612764
0.000612763
0.000612763
0.000612763
0.000612763
0.000612762
0.000612762
0.000612763
0.000612763
0.000612763
0.000612763
0.000612764
0.000612765
0.000612765
0.000612766
0.000612767
0.000612768
0.000612769
0.00061277
0.000612771
0.000612772
0.000612774
0.000612775
0.000612776
0.000612778
0.000612779
0.00061278
0.000612782
0.000612783
0.000612784