/*--------------------------------*- C++ -*----------------------------------*\
| =========                 |                                                 |
| \\      /  F ield         | foam-extend: Open Source CFD                    |
|  \\    /   O peration     | Version:     4.0                                |
|   \\  /    A nd           | Web:         http://www.foam-extend.org         |
|    \\/     M anipulation  |                                                 |
\*---------------------------------------------------------------------------*/
FoamFile
{
    version     2.0;
    format      ascii;
    class       volScalarField;
    location    "1120";
    object      psiE;
}
// * * * * * * * * * * * * * * * * * * * * * * * * * * * * * * * * * * * * * //

dimensions      [0 0 0 0 0 0 0];

internalField   nonuniform List<scalar> 
6960
(
0.357308
0.357323
0.357339
0.357353
0.357365
0.357375
0.357383
0.35739
0.357395
0.3574
0.357403
0.357406
0.357408
0.35741
0.357411
0.357412
0.357413
0.357414
0.357415
0.357415
0.357416
0.357416
0.357416
0.357416
0.357417
0.357417
0.357417
0.357417
0.357417
0.357417
0.357417
0.357417
0.357417
0.357417
0.357417
0.357417
0.357416
0.357416
0.357416
0.357416
0.357415
0.357415
0.357414
0.357413
0.357412
0.357411
0.35741
0.357408
0.357406
0.357403
0.3574
0.357395
0.35739
0.357383
0.357375
0.357365
0.357353
0.357339
0.357323
0.357308
0.926783
0.926841
0.926905
0.926962
0.927011
0.927052
0.927085
0.927112
0.927134
0.927151
0.927165
0.927176
0.927185
0.927192
0.927198
0.927202
0.927206
0.927209
0.927211
0.927213
0.927214
0.927216
0.927217
0.927218
0.927218
0.927219
0.927219
0.927219
0.92722
0.92722
0.92722
0.92722
0.927219
0.927219
0.927219
0.927218
0.927218
0.927217
0.927216
0.927214
0.927213
0.927211
0.927209
0.927206
0.927202
0.927198
0.927192
0.927185
0.927176
0.927165
0.927151
0.927134
0.927112
0.927085
0.927052
0.927011
0.926962
0.926905
0.926841
0.926783
1.46561
1.46572
1.46584
1.46595
1.46605
1.46612
1.46619
1.46624
1.46628
1.46632
1.46634
1.46636
1.46638
1.46639
1.46641
1.46641
1.46642
1.46643
1.46643
1.46643
1.46644
1.46644
1.46644
1.46644
1.46644
1.46644
1.46645
1.46645
1.46645
1.46645
1.46645
1.46645
1.46645
1.46645
1.46644
1.46644
1.46644
1.46644
1.46644
1.46644
1.46643
1.46643
1.46643
1.46642
1.46641
1.46641
1.46639
1.46638
1.46636
1.46634
1.46632
1.46628
1.46624
1.46619
1.46612
1.46605
1.46595
1.46584
1.46572
1.46561
2.00219
2.00236
2.00255
2.00272
2.00286
2.00298
2.00308
2.00316
2.00323
2.00328
2.00332
2.00335
2.00338
2.0034
2.00341
2.00342
2.00344
2.00344
2.00345
2.00346
2.00346
2.00346
2.00347
2.00347
2.00347
2.00347
2.00347
2.00347
2.00347
2.00347
2.00347
2.00347
2.00347
2.00347
2.00347
2.00347
2.00347
2.00347
2.00346
2.00346
2.00346
2.00345
2.00344
2.00344
2.00342
2.00341
2.0034
2.00338
2.00335
2.00332
2.00328
2.00323
2.00316
2.00308
2.00298
2.00286
2.00272
2.00255
2.00236
2.00219
2.54531
2.54554
2.5458
2.54603
2.54622
2.54639
2.54652
2.54663
2.54672
2.54679
2.54684
2.54689
2.54692
2.54695
2.54697
2.54699
2.547
2.54702
2.54702
2.54703
2.54704
2.54704
2.54705
2.54705
2.54705
2.54705
2.54706
2.54706
2.54706
2.54706
2.54706
2.54706
2.54706
2.54706
2.54705
2.54705
2.54705
2.54705
2.54704
2.54704
2.54703
2.54702
2.54702
2.547
2.54699
2.54697
2.54695
2.54692
2.54689
2.54684
2.54679
2.54672
2.54663
2.54652
2.54639
2.54622
2.54603
2.5458
2.54554
2.54531
3.09768
3.09797
3.09829
3.09859
3.09884
3.09905
3.09922
3.09936
3.09947
3.09956
3.09963
3.09968
3.09973
3.09976
3.09979
3.09982
3.09983
3.09985
3.09986
3.09987
3.09988
3.09988
3.09989
3.09989
3.09989
3.0999
3.0999
3.0999
3.0999
3.0999
3.0999
3.0999
3.0999
3.0999
3.0999
3.09989
3.09989
3.09989
3.09988
3.09988
3.09987
3.09986
3.09985
3.09983
3.09982
3.09979
3.09976
3.09973
3.09968
3.09963
3.09956
3.09947
3.09936
3.09922
3.09905
3.09884
3.09859
3.09829
3.09797
3.09768
3.66006
3.66042
3.66081
3.66117
3.66148
3.66173
3.66194
3.66211
3.66224
3.66235
3.66243
3.6625
3.66256
3.6626
3.66263
3.66266
3.66268
3.6627
3.66271
3.66273
3.66274
3.66274
3.66275
3.66275
3.66276
3.66276
3.66276
3.66276
3.66277
3.66277
3.66277
3.66277
3.66276
3.66276
3.66276
3.66276
3.66275
3.66275
3.66274
3.66274
3.66273
3.66271
3.6627
3.66268
3.66266
3.66263
3.6626
3.66256
3.6625
3.66243
3.66235
3.66224
3.66211
3.66194
3.66173
3.66148
3.66117
3.66081
3.66042
3.66006
4.23259
4.23301
4.23348
4.2339
4.23426
4.23456
4.2348
4.235
4.23516
4.23529
4.23539
4.23547
4.23553
4.23558
4.23562
4.23566
4.23568
4.2357
4.23572
4.23573
4.23574
4.23575
4.23576
4.23576
4.23577
4.23577
4.23578
4.23578
4.23578
4.23578
4.23578
4.23578
4.23578
4.23578
4.23577
4.23577
4.23576
4.23576
4.23575
4.23574
4.23573
4.23572
4.2357
4.23568
4.23566
4.23562
4.23558
4.23553
4.23547
4.23539
4.23529
4.23516
4.235
4.2348
4.23456
4.23426
4.2339
4.23348
4.23301
4.23259
4.81517
4.81565
4.81619
4.81668
4.81709
4.81744
4.81772
4.81795
4.81813
4.81828
4.81839
4.81849
4.81856
4.81862
4.81867
4.8187
4.81873
4.81876
4.81877
4.81879
4.8188
4.81881
4.81882
4.81883
4.81883
4.81884
4.81884
4.81884
4.81884
4.81884
4.81884
4.81884
4.81884
4.81884
4.81884
4.81883
4.81883
4.81882
4.81881
4.8188
4.81879
4.81877
4.81876
4.81873
4.8187
4.81867
4.81862
4.81856
4.81849
4.81839
4.81828
4.81813
4.81795
4.81772
4.81744
4.81709
4.81668
4.81619
4.81565
4.81517
5.40761
5.40816
5.40876
5.40931
5.40978
5.41017
5.41049
5.41075
5.41096
5.41112
5.41126
5.41136
5.41145
5.41151
5.41156
5.41161
5.41164
5.41167
5.41169
5.41171
5.41172
5.41173
5.41174
5.41175
5.41175
5.41176
5.41176
5.41176
5.41177
5.41177
5.41177
5.41177
5.41176
5.41176
5.41176
5.41175
5.41175
5.41174
5.41173
5.41172
5.41171
5.41169
5.41167
5.41164
5.41161
5.41156
5.41151
5.41145
5.41136
5.41126
5.41112
5.41096
5.41075
5.41049
5.41017
5.40978
5.40931
5.40876
5.40816
5.40761
6.00964
6.01025
6.01093
6.01154
6.01207
6.0125
6.01286
6.01315
6.01338
6.01357
6.01372
6.01383
6.01393
6.014
6.01406
6.0141
6.01414
6.01417
6.0142
6.01422
6.01423
6.01424
6.01426
6.01426
6.01427
6.01428
6.01428
6.01428
6.01428
6.01428
6.01428
6.01428
6.01428
6.01428
6.01428
6.01427
6.01426
6.01426
6.01424
6.01423
6.01422
6.0142
6.01417
6.01414
6.0141
6.01406
6.014
6.01393
6.01383
6.01372
6.01357
6.01338
6.01315
6.01286
6.0125
6.01207
6.01154
6.01093
6.01025
6.00964
6.62096
6.62163
6.62237
6.62305
6.62363
6.62411
6.6245
6.62482
6.62508
6.62529
6.62545
6.62558
6.62568
6.62576
6.62583
6.62588
6.62592
6.62595
6.62598
6.626
6.62602
6.62603
6.62605
6.62605
6.62606
6.62607
6.62607
6.62608
6.62608
6.62608
6.62608
6.62608
6.62608
6.62607
6.62607
6.62606
6.62605
6.62605
6.62603
6.62602
6.626
6.62598
6.62595
6.62592
6.62588
6.62583
6.62576
6.62568
6.62558
6.62545
6.62529
6.62508
6.62482
6.6245
6.62411
6.62363
6.62305
6.62237
6.62163
6.62096
7.24116
7.24189
7.24271
7.24345
7.24408
7.24461
7.24504
7.24539
7.24567
7.24589
7.24607
7.24621
7.24633
7.24642
7.24649
7.24654
7.24659
7.24663
7.24665
7.24668
7.2467
7.24671
7.24673
7.24674
7.24674
7.24675
7.24675
7.24676
7.24676
7.24676
7.24676
7.24676
7.24676
7.24675
7.24675
7.24674
7.24674
7.24673
7.24671
7.2467
7.24668
7.24665
7.24663
7.24659
7.24654
7.24649
7.24642
7.24633
7.24621
7.24607
7.24589
7.24567
7.24539
7.24504
7.24461
7.24408
7.24345
7.24271
7.24189
7.24116
7.86981
7.8706
7.87148
7.87229
7.87297
7.87354
7.87401
7.87439
7.87469
7.87494
7.87513
7.87528
7.87541
7.8755
7.87558
7.87564
7.87569
7.87573
7.87576
7.87579
7.87581
7.87583
7.87584
7.87585
7.87586
7.87587
7.87587
7.87588
7.87588
7.87588
7.87588
7.87588
7.87588
7.87587
7.87587
7.87586
7.87585
7.87584
7.87583
7.87581
7.87579
7.87576
7.87573
7.87569
7.87564
7.87558
7.8755
7.87541
7.87528
7.87513
7.87494
7.87469
7.87439
7.87401
7.87354
7.87297
7.87229
7.87148
7.8706
7.86981
8.50636
8.50722
8.50817
8.50903
8.50977
8.51038
8.51089
8.51129
8.51162
8.51188
8.51209
8.51226
8.51239
8.51249
8.51258
8.51264
8.5127
8.51274
8.51277
8.5128
8.51282
8.51284
8.51286
8.51287
8.51288
8.51289
8.51289
8.5129
8.5129
8.5129
8.5129
8.5129
8.5129
8.51289
8.51289
8.51288
8.51287
8.51286
8.51284
8.51282
8.5128
8.51277
8.51274
8.5127
8.51264
8.51258
8.51249
8.51239
8.51226
8.51209
8.51188
8.51162
8.51129
8.51089
8.51038
8.50977
8.50903
8.50817
8.50722
8.50636
9.15021
9.15112
9.15213
9.15306
9.15385
9.1545
9.15504
9.15548
9.15583
9.15611
9.15633
9.15651
9.15665
9.15676
9.15685
9.15692
9.15698
9.15702
9.15706
9.15709
9.15712
9.15714
9.15715
9.15716
9.15717
9.15718
9.15719
9.15719
9.1572
9.1572
9.1572
9.1572
9.15719
9.15719
9.15718
9.15717
9.15716
9.15715
9.15714
9.15712
9.15709
9.15706
9.15702
9.15698
9.15692
9.15685
9.15676
9.15665
9.15651
9.15633
9.15611
9.15583
9.15548
9.15504
9.1545
9.15385
9.15306
9.15213
9.15112
9.15021
9.80062
9.80159
9.80266
9.80365
9.80448
9.80518
9.80575
9.80622
9.80659
9.80689
9.80713
9.80732
9.80747
9.80758
9.80768
9.80776
9.80782
9.80787
9.80791
9.80794
9.80796
9.80798
9.808
9.80802
9.80803
9.80803
9.80804
9.80805
9.80805
9.80805
9.80805
9.80805
9.80805
9.80804
9.80803
9.80803
9.80802
9.808
9.80798
9.80796
9.80794
9.80791
9.80787
9.80782
9.80776
9.80768
9.80758
9.80747
9.80732
9.80713
9.80689
9.80659
9.80622
9.80575
9.80518
9.80448
9.80365
9.80266
9.80159
9.80062
10.4568
10.4578
10.4589
10.46
10.4608
10.4616
10.4622
10.4627
10.4631
10.4634
10.4636
10.4638
10.464
10.4641
10.4642
10.4643
10.4644
10.4644
10.4645
10.4645
10.4645
10.4646
10.4646
10.4646
10.4646
10.4646
10.4646
10.4646
10.4646
10.4646
10.4646
10.4646
10.4646
10.4646
10.4646
10.4646
10.4646
10.4646
10.4646
10.4645
10.4645
10.4645
10.4644
10.4644
10.4643
10.4642
10.4641
10.464
10.4638
10.4636
10.4634
10.4631
10.4627
10.4622
10.4616
10.4608
10.46
10.4589
10.4578
10.4568
11.1177
11.1188
11.12
11.121
11.122
11.1228
11.1234
11.1239
11.1243
11.1247
11.1249
11.1251
11.1253
11.1254
11.1255
11.1256
11.1257
11.1257
11.1258
11.1258
11.1259
11.1259
11.1259
11.1259
11.1259
11.1259
11.1259
11.1259
11.1259
11.126
11.126
11.1259
11.1259
11.1259
11.1259
11.1259
11.1259
11.1259
11.1259
11.1259
11.1258
11.1258
11.1257
11.1257
11.1256
11.1255
11.1254
11.1253
11.1251
11.1249
11.1247
11.1243
11.1239
11.1234
11.1228
11.122
11.121
11.12
11.1188
11.1177
11.7823
11.7834
11.7846
11.7858
11.7868
11.7876
11.7882
11.7888
11.7892
11.7896
11.7898
11.7901
11.7902
11.7904
11.7905
11.7906
11.7906
11.7907
11.7908
11.7908
11.7908
11.7908
11.7909
11.7909
11.7909
11.7909
11.7909
11.7909
11.7909
11.7909
11.7909
11.7909
11.7909
11.7909
11.7909
11.7909
11.7909
11.7909
11.7908
11.7908
11.7908
11.7908
11.7907
11.7906
11.7906
11.7905
11.7904
11.7902
11.7901
11.7898
11.7896
11.7892
11.7888
11.7882
11.7876
11.7868
11.7858
11.7846
11.7834
11.7823
12.4492
12.4504
12.4517
12.4529
12.4539
12.4548
12.4555
12.456
12.4565
12.4568
12.4571
12.4574
12.4575
12.4577
12.4578
12.4579
12.458
12.458
12.4581
12.4581
12.4582
12.4582
12.4582
12.4582
12.4582
12.4582
12.4583
12.4583
12.4583
12.4583
12.4583
12.4583
12.4583
12.4583
12.4582
12.4582
12.4582
12.4582
12.4582
12.4582
12.4581
12.4581
12.458
12.458
12.4579
12.4578
12.4577
12.4575
12.4574
12.4571
12.4568
12.4565
12.456
12.4555
12.4548
12.4539
12.4529
12.4517
12.4504
12.4492
13.1171
13.1184
13.1197
13.1209
13.122
13.1229
13.1236
13.1242
13.1246
13.125
13.1253
13.1256
13.1257
13.1259
13.126
13.1261
13.1262
13.1263
13.1263
13.1263
13.1264
13.1264
13.1264
13.1264
13.1265
13.1265
13.1265
13.1265
13.1265
13.1265
13.1265
13.1265
13.1265
13.1265
13.1265
13.1265
13.1264
13.1264
13.1264
13.1264
13.1263
13.1263
13.1263
13.1262
13.1261
13.126
13.1259
13.1257
13.1256
13.1253
13.125
13.1246
13.1242
13.1236
13.1229
13.122
13.1209
13.1197
13.1184
13.1171
13.7843
13.7855
13.7869
13.7882
13.7893
13.7902
13.7909
13.7915
13.792
13.7924
13.7927
13.793
13.7931
13.7933
13.7934
13.7935
13.7936
13.7937
13.7937
13.7938
13.7938
13.7938
13.7939
13.7939
13.7939
13.7939
13.7939
13.7939
13.7939
13.7939
13.7939
13.7939
13.7939
13.7939
13.7939
13.7939
13.7939
13.7939
13.7938
13.7938
13.7938
13.7937
13.7937
13.7936
13.7935
13.7934
13.7933
13.7931
13.793
13.7927
13.7924
13.792
13.7915
13.7909
13.7902
13.7893
13.7882
13.7869
13.7855
13.7843
14.4487
14.45
14.4514
14.4527
14.4538
14.4548
14.4555
14.4561
14.4566
14.457
14.4573
14.4576
14.4578
14.458
14.4581
14.4582
14.4583
14.4583
14.4584
14.4584
14.4585
14.4585
14.4585
14.4586
14.4586
14.4586
14.4586
14.4586
14.4586
14.4586
14.4586
14.4586
14.4586
14.4586
14.4586
14.4586
14.4586
14.4585
14.4585
14.4585
14.4584
14.4584
14.4583
14.4583
14.4582
14.4581
14.458
14.4578
14.4576
14.4573
14.457
14.4566
14.4561
14.4555
14.4548
14.4538
14.4527
14.4514
14.45
14.4487
15.1082
15.1095
15.1109
15.1123
15.1134
15.1143
15.1151
15.1157
15.1162
15.1167
15.117
15.1172
15.1174
15.1176
15.1177
15.1178
15.1179
15.118
15.1181
15.1181
15.1181
15.1182
15.1182
15.1182
15.1182
15.1182
15.1183
15.1183
15.1183
15.1183
15.1183
15.1183
15.1183
15.1183
15.1182
15.1182
15.1182
15.1182
15.1182
15.1181
15.1181
15.1181
15.118
15.1179
15.1178
15.1177
15.1176
15.1174
15.1172
15.117
15.1167
15.1162
15.1157
15.1151
15.1143
15.1134
15.1123
15.1109
15.1095
15.1082
15.76
15.7614
15.7629
15.7642
15.7653
15.7663
15.7671
15.7677
15.7682
15.7686
15.769
15.7692
15.7694
15.7696
15.7697
15.7699
15.7699
15.77
15.7701
15.7701
15.7702
15.7702
15.7702
15.7702
15.7703
15.7703
15.7703
15.7703
15.7703
15.7703
15.7703
15.7703
15.7703
15.7703
15.7703
15.7703
15.7702
15.7702
15.7702
15.7702
15.7701
15.7701
15.77
15.7699
15.7699
15.7697
15.7696
15.7694
15.7692
15.769
15.7686
15.7682
15.7677
15.7671
15.7663
15.7653
15.7642
15.7629
15.7614
15.76
16.4013
16.4026
16.4041
16.4055
16.4066
16.4076
16.4084
16.409
16.4095
16.4099
16.4103
16.4105
16.4108
16.4109
16.4111
16.4112
16.4113
16.4113
16.4114
16.4114
16.4115
16.4115
16.4115
16.4116
16.4116
16.4116
16.4116
16.4116
16.4116
16.4116
16.4116
16.4116
16.4116
16.4116
16.4116
16.4116
16.4116
16.4115
16.4115
16.4115
16.4114
16.4114
16.4113
16.4113
16.4112
16.4111
16.4109
16.4108
16.4105
16.4103
16.4099
16.4095
16.409
16.4084
16.4076
16.4066
16.4055
16.4041
16.4026
16.4013
17.0283
17.0297
17.0312
17.0325
17.0336
17.0346
17.0354
17.036
17.0365
17.037
17.0373
17.0376
17.0378
17.0379
17.0381
17.0382
17.0383
17.0383
17.0384
17.0385
17.0385
17.0385
17.0386
17.0386
17.0386
17.0386
17.0386
17.0386
17.0386
17.0386
17.0386
17.0386
17.0386
17.0386
17.0386
17.0386
17.0386
17.0386
17.0385
17.0385
17.0385
17.0384
17.0383
17.0383
17.0382
17.0381
17.0379
17.0378
17.0376
17.0373
17.037
17.0365
17.036
17.0354
17.0346
17.0336
17.0325
17.0312
17.0297
17.0283
17.6369
17.6382
17.6397
17.641
17.6422
17.6431
17.6439
17.6445
17.645
17.6454
17.6458
17.646
17.6462
17.6464
17.6465
17.6467
17.6467
17.6468
17.6469
17.6469
17.647
17.647
17.647
17.6471
17.6471
17.6471
17.6471
17.6471
17.6471
17.6471
17.6471
17.6471
17.6471
17.6471
17.6471
17.6471
17.6471
17.647
17.647
17.647
17.6469
17.6469
17.6468
17.6467
17.6467
17.6465
17.6464
17.6462
17.646
17.6458
17.6454
17.645
17.6445
17.6439
17.6431
17.6422
17.641
17.6397
17.6382
17.6369
18.222
18.2233
18.2247
18.226
18.2271
18.228
18.2288
18.2294
18.2299
18.2303
18.2306
18.2309
18.2311
18.2313
18.2314
18.2315
18.2316
18.2317
18.2317
18.2318
18.2318
18.2319
18.2319
18.2319
18.2319
18.2319
18.232
18.232
18.232
18.232
18.232
18.232
18.232
18.232
18.2319
18.2319
18.2319
18.2319
18.2319
18.2318
18.2318
18.2317
18.2317
18.2316
18.2315
18.2314
18.2313
18.2311
18.2309
18.2306
18.2303
18.2299
18.2294
18.2288
18.228
18.2271
18.226
18.2247
18.2233
18.222
18.7776
18.7789
18.7802
18.7814
18.7825
18.7834
18.7841
18.7847
18.7852
18.7856
18.7859
18.7861
18.7863
18.7865
18.7866
18.7867
18.7868
18.7869
18.7869
18.787
18.787
18.7871
18.7871
18.7871
18.7871
18.7872
18.7872
18.7872
18.7872
18.7872
18.7872
18.7872
18.7872
18.7872
18.7872
18.7871
18.7871
18.7871
18.7871
18.787
18.787
18.7869
18.7869
18.7868
18.7867
18.7866
18.7865
18.7863
18.7861
18.7859
18.7856
18.7852
18.7847
18.7841
18.7834
18.7825
18.7814
18.7802
18.7789
18.7776
19.2965
19.2977
19.299
19.3001
19.3011
19.3019
19.3026
19.3032
19.3036
19.304
19.3043
19.3045
19.3047
19.3049
19.305
19.3051
19.3052
19.3053
19.3053
19.3054
19.3054
19.3054
19.3055
19.3055
19.3055
19.3055
19.3055
19.3055
19.3055
19.3055
19.3055
19.3055
19.3055
19.3055
19.3055
19.3055
19.3055
19.3055
19.3054
19.3054
19.3054
19.3053
19.3053
19.3052
19.3051
19.305
19.3049
19.3047
19.3045
19.3043
19.304
19.3036
19.3032
19.3026
19.3019
19.3011
19.3001
19.299
19.2977
19.2965
19.7707
19.7717
19.7729
19.7739
19.7748
19.7756
19.7762
19.7767
19.7771
19.7774
19.7777
19.7779
19.7781
19.7783
19.7784
19.7785
19.7786
19.7786
19.7787
19.7787
19.7788
19.7788
19.7788
19.7788
19.7789
19.7789
19.7789
19.7789
19.7789
19.7789
19.7789
19.7789
19.7789
19.7789
19.7789
19.7789
19.7788
19.7788
19.7788
19.7788
19.7787
19.7787
19.7786
19.7786
19.7785
19.7784
19.7783
19.7781
19.7779
19.7777
19.7774
19.7771
19.7767
19.7762
19.7756
19.7748
19.7739
19.7729
19.7717
19.7707
20.1916
20.1926
20.1936
20.1945
20.1953
20.1959
20.1965
20.1969
20.1973
20.1976
20.1978
20.198
20.1982
20.1983
20.1984
20.1985
20.1986
20.1986
20.1987
20.1987
20.1988
20.1988
20.1988
20.1988
20.1989
20.1989
20.1989
20.1989
20.1989
20.1989
20.1989
20.1989
20.1989
20.1989
20.1989
20.1989
20.1988
20.1988
20.1988
20.1988
20.1987
20.1987
20.1986
20.1986
20.1985
20.1984
20.1983
20.1982
20.198
20.1978
20.1976
20.1973
20.1969
20.1965
20.1959
20.1953
20.1945
20.1936
20.1926
20.1916
20.5526
20.5534
20.5542
20.555
20.5556
20.5562
20.5566
20.557
20.5573
20.5576
20.5578
20.5579
20.5581
20.5582
20.5583
20.5584
20.5584
20.5585
20.5586
20.5586
20.5586
20.5587
20.5587
20.5587
20.5587
20.5587
20.5587
20.5588
20.5588
20.5588
20.5588
20.5588
20.5588
20.5587
20.5587
20.5587
20.5587
20.5587
20.5587
20.5586
20.5586
20.5586
20.5585
20.5584
20.5584
20.5583
20.5582
20.5581
20.5579
20.5578
20.5576
20.5573
20.557
20.5566
20.5562
20.5556
20.555
20.5542
20.5534
20.5526
20.8509
20.8515
20.8522
20.8528
20.8533
20.8537
20.8541
20.8544
20.8546
20.8548
20.855
20.8551
20.8553
20.8554
20.8555
20.8555
20.8556
20.8556
20.8557
20.8557
20.8558
20.8558
20.8558
20.8558
20.8558
20.8559
20.8559
20.8559
20.8559
20.8559
20.8559
20.8559
20.8559
20.8559
20.8559
20.8558
20.8558
20.8558
20.8558
20.8558
20.8557
20.8557
20.8556
20.8556
20.8555
20.8555
20.8554
20.8553
20.8551
20.855
20.8548
20.8546
20.8544
20.8541
20.8537
20.8533
20.8528
20.8522
20.8515
20.8509
21.0898
21.0902
21.0907
21.0911
21.0915
21.0918
21.0921
21.0924
21.0926
21.0927
21.0929
21.093
21.0931
21.0932
21.0932
21.0933
21.0934
21.0934
21.0934
21.0935
21.0935
21.0935
21.0936
21.0936
21.0936
21.0936
21.0936
21.0936
21.0936
21.0936
21.0936
21.0936
21.0936
21.0936
21.0936
21.0936
21.0936
21.0936
21.0935
21.0935
21.0935
21.0934
21.0934
21.0934
21.0933
21.0932
21.0932
21.0931
21.093
21.0929
21.0927
21.0926
21.0924
21.0921
21.0918
21.0915
21.0911
21.0907
21.0902
21.0898
21.2778
21.2781
21.2784
21.2788
21.2791
21.2793
21.2795
21.2797
21.2799
21.28
21.2801
21.2802
21.2803
21.2804
21.2804
21.2805
21.2805
21.2806
21.2806
21.2806
21.2807
21.2807
21.2807
21.2807
21.2808
21.2808
21.2808
21.2808
21.2808
21.2808
21.2808
21.2808
21.2808
21.2808
21.2808
21.2808
21.2807
21.2807
21.2807
21.2807
21.2806
21.2806
21.2806
21.2805
21.2805
21.2804
21.2804
21.2803
21.2802
21.2801
21.28
21.2799
21.2797
21.2795
21.2793
21.2791
21.2788
21.2784
21.2781
21.2778
21.4264
21.4266
21.4268
21.4271
21.4273
21.4275
21.4276
21.4278
21.4279
21.428
21.4281
21.4282
21.4283
21.4283
21.4284
21.4284
21.4285
21.4285
21.4286
21.4286
21.4286
21.4286
21.4287
21.4287
21.4287
21.4287
21.4287
21.4287
21.4287
21.4287
21.4287
21.4287
21.4287
21.4287
21.4287
21.4287
21.4287
21.4287
21.4286
21.4286
21.4286
21.4286
21.4285
21.4285
21.4284
21.4284
21.4283
21.4283
21.4282
21.4281
21.428
21.4279
21.4278
21.4276
21.4275
21.4273
21.4271
21.4268
21.4266
21.4264
21.5465
21.5466
21.5467
21.5469
21.5471
21.5472
21.5473
21.5474
21.5475
21.5476
21.5477
21.5478
21.5478
21.5479
21.548
21.548
21.5481
21.5481
21.5481
21.5482
21.5482
21.5482
21.5482
21.5483
21.5483
21.5483
21.5483
21.5483
21.5483
21.5483
21.5483
21.5483
21.5483
21.5483
21.5483
21.5483
21.5483
21.5482
21.5482
21.5482
21.5482
21.5481
21.5481
21.5481
21.548
21.548
21.5479
21.5478
21.5478
21.5477
21.5476
21.5475
21.5474
21.5473
21.5472
21.5471
21.5469
21.5467
21.5466
21.5465
21.6465
21.6466
21.6467
21.6468
21.6469
21.647
21.6471
21.6472
21.6473
21.6474
21.6475
21.6475
21.6476
21.6476
21.6477
21.6477
21.6478
21.6478
21.6479
21.6479
21.6479
21.6479
21.648
21.648
21.648
21.648
21.648
21.648
21.648
21.648
21.648
21.648
21.648
21.648
21.648
21.648
21.648
21.648
21.6479
21.6479
21.6479
21.6479
21.6478
21.6478
21.6477
21.6477
21.6476
21.6476
21.6475
21.6475
21.6474
21.6473
21.6472
21.6471
21.647
21.6469
21.6468
21.6467
21.6466
21.6465
21.7326
21.7326
21.7327
21.7328
21.7329
21.733
21.733
21.7331
21.7332
21.7333
21.7333
21.7334
21.7334
21.7335
21.7335
21.7336
21.7336
21.7337
21.7337
21.7337
21.7338
21.7338
21.7338
21.7338
21.7338
21.7339
21.7339
21.7339
21.7339
21.7339
21.7339
21.7339
21.7339
21.7339
21.7339
21.7338
21.7338
21.7338
21.7338
21.7338
21.7337
21.7337
21.7337
21.7336
21.7336
21.7335
21.7335
21.7334
21.7334
21.7333
21.7333
21.7332
21.7331
21.733
21.733
21.7329
21.7328
21.7327
21.7326
21.7326
21.8086
21.8086
21.8086
21.8087
21.8088
21.8088
21.8089
21.809
21.809
21.8091
21.8092
21.8092
21.8093
21.8093
21.8094
21.8094
21.8095
21.8095
21.8095
21.8096
21.8096
21.8096
21.8096
21.8097
21.8097
21.8097
21.8097
21.8097
21.8097
21.8097
21.8097
21.8097
21.8097
21.8097
21.8097
21.8097
21.8097
21.8096
21.8096
21.8096
21.8096
21.8095
21.8095
21.8095
21.8094
21.8094
21.8093
21.8093
21.8092
21.8092
21.8091
21.809
21.809
21.8089
21.8088
21.8088
21.8087
21.8086
21.8086
21.8086
21.877
21.8771
21.8771
21.8771
21.8772
21.8773
21.8773
21.8774
21.8774
21.8775
21.8775
21.8776
21.8777
21.8777
21.8778
21.8778
21.8778
21.8779
21.8779
21.8779
21.878
21.878
21.878
21.878
21.8781
21.8781
21.8781
21.8781
21.8781
21.8781
21.8781
21.8781
21.8781
21.8781
21.8781
21.8781
21.878
21.878
21.878
21.878
21.8779
21.8779
21.8779
21.8778
21.8778
21.8778
21.8777
21.8777
21.8776
21.8775
21.8775
21.8774
21.8774
21.8773
21.8773
21.8772
21.8771
21.8771
21.8771
21.877
21.9397
21.9397
21.9397
21.9398
21.9398
21.9399
21.9399
21.94
21.94
21.9401
21.9401
21.9402
21.9402
21.9403
21.9403
21.9404
21.9404
21.9405
21.9405
21.9405
21.9406
21.9406
21.9406
21.9406
21.9407
21.9407
21.9407
21.9407
21.9407
21.9407
21.9407
21.9407
21.9407
21.9407
21.9407
21.9407
21.9406
21.9406
21.9406
21.9406
21.9405
21.9405
21.9405
21.9404
21.9404
21.9403
21.9403
21.9402
21.9402
21.9401
21.9401
21.94
21.94
21.9399
21.9399
21.9398
21.9398
21.9397
21.9397
21.9397
21.9978
21.9977
21.9978
21.9978
21.9978
21.9979
21.9979
21.998
21.998
21.9981
21.9981
21.9982
21.9982
21.9983
21.9983
21.9984
21.9984
21.9984
21.9985
21.9985
21.9985
21.9986
21.9986
21.9986
21.9986
21.9986
21.9987
21.9987
21.9987
21.9987
21.9987
21.9987
21.9987
21.9987
21.9986
21.9986
21.9986
21.9986
21.9986
21.9985
21.9985
21.9985
21.9984
21.9984
21.9984
21.9983
21.9983
21.9982
21.9982
21.9981
21.9981
21.998
21.998
21.9979
21.9979
21.9978
21.9978
21.9978
21.9977
21.9978
22.052
22.052
22.052
22.052
22.052
22.0521
22.0521
22.0522
22.0522
22.0523
22.0523
22.0524
22.0524
22.0525
22.0525
22.0526
22.0526
22.0526
22.0527
22.0527
22.0528
22.0528
22.0528
22.0528
22.0528
22.0529
22.0529
22.0529
22.0529
22.0529
22.0529
22.0529
22.0529
22.0529
22.0529
22.0528
22.0528
22.0528
22.0528
22.0528
22.0527
22.0527
22.0526
22.0526
22.0526
22.0525
22.0525
22.0524
22.0524
22.0523
22.0523
22.0522
22.0522
22.0521
22.0521
22.052
22.052
22.052
22.052
22.052
22.1031
22.1031
22.1031
22.1031
22.1031
22.1032
22.1032
22.1033
22.1033
22.1034
22.1034
22.1035
22.1035
22.1036
22.1036
22.1036
22.1037
22.1037
22.1038
22.1038
22.1038
22.1039
22.1039
22.1039
22.1039
22.1039
22.104
22.104
22.104
22.104
22.104
22.104
22.104
22.104
22.1039
22.1039
22.1039
22.1039
22.1039
22.1038
22.1038
22.1038
22.1037
22.1037
22.1036
22.1036
22.1036
22.1035
22.1035
22.1034
22.1034
22.1033
22.1033
22.1032
22.1032
22.1031
22.1031
22.1031
22.1031
22.1031
22.1516
22.1516
22.1516
22.1516
22.1516
22.1516
22.1517
22.1517
22.1517
22.1518
22.1518
22.1519
22.1519
22.152
22.152
22.1521
22.1521
22.1522
22.1522
22.1523
22.1523
22.1523
22.1523
22.1524
22.1524
22.1524
22.1524
22.1524
22.1524
22.1524
22.1524
22.1524
22.1524
22.1524
22.1524
22.1524
22.1524
22.1523
22.1523
22.1523
22.1523
22.1522
22.1522
22.1521
22.1521
22.152
22.152
22.1519
22.1519
22.1518
22.1518
22.1517
22.1517
22.1517
22.1516
22.1516
22.1516
22.1516
22.1516
22.1516
22.1978
22.1978
22.1978
22.1978
22.1978
22.1978
22.1979
22.1979
22.198
22.198
22.1981
22.1981
22.1982
22.1982
22.1983
22.1983
22.1984
22.1984
22.1984
22.1985
22.1985
22.1985
22.1986
22.1986
22.1986
22.1986
22.1986
22.1986
22.1987
22.1987
22.1987
22.1987
22.1986
22.1986
22.1986
22.1986
22.1986
22.1986
22.1985
22.1985
22.1985
22.1984
22.1984
22.1984
22.1983
22.1983
22.1982
22.1982
22.1981
22.1981
22.198
22.198
22.1979
22.1979
22.1978
22.1978
22.1978
22.1978
22.1978
22.1978
22.2421
22.2421
22.2421
22.2421
22.2421
22.2421
22.2422
22.2422
22.2422
22.2423
22.2423
22.2424
22.2424
22.2425
22.2425
22.2426
22.2426
22.2427
22.2427
22.2428
22.2428
22.2428
22.2429
22.2429
22.2429
22.2429
22.2429
22.2429
22.243
22.243
22.243
22.243
22.2429
22.2429
22.2429
22.2429
22.2429
22.2429
22.2428
22.2428
22.2428
22.2427
22.2427
22.2426
22.2426
22.2425
22.2425
22.2424
22.2424
22.2423
22.2423
22.2422
22.2422
22.2422
22.2421
22.2421
22.2421
22.2421
22.2421
22.2421
22.2848
22.2848
22.2847
22.2847
22.2847
22.2848
22.2848
22.2848
22.2849
22.2849
22.285
22.285
22.2851
22.2851
22.2852
22.2852
22.2853
22.2853
22.2854
22.2854
22.2854
22.2855
22.2855
22.2855
22.2855
22.2856
22.2856
22.2856
22.2856
22.2856
22.2856
22.2856
22.2856
22.2856
22.2856
22.2855
22.2855
22.2855
22.2855
22.2854
22.2854
22.2854
22.2853
22.2853
22.2852
22.2852
22.2851
22.2851
22.285
22.285
22.2849
22.2849
22.2848
22.2848
22.2848
22.2847
22.2847
22.2847
22.2848
22.2848
22.326
22.3259
22.3259
22.3259
22.3259
22.326
22.326
22.326
22.3261
22.3261
22.3262
22.3262
22.3263
22.3263
22.3264
22.3264
22.3265
22.3265
22.3266
22.3266
22.3266
22.3267
22.3267
22.3267
22.3268
22.3268
22.3268
22.3268
22.3268
22.3268
22.3268
22.3268
22.3268
22.3268
22.3268
22.3268
22.3267
22.3267
22.3267
22.3266
22.3266
22.3266
22.3265
22.3265
22.3264
22.3264
22.3263
22.3263
22.3262
22.3262
22.3261
22.3261
22.326
22.326
22.326
22.3259
22.3259
22.3259
22.3259
22.326
22.3659
22.3659
22.3659
22.3659
22.3659
22.3659
22.3659
22.366
22.366
22.366
22.3661
22.3662
22.3662
22.3663
22.3663
22.3664
22.3664
22.3665
22.3665
22.3666
22.3666
22.3666
22.3667
22.3667
22.3667
22.3667
22.3667
22.3667
22.3668
22.3668
22.3668
22.3668
22.3667
22.3667
22.3667
22.3667
22.3667
22.3667
22.3666
22.3666
22.3666
22.3665
22.3665
22.3664
22.3664
22.3663
22.3663
22.3662
22.3662
22.3661
22.366
22.366
22.366
22.3659
22.3659
22.3659
22.3659
22.3659
22.3659
22.3659
22.4047
22.4047
22.4047
22.4047
22.4047
22.4047
22.4048
22.4048
22.4048
22.4049
22.4049
22.405
22.405
22.4051
22.4052
22.4052
22.4053
22.4053
22.4054
22.4054
22.4054
22.4055
22.4055
22.4055
22.4056
22.4056
22.4056
22.4056
22.4056
22.4056
22.4056
22.4056
22.4056
22.4056
22.4056
22.4056
22.4055
22.4055
22.4055
22.4054
22.4054
22.4054
22.4053
22.4053
22.4052
22.4052
22.4051
22.405
22.405
22.4049
22.4049
22.4048
22.4048
22.4048
22.4047
22.4047
22.4047
22.4047
22.4047
22.4047
22.4426
22.4426
22.4426
22.4426
22.4426
22.4426
22.4426
22.4427
22.4427
22.4428
22.4428
22.4429
22.4429
22.443
22.443
22.4431
22.4431
22.4432
22.4432
22.4433
22.4433
22.4434
22.4434
22.4434
22.4434
22.4435
22.4435
22.4435
22.4435
22.4435
22.4435
22.4435
22.4435
22.4435
22.4435
22.4434
22.4434
22.4434
22.4434
22.4433
22.4433
22.4432
22.4432
22.4431
22.4431
22.443
22.443
22.4429
22.4429
22.4428
22.4428
22.4427
22.4427
22.4426
22.4426
22.4426
22.4426
22.4426
22.4426
22.4426
22.4796
22.4796
22.4796
22.4796
22.4796
22.4796
22.4797
22.4797
22.4797
22.4798
22.4798
22.4799
22.48
22.48
22.4801
22.4801
22.4802
22.4802
22.4803
22.4803
22.4804
22.4804
22.4804
22.4805
22.4805
22.4805
22.4805
22.4805
22.4805
22.4805
22.4805
22.4805
22.4805
22.4805
22.4805
22.4805
22.4805
22.4804
22.4804
22.4804
22.4803
22.4803
22.4802
22.4802
22.4801
22.4801
22.48
22.48
22.4799
22.4798
22.4798
22.4797
22.4797
22.4797
22.4796
22.4796
22.4796
22.4796
22.4796
22.4796
22.5159
22.5159
22.5159
22.5159
22.5159
22.5159
22.5159
22.516
22.516
22.5161
22.5161
22.5162
22.5162
22.5163
22.5164
22.5164
22.5165
22.5165
22.5166
22.5166
22.5167
22.5167
22.5167
22.5168
22.5168
22.5168
22.5168
22.5168
22.5168
22.5169
22.5169
22.5168
22.5168
22.5168
22.5168
22.5168
22.5168
22.5167
22.5167
22.5167
22.5166
22.5166
22.5165
22.5165
22.5164
22.5164
22.5163
22.5162
22.5162
22.5161
22.5161
22.516
22.516
22.5159
22.5159
22.5159
22.5159
22.5159
22.5159
22.5159
22.5515
22.5515
22.5515
22.5515
22.5515
22.5515
22.5516
22.5516
22.5517
22.5517
22.5518
22.5518
22.5519
22.5519
22.552
22.5521
22.5521
22.5522
22.5522
22.5523
22.5523
22.5523
22.5524
22.5524
22.5524
22.5525
22.5525
22.5525
22.5525
22.5525
22.5525
22.5525
22.5525
22.5525
22.5525
22.5524
22.5524
22.5524
22.5523
22.5523
22.5523
22.5522
22.5522
22.5521
22.5521
22.552
22.5519
22.5519
22.5518
22.5518
22.5517
22.5517
22.5516
22.5516
22.5515
22.5515
22.5515
22.5515
22.5515
22.5515
22.5866
22.5866
22.5866
22.5866
22.5866
22.5866
22.5866
22.5867
22.5867
22.5868
22.5868
22.5869
22.5869
22.587
22.5871
22.5871
22.5872
22.5872
22.5873
22.5873
22.5874
22.5874
22.5875
22.5875
22.5875
22.5875
22.5876
22.5876
22.5876
22.5876
22.5876
22.5876
22.5876
22.5876
22.5875
22.5875
22.5875
22.5875
22.5874
22.5874
22.5873
22.5873
22.5872
22.5872
22.5871
22.5871
22.587
22.5869
22.5869
22.5868
22.5868
22.5867
22.5867
22.5866
22.5866
22.5866
22.5866
22.5866
22.5866
22.5866
22.6212
22.6211
22.6211
22.6211
22.6211
22.6212
22.6212
22.6212
22.6213
22.6213
22.6214
22.6215
22.6215
22.6216
22.6216
22.6217
22.6218
22.6218
22.6219
22.6219
22.622
22.622
22.6221
22.6221
22.6221
22.6221
22.6222
22.6222
22.6222
22.6222
22.6222
22.6222
22.6222
22.6222
22.6221
22.6221
22.6221
22.6221
22.622
22.622
22.6219
22.6219
22.6218
22.6218
22.6217
22.6216
22.6216
22.6215
22.6215
22.6214
22.6213
22.6213
22.6212
22.6212
22.6212
22.6211
22.6211
22.6211
22.6211
22.6212
22.6553
22.6553
22.6553
22.6553
22.6553
22.6553
22.6553
22.6554
22.6554