/*--------------------------------*- C++ -*----------------------------------*\
| =========                 |                                                 |
| \\      /  F ield         | foam-extend: Open Source CFD                    |
|  \\    /   O peration     | Version:     4.0                                |
|   \\  /    A nd           | Web:         http://www.foam-extend.org         |
|    \\/     M anipulation  |                                                 |
\*---------------------------------------------------------------------------*/
FoamFile
{
    version     2.0;
    format      ascii;
    class       volScalarField;
    location    "10";
    object      cMinus;
}
// * * * * * * * * * * * * * * * * * * * * * * * * * * * * * * * * * * * * * //

dimensions      [0 -3 0 0 0 0 0];

internalField   nonuniform List<scalar> 
6960
(
4.37915e-05
4.37914e-05
4.37913e-05
4.37911e-05
4.3791e-05
4.37908e-05
4.37906e-05
4.37905e-05
4.37903e-05
4.37901e-05
4.37899e-05
4.37897e-05
4.37895e-05
4.37893e-05
4.37892e-05
4.3789e-05
4.37889e-05
4.37887e-05
4.37886e-05
4.37885e-05
4.37884e-05
4.37883e-05
4.37882e-05
4.37881e-05
4.3788e-05
4.3788e-05
4.37879e-05
4.37879e-05
4.37879e-05
4.37879e-05
4.37879e-05
4.37879e-05
4.37879e-05
4.37879e-05
4.3788e-05
4.3788e-05
4.37881e-05
4.37882e-05
4.37883e-05
4.37884e-05
4.37885e-05
4.37886e-05
4.37887e-05
4.37889e-05
4.3789e-05
4.37892e-05
4.37893e-05
4.37895e-05
4.37897e-05
4.37899e-05
4.37901e-05
4.37903e-05
4.37905e-05
4.37906e-05
4.37908e-05
4.3791e-05
4.37911e-05
4.37913e-05
4.37914e-05
4.37915e-05
4.42401e-05
4.424e-05
4.42399e-05
4.42397e-05
4.42396e-05
4.42394e-05
4.42392e-05
4.4239e-05
4.42388e-05
4.42386e-05
4.42384e-05
4.42383e-05
4.42381e-05
4.42379e-05
4.42377e-05
4.42376e-05
4.42374e-05
4.42373e-05
4.42371e-05
4.4237e-05
4.42369e-05
4.42368e-05
4.42367e-05
4.42366e-05
4.42366e-05
4.42365e-05
4.42365e-05
4.42365e-05
4.42364e-05
4.42364e-05
4.42364e-05
4.42364e-05
4.42365e-05
4.42365e-05
4.42365e-05
4.42366e-05
4.42366e-05
4.42367e-05
4.42368e-05
4.42369e-05
4.4237e-05
4.42371e-05
4.42373e-05
4.42374e-05
4.42376e-05
4.42377e-05
4.42379e-05
4.42381e-05
4.42383e-05
4.42384e-05
4.42386e-05
4.42388e-05
4.4239e-05
4.42392e-05
4.42394e-05
4.42396e-05
4.42397e-05
4.42399e-05
4.424e-05
4.42401e-05
4.47072e-05
4.4707e-05
4.47069e-05
4.47068e-05
4.47066e-05
4.47064e-05
4.47062e-05
4.47061e-05
4.47059e-05
4.47057e-05
4.47055e-05
4.47053e-05
4.47051e-05
4.47049e-05
4.47048e-05
4.47046e-05
4.47044e-05
4.47043e-05
4.47042e-05
4.4704e-05
4.47039e-05
4.47038e-05
4.47037e-05
4.47037e-05
4.47036e-05
4.47035e-05
4.47035e-05
4.47035e-05
4.47035e-05
4.47034e-05
4.47034e-05
4.47035e-05
4.47035e-05
4.47035e-05
4.47035e-05
4.47036e-05
4.47037e-05
4.47037e-05
4.47038e-05
4.47039e-05
4.4704e-05
4.47042e-05
4.47043e-05
4.47044e-05
4.47046e-05
4.47048e-05
4.47049e-05
4.47051e-05
4.47053e-05
4.47055e-05
4.47057e-05
4.47059e-05
4.47061e-05
4.47062e-05
4.47064e-05
4.47066e-05
4.47068e-05
4.47069e-05
4.4707e-05
4.47072e-05
4.51936e-05
4.51935e-05
4.51933e-05
4.51932e-05
4.5193e-05
4.51929e-05
4.51927e-05
4.51925e-05
4.51923e-05
4.51921e-05
4.51919e-05
4.51917e-05
4.51915e-05
4.51913e-05
4.51912e-05
4.5191e-05
4.51908e-05
4.51907e-05
4.51906e-05
4.51904e-05
4.51903e-05
4.51902e-05
4.51901e-05
4.51901e-05
4.519e-05
4.51899e-05
4.51899e-05
4.51899e-05
4.51899e-05
4.51898e-05
4.51898e-05
4.51899e-05
4.51899e-05
4.51899e-05
4.51899e-05
4.519e-05
4.51901e-05
4.51901e-05
4.51902e-05
4.51903e-05
4.51904e-05
4.51906e-05
4.51907e-05
4.51908e-05
4.5191e-05
4.51912e-05
4.51913e-05
4.51915e-05
4.51917e-05
4.51919e-05
4.51921e-05
4.51923e-05
4.51925e-05
4.51927e-05
4.51929e-05
4.5193e-05
4.51932e-05
4.51933e-05
4.51935e-05
4.51936e-05
4.57004e-05
4.57003e-05
4.57001e-05
4.57e-05
4.56998e-05
4.56996e-05
4.56994e-05
4.56993e-05
4.56991e-05
4.56989e-05
4.56987e-05
4.56985e-05
4.56983e-05
4.56981e-05
4.56979e-05
4.56977e-05
4.56976e-05
4.56974e-05
4.56973e-05
4.56972e-05
4.56971e-05
4.5697e-05
4.56969e-05
4.56968e-05
4.56967e-05
4.56967e-05
4.56966e-05
4.56966e-05
4.56966e-05
4.56966e-05
4.56966e-05
4.56966e-05
4.56966e-05
4.56966e-05
4.56967e-05
4.56967e-05
4.56968e-05
4.56969e-05
4.5697e-05
4.56971e-05
4.56972e-05
4.56973e-05
4.56974e-05
4.56976e-05
4.56977e-05
4.56979e-05
4.56981e-05
4.56983e-05
4.56985e-05
4.56987e-05
4.56989e-05
4.56991e-05
4.56993e-05
4.56994e-05
4.56996e-05
4.56998e-05
4.57e-05
4.57001e-05
4.57003e-05
4.57004e-05
4.62285e-05
4.62284e-05
4.62283e-05
4.62281e-05
4.62279e-05
4.62278e-05
4.62276e-05
4.62274e-05
4.62272e-05
4.6227e-05
4.62268e-05
4.62266e-05
4.62264e-05
4.62262e-05
4.6226e-05
4.62259e-05
4.62257e-05
4.62255e-05
4.62254e-05
4.62253e-05
4.62252e-05
4.62251e-05
4.6225e-05
4.62249e-05
4.62248e-05
4.62248e-05
4.62247e-05
4.62247e-05
4.62247e-05
4.62247e-05
4.62247e-05
4.62247e-05
4.62247e-05
4.62247e-05
4.62248e-05
4.62248e-05
4.62249e-05
4.6225e-05
4.62251e-05
4.62252e-05
4.62253e-05
4.62254e-05
4.62255e-05
4.62257e-05
4.62259e-05
4.6226e-05
4.62262e-05
4.62264e-05
4.62266e-05
4.62268e-05
4.6227e-05
4.62272e-05
4.62274e-05
4.62276e-05
4.62278e-05
4.62279e-05
4.62281e-05
4.62283e-05
4.62284e-05
4.62285e-05
4.67791e-05
4.6779e-05
4.67788e-05
4.67787e-05
4.67785e-05
4.67783e-05
4.67781e-05
4.6778e-05
4.67778e-05
4.67775e-05
4.67773e-05
4.67771e-05
4.6777e-05
4.67768e-05
4.67766e-05
4.67764e-05
4.67762e-05
4.67761e-05
4.6776e-05
4.67758e-05
4.67757e-05
4.67756e-05
4.67755e-05
4.67754e-05
4.67754e-05
4.67753e-05
4.67753e-05
4.67753e-05
4.67752e-05
4.67752e-05
4.67752e-05
4.67752e-05
4.67753e-05
4.67753e-05
4.67753e-05
4.67754e-05
4.67754e-05
4.67755e-05
4.67756e-05
4.67757e-05
4.67758e-05
4.6776e-05
4.67761e-05
4.67762e-05
4.67764e-05
4.67766e-05
4.67768e-05
4.6777e-05
4.67771e-05
4.67773e-05
4.67775e-05
4.67778e-05
4.6778e-05
4.67781e-05
4.67783e-05
4.67785e-05
4.67787e-05
4.67788e-05
4.6779e-05
4.67791e-05
4.73533e-05
4.73531e-05
4.7353e-05
4.73528e-05
4.73527e-05
4.73525e-05
4.73523e-05
4.73521e-05
4.73519e-05
4.73517e-05
4.73515e-05
4.73513e-05
4.73511e-05
4.73509e-05
4.73507e-05
4.73506e-05
4.73504e-05
4.73502e-05
4.73501e-05
4.735e-05
4.73499e-05
4.73497e-05
4.73497e-05
4.73496e-05
4.73495e-05
4.73495e-05
4.73494e-05
4.73494e-05
4.73494e-05
4.73493e-05
4.73493e-05
4.73494e-05
4.73494e-05
4.73494e-05
4.73495e-05
4.73495e-05
4.73496e-05
4.73497e-05
4.73497e-05
4.73499e-05
4.735e-05
4.73501e-05
4.73502e-05
4.73504e-05
4.73506e-05
4.73507e-05
4.73509e-05
4.73511e-05
4.73513e-05
4.73515e-05
4.73517e-05
4.73519e-05
4.73521e-05
4.73523e-05
4.73525e-05
4.73527e-05
4.73528e-05
4.7353e-05
4.73531e-05
4.73533e-05
4.79523e-05
4.79521e-05
4.7952e-05
4.79518e-05
4.79517e-05
4.79515e-05
4.79513e-05
4.79511e-05
4.79509e-05
4.79507e-05
4.79505e-05
4.79503e-05
4.79501e-05
4.79499e-05
4.79497e-05
4.79495e-05
4.79493e-05
4.79492e-05
4.7949e-05
4.79489e-05
4.79488e-05
4.79487e-05
4.79486e-05
4.79485e-05
4.79484e-05
4.79484e-05
4.79483e-05
4.79483e-05
4.79483e-05
4.79483e-05
4.79483e-05
4.79483e-05
4.79483e-05
4.79483e-05
4.79484e-05
4.79484e-05
4.79485e-05
4.79486e-05
4.79487e-05
4.79488e-05
4.79489e-05
4.7949e-05
4.79492e-05
4.79493e-05
4.79495e-05
4.79497e-05
4.79499e-05
4.79501e-05
4.79503e-05
4.79505e-05
4.79507e-05
4.79509e-05
4.79511e-05
4.79513e-05
4.79515e-05
4.79517e-05
4.79518e-05
4.7952e-05
4.79521e-05
4.79523e-05
4.85773e-05
4.85772e-05
4.85771e-05
4.85769e-05
4.85767e-05
4.85765e-05
4.85764e-05
4.85761e-05
4.85759e-05
4.85757e-05
4.85755e-05
4.85753e-05
4.85751e-05
4.85749e-05
4.85747e-05
4.85746e-05
4.85744e-05
4.85742e-05
4.85741e-05
4.8574e-05
4.85738e-05
4.85737e-05
4.85736e-05
4.85736e-05
4.85735e-05
4.85734e-05
4.85734e-05
4.85734e-05
4.85733e-05
4.85733e-05
4.85733e-05
4.85733e-05
4.85734e-05
4.85734e-05
4.85734e-05
4.85735e-05
4.85736e-05
4.85736e-05
4.85737e-05
4.85738e-05
4.8574e-05
4.85741e-05
4.85742e-05
4.85744e-05
4.85746e-05
4.85747e-05
4.85749e-05
4.85751e-05
4.85753e-05
4.85755e-05
4.85757e-05
4.85759e-05
4.85761e-05
4.85764e-05
4.85765e-05
4.85767e-05
4.85769e-05
4.85771e-05
4.85772e-05
4.85773e-05
4.92299e-05
4.92298e-05
4.92296e-05
4.92295e-05
4.92293e-05
4.92291e-05
4.92289e-05
4.92287e-05
4.92285e-05
4.92283e-05
4.92281e-05
4.92279e-05
4.92277e-05
4.92275e-05
4.92273e-05
4.92271e-05
4.92269e-05
4.92268e-05
4.92266e-05
4.92265e-05
4.92264e-05
4.92263e-05
4.92262e-05
4.92261e-05
4.9226e-05
4.9226e-05
4.92259e-05
4.92259e-05
4.92259e-05
4.92259e-05
4.92259e-05
4.92259e-05
4.92259e-05
4.92259e-05
4.9226e-05
4.9226e-05
4.92261e-05
4.92262e-05
4.92263e-05
4.92264e-05
4.92265e-05
4.92266e-05
4.92268e-05
4.92269e-05
4.92271e-05
4.92273e-05
4.92275e-05
4.92277e-05
4.92279e-05
4.92281e-05
4.92283e-05
4.92285e-05
4.92287e-05
4.92289e-05
4.92291e-05
4.92293e-05
4.92295e-05
4.92296e-05
4.92298e-05
4.92299e-05
4.99115e-05
4.99113e-05
4.99112e-05
4.9911e-05
4.99108e-05
4.99106e-05
4.99104e-05
4.99102e-05
4.991e-05
4.99098e-05
4.99096e-05
4.99094e-05
4.99092e-05
4.9909e-05
4.99088e-05
4.99086e-05
4.99084e-05
4.99083e-05
4.99081e-05
4.9908e-05
4.99079e-05
4.99078e-05
4.99077e-05
4.99076e-05
4.99075e-05
4.99075e-05
4.99074e-05
4.99074e-05
4.99074e-05
4.99073e-05
4.99073e-05
4.99074e-05
4.99074e-05
4.99074e-05
4.99075e-05
4.99075e-05
4.99076e-05
4.99077e-05
4.99078e-05
4.99079e-05
4.9908e-05
4.99081e-05
4.99083e-05
4.99084e-05
4.99086e-05
4.99088e-05
4.9909e-05
4.99092e-05
4.99094e-05
4.99096e-05
4.99098e-05
4.991e-05
4.99102e-05
4.99104e-05
4.99106e-05
4.99108e-05
4.9911e-05
4.99112e-05
4.99113e-05
4.99115e-05
5.06235e-05
5.06234e-05
5.06232e-05
5.06231e-05
5.06229e-05
5.06227e-05
5.06225e-05
5.06223e-05
5.06221e-05
5.06218e-05
5.06216e-05
5.06214e-05
5.06212e-05
5.0621e-05
5.06208e-05
5.06206e-05
5.06205e-05
5.06203e-05
5.06201e-05
5.062e-05
5.06199e-05
5.06198e-05
5.06197e-05
5.06196e-05
5.06195e-05
5.06195e-05
5.06194e-05
5.06194e-05
5.06194e-05
5.06194e-05
5.06194e-05
5.06194e-05
5.06194e-05
5.06194e-05
5.06195e-05
5.06195e-05
5.06196e-05
5.06197e-05
5.06198e-05
5.06199e-05
5.062e-05
5.06201e-05
5.06203e-05
5.06205e-05
5.06206e-05
5.06208e-05
5.0621e-05
5.06212e-05
5.06214e-05
5.06216e-05
5.06218e-05
5.06221e-05
5.06223e-05
5.06225e-05
5.06227e-05
5.06229e-05
5.06231e-05
5.06232e-05
5.06234e-05
5.06235e-05
5.13678e-05
5.13676e-05
5.13675e-05
5.13673e-05
5.13671e-05
5.13669e-05
5.13667e-05
5.13665e-05
5.13663e-05
5.13661e-05
5.13659e-05
5.13657e-05
5.13654e-05
5.13652e-05
5.1365e-05
5.13649e-05
5.13647e-05
5.13645e-05
5.13644e-05
5.13642e-05
5.13641e-05
5.1364e-05
5.13639e-05
5.13638e-05
5.13637e-05
5.13637e-05
5.13636e-05
5.13636e-05
5.13636e-05
5.13636e-05
5.13636e-05
5.13636e-05
5.13636e-05
5.13636e-05
5.13637e-05
5.13637e-05
5.13638e-05
5.13639e-05
5.1364e-05
5.13641e-05
5.13642e-05
5.13644e-05
5.13645e-05
5.13647e-05
5.13649e-05
5.1365e-05
5.13652e-05
5.13654e-05
5.13657e-05
5.13659e-05
5.13661e-05
5.13663e-05
5.13665e-05
5.13667e-05
5.13669e-05
5.13671e-05
5.13673e-05
5.13675e-05
5.13676e-05
5.13678e-05
5.2146e-05
5.21459e-05
5.21457e-05
5.21456e-05
5.21454e-05
5.21452e-05
5.2145e-05
5.21447e-05
5.21445e-05
5.21443e-05
5.21441e-05
5.21439e-05
5.21437e-05
5.21434e-05
5.21432e-05
5.21431e-05
5.21429e-05
5.21427e-05
5.21426e-05
5.21424e-05
5.21423e-05
5.21422e-05
5.21421e-05
5.2142e-05
5.21419e-05
5.21419e-05
5.21418e-05
5.21418e-05
5.21418e-05
5.21418e-05
5.21418e-05
5.21418e-05
5.21418e-05
5.21418e-05
5.21419e-05
5.21419e-05
5.2142e-05
5.21421e-05
5.21422e-05
5.21423e-05
5.21424e-05
5.21426e-05
5.21427e-05
5.21429e-05
5.21431e-05
5.21432e-05
5.21434e-05
5.21437e-05
5.21439e-05
5.21441e-05
5.21443e-05
5.21445e-05
5.21447e-05
5.2145e-05
5.21452e-05
5.21454e-05
5.21456e-05
5.21457e-05
5.21459e-05
5.2146e-05
5.29602e-05
5.296e-05
5.29599e-05
5.29597e-05
5.29595e-05
5.29593e-05
5.29591e-05
5.29589e-05
5.29586e-05
5.29584e-05
5.29582e-05
5.2958e-05
5.29577e-05
5.29575e-05
5.29573e-05
5.29571e-05
5.2957e-05
5.29568e-05
5.29566e-05
5.29565e-05
5.29564e-05
5.29563e-05
5.29562e-05
5.29561e-05
5.2956e-05
5.29559e-05
5.29559e-05
5.29559e-05
5.29558e-05
5.29558e-05
5.29558e-05
5.29558e-05
5.29559e-05
5.29559e-05
5.29559e-05
5.2956e-05
5.29561e-05
5.29562e-05
5.29563e-05
5.29564e-05
5.29565e-05
5.29566e-05
5.29568e-05
5.2957e-05
5.29571e-05
5.29573e-05
5.29575e-05
5.29577e-05
5.2958e-05
5.29582e-05
5.29584e-05
5.29586e-05
5.29589e-05
5.29591e-05
5.29593e-05
5.29595e-05
5.29597e-05
5.29599e-05
5.296e-05
5.29602e-05
5.38122e-05
5.38121e-05
5.38119e-05
5.38117e-05
5.38115e-05
5.38113e-05
5.38111e-05
5.38109e-05
5.38107e-05
5.38104e-05
5.38102e-05
5.381e-05
5.38098e-05
5.38096e-05
5.38094e-05
5.38092e-05
5.3809e-05
5.38088e-05
5.38087e-05
5.38085e-05
5.38084e-05
5.38083e-05
5.38082e-05
5.38081e-05
5.3808e-05
5.38079e-05
5.38079e-05
5.38079e-05
5.38078e-05
5.38078e-05
5.38078e-05
5.38078e-05
5.38079e-05
5.38079e-05
5.38079e-05
5.3808e-05
5.38081e-05
5.38082e-05
5.38083e-05
5.38084e-05
5.38085e-05
5.38087e-05
5.38088e-05
5.3809e-05
5.38092e-05
5.38094e-05
5.38096e-05
5.38098e-05
5.381e-05
5.38102e-05
5.38104e-05
5.38107e-05
5.38109e-05
5.38111e-05
5.38113e-05
5.38115e-05
5.38117e-05
5.38119e-05
5.38121e-05
5.38122e-05
5.47044e-05
5.47042e-05
5.47041e-05
5.47039e-05
5.47037e-05
5.47035e-05
5.47033e-05
5.4703e-05
5.47028e-05
5.47026e-05
5.47023e-05
5.47021e-05
5.47019e-05
5.47017e-05
5.47015e-05
5.47013e-05
5.47011e-05
5.47009e-05
5.47008e-05
5.47006e-05
5.47005e-05
5.47004e-05
5.47003e-05
5.47002e-05
5.47001e-05
5.47001e-05
5.47e-05
5.47e-05
5.46999e-05
5.46999e-05
5.46999e-05
5.46999e-05
5.47e-05
5.47e-05
5.47001e-05
5.47001e-05
5.47002e-05
5.47003e-05
5.47004e-05
5.47005e-05
5.47006e-05
5.47008e-05
5.47009e-05
5.47011e-05
5.47013e-05
5.47015e-05
5.47017e-05
5.47019e-05
5.47021e-05
5.47023e-05
5.47026e-05
5.47028e-05
5.4703e-05
5.47033e-05
5.47035e-05
5.47037e-05
5.47039e-05
5.47041e-05
5.47042e-05
5.47044e-05
5.5639e-05
5.56388e-05
5.56387e-05
5.56385e-05
5.56383e-05
5.56381e-05
5.56378e-05
5.56376e-05
5.56374e-05
5.56371e-05
5.56369e-05
5.56367e-05
5.56365e-05
5.56362e-05
5.5636e-05
5.56358e-05
5.56357e-05
5.56355e-05
5.56353e-05
5.56352e-05
5.5635e-05
5.56349e-05
5.56348e-05
5.56347e-05
5.56347e-05
5.56346e-05
5.56345e-05
5.56345e-05
5.56345e-05
5.56345e-05
5.56345e-05
5.56345e-05
5.56345e-05
5.56345e-05
5.56346e-05
5.56347e-05
5.56347e-05
5.56348e-05
5.56349e-05
5.5635e-05
5.56352e-05
5.56353e-05
5.56355e-05
5.56357e-05
5.56358e-05
5.5636e-05
5.56362e-05
5.56365e-05
5.56367e-05
5.56369e-05
5.56371e-05
5.56374e-05
5.56376e-05
5.56378e-05
5.56381e-05
5.56383e-05
5.56385e-05
5.56387e-05
5.56388e-05
5.5639e-05
5.66185e-05
5.66184e-05
5.66182e-05
5.6618e-05
5.66178e-05
5.66176e-05
5.66174e-05
5.66171e-05
5.66169e-05
5.66167e-05
5.66164e-05
5.66162e-05
5.6616e-05
5.66157e-05
5.66155e-05
5.66153e-05
5.66151e-05
5.6615e-05
5.66148e-05
5.66147e-05
5.66145e-05
5.66144e-05
5.66143e-05
5.66142e-05
5.66141e-05
5.66141e-05
5.6614e-05
5.6614e-05
5.66139e-05
5.66139e-05
5.66139e-05
5.66139e-05
5.6614e-05
5.6614e-05
5.66141e-05
5.66141e-05
5.66142e-05
5.66143e-05
5.66144e-05
5.66145e-05
5.66147e-05
5.66148e-05
5.6615e-05
5.66151e-05
5.66153e-05
5.66155e-05
5.66157e-05
5.6616e-05
5.66162e-05
5.66164e-05
5.66167e-05
5.66169e-05
5.66171e-05
5.66174e-05
5.66176e-05
5.66178e-05
5.6618e-05
5.66182e-05
5.66184e-05
5.66185e-05
5.76457e-05
5.76455e-05
5.76453e-05
5.76451e-05
5.76449e-05
5.76447e-05
5.76445e-05
5.76443e-05
5.7644e-05
5.76438e-05
5.76435e-05
5.76433e-05
5.76431e-05
5.76428e-05
5.76426e-05
5.76424e-05
5.76422e-05
5.76421e-05
5.76419e-05
5.76417e-05
5.76416e-05
5.76415e-05
5.76414e-05
5.76413e-05
5.76412e-05
5.76412e-05
5.76411e-05
5.76411e-05
5.7641e-05
5.7641e-05
5.7641e-05
5.7641e-05
5.76411e-05
5.76411e-05
5.76412e-05
5.76412e-05
5.76413e-05
5.76414e-05
5.76415e-05
5.76416e-05
5.76417e-05
5.76419e-05
5.76421e-05
5.76422e-05
5.76424e-05
5.76426e-05
5.76428e-05
5.76431e-05
5.76433e-05
5.76435e-05
5.76438e-05
5.7644e-05
5.76443e-05
5.76445e-05
5.76447e-05
5.76449e-05
5.76451e-05
5.76453e-05
5.76455e-05
5.76457e-05
5.87233e-05
5.87231e-05
5.8723e-05
5.87228e-05
5.87226e-05
5.87223e-05
5.87221e-05
5.87219e-05
5.87216e-05
5.87214e-05
5.87211e-05
5.87209e-05
5.87207e-05
5.87204e-05
5.87202e-05
5.872e-05
5.87198e-05
5.87197e-05
5.87195e-05
5.87193e-05
5.87192e-05
5.87191e-05
5.8719e-05
5.87189e-05
5.87188e-05
5.87187e-05
5.87187e-05
5.87186e-05
5.87186e-05
5.87186e-05
5.87186e-05
5.87186e-05
5.87186e-05
5.87187e-05
5.87187e-05
5.87188e-05
5.87189e-05
5.8719e-05
5.87191e-05
5.87192e-05
5.87193e-05
5.87195e-05
5.87197e-05
5.87198e-05
5.872e-05
5.87202e-05
5.87204e-05
5.87207e-05
5.87209e-05
5.87211e-05
5.87214e-05
5.87216e-05
5.87219e-05
5.87221e-05
5.87223e-05
5.87226e-05
5.87228e-05
5.8723e-05
5.87231e-05
5.87233e-05
5.98545e-05
5.98544e-05
5.98542e-05
5.9854e-05
5.98538e-05
5.98536e-05
5.98533e-05
5.98531e-05
5.98528e-05
5.98526e-05
5.98523e-05
5.98521e-05
5.98519e-05
5.98516e-05
5.98514e-05
5.98512e-05
5.9851e-05
5.98508e-05
5.98507e-05
5.98505e-05
5.98504e-05
5.98503e-05
5.98501e-05
5.985e-05
5.985e-05
5.98499e-05
5.98498e-05
5.98498e-05
5.98498e-05
5.98498e-05
5.98498e-05
5.98498e-05
5.98498e-05
5.98498e-05
5.98499e-05
5.985e-05
5.985e-05
5.98501e-05
5.98503e-05
5.98504e-05
5.98505e-05
5.98507e-05
5.98508e-05
5.9851e-05
5.98512e-05
5.98514e-05
5.98516e-05
5.98519e-05
5.98521e-05
5.98523e-05
5.98526e-05
5.98528e-05
5.98531e-05
5.98533e-05
5.98536e-05
5.98538e-05
5.9854e-05
5.98542e-05
5.98544e-05
5.98545e-05
6.10427e-05
6.10425e-05
6.10423e-05
6.10421e-05
6.10419e-05
6.10417e-05
6.10414e-05
6.10412e-05
6.10409e-05
6.10407e-05
6.10404e-05
6.10402e-05
6.104e-05
6.10397e-05
6.10395e-05
6.10393e-05
6.10391e-05
6.10389e-05
6.10387e-05
6.10386e-05
6.10385e-05
6.10383e-05
6.10382e-05
6.10381e-05
6.1038e-05
6.1038e-05
6.10379e-05
6.10379e-05
6.10379e-05
6.10378e-05
6.10378e-05
6.10379e-05
6.10379e-05
6.10379e-05
6.1038e-05
6.1038e-05
6.10381e-05
6.10382e-05
6.10383e-05
6.10385e-05
6.10386e-05
6.10387e-05
6.10389e-05
6.10391e-05
6.10393e-05
6.10395e-05
6.10397e-05
6.104e-05
6.10402e-05
6.10404e-05
6.10407e-05
6.10409e-05
6.10412e-05
6.10414e-05
6.10417e-05
6.10419e-05
6.10421e-05
6.10423e-05
6.10425e-05
6.10427e-05
6.22913e-05
6.22911e-05
6.22909e-05
6.22907e-05
6.22905e-05
6.22903e-05
6.229e-05
6.22898e-05
6.22895e-05
6.22893e-05
6.2289e-05
6.22888e-05
6.22885e-05
6.22883e-05
6.22881e-05
6.22879e-05
6.22877e-05
6.22875e-05
6.22873e-05
6.22872e-05
6.2287e-05
6.22869e-05
6.22868e-05
6.22867e-05
6.22866e-05
6.22865e-05
6.22865e-05
6.22864e-05
6.22864e-05
6.22864e-05
6.22864e-05
6.22864e-05
6.22864e-05
6.22865e-05
6.22865e-05
6.22866e-05
6.22867e-05
6.22868e-05
6.22869e-05
6.2287e-05
6.22872e-05
6.22873e-05
6.22875e-05
6.22877e-05
6.22879e-05
6.22881e-05
6.22883e-05
6.22885e-05
6.22888e-05
6.2289e-05
6.22893e-05
6.22895e-05
6.22898e-05
6.229e-05
6.22903e-05
6.22905e-05
6.22907e-05
6.22909e-05
6.22911e-05
6.22913e-05
6.36043e-05
6.36041e-05
6.36039e-05
6.36037e-05
6.36035e-05
6.36032e-05
6.3603e-05
6.36027e-05
6.36025e-05
6.36022e-05
6.3602e-05
6.36017e-05
6.36015e-05
6.36012e-05
6.3601e-05
6.36008e-05
6.36006e-05
6.36004e-05
6.36002e-05
6.36001e-05
6.35999e-05
6.35998e-05
6.35997e-05
6.35996e-05
6.35995e-05
6.35994e-05
6.35994e-05
6.35993e-05
6.35993e-05
6.35993e-05
6.35993e-05
6.35993e-05
6.35993e-05
6.35994e-05
6.35994e-05
6.35995e-05
6.35996e-05
6.35997e-05
6.35998e-05
6.35999e-05
6.36001e-05
6.36002e-05
6.36004e-05
6.36006e-05
6.36008e-05
6.3601e-05
6.36012e-05
6.36015e-05
6.36017e-05
6.3602e-05
6.36022e-05
6.36025e-05
6.36027e-05
6.3603e-05
6.36032e-05
6.36035e-05
6.36037e-05
6.36039e-05
6.36041e-05
6.36043e-05
6.49857e-05
6.49855e-05
6.49853e-05
6.49851e-05
6.49849e-05
6.49847e-05
6.49844e-05
6.49841e-05
6.49839e-05
6.49836e-05
6.49834e-05
6.49831e-05
6.49829e-05
6.49826e-05
6.49824e-05
6.49822e-05
6.4982e-05
6.49818e-05
6.49816e-05
6.49814e-05
6.49813e-05
6.49812e-05
6.4981e-05
6.49809e-05
6.49809e-05
6.49808e-05
6.49807e-05
6.49807e-05
6.49807e-05
6.49807e-05
6.49807e-05
6.49807e-05
6.49807e-05
6.49807e-05
6.49808e-05
6.49809e-05
6.49809e-05
6.4981e-05
6.49812e-05
6.49813e-05
6.49814e-05
6.49816e-05
6.49818e-05
6.4982e-05
6.49822e-05
6.49824e-05
6.49826e-05
6.49829e-05
6.49831e-05
6.49834e-05
6.49836e-05
6.49839e-05
6.49841e-05
6.49844e-05
6.49847e-05
6.49849e-05
6.49851e-05
6.49853e-05
6.49855e-05
6.49857e-05
6.64401e-05
6.644e-05
6.64397e-05
6.64395e-05
6.64393e-05
6.64391e-05
6.64388e-05
6.64385e-05
6.64383e-05
6.6438e-05
6.64378e-05
6.64375e-05
6.64372e-05
6.6437e-05
6.64368e-05
6.64365e-05
6.64363e-05
6.64361e-05
6.6436e-05
6.64358e-05
6.64356e-05
6.64355e-05
6.64354e-05
6.64353e-05
6.64352e-05
6.64351e-05
6.64351e-05
6.6435e-05
6.6435e-05
6.6435e-05
6.6435e-05
6.6435e-05
6.6435e-05
6.64351e-05
6.64351e-05
6.64352e-05
6.64353e-05
6.64354e-05
6.64355e-05
6.64356e-05
6.64358e-05
6.6436e-05
6.64361e-05
6.64363e-05
6.64365e-05
6.64368e-05
6.6437e-05
6.64372e-05
6.64375e-05
6.64378e-05
6.6438e-05
6.64383e-05
6.64385e-05
6.64388e-05
6.64391e-05
6.64393e-05
6.64395e-05
6.64397e-05
6.644e-05
6.64401e-05
6.79724e-05
6.79722e-05
6.7972e-05
6.79717e-05
6.79715e-05
6.79713e-05
6.7971e-05
6.79707e-05
6.79705e-05
6.79702e-05
6.79699e-05
6.79697e-05
6.79694e-05
6.79692e-05
6.79689e-05
6.79687e-05
6.79685e-05
6.79683e-05
6.79681e-05
6.7968e-05
6.79678e-05
6.79677e-05
6.79676e-05
6.79675e-05
6.79674e-05
6.79673e-05
6.79672e-05
6.79672e-05
6.79672e-05
6.79672e-05
6.79672e-05
6.79672e-05
6.79672e-05
6.79672e-05
6.79673e-05
6.79674e-05
6.79675e-05
6.79676e-05
6.79677e-05
6.79678e-05
6.7968e-05
6.79681e-05
6.79683e-05
6.79685e-05
6.79687e-05
6.79689e-05
6.79692e-05
6.79694e-05
6.79697e-05
6.79699e-05
6.79702e-05
6.79705e-05
6.79707e-05
6.7971e-05
6.79713e-05
6.79715e-05
6.79717e-05
6.7972e-05
6.79722e-05
6.79724e-05
6.95877e-05
6.95875e-05
6.95872e-05
6.9587e-05
6.95868e-05
6.95865e-05
6.95863e-05
6.9586e-05
6.95857e-05
6.95855e-05
6.95852e-05
6.95849e-05
6.95847e-05
6.95844e-05
6.95842e-05
6.95839e-05
6.95837e-05
6.95835e-05
6.95833e-05
6.95832e-05
6.9583e-05
6.95829e-05
6.95828e-05
6.95827e-05
6.95826e-05
6.95825e-05
6.95824e-05
6.95824e-05
6.95824e-05
6.95824e-05
6.95824e-05
6.95824e-05
6.95824e-05
6.95824e-05
6.95825e-05
6.95826e-05
6.95827e-05
6.95828e-05
6.95829e-05
6.9583e-05
6.95832e-05
6.95833e-05
6.95835e-05
6.95837e-05
6.95839e-05
6.95842e-05
6.95844e-05
6.95847e-05
6.95849e-05
6.95852e-05
6.95855e-05
6.95857e-05
6.9586e-05
6.95863e-05
6.95865e-05
6.95868e-05
6.9587e-05
6.95872e-05
6.95875e-05
6.95877e-05
7.12916e-05
7.12914e-05
7.12912e-05
7.1291e-05
7.12908e-05
7.12905e-05
7.12902e-05
7.129e-05
7.12897e-05
7.12894e-05
7.12891e-05
7.12889e-05
7.12886e-05
7.12883e-05
7.12881e-05
7.12879e-05
7.12877e-05
7.12875e-05
7.12873e-05
7.12871e-05
7.12869e-05
7.12868e-05
7.12867e-05
7.12866e-05
7.12865e-05
7.12864e-05
7.12864e-05
7.12863e-05
7.12863e-05
7.12863e-05
7.12863e-05
7.12863e-05
7.12863e-05
7.12864e-05
7.12864e-05
7.12865e-05
7.12866e-05
7.12867e-05
7.12868e-05
7.12869e-05
7.12871e-05
7.12873e-05
7.12875e-05
7.12877e-05
7.12879e-05
7.12881e-05
7.12883e-05
7.12886e-05
7.12889e-05
7.12891e-05
7.12894e-05
7.12897e-05
7.129e-05
7.12902e-05
7.12905e-05
7.12908e-05
7.1291e-05
7.12912e-05
7.12914e-05
7.12916e-05
7.30905e-05
7.30903e-05
7.30901e-05
7.30898e-05
7.30896e-05
7.30893e-05
7.3089e-05
7.30888e-05
7.30885e-05
7.30882e-05
7.30879e-05
7.30877e-05
7.30874e-05
7.30871e-05
7.30869e-05
7.30867e-05
7.30864e-05
7.30862e-05
7.30861e-05
7.30859e-05
7.30857e-05
7.30856e-05
7.30855e-05
7.30854e-05
7.30853e-05
7.30852e-05
7.30851e-05
7.30851e-05
7.30851e-05
7.3085e-05
7.3085e-05
7.30851e-05
7.30851e-05
7.30851e-05
7.30852e-05
7.30853e-05
7.30854e-05
7.30855e-05
7.30856e-05
7.30857e-05
7.30859e-05
7.30861e-05
7.30862e-05
7.30864e-05
7.30867e-05
7.30869e-05
7.30871e-05
7.30874e-05
7.30877e-05
7.30879e-05
7.30882e-05
7.30885e-05
7.30888e-05
7.3089e-05
7.30893e-05
7.30896e-05
7.30898e-05
7.30901e-05
7.30903e-05
7.30905e-05
7.49909e-05
7.49906e-05
7.49904e-05
7.49902e-05
7.49899e-05
7.49897e-05
7.49894e-05
7.49891e-05
7.49888e-05
7.49885e-05
7.49883e-05
7.4988e-05
7.49877e-05
7.49874e-05
7.49872e-05
7.4987e-05
7.49867e-05
7.49865e-05
7.49863e-05
7.49862e-05
7.4986e-05
7.49859e-05
7.49857e-05
7.49856e-05
7.49855e-05
7.49855e-05
7.49854e-05
7.49854e-05
7.49853e-05
7.49853e-05
7.49853e-05
7.49853e-05
7.49854e-05
7.49854e-05
7.49855e-05
7.49855e-05
7.49856e-05
7.49857e-05
7.49859e-05
7.4986e-05
7.49862e-05
7.49863e-05
7.49865e-05
7.49867e-05
7.4987e-05
7.49872e-05
7.49874e-05
7.49877e-05
7.4988e-05
7.49883e-05
7.49885e-05
7.49888e-05
7.49891e-05
7.49894e-05
7.49897e-05
7.49899e-05
7.49902e-05
7.49904e-05
7.49906e-05
7.49909e-05
7.69999e-05
7.69997e-05
7.69995e-05
7.69993e-05
7.6999e-05
7.69987e-05
7.69984e-05
7.69982e-05
7.69979e-05
7.69976e-05
7.69973e-05
7.6997e-05
7.69968e-05
7.69965e-05
7.69962e-05
7.6996e-05
7.69958e-05
7.69956e-05
7.69954e-05
7.69952e-05
7.6995e-05
7.69949e-05
7.69948e-05
7.69946e-05
7.69946e-05
7.69945e-05
7.69944e-05
7.69944e-05
7.69943e-05
7.69943e-05
7.69943e-05
7.69943e-05
7.69944e-05
7.69944e-05
7.69945e-05
7.69946e-05
7.69946e-05
7.69948e-05
7.69949e-05
7.6995e-05
7.69952e-05
7.69954e-05
7.69956e-05
7.69958e-05
7.6996e-05
7.69962e-05
7.69965e-05
7.69968e-05
7.6997e-05
7.69973e-05
7.69976e-05
7.69979e-05
7.69982e-05
7.69984e-05
7.69987e-05
7.6999e-05
7.69993e-05
7.69995e-05
7.69997e-05
7.69999e-05
7.91256e-05
7.91254e-05
7.91252e-05
7.91249e-05
7.91247e-05
7.91244e-05
7.91241e-05
7.91238e-05
7.91235e-05
7.91232e-05
7.9123e-05
7.91227e-05
7.91224e-05
7.91221e-05
7.91219e-05
7.91216e-05
7.91214e-05
7.91212e-05
7.9121e-05
7.91208e-05
7.91207e-05
7.91205e-05
7.91204e-05
7.91203e-05
7.91202e-05
7.91201e-05
7.912e-05
7.912e-05
7.912e-05
7.91199e-05
7.91199e-05
7.912e-05
7.912e-05
7.912e-05
7.91201e-05
7.91202e-05
7.91203e-05
7.91204e-05
7.91205e-05
7.91207e-05
7.91208e-05
7.9121e-05
7.91212e-05
7.91214e-05
7.91216e-05
7.91219e-05
7.91221e-05
7.91224e-05
7.91227e-05
7.9123e-05
7.91232e-05
7.91235e-05
7.91238e-05
7.91241e-05
7.91244e-05
7.91247e-05
7.91249e-05
7.91252e-05
7.91254e-05
7.91256e-05
8.13765e-05
8.13763e-05
8.1376e-05
8.13758e-05
8.13755e-05
8.13752e-05
8.13749e-05
8.13747e-05
8.13744e-05
8.13741e-05
8.13738e-05
8.13735e-05
8.13732e-05
8.13729e-05
8.13727e-05
8.13724e-05
8.13722e-05
8.1372e-05
8.13718e-05
8.13716e-05
8.13714e-05
8.13713e-05
8.13712e-05
8.1371e-05
8.13709e-05
8.13709e-05
8.13708e-05
8.13708e-05
8.13707e-05
8.13707e-05
8.13707e-05
8.13707e-05
8.13708e-05
8.13708e-05
8.13709e-05
8.13709e-05
8.1371e-05
8.13712e-05
8.13713e-05
8.13714e-05
8.13716e-05
8.13718e-05
8.1372e-05
8.13722e-05
8.13724e-05
8.13727e-05
8.13729e-05
8.13732e-05
8.13735e-05
8.13738e-05
8.13741e-05
8.13744e-05
8.13747e-05
8.13749e-05
8.13752e-05
8.13755e-05
8.13758e-05
8.1376e-05
8.13763e-05
8.13765e-05
8.37618e-05
8.37616e-05
8.37614e-05
8.37611e-05
8.37608e-05
8.37605e-05
8.37602e-05
8.37599e-05
8.37596e-05
8.37593e-05
8.37591e-05
8.37588e-05
8.37585e-05
8.37582e-05
8.37579e-05
8.37577e-05
8.37575e-05
8.37572e-05
8.3757e-05
8.37569e-05
8.37567e-05
8.37565e-05
8.37564e-05
8.37563e-05
8.37562e-05
8.37561e-05
8.3756e-05
8.3756e-05
8.3756e-05
8.37559e-05
8.37559e-05
8.3756e-05
8.3756e-05
8.3756e-05
8.37561e-05
8.37562e-05
8.37563e-05
8.37564e-05
8.37565e-05
8.37567e-05
8.37569e-05
8.3757e-05
8.37572e-05
8.37575e-05
8.37577e-05
8.37579e-05
8.37582e-05
8.37585e-05
8.37588e-05
8.37591e-05
8.37593e-05
8.37596e-05
8.37599e-05
8.37602e-05
8.37605e-05
8.37608e-05
8.37611e-05
8.37614e-05
8.37616e-05
8.37618e-05
8.62918e-05
8.62916e-05
8.62913e-05
8.6291e-05
8.62908e-05
8.62905e-05
8.62902e-05
8.62899e-05
8.62896e-05
8.62893e-05
8.6289e-05
8.62887e-05
8.62884e-05
8.62881e-05
8.62878e-05
8.62876e-05
8.62874e-05
8.62871e-05
8.62869e-05
8.62867e-05
8.62866e-05
8.62864e-05
8.62863e-05
8.62862e-05
8.62861e-05
8.6286e-05
8.62859e-05
8.62859e-05
8.62858e-05
8.62858e-05
8.62858e-05
8.62858e-05
8.62859e-05
8.62859e-05
8.6286e-05
8.62861e-05
8.62862e-05
8.62863e-05
8.62864e-05
8.62866e-05
8.62867e-05
8.62869e-05
8.62871e-05
8.62874e-05
8.62876e-05
8.62878e-05
8.62881e-05
8.62884e-05
8.62887e-05
8.6289e-05
8.62893e-05
8.62896e-05
8.62899e-05
8.62902e-05
8.62905e-05
8.62908e-05
8.6291e-05
8.62913e-05
8.62916e-05
8.62918e-05
8.89775e-05
8.89773e-05
8.8977e-05
8.89767e-05
8.89765e-05
8.89762e-05
8.89759e-05
8.89756e-05
8.89752e-05
8.89749e-05
8.89746e-05
8.89743e-05
8.8974e-05
8.89738e-05
8.89735e-05
8.89732e-05
8.8973e-05
8.89728e-05
8.89726e-05
8.89724e-05
8.89722e-05
8.89721e-05
8.89719e-05
8.89718e-05
8.89717e-05
8.89716e-05
8.89715e-05
8.89715e-05
8.89715e-05
8.89714e-05
8.89714e-05
8.89715e-05
8.89715e-05
8.89715e-05
8.89716e-05
8.89717e-05
8.89718e-05
8.89719e-05
8.89721e-05
8.89722e-05
8.89724e-05
8.89726e-05
8.89728e-05
8.8973e-05
8.89732e-05
8.89735e-05
8.89738e-05
8.8974e-05
8.89743e-05
8.89746e-05
8.89749e-05
8.89752e-05
8.89756e-05
8.89759e-05
8.89762e-05
8.89765e-05
8.89767e-05
8.8977e-05
8.89773e-05
8.89775e-05
9.18311e-05
9.18309e-05
9.18306e-05
9.18303e-05
9.183e-05
9.18297e-05
9.18294e-05
9.18291e-05
9.18288e-05
9.18285e-05
9.18282e-05
9.18279e-05
9.18276e-05
9.18273e-05
9.1827e-05
9.18268e-05
9.18265e-05
9.18263e-05
9.18261e-05
9.18259e-05
9.18257e-05
9.18256e-05
9.18254e-05
9.18253e-05
9.18252e-05
9.18251e-05
9.1825e-05
9.1825e-05
9.1825e-05
9.18249e-05
9.18249e-05
9.1825e-05
9.1825e-05
9.1825e-05
9.18251e-05
9.18252e-05
9.18253e-05
9.18254e-05
9.18256e-05
9.18257e-05
9.18259e-05
9.18261e-05
9.18263e-05
9.18265e-05
9.18268e-05
9.1827e-05
9.18273e-05
9.18276e-05
9.18279e-05
9.18282e-05
9.18285e-05
9.18288e-05
9.18291e-05
9.18294e-05
9.18297e-05
9.183e-05
9.18303e-05
9.18306e-05
9.18309e-05
9.18311e-05
9.48659e-05
9.48656e-05
9.48653e-05
9.48651e-05
9.48648e-05
9.48645e-05
9.48641e-05
9.48638e-05
9.48635e-05
9.48632e-05
9.48629e-05
9.48626e-05
9.48623e-05
9.4862e-05
9.48617e-05
9.48614e-05
9.48612e-05
9.4861e-05
9.48608e-05
9.48606e-05
9.48604e-05
9.48602e-05
9.48601e-05
9.486e-05
9.48599e-05
9.48598e-05
9.48597e-05
9.48597e-05
9.48596e-05
9.48596e-05
9.48596e-05
9.48596e-05
9.48597e-05
9.48597e-05
9.48598e-05
9.48599e-05
9.486e-05
9.48601e-05
9.48602e-05
9.48604e-05
9.48606e-05
9.48608e-05
9.4861e-05
9.48612e-05
9.48614e-05
9.48617e-05
9.4862e-05
9.48623e-05
9.48626e-05
9.48629e-05
9.48632e-05
9.48635e-05
9.48638e-05