/*--------------------------------*- C++ -*----------------------------------*\
| =========                 |                                                 |
| \\      /  F ield         | foam-extend: Open Source CFD                    |
|  \\    /   O peration     | Version:     4.0                                |
|   \\  /    A nd           | Web:         http://www.foam-extend.org         |
|    \\/     M anipulation  |                                                 |
\*---------------------------------------------------------------------------*/
FoamFile
{
    version     2.0;
    format      ascii;
    class       volScalarField;
    location    "1820";
    object      psiE;
}
// * * * * * * * * * * * * * * * * * * * * * * * * * * * * * * * * * * * * * //

dimensions      [0 0 0 0 0 0 0];

internalField   nonuniform List<scalar> 
6960
(
0.334709
0.334714
0.33472
0.334726
0.334732
0.334737
0.334742
0.334747
0.334751
0.334755
0.334758
0.334762
0.334764
0.334767
0.334769
0.334771
0.334773
0.334774
0.334775
0.334777
0.334777
0.334778
0.334779
0.33478
0.33478
0.334781
0.334781
0.334781
0.334781
0.334781
0.334781
0.334781
0.334781
0.334781
0.334781
0.33478
0.33478
0.334779
0.334778
0.334777
0.334777
0.334775
0.334774
0.334773
0.334771
0.334769
0.334767
0.334764
0.334762
0.334758
0.334755
0.334751
0.334747
0.334742
0.334737
0.334732
0.334726
0.33472
0.334714
0.334709
0.834993
0.835012
0.835037
0.835062
0.835086
0.835108
0.835129
0.835147
0.835164
0.83518
0.835194
0.835206
0.835218
0.835228
0.835236
0.835244
0.835251
0.835257
0.835262
0.835267
0.835271
0.835274
0.835277
0.83528
0.835282
0.835283
0.835285
0.835286
0.835286
0.835287
0.835287
0.835286
0.835286
0.835285
0.835283
0.835282
0.83528
0.835277
0.835274
0.835271
0.835267
0.835262
0.835257
0.835251
0.835244
0.835236
0.835228
0.835218
0.835206
0.835194
0.83518
0.835164
0.835147
0.835129
0.835108
0.835086
0.835062
0.835037
0.835012
0.834993
1.28612
1.28616
1.28621
1.28626
1.2863
1.28635
1.28639
1.28643
1.28646
1.28649
1.28652
1.28654
1.28657
1.28659
1.2866
1.28662
1.28663
1.28664
1.28665
1.28666
1.28667
1.28668
1.28668
1.28669
1.28669
1.2867
1.2867
1.2867
1.2867
1.2867
1.2867
1.2867
1.2867
1.2867
1.2867
1.28669
1.28669
1.28668
1.28668
1.28667
1.28666
1.28665
1.28664
1.28663
1.28662
1.2866
1.28659
1.28657
1.28654
1.28652
1.28649
1.28646
1.28643
1.28639
1.28635
1.2863
1.28626
1.28621
1.28616
1.28612
1.72355
1.72361
1.72368
1.72376
1.72384
1.72391
1.72397
1.72403
1.72408
1.72413
1.72417
1.72421
1.72425
1.72428
1.72431
1.72433
1.72435
1.72437
1.72439
1.7244
1.72441
1.72443
1.72443
1.72444
1.72445
1.72445
1.72446
1.72446
1.72446
1.72446
1.72446
1.72446
1.72446
1.72446
1.72445
1.72445
1.72444
1.72443
1.72443
1.72441
1.7244
1.72439
1.72437
1.72435
1.72433
1.72431
1.72428
1.72425
1.72421
1.72417
1.72413
1.72408
1.72403
1.72397
1.72391
1.72384
1.72376
1.72368
1.72361
1.72355
2.16101
2.16109
2.1612
2.16131
2.16141
2.16151
2.1616
2.16168
2.16175
2.16182
2.16188
2.16194
2.16199
2.16203
2.16207
2.1621
2.16213
2.16216
2.16218
2.1622
2.16222
2.16223
2.16225
2.16226
2.16226
2.16227
2.16228
2.16228
2.16228
2.16229
2.16229
2.16228
2.16228
2.16228
2.16227
2.16226
2.16226
2.16225
2.16223
2.16222
2.1622
2.16218
2.16216
2.16213
2.1621
2.16207
2.16203
2.16199
2.16194
2.16188
2.16182
2.16175
2.16168
2.1616
2.16151
2.16141
2.16131
2.1612
2.16109
2.16101
2.60415
2.60426
2.6044
2.60454
2.60468
2.6048
2.60492
2.60503
2.60512
2.60521
2.60529
2.60536
2.60542
2.60548
2.60553
2.60557
2.60561
2.60565
2.60568
2.6057
2.60573
2.60575
2.60576
2.60578
2.60579
2.6058
2.6058
2.60581
2.60581
2.60581
2.60581
2.60581
2.60581
2.6058
2.6058
2.60579
2.60578
2.60576
2.60575
2.60573
2.6057
2.60568
2.60565
2.60561
2.60557
2.60553
2.60548
2.60542
2.60536
2.60529
2.60521
2.60512
2.60503
2.60492
2.6048
2.60468
2.60454
2.6044
2.60426
2.60415
3.05535
3.05549
3.05566
3.05583
3.056
3.05616
3.0563
3.05643
3.05655
3.05666
3.05676
3.05685
3.05693
3.05699
3.05706
3.05711
3.05716
3.0572
3.05724
3.05727
3.0573
3.05732
3.05734
3.05736
3.05737
3.05739
3.05739
3.0574
3.05741
3.05741
3.05741
3.05741
3.0574
3.05739
3.05739
3.05737
3.05736
3.05734
3.05732
3.0573
3.05727
3.05724
3.0572
3.05716
3.05711
3.05706
3.05699
3.05693
3.05685
3.05676
3.05666
3.05655
3.05643
3.0563
3.05616
3.056
3.05583
3.05566
3.05549
3.05535
3.51559
3.51575
3.51595
3.51616
3.51636
3.51655
3.51672
3.51688
3.51702
3.51715
3.51727
3.51737
3.51747
3.51755
3.51763
3.51769
3.51775
3.5178
3.51784
3.51788
3.51791
3.51794
3.51797
3.51799
3.518
3.51802
3.51803
3.51804
3.51804
3.51804
3.51804
3.51804
3.51804
3.51803
3.51802
3.518
3.51799
3.51797
3.51794
3.51791
3.51788
3.51784
3.5178
3.51775
3.51769
3.51763
3.51755
3.51747
3.51737
3.51727
3.51715
3.51702
3.51688
3.51672
3.51655
3.51636
3.51616
3.51595
3.51575
3.51559
3.98526
3.98545
3.98568
3.98593
3.98616
3.98638
3.98658
3.98677
3.98693
3.98708
3.98722
3.98734
3.98745
3.98755
3.98764
3.98771
3.98778
3.98784
3.98789
3.98793
3.98797
3.98801
3.98803
3.98806
3.98808
3.98809
3.98811
3.98812
3.98812
3.98812
3.98812
3.98812
3.98812
3.98811
3.98809
3.98808
3.98806
3.98803
3.98801
3.98797
3.98793
3.98789
3.98784
3.98778
3.98771
3.98764
3.98755
3.98745
3.98734
3.98722
3.98708
3.98693
3.98677
3.98658
3.98638
3.98616
3.98593
3.98568
3.98545
3.98526
4.46452
4.46473
4.46501
4.46528
4.46555
4.4658
4.46603
4.46624
4.46643
4.46661
4.46676
4.4669
4.46703
4.46714
4.46724
4.46732
4.4674
4.46747
4.46753
4.46758
4.46762
4.46766
4.46769
4.46772
4.46774
4.46776
4.46778
4.46779
4.46779
4.4678
4.4678
4.46779
4.46779
4.46778
4.46776
4.46774
4.46772
4.46769
4.46766
4.46762
4.46758
4.46753
4.46747
4.4674
4.46732
4.46724
4.46714
4.46703
4.4669
4.46676
4.46661
4.46643
4.46624
4.46603
4.4658
4.46555
4.46528
4.46501
4.46473
4.46452
4.95341
4.95365
4.95395
4.95427
4.95457
4.95485
4.95511
4.95535
4.95556
4.95576
4.95593
4.95609
4.95623
4.95635
4.95647
4.95656
4.95665
4.95673
4.95679
4.95685
4.9569
4.95694
4.95698
4.95701
4.95704
4.95706
4.95707
4.95708
4.95709
4.9571
4.9571
4.95709
4.95708
4.95707
4.95706
4.95704
4.95701
4.95698
4.95694
4.9569
4.95685
4.95679
4.95673
4.95665
4.95656
4.95647
4.95635
4.95623
4.95609
4.95593
4.95576
4.95556
4.95535
4.95511
4.95485
4.95457
4.95427
4.95395
4.95365
4.95341
5.45189
5.45216
5.4525
5.45285
5.45319
5.4535
5.45379
5.45405
5.45429
5.45451
5.45471
5.45488
5.45504
5.45518
5.4553
5.45541
5.45551
5.45559
5.45566
5.45573
5.45578
5.45583
5.45587
5.45591
5.45593
5.45596
5.45598
5.45599
5.456
5.456
5.456
5.456
5.45599
5.45598
5.45596
5.45593
5.45591
5.45587
5.45583
5.45578
5.45573
5.45566
5.45559
5.45551
5.45541
5.4553
5.45518
5.45504
5.45488
5.45471
5.45451
5.45429
5.45405
5.45379
5.4535
5.45319
5.45285
5.4525
5.45216
5.45189
5.95992
5.96021
5.96059
5.96097
5.96134
5.96169
5.96201
5.9623
5.96256
5.9628
5.96302
5.96321
5.96338
5.96354
5.96367
5.96379
5.9639
5.96399
5.96407
5.96415
5.96421
5.96426
5.9643
5.96434
5.96437
5.9644
5.96442
5.96443
5.96444
5.96445
5.96445
5.96444
5.96443
5.96442
5.9644
5.96437
5.96434
5.9643
5.96426
5.96421
5.96415
5.96407
5.96399
5.9639
5.96379
5.96367
5.96354
5.96338
5.96321
5.96302
5.9628
5.96256
5.9623
5.96201
5.96169
5.96134
5.96097
5.96059
5.96021
5.95992
6.47739
6.47771
6.47812
6.47854
6.47894
6.47932
6.47967
6.47999
6.48027
6.48054
6.48077
6.48098
6.48117
6.48134
6.48149
6.48162
6.48173
6.48184
6.48193
6.482
6.48207
6.48213
6.48218
6.48222
6.48225
6.48228
6.4823
6.48232
6.48233
6.48233
6.48233
6.48233
6.48232
6.4823
6.48228
6.48225
6.48222
6.48218
6.48213
6.48207
6.482
6.48193
6.48184
6.48173
6.48162
6.48149
6.48134
6.48117
6.48098
6.48077
6.48054
6.48027
6.47999
6.47967
6.47932
6.47894
6.47854
6.47812
6.47771
6.47739
7.00416
7.0045
7.00495
7.0054
7.00584
7.00625
7.00663
7.00697
7.00729
7.00757
7.00783
7.00806
7.00826
7.00844
7.0086
7.00875
7.00887
7.00898
7.00908
7.00916
7.00924
7.0093
7.00935
7.0094
7.00943
7.00946
7.00949
7.0095
7.00952
7.00952
7.00952
7.00952
7.0095
7.00949
7.00946
7.00943
7.0094
7.00935
7.0093
7.00924
7.00916
7.00908
7.00898
7.00887
7.00875
7.0086
7.00844
7.00826
7.00806
7.00783
7.00757
7.00729
7.00697
7.00663
7.00625
7.00584
7.0054
7.00495
7.0045
7.00416
7.54006
7.54043
7.54091
7.5414
7.54187
7.54231
7.54272
7.54309
7.54343
7.54374
7.54401
7.54426
7.54448
7.54467
7.54485
7.545
7.54514
7.54526
7.54536
7.54545
7.54553
7.5456
7.54566
7.5457
7.54574
7.54578
7.5458
7.54582
7.54583
7.54584
7.54584
7.54583
7.54582
7.5458
7.54578
7.54574
7.5457
7.54566
7.5456
7.54553
7.54545
7.54536
7.54526
7.54514
7.545
7.54485
7.54467
7.54448
7.54426
7.54401
7.54374
7.54343
7.54309
7.54272
7.54231
7.54187
7.5414
7.54091
7.54043
7.54006
8.08487
8.08527
8.08578
8.08631
8.08681
8.08729
8.08772
8.08812
8.08848
8.08881
8.08911
8.08937
8.08961
8.08982
8.09
8.09017
8.09031
8.09044
8.09055
8.09065
8.09073
8.09081
8.09087
8.09092
8.09096
8.091
8.09102
8.09104
8.09106
8.09106
8.09106
8.09106
8.09104
8.09102
8.091
8.09096
8.09092
8.09087
8.09081
8.09073
8.09065
8.09055
8.09044
8.09031
8.09017
8.09
8.08982
8.08961
8.08937
8.08911
8.08881
8.08848
8.08812
8.08772
8.08729
8.08681
8.08631
8.08578
8.08527
8.08487
8.63832
8.63875
8.63929
8.63986
8.6404
8.6409
8.64137
8.64179
8.64218
8.64253
8.64284
8.64313
8.64338
8.6436
8.6438
8.64398
8.64413
8.64427
8.64439
8.64449
8.64458
8.64466
8.64472
8.64478
8.64482
8.64486
8.64489
8.64491
8.64492
8.64493
8.64493
8.64492
8.64491
8.64489
8.64486
8.64482
8.64478
8.64472
8.64466
8.64458
8.64449
8.64439
8.64427
8.64413
8.64398
8.6438
8.6436
8.64338
8.64313
8.64284
8.64253
8.64218
8.64179
8.64137
8.6409
8.6404
8.63986
8.63929
8.63875
8.63832
9.2001
9.20056
9.20114
9.20173
9.20231
9.20284
9.20334
9.20379
9.2042
9.20457
9.2049
9.2052
9.20547
9.20571
9.20592
9.20611
9.20627
9.20642
9.20654
9.20665
9.20675
9.20683
9.2069
9.20696
9.20701
9.20705
9.20708
9.2071
9.20711
9.20712
9.20712
9.20711
9.2071
9.20708
9.20705
9.20701
9.20696
9.2069
9.20683
9.20675
9.20665
9.20654
9.20642
9.20627
9.20611
9.20592
9.20571
9.20547
9.2052
9.2049
9.20457
9.2042
9.20379
9.20334
9.20284
9.20231
9.20173
9.20114
9.20056
9.2001
9.76983
9.77031
9.77092
9.77155
9.77216
9.77273
9.77325
9.77373
9.77416
9.77455
9.77491
9.77522
9.77551
9.77576
9.77598
9.77618
9.77635
9.77651
9.77664
9.77676
9.77686
9.77694
9.77702
9.77708
9.77713
9.77717
9.7772
9.77723
9.77724
9.77725
9.77725
9.77724
9.77723
9.7772
9.77717
9.77713
9.77708
9.77702
9.77694
9.77686
9.77676
9.77664
9.77651
9.77635
9.77618
9.77598
9.77576
9.77551
9.77522
9.77491
9.77455
9.77416
9.77373
9.77325
9.77273
9.77216
9.77155
9.77092
9.77031
9.76983
10.3471
10.3476
10.3482
10.3489
10.3495
10.3501
10.3507
10.3512
10.3516
10.352
10.3524
10.3527
10.353
10.3533
10.3535
10.3537
10.3539
10.3541
10.3542
10.3543
10.3545
10.3545
10.3546
10.3547
10.3547
10.3548
10.3548
10.3548
10.3549
10.3549
10.3549
10.3549
10.3548
10.3548
10.3548
10.3547
10.3547
10.3546
10.3545
10.3545
10.3543
10.3542
10.3541
10.3539
10.3537
10.3535
10.3533
10.353
10.3527
10.3524
10.352
10.3516
10.3512
10.3507
10.3501
10.3495
10.3489
10.3482
10.3476
10.3471
10.9313
10.9318
10.9325
10.9332
10.9338
10.9345
10.935
10.9356
10.936
10.9365
10.9369
10.9372
10.9375
10.9378
10.9381
10.9383
10.9385
10.9386
10.9388
10.9389
10.939
10.9391
10.9392
10.9393
10.9393
10.9394
10.9394
10.9394
10.9394
10.9395
10.9395
10.9394
10.9394
10.9394
10.9394
10.9393
10.9393
10.9392
10.9391
10.939
10.9389
10.9388
10.9386
10.9385
10.9383
10.9381
10.9378
10.9375
10.9372
10.9369
10.9365
10.936
10.9356
10.935
10.9345
10.9338
10.9332
10.9325
10.9318
10.9313
11.5218
11.5224
11.5231
11.5238
11.5245
11.5252
11.5258
11.5263
11.5268
11.5273
11.5277
11.5281
11.5284
11.5287
11.5289
11.5292
11.5294
11.5295
11.5297
11.5298
11.5299
11.53
11.5301
11.5302
11.5303
11.5303
11.5303
11.5304
11.5304
11.5304
11.5304
11.5304
11.5304
11.5303
11.5303
11.5303
11.5302
11.5301
11.53
11.5299
11.5298
11.5297
11.5295
11.5294
11.5292
11.5289
11.5287
11.5284
11.5281
11.5277
11.5273
11.5268
11.5263
11.5258
11.5252
11.5245
11.5238
11.5231
11.5224
11.5218
12.1181
12.1186
12.1194
12.1201
12.1209
12.1215
12.1222
12.1227
12.1233
12.1237
12.1242
12.1245
12.1249
12.1252
12.1255
12.1257
12.1259
12.1261
12.1262
12.1264
12.1265
12.1266
12.1267
12.1268
12.1268
12.1269
12.1269
12.127
12.127
12.127
12.127
12.127
12.127
12.1269
12.1269
12.1268
12.1268
12.1267
12.1266
12.1265
12.1264
12.1262
12.1261
12.1259
12.1257
12.1255
12.1252
12.1249
12.1245
12.1242
12.1237
12.1233
12.1227
12.1222
12.1215
12.1209
12.1201
12.1194
12.1186
12.1181
12.7191
12.7197
12.7205
12.7213
12.722
12.7228
12.7234
12.724
12.7245
12.725
12.7255
12.7259
12.7262
12.7265
12.7268
12.7271
12.7273
12.7275
12.7276
12.7278
12.7279
12.728
12.7281
12.7282
12.7282
12.7283
12.7283
12.7284
12.7284
12.7284
12.7284
12.7284
12.7284
12.7283
12.7283
12.7282
12.7282
12.7281
12.728
12.7279
12.7278
12.7276
12.7275
12.7273
12.7271
12.7268
12.7265
12.7262
12.7259
12.7255
12.725
12.7245
12.724
12.7234
12.7228
12.722
12.7213
12.7205
12.7197
12.7191
13.3241
13.3247
13.3255
13.3263
13.3271
13.3279
13.3285
13.3291
13.3297
13.3302
13.3307
13.3311
13.3314
13.3318
13.3321
13.3323
13.3325
13.3327
13.3329
13.3331
13.3332
13.3333
13.3334
13.3335
13.3335
13.3336
13.3336
13.3337
13.3337
13.3337
13.3337
13.3337
13.3337
13.3336
13.3336
13.3335
13.3335
13.3334
13.3333
13.3332
13.3331
13.3329
13.3327
13.3325
13.3323
13.3321
13.3318
13.3314
13.3311
13.3307
13.3302
13.3297
13.3291
13.3285
13.3279
13.3271
13.3263
13.3255
13.3247
13.3241
13.9319
13.9326
13.9334
13.9342
13.935
13.9358
13.9365
13.9371
13.9377
13.9382
13.9387
13.9391
13.9395
13.9398
13.9401
13.9404
13.9406
13.9408
13.941
13.9411
13.9413
13.9414
13.9415
13.9416
13.9416
13.9417
13.9417
13.9418
13.9418
13.9418
13.9418
13.9418
13.9418
13.9417
13.9417
13.9416
13.9416
13.9415
13.9414
13.9413
13.9411
13.941
13.9408
13.9406
13.9404
13.9401
13.9398
13.9395
13.9391
13.9387
13.9382
13.9377
13.9371
13.9365
13.9358
13.935
13.9342
13.9334
13.9326
13.9319
14.5413
14.542
14.5428
14.5437
14.5445
14.5453
14.546
14.5466
14.5472
14.5478
14.5482
14.5487
14.5491
14.5494
14.5497
14.55
14.5502
14.5504
14.5506
14.5508
14.5509
14.551
14.5511
14.5512
14.5513
14.5513
14.5514
14.5514
14.5514
14.5514
14.5514
14.5514
14.5514
14.5514
14.5513
14.5513
14.5512
14.5511
14.551
14.5509
14.5508
14.5506
14.5504
14.5502
14.55
14.5497
14.5494
14.5491
14.5487
14.5482
14.5478
14.5472
14.5466
14.546
14.5453
14.5445
14.5437
14.5428
14.542
14.5413
15.1508
15.1515
15.1524
15.1533
15.1541
15.1549
15.1556
15.1563
15.1569
15.1574
15.1579
15.1584
15.1588
15.1591
15.1594
15.1597
15.1599
15.1601
15.1603
15.1605
15.1606
15.1608
15.1609
15.1609
15.161
15.1611
15.1611
15.1611
15.1612
15.1612
15.1612
15.1612
15.1611
15.1611
15.1611
15.161
15.1609
15.1609
15.1608
15.1606
15.1605
15.1603
15.1601
15.1599
15.1597
15.1594
15.1591
15.1588
15.1584
15.1579
15.1574
15.1569
15.1563
15.1556
15.1549
15.1541
15.1533
15.1524
15.1515
15.1508
15.7589
15.7596
15.7604
15.7613
15.7622
15.763
15.7637
15.7644
15.765
15.7656
15.7661
15.7665
15.7669
15.7673
15.7676
15.7679
15.7681
15.7683
15.7685
15.7687
15.7688
15.7689
15.7691
15.7691
15.7692
15.7693
15.7693
15.7694
15.7694
15.7694
15.7694
15.7694
15.7694
15.7693
15.7693
15.7692
15.7691
15.7691
15.7689
15.7688
15.7687
15.7685
15.7683
15.7681
15.7679
15.7676
15.7673
15.7669
15.7665
15.7661
15.7656
15.765
15.7644
15.7637
15.763
15.7622
15.7613
15.7604
15.7596
15.7589
16.3635
16.3642
16.3651
16.366
16.3668
16.3676
16.3684
16.3691
16.3697
16.3703
16.3708
16.3712
16.3716
16.372
16.3723
16.3726
16.3728
16.3731
16.3732
16.3734
16.3736
16.3737
16.3738
16.3739
16.3739
16.374
16.3741
16.3741
16.3741
16.3741
16.3741
16.3741
16.3741
16.3741
16.374
16.3739
16.3739
16.3738
16.3737
16.3736
16.3734
16.3732
16.3731
16.3728
16.3726
16.3723
16.372
16.3716
16.3712
16.3708
16.3703
16.3697
16.3691
16.3684
16.3676
16.3668
16.366
16.3651
16.3642
16.3635
16.9624
16.9632
16.9641
16.965
16.9658
16.9667
16.9674
16.9681
16.9687
16.9693
16.9698
16.9703
16.9707
16.971
16.9713
16.9716
16.9719
16.9721
16.9723
16.9725
16.9726
16.9727
16.9728
16.9729
16.973
16.9731
16.9731
16.9731
16.9732
16.9732
16.9732
16.9732
16.9731
16.9731
16.9731
16.973
16.9729
16.9728
16.9727
16.9726
16.9725
16.9723
16.9721
16.9719
16.9716
16.9713
16.971
16.9707
16.9703
16.9698
16.9693
16.9687
16.9681
16.9674
16.9667
16.9658
16.965
16.9641
16.9632
16.9624
17.5532
17.5539
17.5548
17.5558
17.5566
17.5575
17.5582
17.5589
17.5595
17.5601
17.5606
17.561
17.5615
17.5618
17.5621
17.5624
17.5627
17.5629
17.5631
17.5633
17.5634
17.5635
17.5636
17.5637
17.5638
17.5639
17.5639
17.5639
17.564
17.564
17.564
17.564
17.5639
17.5639
17.5639
17.5638
17.5637
17.5636
17.5635
17.5634
17.5633
17.5631
17.5629
17.5627
17.5624
17.5621
17.5618
17.5615
17.561
17.5606
17.5601
17.5595
17.5589
17.5582
17.5575
17.5566
17.5558
17.5548
17.5539
17.5532
18.1328
18.1335
18.1344
18.1353
18.1362
18.137
18.1378
18.1384
18.1391
18.1396
18.1401
18.1406
18.141
18.1413
18.1417
18.1419
18.1422
18.1424
18.1426
18.1428
18.1429
18.143
18.1431
18.1432
18.1433
18.1434
18.1434
18.1434
18.1435
18.1435
18.1435
18.1435
18.1434
18.1434
18.1434
18.1433
18.1432
18.1431
18.143
18.1429
18.1428
18.1426
18.1424
18.1422
18.1419
18.1417
18.1413
18.141
18.1406
18.1401
18.1396
18.1391
18.1384
18.1378
18.137
18.1362
18.1353
18.1344
18.1335
18.1328
18.6977
18.6984
18.6992
18.7001
18.701
18.7018
18.7025
18.7032
18.7038
18.7044
18.7049
18.7053
18.7057
18.7061
18.7064
18.7067
18.7069
18.7071
18.7073
18.7075
18.7076
18.7077
18.7078
18.7079
18.708
18.708
18.7081
18.7081
18.7081
18.7082
18.7082
18.7081
18.7081
18.7081
18.708
18.708
18.7079
18.7078
18.7077
18.7076
18.7075
18.7073
18.7071
18.7069
18.7067
18.7064
18.7061
18.7057
18.7053
18.7049
18.7044
18.7038
18.7032
18.7025
18.7018
18.701
18.7001
18.6992
18.6984
18.6977
19.2436
19.2443
19.2451
19.246
19.2468
19.2476
19.2483
19.249
19.2496
19.2501
19.2506
19.251
19.2514
19.2518
19.2521
19.2523
19.2526
19.2528
19.253
19.2531
19.2533
19.2534
19.2535
19.2536
19.2536
19.2537
19.2537
19.2538
19.2538
19.2538
19.2538
19.2538
19.2538
19.2537
19.2537
19.2536
19.2536
19.2535
19.2534
19.2533
19.2531
19.253
19.2528
19.2526
19.2523
19.2521
19.2518
19.2514
19.251
19.2506
19.2501
19.2496
19.249
19.2483
19.2476
19.2468
19.246
19.2451
19.2443
19.2436
19.7656
19.7663
19.7671
19.768
19.7688
19.7695
19.7702
19.7708
19.7714
19.7719
19.7724
19.7728
19.7731
19.7735
19.7738
19.774
19.7743
19.7745
19.7746
19.7748
19.7749
19.775
19.7751
19.7752
19.7753
19.7753
19.7754
19.7754
19.7754
19.7754
19.7754
19.7754
19.7754
19.7754
19.7753
19.7753
19.7752
19.7751
19.775
19.7749
19.7748
19.7746
19.7745
19.7743
19.774
19.7738
19.7735
19.7731
19.7728
19.7724
19.7719
19.7714
19.7708
19.7702
19.7695
19.7688
19.768
19.7671
19.7663
19.7656
20.2579
20.2586
20.2594
20.2601
20.2609
20.2616
20.2622
20.2628
20.2634
20.2638
20.2643
20.2647
20.265
20.2653
20.2656
20.2658
20.266
20.2662
20.2664
20.2665
20.2667
20.2668
20.2669
20.2669
20.267
20.267
20.2671
20.2671
20.2671
20.2671
20.2671
20.2671
20.2671
20.2671
20.267
20.267
20.2669
20.2669
20.2668
20.2667
20.2665
20.2664
20.2662
20.266
20.2658
20.2656
20.2653
20.265
20.2647
20.2643
20.2638
20.2634
20.2628
20.2622
20.2616
20.2609
20.2601
20.2594
20.2586
20.2579
20.7138
20.7144
20.7151
20.7158
20.7165
20.7171
20.7177
20.7182
20.7187
20.7192
20.7196
20.7199
20.7202
20.7205
20.7208
20.721
20.7212
20.7214
20.7215
20.7216
20.7218
20.7219
20.7219
20.722
20.7221
20.7221
20.7221
20.7222
20.7222
20.7222
20.7222
20.7222
20.7222
20.7221
20.7221
20.7221
20.722
20.7219
20.7219
20.7218
20.7216
20.7215
20.7214
20.7212
20.721
20.7208
20.7205
20.7202
20.7199
20.7196
20.7192
20.7187
20.7182
20.7177
20.7171
20.7165
20.7158
20.7151
20.7144
20.7138
21.1259
21.1264
21.1271
21.1277
21.1283
21.1289
21.1294
21.1299
21.1303
21.1307
21.1311
21.1314
21.1317
21.1319
21.1321
21.1323
21.1325
21.1326
21.1328
21.1329
21.133
21.1331
21.1331
21.1332
21.1333
21.1333
21.1333
21.1334
21.1334
21.1334
21.1334
21.1334
21.1334
21.1333
21.1333
21.1333
21.1332
21.1331
21.1331
21.133
21.1329
21.1328
21.1326
21.1325
21.1323
21.1321
21.1319
21.1317
21.1314
21.1311
21.1307
21.1303
21.1299
21.1294
21.1289
21.1283
21.1277
21.1271
21.1264
21.1259
21.4878
21.4882
21.4888
21.4893
21.4898
21.4903
21.4907
21.4911
21.4915
21.4918
21.4921
21.4924
21.4926
21.4929
21.493
21.4932
21.4934
21.4935
21.4936
21.4937
21.4938
21.4938
21.4939
21.494
21.494
21.494
21.4941
21.4941
21.4941
21.4941
21.4941
21.4941
21.4941
21.4941
21.494
21.494
21.494
21.4939
21.4938
21.4938
21.4937
21.4936
21.4935
21.4934
21.4932
21.493
21.4929
21.4926
21.4924
21.4921
21.4918
21.4915
21.4911
21.4907
21.4903
21.4898
21.4893
21.4888
21.4882
21.4878
21.7951
21.7955
21.7959
21.7963
21.7967
21.7971
21.7975
21.7978
21.7981
21.7984
21.7986
21.7988
21.799
21.7992
21.7994
21.7995
21.7996
21.7997
21.7998
21.7999
21.7999
21.8
21.8001
21.8001
21.8001
21.8002
21.8002
21.8002
21.8002
21.8002
21.8002
21.8002
21.8002
21.8002
21.8002
21.8001
21.8001
21.8001
21.8
21.7999
21.7999
21.7998
21.7997
21.7996
21.7995
21.7994
21.7992
21.799
21.7988
21.7986
21.7984
21.7981
21.7978
21.7975
21.7971
21.7967
21.7963
21.7959
21.7955
21.7951
22.0479
22.0481
22.0485
22.0488
22.0491
22.0494
22.0497
22.0499
22.0502
22.0504
22.0506
22.0507
22.0509
22.051
22.0511
22.0512
22.0513
22.0514
22.0515
22.0515
22.0516
22.0516
22.0516
22.0517
22.0517
22.0517
22.0517
22.0518
22.0518
22.0518
22.0518
22.0518
22.0518
22.0517
22.0517
22.0517
22.0517
22.0516
22.0516
22.0516
22.0515
22.0515
22.0514
22.0513
22.0512
22.0511
22.051
22.0509
22.0507
22.0506
22.0504
22.0502
22.0499
22.0497
22.0494
22.0491
22.0488
22.0485
22.0481
22.0479
22.2509
22.251
22.2513
22.2515
22.2518
22.252
22.2522
22.2524
22.2525
22.2527
22.2528
22.2529
22.253
22.2531
22.2532
22.2533
22.2534
22.2534
22.2535
22.2535
22.2536
22.2536
22.2536
22.2536
22.2537
22.2537
22.2537
22.2537
22.2537
22.2537
22.2537
22.2537
22.2537
22.2537
22.2537
22.2537
22.2536
22.2536
22.2536
22.2536
22.2535
22.2535
22.2534
22.2534
22.2533
22.2532
22.2531
22.253
22.2529
22.2528
22.2527
22.2525
22.2524
22.2522
22.252
22.2518
22.2515
22.2513
22.251
22.2509
22.4125
22.4126
22.4128
22.413
22.4131
22.4133
22.4134
22.4136
22.4137
22.4138
22.4139
22.414
22.4141
22.4141
22.4142
22.4142
22.4143
22.4143
22.4143
22.4144
22.4144
22.4144
22.4144
22.4145
22.4145
22.4145
22.4145
22.4145
22.4145
22.4145
22.4145
22.4145
22.4145
22.4145
22.4145
22.4145
22.4145
22.4144
22.4144
22.4144
22.4144
22.4143
22.4143
22.4143
22.4142
22.4142
22.4141
22.4141
22.414
22.4139
22.4138
22.4137
22.4136
22.4134
22.4133
22.4131
22.413
22.4128
22.4126
22.4125
22.5425
22.5425
22.5426
22.5428
22.5429
22.543
22.5431
22.5432
22.5433
22.5433
22.5434
22.5435
22.5435
22.5436
22.5436
22.5436
22.5437
22.5437
22.5437
22.5437
22.5438
22.5438
22.5438
22.5438
22.5438
22.5438
22.5438
22.5438
22.5438
22.5438
22.5438
22.5438
22.5438
22.5438
22.5438
22.5438
22.5438
22.5438
22.5438
22.5438
22.5437
22.5437
22.5437
22.5437
22.5436
22.5436
22.5436
22.5435
22.5435
22.5434
22.5433
22.5433
22.5432
22.5431
22.543
22.5429
22.5428
22.5426
22.5425
22.5425
22.6494
22.6494
22.6495
22.6496
22.6496
22.6497
22.6498
22.6498
22.6499
22.65
22.65
22.65
22.6501
22.6501
22.6501
22.6502
22.6502
22.6502
22.6502
22.6502
22.6502
22.6502
22.6503
22.6503
22.6503
22.6503
22.6503
22.6503
22.6503
22.6503
22.6503
22.6503
22.6503
22.6503
22.6503
22.6503
22.6503
22.6503
22.6502
22.6502
22.6502
22.6502
22.6502
22.6502
22.6502
22.6501
22.6501
22.6501
22.65
22.65
22.65
22.6499
22.6498
22.6498
22.6497
22.6496
22.6496
22.6495
22.6494
22.6494
22.7399
22.7399
22.74
22.74
22.7401
22.7401
22.7402
22.7402
22.7402
22.7403
22.7403
22.7403
22.7404
22.7404
22.7404
22.7404
22.7404
22.7404
22.7404
22.7405
22.7405
22.7405
22.7405
22.7405
22.7405
22.7405
22.7405
22.7405
22.7405
22.7405
22.7405
22.7405
22.7405
22.7405
22.7405
22.7405
22.7405
22.7405
22.7405
22.7405
22.7405
22.7404
22.7404
22.7404
22.7404
22.7404
22.7404
22.7404
22.7403
22.7403
22.7403
22.7402
22.7402
22.7402
22.7401
22.7401
22.74
22.74
22.7399
22.7399
22.8187
22.8187
22.8187
22.8188
22.8188
22.8188
22.8189
22.8189
22.8189
22.8189
22.819
22.819
22.819
22.819
22.819
22.819
22.819
22.819
22.819
22.8191
22.8191
22.8191
22.8191
22.8191
22.8191
22.8191
22.8191
22.8191
22.8191
22.8191
22.8191
22.8191
22.8191
22.8191
22.8191
22.8191
22.8191
22.8191
22.8191
22.8191
22.8191
22.819
22.819
22.819
22.819
22.819
22.819
22.819
22.819
22.819
22.8189
22.8189
22.8189
22.8189
22.8188
22.8188
22.8188
22.8187
22.8187
22.8187
22.8889
22.8889
22.8889
22.8889
22.8889
22.8889
22.889
22.889
22.889
22.889
22.889
22.889
22.889
22.889
22.8891
22.8891
22.8891
22.8891
22.8891
22.8891
22.8891
22.8891
22.8891
22.8891
22.8891
22.8891
22.8891
22.8891
22.8891
22.8891
22.8891
22.8891
22.8891
22.8891
22.8891
22.8891
22.8891
22.8891
22.8891
22.8891
22.8891
22.8891
22.8891
22.8891
22.8891
22.8891
22.889
22.889
22.889
22.889
22.889
22.889
22.889
22.889
22.8889
22.8889
22.8889
22.8889
22.8889
22.8889
22.9525
22.9525
22.9525
22.9525
22.9525
22.9525
22.9525
22.9525
22.9525
22.9525
22.9525
22.9525
22.9525
22.9525
22.9526
22.9526
22.9526
22.9526
22.9526
22.9526
22.9526
22.9526
22.9526
22.9526
22.9526
22.9526
22.9526
22.9526
22.9526
22.9526
22.9526
22.9526
22.9526
22.9526
22.9526
22.9526
22.9526
22.9526
22.9526
22.9526
22.9526
22.9526
22.9526
22.9526
22.9526
22.9526
22.9525
22.9525
22.9525
22.9525
22.9525
22.9525
22.9525
22.9525
22.9525
22.9525
22.9525
22.9525
22.9525
22.9525
23.0109
23.0109
23.0109
23.0109
23.0109
23.0109
23.0109
23.0109
23.0109
23.0109
23.0109
23.0109
23.0109
23.0109
23.0109
23.0109
23.0109
23.0109
23.0109
23.0109
23.0109
23.0109
23.0109
23.0109
23.0109
23.0109
23.0109
23.0109
23.0109
23.0109
23.0109
23.0109
23.0109
23.0109
23.0109
23.0109
23.0109
23.0109
23.0109
23.0109
23.0109
23.0109
23.0109
23.0109
23.0109
23.0109
23.0109
23.0109
23.0109
23.0109
23.0109
23.0109
23.0109
23.0109
23.0109
23.0109
23.0109
23.0109
23.0109
23.0109
23.0651
23.0651
23.0651
23.0651
23.0651
23.0651
23.0651
23.0651
23.0651
23.0651
23.0651
23.0651
23.0651
23.065
23.065
23.065
23.065
23.065
23.065
23.065
23.065
23.065
23.065
23.065
23.065
23.065
23.065
23.065
23.065
23.065
23.065
23.065
23.065
23.065
23.065
23.065
23.065
23.065
23.065
23.065
23.065
23.065
23.065
23.065
23.065
23.065
23.065
23.0651
23.0651
23.0651
23.0651
23.0651
23.0651
23.0651
23.0651
23.0651
23.0651
23.0651
23.0651
23.0651
23.1158
23.1158
23.1158
23.1158
23.1158
23.1158
23.1158
23.1158
23.1158
23.1158
23.1158
23.1158
23.1158
23.1158
23.1157
23.1157
23.1157
23.1157
23.1157
23.1157
23.1157
23.1157
23.1157
23.1157
23.1157
23.1157
23.1157
23.1157
23.1157
23.1157
23.1157
23.1157
23.1157
23.1157
23.1157
23.1157
23.1157
23.1157
23.1157
23.1157
23.1157
23.1157
23.1157
23.1157
23.1157
23.1157
23.1158
23.1158
23.1158
23.1158
23.1158
23.1158
23.1158
23.1158
23.1158
23.1158
23.1158
23.1158
23.1158
23.1158
23.1637
23.1637
23.1636
23.1636
23.1636
23.1636
23.1636
23.1636
23.1636
23.1636
23.1636
23.1636
23.1636
23.1635
23.1635
23.1635
23.1635
23.1635
23.1635
23.1635
23.1635
23.1635
23.1635
23.1635
23.1635
23.1635
23.1635
23.1635
23.1635
23.1635
23.1635
23.1635
23.1635
23.1635
23.1635
23.1635
23.1635
23.1635
23.1635
23.1635
23.1635
23.1635
23.1635
23.1635
23.1635
23.1635
23.1635
23.1636
23.1636
23.1636
23.1636
23.1636
23.1636
23.1636
23.1636
23.1636
23.1636
23.1636
23.1637
23.1637
23.209
23.209
23.209
23.209
23.209
23.209
23.2089
23.2089
23.2089
23.2089
23.2089
23.2089
23.2089
23.2089
23.2089
23.2089
23.2088
23.2088
23.2088
23.2088
23.2088
23.2088
23.2088
23.2088
23.2088
23.2088
23.2088
23.2088
23.2088
23.2088
23.2088
23.2088
23.2088
23.2088
23.2088
23.2088
23.2088
23.2088
23.2088
23.2088
23.2088
23.2088
23.2088
23.2088
23.2089
23.2089
23.2089
23.2089
23.2089
23.2089
23.2089
23.2089
23.2089
23.2089
23.209
23.209
23.209
23.209
23.209
23.209
23.2522
23.2522
23.2522
23.2522
23.2522
23.2522
23.2522
23.2521
23.2521
23.2521
23.2521
23.2521
23.2521
23.2521
23.2521
23.252
23.252
23.252
23.252
23.252
23.252
23.252
23.252
23.252
23.252
23.252
23.252
23.252
23.252
23.252
23.252
23.252
23.252
23.252
23.252
23.252
23.252
23.252
23.252
23.252
23.252
23.252
23.252
23.252
23.252
23.2521
23.2521
23.2521
23.2521
23.2521
23.2521
23.2521
23.2521
23.2522
23.2522
23.2522
23.2522
23.2522
23.2522
23.2522
23.2936
23.2936
23.2936
23.2936
23.2935
23.2935
23.2935
23.2935
23.2935
23.2935
23.2934
23.2934
23.2934
23.2934
23.2934
23.2934
23.2934
23.2934
23.2934
23.2934
23.2934
23.2934
23.2933
23.2933
23.2933
23.2933
23.2933
23.2933
23.2933
23.2933
23.2933
23.2933
23.2933
23.2933
23.2933
23.2933
23.2933
23.2933
23.2934
23.2934
23.2934
23.2934
23.2934
23.2934
23.2934
23.2934
23.2934
23.2934
23.2934
23.2934
23.2935
23.2935
23.2935
23.2935
23.2935
23.2935
23.2936
23.2936
23.2936
23.2936
23.3334
23.3333
23.3333
23.3333
23.3333
23.3333
23.3332
23.3332
23.3332
23.3332
23.3332
23.3332
23.3332
23.3331
23.3331
23.3331
23.3331
23.3331
23.3331
23.3331
23.3331
23.3331
23.3331
23.3331
23.3331
23.3331
23.3331
23.3331
23.3331
23.3331
23.3331
23.3331
23.3331
23.3331
23.3331
23.3331
23.3331
23.3331
23.3331
23.3331
23.3331
23.3331
23.3331
23.3331
23.3331
23.3331
23.3331
23.3332
23.3332
23.3332
23.3332
23.3332
23.3332
23.3332
23.3333
23.3333
23.3333
23.3333
23.3333
23.3334
23.3717
23.3717
23.3716
23.3716
23.3716
23.3716
23.3716
23.3715
23.3715
23.3715
23.3715
23.3715
23.3715
23.3715
23.3714
23.3714
23.3714
23.3714
23.3714
23.3714
23.3714
23.3714
23.3714
23.3714
23.3714
23.3714
23.3714
23.3714
23.3714
23.3714
23.3714
23.3714
23.3714
23.3714
23.3714
23.3714
23.3714
23.3714
23.3714
23.3714
23.3714
23.3714
23.3714
23.3714
23.3714
23.3714
23.3715
23.3715
23.3715
23.3715
23.3715
23.3715
23.3715
23.3716
23.3716
23.3716
23.3716
23.3716
23.3717
23.3717
23.4087
23.4087
23.4087
23.4087
23.4087
23.4086
23.4086
23.4086
23.4086
23.4086
23.4085
23.4085
23.4085
23.4085
23.4085
23.4085
23.4085
23.4085
23.4085
23.4084
23.4084
23.4084
23.4084
23.4084
23.4084
23.4084
23.4084
23.4084
23.4084
23.4084
23.4084
23.4084
23.4084
23.4084
23.4084
23.4084
23.4084
23.4084
23.4084
23.4084
23.4084
23.4085
23.4085
23.4085
23.4085
23.4085
23.4085
23.4085
23.4085
23.4085
23.4086
23.4086
23.4086
23.4086
23.4086
23.4087
23.4087
23.4087
23.4087
23.4087
23.4447
23.4447
23.4446
23.4446
23.4446
23.4446
23.4446
23.4445
23.4445
23.4445
23.4445
23.4445
23.4444
23.4444
23.4444
23.4444
23.4444
23.4444
23.4444
23.4444
23.4444