/*--------------------------------*- C++ -*----------------------------------*\
| =========                 |                                                 |
| \\      /  F ield         | foam-extend: Open Source CFD                    |
|  \\    /   O peration     | Version:     4.0                                |
|   \\  /    A nd           | Web:         http://www.foam-extend.org         |
|    \\/     M anipulation  |                                                 |
\*---------------------------------------------------------------------------*/
FoamFile
{
    version     2.0;
    format      ascii;
    class       volScalarField;
    location    "1030";
    object      cPlus;
}
// * * * * * * * * * * * * * * * * * * * * * * * * * * * * * * * * * * * * * //

dimensions      [0 0 0 0 0 0 0];

internalField   nonuniform List<scalar> 
6960
(
0.327207
0.327196
0.327182
0.327168
0.327155
0.327142
0.327131
0.327121
0.327112
0.327104
0.327097
0.327091
0.327085
0.32708
0.327076
0.327072
0.327069
0.327066
0.327064
0.327062
0.32706
0.327059
0.327058
0.327056
0.327056
0.327055
0.327054
0.327054
0.327054
0.327054
0.327054
0.327054
0.327054
0.327054
0.327055
0.327056
0.327056
0.327058
0.327059
0.32706
0.327062
0.327064
0.327066
0.327069
0.327072
0.327076
0.32708
0.327085
0.327091
0.327097
0.327104
0.327112
0.327121
0.327131
0.327142
0.327155
0.327168
0.327182
0.327196
0.327207
0.108352
0.108344
0.108334
0.108324
0.108314
0.108305
0.108297
0.10829
0.108283
0.108277
0.108272
0.108268
0.108263
0.10826
0.108257
0.108254
0.108252
0.10825
0.108248
0.108246
0.108245
0.108244
0.108243
0.108242
0.108242
0.108241
0.108241
0.108241
0.10824
0.10824
0.10824
0.10824
0.108241
0.108241
0.108241
0.108242
0.108242
0.108243
0.108244
0.108245
0.108246
0.108248
0.10825
0.108252
0.108254
0.108257
0.10826
0.108263
0.108268
0.108272
0.108277
0.108283
0.10829
0.108297
0.108305
0.108314
0.108324
0.108334
0.108344
0.108352
0.0426408
0.0426363
0.0426305
0.0426247
0.0426191
0.0426139
0.0426092
0.042605
0.0426012
0.0425978
0.0425948
0.0425921
0.0425898
0.0425877
0.0425859
0.0425844
0.042583
0.0425818
0.0425808
0.0425799
0.0425792
0.0425786
0.042578
0.0425776
0.0425772
0.0425769
0.0425767
0.0425765
0.0425764
0.0425764
0.0425764
0.0425764
0.0425765
0.0425767
0.0425769
0.0425772
0.0425776
0.042578
0.0425786
0.0425792
0.0425799
0.0425808
0.0425818
0.042583
0.0425844
0.0425859
0.0425877
0.0425898
0.0425921
0.0425948
0.0425978
0.0426012
0.042605
0.0426092
0.0426139
0.0426191
0.0426247
0.0426305
0.0426363
0.0426408
0.0192647
0.0192629
0.0192602
0.0192575
0.0192548
0.0192524
0.0192502
0.0192482
0.0192464
0.0192448
0.0192434
0.0192421
0.019241
0.0192401
0.0192392
0.0192385
0.0192378
0.0192373
0.0192368
0.0192364
0.019236
0.0192357
0.0192355
0.0192353
0.0192351
0.019235
0.0192349
0.0192348
0.0192347
0.0192347
0.0192347
0.0192347
0.0192348
0.0192349
0.019235
0.0192351
0.0192353
0.0192355
0.0192357
0.019236
0.0192364
0.0192368
0.0192373
0.0192378
0.0192385
0.0192392
0.0192401
0.019241
0.0192421
0.0192434
0.0192448
0.0192464
0.0192482
0.0192502
0.0192524
0.0192548
0.0192575
0.0192602
0.0192629
0.0192647
0.0105393
0.0105389
0.0105382
0.0105373
0.0105365
0.0105357
0.010535
0.0105344
0.0105338
0.0105333
0.0105328
0.0105324
0.0105321
0.0105317
0.0105315
0.0105312
0.010531
0.0105308
0.0105307
0.0105306
0.0105304
0.0105303
0.0105303
0.0105302
0.0105301
0.0105301
0.0105301
0.01053
0.01053
0.01053
0.01053
0.01053
0.01053
0.0105301
0.0105301
0.0105301
0.0105302
0.0105303
0.0105303
0.0105304
0.0105306
0.0105307
0.0105308
0.010531
0.0105312
0.0105315
0.0105317
0.0105321
0.0105324
0.0105328
0.0105333
0.0105338
0.0105344
0.010535
0.0105357
0.0105365
0.0105373
0.0105382
0.0105389
0.0105393
0.00728384
0.00728434
0.00728459
0.00728476
0.0072849
0.00728501
0.00728511
0.0072852
0.00728528
0.00728535
0.00728541
0.00728546
0.0072855
0.00728554
0.00728558
0.00728561
0.00728563
0.00728565
0.00728567
0.00728569
0.0072857
0.00728571
0.00728572
0.00728573
0.00728573
0.00728574
0.00728574
0.00728575
0.00728575
0.00728575
0.00728575
0.00728575
0.00728575
0.00728574
0.00728574
0.00728573
0.00728573
0.00728572
0.00728571
0.0072857
0.00728569
0.00728567
0.00728565
0.00728563
0.00728561
0.00728558
0.00728554
0.0072855
0.00728546
0.00728541
0.00728535
0.00728528
0.0072852
0.00728511
0.00728501
0.0072849
0.00728476
0.00728459
0.00728434
0.00728384
0.00610358
0.0061045
0.00610525
0.00610593
0.00610654
0.0061071
0.0061076
0.00610805
0.00610845
0.00610881
0.00610913
0.0061094
0.00610965
0.00610986
0.00611005
0.00611021
0.00611035
0.00611048
0.00611058
0.00611067
0.00611075
0.00611081
0.00611087
0.00611091
0.00611095
0.00611098
0.006111
0.00611102
0.00611103
0.00611104
0.00611104
0.00611103
0.00611102
0.006111
0.00611098
0.00611095
0.00611091
0.00611087
0.00611081
0.00611075
0.00611067
0.00611058
0.00611048
0.00611035
0.00611021
0.00611005
0.00610986
0.00610965
0.0061094
0.00610913
0.00610881
0.00610845
0.00610805
0.0061076
0.0061071
0.00610654
0.00610593
0.00610525
0.0061045
0.00610358
0.00570416
0.00570528
0.00570627
0.00570718
0.00570802
0.00570878
0.00570947
0.00571009
0.00571065
0.00571114
0.00571158
0.00571196
0.0057123
0.0057126
0.00571286
0.00571308
0.00571328
0.00571345
0.00571359
0.00571372
0.00571383
0.00571392
0.00571399
0.00571405
0.00571411
0.00571415
0.00571418
0.0057142
0.00571422
0.00571423
0.00571423
0.00571422
0.0057142
0.00571418
0.00571415
0.00571411
0.00571405
0.00571399
0.00571392
0.00571383
0.00571372
0.00571359
0.00571345
0.00571328
0.00571308
0.00571286
0.0057126
0.0057123
0.00571196
0.00571158
0.00571114
0.00571065
0.00571009
0.00570947
0.00570878
0.00570802
0.00570718
0.00570627
0.00570528
0.00570416
0.00559393
0.00559515
0.00559625
0.00559727
0.00559821
0.00559907
0.00559985
0.00560055
0.00560117
0.00560173
0.00560222
0.00560266
0.00560304
0.00560338
0.00560367
0.00560392
0.00560414
0.00560434
0.0056045
0.00560464
0.00560476
0.00560486
0.00560495
0.00560502
0.00560508
0.00560513
0.00560516
0.00560519
0.00560521
0.00560522
0.00560522
0.00560521
0.00560519
0.00560516
0.00560513
0.00560508
0.00560502
0.00560495
0.00560486
0.00560476
0.00560464
0.0056045
0.00560434
0.00560414
0.00560392
0.00560367
0.00560338
0.00560304
0.00560266
0.00560222
0.00560173
0.00560117
0.00560055
0.00559985
0.00559907
0.00559821
0.00559727
0.00559625
0.00559515
0.00559393
0.00558955
0.00559081
0.00559197
0.00559305
0.00559404
0.00559495
0.00559577
0.0055965
0.00559716
0.00559775
0.00559827
0.00559873
0.00559913
0.00559949
0.0055998
0.00560007
0.0056003
0.0056005
0.00560068
0.00560082
0.00560095
0.00560106
0.00560115
0.00560123
0.00560129
0.00560134
0.00560138
0.0056014
0.00560142
0.00560143
0.00560143
0.00560142
0.0056014
0.00560138
0.00560134
0.00560129
0.00560123
0.00560115
0.00560106
0.00560095
0.00560082
0.00560068
0.0056005
0.0056003
0.00560007
0.0055998
0.00559949
0.00559913
0.00559873
0.00559827
0.00559775
0.00559716
0.0055965
0.00559577
0.00559495
0.00559404
0.00559305
0.00559197
0.00559081
0.00558955
0.00562434
0.00562563
0.00562682
0.00562793
0.00562896
0.00562989
0.00563073
0.00563149
0.00563217
0.00563278
0.00563332
0.00563379
0.00563421
0.00563457
0.00563489
0.00563517
0.00563541
0.00563562
0.00563579
0.00563595
0.00563608
0.00563619
0.00563628
0.00563636
0.00563643
0.00563648
0.00563652
0.00563655
0.00563657
0.00563657
0.00563657
0.00563657
0.00563655
0.00563652
0.00563648
0.00563643
0.00563636
0.00563628
0.00563619
0.00563608
0.00563595
0.00563579
0.00563562
0.00563541
0.00563517
0.00563489
0.00563457
0.00563421
0.00563379
0.00563332
0.00563278
0.00563217
0.00563149
0.00563073
0.00562989
0.00562896
0.00562793
0.00562682
0.00562563
0.00562434
0.00567481
0.00567614
0.00567735
0.00567849
0.00567953
0.00568048
0.00568135
0.00568212
0.00568282
0.00568344
0.00568398
0.00568447
0.00568489
0.00568527
0.00568559
0.00568588
0.00568612
0.00568634
0.00568652
0.00568668
0.00568681
0.00568692
0.00568702
0.0056871
0.00568716
0.00568722
0.00568726
0.00568729
0.00568731
0.00568732
0.00568732
0.00568731
0.00568729
0.00568726
0.00568722
0.00568716
0.0056871
0.00568702
0.00568692
0.00568681
0.00568668
0.00568652
0.00568634
0.00568612
0.00568588
0.00568559
0.00568527
0.00568489
0.00568447
0.00568398
0.00568344
0.00568282
0.00568212
0.00568135
0.00568048
0.00567953
0.00567849
0.00567735
0.00567614
0.00567481
0.00573307
0.00573442
0.00573566
0.00573681
0.00573788
0.00573885
0.00573973
0.00574052
0.00574123
0.00574186
0.00574242
0.00574291
0.00574334
0.00574372
0.00574406
0.00574435
0.0057446
0.00574481
0.005745
0.00574516
0.0057453
0.00574541
0.00574551
0.00574559
0.00574566
0.00574571
0.00574576
0.00574579
0.00574581
0.00574582
0.00574582
0.00574581
0.00574579
0.00574576
0.00574571
0.00574566
0.00574559
0.00574551
0.00574541
0.0057453
0.00574516
0.005745
0.00574481
0.0057446
0.00574435
0.00574406
0.00574372
0.00574334
0.00574291
0.00574242
0.00574186
0.00574123
0.00574052
0.00573973
0.00573885
0.00573788
0.00573681
0.00573566
0.00573442
0.00573307
0.00579669
0.00579806
0.00579933
0.0058005
0.00580159
0.00580258
0.00580347
0.00580428
0.005805
0.00580564
0.00580621
0.00580671
0.00580716
0.00580754
0.00580788
0.00580818
0.00580843
0.00580865
0.00580884
0.00580901
0.00580915
0.00580927
0.00580937
0.00580945
0.00580952
0.00580957
0.00580961
0.00580965
0.00580967
0.00580968
0.00580968
0.00580967
0.00580965
0.00580961
0.00580957
0.00580952
0.00580945
0.00580937
0.00580927
0.00580915
0.00580901
0.00580884
0.00580865
0.00580843
0.00580818
0.00580788
0.00580754
0.00580716
0.00580671
0.00580621
0.00580564
0.005805
0.00580428
0.00580347
0.00580258
0.00580159
0.0058005
0.00579933
0.00579806
0.00579669
0.00586515
0.00586655
0.00586783
0.00586903
0.00587014
0.00587115
0.00587206
0.00587288
0.00587362
0.00587427
0.00587485
0.00587537
0.00587582
0.00587621
0.00587656
0.00587686
0.00587712
0.00587735
0.00587754
0.00587771
0.00587785
0.00587797
0.00587807
0.00587816
0.00587823
0.00587828
0.00587833
0.00587836
0.00587838
0.00587839
0.00587839
0.00587838
0.00587836
0.00587833
0.00587828
0.00587823
0.00587816
0.00587807
0.00587797
0.00587785
0.00587771
0.00587754
0.00587735
0.00587712
0.00587686
0.00587656
0.00587621
0.00587582
0.00587537
0.00587485
0.00587427
0.00587362
0.00587288
0.00587206
0.00587115
0.00587014
0.00586903
0.00586783
0.00586655
0.00586515
0.00593858
0.00594001
0.00594133
0.00594255
0.00594368
0.00594471
0.00594564
0.00594648
0.00594723
0.0059479
0.00594849
0.00594902
0.00594948
0.00594988
0.00595023
0.00595054
0.00595081
0.00595104
0.00595124
0.00595141
0.00595155
0.00595168
0.00595178
0.00595187
0.00595194
0.00595199
0.00595204
0.00595207
0.00595209
0.0059521
0.0059521
0.00595209
0.00595207
0.00595204
0.00595199
0.00595194
0.00595187
0.00595178
0.00595168
0.00595155
0.00595141
0.00595124
0.00595104
0.00595081
0.00595054
0.00595023
0.00594988
0.00594948
0.00594902
0.00594849
0.0059479
0.00594723
0.00594648
0.00594564
0.00594471
0.00594368
0.00594255
0.00594133
0.00594001
0.00593858
0.00601741
0.00601887
0.00602021
0.00602146
0.00602262
0.00602367
0.00602462
0.00602548
0.00602625
0.00602693
0.00602753
0.00602807
0.00602854
0.00602895
0.00602931
0.00602963
0.0060299
0.00603014
0.00603034
0.00603051
0.00603066
0.00603079
0.0060309
0.00603098
0.00603106
0.00603112
0.00603116
0.00603119
0.00603122
0.00603123
0.00603123
0.00603122
0.00603119
0.00603116
0.00603112
0.00603106
0.00603098
0.0060309
0.00603079
0.00603066
0.00603051
0.00603034
0.00603014
0.0060299
0.00602963
0.00602931
0.00602895
0.00602854
0.00602807
0.00602753
0.00602693
0.00602625
0.00602548
0.00602462
0.00602367
0.00602262
0.00602146
0.00602021
0.00601887
0.00601741
0.00610215
0.00610365
0.00610503
0.00610631
0.00610748
0.00610856
0.00610954
0.00611041
0.0061112
0.0061119
0.00611252
0.00611307
0.00611355
0.00611397
0.00611434
0.00611466
0.00611494
0.00611518
0.00611539
0.00611557
0.00611572
0.00611585
0.00611596
0.00611605
0.00611613
0.00611619
0.00611623
0.00611627
0.00611629
0.0061163
0.0061163
0.00611629
0.00611627
0.00611623
0.00611619
0.00611613
0.00611605
0.00611596
0.00611585
0.00611572
0.00611557
0.00611539
0.00611518
0.00611494
0.00611466
0.00611434
0.00611397
0.00611355
0.00611307
0.00611252
0.0061119
0.0061112
0.00611041
0.00610954
0.00610856
0.00610748
0.00610631
0.00610503
0.00610365
0.00610215
0.00619346
0.006195
0.00619641
0.00619772
0.00619893
0.00620003
0.00620103
0.00620193
0.00620273
0.00620345
0.00620408
0.00620465
0.00620514
0.00620557
0.00620595
0.00620628
0.00620657
0.00620682
0.00620703
0.00620721
0.00620737
0.0062075
0.00620762
0.00620771
0.00620778
0.00620785
0.00620789
0.00620793
0.00620795
0.00620796
0.00620796
0.00620795
0.00620793
0.00620789
0.00620785
0.00620778
0.00620771
0.00620762
0.0062075
0.00620737
0.00620721
0.00620703
0.00620682
0.00620657
0.00620628
0.00620595
0.00620557
0.00620514
0.00620465
0.00620408
0.00620345
0.00620273
0.00620193
0.00620103
0.00620003
0.00619893
0.00619772
0.00619641
0.006195
0.00619346
0.00629207
0.00629365
0.0062951
0.00629645
0.00629769
0.00629882
0.00629985
0.00630077
0.0063016
0.00630233
0.00630299
0.00630356
0.00630407
0.00630452
0.0063049
0.00630524
0.00630554
0.00630579
0.00630601
0.0063062
0.00630636
0.0063065
0.00630661
0.00630671
0.00630679
0.00630685
0.0063069
0.00630694
0.00630696
0.00630697
0.00630697
0.00630696
0.00630694
0.0063069
0.00630685
0.00630679
0.00630671
0.00630661
0.0063065
0.00630636
0.0063062
0.00630601
0.00630579
0.00630554
0.00630524
0.0063049
0.00630452
0.00630407
0.00630356
0.00630299
0.00630233
0.0063016
0.00630077
0.00629985
0.00629882
0.00629769
0.00629645
0.0062951
0.00629365
0.00629207
0.00639886
0.0064005
0.00640199
0.00640337
0.00640465
0.00640581
0.00640687
0.00640782
0.00640867
0.00640943
0.0064101
0.00641069
0.00641121
0.00641167
0.00641207
0.00641242
0.00641272
0.00641299
0.00641321
0.00641341
0.00641357
0.00641371
0.00641383
0.00641393
0.00641401
0.00641408
0.00641413
0.00641416
0.00641419
0.0064142
0.0064142
0.00641419
0.00641416
0.00641413
0.00641408
0.00641401
0.00641393
0.00641383
0.00641371
0.00641357
0.00641341
0.00641321
0.00641299
0.00641272
0.00641242
0.00641207
0.00641167
0.00641121
0.00641069
0.0064101
0.00640943
0.00640867
0.00640782
0.00640687
0.00640581
0.00640465
0.00640337
0.00640199
0.0064005
0.00639886
0.00651486
0.00651655
0.00651808
0.00651951
0.00652083
0.00652203
0.00652312
0.0065241
0.00652497
0.00652575
0.00652645
0.00652706
0.0065276
0.00652807
0.00652848
0.00652884
0.00652916
0.00652943
0.00652966
0.00652986
0.00653003
0.00653018
0.0065303
0.0065304
0.00653048
0.00653055
0.0065306
0.00653064
0.00653067
0.00653068
0.00653068
0.00653067
0.00653064
0.0065306
0.00653055
0.00653048
0.0065304
0.0065303
0.00653018
0.00653003
0.00652986
0.00652966
0.00652943
0.00652916
0.00652884
0.00652848
0.00652807
0.0065276
0.00652706
0.00652645
0.00652575
0.00652497
0.0065241
0.00652312
0.00652203
0.00652083
0.00651951
0.00651808
0.00651655
0.00651486
0.00664127
0.00664302
0.0066446
0.00664608
0.00664744
0.00664868
0.00664981
0.00665082
0.00665173
0.00665253
0.00665325
0.00665388
0.00665444
0.00665493
0.00665536
0.00665573
0.00665605
0.00665633
0.00665657
0.00665678
0.00665696
0.00665711
0.00665723
0.00665734
0.00665742
0.00665749
0.00665755
0.00665759
0.00665761
0.00665763
0.00665763
0.00665761
0.00665759
0.00665755
0.00665749
0.00665742
0.00665734
0.00665723
0.00665711
0.00665696
0.00665678
0.00665657
0.00665633
0.00665605
0.00665573
0.00665536
0.00665493
0.00665444
0.00665388
0.00665325
0.00665253
0.00665173
0.00665082
0.00664981
0.00664868
0.00664744
0.00664608
0.0066446
0.00664302
0.00664127
0.00677953
0.00678134
0.00678299
0.00678452
0.00678593
0.00678721
0.00678838
0.00678943
0.00679037
0.0067912
0.00679195
0.0067926
0.00679318
0.00679369
0.00679413
0.00679452
0.00679485
0.00679514
0.00679539
0.00679561
0.00679579
0.00679595
0.00679608
0.00679619
0.00679628
0.00679635
0.00679641
0.00679645
0.00679647
0.00679649
0.00679649
0.00679647
0.00679645
0.00679641
0.00679635
0.00679628
0.00679619
0.00679608
0.00679595
0.00679579
0.00679561
0.00679539
0.00679514
0.00679485
0.00679452
0.00679413
0.00679369
0.00679318
0.0067926
0.00679195
0.0067912
0.00679037
0.00678943
0.00678838
0.00678721
0.00678593
0.00678452
0.00678299
0.00678134
0.00677953
0.00693137
0.00693325
0.00693496
0.00693655
0.00693802
0.00693936
0.00694057
0.00694166
0.00694263
0.0069435
0.00694428
0.00694496
0.00694556
0.00694609
0.00694655
0.00694695
0.0069473
0.0069476
0.00694786
0.00694808
0.00694827
0.00694844
0.00694857
0.00694869
0.00694878
0.00694886
0.00694891
0.00694896
0.00694898
0.006949
0.006949
0.00694898
0.00694896
0.00694891
0.00694886
0.00694878
0.00694869
0.00694857
0.00694844
0.00694827
0.00694808
0.00694786
0.0069476
0.0069473
0.00694695
0.00694655
0.00694609
0.00694556
0.00694496
0.00694428
0.0069435
0.00694263
0.00694166
0.00694057
0.00693936
0.00693802
0.00693655
0.00693496
0.00693325
0.00693137
0.00709887
0.00710084
0.00710262
0.00710428
0.00710581
0.0071072
0.00710847
0.0071096
0.00711062
0.00711153
0.00711234
0.00711305
0.00711368
0.00711423
0.00711471
0.00711513
0.00711549
0.0071158
0.00711608
0.00711631
0.00711651
0.00711668
0.00711682
0.00711694
0.00711704
0.00711712
0.00711718
0.00711722
0.00711725
0.00711726
0.00711726
0.00711725
0.00711722
0.00711718
0.00711712
0.00711704
0.00711694
0.00711682
0.00711668
0.00711651
0.00711631
0.00711608
0.0071158
0.00711549
0.00711513
0.00711471
0.00711423
0.00711368
0.00711305
0.00711234
0.00711153
0.00711062
0.0071096
0.00710847
0.0071072
0.00710581
0.00710428
0.00710262
0.00710084
0.00709887
0.00728459
0.00728665
0.00728852
0.00729026
0.00729186
0.00729332
0.00729465
0.00729584
0.0072969
0.00729786
0.0072987
0.00729944
0.0073001
0.00730068
0.00730118
0.00730162
0.007302
0.00730233
0.00730262
0.00730286
0.00730307
0.00730325
0.0073034
0.00730352
0.00730363
0.00730371
0.00730377
0.00730382
0.00730385
0.00730386
0.00730386
0.00730385
0.00730382
0.00730377
0.00730371
0.00730363
0.00730352
0.0073034
0.00730325
0.00730307
0.00730286
0.00730262
0.00730233
0.007302
0.00730162
0.00730118
0.00730068
0.0073001
0.00729944
0.0072987
0.00729786
0.0072969
0.00729584
0.00729465
0.00729332
0.00729186
0.00729026
0.00728852
0.00728665
0.00728459
0.00749171
0.00749388
0.00749585
0.00749767
0.00749936
0.00750089
0.00750228
0.00750354
0.00750466
0.00750566
0.00750655
0.00750733
0.00750803
0.00750863
0.00750916
0.00750962
0.00751003
0.00751037
0.00751067
0.00751093
0.00751115
0.00751134
0.0075115
0.00751163
0.00751174
0.00751182
0.00751189
0.00751194
0.00751197
0.00751199
0.00751199
0.00751197
0.00751194
0.00751189
0.00751182
0.00751174
0.00751163
0.0075115
0.00751134
0.00751115
0.00751093
0.00751067
0.00751037
0.00751003
0.00750962
0.00750916
0.00750863
0.00750803
0.00750733
0.00750655
0.00750566
0.00750466
0.00750354
0.00750228
0.00750089
0.00749936
0.00749767
0.00749585
0.00749388
0.00749171
0.00772419
0.00772648
0.00772856
0.00773049
0.00773227
0.0077339
0.00773537
0.0077367
0.00773789
0.00773894
0.00773988
0.00774071
0.00774144
0.00774209
0.00774265
0.00774314
0.00774356
0.00774393
0.00774425
0.00774452
0.00774475
0.00774495
0.00774512
0.00774526
0.00774537
0.00774546
0.00774553
0.00774559
0.00774562
0.00774564
0.00774564
0.00774562
0.00774559
0.00774553
0.00774546
0.00774537
0.00774526
0.00774512
0.00774495
0.00774475
0.00774452
0.00774425
0.00774393
0.00774356
0.00774314
0.00774265
0.00774209
0.00774144
0.00774071
0.00773988
0.00773894
0.00773789
0.0077367
0.00773537
0.0077339
0.00773227
0.00773049
0.00772856
0.00772648
0.00772419
0.00798708
0.00798953
0.00799174
0.00799379
0.00799569
0.00799742
0.00799899
0.0080004
0.00800166
0.00800279
0.00800379
0.00800467
0.00800545
0.00800613
0.00800673
0.00800725
0.0080077
0.0080081
0.00800843
0.00800873
0.00800897
0.00800918
0.00800936
0.00800951
0.00800963
0.00800973
0.00800981
0.00800986
0.0080099
0.00800991
0.00800991
0.0080099
0.00800986
0.00800981
0.00800973
0.00800963
0.00800951
0.00800936
0.00800918
0.00800897
0.00800873
0.00800843
0.0080081
0.0080077
0.00800725
0.00800673
0.00800613
0.00800545
0.00800467
0.00800379
0.00800279
0.00800166
0.0080004
0.00799899
0.00799742
0.00799569
0.00799379
0.00799174
0.00798953
0.00798708
0.00828694
0.00828956
0.00829193
0.00829413
0.00829616
0.00829802
0.0082997
0.00830121
0.00830256
0.00830377
0.00830484
0.00830579
0.00830663
0.00830736
0.008308
0.00830856
0.00830905
0.00830947
0.00830983
0.00831014
0.00831041
0.00831063
0.00831082
0.00831098
0.00831111
0.00831122
0.0083113
0.00831136
0.0083114
0.00831142
0.00831142
0.0083114
0.00831136
0.0083113
0.00831122
0.00831111
0.00831098
0.00831082
0.00831063
0.00831041
0.00831014
0.00830983
0.00830947
0.00830905
0.00830856
0.008308
0.00830736
0.00830663
0.00830579
0.00830484
0.00830377
0.00830256
0.00830121
0.0082997
0.00829802
0.00829616
0.00829413
0.00829193
0.00828956
0.00828694
0.00863237
0.0086352
0.00863777
0.00864015
0.00864234
0.00864435
0.00864616
0.0086478
0.00864926
0.00865057
0.00865173
0.00865276
0.00865366
0.00865445
0.00865515
0.00865575
0.00865628
0.00865673
0.00865713
0.00865746
0.00865775
0.008658
0.0086582
0.00865837
0.00865852
0.00865863
0.00865872
0.00865878
0.00865882
0.00865884
0.00865884
0.00865882
0.00865878
0.00865872
0.00865863
0.00865852
0.00865837
0.0086582
0.008658
0.00865775
0.00865746
0.00865713
0.00865673
0.00865628
0.00865575
0.00865515
0.00865445
0.00865366
0.00865276
0.00865173
0.00865057
0.00864926
0.0086478
0.00864616
0.00864435
0.00864234
0.00864015
0.00863777
0.0086352
0.00863237
0.00903499
0.00903808
0.00904087
0.00904347
0.00904587
0.00904806
0.00905005
0.00905184
0.00905344
0.00905486
0.00905613
0.00905725
0.00905824
0.00905911
0.00905987
0.00906053
0.0090611
0.0090616
0.00906203
0.0090624
0.00906272
0.00906298
0.00906321
0.0090634
0.00906355
0.00906368
0.00906377
0.00906384
0.00906389
0.00906391
0.00906391
0.00906389
0.00906384
0.00906377
0.00906368
0.00906355
0.0090634
0.00906321
0.00906298
0.00906272
0.0090624
0.00906203
0.0090616
0.0090611
0.00906053
0.00905987
0.00905911
0.00905824
0.00905725
0.00905613
0.00905486
0.00905344
0.00905184
0.00905005
0.00904806
0.00904587
0.00904347
0.00904087
0.00903808
0.00903499
0.00951077
0.00951417
0.00951727
0.00952014
0.0095228
0.00952522
0.00952742
0.0095294
0.00953117
0.00953275
0.00953415
0.0095354
0.00953649
0.00953745
0.00953829
0.00953902
0.00953966
0.00954021
0.00954069
0.0095411
0.00954145
0.00954174
0.009542
0.0095422
0.00954238
0.00954251
0.00954262
0.0095427
0.00954275
0.00954277
0.00954277
0.00954275
0.0095427
0.00954262
0.00954251
0.00954238
0.0095422
0.009542
0.00954174
0.00954145
0.0095411
0.00954069
0.00954021
0.00953966
0.00953902
0.00953829
0.00953745
0.00953649
0.0095354
0.00953415
0.00953275
0.00953117
0.0095294
0.00952742
0.00952522
0.0095228
0.00952014
0.00951727
0.00951417
0.00951077
0.0100823
0.0100861
0.0100896
0.0100928
0.0100958
0.0100985
0.010101
0.0101032
0.0101052
0.010107
0.0101085
0.0101099
0.0101112
0.0101123
0.0101132
0.010114
0.0101147
0.0101154
0.0101159
0.0101164
0.0101167
0.0101171
0.0101174
0.0101176
0.0101178
0.0101179
0.0101181
0.0101182
0.0101182
0.0101182
0.0101182
0.0101182
0.0101182
0.0101181
0.0101179
0.0101178
0.0101176
0.0101174
0.0101171
0.0101167
0.0101164
0.0101159
0.0101154
0.0101147
0.010114
0.0101132
0.0101123
0.0101112
0.0101099
0.0101085
0.010107
0.0101052
0.0101032
0.010101
0.0100985
0.0100958
0.0100928
0.0100896
0.0100861
0.0100823
0.0107821
0.0107864
0.0107904
0.0107941
0.0107975
0.0108007
0.0108035
0.010806
0.0108083
0.0108104
0.0108122
0.0108138
0.0108152
0.0108164
0.0108175
0.0108185
0.0108193
0.01082
0.0108206
0.0108211
0.0108216
0.010822
0.0108223
0.0108226
0.0108228
0.010823
0.0108231
0.0108232
0.0108233
0.0108233
0.0108233
0.0108233
0.0108232
0.0108231
0.010823
0.0108228
0.0108226
0.0108223
0.010822
0.0108216
0.0108211
0.0108206
0.01082
0.0108193
0.0108185
0.0108175
0.0108164
0.0108152
0.0108138
0.0108122
0.0108104
0.0108083
0.010806
0.0108035
0.0108007
0.0107975
0.0107941
0.0107904
0.0107864
0.0107821
0.0116581
0.0116632
0.0116678
0.0116721
0.0116761
0.0116798
0.0116831
0.0116861
0.0116888
0.0116912
0.0116933
0.0116952
0.0116969
0.0116983
0.0116996
0.0117007
0.0117017
0.0117025
0.0117032
0.0117038
0.0117044
0.0117048
0.0117052
0.0117055
0.0117058
0.011706
0.0117061
0.0117063
0.0117063
0.0117064
0.0117064
0.0117063
0.0117063
0.0117061
0.011706
0.0117058
0.0117055
0.0117052
0.0117048
0.0117044
0.0117038
0.0117032
0.0117025
0.0117017
0.0117007
0.0116996
0.0116983
0.0116969
0.0116952
0.0116933
0.0116912
0.0116888
0.0116861
0.0116831
0.0116798
0.0116761
0.0116721
0.0116678
0.0116632
0.0116581
0.0127804
0.0127865
0.012792
0.0127973
0.0128021
0.0128065
0.0128105
0.0128141
0.0128173
0.0128202
0.0128227
0.012825
0.012827
0.0128288
0.0128303
0.0128316
0.0128328
0.0128338
0.0128347
0.0128354
0.0128361
0.0128366
0.0128371
0.0128374
0.0128378
0.012838
0.0128382
0.0128384
0.0128384
0.0128385
0.0128385
0.0128384
0.0128384
0.0128382
0.012838
0.0128378
0.0128374
0.0128371
0.0128366
0.0128361
0.0128354
0.0128347
0.0128338
0.0128328
0.0128316
0.0128303
0.0128288
0.012827
0.012825
0.0128227
0.0128202
0.0128173
0.0128141
0.0128105
0.0128065
0.0128021
0.0127973
0.012792
0.0127865
0.0127804
0.0142491
0.0142565
0.0142634
0.0142698
0.0142758
0.0142812
0.0142862
0.0142906
0.0142946
0.0142982
0.0143013
0.0143041
0.0143066
0.0143087
0.0143106
0.0143123
0.0143137
0.014315
0.0143161
0.014317
0.0143178
0.0143184
0.014319
0.0143195
0.0143199
0.0143202
0.0143204
0.0143206
0.0143207
0.0143208
0.0143208
0.0143207
0.0143206
0.0143204
0.0143202
0.0143199
0.0143195
0.014319
0.0143184
0.0143178
0.014317
0.0143161
0.014315
0.0143137
0.0143123
0.0143106
0.0143087
0.0143066
0.0143041
0.0143013
0.0142982
0.0142946
0.0142906
0.0142862
0.0142812
0.0142758
0.0142698
0.0142634
0.0142565
0.0142491
0.0161974
0.0162067
0.0162154
0.0162235
0.0162309
0.0162378
0.016244
0.0162496
0.0162546
0.0162591
0.0162631
0.0162666
0.0162697
0.0162724
0.0162748
0.0162769
0.0162787
0.0162803
0.0162817
0.0162828
0.0162838
0.0162847
0.0162854
0.016286
0.0162865
0.0162869
0.0162872
0.0162874
0.0162875
0.0162876
0.0162876
0.0162875
0.0162874
0.0162872
0.0162869
0.0162865
0.016286
0.0162854
0.0162847
0.0162838
0.0162828
0.0162817
0.0162803
0.0162787
0.0162769
0.0162748
0.0162724
0.0162697
0.0162666
0.0162631
0.0162591
0.0162546
0.0162496
0.016244
0.0162378
0.0162309
0.0162235
0.0162154
0.0162067
0.0161974
0.0187822
0.018794
0.0188049
0.0188152
0.0188247
0.0188334
0.0188413
0.0188484
0.0188548
0.0188604
0.0188655
0.01887
0.0188739
0.0188774
0.0188804
0.0188831
0.0188854
0.0188874
0.0188891
0.0188906
0.0188918
0.0188929
0.0188938
0.0188946
0.0188952
0.0188957
0.0188961
0.0188964
0.0188966
0.0188967
0.0188967
0.0188966
0.0188964
0.0188961
0.0188957
0.0188952
0.0188946
0.0188938
0.0188929
0.0188918
0.0188906
0.0188891
0.0188874
0.0188854
0.0188831
0.0188804
0.0188774
0.0188739
0.01887
0.0188655
0.0188604
0.0188548
0.0188484
0.0188413
0.0188334
0.0188247
0.0188152
0.0188049
0.018794
0.0187822
0.022154
0.0221688
0.0221826
0.0221956
0.0222075
0.0222185
0.0222284
0.0222373
0.0222454
0.0222525
0.0222589
0.0222645
0.0222695
0.0222739
0.0222777
0.022281
0.022284
0.0222865
0.0222886
0.0222905
0.0222921
0.0222935
0.0222946
0.0222956
0.0222964
0.022297
0.0222975
0.0222978
0.0222981
0.0222982
0.0222982
0.0222981
0.0222978
0.0222975
0.022297
0.0222964
0.0222956
0.0222946
0.0222935
0.0222921
0.0222905
0.0222886
0.0222865
0.022284
0.022281
0.0222777
0.0222739
0.0222695
0.0222645
0.0222589
0.0222525
0.0222454
0.0222373
0.0222284
0.0222185
0.0222075
0.0221956
0.0221826
0.0221688
0.022154
0.026411
0.0264292
0.0264463
0.0264622
0.0264769
0.0264904
0.0265026
0.0265137
0.0265236
0.0265324
0.0265402
0.0265472
0.0265533
0.0265587
0.0265634
0.0265675
0.0265711
0.0265742
0.0265769
0.0265792
0.0265812
0.0265828
0.0265842
0.0265854
0.0265864
0.0265872
0.0265878
0.0265882
0.0265885
0.0265887
0.0265887
0.0265885
0.0265882
0.0265878
0.0265872
0.0265864
0.0265854
0.0265842
0.0265828
0.0265812
0.0265792
0.0265769
0.0265742
0.0265711
0.0265675
0.0265634
0.0265587
0.0265533
0.0265472
0.0265402
0.0265324
0.0265236
0.0265137
0.0265026
0.0264904
0.0264769
0.0264622
0.0264463
0.0264292
0.026411
0.0315598
0.0315817
0.0316021
0.0316212
0.0316387
0.0316548
0.0316694
0.0316826
0.0316944
0.0317049
0.0317143
0.0317226
0.0317299
0.0317364
0.031742
0.0317469
0.0317512
0.0317549
0.0317581
0.0317609
0.0317632
0.0317652
0.0317669
0.0317683
0.0317695
0.0317704
0.0317712
0.0317717
0.031772
0.0317722
0.0317722
0.031772
0.0317717
0.0317712
0.0317704
0.0317695
0.0317683
0.0317669
0.0317652
0.0317632
0.0317609
0.0317581
0.0317549
0.0317512
0.0317469
0.031742
0.0317364
0.0317299
0.0317226
0.0317143
0.0317049
0.0316944
0.0316826
0.0316694
0.0316548
0.0316387
0.0316212
0.0316021
0.0315817
0.0315598
0.037512
0.0375375
0.0375612
0.0375832
0.0376035
0.0376221
0.037639
0.0376542
0.0376679
0.0376801
0.0376909
0.0377005
0.037709
0.0377164
0.0377229
0.0377286
0.0377336
0.0377379
0.0377416
0.0377448
0.0377475
0.0377498
0.0377518
0.0377534
0.0377548
0.0377559
0.0377567
0.0377573
0.0377577
0.0377579
0.0377579
0.0377577
0.0377573
0.0377567
0.0377559
0.0377548
0.0377534
0.0377518
0.0377498
0.0377475
0.0377448
0.0377416
0.0377379
0.0377336
0.0377286
0.0377229
0.0377164
0.037709
0.0377005
0.0376909
0.0376801
0.0376679
0.0376542
0.037639
0.0376221
0.0376035
0.0375832
0.0375612
0.0375375
0.037512
0.04412
0.0441488
0.0441755
0.0442003
0.0442232
0.0442441
0.044263
0.0442801
0.0442955
0.0443092
0.0443214
0.0443322
0.0443417
0.04435
0.0443574
0.0443638
0.0443694
0.0443742
0.0443784
0.044382
0.0443851
0.0443877
0.0443899
0.0443918
0.0443933
0.0443945
0.0443954
0.0443961
0.0443966
0.0443968
0.0443968
0.0443966
0.0443961
0.0443954
0.0443945
0.0443933
0.0443918
0.0443899
0.0443877
0.0443851
0.044382
0.0443784
0.0443742
0.0443694
0.0443638
0.0443574
0.04435
0.0443417
0.0443322
0.0443214
0.0443092
0.0442955
0.0442801
0.044263
0.0442441
0.0442232
0.0442003
0.0441755
0.0441488
0.04412
0.051228
0.05126
0.0512894
0.0513168
0.0513419
0.0513649
0.0513858
0.0514046
0.0514215
0.0514366
0.05145
0.0514618
0.0514723
0.0514816
0.0514897
0.0514967
0.0515029
0.0515082
0.0515128
0.0515168
0.0515202
0.0515231
0.0515256