/*--------------------------------*- C++ -*----------------------------------*\
| =========                 |                                                 |
| \\      /  F ield         | foam-extend: Open Source CFD                    |
|  \\    /   O peration     | Version:     4.0                                |
|   \\  /    A nd           | Web:         http://www.foam-extend.org         |
|    \\/     M anipulation  |                                                 |
\*---------------------------------------------------------------------------*/
FoamFile
{
    version     2.0;
    format      ascii;
    class       volScalarField;
    location    "1940";
    object      cMinus;
}
// * * * * * * * * * * * * * * * * * * * * * * * * * * * * * * * * * * * * * //

dimensions      [0 0 0 0 0 0 0];

internalField   nonuniform List<scalar> 
6960
(
9.18041e-24
9.18527e-24
9.1863e-24
9.18655e-24
9.18661e-24
9.18663e-24
9.18666e-24
9.18671e-24
9.18679e-24
9.1869e-24
9.18702e-24
9.18716e-24
9.1873e-24
9.18745e-24
9.1876e-24
9.18775e-24
9.1879e-24
9.18804e-24
9.18818e-24
9.1883e-24
9.18842e-24
9.18853e-24
9.18862e-24
9.18871e-24
9.18878e-24
9.18884e-24
9.18889e-24
9.18893e-24
9.18895e-24
9.18896e-24
9.18896e-24
9.18895e-24
9.18893e-24
9.18889e-24
9.18884e-24
9.18878e-24
9.18871e-24
9.18862e-24
9.18853e-24
9.18842e-24
9.1883e-24
9.18818e-24
9.18804e-24
9.1879e-24
9.18775e-24
9.1876e-24
9.18745e-24
9.1873e-24
9.18716e-24
9.18702e-24
9.1869e-24
9.18679e-24
9.18671e-24
9.18666e-24
9.18663e-24
9.18661e-24
9.18655e-24
9.1863e-24
9.18527e-24
9.18041e-24
3.55317e-23
3.55516e-23
3.5557e-23
3.55594e-23
3.55611e-23
3.55625e-23
3.55638e-23
3.55652e-23
3.55665e-23
3.55679e-23
3.55692e-23
3.55705e-23
3.55718e-23
3.5573e-23
3.55742e-23
3.55753e-23
3.55763e-23
3.55772e-23
3.55781e-23
3.55789e-23
3.55796e-23
3.55803e-23
3.55808e-23
3.55813e-23
3.55818e-23
3.55821e-23
3.55824e-23
3.55826e-23
3.55827e-23
3.55828e-23
3.55828e-23
3.55827e-23
3.55826e-23
3.55824e-23
3.55821e-23
3.55818e-23
3.55813e-23
3.55808e-23
3.55803e-23
3.55796e-23
3.55789e-23
3.55781e-23
3.55772e-23
3.55763e-23
3.55753e-23
3.55742e-23
3.5573e-23
3.55718e-23
3.55705e-23
3.55692e-23
3.55679e-23
3.55665e-23
3.55652e-23
3.55638e-23
3.55625e-23
3.55611e-23
3.55594e-23
3.5557e-23
3.55516e-23
3.55317e-23
9.94929e-23
9.95523e-23
9.9572e-23
9.95834e-23
9.95926e-23
9.96008e-23
9.96086e-23
9.96161e-23
9.96232e-23
9.96301e-23
9.96366e-23
9.96428e-23
9.96487e-23
9.96541e-23
9.96592e-23
9.96639e-23
9.96682e-23
9.96721e-23
9.96757e-23
9.96789e-23
9.96818e-23
9.96843e-23
9.96866e-23
9.96885e-23
9.96901e-23
9.96915e-23
9.96926e-23
9.96934e-23
9.96939e-23
9.96942e-23
9.96942e-23
9.96939e-23
9.96934e-23
9.96926e-23
9.96915e-23
9.96901e-23
9.96885e-23
9.96866e-23
9.96843e-23
9.96818e-23
9.96789e-23
9.96757e-23
9.96721e-23
9.96682e-23
9.96639e-23
9.96592e-23
9.96541e-23
9.96487e-23
9.96428e-23
9.96366e-23
9.96301e-23
9.96232e-23
9.96161e-23
9.96086e-23
9.96008e-23
9.95926e-23
9.95834e-23
9.9572e-23
9.95523e-23
9.94929e-23
2.54732e-22
2.54895e-22
2.54959e-22
2.55003e-22
2.5504e-22
2.55074e-22
2.55106e-22
2.55136e-22
2.55164e-22
2.55191e-22
2.55216e-22
2.5524e-22
2.55262e-22
2.55282e-22
2.553e-22
2.55317e-22
2.55333e-22
2.55347e-22
2.55359e-22
2.5537e-22
2.5538e-22
2.55389e-22
2.55397e-22
2.55404e-22
2.55409e-22
2.55414e-22
2.55417e-22
2.5542e-22
2.55422e-22
2.55423e-22
2.55423e-22
2.55422e-22
2.5542e-22
2.55417e-22
2.55414e-22
2.55409e-22
2.55404e-22
2.55397e-22
2.55389e-22
2.5538e-22
2.5537e-22
2.55359e-22
2.55347e-22
2.55333e-22
2.55317e-22
2.553e-22
2.55282e-22
2.55262e-22
2.5524e-22
2.55216e-22
2.55191e-22
2.55164e-22
2.55136e-22
2.55106e-22
2.55074e-22
2.5504e-22
2.55003e-22
2.54959e-22
2.54895e-22
2.54732e-22
6.38303e-22
6.38742e-22
6.3894e-22
6.39089e-22
6.39221e-22
6.39342e-22
6.39456e-22
6.39563e-22
6.39662e-22
6.39756e-22
6.39842e-22
6.39923e-22
6.39996e-22
6.40064e-22
6.40126e-22
6.40182e-22
6.40233e-22
6.40279e-22
6.4032e-22
6.40357e-22
6.4039e-22
6.40418e-22
6.40443e-22
6.40464e-22
6.40482e-22
6.40496e-22
6.40508e-22
6.40516e-22
6.40522e-22
6.40525e-22
6.40525e-22
6.40522e-22
6.40516e-22
6.40508e-22
6.40496e-22
6.40482e-22
6.40464e-22
6.40443e-22
6.40418e-22
6.4039e-22
6.40357e-22
6.4032e-22
6.40279e-22
6.40233e-22
6.40182e-22
6.40126e-22
6.40064e-22
6.39996e-22
6.39923e-22
6.39842e-22
6.39756e-22
6.39662e-22
6.39563e-22
6.39456e-22
6.39342e-22
6.39221e-22
6.39089e-22
6.3894e-22
6.38742e-22
6.38303e-22
1.60668e-21
1.60787e-21
1.60847e-21
1.60895e-21
1.60939e-21
1.60979e-21
1.61017e-21
1.61052e-21
1.61085e-21
1.61116e-21
1.61144e-21
1.6117e-21
1.61194e-21
1.61216e-21
1.61235e-21
1.61253e-21
1.6127e-21
1.61284e-21
1.61297e-21
1.61309e-21
1.61319e-21
1.61328e-21
1.61335e-21
1.61342e-21
1.61347e-21
1.61352e-21
1.61356e-21
1.61358e-21
1.6136e-21
1.61361e-21
1.61361e-21
1.6136e-21
1.61358e-21
1.61356e-21
1.61352e-21
1.61347e-21
1.61342e-21
1.61335e-21
1.61328e-21
1.61319e-21
1.61309e-21
1.61297e-21
1.61284e-21
1.6127e-21
1.61253e-21
1.61235e-21
1.61216e-21
1.61194e-21
1.6117e-21
1.61144e-21
1.61116e-21
1.61085e-21
1.61052e-21
1.61017e-21
1.60979e-21
1.60939e-21
1.60895e-21
1.60847e-21
1.60787e-21
1.60668e-21
4.10717e-21
4.11042e-21
4.11224e-21
4.11376e-21
4.11515e-21
4.11645e-21
4.11766e-21
4.11879e-21
4.11984e-21
4.12081e-21
4.1217e-21
4.12252e-21
4.12327e-21
4.12395e-21
4.12457e-21
4.12513e-21
4.12564e-21
4.12609e-21
4.12649e-21
4.12685e-21
4.12716e-21
4.12743e-21
4.12767e-21
4.12787e-21
4.12804e-21
4.12818e-21
4.12829e-21
4.12837e-21
4.12842e-21
4.12845e-21
4.12845e-21
4.12842e-21
4.12837e-21
4.12829e-21
4.12818e-21
4.12804e-21
4.12787e-21
4.12767e-21
4.12743e-21
4.12716e-21
4.12685e-21
4.12649e-21
4.12609e-21
4.12564e-21
4.12513e-21
4.12457e-21
4.12395e-21
4.12327e-21
4.12252e-21
4.1217e-21
4.12081e-21
4.11984e-21
4.11879e-21
4.11766e-21
4.11645e-21
4.11515e-21
4.11376e-21
4.11224e-21
4.11042e-21
4.10717e-21
1.07138e-20
1.07229e-20
1.07283e-20
1.07331e-20
1.07375e-20
1.07416e-20
1.07454e-20
1.0749e-20
1.07523e-20
1.07553e-20
1.07581e-20
1.07607e-20
1.0763e-20
1.07651e-20
1.0767e-20
1.07688e-20
1.07703e-20
1.07717e-20
1.0773e-20
1.07741e-20
1.0775e-20
1.07759e-20
1.07766e-20
1.07772e-20
1.07777e-20
1.07782e-20
1.07785e-20
1.07787e-20
1.07789e-20
1.0779e-20
1.0779e-20
1.07789e-20
1.07787e-20
1.07785e-20
1.07782e-20
1.07777e-20
1.07772e-20
1.07766e-20
1.07759e-20
1.0775e-20
1.07741e-20
1.0773e-20
1.07717e-20
1.07703e-20
1.07688e-20
1.0767e-20
1.07651e-20
1.0763e-20
1.07607e-20
1.07581e-20
1.07553e-20
1.07523e-20
1.0749e-20
1.07454e-20
1.07416e-20
1.07375e-20
1.07331e-20
1.07283e-20
1.07229e-20
1.07138e-20
2.85812e-20
2.86069e-20
2.86236e-20
2.86384e-20
2.86522e-20
2.86651e-20
2.86771e-20
2.86883e-20
2.86986e-20
2.87082e-20
2.87169e-20
2.87249e-20
2.87322e-20
2.87388e-20
2.87448e-20
2.87501e-20
2.8755e-20
2.87593e-20
2.87631e-20
2.87665e-20
2.87694e-20
2.8772e-20
2.87743e-20
2.87762e-20
2.87778e-20
2.87791e-20
2.87801e-20
2.87808e-20
2.87813e-20
2.87816e-20
2.87816e-20
2.87813e-20
2.87808e-20
2.87801e-20
2.87791e-20
2.87778e-20
2.87762e-20
2.87743e-20
2.8772e-20
2.87694e-20
2.87665e-20
2.87631e-20
2.87593e-20
2.8755e-20
2.87501e-20
2.87448e-20
2.87388e-20
2.87322e-20
2.87249e-20
2.87169e-20
2.87082e-20
2.86986e-20
2.86883e-20
2.86771e-20
2.86651e-20
2.86522e-20
2.86384e-20
2.86236e-20
2.86069e-20
2.85812e-20
7.80578e-20
7.81324e-20
7.81837e-20
7.823e-20
7.82735e-20
7.83142e-20
7.83522e-20
7.83874e-20
7.84199e-20
7.84499e-20
7.84773e-20
7.85024e-20
7.85252e-20
7.85459e-20
7.85646e-20
7.85814e-20
7.85964e-20
7.86098e-20
7.86218e-20
7.86323e-20
7.86415e-20
7.86496e-20
7.86565e-20
7.86624e-20
7.86673e-20
7.86714e-20
7.86745e-20
7.86769e-20
7.86784e-20
7.86792e-20
7.86792e-20
7.86784e-20
7.86769e-20
7.86745e-20
7.86714e-20
7.86673e-20
7.86624e-20
7.86565e-20
7.86496e-20
7.86415e-20
7.86323e-20
7.86218e-20
7.86098e-20
7.85964e-20
7.85814e-20
7.85646e-20
7.85459e-20
7.85252e-20
7.85024e-20
7.84773e-20
7.84499e-20
7.84199e-20
7.83874e-20
7.83522e-20
7.83142e-20
7.82735e-20
7.823e-20
7.81837e-20
7.81324e-20
7.80578e-20
2.18374e-19
2.18595e-19
2.18754e-19
2.18901e-19
2.19039e-19
2.19169e-19
2.1929e-19
2.19402e-19
2.19505e-19
2.196e-19
2.19687e-19
2.19767e-19
2.19839e-19
2.19904e-19
2.19963e-19
2.20016e-19
2.20064e-19
2.20106e-19
2.20143e-19
2.20177e-19
2.20206e-19
2.20231e-19
2.20253e-19
2.20271e-19
2.20287e-19
2.20299e-19
2.20309e-19
2.20317e-19
2.20321e-19
2.20324e-19
2.20324e-19
2.20321e-19
2.20317e-19
2.20309e-19
2.20299e-19
2.20287e-19
2.20271e-19
2.20253e-19
2.20231e-19
2.20206e-19
2.20177e-19
2.20143e-19
2.20106e-19
2.20064e-19
2.20016e-19
2.19963e-19
2.19904e-19
2.19839e-19
2.19767e-19
2.19687e-19
2.196e-19
2.19505e-19
2.19402e-19
2.1929e-19
2.19169e-19
2.19039e-19
2.18901e-19
2.18754e-19
2.18595e-19
2.18374e-19
6.26011e-19
6.26681e-19
6.27186e-19
6.27657e-19
6.28101e-19
6.28518e-19
6.28907e-19
6.29267e-19
6.296e-19
6.29905e-19
6.30185e-19
6.3044e-19
6.30671e-19
6.30881e-19
6.31069e-19
6.31239e-19
6.31391e-19
6.31526e-19
6.31646e-19
6.31752e-19
6.31844e-19
6.31925e-19
6.31994e-19
6.32053e-19
6.32102e-19
6.32143e-19
6.32174e-19
6.32198e-19
6.32213e-19
6.32221e-19
6.32221e-19
6.32213e-19
6.32198e-19
6.32174e-19
6.32143e-19
6.32102e-19
6.32053e-19
6.31994e-19
6.31925e-19
6.31844e-19
6.31752e-19
6.31646e-19
6.31526e-19
6.31391e-19
6.31239e-19
6.31069e-19
6.30881e-19
6.30671e-19
6.3044e-19
6.30185e-19
6.29905e-19
6.296e-19
6.29267e-19
6.28907e-19
6.28518e-19
6.28101e-19
6.27657e-19
6.27186e-19
6.26681e-19
6.26011e-19
1.83931e-18
1.84139e-18
1.84302e-18
1.84455e-18
1.846e-18
1.84736e-18
1.84863e-18
1.84981e-18
1.85089e-18
1.85189e-18
1.8528e-18
1.85363e-18
1.85438e-18
1.85506e-18
1.85568e-18
1.85623e-18
1.85672e-18
1.85716e-18
1.85755e-18
1.85789e-18
1.85819e-18
1.85845e-18
1.85868e-18
1.85887e-18
1.85903e-18
1.85916e-18
1.85926e-18
1.85934e-18
1.85939e-18
1.85941e-18
1.85941e-18
1.85939e-18
1.85934e-18
1.85926e-18
1.85916e-18
1.85903e-18
1.85887e-18
1.85868e-18
1.85845e-18
1.85819e-18
1.85789e-18
1.85755e-18
1.85716e-18
1.85672e-18
1.85623e-18
1.85568e-18
1.85506e-18
1.85438e-18
1.85363e-18
1.8528e-18
1.85189e-18
1.85089e-18
1.84981e-18
1.84863e-18
1.84736e-18
1.846e-18
1.84455e-18
1.84302e-18
1.84139e-18
1.83931e-18
5.53956e-18
5.54615e-18
5.55148e-18
5.55654e-18
5.56136e-18
5.56588e-18
5.57009e-18
5.574e-18
5.57759e-18
5.58089e-18
5.58391e-18
5.58666e-18
5.58915e-18
5.59141e-18
5.59344e-18
5.59526e-18
5.59689e-18
5.59834e-18
5.59962e-18
5.60075e-18
5.60174e-18
5.6026e-18
5.60334e-18
5.60397e-18
5.6045e-18
5.60493e-18
5.60526e-18
5.60551e-18
5.60567e-18
5.60576e-18
5.60576e-18
5.60567e-18
5.60551e-18
5.60526e-18
5.60493e-18
5.6045e-18
5.60397e-18
5.60334e-18
5.6026e-18
5.60174e-18
5.60075e-18
5.59962e-18
5.59834e-18
5.59689e-18
5.59526e-18
5.59344e-18
5.59141e-18
5.58915e-18
5.58666e-18
5.58391e-18
5.58089e-18
5.57759e-18
5.574e-18
5.57009e-18
5.56588e-18
5.56136e-18
5.55654e-18
5.55148e-18
5.54615e-18
5.53956e-18
1.71024e-17
1.71237e-17
1.71415e-17
1.71586e-17
1.71748e-17
1.71901e-17
1.72043e-17
1.72175e-17
1.72296e-17
1.72408e-17
1.7251e-17
1.72602e-17
1.72686e-17
1.72762e-17
1.72831e-17
1.72892e-17
1.72947e-17
1.72995e-17
1.73038e-17
1.73076e-17
1.7311e-17
1.73139e-17
1.73164e-17
1.73185e-17
1.73202e-17
1.73217e-17
1.73228e-17
1.73236e-17
1.73242e-17
1.73245e-17
1.73245e-17
1.73242e-17
1.73236e-17
1.73228e-17
1.73217e-17
1.73202e-17
1.73185e-17
1.73164e-17
1.73139e-17
1.7311e-17
1.73076e-17
1.73038e-17
1.72995e-17
1.72947e-17
1.72892e-17
1.72831e-17
1.72762e-17
1.72686e-17
1.72602e-17
1.7251e-17
1.72408e-17
1.72296e-17
1.72175e-17
1.72043e-17
1.71901e-17
1.71748e-17
1.71586e-17
1.71415e-17
1.71237e-17
1.71024e-17
5.41215e-17
5.41923e-17
5.4253e-17
5.43116e-17
5.43675e-17
5.442e-17
5.44689e-17
5.45143e-17
5.4556e-17
5.45943e-17
5.46293e-17
5.46611e-17
5.46899e-17
5.4716e-17
5.47394e-17
5.47604e-17
5.47792e-17
5.47959e-17
5.48107e-17
5.48237e-17
5.48351e-17
5.4845e-17
5.48535e-17
5.48607e-17
5.48668e-17
5.48717e-17
5.48756e-17
5.48784e-17
5.48803e-17
5.48812e-17
5.48812e-17
5.48803e-17
5.48784e-17
5.48756e-17
5.48717e-17
5.48668e-17
5.48607e-17
5.48535e-17
5.4845e-17
5.48351e-17
5.48237e-17
5.48107e-17
5.47959e-17
5.47792e-17
5.47604e-17
5.47394e-17
5.4716e-17
5.46899e-17
5.46611e-17
5.46293e-17
5.45943e-17
5.4556e-17
5.45143e-17
5.44689e-17
5.442e-17
5.43675e-17
5.43116e-17
5.4253e-17
5.41923e-17
5.41215e-17
1.75527e-16
1.75767e-16
1.75978e-16
1.76183e-16
1.76379e-16
1.76563e-16
1.76734e-16
1.76893e-16
1.7704e-16
1.77174e-16
1.77296e-16
1.77407e-16
1.77508e-16
1.77599e-16
1.77681e-16
1.77755e-16
1.77821e-16
1.77879e-16
1.77931e-16
1.77976e-16
1.78016e-16
1.7805e-16
1.7808e-16
1.78105e-16
1.78126e-16
1.78144e-16
1.78157e-16
1.78167e-16
1.78174e-16
1.78177e-16
1.78177e-16
1.78174e-16
1.78167e-16
1.78157e-16
1.78144e-16
1.78126e-16
1.78105e-16
1.7808e-16
1.7805e-16
1.78016e-16
1.77976e-16
1.77931e-16
1.77879e-16
1.77821e-16
1.77755e-16
1.77681e-16
1.77599e-16
1.77508e-16
1.77407e-16
1.77296e-16
1.77174e-16
1.7704e-16
1.76893e-16
1.76734e-16
1.76563e-16
1.76379e-16
1.76183e-16
1.75978e-16
1.75767e-16
1.75527e-16
5.83237e-16
5.84071e-16
5.8482e-16
5.85551e-16
5.8625e-16
5.86908e-16
5.87522e-16
5.88089e-16
5.88611e-16
5.8909e-16
5.89527e-16
5.89925e-16
5.90285e-16
5.9061e-16
5.90902e-16
5.91164e-16
5.91398e-16
5.91606e-16
5.9179e-16
5.91952e-16
5.92094e-16
5.92217e-16
5.92323e-16
5.92413e-16
5.92488e-16
5.92549e-16
5.92597e-16
5.92632e-16
5.92655e-16
5.92667e-16
5.92667e-16
5.92655e-16
5.92632e-16
5.92597e-16
5.92549e-16
5.92488e-16
5.92413e-16
5.92323e-16
5.92217e-16
5.92094e-16
5.91952e-16
5.9179e-16
5.91606e-16
5.91398e-16
5.91164e-16
5.90902e-16
5.9061e-16
5.90285e-16
5.89925e-16
5.89527e-16
5.8909e-16
5.88611e-16
5.88089e-16
5.87522e-16
5.86908e-16
5.8625e-16
5.85551e-16
5.8482e-16
5.84071e-16
5.83237e-16
1.98464e-15
1.9876e-15
1.99031e-15
1.99297e-15
1.99551e-15
1.99791e-15
2.00014e-15
2.00221e-15
2.00411e-15
2.00585e-15
2.00745e-15
2.00889e-15
2.0102e-15
2.01138e-15
2.01245e-15
2.0134e-15
2.01425e-15
2.01501e-15
2.01567e-15
2.01626e-15
2.01678e-15
2.01722e-15
2.01761e-15
2.01793e-15
2.01821e-15
2.01843e-15
2.0186e-15
2.01873e-15
2.01882e-15
2.01886e-15
2.01886e-15
2.01882e-15
2.01873e-15
2.0186e-15
2.01843e-15
2.01821e-15
2.01793e-15
2.01761e-15
2.01722e-15
2.01678e-15
2.01626e-15
2.01567e-15
2.01501e-15
2.01425e-15
2.0134e-15
2.01245e-15
2.01138e-15
2.0102e-15
2.00889e-15
2.00745e-15
2.00585e-15
2.00411e-15
2.00221e-15
2.00014e-15
1.99791e-15
1.99551e-15
1.99297e-15
1.99031e-15
1.9876e-15
1.98464e-15
6.91165e-15
6.92237e-15
6.93238e-15
6.94224e-15
6.95168e-15
6.96058e-15
6.96887e-15
6.97653e-15
6.98359e-15
6.99006e-15
6.99596e-15
7.00132e-15
7.00617e-15
7.01056e-15
7.0145e-15
7.01803e-15
7.02118e-15
7.02398e-15
7.02646e-15
7.02863e-15
7.03054e-15
7.03219e-15
7.03362e-15
7.03482e-15
7.03583e-15
7.03665e-15
7.03729e-15
7.03777e-15
7.03808e-15
7.03824e-15
7.03824e-15
7.03808e-15
7.03777e-15
7.03729e-15
7.03665e-15
7.03583e-15
7.03482e-15
7.03362e-15
7.03219e-15
7.03054e-15
7.02863e-15
7.02646e-15
7.02398e-15
7.02118e-15
7.01803e-15
7.0145e-15
7.01056e-15
7.00617e-15
7.00132e-15
6.99596e-15
6.99006e-15
6.98359e-15
6.97653e-15
6.96887e-15
6.96058e-15
6.95168e-15
6.94224e-15
6.93238e-15
6.92237e-15
6.91165e-15
2.46143e-14
2.46539e-14
2.46916e-14
2.47288e-14
2.47645e-14
2.47982e-14
2.48295e-14
2.48585e-14
2.48851e-14
2.49096e-14
2.49318e-14
2.49521e-14
2.49704e-14
2.4987e-14
2.50019e-14
2.50152e-14
2.50271e-14
2.50376e-14
2.5047e-14
2.50552e-14
2.50624e-14
2.50686e-14
2.5074e-14
2.50785e-14
2.50823e-14
2.50854e-14
2.50879e-14
2.50896e-14
2.50908e-14
2.50914e-14
2.50914e-14
2.50908e-14
2.50896e-14
2.50879e-14
2.50854e-14
2.50823e-14
2.50785e-14
2.5074e-14
2.50686e-14
2.50624e-14
2.50552e-14
2.5047e-14
2.50376e-14
2.50271e-14
2.50152e-14
2.50019e-14
2.4987e-14
2.49704e-14
2.49521e-14
2.49318e-14
2.49096e-14
2.48851e-14
2.48585e-14
2.48295e-14
2.47982e-14
2.47645e-14
2.47288e-14
2.46916e-14
2.46539e-14
2.46143e-14
8.95445e-14
8.96941e-14
8.98384e-14
8.99814e-14
9.01187e-14
9.0248e-14
9.03685e-14
9.04799e-14
9.05825e-14
9.06764e-14
9.07621e-14
9.08399e-14
9.09104e-14
9.0974e-14
9.10312e-14
9.10824e-14
9.1128e-14
9.11686e-14
9.12045e-14
9.1236e-14
9.12636e-14
9.12876e-14
9.13081e-14
9.13256e-14
9.13402e-14
9.1352e-14
9.13613e-14
9.13682e-14
9.13727e-14
9.13749e-14
9.13749e-14
9.13727e-14
9.13682e-14
9.13613e-14
9.1352e-14
9.13402e-14
9.13256e-14
9.13081e-14
9.12876e-14
9.12636e-14
9.1236e-14
9.12045e-14
9.11686e-14
9.1128e-14
9.10824e-14
9.10312e-14
9.0974e-14
9.09104e-14
9.08399e-14
9.07621e-14
9.06764e-14
9.05825e-14
9.04799e-14
9.03685e-14
9.0248e-14
9.01187e-14
8.99814e-14
8.98384e-14
8.96941e-14
8.95445e-14
3.32322e-13
3.32897e-13
3.33459e-13
3.34018e-13
3.34554e-13
3.3506e-13
3.35531e-13
3.35966e-13
3.36367e-13
3.36734e-13
3.37069e-13
3.37373e-13
3.37648e-13
3.37897e-13
3.3812e-13
3.3832e-13
3.38498e-13
3.38656e-13
3.38796e-13
3.3892e-13
3.39027e-13
3.39121e-13
3.39201e-13
3.39269e-13
3.39326e-13
3.39372e-13
3.39408e-13
3.39435e-13
3.39453e-13
3.39461e-13
3.39461e-13
3.39453e-13
3.39435e-13
3.39408e-13
3.39372e-13
3.39326e-13
3.39269e-13
3.39201e-13
3.39121e-13
3.39027e-13
3.3892e-13
3.38796e-13
3.38656e-13
3.38498e-13
3.3832e-13
3.3812e-13
3.37897e-13
3.37648e-13
3.37373e-13
3.37069e-13
3.36734e-13
3.36367e-13
3.35966e-13
3.35531e-13
3.3506e-13
3.34554e-13
3.34018e-13
3.33459e-13
3.32897e-13
3.32322e-13
1.25614e-12
1.25839e-12
1.26061e-12
1.26282e-12
1.26495e-12
1.26696e-12
1.26882e-12
1.27055e-12
1.27214e-12
1.2736e-12
1.27492e-12
1.27613e-12
1.27722e-12
1.2782e-12
1.27909e-12
1.27988e-12
1.28059e-12
1.28121e-12
1.28177e-12
1.28226e-12
1.28268e-12
1.28305e-12
1.28337e-12
1.28364e-12
1.28386e-12
1.28405e-12
1.28419e-12
1.2843e-12
1.28437e-12
1.2844e-12
1.2844e-12
1.28437e-12
1.2843e-12
1.28419e-12
1.28405e-12
1.28386e-12
1.28364e-12
1.28337e-12
1.28305e-12
1.28268e-12
1.28226e-12
1.28177e-12
1.28121e-12
1.28059e-12
1.27988e-12
1.27909e-12
1.2782e-12
1.27722e-12
1.27613e-12
1.27492e-12
1.2736e-12
1.27214e-12
1.27055e-12
1.26882e-12
1.26696e-12
1.26495e-12
1.26282e-12
1.26061e-12
1.25839e-12
1.25614e-12
4.82626e-12
4.83516e-12
4.84407e-12
4.85295e-12
4.8615e-12
4.86955e-12
4.87705e-12
4.88399e-12
4.89037e-12
4.89621e-12
4.90154e-12
4.90638e-12
4.91076e-12
4.91471e-12
4.91826e-12
4.92143e-12
4.92427e-12
4.92678e-12
4.92901e-12
4.93096e-12
4.93267e-12
4.93416e-12
4.93543e-12
4.93651e-12
4.93741e-12
4.93814e-12
4.93872e-12
4.93914e-12
4.93942e-12
4.93956e-12
4.93956e-12
4.93942e-12
4.93914e-12
4.93872e-12
4.93814e-12
4.93741e-12
4.93651e-12
4.93543e-12
4.93416e-12
4.93267e-12
4.93096e-12
4.92901e-12
4.92678e-12
4.92427e-12
4.92143e-12
4.91826e-12
4.91471e-12
4.91076e-12
4.90638e-12
4.90154e-12
4.89621e-12
4.89037e-12
4.88399e-12
4.87705e-12
4.86955e-12
4.8615e-12
4.85295e-12
4.84407e-12
4.83516e-12
4.82626e-12
1.88035e-11
1.88391e-11
1.88752e-11
1.89113e-11
1.89459e-11
1.89786e-11
1.9009e-11
1.90372e-11
1.9063e-11
1.90867e-11
1.91083e-11
1.9128e-11
1.91457e-11
1.91617e-11
1.91761e-11
1.9189e-11
1.92005e-11
1.92107e-11
1.92197e-11
1.92276e-11
1.92345e-11
1.92405e-11
1.92457e-11
1.92501e-11
1.92537e-11
1.92567e-11
1.9259e-11
1.92607e-11
1.92619e-11
1.92624e-11
1.92624e-11
1.92619e-11
1.92607e-11
1.9259e-11
1.92567e-11
1.92537e-11
1.92501e-11
1.92457e-11
1.92405e-11
1.92345e-11
1.92276e-11
1.92197e-11
1.92107e-11
1.92005e-11
1.9189e-11
1.91761e-11
1.91617e-11
1.91457e-11
1.9128e-11
1.91083e-11
1.90867e-11
1.9063e-11
1.90372e-11
1.9009e-11
1.89786e-11
1.89459e-11
1.89113e-11
1.88752e-11
1.88391e-11
1.88035e-11
7.40774e-11
7.42215e-11
7.43687e-11
7.4516e-11
7.46576e-11
7.4791e-11
7.49153e-11
7.50303e-11
7.5136e-11
7.52327e-11
7.5321e-11
7.54011e-11
7.54736e-11
7.5539e-11
7.55977e-11
7.56502e-11
7.56971e-11
7.57387e-11
7.57755e-11
7.58078e-11
7.58361e-11
7.58606e-11
7.58817e-11
7.58995e-11
7.59144e-11
7.59265e-11
7.5936e-11
7.5943e-11
7.59477e-11
7.59499e-11
7.59499e-11
7.59477e-11
7.5943e-11
7.5936e-11
7.59265e-11
7.59144e-11
7.58995e-11
7.58817e-11
7.58606e-11
7.58361e-11
7.58078e-11
7.57755e-11
7.57387e-11
7.56971e-11
7.56502e-11
7.55977e-11
7.5539e-11
7.54736e-11
7.54011e-11
7.5321e-11
7.52327e-11
7.5136e-11
7.50303e-11
7.49153e-11
7.4791e-11
7.46576e-11
7.4516e-11
7.43687e-11
7.42215e-11
7.40774e-11
2.941e-10
2.94686e-10
2.95289e-10
2.95892e-10
2.96473e-10
2.9702e-10
2.9753e-10
2.98001e-10
2.98434e-10
2.98831e-10
2.99192e-10
2.99521e-10
2.99818e-10
3.00085e-10
3.00326e-10
3.00541e-10
3.00733e-10
3.00904e-10
3.01054e-10
3.01187e-10
3.01302e-10
3.01403e-10
3.01489e-10
3.01562e-10
3.01623e-10
3.01673e-10
3.01712e-10
3.0174e-10
3.01759e-10
3.01769e-10
3.01769e-10
3.01759e-10
3.0174e-10
3.01712e-10
3.01673e-10
3.01623e-10
3.01562e-10
3.01489e-10
3.01403e-10
3.01302e-10
3.01187e-10
3.01054e-10
3.00904e-10
3.00733e-10
3.00541e-10
3.00326e-10
3.00085e-10
2.99818e-10
2.99521e-10
2.99192e-10
2.98831e-10
2.98434e-10
2.98001e-10
2.9753e-10
2.9702e-10
2.96473e-10
2.95892e-10
2.95289e-10
2.94686e-10
2.941e-10
1.17209e-09
1.17448e-09
1.17695e-09
1.17942e-09
1.1818e-09
1.18404e-09
1.18613e-09
1.18806e-09
1.18983e-09
1.19146e-09
1.19294e-09
1.19428e-09
1.1955e-09
1.1966e-09
1.19758e-09
1.19846e-09
1.19925e-09
1.19995e-09
1.20056e-09
1.2011e-09
1.20158e-09
1.20199e-09
1.20234e-09
1.20264e-09
1.20289e-09
1.20309e-09
1.20325e-09
1.20337e-09
1.20345e-09
1.20348e-09
1.20348e-09
1.20345e-09
1.20337e-09
1.20325e-09
1.20309e-09
1.20289e-09
1.20264e-09
1.20234e-09
1.20199e-09
1.20158e-09
1.2011e-09
1.20056e-09
1.19995e-09
1.19925e-09
1.19846e-09
1.19758e-09
1.1966e-09
1.1955e-09
1.19428e-09
1.19294e-09
1.19146e-09
1.18983e-09
1.18806e-09
1.18613e-09
1.18404e-09
1.1818e-09
1.17942e-09
1.17695e-09
1.17448e-09
1.17209e-09
4.6678e-09
4.67747e-09
4.68753e-09
4.69761e-09
4.7073e-09
4.71643e-09
4.72494e-09
4.7328e-09
4.74003e-09
4.74664e-09
4.75267e-09
4.75815e-09
4.7631e-09
4.76756e-09
4.77157e-09
4.77516e-09
4.77836e-09
4.78119e-09
4.7837e-09
4.78591e-09
4.78783e-09
4.78951e-09
4.79094e-09
4.79216e-09
4.79317e-09
4.794e-09
4.79464e-09
4.79512e-09
4.79543e-09
4.79559e-09
4.79559e-09
4.79543e-09
4.79512e-09
4.79464e-09
4.794e-09
4.79317e-09
4.79216e-09
4.79094e-09
4.78951e-09
4.78783e-09
4.78591e-09
4.7837e-09
4.78119e-09
4.77836e-09
4.77516e-09
4.77157e-09
4.76756e-09
4.7631e-09
4.75815e-09
4.75267e-09
4.74664e-09
4.74003e-09
4.7328e-09
4.72494e-09
4.71643e-09
4.7073e-09
4.69761e-09
4.68753e-09
4.67747e-09
4.6678e-09
1.84786e-08
1.85174e-08
1.85579e-08
1.85985e-08
1.86376e-08
1.86744e-08
1.87086e-08
1.87403e-08
1.87694e-08
1.8796e-08
1.88203e-08
1.88423e-08
1.88623e-08
1.88802e-08
1.88964e-08
1.89108e-08
1.89237e-08
1.89351e-08
1.89452e-08
1.89541e-08
1.89618e-08
1.89685e-08
1.89743e-08
1.89792e-08
1.89833e-08
1.89866e-08
1.89892e-08
1.89911e-08
1.89924e-08
1.8993e-08
1.8993e-08
1.89924e-08
1.89911e-08
1.89892e-08
1.89866e-08
1.89833e-08
1.89792e-08
1.89743e-08
1.89685e-08
1.89618e-08
1.89541e-08
1.89452e-08
1.89351e-08
1.89237e-08
1.89108e-08
1.88964e-08
1.88802e-08
1.88623e-08
1.88423e-08
1.88203e-08
1.8796e-08
1.87694e-08
1.87403e-08
1.87086e-08
1.86744e-08
1.86376e-08
1.85985e-08
1.85579e-08
1.85174e-08
1.84786e-08
7.22811e-08
7.24343e-08
7.2595e-08
7.27558e-08
7.29104e-08
7.30559e-08
7.31914e-08
7.33167e-08
7.34318e-08
7.35371e-08
7.36331e-08
7.37203e-08
7.37991e-08
7.38701e-08
7.39339e-08
7.3991e-08
7.40419e-08
7.4087e-08
7.41269e-08
7.4162e-08
7.41926e-08
7.42192e-08
7.4242e-08
7.42613e-08
7.42774e-08
7.42905e-08
7.43008e-08
7.43084e-08
7.43134e-08
7.43159e-08
7.43159e-08
7.43134e-08
7.43084e-08
7.43008e-08
7.42905e-08
7.42774e-08
7.42613e-08
7.4242e-08
7.42192e-08
7.41926e-08
7.4162e-08
7.41269e-08
7.4087e-08
7.40419e-08
7.3991e-08
7.39339e-08
7.38701e-08
7.37991e-08
7.37203e-08
7.36331e-08
7.35371e-08
7.34318e-08
7.33167e-08
7.31914e-08
7.30559e-08
7.29104e-08
7.27558e-08
7.2595e-08
7.24343e-08
7.22811e-08
2.77472e-07
2.78063e-07
2.78684e-07
2.79305e-07
2.79901e-07
2.80463e-07
2.80985e-07
2.81468e-07
2.81912e-07
2.82318e-07
2.82689e-07
2.83024e-07
2.83328e-07
2.83602e-07
2.83848e-07
2.84068e-07
2.84264e-07
2.84438e-07
2.84592e-07
2.84727e-07
2.84845e-07
2.84947e-07
2.85035e-07
2.85109e-07
2.85171e-07
2.85222e-07
2.85261e-07
2.85291e-07
2.8531e-07
2.85319e-07
2.85319e-07
2.8531e-07
2.85291e-07
2.85261e-07
2.85222e-07
2.85171e-07
2.85109e-07
2.85035e-07
2.84947e-07
2.84845e-07
2.84727e-07
2.84592e-07
2.84438e-07
2.84264e-07
2.84068e-07
2.83848e-07
2.83602e-07
2.83328e-07
2.83024e-07
2.82689e-07
2.82318e-07
2.81912e-07
2.81468e-07
2.80985e-07
2.80463e-07
2.79901e-07
2.79305e-07
2.78684e-07
2.78063e-07
2.77472e-07
1.03729e-06
1.0395e-06
1.04182e-06
1.04414e-06
1.04636e-06
1.04845e-06
1.0504e-06
1.0522e-06
1.05386e-06
1.05537e-06
1.05675e-06
1.058e-06
1.05913e-06
1.06015e-06
1.06107e-06
1.06189e-06
1.06262e-06
1.06326e-06
1.06384e-06
1.06434e-06
1.06478e-06
1.06516e-06
1.06549e-06
1.06576e-06
1.066e-06
1.06618e-06
1.06633e-06
1.06644e-06
1.06651e-06
1.06655e-06
1.06655e-06
1.06651e-06
1.06644e-06
1.06633e-06
1.06618e-06
1.066e-06
1.06576e-06
1.06549e-06
1.06516e-06
1.06478e-06
1.06434e-06
1.06384e-06
1.06326e-06
1.06262e-06
1.06189e-06
1.06107e-06
1.06015e-06
1.05913e-06
1.058e-06
1.05675e-06
1.05537e-06
1.05386e-06
1.0522e-06
1.0504e-06
1.04845e-06
1.04636e-06
1.04414e-06
1.04182e-06
1.0395e-06
1.03729e-06
3.74364e-06
3.75154e-06
3.75984e-06
3.76811e-06
3.77605e-06
3.78352e-06
3.79048e-06
3.7969e-06
3.8028e-06
3.8082e-06
3.81312e-06
3.81758e-06
3.82161e-06
3.82525e-06
3.82851e-06
3.83143e-06
3.83404e-06
3.83635e-06
3.83838e-06
3.84018e-06
3.84174e-06
3.8431e-06
3.84426e-06
3.84525e-06
3.84608e-06
3.84674e-06
3.84727e-06
3.84766e-06
3.84791e-06
3.84804e-06
3.84804e-06
3.84791e-06
3.84766e-06
3.84727e-06
3.84674e-06
3.84608e-06
3.84525e-06
3.84426e-06
3.8431e-06
3.84174e-06
3.84018e-06
3.83838e-06
3.83635e-06
3.83404e-06
3.83143e-06
3.82851e-06
3.82525e-06
3.82161e-06
3.81758e-06
3.81312e-06
3.8082e-06
3.8028e-06
3.7969e-06
3.79048e-06
3.78352e-06
3.77605e-06
3.76811e-06
3.75984e-06
3.75154e-06
3.74364e-06
1.29169e-05
1.29437e-05
1.29718e-05
1.29998e-05
1.30266e-05
1.30519e-05
1.30753e-05
1.3097e-05
1.31169e-05
1.31352e-05
1.31517e-05
1.31668e-05
1.31804e-05
1.31927e-05
1.32037e-05
1.32135e-05
1.32223e-05
1.32301e-05
1.3237e-05
1.3243e-05
1.32483e-05
1.32529e-05
1.32568e-05
1.32601e-05
1.32629e-05
1.32652e-05
1.32669e-05
1.32683e-05
1.32691e-05
1.32695e-05
1.32695e-05
1.32691e-05
1.32683e-05
1.32669e-05
1.32652e-05
1.32629e-05
1.32601e-05
1.32568e-05
1.32529e-05
1.32483e-05
1.3243e-05
1.3237e-05
1.32301e-05
1.32223e-05
1.32135e-05
1.32037e-05
1.31927e-05
1.31804e-05
1.31668e-05
1.31517e-05
1.31352e-05
1.31169e-05
1.3097e-05
1.30753e-05
1.30519e-05
1.30266e-05
1.29998e-05
1.29718e-05
1.29437e-05
1.29169e-05
4.21449e-05
4.22301e-05
4.23192e-05
4.24077e-05
4.24924e-05
4.2572e-05
4.2646e-05
4.27144e-05
4.27772e-05
4.28346e-05
4.28869e-05
4.29344e-05
4.29773e-05
4.3016e-05
4.30507e-05
4.30817e-05
4.31094e-05
4.31339e-05
4.31556e-05
4.31746e-05
4.31912e-05
4.32056e-05
4.3218e-05
4.32285e-05
4.32372e-05
4.32443e-05
4.32499e-05
4.3254e-05
4.32567e-05
4.32581e-05
4.32581e-05
4.32567e-05
4.3254e-05
4.32499e-05
4.32443e-05
4.32372e-05
4.32285e-05
4.3218e-05
4.32056e-05
4.31912e-05
4.31746e-05
4.31556e-05
4.31339e-05
4.31094e-05
4.30817e-05
4.30507e-05
4.3016e-05
4.29773e-05
4.29344e-05
4.28869e-05
4.28346e-05
4.27772e-05
4.27144e-05
4.2646e-05
4.2572e-05
4.24924e-05
4.24077e-05
4.23192e-05
4.22301e-05
4.21449e-05
0.000128463
0.000128713
0.000128973
0.00012923
0.000129476
0.000129707
0.000129922
0.000130121
0.000130303
0.00013047
0.000130622
0.000130759
0.000130884
0.000130996
0.000131097
0.000131187
0.000131267
0.000131338
0.000131401
0.000131456
0.000131504
0.000131546
0.000131582
0.000131612
0.000131638
0.000131658
0.000131674
0.000131686
0.000131694
0.000131698
0.000131698
0.000131694
0.000131686
0.000131674
0.000131658
0.000131638
0.000131612
0.000131582
0.000131546
0.000131504
0.000131456
0.000131401
0.000131338
0.000131267
0.000131187
0.000131097
0.000130996
0.000130884
0.000130759
0.000130622
0.00013047
0.000130303
0.000130121
0.000129922
0.000129707
0.000129476
0.00012923
0.000128973
0.000128713
0.000128463
0.000360988
0.000361651
0.000362338
0.000363016
0.000363663
0.000364271
0.000364836
0.000365358
0.000365837
0.000366275
0.000366674
0.000367035
0.000367362
0.000367656
0.000367921
0.000368157
0.000368367
0.000368554
0.000368719
0.000368864
0.00036899
0.0003691
0.000369194
0.000369274
0.00036934
0.000369394
0.000369437
0.000369468
0.000369488
0.000369499
0.000369499
0.000369488
0.000369468
0.000369437
0.000369394
0.00036934
0.000369274
0.000369194
0.0003691
0.00036899
0.000368864
0.000368719
0.000368554
0.000368367
0.000368157
0.000367921
0.000367656
0.000367362
0.000367035
0.000366674
0.000366275
0.000365837
0.000365358
0.000364836
0.000364271
0.000363663
0.000363016
0.000362338
0.000361651
0.000360988
0.000922318
0.000923887
0.000925502
0.00092709
0.000928605
0.000930027
0.000931348
0.000932567
0.000933686
0.000934709
0.00093564
0.000936485
0.000937248
0.000937935
0.000938552
0.000939103
0.000939594
0.00094003
0.000940414
0.000940752
0.000941047
0.000941303
0.000941523
0.000941709
0.000941864
0.00094199
0.000942089
0.000942162
0.00094221
0.000942233
0.000942233
0.00094221
0.000942162
0.000942089
0.00094199
0.000941864
0.000941709
0.000941523
0.000941303
0.000941047
0.000940752
0.000940414
0.00094003
0.000939594
0.000939103
0.000938552
0.000937935
0.000937248
0.000936485
0.00093564
0.000934709
0.000933686
0.000932567
0.000931348
0.000930027
0.000928605
0.00092709
0.000925502
0.000923887
0.000922318
0.00211507
0.00211833
0.00212165
0.0021249
0.002128
0.00213091
0.00213361
0.0021361
0.00213839
0.00214048
0.00214238
0.0021441
0.00214566
0.00214706
0.00214832
0.00214945
0.00215045
0.00215134
0.00215212
0.00215281
0.00215341
0.00215393
0.00215438
0.00215476
0.00215508
0.00215533
0.00215554
0.00215568
0.00215578
0.00215583
0.00215583
0.00215578
0.00215568
0.00215554
0.00215533
0.00215508
0.00215476
0.00215438
0.00215393
0.00215341
0.00215281
0.00215212
0.00215134
0.00215045
0.00214945
0.00214832
0.00214706
0.00214566
0.0021441
0.00214238
0.00214048
0.00213839
0.0021361
0.00213361
0.00213091
0.002128
0.0021249
0.00212165
0.00211833