/*--------------------------------*- C++ -*----------------------------------*\
| =========                 |                                                 |
| \\      /  F ield         | foam-extend: Open Source CFD                    |
|  \\    /   O peration     | Version:     4.0                                |
|   \\  /    A nd           | Web:         http://www.foam-extend.org         |
|    \\/     M anipulation  |                                                 |
\*---------------------------------------------------------------------------*/
FoamFile
{
    version     2.0;
    format      ascii;
    class       volScalarField;
    location    "1940";
    object      cPlus;
}
// * * * * * * * * * * * * * * * * * * * * * * * * * * * * * * * * * * * * * //

dimensions      [0 0 0 0 0 0 0];

internalField   nonuniform List<scalar> 
6960
(
0.336418
0.33641
0.336401
0.336391
0.336381
0.336372
0.336364
0.336356
0.336349
0.336342
0.336336
0.336331
0.336326
0.336322
0.336318
0.336314
0.336311
0.336309
0.336306
0.336304
0.336302
0.336301
0.336299
0.336298
0.336297
0.336296
0.336296
0.336295
0.336295
0.336295
0.336295
0.336295
0.336295
0.336296
0.336296
0.336297
0.336298
0.336299
0.336301
0.336302
0.336304
0.336306
0.336309
0.336311
0.336314
0.336318
0.336322
0.336326
0.336331
0.336336
0.336342
0.336349
0.336356
0.336364
0.336372
0.336381
0.336391
0.336401
0.33641
0.336418
0.115252
0.115246
0.115239
0.115231
0.115223
0.115216
0.11521
0.115204
0.115198
0.115193
0.115189
0.115185
0.115181
0.115178
0.115175
0.115172
0.11517
0.115168
0.115166
0.115164
0.115163
0.115161
0.11516
0.115159
0.115159
0.115158
0.115158
0.115157
0.115157
0.115157
0.115157
0.115157
0.115157
0.115158
0.115158
0.115159
0.115159
0.11516
0.115161
0.115163
0.115164
0.115166
0.115168
0.11517
0.115172
0.115175
0.115178
0.115181
0.115185
0.115189
0.115193
0.115198
0.115204
0.11521
0.115216
0.115223
0.115231
0.115239
0.115246
0.115252
0.0467417
0.0467383
0.0467337
0.046729
0.0467244
0.0467201
0.0467161
0.0467124
0.046709
0.0467059
0.0467031
0.0467006
0.0466983
0.0466962
0.0466944
0.0466927
0.0466913
0.04669
0.0466888
0.0466878
0.046687
0.0466862
0.0466855
0.046685
0.0466845
0.0466842
0.0466839
0.0466837
0.0466835
0.0466835
0.0466835
0.0466835
0.0466837
0.0466839
0.0466842
0.0466845
0.046685
0.0466855
0.0466862
0.046687
0.0466878
0.0466888
0.04669
0.0466913
0.0466927
0.0466944
0.0466962
0.0466983
0.0467006
0.0467031
0.0467059
0.046709
0.0467124
0.0467161
0.0467201
0.0467244
0.046729
0.0467337
0.0467383
0.0467417
0.0212826
0.021281
0.0212787
0.0212762
0.0212738
0.0212716
0.0212695
0.0212676
0.0212658
0.0212642
0.0212627
0.0212614
0.0212602
0.0212591
0.0212582
0.0212573
0.0212565
0.0212559
0.0212553
0.0212548
0.0212543
0.0212539
0.0212536
0.0212533
0.021253
0.0212529
0.0212527
0.0212526
0.0212525
0.0212525
0.0212525
0.0212525
0.0212526
0.0212527
0.0212529
0.021253
0.0212533
0.0212536
0.0212539
0.0212543
0.0212548
0.0212553
0.0212559
0.0212565
0.0212573
0.0212582
0.0212591
0.0212602
0.0212614
0.0212627
0.0212642
0.0212658
0.0212676
0.0212695
0.0212716
0.0212738
0.0212762
0.0212787
0.021281
0.0212826
0.0112516
0.0112511
0.0112503
0.0112493
0.0112483
0.0112474
0.0112466
0.0112458
0.0112451
0.0112444
0.0112439
0.0112433
0.0112428
0.0112424
0.011242
0.0112417
0.0112414
0.0112411
0.0112408
0.0112406
0.0112405
0.0112403
0.0112402
0.01124
0.0112399
0.0112399
0.0112398
0.0112398
0.0112397
0.0112397
0.0112397
0.0112397
0.0112398
0.0112398
0.0112399
0.0112399
0.01124
0.0112402
0.0112403
0.0112405
0.0112406
0.0112408
0.0112411
0.0112414
0.0112417
0.011242
0.0112424
0.0112428
0.0112433
0.0112439
0.0112444
0.0112451
0.0112458
0.0112466
0.0112474
0.0112483
0.0112493
0.0112503
0.0112511
0.0112516
0.00726688
0.00726705
0.00726701
0.0072669
0.00726677
0.00726664
0.00726652
0.00726641
0.00726631
0.00726621
0.00726613
0.00726605
0.00726598
0.00726592
0.00726586
0.00726581
0.00726576
0.00726572
0.00726569
0.00726565
0.00726563
0.0072656
0.00726558
0.00726557
0.00726555
0.00726554
0.00726553
0.00726552
0.00726552
0.00726552
0.00726552
0.00726552
0.00726552
0.00726553
0.00726554
0.00726555
0.00726557
0.00726558
0.0072656
0.00726563
0.00726565
0.00726569
0.00726572
0.00726576
0.00726581
0.00726586
0.00726592
0.00726598
0.00726605
0.00726613
0.00726621
0.00726631
0.00726641
0.00726652
0.00726664
0.00726677
0.0072669
0.00726701
0.00726705
0.00726688
0.00571205
0.00571257
0.00571297
0.00571332
0.00571363
0.00571392
0.00571418
0.00571443
0.00571465
0.00571485
0.00571503
0.0057152
0.00571535
0.00571548
0.0057156
0.0057157
0.0057158
0.00571588
0.00571596
0.00571602
0.00571608
0.00571612
0.00571617
0.0057162
0.00571623
0.00571625
0.00571627
0.00571629
0.00571629
0.0057163
0.0057163
0.00571629
0.00571629
0.00571627
0.00571625
0.00571623
0.0057162
0.00571617
0.00571612
0.00571608
0.00571602
0.00571596
0.00571588
0.0057158
0.0057157
0.0057156
0.00571548
0.00571535
0.0057152
0.00571503
0.00571485
0.00571465
0.00571443
0.00571418
0.00571392
0.00571363
0.00571332
0.00571297
0.00571257
0.00571205
0.00513098
0.00513169
0.00513231
0.00513288
0.00513342
0.00513391
0.00513437
0.00513479
0.00513517
0.00513552
0.00513584
0.00513613
0.00513638
0.00513662
0.00513682
0.00513701
0.00513717
0.00513732
0.00513745
0.00513756
0.00513766
0.00513774
0.00513781
0.00513788
0.00513793
0.00513797
0.005138
0.00513802
0.00513804
0.00513805
0.00513805
0.00513804
0.00513802
0.005138
0.00513797
0.00513793
0.00513788
0.00513781
0.00513774
0.00513766
0.00513756
0.00513745
0.00513732
0.00513717
0.00513701
0.00513682
0.00513662
0.00513638
0.00513613
0.00513584
0.00513552
0.00513517
0.00513479
0.00513437
0.00513391
0.00513342
0.00513288
0.00513231
0.00513169
0.00513098
0.00493472
0.00493552
0.00493624
0.00493693
0.00493757
0.00493816
0.00493871
0.00493922
0.00493968
0.0049401
0.00494048
0.00494083
0.00494114
0.00494142
0.00494167
0.00494189
0.00494209
0.00494226
0.00494242
0.00494255
0.00494267
0.00494277
0.00494286
0.00494294
0.004943
0.00494305
0.00494309
0.00494312
0.00494313
0.00494314
0.00494314
0.00494313
0.00494312
0.00494309
0.00494305
0.004943
0.00494294
0.00494286
0.00494277
0.00494267
0.00494255
0.00494242
0.00494226
0.00494209
0.00494189
0.00494167
0.00494142
0.00494114
0.00494083
0.00494048
0.0049401
0.00493968
0.00493922
0.00493871
0.00493816
0.00493757
0.00493693
0.00493624
0.00493552
0.00493472
0.00488817
0.00488901
0.00488979
0.00489053
0.00489122
0.00489187
0.00489246
0.00489301
0.00489351
0.00489397
0.00489438
0.00489475
0.00489509
0.00489539
0.00489567
0.00489591
0.00489612
0.00489631
0.00489648
0.00489663
0.00489675
0.00489687
0.00489696
0.00489704
0.00489711
0.00489716
0.0048972
0.00489724
0.00489726
0.00489727
0.00489727
0.00489726
0.00489724
0.0048972
0.00489716
0.00489711
0.00489704
0.00489696
0.00489687
0.00489675
0.00489663
0.00489648
0.00489631
0.00489612
0.00489591
0.00489567
0.00489539
0.00489509
0.00489475
0.00489438
0.00489397
0.00489351
0.00489301
0.00489246
0.00489187
0.00489122
0.00489053
0.00488979
0.00488901
0.00488817
0.00489951
0.00490038
0.00490119
0.00490196
0.00490268
0.00490335
0.00490397
0.00490454
0.00490506
0.00490553
0.00490596
0.00490635
0.0049067
0.00490702
0.0049073
0.00490755
0.00490778
0.00490798
0.00490815
0.0049083
0.00490844
0.00490855
0.00490865
0.00490873
0.0049088
0.00490886
0.0049089
0.00490894
0.00490896
0.00490897
0.00490897
0.00490896
0.00490894
0.0049089
0.00490886
0.0049088
0.00490873
0.00490865
0.00490855
0.00490844
0.0049083
0.00490815
0.00490798
0.00490778
0.00490755
0.0049073
0.00490702
0.0049067
0.00490635
0.00490596
0.00490553
0.00490506
0.00490454
0.00490397
0.00490335
0.00490268
0.00490196
0.00490119
0.00490038
0.00489951
0.00493382
0.00493471
0.00493553
0.00493632
0.00493706
0.00493774
0.00493838
0.00493896
0.00493949
0.00493998
0.00494042
0.00494082
0.00494118
0.00494151
0.00494179
0.00494205
0.00494228
0.00494249
0.00494266
0.00494282
0.00494296
0.00494308
0.00494318
0.00494326
0.00494333
0.00494339
0.00494344
0.00494347
0.00494349
0.0049435
0.0049435
0.00494349
0.00494347
0.00494344
0.00494339
0.00494333
0.00494326
0.00494318
0.00494308
0.00494296
0.00494282
0.00494266
0.00494249
0.00494228
0.00494205
0.00494179
0.00494151
0.00494118
0.00494082
0.00494042
0.00493998
0.00493949
0.00493896
0.00493838
0.00493774
0.00493706
0.00493632
0.00493553
0.00493471
0.00493382
0.00497823
0.00497913
0.00497998
0.00498078
0.00498153
0.00498223
0.00498288
0.00498347
0.00498401
0.00498451
0.00498496
0.00498537
0.00498574
0.00498606
0.00498636
0.00498662
0.00498686
0.00498706
0.00498725
0.00498741
0.00498755
0.00498767
0.00498777
0.00498786
0.00498793
0.00498799
0.00498804
0.00498807
0.00498809
0.0049881
0.0049881
0.00498809
0.00498807
0.00498804
0.00498799
0.00498793
0.00498786
0.00498777
0.00498767
0.00498755
0.00498741
0.00498725
0.00498706
0.00498686
0.00498662
0.00498636
0.00498606
0.00498574
0.00498537
0.00498496
0.00498451
0.00498401
0.00498347
0.00498288
0.00498223
0.00498153
0.00498078
0.00497998
0.00497913
0.00497823
0.00502826
0.00502918
0.00503004
0.00503085
0.00503162
0.00503233
0.00503299
0.00503359
0.00503415
0.00503465
0.00503511
0.00503552
0.0050359
0.00503623
0.00503653
0.0050368
0.00503704
0.00503725
0.00503744
0.0050376
0.00503774
0.00503786
0.00503797
0.00503806
0.00503813
0.00503819
0.00503824
0.00503827
0.0050383
0.00503831
0.00503831
0.0050383
0.00503827
0.00503824
0.00503819
0.00503813
0.00503806
0.00503797
0.00503786
0.00503774
0.0050376
0.00503744
0.00503725
0.00503704
0.0050368
0.00503653
0.00503623
0.0050359
0.00503552
0.00503511
0.00503465
0.00503415
0.00503359
0.00503299
0.00503233
0.00503162
0.00503085
0.00503004
0.00502918
0.00502826
0.0050825
0.00508344
0.00508432
0.00508515
0.00508593
0.00508665
0.00508732
0.00508794
0.0050885
0.00508901
0.00508948
0.0050899
0.00509028
0.00509062
0.00509093
0.0050912
0.00509145
0.00509166
0.00509185
0.00509202
0.00509216
0.00509229
0.00509239
0.00509248
0.00509256
0.00509262
0.00509267
0.0050927
0.00509273
0.00509274
0.00509274
0.00509273
0.0050927
0.00509267
0.00509262
0.00509256
0.00509248
0.00509239
0.00509229
0.00509216
0.00509202
0.00509185
0.00509166
0.00509145
0.0050912
0.00509093
0.00509062
0.00509028
0.0050899
0.00508948
0.00508901
0.0050885
0.00508794
0.00508732
0.00508665
0.00508593
0.00508515
0.00508432
0.00508344
0.0050825
0.00514071
0.00514167
0.00514256
0.0051434
0.0051442
0.00514493
0.00514562
0.00514624
0.00514682
0.00514734
0.00514782
0.00514825
0.00514863
0.00514898
0.00514929
0.00514957
0.00514982
0.00515004
0.00515023
0.0051504
0.00515055
0.00515067
0.00515078
0.00515088
0.00515095
0.00515102
0.00515107
0.0051511
0.00515113
0.00515114
0.00515114
0.00515113
0.0051511
0.00515107
0.00515102
0.00515095
0.00515088
0.00515078
0.00515067
0.00515055
0.0051504
0.00515023
0.00515004
0.00514982
0.00514957
0.00514929
0.00514898
0.00514863
0.00514825
0.00514782
0.00514734
0.00514682
0.00514624
0.00514562
0.00514493
0.0051442
0.0051434
0.00514256
0.00514167
0.00514071
0.00520303
0.00520401
0.00520492
0.00520578
0.00520658
0.00520734
0.00520803
0.00520867
0.00520926
0.00520979
0.00521028
0.00521071
0.00521111
0.00521146
0.00521178
0.00521207
0.00521232
0.00521254
0.00521274
0.00521291
0.00521306
0.00521319
0.0052133
0.0052134
0.00521348
0.00521354
0.00521359
0.00521363
0.00521365
0.00521366
0.00521366
0.00521365
0.00521363
0.00521359
0.00521354
0.00521348
0.0052134
0.0052133
0.00521319
0.00521306
0.00521291
0.00521274
0.00521254
0.00521232
0.00521207
0.00521178
0.00521146
0.00521111
0.00521071
0.00521028
0.00520979
0.00520926
0.00520867
0.00520803
0.00520734
0.00520658
0.00520578
0.00520492
0.00520401
0.00520303
0.0052698
0.0052708
0.00527172
0.0052726
0.00527343
0.0052742
0.00527491
0.00527556
0.00527616
0.0052767
0.0052772
0.00527764
0.00527805
0.00527841
0.00527873
0.00527902
0.00527928
0.00527951
0.00527971
0.00527989
0.00528004
0.00528017
0.00528029
0.00528038
0.00528046
0.00528053
0.00528058
0.00528062
0.00528064
0.00528066
0.00528066
0.00528064
0.00528062
0.00528058
0.00528053
0.00528046
0.00528038
0.00528029
0.00528017
0.00528004
0.00527989
0.00527971
0.00527951
0.00527928
0.00527902
0.00527873
0.00527841
0.00527805
0.00527764
0.0052772
0.0052767
0.00527616
0.00527556
0.00527491
0.0052742
0.00527343
0.0052726
0.00527172
0.0052708
0.0052698
0.00534145
0.00534247
0.00534342
0.00534432
0.00534516
0.00534594
0.00534667
0.00534734
0.00534795
0.00534851
0.00534901
0.00534947
0.00534988
0.00535025
0.00535058
0.00535088
0.00535114
0.00535138
0.00535158
0.00535176
0.00535192
0.00535206
0.00535217
0.00535227
0.00535235
0.00535242
0.00535247
0.00535251
0.00535254
0.00535255
0.00535255
0.00535254
0.00535251
0.00535247
0.00535242
0.00535235
0.00535227
0.00535217
0.00535206
0.00535192
0.00535176
0.00535158
0.00535138
0.00535114
0.00535088
0.00535058
0.00535025
0.00534988
0.00534947
0.00534901
0.00534851
0.00534795
0.00534734
0.00534667
0.00534594
0.00534516
0.00534432
0.00534342
0.00534247
0.00534145
0.00541849
0.00541954
0.00542051
0.00542143
0.0054223
0.0054231
0.00542384
0.00542453
0.00542515
0.00542572
0.00542624
0.00542671
0.00542713
0.00542751
0.00542785
0.00542815
0.00542842
0.00542866
0.00542887
0.00542906
0.00542922
0.00542936
0.00542948
0.00542958
0.00542966
0.00542973
0.00542978
0.00542982
0.00542985
0.00542986
0.00542986
0.00542985
0.00542982
0.00542978
0.00542973
0.00542966
0.00542958
0.00542948
0.00542936
0.00542922
0.00542906
0.00542887
0.00542866
0.00542842
0.00542815
0.00542785
0.00542751
0.00542713
0.00542671
0.00542624
0.00542572
0.00542515
0.00542453
0.00542384
0.0054231
0.0054223
0.00542143
0.00542051
0.00541954
0.00541849
0.00550153
0.00550261
0.00550361
0.00550455
0.00550543
0.00550626
0.00550702
0.00550772
0.00550836
0.00550895
0.00550948
0.00550996
0.00551039
0.00551078
0.00551113
0.00551144
0.00551172
0.00551196
0.00551218
0.00551237
0.00551253
0.00551268
0.0055128
0.0055129
0.00551299
0.00551306
0.00551311
0.00551315
0.00551318
0.00551319
0.00551319
0.00551318
0.00551315
0.00551311
0.00551306
0.00551299
0.0055129
0.0055128
0.00551268
0.00551253
0.00551237
0.00551218
0.00551196
0.00551172
0.00551144
0.00551113
0.00551078
0.00551039
0.00550996
0.00550948
0.00550895
0.00550836
0.00550772
0.00550702
0.00550626
0.00550543
0.00550455
0.00550361
0.00550261
0.00550153
0.00559126
0.00559237
0.00559339
0.00559436
0.00559527
0.00559611
0.0055969
0.00559762
0.00559828
0.00559888
0.00559942
0.00559992
0.00560036
0.00560076
0.00560112
0.00560144
0.00560172
0.00560198
0.0056022
0.00560239
0.00560256
0.00560271
0.00560284
0.00560294
0.00560303
0.0056031
0.00560316
0.0056032
0.00560323
0.00560324
0.00560324
0.00560323
0.0056032
0.00560316
0.0056031
0.00560303
0.00560294
0.00560284
0.00560271
0.00560256
0.00560239
0.0056022
0.00560198
0.00560172
0.00560144
0.00560112
0.00560076
0.00560036
0.00559992
0.00559942
0.00559888
0.00559828
0.00559762
0.0055969
0.00559611
0.00559527
0.00559436
0.00559339
0.00559237
0.00559126
0.00568848
0.00568962
0.00569068
0.00569168
0.00569261
0.00569348
0.00569429
0.00569503
0.00569571
0.00569633
0.00569689
0.0056974
0.00569786
0.00569827
0.00569864
0.00569897
0.00569926
0.00569952
0.00569975
0.00569995
0.00570012
0.00570028
0.00570041
0.00570052
0.00570061
0.00570068
0.00570074
0.00570078
0.00570081
0.00570082
0.00570082
0.00570081
0.00570078
0.00570074
0.00570068
0.00570061
0.00570052
0.00570041
0.00570028
0.00570012
0.00569995
0.00569975
0.00569952
0.00569926
0.00569897
0.00569864
0.00569827
0.00569786
0.0056974
0.00569689
0.00569633
0.00569571
0.00569503
0.00569429
0.00569348
0.00569261
0.00569168
0.00569068
0.00568962
0.00568848
0.00579416
0.00579534
0.00579643
0.00579745
0.00579842
0.00579932
0.00580015
0.00580091
0.00580161
0.00580225
0.00580283
0.00580336
0.00580383
0.00580426
0.00580464
0.00580498
0.00580528
0.00580555
0.00580578
0.00580599
0.00580617
0.00580633
0.00580646
0.00580658
0.00580667
0.00580675
0.00580681
0.00580685
0.00580688
0.0058069
0.0058069
0.00580688
0.00580685
0.00580681
0.00580675
0.00580667
0.00580658
0.00580646
0.00580633
0.00580617
0.00580599
0.00580578
0.00580555
0.00580528
0.00580498
0.00580464
0.00580426
0.00580383
0.00580336
0.00580283
0.00580225
0.00580161
0.00580091
0.00580015
0.00579932
0.00579842
0.00579745
0.00579643
0.00579534
0.00579416
0.00590941
0.00591063
0.00591176
0.00591282
0.00591382
0.00591475
0.00591561
0.0059164
0.00591712
0.00591778
0.00591838
0.00591893
0.00591942
0.00591986
0.00592025
0.0059206
0.00592092
0.00592119
0.00592144
0.00592165
0.00592184
0.005922
0.00592214
0.00592226
0.00592236
0.00592243
0.0059225
0.00592254
0.00592257
0.00592259
0.00592259
0.00592257
0.00592254
0.0059225
0.00592243
0.00592236
0.00592226
0.00592214
0.005922
0.00592184
0.00592165
0.00592144
0.00592119
0.00592092
0.0059206
0.00592025
0.00591986
0.00591942
0.00591893
0.00591838
0.00591778
0.00591712
0.0059164
0.00591561
0.00591475
0.00591382
0.00591282
0.00591176
0.00591063
0.00590941
0.00603558
0.00603685
0.00603802
0.00603912
0.00604016
0.00604112
0.00604201
0.00604283
0.00604359
0.00604427
0.00604489
0.00604546
0.00604596
0.00604642
0.00604683
0.0060472
0.00604752
0.00604781
0.00604806
0.00604828
0.00604848
0.00604865
0.00604879
0.00604891
0.00604901
0.0060491
0.00604916
0.00604921
0.00604924
0.00604926
0.00604926
0.00604924
0.00604921
0.00604916
0.0060491
0.00604901
0.00604891
0.00604879
0.00604865
0.00604848
0.00604828
0.00604806
0.00604781
0.00604752
0.0060472
0.00604683
0.00604642
0.00604596
0.00604546
0.00604489
0.00604427
0.00604359
0.00604283
0.00604201
0.00604112
0.00604016
0.00603912
0.00603802
0.00603685
0.00603558
0.00617429
0.00617561
0.00617683
0.00617798
0.00617906
0.00618006
0.00618099
0.00618184
0.00618262
0.00618333
0.00618398
0.00618457
0.0061851
0.00618557
0.006186
0.00618638
0.00618672
0.00618702
0.00618728
0.00618751
0.00618771
0.00618789
0.00618804
0.00618817
0.00618827
0.00618836
0.00618843
0.00618848
0.00618851
0.00618852
0.00618852
0.00618851
0.00618848
0.00618843
0.00618836
0.00618827
0.00618817
0.00618804
0.00618789
0.00618771
0.00618751
0.00618728
0.00618702
0.00618672
0.00618638
0.006186
0.00618557
0.0061851
0.00618457
0.00618398
0.00618333
0.00618262
0.00618184
0.00618099
0.00618006
0.00617906
0.00617798
0.00617683
0.00617561
0.00617429
0.0063275
0.00632888
0.00633015
0.00633135
0.00633248
0.00633353
0.0063345
0.00633539
0.0063362
0.00633695
0.00633762
0.00633824
0.00633879
0.00633929
0.00633973
0.00634013
0.00634048
0.00634079
0.00634107
0.00634131
0.00634152
0.00634171
0.00634186
0.006342
0.00634211
0.0063422
0.00634227
0.00634232
0.00634235
0.00634237
0.00634237
0.00634235
0.00634232
0.00634227
0.0063422
0.00634211
0.006342
0.00634186
0.00634171
0.00634152
0.00634131
0.00634107
0.00634079
0.00634048
0.00634013
0.00633973
0.00633929
0.00633879
0.00633824
0.00633762
0.00633695
0.0063362
0.00633539
0.0063345
0.00633353
0.00633248
0.00633135
0.00633015
0.00632888
0.0063275
0.00649762
0.00649907
0.00650041
0.00650166
0.00650285
0.00650394
0.00650496
0.0065059
0.00650675
0.00650753
0.00650824
0.00650888
0.00650946
0.00650998
0.00651045
0.00651087
0.00651124
0.00651157
0.00651186
0.00651211
0.00651233
0.00651252
0.00651269
0.00651283
0.00651294
0.00651304
0.00651311
0.00651317
0.0065132
0.00651322
0.00651322
0.0065132
0.00651317
0.00651311
0.00651304
0.00651294
0.00651283
0.00651269
0.00651252
0.00651233
0.00651211
0.00651186
0.00651157
0.00651124
0.00651087
0.00651045
0.00650998
0.00650946
0.00650888
0.00650824
0.00650753
0.00650675
0.0065059
0.00650496
0.00650394
0.00650285
0.00650166
0.00650041
0.00649907
0.00649762
0.00668765
0.00668918
0.00669059
0.00669191
0.00669316
0.00669432
0.00669539
0.00669637
0.00669727
0.0066981
0.00669884
0.00669952
0.00670013
0.00670068
0.00670117
0.00670161
0.006702
0.00670235
0.00670265
0.00670292
0.00670316
0.00670336
0.00670353
0.00670368
0.0067038
0.0067039
0.00670398
0.00670404
0.00670407
0.00670409
0.00670409
0.00670407
0.00670404
0.00670398
0.0067039
0.0067038
0.00670368
0.00670353
0.00670336
0.00670316
0.00670292
0.00670265
0.00670235
0.006702
0.00670161
0.00670117
0.00670068
0.00670013
0.00669952
0.00669884
0.0066981
0.00669727
0.00669637
0.00669539
0.00669432
0.00669316
0.00669191
0.00669059
0.00668918
0.00668765
0.00690136
0.00690299
0.00690448
0.00690588
0.0069072
0.00690842
0.00690956
0.0069106
0.00691156
0.00691243
0.00691322
0.00691394
0.00691459
0.00691517
0.00691569
0.00691616
0.00691657
0.00691694
0.00691726
0.00691755
0.00691779
0.00691801
0.00691819
0.00691835
0.00691848
0.00691858
0.00691867
0.00691873
0.00691877
0.00691879
0.00691879
0.00691877
0.00691873
0.00691867
0.00691858
0.00691848
0.00691835
0.00691819
0.00691801
0.00691779
0.00691755
0.00691726
0.00691694
0.00691657
0.00691616
0.00691569
0.00691517
0.00691459
0.00691394
0.00691322
0.00691243
0.00691156
0.0069106
0.00690956
0.00690842
0.0069072
0.00690588
0.00690448
0.00690299
0.00690136
0.00714358
0.00714531
0.0071469
0.00714839
0.0071498
0.00715111
0.00715232
0.00715343
0.00715445
0.00715538
0.00715622
0.00715699
0.00715768
0.0071583
0.00715886
0.00715935
0.0071598
0.00716019
0.00716053
0.00716084
0.0071611
0.00716133
0.00716153
0.00716169
0.00716183
0.00716195
0.00716203
0.0071621
0.00716214
0.00716216
0.00716216
0.00716214
0.0071621
0.00716203
0.00716195
0.00716183
0.00716169
0.00716153
0.00716133
0.0071611
0.00716084
0.00716053
0.00716019
0.0071598
0.00715935
0.00715886
0.0071583
0.00715768
0.00715699
0.00715622
0.00715538
0.00715445
0.00715343
0.00715232
0.00715111
0.0071498
0.00714839
0.0071469
0.00714531
0.00714358
0.00742056
0.00742242
0.00742413
0.00742574
0.00742724
0.00742865
0.00742995
0.00743115
0.00743224
0.00743324
0.00743415
0.00743498
0.00743572
0.00743639
0.00743698
0.00743752
0.00743799
0.00743842
0.00743879
0.00743911
0.0074394
0.00743964
0.00743986
0.00744004
0.00744018
0.00744031
0.0074404
0.00744047
0.00744052
0.00744054
0.00744054
0.00744052
0.00744047
0.0074404
0.00744031
0.00744018
0.00744004
0.00743986
0.00743964
0.0074394
0.00743911
0.00743879
0.00743842
0.00743799
0.00743752
0.00743698
0.00743639
0.00743572
0.00743498
0.00743415
0.00743324
0.00743224
0.00743115
0.00742995
0.00742865
0.00742724
0.00742574
0.00742413
0.00742242
0.00742056
0.00774063
0.00774264
0.00774449
0.00774623
0.00774787
0.00774939
0.00775081
0.0077521
0.00775329
0.00775438
0.00775536
0.00775626
0.00775706
0.00775779
0.00775844
0.00775902
0.00775953
0.00775999
0.00776039
0.00776075
0.00776106
0.00776132
0.00776155
0.00776175
0.00776191
0.00776204
0.00776214
0.00776222
0.00776227
0.0077623
0.0077623
0.00776227
0.00776222
0.00776214
0.00776204
0.00776191
0.00776175
0.00776155
0.00776132
0.00776106
0.00776075
0.00776039
0.00775999
0.00775953
0.00775902
0.00775844
0.00775779
0.00775706
0.00775626
0.00775536
0.00775438
0.00775329
0.0077521
0.00775081
0.00774939
0.00774787
0.00774623
0.00774449
0.00774264
0.00774063
0.00811502
0.00811722
0.00811924
0.00812116
0.00812295
0.00812462
0.00812617
0.00812759
0.0081289
0.00813009
0.00813117
0.00813215
0.00813303
0.00813383
0.00813454
0.00813518
0.00813575
0.00813625
0.00813669
0.00813708
0.00813742
0.00813771
0.00813796
0.00813818
0.00813836
0.0081385
0.00813861
0.0081387
0.00813875
0.00813878
0.00813878
0.00813875
0.0081387
0.00813861
0.0081385
0.00813836
0.00813818
0.00813796
0.00813771
0.00813742
0.00813708
0.00813669
0.00813625
0.00813575
0.00813518
0.00813454
0.00813383
0.00813303
0.00813215
0.00813117
0.00813009
0.0081289
0.00812759
0.00812617
0.00812462
0.00812295
0.00812116
0.00811924
0.00811722
0.00811502
0.00855932
0.00856176
0.00856401
0.00856613
0.00856812
0.00856998
0.0085717
0.00857329
0.00857474
0.00857606
0.00857726
0.00857835
0.00857934
0.00858022
0.00858101
0.00858172
0.00858235
0.00858291
0.0085834
0.00858384
0.00858421
0.00858454
0.00858482
0.00858506
0.00858526
0.00858542
0.00858554
0.00858564
0.0085857
0.00858573
0.00858573
0.0085857
0.00858564
0.00858554
0.00858542
0.00858526
0.00858506
0.00858482
0.00858454
0.00858421
0.00858384
0.0085834
0.00858291
0.00858235
0.00858172
0.00858101
0.00858022
0.00857934
0.00857835
0.00857726
0.00857606
0.00857474
0.00857329
0.0085717
0.00856998
0.00856812
0.00856613
0.00856401
0.00856176
0.00855932
0.00909564
0.00909839
0.00910093
0.00910333
0.00910558
0.00910768
0.00910963
0.00911142
0.00911306
0.00911455
0.00911591
0.00911714
0.00911826
0.00911926
0.00912015
0.00912096
0.00912167
0.0091223
0.00912286
0.00912335
0.00912378
0.00912415
0.00912446
0.00912473
0.00912496
0.00912514
0.00912528
0.00912539
0.00912546
0.00912549
0.00912549
0.00912546
0.00912539
0.00912528
0.00912514
0.00912496
0.00912473
0.00912446
0.00912415
0.00912378
0.00912335
0.00912286
0.0091223
0.00912167
0.00912096
0.00912015
0.00911926
0.00911826
0.00911714
0.00911591
0.00911455
0.00911306
0.00911142
0.00910963
0.00910768
0.00910558
0.00910333
0.00910093
0.00909839
0.00909564
0.00975602
0.00975918
0.0097621
0.00976486
0.00976746
0.00976988
0.00977212
0.00977419
0.00977608
0.00977781
0.00977938
0.0097808
0.00978208
0.00978324
0.00978427
0.0097852
0.00978602
0.00978675
0.00978739
0.00978796
0.00978845
0.00978888
0.00978925
0.00978956
0.00978982
0.00979003
0.00979019
0.00979031
0.00979039
0.00979043
0.00979043
0.00979039
0.00979031
0.00979019
0.00979003
0.00978982
0.00978956
0.00978925
0.00978888
0.00978845
0.00978796
0.00978739
0.00978675
0.00978602
0.0097852
0.00978427
0.00978324
0.00978208
0.0097808
0.00977938
0.00977781
0.00977608
0.00977419
0.00977212
0.00976988
0.00976746
0.00976486
0.0097621
0.00975918
0.00975602
0.0105873
0.010591
0.0105945
0.0105977
0.0106008
0.0106037
0.0106063
0.0106087
0.010611
0.010613
0.0106149
0.0106165
0.0106181
0.0106194
0.0106207
0.0106217
0.0106227
0.0106236
0.0106243
0.010625
0.0106256
0.0106261
0.0106265
0.0106269
0.0106272
0.0106275
0.0106277
0.0106278
0.0106279
0.0106279
0.0106279
0.0106279
0.0106278
0.0106277
0.0106275
0.0106272
0.0106269
0.0106265
0.0106261
0.0106256
0.010625
0.0106243
0.0106236
0.0106227
0.0106217
0.0106207
0.0106194
0.0106181
0.0106165
0.0106149
0.010613
0.010611
0.0106087
0.0106063
0.0106037
0.0106008
0.0105977
0.0105945
0.010591
0.0105873
0.0116575
0.011662
0.0116661
0.0116701
0.0116738
0.0116772
0.0116805
0.0116834
0.0116861
0.0116886
0.0116908
0.0116929
0.0116947
0.0116964
0.0116979
0.0116992
0.0117004
0.0117014
0.0117023
0.0117031
0.0117038
0.0117045
0.011705
0.0117054
0.0117058
0.0117061
0.0117063
0.0117065
0.0117066
0.0117067
0.0117067
0.0117066
0.0117065
0.0117063
0.0117061
0.0117058
0.0117054
0.011705
0.0117045
0.0117038
0.0117031
0.0117023
0.0117014
0.0117004
0.0116992
0.0116979
0.0116964
0.0116947
0.0116929
0.0116908
0.0116886
0.0116861
0.0116834
0.0116805
0.0116772
0.0116738
0.0116701
0.0116661
0.011662
0.0116575
0.0130614
0.0130669
0.013072
0.0130769
0.0130815
0.0130858
0.0130898
0.0130935
0.0130968
0.0130999
0.0131027
0.0131052
0.0131075
0.0131095
0.0131114
0.013113
0.0131145
0.0131158
0.0131169
0.0131179
0.0131188
0.0131196
0.0131202
0.0131208
0.0131212
0.0131216
0.0131219
0.0131221
0.0131223
0.0131223
0.0131223
0.0131223
0.0131221
0.0131219
0.0131216
0.0131212
0.0131208
0.0131202
0.0131196
0.0131188
0.0131179
0.0131169
0.0131158
0.0131145
0.013113
0.0131114
0.0131095
0.0131075
0.0131052
0.0131027
0.0130999
0.0130968
0.0130935
0.0130898
0.0130858
0.0130815
0.0130769
0.013072
0.0130669
0.0130614
0.0149208
0.0149277
0.0149342
0.0149403
0.0149461
0.0149515
0.0149566
0.0149612
0.0149654
0.0149693
0.0149728
0.014976
0.0149789
0.0149815
0.0149838
0.0149859
0.0149877
0.0149893
0.0149908
0.0149921
0.0149932
0.0149941
0.014995
0.0149957
0.0149962
0.0149967
0.0149971
0.0149974
0.0149975
0.0149976
0.0149976
0.0149975
0.0149974
0.0149971
0.0149967
0.0149962
0.0149957
0.014995
0.0149941
0.0149932
0.0149921
0.0149908
0.0149893
0.0149877
0.0149859
0.0149838
0.0149815
0.0149789
0.014976
0.0149728
0.0149693
0.0149654
0.0149612
0.0149566
0.0149515
0.0149461
0.0149403
0.0149342
0.0149277
0.0149208
0.0173721
0.0173808
0.0173889
0.0173967
0.0174041
0.0174109
0.0174172
0.0174231
0.0174284
0.0174333
0.0174378
0.0174418
0.0174455
0.0174487
0.0174517
0.0174543
0.0174566
0.0174587
0.0174605
0.0174622
0.0174636
0.0174648
0.0174658
0.0174667
0.0174674
0.017468
0.0174685
0.0174689
0.0174691
0.0174692
0.0174692
0.0174691
0.0174689
0.0174685
0.017468
0.0174674
0.0174667
0.0174658
0.0174648
0.0174636
0.0174622
0.0174605
0.0174587
0.0174566
0.0174543
0.0174517
0.0174487
0.0174455
0.0174418
0.0174378
0.0174333
0.0174284
0.0174231
0.0174172
0.0174109
0.0174041
0.0173967
0.0173889
0.0173808
0.0173721
0.0205361
0.0205469
0.0205571
0.0205668
0.020576
0.0205846
0.0205925
0.0205998
0.0206065
0.0206126
0.0206181
0.0206232
0.0206277
0.0206318
0.0206355
0.0206388
0.0206417
0.0206443
0.0206466
0.0206486
0.0206503
0.0206519
0.0206532
0.0206543
0.0206552
0.0206559
0.0206565
0.020657
0.0206573
0.0206574
0.0206574
0.0206573
0.020657
0.0206565
0.0206559
0.0206552
0.0206543
0.0206532
0.0206519
0.0206503
0.0206486
0.0206466
0.0206443
0.0206417
0.0206388
0.0206355
0.0206318
0.0206277
0.0206232
0.0206181
0.0206126
0.0206065
0.0205998
0.0205925
0.0205846
0.020576
0.0205668
0.0205571
0.0205469
0.0205361
0.024479
0.0244922
0.0245046
0.0245165
0.0245277
0.0245381
0.0245478
0.0245567
0.0245648
0.0245723
0.0245791
0.0245852
0.0245907
0.0245957
0.0246002
0.0246042
0.0246078
0.0246109
0.0246137
0.0246162
0.0246183
0.0246202
0.0246218
0.0246231
0.0246242
0.0246252
0.0246259
0.0246264
0.0246268
0.0246269
0.0246269
0.0246268
0.0246264
0.0246259
0.0246252
0.0246242
0.0246231
0.0246218
0.0246202
0.0246183
0.0246162
0.0246137
0.0246109
0.0246078
0.0246042
0.0246002
0.0245957
0.0245907
0.0245852
0.0245791
0.0245723
0.0245648
0.0245567
0.0245478
0.0245381
0.0245277
0.0245165
0.0245046
0.0244922
0.024479
0.0291859
0.0292016
0.0292164
0.0292305
0.0292437
0.029256
0.0292674
0.0292779
0.0292875
0.0292963
0.0293043
0.0293116
0.0293181
0.029324
0.0293293
0.0293341
0.0293383
0.029342
0.0293453
0.0293482
0.0293507
0.0293529
0.0293548
0.0293564
0.0293577
0.0293588
0.0293597
0.0293603
0.0293607
0.0293609
0.0293609
0.0293607
0.0293603
0.0293597
0.0293588
0.0293577
0.0293564
0.0293548
0.0293529
0.0293507
0.0293482
0.0293453
0.029342
0.0293383
0.0293341
0.0293293
0.029324
0.0293181
0.0293116
0.0293043
0.0292963
0.0292875
0.0292779