/*--------------------------------*- C++ -*----------------------------------*\
| =========                 |                                                 |
| \\      /  F ield         | foam-extend: Open Source CFD                    |
|  \\    /   O peration     | Version:     4.0                                |
|   \\  /    A nd           | Web:         http://www.foam-extend.org         |
|    \\/     M anipulation  |                                                 |
\*---------------------------------------------------------------------------*/
FoamFile
{
    version     2.0;
    format      ascii;
    class       volScalarField;
    location    "810";
    object      psiE;
}
// * * * * * * * * * * * * * * * * * * * * * * * * * * * * * * * * * * * * * //

dimensions      [0 0 0 0 0 0 0];

internalField   nonuniform List<scalar> 
6960
(
0.377766
0.377792
0.377815
0.377833
0.377847
0.377856
0.377863
0.377868
0.377871
0.377874
0.377875
0.377877
0.377878
0.377879
0.377879
0.37788
0.37788
0.377881
0.377881
0.377882
0.377882
0.377882
0.377882
0.377883
0.377883
0.377883
0.377883
0.377883
0.377883
0.377883
0.377883
0.377883
0.377883
0.377883
0.377883
0.377883
0.377883
0.377882
0.377882
0.377882
0.377882
0.377881
0.377881
0.37788
0.37788
0.377879
0.377879
0.377878
0.377877
0.377875
0.377874
0.377871
0.377868
0.377863
0.377856
0.377847
0.377833
0.377815
0.377792
0.377766
1.00954
1.00964
1.00974
1.00981
1.00986
1.0099
1.00993
1.00995
1.00996
1.00997
1.00998
1.00998
1.00998
1.00999
1.00999
1.00999
1.00999
1.00999
1.01
1.01
1.01
1.01
1.01
1.01
1.01
1.01
1.01
1.01
1.01
1.01
1.01
1.01
1.01
1.01
1.01
1.01
1.01
1.01
1.01
1.01
1.01
1.01
1.00999
1.00999
1.00999
1.00999
1.00999
1.00998
1.00998
1.00998
1.00997
1.00996
1.00995
1.00993
1.0099
1.00986
1.00981
1.00974
1.00964
1.00954
1.62362
1.62381
1.62399
1.62413
1.62423
1.62431
1.62436
1.62439
1.62442
1.62443
1.62445
1.62445
1.62446
1.62447
1.62447
1.62448
1.62448
1.62448
1.62448
1.62449
1.62449
1.62449
1.62449
1.62449
1.62449
1.62449
1.62449
1.62449
1.62449
1.62449
1.62449
1.62449
1.62449
1.62449
1.62449
1.62449
1.62449
1.62449
1.62449
1.62449
1.62449
1.62448
1.62448
1.62448
1.62448
1.62447
1.62447
1.62446
1.62445
1.62445
1.62443
1.62442
1.62439
1.62436
1.62431
1.62423
1.62413
1.62399
1.62381
1.62362
2.24147
2.24176
2.24203
2.24224
2.24239
2.2425
2.24257
2.24262
2.24266
2.24269
2.24271
2.24272
2.24273
2.24274
2.24274
2.24275
2.24275
2.24276
2.24276
2.24276
2.24277
2.24277
2.24277
2.24277
2.24277
2.24278
2.24278
2.24278
2.24278
2.24278
2.24278
2.24278
2.24278
2.24278
2.24278
2.24277
2.24277
2.24277
2.24277
2.24277
2.24276
2.24276
2.24276
2.24275
2.24275
2.24274
2.24274
2.24273
2.24272
2.24271
2.24269
2.24266
2.24262
2.24257
2.2425
2.24239
2.24224
2.24203
2.24176
2.24147
2.86821
2.86859
2.86895
2.86923
2.86944
2.86958
2.86968
2.86975
2.8698
2.86984
2.86986
2.86988
2.8699
2.86991
2.86991
2.86992
2.86993
2.86993
2.86994
2.86994
2.86994
2.86995
2.86995
2.86995
2.86995
2.86996
2.86996
2.86996
2.86996
2.86996
2.86996
2.86996
2.86996
2.86996
2.86996
2.86995
2.86995
2.86995
2.86995
2.86994
2.86994
2.86994
2.86993
2.86993
2.86992
2.86991
2.86991
2.8699
2.86988
2.86986
2.86984
2.8698
2.86975
2.86968
2.86958
2.86944
2.86923
2.86895
2.86859
2.86821
3.50488
3.50536
3.50581
3.50616
3.50642
3.5066
3.50673
3.50682
3.50688
3.50693
3.50696
3.50698
3.507
3.50701
3.50702
3.50703
3.50704
3.50704
3.50705
3.50705
3.50706
3.50706
3.50707
3.50707
3.50707
3.50707
3.50707
3.50708
3.50708
3.50708
3.50708
3.50708
3.50708
3.50707
3.50707
3.50707
3.50707
3.50707
3.50706
3.50706
3.50705
3.50705
3.50704
3.50704
3.50703
3.50702
3.50701
3.507
3.50698
3.50696
3.50693
3.50688
3.50682
3.50673
3.5066
3.50642
3.50616
3.50581
3.50536
3.50488
4.15148
4.15206
4.1526
4.15303
4.15333
4.15355
4.15371
4.15382
4.15389
4.15394
4.15398
4.15401
4.15403
4.15405
4.15406
4.15407
4.15408
4.15409
4.15409
4.1541
4.1541
4.15411
4.15411
4.15411
4.15412
4.15412
4.15412
4.15412
4.15412
4.15412
4.15412
4.15412
4.15412
4.15412
4.15412
4.15412
4.15411
4.15411
4.15411
4.1541
4.1541
4.15409
4.15409
4.15408
4.15407
4.15406
4.15405
4.15403
4.15401
4.15398
4.15394
4.15389
4.15382
4.15371
4.15355
4.15333
4.15303
4.1526
4.15206
4.15148
4.8077
4.80838
4.80901
4.80951
4.80987
4.81013
4.81031
4.81043
4.81052
4.81058
4.81062
4.81066
4.81068
4.8107
4.81072
4.81073
4.81074
4.81075
4.81075
4.81076
4.81077
4.81077
4.81078
4.81078
4.81078
4.81079
4.81079
4.81079
4.81079
4.81079
4.81079
4.81079
4.81079
4.81079
4.81079
4.81078
4.81078
4.81078
4.81077
4.81077
4.81076
4.81075
4.81075
4.81074
4.81073
4.81072
4.8107
4.81068
4.81066
4.81062
4.81058
4.81052
4.81043
4.81031
4.81013
4.80987
4.80951
4.80901
4.80838
4.8077
5.47311
5.47388
5.47461
5.47518
5.47559
5.47588
5.47609
5.47623
5.47633
5.4764
5.47645
5.47649
5.47652
5.47654
5.47656
5.47657
5.47658
5.4766
5.4766
5.47661
5.47662
5.47662
5.47663
5.47663
5.47664
5.47664
5.47664
5.47665
5.47665
5.47665
5.47665
5.47665
5.47665
5.47664
5.47664
5.47664
5.47663
5.47663
5.47662
5.47662
5.47661
5.4766
5.4766
5.47658
5.47657
5.47656
5.47654
5.47652
5.47649
5.47645
5.4764
5.47633
5.47623
5.47609
5.47588
5.47559
5.47518
5.47461
5.47388
5.47311
6.14719
6.14806
6.14887
6.14951
6.14997
6.1503
6.15053
6.1507
6.15081
6.15089
6.15094
6.15099
6.15102
6.15104
6.15106
6.15108
6.15109
6.1511
6.15111
6.15112
6.15113
6.15114
6.15114
6.15115
6.15115
6.15116
6.15116
6.15116
6.15116
6.15116
6.15116
6.15116
6.15116
6.15116
6.15116
6.15115
6.15115
6.15114
6.15114
6.15113
6.15112
6.15111
6.1511
6.15109
6.15108
6.15106
6.15104
6.15102
6.15099
6.15094
6.15089
6.15081
6.1507
6.15053
6.1503
6.14997
6.14951
6.14887
6.14806
6.14719
6.82932
6.83027
6.83118
6.83188
6.8324
6.83276
6.83302
6.8332
6.83333
6.83341
6.83348
6.83352
6.83356
6.83359
6.83361
6.83363
6.83364
6.83365
6.83367
6.83368
6.83368
6.83369
6.8337
6.8337
6.83371
6.83371
6.83372
6.83372
6.83372
6.83372
6.83372
6.83372
6.83372
6.83372
6.83371
6.83371
6.8337
6.8337
6.83369
6.83368
6.83368
6.83367
6.83365
6.83364
6.83363
6.83361
6.83359
6.83356
6.83352
6.83348
6.83341
6.83333
6.8332
6.83302
6.83276
6.8324
6.83188
6.83118
6.83027
6.82932
7.51877
7.51982
7.52081
7.52158
7.52215
7.52255
7.52283
7.52303
7.52317
7.52326
7.52333
7.52338
7.52342
7.52345
7.52348
7.5235
7.52351
7.52353
7.52354
7.52355
7.52356
7.52357
7.52358
7.52358
7.52359
7.52359
7.5236
7.5236
7.5236
7.5236
7.5236
7.5236
7.5236
7.5236
7.52359
7.52359
7.52358
7.52358
7.52357
7.52356
7.52355
7.52354
7.52353
7.52351
7.5235
7.52348
7.52345
7.52342
7.52338
7.52333
7.52326
7.52317
7.52303
7.52283
7.52255
7.52215
7.52158
7.52081
7.51982
7.51877
8.21473
8.21586
8.21694
8.21778
8.21839
8.21883
8.21913
8.21935
8.2195
8.2196
8.21968
8.21973
8.21978
8.21981
8.21984
8.21986
8.21988
8.21989
8.21991
8.21992
8.21993
8.21994
8.21994
8.21995
8.21996
8.21996
8.21997
8.21997
8.21997
8.21997
8.21997
8.21997
8.21997
8.21997
8.21996
8.21996
8.21995
8.21994
8.21994
8.21993
8.21992
8.21991
8.21989
8.21988
8.21986
8.21984
8.21981
8.21978
8.21973
8.21968
8.2196
8.2195
8.21935
8.21913
8.21883
8.21839
8.21778
8.21694
8.21586
8.21473
8.91622
8.91745
8.9186
8.9195
8.92016
8.92063
8.92096
8.92119
8.92135
8.92147
8.92155
8.92161
8.92166
8.92169
8.92172
8.92175
8.92177
8.92178
8.9218
8.92181
8.92182
8.92183
8.92184
8.92185
8.92186
8.92186
8.92186
8.92187
8.92187
8.92187
8.92187
8.92187
8.92187
8.92186
8.92186
8.92186
8.92185
8.92184
8.92183
8.92182
8.92181
8.9218
8.92178
8.92177
8.92175
8.92172
8.92169
8.92166
8.92161
8.92155
8.92147
8.92135
8.92119
8.92096
8.92063
8.92016
8.9195
8.9186
8.91745
8.91622
9.62215
9.62346
9.62469
9.62565
9.62636
9.62686
9.62721
9.62746
9.62763
9.62775
9.62784
9.62791
9.62796
9.628
9.62803
9.62805
9.62807
9.62809
9.62811
9.62812
9.62814
9.62815
9.62816
9.62817
9.62817
9.62818
9.62818
9.62819
9.62819
9.62819
9.62819
9.62819
9.62819
9.62818
9.62818
9.62817
9.62817
9.62816
9.62815
9.62814
9.62812
9.62811
9.62809
9.62807
9.62805
9.62803
9.628
9.62796
9.62791
9.62784
9.62775
9.62763
9.62746
9.62721
9.62686
9.62636
9.62565
9.62469
9.62346
9.62215
10.3312
10.3326
10.3339
10.335
10.3357
10.3362
10.3366
10.3369
10.3371
10.3372
10.3373
10.3373
10.3374
10.3374
10.3375
10.3375
10.3375
10.3375
10.3376
10.3376
10.3376
10.3376
10.3376
10.3376
10.3376
10.3376
10.3376
10.3376
10.3376
10.3377
10.3377
10.3376
10.3376
10.3376
10.3376
10.3376
10.3376
10.3376
10.3376
10.3376
10.3376
10.3376
10.3375
10.3375
10.3375
10.3375
10.3374
10.3374
10.3373
10.3373
10.3372
10.3371
10.3369
10.3366
10.3362
10.3357
10.335
10.3339
10.3326
10.3312
11.042
11.0435
11.0449
11.0459
11.0467
11.0473
11.0477
11.048
11.0482
11.0483
11.0484
11.0485
11.0485
11.0486
11.0486
11.0486
11.0487
11.0487
11.0487
11.0487
11.0487
11.0487
11.0488
11.0488
11.0488
11.0488
11.0488
11.0488
11.0488
11.0488
11.0488
11.0488
11.0488
11.0488
11.0488
11.0488
11.0488
11.0488
11.0487
11.0487
11.0487
11.0487
11.0487
11.0487
11.0486
11.0486
11.0486
11.0485
11.0485
11.0484
11.0483
11.0482
11.048
11.0477
11.0473
11.0467
11.0459
11.0449
11.0435
11.042
11.7528
11.7544
11.7558
11.7569
11.7577
11.7583
11.7587
11.759
11.7592
11.7594
11.7595
11.7596
11.7596
11.7597
11.7597
11.7597
11.7598
11.7598
11.7598
11.7598
11.7598
11.7599
11.7599
11.7599
11.7599
11.7599
11.7599
11.7599
11.7599
11.7599
11.7599
11.7599
11.7599
11.7599
11.7599
11.7599
11.7599
11.7599
11.7599
11.7598
11.7598
11.7598
11.7598
11.7598
11.7597
11.7597
11.7597
11.7596
11.7596
11.7595
11.7594
11.7592
11.759
11.7587
11.7583
11.7577
11.7569
11.7558
11.7544
11.7528
12.4617
12.4633
12.4648
12.466
12.4668
12.4674
12.4678
12.4682
12.4684
12.4685
12.4686
12.4687
12.4688
12.4688
12.4689
12.4689
12.4689
12.4689
12.469
12.469
12.469
12.469
12.469
12.469
12.469
12.4691
12.4691
12.4691
12.4691
12.4691
12.4691
12.4691
12.4691
12.4691
12.4691
12.469
12.469
12.469
12.469
12.469
12.469
12.469
12.4689
12.4689
12.4689
12.4689
12.4688
12.4688
12.4687
12.4686
12.4685
12.4684
12.4682
12.4678
12.4674
12.4668
12.466
12.4648
12.4633
12.4617
13.1664
13.168
13.1696
13.1708
13.1717
13.1723
13.1727
13.1731
13.1733
13.1734
13.1735
13.1736
13.1737
13.1737
13.1738
13.1738
13.1739
13.1739
13.1739
13.1739
13.1739
13.174
13.174
13.174
13.174
13.174
13.174
13.174
13.174
13.174
13.174
13.174
13.174
13.174
13.174
13.174
13.174
13.174
13.174
13.1739
13.1739
13.1739
13.1739
13.1739
13.1738
13.1738
13.1737
13.1737
13.1736
13.1735
13.1734
13.1733
13.1731
13.1727
13.1723
13.1717
13.1708
13.1696
13.168
13.1664
13.8643
13.866
13.8676
13.8688
13.8697
13.8704
13.8708
13.8711
13.8714
13.8715
13.8717
13.8717
13.8718
13.8719
13.8719
13.8719
13.872
13.872
13.872
13.8721
13.8721
13.8721
13.8721
13.8721
13.8721
13.8721
13.8721
13.8721
13.8721
13.8721
13.8721
13.8721
13.8721
13.8721
13.8721
13.8721
13.8721
13.8721
13.8721
13.8721
13.8721
13.872
13.872
13.872
13.8719
13.8719
13.8719
13.8718
13.8717
13.8717
13.8715
13.8714
13.8711
13.8708
13.8704
13.8697
13.8688
13.8676
13.866
13.8643
14.5524
14.5542
14.5558
14.557
14.5579
14.5586
14.5591
14.5594
14.5596
14.5598
14.5599
14.56
14.5601
14.5601
14.5602
14.5602
14.5602
14.5603
14.5603
14.5603
14.5603
14.5604
14.5604
14.5604
14.5604
14.5604
14.5604
14.5604
14.5604
14.5604
14.5604
14.5604
14.5604
14.5604
14.5604
14.5604
14.5604
14.5604
14.5604
14.5603
14.5603
14.5603
14.5603
14.5602
14.5602
14.5602
14.5601
14.5601
14.56
14.5599
14.5598
14.5596
14.5594
14.5591
14.5586
14.5579
14.557
14.5558
14.5542
14.5524
15.2272
15.2289
15.2306
15.2318
15.2328
15.2334
15.2339
15.2342
15.2345
15.2346
15.2348
15.2348
15.2349
15.235
15.235
15.2351
15.2351
15.2351
15.2352
15.2352
15.2352
15.2352
15.2352
15.2353
15.2353
15.2353
15.2353
15.2353
15.2353
15.2353
15.2353
15.2353
15.2353
15.2353
15.2353
15.2353
15.2353
15.2352
15.2352
15.2352
15.2352
15.2352
15.2351
15.2351
15.2351
15.235
15.235
15.2349
15.2348
15.2348
15.2346
15.2345
15.2342
15.2339
15.2334
15.2328
15.2318
15.2306
15.2289
15.2272
15.8845
15.8862
15.8878
15.8891
15.89
15.8907
15.8911
15.8915
15.8917
15.8919
15.892
15.8921
15.8922
15.8922
15.8923
15.8923
15.8924
15.8924
15.8924
15.8925
15.8925
15.8925
15.8925
15.8925
15.8925
15.8926
15.8926
15.8926
15.8926
15.8926
15.8926
15.8926
15.8926
15.8926
15.8926
15.8925
15.8925
15.8925
15.8925
15.8925
15.8925
15.8924
15.8924
15.8924
15.8923
15.8923
15.8922
15.8922
15.8921
15.892
15.8919
15.8917
15.8915
15.8911
15.8907
15.89
15.8891
15.8878
15.8862
15.8845
16.5192
16.521
16.5226
16.5238
16.5247
16.5254
16.5258
16.5262
16.5264
16.5266
16.5267
16.5268
16.5269
16.5269
16.527
16.527
16.5271
16.5271
16.5271
16.5272
16.5272
16.5272
16.5272
16.5272
16.5272
16.5273
16.5273
16.5273
16.5273
16.5273
16.5273
16.5273
16.5273
16.5273
16.5273
16.5272
16.5272
16.5272
16.5272
16.5272
16.5272
16.5271
16.5271
16.5271
16.527
16.527
16.5269
16.5269
16.5268
16.5267
16.5266
16.5264
16.5262
16.5258
16.5254
16.5247
16.5238
16.5226
16.521
16.5192
17.1256
17.1273
17.1288
17.13
17.1309
17.1315
17.132
17.1323
17.1325
17.1327
17.1328
17.1329
17.133
17.1331
17.1331
17.1332
17.1332
17.1333
17.1333
17.1333
17.1333
17.1334
17.1334
17.1334
17.1334
17.1334
17.1334
17.1334
17.1334
17.1334
17.1334
17.1334
17.1334
17.1334
17.1334
17.1334
17.1334
17.1334
17.1334
17.1333
17.1333
17.1333
17.1333
17.1332
17.1332
17.1331
17.1331
17.133
17.1329
17.1328
17.1327
17.1325
17.1323
17.132
17.1315
17.1309
17.13
17.1288
17.1273
17.1256
17.6964
17.698
17.6994
17.7006
17.7014
17.702
17.7025
17.7028
17.703
17.7032
17.7033
17.7034
17.7035
17.7035
17.7036
17.7036
17.7037
17.7037
17.7037
17.7038
17.7038
17.7038
17.7038
17.7039
17.7039
17.7039
17.7039
17.7039
17.7039
17.7039
17.7039
17.7039
17.7039
17.7039
17.7039
17.7039
17.7039
17.7038
17.7038
17.7038
17.7038
17.7037
17.7037
17.7037
17.7036
17.7036
17.7035
17.7035
17.7034
17.7033
17.7032
17.703
17.7028
17.7025
17.702
17.7014
17.7006
17.6994
17.698
17.6964
18.2232
18.2246
18.226
18.227
18.2278
18.2284
18.2288
18.2291
18.2293
18.2295
18.2296
18.2297
18.2297
18.2298
18.2299
18.2299
18.23
18.23
18.23
18.2301
18.2301
18.2301
18.2301
18.2301
18.2302
18.2302
18.2302
18.2302
18.2302
18.2302
18.2302
18.2302
18.2302
18.2302
18.2302
18.2302
18.2301
18.2301
18.2301
18.2301
18.2301
18.23
18.23
18.23
18.2299
18.2299
18.2298
18.2297
18.2297
18.2296
18.2295
18.2293
18.2291
18.2288
18.2284
18.2278
18.227
18.226
18.2246
18.2232
18.6966
18.6979
18.6991
18.7
18.7007
18.7012
18.7016
18.7019
18.7021
18.7022
18.7023
18.7024
18.7025
18.7026
18.7026
18.7027
18.7027
18.7027
18.7028
18.7028
18.7028
18.7029
18.7029
18.7029
18.7029
18.7029
18.7029
18.703
18.703
18.703
18.703
18.703
18.703
18.7029
18.7029
18.7029
18.7029
18.7029
18.7029
18.7028
18.7028
18.7028
18.7027
18.7027
18.7027
18.7026
18.7026
18.7025
18.7024
18.7023
18.7022
18.7021
18.7019
18.7016
18.7012
18.7007
18.7
18.6991
18.6979
18.6966
19.1078
19.1089
19.1099
19.1107
19.1113
19.1118
19.1121
19.1123
19.1125
19.1126
19.1127
19.1128
19.1129
19.113
19.113
19.1131
19.1131
19.1132
19.1132
19.1132
19.1133
19.1133
19.1133
19.1133
19.1133
19.1134
19.1134
19.1134
19.1134
19.1134
19.1134
19.1134
19.1134
19.1134
19.1134
19.1133
19.1133
19.1133
19.1133
19.1133
19.1132
19.1132
19.1132
19.1131
19.1131
19.113
19.113
19.1129
19.1128
19.1127
19.1126
19.1125
19.1123
19.1121
19.1118
19.1113
19.1107
19.1099
19.1089
19.1078
19.4513
19.4521
19.4529
19.4536
19.4541
19.4544
19.4547
19.4549
19.4551
19.4552
19.4553
19.4554
19.4554
19.4555
19.4555
19.4556
19.4556
19.4557
19.4557
19.4557
19.4558
19.4558
19.4558
19.4558
19.4559
19.4559
19.4559
19.4559
19.4559
19.4559
19.4559
19.4559
19.4559
19.4559
19.4559
19.4559
19.4558
19.4558
19.4558
19.4558
19.4557
19.4557
19.4557
19.4556
19.4556
19.4555
19.4555
19.4554
19.4554
19.4553
19.4552
19.4551
19.4549
19.4547
19.4544
19.4541
19.4536
19.4529
19.4521
19.4513
19.7275
19.7281
19.7287
19.7292
19.7296
19.7299
19.7301
19.7302
19.7304
19.7305
19.7306
19.7306
19.7307
19.7308
19.7308
19.7309
19.7309
19.731
19.731
19.731
19.7311
19.7311
19.7311
19.7311
19.7312
19.7312
19.7312
19.7312
19.7312
19.7312
19.7312
19.7312
19.7312
19.7312
19.7312
19.7312
19.7311
19.7311
19.7311
19.7311
19.731
19.731
19.731
19.7309
19.7309
19.7308
19.7308
19.7307
19.7306
19.7306
19.7305
19.7304
19.7302
19.7301
19.7299
19.7296
19.7292
19.7287
19.7281
19.7275
19.9439
19.9444
19.9448
19.9451
19.9454
19.9457
19.9458
19.946
19.9461
19.9462
19.9463
19.9463
19.9464
19.9464
19.9465
19.9466
19.9466
19.9466
19.9467
19.9467
19.9467
19.9468
19.9468
19.9468
19.9468
19.9469
19.9469
19.9469
19.9469
19.9469
19.9469
19.9469
19.9469
19.9469
19.9469
19.9468
19.9468
19.9468
19.9468
19.9467
19.9467
19.9467
19.9466
19.9466
19.9466
19.9465
19.9464
19.9464
19.9463
19.9463
19.9462
19.9461
19.946
19.9458
19.9457
19.9454
19.9451
19.9448
19.9444
19.9439
20.1128
20.1131
20.1133
20.1136
20.1138
20.114
20.1141
20.1142
20.1143
20.1144
20.1145
20.1146
20.1146
20.1147
20.1148
20.1148
20.1149
20.1149
20.1149
20.115
20.115
20.115
20.1151
20.1151
20.1151
20.1151
20.1151
20.1151
20.1151
20.1151
20.1151
20.1151
20.1151
20.1151
20.1151
20.1151
20.1151
20.1151
20.115
20.115
20.115
20.1149
20.1149
20.1149
20.1148
20.1148
20.1147
20.1146
20.1146
20.1145
20.1144
20.1143
20.1142
20.1141
20.114
20.1138
20.1136
20.1133
20.1131
20.1128
20.2468
20.2469
20.2472
20.2473
20.2475
20.2476
20.2477
20.2478
20.2479
20.248
20.2481
20.2482
20.2482
20.2483
20.2483
20.2484
20.2484
20.2485
20.2485
20.2486
20.2486
20.2486
20.2487
20.2487
20.2487
20.2487
20.2487
20.2487
20.2487
20.2487
20.2487
20.2487
20.2487
20.2487
20.2487
20.2487
20.2487
20.2487
20.2486
20.2486
20.2486
20.2485
20.2485
20.2484
20.2484
20.2483
20.2483
20.2482
20.2482
20.2481
20.248
20.2479
20.2478
20.2477
20.2476
20.2475
20.2473
20.2472
20.2469
20.2468
20.3565
20.3566
20.3568
20.3569
20.357
20.3571
20.3572
20.3573
20.3574
20.3575
20.3576
20.3576
20.3577
20.3577
20.3578
20.3579
20.3579
20.358
20.358
20.358
20.3581
20.3581
20.3581
20.3582
20.3582
20.3582
20.3582
20.3582
20.3582
20.3582
20.3582
20.3582
20.3582
20.3582
20.3582
20.3582
20.3582
20.3581
20.3581
20.3581
20.358
20.358
20.358
20.3579
20.3579
20.3578
20.3577
20.3577
20.3576
20.3576
20.3575
20.3574
20.3573
20.3572
20.3571
20.357
20.3569
20.3568
20.3566
20.3565
20.4496
20.4496
20.4497
20.4498
20.4499
20.45
20.4501
20.4502
20.4503
20.4503
20.4504
20.4505
20.4505
20.4506
20.4507
20.4507
20.4508
20.4508
20.4509
20.4509
20.4509
20.451
20.451
20.451
20.4511
20.4511
20.4511
20.4511
20.4511
20.4511
20.4511
20.4511
20.4511
20.4511
20.4511
20.4511
20.451
20.451
20.451
20.4509
20.4509
20.4509
20.4508
20.4508
20.4507
20.4507
20.4506
20.4505
20.4505
20.4504
20.4503
20.4503
20.4502
20.4501
20.45
20.4499
20.4498
20.4497
20.4496
20.4496
20.5309
20.5309
20.5309
20.531
20.5311
20.5312
20.5313
20.5313
20.5314
20.5315
20.5316
20.5316
20.5317
20.5318
20.5318
20.5319
20.5319
20.532
20.532
20.5321
20.5321
20.5321
20.5322
20.5322
20.5322
20.5322
20.5323
20.5323
20.5323
20.5323
20.5323
20.5323
20.5323
20.5323
20.5322
20.5322
20.5322
20.5322
20.5321
20.5321
20.5321
20.532
20.532
20.5319
20.5319
20.5318
20.5318
20.5317
20.5316
20.5316
20.5315
20.5314
20.5313
20.5313
20.5312
20.5311
20.531
20.5309
20.5309
20.5309
20.6035
20.6035
20.6036
20.6036
20.6037
20.6038
20.6038
20.6039
20.604
20.6041
20.6041
20.6042
20.6043
20.6043
20.6044
20.6045
20.6045
20.6046
20.6046
20.6047
20.6047
20.6048
20.6048
20.6048
20.6048
20.6049
20.6049
20.6049
20.6049
20.6049
20.6049
20.6049
20.6049
20.6049
20.6049
20.6048
20.6048
20.6048
20.6048
20.6047
20.6047
20.6046
20.6046
20.6045
20.6045
20.6044
20.6043
20.6043
20.6042
20.6041
20.6041
20.604
20.6039
20.6038
20.6038
20.6037
20.6036
20.6036
20.6035
20.6035
20.6697
20.6696
20.6697
20.6697
20.6698
20.6698
20.6699
20.67
20.6701
20.6701
20.6702
20.6703
20.6704
20.6704
20.6705
20.6705
20.6706
20.6707
20.6707
20.6708
20.6708
20.6708
20.6709
20.6709
20.6709
20.6709
20.671
20.671
20.671
20.671
20.671
20.671
20.671
20.671
20.6709
20.6709
20.6709
20.6709
20.6708
20.6708
20.6708
20.6707
20.6707
20.6706
20.6705
20.6705
20.6704
20.6704
20.6703
20.6702
20.6701
20.6701
20.67
20.6699
20.6698
20.6698
20.6697
20.6697
20.6696
20.6697
20.7306
20.7306
20.7306
20.7307
20.7307
20.7308
20.7308
20.7309
20.731
20.7311
20.7311
20.7312
20.7313
20.7314
20.7314
20.7315
20.7316
20.7316
20.7317
20.7317
20.7318
20.7318
20.7318
20.7319
20.7319
20.7319
20.7319
20.7319
20.7319
20.7319
20.7319
20.7319
20.7319
20.7319
20.7319
20.7319
20.7319
20.7318
20.7318
20.7318
20.7317
20.7317
20.7316
20.7316
20.7315
20.7314
20.7314
20.7313
20.7312
20.7311
20.7311
20.731
20.7309
20.7308
20.7308
20.7307
20.7307
20.7306
20.7306
20.7306
20.7875
20.7874
20.7874
20.7875
20.7875
20.7876
20.7876
20.7877
20.7878
20.7879
20.7879
20.788
20.7881
20.7882
20.7882
20.7883
20.7884
20.7884
20.7885
20.7885
20.7886
20.7886
20.7886
20.7887
20.7887
20.7887
20.7887
20.7888
20.7888
20.7888
20.7888
20.7888
20.7888
20.7887
20.7887
20.7887
20.7887
20.7886
20.7886
20.7886
20.7885
20.7885
20.7884
20.7884
20.7883
20.7882
20.7882
20.7881
20.788
20.7879
20.7879
20.7878
20.7877
20.7876
20.7876
20.7875
20.7875
20.7874
20.7874
20.7875
20.8409
20.8409
20.8409
20.8409
20.8409
20.841
20.841
20.8411
20.8412
20.8413
20.8413
20.8414
20.8415
20.8416
20.8416
20.8417
20.8418
20.8418
20.8419
20.8419
20.842
20.842
20.8421
20.8421
20.8421
20.8422
20.8422
20.8422
20.8422
20.8422
20.8422
20.8422
20.8422
20.8422
20.8422
20.8421
20.8421
20.8421
20.842
20.842
20.8419
20.8419
20.8418
20.8418
20.8417
20.8416
20.8416
20.8415
20.8414
20.8413
20.8413
20.8412
20.8411
20.841
20.841
20.8409
20.8409
20.8409
20.8409
20.8409
20.8915
20.8914
20.8914
20.8914
20.8915
20.8915
20.8916
20.8917
20.8917
20.8918
20.8919
20.892
20.8921
20.8921
20.8922
20.8923
20.8923
20.8924
20.8925
20.8925
20.8926
20.8926
20.8927
20.8927
20.8927
20.8927
20.8928
20.8928
20.8928
20.8928
20.8928
20.8928
20.8928
20.8928
20.8927
20.8927
20.8927
20.8927
20.8926
20.8926
20.8925
20.8925
20.8924
20.8923
20.8923
20.8922
20.8921
20.8921
20.892
20.8919
20.8918
20.8917
20.8917
20.8916
20.8915
20.8915
20.8914
20.8914
20.8914
20.8915
20.9396
20.9396
20.9396
20.9396
20.9396
20.9397
20.9398
20.9398
20.9399
20.94
20.9401
20.9402
20.9402
20.9403
20.9404
20.9405
20.9405
20.9406
20.9407
20.9407
20.9408
20.9408
20.9409
20.9409
20.9409
20.9409
20.941
20.941
20.941
20.941
20.941
20.941
20.941
20.941
20.9409
20.9409
20.9409
20.9409
20.9408
20.9408
20.9407
20.9407
20.9406
20.9405
20.9405
20.9404
20.9403
20.9402
20.9402
20.9401
20.94
20.9399
20.9398
20.9398
20.9397
20.9396
20.9396
20.9396
20.9396
20.9396
20.9858
20.9858
20.9857
20.9857
20.9858
20.9858
20.9859
20.986
20.986
20.9861
20.9862
20.9863
20.9864
20.9865
20.9865
20.9866
20.9867
20.9868
20.9868
20.9869
20.9869
20.987
20.987
20.9871
20.9871
20.9871
20.9871
20.9872
20.9872
20.9872
20.9872
20.9872
20.9872
20.9871
20.9871
20.9871
20.9871
20.987
20.987
20.9869
20.9869
20.9868
20.9868
20.9867
20.9866
20.9865
20.9865
20.9864
20.9863
20.9862
20.9861
20.986
20.986
20.9859
20.9858
20.9858
20.9857
20.9857
20.9858
20.9858
21.0302
21.0301
21.0301
21.0301
21.0302
21.0302
21.0303
21.0303
21.0304
21.0305
21.0306
21.0307
21.0308
21.0309
21.0309
21.031
21.0311
21.0312
21.0312
21.0313
21.0313
21.0314
21.0314
21.0315
21.0315
21.0315
21.0316
21.0316
21.0316
21.0316
21.0316
21.0316
21.0316
21.0316
21.0315
21.0315
21.0315
21.0314
21.0314
21.0313
21.0313
21.0312
21.0312
21.0311
21.031
21.0309
21.0309
21.0308
21.0307
21.0306
21.0305
21.0304
21.0303
21.0303
21.0302
21.0302
21.0301
21.0301
21.0301
21.0302
21.0731
21.073
21.073
21.073
21.0731
21.0731
21.0732
21.0732
21.0733
21.0734
21.0735
21.0736
21.0737
21.0738
21.0738
21.0739
21.074
21.0741
21.0741
21.0742
21.0743
21.0743
21.0744
21.0744
21.0744
21.0745
21.0745
21.0745
21.0745
21.0745
21.0745
21.0745
21.0745
21.0745
21.0745
21.0744
21.0744
21.0744
21.0743
21.0743
21.0742
21.0741
21.0741
21.074
21.0739
21.0738
21.0738
21.0737
21.0736
21.0735
21.0734
21.0733
21.0732
21.0732
21.0731
21.0731
21.073
21.073
21.073
21.0731
21.1147
21.1146
21.1146
21.1146
21.1146
21.1147
21.1148
21.1148
21.1149
21.115
21.1151
21.1152
21.1153
21.1154
21.1155
21.1155
21.1156
21.1157
21.1158
21.1158
21.1159
21.1159
21.116
21.116
21.1161
21.1161
21.1161
21.1161
21.1162
21.1162
21.1162
21.1162
21.1161
21.1161
21.1161
21.1161
21.116
21.116
21.1159
21.1159
21.1158
21.1158
21.1157
21.1156
21.1155
21.1155
21.1154
21.1153
21.1152
21.1151
21.115
21.1149
21.1148
21.1148
21.1147
21.1146
21.1146
21.1146
21.1146
21.1147
21.1551
21.1551
21.1551
21.1551
21.1551
21.1552
21.1552
21.1553
21.1554
21.1555
21.1556
21.1557
21.1558
21.1559
21.1559
21.156
21.1561
21.1562
21.1563
21.1563
21.1564
21.1565
21.1565
21.1565
21.1566
21.1566
21.1566
21.1567
21.1567
21.1567
21.1567
21.1567
21.1567
21.1566
21.1566
21.1566
21.1565
21.1565
21.1565
21.1564
21.1563
21.1563
21.1562
21.1561
21.156
21.1559
21.1559
21.1558
21.1557
21.1556
21.1555
21.1554
21.1553
21.1552
21.1552
21.1551
21.1551
21.1551
21.1551
21.1551
21.1946
21.1946
21.1946
21.1946
21.1946
21.1946
21.1947
21.1948
21.1949
21.195
21.1951
21.1952
21.1953
21.1954
21.1955
21.1955
21.1956
21.1957
21.1958
21.1959
21.1959
21.196
21.196
21.1961
21.1961
21.1961
21.1962
21.1962
21.1962
21.1962
21.1962
21.1962
21.1962
21.1962
21.1961
21.1961
21.1961
21.196
21.196
21.1959
21.1959
21.1958
21.1957
21.1956
21.1955
21.1955
21.1954
21.1953
21.1952
21.1951
21.195
21.1949
21.1948
21.1947
21.1946
21.1946
21.1946
21.1946
21.1946
21.1946
21.2332
21.2332
21.2332
21.2332
21.2332
21.2333
21.2334
21.2334
21.2335
21.2336
21.2337
21.2338
21.2339
21.234
21.2341
21.2342
21.2343
21.2344
21.2345
21.2345
21.2346
21.2347
21.2347
21.2348
21.2348
21.2348
21.2349
21.2349
21.2349
21.2349
21.2349
21.2349
21.2349
21.2349
21.2348
21.2348
21.2348
21.2347
21.2347
21.2346
21.2345
21.2345
21.2344
21.2343
21.2342
21.2341
21.234
21.2339
21.2338
21.2337
21.2336
21.2335
21.2334
21.2334
21.2333
21.2332
21.2332
21.2332
21.2332
21.2332
21.2712
21.2711
21.2711
21.2711
21.2711
21.2712
21.2713
21.2713
21.2714
21.2715
21.2716
21.2717
21.2719
21.272
21.2721
21.2722
21.2722
21.2723
21.2724
21.2725
21.2726
21.2726
21.2727
21.2727
21.2728
21.2728
21.2728
21.2729
21.2729
21.2729
21.2729
21.2729
21.2729
21.2728
21.2728
21.2728
21.2727
21.2727
21.2726
21.2726
21.2725
21.2724
21.2723
21.2722
21.2722
21.2721
21.272
21.2719
21.2717
21.2716
21.2715
21.2714
21.2713
21.2713
21.2712
21.2711
21.2711
21.2711
21.2711
21.2712
21.3084
21.3084
21.3084
21.3084
21.3084
21.3085
21.3085
21.3086
21.3087
21.3088
21.3089
21.309
21.3091
21.3093
21.3094
21.3095
21.3096
21.3097
21.3097
21.3098
21.3099
21.31
21.31
21.3101
21.3101
21.3101
21.3102
21.3102
21.3102
21.3102
21.3102
21.3102
21.3102
21.3102
21.3101
21.3101
21.3101
21.31
21.31
21.3099
21.3098
21.3097
21.3097
21.3096
21.3095
21.3094
21.3093
21.3091
21.309
21.3089
21.3088
21.3087
21.3086
21.3085
21.3085
21.3084
21.3084
21.3084
21.3084
21.3084
21.3451
21.3451
21.3451
21.3451
21.3452
21.3452
21.3453
21.3454
21.3455
21.3456
21.3457
21.3458
21.3459
21.346
21.3461
21.3462
21.3463
21.3464
21.3465
21.3466
21.3467
21.3467
21.3468
21.3468
21.3469
21.3469
21.347
21.347
21.347
21.347
21.347
21.347
21.347
21.347
21.3469
21.3469
21.3468
21.3468
21.3467
21.3467
21.3466
21.3465
21.3464
21.3463
21.3462
21.3461
21.346
21.3459
21.3458
21.3457
21.3456
21.3455
21.3454
21.3453
21.3452
21.3452
21.3451
21.3451
21.3451
21.3451
21.3814
21.3814
21.3814
21.3814
21.3814
21.3815
21.3815
21.3816
21.3817
21.3818
21.382
21.3821
21.3822
21.3823
21.3824
21.3825
21.3826
21.3827
21.3828
21.3829
21.383
21.3831
21.3831
21.3832
21.3832
21.3833
21.3833
21.3833
21.3833
21.3833
21.3833
21.3833
21.3833
21.3833
21.3833
21.3832
21.3832
21.3831
21.3831
21.383
21.3829
21.3828
21.3827
21.3826
21.3825
21.3824
21.3823
21.3822
21.3821
21.382
21.3818
21.3817
21.3816
21.3815
21.3815
21.3814
21.3814
21.3814
21.3814
21.3814
21.4173
21.4173
21.4173
21.4173
21.4173
21.4174
21.4174
21.4175
21.4176
21.4177
21.4179
21.418
21.4181
21.4182
21.4183
21.4184
21.4186
21.4187
21.4187
21.4188
21.4189
21.419
21.4191
21.4191
21.4192
21.4192
21.4192
21.4193
21.4193
21.4193
21.4193
21.4193
21.4193
21.4192
21.4192
21.4192
21.4191
21.4191
21.419
21.4189
21.4188
21.4187
21.4187
21.4186
21.4184
21.4183
21.4182
21.4181
21.418
21.4179
21.4177
21.4176
21.4175
21.4174
21.4174
21.4173
21.4173
21.4173
21.4173
21.4173
21.4528
21.4528
21.4528
21.4528
21.4528
21.4529
21.453
21.4531
21.4532
21.4533
21.4534
21.4535
21.4537
21.4538
21.4539
21.454
21.4541
21.4543
21.4543
21.4544
21.4545
21.4546
21.4547
21.4547
21.4548
21.4548
21.4548
21.4549
21.4549
21.4549
21.4549
21.4549
21.4549
21.4548
21.4548
21.4548
21.4547
21.4547
21.4546
21.4545
21.4544
21.4543
21.4543
21.4541
21.454
21.4539
21.4538
21.4537
21.4535
21.4534
21.4533
21.4532
21.4531
21.453
21.4529
21.4528
21.4528
21.4528
21.4528
21.4528
21.4881
21.4881
21.4881
21.4881
21.4881
21.4882
21.4883
21.4884
21.4885
21.4886
21.4887
21.4889
21.489
21.4891
21.4892
21.4894
21.4895
21.4896
21.4897
21.4898
21.4899
21.4899
21.49
21.4901
21.4901
21.4902
21.4902
21.4902
21.4902
21.4902
21.4902
21.4902
21.4902
21.4902
21.4902
21.4901
21.4901
21.49
21.4899
21.4899
21.4898
21.4897
21.4896
21.4895
21.4894
21.4892
21.4891
21.489
21.4889
21.4887
21.4886
21.4885
21.4884
21.4883
21.4882
21.4881
21.4881
21.4881
21.4881
21.4881
21.5232
21.5231
21.5231
21.5232
21.5232
21.5233
21.5233
21.5234
21.5236
21.5237
21.5238
21.524
21.5241
21.5242
21.5243
21.5245
21.5246
21.5247
21.5248
21.5249
21.525
21.5251
21.5251
21.5252
21.5253
21.5253
21.5253
21.5254
21.5254
21.5254
21.5254
21.5254
21.5254
21.5253
21.5253
21.5253
21.5252
21.5251
21.5251
21.525
21.5249
21.5248
21.5247
21.5246
21.5245
21.5243
21.5242
21.5241
21.524
21.5238
21.5237
21.5236
21.5234
21.5233
21.5233
21.5232
21.5232
21.5231
21.5231
21.5232
21.5581
21.558
21.558
21.5581
21.5581
21.5582
21.5583
21.5584
21.5585
21.5586
21.5588
21.5589
21.559
21.5592
21.5593
21.5594
21.5596
21.5597
21.5598
21.5599
21.56
21.5601
21.5601
21.5602
21.5603
21.5603
21.5603
21.5604
21.5604
21.5604
21.5604
21.5604
21.5604
21.5603
21.5603
21.5603
21.5602
21.5601
21.5601
21.56
21.5599
21.5598
21.5597
21.5596
21.5594
21.5593
21.5592
21.559
21.5589
21.5588
21.5586
21.5585
21.5584
21.5583
21.5582
21.5581
21.5581
21.558
21.558
21.5581
21.5928
21.5928
21.5928
21.5929
21.5929
21.593
21.5931
21.5932
21.5933
21.5934
21.5936
21.5937
21.5939
21.594
21.5941
21.5943
21.5944
21.5945
21.5946
21.5947
21.5948
21.5949
21.595
21.5951
21.5951
21.5952
21.5952
21.5952
21.5953
21.5953