/*--------------------------------*- C++ -*----------------------------------*\
| =========                 |                                                 |
| \\      /  F ield         | foam-extend: Open Source CFD                    |
|  \\    /   O peration     | Version:     4.0                                |
|   \\  /    A nd           | Web:         http://www.foam-extend.org         |
|    \\/     M anipulation  |                                                 |
\*---------------------------------------------------------------------------*/
FoamFile
{
    version     2.0;
    format      ascii;
    class       volScalarField;
    location    "1810";
    object      psiE;
}
// * * * * * * * * * * * * * * * * * * * * * * * * * * * * * * * * * * * * * //

dimensions      [0 0 0 0 0 0 0];

internalField   nonuniform List<scalar> 
6960
(
0.324524
0.324525
0.324526
0.324527
0.324528
0.324529
0.32453
0.324531
0.324531
0.324532
0.324533
0.324534
0.324534
0.324535
0.324536
0.324536
0.324537
0.324537
0.324538
0.324538
0.324539
0.324539
0.324539
0.32454
0.32454
0.32454
0.32454
0.32454
0.32454
0.32454
0.32454
0.32454
0.32454
0.32454
0.32454
0.32454
0.32454
0.324539
0.324539
0.324539
0.324538
0.324538
0.324537
0.324537
0.324536
0.324536
0.324535
0.324534
0.324534
0.324533
0.324532
0.324531
0.324531
0.32453
0.324529
0.324528
0.324527
0.324526
0.324525
0.324524
0.793597
0.7936
0.793603
0.793607
0.793611
0.793614
0.793618
0.793622
0.793625
0.793628
0.793631
0.793634
0.793637
0.79364
0.793642
0.793644
0.793646
0.793648
0.79365
0.793652
0.793653
0.793655
0.793656
0.793657
0.793658
0.793658
0.793659
0.793659
0.79366
0.79366
0.79366
0.79366
0.793659
0.793659
0.793658
0.793658
0.793657
0.793656
0.793655
0.793653
0.793652
0.79365
0.793648
0.793646
0.793644
0.793642
0.79364
0.793637
0.793634
0.793631
0.793628
0.793625
0.793622
0.793618
0.793614
0.793611
0.793607
0.793603
0.7936
0.793597
1.2037
1.2037
1.20371
1.20372
1.20372
1.20373
1.20374
1.20375
1.20375
1.20376
1.20377
1.20377
1.20378
1.20378
1.20379
1.20379
1.2038
1.2038
1.2038
1.20381
1.20381
1.20381
1.20381
1.20382
1.20382
1.20382
1.20382
1.20382
1.20382
1.20382
1.20382
1.20382
1.20382
1.20382
1.20382
1.20382
1.20382
1.20381
1.20381
1.20381
1.20381
1.2038
1.2038
1.2038
1.20379
1.20379
1.20378
1.20378
1.20377
1.20377
1.20376
1.20375
1.20375
1.20374
1.20373
1.20372
1.20372
1.20371
1.2037
1.2037
1.59281
1.59282
1.59283
1.59284
1.59285
1.59287
1.59288
1.59289
1.5929
1.59291
1.59292
1.59293
1.59294
1.59294
1.59295
1.59296
1.59297
1.59297
1.59298
1.59298
1.59299
1.59299
1.59299
1.593
1.593
1.593
1.593
1.59301
1.59301
1.59301
1.59301
1.59301
1.59301
1.593
1.593
1.593
1.593
1.59299
1.59299
1.59299
1.59298
1.59298
1.59297
1.59297
1.59296
1.59295
1.59294
1.59294
1.59293
1.59292
1.59291
1.5929
1.59289
1.59288
1.59287
1.59285
1.59284
1.59283
1.59282
1.59281
1.97696
1.97697
1.97698
1.977
1.97702
1.97703
1.97705
1.97706
1.97708
1.97709
1.97711
1.97712
1.97713
1.97714
1.97715
1.97716
1.97717
1.97718
1.97719
1.9772
1.9772
1.97721
1.97721
1.97722
1.97722
1.97723
1.97723
1.97723
1.97723
1.97723
1.97723
1.97723
1.97723
1.97723
1.97723
1.97722
1.97722
1.97721
1.97721
1.9772
1.9772
1.97719
1.97718
1.97717
1.97716
1.97715
1.97714
1.97713
1.97712
1.97711
1.97709
1.97708
1.97706
1.97705
1.97703
1.97702
1.977
1.97698
1.97697
1.97696
2.3635
2.36351
2.36353
2.36356
2.36358
2.3636
2.36362
2.36364
2.36366
2.36368
2.3637
2.36371
2.36373
2.36374
2.36376
2.36377
2.36378
2.36379
2.3638
2.36381
2.36382
2.36383
2.36384
2.36384
2.36385
2.36385
2.36385
2.36386
2.36386
2.36386
2.36386
2.36386
2.36386
2.36385
2.36385
2.36385
2.36384
2.36384
2.36383
2.36382
2.36381
2.3638
2.36379
2.36378
2.36377
2.36376
2.36374
2.36373
2.36371
2.3637
2.36368
2.36366
2.36364
2.36362
2.3636
2.36358
2.36356
2.36353
2.36351
2.3635
2.75594
2.75596
2.75599
2.75601
2.75604
2.75607
2.75609
2.75612
2.75614
2.75617
2.75619
2.75621
2.75623
2.75625
2.75627
2.75628
2.7563
2.75631
2.75632
2.75634
2.75635
2.75636
2.75636
2.75637
2.75638
2.75638
2.75639
2.75639
2.75639
2.75639
2.75639
2.75639
2.75639
2.75639
2.75638
2.75638
2.75637
2.75636
2.75636
2.75635
2.75634
2.75632
2.75631
2.7563
2.75628
2.75627
2.75625
2.75623
2.75621
2.75619
2.75617
2.75614
2.75612
2.75609
2.75607
2.75604
2.75601
2.75599
2.75596
2.75594
3.15597
3.156
3.15603
3.15606
3.1561
3.15613
3.15616
3.15619
3.15622
3.15625
3.15628
3.1563
3.15632
3.15635
3.15637
3.15639
3.15641
3.15642
3.15644
3.15645
3.15646
3.15647
3.15648
3.15649
3.1565
3.15651
3.15651
3.15651
3.15652
3.15652
3.15652
3.15652
3.15651
3.15651
3.15651
3.1565
3.15649
3.15648
3.15647
3.15646
3.15645
3.15644
3.15642
3.15641
3.15639
3.15637
3.15635
3.15632
3.1563
3.15628
3.15625
3.15622
3.15619
3.15616
3.15613
3.1561
3.15606
3.15603
3.156
3.15597
3.56442
3.56445
3.56449
3.56452
3.56456
3.5646
3.56464
3.56468
3.56471
3.56474
3.56478
3.56481
3.56483
3.56486
3.56488
3.56491
3.56493
3.56495
3.56496
3.56498
3.565
3.56501
3.56502
3.56503
3.56504
3.56505
3.56505
3.56506
3.56506
3.56506
3.56506
3.56506
3.56506
3.56505
3.56505
3.56504
3.56503
3.56502
3.56501
3.565
3.56498
3.56496
3.56495
3.56493
3.56491
3.56488
3.56486
3.56483
3.56481
3.56478
3.56474
3.56471
3.56468
3.56464
3.5646
3.56456
3.56452
3.56449
3.56445
3.56442
3.98169
3.98172
3.98176
3.98181
3.98185
3.9819
3.98194
3.98198
3.98202
3.98206
3.9821
3.98213
3.98216
3.98219
3.98222
3.98225
3.98227
3.98229
3.98232
3.98233
3.98235
3.98237
3.98238
3.98239
3.9824
3.98241
3.98242
3.98242
3.98242
3.98243
3.98243
3.98242
3.98242
3.98242
3.98241
3.9824
3.98239
3.98238
3.98237
3.98235
3.98233
3.98232
3.98229
3.98227
3.98225
3.98222
3.98219
3.98216
3.98213
3.9821
3.98206
3.98202
3.98198
3.98194
3.9819
3.98185
3.98181
3.98176
3.98172
3.98169
4.40799
4.40802
4.40807
4.40812
4.40817
4.40822
4.40827
4.40832
4.40836
4.40841
4.40845
4.40849
4.40852
4.40856
4.40859
4.40862
4.40865
4.40867
4.40869
4.40872
4.40873
4.40875
4.40877
4.40878
4.40879
4.4088
4.40881
4.40881
4.40882
4.40882
4.40882
4.40882
4.40881
4.40881
4.4088
4.40879
4.40878
4.40877
4.40875
4.40873
4.40872
4.40869
4.40867
4.40865
4.40862
4.40859
4.40856
4.40852
4.40849
4.40845
4.40841
4.40836
4.40832
4.40827
4.40822
4.40817
4.40812
4.40807
4.40802
4.40799
4.84342
4.84346
4.84351
4.84357
4.84362
4.84368
4.84374
4.84379
4.84384
4.84389
4.84393
4.84398
4.84402
4.84406
4.84409
4.84412
4.84416
4.84418
4.84421
4.84423
4.84425
4.84427
4.84429
4.84431
4.84432
4.84433
4.84434
4.84434
4.84435
4.84435
4.84435
4.84435
4.84434
4.84434
4.84433
4.84432
4.84431
4.84429
4.84427
4.84425
4.84423
4.84421
4.84418
4.84416
4.84412
4.84409
4.84406
4.84402
4.84398
4.84393
4.84389
4.84384
4.84379
4.84374
4.84368
4.84362
4.84357
4.84351
4.84346
4.84342
5.28804
5.28808
5.28814
5.2882
5.28827
5.28833
5.28839
5.28845
5.2885
5.28856
5.28861
5.28866
5.2887
5.28874
5.28878
5.28882
5.28885
5.28889
5.28891
5.28894
5.28896
5.28899
5.289
5.28902
5.28903
5.28905
5.28905
5.28906
5.28907
5.28907
5.28907
5.28907
5.28906
5.28905
5.28905
5.28903
5.28902
5.289
5.28899
5.28896
5.28894
5.28891
5.28889
5.28885
5.28882
5.28878
5.28874
5.2887
5.28866
5.28861
5.28856
5.2885
5.28845
5.28839
5.28833
5.28827
5.2882
5.28814
5.28808
5.28804
5.74186
5.74191
5.74197
5.74204
5.74211
5.74218
5.74225
5.74231
5.74238
5.74243
5.74249
5.74254
5.74259
5.74264
5.74268
5.74272
5.74276
5.74279
5.74282
5.74285
5.74288
5.7429
5.74292
5.74294
5.74296
5.74297
5.74298
5.74299
5.74299
5.74299
5.74299
5.74299
5.74299
5.74298
5.74297
5.74296
5.74294
5.74292
5.7429
5.74288
5.74285
5.74282
5.74279
5.74276
5.74272
5.74268
5.74264
5.74259
5.74254
5.74249
5.74243
5.74238
5.74231
5.74225
5.74218
5.74211
5.74204
5.74197
5.74191
5.74186
6.20489
6.20494
6.20501
6.20508
6.20516
6.20523
6.20531
6.20538
6.20544
6.20551
6.20557
6.20562
6.20568
6.20573
6.20578
6.20582
6.20586
6.2059
6.20593
6.20596
6.20599
6.20602
6.20604
6.20606
6.20608
6.20609
6.2061
6.20611
6.20611
6.20612
6.20612
6.20611
6.20611
6.2061
6.20609
6.20608
6.20606
6.20604
6.20602
6.20599
6.20596
6.20593
6.2059
6.20586
6.20582
6.20578
6.20573
6.20568
6.20562
6.20557
6.20551
6.20544
6.20538
6.20531
6.20523
6.20516
6.20508
6.20501
6.20494
6.20489
6.67707
6.67712
6.6772
6.67728
6.67736
6.67744
6.67752
6.6776
6.67767
6.67774
6.67781
6.67787
6.67793
6.67798
6.67803
6.67808
6.67812
6.67816
6.6782
6.67824
6.67827
6.67829
6.67832
6.67834
6.67836
6.67837
6.67838
6.67839
6.6784
6.6784
6.6784
6.6784
6.67839
6.67838
6.67837
6.67836
6.67834
6.67832
6.67829
6.67827
6.67824
6.6782
6.67816
6.67812
6.67808
6.67803
6.67798
6.67793
6.67787
6.67781
6.67774
6.67767
6.6776
6.67752
6.67744
6.67736
6.67728
6.6772
6.67712
6.67707
7.15835
7.15841
7.15849
7.15858
7.15866
7.15875
7.15884
7.15892
7.159
7.15907
7.15914
7.15921
7.15927
7.15933
7.15939
7.15944
7.15948
7.15953
7.15957
7.15961
7.15964
7.15967
7.15969
7.15972
7.15974
7.15975
7.15976
7.15977
7.15978
7.15978
7.15978
7.15978
7.15977
7.15976
7.15975
7.15974
7.15972
7.15969
7.15967
7.15964
7.15961
7.15957
7.15953
7.15948
7.15944
7.15939
7.15933
7.15927
7.15921
7.15914
7.15907
7.159
7.15892
7.15884
7.15875
7.15866
7.15858
7.15849
7.15841
7.15835
7.64863
7.6487
7.64878
7.64888
7.64897
7.64907
7.64916
7.64925
7.64933
7.64941
7.64949
7.64956
7.64962
7.64969
7.64975
7.6498
7.64985
7.6499
7.64994
7.64998
7.65002
7.65005
7.65008
7.6501
7.65012
7.65014
7.65015
7.65016
7.65017
7.65017
7.65017
7.65017
7.65016
7.65015
7.65014
7.65012
7.6501
7.65008
7.65005
7.65002
7.64998
7.64994
7.6499
7.64985
7.6498
7.64975
7.64969
7.64962
7.64956
7.64949
7.64941
7.64933
7.64925
7.64916
7.64907
7.64897
7.64888
7.64878
7.6487
7.64863
8.1478
8.14787
8.14796
8.14806
8.14817
8.14827
8.14836
8.14846
8.14855
8.14863
8.14871
8.14879
8.14886
8.14893
8.14899
8.14905
8.1491
8.14915
8.1492
8.14924
8.14928
8.14931
8.14934
8.14937
8.14939
8.14941
8.14942
8.14943
8.14944
8.14944
8.14944
8.14944
8.14943
8.14942
8.14941
8.14939
8.14937
8.14934
8.14931
8.14928
8.14924
8.1492
8.14915
8.1491
8.14905
8.14899
8.14893
8.14886
8.14879
8.14871
8.14863
8.14855
8.14846
8.14836
8.14827
8.14817
8.14806
8.14796
8.14787
8.1478
8.65569
8.65577
8.65586
8.65597
8.65608
8.65619
8.65629
8.65639
8.65648
8.65657
8.65666
8.65674
8.65682
8.65689
8.65695
8.65702
8.65707
8.65713
8.65718
8.65722
8.65726
8.6573
8.65733
8.65736
8.65738
8.6574
8.65741
8.65743
8.65743
8.65744
8.65744
8.65743
8.65743
8.65741
8.6574
8.65738
8.65736
8.65733
8.6573
8.65726
8.65722
8.65718
8.65713
8.65707
8.65702
8.65695
8.65689
8.65682
8.65674
8.65666
8.65657
8.65648
8.65639
8.65629
8.65619
8.65608
8.65597
8.65586
8.65577
8.65569
9.17211
9.17218
9.17229
9.1724
9.17251
9.17263
9.17274
9.17284
9.17294
9.17304
9.17313
9.17321
9.17329
9.17337
9.17344
9.17351
9.17357
9.17362
9.17368
9.17372
9.17377
9.1738
9.17384
9.17387
9.17389
9.17391
9.17393
9.17394
9.17395
9.17395
9.17395
9.17395
9.17394
9.17393
9.17391
9.17389
9.17387
9.17384
9.1738
9.17377
9.17372
9.17368
9.17362
9.17357
9.17351
9.17344
9.17337
9.17329
9.17321
9.17313
9.17304
9.17294
9.17284
9.17274
9.17263
9.17251
9.1724
9.17229
9.17218
9.17211
9.6968
9.69688
9.69699
9.6971
9.69723
9.69734
9.69746
9.69757
9.69768
9.69778
9.69787
9.69796
9.69805
9.69813
9.6982
9.69827
9.69834
9.6984
9.69845
9.6985
9.69855
9.69859
9.69862
9.69865
9.69868
9.6987
9.69872
9.69873
9.69874
9.69874
9.69874
9.69874
9.69873
9.69872
9.6987
9.69868
9.69865
9.69862
9.69859
9.69855
9.6985
9.69845
9.6984
9.69834
9.69827
9.6982
9.69813
9.69805
9.69796
9.69787
9.69778
9.69768
9.69757
9.69746
9.69734
9.69723
9.6971
9.69699
9.69688
9.6968
10.2295
10.2296
10.2297
10.2298
10.2299
10.23
10.2302
10.2303
10.2304
10.2305
10.2306
10.2307
10.2308
10.2309
10.2309
10.231
10.2311
10.2311
10.2312
10.2313
10.2313
10.2313
10.2314
10.2314
10.2314
10.2315
10.2315
10.2315
10.2315
10.2315
10.2315
10.2315
10.2315
10.2315
10.2315
10.2314
10.2314
10.2314
10.2313
10.2313
10.2313
10.2312
10.2311
10.2311
10.231
10.2309
10.2309
10.2308
10.2307
10.2306
10.2305
10.2304
10.2303
10.2302
10.23
10.2299
10.2298
10.2297
10.2296
10.2295
10.7698
10.7699
10.77
10.7701
10.7702
10.7704
10.7705
10.7706
10.7707
10.7708
10.771
10.7711
10.7711
10.7712
10.7713
10.7714
10.7715
10.7715
10.7716
10.7716
10.7717
10.7717
10.7718
10.7718
10.7718
10.7719
10.7719
10.7719
10.7719
10.7719
10.7719
10.7719
10.7719
10.7719
10.7719
10.7718
10.7718
10.7718
10.7717
10.7717
10.7716
10.7716
10.7715
10.7715
10.7714
10.7713
10.7712
10.7711
10.7711
10.771
10.7708
10.7707
10.7706
10.7705
10.7704
10.7702
10.7701
10.77
10.7699
10.7698
11.3173
11.3174
11.3175
11.3176
11.3178
11.3179
11.318
11.3182
11.3183
11.3184
11.3185
11.3186
11.3187
11.3188
11.3189
11.319
11.3191
11.3191
11.3192
11.3192
11.3193
11.3193
11.3194
11.3194
11.3194
11.3195
11.3195
11.3195
11.3195
11.3195
11.3195
11.3195
11.3195
11.3195
11.3195
11.3194
11.3194
11.3194
11.3193
11.3193
11.3192
11.3192
11.3191
11.3191
11.319
11.3189
11.3188
11.3187
11.3186
11.3185
11.3184
11.3183
11.3182
11.318
11.3179
11.3178
11.3176
11.3175
11.3174
11.3173
11.8715
11.8716
11.8717
11.8719
11.872
11.8722
11.8723
11.8724
11.8726
11.8727
11.8728
11.8729
11.873
11.8731
11.8732
11.8733
11.8734
11.8734
11.8735
11.8736
11.8736
11.8737
11.8737
11.8737
11.8738
11.8738
11.8738
11.8738
11.8738
11.8739
11.8739
11.8738
11.8738
11.8738
11.8738
11.8738
11.8737
11.8737
11.8737
11.8736
11.8736
11.8735
11.8734
11.8734
11.8733
11.8732
11.8731
11.873
11.8729
11.8728
11.8727
11.8726
11.8724
11.8723
11.8722
11.872
11.8719
11.8717
11.8716
11.8715
12.4319
12.432
12.4322
12.4323
12.4324
12.4326
12.4327
12.4329
12.433
12.4331
12.4333
12.4334
12.4335
12.4336
12.4337
12.4338
12.4338
12.4339
12.434
12.434
12.4341
12.4341
12.4342
12.4342
12.4343
12.4343
12.4343
12.4343
12.4343
12.4343
12.4343
12.4343
12.4343
12.4343
12.4343
12.4343
12.4342
12.4342
12.4341
12.4341
12.434
12.434
12.4339
12.4338
12.4338
12.4337
12.4336
12.4335
12.4334
12.4333
12.4331
12.433
12.4329
12.4327
12.4326
12.4324
12.4323
12.4322
12.432
12.4319
12.9978
12.9979
12.9981
12.9982
12.9984
12.9985
12.9987
12.9988
12.9989
12.9991
12.9992
12.9993
12.9994
12.9995
12.9996
12.9997
12.9998
12.9999
13
13
13.0001
13.0001
13.0002
13.0002
13.0002
13.0003
13.0003
13.0003
13.0003
13.0003
13.0003
13.0003
13.0003
13.0003
13.0003
13.0002
13.0002
13.0002
13.0001
13.0001
13
13
12.9999
12.9998
12.9997
12.9996
12.9995
12.9994
12.9993
12.9992
12.9991
12.9989
12.9988
12.9987
12.9985
12.9984
12.9982
12.9981
12.9979
12.9978
13.5685
13.5686
13.5687
13.5689
13.569
13.5692
13.5693
13.5695
13.5696
13.5698
13.5699
13.57
13.5701
13.5702
13.5703
13.5704
13.5705
13.5706
13.5707
13.5707
13.5708
13.5708
13.5709
13.5709
13.571
13.571
13.571
13.571
13.5711
13.5711
13.5711
13.5711
13.571
13.571
13.571
13.571
13.5709
13.5709
13.5708
13.5708
13.5707
13.5707
13.5706
13.5705
13.5704
13.5703
13.5702
13.5701
13.57
13.5699
13.5698
13.5696
13.5695
13.5693
13.5692
13.569
13.5689
13.5687
13.5686
13.5685
14.143
14.1431
14.1432
14.1434
14.1436
14.1437
14.1439
14.144
14.1442
14.1443
14.1444
14.1446
14.1447
14.1448
14.1449
14.145
14.1451
14.1452
14.1452
14.1453
14.1454
14.1454
14.1455
14.1455
14.1456
14.1456
14.1456
14.1456
14.1456
14.1456
14.1456
14.1456
14.1456
14.1456
14.1456
14.1456
14.1455
14.1455
14.1454
14.1454
14.1453
14.1452
14.1452
14.1451
14.145
14.1449
14.1448
14.1447
14.1446
14.1444
14.1443
14.1442
14.144
14.1439
14.1437
14.1436
14.1434
14.1432
14.1431
14.143
14.7203
14.7204
14.7206
14.7208
14.7209
14.7211
14.7213
14.7214
14.7216
14.7217
14.7218
14.722
14.7221
14.7222
14.7223
14.7224
14.7225
14.7226
14.7227
14.7227
14.7228
14.7229
14.7229
14.723
14.723
14.723
14.723
14.7231
14.7231
14.7231
14.7231
14.7231
14.7231
14.723
14.723
14.723
14.723
14.7229
14.7229
14.7228
14.7227
14.7227
14.7226
14.7225
14.7224
14.7223
14.7222
14.7221
14.722
14.7218
14.7217
14.7216
14.7214
14.7213
14.7211
14.7209
14.7208
14.7206
14.7204
14.7203
15.2994
15.2995
15.2997
15.2998
15.3
15.3002
15.3003
15.3005
15.3007
15.3008
15.3009
15.3011
15.3012
15.3013
15.3014
15.3015
15.3016
15.3017
15.3018
15.3019
15.3019
15.302
15.302
15.3021
15.3021
15.3021
15.3022
15.3022
15.3022
15.3022
15.3022
15.3022
15.3022
15.3022
15.3021
15.3021
15.3021
15.302
15.302
15.3019
15.3019
15.3018
15.3017
15.3016
15.3015
15.3014
15.3013
15.3012
15.3011
15.3009
15.3008
15.3007
15.3005
15.3003
15.3002
15.3
15.2998
15.2997
15.2995
15.2994
15.8788
15.8789
15.8791
15.8793
15.8794
15.8796
15.8798
15.8799
15.8801
15.8802
15.8804
15.8805
15.8806
15.8808
15.8809
15.881
15.8811
15.8812
15.8812
15.8813
15.8814
15.8814
15.8815
15.8815
15.8816
15.8816
15.8816
15.8817
15.8817
15.8817
15.8817
15.8817
15.8817
15.8816
15.8816
15.8816
15.8815
15.8815
15.8814
15.8814
15.8813
15.8812
15.8812
15.8811
15.881
15.8809
15.8808
15.8806
15.8805
15.8804
15.8802
15.8801
15.8799
15.8798
15.8796
15.8794
15.8793
15.8791
15.8789
15.8788
16.457
16.4572
16.4573
16.4575
16.4577
16.4578
16.458
16.4582
16.4583
16.4585
16.4586
16.4588
16.4589
16.459
16.4591
16.4592
16.4593
16.4594
16.4595
16.4596
16.4597
16.4597
16.4598
16.4598
16.4599
16.4599
16.4599
16.4599
16.4599
16.46
16.46
16.4599
16.4599
16.4599
16.4599
16.4599
16.4598
16.4598
16.4597
16.4597
16.4596
16.4595
16.4594
16.4593
16.4592
16.4591
16.459
16.4589
16.4588
16.4586
16.4585
16.4583
16.4582
16.458
16.4578
16.4577
16.4575
16.4573
16.4572
16.457
17.0323
17.0324
17.0326
17.0328
17.0329
17.0331
17.0333
17.0335
17.0336
17.0338
17.0339
17.0341
17.0342
17.0343
17.0344
17.0345
17.0346
17.0347
17.0348
17.0349
17.0349
17.035
17.0351
17.0351
17.0351
17.0352
17.0352
17.0352
17.0352
17.0352
17.0352
17.0352
17.0352
17.0352
17.0352
17.0351
17.0351
17.0351
17.035
17.0349
17.0349
17.0348
17.0347
17.0346
17.0345
17.0344
17.0343
17.0342
17.0341
17.0339
17.0338
17.0336
17.0335
17.0333
17.0331
17.0329
17.0328
17.0326
17.0324
17.0323
17.6025
17.6027
17.6028
17.603
17.6032
17.6034
17.6035
17.6037
17.6039
17.604
17.6042
17.6043
17.6044
17.6046
17.6047
17.6048
17.6049
17.605
17.6051
17.6051
17.6052
17.6053
17.6053
17.6054
17.6054
17.6054
17.6055
17.6055
17.6055
17.6055
17.6055
17.6055
17.6055
17.6055
17.6054
17.6054
17.6054
17.6053
17.6053
17.6052
17.6051
17.6051
17.605
17.6049
17.6048
17.6047
17.6046
17.6044
17.6043
17.6042
17.604
17.6039
17.6037
17.6035
17.6034
17.6032
17.603
17.6028
17.6027
17.6025
18.1653
18.1655
18.1656
18.1658
18.166
18.1662
18.1663
18.1665
18.1667
18.1668
18.167
18.1671
18.1672
18.1674
18.1675
18.1676
18.1677
18.1678
18.1679
18.1679
18.168
18.1681
18.1681
18.1682
18.1682
18.1683
18.1683
18.1683
18.1683
18.1683
18.1683
18.1683
18.1683
18.1683
18.1683
18.1682
18.1682
18.1681
18.1681
18.168
18.1679
18.1679
18.1678
18.1677
18.1676
18.1675
18.1674
18.1672
18.1671
18.167
18.1668
18.1667
18.1665
18.1663
18.1662
18.166
18.1658
18.1656
18.1655
18.1653
18.7179
18.7181
18.7182
18.7184
18.7186
18.7188
18.7189
18.7191
18.7193
18.7194
18.7196
18.7197
18.7198
18.7199
18.7201
18.7202
18.7203
18.7204
18.7204
18.7205
18.7206
18.7207
18.7207
18.7208
18.7208
18.7208
18.7209
18.7209
18.7209
18.7209
18.7209
18.7209
18.7209
18.7209
18.7208
18.7208
18.7208
18.7207
18.7207
18.7206
18.7205
18.7204
18.7204
18.7203
18.7202
18.7201
18.7199
18.7198
18.7197
18.7196
18.7194
18.7193
18.7191
18.7189
18.7188
18.7186
18.7184
18.7182
18.7181
18.7179
19.257
19.2571
19.2573
19.2575
19.2576
19.2578
19.258
19.2582
19.2583
19.2585
19.2586
19.2587
19.2589
19.259
19.2591
19.2592
19.2593
19.2594
19.2595
19.2596
19.2596
19.2597
19.2598
19.2598
19.2598
19.2599
19.2599
19.2599
19.2599
19.2599
19.2599
19.2599
19.2599
19.2599
19.2599
19.2598
19.2598
19.2598
19.2597
19.2596
19.2596
19.2595
19.2594
19.2593
19.2592
19.2591
19.259
19.2589
19.2587
19.2586
19.2585
19.2583
19.2582
19.258
19.2578
19.2576
19.2575
19.2573
19.2571
19.257
19.7787
19.7788
19.779
19.7792
19.7793
19.7795
19.7797
19.7798
19.78
19.7801
19.7803
19.7804
19.7805
19.7806
19.7808
19.7809
19.781
19.781
19.7811
19.7812
19.7813
19.7813
19.7814
19.7814
19.7815
19.7815
19.7815
19.7815
19.7816
19.7816
19.7816
19.7816
19.7815
19.7815
19.7815
19.7815
19.7814
19.7814
19.7813
19.7813
19.7812
19.7811
19.781
19.781
19.7809
19.7808
19.7806
19.7805
19.7804
19.7803
19.7801
19.78
19.7798
19.7797
19.7795
19.7793
19.7792
19.779
19.7788
19.7787
20.2784
20.2785
20.2787
20.2788
20.279
20.2792
20.2793
20.2795
20.2796
20.2798
20.2799
20.2801
20.2802
20.2803
20.2804
20.2805
20.2806
20.2807
20.2808
20.2808
20.2809
20.281
20.281
20.281
20.2811
20.2811
20.2811
20.2812
20.2812
20.2812
20.2812
20.2812
20.2812
20.2811
20.2811
20.2811
20.281
20.281
20.281
20.2809
20.2808
20.2808
20.2807
20.2806
20.2805
20.2804
20.2803
20.2802
20.2801
20.2799
20.2798
20.2796
20.2795
20.2793
20.2792
20.279
20.2788
20.2787
20.2785
20.2784
20.7507
20.7509
20.751
20.7512
20.7513
20.7515
20.7516
20.7518
20.7519
20.752
20.7522
20.7523
20.7524
20.7525
20.7526
20.7527
20.7528
20.7529
20.753
20.753
20.7531
20.7532
20.7532
20.7532
20.7533
20.7533
20.7533
20.7534
20.7534
20.7534
20.7534
20.7534
20.7534
20.7533
20.7533
20.7533
20.7532
20.7532
20.7532
20.7531
20.753
20.753
20.7529
20.7528
20.7527
20.7526
20.7525
20.7524
20.7523
20.7522
20.752
20.7519
20.7518
20.7516
20.7515
20.7513
20.7512
20.751
20.7509
20.7507
21.1895
21.1896
21.1897
21.1899
21.19
21.1902
21.1903
21.1905
21.1906
21.1907
21.1908
21.1909
21.1911
21.1912
21.1913
21.1913
21.1914
21.1915
21.1916
21.1916
21.1917
21.1918
21.1918
21.1918
21.1919
21.1919
21.1919
21.1919
21.192
21.192
21.192
21.192
21.1919
21.1919
21.1919
21.1919
21.1918
21.1918
21.1918
21.1917
21.1916
21.1916
21.1915
21.1914
21.1913
21.1913
21.1912
21.1911
21.1909
21.1908
21.1907
21.1906
21.1905
21.1903
21.1902
21.19
21.1899
21.1897
21.1896
21.1895
21.5881
21.5881
21.5883
21.5884
21.5885
21.5887
21.5888
21.5889
21.589
21.5891
21.5892
21.5894
21.5895
21.5895
21.5896
21.5897
21.5898
21.5899
21.5899
21.59
21.59
21.5901
21.5901
21.5902
21.5902
21.5902
21.5903
21.5903
21.5903
21.5903
21.5903
21.5903
21.5903
21.5903
21.5902
21.5902
21.5902
21.5901
21.5901
21.59
21.59
21.5899
21.5899
21.5898
21.5897
21.5896
21.5895
21.5895
21.5894
21.5892
21.5891
21.589
21.5889
21.5888
21.5887
21.5885
21.5884
21.5883
21.5881
21.5881
21.9402
21.9403
21.9404
21.9405
21.9406
21.9407
21.9408
21.9409
21.941
21.9411
21.9412
21.9413
21.9414
21.9415
21.9416
21.9417
21.9417
21.9418
21.9418
21.9419
21.9419
21.942
21.942
21.9421
21.9421
21.9421
21.9421
21.9421
21.9422
21.9422
21.9422
21.9422
21.9421
21.9421
21.9421
21.9421
21.9421
21.942
21.942
21.9419
21.9419
21.9418
21.9418
21.9417
21.9417
21.9416
21.9415
21.9414
21.9413
21.9412
21.9411
21.941
21.9409
21.9408
21.9407
21.9406
21.9405
21.9404
21.9403
21.9402
22.2416
22.2417
22.2418
22.2419
22.242
22.2421
22.2422
22.2423
22.2423
22.2424
22.2425
22.2426
22.2427
22.2427
22.2428
22.2429
22.2429
22.243
22.243
22.2431
22.2431
22.2432
22.2432
22.2432
22.2433
22.2433
22.2433
22.2433
22.2433
22.2433
22.2433
22.2433
22.2433
22.2433
22.2433
22.2433
22.2432
22.2432
22.2432
22.2431
22.2431
22.243
22.243
22.2429
22.2429
22.2428
22.2427
22.2427
22.2426
22.2425
22.2424
22.2423
22.2423
22.2422
22.2421
22.242
22.2419
22.2418
22.2417
22.2416
22.4917
22.4917
22.4918
22.4919
22.492
22.492
22.4921
22.4922
22.4923
22.4923
22.4924
22.4925
22.4925
22.4926
22.4927
22.4927
22.4928
22.4928
22.4929
22.4929
22.4929
22.493
22.493
22.493
22.493
22.4931
22.4931
22.4931
22.4931
22.4931
22.4931
22.4931
22.4931
22.4931
22.4931
22.493
22.493
22.493
22.493
22.4929
22.4929
22.4929
22.4928
22.4928
22.4927
22.4927
22.4926
22.4925
22.4925
22.4924
22.4923
22.4923
22.4922
22.4921
22.492
22.492
22.4919
22.4918
22.4917
22.4917
22.694
22.694
22.6941
22.6942
22.6942
22.6943
22.6943
22.6944
22.6945
22.6945
22.6946
22.6946
22.6947
22.6947
22.6948
22.6948
22.6949
22.6949
22.695
22.695
22.695
22.695
22.6951
22.6951
22.6951
22.6951
22.6951
22.6952
22.6952
22.6952
22.6952
22.6952
22.6952
22.6951
22.6951
22.6951
22.6951
22.6951
22.695
22.695
22.695
22.695
22.6949
22.6949
22.6948
22.6948
22.6947
22.6947
22.6946
22.6946
22.6945
22.6945
22.6944
22.6943
22.6943
22.6942
22.6942
22.6941
22.694
22.694
22.8558
22.8558
22.8558
22.8559
22.8559
22.856
22.856
22.8561
22.8561
22.8562
22.8562
22.8563
22.8563
22.8564
22.8564
22.8564
22.8565
22.8565
22.8565
22.8566
22.8566
22.8566
22.8566
22.8567
22.8567
22.8567
22.8567
22.8567
22.8567
22.8567
22.8567
22.8567
22.8567
22.8567
22.8567
22.8567
22.8567
22.8566
22.8566
22.8566
22.8566
22.8565
22.8565
22.8565
22.8564
22.8564
22.8564
22.8563
22.8563
22.8562
22.8562
22.8561
22.8561
22.856
22.856
22.8559
22.8559
22.8558
22.8558
22.8558
22.9857
22.9857
22.9858
22.9858
22.9858
22.9859
22.9859
22.986
22.986
22.986
22.9861
22.9861
22.9862
22.9862
22.9862
22.9863
22.9863
22.9863
22.9864
22.9864
22.9864
22.9864
22.9865
22.9865
22.9865
22.9865
22.9865
22.9865
22.9865
22.9865
22.9865
22.9865
22.9865
22.9865
22.9865
22.9865
22.9865
22.9865
22.9864
22.9864
22.9864
22.9864
22.9863
22.9863
22.9863
22.9862
22.9862
22.9862
22.9861
22.9861
22.986
22.986
22.986
22.9859
22.9859
22.9858
22.9858
22.9858
22.9857
22.9857
23.0921
23.0922
23.0922
23.0922
23.0922
23.0923
23.0923
23.0923
23.0924
23.0924
23.0924
23.0925
23.0925
23.0925
23.0926
23.0926
23.0926
23.0927
23.0927
23.0927
23.0927
23.0928
23.0928
23.0928
23.0928
23.0928
23.0928
23.0928
23.0928
23.0928
23.0928
23.0928
23.0928
23.0928
23.0928
23.0928
23.0928
23.0928
23.0928
23.0927
23.0927
23.0927
23.0927
23.0926
23.0926
23.0926
23.0925
23.0925
23.0925
23.0924
23.0924
23.0924
23.0923
23.0923
23.0923
23.0922
23.0922
23.0922
23.0922
23.0921
23.1816
23.1816
23.1816
23.1817
23.1817
23.1817
23.1817
23.1818
23.1818
23.1818
23.1819
23.1819
23.1819
23.182
23.182
23.182
23.1821
23.1821
23.1821
23.1821
23.1822
23.1822
23.1822
23.1822
23.1822
23.1822
23.1822
23.1822
23.1823
23.1823
23.1823
23.1823
23.1822
23.1822
23.1822
23.1822
23.1822
23.1822
23.1822
23.1822
23.1821
23.1821
23.1821
23.1821
23.182
23.182
23.182
23.1819
23.1819
23.1819
23.1818
23.1818
23.1818
23.1817
23.1817
23.1817
23.1817
23.1816
23.1816
23.1816
23.2589
23.2589
23.2589
23.2589
23.259
23.259
23.259
23.259
23.2591
23.2591
23.2591
23.2592
23.2592
23.2592
23.2593
23.2593
23.2593
23.2593
23.2594
23.2594
23.2594
23.2594
23.2594
23.2595
23.2595
23.2595
23.2595
23.2595
23.2595
23.2595
23.2595
23.2595
23.2595
23.2595
23.2595
23.2595
23.2595
23.2594
23.2594
23.2594
23.2594
23.2594
23.2593
23.2593
23.2593
23.2593
23.2592
23.2592
23.2592
23.2591
23.2591
23.2591
23.259
23.259
23.259
23.259
23.2589
23.2589
23.2589
23.2589
23.3272
23.3272
23.3272
23.3272
23.3272
23.3273
23.3273
23.3273
23.3274
23.3274
23.3274
23.3274
23.3275
23.3275
23.3275
23.3276
23.3276
23.3276
23.3276
23.3277
23.3277
23.3277
23.3277
23.3277
23.3278
23.3278
23.3278
23.3278
23.3278
23.3278
23.3278
23.3278
23.3278
23.3278
23.3278
23.3278
23.3277
23.3277
23.3277
23.3277
23.3277
23.3276
23.3276
23.3276
23.3276
23.3275
23.3275
23.3275
23.3274
23.3274
23.3274
23.3274
23.3273
23.3273
23.3273
23.3272
23.3272
23.3272
23.3272
23.3272
23.3887
23.3887
23.3887
23.3887
23.3887
23.3887
23.3888
23.3888
23.3888
23.3888
23.3889
23.3889
23.3889
23.389
23.389
23.389
23.3891
23.3891
23.3891
23.3891
23.3891
23.3892
23.3892
23.3892
23.3892
23.3892
23.3892
23.3892
23.3892
23.3892
23.3892
23.3892
23.3892
23.3892
23.3892
23.3892
23.3892
23.3892
23.3892
23.3891
23.3891
23.3891
23.3891
23.3891
23.389
23.389
23.389
23.3889
23.3889
23.3889
23.3888
23.3888
23.3888
23.3888
23.3887
23.3887
23.3887
23.3887
23.3887
23.3887
23.4447
23.4447
23.4448
23.4448
23.4448
23.4448
23.4448
23.4449
23.4449
23.4449
23.4449
23.445
23.445
23.445
23.4451
23.4451
23.4451
23.4452
23.4452
23.4452
23.4452
23.4452
23.4453
23.4453
23.4453
23.4453
23.4453
23.4453
23.4453
23.4453
23.4453
23.4453
23.4453
23.4453
23.4453
23.4453
23.4453
23.4453
23.4452
23.4452
23.4452
23.4452
23.4452
23.4451
23.4451
23.4451
23.445
23.445
23.445
23.4449
23.4449
23.4449
23.4449
23.4448
23.4448
23.4448
23.4448
23.4448
23.4447
23.4447
23.4965
23.4965
23.4965
23.4965
23.4965
23.4965
23.4965
23.4966
23.4966
23.4966
23.4967
23.4967
23.4967
23.4968
23.4968
23.4968
23.4968
23.4969
23.4969
23.4969
23.4969
23.497
23.497
23.497
23.497
23.497
23.497
23.497
23.497
23.497
23.497
23.497
23.497
23.497
23.497
23.497
23.497
23.497
23.497
23.4969
23.4969
23.4969
23.4969
23.4968
23.4968
23.4968
23.4968
23.4967
23.4967
23.4967
23.4966
23.4966
23.4966
23.4965
23.4965
23.4965
23.4965
23.4965
23.4965
23.4965
23.5446
23.5446
23.5446
23.5446
23.5446
23.5446
23.5446
23.5447
23.5447
23.5447
23.5448
23.5448
23.5448
23.5449
23.5449
23.5449
23.5449
23.545
23.545
23.545
23.545
23.5451
23.5451
23.5451
23.5451
23.5451
23.5451
23.5451
23.5451
23.5451
23.5451
23.5451
23.5451
23.5451
23.5451
23.5451
23.5451
23.5451
23.5451
23.545
23.545
23.545
23.545
23.5449
23.5449
23.5449
23.5449
23.5448
23.5448
23.5448
23.5447
23.5447
23.5447
23.5446
23.5446
23.5446
23.5446
23.5446
23.5446
23.5446
23.5896
23.5896
23.5896
23.5896
23.5896
23.5897
23.5897
23.5897
23.5897
23.5898
23.5898
23.5898
23.5899
23.5899
23.5899
23.59
23.59
23.59
23.5901
23.5901
23.5901
23.5901
23.5901
23.5902
23.5902
23.5902
23.5902
23.5902
23.5902
23.5902
23.5902
23.5902
23.5902
23.5902
23.5902
23.5902
23.5902
23.5901
23.5901
23.5901
23.5901
23.5901
23.59
23.59
23.59
23.5899
23.5899
23.5899
23.5898
23.5898
23.5898
23.5897
23.5897
23.5897
23.5897
23.5896
23.5896
23.5896
23.5896
23.5896
23.632
23.632
23.632
23.632
23.6321
23.6321
23.6321
23.6321
23.6322
23.6322
23.6322
23.6323
23.6323
23.6323
23.6324
23.6324
23.6324
23.6325
23.6325
23.6325
23.6325
23.6326
23.6326
23.6326
23.6326
23.6326
23.6326
23.6326
23.6326
23.6326
23.6326
23.6326
23.6326
23.6326
23.6326
23.6326
23.6326
23.6326
23.6326
23.6325
23.6325
23.6325
23.6325
23.6324
23.6324
23.6324
23.6323
23.6323
23.6323
23.6322
23.6322
23.6322
23.6321
23.6321
23.6321
23.6321
23.632
23.632
23.632
23.632
23.6722
23.6722
23.6722
23.6722
23.6722
23.6722
23.6723
23.6723
23.6723
23.6724
23.6724
23.6724
23.6725
23.6725
23.6725
23.6726
23.6726
23.6726
23.6727
23.6727
23.6727
23.6727
23.6728
23.6728
23.6728
23.6728
23.6728
23.6728
23.6728
23.6728
23.6728
23.6728
23.6728
23.6728
23.6728
23.6728
23.6728
23.6728
23.6727
23.6727
23.6727
23.6727
23.6726
23.6726
23.6726
23.6725
23.6725
23.6725
23.6724
23.6724
23.6724
23.6723
23.6723
23.6723
23.6722
23.6722
23.6722
23.6722
23.6722
23.6722
23.7103
23.7104
23.7104
23.7104
23.7104
23.7104
23.7104
23.7105
23.7105
23.7105
23.7106
23.7106
23.7107
23.7107
23.7107
23.7108
23.7108
23.7108
23.7109
23.7109
23.7109
23.7109
23.711