/*--------------------------------*- C++ -*----------------------------------*\
| =========                 |                                                 |
| \\      /  F ield         | foam-extend: Open Source CFD                    |
|  \\    /   O peration     | Version:     4.0                                |
|   \\  /    A nd           | Web:         http://www.foam-extend.org         |
|    \\/     M anipulation  |                                                 |
\*---------------------------------------------------------------------------*/
FoamFile
{
    version     2.0;
    format      ascii;
    class       volScalarField;
    location    "1870";
    object      cPlus;
}
// * * * * * * * * * * * * * * * * * * * * * * * * * * * * * * * * * * * * * //

dimensions      [0 0 0 0 0 0 0];

internalField   nonuniform List<scalar> 
6960
(
0.334181
0.334173
0.334162
0.334151
0.334141
0.334131
0.334121
0.334113
0.334105
0.334098
0.334092
0.334086
0.334081
0.334077
0.334073
0.334069
0.334066
0.334063
0.334061
0.334059
0.334057
0.334055
0.334054
0.334053
0.334052
0.334051
0.33405
0.33405
0.33405
0.334049
0.334049
0.33405
0.33405
0.33405
0.334051
0.334052
0.334053
0.334054
0.334055
0.334057
0.334059
0.334061
0.334063
0.334066
0.334069
0.334073
0.334077
0.334081
0.334086
0.334092
0.334098
0.334105
0.334113
0.334121
0.334131
0.334141
0.334151
0.334162
0.334173
0.334181
0.113542
0.113535
0.113527
0.113519
0.113511
0.113503
0.113496
0.11349
0.113484
0.113479
0.113474
0.11347
0.113466
0.113462
0.113459
0.113456
0.113454
0.113452
0.11345
0.113448
0.113447
0.113446
0.113445
0.113444
0.113443
0.113443
0.113442
0.113442
0.113442
0.113441
0.113441
0.113442
0.113442
0.113442
0.113443
0.113443
0.113444
0.113445
0.113446
0.113447
0.113448
0.11345
0.113452
0.113454
0.113456
0.113459
0.113462
0.113466
0.11347
0.113474
0.113479
0.113484
0.11349
0.113496
0.113503
0.113511
0.113519
0.113527
0.113535
0.113542
0.0456981
0.0456943
0.0456895
0.0456844
0.0456795
0.0456749
0.0456707
0.0456668
0.0456633
0.04566
0.0456571
0.0456545
0.0456522
0.0456501
0.0456482
0.0456465
0.0456451
0.0456438
0.0456426
0.0456416
0.0456408
0.0456401
0.0456394
0.0456389
0.0456384
0.0456381
0.0456378
0.0456376
0.0456375
0.0456374
0.0456374
0.0456375
0.0456376
0.0456378
0.0456381
0.0456384
0.0456389
0.0456394
0.0456401
0.0456408
0.0456416
0.0456426
0.0456438
0.0456451
0.0456465
0.0456482
0.0456501
0.0456522
0.0456545
0.0456571
0.04566
0.0456633
0.0456668
0.0456707
0.0456749
0.0456795
0.0456844
0.0456895
0.0456943
0.0456981
0.0207485
0.0207468
0.0207444
0.0207418
0.0207393
0.020737
0.0207348
0.0207328
0.020731
0.0207294
0.0207279
0.0207266
0.0207254
0.0207243
0.0207234
0.0207225
0.0207218
0.0207211
0.0207205
0.02072
0.0207196
0.0207192
0.0207189
0.0207186
0.0207184
0.0207182
0.0207181
0.020718
0.0207179
0.0207179
0.0207179
0.0207179
0.020718
0.0207181
0.0207182
0.0207184
0.0207186
0.0207189
0.0207192
0.0207196
0.02072
0.0207205
0.0207211
0.0207218
0.0207225
0.0207234
0.0207243
0.0207254
0.0207266
0.0207279
0.0207294
0.020731
0.0207328
0.0207348
0.020737
0.0207393
0.0207418
0.0207444
0.0207468
0.0207485
0.0110457
0.0110452
0.0110443
0.0110434
0.0110424
0.0110415
0.0110407
0.01104
0.0110393
0.0110386
0.0110381
0.0110375
0.0110371
0.0110367
0.0110363
0.011036
0.0110357
0.0110354
0.0110352
0.011035
0.0110348
0.0110347
0.0110346
0.0110345
0.0110344
0.0110343
0.0110343
0.0110342
0.0110342
0.0110342
0.0110342
0.0110342
0.0110342
0.0110343
0.0110343
0.0110344
0.0110345
0.0110346
0.0110347
0.0110348
0.011035
0.0110352
0.0110354
0.0110357
0.011036
0.0110363
0.0110367
0.0110371
0.0110375
0.0110381
0.0110386
0.0110393
0.01104
0.0110407
0.0110415
0.0110424
0.0110434
0.0110443
0.0110452
0.0110457
0.00724935
0.0072496
0.00724961
0.00724956
0.00724949
0.00724941
0.00724934
0.00724927
0.00724921
0.00724915
0.0072491
0.00724905
0.007249
0.00724897
0.00724893
0.0072489
0.00724887
0.00724885
0.00724883
0.00724881
0.00724879
0.00724878
0.00724877
0.00724876
0.00724875
0.00724874
0.00724873
0.00724873
0.00724873
0.00724873
0.00724873
0.00724873
0.00724873
0.00724873
0.00724874
0.00724875
0.00724876
0.00724877
0.00724878
0.00724879
0.00724881
0.00724883
0.00724885
0.00724887
0.0072489
0.00724893
0.00724897
0.007249
0.00724905
0.0072491
0.00724915
0.00724921
0.00724927
0.00724934
0.00724941
0.00724949
0.00724956
0.00724961
0.0072496
0.00724935
0.00579388
0.0057945
0.00579498
0.0057954
0.00579578
0.00579613
0.00579646
0.00579675
0.00579702
0.00579726
0.00579748
0.00579767
0.00579785
0.00579801
0.00579815
0.00579827
0.00579838
0.00579847
0.00579856
0.00579863
0.00579869
0.00579875
0.0057988
0.00579883
0.00579887
0.00579889
0.00579891
0.00579893
0.00579894
0.00579894
0.00579894
0.00579894
0.00579893
0.00579891
0.00579889
0.00579887
0.00579883
0.0057988
0.00579875
0.00579869
0.00579863
0.00579856
0.00579847
0.00579838
0.00579827
0.00579815
0.00579801
0.00579785
0.00579767
0.00579748
0.00579726
0.00579702
0.00579675
0.00579646
0.00579613
0.00579578
0.0057954
0.00579498
0.0057945
0.00579388
0.00526213
0.00526294
0.00526365
0.0052643
0.00526491
0.00526548
0.00526599
0.00526647
0.0052669
0.00526729
0.00526764
0.00526795
0.00526824
0.00526849
0.00526871
0.00526891
0.00526909
0.00526924
0.00526938
0.0052695
0.0052696
0.00526969
0.00526976
0.00526983
0.00526988
0.00526992
0.00526996
0.00526998
0.00527
0.00527001
0.00527001
0.00527
0.00526998
0.00526996
0.00526992
0.00526988
0.00526983
0.00526976
0.00526969
0.0052696
0.0052695
0.00526938
0.00526924
0.00526909
0.00526891
0.00526871
0.00526849
0.00526824
0.00526795
0.00526764
0.00526729
0.0052669
0.00526647
0.00526599
0.00526548
0.00526491
0.0052643
0.00526365
0.00526294
0.00526213
0.0050896
0.0050905
0.00509132
0.00509208
0.0050928
0.00509346
0.00509407
0.00509463
0.00509514
0.0050956
0.00509602
0.00509639
0.00509672
0.00509702
0.00509729
0.00509752
0.00509773
0.00509791
0.00509807
0.00509821
0.00509834
0.00509844
0.00509853
0.00509861
0.00509867
0.00509872
0.00509876
0.00509879
0.00509881
0.00509882
0.00509882
0.00509881
0.00509879
0.00509876
0.00509872
0.00509867
0.00509861
0.00509853
0.00509844
0.00509834
0.00509821
0.00509807
0.00509791
0.00509773
0.00509752
0.00509729
0.00509702
0.00509672
0.00509639
0.00509602
0.0050956
0.00509514
0.00509463
0.00509407
0.00509346
0.0050928
0.00509208
0.00509132
0.0050905
0.0050896
0.00505466
0.00505561
0.00505648
0.00505731
0.00505807
0.00505879
0.00505944
0.00506004
0.00506059
0.00506108
0.00506153
0.00506193
0.00506229
0.00506261
0.00506289
0.00506315
0.00506337
0.00506357
0.00506374
0.00506389
0.00506402
0.00506414
0.00506423
0.00506431
0.00506438
0.00506443
0.00506448
0.00506451
0.00506453
0.00506454
0.00506454
0.00506453
0.00506451
0.00506448
0.00506443
0.00506438
0.00506431
0.00506423
0.00506414
0.00506402
0.00506389
0.00506374
0.00506357
0.00506337
0.00506315
0.00506289
0.00506261
0.00506229
0.00506193
0.00506153
0.00506108
0.00506059
0.00506004
0.00505944
0.00505879
0.00505807
0.00505731
0.00505648
0.00505561
0.00505466
0.00507227
0.00507324
0.00507415
0.005075
0.0050758
0.00507654
0.00507722
0.00507784
0.0050784
0.00507892
0.00507938
0.0050798
0.00508017
0.0050805
0.0050808
0.00508106
0.00508129
0.0050815
0.00508168
0.00508184
0.00508197
0.00508209
0.00508219
0.00508227
0.00508234
0.0050824
0.00508244
0.00508247
0.0050825
0.00508251
0.00508251
0.0050825
0.00508247
0.00508244
0.0050824
0.00508234
0.00508227
0.00508219
0.00508209
0.00508197
0.00508184
0.00508168
0.0050815
0.00508129
0.00508106
0.0050808
0.0050805
0.00508017
0.0050798
0.00507938
0.00507892
0.0050784
0.00507784
0.00507722
0.00507654
0.0050758
0.005075
0.00507415
0.00507324
0.00507227
0.00511066
0.00511166
0.00511258
0.00511346
0.00511427
0.00511503
0.00511572
0.00511636
0.00511694
0.00511747
0.00511794
0.00511837
0.00511875
0.00511909
0.00511939
0.00511966
0.0051199
0.00512011
0.00512029
0.00512045
0.00512059
0.00512071
0.00512082
0.0051209
0.00512097
0.00512103
0.00512108
0.00512111
0.00512113
0.00512114
0.00512114
0.00512113
0.00512111
0.00512108
0.00512103
0.00512097
0.0051209
0.00512082
0.00512071
0.00512059
0.00512045
0.00512029
0.00512011
0.0051199
0.00511966
0.00511939
0.00511909
0.00511875
0.00511837
0.00511794
0.00511747
0.00511694
0.00511636
0.00511572
0.00511503
0.00511427
0.00511346
0.00511258
0.00511166
0.00511066
0.00515841
0.00515942
0.00516036
0.00516125
0.00516208
0.00516285
0.00516356
0.00516421
0.0051648
0.00516534
0.00516582
0.00516625
0.00516664
0.00516699
0.0051673
0.00516758
0.00516782
0.00516803
0.00516822
0.00516838
0.00516852
0.00516865
0.00516875
0.00516884
0.00516891
0.00516897
0.00516902
0.00516905
0.00516907
0.00516908
0.00516908
0.00516907
0.00516905
0.00516902
0.00516897
0.00516891
0.00516884
0.00516875
0.00516865
0.00516852
0.00516838
0.00516822
0.00516803
0.00516782
0.00516758
0.0051673
0.00516699
0.00516664
0.00516625
0.00516582
0.00516534
0.0051648
0.00516421
0.00516356
0.00516285
0.00516208
0.00516125
0.00516036
0.00515942
0.00515841
0.0052116
0.00521264
0.0052136
0.0052145
0.00521535
0.00521613
0.00521685
0.00521751
0.00521811
0.00521866
0.00521915
0.00521959
0.00521999
0.00522034
0.00522066
0.00522094
0.00522119
0.0052214
0.0052216
0.00522176
0.00522191
0.00522203
0.00522214
0.00522223
0.0052223
0.00522236
0.00522241
0.00522244
0.00522247
0.00522248
0.00522248
0.00522247
0.00522244
0.00522241
0.00522236
0.0052223
0.00522223
0.00522214
0.00522203
0.00522191
0.00522176
0.0052216
0.0052214
0.00522119
0.00522094
0.00522066
0.00522034
0.00521999
0.00521959
0.00521915
0.00521866
0.00521811
0.00521751
0.00521685
0.00521613
0.00521535
0.0052145
0.0052136
0.00521264
0.0052116
0.00526912
0.00527017
0.00527115
0.00527207
0.00527293
0.00527373
0.00527447
0.00527514
0.00527575
0.00527631
0.00527681
0.00527726
0.00527766
0.00527802
0.00527834
0.00527863
0.00527888
0.0052791
0.0052793
0.00527947
0.00527961
0.00527974
0.00527985
0.00527994
0.00528002
0.00528008
0.00528013
0.00528016
0.00528018
0.0052802
0.0052802
0.00528018
0.00528016
0.00528013
0.00528008
0.00528002
0.00527994
0.00527985
0.00527974
0.00527961
0.00527947
0.0052793
0.0052791
0.00527888
0.00527863
0.00527834
0.00527802
0.00527766
0.00527726
0.00527681
0.00527631
0.00527575
0.00527514
0.00527447
0.00527373
0.00527293
0.00527207
0.00527115
0.00527017
0.00526912
0.00533081
0.00533188
0.00533288
0.00533382
0.0053347
0.00533551
0.00533626
0.00533694
0.00533757
0.00533813
0.00533864
0.0053391
0.00533951
0.00533988
0.00534021
0.0053405
0.00534076
0.00534098
0.00534118
0.00534135
0.0053415
0.00534163
0.00534174
0.00534184
0.00534191
0.00534198
0.00534203
0.00534206
0.00534209
0.0053421
0.0053421
0.00534209
0.00534206
0.00534203
0.00534198
0.00534191
0.00534184
0.00534174
0.00534163
0.0053415
0.00534135
0.00534118
0.00534098
0.00534076
0.0053405
0.00534021
0.00533988
0.00533951
0.0053391
0.00533864
0.00533813
0.00533757
0.00533694
0.00533626
0.00533551
0.0053347
0.00533382
0.00533288
0.00533188
0.00533081
0.00539689
0.00539799
0.005399
0.00539996
0.00540086
0.00540169
0.00540245
0.00540315
0.00540379
0.00540436
0.00540488
0.00540535
0.00540577
0.00540615
0.00540648
0.00540678
0.00540704
0.00540727
0.00540747
0.00540765
0.0054078
0.00540794
0.00540805
0.00540814
0.00540822
0.00540829
0.00540834
0.00540837
0.0054084
0.00540841
0.00540841
0.0054084
0.00540837
0.00540834
0.00540829
0.00540822
0.00540814
0.00540805
0.00540794
0.0054078
0.00540765
0.00540747
0.00540727
0.00540704
0.00540678
0.00540648
0.00540615
0.00540577
0.00540535
0.00540488
0.00540436
0.00540379
0.00540315
0.00540245
0.00540169
0.00540086
0.00539996
0.005399
0.00539799
0.00539689
0.00546775
0.00546887
0.00546991
0.00547088
0.0054718
0.00547265
0.00547343
0.00547414
0.00547479
0.00547538
0.00547591
0.00547639
0.00547682
0.0054772
0.00547755
0.00547785
0.00547812
0.00547835
0.00547856
0.00547874
0.0054789
0.00547903
0.00547915
0.00547924
0.00547932
0.00547939
0.00547944
0.00547948
0.0054795
0.00547952
0.00547952
0.0054795
0.00547948
0.00547944
0.00547939
0.00547932
0.00547924
0.00547915
0.00547903
0.0054789
0.00547874
0.00547856
0.00547835
0.00547812
0.00547785
0.00547755
0.0054772
0.00547682
0.00547639
0.00547591
0.00547538
0.00547479
0.00547414
0.00547343
0.00547265
0.0054718
0.00547088
0.00546991
0.00546887
0.00546775
0.00554386
0.00554501
0.00554607
0.00554707
0.005548
0.00554887
0.00554967
0.0055504
0.00555106
0.00555167
0.00555221
0.0055527
0.00555314
0.00555353
0.00555388
0.00555419
0.00555447
0.00555471
0.00555492
0.00555511
0.00555527
0.0055554
0.00555552
0.00555562
0.0055557
0.00555577
0.00555582
0.00555586
0.00555589
0.0055559
0.0055559
0.00555589
0.00555586
0.00555582
0.00555577
0.0055557
0.00555562
0.00555552
0.0055554
0.00555527
0.00555511
0.00555492
0.00555471
0.00555447
0.00555419
0.00555388
0.00555353
0.00555314
0.0055527
0.00555221
0.00555167
0.00555106
0.0055504
0.00554967
0.00554887
0.005548
0.00554707
0.00554607
0.00554501
0.00554386
0.00562579
0.00562697
0.00562805
0.00562908
0.00563004
0.00563092
0.00563174
0.00563249
0.00563317
0.00563379
0.00563435
0.00563485
0.0056353
0.0056357
0.00563606
0.00563638
0.00563666
0.00563691
0.00563712
0.00563731
0.00563748
0.00563762
0.00563774
0.00563784
0.00563793
0.005638
0.00563805
0.00563809
0.00563811
0.00563813
0.00563813
0.00563811
0.00563809
0.00563805
0.005638
0.00563793
0.00563784
0.00563774
0.00563762
0.00563748
0.00563731
0.00563712
0.00563691
0.00563666
0.00563638
0.00563606
0.0056357
0.0056353
0.00563485
0.00563435
0.00563379
0.00563317
0.00563249
0.00563174
0.00563092
0.00563004
0.00562908
0.00562805
0.00562697
0.00562579
0.00571419
0.0057154
0.00571652
0.00571757
0.00571855
0.00571947
0.00572031
0.00572107
0.00572177
0.00572241
0.00572298
0.00572349
0.00572396
0.00572437
0.00572474
0.00572506
0.00572535
0.00572561
0.00572583
0.00572602
0.00572619
0.00572634
0.00572646
0.00572657
0.00572665
0.00572673
0.00572678
0.00572682
0.00572685
0.00572686
0.00572686
0.00572685
0.00572682
0.00572678
0.00572673
0.00572665
0.00572657
0.00572646
0.00572634
0.00572619
0.00572602
0.00572583
0.00572561
0.00572535
0.00572506
0.00572474
0.00572437
0.00572396
0.00572349
0.00572298
0.00572241
0.00572177
0.00572107
0.00572031
0.00571947
0.00571855
0.00571757
0.00571652
0.0057154
0.00571419
0.00580984
0.00581108
0.00581223
0.00581331
0.00581432
0.00581526
0.00581612
0.00581691
0.00581763
0.00581828
0.00581887
0.0058194
0.00581988
0.0058203
0.00582068
0.00582102
0.00582131
0.00582158
0.00582181
0.00582201
0.00582218
0.00582233
0.00582246
0.00582257
0.00582266
0.00582273
0.00582278
0.00582283
0.00582285
0.00582287
0.00582287
0.00582285
0.00582283
0.00582278
0.00582273
0.00582266
0.00582257
0.00582246
0.00582233
0.00582218
0.00582201
0.00582181
0.00582158
0.00582131
0.00582102
0.00582068
0.0058203
0.00581988
0.0058194
0.00581887
0.00581828
0.00581763
0.00581691
0.00581612
0.00581526
0.00581432
0.00581331
0.00581223
0.00581108
0.00580984
0.00591362
0.0059149
0.00591609
0.0059172
0.00591824
0.00591921
0.0059201
0.00592091
0.00592165
0.00592232
0.00592293
0.00592348
0.00592397
0.0059244
0.00592479
0.00592514
0.00592545
0.00592572
0.00592595
0.00592616
0.00592634
0.00592649
0.00592662
0.00592674
0.00592683
0.0059269
0.00592696
0.005927
0.00592703
0.00592705
0.00592705
0.00592703
0.005927
0.00592696
0.0059269
0.00592683
0.00592674
0.00592662
0.00592649
0.00592634
0.00592616
0.00592595
0.00592572
0.00592545
0.00592514
0.00592479
0.0059244
0.00592397
0.00592348
0.00592293
0.00592232
0.00592165
0.00592091
0.0059201
0.00591921
0.00591824
0.0059172
0.00591609
0.0059149
0.00591362
0.00602658
0.00602792
0.00602914
0.00603029
0.00603137
0.00603236
0.00603328
0.00603412
0.00603489
0.00603558
0.00603621
0.00603677
0.00603728
0.00603773
0.00603813
0.00603849
0.00603881
0.00603909
0.00603933
0.00603954
0.00603973
0.00603989
0.00604002
0.00604014
0.00604023
0.00604031
0.00604037
0.00604042
0.00604045
0.00604046
0.00604046
0.00604045
0.00604042
0.00604037
0.00604031
0.00604023
0.00604014
0.00604002
0.00603989
0.00603973
0.00603954
0.00603933
0.00603909
0.00603881
0.00603849
0.00603813
0.00603773
0.00603728
0.00603677
0.00603621
0.00603558
0.00603489
0.00603412
0.00603328
0.00603236
0.00603137
0.00603029
0.00602914
0.00602792
0.00602658
0.00614999
0.00615137
0.00615264
0.00615383
0.00615495
0.00615598
0.00615693
0.0061578
0.00615859
0.00615931
0.00615996
0.00616054
0.00616107
0.00616154
0.00616196
0.00616233
0.00616265
0.00616294
0.0061632
0.00616342
0.00616361
0.00616377
0.00616392
0.00616403
0.00616413
0.00616421
0.00616428
0.00616432
0.00616435
0.00616437
0.00616437
0.00616435
0.00616432
0.00616428
0.00616421
0.00616413
0.00616403
0.00616392
0.00616377
0.00616361
0.00616342
0.0061632
0.00616294
0.00616265
0.00616233
0.00616196
0.00616154
0.00616107
0.00616054
0.00615996
0.00615931
0.00615859
0.0061578
0.00615693
0.00615598
0.00615495
0.00615383
0.00615264
0.00615137
0.00614999
0.00628534
0.00628678
0.00628809
0.00628933
0.00629049
0.00629156
0.00629255
0.00629345
0.00629428
0.00629502
0.0062957
0.0062963
0.00629685
0.00629734
0.00629777
0.00629815
0.00629849
0.00629879
0.00629906
0.00629929
0.00629949
0.00629966
0.00629981
0.00629993
0.00630003
0.00630012
0.00630018
0.00630023
0.00630026
0.00630028
0.00630028
0.00630026
0.00630023
0.00630018
0.00630012
0.00630003
0.00629993
0.00629981
0.00629966
0.00629949
0.00629929
0.00629906
0.00629879
0.00629849
0.00629815
0.00629777
0.00629734
0.00629685
0.0062963
0.0062957
0.00629502
0.00629428
0.00629345
0.00629255
0.00629156
0.00629049
0.00628933
0.00628809
0.00628678
0.00628534
0.00643444
0.00643594
0.00643731
0.0064386
0.00643981
0.00644092
0.00644195
0.00644289
0.00644375
0.00644453
0.00644523
0.00644587
0.00644643
0.00644694
0.00644739
0.00644779
0.00644815
0.00644846
0.00644874
0.00644898
0.00644919
0.00644936
0.00644952
0.00644965
0.00644975
0.00644984
0.00644991
0.00644996
0.00644999
0.00645001
0.00645001
0.00644999
0.00644996
0.00644991
0.00644984
0.00644975
0.00644965
0.00644952
0.00644936
0.00644919
0.00644898
0.00644874
0.00644846
0.00644815
0.00644779
0.00644739
0.00644694
0.00644643
0.00644587
0.00644523
0.00644453
0.00644375
0.00644289
0.00644195
0.00644092
0.00643981
0.0064386
0.00643731
0.00643594
0.00643444
0.0065995
0.00660106
0.0066025
0.00660385
0.00660511
0.00660628
0.00660736
0.00660834
0.00660924
0.00661005
0.00661079
0.00661145
0.00661204
0.00661258
0.00661305
0.00661347
0.00661384
0.00661417
0.00661446
0.00661471
0.00661492
0.00661511
0.00661527
0.00661541
0.00661552
0.00661561
0.00661568
0.00661574
0.00661577
0.00661579
0.00661579
0.00661577
0.00661574
0.00661568
0.00661561
0.00661552
0.00661541
0.00661527
0.00661511
0.00661492
0.00661471
0.00661446
0.00661417
0.00661384
0.00661347
0.00661305
0.00661258
0.00661204
0.00661145
0.00661079
0.00661005
0.00660924
0.00660834
0.00660736
0.00660628
0.00660511
0.00660385
0.0066025
0.00660106
0.0065995
0.00678324
0.00678488
0.00678639
0.00678781
0.00678914
0.00679036
0.0067915
0.00679253
0.00679347
0.00679433
0.0067951
0.0067958
0.00679642
0.00679698
0.00679748
0.00679792
0.00679831
0.00679866
0.00679896
0.00679922
0.00679945
0.00679965
0.00679982
0.00679996
0.00680008
0.00680017
0.00680025
0.0068003
0.00680034
0.00680036
0.00680036
0.00680034
0.0068003
0.00680025
0.00680017
0.00680008
0.00679996
0.00679982
0.00679965
0.00679945
0.00679922
0.00679896
0.00679866
0.00679831
0.00679792
0.00679748
0.00679698
0.00679642
0.0067958
0.0067951
0.00679433
0.00679347
0.00679253
0.0067915
0.00679036
0.00678914
0.00678781
0.00678639
0.00678488
0.00678324
0.00698906
0.00699081
0.0069924
0.0069939
0.0069953
0.00699659
0.00699779
0.00699888
0.00699988
0.00700078
0.0070016
0.00700233
0.00700299
0.00700358
0.00700411
0.00700457
0.00700499
0.00700535
0.00700567
0.00700595
0.00700619
0.0070064
0.00700658
0.00700673
0.00700685
0.00700696
0.00700703
0.00700709
0.00700713
0.00700715
0.00700715
0.00700713
0.00700709
0.00700703
0.00700696
0.00700685
0.00700673
0.00700658
0.0070064
0.00700619
0.00700595
0.00700567
0.00700535
0.00700499
0.00700457
0.00700411
0.00700358
0.00700299
0.00700233
0.0070016
0.00700078
0.00699988
0.00699888
0.00699779
0.00699659
0.0069953
0.0069939
0.0069924
0.00699081
0.00698906
0.0072213
0.00722315
0.00722484
0.00722643
0.00722792
0.0072293
0.00723056
0.00723173
0.00723278
0.00723374
0.00723461
0.00723539
0.00723609
0.00723672
0.00723728
0.00723778
0.00723822
0.0072386
0.00723894
0.00723924
0.0072395
0.00723972
0.00723991
0.00724007
0.0072402
0.00724031
0.00724039
0.00724045
0.00724049
0.00724051
0.00724051
0.00724049
0.00724045
0.00724039
0.00724031
0.0072402
0.00724007
0.00723991
0.00723972
0.0072395
0.00723924
0.00723894
0.0072386
0.00723822
0.00723778
0.00723728
0.00723672
0.00723609
0.00723539
0.00723461
0.00723374
0.00723278
0.00723173
0.00723056
0.0072293
0.00722792
0.00722643
0.00722484
0.00722315
0.0072213
0.00748549
0.00748747
0.00748928
0.00749098
0.00749257
0.00749404
0.0074954
0.00749664
0.00749778
0.0074988
0.00749973
0.00750057
0.00750132
0.00750199
0.00750259
0.00750312
0.00750359
0.007504
0.00750437
0.00750468
0.00750496
0.0075052
0.0075054
0.00750557
0.00750571
0.00750583
0.00750592
0.00750599
0.00750603
0.00750605
0.00750605
0.00750603
0.00750599
0.00750592
0.00750583
0.00750571
0.00750557
0.0075054
0.0075052
0.00750496
0.00750468
0.00750437
0.007504
0.00750359
0.00750312
0.00750259
0.00750199
0.00750132
0.00750057
0.00749973
0.0074988
0.00749778
0.00749664
0.0074954
0.00749404
0.00749257
0.00749098
0.00748928
0.00748747
0.00748549
0.00778892
0.00779106
0.00779301
0.00779484
0.00779656
0.00779815
0.00779961
0.00780095
0.00780217
0.00780328
0.00780428
0.00780518
0.00780599
0.00780672
0.00780736
0.00780794
0.00780845
0.00780889
0.00780929
0.00780963
0.00780993
0.00781018
0.0078104
0.00781059
0.00781074
0.00781086
0.00781096
0.00781103
0.00781108
0.0078111
0.0078111
0.00781108
0.00781103
0.00781096
0.00781086
0.00781074
0.00781059
0.0078104
0.00781018
0.00780993
0.00780963
0.00780929
0.00780889
0.00780845
0.00780794
0.00780736
0.00780672
0.00780599
0.00780518
0.00780428
0.00780328
0.00780217
0.00780095
0.00779961
0.00779815
0.00779656
0.00779484
0.00779301
0.00779106
0.00778892
0.00814133
0.00814365
0.00814577
0.00814777
0.00814964
0.00815137
0.00815297
0.00815443
0.00815576
0.00815697
0.00815806
0.00815904
0.00815993
0.00816072
0.00816142
0.00816204
0.0081626
0.00816309
0.00816351
0.00816389
0.00816421
0.00816449
0.00816473
0.00816493
0.0081651
0.00816524
0.00816534
0.00816542
0.00816547
0.0081655
0.0081655
0.00816547
0.00816542
0.00816534
0.00816524
0.0081651
0.00816493
0.00816473
0.00816449
0.00816421
0.00816389
0.00816351
0.00816309
0.0081626
0.00816204
0.00816142
0.00816072
0.00815993
0.00815904
0.00815806
0.00815697
0.00815576
0.00815443
0.00815297
0.00815137
0.00814964
0.00814777
0.00814577
0.00814365
0.00814133
0.00855603
0.00855858
0.00856092
0.00856312
0.00856518
0.00856709
0.00856885
0.00857046
0.00857193
0.00857326
0.00857447
0.00857555
0.00857653
0.0085774
0.00857817
0.00857886
0.00857947
0.00858001
0.00858048
0.0085809
0.00858126
0.00858157
0.00858183
0.00858205
0.00858224
0.00858239
0.0085825
0.00858259
0.00858265
0.00858268
0.00858268
0.00858265
0.00858259
0.0085825
0.00858239
0.00858224
0.00858205
0.00858183
0.00858157
0.00858126
0.0085809
0.00858048
0.00858001
0.00857947
0.00857886
0.00857817
0.0085774
0.00857653
0.00857555
0.00857447
0.00857326
0.00857193
0.00857046
0.00856885
0.00856709
0.00856518
0.00856312
0.00856092
0.00855858
0.00855603
0.00905166
0.00905451
0.00905712
0.00905959
0.00906189
0.00906403
0.009066
0.0090678
0.00906944
0.00907094
0.00907229
0.0090735
0.00907459
0.00907557
0.00907644
0.00907721
0.00907789
0.0090785
0.00907903
0.00907949
0.00907989
0.00908024
0.00908053
0.00908078
0.00908099
0.00908116
0.00908129
0.00908139
0.00908145
0.00908148
0.00908148
0.00908145
0.00908139
0.00908129
0.00908116
0.00908099
0.00908078
0.00908053
0.00908024
0.00907989
0.00907949
0.00907903
0.0090785
0.00907789
0.00907721
0.00907644
0.00907557
0.00907459
0.0090735
0.00907229
0.00907094
0.00906944
0.0090678
0.009066
0.00906403
0.00906189
0.00905959
0.00905712
0.00905451
0.00905166
0.00965497
0.0096582
0.00966117
0.00966397
0.0096666
0.00966904
0.00967128
0.00967334
0.00967521
0.00967691
0.00967845
0.00967983
0.00968108
0.00968219
0.00968318
0.00968407
0.00968485
0.00968553
0.00968614
0.00968667
0.00968712
0.00968752
0.00968786
0.00968814
0.00968838
0.00968857
0.00968872
0.00968883
0.0096889
0.00968894
0.00968894
0.0096889
0.00968883
0.00968872
0.00968857
0.00968838
0.00968814
0.00968786
0.00968752
0.00968712
0.00968667
0.00968614
0.00968553
0.00968485
0.00968407
0.00968318
0.00968219
0.00968108
0.00967983
0.00967845
0.00967691
0.00967521
0.00967334
0.00967128
0.00966904
0.0096666
0.00966397
0.00966117
0.0096582
0.00965497
0.0104049
0.0104087
0.0104121
0.0104154
0.0104184
0.0104213
0.0104239
0.0104263
0.0104285
0.0104305
0.0104322
0.0104339
0.0104353
0.0104366
0.0104378
0.0104388
0.0104397
0.0104405
0.0104412
0.0104418
0.0104424
0.0104428
0.0104432
0.0104435
0.0104438
0.010444
0.0104442
0.0104444
0.0104444
0.0104445
0.0104445
0.0104444
0.0104444
0.0104442
0.010444
0.0104438
0.0104435
0.0104432
0.0104428
0.0104424
0.0104418
0.0104412
0.0104405
0.0104397
0.0104388
0.0104378
0.0104366
0.0104353
0.0104339
0.0104322
0.0104305
0.0104285
0.0104263
0.0104239
0.0104213
0.0104184
0.0104154
0.0104121
0.0104087
0.0104049
0.0113586
0.0113631
0.0113672
0.0113711
0.0113747
0.0113781
0.0113812
0.0113841
0.0113867
0.0113891
0.0113912
0.0113931
0.0113949
0.0113964
0.0113978
0.011399
0.0114001
0.0114011
0.0114019
0.0114027
0.0114033
0.0114038
0.0114043
0.0114047
0.011405
0.0114053
0.0114055
0.0114057
0.0114058
0.0114058
0.0114058
0.0114058
0.0114057
0.0114055
0.0114053
0.011405
0.0114047
0.0114043
0.0114038
0.0114033
0.0114027
0.0114019
0.0114011
0.0114001
0.011399
0.0113978
0.0113964
0.0113949
0.0113931
0.0113912
0.0113891
0.0113867
0.0113841
0.0113812
0.0113781
0.0113747
0.0113711
0.0113672
0.0113631
0.0113586
0.012598
0.0126033
0.0126084
0.0126131
0.0126176
0.0126217
0.0126256
0.0126291
0.0126323
0.0126352
0.0126378
0.0126402
0.0126423
0.0126442
0.0126459
0.0126474
0.0126487
0.0126499
0.0126509
0.0126518
0.0126526
0.0126533
0.0126539
0.0126543
0.0126548
0.0126551
0.0126553
0.0126555
0.0126557
0.0126557
0.0126557
0.0126557
0.0126555
0.0126553
0.0126551
0.0126548
0.0126543
0.0126539
0.0126533
0.0126526
0.0126518
0.0126509
0.0126499
0.0126487
0.0126474
0.0126459
0.0126442
0.0126423
0.0126402
0.0126378
0.0126352
0.0126323
0.0126291
0.0126256
0.0126217
0.0126176
0.0126131
0.0126084
0.0126033
0.012598
0.014234
0.0142407
0.0142469
0.0142529
0.0142585
0.0142637
0.0142685
0.0142728
0.0142768
0.0142805
0.0142838
0.0142867
0.0142894
0.0142918
0.0142939
0.0142958
0.0142974
0.0142989
0.0143002
0.0143013
0.0143023
0.0143032
0.0143039
0.0143045
0.014305
0.0143054
0.0143057
0.014306
0.0143061
0.0143062
0.0143062
0.0143061
0.014306
0.0143057
0.0143054
0.014305
0.0143045
0.0143039
0.0143032
0.0143023
0.0143013
0.0143002
0.0142989
0.0142974
0.0142958
0.0142939
0.0142918
0.0142894
0.0142867
0.0142838
0.0142805
0.0142768
0.0142728
0.0142685
0.0142637
0.0142585
0.0142529
0.0142469
0.0142407
0.014234
0.0164025
0.0164109
0.0164188
0.0164263
0.0164334
0.01644
0.016446
0.0164516
0.0164566
0.0164612
0.0164654
0.0164692
0.0164725
0.0164755
0.0164782
0.0164806
0.0164827
0.0164846
0.0164862
0.0164877
0.0164889
0.01649
0.0164909
0.0164917
0.0164923
0.0164928
0.0164932
0.0164935
0.0164937
0.0164938
0.0164938
0.0164937
0.0164935
0.0164932
0.0164928
0.0164923
0.0164917
0.0164909
0.01649
0.0164889
0.0164877
0.0164862
0.0164846
0.0164827
0.0164806
0.0164782
0.0164755
0.0164725
0.0164692
0.0164654
0.0164612
0.0164566
0.0164516
0.016446
0.01644
0.0164334
0.0164263
0.0164188
0.0164109
0.0164025
0.0192429
0.0192535
0.0192635
0.019273
0.0192819
0.0192902
0.0192978
0.0193048
0.0193112
0.019317
0.0193223
0.019327
0.0193312
0.019335
0.0193384
0.0193414
0.0193441
0.0193465
0.0193485
0.0193503
0.0193519
0.0193533
0.0193544
0.0193554
0.0193562
0.0193569
0.0193574
0.0193578
0.019358
0.0193581
0.0193581
0.019358
0.0193578
0.0193574
0.0193569
0.0193562
0.0193554
0.0193544
0.0193533
0.0193519
0.0193503
0.0193485
0.0193465
0.0193441
0.0193414
0.0193384
0.019335
0.0193312
0.019327
0.0193223
0.019317
0.0193112
0.0193048
0.0192978
0.0192902
0.0192819
0.019273
0.0192635
0.0192535
0.0192429
0.0228609
0.0228741
0.0228865
0.0228982
0.0229093
0.0229195
0.022929
0.0229377
0.0229456
0.0229527
0.0229592
0.0229651
0.0229704
0.0229751
0.0229793
0.022983
0.0229863
0.0229892
0.0229918
0.022994
0.022996
0.0229977
0.0229991
0.0230003
0.0230013
0.0230021
0.0230028
0.0230032
0.0230036
0.0230037
0.0230037
0.0230036
0.0230032
0.0230028
0.0230021
0.0230013
0.0230003
0.0229991
0.0229977
0.022996
0.022994
0.0229918
0.0229892
0.0229863
0.022983
0.0229793
0.0229751
0.0229704
0.0229651
0.0229592
0.0229527
0.0229456
0.0229377
0.022929
0.0229195
0.0229093
0.0228982
0.0228865
0.0228741
0.0228609
0.0272898
0.0273057
0.0273207
0.0273349
0.0273482
0.0273605
0.0273719
0.0273823
0.0273918
0.0274005
0.0274083
0.0274153
0.0274217
0.0274273
0.0274324
0.0274369
0.0274409
0.0274444
0.0274475
0.0274502
0.0274525
0.0274545
0.0274563
0.0274577
0.0274589
0.0274599
0.0274607
0.0274613
0.0274616
0.0274618
0.0274618
0.0274616
0.0274613
0.0274607
0.0274599
0.0274589
0.0274577
0.0274563
0.0274545
0.0274525
0.0274502
0.0274475
0.0274444
0.0274409
0.0274369
0.0274324
0.0274273
0.0274217
0.0274153
0.0274083
0.0274005
0.0273918
0.0273823
0.0273719
0.0273605
0.0273482
0.0273349
0.0273207
0.0273057
0.0272898
0.0324763
0.0324949
0.0325125
0.032529
0.0325445
0.0325589
0.0325722
0.0325843
0.0325954
0.0326054
0.0326146
0.0326228
0.0326302
0.0326368
0.0326427
0.0326479
0.0326525
0.0326566
0.0326602
0.0326634
0.0326661
0.0326685
0.0326705
0.0326722
0.0326736
0.0326748
0.0326757
0.0326763
0.0326768
0.032677
0.032677
0.0326768
0.0326763
0.0326757
0.0326748
0.0326736
0.0326722
0.0326705
0.0326685
0.0326661
0.0326634
0.0326602
0.0326566
0.0326525
0.0326479
0.0326427
0.0326368
0.0326302
0.0326228
0.0326146
0.0326054
0.0325954
0.0325843
0.0325722
0.0325589
0.0325445
0.032529
0.0325125
0.0324949
0.0324763
0.0383025
0.0383238
0.0383437
0.0383625
0.03838
0.0383963