/*--------------------------------*- C++ -*----------------------------------*\
| =========                 |                                                 |
| \\      /  F ield         | foam-extend: Open Source CFD                    |
|  \\    /   O peration     | Version:     4.0                                |
|   \\  /    A nd           | Web:         http://www.foam-extend.org         |
|    \\/     M anipulation  |                                                 |
\*---------------------------------------------------------------------------*/
FoamFile
{
    version     2.0;
    format      ascii;
    class       volScalarField;
    location    "1870";
    object      psiE;
}
// * * * * * * * * * * * * * * * * * * * * * * * * * * * * * * * * * * * * * //

dimensions      [0 0 0 0 0 0 0];

internalField   nonuniform List<scalar> 
6960
(
0.333804
0.333808
0.333814
0.333819
0.333825
0.33383
0.333835
0.333839
0.333843
0.333847
0.33385
0.333853
0.333856
0.333858
0.33386
0.333862
0.333864
0.333865
0.333867
0.333868
0.333869
0.333869
0.33387
0.333871
0.333871
0.333872
0.333872
0.333872
0.333872
0.333873
0.333873
0.333872
0.333872
0.333872
0.333872
0.333871
0.333871
0.33387
0.333869
0.333869
0.333868
0.333867
0.333865
0.333864
0.333862
0.33386
0.333858
0.333856
0.333853
0.33385
0.333847
0.333843
0.333839
0.333835
0.33383
0.333825
0.333819
0.333814
0.333808
0.333804
0.831308
0.831326
0.831349
0.831372
0.831395
0.831416
0.831435
0.831453
0.831469
0.831484
0.831497
0.831509
0.83152
0.83153
0.831539
0.831546
0.831553
0.831559
0.831564
0.831569
0.831573
0.831576
0.831579
0.831581
0.831584
0.831585
0.831587
0.831587
0.831588
0.831588
0.831588
0.831588
0.831587
0.831587
0.831585
0.831584
0.831581
0.831579
0.831576
0.831573
0.831569
0.831564
0.831559
0.831553
0.831546
0.831539
0.83153
0.83152
0.831509
0.831497
0.831484
0.831469
0.831453
0.831435
0.831416
0.831395
0.831372
0.831349
0.831326
0.831308
1.27882
1.27885
1.2789
1.27895
1.27899
1.27903
1.27907
1.27911
1.27914
1.27917
1.27919
1.27922
1.27924
1.27926
1.27928
1.27929
1.2793
1.27932
1.27933
1.27934
1.27934
1.27935
1.27936
1.27936
1.27936
1.27937
1.27937
1.27937
1.27937
1.27937
1.27937
1.27937
1.27937
1.27937
1.27937
1.27936
1.27936
1.27936
1.27935
1.27934
1.27934
1.27933
1.27932
1.2793
1.27929
1.27928
1.27926
1.27924
1.27922
1.27919
1.27917
1.27914
1.27911
1.27907
1.27903
1.27899
1.27895
1.2789
1.27885
1.27882
1.71204
1.71209
1.71217
1.71224
1.71231
1.71237
1.71243
1.71249
1.71254
1.71259
1.71263
1.71267
1.7127
1.71273
1.71276
1.71278
1.7128
1.71282
1.71284
1.71285
1.71286
1.71288
1.71288
1.71289
1.7129
1.7129
1.71291
1.71291
1.71291
1.71291
1.71291
1.71291
1.71291
1.71291
1.7129
1.7129
1.71289
1.71288
1.71288
1.71286
1.71285
1.71284
1.71282
1.7128
1.71278
1.71276
1.71273
1.7127
1.71267
1.71263
1.71259
1.71254
1.71249
1.71243
1.71237
1.71231
1.71224
1.71217
1.71209
1.71204
2.14491
2.14499
2.14508
2.14519
2.14528
2.14538
2.14546
2.14554
2.14561
2.14568
2.14573
2.14579
2.14583
2.14588
2.14591
2.14595
2.14598
2.146
2.14603
2.14605
2.14606
2.14608
2.14609
2.1461
2.14611
2.14612
2.14612
2.14613
2.14613
2.14613
2.14613
2.14613
2.14613
2.14612
2.14612
2.14611
2.1461
2.14609
2.14608
2.14606
2.14605
2.14603
2.146
2.14598
2.14595
2.14591
2.14588
2.14583
2.14579
2.14573
2.14568
2.14561
2.14554
2.14546
2.14538
2.14528
2.14519
2.14508
2.14499
2.14491
2.58323
2.58333
2.58346
2.58359
2.58372
2.58384
2.58395
2.58405
2.58414
2.58423
2.5843
2.58437
2.58443
2.58449
2.58454
2.58458
2.58462
2.58465
2.58468
2.58471
2.58473
2.58475
2.58477
2.58478
2.58479
2.5848
2.58481
2.58481
2.58482
2.58482
2.58482
2.58482
2.58481
2.58481
2.5848
2.58479
2.58478
2.58477
2.58475
2.58473
2.58471
2.58468
2.58465
2.58462
2.58458
2.58454
2.58449
2.58443
2.58437
2.5843
2.58423
2.58414
2.58405
2.58395
2.58384
2.58372
2.58359
2.58346
2.58333
2.58323
3.02945
3.02958
3.02974
3.0299
3.03006
3.03021
3.03034
3.03047
3.03058
3.03069
3.03078
3.03087
3.03094
3.03101
3.03107
3.03113
3.03117
3.03122
3.03125
3.03128
3.03131
3.03134
3.03136
3.03137
3.03139
3.0314
3.03141
3.03142
3.03142
3.03142
3.03142
3.03142
3.03142
3.03141
3.0314
3.03139
3.03137
3.03136
3.03134
3.03131
3.03128
3.03125
3.03122
3.03117
3.03113
3.03107
3.03101
3.03094
3.03087
3.03078
3.03069
3.03058
3.03047
3.03034
3.03021
3.03006
3.0299
3.02974
3.02958
3.02945
3.48462
3.48477
3.48496
3.48515
3.48534
3.48552
3.48568
3.48583
3.48597
3.4861
3.48621
3.48631
3.4864
3.48648
3.48656
3.48662
3.48668
3.48673
3.48677
3.48681
3.48684
3.48687
3.4869
3.48692
3.48693
3.48695
3.48696
3.48697
3.48697
3.48698
3.48698
3.48697
3.48697
3.48696
3.48695
3.48693
3.48692
3.4869
3.48687
3.48684
3.48681
3.48677
3.48673
3.48668
3.48662
3.48656
3.48648
3.4864
3.48631
3.48621
3.4861
3.48597
3.48583
3.48568
3.48552
3.48534
3.48515
3.48496
3.48477
3.48462
3.94915
3.94933
3.94955
3.94978
3.95
3.95021
3.9504
3.95057
3.95073
3.95088
3.95101
3.95113
3.95124
3.95133
3.95141
3.95149
3.95156
3.95161
3.95167
3.95171
3.95175
3.95178
3.95181
3.95184
3.95186
3.95187
3.95189
3.9519
3.9519
3.9519
3.9519
3.9519
3.9519
3.95189
3.95187
3.95186
3.95184
3.95181
3.95178
3.95175
3.95171
3.95167
3.95161
3.95156
3.95149
3.95141
3.95133
3.95124
3.95113
3.95101
3.95088
3.95073
3.95057
3.9504
3.95021
3.95
3.94978
3.94955
3.94933
3.94915
4.42323
4.42343
4.42368
4.42395
4.4242
4.42443
4.42465
4.42486
4.42504
4.4252
4.42536
4.42549
4.42561
4.42572
4.42582
4.4259
4.42598
4.42605
4.42611
4.42616
4.4262
4.42624
4.42627
4.4263
4.42632
4.42634
4.42636
4.42637
4.42637
4.42638
4.42638
4.42637
4.42637
4.42636
4.42634
4.42632
4.4263
4.42627
4.42624
4.4262
4.42616
4.42611
4.42605
4.42598
4.4259
4.42582
4.42572
4.42561
4.42549
4.42536
4.4252
4.42504
4.42486
4.42465
4.42443
4.4242
4.42395
4.42368
4.42343
4.42323
4.9069
4.90712
4.90741
4.9077
4.90799
4.90826
4.9085
4.90873
4.90894
4.90912
4.90929
4.90945
4.90958
4.90971
4.90981
4.90991
4.91
4.91007
4.91014
4.9102
4.91025
4.91029
4.91033
4.91036
4.91038
4.91041
4.91042
4.91043
4.91044
4.91045
4.91045
4.91044
4.91043
4.91042
4.91041
4.91038
4.91036
4.91033
4.91029
4.91025
4.9102
4.91014
4.91007
4.91
4.90991
4.90981
4.90971
4.90958
4.90945
4.90929
4.90912
4.90894
4.90873
4.9085
4.90826
4.90799
4.9077
4.90741
4.90712
4.9069
5.40015
5.40039
5.40071
5.40104
5.40136
5.40166
5.40193
5.40218
5.40241
5.40262
5.40281
5.40298
5.40313
5.40327
5.40339
5.4035
5.40359
5.40368
5.40375
5.40382
5.40387
5.40392
5.40396
5.404
5.40403
5.40405
5.40407
5.40408
5.40409
5.40409
5.40409
5.40409
5.40408
5.40407
5.40405
5.40403
5.404
5.40396
5.40392
5.40387
5.40382
5.40375
5.40368
5.40359
5.4035
5.40339
5.40327
5.40313
5.40298
5.40281
5.40262
5.40241
5.40218
5.40193
5.40166
5.40136
5.40104
5.40071
5.40039
5.40015
5.90292
5.90319
5.90354
5.9039
5.90425
5.90458
5.90488
5.90516
5.90542
5.90565
5.90585
5.90604
5.90621
5.90636
5.9065
5.90661
5.90672
5.90681
5.90689
5.90696
5.90703
5.90708
5.90713
5.90716
5.9072
5.90722
5.90724
5.90726
5.90727
5.90727
5.90727
5.90727
5.90726
5.90724
5.90722
5.9072
5.90716
5.90713
5.90708
5.90703
5.90696
5.90689
5.90681
5.90672
5.90661
5.9065
5.90636
5.90621
5.90604
5.90585
5.90565
5.90542
5.90516
5.90488
5.90458
5.90425
5.9039
5.90354
5.90319
5.90292
6.41513
6.41543
6.41581
6.4162
6.41659
6.41694
6.41728
6.41758
6.41786
6.41811
6.41834
6.41854
6.41873
6.41889
6.41904
6.41917
6.41928
6.41938
6.41947
6.41955
6.41962
6.41968
6.41973
6.41977
6.4198
6.41983
6.41985
6.41987
6.41988
6.41988
6.41988
6.41988
6.41987
6.41985
6.41983
6.4198
6.41977
6.41973
6.41968
6.41962
6.41955
6.41947
6.41938
6.41928
6.41917
6.41904
6.41889
6.41873
6.41854
6.41834
6.41811
6.41786
6.41758
6.41728
6.41694
6.41659
6.4162
6.41581
6.41543
6.41513
6.93665
6.93697
6.93739
6.93782
6.93823
6.93862
6.93898
6.93931
6.93961
6.93989
6.94013
6.94036
6.94055
6.94073
6.94089
6.94103
6.94116
6.94127
6.94137
6.94145
6.94152
6.94159
6.94164
6.94169
6.94172
6.94175
6.94178
6.9418
6.94181
6.94181
6.94181
6.94181
6.9418
6.94178
6.94175
6.94172
6.94169
6.94164
6.94159
6.94152
6.94145
6.94137
6.94127
6.94116
6.94103
6.94089
6.94073
6.94055
6.94036
6.94013
6.93989
6.93961
6.93931
6.93898
6.93862
6.93823
6.93782
6.93739
6.93697
6.93665
7.46733
7.46767
7.46812
7.46859
7.46903
7.46945
7.46984
7.4702
7.47052
7.47082
7.47108
7.47132
7.47154
7.47173
7.4719
7.47205
7.47219
7.47231
7.47241
7.4725
7.47258
7.47265
7.47271
7.47276
7.4728
7.47283
7.47286
7.47287
7.47289
7.47289
7.47289
7.47289
7.47287
7.47286
7.47283
7.4728
7.47276
7.47271
7.47265
7.47258
7.4725
7.47241
7.47231
7.47219
7.47205
7.4719
7.47173
7.47154
7.47132
7.47108
7.47082
7.47052
7.4702
7.46984
7.46945
7.46903
7.46859
7.46812
7.46767
7.46733
8.00695
8.00733
8.00781
8.0083
8.00878
8.00923
8.00965
8.01003
8.01038
8.01069
8.01098
8.01124
8.01147
8.01167
8.01186
8.01202
8.01217
8.01229
8.01241
8.0125
8.01259
8.01266
8.01272
8.01278
8.01282
8.01285
8.01288
8.0129
8.01292
8.01292
8.01292
8.01292
8.0129
8.01288
8.01285
8.01282
8.01278
8.01272
8.01266
8.01259
8.0125
8.01241
8.01229
8.01217
8.01202
8.01186
8.01167
8.01147
8.01124
8.01098
8.01069
8.01038
8.01003
8.00965
8.00923
8.00878
8.0083
8.00781
8.00733
8.00695
8.55528
8.55568
8.55619
8.55672
8.55723
8.55771
8.55816
8.55857
8.55894
8.55927
8.55958
8.55985
8.5601
8.56032
8.56052
8.56069
8.56084
8.56098
8.5611
8.5612
8.56129
8.56137
8.56144
8.5615
8.56154
8.56158
8.56161
8.56163
8.56165
8.56165
8.56165
8.56165
8.56163
8.56161
8.56158
8.56154
8.5615
8.56144
8.56137
8.56129
8.5612
8.5611
8.56098
8.56084
8.56069
8.56052
8.56032
8.5601
8.55985
8.55958
8.55927
8.55894
8.55857
8.55816
8.55771
8.55723
8.55672
8.55619
8.55568
8.55528
9.11202
9.11244
9.11298
9.11354
9.11409
9.1146
9.11507
9.1155
9.1159
9.11625
9.11658
9.11687
9.11713
9.11736
9.11757
9.11776
9.11792
9.11807
9.11819
9.1183
9.1184
9.11848
9.11855
9.11861
9.11866
9.1187
9.11873
9.11876
9.11877
9.11878
9.11878
9.11877
9.11876
9.11873
9.1187
9.11866
9.11861
9.11855
9.11848
9.1184
9.1183
9.11819
9.11807
9.11792
9.11776
9.11757
9.11736
9.11713
9.11687
9.11658
9.11625
9.1159
9.1155
9.11507
9.1146
9.11409
9.11354
9.11298
9.11244
9.11202
9.67679
9.67724
9.67781
9.67841
9.67898
9.67952
9.68002
9.68048
9.6809
9.68128
9.68162
9.68193
9.6822
9.68245
9.68267
9.68287
9.68304
9.68319
9.68333
9.68344
9.68354
9.68363
9.68371
9.68377
9.68382
9.68386
9.6839
9.68392
9.68394
9.68395
9.68395
9.68394
9.68392
9.6839
9.68386
9.68382
9.68377
9.68371
9.68363
9.68354
9.68344
9.68333
9.68319
9.68304
9.68287
9.68267
9.68245
9.6822
9.68193
9.68162
9.68128
9.6809
9.68048
9.68002
9.67952
9.67898
9.67841
9.67781
9.67724
9.67679
10.2492
10.2497
10.2503
10.2509
10.2515
10.2521
10.2526
10.2531
10.2535
10.2539
10.2543
10.2546
10.2549
10.2552
10.2554
10.2556
10.2558
10.2559
10.2561
10.2562
10.2563
10.2564
10.2565
10.2565
10.2566
10.2566
10.2567
10.2567
10.2567
10.2567
10.2567
10.2567
10.2567
10.2567
10.2566
10.2566
10.2565
10.2565
10.2564
10.2563
10.2562
10.2561
10.2559
10.2558
10.2556
10.2554
10.2552
10.2549
10.2546
10.2543
10.2539
10.2535
10.2531
10.2526
10.2521
10.2515
10.2509
10.2503
10.2497
10.2492
10.8287
10.8292
10.8298
10.8305
10.8311
10.8317
10.8323
10.8328
10.8333
10.8337
10.8341
10.8344
10.8347
10.835
10.8352
10.8354
10.8356
10.8358
10.8359
10.8361
10.8362
10.8363
10.8364
10.8364
10.8365
10.8365
10.8366
10.8366
10.8366
10.8366
10.8366
10.8366
10.8366
10.8366
10.8365
10.8365
10.8364
10.8364
10.8363
10.8362
10.8361
10.8359
10.8358
10.8356
10.8354
10.8352
10.835
10.8347
10.8344
10.8341
10.8337
10.8333
10.8328
10.8323
10.8317
10.8311
10.8305
10.8298
10.8292
10.8287
11.4148
11.4153
11.416
11.4167
11.4173
11.418
11.4185
11.4191
11.4195
11.42
11.4204
11.4207
11.421
11.4213
11.4216
11.4218
11.422
11.4222
11.4223
11.4225
11.4226
11.4227
11.4228
11.4229
11.4229
11.423
11.423
11.423
11.4231
11.4231
11.4231
11.4231
11.423
11.423
11.423
11.4229
11.4229
11.4228
11.4227
11.4226
11.4225
11.4223
11.4222
11.422
11.4218
11.4216
11.4213
11.421
11.4207
11.4204
11.42
11.4195
11.4191
11.4185
11.418
11.4173
11.4167
11.416
11.4153
11.4148
12.0068
12.0073
12.008
12.0087
12.0094
12.01
12.0106
12.0112
12.0117
12.0121
12.0126
12.0129
12.0133
12.0136
12.0138
12.0141
12.0143
12.0145
12.0146
12.0148
12.0149
12.015
12.0151
12.0152
12.0152
12.0153
12.0153
12.0153
12.0154
12.0154
12.0154
12.0154
12.0153
12.0153
12.0153
12.0152
12.0152
12.0151
12.015
12.0149
12.0148
12.0146
12.0145
12.0143
12.0141
12.0138
12.0136
12.0133
12.0129
12.0126
12.0121
12.0117
12.0112
12.0106
12.01
12.0094
12.0087
12.008
12.0073
12.0068
12.6038
12.6044
12.6051
12.6058
12.6066
12.6072
12.6079
12.6084
12.6089
12.6094
12.6098
12.6102
12.6106
12.6109
12.6112
12.6114
12.6116
12.6118
12.612
12.6121
12.6123
12.6124
12.6125
12.6125
12.6126
12.6127
12.6127
12.6127
12.6127
12.6128
12.6128
12.6127
12.6127
12.6127
12.6127
12.6126
12.6125
12.6125
12.6124
12.6123
12.6121
12.612
12.6118
12.6116
12.6114
12.6112
12.6109
12.6106
12.6102
12.6098
12.6094
12.6089
12.6084
12.6079
12.6072
12.6066
12.6058
12.6051
12.6044
12.6038
13.2051
13.2057
13.2064
13.2072
13.2079
13.2086
13.2093
13.2099
13.2104
13.2109
13.2113
13.2117
13.2121
13.2124
13.2127
13.2129
13.2132
13.2134
13.2135
13.2137
13.2138
13.2139
13.214
13.2141
13.2142
13.2142
13.2143
13.2143
13.2143
13.2143
13.2143
13.2143
13.2143
13.2143
13.2142
13.2142
13.2141
13.214
13.2139
13.2138
13.2137
13.2135
13.2134
13.2132
13.2129
13.2127
13.2124
13.2121
13.2117
13.2113
13.2109
13.2104
13.2099
13.2093
13.2086
13.2079
13.2072
13.2064
13.2057
13.2051
13.8095
13.8101
13.8109
13.8117
13.8125
13.8132
13.8139
13.8145
13.815
13.8155
13.816
13.8164
13.8168
13.8171
13.8174
13.8176
13.8179
13.8181
13.8183
13.8184
13.8185
13.8187
13.8188
13.8188
13.8189
13.819
13.819
13.819
13.8191
13.8191
13.8191
13.8191
13.819
13.819
13.819
13.8189
13.8188
13.8188
13.8187
13.8185
13.8184
13.8183
13.8181
13.8179
13.8176
13.8174
13.8171
13.8168
13.8164
13.816
13.8155
13.815
13.8145
13.8139
13.8132
13.8125
13.8117
13.8109
13.8101
13.8095
14.416
14.4166
14.4174
14.4182
14.419
14.4197
14.4204
14.421
14.4216
14.4221
14.4226
14.423
14.4234
14.4237
14.424
14.4243
14.4245
14.4248
14.4249
14.4251
14.4252
14.4254
14.4255
14.4255
14.4256
14.4257
14.4257
14.4258
14.4258
14.4258
14.4258
14.4258
14.4258
14.4257
14.4257
14.4256
14.4255
14.4255
14.4254
14.4252
14.4251
14.4249
14.4248
14.4245
14.4243
14.424
14.4237
14.4234
14.423
14.4226
14.4221
14.4216
14.421
14.4204
14.4197
14.419
14.4182
14.4174
14.4166
14.416
15.0231
15.0237
15.0245
15.0254
15.0262
15.0269
15.0276
15.0283
15.0288
15.0294
15.0298
15.0303
15.0307
15.031
15.0313
15.0316
15.0318
15.032
15.0322
15.0324
15.0325
15.0327
15.0328
15.0329
15.0329
15.033
15.033
15.0331
15.0331
15.0331
15.0331
15.0331
15.0331
15.033
15.033
15.0329
15.0329
15.0328
15.0327
15.0325
15.0324
15.0322
15.032
15.0318
15.0316
15.0313
15.031
15.0307
15.0303
15.0298
15.0294
15.0288
15.0283
15.0276
15.0269
15.0262
15.0254
15.0245
15.0237
15.0231
15.6292
15.6299
15.6307
15.6316
15.6324
15.6331
15.6338
15.6345
15.6351
15.6356
15.6361
15.6366
15.637
15.6373
15.6376
15.6379
15.6381
15.6384
15.6386
15.6387
15.6389
15.639
15.6391
15.6392
15.6393
15.6393
15.6394
15.6394
15.6394
15.6394
15.6394
15.6394
15.6394
15.6394
15.6393
15.6393
15.6392
15.6391
15.639
15.6389
15.6387
15.6386
15.6384
15.6381
15.6379
15.6376
15.6373
15.637
15.6366
15.6361
15.6356
15.6351
15.6345
15.6338
15.6331
15.6324
15.6316
15.6307
15.6299
15.6292
16.2326
16.2333
16.2341
16.235
16.2358
16.2366
16.2373
16.238
16.2386
16.2391
16.2396
16.2401
16.2405
16.2408
16.2411
16.2414
16.2417
16.2419
16.2421
16.2423
16.2424
16.2425
16.2426
16.2427
16.2428
16.2429
16.2429
16.2429
16.243
16.243
16.243
16.243
16.2429
16.2429
16.2429
16.2428
16.2427
16.2426
16.2425
16.2424
16.2423
16.2421
16.2419
16.2417
16.2414
16.2411
16.2408
16.2405
16.2401
16.2396
16.2391
16.2386
16.238
16.2373
16.2366
16.2358
16.235
16.2341
16.2333
16.2326
16.8312
16.8319
16.8327
16.8336
16.8344
16.8352
16.8359
16.8366
16.8372
16.8377
16.8382
16.8387
16.8391
16.8394
16.8398
16.8401
16.8403
16.8405
16.8407
16.8409
16.841
16.8412
16.8413
16.8414
16.8414
16.8415
16.8416
16.8416
16.8416
16.8416
16.8416
16.8416
16.8416
16.8416
16.8415
16.8414
16.8414
16.8413
16.8412
16.841
16.8409
16.8407
16.8405
16.8403
16.8401
16.8398
16.8394
16.8391
16.8387
16.8382
16.8377
16.8372
16.8366
16.8359
16.8352
16.8344
16.8336
16.8327
16.8319
16.8312
17.4225
17.4231
17.424
17.4249
17.4257
17.4265
17.4272
17.4279
17.4285
17.429
17.4295
17.43
17.4304
17.4307
17.4311
17.4314
17.4316
17.4318
17.432
17.4322
17.4323
17.4325
17.4326
17.4327
17.4327
17.4328
17.4329
17.4329
17.4329
17.4329
17.4329
17.4329
17.4329
17.4329
17.4328
17.4327
17.4327
17.4326
17.4325
17.4323
17.4322
17.432
17.4318
17.4316
17.4314
17.4311
17.4307
17.4304
17.43
17.4295
17.429
17.4285
17.4279
17.4272
17.4265
17.4257
17.4249
17.424
17.4231
17.4225
18.0036
18.0043
18.0051
18.006
18.0068
18.0076
18.0083
18.009
18.0096
18.0102
18.0107
18.0111
18.0115
18.0119
18.0122
18.0125
18.0127
18.0129
18.0131
18.0133
18.0134
18.0136
18.0137
18.0138
18.0138
18.0139
18.014
18.014
18.014
18.014
18.014
18.014
18.014
18.014
18.0139
18.0138
18.0138
18.0137
18.0136
18.0134
18.0133
18.0131
18.0129
18.0127
18.0125
18.0122
18.0119
18.0115
18.0111
18.0107
18.0102
18.0096
18.009
18.0083
18.0076
18.0068
18.006
18.0051
18.0043
18.0036
18.5713
18.572
18.5728
18.5737
18.5745
18.5753
18.576
18.5766
18.5772
18.5778
18.5783
18.5787
18.5791
18.5794
18.5798
18.58
18.5803
18.5805
18.5807
18.5809
18.581
18.5811
18.5812
18.5813
18.5814
18.5815
18.5815
18.5815
18.5816
18.5816
18.5816
18.5816
18.5815
18.5815
18.5815
18.5814
18.5813
18.5812
18.5811
18.581
18.5809
18.5807
18.5805
18.5803
18.58
18.5798
18.5794
18.5791
18.5787
18.5783
18.5778
18.5772
18.5766
18.576
18.5753
18.5745
18.5737
18.5728
18.572
18.5713
19.1216
19.1223
19.1231
19.1239
19.1247
19.1255
19.1262
19.1268
19.1274
19.1279
19.1284
19.1288
19.1292
19.1296
19.1299
19.1301
19.1304
19.1306
19.1308
19.1309
19.1311
19.1312
19.1313
19.1314
19.1315
19.1315
19.1316
19.1316
19.1316
19.1316
19.1316
19.1316
19.1316
19.1316
19.1315
19.1315
19.1314
19.1313
19.1312
19.1311
19.1309
19.1308
19.1306
19.1304
19.1301
19.1299
19.1296
19.1292
19.1288
19.1284
19.1279
19.1274
19.1268
19.1262
19.1255
19.1247
19.1239
19.1231
19.1223
19.1216
19.6498
19.6505
19.6513
19.6521
19.6528
19.6536
19.6542
19.6549
19.6554
19.6559
19.6564
19.6568
19.6572
19.6575
19.6578
19.6581
19.6583
19.6585
19.6587
19.6588
19.659
19.6591
19.6592
19.6593
19.6593
19.6594
19.6594
19.6595
19.6595
19.6595
19.6595
19.6595
19.6595
19.6594
19.6594
19.6593
19.6593
19.6592
19.6591
19.659
19.6588
19.6587
19.6585
19.6583
19.6581
19.6578
19.6575
19.6572
19.6568
19.6564
19.6559
19.6554
19.6549
19.6542
19.6536
19.6528
19.6521
19.6513
19.6505
19.6498
20.1505
20.1511
20.1518
20.1526
20.1533
20.154
20.1546
20.1552
20.1557
20.1562
20.1567
20.157
20.1574
20.1577
20.158
20.1582
20.1585
20.1586
20.1588
20.159
20.1591
20.1592
20.1593
20.1594
20.1594
20.1595
20.1595
20.1596
20.1596
20.1596
20.1596
20.1596
20.1596
20.1595
20.1595
20.1594
20.1594
20.1593
20.1592
20.1591
20.159
20.1588
20.1586
20.1585
20.1582
20.158
20.1577
20.1574
20.157
20.1567
20.1562
20.1557
20.1552
20.1546
20.154
20.1533
20.1526
20.1518
20.1511
20.1505
20.617
20.6176
20.6183
20.619
20.6197
20.6203
20.6209
20.6214
20.6219
20.6224
20.6228
20.6231
20.6235
20.6238
20.624
20.6242
20.6244
20.6246
20.6248
20.6249
20.625
20.6251
20.6252
20.6253
20.6254
20.6254
20.6254
20.6255
20.6255
20.6255
20.6255
20.6255
20.6255
20.6254
20.6254
20.6254
20.6253
20.6252
20.6251
20.625
20.6249
20.6248
20.6246
20.6244
20.6242
20.624
20.6238
20.6235
20.6231
20.6228
20.6224
20.6219
20.6214
20.6209
20.6203
20.6197
20.619
20.6183
20.6176
20.617
21.0425
21.043
21.0437
21.0443
21.0449
21.0455
21.046
21.0465
21.0469
21.0473
21.0477
21.048
21.0483
21.0485
21.0488
21.049
21.0491
21.0493
21.0494
21.0496
21.0497
21.0498
21.0498
21.0499
21.05
21.05
21.05
21.0501
21.0501
21.0501
21.0501
21.0501
21.0501
21.05
21.05
21.05
21.0499
21.0498
21.0498
21.0497
21.0496
21.0494
21.0493
21.0491
21.049
21.0488
21.0485
21.0483
21.048
21.0477
21.0473
21.0469
21.0465
21.046
21.0455
21.0449
21.0443
21.0437
21.043
21.0425
21.42
21.4204
21.4209
21.4215
21.422
21.4225
21.423
21.4234
21.4237
21.4241
21.4244
21.4247
21.4249
21.4251
21.4253
21.4255
21.4257
21.4258
21.4259
21.426
21.4261
21.4262
21.4263
21.4263
21.4264
21.4264
21.4264
21.4265
21.4265
21.4265
21.4265
21.4265
21.4265
21.4264
21.4264
21.4264
21.4263
21.4263
21.4262
21.4261
21.426
21.4259
21.4258
21.4257
21.4255
21.4253
21.4251
21.4249
21.4247
21.4244
21.4241
21.4237
21.4234
21.423
21.4225
21.422
21.4215
21.4209
21.4204
21.42
21.7442
21.7445
21.745
21.7454
21.7459
21.7463
21.7466
21.747
21.7473
21.7476
21.7478
21.748
21.7482
21.7484
21.7486
21.7487
21.7489
21.749
21.7491
21.7492
21.7492
21.7493
21.7493
21.7494
21.7494
21.7495
21.7495
21.7495
21.7495
21.7495
21.7495
21.7495
21.7495
21.7495
21.7495
21.7494
21.7494
21.7493
21.7493
21.7492
21.7492
21.7491
21.749
21.7489
21.7487
21.7486
21.7484
21.7482
21.748
21.7478
21.7476
21.7473
21.747
21.7466
21.7463
21.7459
21.7454
21.745
21.7445
21.7442
22.0136
22.0139
22.0142
22.0146
22.0149
22.0152
22.0155
22.0158
22.016
22.0163
22.0165
22.0166
22.0168
22.0169
22.0171
22.0172
22.0173
22.0173
22.0174
22.0175
22.0175
22.0176
22.0176
22.0177
22.0177
22.0177
22.0177
22.0178
22.0178
22.0178
22.0178
22.0178
22.0178
22.0177
22.0177
22.0177
22.0177
22.0176
22.0176
22.0175
22.0175
22.0174
22.0173
22.0173
22.0172
22.0171
22.0169
22.0168
22.0166
22.0165
22.0163
22.016
22.0158
22.0155
22.0152
22.0149
22.0146
22.0142
22.0139
22.0136
22.2315
22.2317
22.232
22.2322
22.2325
22.2327
22.2329
22.2331
22.2333
22.2335
22.2336
22.2337
22.2338
22.234
22.234
22.2341
22.2342
22.2343
22.2343
22.2344
22.2344
22.2344
22.2345
22.2345
22.2345
22.2345
22.2345
22.2346
22.2346
22.2346
22.2346
22.2346
22.2346
22.2345
22.2345
22.2345
22.2345
22.2345
22.2344
22.2344
22.2344
22.2343
22.2343
22.2342
22.2341
22.234
22.234
22.2338
22.2337
22.2336
22.2335
22.2333
22.2331
22.2329
22.2327
22.2325
22.2322
22.232
22.2317
22.2315
22.4053
22.4054
22.4056
22.4057
22.4059
22.4061
22.4062
22.4064
22.4065
22.4066
22.4067
22.4068
22.4069
22.407
22.407
22.4071
22.4072
22.4072
22.4072
22.4073
22.4073
22.4073
22.4073
22.4074
22.4074
22.4074
22.4074
22.4074
22.4074
22.4074
22.4074
22.4074
22.4074
22.4074
22.4074
22.4074
22.4074
22.4073
22.4073
22.4073
22.4073
22.4072
22.4072
22.4072
22.4071
22.407
22.407
22.4069
22.4068
22.4067
22.4066
22.4065
22.4064
22.4062
22.4061
22.4059
22.4057
22.4056
22.4054
22.4053
22.5443
22.5444
22.5445
22.5446
22.5447
22.5449
22.545
22.5451
22.5452
22.5452
22.5453
22.5454
22.5454
22.5455
22.5455
22.5456
22.5456
22.5456
22.5457
22.5457
22.5457
22.5457
22.5457
22.5457
22.5457
22.5458
22.5458
22.5458
22.5458
22.5458
22.5458
22.5458
22.5458
22.5458
22.5458
22.5457
22.5457
22.5457
22.5457
22.5457
22.5457
22.5457
22.5456
22.5456
22.5456
22.5455
22.5455
22.5454
22.5454
22.5453
22.5452
22.5452
22.5451
22.545
22.5449
22.5447
22.5446
22.5445
22.5444
22.5443
22.6577
22.6578
22.6578
22.6579
22.658
22.6581
22.6582
22.6582
22.6583
22.6583
22.6584
22.6584
22.6585
22.6585
22.6585
22.6586
22.6586
22.6586
22.6586
22.6586
22.6586
22.6587
22.6587
22.6587
22.6587
22.6587
22.6587
22.6587
22.6587
22.6587
22.6587
22.6587
22.6587
22.6587
22.6587
22.6587
22.6587
22.6587
22.6587
22.6586
22.6586
22.6586
22.6586
22.6586
22.6586
22.6585
22.6585
22.6585
22.6584
22.6584
22.6583
22.6583
22.6582
22.6582
22.6581
22.658
22.6579
22.6578
22.6578
22.6577
22.7528
22.7528
22.7529
22.753
22.753
22.7531
22.7531
22.7532
22.7532
22.7532
22.7533
22.7533
22.7533
22.7534
22.7534
22.7534
22.7534
22.7534
22.7534
22.7534
22.7534
22.7534
22.7535
22.7535
22.7535
22.7535
22.7535
22.7535
22.7535
22.7535
22.7535
22.7535
22.7535
22.7535
22.7535
22.7535
22.7535
22.7535
22.7534
22.7534
22.7534
22.7534
22.7534
22.7534
22.7534
22.7534
22.7534
22.7533
22.7533
22.7533
22.7532
22.7532
22.7532
22.7531
22.7531
22.753
22.753
22.7529
22.7528
22.7528
22.8349
22.8349
22.835
22.835
22.835
22.8351
22.8351
22.8351
22.8352
22.8352
22.8352
22.8352
22.8352
22.8352
22.8353
22.8353
22.8353
22.8353
22.8353
22.8353
22.8353
22.8353
22.8353
22.8353
22.8353
22.8353
22.8353
22.8353
22.8353
22.8353
22.8353
22.8353
22.8353
22.8353
22.8353
22.8353
22.8353
22.8353
22.8353
22.8353
22.8353
22.8353
22.8353
22.8353
22.8353
22.8353
22.8352
22.8352
22.8352
22.8352
22.8352
22.8352
22.8351
22.8351
22.8351
22.835
22.835
22.835
22.8349
22.8349
22.9075
22.9075
22.9075
22.9075
22.9076
22.9076
22.9076
22.9076
22.9076
22.9077
22.9077
22.9077
22.9077
22.9077
22.9077
22.9077
22.9077
22.9077
22.9077
22.9077
22.9077
22.9077
22.9077
22.9077
22.9077
22.9077
22.9077
22.9077
22.9077
22.9077
22.9077
22.9077
22.9077
22.9077
22.9077
22.9077
22.9077
22.9077
22.9077
22.9077
22.9077
22.9077
22.9077
22.9077
22.9077
22.9077
22.9077
22.9077
22.9077
22.9077
22.9077
22.9076
22.9076
22.9076
22.9076
22.9076
22.9075
22.9075
22.9075
22.9075
22.9729
22.9729
22.9729
22.9729
22.973
22.973
22.973
22.973
22.973
22.973
22.973
22.973
22.973
22.973
22.973
22.973
22.973
22.973
22.973
22.973
22.973
22.973
22.973
22.973
22.973
22.973
22.973
22.973
22.973
22.973
22.973
22.973
22.973
22.973
22.973
22.973
22.973
22.973
22.973
22.973
22.973
22.973
22.973
22.973
22.973
22.973
22.973
22.973
22.973
22.973
22.973
22.973
22.973
22.973
22.973
22.973
22.9729
22.9729
22.9729
22.9729
23.0328
23.0328
23.0328
23.0328
23.0328
23.0328
23.0328
23.0328
23.0328
23.0328
23.0328
23.0328
23.0328
23.0328
23.0328
23.0328
23.0328
23.0328
23.0328
23.0328
23.0328
23.0328
23.0328
23.0328
23.0328
23.0328
23.0328
23.0328
23.0328
23.0328
23.0328
23.0328
23.0328
23.0328
23.0328
23.0328
23.0328
23.0328
23.0328
23.0328
23.0328
23.0328
23.0328
23.0328
23.0328
23.0328
23.0328
23.0328
23.0328
23.0328
23.0328
23.0328
23.0328
23.0328
23.0328
23.0328
23.0328
23.0328
23.0328
23.0328
23.0881
23.0881
23.0881
23.0881
23.0881
23.0881
23.0881
23.0881
23.0881
23.0881
23.0881
23.0881
23.0881
23.0881
23.0881
23.0881
23.0881
23.0881
23.0881
23.0881
23.0881
23.0881
23.0881
23.0881
23.0881
23.0881
23.0881
23.0881
23.0881
23.0881
23.0881
23.0881
23.0881
23.0881
23.0881
23.0881
23.0881
23.0881
23.0881
23.0881
23.0881
23.0881
23.0881
23.0881
23.0881
23.0881
23.0881
23.0881
23.0881
23.0881
23.0881
23.0881
23.0881
23.0881
23.0881
23.0881
23.0881
23.0881
23.0881
23.0881
23.1398
23.1398
23.1398
23.1398
23.1398
23.1398
23.1398
23.1398
23.1397
23.1397
23.1397
23.1397
23.1397
23.1397
23.1397
23.1397
23.1397
23.1397
23.1397
23.1397
23.1397
23.1397
23.1397
23.1397
23.1397
23.1397
23.1397
23.1397
23.1397
23.1397
23.1397
23.1397
23.1397
23.1397
23.1397
23.1397
23.1397
23.1397
23.1397
23.1397
23.1397
23.1397
23.1397
23.1397
23.1397
23.1397
23.1397
23.1397
23.1397
23.1397
23.1397
23.1397
23.1398
23.1398
23.1398
23.1398
23.1398
23.1398
23.1398
23.1398
23.1884
23.1884
23.1884
23.1884
23.1884
23.1883
23.1883
23.1883
23.1883
23.1883
23.1883
23.1883
23.1883
23.1883
23.1883
23.1883
23.1882
23.1882
23.1882
23.1882
23.1882
23.1882
23.1882
23.1882
23.1882
23.1882
23.1882
23.1882
23.1882
23.1882
23.1882
23.1882
23.1882
23.1882
23.1882
23.1882
23.1882
23.1882
23.1882
23.1882
23.1882
23.1882
23.1882
23.1882
23.1883
23.1883
23.1883
23.1883
23.1883
23.1883
23.1883
23.1883
23.1883
23.1883
23.1883
23.1884
23.1884
23.1884
23.1884
23.1884
23.2344
23.2344
23.2343
23.2343
23.2343
23.2343
23.2343
23.2343
23.2343
23.2343
23.2342
23.2342
23.2342
23.2342
23.2342
23.2342
23.2342
23.2342
23.2342
23.2342
23.2342
23.2342
23.2341
23.2341
23.2341
23.2341
23.2341
23.2341
23.2341
23.2341
23.2341
23.2341
23.2341
23.2341
23.2341
23.2341
23.2341
23.2341
23.2342
23.2342
23.2342
23.2342
23.2342
23.2342
23.2342
23.2342
23.2342
23.2342
23.2342
23.2342
23.2343
23.2343
23.2343
23.2343
23.2343
23.2343
23.2343
23.2343
23.2344
23.2344
23.2781
23.2781
23.2781
23.2781
23.278
23.278
23.278
23.278
23.278
23.278
23.278
23.2779
23.2779
23.2779
23.2779
23.2779
23.2779
23.2779
23.2779
23.2779
23.2779
23.2779
23.2778
23.2778
23.2778
23.2778
23.2778
23.2778
23.2778
23.2778
23.2778
23.2778
23.2778
23.2778
23.2778
23.2778
23.2778
23.2778
23.2779
23.2779
23.2779
23.2779
23.2779
23.2779
23.2779
23.2779
23.2779
23.2779
23.2779
23.278
23.278
23.278
23.278
23.278
23.278
23.278
23.2781
23.2781
23.2781
23.2781
23.3199
23.3199
23.3199
23.3198
23.3198
23.3198
23.3198
23.3198
23.3198
23.3197
23.3197
23.3197
23.3197
23.3197
23.3197
23.3197
23.3197
23.3196
23.3196
23.3196
23.3196
23.3196
23.3196
23.3196
23.3196
23.3196
23.3196
23.3196
23.3196
23.3196
23.3196
23.3196
23.3196
23.3196
23.3196
23.3196
23.3196
23.3196
23.3196
23.3196
23.3196
23.3196
23.3196
23.3197
23.3197
23.3197
23.3197
23.3197
23.3197
23.3197
23.3197
23.3198
23.3198
23.3198
23.3198
23.3198
23.3198
23.3199
23.3199
23.3199
23.36
23.36
23.36
23.3599
23.3599
23.3599
23.3599
23.3599
23.3598
23.3598
23.3598
23.3598
23.3598
23.3598
23.3597
23.3597
23.3597
23.3597
23.3597
23.3597
23.3597
23.3597
23.3597
23.3597
23.3597
23.3597
23.3597
23.3597
23.3597
23.3597
23.3597
23.3597
23.3597
23.3597
23.3597
23.3597
23.3597
23.3597
23.3597
23.3597
23.3597
23.3597
23.3597
23.3597
23.3597
23.3597
23.3598
23.3598
23.3598
23.3598
23.3598
23.3598
23.3599
23.3599
23.3599
23.3599
23.3599
23.36
23.36
23.36
23.3986
23.3986
23.3986
23.3985
23.3985
23.3985
23.3985
23.3985
23.3984
23.3984
23.3984
23.3984
23.3984
23.3984
23.3983
23.3983
23.3983
23.3983
23.3983
23.3983
23.3983
23.3983
23.3983
23.3983
23.3983
23.3983
23.3983
23.3983
23.3983
23.3983
23.3983
23.3983
23.3983
23.3983
23.3983
23.3983
23.3983
23.3983
23.3983
23.3983
23.3983
23.3983
23.3983
23.3983
23.3983
23.3983
23.3984
23.3984
23.3984
23.3984
23.3984
23.3984
23.3985
23.3985
23.3985
23.3985
23.3985
23.3986
23.3986
23.3986
23.4359
23.4359
23.4358
23.4358
23.4358
23.4358
23.4358
23.4357
23.4357
23.4357
23.4357
23.4357
23.4356
23.4356
23.4356
23.4356
23.4356
23.4356
23.4356
23.4356
23.4356
23.4355
23.4355
23.4355
23.4355
23.4355
23.4355
23.4355
23.4355
23.4355
23.4355
23.4355
23.4355
23.4355
23.4355
23.4355
23.4355
23.4355
23.4355
23.4356
23.4356
23.4356
23.4356
23.4356
23.4356
23.4356
23.4356
23.4356
23.4357
23.4357
23.4357
23.4357
23.4357
23.4358
23.4358
23.4358
23.4358
23.4358
23.4359
23.4359
23.472
23.472
23.472
23.4719
23.4719
23.4719
23.4719
23.4718
23.4718
23.4718
23.4718
23.4718
23.4718
23.4717
23.4717
23.4717
23.4717
23.4717