/*--------------------------------*- C++ -*----------------------------------*\
| =========                 |                                                 |
| \\      /  F ield         | foam-extend: Open Source CFD                    |
|  \\    /   O peration     | Version:     4.0                                |
|   \\  /    A nd           | Web:         http://www.foam-extend.org         |
|    \\/     M anipulation  |                                                 |
\*---------------------------------------------------------------------------*/
FoamFile
{
    version     2.0;
    format      ascii;
    class       volScalarField;
    location    "1630";
    object      cPlus;
}
// * * * * * * * * * * * * * * * * * * * * * * * * * * * * * * * * * * * * * //

dimensions      [0 0 0 0 0 0 0];

internalField   nonuniform List<scalar> 
6960
(
0.183375
0.183287
0.183248
0.183232
0.183226
0.183223
0.183223
0.183222
0.183222
0.183222
0.183222
0.183223
0.183223
0.183223
0.183223
0.183223
0.183223
0.183223
0.183224
0.183224
0.183224
0.183224
0.183224
0.183224
0.183224
0.183224
0.183224
0.183224
0.183224
0.183224
0.183224
0.183224
0.183224
0.183224
0.183224
0.183224
0.183224
0.183224
0.183224
0.183224
0.183224
0.183224
0.183223
0.183223
0.183223
0.183223
0.183223
0.183223
0.183223
0.183222
0.183222
0.183222
0.183222
0.183223
0.183223
0.183226
0.183232
0.183248
0.183287
0.183375
0.0504411
0.0504293
0.050423
0.0504205
0.0504195
0.0504192
0.0504191
0.0504192
0.0504192
0.0504193
0.0504194
0.0504195
0.0504196
0.0504196
0.0504197
0.0504198
0.0504199
0.0504199
0.05042
0.05042
0.0504201
0.0504201
0.0504202
0.0504202
0.0504202
0.0504202
0.0504203
0.0504203
0.0504203
0.0504203
0.0504203
0.0504203
0.0504203
0.0504203
0.0504202
0.0504202
0.0504202
0.0504202
0.0504201
0.0504201
0.05042
0.05042
0.0504199
0.0504199
0.0504198
0.0504197
0.0504196
0.0504196
0.0504195
0.0504194
0.0504193
0.0504192
0.0504192
0.0504191
0.0504192
0.0504195
0.0504205
0.050423
0.0504293
0.0504411
0.0333963
0.0334084
0.0334126
0.0334142
0.0334148
0.0334151
0.0334153
0.0334154
0.0334155
0.0334156
0.0334157
0.0334158
0.0334158
0.0334159
0.0334159
0.033416
0.033416
0.033416
0.0334161
0.0334161
0.0334161
0.0334162
0.0334162
0.0334162
0.0334162
0.0334162
0.0334162
0.0334162
0.0334163
0.0334163
0.0334163
0.0334163
0.0334162
0.0334162
0.0334162
0.0334162
0.0334162
0.0334162
0.0334162
0.0334161
0.0334161
0.0334161
0.033416
0.033416
0.033416
0.0334159
0.0334159
0.0334158
0.0334158
0.0334157
0.0334156
0.0334155
0.0334154
0.0334153
0.0334151
0.0334148
0.0334142
0.0334126
0.0334084
0.0333963
0.0316646
0.0316826
0.0316892
0.0316918
0.0316929
0.0316933
0.0316936
0.0316937
0.0316938
0.0316939
0.031694
0.031694
0.0316941
0.0316942
0.0316942
0.0316942
0.0316943
0.0316943
0.0316943
0.0316944
0.0316944
0.0316944
0.0316944
0.0316944
0.0316945
0.0316945
0.0316945
0.0316945
0.0316945
0.0316945
0.0316945
0.0316945
0.0316945
0.0316945
0.0316945
0.0316945
0.0316944
0.0316944
0.0316944
0.0316944
0.0316944
0.0316943
0.0316943
0.0316943
0.0316942
0.0316942
0.0316942
0.0316941
0.031694
0.031694
0.0316939
0.0316938
0.0316937
0.0316936
0.0316933
0.0316929
0.0316918
0.0316892
0.0316826
0.0316646
0.0321019
0.0321216
0.032129
0.0321319
0.0321331
0.0321336
0.0321338
0.032134
0.0321341
0.0321342
0.0321343
0.0321343
0.0321344
0.0321344
0.0321345
0.0321345
0.0321346
0.0321346
0.0321346
0.0321347
0.0321347
0.0321347
0.0321347
0.0321347
0.0321348
0.0321348
0.0321348
0.0321348
0.0321348
0.0321348
0.0321348
0.0321348
0.0321348
0.0321348
0.0321348
0.0321348
0.0321347
0.0321347
0.0321347
0.0321347
0.0321347
0.0321346
0.0321346
0.0321346
0.0321345
0.0321345
0.0321344
0.0321344
0.0321343
0.0321343
0.0321342
0.0321341
0.032134
0.0321338
0.0321336
0.0321331
0.0321319
0.032129
0.0321216
0.0321019
0.032912
0.0329328
0.0329405
0.0329436
0.0329449
0.0329454
0.0329457
0.0329459
0.032946
0.0329461
0.0329461
0.0329462
0.0329463
0.0329463
0.0329464
0.0329464
0.0329465
0.0329465
0.0329465
0.0329466
0.0329466
0.0329466
0.0329466
0.0329466
0.0329467
0.0329467
0.0329467
0.0329467
0.0329467
0.0329467
0.0329467
0.0329467
0.0329467
0.0329467
0.0329467
0.0329467
0.0329466
0.0329466
0.0329466
0.0329466
0.0329466
0.0329465
0.0329465
0.0329465
0.0329464
0.0329464
0.0329463
0.0329463
0.0329462
0.0329461
0.0329461
0.032946
0.0329459
0.0329457
0.0329454
0.0329449
0.0329436
0.0329405
0.0329328
0.032912
0.033865
0.0338868
0.033895
0.0338982
0.0338996
0.0339002
0.0339004
0.0339006
0.0339007
0.0339008
0.0339009
0.033901
0.0339011
0.0339011
0.0339012
0.0339012
0.0339013
0.0339013
0.0339013
0.0339014
0.0339014
0.0339014
0.0339014
0.0339015
0.0339015
0.0339015
0.0339015
0.0339015
0.0339015
0.0339015
0.0339015
0.0339015
0.0339015
0.0339015
0.0339015
0.0339015
0.0339015
0.0339014
0.0339014
0.0339014
0.0339014
0.0339013
0.0339013
0.0339013
0.0339012
0.0339012
0.0339011
0.0339011
0.033901
0.0339009
0.0339008
0.0339007
0.0339006
0.0339004
0.0339002
0.0338996
0.0338982
0.033895
0.0338868
0.033865
0.0349484
0.0349715
0.0349801
0.0349836
0.034985
0.0349856
0.0349859
0.0349861
0.0349862
0.0349863
0.0349864
0.0349865
0.0349865
0.0349866
0.0349867
0.0349867
0.0349868
0.0349868
0.0349868
0.0349869
0.0349869
0.0349869
0.034987
0.034987
0.034987
0.034987
0.034987
0.034987
0.034987
0.034987
0.034987
0.034987
0.034987
0.034987
0.034987
0.034987
0.034987
0.034987
0.0349869
0.0349869
0.0349869
0.0349868
0.0349868
0.0349868
0.0349867
0.0349867
0.0349866
0.0349865
0.0349865
0.0349864
0.0349863
0.0349862
0.0349861
0.0349859
0.0349856
0.034985
0.0349836
0.0349801
0.0349715
0.0349484
0.0361843
0.0362089
0.036218
0.0362217
0.0362232
0.0362238
0.0362242
0.0362244
0.0362245
0.0362246
0.0362247
0.0362248
0.0362249
0.036225
0.036225
0.0362251
0.0362251
0.0362252
0.0362252
0.0362252
0.0362253
0.0362253
0.0362253
0.0362253
0.0362254
0.0362254
0.0362254
0.0362254
0.0362254
0.0362254
0.0362254
0.0362254
0.0362254
0.0362254
0.0362254
0.0362254
0.0362253
0.0362253
0.0362253
0.0362253
0.0362252
0.0362252
0.0362252
0.0362251
0.0362251
0.036225
0.036225
0.0362249
0.0362248
0.0362247
0.0362246
0.0362245
0.0362244
0.0362242
0.0362238
0.0362232
0.0362217
0.036218
0.0362089
0.0361843
0.0376068
0.0376331
0.037643
0.0376469
0.0376485
0.0376492
0.0376496
0.0376498
0.0376499
0.03765
0.0376502
0.0376502
0.0376503
0.0376504
0.0376505
0.0376505
0.0376506
0.0376506
0.0376507
0.0376507
0.0376507
0.0376508
0.0376508
0.0376508
0.0376508
0.0376509
0.0376509
0.0376509
0.0376509
0.0376509
0.0376509
0.0376509
0.0376509
0.0376509
0.0376509
0.0376508
0.0376508
0.0376508
0.0376508
0.0376507
0.0376507
0.0376507
0.0376506
0.0376506
0.0376505
0.0376505
0.0376504
0.0376503
0.0376502
0.0376502
0.03765
0.0376499
0.0376498
0.0376496
0.0376492
0.0376485
0.0376469
0.037643
0.0376331
0.0376068
0.0392625
0.0392909
0.0393015
0.0393058
0.0393075
0.0393083
0.0393087
0.0393089
0.0393091
0.0393092
0.0393093
0.0393094
0.0393095
0.0393096
0.0393097
0.0393098
0.0393098
0.0393099
0.0393099
0.03931
0.03931
0.03931
0.0393101
0.0393101
0.0393101
0.0393101
0.0393101
0.0393102
0.0393102
0.0393102
0.0393102
0.0393102
0.0393102
0.0393101
0.0393101
0.0393101
0.0393101
0.0393101
0.03931
0.03931
0.03931
0.0393099
0.0393099
0.0393098
0.0393098
0.0393097
0.0393096
0.0393095
0.0393094
0.0393093
0.0393092
0.0393091
0.0393089
0.0393087
0.0393083
0.0393075
0.0393058
0.0393015
0.0392909
0.0392625
0.0412153
0.0412464
0.041258
0.0412626
0.0412646
0.0412654
0.0412658
0.0412661
0.0412663
0.0412665
0.0412666
0.0412667
0.0412668
0.0412669
0.041267
0.041267
0.0412671
0.0412672
0.0412672
0.0412673
0.0412673
0.0412674
0.0412674
0.0412674
0.0412674
0.0412675
0.0412675
0.0412675
0.0412675
0.0412675
0.0412675
0.0412675
0.0412675
0.0412675
0.0412675
0.0412674
0.0412674
0.0412674
0.0412674
0.0412673
0.0412673
0.0412672
0.0412672
0.0412671
0.041267
0.041267
0.0412669
0.0412668
0.0412667
0.0412666
0.0412665
0.0412663
0.0412661
0.0412658
0.0412654
0.0412646
0.0412626
0.041258
0.0412464
0.0412153
0.0435559
0.0435903
0.0436033
0.0436084
0.0436105
0.0436115
0.043612
0.0436123
0.0436125
0.0436127
0.0436128
0.0436129
0.043613
0.0436131
0.0436132
0.0436133
0.0436134
0.0436135
0.0436135
0.0436136
0.0436136
0.0436137
0.0436137
0.0436138
0.0436138
0.0436138
0.0436138
0.0436139
0.0436139
0.0436139
0.0436139
0.0436139
0.0436139
0.0436138
0.0436138
0.0436138
0.0436138
0.0436137
0.0436137
0.0436136
0.0436136
0.0436135
0.0436135
0.0436134
0.0436133
0.0436132
0.0436131
0.043613
0.0436129
0.0436128
0.0436127
0.0436125
0.0436123
0.043612
0.0436115
0.0436105
0.0436084
0.0436033
0.0435903
0.0435559
0.0464163
0.0464552
0.0464697
0.0464756
0.046478
0.0464791
0.0464796
0.04648
0.0464802
0.0464804
0.0464806
0.0464807
0.0464809
0.046481
0.0464811
0.0464812
0.0464813
0.0464814
0.0464814
0.0464815
0.0464816
0.0464816
0.0464817
0.0464817
0.0464817
0.0464818
0.0464818
0.0464818
0.0464818
0.0464818
0.0464818
0.0464818
0.0464818
0.0464818
0.0464818
0.0464817
0.0464817
0.0464817
0.0464816
0.0464816
0.0464815
0.0464814
0.0464814
0.0464813
0.0464812
0.0464811
0.046481
0.0464809
0.0464807
0.0464806
0.0464804
0.0464802
0.04648
0.0464796
0.0464791
0.046478
0.0464756
0.0464697
0.0464552
0.0464163
0.0499946
0.0500393
0.0500562
0.0500629
0.0500657
0.050067
0.0500677
0.0500681
0.0500684
0.0500686
0.0500688
0.050069
0.0500691
0.0500693
0.0500694
0.0500695
0.0500696
0.0500697
0.0500698
0.0500699
0.05007
0.05007
0.0500701
0.0500701
0.0500702
0.0500702
0.0500702
0.0500703
0.0500703
0.0500703
0.0500703
0.0500703
0.0500703
0.0500702
0.0500702
0.0500702
0.0500701
0.0500701
0.05007
0.05007
0.0500699
0.0500698
0.0500697
0.0500696
0.0500695
0.0500694
0.0500693
0.0500691
0.050069
0.0500688
0.0500686
0.0500684
0.0500681
0.0500677
0.050067
0.0500657
0.0500629
0.0500562
0.0500393
0.0499946
0.0545927
0.0546457
0.0546657
0.0546738
0.0546771
0.0546786
0.0546794
0.0546799
0.0546803
0.0546805
0.0546808
0.054681
0.0546812
0.0546814
0.0546816
0.0546817
0.0546818
0.054682
0.0546821
0.0546822
0.0546823
0.0546823
0.0546824
0.0546825
0.0546825
0.0546825
0.0546826
0.0546826
0.0546826
0.0546826
0.0546826
0.0546826
0.0546826
0.0546826
0.0546825
0.0546825
0.0546825
0.0546824
0.0546823
0.0546823
0.0546822
0.0546821
0.054682
0.0546818
0.0546817
0.0546816
0.0546814
0.0546812
0.054681
0.0546808
0.0546805
0.0546803
0.0546799
0.0546794
0.0546786
0.0546771
0.0546738
0.0546657
0.0546457
0.0545927
0.060666
0.0607308
0.0607554
0.0607653
0.0607694
0.0607713
0.0607723
0.0607729
0.0607733
0.0607737
0.060774
0.0607743
0.0607745
0.0607748
0.060775
0.0607752
0.0607753
0.0607755
0.0607756
0.0607757
0.0607759
0.060776
0.060776
0.0607761
0.0607762
0.0607762
0.0607763
0.0607763
0.0607763
0.0607763
0.0607763
0.0607763
0.0607763
0.0607763
0.0607762
0.0607762
0.0607761
0.060776
0.060776
0.0607759
0.0607757
0.0607756
0.0607755
0.0607753
0.0607752
0.060775
0.0607748
0.0607745
0.0607743
0.060774
0.0607737
0.0607733
0.0607729
0.0607723
0.0607713
0.0607694
0.0607653
0.0607554
0.0607308
0.060666
0.0688614
0.0689429
0.068974
0.0689865
0.0689918
0.0689942
0.0689954
0.0689962
0.0689968
0.0689972
0.0689976
0.068998
0.0689983
0.0689986
0.0689989
0.0689991
0.0689993
0.0689995
0.0689997
0.0689999
0.069
0.0690002
0.0690003
0.0690004
0.0690005
0.0690005
0.0690006
0.0690006
0.0690007
0.0690007
0.0690007
0.0690007
0.0690006
0.0690006
0.0690005
0.0690005
0.0690004
0.0690003
0.0690002
0.069
0.0689999
0.0689997
0.0689995
0.0689993
0.0689991
0.0689989
0.0689986
0.0689983
0.068998
0.0689976
0.0689972
0.0689968
0.0689962
0.0689954
0.0689942
0.0689918
0.0689865
0.068974
0.0689429
0.0688614
0.0799839
0.0800883
0.0801284
0.0801445
0.0801513
0.0801544
0.080156
0.080157
0.0801577
0.0801583
0.0801589
0.0801593
0.0801598
0.0801601
0.0801605
0.0801608
0.0801611
0.0801613
0.0801616
0.0801618
0.080162
0.0801621
0.0801623
0.0801624
0.0801625
0.0801626
0.0801627
0.0801627
0.0801628
0.0801628
0.0801628
0.0801628
0.0801627
0.0801627
0.0801626
0.0801625
0.0801624
0.0801623
0.0801621
0.080162
0.0801618
0.0801616
0.0801613
0.0801611
0.0801608
0.0801605
0.0801601
0.0801598
0.0801593
0.0801589
0.0801583
0.0801577
0.080157
0.080156
0.0801544
0.0801513
0.0801445
0.0801284
0.0800883
0.0799839
0.0948195
0.094953
0.0950045
0.0950252
0.095034
0.095038
0.09504
0.0950413
0.0950423
0.0950431
0.0950437
0.0950443
0.0950448
0.0950453
0.0950458
0.0950462
0.0950465
0.0950469
0.0950472
0.0950474
0.0950477
0.0950479
0.0950481
0.0950482
0.0950484
0.0950485
0.0950486
0.0950486
0.0950487
0.0950487
0.0950487
0.0950487
0.0950486
0.0950486
0.0950485
0.0950484
0.0950482
0.0950481
0.0950479
0.0950477
0.0950474
0.0950472
0.0950469
0.0950465
0.0950462
0.0950458
0.0950453
0.0950448
0.0950443
0.0950437
0.0950431
0.0950423
0.0950413
0.09504
0.095038
0.095034
0.0950252
0.0950045
0.094953
0.0948195
0.113822
0.113989
0.114053
0.11408
0.114091
0.114096
0.114098
0.1141
0.114101
0.114102
0.114103
0.114103
0.114104
0.114105
0.114105
0.114106
0.114106
0.114107
0.114107
0.114107
0.114108
0.114108
0.114108
0.114108
0.114108
0.114109
0.114109
0.114109
0.114109
0.114109
0.114109
0.114109
0.114109
0.114109
0.114109
0.114108
0.114108
0.114108
0.114108
0.114108
0.114107
0.114107
0.114107
0.114106
0.114106
0.114105
0.114105
0.114104
0.114103
0.114103
0.114102
0.114101
0.1141
0.114098
0.114096
0.114091
0.11408
0.114053
0.113989
0.113822
0.136841
0.137042
0.137121
0.137152
0.137166
0.137172
0.137175
0.137177
0.137178
0.137179
0.13718
0.137181
0.137182
0.137183
0.137183
0.137184
0.137184
0.137185
0.137185
0.137186
0.137186
0.137186
0.137186
0.137187
0.137187
0.137187
0.137187
0.137187
0.137187
0.137187
0.137187
0.137187
0.137187
0.137187
0.137187
0.137187
0.137187
0.137186
0.137186
0.137186
0.137186
0.137185
0.137185
0.137184
0.137184
0.137183
0.137183
0.137182
0.137181
0.13718
0.137179
0.137178
0.137177
0.137175
0.137172
0.137166
0.137152
0.137121
0.137042
0.136841
0.163124
0.163356
0.163448
0.163485
0.1635
0.163507
0.163511
0.163513
0.163515
0.163516
0.163517
0.163518
0.163519
0.16352
0.16352
0.163521
0.163521
0.163522
0.163522
0.163523
0.163523
0.163523
0.163524
0.163524
0.163524
0.163524
0.163525
0.163525
0.163525
0.163525
0.163525
0.163525
0.163525
0.163525
0.163524
0.163524
0.163524
0.163524
0.163523
0.163523
0.163523
0.163522
0.163522
0.163521
0.163521
0.16352
0.16352
0.163519
0.163518
0.163517
0.163516
0.163515
0.163513
0.163511
0.163507
0.1635
0.163485
0.163448
0.163356
0.163124
0.191603
0.191863
0.191966
0.192008
0.192026
0.192034
0.192038
0.19204
0.192042
0.192043
0.192044
0.192045
0.192046
0.192047
0.192048
0.192048
0.192049
0.192049
0.19205
0.19205
0.192051
0.192051
0.192051
0.192052
0.192052
0.192052
0.192052
0.192052
0.192052
0.192052
0.192052
0.192052
0.192052
0.192052
0.192052
0.192052
0.192052
0.192051
0.192051
0.192051
0.19205
0.19205
0.192049
0.192049
0.192048
0.192048
0.192047
0.192046
0.192045
0.192044
0.192043
0.192042
0.19204
0.192038
0.192034
0.192026
0.192008
0.191966
0.191863
0.191603
0.221259
0.221541
0.221654
0.221701
0.22172
0.221729
0.221734
0.221736
0.221738
0.221739
0.221741
0.221742
0.221743
0.221743
0.221744
0.221745
0.221745
0.221746
0.221746
0.221747
0.221747
0.221748
0.221748
0.221748
0.221748
0.221749
0.221749
0.221749
0.221749
0.221749
0.221749
0.221749
0.221749
0.221749
0.221749
0.221748
0.221748
0.221748
0.221748
0.221747
0.221747
0.221746
0.221746
0.221745
0.221745
0.221744
0.221743
0.221743
0.221742
0.221741
0.221739
0.221738
0.221736
0.221734
0.221729
0.22172
0.221701
0.221654
0.221541
0.221259
0.25132
0.251622
0.251744
0.251794
0.251815
0.251825
0.25183
0.251833
0.251834
0.251836
0.251837
0.251838
0.251839
0.25184
0.25184
0.251841
0.251842
0.251842
0.251843
0.251843
0.251844
0.251844
0.251844
0.251844
0.251845
0.251845
0.251845
0.251845
0.251845
0.251845
0.251845
0.251845
0.251845
0.251845
0.251845
0.251845
0.251844
0.251844
0.251844
0.251844
0.251843
0.251843
0.251842
0.251842
0.251841
0.25184
0.25184
0.251839
0.251838
0.251837
0.251836
0.251834
0.251833
0.25183
0.251825
0.251815
0.251794
0.251744
0.251622
0.25132
0.281289
0.281607
0.281737
0.281791
0.281814
0.281824
0.281829
0.281832
0.281834
0.281836
0.281837
0.281838
0.281839
0.28184
0.28184
0.281841
0.281842
0.281842
0.281843
0.281843
0.281843
0.281844
0.281844
0.281844
0.281844
0.281845
0.281845
0.281845
0.281845
0.281845
0.281845
0.281845
0.281845
0.281845
0.281845
0.281844
0.281844
0.281844
0.281844
0.281843
0.281843
0.281843
0.281842
0.281842
0.281841
0.28184
0.28184
0.281839
0.281838
0.281837
0.281836
0.281834
0.281832
0.281829
0.281824
0.281814
0.281791
0.281737
0.281607
0.281289
0.310871
0.311203
0.31134
0.311398
0.311423
0.311434
0.311439
0.311442
0.311444
0.311446
0.311447
0.311448
0.311449
0.31145
0.31145
0.311451
0.311452
0.311452
0.311453
0.311453
0.311453
0.311454
0.311454
0.311454
0.311454
0.311455
0.311455
0.311455
0.311455
0.311455
0.311455
0.311455
0.311455
0.311455
0.311455
0.311454
0.311454
0.311454
0.311454
0.311453
0.311453
0.311453
0.311452
0.311452
0.311451
0.31145
0.31145
0.311449
0.311448
0.311447
0.311446
0.311444
0.311442
0.311439
0.311434
0.311423
0.311398
0.31134
0.311203
0.310871
0.339898
0.340241
0.340386
0.340447
0.340474
0.340486
0.340491
0.340495
0.340497
0.340498
0.340499
0.3405
0.340501
0.340502
0.340503
0.340503
0.340504
0.340504
0.340505
0.340505
0.340506
0.340506
0.340506
0.340506
0.340507
0.340507
0.340507
0.340507
0.340507
0.340507
0.340507
0.340507
0.340507
0.340507
0.340507
0.340507
0.340506
0.340506
0.340506
0.340506
0.340505
0.340505
0.340504
0.340504
0.340503
0.340503
0.340502
0.340501
0.3405
0.340499
0.340498
0.340497
0.340495
0.340491
0.340486
0.340474
0.340447
0.340386
0.340241
0.339898
0.368271
0.368624
0.368776
0.36884
0.368868
0.368881
0.368887
0.368891
0.368893
0.368894
0.368895
0.368896
0.368897
0.368898
0.368899
0.368899
0.3689
0.3689
0.368901
0.368901
0.368901
0.368902
0.368902
0.368902
0.368902
0.368903
0.368903
0.368903
0.368903
0.368903
0.368903
0.368903
0.368903
0.368903
0.368903
0.368902
0.368902
0.368902
0.368902
0.368901
0.368901
0.368901
0.3689
0.3689
0.368899
0.368899
0.368898
0.368897
0.368896
0.368895
0.368894
0.368893
0.368891
0.368887
0.368881
0.368868
0.36884
0.368776
0.368624
0.368271
0.39593
0.396292
0.396449
0.396517
0.396547
0.39656
0.396567
0.39657
0.396573
0.396574
0.396575
0.396576
0.396577
0.396578
0.396578
0.396579
0.39658
0.39658
0.39658
0.396581
0.396581
0.396581
0.396582
0.396582
0.396582
0.396582
0.396582
0.396582
0.396583
0.396583
0.396583
0.396583
0.396582
0.396582
0.396582
0.396582
0.396582
0.396582
0.396581
0.396581
0.396581
0.39658
0.39658
0.39658
0.396579
0.396578
0.396578
0.396577
0.396576
0.396575
0.396574
0.396573
0.39657
0.396567
0.39656
0.396547
0.396517
0.396449
0.396292
0.39593
0.422837
0.423206
0.423369
0.42344
0.423472
0.423486
0.423493
0.423497
0.423499
0.4235
0.423501
0.423502
0.423503
0.423504
0.423504
0.423505
0.423506
0.423506
0.423506
0.423507
0.423507
0.423507
0.423508
0.423508
0.423508
0.423508
0.423508
0.423508
0.423508
0.423508
0.423508
0.423508
0.423508
0.423508
0.423508
0.423508
0.423508
0.423508
0.423507
0.423507
0.423507
0.423506
0.423506
0.423506
0.423505
0.423504
0.423504
0.423503
0.423502
0.423501
0.4235
0.423499
0.423497
0.423493
0.423486
0.423472
0.42344
0.423369
0.423206
0.422837
0.448967
0.449342
0.449511
0.449585
0.449619
0.449634
0.449641
0.449645
0.449647
0.449649
0.44965
0.449651
0.449651
0.449652
0.449653
0.449653
0.449654
0.449654
0.449655
0.449655
0.449655
0.449655
0.449656
0.449656
0.449656
0.449656
0.449656
0.449656
0.449656
0.449656
0.449656
0.449656
0.449656
0.449656
0.449656
0.449656
0.449656
0.449656
0.449655
0.449655
0.449655
0.449655
0.449654
0.449654
0.449653
0.449653
0.449652
0.449651
0.449651
0.44965
0.449649
0.449647
0.449645
0.449641
0.449634
0.449619
0.449585
0.449511
0.449342
0.448967
0.474307
0.474687
0.47486
0.474938
0.474973
0.474989
0.474996
0.475
0.475003
0.475004
0.475005
0.475006
0.475007
0.475008
0.475008
0.475009
0.475009
0.47501
0.47501
0.47501
0.475011
0.475011
0.475011
0.475011
0.475011
0.475012
0.475012
0.475012
0.475012
0.475012
0.475012
0.475012
0.475012
0.475012
0.475012
0.475011
0.475011
0.475011
0.475011
0.475011
0.47501
0.47501
0.47501
0.475009
0.475009
0.475008
0.475008
0.475007
0.475006
0.475005
0.475004
0.475003
0.475
0.474996
0.474989
0.474973
0.474938
0.47486
0.474687
0.474307
0.498848
0.49923
0.499408
0.499489
0.499526
0.499542
0.49955
0.499555
0.499557
0.499559
0.49956
0.499561
0.499561
0.499562
0.499563
0.499563
0.499564
0.499564
0.499564
0.499565
0.499565
0.499565
0.499565
0.499566
0.499566
0.499566
0.499566
0.499566
0.499566
0.499566
0.499566
0.499566
0.499566
0.499566
0.499566
0.499566
0.499566
0.499565
0.499565
0.499565
0.499565
0.499564
0.499564
0.499564
0.499563
0.499563
0.499562
0.499561
0.499561
0.49956
0.499559
0.499557
0.499555
0.49955
0.499542
0.499526
0.499489
0.499408
0.49923
0.498848
0.522586
0.52297
0.523152
0.523236
0.523274
0.523292
0.5233
0.523305
0.523307
0.523309
0.52331
0.523311
0.523312
0.523312
0.523313
0.523313
0.523314
0.523314
0.523314
0.523315
0.523315
0.523315
0.523315
0.523315
0.523316
0.523316
0.523316
0.523316
0.523316
0.523316
0.523316
0.523316
0.523316
0.523316
0.523316
0.523316
0.523315
0.523315
0.523315
0.523315
0.523315
0.523314
0.523314
0.523314
0.523313
0.523313
0.523312
0.523312
0.523311
0.52331
0.523309
0.523307
0.523305
0.5233
0.523292
0.523274
0.523236
0.523152
0.52297
0.522586
0.545521
0.545906
0.546092
0.546178
0.546218
0.546237
0.546246
0.546251
0.546253
0.546255
0.546256
0.546257
0.546258
0.546258
0.546259
0.546259
0.54626
0.54626
0.54626
0.546261
0.546261
0.546261
0.546261
0.546261
0.546262
0.546262
0.546262
0.546262
0.546262
0.546262
0.546262
0.546262
0.546262
0.546262
0.546262
0.546262
0.546261
0.546261
0.546261
0.546261
0.546261
0.54626
0.54626
0.54626
0.546259
0.546259
0.546258
0.546258
0.546257
0.546256
0.546255
0.546253
0.546251
0.546246
0.546237
0.546218
0.546178
0.546092
0.545906
0.545521
0.567658
0.568043
0.568232
0.568321
0.568363
0.568382
0.568392
0.568397
0.568399
0.568401
0.568402
0.568403
0.568404
0.568404
0.568405
0.568405
0.568406
0.568406
0.568406
0.568407
0.568407
0.568407
0.568407
0.568407
0.568407
0.568408
0.568408
0.568408
0.568408
0.568408
0.568408
0.568408
0.568408
0.568408
0.568408
0.568407
0.568407
0.568407
0.568407
0.568407
0.568407
0.568406
0.568406
0.568406
0.568405
0.568405
0.568404
0.568404
0.568403
0.568402
0.568401
0.568399
0.568397
0.568392
0.568382
0.568363
0.568321
0.568232
0.568043
0.567658
0.589002
0.589386
0.589578
0.589669
0.589713
0.589734
0.589744
0.589749
0.589752
0.589753
0.589754
0.589755
0.589756
0.589756
0.589757
0.589757
0.589758
0.589758
0.589758
0.589759
0.589759
0.589759
0.589759
0.589759
0.589759
0.58976
0.58976
0.58976
0.58976
0.58976
0.58976
0.58976
0.58976
0.58976
0.58976
0.589759
0.589759
0.589759
0.589759
0.589759
0.589759
0.589758
0.589758
0.589758
0.589757
0.589757
0.589756
0.589756
0.589755
0.589754
0.589753
0.589752
0.589749
0.589744
0.589734
0.589713
0.589669
0.589578
0.589386
0.589002
0.609563
0.609945
0.610138
0.610233
0.610278
0.6103
0.61031
0.610316
0.610318
0.61032
0.610321
0.610322
0.610323
0.610323
0.610324
0.610324
0.610325
0.610325
0.610325
0.610325
0.610326
0.610326
0.610326
0.610326
0.610326
0.610326
0.610326
0.610326
0.610326
0.610327
0.610327
0.610326
0.610326
0.610326
0.610326
0.610326
0.610326
0.610326
0.610326
0.610326
0.610325
0.610325
0.610325
0.610325
0.610324
0.610324
0.610323
0.610323
0.610322
0.610321
0.61032
0.610318
0.610316
0.61031
0.6103
0.610278
0.610233
0.610138
0.609945
0.609563
0.62935
0.629729
0.629924
0.630021
0.630068
0.630091
0.630102
0.630107
0.63011
0.630112
0.630113
0.630114
0.630115
0.630115
0.630116
0.630116
0.630117
0.630117
0.630117
0.630117
0.630118
0.630118
0.630118
0.630118
0.630118
0.630118
0.630118
0.630118
0.630118
0.630118
0.630118
0.630118
0.630118
0.630118
0.630118
0.630118
0.630118
0.630118
0.630118
0.630118
0.630117
0.630117
0.630117
0.630117
0.630116
0.630116
0.630115
0.630115
0.630114
0.630113
0.630112
0.63011
0.630107
0.630102
0.630091
0.630068
0.630021
0.629924
0.629729
0.62935
0.648376
0.648751
0.648948
0.649046
0.649095
0.649119
0.64913
0.649136
0.64914
0.649141
0.649143
0.649143
0.649144
0.649145
0.649145
0.649145
0.649146
0.649146
0.649146
0.649146
0.649147
0.649147
0.649147
0.649147
0.649147
0.649147
0.649147
0.649147
0.649147
0.649147
0.649147
0.649147
0.649147
0.649147
0.649147
0.649147
0.649147
0.649147
0.649147
0.649147
0.649146
0.649146
0.649146
0.649146
0.649145
0.649145
0.649145
0.649144
0.649143
0.649143
0.649141
0.64914
0.649136
0.64913
0.649119
0.649095
0.649046
0.648948
0.648751
0.648376
0.666653
0.667023
0.667221
0.667322
0.667372
0.667397
0.667409
0.667416
0.667419
0.667421
0.667422
0.667423
0.667424
0.667424
0.667425
0.667425
0.667425
0.667425
0.667426
0.667426
0.667426
0.667426
0.667426
0.667426
0.667427
0.667427
0.667427
0.667427
0.667427
0.667427
0.667427
0.667427
0.667427
0.667427
0.667427
0.667427
0.667426
0.667426
0.667426
0.667426
0.667426
0.667426
0.667425
0.667425
0.667425
0.667425
0.667424
0.667424
0.667423
0.667422
0.667421
0.667419
0.667416
0.667409
0.667397
0.667372
0.667322
0.667221
0.667023
0.666653
0.684196
0.684562
0.68476
0.684863
0.684915
0.68494
0.684953
0.68496
0.684964
0.684966
0.684967
0.684968
0.684968
0.684969
0.684969
0.684969
0.68497
0.68497
0.68497
0.68497
0.684971
0.684971
0.684971
0.684971
0.684971
0.684971
0.684971
0.684971
0.684971
0.684971
0.684971
0.684971
0.684971
0.684971
0.684971
0.684971
0.684971
0.684971
0.684971
0.684971
0.68497
0.68497
0.68497
0.68497
0.684969
0.684969
0.684969
0.684968
0.684968
0.684967
0.684966
0.684964
0.68496
0.684953
0.68494
0.684915
0.684863
0.68476
0.684562
0.684196
0.701021
0.701381
0.70158
0.701684
0.701737
0.701764
0.701778
0.701785
0.701788
0.701791
0.701792
0.701793
0.701793
0.701794
0.701794
0.701794
0.701795
0.701795
0.701795
0.701795
0.701795
0.701796
0.701796
0.701796
0.701796
0.701796
0.701796
0.701796
0.701796
0.701796
0.701796
0.701796
0.701796
0.701796
0.701796
0.701796
0.701796
0.701796
0.701796
0.701795
0.701795
0.701795
0.701795
0.701795
0.701794
0.701794
0.701794
0.701793
0.701793
0.701792
0.701791
0.701788
0.701785
0.701778
0.701764
0.701737
0.701684
0.70158
0.701381
0.701021
0.717144
0.717498
0.717696
0.717802
0.717857
0.717884
0.717899
0.717906
0.71791
0.717912
0.717913
0.717914
0.717915
0.717915
0.717916
0.717916
0.717916
0.717916
0.717917
0.717917
0.717917
0.717917
0.717917
0.717917
0.717917
0.717917
0.717917
0.717918
0.717918
0.717918
0.717918
0.717918
0.717918
0.717917
0.717917
0.717917
0.717917
0.717917
0.717917
0.717917
0.717917
0.717917
0.717916
0.717916
0.717916
0.717916
0.717915
0.717915
0.717914
0.717913
0.717912
0.71791
0.717906
0.717899
0.717884
0.717857
0.717802
0.717696
0.717498
0.717144
0.732582
0.732928
0.733126
0.733233
0.733289
0.733318
0.733333
0.733341
0.733345
0.733347
0.733349
0.73335
0.73335
0.733351
0.733351
0.733351
0.733351
0.733352
0.733352
0.733352
0.733352
0.733352
0.733352
0.733352
0.733352
0.733353
0.733353
0.733353
0.733353
0.733353
0.733353
0.733353
0.733353
0.733353
0.733353
0.733352
0.733352
0.733352
0.733352
0.733352
0.733352
0.733352
0.733352
0.733351
0.733351
0.733351
0.733351
0.73335
0.73335
0.733349
0.733347
0.733345
0.733341
0.733333
0.733318
0.733289
0.733233
0.733126
0.732928
0.732582
0.747351
0.747691
0.747888
0.747996
0.748053
0.748083
0.748098
0.748107
0.748111
0.748113
0.748115
0.748116
0.748116
0.748117
0.748117
0.748117
0.748118
0.748118
0.748118
0.748118
0.748118
0.748118
0.748118
0.748119
0.748119
0.748119
0.748119
0.748119
0.748119
0.748119
0.748119
0.748119
0.748119
0.748119
0.748119
0.748119
0.748119
0.748118
0.748118
0.748118
0.748118
0.748118
0.748118
0.748118
0.748117
0.748117
0.748117
0.748116
0.748116
0.748115
0.748113
0.748111
0.748107
0.748098
0.748083
0.748053
0.747996
0.747888
0.747691
0.747351
0.761471
0.761803
0.761998
0.762107
0.762166
0.762196
0.762213
0.762221
0.762226
0.762228
0.76223
0.762231
0.762231
0.762232
0.762232
0.762232
0.762233
0.762233
0.762233
0.762233
0.762233
0.762233
0.762233
0.762234
0.762234
0.762234
0.762234
0.762234
0.762234
0.762234
0.762234
0.762234
0.762234
0.762234
0.762234
0.762234
0.762234
0.762233
0.762233
0.762233
0.762233
0.762233
0.762233
0.762233
0.762232
0.762232
0.762232
0.762231
0.762231
0.76223
0.762228
0.762226
0.762221
0.762213
0.762196
0.762166
0.762107
0.761998
0.761803
0.761471
0.774958
0.775282
0.775476
0.775586
0.775645
0.775677
0.775694
0.775703
0.775708
0.775711
0.775712
0.775713
0.775714
0.775714
0.775714
0.775715
0.775715
0.775715
0.775715
0.775715
0.775715
0.775716
0.775716
0.775716
0.775716
0.775716
0.775716
0.775716
0.775716
0.775716
0.775716
0.775716
0.775716
0.775716
0.775716
0.775716
0.775716
0.775716
0.775716
0.775715
0.775715
0.775715
0.775715
0.775715
0.775715
0.775714
0.775714
0.775714
0.775713
0.775712
0.775711
0.775708
0.775703
0.775694
0.775677
0.775645
0.775586
0.775476
0.775282
0.774958
0.787832
0.788148
0.78834
0.78845
0.78851
0.788543
0.788561
0.78857
0.788575
0.788578
0.78858
0.788581
0.788581
0.788582
0.788582
0.788582
0.788583
0.788583
0.788583
0.788583
0.788583
0.788583
0.788583
0.788583
0.788583
0.788583
0.788584
0.788584
0.788584
0.788584
0.788584
0.788584
0.788584
0.788584
0.788583
0.788583
0.788583
0.788583
0.788583
0.788583
0.788583
0.788583
0.788583
0.788583
0.788582
0.788582
0.788582
0.788581
0.788581
0.78858
0.788578
0.788575
0.78857
0.788561
0.788543
0.78851
0.78845
0.78834
0.788148
0.787832
0.800111
0.800419
0.800608
0.800718
0.80078
0.800813
0.800831
0.800841
0.800847
0.80085
0.800852
0.800853
0.800853
0.800854
0.800854
0.800854
0.800855
0.800855
0.800855
0.800855
0.800855
0.800855
0.800855
0.800855
0.800855
0.800855
0.800855
0.800855
0.800855
0.800855
0.800855
0.800855
0.800855
0.800855
0.800855
0.800855
0.800855
0.800855
0.800855
0.800855
0.800855
0.800855
0.800855
0.800855
0.800854
0.800854
0.800854
0.800853
0.800853
0.800852
0.80085
0.800847
0.800841
0.800831
0.800813
0.80078
0.800718
0.800608
0.800419
0.800111
0.811813
0.812113
0.812299
0.812409
0.812472
0.812506
0.812525
0.812535
0.812541
0.812544
0.812546
0.812547
0.812548
0.812548
0.812549
0.812549
0.812549
0.812549
0.812549
0.81255
0.81255
0.81255
0.81255
0.81255
0.81255
0.81255
0.81255
0.81255