/*--------------------------------*- C++ -*----------------------------------*\
| =========                 |                                                 |
| \\      /  F ield         | foam-extend: Open Source CFD                    |
|  \\    /   O peration     | Version:     4.0                                |
|   \\  /    A nd           | Web:         http://www.foam-extend.org         |
|    \\/     M anipulation  |                                                 |
\*---------------------------------------------------------------------------*/
FoamFile
{
    version     2.0;
    format      ascii;
    class       volScalarField;
    location    "11";
    object      cMinus;
}
// * * * * * * * * * * * * * * * * * * * * * * * * * * * * * * * * * * * * * //

dimensions      [0 -3 0 0 0 0 0];

internalField   nonuniform List<scalar> 
6960
(
1.60351e-05
1.60351e-05
1.6035e-05
1.6035e-05
1.60349e-05
1.60349e-05
1.60348e-05
1.60348e-05
1.60347e-05
1.60347e-05
1.60346e-05
1.60345e-05
1.60345e-05
1.60344e-05
1.60343e-05
1.60343e-05
1.60342e-05
1.60342e-05
1.60342e-05
1.60341e-05
1.60341e-05
1.6034e-05
1.6034e-05
1.6034e-05
1.6034e-05
1.6034e-05
1.60339e-05
1.60339e-05
1.60339e-05
1.60339e-05
1.60339e-05
1.60339e-05
1.60339e-05
1.60339e-05
1.6034e-05
1.6034e-05
1.6034e-05
1.6034e-05
1.6034e-05
1.60341e-05
1.60341e-05
1.60342e-05
1.60342e-05
1.60342e-05
1.60343e-05
1.60343e-05
1.60344e-05
1.60345e-05
1.60345e-05
1.60346e-05
1.60347e-05
1.60347e-05
1.60348e-05
1.60348e-05
1.60349e-05
1.60349e-05
1.6035e-05
1.6035e-05
1.60351e-05
1.60351e-05
1.62159e-05
1.62158e-05
1.62158e-05
1.62158e-05
1.62157e-05
1.62156e-05
1.62156e-05
1.62155e-05
1.62155e-05
1.62154e-05
1.62153e-05
1.62153e-05
1.62152e-05
1.62152e-05
1.62151e-05
1.6215e-05
1.6215e-05
1.62149e-05
1.62149e-05
1.62149e-05
1.62148e-05
1.62148e-05
1.62148e-05
1.62147e-05
1.62147e-05
1.62147e-05
1.62147e-05
1.62147e-05
1.62147e-05
1.62147e-05
1.62147e-05
1.62147e-05
1.62147e-05
1.62147e-05
1.62147e-05
1.62147e-05
1.62147e-05
1.62148e-05
1.62148e-05
1.62148e-05
1.62149e-05
1.62149e-05
1.62149e-05
1.6215e-05
1.6215e-05
1.62151e-05
1.62152e-05
1.62152e-05
1.62153e-05
1.62153e-05
1.62154e-05
1.62155e-05
1.62155e-05
1.62156e-05
1.62156e-05
1.62157e-05
1.62158e-05
1.62158e-05
1.62158e-05
1.62159e-05
1.64042e-05
1.64042e-05
1.64042e-05
1.64041e-05
1.64041e-05
1.6404e-05
1.6404e-05
1.64039e-05
1.64038e-05
1.64038e-05
1.64037e-05
1.64036e-05
1.64036e-05
1.64035e-05
1.64035e-05
1.64034e-05
1.64033e-05
1.64033e-05
1.64033e-05
1.64032e-05
1.64032e-05
1.64031e-05
1.64031e-05
1.64031e-05
1.64031e-05
1.64031e-05
1.6403e-05
1.6403e-05
1.6403e-05
1.6403e-05
1.6403e-05
1.6403e-05
1.6403e-05
1.6403e-05
1.64031e-05
1.64031e-05
1.64031e-05
1.64031e-05
1.64031e-05
1.64032e-05
1.64032e-05
1.64033e-05
1.64033e-05
1.64033e-05
1.64034e-05
1.64035e-05
1.64035e-05
1.64036e-05
1.64036e-05
1.64037e-05
1.64038e-05
1.64038e-05
1.64039e-05
1.6404e-05
1.6404e-05
1.64041e-05
1.64041e-05
1.64042e-05
1.64042e-05
1.64042e-05
1.66006e-05
1.66006e-05
1.66005e-05
1.66005e-05
1.66004e-05
1.66004e-05
1.66003e-05
1.66002e-05
1.66002e-05
1.66001e-05
1.66001e-05
1.66e-05
1.65999e-05
1.65999e-05
1.65998e-05
1.65997e-05
1.65997e-05
1.65996e-05
1.65996e-05
1.65996e-05
1.65995e-05
1.65995e-05
1.65995e-05
1.65994e-05
1.65994e-05
1.65994e-05
1.65994e-05
1.65994e-05
1.65994e-05
1.65994e-05
1.65994e-05
1.65994e-05
1.65994e-05
1.65994e-05
1.65994e-05
1.65994e-05
1.65994e-05
1.65995e-05
1.65995e-05
1.65995e-05
1.65996e-05
1.65996e-05
1.65996e-05
1.65997e-05
1.65997e-05
1.65998e-05
1.65999e-05
1.65999e-05
1.66e-05
1.66001e-05
1.66001e-05
1.66002e-05
1.66002e-05
1.66003e-05
1.66004e-05
1.66004e-05
1.66005e-05
1.66005e-05
1.66006e-05
1.66006e-05
1.68054e-05
1.68053e-05
1.68053e-05
1.68052e-05
1.68052e-05
1.68051e-05
1.68051e-05
1.6805e-05
1.68049e-05
1.68049e-05
1.68048e-05
1.68047e-05
1.68047e-05
1.68046e-05
1.68046e-05
1.68045e-05
1.68044e-05
1.68044e-05
1.68044e-05
1.68043e-05
1.68043e-05
1.68042e-05
1.68042e-05
1.68042e-05
1.68042e-05
1.68042e-05
1.68041e-05
1.68041e-05
1.68041e-05
1.68041e-05
1.68041e-05
1.68041e-05
1.68041e-05
1.68041e-05
1.68042e-05
1.68042e-05
1.68042e-05
1.68042e-05
1.68042e-05
1.68043e-05
1.68043e-05
1.68044e-05
1.68044e-05
1.68044e-05
1.68045e-05
1.68046e-05
1.68046e-05
1.68047e-05
1.68047e-05
1.68048e-05
1.68049e-05
1.68049e-05
1.6805e-05
1.68051e-05
1.68051e-05
1.68052e-05
1.68052e-05
1.68053e-05
1.68053e-05
1.68054e-05
1.7019e-05
1.70189e-05
1.70189e-05
1.70188e-05
1.70188e-05
1.70187e-05
1.70187e-05
1.70186e-05
1.70185e-05
1.70185e-05
1.70184e-05
1.70183e-05
1.70183e-05
1.70182e-05
1.70182e-05
1.70181e-05
1.7018e-05
1.7018e-05
1.70179e-05
1.70179e-05
1.70179e-05
1.70178e-05
1.70178e-05
1.70178e-05
1.70178e-05
1.70177e-05
1.70177e-05
1.70177e-05
1.70177e-05
1.70177e-05
1.70177e-05
1.70177e-05
1.70177e-05
1.70177e-05
1.70177e-05
1.70178e-05
1.70178e-05
1.70178e-05
1.70178e-05
1.70179e-05
1.70179e-05
1.70179e-05
1.7018e-05
1.7018e-05
1.70181e-05
1.70182e-05
1.70182e-05
1.70183e-05
1.70183e-05
1.70184e-05
1.70185e-05
1.70185e-05
1.70186e-05
1.70187e-05
1.70187e-05
1.70188e-05
1.70188e-05
1.70189e-05
1.70189e-05
1.7019e-05
1.72419e-05
1.72418e-05
1.72418e-05
1.72417e-05
1.72417e-05
1.72416e-05
1.72416e-05
1.72415e-05
1.72414e-05
1.72414e-05
1.72413e-05
1.72412e-05
1.72412e-05
1.72411e-05
1.7241e-05
1.7241e-05
1.72409e-05
1.72409e-05
1.72408e-05
1.72408e-05
1.72408e-05
1.72407e-05
1.72407e-05
1.72407e-05
1.72406e-05
1.72406e-05
1.72406e-05
1.72406e-05
1.72406e-05
1.72406e-05
1.72406e-05
1.72406e-05
1.72406e-05
1.72406e-05
1.72406e-05
1.72406e-05
1.72407e-05
1.72407e-05
1.72407e-05
1.72408e-05
1.72408e-05
1.72408e-05
1.72409e-05
1.72409e-05
1.7241e-05
1.7241e-05
1.72411e-05
1.72412e-05
1.72412e-05
1.72413e-05
1.72414e-05
1.72414e-05
1.72415e-05
1.72416e-05
1.72416e-05
1.72417e-05
1.72417e-05
1.72418e-05
1.72418e-05
1.72419e-05
1.74746e-05
1.74745e-05
1.74745e-05
1.74744e-05
1.74744e-05
1.74743e-05
1.74743e-05
1.74742e-05
1.74741e-05
1.74741e-05
1.7474e-05
1.74739e-05
1.74739e-05
1.74738e-05
1.74737e-05
1.74737e-05
1.74736e-05
1.74736e-05
1.74735e-05
1.74735e-05
1.74734e-05
1.74734e-05
1.74734e-05
1.74734e-05
1.74733e-05
1.74733e-05
1.74733e-05
1.74733e-05
1.74733e-05
1.74733e-05
1.74733e-05
1.74733e-05
1.74733e-05
1.74733e-05
1.74733e-05
1.74733e-05
1.74734e-05
1.74734e-05
1.74734e-05
1.74734e-05
1.74735e-05
1.74735e-05
1.74736e-05
1.74736e-05
1.74737e-05
1.74737e-05
1.74738e-05
1.74739e-05
1.74739e-05
1.7474e-05
1.74741e-05
1.74741e-05
1.74742e-05
1.74743e-05
1.74743e-05
1.74744e-05
1.74744e-05
1.74745e-05
1.74745e-05
1.74746e-05
1.77176e-05
1.77176e-05
1.77175e-05
1.77175e-05
1.77174e-05
1.77174e-05
1.77173e-05
1.77172e-05
1.77172e-05
1.77171e-05
1.7717e-05
1.7717e-05
1.77169e-05
1.77168e-05
1.77168e-05
1.77167e-05
1.77166e-05
1.77166e-05
1.77165e-05
1.77165e-05
1.77165e-05
1.77164e-05
1.77164e-05
1.77164e-05
1.77163e-05
1.77163e-05
1.77163e-05
1.77163e-05
1.77163e-05
1.77163e-05
1.77163e-05
1.77163e-05
1.77163e-05
1.77163e-05
1.77163e-05
1.77163e-05
1.77164e-05
1.77164e-05
1.77164e-05
1.77165e-05
1.77165e-05
1.77165e-05
1.77166e-05
1.77166e-05
1.77167e-05
1.77168e-05
1.77168e-05
1.77169e-05
1.7717e-05
1.7717e-05
1.77171e-05
1.77172e-05
1.77172e-05
1.77173e-05
1.77174e-05
1.77174e-05
1.77175e-05
1.77175e-05
1.77176e-05
1.77176e-05
1.79715e-05
1.79715e-05
1.79714e-05
1.79714e-05
1.79713e-05
1.79713e-05
1.79712e-05
1.79711e-05
1.79711e-05
1.7971e-05
1.79709e-05
1.79708e-05
1.79708e-05
1.79707e-05
1.79706e-05
1.79706e-05
1.79705e-05
1.79705e-05
1.79704e-05
1.79704e-05
1.79703e-05
1.79703e-05
1.79703e-05
1.79703e-05
1.79702e-05
1.79702e-05
1.79702e-05
1.79702e-05
1.79702e-05
1.79702e-05
1.79702e-05
1.79702e-05
1.79702e-05
1.79702e-05
1.79702e-05
1.79702e-05
1.79703e-05
1.79703e-05
1.79703e-05
1.79703e-05
1.79704e-05
1.79704e-05
1.79705e-05
1.79705e-05
1.79706e-05
1.79706e-05
1.79707e-05
1.79708e-05
1.79708e-05
1.79709e-05
1.7971e-05
1.79711e-05
1.79711e-05
1.79712e-05
1.79713e-05
1.79713e-05
1.79714e-05
1.79714e-05
1.79715e-05
1.79715e-05
1.82369e-05
1.82369e-05
1.82368e-05
1.82368e-05
1.82367e-05
1.82366e-05
1.82366e-05
1.82365e-05
1.82364e-05
1.82364e-05
1.82363e-05
1.82362e-05
1.82362e-05
1.82361e-05
1.8236e-05
1.8236e-05
1.82359e-05
1.82359e-05
1.82358e-05
1.82358e-05
1.82357e-05
1.82357e-05
1.82357e-05
1.82356e-05
1.82356e-05
1.82356e-05
1.82356e-05
1.82356e-05
1.82356e-05
1.82355e-05
1.82355e-05
1.82356e-05
1.82356e-05
1.82356e-05
1.82356e-05
1.82356e-05
1.82356e-05
1.82357e-05
1.82357e-05
1.82357e-05
1.82358e-05
1.82358e-05
1.82359e-05
1.82359e-05
1.8236e-05
1.8236e-05
1.82361e-05
1.82362e-05
1.82362e-05
1.82363e-05
1.82364e-05
1.82364e-05
1.82365e-05
1.82366e-05
1.82366e-05
1.82367e-05
1.82368e-05
1.82368e-05
1.82369e-05
1.82369e-05
1.85144e-05
1.85144e-05
1.85143e-05
1.85143e-05
1.85142e-05
1.85141e-05
1.85141e-05
1.8514e-05
1.85139e-05
1.85139e-05
1.85138e-05
1.85137e-05
1.85136e-05
1.85136e-05
1.85135e-05
1.85135e-05
1.85134e-05
1.85133e-05
1.85133e-05
1.85132e-05
1.85132e-05
1.85132e-05
1.85131e-05
1.85131e-05
1.85131e-05
1.85131e-05
1.85131e-05
1.8513e-05
1.8513e-05
1.8513e-05
1.8513e-05
1.8513e-05
1.8513e-05
1.85131e-05
1.85131e-05
1.85131e-05
1.85131e-05
1.85131e-05
1.85132e-05
1.85132e-05
1.85132e-05
1.85133e-05
1.85133e-05
1.85134e-05
1.85135e-05
1.85135e-05
1.85136e-05
1.85136e-05
1.85137e-05
1.85138e-05
1.85139e-05
1.85139e-05
1.8514e-05
1.85141e-05
1.85141e-05
1.85142e-05
1.85143e-05
1.85143e-05
1.85144e-05
1.85144e-05
1.88047e-05
1.88047e-05
1.88046e-05
1.88046e-05
1.88045e-05
1.88044e-05
1.88044e-05
1.88043e-05
1.88042e-05
1.88042e-05
1.88041e-05
1.8804e-05
1.88039e-05
1.88039e-05
1.88038e-05
1.88037e-05
1.88037e-05
1.88036e-05
1.88036e-05
1.88035e-05
1.88035e-05
1.88035e-05
1.88034e-05
1.88034e-05
1.88034e-05
1.88034e-05
1.88033e-05
1.88033e-05
1.88033e-05
1.88033e-05
1.88033e-05
1.88033e-05
1.88033e-05
1.88033e-05
1.88034e-05
1.88034e-05
1.88034e-05
1.88034e-05
1.88035e-05
1.88035e-05
1.88035e-05
1.88036e-05
1.88036e-05
1.88037e-05
1.88037e-05
1.88038e-05
1.88039e-05
1.88039e-05
1.8804e-05
1.88041e-05
1.88042e-05
1.88042e-05
1.88043e-05
1.88044e-05
1.88044e-05
1.88045e-05
1.88046e-05
1.88046e-05
1.88047e-05
1.88047e-05
1.91085e-05
1.91085e-05
1.91084e-05
1.91084e-05
1.91083e-05
1.91083e-05
1.91082e-05
1.91081e-05
1.9108e-05
1.9108e-05
1.91079e-05
1.91078e-05
1.91078e-05
1.91077e-05
1.91076e-05
1.91076e-05
1.91075e-05
1.91074e-05
1.91074e-05
1.91073e-05
1.91073e-05
1.91073e-05
1.91072e-05
1.91072e-05
1.91072e-05
1.91072e-05
1.91071e-05
1.91071e-05
1.91071e-05
1.91071e-05
1.91071e-05
1.91071e-05
1.91071e-05
1.91071e-05
1.91072e-05
1.91072e-05
1.91072e-05
1.91072e-05
1.91073e-05
1.91073e-05
1.91073e-05
1.91074e-05
1.91074e-05
1.91075e-05
1.91076e-05
1.91076e-05
1.91077e-05
1.91078e-05
1.91078e-05
1.91079e-05
1.9108e-05
1.9108e-05
1.91081e-05
1.91082e-05
1.91083e-05
1.91083e-05
1.91084e-05
1.91084e-05
1.91085e-05
1.91085e-05
1.94267e-05
1.94266e-05
1.94266e-05
1.94265e-05
1.94265e-05
1.94264e-05
1.94263e-05
1.94262e-05
1.94262e-05
1.94261e-05
1.9426e-05
1.94259e-05
1.94259e-05
1.94258e-05
1.94257e-05
1.94257e-05
1.94256e-05
1.94256e-05
1.94255e-05
1.94255e-05
1.94254e-05
1.94254e-05
1.94253e-05
1.94253e-05
1.94253e-05
1.94253e-05
1.94253e-05
1.94252e-05
1.94252e-05
1.94252e-05
1.94252e-05
1.94252e-05
1.94252e-05
1.94253e-05
1.94253e-05
1.94253e-05
1.94253e-05
1.94253e-05
1.94254e-05
1.94254e-05
1.94255e-05
1.94255e-05
1.94256e-05
1.94256e-05
1.94257e-05
1.94257e-05
1.94258e-05
1.94259e-05
1.94259e-05
1.9426e-05
1.94261e-05
1.94262e-05
1.94262e-05
1.94263e-05
1.94264e-05
1.94265e-05
1.94265e-05
1.94266e-05
1.94266e-05
1.94267e-05
1.97599e-05
1.97599e-05
1.97598e-05
1.97598e-05
1.97597e-05
1.97597e-05
1.97596e-05
1.97595e-05
1.97594e-05
1.97594e-05
1.97593e-05
1.97592e-05
1.97591e-05
1.97591e-05
1.9759e-05
1.97589e-05
1.97589e-05
1.97588e-05
1.97588e-05
1.97587e-05
1.97587e-05
1.97586e-05
1.97586e-05
1.97586e-05
1.97585e-05
1.97585e-05
1.97585e-05
1.97585e-05
1.97585e-05
1.97585e-05
1.97585e-05
1.97585e-05
1.97585e-05
1.97585e-05
1.97585e-05
1.97585e-05
1.97586e-05
1.97586e-05
1.97586e-05
1.97587e-05
1.97587e-05
1.97588e-05
1.97588e-05
1.97589e-05
1.97589e-05
1.9759e-05
1.97591e-05
1.97591e-05
1.97592e-05
1.97593e-05
1.97594e-05
1.97594e-05
1.97595e-05
1.97596e-05
1.97597e-05
1.97597e-05
1.97598e-05
1.97598e-05
1.97599e-05
1.97599e-05
2.01092e-05
2.01092e-05
2.01092e-05
2.01091e-05
2.0109e-05
2.0109e-05
2.01089e-05
2.01088e-05
2.01087e-05
2.01087e-05
2.01086e-05
2.01085e-05
2.01084e-05
2.01084e-05
2.01083e-05
2.01082e-05
2.01082e-05
2.01081e-05
2.01081e-05
2.0108e-05
2.0108e-05
2.01079e-05
2.01079e-05
2.01079e-05
2.01078e-05
2.01078e-05
2.01078e-05
2.01078e-05
2.01078e-05
2.01078e-05
2.01078e-05
2.01078e-05
2.01078e-05
2.01078e-05
2.01078e-05
2.01078e-05
2.01079e-05
2.01079e-05
2.01079e-05
2.0108e-05
2.0108e-05
2.01081e-05
2.01081e-05
2.01082e-05
2.01082e-05
2.01083e-05
2.01084e-05
2.01084e-05
2.01085e-05
2.01086e-05
2.01087e-05
2.01087e-05
2.01088e-05
2.01089e-05
2.0109e-05
2.0109e-05
2.01091e-05
2.01092e-05
2.01092e-05
2.01092e-05
2.04756e-05
2.04755e-05
2.04755e-05
2.04754e-05
2.04753e-05
2.04753e-05
2.04752e-05
2.04751e-05
2.0475e-05
2.0475e-05
2.04749e-05
2.04748e-05
2.04747e-05
2.04746e-05
2.04746e-05
2.04745e-05
2.04744e-05
2.04744e-05
2.04743e-05
2.04743e-05
2.04742e-05
2.04742e-05
2.04742e-05
2.04741e-05
2.04741e-05
2.04741e-05
2.04741e-05
2.04741e-05
2.04741e-05
2.04741e-05
2.04741e-05
2.04741e-05
2.04741e-05
2.04741e-05
2.04741e-05
2.04741e-05
2.04741e-05
2.04742e-05
2.04742e-05
2.04742e-05
2.04743e-05
2.04743e-05
2.04744e-05
2.04744e-05
2.04745e-05
2.04746e-05
2.04746e-05
2.04747e-05
2.04748e-05
2.04749e-05
2.0475e-05
2.0475e-05
2.04751e-05
2.04752e-05
2.04753e-05
2.04753e-05
2.04754e-05
2.04755e-05
2.04755e-05
2.04756e-05
2.08599e-05
2.08598e-05
2.08598e-05
2.08597e-05
2.08597e-05
2.08596e-05
2.08595e-05
2.08594e-05
2.08594e-05
2.08593e-05
2.08592e-05
2.08591e-05
2.0859e-05
2.0859e-05
2.08589e-05
2.08588e-05
2.08588e-05
2.08587e-05
2.08586e-05
2.08586e-05
2.08586e-05
2.08585e-05
2.08585e-05
2.08584e-05
2.08584e-05
2.08584e-05
2.08584e-05
2.08584e-05
2.08584e-05
2.08584e-05
2.08584e-05
2.08584e-05
2.08584e-05
2.08584e-05
2.08584e-05
2.08584e-05
2.08584e-05
2.08585e-05
2.08585e-05
2.08586e-05
2.08586e-05
2.08586e-05
2.08587e-05
2.08588e-05
2.08588e-05
2.08589e-05
2.0859e-05
2.0859e-05
2.08591e-05
2.08592e-05
2.08593e-05
2.08594e-05
2.08594e-05
2.08595e-05
2.08596e-05
2.08597e-05
2.08597e-05
2.08598e-05
2.08598e-05
2.08599e-05
2.12633e-05
2.12633e-05
2.12632e-05
2.12632e-05
2.12631e-05
2.1263e-05
2.1263e-05
2.12629e-05
2.12628e-05
2.12627e-05
2.12626e-05
2.12626e-05
2.12625e-05
2.12624e-05
2.12623e-05
2.12623e-05
2.12622e-05
2.12621e-05
2.12621e-05
2.1262e-05
2.1262e-05
2.12619e-05
2.12619e-05
2.12619e-05
2.12619e-05
2.12618e-05
2.12618e-05
2.12618e-05
2.12618e-05
2.12618e-05
2.12618e-05
2.12618e-05
2.12618e-05
2.12618e-05
2.12618e-05
2.12619e-05
2.12619e-05
2.12619e-05
2.12619e-05
2.1262e-05
2.1262e-05
2.12621e-05
2.12621e-05
2.12622e-05
2.12623e-05
2.12623e-05
2.12624e-05
2.12625e-05
2.12626e-05
2.12626e-05
2.12627e-05
2.12628e-05
2.12629e-05
2.1263e-05
2.1263e-05
2.12631e-05
2.12632e-05
2.12632e-05
2.12633e-05
2.12633e-05
2.16871e-05
2.16871e-05
2.1687e-05
2.1687e-05
2.16869e-05
2.16868e-05
2.16867e-05
2.16867e-05
2.16866e-05
2.16865e-05
2.16864e-05
2.16863e-05
2.16863e-05
2.16862e-05
2.16861e-05
2.1686e-05
2.1686e-05
2.16859e-05
2.16858e-05
2.16858e-05
2.16857e-05
2.16857e-05
2.16857e-05
2.16856e-05
2.16856e-05
2.16856e-05
2.16856e-05
2.16856e-05
2.16856e-05
2.16856e-05
2.16856e-05
2.16856e-05
2.16856e-05
2.16856e-05
2.16856e-05
2.16856e-05
2.16856e-05
2.16857e-05
2.16857e-05
2.16857e-05
2.16858e-05
2.16858e-05
2.16859e-05
2.1686e-05
2.1686e-05
2.16861e-05
2.16862e-05
2.16863e-05
2.16863e-05
2.16864e-05
2.16865e-05
2.16866e-05
2.16867e-05
2.16867e-05
2.16868e-05
2.16869e-05
2.1687e-05
2.1687e-05
2.16871e-05
2.16871e-05
2.21325e-05
2.21325e-05
2.21324e-05
2.21323e-05
2.21323e-05
2.21322e-05
2.21321e-05
2.2132e-05
2.2132e-05
2.21319e-05
2.21318e-05
2.21317e-05
2.21316e-05
2.21315e-05
2.21315e-05
2.21314e-05
2.21313e-05
2.21313e-05
2.21312e-05
2.21312e-05
2.21311e-05
2.21311e-05
2.2131e-05
2.2131e-05
2.2131e-05
2.2131e-05
2.21309e-05
2.21309e-05
2.21309e-05
2.21309e-05
2.21309e-05
2.21309e-05
2.21309e-05
2.21309e-05
2.2131e-05
2.2131e-05
2.2131e-05
2.2131e-05
2.21311e-05
2.21311e-05
2.21312e-05
2.21312e-05
2.21313e-05
2.21313e-05
2.21314e-05
2.21315e-05
2.21315e-05
2.21316e-05
2.21317e-05
2.21318e-05
2.21319e-05
2.2132e-05
2.2132e-05
2.21321e-05
2.21322e-05
2.21323e-05
2.21323e-05
2.21324e-05
2.21325e-05
2.21325e-05
2.26009e-05
2.26008e-05
2.26008e-05
2.26007e-05
2.26006e-05
2.26006e-05
2.26005e-05
2.26004e-05
2.26003e-05
2.26002e-05
2.26001e-05
2.26001e-05
2.26e-05
2.25999e-05
2.25998e-05
2.25997e-05
2.25997e-05
2.25996e-05
2.25996e-05
2.25995e-05
2.25995e-05
2.25994e-05
2.25994e-05
2.25993e-05
2.25993e-05
2.25993e-05
2.25993e-05
2.25993e-05
2.25993e-05
2.25992e-05
2.25992e-05
2.25993e-05
2.25993e-05
2.25993e-05
2.25993e-05
2.25993e-05
2.25993e-05
2.25994e-05
2.25994e-05
2.25995e-05
2.25995e-05
2.25996e-05
2.25996e-05
2.25997e-05
2.25997e-05
2.25998e-05
2.25999e-05
2.26e-05
2.26001e-05
2.26001e-05
2.26002e-05
2.26003e-05
2.26004e-05
2.26005e-05
2.26006e-05
2.26006e-05
2.26007e-05
2.26008e-05
2.26008e-05
2.26009e-05
2.30937e-05
2.30937e-05
2.30936e-05
2.30935e-05
2.30935e-05
2.30934e-05
2.30933e-05
2.30932e-05
2.30931e-05
2.30931e-05
2.3093e-05
2.30929e-05
2.30928e-05
2.30927e-05
2.30926e-05
2.30926e-05
2.30925e-05
2.30924e-05
2.30924e-05
2.30923e-05
2.30923e-05
2.30922e-05
2.30922e-05
2.30922e-05
2.30921e-05
2.30921e-05
2.30921e-05
2.30921e-05
2.30921e-05
2.30921e-05
2.30921e-05
2.30921e-05
2.30921e-05
2.30921e-05
2.30921e-05
2.30921e-05
2.30922e-05
2.30922e-05
2.30922e-05
2.30923e-05
2.30923e-05
2.30924e-05
2.30924e-05
2.30925e-05
2.30926e-05
2.30926e-05
2.30927e-05
2.30928e-05
2.30929e-05
2.3093e-05
2.30931e-05
2.30931e-05
2.30932e-05
2.30933e-05
2.30934e-05
2.30935e-05
2.30935e-05
2.30936e-05
2.30937e-05
2.30937e-05
2.36126e-05
2.36126e-05
2.36125e-05
2.36125e-05
2.36124e-05
2.36123e-05
2.36122e-05
2.36121e-05
2.3612e-05
2.3612e-05
2.36119e-05
2.36118e-05
2.36117e-05
2.36116e-05
2.36115e-05
2.36115e-05
2.36114e-05
2.36113e-05
2.36113e-05
2.36112e-05
2.36112e-05
2.36111e-05
2.36111e-05
2.3611e-05
2.3611e-05
2.3611e-05
2.3611e-05
2.3611e-05
2.3611e-05
2.36109e-05
2.36109e-05
2.3611e-05
2.3611e-05
2.3611e-05
2.3611e-05
2.3611e-05
2.3611e-05
2.36111e-05
2.36111e-05
2.36112e-05
2.36112e-05
2.36113e-05
2.36113e-05
2.36114e-05
2.36115e-05
2.36115e-05
2.36116e-05
2.36117e-05
2.36118e-05
2.36119e-05
2.3612e-05
2.3612e-05
2.36121e-05
2.36122e-05
2.36123e-05
2.36124e-05
2.36125e-05
2.36125e-05
2.36126e-05
2.36126e-05
2.41594e-05
2.41593e-05
2.41593e-05
2.41592e-05
2.41591e-05
2.4159e-05
2.41589e-05
2.41589e-05
2.41588e-05
2.41587e-05
2.41586e-05
2.41585e-05
2.41584e-05
2.41583e-05
2.41582e-05
2.41582e-05
2.41581e-05
2.4158e-05
2.4158e-05
2.41579e-05
2.41579e-05
2.41578e-05
2.41578e-05
2.41577e-05
2.41577e-05
2.41577e-05
2.41577e-05
2.41577e-05
2.41577e-05
2.41577e-05
2.41577e-05
2.41577e-05
2.41577e-05
2.41577e-05
2.41577e-05
2.41577e-05
2.41577e-05
2.41578e-05
2.41578e-05
2.41579e-05
2.41579e-05
2.4158e-05
2.4158e-05
2.41581e-05
2.41582e-05
2.41582e-05
2.41583e-05
2.41584e-05
2.41585e-05
2.41586e-05
2.41587e-05
2.41588e-05
2.41589e-05
2.41589e-05
2.4159e-05
2.41591e-05
2.41592e-05
2.41593e-05
2.41593e-05
2.41594e-05
2.47358e-05
2.47357e-05
2.47357e-05
2.47356e-05
2.47355e-05
2.47354e-05
2.47354e-05
2.47353e-05
2.47352e-05
2.47351e-05
2.4735e-05
2.47349e-05
2.47348e-05
2.47347e-05
2.47346e-05
2.47346e-05
2.47345e-05
2.47344e-05
2.47344e-05
2.47343e-05
2.47343e-05
2.47342e-05
2.47342e-05
2.47341e-05
2.47341e-05
2.47341e-05
2.47341e-05
2.47341e-05
2.4734e-05
2.4734e-05
2.4734e-05
2.4734e-05
2.47341e-05
2.47341e-05
2.47341e-05
2.47341e-05
2.47341e-05
2.47342e-05
2.47342e-05
2.47343e-05
2.47343e-05
2.47344e-05
2.47344e-05
2.47345e-05
2.47346e-05
2.47346e-05
2.47347e-05
2.47348e-05
2.47349e-05
2.4735e-05
2.47351e-05
2.47352e-05
2.47353e-05
2.47354e-05
2.47354e-05
2.47355e-05
2.47356e-05
2.47357e-05
2.47357e-05
2.47358e-05
2.53439e-05
2.53439e-05
2.53438e-05
2.53437e-05
2.53437e-05
2.53436e-05
2.53435e-05
2.53434e-05
2.53433e-05
2.53432e-05
2.53431e-05
2.5343e-05
2.53429e-05
2.53429e-05
2.53428e-05
2.53427e-05
2.53426e-05
2.53426e-05
2.53425e-05
2.53424e-05
2.53424e-05
2.53423e-05
2.53423e-05
2.53423e-05
2.53422e-05
2.53422e-05
2.53422e-05
2.53422e-05
2.53422e-05
2.53422e-05
2.53422e-05
2.53422e-05
2.53422e-05
2.53422e-05
2.53422e-05
2.53422e-05
2.53423e-05
2.53423e-05
2.53423e-05
2.53424e-05
2.53424e-05
2.53425e-05
2.53426e-05
2.53426e-05
2.53427e-05
2.53428e-05
2.53429e-05
2.53429e-05
2.5343e-05
2.53431e-05
2.53432e-05
2.53433e-05
2.53434e-05
2.53435e-05
2.53436e-05
2.53437e-05
2.53437e-05
2.53438e-05
2.53439e-05
2.53439e-05
2.5986e-05
2.5986e-05
2.59859e-05
2.59858e-05
2.59857e-05
2.59857e-05
2.59856e-05
2.59855e-05
2.59854e-05
2.59853e-05
2.59852e-05
2.59851e-05
2.5985e-05
2.59849e-05
2.59848e-05
2.59847e-05
2.59847e-05
2.59846e-05
2.59845e-05
2.59845e-05
2.59844e-05
2.59844e-05
2.59843e-05
2.59843e-05
2.59843e-05
2.59843e-05
2.59842e-05
2.59842e-05
2.59842e-05
2.59842e-05
2.59842e-05
2.59842e-05
2.59842e-05
2.59842e-05
2.59843e-05
2.59843e-05
2.59843e-05
2.59843e-05
2.59844e-05
2.59844e-05
2.59845e-05
2.59845e-05
2.59846e-05
2.59847e-05
2.59847e-05
2.59848e-05
2.59849e-05
2.5985e-05
2.59851e-05
2.59852e-05
2.59853e-05
2.59854e-05
2.59855e-05
2.59856e-05
2.59857e-05
2.59857e-05
2.59858e-05
2.59859e-05
2.5986e-05
2.5986e-05
2.66644e-05
2.66644e-05
2.66643e-05
2.66642e-05
2.66641e-05
2.6664e-05
2.6664e-05
2.66639e-05
2.66638e-05
2.66637e-05
2.66636e-05
2.66635e-05
2.66634e-05
2.66633e-05
2.66632e-05
2.66631e-05
2.6663e-05
2.6663e-05
2.66629e-05
2.66629e-05
2.66628e-05
2.66628e-05
2.66627e-05
2.66627e-05
2.66626e-05
2.66626e-05
2.66626e-05
2.66626e-05
2.66626e-05
2.66626e-05
2.66626e-05
2.66626e-05
2.66626e-05
2.66626e-05
2.66626e-05
2.66626e-05
2.66627e-05
2.66627e-05
2.66628e-05
2.66628e-05
2.66629e-05
2.66629e-05
2.6663e-05
2.6663e-05
2.66631e-05
2.66632e-05
2.66633e-05
2.66634e-05
2.66635e-05
2.66636e-05
2.66637e-05
2.66638e-05
2.66639e-05
2.6664e-05
2.6664e-05
2.66641e-05
2.66642e-05
2.66643e-05
2.66644e-05
2.66644e-05
2.73817e-05
2.73817e-05
2.73816e-05
2.73815e-05
2.73814e-05
2.73813e-05
2.73813e-05
2.73812e-05
2.73811e-05
2.7381e-05
2.73809e-05
2.73808e-05
2.73807e-05
2.73806e-05
2.73805e-05
2.73804e-05
2.73803e-05
2.73803e-05
2.73802e-05
2.73801e-05
2.73801e-05
2.738e-05
2.738e-05
2.738e-05
2.73799e-05
2.73799e-05
2.73799e-05
2.73799e-05
2.73799e-05
2.73798e-05
2.73798e-05
2.73799e-05
2.73799e-05
2.73799e-05
2.73799e-05
2.73799e-05
2.738e-05
2.738e-05
2.738e-05
2.73801e-05
2.73801e-05
2.73802e-05
2.73803e-05
2.73803e-05
2.73804e-05
2.73805e-05
2.73806e-05
2.73807e-05
2.73808e-05
2.73809e-05
2.7381e-05
2.73811e-05
2.73812e-05
2.73813e-05
2.73813e-05
2.73814e-05
2.73815e-05
2.73816e-05
2.73817e-05
2.73817e-05
2.81408e-05
2.81407e-05
2.81406e-05
2.81406e-05
2.81405e-05
2.81404e-05
2.81403e-05
2.81402e-05
2.81401e-05
2.814e-05
2.81399e-05
2.81398e-05
2.81397e-05
2.81396e-05
2.81395e-05
2.81394e-05
2.81394e-05
2.81393e-05
2.81392e-05
2.81392e-05
2.81391e-05
2.81391e-05
2.8139e-05
2.8139e-05
2.81389e-05
2.81389e-05
2.81389e-05
2.81389e-05
2.81389e-05
2.81389e-05
2.81389e-05
2.81389e-05
2.81389e-05
2.81389e-05
2.81389e-05
2.81389e-05
2.8139e-05
2.8139e-05
2.81391e-05
2.81391e-05
2.81392e-05
2.81392e-05
2.81393e-05
2.81394e-05
2.81394e-05
2.81395e-05
2.81396e-05
2.81397e-05
2.81398e-05
2.81399e-05
2.814e-05
2.81401e-05
2.81402e-05
2.81403e-05
2.81404e-05
2.81405e-05
2.81406e-05
2.81406e-05
2.81407e-05
2.81408e-05
2.89447e-05
2.89446e-05
2.89445e-05
2.89444e-05
2.89443e-05
2.89442e-05
2.89441e-05
2.8944e-05
2.89439e-05
2.89438e-05
2.89437e-05
2.89436e-05
2.89435e-05
2.89434e-05
2.89434e-05
2.89433e-05
2.89432e-05
2.89431e-05
2.8943e-05
2.8943e-05
2.89429e-05
2.89429e-05
2.89428e-05
2.89428e-05
2.89428e-05
2.89427e-05
2.89427e-05
2.89427e-05
2.89427e-05
2.89427e-05
2.89427e-05
2.89427e-05
2.89427e-05
2.89427e-05
2.89427e-05
2.89428e-05
2.89428e-05
2.89428e-05
2.89429e-05
2.89429e-05
2.8943e-05
2.8943e-05
2.89431e-05
2.89432e-05
2.89433e-05
2.89434e-05
2.89434e-05
2.89435e-05
2.89436e-05
2.89437e-05
2.89438e-05
2.89439e-05
2.8944e-05
2.89441e-05
2.89442e-05
2.89443e-05
2.89444e-05
2.89445e-05
2.89446e-05
2.89447e-05
2.97967e-05
2.97966e-05
2.97965e-05
2.97964e-05
2.97963e-05
2.97963e-05
2.97962e-05
2.9796e-05
2.97959e-05
2.97958e-05
2.97957e-05
2.97956e-05
2.97955e-05
2.97954e-05
2.97953e-05
2.97953e-05
2.97952e-05
2.97951e-05
2.9795e-05
2.9795e-05
2.97949e-05
2.97949e-05
2.97948e-05
2.97948e-05
2.97947e-05
2.97947e-05
2.97947e-05
2.97947e-05
2.97947e-05
2.97947e-05
2.97947e-05
2.97947e-05
2.97947e-05
2.97947e-05
2.97947e-05
2.97947e-05
2.97948e-05
2.97948e-05
2.97949e-05
2.97949e-05
2.9795e-05
2.9795e-05
2.97951e-05
2.97952e-05
2.97953e-05
2.97953e-05
2.97954e-05
2.97955e-05
2.97956e-05
2.97957e-05
2.97958e-05
2.97959e-05
2.9796e-05
2.97962e-05
2.97963e-05
2.97963e-05
2.97964e-05
2.97965e-05
2.97966e-05
2.97967e-05
3.07005e-05
3.07004e-05
3.07004e-05
3.07003e-05
3.07002e-05
3.07001e-05
3.07e-05
3.06999e-05
3.06998e-05
3.06997e-05
3.06996e-05
3.06994e-05
3.06993e-05
3.06993e-05
3.06992e-05
3.06991e-05
3.0699e-05
3.06989e-05
3.06988e-05
3.06988e-05
3.06987e-05
3.06987e-05
3.06986e-05
3.06986e-05
3.06985e-05
3.06985e-05
3.06985e-05
3.06985e-05
3.06985e-05
3.06985e-05
3.06985e-05
3.06985e-05
3.06985e-05
3.06985e-05
3.06985e-05
3.06985e-05
3.06986e-05
3.06986e-05
3.06987e-05
3.06987e-05
3.06988e-05
3.06988e-05
3.06989e-05
3.0699e-05
3.06991e-05
3.06992e-05
3.06993e-05
3.06993e-05
3.06994e-05
3.06996e-05
3.06997e-05
3.06998e-05
3.06999e-05
3.07e-05
3.07001e-05
3.07002e-05
3.07003e-05
3.07004e-05
3.07004e-05
3.07005e-05
3.16602e-05
3.16601e-05
3.166e-05
3.16599e-05
3.16598e-05
3.16597e-05
3.16596e-05
3.16595e-05
3.16594e-05
3.16593e-05
3.16592e-05
3.16591e-05
3.1659e-05
3.16589e-05
3.16588e-05
3.16587e-05
3.16586e-05
3.16585e-05
3.16584e-05
3.16584e-05
3.16583e-05
3.16583e-05
3.16582e-05
3.16582e-05
3.16582e-05
3.16581e-05
3.16581e-05
3.16581e-05
3.16581e-05
3.16581e-05
3.16581e-05
3.16581e-05
3.16581e-05
3.16581e-05
3.16581e-05
3.16582e-05
3.16582e-05
3.16582e-05
3.16583e-05
3.16583e-05
3.16584e-05
3.16584e-05
3.16585e-05
3.16586e-05
3.16587e-05
3.16588e-05
3.16589e-05
3.1659e-05
3.16591e-05
3.16592e-05
3.16593e-05
3.16594e-05
3.16595e-05
3.16596e-05
3.16597e-05
3.16598e-05
3.16599e-05
3.166e-05
3.16601e-05
3.16602e-05
3.268e-05
3.26799e-05
3.26798e-05
3.26797e-05
3.26796e-05
3.26795e-05
3.26794e-05
3.26793e-05
3.26792e-05
3.26791e-05
3.2679e-05
3.26789e-05
3.26788e-05
3.26787e-05
3.26786e-05
3.26785e-05
3.26784e-05
3.26783e-05
3.26782e-05
3.26782e-05
3.26781e-05
3.26781e-05
3.2678e-05
3.2678e-05
3.26779e-05
3.26779e-05
3.26779e-05
3.26779e-05
3.26779e-05
3.26778e-05
3.26778e-05
3.26779e-05
3.26779e-05
3.26779e-05
3.26779e-05
3.26779e-05
3.2678e-05
3.2678e-05
3.26781e-05
3.26781e-05
3.26782e-05
3.26782e-05
3.26783e-05
3.26784e-05
3.26785e-05
3.26786e-05
3.26787e-05
3.26788e-05
3.26789e-05
3.2679e-05
3.26791e-05
3.26792e-05
3.26793e-05
3.26794e-05
3.26795e-05
3.26796e-05
3.26797e-05
3.26798e-05
3.26799e-05
3.268e-05
3.37647e-05
3.37647e-05
3.37646e-05
3.37645e-05
3.37644e-05
3.37643e-05
3.37642e-05
3.37641e-05
3.37639e-05
3.37638e-05
3.37637e-05
3.37636e-05
3.37635e-05
3.37634e-05
3.37633e-05
3.37632e-05
3.37631e-05
3.3763e-05
3.3763e-05
3.37629e-05
3.37628e-05
3.37628e-05
3.37627e-05
3.37627e-05
3.37627e-05
3.37626e-05
3.37626e-05
3.37626e-05
3.37626e-05
3.37626e-05
3.37626e-05
3.37626e-05
3.37626e-05
3.37626e-05
3.37626e-05
3.37627e-05
3.37627e-05
3.37627e-05
3.37628e-05
3.37628e-05
3.37629e-05
3.3763e-05
3.3763e-05
3.37631e-05
3.37632e-05
3.37633e-05
3.37634e-05
3.37635e-05
3.37636e-05
3.37637e-05
3.37638e-05
3.37639e-05
3.37641e-05
3.37642e-05
3.37643e-05
3.37644e-05
3.37645e-05
3.37646e-05
3.37647e-05
3.37647e-05
3.49197e-05
3.49196e-05
3.49195e-05
3.49194e-05
3.49193e-05
3.49192e-05
3.49191e-05
3.4919e-05
3.49189e-05
3.49188e-05
3.49187e-05
3.49185e-05
3.49184e-05
3.49183e-05
3.49182e-05
3.49181e-05
3.49181e-05
3.4918e-05
3.49179e-05
3.49178e-05
3.49178e-05
3.49177e-05
3.49177e-05
3.49176e-05
3.49176e-05
3.49176e-05
3.49175e-05
3.49175e-05
3.49175e-05
3.49175e-05
3.49175e-05
3.49175e-05
3.49175e-05
3.49175e-05
3.49176e-05
3.49176e-05
3.49176e-05
3.49177e-05
3.49177e-05
3.49178e-05
3.49178e-05
3.49179e-05
3.4918e-05
3.49181e-05
3.49181e-05
3.49182e-05
3.49183e-05
3.49184e-05
3.49185e-05
3.49187e-05
3.49188e-05
3.49189e-05
3.4919e-05
3.49191e-05
3.49192e-05
3.49193e-05
3.49194e-05
3.49195e-05
3.49196e-05
3.49197e-05
3.61506e-05
3.61505e-05
3.61504e-05
3.61503e-05
3.61502e-05
3.61501e-05
3.615e-05
3.61499e-05
3.61498e-05
3.61497e-05
3.61496e-05
3.61494e-05
3.61493e-05
3.61492e-05
3.61491e-05
3.6149e-05
3.61489e-05
3.61489e-05
3.61488e-05
3.61487e-05
3.61486e-05
3.61486e-05
3.61485e-05
3.61485e-05
3.61485e-05
3.61484e-05
3.61484e-05
3.61484e-05
3.61484e-05
3.61484e-05
3.61484e-05
3.61484e-05
3.61484e-05
3.61484e-05
3.61484e-05
3.61485e-05
3.61485e-05
3.61485e-05
3.61486e-05
3.61486e-05
3.61487e-05
3.61488e-05
3.61489e-05
3.61489e-05
3.6149e-05
3.61491e-05
3.61492e-05
3.61493e-05
3.61494e-05
3.61496e-05
3.61497e-05
3.61498e-05
3.61499e-05
3.615e-05
3.61501e-05
3.61502e-05
3.61503e-05
3.61504e-05
3.61505e-05
3.61506e-05
3.74638e-05
3.74637e-05
3.74636e-05
3.74635e-05
3.74634e-05
3.74633e-05
3.74632e-05
3.74631e-05
3.7463e-05
3.74628e-05
3.74627e-05
3.74626e-05
3.74625e-05
3.74624e-05
3.74623e-05
3.74622e-05
3.74621e-05
3.7462e-05
3.74619e-05
3.74619e-05
3.74618e-05
3.74617e-05
3.74617e-05
3.74617e-05
3.74616e-05
3.74616e-05
3.74616e-05
3.74615e-05
3.74615e-05
3.74615e-05
3.74615e-05
3.74615e-05
3.74615e-05
3.74616e-05
3.74616e-05
3.74616e-05
3.74617e-05
3.74617e-05
3.74617e-05
3.74618e-05
3.74619e-05
3.74619e-05
3.7462e-05
3.74621e-05
3.74622e-05
3.74623e-05
3.74624e-05
3.74625e-05
3.74626e-05