/*--------------------------------*- C++ -*----------------------------------*\
| =========                 |                                                 |
| \\      /  F ield         | foam-extend: Open Source CFD                    |
|  \\    /   O peration     | Version:     4.0                                |
|   \\  /    A nd           | Web:         http://www.foam-extend.org         |
|    \\/     M anipulation  |                                                 |
\*---------------------------------------------------------------------------*/
FoamFile
{
    version     2.0;
    format      ascii;
    class       volScalarField;
    location    "910";
    object      psiE;
}
// * * * * * * * * * * * * * * * * * * * * * * * * * * * * * * * * * * * * * //

dimensions      [0 0 0 0 0 0 0];

internalField   nonuniform List<scalar> 
6960
(
0.277705
0.277693
0.277687
0.277684
0.277683
0.277681
0.27768
0.277679
0.277679
0.277678
0.277678
0.277678
0.277678
0.277677
0.277677
0.277677
0.277677
0.277677
0.277677
0.277677
0.277677
0.277677
0.277677
0.277677
0.277677
0.277677
0.277677
0.277677
0.277677
0.277677
0.277677
0.277677
0.277677
0.277677
0.277677
0.277677
0.277677
0.277677
0.277677
0.277677
0.277677
0.277677
0.277677
0.277677
0.277677
0.277677
0.277677
0.277678
0.277678
0.277678
0.277678
0.277679
0.277679
0.27768
0.277681
0.277683
0.277684
0.277687
0.277693
0.277705
0.606509
0.606469
0.606452
0.606443
0.606436
0.606432
0.606429
0.606426
0.606425
0.606423
0.606422
0.606421
0.60642
0.60642
0.606419
0.606419
0.606419
0.606418
0.606418
0.606418
0.606418
0.606417
0.606417
0.606417
0.606417
0.606417
0.606417
0.606417
0.606417
0.606417
0.606417
0.606417
0.606417
0.606417
0.606417
0.606417
0.606417
0.606417
0.606417
0.606418
0.606418
0.606418
0.606418
0.606419
0.606419
0.606419
0.60642
0.60642
0.606421
0.606422
0.606423
0.606425
0.606426
0.606429
0.606432
0.606436
0.606443
0.606452
0.606469
0.606509
0.825881
0.825815
0.825786
0.82577
0.825759
0.825752
0.825746
0.825742
0.825739
0.825737
0.825735
0.825734
0.825732
0.825731
0.82573
0.82573
0.825729
0.825729
0.825728
0.825728
0.825728
0.825727
0.825727
0.825727
0.825727
0.825727
0.825726
0.825726
0.825726
0.825726
0.825726
0.825726
0.825726
0.825726
0.825727
0.825727
0.825727
0.825727
0.825727
0.825728
0.825728
0.825728
0.825729
0.825729
0.82573
0.82573
0.825731
0.825732
0.825734
0.825735
0.825737
0.825739
0.825742
0.825746
0.825752
0.825759
0.82577
0.825786
0.825815
0.825881
0.982785
0.982697
0.982659
0.982636
0.982622
0.982612
0.982605
0.9826
0.982596
0.982592
0.98259
0.982588
0.982586
0.982585
0.982584
0.982583
0.982582
0.982581
0.982581
0.98258
0.98258
0.982579
0.982579
0.982579
0.982579
0.982578
0.982578
0.982578
0.982578
0.982578
0.982578
0.982578
0.982578
0.982578
0.982578
0.982579
0.982579
0.982579
0.982579
0.98258
0.98258
0.982581
0.982581
0.982582
0.982583
0.982584
0.982585
0.982586
0.982588
0.98259
0.982592
0.982596
0.9826
0.982605
0.982612
0.982622
0.982636
0.982659
0.982697
0.982785
1.10297
1.10286
1.10282
1.10279
1.10277
1.10276
1.10275
1.10274
1.10274
1.10274
1.10273
1.10273
1.10273
1.10273
1.10272
1.10272
1.10272
1.10272
1.10272
1.10272
1.10272
1.10272
1.10272
1.10272
1.10272
1.10272
1.10272
1.10272
1.10272
1.10272
1.10272
1.10272
1.10272
1.10272
1.10272
1.10272
1.10272
1.10272
1.10272
1.10272
1.10272
1.10272
1.10272
1.10272
1.10272
1.10272
1.10273
1.10273
1.10273
1.10273
1.10274
1.10274
1.10274
1.10275
1.10276
1.10277
1.10279
1.10282
1.10286
1.10297
1.20132
1.20121
1.20116
1.20113
1.20111
1.20109
1.20108
1.20108
1.20107
1.20107
1.20106
1.20106
1.20106
1.20106
1.20105
1.20105
1.20105
1.20105
1.20105
1.20105
1.20105
1.20105
1.20105
1.20105
1.20105
1.20105
1.20105
1.20105
1.20105
1.20105
1.20105
1.20105
1.20105
1.20105
1.20105
1.20105
1.20105
1.20105
1.20105
1.20105
1.20105
1.20105
1.20105
1.20105
1.20105
1.20105
1.20106
1.20106
1.20106
1.20106
1.20107
1.20107
1.20108
1.20108
1.20109
1.20111
1.20113
1.20116
1.20121
1.20132
1.28639
1.28627
1.28621
1.28618
1.28616
1.28614
1.28613
1.28612
1.28612
1.28611
1.28611
1.28611
1.2861
1.2861
1.2861
1.2861
1.2861
1.28609
1.28609
1.28609
1.28609
1.28609
1.28609
1.28609
1.28609
1.28609
1.28609
1.28609
1.28609
1.28609
1.28609
1.28609
1.28609
1.28609
1.28609
1.28609
1.28609
1.28609
1.28609
1.28609
1.28609
1.28609
1.28609
1.2861
1.2861
1.2861
1.2861
1.2861
1.28611
1.28611
1.28611
1.28612
1.28612
1.28613
1.28614
1.28616
1.28618
1.28621
1.28627
1.28639
1.36297
1.36285
1.36279
1.36275
1.36273
1.36271
1.3627
1.36269
1.36269
1.36268
1.36268
1.36267
1.36267
1.36267
1.36267
1.36266
1.36266
1.36266
1.36266
1.36266
1.36266
1.36266
1.36266
1.36266
1.36266
1.36266
1.36266
1.36266
1.36266
1.36266
1.36266
1.36266
1.36266
1.36266
1.36266
1.36266
1.36266
1.36266
1.36266
1.36266
1.36266
1.36266
1.36266
1.36266
1.36266
1.36267
1.36267
1.36267
1.36267
1.36268
1.36268
1.36269
1.36269
1.3627
1.36271
1.36273
1.36275
1.36279
1.36285
1.36297
1.4338
1.43368
1.43362
1.43358
1.43355
1.43354
1.43353
1.43352
1.43351
1.4335
1.4335
1.4335
1.43349
1.43349
1.43349
1.43349
1.43349
1.43348
1.43348
1.43348
1.43348
1.43348
1.43348
1.43348
1.43348
1.43348
1.43348
1.43348
1.43348
1.43348
1.43348
1.43348
1.43348
1.43348
1.43348
1.43348
1.43348
1.43348
1.43348
1.43348
1.43348
1.43348
1.43348
1.43349
1.43349
1.43349
1.43349
1.43349
1.4335
1.4335
1.4335
1.43351
1.43352
1.43353
1.43354
1.43355
1.43358
1.43362
1.43368
1.4338
1.50051
1.50038
1.50032
1.50028
1.50026
1.50024
1.50023
1.50022
1.50021
1.5002
1.5002
1.5002
1.50019
1.50019
1.50019
1.50019
1.50019
1.50018
1.50018
1.50018
1.50018
1.50018
1.50018
1.50018
1.50018
1.50018
1.50018
1.50018
1.50018
1.50018
1.50018
1.50018
1.50018
1.50018
1.50018
1.50018
1.50018
1.50018
1.50018
1.50018
1.50018
1.50018
1.50018
1.50019
1.50019
1.50019
1.50019
1.50019
1.5002
1.5002
1.5002
1.50021
1.50022
1.50023
1.50024
1.50026
1.50028
1.50032
1.50038
1.50051
1.56413
1.564
1.56394
1.5639
1.56387
1.56385
1.56384
1.56383
1.56382
1.56382
1.56381
1.56381
1.5638
1.5638
1.5638
1.5638
1.5638
1.56379
1.56379
1.56379
1.56379
1.56379
1.56379
1.56379
1.56379
1.56379
1.56379
1.56379
1.56379
1.56379
1.56379
1.56379
1.56379
1.56379
1.56379
1.56379
1.56379
1.56379
1.56379
1.56379
1.56379
1.56379
1.56379
1.5638
1.5638
1.5638
1.5638
1.5638
1.56381
1.56381
1.56382
1.56382
1.56383
1.56384
1.56385
1.56387
1.5639
1.56394
1.564
1.56413
1.62537
1.62524
1.62518
1.62514
1.62511
1.62509
1.62508
1.62507
1.62506
1.62505
1.62505
1.62504
1.62504
1.62504
1.62503
1.62503
1.62503
1.62503
1.62503
1.62503
1.62503
1.62503
1.62503
1.62503
1.62502
1.62502
1.62502
1.62502
1.62502
1.62502
1.62502
1.62502
1.62502
1.62502
1.62502
1.62502
1.62503
1.62503
1.62503
1.62503
1.62503
1.62503
1.62503
1.62503
1.62503
1.62503
1.62504
1.62504
1.62504
1.62505
1.62505
1.62506
1.62507
1.62508
1.62509
1.62511
1.62514
1.62518
1.62524
1.62537
1.68476
1.68464
1.68457
1.68453
1.6845
1.68448
1.68447
1.68446
1.68445
1.68444
1.68444
1.68443
1.68443
1.68443
1.68442
1.68442
1.68442
1.68442
1.68442
1.68442
1.68442
1.68442
1.68442
1.68441
1.68441
1.68441
1.68441
1.68441
1.68441
1.68441
1.68441
1.68441
1.68441
1.68441
1.68441
1.68441
1.68441
1.68442
1.68442
1.68442
1.68442
1.68442
1.68442
1.68442
1.68442
1.68442
1.68443
1.68443
1.68443
1.68444
1.68444
1.68445
1.68446
1.68447
1.68448
1.6845
1.68453
1.68457
1.68464
1.68476
1.74272
1.7426
1.74253
1.74249
1.74246
1.74244
1.74242
1.74241
1.7424
1.7424
1.74239
1.74239
1.74239
1.74238
1.74238
1.74238
1.74238
1.74238
1.74237
1.74237
1.74237
1.74237
1.74237
1.74237
1.74237
1.74237
1.74237
1.74237
1.74237
1.74237
1.74237
1.74237
1.74237
1.74237
1.74237
1.74237
1.74237
1.74237
1.74237
1.74237
1.74237
1.74237
1.74238
1.74238
1.74238
1.74238
1.74238
1.74239
1.74239
1.74239
1.7424
1.7424
1.74241
1.74242
1.74244
1.74246
1.74249
1.74253
1.7426
1.74272
1.79958
1.79946
1.79939
1.79935
1.79932
1.7993
1.79928
1.79927
1.79926
1.79926
1.79925
1.79925
1.79924
1.79924
1.79924
1.79923
1.79923
1.79923
1.79923
1.79923
1.79923
1.79923
1.79923
1.79923
1.79923
1.79923
1.79923
1.79923
1.79922
1.79922
1.79922
1.79922
1.79923
1.79923
1.79923
1.79923
1.79923
1.79923
1.79923
1.79923
1.79923
1.79923
1.79923
1.79923
1.79923
1.79924
1.79924
1.79924
1.79925
1.79925
1.79926
1.79926
1.79927
1.79928
1.7993
1.79932
1.79935
1.79939
1.79946
1.79958
1.85562
1.8555
1.85543
1.85538
1.85535
1.85533
1.85532
1.85531
1.8553
1.85529
1.85528
1.85528
1.85528
1.85527
1.85527
1.85527
1.85527
1.85527
1.85526
1.85526
1.85526
1.85526
1.85526
1.85526
1.85526
1.85526
1.85526
1.85526
1.85526
1.85526
1.85526
1.85526
1.85526
1.85526
1.85526
1.85526
1.85526
1.85526
1.85526
1.85526
1.85526
1.85526
1.85527
1.85527
1.85527
1.85527
1.85527
1.85528
1.85528
1.85528
1.85529
1.8553
1.85531
1.85532
1.85533
1.85535
1.85538
1.85543
1.8555
1.85562
1.91107
1.91095
1.91088
1.91083
1.9108
1.91078
1.91077
1.91075
1.91075
1.91074
1.91073
1.91073
1.91073
1.91072
1.91072
1.91072
1.91072
1.91071
1.91071
1.91071
1.91071
1.91071
1.91071
1.91071
1.91071
1.91071
1.91071
1.91071
1.91071
1.91071
1.91071
1.91071
1.91071
1.91071
1.91071
1.91071
1.91071
1.91071
1.91071
1.91071
1.91071
1.91071
1.91071
1.91072
1.91072
1.91072
1.91072
1.91073
1.91073
1.91073
1.91074
1.91075
1.91075
1.91077
1.91078
1.9108
1.91083
1.91088
1.91095
1.91107
1.96614
1.96602
1.96595
1.9659
1.96587
1.96585
1.96583
1.96582
1.96581
1.96581
1.9658
1.9658
1.96579
1.96579
1.96579
1.96578
1.96578
1.96578
1.96578
1.96578
1.96578
1.96578
1.96578
1.96577
1.96577
1.96577
1.96577
1.96577
1.96577
1.96577
1.96577
1.96577
1.96577
1.96577
1.96577
1.96577
1.96577
1.96578
1.96578
1.96578
1.96578
1.96578
1.96578
1.96578
1.96578
1.96579
1.96579
1.96579
1.9658
1.9658
1.96581
1.96581
1.96582
1.96583
1.96585
1.96587
1.9659
1.96595
1.96602
1.96614
2.021
2.02088
2.02081
2.02077
2.02074
2.02071
2.0207
2.02069
2.02068
2.02067
2.02066
2.02066
2.02066
2.02065
2.02065
2.02065
2.02065
2.02064
2.02064
2.02064
2.02064
2.02064
2.02064
2.02064
2.02064
2.02064
2.02064
2.02064
2.02064
2.02064
2.02064
2.02064
2.02064
2.02064
2.02064
2.02064
2.02064
2.02064
2.02064
2.02064
2.02064
2.02064
2.02064
2.02065
2.02065
2.02065
2.02065
2.02066
2.02066
2.02066
2.02067
2.02068
2.02069
2.0207
2.02071
2.02074
2.02077
2.02081
2.02088
2.021
2.07582
2.0757
2.07563
2.07559
2.07556
2.07553
2.07552
2.07551
2.0755
2.07549
2.07548
2.07548
2.07547
2.07547
2.07547
2.07547
2.07546
2.07546
2.07546
2.07546
2.07546
2.07546
2.07546
2.07546
2.07546
2.07546
2.07546
2.07546
2.07546
2.07546
2.07546
2.07546
2.07546
2.07546
2.07546
2.07546
2.07546
2.07546
2.07546
2.07546
2.07546
2.07546
2.07546
2.07546
2.07547
2.07547
2.07547
2.07547
2.07548
2.07548
2.07549
2.0755
2.07551
2.07552
2.07553
2.07556
2.07559
2.07563
2.0757
2.07582
2.13074
2.13063
2.13055
2.13051
2.13048
2.13045
2.13044
2.13043
2.13042
2.13041
2.1304
2.1304
2.13039
2.13039
2.13039
2.13039
2.13038
2.13038
2.13038
2.13038
2.13038
2.13038
2.13038
2.13038
2.13038
2.13038
2.13038
2.13038
2.13037
2.13037
2.13037
2.13037
2.13038
2.13038
2.13038
2.13038
2.13038
2.13038
2.13038
2.13038
2.13038
2.13038
2.13038
2.13038
2.13039
2.13039
2.13039
2.13039
2.1304
2.1304
2.13041
2.13042
2.13043
2.13044
2.13045
2.13048
2.13051
2.13055
2.13063
2.13074
2.18589
2.18578
2.18571
2.18566
2.18563
2.18561
2.18559
2.18558
2.18557
2.18556
2.18556
2.18555
2.18555
2.18554
2.18554
2.18554
2.18554
2.18553
2.18553
2.18553
2.18553
2.18553
2.18553
2.18553
2.18553
2.18553
2.18553
2.18553
2.18553
2.18553
2.18553
2.18553
2.18553
2.18553
2.18553
2.18553
2.18553
2.18553
2.18553
2.18553
2.18553
2.18553
2.18553
2.18554
2.18554
2.18554
2.18554
2.18555
2.18555
2.18556
2.18556
2.18557
2.18558
2.18559
2.18561
2.18563
2.18566
2.18571
2.18578
2.18589
2.2414
2.24129
2.24121
2.24117
2.24114
2.24111
2.2411
2.24108
2.24107
2.24107
2.24106
2.24105
2.24105
2.24105
2.24104
2.24104
2.24104
2.24104
2.24104
2.24104
2.24103
2.24103
2.24103
2.24103
2.24103
2.24103
2.24103
2.24103
2.24103
2.24103
2.24103
2.24103
2.24103
2.24103
2.24103
2.24103
2.24103
2.24103
2.24103
2.24103
2.24104
2.24104
2.24104
2.24104
2.24104
2.24104
2.24105
2.24105
2.24105
2.24106
2.24107
2.24107
2.24108
2.2411
2.24111
2.24114
2.24117
2.24121
2.24129
2.2414
2.29737
2.29726
2.29719
2.29714
2.29711
2.29709
2.29707
2.29706
2.29705
2.29704
2.29703
2.29703
2.29702
2.29702
2.29702
2.29701
2.29701
2.29701
2.29701
2.29701
2.29701
2.297
2.297
2.297
2.297
2.297
2.297
2.297
2.297
2.297
2.297
2.297
2.297
2.297
2.297
2.297
2.297
2.297
2.297
2.29701
2.29701
2.29701
2.29701
2.29701
2.29701
2.29702
2.29702
2.29702
2.29703
2.29703
2.29704
2.29705
2.29706
2.29707
2.29709
2.29711
2.29714
2.29719
2.29726
2.29737
2.35391
2.35381
2.35373
2.35369
2.35365
2.35363
2.35361
2.3536
2.35359
2.35358
2.35358
2.35357
2.35357
2.35356
2.35356
2.35356
2.35355
2.35355
2.35355
2.35355
2.35355
2.35355
2.35355
2.35355
2.35355
2.35355
2.35355
2.35354
2.35354
2.35354
2.35354
2.35354
2.35354
2.35355
2.35355
2.35355
2.35355
2.35355
2.35355
2.35355
2.35355
2.35355
2.35355
2.35355
2.35356
2.35356
2.35356
2.35357
2.35357
2.35358
2.35358
2.35359
2.3536
2.35361
2.35363
2.35365
2.35369
2.35373
2.35381
2.35391
2.41113
2.41102
2.41095
2.41091
2.41087
2.41085
2.41083
2.41082
2.41081
2.4108
2.41079
2.41079
2.41078
2.41078
2.41078
2.41077
2.41077
2.41077
2.41077
2.41077
2.41077
2.41077
2.41077
2.41076
2.41076
2.41076
2.41076
2.41076
2.41076
2.41076
2.41076
2.41076
2.41076
2.41076
2.41076
2.41076
2.41076
2.41077
2.41077
2.41077
2.41077
2.41077
2.41077
2.41077
2.41077
2.41078
2.41078
2.41078
2.41079
2.41079
2.4108
2.41081
2.41082
2.41083
2.41085
2.41087
2.41091
2.41095
2.41102
2.41113
2.46912
2.46901
2.46894
2.4689
2.46886
2.46884
2.46882
2.46881
2.4688
2.46879
2.46878
2.46878
2.46877
2.46877
2.46877
2.46876
2.46876
2.46876
2.46876
2.46876
2.46876
2.46875
2.46875
2.46875
2.46875
2.46875
2.46875
2.46875
2.46875
2.46875
2.46875
2.46875
2.46875
2.46875
2.46875
2.46875
2.46875
2.46875
2.46875
2.46876
2.46876
2.46876
2.46876
2.46876
2.46876
2.46877
2.46877
2.46877
2.46878
2.46878
2.46879
2.4688
2.46881
2.46882
2.46884
2.46886
2.4689
2.46894
2.46901
2.46912
2.52797
2.52787
2.5278
2.52775
2.52772
2.52769
2.52768
2.52766
2.52765
2.52764
2.52764
2.52763
2.52763
2.52762
2.52762
2.52762
2.52761
2.52761
2.52761
2.52761
2.52761
2.52761
2.52761
2.52761
2.52761
2.5276
2.5276
2.5276
2.5276
2.5276
2.5276
2.5276
2.5276
2.5276
2.5276
2.52761
2.52761
2.52761
2.52761
2.52761
2.52761
2.52761
2.52761
2.52761
2.52762
2.52762
2.52762
2.52763
2.52763
2.52764
2.52764
2.52765
2.52766
2.52768
2.52769
2.52772
2.52775
2.5278
2.52787
2.52797
2.58777
2.58768
2.58761
2.58756
2.58753
2.5875
2.58748
2.58747
2.58746
2.58745
2.58744
2.58744
2.58743
2.58743
2.58743
2.58742
2.58742
2.58742
2.58742
2.58742
2.58742
2.58742
2.58741
2.58741
2.58741
2.58741
2.58741
2.58741
2.58741
2.58741
2.58741
2.58741
2.58741
2.58741
2.58741
2.58741
2.58741
2.58741
2.58742
2.58742
2.58742
2.58742
2.58742
2.58742
2.58742
2.58743
2.58743
2.58743
2.58744
2.58744
2.58745
2.58746
2.58747
2.58748
2.5875
2.58753
2.58756
2.58761
2.58768
2.58777
2.64862
2.64853
2.64846
2.64841
2.64838
2.64835
2.64833
2.64832
2.64831
2.6483
2.64829
2.64829
2.64828
2.64828
2.64828
2.64827
2.64827
2.64827
2.64827
2.64827
2.64827
2.64827
2.64826
2.64826
2.64826
2.64826
2.64826
2.64826
2.64826
2.64826
2.64826
2.64826
2.64826
2.64826
2.64826
2.64826
2.64826
2.64826
2.64827
2.64827
2.64827
2.64827
2.64827
2.64827
2.64827
2.64828
2.64828
2.64828
2.64829
2.64829
2.6483
2.64831
2.64832
2.64833
2.64835
2.64838
2.64841
2.64846
2.64853
2.64862
2.7106
2.71051
2.71044
2.71039
2.71036
2.71033
2.71031
2.7103
2.71029
2.71028
2.71027
2.71027
2.71026
2.71026
2.71026
2.71025
2.71025
2.71025
2.71025
2.71025
2.71025
2.71024
2.71024
2.71024
2.71024
2.71024
2.71024
2.71024
2.71024
2.71024
2.71024
2.71024
2.71024
2.71024
2.71024
2.71024
2.71024
2.71024
2.71024
2.71025
2.71025
2.71025
2.71025
2.71025
2.71025
2.71026
2.71026
2.71026
2.71027
2.71027
2.71028
2.71029
2.7103
2.71031
2.71033
2.71036
2.71039
2.71044
2.71051
2.7106
2.77379
2.7737
2.77363
2.77359
2.77355
2.77353
2.77351
2.77349
2.77348
2.77347
2.77347
2.77346
2.77346
2.77345
2.77345
2.77345
2.77344
2.77344
2.77344
2.77344
2.77344
2.77344
2.77344
2.77344
2.77343
2.77343
2.77343
2.77343
2.77343
2.77343
2.77343
2.77343
2.77343
2.77343
2.77343
2.77343
2.77344
2.77344
2.77344
2.77344
2.77344
2.77344
2.77344
2.77344
2.77345
2.77345
2.77345
2.77346
2.77346
2.77347
2.77347
2.77348
2.77349
2.77351
2.77353
2.77355
2.77359
2.77363
2.7737
2.77379
2.83828
2.83819
2.83812
2.83808
2.83804
2.83802
2.838
2.83799
2.83797
2.83797
2.83796
2.83795
2.83795
2.83794
2.83794
2.83794
2.83794
2.83793
2.83793
2.83793
2.83793
2.83793
2.83793
2.83793
2.83792
2.83792
2.83792
2.83792
2.83792
2.83792
2.83792
2.83792
2.83792
2.83792
2.83792
2.83792
2.83793
2.83793
2.83793
2.83793
2.83793
2.83793
2.83793
2.83794
2.83794
2.83794
2.83794
2.83795
2.83795
2.83796
2.83797
2.83797
2.83799
2.838
2.83802
2.83804
2.83808
2.83812
2.83819
2.83828
2.90415
2.90406
2.904
2.90395
2.90392
2.90389
2.90387
2.90386
2.90385
2.90384
2.90383
2.90382
2.90382
2.90381
2.90381
2.90381
2.90381
2.9038
2.9038
2.9038
2.9038
2.9038
2.9038
2.9038
2.9038
2.9038
2.9038
2.90379
2.90379
2.90379
2.90379
2.90379
2.90379
2.9038
2.9038
2.9038
2.9038
2.9038
2.9038
2.9038
2.9038
2.9038
2.9038
2.90381
2.90381
2.90381
2.90381
2.90382
2.90382
2.90383
2.90384
2.90385
2.90386
2.90387
2.90389
2.90392
2.90395
2.904
2.90406
2.90415
2.97148
2.9714
2.97133
2.97129
2.97125
2.97123
2.97121
2.97119
2.97118
2.97117
2.97116
2.97116
2.97115
2.97115
2.97115
2.97114
2.97114
2.97114
2.97114
2.97114
2.97113
2.97113
2.97113
2.97113
2.97113
2.97113
2.97113
2.97113
2.97113
2.97113
2.97113
2.97113
2.97113
2.97113
2.97113
2.97113
2.97113
2.97113
2.97113
2.97113
2.97114
2.97114
2.97114
2.97114
2.97114
2.97115
2.97115
2.97115
2.97116
2.97116
2.97117
2.97118
2.97119
2.97121
2.97123
2.97125
2.97129
2.97133
2.9714
2.97148
3.04036
3.04028
3.04021
3.04017
3.04013
3.04011
3.04009
3.04007
3.04006
3.04005
3.04005
3.04004
3.04003
3.04003
3.04003
3.04002
3.04002
3.04002
3.04002
3.04002
3.04001
3.04001
3.04001
3.04001
3.04001
3.04001
3.04001
3.04001
3.04001
3.04001
3.04001
3.04001
3.04001
3.04001
3.04001
3.04001
3.04001
3.04001
3.04001
3.04001
3.04002
3.04002
3.04002
3.04002
3.04002
3.04003
3.04003
3.04003
3.04004
3.04005
3.04005
3.04006
3.04007
3.04009
3.04011
3.04013
3.04017
3.04021
3.04028
3.04036
3.11086
3.11079
3.11072
3.11068
3.11064
3.11062
3.1106
3.11058
3.11057
3.11056
3.11055
3.11055
3.11054
3.11054
3.11054
3.11053
3.11053
3.11053
3.11053
3.11052
3.11052
3.11052
3.11052
3.11052
3.11052
3.11052
3.11052
3.11052
3.11052
3.11052
3.11052
3.11052
3.11052
3.11052
3.11052
3.11052
3.11052
3.11052
3.11052
3.11052
3.11052
3.11053
3.11053
3.11053
3.11053
3.11054
3.11054
3.11054
3.11055
3.11055
3.11056
3.11057
3.11058
3.1106
3.11062
3.11064
3.11068
3.11072
3.11079
3.11086
3.18308
3.183
3.18294
3.1829
3.18286
3.18284
3.18282
3.1828
3.18279
3.18278
3.18277
3.18277
3.18276
3.18276
3.18275
3.18275
3.18275
3.18275
3.18274
3.18274
3.18274
3.18274
3.18274
3.18274
3.18274
3.18274
3.18274
3.18274
3.18274
3.18274
3.18274
3.18274
3.18274
3.18274
3.18274
3.18274
3.18274
3.18274
3.18274
3.18274
3.18274
3.18274
3.18275
3.18275
3.18275
3.18275
3.18276
3.18276
3.18277
3.18277
3.18278
3.18279
3.1828
3.18282
3.18284
3.18286
3.1829
3.18294
3.183
3.18308
3.25709
3.25702
3.25695
3.25691
3.25687
3.25685
3.25683
3.25682
3.2568
3.25679
3.25679
3.25678
3.25677
3.25677
3.25677
3.25676
3.25676
3.25676
3.25676
3.25676
3.25675
3.25675
3.25675
3.25675
3.25675
3.25675
3.25675
3.25675
3.25675
3.25675
3.25675
3.25675
3.25675
3.25675
3.25675
3.25675
3.25675
3.25675
3.25675
3.25675
3.25676
3.25676
3.25676
3.25676
3.25676
3.25677
3.25677
3.25677
3.25678
3.25679
3.25679
3.2568
3.25682
3.25683
3.25685
3.25687
3.25691
3.25695
3.25702
3.25709
3.33297
3.3329
3.33284
3.3328
3.33276
3.33274
3.33272
3.3327
3.33269
3.33268
3.33268
3.33267
3.33266
3.33266
3.33266
3.33265
3.33265
3.33265
3.33265
3.33264
3.33264
3.33264
3.33264
3.33264
3.33264
3.33264
3.33264
3.33264
3.33264
3.33264
3.33264
3.33264
3.33264
3.33264
3.33264
3.33264
3.33264
3.33264
3.33264
3.33264
3.33264
3.33265
3.33265
3.33265
3.33265
3.33266
3.33266
3.33266
3.33267
3.33268
3.33268
3.33269
3.3327
3.33272
3.33274
3.33276
3.3328
3.33284
3.3329
3.33297
3.41082
3.41075
3.41069
3.41065
3.41062
3.41059
3.41057
3.41056
3.41054
3.41053
3.41053
3.41052
3.41051
3.41051
3.41051
3.4105
3.4105
3.4105
3.4105
3.41049
3.41049
3.41049
3.41049
3.41049
3.41049
3.41049
3.41049
3.41049
3.41049
3.41049
3.41049
3.41049
3.41049
3.41049
3.41049
3.41049
3.41049
3.41049
3.41049
3.41049
3.41049
3.4105
3.4105
3.4105
3.4105
3.41051
3.41051
3.41051
3.41052
3.41053
3.41053
3.41054
3.41056
3.41057
3.41059
3.41062
3.41065
3.41069
3.41075
3.41082
3.49071
3.49065
3.49059
3.49054
3.49051
3.49049
3.49047
3.49045
3.49044
3.49043
3.49042
3.49041
3.49041
3.4904
3.4904
3.4904
3.49039
3.49039
3.49039
3.49039
3.49039
3.49039
3.49038
3.49038
3.49038
3.49038
3.49038
3.49038
3.49038
3.49038
3.49038
3.49038
3.49038
3.49038
3.49038
3.49038
3.49038
3.49038
3.49039
3.49039
3.49039
3.49039
3.49039
3.49039
3.4904
3.4904
3.4904
3.49041
3.49041
3.49042
3.49043
3.49044
3.49045
3.49047
3.49049
3.49051
3.49054
3.49059
3.49065
3.49071
3.57273
3.57267
3.57261
3.57257
3.57254
3.57251
3.57249
3.57248
3.57246
3.57245
3.57245
3.57244
3.57243
3.57243
3.57243
3.57242
3.57242
3.57242
3.57241
3.57241
3.57241
3.57241
3.57241
3.57241
3.57241
3.57241
3.57241
3.57241
3.57241
3.57241
3.57241
3.57241
3.57241
3.57241
3.57241
3.57241
3.57241
3.57241
3.57241
3.57241
3.57241
3.57241
3.57242
3.57242
3.57242
3.57243
3.57243
3.57243
3.57244
3.57245
3.57245
3.57246
3.57248
3.57249
3.57251
3.57254
3.57257
3.57261
3.57267
3.57273
3.65696
3.65691
3.65685
3.65681
3.65678
3.65675
3.65673
3.65672
3.65671
3.6567
3.65669
3.65668
3.65668
3.65667
3.65667
3.65666
3.65666
3.65666
3.65666
3.65666
3.65665
3.65665
3.65665
3.65665
3.65665
3.65665
3.65665
3.65665
3.65665
3.65665
3.65665
3.65665
3.65665
3.65665
3.65665
3.65665
3.65665
3.65665
3.65665
3.65665
3.65666
3.65666
3.65666
3.65666
3.65666
3.65667
3.65667
3.65668
3.65668
3.65669
3.6567
3.65671
3.65672
3.65673
3.65675
3.65678
3.65681
3.65685
3.65691
3.65696
3.74351
3.74345
3.7434
3.74336
3.74333
3.7433
3.74328
3.74327
3.74325
3.74324
3.74324
3.74323
3.74322
3.74322
3.74321
3.74321
3.74321
3.74321
3.7432
3.7432
3.7432
3.7432
3.7432
3.7432
3.7432
3.7432
3.74319
3.74319
3.74319
3.74319
3.74319
3.74319
3.74319
3.74319
3.7432
3.7432
3.7432
3.7432
3.7432
3.7432
3.7432
3.7432
3.74321
3.74321
3.74321
3.74321
3.74322
3.74322
3.74323
3.74324
3.74324
3.74325
3.74327
3.74328
3.7433
3.74333
3.74336
3.7434
3.74345
3.74351
3.83244
3.83239
3.83234
3.8323
3.83227
3.83224
3.83222
3.83221
3.83219
3.83218
3.83217
3.83217
3.83216
3.83216
3.83215
3.83215
3.83215
3.83214
3.83214
3.83214
3.83214
3.83214
3.83214
3.83214
3.83214
3.83213
3.83213
3.83213
3.83213
3.83213
3.83213
3.83213
3.83213
3.83213
3.83213
3.83214
3.83214
3.83214
3.83214
3.83214
3.83214
3.83214
3.83214
3.83215
3.83215
3.83215
3.83216
3.83216
3.83217
3.83217
3.83218
3.83219
3.83221
3.83222
3.83224
3.83227
3.8323
3.83234
3.83239
3.83244
3.92386
3.92381
3.92376
3.92372
3.92369
3.92366
3.92364
3.92363
3.92362
3.92361
3.9236
3.92359
3.92359
3.92358
3.92358
3.92357
3.92357
3.92357
3.92357
3.92356
3.92356
3.92356
3.92356
3.92356
3.92356
3.92356
3.92356
3.92356
3.92356
3.92356
3.92356
3.92356
3.92356
3.92356
3.92356
3.92356
3.92356
3.92356
3.92356
3.92356
3.92356
3.92357
3.92357
3.92357
3.92357
3.92358
3.92358
3.92359
3.92359
3.9236
3.92361
3.92362
3.92363
3.92364
3.92366
3.92369
3.92372
3.92376
3.92381
3.92386
4.01785
4.0178
4.01776
4.01772
4.01769
4.01766
4.01764
4.01763
4.01761
4.0176
4.01759
4.01759
4.01758
4.01758
4.01757
4.01757
4.01757
4.01756
4.01756
4.01756
4.01756
4.01756
4.01756
4.01755
4.01755
4.01755
4.01755
4.01755
4.01755
4.01755
4.01755
4.01755
4.01755
4.01755
4.01755
4.01755
4.01755
4.01756
4.01756
4.01756
4.01756
4.01756
4.01756
4.01757
4.01757
4.01757
4.01758
4.01758
4.01759
4.01759
4.0176
4.01761
4.01763
4.01764
4.01766
4.01769
4.01772
4.01776
4.0178
4.01785
4.11451
4.11446
4.11442
4.11438
4.11435
4.11433
4.11431
4.11429
4.11428
4.11427
4.11426
4.11425
4.11425
4.11424
4.11424
4.11423
4.11423
4.11423
4.11423
4.11422
4.11422
4.11422
4.11422
4.11422
4.11422
4.11422
4.11422
4.11422
4.11422
4.11422
4.11422
4.11422
4.11422
4.11422
4.11422
4.11422
4.11422
4.11422
4.11422
4.11422
4.11422
4.11423
4.11423
4.11423
4.11423
4.11424
4.11424
4.11425
4.11425
4.11426
4.11427
4.11428
4.11429
4.11431
4.11433
4.11435
4.11438
4.11442
4.11446
4.11451
4.21393
4.21389
4.21384
4.21381
4.21378
4.21375
4.21373
4.21372
4.2137
4.21369
4.21369
4.21368
4.21367
4.21367
4.21366
4.21366
4.21366
4.21365
4.21365
4.21365
4.21365
4.21365
4.21365
4.21364
4.21364
4.21364
4.21364
4.21364
4.21364
4.21364
4.21364
4.21364
4.21364
4.21364
4.21364
4.21364
4.21364
4.21365
4.21365
4.21365
4.21365
4.21365
4.21365
4.21366
4.21366
4.21366
4.21367
4.21367
4.21368
4.21369
4.21369
4.2137
4.21372
4.21373
4.21375
4.21378
4.21381
4.21384
4.21389
4.21393
4.31621
4.31617
4.31613
4.31609
4.31606
4.31604
4.31602
4.316
4.31599
4.31598
4.31597
4.31596
4.31596
4.31595
4.31595
4.31594
4.31594
4.31594
4.31594
4.31593
4.31593
4.31593
4.31593
4.31593
4.31593
4.31593
4.31593
4.31593
4.31593
4.31593
4.31593
4.31593
4.31593
4.31593
4.31593
4.31593
4.31593
4.31593
4.31593
4.31593
4.31593
4.31594
4.31594
4.31594
4.31594
4.31595
4.31595
4.31596
4.31596
4.31597
4.31598
4.31599
4.316
4.31602
4.31604
4.31606
4.31609
4.31613
4.31617
4.31621
4.42144
4.4214
4.42136
4.42133
4.4213
4.42128
4.42126
4.42124
4.42123
4.42122
4.42121
4.4212
4.4212
4.42119
4.42119
4.42118
4.42118
4.42118
4.42118
4.42117
4.42117
4.42117
4.42117
4.42117
4.42117
4.42117
4.42117
4.42117
4.42117
4.42117
4.42117
4.42117
4.42117
4.42117
4.42117
4.42117
4.42117
4.42117
4.42117
4.42117
4.42117
4.42118
4.42118
4.42118
4.42118
4.42119
4.42119
4.4212
4.4212
4.42121
4.42122
4.42123
4.42124
4.42126
4.42128
4.4213
4.42133
4.42136
4.4214
4.42144
4.52973
4.5297
4.52966
4.52962
4.5296
4.52957
4.52955
4.52954
4.52953
4.52952
4.52951
4.5295
4.52949
4.52949
4.52948
4.52948
4.52948
4.52947
4.52947
4.52947
4.52947
4.52947
4.52947
4.52946
4.52946
4.52946
4.52946
4.52946
4.52946
4.52946
4.52946
4.52946
4.52946
4.52946
4.52946
4.52946
4.52946
4.52947
4.52947
4.52947
4.52947
4.52947
4.52947
4.52948
4.52948
4.52948
4.52949
4.52949
4.5295
4.52951
4.52952
4.52953
4.52954
4.52955
4.52957
4.5296
4.52962
4.52966
4.5297
4.52973
4.64118
4.64115
4.64111
4.64108
4.64105
4.64103
4.64101
4.64099
4.64098
4.64097
4.64096
4.64095
4.64095
4.64094
4.64094
4.64093
4.64093
4.64093
4.64093
4.64092
4.64092
4.64092
4.64092
4.64092
4.64092
4.64092
4.64092
4.64092
4.64092
4.64092
4.64092
4.64092
4.64092
4.64092
4.64092
4.64092
4.64092
4.64092
4.64092
4.64092
4.64092
4.64093
4.64093
4.64093
4.64093
4.64094
4.64094
4.64095
4.64095
4.64096
4.64097
4.64098
4.64099
4.64101
4.64103
4.64105
4.64108
4.64111
4.64115
4.64118
4.75589
4.75586
4.75583
4.75579
4.75577
4.75574
4.75573
4.75571
4.7557
4.75569
4.75568
4.75567
4.75567
4.75566
4.75566
4.75565
4.75565
4.75565
4.75564
4.75564
4.75564
4.75564
4.75564
4.75564
4.75563
4.75563
4.75563
4.75563
4.75563
4.75563
4.75563
4.75563
4.75563
4.75563
4.75563
4.75563
4.75564
4.75564
4.75564
4.75564
4.75564
4.75564
4.75565
4.75565
4.75565
4.75566
4.75566
4.75567
4.75567
4.75568
4.75569
4.7557
4.75571
4.75573
4.75574
4.75577
4.75579
4.75583
4.75586
4.75589
4.87397
4.87394
4.87391
4.87388
4.87385
4.87383
4.87381
4.8738
4.87378
4.87377
4.87377
4.87376
4.87375
4.87375
4.87374
4.87374
4.87374
4.87373
4.87373
4.87373
4.87373
4.87372
4.87372
4.87372
4.87372
4.87372
4.87372
4.87372
4.87372
4.87372
4.87372
4.87372
4.87372
4.87372
4.87372
4.87372
4.87372
4.87372
4.87372
4.87373
4.87373
4.87373
4.87373
4.87374
4.87374
4.87374
4.87375
4.87375
4.87376
4.87377
4.87377
4.87378
4.8738
4.87381
4.87383
4.87385
4.87388
4.87391
4.87394
4.87397
4.99553
4.9955
4.99547
4.99544
4.99542
4.9954
4.99538
4.99536
4.99535
4.99534
4.99533
4.99532
4.99532
4.99531
4.99531
4.9953
4.9953
4.9953
4.99529
4.99529
4.99529
4.99529
4.99529
4.99529
4.99529
4.99529
4.99528
4.99528
4.99528
4.99528
4.99528
4.99528
4.99528
4.99528
4.99529
4.99529
4.99529
4.99529
4.99529
4.99529
4.99529
4.99529
4.9953
4.9953
4.9953
4.99531
4.99531
4.99532
4.99532
4.99533
4.99534
4.99535
4.99536
4.99538
4.9954
4.99542
4.99544
4.99547
4.9955
4.99553
5.12068
5.12065
5.12063
5.1206
5.12057
5.12055
5.12053
5.12052
5.12051
5.12049
5.12049
5.12048
5.12047
5.12047
5.12046
5.12046
5.12046
5.12045
5.12045
5.12045
5.12045
5.12044
5.12044
5.12044
5.12044
5.12044
5.12044
5.12044
5.12044
5.12044
5.12044
5.12044
5.12044
5.12044
5.12044
5.12044
5.12044
5.12044
5.12044
5.12045
5.12045
5.12045
5.12045
5.12046
5.12046
5.12046
5.12047
5.12047
5.12048
5.12049
5.12049
5.12051
5.12052
5.12053
5.12055
5.12057
5.1206
5.12063
5.12065
5.12068
5.24953
5.24951
5.24948
5.24945
5.24943
5.24941
5.24939
5.24938
5.24936
5.24935
5.24935
5.24934
5.24933
5.24933
5.24932
5.24932
5.24931
5.24931
5.24931
5.24931
5.24931
5.2493
5.2493
5.2493
5.2493
5.2493
5.2493
5.2493
5.2493
5.2493
5.2493
5.2493
5.2493
5.2493
5.2493
5.2493
5.2493
5.2493
5.2493
5.24931
5.24931
5.24931
5.24931
5.24931
5.24932
5.24932
5.24933
5.24933
5.24934
5.24935
5.24935
5.24936
5.24938
5.24939
5.24941
5.24943
5.24945
5.24948
5.24951
5.24953
5.38221
5.38219
5.38216
5.38213
5.38211
5.38209
5.38207
5.38206
5.38205
5.38204
5.38203
5.38202
5.38201
5.38201
5.382
5.382
5.382
5.38199
5.38199
5.38199
5.38199
5.38198
5.38198
5.38198
5.38198
5.38198
5.38198
5.38198
5.38198
5.38198
5.38198
5.38198
5.38198
5.38198
5.38198
5.38198
5.38198
5.38198
5.38198
5.38199
5.38199
5.38199
5.38199
5.382
5.382
5.382
5.38201
5.38201
5.38202
5.38203
5.38204
5.38205
5.38206
5.38207
5.38209
5.38211
5.38213
5.38216
5.38219
5.38221
5.51882
5.5188
5.51878
5.51875
5.51873
5.51871
5.5187
5.51868
5.51867
5.51866
5.51865
5.51864
5.51864
5.51863
5.51863
5.51862
5.51862
5.51862
5.51861
5.51861
5.51861
5.51861
5.51861
5.5186
5.5186
5.5186
5.5186
5.5186
5.5186
5.5186
5.5186
5.5186
5.5186
5.5186
5.5186
5.5186
5.5186
5.51861
5.51861
5.51861
5.51861
5.51861
5.51862
5.51862
5.51862
5.51863
5.51863
5.51864
5.51864
5.51865
5.51866
5.51867
5.51868
5.5187
5.51871
5.51873