/*--------------------------------*- C++ -*----------------------------------*\
| =========                 |                                                 |
| \\      /  F ield         | foam-extend: Open Source CFD                    |
|  \\    /   O peration     | Version:     4.0                                |
|   \\  /    A nd           | Web:         http://www.foam-extend.org         |
|    \\/     M anipulation  |                                                 |
\*---------------------------------------------------------------------------*/
FoamFile
{
    version     2.0;
    format      ascii;
    class       volScalarField;
    location    "1260";
    object      cMinus;
}
// * * * * * * * * * * * * * * * * * * * * * * * * * * * * * * * * * * * * * //

dimensions      [0 0 0 0 0 0 0];

internalField   nonuniform List<scalar> 
6960
(
0.00510595
0.0051115
0.00511307
0.00511393
0.00511453
0.005115
0.00511536
0.00511565
0.00511589
0.00511609
0.00511625
0.00511639
0.0051165
0.0051166
0.00511669
0.00511676
0.00511682
0.00511688
0.00511692
0.00511696
0.005117
0.00511703
0.00511705
0.00511707
0.00511709
0.0051171
0.00511712
0.00511712
0.00511713
0.00511713
0.00511713
0.00511713
0.00511712
0.00511712
0.0051171
0.00511709
0.00511707
0.00511705
0.00511703
0.005117
0.00511696
0.00511692
0.00511688
0.00511682
0.00511676
0.00511669
0.0051166
0.0051165
0.00511639
0.00511625
0.00511609
0.00511589
0.00511565
0.00511536
0.005115
0.00511453
0.00511393
0.00511307
0.0051115
0.00510595
0.0137124
0.0137273
0.0137313
0.0137334
0.0137349
0.013736
0.0137369
0.0137375
0.0137381
0.0137386
0.0137389
0.0137393
0.0137395
0.0137398
0.01374
0.0137401
0.0137403
0.0137404
0.0137405
0.0137406
0.0137407
0.0137408
0.0137408
0.0137409
0.0137409
0.0137409
0.013741
0.013741
0.013741
0.013741
0.013741
0.013741
0.013741
0.013741
0.0137409
0.0137409
0.0137409
0.0137408
0.0137408
0.0137407
0.0137406
0.0137405
0.0137404
0.0137403
0.0137401
0.01374
0.0137398
0.0137395
0.0137393
0.0137389
0.0137386
0.0137381
0.0137375
0.0137369
0.013736
0.0137349
0.0137334
0.0137313
0.0137273
0.0137124
0.0289096
0.0289404
0.0289483
0.0289522
0.0289549
0.0289569
0.0289584
0.0289596
0.0289606
0.0289615
0.0289622
0.0289627
0.0289632
0.0289636
0.028964
0.0289643
0.0289645
0.0289647
0.0289649
0.0289651
0.0289652
0.0289654
0.0289655
0.0289656
0.0289656
0.0289657
0.0289657
0.0289658
0.0289658
0.0289658
0.0289658
0.0289658
0.0289658
0.0289657
0.0289657
0.0289656
0.0289656
0.0289655
0.0289654
0.0289652
0.0289651
0.0289649
0.0289647
0.0289645
0.0289643
0.028964
0.0289636
0.0289632
0.0289627
0.0289622
0.0289615
0.0289606
0.0289596
0.0289584
0.0289569
0.0289549
0.0289522
0.0289483
0.0289404
0.0289096
0.0521587
0.0522115
0.0522245
0.0522306
0.0522346
0.0522375
0.0522398
0.0522417
0.0522432
0.0522444
0.0522454
0.0522462
0.0522469
0.0522475
0.052248
0.0522485
0.0522488
0.0522492
0.0522495
0.0522497
0.0522499
0.0522501
0.0522502
0.0522504
0.0522505
0.0522506
0.0522506
0.0522507
0.0522507
0.0522507
0.0522507
0.0522507
0.0522507
0.0522506
0.0522506
0.0522505
0.0522504
0.0522502
0.0522501
0.0522499
0.0522497
0.0522495
0.0522492
0.0522488
0.0522485
0.052248
0.0522475
0.0522469
0.0522462
0.0522454
0.0522444
0.0522432
0.0522417
0.0522398
0.0522375
0.0522346
0.0522306
0.0522245
0.0522115
0.0521587
0.0833741
0.0834526
0.0834713
0.0834794
0.0834845
0.0834883
0.0834913
0.0834936
0.0834955
0.083497
0.0834983
0.0834993
0.0835002
0.083501
0.0835016
0.0835022
0.0835027
0.0835031
0.0835034
0.0835037
0.083504
0.0835042
0.0835044
0.0835046
0.0835047
0.0835048
0.0835049
0.083505
0.083505
0.083505
0.083505
0.083505
0.083505
0.0835049
0.0835048
0.0835047
0.0835046
0.0835044
0.0835042
0.083504
0.0835037
0.0835034
0.0835031
0.0835027
0.0835022
0.0835016
0.083501
0.0835002
0.0834993
0.0834983
0.083497
0.0834955
0.0834936
0.0834913
0.0834883
0.0834845
0.0834794
0.0834713
0.0834526
0.0833741
0.120763
0.120868
0.120892
0.120901
0.120907
0.120912
0.120915
0.120918
0.12092
0.120921
0.120923
0.120924
0.120925
0.120926
0.120926
0.120927
0.120928
0.120928
0.120928
0.120929
0.120929
0.120929
0.12093
0.12093
0.12093
0.12093
0.12093
0.12093
0.12093
0.12093
0.12093
0.12093
0.12093
0.12093
0.12093
0.12093
0.12093
0.12093
0.120929
0.120929
0.120929
0.120928
0.120928
0.120928
0.120927
0.120926
0.120926
0.120925
0.120924
0.120923
0.120921
0.12092
0.120918
0.120915
0.120912
0.120907
0.120901
0.120892
0.120868
0.120763
0.16165
0.161777
0.161806
0.161816
0.161823
0.161827
0.161831
0.161833
0.161836
0.161837
0.161839
0.16184
0.161841
0.161842
0.161843
0.161843
0.161844
0.161844
0.161845
0.161845
0.161845
0.161846
0.161846
0.161846
0.161846
0.161846
0.161846
0.161846
0.161846
0.161846
0.161846
0.161846
0.161846
0.161846
0.161846
0.161846
0.161846
0.161846
0.161846
0.161845
0.161845
0.161845
0.161844
0.161844
0.161843
0.161843
0.161842
0.161841
0.16184
0.161839
0.161837
0.161836
0.161833
0.161831
0.161827
0.161823
0.161816
0.161806
0.161777
0.16165
0.203583
0.20373
0.203762
0.203774
0.20378
0.203785
0.203788
0.203791
0.203793
0.203794
0.203796
0.203797
0.203798
0.203799
0.203799
0.2038
0.2038
0.203801
0.203801
0.203802
0.203802
0.203802
0.203802
0.203803
0.203803
0.203803
0.203803
0.203803
0.203803
0.203803
0.203803
0.203803
0.203803
0.203803
0.203803
0.203803
0.203803
0.203802
0.203802
0.203802
0.203802
0.203801
0.203801
0.2038
0.2038
0.203799
0.203799
0.203798
0.203797
0.203796
0.203794
0.203793
0.203791
0.203788
0.203785
0.20378
0.203774
0.203762
0.20373
0.203583
0.244955
0.24512
0.245155
0.245167
0.245173
0.245177
0.245181
0.245183
0.245185
0.245187
0.245188
0.245189
0.24519
0.245191
0.245191
0.245192
0.245192
0.245193
0.245193
0.245193
0.245194
0.245194
0.245194
0.245194
0.245194
0.245194
0.245195
0.245195
0.245195
0.245195
0.245195
0.245195
0.245195
0.245195
0.245194
0.245194
0.245194
0.245194
0.245194
0.245194
0.245193
0.245193
0.245193
0.245192
0.245192
0.245191
0.245191
0.24519
0.245189
0.245188
0.245187
0.245185
0.245183
0.245181
0.245177
0.245173
0.245167
0.245155
0.24512
0.244955
0.284997
0.285176
0.285214
0.285226
0.285232
0.285236
0.285239
0.285241
0.285243
0.285245
0.285246
0.285247
0.285248
0.285248
0.285249
0.285249
0.28525
0.28525
0.285251
0.285251
0.285251
0.285251
0.285251
0.285252
0.285252
0.285252
0.285252
0.285252
0.285252
0.285252
0.285252
0.285252
0.285252
0.285252
0.285252
0.285252
0.285252
0.285251
0.285251
0.285251
0.285251
0.285251
0.28525
0.28525
0.285249
0.285249
0.285248
0.285248
0.285247
0.285246
0.285245
0.285243
0.285241
0.285239
0.285236
0.285232
0.285226
0.285214
0.285176
0.284997
0.323467
0.32366
0.323701
0.323713
0.323719
0.323723
0.323725
0.323727
0.323729
0.32373
0.323731
0.323732
0.323733
0.323734
0.323734
0.323735
0.323735
0.323735
0.323736
0.323736
0.323736
0.323736
0.323736
0.323737
0.323737
0.323737
0.323737
0.323737
0.323737
0.323737
0.323737
0.323737
0.323737
0.323737
0.323737
0.323737
0.323737
0.323736
0.323736
0.323736
0.323736
0.323736
0.323735
0.323735
0.323735
0.323734
0.323734
0.323733
0.323732
0.323731
0.32373
0.323729
0.323727
0.323725
0.323723
0.323719
0.323713
0.323701
0.32366
0.323467
0.360369
0.360574
0.360618
0.36063
0.360636
0.360639
0.360642
0.360644
0.360645
0.360646
0.360647
0.360648
0.360649
0.360649
0.36065
0.36065
0.36065
0.360651
0.360651
0.360651
0.360651
0.360652
0.360652
0.360652
0.360652
0.360652
0.360652
0.360652
0.360652
0.360652
0.360652
0.360652
0.360652
0.360652
0.360652
0.360652
0.360652
0.360652
0.360652
0.360651
0.360651
0.360651
0.360651
0.36065
0.36065
0.36065
0.360649
0.360649
0.360648
0.360647
0.360646
0.360645
0.360644
0.360642
0.360639
0.360636
0.36063
0.360618
0.360574
0.360369
0.395775
0.395991
0.396037
0.39605
0.396055
0.396058
0.396061
0.396062
0.396064
0.396065
0.396066
0.396067
0.396067
0.396068
0.396068
0.396068
0.396069
0.396069
0.396069
0.396069
0.39607
0.39607
0.39607
0.39607
0.39607
0.39607
0.39607
0.39607
0.39607
0.39607
0.39607
0.39607
0.39607
0.39607
0.39607
0.39607
0.39607
0.39607
0.39607
0.39607
0.396069
0.396069
0.396069
0.396069
0.396068
0.396068
0.396068
0.396067
0.396067
0.396066
0.396065
0.396064
0.396062
0.396061
0.396058
0.396055
0.39605
0.396037
0.395991
0.395775
0.429758
0.429983
0.430032
0.430045
0.43005
0.430053
0.430055
0.430057
0.430058
0.430059
0.43006
0.430061
0.430061
0.430062
0.430062
0.430062
0.430063
0.430063
0.430063
0.430063
0.430064
0.430064
0.430064
0.430064
0.430064
0.430064
0.430064
0.430064
0.430064
0.430064
0.430064
0.430064
0.430064
0.430064
0.430064
0.430064
0.430064
0.430064
0.430064
0.430064
0.430063
0.430063
0.430063
0.430063
0.430062
0.430062
0.430062
0.430061
0.430061
0.43006
0.430059
0.430058
0.430057
0.430055
0.430053
0.43005
0.430045
0.430032
0.429983
0.429758
0.462373
0.462608
0.462659
0.462672
0.462677
0.46268
0.462682
0.462683
0.462684
0.462685
0.462686
0.462687
0.462687
0.462688
0.462688
0.462688
0.462688
0.462689
0.462689
0.462689
0.462689
0.462689
0.462689
0.462689
0.46269
0.46269
0.46269
0.46269
0.46269
0.46269
0.46269
0.46269
0.46269
0.46269
0.46269
0.46269
0.462689
0.462689
0.462689
0.462689
0.462689
0.462689
0.462689
0.462688
0.462688
0.462688
0.462688
0.462687
0.462687
0.462686
0.462685
0.462684
0.462683
0.462682
0.46268
0.462677
0.462672
0.462659
0.462608
0.462373
0.493662
0.493904
0.493957
0.493971
0.493976
0.493979
0.49398
0.493982
0.493983
0.493984
0.493984
0.493985
0.493985
0.493986
0.493986
0.493986
0.493987
0.493987
0.493987
0.493987
0.493987
0.493987
0.493987
0.493987
0.493988
0.493988
0.493988
0.493988
0.493988
0.493988
0.493988
0.493988
0.493988
0.493988
0.493988
0.493988
0.493987
0.493987
0.493987
0.493987
0.493987
0.493987
0.493987
0.493987
0.493986
0.493986
0.493986
0.493985
0.493985
0.493984
0.493984
0.493983
0.493982
0.49398
0.493979
0.493976
0.493971
0.493957
0.493904
0.493662
0.523656
0.523904
0.52396
0.523974
0.523979
0.523981
0.523983
0.523984
0.523985
0.523986
0.523987
0.523987
0.523987
0.523988
0.523988
0.523988
0.523988
0.523989
0.523989
0.523989
0.523989
0.523989
0.523989
0.523989
0.523989
0.523989
0.523989
0.523989
0.523989
0.52399
0.52399
0.523989
0.523989
0.523989
0.523989
0.523989
0.523989
0.523989
0.523989
0.523989
0.523989
0.523989
0.523989
0.523988
0.523988
0.523988
0.523988
0.523987
0.523987
0.523987
0.523986
0.523985
0.523984
0.523983
0.523981
0.523979
0.523974
0.52396
0.523904
0.523656
0.552381
0.552635
0.552692
0.552707
0.552711
0.552714
0.552715
0.552717
0.552717
0.552718
0.552719
0.552719
0.552719
0.55272
0.55272
0.55272
0.55272
0.552721
0.552721
0.552721
0.552721
0.552721
0.552721
0.552721
0.552721
0.552721
0.552721
0.552721
0.552721
0.552721
0.552721
0.552721
0.552721
0.552721
0.552721
0.552721
0.552721
0.552721
0.552721
0.552721
0.552721
0.552721
0.552721
0.55272
0.55272
0.55272
0.55272
0.552719
0.552719
0.552719
0.552718
0.552717
0.552717
0.552715
0.552714
0.552711
0.552707
0.552692
0.552635
0.552381
0.57986
0.580119
0.580179
0.580193
0.580198
0.5802
0.580202
0.580203
0.580204
0.580204
0.580205
0.580205
0.580206
0.580206
0.580206
0.580206
0.580206
0.580207
0.580207
0.580207
0.580207
0.580207
0.580207
0.580207
0.580207
0.580207
0.580207
0.580207
0.580207
0.580207
0.580207
0.580207
0.580207
0.580207
0.580207
0.580207
0.580207
0.580207
0.580207
0.580207
0.580207
0.580207
0.580207
0.580206
0.580206
0.580206
0.580206
0.580206
0.580205
0.580205
0.580204
0.580204
0.580203
0.580202
0.5802
0.580198
0.580193
0.580179
0.580119
0.57986
0.606118
0.606381
0.606442
0.606457
0.606462
0.606464
0.606466
0.606467
0.606467
0.606468
0.606468
0.606469
0.606469
0.606469
0.606469
0.60647
0.60647
0.60647
0.60647
0.60647
0.60647
0.60647
0.60647
0.60647
0.60647
0.60647
0.606471
0.606471
0.606471
0.606471
0.606471
0.606471
0.606471
0.606471
0.60647
0.60647
0.60647
0.60647
0.60647
0.60647
0.60647
0.60647
0.60647
0.60647
0.60647
0.606469
0.606469
0.606469
0.606469
0.606468
0.606468
0.606467
0.606467
0.606466
0.606464
0.606462
0.606457
0.606442
0.606381
0.606118
0.631178
0.631443
0.631507
0.631522
0.631527
0.631529
0.63153
0.631531
0.631532
0.631532
0.631533
0.631533
0.631533
0.631534
0.631534
0.631534
0.631534
0.631534
0.631534
0.631534
0.631534
0.631535
0.631535
0.631535
0.631535
0.631535
0.631535
0.631535
0.631535
0.631535
0.631535
0.631535
0.631535
0.631535
0.631535
0.631535
0.631535
0.631535
0.631535
0.631534
0.631534
0.631534
0.631534
0.631534
0.631534
0.631534
0.631534
0.631533
0.631533
0.631533
0.631532
0.631532
0.631531
0.63153
0.631529
0.631527
0.631522
0.631507
0.631443
0.631178
0.655065
0.655331
0.655397
0.655412
0.655417
0.655419
0.65542
0.655421
0.655421
0.655422
0.655422
0.655423
0.655423
0.655423
0.655423
0.655423
0.655424
0.655424
0.655424
0.655424
0.655424
0.655424
0.655424
0.655424
0.655424
0.655424
0.655424
0.655424
0.655424
0.655424
0.655424
0.655424
0.655424
0.655424
0.655424
0.655424
0.655424
0.655424
0.655424
0.655424
0.655424
0.655424
0.655424
0.655424
0.655423
0.655423
0.655423
0.655423
0.655423
0.655422
0.655422
0.655421
0.655421
0.65542
0.655419
0.655417
0.655412
0.655397
0.655331
0.655065
0.677802
0.678069
0.678136
0.678153
0.678157
0.678159
0.67816
0.678161
0.678161
0.678162
0.678162
0.678163
0.678163
0.678163
0.678163
0.678163
0.678163
0.678163
0.678164
0.678164
0.678164
0.678164
0.678164
0.678164
0.678164
0.678164
0.678164
0.678164
0.678164
0.678164
0.678164
0.678164
0.678164
0.678164
0.678164
0.678164
0.678164
0.678164
0.678164
0.678164
0.678164
0.678164
0.678163
0.678163
0.678163
0.678163
0.678163
0.678163
0.678163
0.678162
0.678162
0.678161
0.678161
0.67816
0.678159
0.678157
0.678153
0.678136
0.678069
0.677802
0.699417
0.699684
0.699753
0.699769
0.699774
0.699776
0.699777
0.699777
0.699778
0.699778
0.699779
0.699779
0.699779
0.699779
0.699779
0.69978
0.69978
0.69978
0.69978
0.69978
0.69978
0.69978
0.69978
0.69978
0.69978
0.69978
0.69978
0.69978
0.69978
0.69978
0.69978
0.69978
0.69978
0.69978
0.69978
0.69978
0.69978
0.69978
0.69978
0.69978
0.69978
0.69978
0.69978
0.69978
0.69978
0.699779
0.699779
0.699779
0.699779
0.699779
0.699778
0.699778
0.699777
0.699777
0.699776
0.699774
0.699769
0.699753
0.699684
0.699417
0.719937
0.720203
0.720273
0.72029
0.720295
0.720296
0.720297
0.720298
0.720298
0.720299
0.720299
0.720299
0.720299
0.7203
0.7203
0.7203
0.7203
0.7203
0.7203
0.7203
0.7203
0.7203
0.7203
0.7203
0.7203
0.7203
0.7203
0.7203
0.7203
0.7203
0.7203
0.7203
0.7203
0.7203
0.7203
0.7203
0.7203
0.7203
0.7203
0.7203
0.7203
0.7203
0.7203
0.7203
0.7203
0.7203
0.7203
0.720299
0.720299
0.720299
0.720299
0.720298
0.720298
0.720297
0.720296
0.720295
0.72029
0.720273
0.720203
0.719937
0.739389
0.739654
0.739725
0.739743
0.739747
0.739749
0.73975
0.739751
0.739751
0.739751
0.739751
0.739752
0.739752
0.739752
0.739752
0.739752
0.739752
0.739752
0.739752
0.739752
0.739753
0.739753
0.739753
0.739753
0.739753
0.739753
0.739753
0.739753
0.739753
0.739753
0.739753
0.739753
0.739753
0.739753
0.739753
0.739753
0.739753
0.739753
0.739753
0.739753
0.739752
0.739752
0.739752
0.739752
0.739752
0.739752
0.739752
0.739752
0.739752
0.739751
0.739751
0.739751
0.739751
0.73975
0.739749
0.739747
0.739743
0.739725
0.739654
0.739389
0.757805
0.758067
0.758139
0.758157
0.758162
0.758163
0.758164
0.758165
0.758165
0.758166
0.758166
0.758166
0.758166
0.758166
0.758166
0.758166
0.758166
0.758167
0.758167
0.758167
0.758167
0.758167
0.758167
0.758167
0.758167
0.758167
0.758167
0.758167
0.758167
0.758167
0.758167
0.758167
0.758167
0.758167
0.758167
0.758167
0.758167
0.758167
0.758167
0.758167
0.758167
0.758167
0.758167
0.758166
0.758166
0.758166
0.758166
0.758166
0.758166
0.758166
0.758166
0.758165
0.758165
0.758164
0.758163
0.758162
0.758157
0.758139
0.758067
0.757805
0.775213
0.775472
0.775545
0.775564
0.775568
0.77557
0.775571
0.775571
0.775572
0.775572
0.775572
0.775572
0.775572
0.775572
0.775573
0.775573
0.775573
0.775573
0.775573
0.775573
0.775573
0.775573
0.775573
0.775573
0.775573
0.775573
0.775573
0.775573
0.775573
0.775573
0.775573
0.775573
0.775573
0.775573
0.775573
0.775573
0.775573
0.775573
0.775573
0.775573
0.775573
0.775573
0.775573
0.775573
0.775573
0.775573
0.775572
0.775572
0.775572
0.775572
0.775572
0.775572
0.775571
0.775571
0.77557
0.775568
0.775564
0.775545
0.775472
0.775213
0.791645
0.791901
0.791974
0.791993
0.791998
0.792
0.792001
0.792001
0.792001
0.792002
0.792002
0.792002
0.792002
0.792002
0.792002
0.792002
0.792002
0.792002
0.792002
0.792002
0.792003
0.792003
0.792003
0.792003
0.792003
0.792003
0.792003
0.792003
0.792003
0.792003
0.792003
0.792003
0.792003
0.792003
0.792003
0.792003
0.792003
0.792003
0.792003
0.792003
0.792002
0.792002
0.792002
0.792002
0.792002
0.792002
0.792002
0.792002
0.792002
0.792002
0.792002
0.792001
0.792001
0.792001
0.792
0.791998
0.791993
0.791974
0.791901
0.791645
0.807134
0.807385
0.807459
0.807478
0.807483
0.807485
0.807486
0.807486
0.807486
0.807487
0.807487
0.807487
0.807487
0.807487
0.807487
0.807487
0.807487
0.807487
0.807487
0.807487
0.807488
0.807488
0.807488
0.807488
0.807488
0.807488
0.807488
0.807488
0.807488
0.807488
0.807488
0.807488
0.807488
0.807488
0.807488
0.807488
0.807488
0.807488
0.807488
0.807488
0.807487
0.807487
0.807487
0.807487
0.807487
0.807487
0.807487
0.807487
0.807487
0.807487
0.807487
0.807486
0.807486
0.807486
0.807485
0.807483
0.807478
0.807459
0.807385
0.807134
0.821711
0.821958
0.822032
0.822051
0.822057
0.822058
0.822059
0.822059
0.82206
0.82206
0.82206
0.82206
0.82206
0.82206
0.82206
0.82206
0.82206
0.82206
0.82206
0.822061
0.822061
0.822061
0.822061
0.822061
0.822061
0.822061
0.822061
0.822061
0.822061
0.822061
0.822061
0.822061
0.822061
0.822061
0.822061
0.822061
0.822061
0.822061
0.822061
0.822061
0.822061
0.82206
0.82206
0.82206
0.82206
0.82206
0.82206
0.82206
0.82206
0.82206
0.82206
0.82206
0.822059
0.822059
0.822058
0.822057
0.822051
0.822032
0.821958
0.821711
0.83541
0.835651
0.835726
0.835746
0.835751
0.835753
0.835753
0.835754
0.835754
0.835754
0.835754
0.835754
0.835754
0.835754
0.835755
0.835755
0.835755
0.835755
0.835755
0.835755
0.835755
0.835755
0.835755
0.835755
0.835755
0.835755
0.835755
0.835755
0.835755
0.835755
0.835755
0.835755
0.835755
0.835755
0.835755
0.835755
0.835755
0.835755
0.835755
0.835755
0.835755
0.835755
0.835755
0.835755
0.835755
0.835755
0.835754
0.835754
0.835754
0.835754
0.835754
0.835754
0.835754
0.835753
0.835753
0.835751
0.835746
0.835726
0.835651
0.83541
0.848264
0.8485
0.848574
0.848595
0.8486
0.848602
0.848602
0.848603
0.848603
0.848603
0.848603
0.848603
0.848603
0.848603
0.848604
0.848604
0.848604
0.848604
0.848604
0.848604
0.848604
0.848604
0.848604
0.848604
0.848604
0.848604
0.848604
0.848604
0.848604
0.848604
0.848604
0.848604
0.848604
0.848604
0.848604
0.848604
0.848604
0.848604
0.848604
0.848604
0.848604
0.848604
0.848604
0.848604
0.848604
0.848604
0.848603
0.848603
0.848603
0.848603
0.848603
0.848603
0.848603
0.848602
0.848602
0.8486
0.848595
0.848574
0.8485
0.848264
0.860308
0.860538
0.860611
0.860632
0.860638
0.860639
0.86064
0.86064
0.860641
0.860641
0.860641
0.860641
0.860641
0.860641
0.860641
0.860641
0.860641
0.860641
0.860641
0.860641
0.860641
0.860641
0.860641
0.860641
0.860641
0.860641
0.860641
0.860641
0.860641
0.860641
0.860641
0.860641
0.860641
0.860641
0.860641
0.860641
0.860641
0.860641
0.860641
0.860641
0.860641
0.860641
0.860641
0.860641
0.860641
0.860641
0.860641
0.860641
0.860641
0.860641
0.860641
0.860641
0.86064
0.86064
0.860639
0.860638
0.860632
0.860611
0.860538
0.860308
0.871575
0.871798
0.871871
0.871892
0.871898
0.8719
0.8719
0.8719
0.871901
0.871901
0.871901
0.871901
0.871901
0.871901
0.871901
0.871901
0.871901
0.871901
0.871901
0.871901
0.871901
0.871901
0.871901
0.871901
0.871901
0.871901
0.871901
0.871901
0.871901
0.871901
0.871901
0.871901
0.871901
0.871901
0.871901
0.871901
0.871901
0.871901
0.871901
0.871901
0.871901
0.871901
0.871901
0.871901
0.871901
0.871901
0.871901
0.871901
0.871901
0.871901
0.871901
0.871901
0.8719
0.8719
0.8719
0.871898
0.871892
0.871871
0.871798
0.871575
0.882098
0.882314
0.882387
0.882409
0.882414
0.882416
0.882417
0.882417
0.882417
0.882417
0.882417
0.882417
0.882417
0.882418
0.882418
0.882418
0.882418
0.882418
0.882418
0.882418
0.882418
0.882418
0.882418
0.882418
0.882418
0.882418
0.882418
0.882418
0.882418
0.882418
0.882418
0.882418
0.882418
0.882418
0.882418
0.882418
0.882418
0.882418
0.882418
0.882418
0.882418
0.882418
0.882418
0.882418
0.882418
0.882418
0.882418
0.882417
0.882417
0.882417
0.882417
0.882417
0.882417
0.882417
0.882416
0.882414
0.882409
0.882387
0.882314
0.882098
0.891912
0.892121
0.892194
0.892215
0.892221
0.892223
0.892224
0.892224
0.892224
0.892224
0.892224
0.892224
0.892224
0.892224
0.892224
0.892224
0.892224
0.892224
0.892224
0.892224
0.892224
0.892224
0.892224
0.892224
0.892224
0.892224
0.892224
0.892224
0.892224
0.892224
0.892224
0.892224
0.892224
0.892224
0.892224
0.892224
0.892224
0.892224
0.892224
0.892224
0.892224
0.892224
0.892224
0.892224
0.892224
0.892224
0.892224
0.892224
0.892224
0.892224
0.892224
0.892224
0.892224
0.892224
0.892223
0.892221
0.892215
0.892194
0.892121
0.891912
0.901051
0.901252
0.901324
0.901346
0.901352
0.901354
0.901354
0.901354
0.901354
0.901355
0.901355
0.901355
0.901355
0.901355
0.901355
0.901355
0.901355
0.901355
0.901355
0.901355
0.901355
0.901355
0.901355
0.901355
0.901355
0.901355
0.901355
0.901355
0.901355
0.901355
0.901355
0.901355
0.901355
0.901355
0.901355
0.901355
0.901355
0.901355
0.901355
0.901355
0.901355
0.901355
0.901355
0.901355
0.901355
0.901355
0.901355
0.901355
0.901355
0.901355
0.901355
0.901354
0.901354
0.901354
0.901354
0.901352
0.901346
0.901324
0.901252
0.901051
0.909547
0.909741
0.909811
0.909833
0.909839
0.909841
0.909842
0.909842
0.909842
0.909842
0.909842
0.909842
0.909842
0.909842
0.909842
0.909842
0.909842
0.909842
0.909842
0.909842
0.909842
0.909842
0.909842
0.909843
0.909843
0.909843
0.909843
0.909843
0.909843
0.909843
0.909843
0.909843
0.909843
0.909843
0.909843
0.909843
0.909843
0.909842
0.909842
0.909842
0.909842
0.909842
0.909842
0.909842
0.909842
0.909842
0.909842
0.909842
0.909842
0.909842
0.909842
0.909842
0.909842
0.909842
0.909841
0.909839
0.909833
0.909811
0.909741
0.909547
0.917433
0.917619
0.917688
0.91771
0.917717
0.917718
0.917719
0.917719
0.917719
0.91772
0.91772
0.91772
0.91772
0.91772
0.91772
0.91772
0.91772
0.91772
0.91772
0.91772
0.91772
0.91772
0.91772
0.91772
0.91772
0.91772
0.91772
0.91772
0.91772
0.91772
0.91772
0.91772
0.91772
0.91772
0.91772
0.91772
0.91772
0.91772
0.91772
0.91772
0.91772
0.91772
0.91772
0.91772
0.91772
0.91772
0.91772
0.91772
0.91772
0.91772
0.91772
0.917719
0.917719
0.917719
0.917718
0.917717
0.91771
0.917688
0.917619
0.917433
0.924741
0.92492
0.924987
0.925009
0.925016
0.925018
0.925018
0.925019
0.925019
0.925019
0.925019
0.925019
0.925019
0.925019
0.925019
0.925019
0.925019
0.925019
0.925019
0.925019
0.925019
0.925019
0.925019
0.925019
0.925019
0.925019
0.925019
0.925019
0.925019
0.925019
0.925019
0.925019
0.925019
0.925019
0.925019
0.925019
0.925019
0.925019
0.925019
0.925019
0.925019
0.925019
0.925019
0.925019
0.925019
0.925019
0.925019
0.925019
0.925019
0.925019
0.925019
0.925019
0.925019
0.925018
0.925018
0.925016
0.925009
0.924987
0.92492
0.924741
0.931503
0.931674
0.93174
0.931762
0.931769
0.931771
0.931771
0.931772
0.931772
0.931772
0.931772
0.931772
0.931772
0.931772
0.931772
0.931772
0.931772
0.931772
0.931772
0.931772
0.931772
0.931772
0.931772
0.931772
0.931772
0.931772
0.931772
0.931772
0.931772
0.931772
0.931772
0.931772
0.931772
0.931772
0.931772
0.931772
0.931772
0.931772
0.931772
0.931772
0.931772
0.931772
0.931772
0.931772
0.931772
0.931772
0.931772
0.931772
0.931772
0.931772
0.931772
0.931772
0.931772
0.931771
0.931771
0.931769
0.931762
0.93174
0.931674
0.931503
0.93775
0.937913
0.937977
0.937999
0.938006
0.938008
0.938009
0.938009
0.938009
0.938009
0.938009
0.938009
0.938009
0.938009
0.938009
0.938009
0.938009
0.938009
0.938009
0.938009
0.938009
0.938009
0.938009
0.938009
0.938009
0.938009
0.938009
0.938009
0.938009
0.938009
0.938009
0.938009
0.938009
0.938009
0.938009
0.938009
0.938009
0.938009
0.938009
0.938009
0.938009
0.938009
0.938009
0.938009
0.938009
0.938009
0.938009
0.938009
0.938009
0.938009
0.938009
0.938009
0.938009
0.938009
0.938008
0.938006
0.937999
0.937977
0.937913
0.93775
0.943511
0.943666
0.943729
0.943751
0.943758
0.94376
0.94376
0.943761
0.943761
0.943761
0.943761
0.943761
0.943761
0.943761
0.943761
0.943761
0.943761
0.943761
0.943761
0.943761
0.943761
0.943761
0.943761
0.943761
0.943761
0.943761
0.943761
0.943761
0.943761
0.943761
0.943761
0.943761
0.943761
0.943761
0.943761
0.943761
0.943761
0.943761
0.943761
0.943761
0.943761
0.943761
0.943761
0.943761
0.943761
0.943761
0.943761
0.943761
0.943761
0.943761
0.943761
0.943761
0.943761
0.94376
0.94376
0.943758
0.943751
0.943729
0.943666
0.943511
0.948816
0.948963
0.949024
0.949046
0.949053
0.949055
0.949056
0.949056
0.949056
0.949056
0.949056
0.949056
0.949056
0.949056
0.949056
0.949056
0.949056
0.949056
0.949056
0.949056
0.949056
0.949056
0.949056
0.949056
0.949056
0.949056
0.949056
0.949056
0.949056
0.949056
0.949056
0.949056
0.949056
0.949056
0.949056
0.949056
0.949056
0.949056
0.949056
0.949056
0.949056
0.949056
0.949056
0.949056
0.949056
0.949056
0.949056
0.949056
0.949056
0.949056
0.949056
0.949056
0.949056
0.949056
0.949055
0.949053
0.949046
0.949024
0.948963
0.948816
0.953693
0.953832
0.953891
0.953913
0.95392
0.953922
0.953923
0.953923
0.953923
0.953923
0.953923
0.953923
0.953923
0.953923
0.953923
0.953923
0.953923
0.953923
0.953923
0.953923
0.953923
0.953923
0.953923
0.953923
0.953923
0.953923
0.953923
0.953923
0.953923
0.953923
0.953923
0.953923
0.953923
0.953923
0.953923
0.953923
0.953923
0.953923
0.953923
0.953923
0.953923
0.953923
0.953923
0.953923
0.953923
0.953923
0.953923
0.953923
0.953923
0.953923
0.953923
0.953923
0.953923
0.953923
0.953922
0.95392
0.953913
0.953891
0.953832
0.953693
0.958169
0.9583
0.958357
0.958378
0.958386
0.958388
0.958389
0.958389
0.958389
0.958389
0.958389
0.958389
0.958389
0.958389
0.958389
0.958389
0.958389
0.958389
0.958389
0.958389
0.958389
0.958389
0.958389
0.958389
0.958389
0.958389
0.958389
0.958389
0.958389
0.958389
0.958389
0.958389
0.958389
0.958389
0.958389
0.958389
0.958389
0.958389
0.958389
0.958389
0.958389
0.958389
0.958389
0.958389
0.958389
0.958389
0.958389
0.958389
0.958389
0.958389
0.958389
0.958389
0.958389
0.958389
0.958388
0.958386
0.958378
0.958357
0.9583
0.958169
0.96227
0.962394
0.962449
0.96247
0.962477
0.962479
0.96248
0.96248
0.96248
0.962481
0.962481
0.962481
0.962481
0.962481
0.962481
0.962481
0.962481
0.962481
0.962481
0.962481
0.962481
0.962481
0.962481
0.962481
0.962481
0.962481
0.962481
0.962481
0.962481
0.962481
0.962481
0.962481
0.962481
0.962481
0.962481
0.962481
0.962481
0.962481
0.962481
0.962481
0.962481
0.962481
0.962481
0.962481
0.962481
0.962481
0.962481
0.962481
0.962481
0.962481
0.962481
0.96248
0.96248
0.96248
0.962479
0.962477
0.96247
0.962449
0.962394
0.96227
0.966022
0.966138
0.966191
0.966211
0.966219
0.966221
0.966222
0.966222
0.966222
0.966222
0.966222
0.966222
0.966222
0.966222
0.966222
0.966222
0.966222
0.966222
0.966222
0.966222
0.966223
0.966223
0.966223
0.966223
0.966223
0.966223
0.966223
0.966223
0.966223
0.966223
0.966223
0.966223
0.966223
0.966223
0.966223
0.966223
0.966223
0.966223
0.966223
0.966223
0.966222
0.966222
0.966222
0.966222
0.966222
0.966222
0.966222
0.966222
0.966222
0.966222
0.966222
0.966222
0.966222
0.966222
0.966221
0.966219
0.966211
0.966191
0.966138
0.966022
0.969448
0.969557
0.969608
0.969628
0.969635
0.969638
0.969638
0.969639
0.969639
0.969639
0.969639
0.969639
0.969639
0.969639
0.969639
0.969639
0.969639
0.969639
0.969639
0.969639
0.969639
0.969639
0.969639
0.969639
0.969639
0.969639
0.969639
0.969639
0.969639
0.969639
0.969639
0.969639
0.969639
0.969639
0.969639
0.969639
0.969639
0.969639
0.969639
0.969639
0.969639
0.969639
0.969639
0.969639
0.969639
0.969639
0.969639
0.969639
0.969639
0.969639
0.969639
0.969639
0.969639
0.969638
0.969638
0.969635
0.969628
0.969608
0.969557
0.969448
0.972571
0.972674
0.972722
0.972742
0.972749
0.972752
0.972753
0.972753
0.972753
0.972753
0.972753
0.972753
0.972753
0.972753
0.972753
0.972753
0.972753
0.972753
0.972753
0.972753
0.972753
0.972753
0.972753
0.972753
0.972753
0.972753
0.972753
0.972753
0.972753
0.972753
0.972753
0.972753
0.972753
0.972753
0.972753
0.972753
0.972753
0.972753
0.972753
0.972753
0.972753
0.972753
0.972753
0.972753
0.972753
0.972753
0.972753
0.972753
0.972753
0.972753
0.972753
0.972753
0.972753
0.972753
0.972752
0.972749
0.972742
0.972722
0.972674
0.972571
0.975415
0.97551
0.975556
0.975576
0.975583
0.975585
0.975586
0.975587
0.975587
0.975587
0.975587
0.975587
0.975587
0.975587
0.975587
0.975587
0.975587
0.975587
0.975587
0.975587
0.975587
0.975587
0.975587
0.975587
0.975587
0.975587
0.975587
0.975587
0.975587
0.975587
0.975587
0.975587
0.975587
0.975587
0.975587
0.975587
0.975587
0.975587
0.975587
0.975587
0.975587
0.975587
0.975587
0.975587
0.975587
0.975587
0.975587
0.975587
0.975587
0.975587
0.975587
0.975587
0.975587
0.975586
0.975585
0.975583
0.975576
0.975556
0.97551
0.975415
0.977998
0.978087
0.978131
0.97815
0.978157
0.97816
0.978161
0.978161
0.978161
0.978161
0.978161
0.978161
0.978161
0.978161
0.978161
0.978161
0.978161
0.978161
0.978161
0.978161
0.978161
0.978161
0.978161
0.978161
0.978161
0.978161
0.978161
0.978161
0.978161
0.978161
0.978161
0.978161
0.978161
0.978161
0.978161
0.978161
0.978161
0.978161
0.978161
0.978161
0.978161
0.978161
0.978161
0.978161
0.978161
0.978161
0.978161
0.978161
0.978161
0.978161
0.978161
0.978161
0.978161
0.978161
0.97816
0.978157
0.97815
0.978131
0.978087
0.977998
0.980342
0.980425
0.980466
0.980484
0.980491
0.980494
0.980495
0.980495
0.980495
0.980496
0.980496
0.980496
0.980496
0.980496
0.980496
0.980496
0.980496
0.980496
0.980496
0.980496
0.980496
0.980496
0.980496
0.980496
0.980496
0.980496
0.980496
0.980496
0.980496
0.980496
0.980496
0.980496
0.980496
0.980496
0.980496
0.980496
0.980496
0.980496
0.980496
0.980496
0.980496
0.980496
0.980496
0.980496
0.980496
0.980496
0.980496
0.980496
0.980496
0.980496
0.980496
0.980495
0.980495
0.980495
0.980494
0.980491
0.980484
0.980466
0.980425
0.980342
0.982464
0.982541
0.98258
0.982598