/*--------------------------------*- C++ -*----------------------------------*\
| =========                 |                                                 |
| \\      /  F ield         | foam-extend: Open Source CFD                    |
|  \\    /   O peration     | Version:     4.0                                |
|   \\  /    A nd           | Web:         http://www.foam-extend.org         |
|    \\/     M anipulation  |                                                 |
\*---------------------------------------------------------------------------*/
FoamFile
{
    version     2.0;
    format      ascii;
    class       volScalarField;
    location    "8";
    object      dC2;
}
// * * * * * * * * * * * * * * * * * * * * * * * * * * * * * * * * * * * * * //

dimensions      [0 -1 0 0 0 0 0];

internalField   nonuniform List<scalar> 
6960
(
-1.94239e-14
-1.94365e-14
-1.94227e-14
-1.94118e-14
-1.94317e-14
-1.94284e-14
-1.94377e-14
-1.94378e-14
-1.94188e-14
-1.94433e-14
-1.94268e-14
-1.94297e-14
-1.94243e-14
-1.94256e-14
-1.9444e-14
-1.94331e-14
-1.94268e-14
-1.94303e-14
-1.94208e-14
-1.94201e-14
-1.9425e-14
-1.94604e-14
-1.9438e-14
-1.94468e-14
-1.94372e-14
-1.94362e-14
-1.94272e-14
-1.94232e-14
-1.94332e-14
-1.944e-14
-1.94288e-14
-1.94142e-14
-1.94302e-14
-1.9407e-14
-1.94261e-14
-1.94457e-14
-1.94141e-14
-1.94194e-14
-1.94336e-14
-1.94329e-14
-1.94216e-14
-1.9443e-14
-1.94083e-14
-1.94138e-14
-1.94232e-14
-1.94189e-14
-1.94439e-14
-1.94028e-14
-1.94441e-14
-1.94231e-14
-1.94297e-14
-1.94251e-14
-1.94161e-14
-1.94266e-14
-1.94377e-14
-1.94435e-14
-1.94257e-14
-1.9428e-14
-1.9422e-14
-1.94254e-14
-6.35072e-14
-6.34627e-14
-6.35175e-14
-6.35311e-14
-6.34674e-14
-6.34898e-14
-6.34611e-14
-6.34895e-14
-6.35309e-14
-6.3444e-14
-6.34564e-14
-6.34527e-14
-6.34827e-14
-6.34717e-14
-6.34745e-14
-6.3469e-14
-6.34747e-14
-6.35273e-14
-6.35282e-14
-6.34893e-14
-6.34512e-14
-6.34128e-14
-6.34727e-14
-6.34714e-14
-6.343e-14
-6.34492e-14
-6.34739e-14
-6.34845e-14
-6.34896e-14
-6.3489e-14
-6.35007e-14
-6.34976e-14
-6.34763e-14
-6.35241e-14
-6.34582e-14
-6.34676e-14
-6.35069e-14
-6.35055e-14
-6.34978e-14
-6.34611e-14
-6.34769e-14
-6.34975e-14
-6.35142e-14
-6.35304e-14
-6.35015e-14
-6.35199e-14
-6.34597e-14
-6.35363e-14
-6.34258e-14
-6.3486e-14
-6.34677e-14
-6.34825e-14
-6.35123e-14
-6.35031e-14
-6.349e-14
-6.34101e-14
-6.34906e-14
-6.35043e-14
-6.34801e-14
-6.35122e-14
-1.60978e-13
-1.61038e-13
-1.60987e-13
-1.60971e-13
-1.61028e-13
-1.61027e-13
-1.61003e-13
-1.60947e-13
-1.60928e-13
-1.61018e-13
-1.61032e-13
-1.61072e-13
-1.61002e-13
-1.61032e-13
-1.60977e-13
-1.60966e-13
-1.61027e-13
-1.60931e-13
-1.60966e-13
-1.61026e-13
-1.61018e-13
-1.61088e-13
-1.61019e-13
-1.61014e-13
-1.61091e-13
-1.60992e-13
-1.61063e-13
-1.60947e-13
-1.60962e-13
-1.60973e-13
-1.60981e-13
-1.60964e-13
-1.6101e-13
-1.60979e-13
-1.61041e-13
-1.61026e-13
-1.61019e-13
-1.60957e-13
-1.60974e-13
-1.61051e-13
-1.61011e-13
-1.60954e-13
-1.61009e-13
-1.60978e-13
-1.60947e-13
-1.61e-13
-1.60992e-13
-1.61003e-13
-1.61063e-13
-1.60976e-13
-1.61003e-13
-1.60994e-13
-1.60991e-13
-1.60984e-13
-1.60989e-13
-1.61077e-13
-1.60967e-13
-1.60934e-13
-1.60977e-13
-1.60976e-13
-1.98892e-14
-1.98586e-14
-1.98427e-14
-1.98854e-14
-1.98447e-14
-1.97705e-14
-1.99334e-14
-1.99193e-14
-1.9963e-14
-1.98911e-14
-1.99207e-14
-1.98601e-14
-1.99084e-14
-1.98513e-14
-1.99145e-14
-1.99787e-14
-1.98415e-14
-1.98948e-14
-1.98927e-14
-1.99059e-14
-1.99393e-14
-1.97609e-14
-1.9896e-14
-1.9894e-14
-1.98629e-14
-2.00177e-14
-1.98003e-14
-1.99328e-14
-1.99264e-14
-1.99278e-14
-1.9865e-14
-1.98827e-14
-1.98261e-14
-1.99474e-14
-1.98686e-14
-1.99173e-14
-1.98209e-14
-1.98971e-14
-1.99515e-14
-1.99155e-14
-1.99458e-14
-1.99271e-14
-1.98162e-14
-1.98169e-14
-1.99499e-14
-1.98029e-14
-1.98992e-14
-1.98181e-14
-1.98561e-14
-1.98879e-14
-1.98862e-14
-1.99401e-14
-1.98865e-14
-1.98799e-14
-1.9881e-14
-1.98993e-14
-1.99255e-14
-1.99433e-14
-1.99883e-14
-1.99235e-14
2.63807e-13
2.63833e-13
2.63807e-13
2.63833e-13
2.63743e-13
2.63734e-13
2.63905e-13
2.6381e-13
2.63929e-13
2.63717e-13
2.63877e-13
2.63812e-13
2.63779e-13
2.63717e-13
2.63875e-13
2.63851e-13
2.63747e-13
2.63771e-13
2.63889e-13
2.63891e-13
2.63881e-13
2.63765e-13
2.63805e-13
2.63754e-13
2.63853e-13
2.64007e-13
2.63849e-13
2.63834e-13
2.63801e-13
2.6384e-13
2.63738e-13
2.6378e-13
2.63739e-13
2.6387e-13
2.63853e-13
2.63843e-13
2.63758e-13
2.63883e-13
2.64006e-13
2.63903e-13
2.63875e-13
2.63834e-13
2.63723e-13
2.63746e-13
2.63878e-13
2.6373e-13
2.63801e-13
2.63797e-13
2.63721e-13
2.63787e-13
2.6377e-13
2.63863e-13
2.6393e-13
2.63791e-13
2.63784e-13
2.63797e-13
2.63852e-13
2.63829e-13
2.6396e-13
2.63871e-13
2.77438e-13
2.77427e-13
2.77435e-13
2.7743e-13
2.77428e-13
2.77385e-13
2.77418e-13
2.7736e-13
2.77364e-13
2.77565e-13
2.77459e-13
2.7749e-13
2.77451e-13
2.77534e-13
2.77434e-13
2.77459e-13
2.7759e-13
2.77487e-13
2.77353e-13
2.77426e-13
2.77459e-13
2.77432e-13
2.77459e-13
2.77518e-13
2.77378e-13
2.77424e-13
2.77439e-13
2.77432e-13
2.77498e-13
2.77465e-13
2.7756e-13
2.77404e-13
2.7752e-13
2.77524e-13
2.77386e-13
2.77411e-13
2.77515e-13
2.77376e-13
2.77346e-13
2.77441e-13
2.77446e-13
2.77505e-13
2.77445e-13
2.77385e-13
2.77352e-13
2.77493e-13
2.7748e-13
2.77367e-13
2.77532e-13
2.77495e-13
2.77471e-13
2.77388e-13
2.77325e-13
2.77428e-13
2.77405e-13
2.77532e-13
2.77425e-13
2.77544e-13
2.77389e-13
2.77394e-13
1.09619e-13
1.09558e-13
1.09576e-13
1.0955e-13
1.09687e-13
1.09626e-13
1.0968e-13
1.09705e-13
1.09622e-13
1.09534e-13
1.09573e-13
1.09682e-13
1.09524e-13
1.09605e-13
1.09573e-13
1.09662e-13
1.09444e-13
1.09549e-13
1.09664e-13
1.09559e-13
1.09526e-13
1.09603e-13
1.09529e-13
1.09598e-13
1.09651e-13
1.09477e-13
1.09609e-13
1.09603e-13
1.09458e-13
1.09574e-13
1.09512e-13
1.09614e-13
1.0956e-13
1.09538e-13
1.0972e-13
1.09547e-13
1.09478e-13
1.09524e-13
1.09618e-13
1.09605e-13
1.0958e-13
1.09543e-13
1.0967e-13
1.09606e-13
1.09567e-13
1.09601e-13
1.09518e-13
1.09673e-13
1.09599e-13
1.09509e-13
1.09614e-13
1.09558e-13
1.09663e-13
1.09588e-13
1.0966e-13
1.09468e-13
1.09658e-13
1.0949e-13
1.09609e-13
1.09556e-13
-1.19986e-14
-1.1832e-14
-1.18692e-14
-1.19195e-14
-1.19004e-14
-1.18814e-14
-1.19443e-14
-1.19495e-14
-1.19479e-14
-1.19279e-14
-1.19793e-14
-1.20265e-14
-1.18518e-14
-1.19901e-14
-1.1912e-14
-1.20003e-14
-1.19029e-14
-1.19909e-14
-1.20357e-14
-1.19732e-14
-1.18604e-14
-1.17561e-14
-1.1841e-14
-1.20042e-14
-1.20248e-14
-1.18239e-14
-1.20375e-14
-1.19291e-14
-1.18028e-14
-1.19566e-14
-1.193e-14
-1.18722e-14
-1.20013e-14
-1.19664e-14
-1.20057e-14
-1.19046e-14
-1.18347e-14
-1.19993e-14
-1.20482e-14
-1.19693e-14
-1.18907e-14
-1.18378e-14
-1.20257e-14
-1.18398e-14
-1.18411e-14
-1.19582e-14
-1.18775e-14
-1.19947e-14
-1.20417e-14
-1.19394e-14
-1.19389e-14
-1.1812e-14
-1.18899e-14
-1.18497e-14
-1.20267e-14
-1.17714e-14
-1.20153e-14
-1.17335e-14
-1.19656e-14
-1.1944e-14
-5.30877e-14
-5.30936e-14
-5.30882e-14
-5.3061e-14
-5.32225e-14
-5.3127e-14
-5.31105e-14
-5.31253e-14
-5.29896e-14
-5.29852e-14
-5.29298e-14
-5.31126e-14
-5.309e-14
-5.29952e-14
-5.31115e-14
-5.28413e-14
-5.30731e-14
-5.2826e-14
-5.29995e-14
-5.30395e-14
-5.30998e-14
-5.31661e-14
-5.32117e-14
-5.29835e-14
-5.30176e-14
-5.30745e-14
-5.29092e-14
-5.29932e-14
-5.31171e-14
-5.30823e-14
-5.30257e-14
-5.30562e-14
-5.30129e-14
-5.30372e-14
-5.29917e-14
-5.30416e-14
-5.31568e-14
-5.27913e-14
-5.30181e-14
-5.29956e-14
-5.29957e-14
-5.3193e-14
-5.2963e-14
-5.3158e-14
-5.30155e-14
-5.29756e-14
-5.29516e-14
-5.3028e-14
-5.29905e-14
-5.30832e-14
-5.31368e-14
-5.30651e-14
-5.30901e-14
-5.31671e-14
-5.28595e-14
-5.31386e-14
-5.29644e-14
-5.32529e-14
-5.30449e-14
-5.29677e-14
-6.03315e-14
-6.05619e-14
-6.0452e-14
-6.04474e-14
-6.02668e-14
-6.04184e-14
-6.04008e-14
-6.02906e-14
-6.0393e-14
-6.06088e-14
-6.04251e-14
-6.03706e-14
-6.04193e-14
-6.04023e-14
-6.04175e-14
-6.05966e-14
-6.03337e-14
-6.06654e-14
-6.03557e-14
-6.04057e-14
-6.03982e-14
-6.04936e-14
-6.02267e-14
-6.04665e-14
-6.04585e-14
-6.04072e-14
-6.05979e-14
-6.05058e-14
-6.04274e-14
-6.0295e-14
-6.04734e-14
-6.0522e-14
-6.04425e-14
-6.0469e-14
-6.05036e-14
-6.04859e-14
-6.03624e-14
-6.06478e-14
-6.05774e-14
-6.04188e-14
-6.05349e-14
-6.0357e-14
-6.05799e-14
-6.02886e-14
-6.0543e-14
-6.05047e-14
-6.05499e-14
-6.04603e-14
-6.04901e-14
-6.0369e-14
-6.03374e-14
-6.06122e-14
-6.03867e-14
-6.02807e-14
-6.06171e-14
-6.04591e-14
-6.04638e-14
-6.03904e-14
-6.03918e-14
-6.04981e-14
-6.09634e-14
-6.08435e-14
-6.0856e-14
-6.0762e-14
-6.09512e-14
-6.08465e-14
-6.07821e-14
-6.10296e-14
-6.10793e-14
-6.07488e-14
-6.08706e-14
-6.0844e-14
-6.08833e-14
-6.09427e-14
-6.07586e-14
-6.09476e-14
-6.09406e-14
-6.07768e-14
-6.09528e-14
-6.08662e-14
-6.08441e-14
-6.08011e-14
-6.09472e-14
-6.08692e-14
-6.07896e-14
-6.0947e-14
-6.07523e-14
-6.09172e-14
-6.09304e-14
-6.09439e-14
-6.07727e-14
-6.07901e-14
-6.08417e-14
-6.08687e-14
-6.07249e-14
-6.09188e-14
-6.1034e-14
-6.07018e-14
-6.06633e-14
-6.09776e-14
-6.07873e-14
-6.08428e-14
-6.07246e-14
-6.09732e-14
-6.08438e-14
-6.0788e-14
-6.09382e-14
-6.08937e-14
-6.08506e-14
-6.08027e-14
-6.09032e-14
-6.06625e-14
-6.07431e-14
-6.08608e-14
-6.07714e-14
-6.08202e-14
-6.08899e-14
-6.08392e-14
-6.0901e-14
-6.08408e-14
-5.82681e-14
-5.82227e-14
-5.8297e-14
-5.8377e-14
-5.83591e-14
-5.83505e-14
-5.84964e-14
-5.82616e-14
-5.81514e-14
-5.83489e-14
-5.83429e-14
-5.83319e-14
-5.81661e-14
-5.82126e-14
-5.84056e-14
-5.81829e-14
-5.81696e-14
-5.8309e-14
-5.82418e-14
-5.83842e-14
-5.83338e-14
-5.83383e-14
-5.8286e-14
-5.81758e-14
-5.84058e-14
-5.82639e-14
-5.83965e-14
-5.81861e-14
-5.81535e-14
-5.83512e-14
-5.83181e-14
-5.82003e-14
-5.82578e-14
-5.81786e-14
-5.83899e-14
-5.82308e-14
-5.82484e-14
-5.83261e-14
-5.83796e-14
-5.81839e-14
-5.83563e-14
-5.82743e-14
-5.8301e-14
-5.83265e-14
-5.83397e-14
-5.83914e-14
-5.81129e-14
-5.82374e-14
-5.83348e-14
-5.83454e-14
-5.83358e-14
-5.83384e-14
-5.84781e-14
-5.83456e-14
-5.833e-14
-5.83991e-14
-5.81392e-14
-5.83079e-14
-5.82636e-14
-5.83655e-14
-5.18796e-14
-5.18651e-14
-5.17049e-14
-5.19206e-14
-5.1791e-14
-5.16964e-14
-5.16418e-14
-5.17016e-14
-5.18497e-14
-5.18689e-14
-5.17785e-14
-5.1739e-14
-5.2002e-14
-5.19025e-14
-5.17515e-14
-5.18882e-14
-5.19746e-14
-5.17932e-14
-5.18509e-14
-5.17581e-14
-5.19225e-14
-5.17952e-14
-5.16988e-14
-5.19363e-14
-5.16846e-14
-5.18049e-14
-5.16305e-14
-5.18635e-14
-5.19243e-14
-5.17693e-14
-5.18067e-14
-5.19361e-14
-5.18848e-14
-5.2011e-14
-5.18586e-14
-5.16597e-14
-5.17691e-14
-5.18607e-14
-5.17865e-14
-5.18925e-14
-5.18158e-14
-5.17926e-14
-5.18168e-14
-5.17956e-14
-5.17858e-14
-5.16869e-14
-5.19012e-14
-5.16887e-14
-5.18095e-14
-5.18791e-14
-5.1753e-14
-5.17627e-14
-5.16923e-14
-5.18203e-14
-5.18069e-14
-5.16721e-14
-5.18959e-14
-5.16965e-14
-5.18942e-14
-5.19596e-14
-4.22022e-14
-4.23092e-14
-4.23917e-14
-4.2129e-14
-4.20928e-14
-4.22365e-14
-4.2358e-14
-4.22647e-14
-4.22291e-14
-4.22145e-14
-4.22857e-14
-4.2368e-14
-4.22909e-14
-4.22091e-14
-4.22422e-14
-4.22328e-14
-4.20853e-14
-4.22248e-14
-4.21964e-14
-4.22946e-14
-4.20739e-14
-4.22112e-14
-4.23273e-14
-4.22151e-14
-4.23269e-14
-4.21675e-14
-4.24594e-14
-4.22033e-14
-4.20988e-14
-4.22721e-14
-4.23045e-14
-4.21294e-14
-4.21052e-14
-4.21033e-14
-4.21857e-14
-4.23255e-14
-4.21757e-14
-4.21619e-14
-4.23264e-14
-4.21838e-14
-4.22829e-14
-4.24107e-14
-4.23209e-14
-4.23362e-14
-4.23173e-14
-4.24114e-14
-4.22383e-14
-4.23859e-14
-4.23466e-14
-4.21851e-14
-4.225e-14
-4.22632e-14
-4.23351e-14
-4.22724e-14
-4.22348e-14
-4.22461e-14
-4.23695e-14
-4.23996e-14
-4.20085e-14
-4.22168e-14
-3.15571e-14
-3.16824e-14
-3.16306e-14
-3.16804e-14
-3.17196e-14
-3.17474e-14
-3.16583e-14
-3.16844e-14
-3.15759e-14
-3.18082e-14
-3.16625e-14
-3.15783e-14
-3.14939e-14
-3.15812e-14
-3.17443e-14
-3.15349e-14
-3.17137e-14
-3.16738e-14
-3.15872e-14
-3.16244e-14
-3.16731e-14
-3.18526e-14
-3.16413e-14
-3.16684e-14
-3.17074e-14
-3.16798e-14
-3.15247e-14
-3.16855e-14
-3.17589e-14
-3.17271e-14
-3.15474e-14
-3.16995e-14
-3.16645e-14
-3.16519e-14
-3.16001e-14
-3.17254e-14
-3.1777e-14
-3.16714e-14
-3.16091e-14
-3.16981e-14
-3.15381e-14
-3.14696e-14
-3.15373e-14
-3.14382e-14
-3.1542e-14
-3.16556e-14
-3.16259e-14
-3.15717e-14
-3.16087e-14
-3.16634e-14
-3.17508e-14
-3.17035e-14
-3.1652e-14
-3.16547e-14
-3.16588e-14
-3.17493e-14
-3.14266e-14
-3.15026e-14
-3.17898e-14
-3.17698e-14
-2.21159e-14
-2.19258e-14
-2.19889e-14
-2.20289e-14
-2.21541e-14
-2.18512e-14
-2.20942e-14
-2.18982e-14
-2.20258e-14
-2.18927e-14
-2.20691e-14
-2.22541e-14
-2.20227e-14
-2.20108e-14
-2.21237e-14
-2.20398e-14
-2.20322e-14
-2.20529e-14
-2.21434e-14
-2.21792e-14
-2.20497e-14
-2.19205e-14
-2.19964e-14
-2.21156e-14
-2.19882e-14
-2.21893e-14
-2.20268e-14
-2.19763e-14
-2.18225e-14
-2.19261e-14
-2.19747e-14
-2.20522e-14
-2.21074e-14
-2.2075e-14
-2.21105e-14
-2.19821e-14
-2.20457e-14
-2.20739e-14
-2.20632e-14
-2.19915e-14
-2.21082e-14
-2.19792e-14
-2.21716e-14
-2.22212e-14
-2.21942e-14
-2.19161e-14
-2.20426e-14
-2.21309e-14
-2.19693e-14
-2.20782e-14
-2.19225e-14
-2.20171e-14
-2.20074e-14
-2.20051e-14
-2.18447e-14
-2.18932e-14
-2.22604e-14
-2.21088e-14
-2.19792e-14
-2.18467e-14
-1.42484e-14
-1.45168e-14
-1.40489e-14
-1.43635e-14
-1.43063e-14
-1.45928e-14
-1.42571e-14
-1.44352e-14
-1.43383e-14
-1.44364e-14
-1.42916e-14
-1.39174e-14
-1.44581e-14
-1.44781e-14
-1.41776e-14
-1.44417e-14
-1.44205e-14
-1.43016e-14
-1.41991e-14
-1.41002e-14
-1.45654e-14
-1.43026e-14
-1.43011e-14
-1.42408e-14
-1.43248e-14
-1.41031e-14
-1.42928e-14
-1.43361e-14
-1.4386e-14
-1.42265e-14
-1.44616e-14
-1.43998e-14
-1.40948e-14
-1.42931e-14
-1.418e-14
-1.43329e-14
-1.42814e-14
-1.43141e-14
-1.42145e-14
-1.44189e-14
-1.43674e-14
-1.44771e-14
-1.42567e-14
-1.43286e-14
-1.42396e-14
-1.43574e-14
-1.43027e-14
-1.4308e-14
-1.42467e-14
-1.4217e-14
-1.43313e-14
-1.40775e-14
-1.43176e-14
-1.4313e-14
-1.44967e-14
-1.43625e-14
-1.41052e-14
-1.43553e-14
-1.42913e-14
-1.45224e-14
-8.6979e-15
-8.44335e-15
-9.06776e-15
-8.65694e-15
-8.5207e-15
-8.26522e-15
-8.67114e-15
-8.53351e-15
-8.51637e-15
-8.52892e-15
-8.68106e-15
-8.95029e-15
-8.54976e-15
-8.52083e-15
-8.57821e-15
-8.57092e-15
-8.63993e-15
-8.5292e-15
-8.78856e-15
-8.76025e-15
-8.42985e-15
-8.54297e-15
-8.71025e-15
-8.50544e-15
-8.64815e-15
-8.81245e-15
-8.75217e-15
-8.81211e-15
-8.7849e-15
-8.73782e-15
-8.63267e-15
-8.58322e-15
-9.02e-15
-8.72199e-15
-8.78308e-15
-8.59282e-15
-8.65182e-15
-8.56305e-15
-8.73134e-15
-8.60941e-15
-8.75901e-15
-8.51656e-15
-8.53343e-15
-8.49143e-15
-8.8179e-15
-8.56908e-15
-8.73956e-15
-8.64875e-15
-8.72446e-15
-8.72217e-15
-8.63777e-15
-8.87184e-15
-8.80769e-15
-8.77417e-15
-8.50655e-15
-8.6974e-15
-8.70171e-15
-8.51964e-15
-8.60636e-15
-8.57435e-15
-4.82093e-15
-4.78563e-15
-4.45981e-15
-4.84771e-15
-4.87924e-15
-5.19466e-15
-4.83322e-15
-4.80605e-15
-4.90624e-15
-4.81538e-15
-4.65272e-15
-4.62068e-15
-4.7464e-15
-4.83473e-15
-4.92873e-15
-4.69488e-15
-4.60611e-15
-4.90173e-15
-4.71647e-15
-4.80204e-15
-4.64602e-15
-4.97893e-15
-4.7685e-15
-5.10493e-15
-4.80785e-15
-4.67046e-15
-4.63649e-15
-4.5316e-15
-4.45084e-15
-4.75378e-15
-4.60085e-15
-4.73839e-15
-4.52184e-15
-4.63691e-15
-4.58282e-15
-4.60978e-15
-4.8629e-15
-4.83186e-15
-4.90605e-15
-4.83641e-15
-4.55935e-15
-4.92444e-15
-4.90928e-15
-4.94179e-15
-4.53613e-15
-4.82354e-15
-4.80176e-15
-4.80312e-15
-4.80853e-15
-4.87716e-15
-4.83686e-15
-4.7045e-15
-4.61546e-15
-4.51173e-15
-4.88546e-15
-4.71327e-15
-4.75383e-15
-4.77297e-15
-4.76689e-15
-4.75009e-15
-2.12361e-15
-2.09522e-15
-2.12058e-15
-1.89332e-15
-2.17625e-15
-1.9498e-15
-2.07827e-15
-2.34643e-15
-2.0229e-15
-2.24997e-15
-2.30284e-15
-2.14869e-15
-2.09543e-15
-2.09123e-15
-2.12538e-15
-2.27937e-15
-2.40787e-15
-2.20664e-15
-2.06805e-15
-2.11558e-15
-2.41742e-15
-2.1391e-15
-1.90572e-15
-1.9676e-15
-2.25652e-15
-2.3949e-15
-2.08917e-15
-2.26532e-15
-2.38077e-15
-2.08341e-15
-2.36817e-15
-2.35971e-15
-2.09737e-15
-2.24354e-15
-2.43167e-15
-2.17824e-15
-1.93982e-15
-2.25747e-15
-1.87598e-15
-1.95809e-15
-2.21003e-15
-2.01303e-15
-2.05481e-15
-2.301e-15
-2.17042e-15
-2.07719e-15
-1.98314e-15
-1.87664e-15
-1.91435e-15
-1.81017e-15
-2.20622e-15
-2.09244e-15
-2.15689e-15
-2.3646e-15
-2.09295e-15
-2.0141e-15
-2.03484e-15
-2.15537e-15
-2.363e-15
-2.0483e-15
-4.08413e-16
-5.64318e-16
-7.55288e-16
-6.42591e-16
-6.41147e-16
-7.0757e-16
-4.72307e-16
-3.29803e-16
-5.19718e-16
-3.98145e-16
-3.51161e-16
-5.8843e-16
-8.06066e-16
-5.67415e-16
-4.53323e-16
-5.65259e-16
-2.4126e-16
-3.0692e-16
-6.37398e-16
-6.04943e-16
-3.72843e-16
-3.73469e-16
-7.67281e-16
-5.00626e-16
-1.64798e-16
-1.5654e-16
-4.7274e-16
-5.68699e-16
-4.06486e-16
-5.99907e-16
-3.4972e-16
-4.37634e-16
-4.79884e-16
-4.4011e-16
-3.00673e-16
-4.81807e-16
-6.73899e-16
-2.36395e-16
-8.27326e-16
-7.45097e-16
-5.8838e-16
-4.35963e-16
-4.83912e-16
-3.17341e-16
-4.7401e-16
-5.91176e-16
-7.28629e-16
-9.45454e-16
-4.66277e-16
-7.97838e-16
-3.43393e-16
-5.96773e-16
-6.02603e-16
-4.33851e-16
-5.09916e-16
-7.90046e-16
-5.79115e-16
-6.23842e-16
-2.42762e-16
-6.71974e-16
5.57255e-16
6.04251e-16
7.94728e-16
5.08305e-16
7.34277e-16
7.78039e-16
4.27725e-16
4.44999e-16
4.17452e-16
5.22879e-16
3.8678e-16
6.20885e-16
7.67977e-16
6.40978e-16
7.26437e-16
6.77709e-16
5.52796e-16
3.38306e-16
6.21247e-16
5.54486e-16
6.24089e-16
5.78221e-16
7.37854e-16
5.54269e-16
4.62729e-16
2.47394e-16
4.27982e-16
8.65452e-16
6.6931e-16
5.98295e-16
3.81108e-16
7.34991e-16
6.27598e-16
6.04172e-16
4.70387e-16
5.10993e-16
5.39408e-16
3.41293e-16
8.23331e-16
6.5618e-16
7.84787e-16
6.06087e-16
4.84871e-16
4.0028e-16
3.11881e-16
5.71136e-16
7.16515e-16
8.56198e-16
4.21363e-16
8.43705e-16
4.82313e-16
6.01461e-16
6.17343e-16
6.05544e-16
6.50753e-16
7.37143e-16
5.5635e-16
5.44649e-16
3.93021e-16
6.67967e-16
1.20808e-15
1.36216e-15
1.19787e-15
1.6294e-15
1.22601e-15
1.32953e-15
1.47186e-15
1.20427e-15
1.54067e-15
1.12273e-15
1.38007e-15
1.31778e-15
1.32642e-15
1.20754e-15
1.03351e-15
1.30033e-15
1.38879e-15
1.51665e-15
1.43848e-15
1.34307e-15
1.2382e-15
1.08282e-15
1.18062e-15
1.38931e-15
1.01253e-15
1.33226e-15
1.18127e-15
1.02329e-15
1.26921e-15
1.56383e-15
1.34224e-15
1.11716e-15
1.07023e-15
1.30861e-15
1.23258e-15
1.48475e-15
1.26101e-15
1.44226e-15
1.15823e-15
1.17904e-15
8.88298e-16
1.2814e-15
1.47302e-15
1.43296e-15
1.51006e-15
1.19038e-15
1.23523e-15
1.07739e-15
1.31499e-15
1.30693e-15
1.42731e-15
1.21991e-15
1.31281e-15
1.20159e-15
1.14449e-15
1.09094e-15
1.31246e-15
1.40826e-15
1.22718e-15
1.23103e-15
1.60854e-15
1.51351e-15
1.43205e-15
1.30833e-15
1.67722e-15
1.48336e-15
1.49652e-15
1.81777e-15
1.5039e-15
1.86309e-15
1.57189e-15
1.76966e-15
1.38963e-15
1.80165e-15
1.96171e-15
1.50633e-15
1.19243e-15
1.64459e-15
1.44307e-15
1.64194e-15
1.70979e-15
1.70923e-15
1.53159e-15
1.44906e-15
1.8798e-15
1.66922e-15
1.94021e-15
1.7564e-15
1.668e-15
1.41734e-15
1.71685e-15
1.65642e-15
1.8752e-15
1.46647e-15
1.46056e-15
1.64128e-15
1.86856e-15
1.47443e-15
1.76244e-15
1.65462e-15
2.06152e-15
1.60866e-15
1.54553e-15
1.45198e-15
1.62017e-15
1.90424e-15
1.63854e-15
1.686e-15
1.77484e-15
1.55896e-15
1.58853e-15
1.72347e-15
1.49665e-15
1.76655e-15
1.71637e-15
1.74669e-15
1.59691e-15
1.65998e-15
1.64312e-15
1.37381e-15
1.86205e-15
1.76936e-15
2.25965e-15
1.89633e-15
2.0534e-15
1.97118e-15
2.05702e-15
1.88085e-15
2.02056e-15
1.74559e-15
1.93531e-15
1.83679e-15
2.08481e-15
1.74322e-15
1.66869e-15
2.07213e-15
2.27706e-15
1.82615e-15
1.86539e-15
1.6664e-15
1.87051e-15
1.73476e-15
1.9906e-15
1.9862e-15
1.81129e-15
1.93037e-15
1.7633e-15
1.91412e-15
1.92684e-15
1.91442e-15
1.66405e-15
1.71907e-15
1.90347e-15
2.01592e-15
2.19824e-15
1.70577e-15
1.66688e-15
1.89283e-15
1.89005e-15
1.80638e-15
1.52039e-15
1.89063e-15
1.81621e-15
2.04651e-15
1.71459e-15
1.75927e-15
1.81636e-15
1.91288e-15
1.88922e-15
2.1764e-15
1.86768e-15
1.8772e-15
2.05814e-15
1.81891e-15
1.71144e-15
1.83792e-15
1.64568e-15
1.78503e-15
1.89381e-15
2.14484e-15
2.19019e-15
2.22065e-15
1.84964e-15
1.99599e-15
1.54048e-15
1.97394e-15
1.78872e-15
1.87424e-15
1.75211e-15
1.84445e-15
1.84723e-15
1.91548e-15
1.64766e-15
1.97296e-15
2.09175e-15
1.85163e-15
1.96411e-15
1.8488e-15
2.10938e-15
2.21928e-15
2.0996e-15
2.25253e-15
2.08439e-15
1.74695e-15
2.1058e-15
1.89511e-15
2.01646e-15
2.09334e-15
1.78228e-15
2.03226e-15
1.89295e-15
2.31409e-15
1.93993e-15
1.84253e-15
1.88189e-15
2.03996e-15
2.13507e-15
1.95178e-15
1.98194e-15
2.0103e-15
2.15094e-15
1.85988e-15
1.99027e-15
1.90334e-15
2.19392e-15
1.67407e-15
1.90284e-15
1.88219e-15
1.85637e-15
1.60647e-15
2.03159e-15
1.96367e-15
1.90724e-15
2.09462e-15
2.31033e-15
1.90809e-15
2.3768e-15
1.78746e-15
1.85707e-15
2.01063e-15
2.04435e-15
1.76262e-15
2.07332e-15
1.83726e-15
2.31343e-15
1.93234e-15
2.10884e-15
2.00167e-15
2.14013e-15
2.33153e-15
2.18819e-15
2.11534e-15
2.26671e-15
1.95233e-15
1.76054e-15
1.70526e-15
1.80421e-15
2.16244e-15
1.83909e-15
1.8565e-15
1.78304e-15
1.81656e-15
2.00944e-15
2.17847e-15
1.85171e-15
2.04518e-15
2.01664e-15
1.91329e-15
2.30194e-15
2.07811e-15
2.33763e-15
1.7221e-15
1.85812e-15
2.06098e-15
1.95171e-15
2.14113e-15
1.9112e-15
2.30746e-15
1.83172e-15
2.13972e-15
1.88183e-15
2.21775e-15
1.95019e-15
1.90146e-15
1.672e-15
2.35039e-15
2.36358e-15
2.36961e-15
1.97345e-15
2.0304e-15
2.15605e-15
1.83116e-15
2.05639e-15
1.8353e-15
1.85752e-15
2.00064e-15
1.86491e-15
2.26383e-15
2.1757e-15
1.92e-15
1.562e-15
2.35103e-15
1.76786e-15
1.96609e-15
1.68337e-15
2.0304e-15
2.14417e-15
2.17046e-15
2.02533e-15
1.63845e-15
1.83477e-15
1.95607e-15
1.97025e-15
1.8589e-15
2.25218e-15
2.33222e-15
2.03652e-15
1.81062e-15
2.07646e-15
1.88564e-15
2.11981e-15
2.03389e-15
1.88318e-15
2.02691e-15
2.10407e-15
1.70976e-15
1.78518e-15
2.03756e-15
1.89836e-15
2.1764e-15
1.66913e-15
1.929e-15
1.94294e-15
2.08838e-15
2.01856e-15
1.76647e-15
1.80146e-15
1.57853e-15
2.2764e-15
1.97748e-15
2.03758e-15
1.86287e-15
2.28202e-15
2.05561e-15
2.20312e-15
1.88246e-15
1.73207e-15
1.55549e-15
2.07565e-15
1.96292e-15
1.97302e-15
2.30221e-15
1.89371e-15
2.08024e-15
2.05727e-15
2.02772e-15
1.83634e-15
1.81574e-15
1.86719e-15
2.07274e-15
2.16717e-15
1.61362e-15
2.08854e-15
2.15527e-15
1.89573e-15
2.03541e-15
1.64044e-15
1.74975e-15
1.70196e-15
1.80578e-15
2.04341e-15
1.81041e-15
1.98829e-15
2.26337e-15
1.84561e-15
1.68782e-15
1.94784e-15
2.00976e-15
1.91254e-15
1.92755e-15
1.87065e-15
1.80998e-15
1.75118e-15
1.79731e-15
1.80824e-15
2.05749e-15
2.10007e-15
1.77763e-15
1.64919e-15
1.4042e-15
1.93711e-15
2.06666e-15
2.10442e-15
1.6685e-15
1.68811e-15
2.06704e-15
2.14012e-15
2.25535e-15
1.74021e-15
1.74712e-15
1.83033e-15
1.96988e-15
1.3975e-15
1.71244e-15
1.79267e-15
1.86652e-15
1.76858e-15
2.09315e-15
1.94265e-15
2.07062e-15
1.77477e-15
1.6836e-15
2.06168e-15
1.83088e-15
1.85342e-15
1.84801e-15
2.00227e-15
2.02039e-15
1.81966e-15
1.80008e-15
1.96798e-15
1.97948e-15
1.85754e-15
1.51336e-15
2.00357e-15
1.73032e-15
1.9591e-15
1.82612e-15
2.02521e-15
2.14969e-15
1.91328e-15
1.71623e-15
1.44554e-15
1.68702e-15
1.68473e-15
1.88009e-15
1.6405e-15
1.81455e-15
1.78682e-15
1.72801e-15
1.93731e-15
1.81239e-15
1.95199e-15
1.74611e-15
1.85651e-15
1.82212e-15
1.77734e-15
1.87601e-15
1.90185e-15
2.04917e-15
1.8757e-15
1.85405e-15
1.83422e-15
2.05316e-15
2.00936e-15
1.64297e-15
1.77601e-15
1.6323e-15
1.78577e-15
1.69508e-15
1.71214e-15
1.6471e-15
2.29561e-15
1.92701e-15
1.63743e-15
1.55413e-15
1.91634e-15
1.75419e-15
1.89382e-15
1.7239e-15
1.83411e-15
2.08829e-15
1.52156e-15
1.82322e-15
1.74566e-15
1.76455e-15
1.66155e-15
1.93852e-15
1.85048e-15
1.97403e-15
1.51344e-15
1.83502e-15
1.81449e-15
2.11374e-15
1.73695e-15
1.6832e-15
1.5414e-15
1.71333e-15
1.70084e-15
1.53767e-15
1.33243e-15
2.08798e-15
1.82881e-15
1.69477e-15
1.81766e-15
1.69293e-15
1.82908e-15
1.9022e-15
1.68539e-15
1.55574e-15
1.64306e-15
1.71792e-15
1.88787e-15
1.67904e-15
1.48613e-15
1.65519e-15
1.46537e-15
1.47133e-15
1.65747e-15
1.645e-15
1.47746e-15
1.50594e-15
1.27483e-15
1.56416e-15
1.6473e-15
1.61136e-15
1.80454e-15
1.87524e-15
1.78938e-15
1.90921e-15
1.90607e-15
1.64321e-15
1.69109e-15
1.75735e-15
2.0842e-15
2.05523e-15
1.5086e-15
1.84738e-15
1.36978e-15
1.64698e-15
1.7053e-15
1.56792e-15
2.06577e-15
1.8339e-15
1.933e-15
1.87032e-15
1.74908e-15
1.42375e-15
1.69859e-15
1.53262e-15
1.53911e-15
1.24461e-15
1.47573e-15
1.09884e-15
1.59286e-15
1.60766e-15
1.69483e-15
1.56971e-15
1.54005e-15
1.68204e-15
1.84988e-15
1.14587e-15
1.68445e-15
1.46725e-15
1.38234e-15
1.84362e-15
1.65492e-15
1.52628e-15
1.45806e-15
1.86727e-15
1.58156e-15
1.46447e-15
1.54137e-15
1.63885e-15
1.916e-15
1.82725e-15
1.97346e-15
1.92487e-15
1.74638e-15
1.73274e-15
1.76137e-15
1.69779e-15
1.87272e-15
1.62112e-15
1.72992e-15
1.87896e-15
1.35488e-15
1.8244e-15
1.8755e-15
1.39086e-15
1.46388e-15
1.66719e-15
1.54248e-15
1.5233e-15
1.42098e-15
1.31298e-15
1.90893e-15
1.58941e-15
1.82002e-15
1.67526e-15
1.85649e-15
1.61754e-15
1.22969e-15
1.32925e-15
1.46143e-15
1.41016e-15
1.52928e-15
2.01608e-15
1.69227e-15
1.76593e-15
1.46553e-15
1.67414e-15
1.57848e-15
1.77339e-15
1.46765e-15
1.23539e-15
1.45626e-15
1.47993e-15
1.56818e-15
1.43647e-15
1.17004e-15
1.77022e-15
1.00091e-15
1.74005e-15
1.69953e-15
1.16557e-15
1.4518e-15
1.44328e-15
1.63679e-15
9.69319e-16
1.31496e-15
1.85324e-15
1.46828e-15
1.43239e-15
1.32361e-15
1.09121e-15
1.36797e-15
1.19255e-15
1.7184e-15
1.376e-15
1.48514e-15
1.54238e-15
1.50363e-15
1.48147e-15
1.40674e-15
1.56104e-15
1.71535e-15
1.02676e-15
1.28385e-15
1.69581e-15
1.5317e-15
1.54944e-15
1.18104e-15
1.25365e-15
1.50374e-15
1.57024e-15
1.15791e-15
1.41805e-15
1.40863e-15
1.65311e-15
1.19974e-15
1.32465e-15
1.52601e-15
1.71657e-15
1.71222e-15
1.85352e-15
1.54232e-15
1.19858e-15
1.07373e-15
1.22847e-15
1.62498e-15
1.4159e-15
1.51969e-15
1.21445e-15
1.44524e-15
1.66145e-15
1.13675e-15
1.54497e-15
1.30381e-15
1.4202e-15
1.82215e-15
1.19686e-15
1.90626e-15
1.34008e-15
1.15308e-15
1.38951e-15
1.19031e-15
1.39479e-15
1.32854e-15
1.84726e-15
1.48276e-15
1.25147e-15
1.01056e-15
1.35416e-15
1.57982e-15
1.59602e-15
1.18346e-15
1.72755e-15
1.04896e-15
1.33901e-15
1.38875e-15
1.26538e-15
1.12214e-15
1.60833e-15
1.6085e-15
1.28984e-15
1.19574e-15
1.54538e-15
1.58949e-15
1.49315e-15
1.28947e-15
1.40156e-15
1.45564e-15
1.72913e-15
1.44756e-15
1.40197e-15
1.37941e-15
1.39045e-15
1.39577e-15
1.11015e-15
1.49443e-15
1.38673e-15
1.52691e-15
1.4617e-15
1.061e-15
9.25085e-16
1.38928e-15
1.30472e-15
1.85152e-15
1.72609e-15
1.15213e-15
1.04225e-15
1.26391e-15
1.40842e-15
1.18209e-15
1.21718e-15
1.51099e-15
1.09894e-15
1.32995e-15
1.22777e-15
9.701e-16
1.36352e-15
7.24218e-16
1.2219e-15
1.5877e-15
1.426e-15
1.57684e-15
1.34837e-15
1.14853e-15
8.17101e-16
1.1789e-15
1.29736e-15
1.53948e-15
1.08936e-15
9.55633e-16
1.35228e-15
1.37602e-15
1.15399e-15
1.21067e-15
1.33794e-15
1.09734e-15
1.36537e-15
1.72351e-15
9.08385e-16
9.89218e-16
9.90727e-16
1.47408e-15
1.22258e-15
1.22943e-15
7.94125e-16
1.33346e-15
1.07516e-15
1.23412e-15
1.06868e-15
1.13646e-15
8.97864e-16
1.31727e-15
1.07362e-15
1.27844e-15
1.35716e-15
1.26751e-15
1.32144e-15
1.12129e-15
1.06932e-15
1.44323e-15
1.39636e-15
1.17174e-15
1.31028e-15
9.58867e-16
1.10164e-15
1.15501e-15
1.28168e-15
9.87857e-16
1.17754e-15
1.11719e-15
8.17897e-16
1.27657e-15
1.21126e-15
1.10151e-15
1.17449e-15
1.4536e-15
9.75155e-16
1.62861e-15
9.30606e-16
6.73823e-16
1.07859e-15
8.79221e-16
1.17541e-15
1.42592e-15
1.30051e-15
1.2883e-15
1.06534e-15
1.26875e-15
1.38611e-15
1.33937e-15
7.7128e-16
1.35934e-15
9.77267e-16
1.42787e-15
1.2577e-15
1.44724e-15
1.15038e-15
9.23226e-16
1.43214e-15
1.22096e-15
1.29497e-15
8.53678e-16
9.59585e-16
1.118e-15
1.53407e-15
1.0808e-15
1.39557e-15
1.39115e-15
1.3705e-15
1.28194e-15
1.60023e-15
1.22304e-15
1.23326e-15
1.06952e-15
7.98502e-16
1.41952e-15
1.30207e-15
1.26661e-15
1.45118e-15
1.16995e-15
1.35484e-15
1.32676e-15
1.28802e-15
1.22491e-15
1.18553e-15
1.17712e-15
1.03292e-15
1.1243e-15
8.45077e-16
1.43523e-15
1.43457e-15
6.27162e-16
9.46507e-16
1.38566e-15
1.08634e-15
7.01653e-16
1.11613e-15
6.20535e-16
1.28352e-15
1.36864e-15
1.1166e-15
1.17258e-15
8.23258e-16
8.74714e-16
1.38833e-15
1.02188e-15
1.05572e-15
8.07737e-16
9.94901e-16
8.36574e-16
1.59465e-15
8.25472e-16
1.33796e-15
1.06069e-15
8.28146e-16
8.61398e-16
1.11813e-15
1.04723e-15
1.01851e-15
1.20706e-15
1.06948e-15
1.48584e-15
1.30016e-15
8.39064e-16
9.54688e-16
1.12462e-15
9.64728e-16
9.88556e-16
8.72044e-16
9.50625e-16
1.04326e-15
9.39339e-16
1.03854e-15
1.07312e-15
1.46279e-15
9.29032e-16
8.62151e-16
9.77886e-16
1.05903e-15
7.489e-16
8.33085e-16
7.50671e-16
7.34491e-16
9.88509e-16
9.27753e-16
9.93715e-16
8.54765e-16
9.33154e-16
1.02672e-15
5.91064e-16
7.89817e-16
1.29882e-15
1.21189e-15
4.89891e-16
9.95181e-16
1.3462e-15
1.22058e-15
1.59641e-15
9.41046e-16
1.00047e-15
7.15528e-16
9.29926e-16
1.20054e-15
9.74208e-16
6.6908e-16
9.69437e-16
1.10988e-15
1.14e-15
8.73017e-16
1.21682e-15
7.50866e-16
1.06491e-15
6.6883e-16
8.98379e-16
9.73615e-16
8.46744e-16
9.232e-16
1.15748e-15
6.72758e-16
9.26144e-16
1.12961e-15
7.64334e-16
8.64783e-16
1.36088e-15
9.8366e-16
9.30435e-16
9.97275e-16
8.97097e-16
1.06565e-15
9.67423e-16
7.06747e-16
1.06709e-15
1.16065e-15
1.00424e-15
9.99404e-16
8.29676e-16
1.06512e-15
9.399e-16
8.22882e-16
1.28285e-15
1.16491e-15
1.07099e-15
1.31205e-15
1.12693e-15
9.33384e-16
9.71697e-16
1.10109e-15
8.21989e-16
8.36661e-16
1.25612e-15
8.03076e-16
5.08496e-16
7.43255e-16
1.14543e-15
7.91283e-16
6.17659e-16
6.93983e-16
6.60635e-17
8.39033e-16
9.24634e-16
1.12353e-15
1.04457e-15
8.56858e-16
8.64573e-16
1.08348e-15
8.89166e-16
6.38588e-16
8.72307e-16
1.11152e-15
8.44077e-16
7.38076e-16
9.16375e-16
1.10194e-15
6.35641e-16
1.11998e-15
1.11184e-15
9.18921e-16
5.02787e-16
1.26153e-15
5.69672e-16
8.0938e-16
9.80439e-16
1.02439e-15
6.17476e-16
7.38724e-16
8.31181e-16
9.38073e-16
9.79219e-16
9.28312e-16
1.06341e-15
1.11464e-15
9.83624e-16
6.77173e-16
9.68815e-16
7.45631e-16
1.06538e-15
8.49541e-16
1.27636e-15
9.97289e-16
8.30753e-16
6.57571e-16
1.09399e-15
5.82304e-16
8.29872e-16
8.90296e-16
6.37336e-16
6.90356e-16
8.56386e-16
9.05688e-16
6.22561e-16
9.1301e-16
1.00489e-15
6.73988e-16
1.03956e-15
9.99353e-16
1.055e-15
8.92519e-16
1.43332e-15
7.55959e-16
5.54731e-16
9.1838e-16
5.41241e-16
1.15641e-15
9.86128e-16
8.54817e-16