/*--------------------------------*- C++ -*----------------------------------*\
| =========                 |                                                 |
| \\      /  F ield         | foam-extend: Open Source CFD                    |
|  \\    /   O peration     | Version:     4.0                                |
|   \\  /    A nd           | Web:         http://www.foam-extend.org         |
|    \\/     M anipulation  |                                                 |
\*---------------------------------------------------------------------------*/
FoamFile
{
    version     2.0;
    format      ascii;
    class       volScalarField;
    location    "14";
    object      dPhi;
}
// * * * * * * * * * * * * * * * * * * * * * * * * * * * * * * * * * * * * * //

dimensions      [0 -1 0 0 0 0 0];

internalField   nonuniform List<scalar> 
6960
(
-1.65856e-15
-1.47949e-15
1.43252e-15
3.39659e-15
-5.49785e-16
1.33506e-16
-2.18521e-16
2.57986e-16
1.24415e-15
2.14856e-15
2.60398e-16
-4.03391e-16
-8.20511e-16
1.8263e-15
-6.98714e-16
2.28673e-15
7.43166e-16
-1.31134e-16
9.94254e-16
3.10177e-16
5.38442e-17
-3.32003e-15
1.39293e-16
3.9507e-16
8.93234e-16
-2.18345e-16
1.87838e-16
-8.76062e-16
3.38407e-16
-3.55822e-16
3.57218e-16
-1.10173e-15
1.61699e-15
-8.68351e-16
-3.25857e-16
1.60681e-15
2.88226e-15
4.66857e-16
4.78743e-16
1.18667e-15
-2.66578e-16
-9.77517e-16
-1.64833e-15
-2.02215e-15
3.52691e-16
4.68226e-16
8.40379e-16
3.54792e-16
-1.13543e-16
1.06101e-15
6.57406e-16
1.52886e-15
-7.06304e-16
-7.93717e-16
1.36736e-15
7.61286e-16
2.04643e-16
3.07732e-15
-1.33803e-15
-1.68607e-15
7.13215e-16
1.1441e-15
3.11911e-15
1.18259e-16
2.99213e-16
6.9641e-16
5.4058e-15
-3.454e-15
-8.21364e-16
-6.15095e-16
2.1754e-15
-2.63103e-15
1.21143e-15
-1.43332e-15
-4.52248e-15
-1.10047e-17
-6.48082e-17
-3.09719e-15
-2.37928e-16
-1.73261e-15
1.54523e-15
1.37756e-15
5.27082e-15
-2.63307e-15
3.12874e-16
1.87621e-16
-3.23678e-15
4.50117e-15
9.82667e-16
1.38642e-16
-2.23042e-15
-8.77716e-16
-9.64018e-16
-2.69359e-15
-2.54788e-18
-2.27018e-15
1.32349e-15
-1.16563e-15
3.04533e-15
2.98871e-15
-5.59259e-16
-1.11835e-16
-9.42876e-16
1.31942e-15
-1.10084e-15
-1.19682e-15
-2.14889e-15
-2.14076e-16
-1.16237e-15
2.0425e-15
-3.15674e-15
1.30104e-15
1.66756e-15
1.18032e-15
3.00977e-15
8.27924e-16
1.81588e-15
-3.83265e-17
-1.77619e-16
-1.46159e-15
-2.41788e-15
6.90225e-15
1.41803e-15
4.89843e-16
-4.27284e-16
1.41488e-15
-7.9201e-16
3.79156e-15
1.95807e-16
1.05428e-15
1.83848e-15
-3.01408e-17
-2.08113e-15
1.65102e-15
2.88983e-15
-9.30679e-16
-1.09591e-15
-2.39826e-16
-9.95081e-16
1.33357e-16
-2.63461e-16
-2.91878e-15
1.23859e-15
3.1147e-15
-5.76145e-16
3.83569e-15
4.79066e-15
-2.74195e-15
1.36002e-15
2.35814e-15
1.29898e-15
9.28619e-16
-4.49077e-16
1.34387e-15
-4.90883e-15
1.661e-16
-7.1579e-16
9.25367e-16
-1.4189e-15
-3.04954e-15
1.19501e-15
-1.29866e-15
-8.29415e-17
1.91004e-15
4.83988e-16
-3.65485e-16
1.07303e-15
-5.81349e-16
-1.72919e-15
-1.40458e-15
5.37775e-15
6.9454e-16
2.58799e-15
1.31514e-15
-5.72947e-15
-2.57975e-15
1.06382e-15
7.36932e-16
-9.64398e-16
1.73722e-15
2.722e-15
-3.14852e-15
5.426e-15
-4.66641e-16
-6.19925e-15
-1.9494e-16
2.74368e-15
4.06207e-15
-4.65275e-15
-8.58688e-17
-1.98994e-15
-1.80129e-15
2.74845e-15
-1.49273e-15
7.76289e-17
5.21761e-15
1.98539e-15
7.96672e-16
2.36638e-15
1.58294e-15
1.73472e-17
2.29764e-15
3.40982e-15
-1.01091e-15
5.56196e-16
5.56629e-16
-2.49844e-15
4.12647e-15
-2.96291e-15
-2.23931e-15
-2.78228e-15
-4.91664e-15
-2.80938e-15
-1.43548e-15
1.4782e-15
-7.07117e-16
1.79435e-15
-4.95979e-15
2.76168e-15
1.99602e-15
-1.86721e-15
3.29597e-16
-9.17886e-16
-4.11628e-15
-3.02492e-16
-5.41884e-16
5.10421e-15
1.07987e-15
5.57562e-15
6.86495e-15
-3.4894e-15
2.74975e-15
-2.08319e-15
-5.81349e-15
-2.31087e-15
1.42442e-15
-1.06252e-17
3.39442e-15
1.59052e-15
4.26352e-15
1.46541e-15
-1.90603e-15
2.83627e-16
-4.30645e-16
1.20303e-15
-3.69323e-15
-3.26605e-15
-2.16407e-16
3.66027e-16
1.07726e-15
5.84645e-15
-1.52569e-15
-1.24683e-15
-1.50314e-15
7.58942e-16
-3.66113e-15
-3.50588e-15
1.01438e-15
3.51282e-17
-3.46164e-15
3.08304e-15
-3.85586e-15
-5.77793e-15
5.55979e-15
-4.39709e-15
-3.21661e-15
5.77663e-16
-3.86366e-15
5.43619e-15
4.52112e-15
-2.01228e-16
-8.87311e-16
2.11333e-15
7.76289e-16
-4.88325e-15
-3.07957e-15
2.21871e-15
1.71304e-15
-1.70306e-15
-1.128e-15
-1.26288e-15
1.0764e-15
3.5345e-16
2.46201e-15
-8.27029e-16
-1.05818e-15
-4.15553e-15
-2.70313e-15
5.46438e-17
-8.07427e-15
1.37477e-15
1.46584e-15
-4.38885e-15
-2.76645e-15
-2.72048e-15
-2.11072e-15
1.34745e-15
4.04884e-15
-2.46417e-15
-4.75748e-15
-1.9507e-15
-5.49474e-16
1.71261e-15
2.81199e-15
-4.79391e-15
5.14692e-15
3.74223e-15
3.21358e-16
9.91134e-15
-1.72952e-15
-4.68332e-15
1.95156e-17
-6.49437e-15
9.50628e-16
7.42462e-16
4.84118e-15
-4.18459e-15
-4.20931e-15
-2.97418e-15
7.33788e-15
-9.26776e-16
2.53703e-15
6.02209e-15
-4.13038e-15
6.29575e-15
-2.19443e-16
2.42428e-16
4.13645e-15
-1.15376e-14
-4.31296e-15
-2.64545e-15
4.45824e-16
1.28456e-15
2.48152e-15
3.55011e-15
8.5652e-16
-9.26559e-15
2.97809e-15
-2.46981e-15
-4.31686e-15
7.50094e-15
3.80772e-15
-3.88274e-15
-6.67131e-15
8.3978e-15
-2.71441e-15
2.78857e-15
-8.49321e-15
3.54838e-15
4.32987e-15
6.30095e-15
2.43729e-15
2.85752e-15
2.87964e-16
1.13989e-14
-7.64579e-16
4.21668e-15
-9.96252e-15
-1.05731e-15
9.31069e-15
4.1642e-15
4.89192e-15
-4.81386e-15
1.38865e-15
1.76248e-15
-7.92161e-15
-7.04818e-15
1.419e-15
-8.46805e-15
2.98199e-15
9.25995e-15
-3.07133e-15
8.29198e-16
-7.29885e-15
-3.98726e-15
-1.08654e-14
2.15453e-15
-2.14499e-15
1.24293e-15
-6.94323e-15
3.23873e-15
-1.08854e-15
-3.5796e-15
-5.21892e-15
-5.82954e-15
9.03617e-15
1.30625e-15
-2.20657e-15
1.37104e-14
2.39912e-15
9.9868e-15
-7.61544e-16
-5.46958e-15
-1.13182e-14
-3.05745e-15
3.45036e-15
8.4828e-15
-3.08607e-15
2.4581e-15
5.0359e-15
-5.81826e-15
-8.68316e-15
-1.70784e-15
4.13124e-15
2.19529e-15
1.7512e-15
1.55691e-15
5.51989e-15
-1.25603e-14
5.15473e-15
9.26342e-16
-3.8294e-15
1.31579e-15
-1.88998e-15
-1.16842e-14
-3.61083e-15
-1.76942e-15
8.71872e-15
5.42448e-15
-1.12002e-14
8.55219e-16
-1.22298e-15
9.63639e-15
-1.76248e-15
-3.15199e-15
6.03857e-15
7.11063e-15
2.70617e-15
-1.01013e-14
4.11997e-15
-4.83467e-15
7.42635e-15
8.80893e-15
5.59275e-15
-2.35575e-15
3.02536e-15
5.76622e-15
-5.0307e-16
-3.06873e-15
-3.33934e-15
-1.80238e-15
-5.84255e-15
9.67976e-16
9.09862e-15
-2.94036e-15
-4.63171e-16
-3.90313e-16
-1.05645e-15
-1.28664e-14
1.2837e-16
-6.33001e-15
7.91901e-15
9.92956e-15
8.10116e-15
3.51455e-15
-5.1209e-15
-2.52055e-15
1.07379e-15
-6.01949e-16
1.96024e-15
1.76942e-15
4.51028e-16
-6.86777e-15
-9.567e-15
-6.7446e-15
5.03937e-15
8.37871e-16
-1.77462e-15
1.41484e-14
-4.55191e-15
2.92474e-15
2.31065e-15
8.80025e-15
8.16014e-15
9.09862e-15
5.64999e-15
-3.58047e-15
1.50227e-15
-4.97692e-15
1.17441e-14
-5.37764e-16
1.91167e-15
-6.70991e-15
-1.11369e-15
1.50158e-14
1.85962e-15
-1.64486e-14
-5.54765e-15
1.56472e-14
-1.69517e-14
5.09315e-15
-8.26769e-15
-1.06928e-14
-5.61703e-15
9.05873e-15
3.2821e-15
-1.03008e-14
2.67494e-15
4.14252e-15
-1.43288e-15
-2.0331e-15
4.996e-15
1.1012e-14
2.31065e-15
5.80438e-15
-1.45023e-15
1.70003e-16
2.5327e-16
1.50921e-14
-2.21351e-15
8.25034e-15
2.26555e-15
-4.35763e-15
-1.03043e-15
-1.07206e-15
-9.81853e-16
4.62824e-15
-6.68562e-15
1.10606e-14
-2.21385e-14
-5.42275e-15
7.75421e-15
1.50886e-14
8.88525e-15
-7.75421e-15
-3.06352e-15
-1.23061e-14
1.87003e-15
-9.9469e-15
7.72299e-15
-1.18724e-14
-8.03177e-15
-1.82562e-14
-4.23273e-15
-5.55458e-15
5.27009e-15
1.83638e-14
-2.64372e-15
2.63331e-15
-8.79505e-15
3.14332e-15
-1.181e-14
-7.26502e-15
3.00454e-15
-9.28771e-15
-3.64639e-15
1.47972e-14
4.02109e-15
-3.74006e-15
1.64174e-14
-3.00454e-15
-3.8268e-15
9.85323e-16
5.47826e-15
-1.16573e-14
-2.22045e-14
1.50713e-14
-5.22499e-15
-8.34749e-15
-4.93702e-15
-2.61943e-15
1.04881e-14
-1.58241e-14
-6.07153e-15
-6.25541e-15
-8.74301e-15
5.89806e-15
-1.23165e-15
-1.09496e-14
8.17055e-15
-1.08802e-14
-5.27703e-15
-4.69069e-15
-9.80119e-15
-6.48093e-15
7.24421e-15
-1.98452e-15
6.04031e-15
-7.71605e-15
2.56947e-14
2.15453e-15
1.02349e-15
-7.99014e-15
-1.14145e-15
2.83107e-15
5.25621e-15
2.50147e-15
-6.05418e-15
6.07847e-15
-1.02904e-14
4.86763e-15
1.25074e-14
8.44463e-15
1.6747e-14
2.47719e-15
-1.74305e-14
-2.76584e-14
1.83187e-15
-3.36189e-15
4.09395e-15
-9.95731e-15
4.05925e-15
2.90046e-15
-8.87485e-15
-5.48173e-16
1.47105e-15
1.21431e-15
-4.47559e-15
-3.35149e-15
-2.02061e-14
1.08732e-14
4.05231e-15
-5.4054e-15
1.39472e-14
-4.10089e-15
1.45856e-14
-2.23432e-15
1.34198e-14
9.03444e-15
2.04836e-14
9.2773e-15
-1.03875e-14
3.1225e-15
1.50019e-14
8.53484e-15
6.80012e-16
-7.00828e-16
-2.81025e-15
5.64826e-15
-1.54737e-15
3.35842e-15
-1.01794e-14
4.05231e-15
1.20737e-15
5.07233e-15
-4.42701e-15
4.43395e-15
2.91434e-16
-6.97359e-15
-5.68295e-15
-1.41553e-15
-1.12688e-14
-6.91808e-15
3.89966e-15
4.5311e-15
6.59195e-16
1.32463e-14
7.23727e-15
-4.51722e-15
1.28925e-14
9.05526e-15
-1.01932e-14
-2.01228e-15
-2.78874e-14
-4.88498e-15
1.01516e-14
2.58127e-14
-3.26822e-15
6.67522e-15
-1.17961e-15
8.18096e-15
2.09208e-14
8.22953e-15
6.01602e-15
-2.53964e-15
-1.04014e-14
2.86576e-15
1.50574e-15
1.24623e-14
8.46545e-15
-1.88391e-14
1.38778e-15
2.7825e-15
-1.38986e-14
1.7833e-14
-5.03764e-15
5.51642e-15
-3.19189e-16
1.11855e-14
-1.59942e-14
-6.07847e-15
7.59809e-15
4.72539e-15
-1.74999e-14
-7.09155e-15
7.68136e-15
-3.58741e-15
-6.73073e-15
4.08007e-15
-8.79852e-15
-7.39686e-15
2.85327e-14
7.50094e-15
5.16254e-15
-6.93889e-18
-3.80945e-15
1.54807e-14
-5.59969e-15
1.85962e-15
9.99201e-15
-2.28151e-14
-8.92342e-15
1.17961e-16
1.79023e-15
2.47719e-15
1.08386e-14
-3.49026e-15
2.29677e-15
-2.97679e-15
-1.1588e-14
-9.40914e-15
-5.41928e-15
2.85882e-15
2.26763e-14
3.09475e-15
6.41848e-15
-1.83603e-14
-8.58341e-15
-6.67522e-15
-2.10942e-15
1.73472e-15
-1.1921e-14
-4.60743e-15
-8.52096e-15
9.92262e-15
-3.27516e-15
-1.15047e-14
1.11439e-14
-8.16014e-15
-5.7454e-15
6.02296e-15
-4.31599e-15
-7.71605e-15
4.70457e-15
-1.65978e-14
7.17482e-15
-1.37945e-14
1.58207e-15
1.31839e-15
-5.4956e-15
-5.67602e-15
1.94289e-15
-4.21885e-15
2.14273e-14
3.26128e-15
-5.23193e-15
-5.63438e-15
5.31519e-15
3.27516e-15
1.38778e-14
1.0103e-14
-1.42247e-14
-7.71605e-15
-9.58955e-15
-4.16334e-15
-3.60822e-16
-5.14866e-15
3.84415e-15
1.92901e-15
-6.245e-16
4.41314e-15
5.28744e-15
2.26208e-15
7.75768e-15
1.25039e-14
1.95677e-15
2.91434e-16
-1.70697e-14
-6.67522e-15
3.19189e-16
9.38138e-15
4.82947e-15
-2.76168e-15
-1.55154e-14
1.34892e-14
1.97065e-15
2.22045e-16
1.26427e-14
-7.49401e-15
6.81399e-15
1.24623e-14
5.16254e-15
1.55431e-14
-5.13478e-16
-2.26208e-15
7.91034e-16
3.08087e-15
-2.44527e-14
1.32949e-14
-1.13937e-14
1.09357e-14
-5.25968e-15
-7.91034e-16
-8.67362e-15
1.46133e-14
-1.1699e-14
1.95816e-14
-1.18794e-14
2.01228e-14
3.95517e-15
5.71765e-15
1.09912e-14
-1.61537e-14
-9.17322e-15
1.24484e-14
-1.26288e-15
2.02616e-14
-5.02376e-15
-5.82867e-15
-4.20497e-15
1.43774e-14
1.03945e-14
1.06443e-14
1.29896e-14
-2.39392e-14
8.18789e-16
1.22402e-14
5.70377e-15
2.23432e-15
6.96665e-15
-1.21431e-14
-7.29972e-15
6.13398e-15
-2.81719e-15
-1.92207e-14
-1.58207e-15
3.16414e-15
2.6118e-14
3.6221e-15
-2.88658e-15
-1.66395e-14
-4.85723e-16
1.97065e-15
5.8703e-15
-1.94011e-14
-2.24265e-14
-9.86711e-15
-3.70537e-15
-1.05471e-15
-1.63619e-14
-5.7454e-15
-3.52496e-15
-1.69864e-14
2.52576e-15
1.38778e-15
-1.70142e-14
1.6015e-14
1.90403e-14
-2.30649e-14
6.96665e-15
-3.09475e-14
1.52656e-14
-1.85962e-15
8.65974e-15
7.49401e-16
-2.94209e-15
-1.36835e-14
-1.41553e-15
-1.85685e-14
-3.66374e-15
-6.4948e-15
-1.80411e-14
1.39611e-14
1.22402e-14
9.54792e-15
-1.23512e-14
-7.82707e-15
-5.66214e-15
3.52496e-15
5.77316e-15
-1.64868e-14
1.24345e-14
2.35922e-15
-2.22877e-14
4.4964e-15
2.22045e-15
6.55032e-15
-1.60427e-14
-9.9365e-15
-6.57807e-15
1.32672e-14
1.42941e-14
9.88098e-15
-1.36002e-14
2.2371e-14
1.30451e-15
5.55112e-17
-3.2141e-14
-5.77316e-15
3.55271e-15
8.24341e-15
1.53766e-14
3.44169e-15
-5.27356e-15
2.51188e-14
8.43769e-15
1.83187e-14
-1.12133e-14
1.26843e-14
1.08524e-14
-5.46785e-15
-9.60343e-15
1.55154e-14
-5.82867e-15
-6.05072e-15
1.88183e-14
2.72005e-15
-1.15463e-14
1.71529e-14
-3.16414e-15
5.9952e-15
-7.82707e-15
2.03448e-14
9.27036e-15
-7.91034e-15
7.41074e-15
1.30451e-15
-1.67089e-14
9.49241e-15
8.9373e-15
3.21965e-15
7.54952e-15
-1.45717e-14
-2.83107e-15
-8.40994e-15
2.06224e-14
-1.7597e-14
2.13718e-15
2.77556e-16
-1.84575e-14
1.26288e-14
-7.27196e-15
-1.11022e-14
1.83187e-14
6.07847e-15
-1.92624e-14
-1.82909e-14
1.45994e-14
-3.96905e-15
2.10942e-15
1.07414e-14
-4.44089e-15
-2.34812e-14
-1.05194e-14
-1.17406e-14
1.16296e-14
8.60423e-15
3.87745e-14
7.60503e-15
2.05391e-15
1.24067e-14
-3.16136e-14
-4.10783e-15
-7.85483e-15
-6.85563e-15
7.63278e-15
-2.04559e-14
2.57017e-14
-1.68199e-14
-1.62093e-14
7.77156e-15
3.29736e-14
1.5099e-14
8.49321e-15
8.32667e-16
-1.06026e-14
-2.5091e-14
7.66054e-15
-1.27676e-15
-1.19349e-14
1.2379e-14
1.10467e-14
3.05311e-15
-5.05151e-15
2.14828e-14
8.10463e-15
-5.55112e-16
1.58762e-14
1.85407e-14
-1.44884e-14
-1.12133e-14
7.93809e-15
2.14828e-14
-6.77236e-15
9.21485e-15
-1.4877e-14
2.80886e-14
-3.16414e-15
-4.996e-16
9.04832e-15
-3.33067e-16
-3.94129e-15
2.66454e-15
-2.27596e-15
-7.38298e-15
2.45359e-14
1.16018e-14
4.996e-16
1.31006e-14
-1.72085e-15
-9.9365e-15
-2.33147e-15
1.92069e-14
2.498e-14
-8.21565e-15
4.38538e-15
-6.99441e-15
-4.37983e-14
3.94129e-15
5.82867e-15
-2.24265e-14
3.36953e-14
1.07692e-14
1.14908e-14
1.44329e-15
-2.48135e-14
1.0103e-14
-4.16334e-15
5.4956e-15
7.10543e-15
-1.86517e-14
-2.59792e-14
-1.29341e-14
2.66454e-15
-2.94209e-15
6.93889e-15
3.08642e-14
-5.66214e-15
-5.88418e-15
1.45994e-14
-4.4964e-15
6.16174e-15
-1.33227e-15
2.498e-15
-3.52496e-14
-1.73195e-14
2.29816e-14
-7.49401e-15
-4.15223e-14
1.07137e-14
5.82867e-15
-1.39333e-14
-1.4988e-14
-4.44089e-16
-4.38538e-15
-5.44009e-15
-2.00395e-14
-1.06581e-14
-4.55191e-15
-6.4948e-15
1.55431e-14
-2.94209e-15
6.55032e-15
4.88498e-15
8.27116e-15
-1.38778e-14
-6.82787e-15
-9.82547e-15
-1.39888e-14
2.20379e-14
5.9952e-15
-1.12133e-14
-8.32667e-15
-4.94049e-15
9.4369e-15
-2.44249e-15
2.55906e-14
1.91513e-14
-1.38778e-15
-1.41553e-14
-2.88658e-15
-1.21014e-14
-1.13798e-14
-5.88418e-15
-4.55191e-15
1.39333e-14
7.21645e-15
-3.10862e-15
-1.04361e-14
-1.21014e-14
1.16018e-14
-2.11497e-14
7.82707e-15
-1.94289e-14
2.77556e-15
-4.05231e-15
0
7.04992e-15
9.04832e-15
-1.55986e-14
5.55112e-17
-2.58127e-14
-1.16018e-14
-1.55431e-14
3.79141e-14
8.04912e-15
-1.19349e-14
7.49401e-15
2.88103e-14
-1.45994e-14
-9.4369e-16
9.54792e-15
-1.16018e-14
1.28231e-14
4.38538e-15
1.12133e-14
-7.71605e-15
2.33147e-15
-1.19349e-14
1.80966e-14
-1.43219e-14
-3.77476e-15
2.60902e-15
-2.88658e-15
-5.60663e-15
1.45994e-14
3.9968e-15
-6.21725e-15
1.24345e-14
-1.44329e-14
-3.44169e-15
2.79776e-14
-1.22125e-15
-1.10467e-14
6.60583e-15
-1.94289e-15
-1.79301e-14
-2.31482e-14
9.49241e-15
1.06026e-14
9.27036e-15
1.22125e-14
2.9976e-15
5.60663e-15
-1.16573e-15
-1.71529e-14
-2.65898e-14
-1.20459e-14
1.29896e-14
3.9968e-15
7.88258e-15
3.23075e-14
-2.77556e-15
2.05391e-15
7.77156e-15
5.4956e-15
-1.32117e-14
1.10467e-14
-3.33067e-16
2.88658e-15
-3.4972e-15
8.43769e-15
1.87628e-14
2.17049e-14
-3.2585e-14
1.27676e-15
-1.39888e-14
-1.16573e-15
-2.22045e-16
9.38138e-15
1.40998e-14
1.00475e-14
1.23235e-14
-2.29261e-14
-1.22125e-14
2.77556e-16
1.04361e-14
2.33147e-14
2.45914e-14
1.66533e-16
5.93969e-15
6.27276e-15
9.15934e-15
4.66294e-15
-1.40443e-14
-3.94129e-15
9.71445e-15
6.93889e-15
-1.60427e-14
-1.13243e-14
1.66533e-16
-3.56382e-14
-1.18239e-14
-4.38538e-15
-1.06026e-14
-6.60583e-15
-5.9952e-15
2.2371e-14
-6.88338e-15
-1.7264e-14
1.11022e-16
-1.7597e-14
5.93969e-15
6.21725e-15
3.88578e-15
6.55032e-15
1.05471e-14
2.66454e-14
-1.14353e-14
8.60423e-15
3.9968e-15
-2.67564e-14
-5.66214e-15
-5.66214e-15
-4.44089e-16
-1.78746e-14
1.03251e-14
-4.996e-15
1.37668e-14
-1.88738e-15
5.10703e-15
9.54792e-15
-1.23235e-14
-1.24345e-14
1.16573e-14
-5.10703e-15
1.39888e-14
-9.54792e-15
-8.65974e-15
-2.498e-14
-2.65343e-14
-1.67644e-14
2.66454e-15
1.88738e-14
3.44169e-15
-4.77396e-15
1.57652e-14
-1.83187e-14
5.55112e-15
-6.55032e-15
-4.21885e-15
-3.55271e-15
3.33067e-16
1.77636e-15
5.44009e-15
1.11022e-15
-6.66134e-16
-3.10862e-15
2.22045e-15
1.85407e-14
5.9952e-15
2.13163e-14
1.52101e-14
1.44329e-14
1.29896e-14
5.77316e-15
1.45439e-14
-1.52101e-14
5.66214e-15
1.17684e-14
-7.77156e-15
1.9984e-15
9.65894e-15
-1.19904e-14
-5.88418e-15
1.45439e-14
-2.9976e-15
-3.10862e-15
8.88178e-15
1.17684e-14
-1.65423e-14
4.88498e-15
3.33067e-16
4.21885e-15
3.88578e-15
1.74305e-14
-7.43849e-15
-1.17684e-14
-2.66454e-14
-3.77476e-15
3.88578e-15
-1.57652e-14
-3.21965e-15
1.18794e-14
1.17684e-14
3.77476e-15
-4.10783e-15
6.88338e-15
-8.88178e-16
2.05391e-14
9.21485e-15
1.67644e-14
-5.21805e-15
-6.66134e-16
-8.54872e-15
-3.88578e-15
-6.77236e-15
2.13163e-14
-7.10543e-15
1.38778e-14
1.43219e-14
-1.77636e-15
-5.66214e-15
-5.66214e-15
-6.32827e-15
-1.68754e-14
-1.4988e-14
-1.44329e-15
1.89848e-14
-1.22125e-15
-2.9976e-15
-2.88658e-15
-1.90958e-14
-4.77396e-15
-5.88418e-15
-2.13163e-14
-5.55112e-15
1.54321e-14
-9.99201e-16
4.88498e-15
6.32827e-15
-1.55431e-14
-1.59872e-14
-1.5099e-14
-3.77476e-15
-1.22125e-14
5.32907e-15
-7.77156e-16
1.69864e-14
-1.56541e-14
1.96509e-14
8.32667e-15
-4.32987e-15
-3.44169e-15
3.33067e-16
-9.4369e-15
4.66294e-15
1.67644e-14
2.85327e-14
1.62093e-14
-3.44169e-15
6.43929e-15
8.54872e-15
-1.73195e-14
2.22045e-15
3.33067e-15
5.55112e-16
-7.77156e-16
-6.21725e-15
-1.9984e-15
-7.77156e-16
-6.21725e-15
4.44089e-15
2.03171e-14
6.66134e-15
-8.77076e-15
4.44089e-16
-1.06581e-14
-5.88418e-15
1.11022e-16
-8.65974e-15
-5.10703e-15
9.54792e-15
5.9952e-15
-9.99201e-15
-1.55431e-15
-1.04361e-14
1.4766e-14
-9.4369e-15
-1.9873e-14
6.77236e-15
-4.88498e-15
-6.88338e-15
-1.31006e-14
-6.10623e-15
1.28786e-14
-2.55351e-15
-4.88498e-15
-4.44089e-16
-7.54952e-15
-1.11022e-14
1.0103e-14
1.94289e-14
1.76525e-14
8.32667e-15
-7.54952e-15
-1.11022e-15
-2.66454e-15
-2.08722e-14
5.77316e-15
-2.9976e-14
7.99361e-15
-7.32747e-15
-1.55431e-15
-2.22045e-16
4.66294e-15
-1.02141e-14
-1.44329e-15
-1.40998e-14
-1.55431e-15
-4.55191e-15
-7.21645e-15
-1.44329e-15
7.43849e-15
-5.88418e-15
-1.60982e-14
-8.43769e-15
7.21645e-15
-2.77556e-15
-6.77236e-15
-3.88578e-15
1.11022e-15
-1.18794e-14
-1.31006e-14
-8.54872e-15
-1.55431e-15
8.21565e-15
6.55032e-15
1.82077e-14
5.21805e-15
-3.9968e-15
3.77476e-15
-2.77556e-15
-2.10942e-15
1.08802e-14
1.69864e-14
1.84297e-14
-6.21725e-15
-1.33227e-14
2.43139e-14
-7.21645e-15
1.35447e-14
7.77156e-16
4.44089e-15
1.06581e-14
-4.32987e-15
-2.10942e-15
-1.73195e-14
-1.09912e-14
1.24345e-14
-9.76996e-15
-1.73195e-14
-1.44329e-14
7.21645e-15
-5.32907e-15
9.88098e-15
-2.77556e-15
-5.21805e-15
4.77396e-15
6.88338e-15
2.22045e-14
-1.03251e-14
-1.33227e-15
1.38778e-14
-1.18794e-14
4.32987e-15
1.9873e-14
-2.36478e-14
5.21805e-15
-1.34337e-14
-1.55431e-15
7.77156e-16
8.43769e-15
4.996e-15
3.55271e-15
1.19904e-14
-4.10783e-15
6.66134e-16
9.88098e-15
-1.88738e-14
-2.44249e-15
-2.22045e-15
1.39888e-14
6.99441e-15
-3.66374e-15
7.54952e-15
-6.66134e-15
-2.66454e-15
-2.54241e-14
-9.4369e-15
7.99361e-15
-8.21565e-15
-9.32587e-15
4.996e-15
-8.10463e-15
-1.63203e-14
2.22045e-15
-6.66134e-16
1.22125e-14
-9.88098e-15
1.22125e-15
-1.77636e-15
8.32667e-15
-1.38778e-14
-1.36557e-14
-6.77236e-15
-5.55112e-16
1.53211e-14
1.57652e-14
-1.9873e-14
1.43219e-14
2.19824e-14
4.44089e-15
-1.90958e-14
8.10463e-15
-4.10783e-15
4.44089e-15
-2.55351e-15
1.9984e-15
6.77236e-15
-1.33227e-14
-5.66214e-15
2.63123e-14
-4.996e-15
7.21645e-15
-5.9952e-15
-1.68754e-14
3.18634e-14
-1.14353e-14
1.11022e-14
9.65894e-15
3.77476e-15
-9.54792e-15
1.66533e-15
-1.09912e-14
-3.10862e-15
3.44169e-15
-8.21565e-15
1.33227e-15
3.55271e-15
2.33147e-15
4.66294e-15
-1.23235e-14
-1.0103e-14
1.5099e-14
0
9.54792e-15
1.55431e-14
2.75335e-14
7.54952e-15
1.88738e-15
2.14273e-14
1.79856e-14
-1.46549e-14
4.55191e-15
3.9968e-15
-1.11022e-16
-6.32827e-15
9.99201e-16
4.10783e-15
1.12133e-14
3.33067e-16
-1.11022e-15
2.53131e-14
9.99201e-16
5.44009e-15
7.10543e-15
7.32747e-15
-1.17684e-14
1.72085e-14
-5.44009e-15
-2.22045e-15
-1.55431e-15
4.77396e-15
-1.12133e-14
1.07692e-14
8.88178e-16
-6.55032e-15
-1.4877e-14
-1.74305e-14
9.10383e-15
2.88658e-15
-2.10942e-14
-1.13243e-14
-4.88498e-15
1.19904e-14
4.21885e-15
-1.59872e-14
9.10383e-15
-1.13243e-14
-8.88178e-16
9.54792e-15
1.9984e-15
-1.59872e-14
2.39808e-14
-8.21565e-15
-6.88338e-15
1.24345e-14
-1.57652e-14
5.32907e-15
-4.44089e-15
-1.24345e-14
1.04361e-14
4.66294e-15
-1.53211e-14
-1.59872e-14
-2.24265e-14
-2.59792e-14
-1.93179e-14
-1.9984e-15
-7.54952e-15
-2.75335e-14
-1.57652e-14
2.04281e-14
-9.99201e-15
-4.21885e-15
-2.44249e-15
9.99201e-15
-1.44329e-14
-1.46549e-14
-6.66134e-15
-2.66454e-15
5.10703e-15
-1.53211e-14
-2.22045e-16
-5.32907e-15
-4.44089e-16
-2.75335e-14
4.66294e-15
-7.77156e-15
-6.66134e-15
-1.26565e-14
1.33227e-15
2.44249e-15
2.44249e-15
-2.86438e-14
-4.88498e-15
-1.11022e-15
1.68754e-14
2.06501e-14
9.10383e-15
6.21725e-15
1.42109e-14
7.99361e-15
-7.54952e-15
-1.62093e-14
6.21725e-15
6.88338e-15
6.43929e-15
5.9952e-15
-1.55431e-15
-1.57652e-14
-1.15463e-14
1.53211e-14
-3.9968e-15
1.77636e-15
-6.43929e-15
-1.70974e-14
-1.9984e-15
-2.22045e-16
-1.55431e-15
5.9952e-15
-1.13243e-14
6.88338e-15
2.17604e-14
2.37588e-14
1.53211e-14
8.43769e-15
6.66134e-15
3.9968e-15
6.88338e-15
7.10543e-15
8.88178e-15
-1.19904e-14
1.4877e-14
8.88178e-16
-5.77316e-15
-3.77476e-15
8.43769e-15
1.70974e-14
-4.66294e-15
2.22045e-15
-5.32907e-15
-2.66454e-15
-1.19904e-14
1.33227e-15
-8.88178e-16
8.43769e-15
4.44089e-16
-8.43769e-15
-2.22045e-15
-2.88658e-15
-1.9984e-15
-5.77316e-15
9.54792e-15
2.9976e-14
-2.66454e-15
7.77156e-15
-1.9984e-14
-1.82077e-14
-1.17684e-14
2.22045e-16
-1.15463e-14
3.77476e-15
2.13163e-14
8.43769e-15
-8.88178e-15
-1.39888e-14
-4.66294e-15
-1.06581e-14
2.22045e-16
9.10383e-15
2.44249e-15
8.88178e-15
-8.88178e-15
-3.9968e-15
1.06581e-14
6.66134e-15
6.21725e-15
-1.55431e-14
3.55271e-15
7.99361e-15
9.54792e-15
6.66134e-16
-3.77476e-15
-4.88498e-15
4.66294e-15
1.08802e-14
3.55271e-15
-6.43929e-15
2.22045e-16
-1.37668e-14
5.77316e-15
-1.9984e-15
-1.22125e-14
3.10862e-15
7.99361e-15
3.10862e-15
-1.13243e-14
-9.32587e-15
-6.21725e-15
7.32747e-15
-5.77316e-15
7.77156e-15
2.08722e-14
3.10862e-15
-1.24345e-14
1.19904e-14
2.22045e-16
1.31006e-14
7.32747e-15
9.32587e-15
6.21725e-15
-6.66134e-15
4.44089e-16
-2.02061e-14
1.9984e-15
-1.06581e-14
1.95399e-14
5.32907e-15
2.66454e-15
-1.55431e-15
7.32747e-15
-3.55271e-15
-2.42029e-14
6.21725e-15
2.88658e-15
1.86517e-14
-8.21565e-15
1.44329e-14
4.44089e-16
-9.10383e-15
6.21725e-15
-1.59872e-14
8.43769e-15
-3.55271e-15
-4.44089e-15
-2.22045e-16
-4.44089e-15
5.55112e-15
-4.66294e-15
-1.44329e-14
1.02141e-14
-1.5099e-14
-8.88178e-16
-1.17684e-14
-1.93179e-14
-5.55112e-15
1.77636e-15
1.44329e-14
3.33067e-15
9.54792e-15
-1.53211e-14
-2.22045e-16
1.02141e-14
-1.77636e-15
-3.55271e-15
-5.10703e-15
3.10862e-15
3.10862e-15
3.9968e-15
0
-9.10383e-15
-9.32587e-15
-1.37668e-14
3.77476e-15
1.11022e-15
-7.99361e-15
5.10703e-15
1.11022e-15
2.66454e-15
-2.88658e-15
-4.66294e-15
2.66454e-15
-1.62093e-14
1.42109e-14
1.33227e-14
9.54792e-15
-1.59872e-14
3.77476e-15
-1.9984e-15
-3.9968e-15
4.66294e-15
4.44089e-16
1.22125e-14
-2.24265e-14
-6.88338e-15
-1.15463e-14
1.31006e-14
-7.32747e-15
5.77316e-15
9.99201e-15
8.88178e-16
6.43929e-15
-1.93179e-14
1.5099e-14
4.88498e-15
1.53211e-14
9.54792e-15
-7.32747e-15
1.95399e-14
1.68754e-14
-1.13243e-14
1.79856e-14
-1.77636e-15
7.77156e-15
1.57652e-14
9.54792e-15
-9.10383e-15
-5.77316e-15
-6.88338e-15
-1.77636e-15
1.17684e-14
3.77476e-15
-1.9984e-15
-8.88178e-16
-4.44089e-16
1.73195e-14
1.42109e-14
-4.88498e-15
6.88338e-15
-4.21885e-15
1.9984e-14
2.22045e-15
8.65974e-15
4.44089e-16
7.10543e-15
-6.66134e-16
1.37668e-14
8.88178e-16
-5.10703e-15
-3.77476e-15
3.9968e-15
5.77316e-15
1.31006e-14
3.55271e-15
-1.84297e-14
-1.95399e-14
5.55112e-15
-4.44089e-15
2.44249e-15
1.33227e-14
-1.46549e-14
-4.44089e-16
-5.55112e-15
1.19904e-14
1.55431e-15
4.21885e-15
-1.9984e-14
-1.9984e-15
-8.88178e-15
-1.9984e-15
-6.21725e-15
1.11022e-15
1.75415e-14
-8.21565e-15
-1.70974e-14
-1.95399e-14
3.10862e-15
8.88178e-15
-2.28706e-14
-9.10383e-15
6.21725e-15
-2.17604e-14
-1.9984e-15
0
-6.66134e-15
-5.9952e-15
-2.66454e-15
4.44089e-15
-3.9968e-15
7.32747e-15
5.77316e-15
-4.44089e-15
-7.77156e-15
1.55431e-15
2.22045e-16
-9.76996e-15
-9.76996e-15
3.33067e-15
-7.99361e-15
8.43769e-15
2.22045e-15
-1.19904e-14
-1.42109e-14
-1.17684e-14
-8.21565e-15
-9.54792e-15
-2.10942e-14
-3.55271e-15
9.99201e-15
8.43769e-15
-7.77156e-15
-1.55431e-14
0
-8.43769e-15
1.13243e-14
1.79856e-14
-5.32907e-15
1.77636e-15
4.66294e-15
-7.77156e-15
1.42109e-14
-3.55271e-15
-3.33067e-15
-5.10703e-15
4.88498e-15
-5.10703e-15
1.77636e-14
5.32907e-15
2.88658e-15
-8.43769e-15
8.43769e-15
-6.66134e-15
-1.46549e-14
9.99201e-15
1.95399e-14
5.9952e-15
-7.77156e-15
-3.10862e-15
6.66134e-15
-5.10703e-15
-1.33227e-15
1.95399e-14
4.44089e-15
-7.99361e-15
6.66134e-15
2.66454e-15
1.11022e-14
-1.57652e-14
5.55112e-15
-1.64313e-14
-8.65974e-15
-2.44249e-15
1.17684e-14
-4.88498e-15
-3.77476e-15
4.66294e-15
7.32747e-15
-7.99361e-15
-8.43769e-15
-3.10862e-15
3.33067e-15
1.08802e-14
1.44329e-14
6.43929e-15
3.10862e-15
1.15463e-14
1.11022e-14
8.88178e-16
-4.44089e-16
-3.33067e-15
4.44089e-16
7.54952e-15
-1.02141e-14
7.10543e-15
-1.46549e-14
3.77476e-15
6.43929e-15
3.55271e-15
-7.54952e-15
-1.33227e-15
-1.06581e-14
-4.44089e-16
8.88178e-15
5.32907e-15
6.66134e-15
1.33227e-15
0
3.10862e-15
-3.10862e-15
1.19904e-14
-7.99361e-15
6.21725e-15
2.22045e-14
-5.77316e-15
-1.06581e-14
3.10862e-15
-1.33227e-15
-1.06581e-14
3.9968e-15
2.30926e-14
-2.66454e-15
-1.24345e-14
-1.28786e-14
-3.10862e-15
-1.55431e-14
-1.19904e-14
-1.02141e-14
1.06581e-14
3.9968e-15
8.88178e-16
8.88178e-16
-3.55271e-15
-1.55431e-14
9.76996e-15
-2.22045e-15
-4.88498e-15
-9.76996e-15
6.66134e-15
-4.44089e-15
1.77636e-15
-6.66134e-15
0
-1.77636e-14
2.66454e-15
5.32907e-15
0
-1.06581e-14
7.54952e-15
-3.55271e-15
-8.88178e-16
3.55271e-15
1.11022e-14
7.10543e-15
-7.10543e-15
2.39808e-14
-8.43769e-15
-2.22045e-15
-6.21725e-15
1.19904e-14
-1.33227e-15
4.88498e-15
-7.54952e-15
-3.9968e-15
1.37668e-14
-1.77636e-14
-7.99361e-15
-3.9968e-15
-1.33227e-14
3.55271e-15
3.10862e-15
4.44089e-15
4.44089e-16
-2.22045e-14
7.54952e-15
2.66454e-15
3.9968e-15
3.10862e-15
1.15463e-14
-4.44089e-16
-2.26485e-14
6.21725e-15
6.21725e-15
7.54952e-15
7.10543e-15
9.32587e-15
-3.55271e-15
6.21725e-15
2.22045e-15
-1.02141e-14
-6.21725e-15
-4.44089e-15
1.5099e-14
1.15463e-14
-1.02141e-14
-3.9968e-15
5.32907e-15
1.33227e-14
-7.99361e-15
2.26485e-14
-3.9968e-15
2.66454e-15
5.32907e-15
1.64313e-14
6.66134e-15
-3.9968e-15
5.77316e-15
1.64313e-14
-2.66454e-15
-2.22045e-15
6.66134e-15
3.55271e-15
-1.55431e-14
-3.9968e-15
-6.21725e-15
-2.30926e-14
-2.66454e-15
4.88498e-15
8.43769e-15
-1.28786e-14
7.10543e-15
1.24345e-14
8.88178e-15
-1.02141e-14
-1.02141e-14
3.55271e-15
5.32907e-15
-7.99361e-15
1.46549e-14
-9.32587e-15
-7.10543e-15
-8.43769e-15
6.21725e-15
4.44089e-15
-5.32907e-15
1.77636e-15
-2.22045e-15
4.44089e-15
-1.06581e-14
-3.55271e-15
5.32907e-15
-9.76996e-15
1.33227e-15
1.33227e-15
-8.43769e-15
8.88178e-16
1.02141e-14
-2.04281e-14
-2.22045e-15
-1.33227e-15
3.9968e-15
5.77316e-15
-7.99361e-15
-4.44089e-16
1.33227e-15
2.04281e-14
-3.10862e-15
-5.32907e-15
4.44089e-16
-1.42109e-14
8.88178e-15
-2.66454e-15
-4.88498e-15
-1.46549e-14
-3.10862e-15
1.11022e-14
-1.37668e-14
-1.55431e-14
-4.88498e-15
1.68754e-14
-1.33227e-15
-6.21725e-15
-6.66134e-15
-1.33227e-15
8.88178e-16
1.37668e-14
-4.88498e-15
-1.02141e-14
-1.59872e-14
2.04281e-14
-1.06581e-14
-1.28786e-14
-2.66454e-15
-2.66454e-15
-8.43769e-15
3.9968e-15
9.32587e-15
4.88498e-15
-1.28786e-14
3.55271e-15
-5.32907e-15
1.42109e-14
-2.66454e-15
-3.55271e-15
-3.55271e-15
8.88178e-16
-5.77316e-15
-1.33227e-15
5.77316e-15
-1.37668e-14
7.99361e-15
4.44089e-15
3.9968e-15
7.54952e-15
9.76996e-15
1.77636e-15
-5.32907e-15
2.66454e-14
4.44089e-15
5.32907e-15
-3.55271e-15
-7.10543e-15
-4.44089e-15
-4.44089e-16
5.32907e-15
-7.54952e-15
8.88178e-16
3.10862e-15
7.99361e-15
8.43769e-15
-2.04281e-14
-1.33227e-15
-7.10543e-15
1.42109e-14
5.77316e-15
-8.88178e-15
2.22045e-15
2.53131e-14
2.66454e-15
-1.55431e-14
6.21725e-15
-4.44089e-16
1.42109e-14
2.66454e-15
-8.88178e-16
-1.55431e-14
5.77316e-15
7.99361e-15
-8.88178e-16
-2.13163e-14
-4.44089e-15
-3.55271e-15
-4.44089e-15
5.32907e-15
9.76996e-15
-5.32907e-15
-4.88498e-15
2.22045e-15
8.43769e-15
3.10862e-15
1.02141e-14
-1.19904e-14
-8.88178e-15
9.76996e-15
-3.10862e-15
2.66454e-15
1.02141e-14
-7.54952e-15
-5.77316e-15
1.68754e-14
-8.43769e-15
-8.88178e-16
2.22045e-15
-2.22045e-15
-4.44089e-16
-1.77636e-15
2.22045e-15
-2.17604e-14
-9.76996e-15
-7.54952e-15
7.54952e-15
2.66454e-15
3.9968e-15
-6.66134e-15
2.22045e-15
4.88498e-15
1.77636e-15
-2.22045e-15
-1.11022e-14
-6.21725e-15
2.75335e-14
5.32907e-15
7.10543e-15
-9.32587e-15
-1.33227e-15
8.43769e-15
5.32907e-15
-1.73195e-14
-7.10543e-15
4.88498e-15
-5.32907e-15
7.99361e-15
1.77636e-15
-1.02141e-14
9.76996e-15
7.10543e-15
-2.66454e-15
-8.88178e-15
1.02141e-14
1.15463e-14
6.21725e-15
1.46549e-14
0
8.88178e-16
-4.44089e-15
9.76996e-15
-3.9968e-15
-1.06581e-14
-8.88178e-15
-1.33227e-15
-1.33227e-15
5.77316e-15
1.02141e-14
-1.19904e-14
-4.44089e-16
-8.43769e-15
-6.21725e-15
0
6.21725e-15
8.43769e-15
7.10543e-15
5.32907e-15
-4.44089e-16
3.9968e-15
-5.77316e-15
-3.10862e-15
-3.55271e-15
-4.44089e-16
7.99361e-15
9.76996e-15
-5.32907e-15
-8.88178e-15
-1.06581e-14
1.11022e-14
0
-5.77316e-15
-2.66454e-15
4.44089e-15
8.88178e-16
8.43769e-15
-2.30926e-14
0
5.77316e-15
-2.66454e-15
0
-3.55271e-15
-3.9968e-15
-3.10862e-15
7.10543e-15
3.55271e-15
3.55271e-15
-6.21725e-15
-6.21725e-15
3.9968e-15
-1.42109e-14
-5.32907e-15
-2.22045e-15
1.33227e-14
8.88178e-16
0
-1.90958e-14
-7.10543e-15
7.54952e-15
5.77316e-15
4.44089e-15
-3.9968e-15
1.5099e-14
-5.77316e-15
1.28786e-14
-1.02141e-14
-3.55271e-15
4.88498e-15
3.10862e-15
8.43769e-15
2.66454e-15
1.90958e-14
-7.54952e-15
6.21725e-15