/*--------------------------------*- C++ -*----------------------------------*\
| =========                 |                                                 |
| \\      /  F ield         | foam-extend: Open Source CFD                    |
|  \\    /   O peration     | Version:     4.0                                |
|   \\  /    A nd           | Web:         http://www.foam-extend.org         |
|    \\/     M anipulation  |                                                 |
\*---------------------------------------------------------------------------*/
FoamFile
{
    version     2.0;
    format      ascii;
    class       surfaceScalarField;
    location    "14";
    object      phi;
}
// * * * * * * * * * * * * * * * * * * * * * * * * * * * * * * * * * * * * * //

dimensions      [0 3 -1 0 0 0 0];

internalField   nonuniform List<scalar> 
13744
(
-1.47307e-08
1.4731e-08
7.70234e-09
-2.2433e-08
4.04604e-10
7.29773e-09
1.63819e-10
2.40789e-10
7.59429e-11
8.78764e-11
4.0516e-11
3.54305e-11
2.26049e-11
1.79137e-11
1.27465e-11
9.85811e-12
6.76784e-12
5.97677e-12
2.93703e-12
3.83271e-12
3.48549e-13
2.5866e-12
-1.44729e-12
1.79701e-12
-2.7159e-12
1.26654e-12
-3.61056e-12
8.96172e-13
-4.22422e-12
6.13509e-13
-4.62031e-12
3.97016e-13
-4.84273e-12
2.22711e-13
-4.9187e-12
7.32747e-14
-4.87251e-12
-4.61853e-14
-4.72342e-12
-1.5099e-13
-4.48297e-12
-2.36033e-13
-4.16532e-12
-3.1708e-13
-3.78279e-12
-3.8658e-13
-3.34229e-12
-4.42535e-13
-2.85458e-12
-4.87832e-13
-2.32981e-12
-5.24247e-13
-1.77321e-12
-5.53557e-13
-1.19399e-12
-5.74651e-13
-6.01507e-13
-5.93525e-13
-1.95368e-15
-6.01075e-13
6.06086e-13
-6.0485e-13
1.18967e-12
-5.87086e-13
1.7733e-12
-5.79981e-13
2.33446e-12
-5.61773e-13
2.85014e-12
-5.14255e-13
3.34233e-12
-4.92495e-13
3.78723e-12
-4.42757e-13
4.16073e-12
-3.73701e-13
4.48297e-12
-3.24851e-13
4.72798e-12
-2.43805e-13
4.86812e-12
-1.42997e-13
4.91885e-12
-4.75175e-14
4.84722e-12
7.06102e-14
4.61571e-12
2.28706e-13
4.22414e-12
3.91021e-13
3.61495e-12
6.09734e-13
2.7112e-12
9.01723e-13
1.44718e-12
1.2661e-12
-3.44075e-13
1.7899e-12
-2.94151e-12
2.59615e-12
-6.76764e-12
3.8296e-12
-1.27417e-11
5.97433e-12
-2.2609e-11
9.86766e-12
-4.05157e-11
1.7911e-11
-7.59381e-11
3.54221e-11
-1.63823e-10
8.78879e-11
-4.04604e-10
2.4078e-10
-7.70234e-09
7.29773e-09
1.47307e-08
-2.2433e-08
1.47307e-08
7.13202e-08
-5.65892e-08
1.05711e-08
3.83161e-08
1.20428e-09
1.66646e-08
4.93939e-10
9.51131e-10
2.30374e-10
3.5144e-10
1.23483e-10
1.42322e-10
6.91398e-11
7.22455e-11
3.92684e-11
3.97271e-11
2.10901e-11
2.416e-11
9.46306e-12
1.54607e-11
1.59821e-12
1.04579e-11
-3.85612e-12
7.24887e-12
-7.71817e-12
5.13456e-12
-1.0433e-11
3.60556e-12
-1.23095e-11
2.48934e-12
-1.35266e-11
1.61071e-12
-1.42127e-11
9.02833e-13
-1.44658e-11
3.34621e-13
-1.43525e-11
-1.62315e-13
-1.39212e-11
-5.80425e-13
-1.32252e-11
-9.44356e-13
-1.22978e-11
-1.245e-12
-1.11679e-11
-1.50813e-12
-9.8732e-12
-1.73439e-12
-8.43757e-12
-1.9198e-12
-6.88261e-12
-2.07412e-12
-5.24126e-12
-2.19469e-12
-3.53257e-12
-2.29039e-12
-1.7743e-12
-2.34968e-12
1.02798e-15
-2.36988e-12
1.7642e-12
-2.37055e-12
3.54522e-12
-2.36389e-12
5.24151e-12
-2.27818e-12
6.87062e-12
-2.18647e-12
8.4502e-12
-2.09432e-12
9.87329e-12
-1.91291e-12
1.11553e-11
-1.73306e-12
1.231e-11
-1.52878e-12
1.32252e-11
-1.23901e-12
1.3909e-11
-9.29035e-13
1.43652e-11
-5.90417e-13
1.44662e-11
-1.56097e-13
1.42003e-11
3.41061e-13
1.35387e-11
8.96172e-13
1.23093e-11
1.62537e-12
1.04203e-11
2.49578e-12
7.73007e-12
3.59646e-12
3.85578e-12
5.13301e-12
-1.6107e-12
7.26508e-12
-9.45054e-12
1.0433e-11
-2.10895e-11
1.54574e-11
-3.92799e-11
2.41638e-11
-6.91264e-11
3.97131e-11
-1.23482e-10
7.22598e-11
-2.30386e-10
1.42325e-10
-4.93926e-10
3.51421e-10
-1.20428e-09
9.51137e-10
-1.05711e-08
1.66646e-08
-7.13202e-08
3.8316e-08
-5.65895e-08
4.68751e-08
-1.03464e-07
1.80659e-08
6.71252e-08
1.97291e-09
3.27576e-08
8.24812e-10
2.09923e-09
3.8834e-10
7.87918e-10
2.0922e-10
3.21433e-10
1.17717e-10
1.63761e-10
6.7369e-11
9.00807e-11
3.66757e-11
5.4843e-11
1.70533e-11
3.50752e-11
3.76424e-12
2.37399e-11
-5.44327e-12
1.64575e-11
-1.197e-11
1.16583e-11
-1.65662e-11
8.20627e-12
-1.97502e-11
5.66963e-12
-2.18264e-11
3.69271e-12
-2.30198e-11
2.10493e-12
-2.34844e-11
7.93199e-13
-2.33386e-11
-3.03979e-13
-2.26684e-11
-1.24911e-12
-2.15536e-11
-2.05047e-12
-2.00546e-11
-2.74369e-12
-1.82249e-11
-3.33722e-12
-1.61175e-11
-3.84631e-12
-1.37767e-11
-4.26176e-12
-1.12434e-11
-4.61703e-12
-8.56245e-12
-4.88831e-12
-5.77011e-12
-5.07594e-12
-2.90163e-12
-5.2216e-12
-1.28528e-15
-5.27589e-12
2.89761e-12
-5.27156e-12
5.77657e-12
-5.2407e-12
8.56286e-12
-5.07017e-12
1.12381e-11
-4.87366e-12
1.37831e-11
-4.64123e-12
1.61176e-11
-4.25265e-12
1.82186e-11
-3.82466e-12
2.00602e-11
-3.36642e-12
2.15536e-11
-2.72421e-12
2.26626e-11
-2.03842e-12
2.33451e-11
-1.27964e-12
2.3485e-11
-2.85216e-13
2.30138e-11
8.10352e-13
2.18319e-11
2.07373e-12
1.97497e-11
3.70104e-12
1.65596e-11
5.68906e-12
1.19751e-11
8.17968e-12
5.44273e-12
1.16706e-11
-3.7704e-12
1.64699e-11
-1.70471e-11
2.37163e-11
-3.66748e-11
3.5092e-11
-6.73735e-11
5.4869e-11
-1.17709e-10
9.00466e-11
-2.09218e-10
1.63777e-10
-3.88345e-10
3.21455e-10
-8.24805e-10
7.87893e-10
-1.97291e-09
2.09925e-09
-1.80659e-08
3.27576e-08
-4.68751e-08
6.71251e-08
-1.03465e-07
1.03278e-08
-1.13792e-07
1.56195e-08
6.18336e-08
2.69062e-09
4.56864e-08
1.15178e-09
3.63807e-09
5.48495e-10
1.3912e-09
2.97243e-10
5.72688e-10
1.68183e-10
2.9281e-10
9.70467e-11
1.61211e-10
5.36049e-11
9.8299e-11
2.58307e-11
6.28562e-11
7.00793e-12
4.25666e-11
-6.03029e-12
2.94917e-11
-1.52804e-11
2.09104e-11
-2.18058e-11
1.47323e-11
-2.63393e-11
1.02108e-11
-2.93148e-11
6.6602e-12
-3.10561e-11
3.84943e-12
-3.17742e-11
1.51072e-12
-3.16407e-11
-4.34708e-13
-3.07798e-11
-2.1078e-12
-2.92976e-11
-3.53137e-12
-2.72821e-11
-4.75901e-12
-2.4811e-11
-5.81686e-12
-2.1952e-11
-6.69403e-12
-1.87701e-11
-7.44807e-12
-1.53249e-11
-8.06376e-12
-1.16724e-11
-8.5274e-12
-7.8661e-12
-8.89125e-12
-3.9585e-12
-9.13006e-12
-2.34774e-15
-9.23783e-12
3.95989e-12
-9.22716e-12
7.86564e-12
-9.15436e-12
1.1673e-11
-8.86972e-12
1.53266e-11
-8.51619e-12
1.87698e-11
-8.08272e-12
2.19522e-11
-7.43111e-12
2.48115e-11
-6.69301e-12
2.72807e-11
-5.8419e-12
2.92977e-11
-4.75356e-12
3.0781e-11
-3.52393e-12
3.16407e-11
-2.13848e-12
3.17751e-11
-4.38261e-13
3.10569e-11
1.52205e-12
2.93132e-11
3.81987e-12
2.63387e-11
6.67728e-12
2.18058e-11
1.02226e-11
1.52784e-11
1.47099e-11
6.02954e-12
2.09247e-11
-7.0073e-12
2.95076e-11
-2.58313e-11
4.2541e-11
-5.36037e-11
6.28657e-11
-9.70438e-11
9.82916e-11
-1.68182e-10
1.61189e-10
-2.9724e-10
2.92827e-10
-5.48493e-10
5.72709e-10
-1.15178e-09
1.39117e-09
-2.69062e-09
3.63809e-09
-1.56195e-08
4.56865e-08
-1.03278e-08
6.18335e-08
-1.13792e-07
6.74595e-09
-1.20538e-07
1.08771e-08
5.77024e-08
3.36503e-09
5.31985e-08
1.4726e-09
5.5305e-09
7.10002e-10
2.1538e-09
3.87271e-10
8.9542e-10
2.20458e-10
4.59635e-10
1.28315e-10
2.53355e-10
7.19363e-11
1.54666e-10
3.58808e-11
9.89063e-11
1.14331e-11
6.7009e-11
-5.50289e-12
4.64325e-11
-1.7529e-11
3.29354e-11
-2.60252e-11
2.32224e-11
-3.19495e-11
1.61258e-11
-3.58651e-11
1.05813e-11
-3.81949e-11
6.17266e-12
-3.9213e-11
2.53518e-12
-3.91427e-11
-5.13034e-13
-3.81438e-11
-3.10856e-12
-3.63543e-11
-5.31916e-12
-3.38866e-11
-7.23385e-12
-3.08404e-11
-8.8579e-12
-2.73026e-11
-1.02414e-11
-2.33556e-11
-1.13892e-11
-1.9075e-11
-1.233e-11
-1.45323e-11
-1.30761e-11
-9.79523e-12
-1.36283e-11
-4.93007e-12
-1.39888e-11
-1.65537e-15
-1.41617e-11
4.93046e-12
-1.41728e-11
9.79497e-12
-1.40113e-11
1.45331e-11
-1.36141e-11
1.90767e-11
-1.30655e-11
2.33557e-11
-1.23653e-11
2.73027e-11
-1.13912e-11
3.08405e-11
-1.02103e-11
3.38854e-11
-8.88796e-12
3.63544e-11
-7.21888e-12
3.81449e-11
-5.30387e-12
3.91431e-11
-3.12982e-12
3.92142e-11
-4.90913e-13
3.81954e-11
2.54631e-12
3.58636e-11
6.15284e-12
3.19486e-11
1.05919e-11
2.60248e-11
1.61442e-11
1.7527e-11
2.32148e-11
5.50194e-12
3.29407e-11
-1.14328e-11
4.6442e-11
-3.5881e-11
6.69868e-11
-7.19347e-11
9.89243e-11
-1.28312e-10
1.54692e-10
-2.20456e-10
2.53345e-10
-3.87268e-10
4.59643e-10
-7.1e-10
8.95442e-10
-1.4726e-09
2.15378e-09
-3.36503e-09
5.53052e-09
-1.08771e-08
5.31985e-08
-6.74595e-09
5.77024e-08
-1.20538e-07
1.24164e-08
-1.32954e-07
9.65641e-09
6.04624e-08
4.00071e-09
5.88542e-08
1.78633e-09
7.74488e-09
8.72281e-10
3.06785e-09
4.79126e-10
1.28858e-09
2.74509e-10
6.64248e-10
1.61201e-10
3.66671e-10
9.17249e-11
2.24152e-10
4.72741e-11
1.43365e-10
1.71173e-11
9.7173e-11
-3.77769e-12
6.73303e-11
-1.86286e-11
4.77805e-11
-2.91374e-11
3.37372e-11
-3.64926e-11
2.34856e-11
-4.13896e-11
1.5483e-11
-4.43519e-11
9.13949e-12
-4.57188e-11
3.89513e-12
-4.57653e-11
-4.67446e-13
-4.46873e-11
-4.18543e-12
-4.2655e-11
-7.35798e-12
-3.98048e-11
-1.00631e-11
-3.62578e-11
-1.2407e-11
-3.21201e-11
-1.43734e-11
-2.7491e-11
-1.602e-11
-2.24608e-11
-1.73803e-11
-1.71167e-11
-1.8413e-11
-1.15396e-11
-1.91937e-11
-5.80847e-12
-1.97313e-11
-1.22223e-15
-1.99668e-11
5.80729e-12
-1.99718e-11
1.15408e-11
-1.97548e-11
1.71176e-11
-1.9179e-11
2.24612e-11
-1.84021e-11
2.74926e-11
-1.73962e-11
3.21203e-11
-1.60028e-11
3.62564e-11
-1.43743e-11
3.9805e-11
-1.24232e-11
4.26551e-11
-1.00643e-11
4.4687e-11
-7.34823e-12
4.57673e-11
-4.2133e-12
4.57201e-11
-4.53679e-13
4.43509e-11
3.90965e-12
4.13894e-11
9.10974e-12
3.64915e-11
1.54904e-11
2.91353e-11
2.35023e-11
1.86277e-11
3.37046e-11
3.77655e-12
4.77911e-11
-1.71185e-11
6.73424e-11
-4.72727e-11
9.71338e-11
-9.17231e-11
1.43366e-10
-1.61199e-10
2.24154e-10
-2.74505e-10
3.66632e-10
-4.79122e-10
6.64261e-10
-8.7228e-10
1.2886e-09
-1.78633e-09
3.06784e-09
-4.00071e-09
7.74488e-09
-9.65641e-09
5.88542e-08
-1.24164e-08
6.04624e-08
-1.32955e-07
1.31217e-08
-1.46076e-07
1.01572e-08
6.34269e-08
4.59234e-09
6.44191e-08
2.09258e-09
1.02446e-08
1.03491e-09
4.12553e-09
5.72696e-10
1.75079e-09
3.30334e-10
9.06601e-10
1.9574e-10
5.01261e-10
1.13022e-10
3.06865e-10
6.00678e-11
1.96313e-10
2.41196e-11
1.33115e-10
-7.94844e-13
9.22426e-11
-1.85193e-11
6.55122e-11
-3.10837e-11
4.63006e-11
-3.99108e-11
3.2321e-11
-4.58318e-11
2.13939e-11
-4.94732e-11
1.27786e-11
-5.12397e-11
5.67088e-12
-5.14592e-11
-2.37678e-13
-5.03646e-11
-5.28178e-12
-4.81572e-11
-9.55951e-12
-4.49979e-11
-1.32405e-11
-4.1029e-11
-1.63677e-11
-3.63746e-11
-1.90368e-11
-3.11505e-11
-2.12456e-11
-2.5462e-11
-2.30517e-11
-1.94101e-11
-2.44716e-11
-1.30886e-11
-2.55242e-11
-6.58901e-12
-2.62224e-11
-1.2746e-15
-2.65577e-11
6.58764e-12
-2.65579e-11
1.30899e-11
-2.62518e-11
1.94111e-11
-2.55119e-11
2.54625e-11
-2.44586e-11
3.11523e-11
-2.30792e-11
3.63748e-11
-2.12308e-11
4.10274e-11
-1.90124e-11
4.49981e-11
-1.64115e-11
4.81574e-11
-1.32236e-11
5.03643e-11
-9.54589e-12
5.14616e-11
-5.3189e-12
5.12411e-11
-2.31169e-13
4.9472e-11
5.68946e-12
4.58315e-11
1.27558e-11
3.99096e-11
2.14138e-11
3.10812e-11
3.23359e-11
1.85183e-11
4.62679e-11
7.93502e-13
6.55265e-11
-2.4121e-11
9.22525e-11
-6.00663e-11
1.33097e-10
-1.1302e-10
1.96325e-10
-1.95738e-10
3.06885e-10
-3.3033e-10
5.0123e-10
-5.72693e-10
9.06627e-10
-1.03491e-09
1.7508e-09
-2.09257e-09
4.12549e-09
-4.59234e-09
1.02447e-08
-1.01572e-08
6.44191e-08
-1.31217e-08
6.34269e-08
-1.46076e-07
1.10845e-08
-1.57161e-07
1.04156e-08
6.40958e-08
5.13526e-09
6.96994e-08
2.39083e-09
1.29891e-08
1.19761e-09
5.31873e-09
6.67934e-10
2.28046e-09
3.87961e-10
1.18659e-09
2.31976e-10
6.5724e-10
1.35874e-10
4.02964e-10
7.43046e-11
2.57879e-10
3.24789e-11
1.7494e-10
3.4806e-12
1.21246e-10
-1.71696e-11
8.61543e-11
-3.18352e-11
6.0963e-11
-4.21781e-11
4.26558e-11
-4.91678e-11
2.83851e-11
-5.35367e-11
1.71416e-11
-5.57555e-11
7.88278e-12
-5.62063e-11
2.07306e-13
-5.5159e-11
-6.32312e-12
-5.2846e-11
-1.18678e-11
-4.94526e-11
-1.66293e-11
-4.51422e-11
-2.06908e-11
-4.0056e-11
-2.41194e-11
-3.43261e-11
-2.69763e-11
-2.80718e-11
-2.93088e-11
-2.14074e-11
-3.11345e-11
-1.44389e-11
-3.24874e-11
-7.26998e-12
-3.33968e-11
-1.38296e-15
-3.38288e-11
7.26887e-12
-3.38331e-11
1.44399e-11
-3.34249e-11
2.14086e-11
-3.24706e-11
2.80729e-11
-3.11271e-11
3.43275e-11
-2.93325e-11
4.00562e-11
-2.69488e-11
4.5141e-11
-2.40948e-11
4.94524e-11
-2.07185e-11
5.28463e-11
-1.6618e-11
5.51592e-11
-1.18698e-11
5.62083e-11
-6.35694e-12
5.57571e-11
2.29254e-13
5.35359e-11
7.90199e-12
4.9167e-11
1.71224e-11
4.21767e-11
2.83916e-11
3.1833e-11
4.26627e-11
1.7168e-11
6.09374e-11
-3.48212e-12
8.6159e-11
-3.24799e-11
1.21255e-10
-7.43035e-11
1.7491e-10
-1.35872e-10
2.57891e-10
-2.31974e-10
4.02981e-10
-3.87956e-10
6.57206e-10
-6.67931e-10
1.1866e-09
-1.1976e-09
2.28048e-09
-2.39083e-09
5.31872e-09
-5.13526e-09
1.29891e-08
-1.04156e-08
6.96994e-08
-1.10845e-08
6.40957e-08
-1.57161e-07
9.64036e-09
-1.66801e-07
1.03518e-08
6.33843e-08
5.62965e-09
7.44216e-08
2.68064e-09
1.59381e-08
1.36023e-09
6.63917e-09
7.64852e-10
2.87584e-09
4.47441e-10
1.50399e-09
2.69961e-10
8.34731e-10
1.6032e-10
5.12597e-10
9.00128e-11
3.2819e-10
4.22135e-11
2.22736e-10
9.05872e-12
1.54391e-10
-1.4576e-11
1.09788e-10
-3.13933e-11
7.77876e-11
-4.32996e-11
5.45509e-11
-5.14059e-11
3.64904e-11
-5.65523e-11
2.2292e-11
-5.92777e-11
1.06044e-11
-6.00187e-11
9.50323e-13
-5.90827e-11
-7.26783e-12
-5.67338e-11
-1.42237e-11
-5.31808e-11
-2.01816e-11
-4.86083e-11
-2.52598e-11
-4.31741e-11
-2.95526e-11
-3.70261e-11
-3.31165e-11
-3.02972e-11
-3.60513e-11
-2.3114e-11
-3.83131e-11
-1.55943e-11
-4.00206e-11
-7.8531e-12
-4.11208e-11
-1.40814e-15
-4.16756e-11
7.85209e-12
-4.16862e-11
1.55951e-11
-4.11577e-11
2.31153e-11
-3.99987e-11
3.02987e-11
-3.83026e-11
3.70274e-11
-3.60649e-11
4.31743e-11
-3.31142e-11
4.86073e-11
-2.95322e-11
5.31804e-11
-2.52906e-11
5.67341e-11
-2.01753e-11
5.90833e-11
-1.42081e-11
6.00206e-11
-7.29889e-12
5.92793e-11
9.58532e-13
5.65517e-11
1.06388e-11
5.14046e-11
2.2263e-11
4.3298e-11
3.65145e-11
3.13912e-11
5.45835e-11
1.45739e-11
7.77591e-11
-9.0604e-12
1.09809e-10
-4.22143e-11
1.54413e-10
-9.00119e-11
2.22697e-10
-1.60318e-10
3.28196e-10
-2.69957e-10
5.12614e-10
-4.47437e-10
8.34694e-10
-7.64848e-10
1.504e-09
-1.36023e-09
2.87587e-09
-2.68064e-09
6.63913e-09
-5.62965e-09
1.59381e-08
-1.03518e-08
7.44216e-08
-9.64035e-09
6.33843e-08
-1.66801e-07
9.17043e-09
-1.75971e-07
1.03582e-08
6.21966e-08
6.07813e-09
7.87016e-08
2.96189e-09
1.90543e-08
1.52278e-09
8.07826e-09
8.63519e-10
3.53511e-09
5.08854e-10
1.85865e-09
3.0975e-10
1.03383e-09
1.86396e-10
6.35976e-10
1.07208e-10
4.07376e-10
5.33229e-11
2.76637e-10
1.59265e-11
1.91791e-10
-1.0761e-11
1.36485e-10
-2.97878e-11
9.6811e-11
-4.33101e-11
6.80888e-11
-5.25841e-11
4.57666e-11
-5.85605e-11
2.82695e-11
-6.18474e-11
1.39012e-11
-6.29373e-11
2.04031e-12
-6.21757e-11
-8.02243e-12
-5.98583e-11
-1.654e-11
-5.62179e-11
-2.38179e-11
-5.14594e-11
-3.00201e-11
-4.57576e-11
-3.52542e-11
-3.92751e-11
-3.95978e-11
-3.2158e-11
-4.31556e-11
-2.45451e-11
-4.5931e-11
-1.6565e-11
-4.79793e-11
-8.34352e-12
-4.93569e-11
-1.40965e-15
-5.00231e-11
8.3425e-12
-5.00324e-11
1.65659e-11
-4.93862e-11
2.45465e-11
-4.79724e-11
3.21597e-11
-4.59278e-11
3.92764e-11
-4.31874e-11
4.57578e-11
-3.95792e-11
5.14585e-11
-3.52335e-11
5.62174e-11
-3.00335e-11
5.98587e-11
-2.38201e-11
6.21765e-11
-1.65286e-11
6.29393e-11
-8.05867e-12
6.18491e-11
2.06159e-12
5.85598e-11
1.39264e-11
5.25827e-11
2.82506e-11
4.33083e-11
4.57768e-11
2.97855e-11
6.81041e-11
1.07587e-11
9.67903e-11
-1.59283e-11
1.36482e-10
-5.33236e-11
1.91796e-10
-1.07207e-10
2.76587e-10
-1.86394e-10
4.07385e-10
-3.09747e-10
6.35973e-10
-5.0885e-10
1.03379e-09
-8.63515e-10
1.85868e-09
-1.52278e-09
3.53513e-09
-2.96189e-09
8.07825e-09
-6.07813e-09
1.90543e-08
-1.03582e-08
7.87016e-08
-9.17043e-09
6.21965e-08
-1.75972e-07
9.19459e-09
-1.85166e-07
1.0556e-08
6.08352e-08
6.48381e-09
8.27738e-08
3.23483e-09
2.23033e-08
1.68539e-09
9.6277e-09
9.64062e-10
4.25642e-09
5.72305e-10
2.25043e-09
3.51411e-10
1.25472e-09
2.14135e-10
7.73245e-10
1.25894e-10
4.95623e-10
6.57905e-11
3.36731e-10
2.40509e-11
2.3353e-10
-5.76997e-12
1.66311e-10
-2.70728e-11
1.18113e-10
-4.22702e-11
8.32867e-11
-5.27673e-11
5.62687e-11
-5.96281e-11
3.51248e-11
-6.35321e-11
1.77983e-11
-6.50287e-11
3.53378e-12
-6.45022e-11
-8.56706e-12
-6.22805e-11
-1.87636e-11
-5.86202e-11
-2.74954e-11
-5.37468e-11
-3.48933e-11
-4.78515e-11
-4.1142e-11
-4.11117e-11
-4.63435e-11
-3.36859e-11
-5.05818e-11
-2.57246e-11
-5.3889e-11
-1.73673e-11
-5.63588e-11
-8.74935e-12
-5.79718e-11
-1.41455e-15
-5.87683e-11
8.74833e-12
-5.87898e-11
1.73681e-11
-5.80173e-11
2.57261e-11
-5.63448e-11
3.36877e-11
-5.38797e-11
4.1113e-11
-5.0608e-11
4.78517e-11
-4.63171e-11
5.3746e-11
-4.11282e-11
5.86197e-11
-3.49231e-11
6.2281e-11
-2.74714e-11
6.45031e-11
-1.87533e-11
6.50307e-11
-8.59864e-12
6.35338e-11
3.55203e-12
5.96273e-11
1.78286e-11
5.27657e-11
3.51082e-11
4.22683e-11
5.62787e-11
2.70703e-11
8.33071e-11
5.76746e-12
1.18079e-10
-2.40529e-11
1.6631e-10
-6.57913e-11
2.33547e-10
-1.25893e-10
3.36698e-10
-2.14132e-10
4.95613e-10
-3.51407e-10
7.73249e-10
-5.723e-10
1.25469e-09
-9.64058e-10
2.25043e-09
-1.68539e-09
4.25646e-09
-3.23483e-09
9.62768e-09
-6.48381e-09
2.23033e-08
-1.0556e-08
8.27738e-08
-9.19459e-09
6.08351e-08
-1.85166e-07
9.52204e-09
-1.94688e-07
1.08985e-08
5.94588e-08
6.85018e-09
8.68221e-08
3.49997e-09
2.56535e-08
1.8483e-09
1.12794e-08
1.06666e-09
5.03807e-09
6.37922e-10
2.67915e-09
3.95018e-10
1.49763e-09
2.43569e-10
9.2469e-10
1.46071e-10
5.93118e-10
7.95894e-11
4.0321e-10
3.33852e-11
2.79731e-10
3.35513e-13
1.99346e-10
-2.33209e-11
1.41772e-10
-4.02601e-11
1.00221e-10
-5.20402e-11
6.80381e-11
-5.98421e-11
4.29251e-11
-6.44189e-11
2.23809e-11
-6.63785e-11
5.48945e-12
-6.61448e-11
-8.77831e-12
-6.40784e-11
-2.0825e-11
-6.04601e-11
-3.11022e-11
-5.5536e-11
-3.98091e-11
-4.95137e-11
-4.71662e-11
-4.25851e-11
-5.32815e-11
-3.4921e-11
-5.82481e-11
-2.66833e-11
-6.2118e-11
-1.80215e-11
-6.50074e-11
-9.08099e-12
-6.69104e-11
-1.44809e-15
-6.78575e-11
9.07998e-12
-6.78532e-11
1.80225e-11
-6.69573e-11
2.66849e-11
-6.49928e-11
3.49228e-11
-6.21036e-11
4.25865e-11
-5.82523e-11
4.9514e-11
-5.32609e-11
5.55352e-11
-4.71503e-11
6.04598e-11
-3.98398e-11
6.40789e-11
-3.10936e-11
6.61457e-11
-2.08236e-11
6.63807e-11
-8.81904e-12
6.44206e-11
5.50752e-12
5.98413e-11
2.24186e-11
5.20385e-11
4.29064e-11
4.02581e-11
6.80652e-11
2.33183e-11
1.00235e-10
-3.3814e-13
1.41741e-10
-3.33873e-11
1.99365e-10
-7.95903e-11
2.79737e-10
-1.4607e-10
4.03177e-10
-2.43566e-10
5.93124e-10
-3.95015e-10
9.24691e-10
-6.37917e-10
1.49758e-09
-1.06665e-09
2.67916e-09
-1.84829e-09
5.03811e-09
-3.49996e-09
1.12794e-08
-6.85018e-09
2.56535e-08
-1.08985e-08
8.68221e-08
-9.52203e-09
5.94587e-08
-1.94688e-07
1.01112e-08
-2.04799e-07
1.13256e-08
5.82443e-08
7.18106e-09
9.09667e-08
3.75789e-09
2.90767e-08
2.01181e-09
1.30254e-08
1.17151e-09
5.87836e-09
7.05854e-10
3.1448e-09
4.40658e-10
1.76282e-09
2.74736e-10
1.09061e-09
1.67738e-10
7.00112e-10
9.46889e-11
4.76264e-10
4.38764e-11
3.3056e-10
7.48594e-12
2.35745e-10
-1.86138e-11
1.67871e-10
-3.73696e-11
1.18972e-10
-5.0498e-11
8.11799e-11
-5.93004e-11
5.17243e-11
-6.46061e-11
2.76812e-11
-6.7083e-11
7.96871e-12
-6.71962e-11
-8.67346e-12
-6.53397e-11
-2.26903e-11
-6.18188e-11
-3.46178e-11
-5.69007e-11
-4.47374e-11
-5.08093e-11
-5.32773e-11
-4.37508e-11
-6.03333e-11
-3.59086e-11
-6.60939e-11
-2.74554e-11
-7.05834e-11
-1.8551e-11
-7.39165e-11
-9.35011e-12
-7.61119e-11
-1.42627e-15
-7.7203e-11
9.34906e-12
-7.72121e-11
1.85522e-11
-7.61475e-11
2.74571e-11
-7.39016e-11
3.59104e-11
-7.05814e-11
4.37522e-11
-6.61153e-11
5.08095e-11
-6.0299e-11
5.68999e-11
-5.32323e-11
6.18187e-11
-4.4771e-11
6.53403e-11
-3.46212e-11
6.71972e-11
-2.26772e-11
6.70853e-11
-8.71025e-12
6.46077e-11
7.9885e-12
5.92994e-11
2.77136e-11
5.04963e-11
5.17149e-11
3.73674e-11
8.1186e-11
1.8611e-11
1.18998e-10
-7.48861e-12
1.67847e-10
-4.38787e-11
2.35745e-10
-9.46899e-11
3.30566e-10
-1.67736e-10
4.76215e-10
-2.74733e-10
7.00122e-10
-4.40654e-10
1.09061e-09
-7.0585e-10
1.7628e-09
-1.17151e-09
3.14482e-09
-2.01181e-09
5.87841e-09
-3.75789e-09
1.30254e-08
-7.18106e-09
2.90767e-08
-1.13256e-08
9.09667e-08
-1.01112e-08
5.82443e-08
-2.048e-07
1.08505e-08
-2.1565e-07
1.17833e-08
5.73115e-08
7.48019e-09
9.52698e-08
4.00918e-09
3.25477e-08
2.17628e-09
1.48583e-08
1.27885e-09
6.77581e-09
7.76263e-10
3.64739e-09
4.88426e-10
2.05066e-09
3.07681e-10
1.27136e-09
1.90898e-10
8.16896e-10
1.11063e-10
5.56103e-10
5.54749e-11
3.86135e-10
1.56141e-11
2.75609e-10
-1.30315e-11
1.96528e-10
-3.36878e-11
1.39638e-10
-4.82354e-11
9.57136e-11
-5.81006e-11
6.15976e-11
-6.41917e-11
3.37782e-11
-6.7239e-11
1.10196e-11
-6.77497e-11
-8.15452e-12
-6.61526e-11
-2.42876e-11
-6.27783e-11
-3.79966e-11
-5.7915e-11
-4.95966e-11
-5.18035e-11
-5.93703e-11
-4.46648e-11
-6.7473e-11
-3.66941e-11
-7.40655e-11
-2.80757e-11
-7.91988e-11
-1.89791e-11
-8.30061e-11
-9.56845e-12
-8.55206e-11
-1.4203e-15
-8.67693e-11
9.56741e-12
-8.67931e-11
1.89804e-11
-8.55731e-11
2.80774e-11
-8.29977e-11
3.66958e-11
-7.91836e-11
4.46663e-11
-7.40852e-11
5.18038e-11
-6.74367e-11
5.79141e-11
-5.93476e-11
6.27783e-11
-4.96196e-11
6.61534e-11
-3.7997e-11
6.77507e-11
-2.42698e-11
6.72414e-11
-8.20156e-12
6.41933e-11
1.10412e-11
5.80995e-11
3.38115e-11
4.82337e-11
6.15923e-11
3.36855e-11
9.5738e-11
1.30286e-11
1.3966e-10
-1.56168e-11
1.96489e-10
-5.54773e-11
2.75609e-10
-1.11064e-10
3.86143e-10
-1.90897e-10
5.56044e-10
-3.07678e-10
8.16907e-10
-4.88422e-10
1.27137e-09
-7.76259e-10
2.05062e-09
-1.27884e-09
3.64742e-09
-2.17628e-09
6.77584e-09
-4.00918e-09
1.48583e-08
-7.48019e-09
3.25477e-08
-1.17833e-08
9.52698e-08
-1.08505e-08
5.73115e-08
-2.1565e-07
1.15655e-08
-2.27215e-07
1.221e-08
5.66671e-08
7.75061e-09
9.97291e-08
4.25427e-09
3.6044e-08
2.342e-09
1.67706e-08
1.38889e-09
7.72892e-09
8.49315e-10
4.18697e-09
5.38426e-10
2.36155e-09
3.42462e-10
1.46731e-09
2.15569e-10
9.43792e-10
1.28698e-10
6.42954e-10
6.8143e-11
4.46685e-10
2.46644e-11
3.1909e-10
-6.64277e-12
2.27809e-10
-2.92927e-11
1.62275e-10
-4.53365e-11
1.11769e-10
-5.63301e-11
7.2588e-11
-6.32642e-11
4.07096e-11
-6.69337e-11
1.46788e-11
-6.78899e-11
-7.21051e-12
-6.65974e-11
-2.55744e-11
-6.34129e-11
-4.11842e-11
-5.86465e-11
-5.43592e-11
-5.25562e-11
-6.54652e-11
-4.53779e-11
-7.46445e-11
-3.73192e-11
-8.21183e-11
-2.85758e-11
-8.79311e-11
-1.93271e-11
-9.22631e-11
-9.74675e-12
-9.51007e-11
-1.42891e-15
-9.65143e-11
9.74574e-12
-9.65244e-11
1.93286e-11
-9.51412e-11
2.85775e-11
-9.22513e-11
3.73209e-11
-8.79385e-11
4.53795e-11
-8.21377e-11
5.25565e-11
-7.46184e-11
5.86456e-11
-6.5438e-11
6.3413e-11
-5.44013e-11
6.65983e-11
-4.11785e-11
6.78909e-11
-2.5569e-11
6.69362e-11
-7.24911e-12
6.32657e-11
1.47123e-11
5.63289e-11
4.0761e-11
4.53348e-11
7.2568e-11
2.92903e-11
1.11793e-10
6.6396e-12
1.62313e-10
-2.46672e-11
2.27784e-10
-6.81454e-11
3.19099e-10
-1.28699e-10
4.46701e-10
-2.15568e-10
6.42914e-10
-3.42459e-10
9.43784e-10
-5.38422e-10
1.46732e-09
-8.4931e-10
2.3615e-09
-1.38888e-09
4.18699e-09
-2.342e-09
7.72895e-09
-4.25427e-09
1.67706e-08
-7.75061e-09
3.60441e-08
-1.221e-08
9.97291e-08
-1.15655e-08
5.6667e-08
-2.27216e-07
1.20956e-08
-2.39311e-07
1.25439e-08
5.62188e-08
7.99434e-09
1.04279e-07
4.49333e-09
3.95451e-08
2.5092e-09
1.87547e-08
1.50181e-09
8.7363e-09
9.25167e-10
4.7636e-09
5.90769e-10
2.69595e-09
3.79145e-10
1.67895e-09
2.41782e-10
1.08115e-09
1.47596e-10
7.37153e-10
8.18607e-11
5.12441e-10
3.45998e-11
3.66347e-10
5.02511e-13
2.61937e-10
-2.42434e-11
1.87029e-10
-4.18668e-11
1.29385e-10
-5.40582e-11
8.47793e-11
-6.18945e-11
4.85553e-11
-6.62378e-11
1.90304e-11
-6.76856e-11
-5.74671e-12
-6.67397e-11
-2.65085e-11
-6.37838e-11
-4.41315e-11
-5.91509e-11
-5.89919e-11
-5.31167e-11
-7.14957e-11
-4.59325e-11
-8.18336e-11
-3.78185e-11
-9.02407e-11
-2.89821e-11
-9.67823e-11
-1.96129e-11
-1.01621e-10
-9.89397e-12
-1.04828e-10
-1.39402e-15
-1.06408e-10
9.893e-12
-1.06413e-10
1.96144e-11
-1.04872e-10
2.89838e-11
-1.01611e-10
3.78202e-11
-9.67656e-11
4.59342e-11
-9.02478e-11
5.31171e-11
-8.18019e-11
5.91501e-11
-7.14711e-11
6.37842e-11
-5.90299e-11
6.67406e-11
-4.41344e-11
6.76866e-11
-2.65339e-11
6.62403e-11
-5.79882e-12
6.18959e-11
1.90518e-11
5.40569e-11
4.85893e-11
4.18652e-11
8.478e-11
2.42409e-11
1.29412e-10
-5.05838e-13
1.87046e-10
-3.46026e-11
2.61883e-10
-8.18632e-11
3.66342e-10
-1.47598e-10
5.12427e-10
-2.41781e-10
7.37107e-10
-3.79142e-10
1.08116e-09
-5.90766e-10
1.67895e-09
-9.25162e-10
2.69591e-09
-1.5018e-09
4.76361e-09
-2.5092e-09
8.73636e-09
-4.49332e-09
1.87547e-08
-7.99434e-09
3.95451e-08
-1.25439e-08
1.04279e-07
-1.20956e-08
5.62187e-08
-2.39311e-07
1.23389e-08
-2.5165e-07
1.27388e-08
5.58189e-08
8.21218e-09
1.08805e-07
4.72617e-09
4.30311e-08
2.67796e-09
2.08029e-08
1.61774e-09
9.79653e-09
1.00396e-09
5.37739e-09
6.45566e-10
3.05434e-09
4.1781e-10
1.9067e-09
2.69583e-10
1.22938e-09
1.67779e-10
8.3896e-10
9.6628e-11
5.83574e-10
4.54046e-11
4.1756e-10
8.37619e-12
2.98945e-10
-1.8577e-11
2.13983e-10
-3.78698e-11
1.48685e-10
-5.13325e-11
9.82459e-11
-6.01325e-11
5.73332e-11
-6.5202e-11
2.41044e-11
-6.71866e-11
-3.76758e-12
-6.66273e-11
-2.70836e-11
-6.39361e-11
-4.68261e-11
-5.94694e-11
-6.34699e-11
-5.35218e-11
-7.74443e-11
-4.63599e-11
-8.89979e-11
-3.82178e-11
-9.83788e-11
-2.93142e-11
-1.0568e-10
-1.98496e-11
-1.11099e-10
-1.00168e-11
-1.14651e-10
-1.33825e-15
-1.16425e-10
1.00158e-11
-1.16444e-10
1.98512e-11
-1.1471e-10
2.93159e-11
-1.1109e-10
3.82193e-11
-1.05676e-10
4.63617e-11
-9.84063e-11
5.35221e-11
-8.89575e-11
5.94688e-11
-7.74167e-11
6.39366e-11
-6.34968e-11
6.66283e-11
-4.68205e-11
6.71877e-11
-2.70672e-11
6.52044e-11
-3.8181e-12
6.01338e-11
2.41286e-11
5.13312e-11
5.73972e-11
3.78682e-11
9.82258e-11
1.85745e-11
1.48704e-10
-8.37961e-12
2.14017e-10
-4.54073e-11
2.98913e-10
-9.66305e-11
4.1757e-10
-1.6778e-10
5.83577e-10
-2.69582e-10
8.38904e-10
-4.17807e-10
1.22937e-09
-6.45563e-10
1.90669e-09
-1.00396e-09
3.05431e-09
-1.61774e-09
5.37742e-09
-2.67795e-09
9.79657e-09
-4.72617e-09
2.0803e-08
-8.21218e-09
4.30311e-08
-1.27388e-08
1.08805e-07
-1.23389e-08
5.58188e-08
-2.5165e-07
1.22593e-08
-2.63909e-07
1.27712e-08
5.5307e-08
8.40385e-09
1.13173e-07
4.95227e-09
4.64826e-08
2.84819e-09
2.2907e-08
1.73675e-09
1.0908e-08
1.08581e-09
6.02831e-09
7.02921e-10
3.43725e-09
4.5854e-10
2.15109e-09
2.99032e-10
1.38888e-09
1.89283e-10
9.48708e-10
1.12464e-10
6.60394e-10
5.70832e-11
4.72959e-10
1.69716e-11
3.39077e-10
-1.2309e-11
2.43258e-10
-3.33673e-11
1.69733e-10
-4.81794e-11
1.13047e-10
-5.80073e-11
6.71781e-11
-6.38568e-11
2.99516e-11
-6.64242e-11
-1.20086e-12
-6.62909e-11
-2.72006e-11
-6.38987e-11
-4.92234e-11
-5.96289e-11
-6.77379e-11
-5.37953e-11
-8.32855e-11
-4.66811e-11
-9.61142e-11
-3.8534e-11
-1.06525e-10
-2.95852e-11
-1.14633e-10
-2.0046e-11
-1.20642e-10
-1.01196e-11
-1.24584e-10
-1.27684e-15
-1.26544e-10
1.01188e-11
-1.26561e-10
2.00476e-11
-1.24628e-10
2.95869e-11
-1.2062e-10
3.85355e-11
-1.14622e-10
4.66829e-11
-1.06538e-10
5.37957e-11
-9.60803e-11
5.96284e-11
-8.32432e-11
6.38994e-11
-6.77703e-11
6.62919e-11
-4.92219e-11
6.64253e-11
-2.71946e-11
6.38592e-11
-1.25613e-12
5.80086e-11
2.99678e-11
4.8178e-11
6.7219e-11
3.33657e-11
1.13047e-10
1.23064e-11
1.69762e-10
-1.6975e-11
2.43288e-10
-5.7086e-11
3.39048e-10
-1.12467e-10
4.72949e-10
-1.89284e-10
6.60408e-10
-2.99031e-10
9.48643e-10
-4.58537e-10
1.38888e-09
-7.02918e-10
2.15108e-09
-1.08581e-09
3.43719e-09
-1.73674e-09
6.02833e-09
-2.84819e-09
1.0908e-08
-4.95227e-09
2.2907e-08
-8.40385e-09
4.64827e-08
-1.27712e-08
1.13173e-07
-1.22593e-08
5.5307e-08
-2.63909e-07
1.18732e-08
-2.75782e-07
1.26395e-08
5.45407e-08
8.5682e-09
1.17244e-07
5.17074e-09
4.98801e-08
3.01964e-09
2.50581e-08
1.85881e-09
1.20688e-08
1.1708e-09
6.71632e-09
7.6293e-10
3.8451e-09
5.01421e-10
2.41259e-09
3.30197e-10
1.56011e-09
2.12159e-10
1.06674e-09
1.29404e-10
7.43147e-10
6.96573e-11
5.32686e-10
2.62997e-11
3.82429e-10
-5.43653e-12
2.74998e-10
-2.83626e-11
1.9266e-10
-4.46069e-11
1.29301e-10
-5.55306e-11
7.81052e-11
-6.22161e-11
3.66396e-11
-6.54131e-11
1.99117e-12
-6.57458e-11
-2.68865e-11
-6.3687e-11
-5.12801e-11
-5.9644e-11
-7.17731e-11
-5.39506e-11
-8.89665e-11
-4.69075e-11
-1.03146e-10
-3.87768e-11
-1.14657e-10
-2.98025e-11
-1.23605e-10
-2.02073e-11
-1.30227e-10
-1.02052e-11
-1.3459e-10
-1.20347e-15
-1.36746e-10
1.02044e-11
-1.3676e-10
2.02089e-11
-1.34645e-10
2.98041e-11
-1.30219e-10
3.87783e-11
-1.23602e-10
4.69093e-11
-1.14677e-10
5.39511e-11
-1.03107e-10
5.96436e-11
-8.89418e-11
6.36878e-11
-7.18049e-11
6.57469e-11
-5.12799e-11
6.54143e-11
-2.68712e-11
6.22184e-11
1.93316e-12
5.55317e-11
3.66642e-11
4.46056e-11
7.81587e-11
2.8361e-11
1.29284e-10
5.43389e-12
1.92691e-10
-2.63031e-11
2.75024e-10
-6.96602e-11
3.82393e-10
-1.29406e-10
5.32698e-10
-2.1216e-10
7.43147e-10
-3.30195e-10
1.0667e-09
-5.01418e-10
1.56011e-09
-7.62927e-10
2.41258e-09
-1.1708e-09
3.84506e-09
-1.85881e-09
6.71634e-09
-3.01964e-09
1.20689e-08
-5.17074e-09
2.50581e-08
-8.5682e-09
4.98801e-08
-1.26395e-08
1.17244e-07
-1.18732e-08
5.45407e-08
-2.75783e-07
1.12279e-08
-2.8701e-07
1.23574e-08
5.34112e-08
8.70355e-09
1.20898e-07
5.38043e-09
5.32032e-08
3.19188e-09
2.72467e-08
1.98383e-09
1.32769e-08
1.25896e-09
7.44118e-09
8.25671e-10
4.27841e-09
5.46536e-10
2.69172e-09
3.63149e-10
1.7435e-09
2.36465e-10
1.19343e-09
1.47492e-10
8.32135e-10
8.31611e-11
5.97032e-10
3.6385e-11
4.29203e-10
2.05723e-12
3.09322e-10
-2.28454e-11
2.17567e-10
-4.06094e-11
1.47061e-10
-5.27003e-11
9.01855e-11
-6.02807e-11
4.4206e-11
-6.41564e-11
5.87612e-12
-6.49962e-11
-2.6029e-11
-6.33058e-11
-5.29703e-11
-5.95196e-11
-7.55587e-11
-5.39927e-11
-9.45016e-11
-4.70439e-11
-1.10107e-10
-3.89503e-11
-1.22756e-10
-2.99694e-11
-1.32583e-10
-2.03358e-11
-1.39862e-10
-1.02744e-11
-1.44628e-10
-1.10141e-15
-1.47026e-10
1.02738e-11
-1.47048e-10
2.03372e-11
-1.447e-10
2.9971e-11
-1.39836e-10
3.89518e-11
-1.32582e-10
4.70457e-11
-1.22768e-10
5.39933e-11
-1.10063e-10
5.95195e-11
-9.44662e-11
6.33067e-11
-7.5592e-11
6.49974e-11
-5.29732e-11
6.41577e-11
-2.60287e-11
6.02828e-11
5.81143e-12
5.27014e-11
4.42528e-11
4.06082e-11
9.02396e-11
2.28438e-11
1.4707e-10
-2.0599e-12
2.17587e-10
-3.63884e-11
3.09362e-10
-8.3164e-11
4.29148e-10
-1.47495e-10
5.97021e-10
-2.36467e-10
8.32125e-10
-3.63148e-10
1.19336e-09