/*--------------------------------*- C++ -*----------------------------------*\
| =========                 |                                                 |
| \\      /  F ield         | foam-extend: Open Source CFD                    |
|  \\    /   O peration     | Version:     4.0                                |
|   \\  /    A nd           | Web:         http://www.foam-extend.org         |
|    \\/     M anipulation  |                                                 |
\*---------------------------------------------------------------------------*/
FoamFile
{
    version     2.0;
    format      ascii;
    class       volScalarField;
    location    "1210";
    object      cMinus;
}
// * * * * * * * * * * * * * * * * * * * * * * * * * * * * * * * * * * * * * //

dimensions      [0 0 0 0 0 0 0];

internalField   nonuniform List<scalar> 
6960
(
2.91526e-23
2.91624e-23
2.91523e-23
2.91396e-23
2.91276e-23
2.91168e-23
2.91074e-23
2.90993e-23
2.90923e-23
2.90863e-23
2.90812e-23
2.90769e-23
2.90732e-23
2.907e-23
2.90674e-23
2.90651e-23
2.90632e-23
2.90615e-23
2.90601e-23
2.9059e-23
2.9058e-23
2.90571e-23
2.90564e-23
2.90559e-23
2.90554e-23
2.9055e-23
2.90547e-23
2.90545e-23
2.90544e-23
2.90543e-23
2.90543e-23
2.90544e-23
2.90545e-23
2.90547e-23
2.9055e-23
2.90554e-23
2.90559e-23
2.90564e-23
2.90571e-23
2.9058e-23
2.9059e-23
2.90601e-23
2.90615e-23
2.90632e-23
2.90651e-23
2.90674e-23
2.907e-23
2.90732e-23
2.90769e-23
2.90812e-23
2.90863e-23
2.90923e-23
2.90993e-23
2.91074e-23
2.91168e-23
2.91276e-23
2.91396e-23
2.91523e-23
2.91624e-23
2.91526e-23
1.33547e-22
1.33609e-22
1.33578e-22
1.33534e-22
1.33492e-22
1.33453e-22
1.33419e-22
1.33389e-22
1.33364e-22
1.33342e-22
1.33323e-22
1.33307e-22
1.33293e-22
1.33281e-22
1.33271e-22
1.33262e-22
1.33255e-22
1.33249e-22
1.33244e-22
1.33239e-22
1.33235e-22
1.33232e-22
1.3323e-22
1.33227e-22
1.33226e-22
1.33224e-22
1.33223e-22
1.33222e-22
1.33222e-22
1.33222e-22
1.33222e-22
1.33222e-22
1.33222e-22
1.33223e-22
1.33224e-22
1.33226e-22
1.33227e-22
1.3323e-22
1.33232e-22
1.33235e-22
1.33239e-22
1.33244e-22
1.33249e-22
1.33255e-22
1.33262e-22
1.33271e-22
1.33281e-22
1.33293e-22
1.33307e-22
1.33323e-22
1.33342e-22
1.33364e-22
1.33389e-22
1.33419e-22
1.33453e-22
1.33492e-22
1.33534e-22
1.33578e-22
1.33609e-22
1.33547e-22
4.52747e-22
4.53013e-22
4.52968e-22
4.52875e-22
4.5278e-22
4.5269e-22
4.5261e-22
4.52539e-22
4.52476e-22
4.52421e-22
4.52373e-22
4.52331e-22
4.52294e-22
4.52263e-22
4.52235e-22
4.52211e-22
4.52191e-22
4.52173e-22
4.52158e-22
4.52145e-22
4.52134e-22
4.52125e-22
4.52117e-22
4.52111e-22
4.52105e-22
4.52101e-22
4.52098e-22
4.52095e-22
4.52094e-22
4.52093e-22
4.52093e-22
4.52094e-22
4.52095e-22
4.52098e-22
4.52101e-22
4.52105e-22
4.52111e-22
4.52117e-22
4.52125e-22
4.52134e-22
4.52145e-22
4.52158e-22
4.52173e-22
4.52191e-22
4.52211e-22
4.52235e-22
4.52263e-22
4.52294e-22
4.52331e-22
4.52373e-22
4.52421e-22
4.52476e-22
4.52539e-22
4.5261e-22
4.5269e-22
4.5278e-22
4.52875e-22
4.52968e-22
4.53013e-22
4.52747e-22
1.44542e-21
1.44646e-21
1.44653e-21
1.44644e-21
1.44632e-21
1.44618e-21
1.44606e-21
1.44593e-21
1.44582e-21
1.44572e-21
1.44562e-21
1.44553e-21
1.44545e-21
1.44538e-21
1.44532e-21
1.44526e-21
1.44521e-21
1.44517e-21
1.44513e-21
1.4451e-21
1.44507e-21
1.44504e-21
1.44502e-21
1.445e-21
1.44499e-21
1.44498e-21
1.44497e-21
1.44496e-21
1.44496e-21
1.44495e-21
1.44495e-21
1.44496e-21
1.44496e-21
1.44497e-21
1.44498e-21
1.44499e-21
1.445e-21
1.44502e-21
1.44504e-21
1.44507e-21
1.4451e-21
1.44513e-21
1.44517e-21
1.44521e-21
1.44526e-21
1.44532e-21
1.44538e-21
1.44545e-21
1.44553e-21
1.44562e-21
1.44572e-21
1.44582e-21
1.44593e-21
1.44606e-21
1.44618e-21
1.44632e-21
1.44644e-21
1.44653e-21
1.44646e-21
1.44542e-21
4.6151e-21
4.61909e-21
4.62008e-21
4.62051e-21
4.62073e-21
4.62083e-21
4.62086e-21
4.62084e-21
4.62078e-21
4.6207e-21
4.62059e-21
4.62047e-21
4.62035e-21
4.62023e-21
4.62011e-21
4.61999e-21
4.61989e-21
4.61979e-21
4.6197e-21
4.61962e-21
4.61955e-21
4.61949e-21
4.61943e-21
4.61939e-21
4.61935e-21
4.61932e-21
4.6193e-21
4.61928e-21
4.61927e-21
4.61926e-21
4.61926e-21
4.61927e-21
4.61928e-21
4.6193e-21
4.61932e-21
4.61935e-21
4.61939e-21
4.61943e-21
4.61949e-21
4.61955e-21
4.61962e-21
4.6197e-21
4.61979e-21
4.61989e-21
4.61999e-21
4.62011e-21
4.62023e-21
4.62035e-21
4.62047e-21
4.62059e-21
4.6207e-21
4.62078e-21
4.62084e-21
4.62086e-21
4.62083e-21
4.62073e-21
4.62051e-21
4.62008e-21
4.61909e-21
4.6151e-21
1.50212e-20
1.50364e-20
1.50423e-20
1.50461e-20
1.50489e-20
1.50511e-20
1.50527e-20
1.50539e-20
1.50547e-20
1.50553e-20
1.50556e-20
1.50558e-20
1.50559e-20
1.50558e-20
1.50557e-20
1.50556e-20
1.50554e-20
1.50552e-20
1.50551e-20
1.50549e-20
1.50547e-20
1.50546e-20
1.50545e-20
1.50544e-20
1.50543e-20
1.50542e-20
1.50541e-20
1.50541e-20
1.50541e-20
1.5054e-20
1.5054e-20
1.50541e-20
1.50541e-20
1.50541e-20
1.50542e-20
1.50543e-20
1.50544e-20
1.50545e-20
1.50546e-20
1.50547e-20
1.50549e-20
1.50551e-20
1.50552e-20
1.50554e-20
1.50556e-20
1.50557e-20
1.50558e-20
1.50559e-20
1.50558e-20
1.50556e-20
1.50553e-20
1.50547e-20
1.50539e-20
1.50527e-20
1.50511e-20
1.50489e-20
1.50461e-20
1.50423e-20
1.50364e-20
1.50212e-20
5.01599e-20
5.02186e-20
5.02471e-20
5.02681e-20
5.0285e-20
5.02984e-20
5.03091e-20
5.03174e-20
5.03238e-20
5.03286e-20
5.03321e-20
5.03346e-20
5.03363e-20
5.03375e-20
5.03381e-20
5.03384e-20
5.03385e-20
5.03385e-20
5.03383e-20
5.03381e-20
5.03378e-20
5.03376e-20
5.03373e-20
5.03371e-20
5.03369e-20
5.03367e-20
5.03365e-20
5.03364e-20
5.03363e-20
5.03363e-20
5.03363e-20
5.03363e-20
5.03364e-20
5.03365e-20
5.03367e-20
5.03369e-20
5.03371e-20
5.03373e-20
5.03376e-20
5.03378e-20
5.03381e-20
5.03383e-20
5.03385e-20
5.03385e-20
5.03384e-20
5.03381e-20
5.03375e-20
5.03363e-20
5.03346e-20
5.03321e-20
5.03286e-20
5.03238e-20
5.03174e-20
5.03091e-20
5.02984e-20
5.0285e-20
5.02681e-20
5.02471e-20
5.02186e-20
5.01599e-20
1.72228e-19
1.72457e-19
1.72586e-19
1.72688e-19
1.72772e-19
1.7284e-19
1.72895e-19
1.72939e-19
1.72974e-19
1.73e-19
1.73021e-19
1.73036e-19
1.73048e-19
1.73056e-19
1.73062e-19
1.73066e-19
1.73068e-19
1.7307e-19
1.73071e-19
1.73071e-19
1.73071e-19
1.73071e-19
1.73071e-19
1.7307e-19
1.7307e-19
1.7307e-19
1.73069e-19
1.73069e-19
1.73069e-19
1.73069e-19
1.73069e-19
1.73069e-19
1.73069e-19
1.73069e-19
1.7307e-19
1.7307e-19
1.7307e-19
1.73071e-19
1.73071e-19
1.73071e-19
1.73071e-19
1.73071e-19
1.7307e-19
1.73068e-19
1.73066e-19
1.73062e-19
1.73056e-19
1.73048e-19
1.73036e-19
1.73021e-19
1.73e-19
1.72974e-19
1.72939e-19
1.72895e-19
1.7284e-19
1.72772e-19
1.72688e-19
1.72586e-19
1.72457e-19
1.72228e-19
6.08528e-19
6.09435e-19
6.10005e-19
6.10471e-19
6.1086e-19
6.11181e-19
6.11444e-19
6.11655e-19
6.11823e-19
6.11955e-19
6.12058e-19
6.12137e-19
6.12197e-19
6.12242e-19
6.12275e-19
6.123e-19
6.12317e-19
6.1233e-19
6.12338e-19
6.12344e-19
6.12347e-19
6.1235e-19
6.12351e-19
6.12351e-19
6.12351e-19
6.12351e-19
6.12351e-19
6.1235e-19
6.1235e-19
6.1235e-19
6.1235e-19
6.1235e-19
6.1235e-19
6.12351e-19
6.12351e-19
6.12351e-19
6.12351e-19
6.12351e-19
6.1235e-19
6.12347e-19
6.12344e-19
6.12338e-19
6.1233e-19
6.12317e-19
6.123e-19
6.12275e-19
6.12242e-19
6.12197e-19
6.12137e-19
6.12058e-19
6.11955e-19
6.11823e-19
6.11655e-19
6.11444e-19
6.11181e-19
6.1086e-19
6.10471e-19
6.10005e-19
6.09435e-19
6.08528e-19
2.21302e-18
2.21669e-18
2.21918e-18
2.22127e-18
2.22303e-18
2.22449e-18
2.22569e-18
2.22667e-18
2.22745e-18
2.22807e-18
2.22856e-18
2.22894e-18
2.22923e-18
2.22945e-18
2.22962e-18
2.22975e-18
2.22985e-18
2.22992e-18
2.22997e-18
2.23e-18
2.23003e-18
2.23005e-18
2.23006e-18
2.23007e-18
2.23007e-18
2.23008e-18
2.23008e-18
2.23008e-18
2.23008e-18
2.23008e-18
2.23008e-18
2.23008e-18
2.23008e-18
2.23008e-18
2.23008e-18
2.23007e-18
2.23007e-18
2.23006e-18
2.23005e-18
2.23003e-18
2.23e-18
2.22997e-18
2.22992e-18
2.22985e-18
2.22975e-18
2.22962e-18
2.22945e-18
2.22923e-18
2.22894e-18
2.22856e-18
2.22807e-18
2.22745e-18
2.22667e-18
2.22569e-18
2.22449e-18
2.22303e-18
2.22127e-18
2.21918e-18
2.21669e-18
2.21302e-18
8.28329e-18
8.29837e-18
8.3093e-18
8.31863e-18
8.32654e-18
8.33315e-18
8.3386e-18
8.34303e-18
8.34661e-18
8.34946e-18
8.35172e-18
8.35349e-18
8.35487e-18
8.35593e-18
8.35675e-18
8.35737e-18
8.35785e-18
8.3582e-18
8.35847e-18
8.35867e-18
8.35882e-18
8.35892e-18
8.359e-18
8.35906e-18
8.35909e-18
8.35912e-18
8.35914e-18
8.35915e-18
8.35916e-18
8.35916e-18
8.35916e-18
8.35916e-18
8.35915e-18
8.35914e-18
8.35912e-18
8.35909e-18
8.35906e-18
8.359e-18
8.35892e-18
8.35882e-18
8.35867e-18
8.35847e-18
8.3582e-18
8.35785e-18
8.35737e-18
8.35675e-18
8.35593e-18
8.35487e-18
8.35349e-18
8.35172e-18
8.34946e-18
8.34661e-18
8.34303e-18
8.3386e-18
8.33315e-18
8.32654e-18
8.31863e-18
8.3093e-18
8.29837e-18
8.28329e-18
3.19029e-17
3.19664e-17
3.20147e-17
3.20565e-17
3.20921e-17
3.2122e-17
3.21467e-17
3.21669e-17
3.21832e-17
3.21963e-17
3.22067e-17
3.22149e-17
3.22213e-17
3.22263e-17
3.22301e-17
3.22331e-17
3.22354e-17
3.22372e-17
3.22385e-17
3.22395e-17
3.22403e-17
3.22408e-17
3.22413e-17
3.22416e-17
3.22418e-17
3.2242e-17
3.22421e-17
3.22422e-17
3.22422e-17
3.22422e-17
3.22422e-17
3.22422e-17
3.22422e-17
3.22421e-17
3.2242e-17
3.22418e-17
3.22416e-17
3.22413e-17
3.22408e-17
3.22403e-17
3.22395e-17
3.22385e-17
3.22372e-17
3.22354e-17
3.22331e-17
3.22301e-17
3.22263e-17
3.22213e-17
3.22149e-17
3.22067e-17
3.21963e-17
3.21832e-17
3.21669e-17
3.21467e-17
3.2122e-17
3.20921e-17
3.20565e-17
3.20147e-17
3.19664e-17
3.19029e-17
1.26381e-16
1.26654e-16
1.26871e-16
1.2706e-16
1.27222e-16
1.27358e-16
1.27471e-16
1.27563e-16
1.27638e-16
1.27698e-16
1.27746e-16
1.27784e-16
1.27814e-16
1.27837e-16
1.27855e-16
1.2787e-16
1.27881e-16
1.27889e-16
1.27895e-16
1.279e-16
1.27904e-16
1.27907e-16
1.27909e-16
1.27911e-16
1.27912e-16
1.27913e-16
1.27914e-16
1.27914e-16
1.27914e-16
1.27914e-16
1.27914e-16
1.27914e-16
1.27914e-16
1.27914e-16
1.27913e-16
1.27912e-16
1.27911e-16
1.27909e-16
1.27907e-16
1.27904e-16
1.279e-16
1.27895e-16
1.27889e-16
1.27881e-16
1.2787e-16
1.27855e-16
1.27837e-16
1.27814e-16
1.27784e-16
1.27746e-16
1.27698e-16
1.27638e-16
1.27563e-16
1.27471e-16
1.27358e-16
1.27222e-16
1.2706e-16
1.26871e-16
1.26654e-16
1.26381e-16
5.14613e-16
5.15812e-16
5.16797e-16
5.17663e-16
5.18407e-16
5.19034e-16
5.19554e-16
5.19981e-16
5.20328e-16
5.20607e-16
5.20831e-16
5.21008e-16
5.21148e-16
5.21258e-16
5.21345e-16
5.21412e-16
5.21464e-16
5.21505e-16
5.21536e-16
5.21561e-16
5.21579e-16
5.21594e-16
5.21605e-16
5.21613e-16
5.21619e-16
5.21624e-16
5.21627e-16
5.21629e-16
5.21631e-16
5.21632e-16
5.21632e-16
5.21631e-16
5.21629e-16
5.21627e-16
5.21624e-16
5.21619e-16
5.21613e-16
5.21605e-16
5.21594e-16
5.21579e-16
5.21561e-16
5.21536e-16
5.21505e-16
5.21464e-16
5.21412e-16
5.21345e-16
5.21258e-16
5.21148e-16
5.21008e-16
5.20831e-16
5.20607e-16
5.20328e-16
5.19981e-16
5.19554e-16
5.19034e-16
5.18407e-16
5.17663e-16
5.16797e-16
5.15812e-16
5.14613e-16
2.15194e-15
2.15732e-15
2.16187e-15
2.1659e-15
2.16937e-15
2.17229e-15
2.17473e-15
2.17673e-15
2.17835e-15
2.17967e-15
2.18072e-15
2.18156e-15
2.18222e-15
2.18274e-15
2.18315e-15
2.18348e-15
2.18373e-15
2.18392e-15
2.18408e-15
2.18419e-15
2.18429e-15
2.18436e-15
2.18441e-15
2.18445e-15
2.18448e-15
2.18451e-15
2.18452e-15
2.18454e-15
2.18454e-15
2.18455e-15
2.18455e-15
2.18454e-15
2.18454e-15
2.18452e-15
2.18451e-15
2.18448e-15
2.18445e-15
2.18441e-15
2.18436e-15
2.18429e-15
2.18419e-15
2.18408e-15
2.18392e-15
2.18373e-15
2.18348e-15
2.18315e-15
2.18274e-15
2.18222e-15
2.18156e-15
2.18072e-15
2.17967e-15
2.17835e-15
2.17673e-15
2.17473e-15
2.17229e-15
2.16937e-15
2.1659e-15
2.16187e-15
2.15732e-15
2.15194e-15
9.2301e-15
9.25477e-15
9.27612e-15
9.29515e-15
9.31156e-15
9.32543e-15
9.33696e-15
9.34646e-15
9.35419e-15
9.36045e-15
9.36546e-15
9.36947e-15
9.37265e-15
9.37516e-15
9.37714e-15
9.37869e-15
9.37991e-15
9.38086e-15
9.38161e-15
9.38219e-15
9.38264e-15
9.38299e-15
9.38326e-15
9.38347e-15
9.38363e-15
9.38375e-15
9.38384e-15
9.3839e-15
9.38394e-15
9.38395e-15
9.38395e-15
9.38394e-15
9.3839e-15
9.38384e-15
9.38375e-15
9.38363e-15
9.38347e-15
9.38326e-15
9.38299e-15
9.38264e-15
9.38219e-15
9.38161e-15
9.38086e-15
9.37991e-15
9.37869e-15
9.37714e-15
9.37516e-15
9.37265e-15
9.36947e-15
9.36546e-15
9.36045e-15
9.35419e-15
9.34646e-15
9.33696e-15
9.32543e-15
9.31156e-15
9.29515e-15
9.27612e-15
9.25477e-15
9.2301e-15
4.05448e-14
4.066e-14
4.07618e-14
4.0853e-14
4.09318e-14
4.09984e-14
4.10539e-14
4.10996e-14
4.11369e-14
4.11671e-14
4.11913e-14
4.12107e-14
4.12261e-14
4.12383e-14
4.1248e-14
4.12556e-14
4.12615e-14
4.12662e-14
4.12699e-14
4.12727e-14
4.1275e-14
4.12767e-14
4.12781e-14
4.12791e-14
4.12799e-14
4.12805e-14
4.1281e-14
4.12813e-14
4.12815e-14
4.12816e-14
4.12816e-14
4.12815e-14
4.12813e-14
4.1281e-14
4.12805e-14
4.12799e-14
4.12791e-14
4.12781e-14
4.12767e-14
4.1275e-14
4.12727e-14
4.12699e-14
4.12662e-14
4.12615e-14
4.12556e-14
4.1248e-14
4.12383e-14
4.12261e-14
4.12107e-14
4.11913e-14
4.11671e-14
4.11369e-14
4.10996e-14
4.10539e-14
4.09984e-14
4.09318e-14
4.0853e-14
4.07618e-14
4.066e-14
4.05448e-14
1.82037e-13
1.82585e-13
1.83078e-13
1.83521e-13
1.83904e-13
1.84229e-13
1.84499e-13
1.84722e-13
1.84904e-13
1.85052e-13
1.85171e-13
1.85266e-13
1.85341e-13
1.85401e-13
1.85449e-13
1.85486e-13
1.85516e-13
1.85539e-13
1.85557e-13
1.85571e-13
1.85582e-13
1.85591e-13
1.85598e-13
1.85603e-13
1.85607e-13
1.8561e-13
1.85613e-13
1.85614e-13
1.85615e-13
1.85616e-13
1.85616e-13
1.85615e-13
1.85614e-13
1.85613e-13
1.8561e-13
1.85607e-13
1.85603e-13
1.85598e-13
1.85591e-13
1.85582e-13
1.85571e-13
1.85557e-13
1.85539e-13
1.85516e-13
1.85486e-13
1.85449e-13
1.85401e-13
1.85341e-13
1.85266e-13
1.85171e-13
1.85052e-13
1.84904e-13
1.84722e-13
1.84499e-13
1.84229e-13
1.83904e-13
1.83521e-13
1.83078e-13
1.82585e-13
1.82037e-13
8.33351e-13
8.35994e-13
8.38412e-13
8.4059e-13
8.42477e-13
8.44076e-13
8.4541e-13
8.4651e-13
8.47409e-13
8.48138e-13
8.48725e-13
8.49195e-13
8.4957e-13
8.49868e-13
8.50104e-13
8.5029e-13
8.50437e-13
8.50553e-13
8.50644e-13
8.50716e-13
8.50772e-13
8.50816e-13
8.50851e-13
8.50877e-13
8.50898e-13
8.50914e-13
8.50925e-13
8.50933e-13
8.50938e-13
8.50941e-13
8.50941e-13
8.50938e-13
8.50933e-13
8.50925e-13
8.50914e-13
8.50898e-13
8.50877e-13
8.50851e-13
8.50816e-13
8.50772e-13
8.50716e-13
8.50644e-13
8.50553e-13
8.50437e-13
8.5029e-13
8.50104e-13
8.49868e-13
8.4957e-13
8.49195e-13
8.48725e-13
8.48138e-13
8.47409e-13
8.4651e-13
8.4541e-13
8.44076e-13
8.42477e-13
8.4059e-13
8.38412e-13
8.35994e-13
8.33351e-13
3.87837e-12
3.89128e-12
3.90326e-12
3.91407e-12
3.92345e-12
3.9314e-12
3.93803e-12
3.94351e-12
3.94799e-12
3.95162e-12
3.95455e-12
3.9569e-12
3.95877e-12
3.96026e-12
3.96144e-12
3.96238e-12
3.96312e-12
3.9637e-12
3.96416e-12
3.96452e-12
3.96481e-12
3.96503e-12
3.96521e-12
3.96534e-12
3.96545e-12
3.96553e-12
3.96559e-12
3.96563e-12
3.96565e-12
3.96567e-12
3.96567e-12
3.96565e-12
3.96563e-12
3.96559e-12
3.96553e-12
3.96545e-12
3.96534e-12
3.96521e-12
3.96503e-12
3.96481e-12
3.96452e-12
3.96416e-12
3.9637e-12
3.96312e-12
3.96238e-12
3.96144e-12
3.96026e-12
3.95877e-12
3.9569e-12
3.95455e-12
3.95162e-12
3.94799e-12
3.94351e-12
3.93803e-12
3.9314e-12
3.92345e-12
3.91407e-12
3.90326e-12
3.89128e-12
3.87837e-12
1.82842e-11
1.83478e-11
1.84075e-11
1.84615e-11
1.85084e-11
1.85482e-11
1.85814e-11
1.86088e-11
1.86312e-11
1.86494e-11
1.86641e-11
1.86759e-11
1.86853e-11
1.86928e-11
1.86988e-11
1.87035e-11
1.87072e-11
1.87102e-11
1.87125e-11
1.87143e-11
1.87158e-11
1.87169e-11
1.87178e-11
1.87185e-11
1.8719e-11
1.87194e-11
1.87197e-11
1.87199e-11
1.87201e-11
1.87201e-11
1.87201e-11
1.87201e-11
1.87199e-11
1.87197e-11
1.87194e-11
1.8719e-11
1.87185e-11
1.87178e-11
1.87169e-11
1.87158e-11
1.87143e-11
1.87125e-11
1.87102e-11
1.87072e-11
1.87035e-11
1.86988e-11
1.86928e-11
1.86853e-11
1.86759e-11
1.86641e-11
1.86494e-11
1.86312e-11
1.86088e-11
1.85814e-11
1.85482e-11
1.85084e-11
1.84615e-11
1.84075e-11
1.83478e-11
1.82842e-11
8.695e-11
8.72648e-11
8.75631e-11
8.78334e-11
8.80681e-11
8.82673e-11
8.84337e-11
8.85712e-11
8.86837e-11
8.87751e-11
8.88489e-11
8.89081e-11
8.89555e-11
8.89932e-11
8.90232e-11
8.90469e-11
8.90657e-11
8.90806e-11
8.90924e-11
8.91017e-11
8.9109e-11
8.91148e-11
8.91193e-11
8.91228e-11
8.91255e-11
8.91276e-11
8.91292e-11
8.91302e-11
8.91309e-11
8.91313e-11
8.91313e-11
8.91309e-11
8.91302e-11
8.91292e-11
8.91276e-11
8.91255e-11
8.91228e-11
8.91193e-11
8.91148e-11
8.9109e-11
8.91017e-11
8.90924e-11
8.90806e-11
8.90657e-11
8.90469e-11
8.90232e-11
8.89932e-11
8.89555e-11
8.89081e-11
8.88489e-11
8.87751e-11
8.86837e-11
8.85712e-11
8.84337e-11
8.82673e-11
8.80681e-11
8.78334e-11
8.75631e-11
8.72648e-11
8.695e-11
4.15018e-10
4.16574e-10
4.18061e-10
4.1941e-10
4.20581e-10
4.21576e-10
4.22407e-10
4.23094e-10
4.23657e-10
4.24114e-10
4.24483e-10
4.24779e-10
4.25016e-10
4.25206e-10
4.25356e-10
4.25475e-10
4.2557e-10
4.25645e-10
4.25704e-10
4.25751e-10
4.25788e-10
4.25817e-10
4.2584e-10
4.25858e-10
4.25871e-10
4.25882e-10
4.2589e-10
4.25895e-10
4.25899e-10
4.259e-10
4.259e-10
4.25899e-10
4.25895e-10
4.2589e-10
4.25882e-10
4.25871e-10
4.25858e-10
4.2584e-10
4.25817e-10
4.25788e-10
4.25751e-10
4.25704e-10
4.25645e-10
4.2557e-10
4.25475e-10
4.25356e-10
4.25206e-10
4.25016e-10
4.24779e-10
4.24483e-10
4.24114e-10
4.23657e-10
4.23094e-10
4.22407e-10
4.21576e-10
4.20581e-10
4.1941e-10
4.18061e-10
4.16574e-10
4.15018e-10
1.97678e-09
1.98442e-09
1.99176e-09
1.99843e-09
2.00422e-09
2.00914e-09
2.01326e-09
2.01666e-09
2.01944e-09
2.02171e-09
2.02354e-09
2.02501e-09
2.02618e-09
2.02712e-09
2.02787e-09
2.02846e-09
2.02893e-09
2.0293e-09
2.0296e-09
2.02983e-09
2.03002e-09
2.03016e-09
2.03028e-09
2.03037e-09
2.03044e-09
2.03049e-09
2.03053e-09
2.03056e-09
2.03057e-09
2.03058e-09
2.03058e-09
2.03057e-09
2.03056e-09
2.03053e-09
2.03049e-09
2.03044e-09
2.03037e-09
2.03028e-09
2.03016e-09
2.03002e-09
2.02983e-09
2.0296e-09
2.0293e-09
2.02893e-09
2.02846e-09
2.02787e-09
2.02712e-09
2.02618e-09
2.02501e-09
2.02354e-09
2.02171e-09
2.01944e-09
2.01666e-09
2.01326e-09
2.00914e-09
2.00422e-09
1.99843e-09
1.99176e-09
1.98442e-09
1.97678e-09
9.33366e-09
9.37064e-09
9.40638e-09
9.43882e-09
9.46702e-09
9.49096e-09
9.51098e-09
9.52754e-09
9.54111e-09
9.55214e-09
9.56106e-09
9.56823e-09
9.57397e-09
9.57855e-09
9.5822e-09
9.5851e-09
9.5874e-09
9.58922e-09
9.59067e-09
9.59181e-09
9.59272e-09
9.59343e-09
9.59399e-09
9.59443e-09
9.59477e-09
9.59503e-09
9.59523e-09
9.59536e-09
9.59545e-09
9.59549e-09
9.59549e-09
9.59545e-09
9.59536e-09
9.59523e-09
9.59503e-09
9.59477e-09
9.59443e-09
9.59399e-09
9.59343e-09
9.59272e-09
9.59181e-09
9.59067e-09
9.58922e-09
9.5874e-09
9.5851e-09
9.5822e-09
9.57855e-09
9.57397e-09
9.56823e-09
9.56106e-09
9.55214e-09
9.54111e-09
9.52754e-09
9.51098e-09
9.49096e-09
9.46702e-09
9.43882e-09
9.40638e-09
9.37064e-09
9.33366e-09
4.33573e-08
4.35323e-08
4.37021e-08
4.38562e-08
4.39901e-08
4.41038e-08
4.4199e-08
4.42777e-08
4.43422e-08
4.43946e-08
4.44371e-08
4.44712e-08
4.44985e-08
4.45203e-08
4.45377e-08
4.45515e-08
4.45625e-08
4.45712e-08
4.45781e-08
4.45836e-08
4.45879e-08
4.45913e-08
4.4594e-08
4.45961e-08
4.45977e-08
4.4599e-08
4.45999e-08
4.46006e-08
4.4601e-08
4.46012e-08
4.46012e-08
4.4601e-08
4.46006e-08
4.45999e-08
4.4599e-08
4.45977e-08
4.45961e-08
4.4594e-08
4.45913e-08
4.45879e-08
4.45836e-08
4.45781e-08
4.45712e-08
4.45625e-08
4.45515e-08
4.45377e-08
4.45203e-08
4.44985e-08
4.44712e-08
4.44371e-08
4.43946e-08
4.43422e-08
4.42777e-08
4.4199e-08
4.41038e-08
4.39901e-08
4.38562e-08
4.37021e-08
4.35323e-08
4.33573e-08
1.96462e-07
1.97265e-07
1.98045e-07
1.98753e-07
1.99368e-07
1.99891e-07
2.00328e-07
2.0069e-07
2.00986e-07
2.01227e-07
2.01422e-07
2.01579e-07
2.01705e-07
2.01805e-07
2.01885e-07
2.01949e-07
2.02e-07
2.0204e-07
2.02072e-07
2.02097e-07
2.02117e-07
2.02133e-07
2.02145e-07
2.02155e-07
2.02162e-07
2.02168e-07
2.02172e-07
2.02176e-07
2.02177e-07
2.02178e-07
2.02178e-07
2.02177e-07
2.02176e-07
2.02172e-07
2.02168e-07
2.02162e-07
2.02155e-07
2.02145e-07
2.02133e-07
2.02117e-07
2.02097e-07
2.02072e-07
2.0204e-07
2.02e-07
2.01949e-07
2.01885e-07
2.01805e-07
2.01705e-07
2.01579e-07
2.01422e-07
2.01227e-07
2.00986e-07
2.0069e-07
2.00328e-07
1.99891e-07
1.99368e-07
1.98753e-07
1.98045e-07
1.97265e-07
1.96462e-07
8.60105e-07
8.63636e-07
8.67071e-07
8.70185e-07
8.7289e-07
8.75187e-07
8.7711e-07
8.787e-07
8.80004e-07
8.81065e-07
8.81923e-07
8.82614e-07
8.83167e-07
8.8361e-07
8.83962e-07
8.84243e-07
8.84466e-07
8.84644e-07
8.84784e-07
8.84896e-07
8.84984e-07
8.85054e-07
8.85109e-07
8.85153e-07
8.85186e-07
8.85212e-07
8.85231e-07
8.85244e-07
8.85253e-07
8.85257e-07
8.85257e-07
8.85253e-07
8.85244e-07
8.85231e-07
8.85212e-07
8.85186e-07
8.85153e-07
8.85109e-07
8.85054e-07
8.84984e-07
8.84896e-07
8.84784e-07
8.84644e-07
8.84466e-07
8.84243e-07
8.83962e-07
8.8361e-07
8.83167e-07
8.82614e-07
8.81923e-07
8.81065e-07
8.80004e-07
8.787e-07
8.7711e-07
8.75187e-07
8.7289e-07
8.70185e-07
8.67071e-07
8.63636e-07
8.60105e-07
3.59976e-06
3.61449e-06
3.6288e-06
3.64175e-06
3.653e-06
3.66256e-06
3.67055e-06
3.67717e-06
3.68259e-06
3.68701e-06
3.69058e-06
3.69345e-06
3.69576e-06
3.6976e-06
3.69907e-06
3.70024e-06
3.70117e-06
3.70191e-06
3.7025e-06
3.70297e-06
3.70334e-06
3.70363e-06
3.70386e-06
3.70404e-06
3.70418e-06
3.70429e-06
3.70437e-06
3.70442e-06
3.70446e-06
3.70448e-06
3.70448e-06
3.70446e-06
3.70442e-06
3.70437e-06
3.70429e-06
3.70418e-06
3.70404e-06
3.70386e-06
3.70363e-06
3.70334e-06
3.70297e-06
3.7025e-06
3.70191e-06
3.70117e-06
3.70024e-06
3.69907e-06
3.6976e-06
3.69576e-06
3.69345e-06
3.69058e-06
3.68701e-06
3.68259e-06
3.67717e-06
3.67055e-06
3.66256e-06
3.653e-06
3.64175e-06
3.6288e-06
3.61449e-06
3.59976e-06
1.42349e-05
1.42923e-05
1.4348e-05
1.43983e-05
1.4442e-05
1.44791e-05
1.45101e-05
1.45358e-05
1.45569e-05
1.4574e-05
1.45879e-05
1.45991e-05
1.4608e-05
1.46152e-05
1.46209e-05
1.46255e-05
1.46291e-05
1.4632e-05
1.46343e-05
1.46361e-05
1.46375e-05
1.46386e-05
1.46395e-05
1.46403e-05
1.46408e-05
1.46412e-05
1.46415e-05
1.46418e-05
1.46419e-05
1.4642e-05
1.4642e-05
1.46419e-05
1.46418e-05
1.46415e-05
1.46412e-05
1.46408e-05
1.46403e-05
1.46395e-05
1.46386e-05
1.46375e-05
1.46361e-05
1.46343e-05
1.4632e-05
1.46291e-05
1.46255e-05
1.46209e-05
1.46152e-05
1.4608e-05
1.45991e-05
1.45879e-05
1.4574e-05
1.45569e-05
1.45358e-05
1.45101e-05
1.44791e-05
1.4442e-05
1.43983e-05
1.4348e-05
1.42923e-05
1.42349e-05
5.2503e-05
5.27091e-05
5.29084e-05
5.30883e-05
5.32443e-05
5.33768e-05
5.34876e-05
5.35793e-05
5.36545e-05
5.37158e-05
5.37653e-05
5.38052e-05
5.38373e-05
5.38629e-05
5.38833e-05
5.38996e-05
5.39126e-05
5.39229e-05
5.39311e-05
5.39376e-05
5.39428e-05
5.39468e-05
5.39501e-05
5.39526e-05
5.39546e-05
5.39561e-05
5.39572e-05
5.3958e-05
5.39585e-05
5.39587e-05
5.39587e-05
5.39585e-05
5.3958e-05
5.39572e-05
5.39561e-05
5.39546e-05
5.39526e-05
5.39501e-05
5.39468e-05
5.39428e-05
5.39376e-05
5.39311e-05
5.39229e-05
5.39126e-05
5.38996e-05
5.38833e-05
5.38629e-05
5.38373e-05
5.38052e-05
5.37653e-05
5.37158e-05
5.36545e-05
5.35793e-05
5.34876e-05
5.33768e-05
5.32443e-05
5.30883e-05
5.29084e-05
5.27091e-05
5.2503e-05
0.000178083
0.000178754
0.000179399
0.00017998
0.000180484
0.000180912
0.00018127
0.000181566
0.000181809
0.000182006
0.000182166
0.000182295
0.000182399
0.000182481
0.000182547
0.0001826
0.000182642
0.000182675
0.000182702
0.000182723
0.00018274
0.000182753
0.000182764
0.000182772
0.000182778
0.000182783
0.000182787
0.000182789
0.000182791
0.000182792
0.000182792
0.000182791
0.000182789
0.000182787
0.000182783
0.000182778
0.000182772
0.000182764
0.000182753
0.00018274
0.000182723
0.000182702
0.000182675
0.000182642
0.0001826
0.000182547
0.000182481
0.000182399
0.000182295
0.000182166
0.000182006
0.000181809
0.000181566
0.00018127
0.000180912
0.000180484
0.00017998
0.000179399
0.000178754
0.000178083
0.000547093
0.000549031
0.000550886
0.000552553
0.000553996
0.000555221
0.000556246
0.000557094
0.000557789
0.000558356
0.000558814
0.000559183
0.00055948
0.000559717
0.000559906
0.000560058
0.000560178
0.000560274
0.00056035
0.000560411
0.000560459
0.000560497
0.000560527
0.000560551
0.000560569
0.000560583
0.000560594
0.000560601
0.000560606
0.000560608
0.000560608
0.000560606
0.000560601
0.000560594
0.000560583
0.000560569
0.000560551
0.000560527
0.000560497
0.000560459
0.000560411
0.00056035
0.000560274
0.000560178
0.000560058
0.000559906
0.000559717
0.00055948
0.000559183
0.000558814
0.000558356
0.000557789
0.000557094
0.000556246
0.000555221
0.000553996
0.000552553
0.000550886
0.000549031
0.000547093
0.00149878
0.00150366
0.0015083
0.00151245
0.00151605
0.0015191
0.00152165
0.00152376
0.0015255
0.00152691
0.00152805
0.00152897
0.00152971
0.0015303
0.00153077
0.00153115
0.00153145
0.00153169
0.00153188
0.00153203
0.00153215
0.00153225
0.00153232
0.00153238
0.00153243
0.00153246
0.00153249
0.00153251
0.00153252
0.00153252
0.00153252
0.00153252
0.00153251
0.00153249
0.00153246
0.00153243
0.00153238
0.00153232
0.00153225
0.00153215
0.00153203
0.00153188
0.00153169
0.00153145
0.00153115
0.00153077
0.0015303
0.00152971
0.00152897
0.00152805
0.00152691
0.0015255
0.00152376
0.00152165
0.0015191
0.00151605
0.00151245
0.0015083
0.00150366
0.00149878
0.00361053
0.00362104
0.00363095
0.00363981
0.00364746
0.00365395
0.00365938
0.00366387
0.00366755
0.00367055
0.00367298
0.00367493
0.00367651
0.00367777
0.00367877
0.00367958
0.00368022
0.00368073
0.00368113
0.00368146
0.00368171
0.00368192
0.00368208
0.0036822
0.0036823
0.00368238
0.00368243
0.00368247
0.0036825
0.00368251
0.00368251
0.0036825
0.00368247
0.00368243
0.00368238
0.0036823
0.0036822
0.00368208
0.00368192
0.00368171
0.00368146
0.00368113
0.00368073
0.00368022
0.00367958
0.00367877
0.00367777
0.00367651
0.00367493
0.00367298
0.00367055
0.00366755
0.00366387
0.00365938
0.00365395
0.00364746
0.00363981
0.00363095
0.00362104
0.00361053
0.00757968
0.00759884
0.00761673
0.00763267
0.00764643
0.0076581
0.00766784
0.00767591
0.00768253
0.00768792
0.00769228
0.0076958
0.00769863
0.0077009
0.00770271
0.00770416
0.00770531
0.00770623
0.00770697
0.00770755
0.00770801
0.00770838
0.00770867
0.0077089
0.00770908
0.00770922
0.00770932
0.00770939
0.00770944
0.00770946
0.00770946
0.00770944
0.00770939
0.00770932
0.00770922
0.00770908
0.0077089
0.00770867
0.00770838
0.00770801
0.00770755
0.00770697
0.00770623
0.00770531
0.00770416
0.00770271
0.0077009
0.00769863
0.0076958
0.00769228
0.00768792
0.00768253
0.00767591
0.00766784
0.0076581
0.00764643
0.00763267
0.00761673
0.00759884
0.00757968
0.0138667
0.0138964
0.0139238
0.0139482
0.0139691
0.0139869
0.0140018
0.0140141
0.0140242
0.0140324
0.0140391
0.0140444
0.0140488
0.0140522
0.014055
0.0140572
0.014059
0.0140604
0.0140615
0.0140624
0.0140631
0.0140637
0.0140641
0.0140645
0.0140647
0.014065
0.0140651
0.0140652
0.0140653
0.0140653
0.0140653
0.0140653
0.0140652
0.0140651
0.014065
0.0140647
0.0140645
0.0140641
0.0140637
0.0140631
0.0140624
0.0140615
0.0140604
0.014059
0.0140572
0.014055
0.0140522
0.0140488
0.0140444
0.0140391
0.0140324
0.0140242
0.0140141
0.0140018
0.0139869
0.0139691
0.0139482
0.0139238
0.0138964
0.0138667
0.0223552
0.0223952
0.0224316
0.0224639
0.0224917
0.0225152
0.0225349
0.0225511
0.0225645
0.0225754
0.0225842
0.0225913
0.0225971
0.0226017
0.0226054
0.0226083
0.0226106
0.0226125
0.022614
0.0226152
0.0226162
0.0226169
0.0226175
0.022618
0.0226183
0.0226186
0.0226188
0.022619
0.0226191
0.0226191
0.0226191
0.0226191
0.022619
0.0226188
0.0226186
0.0226183
0.022618
0.0226175
0.0226169
0.0226162
0.0226152
0.022614
0.0226125
0.0226106
0.0226083
0.0226054
0.0226017
0.0225971
0.0225913
0.0225842
0.0225754
0.0225645
0.0225511
0.0225349
0.0225152
0.0224917
0.0224639
0.0224316
0.0223952
0.0223552
0.0324128
0.0324612
0.032505
0.0325435
0.0325766
0.0326047
0.0326282
0.0326476
0.0326635
0.0326765
0.0326871
0.0326956
0.0327025
0.032708
0.0327124
0.0327159
0.0327187
0.032721
0.0327228
0.0327242
0.0327254
0.0327263
0.032727
0.0327275
0.032728
0.0327283
0.0327286
0.0327288
0.0327289
0.0327289
0.0327289
0.0327289
0.0327288
0.0327286
0.0327283
0.032728
0.0327275
0.032727
0.0327263
0.0327254
0.0327242
0.0327228
0.032721
0.0327187
0.0327159
0.0327124
0.032708
0.0327025
0.0326956
0.0326871
0.0326765
0.0326635
0.0326476
0.0326282
0.0326047
0.0325766
0.0325435
0.032505
0.0324612
0.0324128
0.0433041
0.0433591
0.0434083
0.0434515
0.0434886
0.0435201
0.0435463
0.0435681
0.043586
0.0436006
0.0436124
0.043622
0.0436297
0.0436359
0.0436409
0.0436449
0.0436481
0.0436506
0.0436526
0.0436543
0.0436556
0.0436566
0.0436574
0.0436581
0.0436586
0.043659
0.0436592
0.0436595
0.0436596
0.0436596
0.0436596
0.0436596
0.0436595
0.0436592
0.043659
0.0436586
0.0436581
0.0436574
0.0436566
0.0436556
0.0436543
0.0436526
0.0436506
0.0436481
0.0436449
0.0436409
0.0436359
0.0436297
0.043622
0.0436124
0.0436006
0.043586
0.0435681
0.0435463
0.0435201
0.0434886
0.0434515
0.0434083
0.0433591
0.0433041
0.0545273
0.0545879
0.0546416
0.0546886
0.0547289
0.054763
0.0547915
0.0548152
0.0548347
0.0548506
0.0548635
0.0548739
0.0548824
0.0548891
0.0548946
0.0548989
0.0549024
0.0549052
0.0549075
0.0549093
0.0549107
0.0549118
0.0549127
0.0549134
0.054914
0.0549144
0.0549148
0.054915
0.0549151
0.0549152
0.0549152
0.0549151
0.054915
0.0549148
0.0549144
0.054914
0.0549134
0.0549127
0.0549118
0.0549107
0.0549093
0.0549075
0.0549052
0.0549024
0.0548989
0.0548946
0.0548891
0.0548824
0.0548739
0.0548635
0.0548506
0.0548347
0.0548152
0.0547915
0.054763
0.0547289
0.0546886
0.0546416
0.0545879
0.0545273
0.0658641
0.0659299
0.0659876
0.066038
0.0660813
0.0661179
0.0661486
0.066174
0.0661949
0.0662121
0.066226
0.0662373
0.0662464
0.0662537
0.0662596
0.0662643
0.0662681
0.0662711
0.0662736
0.0662755
0.0662771
0.0662783
0.0662793
0.0662801
0.0662807
0.0662811
0.0662815
0.0662817
0.0662819
0.066282
0.066282
0.0662819
0.0662817
0.0662815
0.0662811
0.0662807
0.0662801
0.0662793
0.0662783
0.0662771
0.0662755
0.0662736
0.0662711
0.0662681
0.0662643
0.0662596
0.0662537
0.0662464
0.0662373
0.066226
0.0662121
0.0661949
0.066174
0.0661486
0.0661179
0.0660813
0.066038
0.0659876
0.0659299
0.0658641
0.077267
0.0773378
0.0773996
0.0774535
0.0774997
0.0775388
0.0775716
0.0775988
0.0776212