/*--------------------------------*- C++ -*----------------------------------*\
| =========                 |                                                 |
| \\      /  F ield         | foam-extend: Open Source CFD                    |
|  \\    /   O peration     | Version:     4.0                                |
|   \\  /    A nd           | Web:         http://www.foam-extend.org         |
|    \\/     M anipulation  |                                                 |
\*---------------------------------------------------------------------------*/
FoamFile
{
    version     2.0;
    format      ascii;
    class       volScalarField;
    location    "1210";
    object      cPlus;
}
// * * * * * * * * * * * * * * * * * * * * * * * * * * * * * * * * * * * * * //

dimensions      [0 0 0 0 0 0 0];

internalField   nonuniform List<scalar> 
6960
(
0.297392
0.297369
0.297343
0.297318
0.297297
0.297279
0.297263
0.297251
0.29724
0.297232
0.297225
0.297219
0.297215
0.297211
0.297208
0.297206
0.297204
0.297202
0.297201
0.2972
0.297199
0.297199
0.297198
0.297198
0.297198
0.297197
0.297197
0.297197
0.297197
0.297197
0.297197
0.297197
0.297197
0.297197
0.297197
0.297198
0.297198
0.297198
0.297199
0.297199
0.2972
0.297201
0.297202
0.297204
0.297206
0.297208
0.297211
0.297215
0.297219
0.297225
0.297232
0.29724
0.297251
0.297263
0.297279
0.297297
0.297318
0.297343
0.297369
0.297392
0.0883738
0.0883598
0.0883438
0.0883288
0.0883157
0.0883045
0.0882951
0.0882873
0.0882809
0.0882757
0.0882714
0.088268
0.0882652
0.0882629
0.0882611
0.0882597
0.0882585
0.0882576
0.0882569
0.0882563
0.0882558
0.0882554
0.0882551
0.0882549
0.0882547
0.0882546
0.0882545
0.0882544
0.0882543
0.0882543
0.0882543
0.0882543
0.0882544
0.0882545
0.0882546
0.0882547
0.0882549
0.0882551
0.0882554
0.0882558
0.0882563
0.0882569
0.0882576
0.0882585
0.0882597
0.0882611
0.0882629
0.0882652
0.088268
0.0882714
0.0882757
0.0882809
0.0882873
0.0882951
0.0883045
0.0883157
0.0883288
0.0883438
0.0883598
0.0883738
0.0324289
0.032423
0.0324159
0.0324092
0.0324032
0.0323982
0.0323939
0.0323904
0.0323875
0.0323851
0.0323832
0.0323816
0.0323804
0.0323793
0.0323785
0.0323779
0.0323773
0.0323769
0.0323766
0.0323763
0.0323761
0.0323759
0.0323758
0.0323756
0.0323756
0.0323755
0.0323754
0.0323754
0.0323754
0.0323754
0.0323754
0.0323754
0.0323754
0.0323754
0.0323755
0.0323756
0.0323756
0.0323758
0.0323759
0.0323761
0.0323763
0.0323766
0.0323769
0.0323773
0.0323779
0.0323785
0.0323793
0.0323804
0.0323816
0.0323832
0.0323851
0.0323875
0.0323904
0.0323939
0.0323982
0.0324032
0.0324092
0.0324159
0.032423
0.0324289
0.0153703
0.0153691
0.0153671
0.0153652
0.0153634
0.0153619
0.0153607
0.0153596
0.0153588
0.015358
0.0153574
0.015357
0.0153566
0.0153563
0.015356
0.0153558
0.0153557
0.0153555
0.0153554
0.0153553
0.0153553
0.0153552
0.0153552
0.0153551
0.0153551
0.0153551
0.0153551
0.0153551
0.0153551
0.015355
0.015355
0.0153551
0.0153551
0.0153551
0.0153551
0.0153551
0.0153551
0.0153552
0.0153552
0.0153553
0.0153553
0.0153554
0.0153555
0.0153557
0.0153558
0.015356
0.0153563
0.0153566
0.015357
0.0153574
0.015358
0.0153588
0.0153596
0.0153607
0.0153619
0.0153634
0.0153652
0.0153671
0.0153691
0.0153703
0.010083
0.010084
0.0100845
0.0100849
0.0100852
0.0100854
0.0100856
0.0100858
0.0100859
0.010086
0.010086
0.0100861
0.0100861
0.0100862
0.0100862
0.0100862
0.0100862
0.0100862
0.0100862
0.0100863
0.0100863
0.0100863
0.0100863
0.0100863
0.0100863
0.0100863
0.0100863
0.0100863
0.0100863
0.0100863
0.0100863
0.0100863
0.0100863
0.0100863
0.0100863
0.0100863
0.0100863
0.0100863
0.0100863
0.0100863
0.0100863
0.0100862
0.0100862
0.0100862
0.0100862
0.0100862
0.0100862
0.0100861
0.0100861
0.010086
0.010086
0.0100859
0.0100858
0.0100856
0.0100854
0.0100852
0.0100849
0.0100845
0.010084
0.010083
0.00850047
0.00850249
0.00850412
0.0085055
0.00850667
0.00850764
0.00850846
0.00850912
0.00850967
0.0085101
0.00851046
0.00851074
0.00851097
0.00851115
0.00851129
0.0085114
0.0085115
0.00851157
0.00851162
0.00851167
0.0085117
0.00851173
0.00851176
0.00851177
0.00851179
0.0085118
0.0085118
0.00851181
0.00851181
0.00851182
0.00851182
0.00851181
0.00851181
0.0085118
0.0085118
0.00851179
0.00851177
0.00851176
0.00851173
0.0085117
0.00851167
0.00851162
0.00851157
0.0085115
0.0085114
0.00851129
0.00851115
0.00851097
0.00851074
0.00851046
0.0085101
0.00850967
0.00850912
0.00850846
0.00850764
0.00850667
0.0085055
0.00850412
0.00850249
0.00850047
0.00807752
0.00807994
0.00808201
0.0080838
0.00808533
0.00808661
0.00808768
0.00808856
0.00808927
0.00808985
0.00809032
0.0080907
0.008091
0.00809124
0.00809143
0.00809159
0.00809171
0.0080918
0.00809188
0.00809194
0.00809199
0.00809203
0.00809206
0.00809208
0.0080921
0.00809212
0.00809213
0.00809214
0.00809214
0.00809214
0.00809214
0.00809214
0.00809214
0.00809213
0.00809212
0.0080921
0.00809208
0.00809206
0.00809203
0.00809199
0.00809194
0.00809188
0.0080918
0.00809171
0.00809159
0.00809143
0.00809124
0.008091
0.0080907
0.00809032
0.00808985
0.00808927
0.00808856
0.00808768
0.00808661
0.00808533
0.0080838
0.00808201
0.00807994
0.00807752
0.00801169
0.0080143
0.00801655
0.00801851
0.00802018
0.00802159
0.00802276
0.00802373
0.00802452
0.00802516
0.00802567
0.00802609
0.00802642
0.00802669
0.0080269
0.00802707
0.0080272
0.00802731
0.0080274
0.00802746
0.00802752
0.00802756
0.0080276
0.00802762
0.00802764
0.00802766
0.00802767
0.00802768
0.00802768
0.00802769
0.00802769
0.00802768
0.00802768
0.00802767
0.00802766
0.00802764
0.00802762
0.0080276
0.00802756
0.00802752
0.00802746
0.0080274
0.00802731
0.0080272
0.00802707
0.0080269
0.00802669
0.00802642
0.00802609
0.00802567
0.00802516
0.00802452
0.00802373
0.00802276
0.00802159
0.00802018
0.00801851
0.00801655
0.0080143
0.00801169
0.00805562
0.00805832
0.00806066
0.00806271
0.00806445
0.00806592
0.00806714
0.00806815
0.00806897
0.00806964
0.00807018
0.00807062
0.00807096
0.00807124
0.00807146
0.00807164
0.00807178
0.00807189
0.00807198
0.00807205
0.00807211
0.00807216
0.00807219
0.00807222
0.00807224
0.00807226
0.00807227
0.00807228
0.00807228
0.00807229
0.00807229
0.00807228
0.00807228
0.00807227
0.00807226
0.00807224
0.00807222
0.00807219
0.00807216
0.00807211
0.00807205
0.00807198
0.00807189
0.00807178
0.00807164
0.00807146
0.00807124
0.00807096
0.00807062
0.00807018
0.00806964
0.00806897
0.00806815
0.00806714
0.00806592
0.00806445
0.00806271
0.00806066
0.00805832
0.00805562
0.00813545
0.00813821
0.00814062
0.00814271
0.0081445
0.00814601
0.00814727
0.0081483
0.00814915
0.00814983
0.00815039
0.00815083
0.00815119
0.00815148
0.00815171
0.00815189
0.00815203
0.00815215
0.00815224
0.00815231
0.00815237
0.00815242
0.00815246
0.00815248
0.00815251
0.00815252
0.00815254
0.00815255
0.00815255
0.00815255
0.00815255
0.00815255
0.00815255
0.00815254
0.00815252
0.00815251
0.00815248
0.00815246
0.00815242
0.00815237
0.00815231
0.00815224
0.00815215
0.00815203
0.00815189
0.00815171
0.00815148
0.00815119
0.00815083
0.00815039
0.00814983
0.00814915
0.0081483
0.00814727
0.00814601
0.0081445
0.00814271
0.00814062
0.00813821
0.00813545
0.0082301
0.00823292
0.00823538
0.00823752
0.00823935
0.00824089
0.00824218
0.00824323
0.0082441
0.0082448
0.00824537
0.00824583
0.00824619
0.00824648
0.00824672
0.0082469
0.00824705
0.00824717
0.00824727
0.00824734
0.0082474
0.00824745
0.00824749
0.00824752
0.00824754
0.00824756
0.00824757
0.00824758
0.00824758
0.00824759
0.00824759
0.00824758
0.00824758
0.00824757
0.00824756
0.00824754
0.00824752
0.00824749
0.00824745
0.0082474
0.00824734
0.00824727
0.00824717
0.00824705
0.0082469
0.00824672
0.00824648
0.00824619
0.00824583
0.00824537
0.0082448
0.0082441
0.00824323
0.00824218
0.00824089
0.00823935
0.00823752
0.00823538
0.00823292
0.0082301
0.00833411
0.008337
0.00833951
0.00834169
0.00834356
0.00834514
0.00834645
0.00834753
0.00834842
0.00834913
0.00834971
0.00835018
0.00835056
0.00835086
0.00835109
0.00835129
0.00835144
0.00835156
0.00835166
0.00835173
0.00835179
0.00835184
0.00835188
0.00835191
0.00835193
0.00835195
0.00835197
0.00835198
0.00835198
0.00835199
0.00835199
0.00835198
0.00835198
0.00835197
0.00835195
0.00835193
0.00835191
0.00835188
0.00835184
0.00835179
0.00835173
0.00835166
0.00835156
0.00835144
0.00835129
0.00835109
0.00835086
0.00835056
0.00835018
0.00834971
0.00834913
0.00834842
0.00834753
0.00834645
0.00834514
0.00834356
0.00834169
0.00833951
0.008337
0.00833411
0.00844654
0.0084495
0.00845207
0.0084543
0.00845621
0.00845783
0.00845917
0.00846027
0.00846118
0.00846191
0.00846251
0.00846299
0.00846337
0.00846368
0.00846392
0.00846412
0.00846427
0.0084644
0.0084645
0.00846458
0.00846464
0.00846469
0.00846473
0.00846476
0.00846478
0.0084648
0.00846482
0.00846483
0.00846483
0.00846484
0.00846484
0.00846483
0.00846483
0.00846482
0.0084648
0.00846478
0.00846476
0.00846473
0.00846469
0.00846464
0.00846458
0.0084645
0.0084644
0.00846427
0.00846412
0.00846392
0.00846368
0.00846337
0.00846299
0.00846251
0.00846191
0.00846118
0.00846027
0.00845917
0.00845783
0.00845621
0.0084543
0.00845207
0.0084495
0.00844654
0.0085678
0.00857083
0.00857346
0.00857575
0.00857771
0.00857936
0.00858074
0.00858187
0.0085828
0.00858355
0.00858416
0.00858465
0.00858504
0.00858536
0.00858561
0.00858581
0.00858597
0.0085861
0.0085862
0.00858628
0.00858634
0.00858639
0.00858644
0.00858647
0.00858649
0.00858651
0.00858653
0.00858654
0.00858654
0.00858654
0.00858654
0.00858654
0.00858654
0.00858653
0.00858651
0.00858649
0.00858647
0.00858644
0.00858639
0.00858634
0.00858628
0.0085862
0.0085861
0.00858597
0.00858581
0.00858561
0.00858536
0.00858504
0.00858465
0.00858416
0.00858355
0.0085828
0.00858187
0.00858074
0.00857936
0.00857771
0.00857575
0.00857346
0.00857083
0.0085678
0.00869874
0.00870186
0.00870455
0.0087069
0.00870891
0.0087106
0.00871201
0.00871318
0.00871413
0.0087149
0.00871553
0.00871603
0.00871643
0.00871676
0.00871701
0.00871722
0.00871739
0.00871752
0.00871762
0.0087177
0.00871777
0.00871782
0.00871786
0.0087179
0.00871792
0.00871794
0.00871796
0.00871797
0.00871797
0.00871798
0.00871798
0.00871797
0.00871797
0.00871796
0.00871794
0.00871792
0.0087179
0.00871786
0.00871782
0.00871777
0.0087177
0.00871762
0.00871752
0.00871739
0.00871722
0.00871701
0.00871676
0.00871643
0.00871603
0.00871553
0.0087149
0.00871413
0.00871318
0.00871201
0.0087106
0.00870891
0.0087069
0.00870455
0.00870186
0.00869874
0.00884046
0.00884366
0.00884644
0.00884885
0.00885091
0.00885265
0.0088541
0.0088553
0.00885628
0.00885707
0.00885771
0.00885823
0.00885865
0.00885898
0.00885925
0.00885946
0.00885963
0.00885976
0.00885987
0.00885995
0.00886002
0.00886008
0.00886012
0.00886015
0.00886018
0.0088602
0.00886022
0.00886023
0.00886023
0.00886024
0.00886024
0.00886023
0.00886023
0.00886022
0.0088602
0.00886018
0.00886015
0.00886012
0.00886008
0.00886002
0.00885995
0.00885987
0.00885976
0.00885963
0.00885946
0.00885925
0.00885898
0.00885865
0.00885823
0.00885771
0.00885707
0.00885628
0.0088553
0.0088541
0.00885265
0.00885091
0.00884885
0.00884644
0.00884366
0.00884046
0.00899427
0.00899757
0.00900042
0.0090029
0.00900503
0.00900682
0.00900831
0.00900955
0.00901055
0.00901137
0.00901204
0.00901257
0.009013
0.00901334
0.00901361
0.00901383
0.00901401
0.00901415
0.00901426
0.00901435
0.00901442
0.00901447
0.00901452
0.00901455
0.00901458
0.0090146
0.00901462
0.00901463
0.00901463
0.00901464
0.00901464
0.00901463
0.00901463
0.00901462
0.0090146
0.00901458
0.00901455
0.00901452
0.00901447
0.00901442
0.00901435
0.00901426
0.00901415
0.00901401
0.00901383
0.00901361
0.00901334
0.009013
0.00901257
0.00901204
0.00901137
0.00901055
0.00900955
0.00900831
0.00900682
0.00900503
0.0090029
0.00900042
0.00899757
0.00899427
0.0091617
0.00916511
0.00916806
0.00917062
0.00917281
0.00917466
0.0091762
0.00917748
0.00917852
0.00917936
0.00918005
0.0091806
0.00918104
0.0091814
0.00918168
0.00918191
0.00918209
0.00918223
0.00918234
0.00918244
0.00918251
0.00918257
0.00918261
0.00918265
0.00918268
0.0091827
0.00918271
0.00918273
0.00918273
0.00918274
0.00918274
0.00918273
0.00918273
0.00918271
0.0091827
0.00918268
0.00918265
0.00918261
0.00918257
0.00918251
0.00918244
0.00918234
0.00918223
0.00918209
0.00918191
0.00918168
0.0091814
0.00918104
0.0091806
0.00918005
0.00917936
0.00917852
0.00917748
0.0091762
0.00917466
0.00917281
0.00917062
0.00916806
0.00916511
0.0091617
0.00934461
0.00934814
0.00935119
0.00935384
0.00935611
0.00935802
0.00935962
0.00936093
0.00936201
0.00936288
0.00936359
0.00936416
0.00936462
0.00936499
0.00936528
0.00936552
0.0093657
0.00936585
0.00936597
0.00936607
0.00936614
0.0093662
0.00936625
0.00936629
0.00936632
0.00936634
0.00936636
0.00936637
0.00936637
0.00936638
0.00936638
0.00936637
0.00936637
0.00936636
0.00936634
0.00936632
0.00936629
0.00936625
0.0093662
0.00936614
0.00936607
0.00936597
0.00936585
0.0093657
0.00936552
0.00936528
0.00936499
0.00936462
0.00936416
0.00936359
0.00936288
0.00936201
0.00936093
0.00935962
0.00935802
0.00935611
0.00935384
0.00935119
0.00934814
0.00934461
0.00954518
0.00954884
0.009552
0.00955476
0.00955711
0.00955909
0.00956075
0.00956212
0.00956323
0.00956414
0.00956488
0.00956547
0.00956595
0.00956633
0.00956663
0.00956688
0.00956707
0.00956723
0.00956735
0.00956745
0.00956753
0.00956759
0.00956764
0.00956768
0.00956771
0.00956773
0.00956775
0.00956776
0.00956777
0.00956777
0.00956777
0.00956777
0.00956776
0.00956775
0.00956773
0.00956771
0.00956768
0.00956764
0.00956759
0.00956753
0.00956745
0.00956735
0.00956723
0.00956707
0.00956688
0.00956663
0.00956633
0.00956595
0.00956547
0.00956488
0.00956414
0.00956323
0.00956212
0.00956075
0.00955909
0.00955711
0.00955476
0.009552
0.00954884
0.00954518
0.00976605
0.00976987
0.00977316
0.00977603
0.00977848
0.00978054
0.00978227
0.00978369
0.00978485
0.0097858
0.00978657
0.00978718
0.00978768
0.00978808
0.00978839
0.00978865
0.00978885
0.00978901
0.00978914
0.00978924
0.00978932
0.00978939
0.00978944
0.00978948
0.00978951
0.00978954
0.00978956
0.00978957
0.00978958
0.00978958
0.00978958
0.00978958
0.00978957
0.00978956
0.00978954
0.00978951
0.00978948
0.00978944
0.00978939
0.00978932
0.00978924
0.00978914
0.00978901
0.00978885
0.00978865
0.00978839
0.00978808
0.00978768
0.00978718
0.00978657
0.0097858
0.00978485
0.00978369
0.00978227
0.00978054
0.00977848
0.00977603
0.00977316
0.00976987
0.00976605
0.0100105
0.0100145
0.0100179
0.0100209
0.0100234
0.0100256
0.0100274
0.0100289
0.0100301
0.0100311
0.0100319
0.0100325
0.0100331
0.0100335
0.0100338
0.0100341
0.0100343
0.0100345
0.0100346
0.0100347
0.0100348
0.0100349
0.0100349
0.0100349
0.010035
0.010035
0.010035
0.010035
0.010035
0.0100351
0.0100351
0.010035
0.010035
0.010035
0.010035
0.010035
0.0100349
0.0100349
0.0100349
0.0100348
0.0100347
0.0100346
0.0100345
0.0100343
0.0100341
0.0100338
0.0100335
0.0100331
0.0100325
0.0100319
0.0100311
0.0100301
0.0100289
0.0100274
0.0100256
0.0100234
0.0100209
0.0100179
0.0100145
0.0100105
0.0102824
0.0102866
0.0102902
0.0102933
0.010296
0.0102983
0.0103002
0.0103017
0.010303
0.010304
0.0103049
0.0103055
0.0103061
0.0103065
0.0103069
0.0103072
0.0103074
0.0103076
0.0103077
0.0103078
0.0103079
0.010308
0.010308
0.0103081
0.0103081
0.0103081
0.0103082
0.0103082
0.0103082
0.0103082
0.0103082
0.0103082
0.0103082
0.0103082
0.0103081
0.0103081
0.0103081
0.010308
0.010308
0.0103079
0.0103078
0.0103077
0.0103076
0.0103074
0.0103072
0.0103069
0.0103065
0.0103061
0.0103055
0.0103049
0.010304
0.010303
0.0103017
0.0103002
0.0102983
0.010296
0.0102933
0.0102902
0.0102866
0.0102824
0.0105867
0.0105912
0.010595
0.0105983
0.0106011
0.0106035
0.0106055
0.0106071
0.0106085
0.0106096
0.0106105
0.0106112
0.0106118
0.0106122
0.0106126
0.0106129
0.0106131
0.0106133
0.0106135
0.0106136
0.0106137
0.0106137
0.0106138
0.0106138
0.0106139
0.0106139
0.0106139
0.0106139
0.010614
0.010614
0.010614
0.010614
0.0106139
0.0106139
0.0106139
0.0106139
0.0106138
0.0106138
0.0106137
0.0106137
0.0106136
0.0106135
0.0106133
0.0106131
0.0106129
0.0106126
0.0106122
0.0106118
0.0106112
0.0106105
0.0106096
0.0106085
0.0106071
0.0106055
0.0106035
0.0106011
0.0105983
0.010595
0.0105912
0.0105867
0.0109298
0.0109345
0.0109386
0.0109421
0.0109451
0.0109476
0.0109497
0.0109515
0.0109529
0.0109541
0.010955
0.0109558
0.0109564
0.0109569
0.0109572
0.0109576
0.0109578
0.010958
0.0109582
0.0109583
0.0109584
0.0109585
0.0109585
0.0109586
0.0109586
0.0109587
0.0109587
0.0109587
0.0109587
0.0109587
0.0109587
0.0109587
0.0109587
0.0109587
0.0109587
0.0109586
0.0109586
0.0109585
0.0109585
0.0109584
0.0109583
0.0109582
0.010958
0.0109578
0.0109576
0.0109572
0.0109569
0.0109564
0.0109558
0.010955
0.0109541
0.0109529
0.0109515
0.0109497
0.0109476
0.0109451
0.0109421
0.0109386
0.0109345
0.0109298
0.0113197
0.0113247
0.011329
0.0113328
0.011336
0.0113387
0.0113409
0.0113428
0.0113443
0.0113455
0.0113466
0.0113474
0.011348
0.0113485
0.011349
0.0113493
0.0113496
0.0113498
0.0113499
0.0113501
0.0113502
0.0113503
0.0113503
0.0113504
0.0113504
0.0113505
0.0113505
0.0113505
0.0113505
0.0113505
0.0113505
0.0113505
0.0113505
0.0113505
0.0113505
0.0113504
0.0113504
0.0113503
0.0113503
0.0113502
0.0113501
0.0113499
0.0113498
0.0113496
0.0113493
0.011349
0.0113485
0.011348
0.0113474
0.0113466
0.0113455
0.0113443
0.0113428
0.0113409
0.0113387
0.011336
0.0113328
0.011329
0.0113247
0.0113197
0.0117669
0.0117722
0.0117769
0.0117809
0.0117843
0.0117872
0.0117897
0.0117917
0.0117933
0.0117947
0.0117957
0.0117966
0.0117973
0.0117979
0.0117983
0.0117987
0.011799
0.0117992
0.0117994
0.0117995
0.0117996
0.0117997
0.0117998
0.0117999
0.0117999
0.0118
0.0118
0.0118
0.0118
0.0118
0.0118
0.0118
0.0118
0.0118
0.0118
0.0117999
0.0117999
0.0117998
0.0117997
0.0117996
0.0117995
0.0117994
0.0117992
0.011799
0.0117987
0.0117983
0.0117979
0.0117973
0.0117966
0.0117957
0.0117947
0.0117933
0.0117917
0.0117897
0.0117872
0.0117843
0.0117809
0.0117769
0.0117722
0.0117669
0.0122853
0.0122912
0.0122962
0.0123006
0.0123043
0.0123075
0.0123101
0.0123123
0.0123141
0.0123155
0.0123167
0.0123176
0.0123184
0.012319
0.0123195
0.0123199
0.0123202
0.0123205
0.0123207
0.0123208
0.0123209
0.012321
0.0123211
0.0123212
0.0123212
0.0123213
0.0123213
0.0123213
0.0123213
0.0123213
0.0123213
0.0123213
0.0123213
0.0123213
0.0123213
0.0123212
0.0123212
0.0123211
0.012321
0.0123209
0.0123208
0.0123207
0.0123205
0.0123202
0.0123199
0.0123195
0.012319
0.0123184
0.0123176
0.0123167
0.0123155
0.0123141
0.0123123
0.0123101
0.0123075
0.0123043
0.0123006
0.0122962
0.0122912
0.0122853
0.0128943
0.0129007
0.0129062
0.012911
0.0129151
0.0129186
0.0129215
0.0129239
0.0129258
0.0129274
0.0129287
0.0129298
0.0129306
0.0129313
0.0129318
0.0129322
0.0129326
0.0129329
0.0129331
0.0129332
0.0129334
0.0129335
0.0129336
0.0129337
0.0129337
0.0129337
0.0129338
0.0129338
0.0129338
0.0129338
0.0129338
0.0129338
0.0129338
0.0129338
0.0129337
0.0129337
0.0129337
0.0129336
0.0129335
0.0129334
0.0129332
0.0129331
0.0129329
0.0129326
0.0129322
0.0129318
0.0129313
0.0129306
0.0129298
0.0129287
0.0129274
0.0129258
0.0129239
0.0129215
0.0129186
0.0129151
0.012911
0.0129062
0.0129007
0.0128943
0.0136205
0.0136276
0.0136338
0.0136391
0.0136437
0.0136475
0.0136508
0.0136534
0.0136556
0.0136574
0.0136589
0.01366
0.013661
0.0136617
0.0136623
0.0136628
0.0136632
0.0136635
0.0136637
0.0136639
0.0136641
0.0136642
0.0136643
0.0136644
0.0136644
0.0136645
0.0136645
0.0136645
0.0136646
0.0136646
0.0136646
0.0136646
0.0136645
0.0136645
0.0136645
0.0136644
0.0136644
0.0136643
0.0136642
0.0136641
0.0136639
0.0136637
0.0136635
0.0136632
0.0136628
0.0136623
0.0136617
0.013661
0.01366
0.0136589
0.0136574
0.0136556
0.0136534
0.0136508
0.0136475
0.0136437
0.0136391
0.0136338
0.0136276
0.0136205
0.0145025
0.0145106
0.0145176
0.0145236
0.0145288
0.0145332
0.0145369
0.0145399
0.0145424
0.0145444
0.0145461
0.0145474
0.0145484
0.0145493
0.01455
0.0145505
0.014551
0.0145513
0.0145516
0.0145518
0.014552
0.0145521
0.0145522
0.0145523
0.0145524
0.0145524
0.0145525
0.0145525
0.0145525
0.0145525
0.0145525
0.0145525
0.0145525
0.0145525
0.0145524
0.0145524
0.0145523
0.0145522
0.0145521
0.014552
0.0145518
0.0145516
0.0145513
0.014551
0.0145505
0.01455
0.0145493
0.0145484
0.0145474
0.0145461
0.0145444
0.0145424
0.0145399
0.0145369
0.0145332
0.0145288
0.0145236
0.0145176
0.0145106
0.0145025
0.0155973
0.0156066
0.0156146
0.0156217
0.0156277
0.0156328
0.015637
0.0156405
0.0156434
0.0156458
0.0156477
0.0156492
0.0156504
0.0156514
0.0156522
0.0156529
0.0156534
0.0156538
0.0156541
0.0156543
0.0156546
0.0156547
0.0156548
0.0156549
0.015655
0.0156551
0.0156551
0.0156552
0.0156552
0.0156552
0.0156552
0.0156552
0.0156552
0.0156551
0.0156551
0.015655
0.0156549
0.0156548
0.0156547
0.0156546
0.0156543
0.0156541
0.0156538
0.0156534
0.0156529
0.0156522
0.0156514
0.0156504
0.0156492
0.0156477
0.0156458
0.0156434
0.0156405
0.015637
0.0156328
0.0156277
0.0156217
0.0156146
0.0156066
0.0155973
0.0169895
0.0170005
0.0170101
0.0170184
0.0170256
0.0170317
0.0170367
0.0170409
0.0170443
0.0170471
0.0170494
0.0170512
0.0170527
0.0170539
0.0170548
0.0170556
0.0170562
0.0170567
0.0170571
0.0170574
0.0170576
0.0170578
0.0170579
0.0170581
0.0170582
0.0170582
0.0170583
0.0170583
0.0170584
0.0170584
0.0170584
0.0170584
0.0170583
0.0170583
0.0170582
0.0170582
0.0170581
0.0170579
0.0170578
0.0170576
0.0170574
0.0170571
0.0170567
0.0170562
0.0170556
0.0170548
0.0170539
0.0170527
0.0170512
0.0170494
0.0170471
0.0170443
0.0170409
0.0170367
0.0170317
0.0170256
0.0170184
0.0170101
0.0170005
0.0169895
0.0188047
0.0188181
0.0188298
0.0188401
0.0188488
0.0188562
0.0188624
0.0188676
0.0188718
0.0188752
0.018878
0.0188802
0.018882
0.0188835
0.0188846
0.0188855
0.0188863
0.0188869
0.0188873
0.0188877
0.018888
0.0188883
0.0188884
0.0188886
0.0188887
0.0188888
0.0188889
0.0188889
0.0188889
0.018889
0.018889
0.0188889
0.0188889
0.0188889
0.0188888
0.0188887
0.0188886
0.0188884
0.0188883
0.018888
0.0188877
0.0188873
0.0188869
0.0188863
0.0188855
0.0188846
0.0188835
0.018882
0.0188802
0.018878
0.0188752
0.0188718
0.0188676
0.0188624
0.0188562
0.0188488
0.0188401
0.0188298
0.0188181
0.0188047
0.0212204
0.0212372
0.0212518
0.0212647
0.0212757
0.021285
0.0212928
0.0212993
0.0213045
0.0213089
0.0213123
0.0213152
0.0213174
0.0213193
0.0213207
0.0213219
0.0213228
0.0213235
0.0213241
0.0213246
0.021325
0.0213253
0.0213255
0.0213257
0.0213259
0.021326
0.0213261
0.0213261
0.0213262
0.0213262
0.0213262
0.0213262
0.0213261
0.0213261
0.021326
0.0213259
0.0213257
0.0213255
0.0213253
0.021325
0.0213246
0.0213241
0.0213235
0.0213228
0.0213219
0.0213207
0.0213193
0.0213174
0.0213152
0.0213123
0.0213089
0.0213045
0.0212993
0.0212928
0.021285
0.0212757
0.0212647
0.0212518
0.0212372
0.0212204
0.0244642
0.0244855
0.0245042
0.0245206
0.0245347
0.0245466
0.0245565
0.0245648
0.0245715
0.0245771
0.0245815
0.0245851
0.024588
0.0245904
0.0245922
0.0245937
0.0245949
0.0245959
0.0245966
0.0245972
0.0245977
0.0245981
0.0245984
0.0245986
0.0245988
0.024599
0.0245991
0.0245992
0.0245992
0.0245992
0.0245992
0.0245992
0.0245992
0.0245991
0.024599
0.0245988
0.0245986
0.0245984
0.0245981
0.0245977
0.0245972
0.0245966
0.0245959
0.0245949
0.0245937
0.0245922
0.0245904
0.024588
0.0245851
0.0245815
0.0245771
0.0245715
0.0245648
0.0245565
0.0245466
0.0245347
0.0245206
0.0245042
0.0244855
0.0244642
0.0287823
0.0288094
0.0288334
0.0288543
0.0288723
0.0288876
0.0289003
0.0289108
0.0289195
0.0289266
0.0289323
0.0289369
0.0289406
0.0289436
0.028946
0.0289479
0.0289494
0.0289506
0.0289516
0.0289524
0.028953
0.0289535
0.0289539
0.0289542
0.0289545
0.0289546
0.0289548
0.0289549
0.0289549
0.028955
0.028955
0.0289549
0.0289549
0.0289548
0.0289546
0.0289545
0.0289542
0.0289539
0.0289535
0.028953
0.0289524
0.0289516
0.0289506
0.0289494
0.0289479
0.028946
0.0289436
0.0289406
0.0289369
0.0289323
0.0289266
0.0289195
0.0289108
0.0289003
0.0288876
0.0288723
0.0288543
0.0288334
0.0288094
0.0287823
0.0343723
0.0344064
0.0344365
0.0344628
0.0344854
0.0345046
0.0345206
0.0345339
0.0345447
0.0345536
0.0345608
0.0345666
0.0345713
0.0345751
0.0345781
0.0345805
0.0345824
0.034584
0.0345852
0.0345862
0.034587
0.0345876
0.0345881
0.0345885
0.0345888
0.034589
0.0345892
0.0345893
0.0345894
0.0345894
0.0345894
0.0345894
0.0345893
0.0345892
0.034589
0.0345888
0.0345885
0.0345881
0.0345876
0.034587
0.0345862
0.0345852
0.034584
0.0345824
0.0345805
0.0345781
0.0345751
0.0345713
0.0345666
0.0345608
0.0345536
0.0345447
0.0345339
0.0345206
0.0345046
0.0344854
0.0344628
0.0344365
0.0344064
0.0343723
0.041305
0.0413467
0.0413834
0.0414155
0.0414432
0.0414665
0.041486
0.0415022
0.0415155
0.0415263
0.0415351
0.0415422
0.041548
0.0415526
0.0415563
0.0415592
0.0415616
0.0415635
0.041565
0.0415662
0.0415672
0.0415679
0.0415685
0.041569
0.0415694
0.0415697
0.0415699
0.04157
0.0415701
0.0415702
0.0415702
0.0415701
0.04157
0.0415699
0.0415697
0.0415694
0.041569
0.0415685
0.0415679
0.0415672
0.0415662
0.041565
0.0415635
0.0415616
0.0415592
0.0415563
0.0415526
0.041548
0.0415422
0.0415351
0.0415263
0.0415155
0.0415022
0.041486
0.0414665
0.0414432
0.0414155
0.0413834
0.0413467
0.041305
0.049489
0.0495383
0.0495817
0.0496195
0.049652
0.0496795
0.0497025
0.0497216
0.0497372
0.04975
0.0497604
0.0497688
0.0497756
0.049781
0.0497854
0.0497889
0.0497917
0.0497939
0.0497957
0.0497972
0.0497983
0.0497992
0.0497999
0.0498005
0.049801
0.0498013
0.0498016
0.0498017
0.0498019
0.0498019
0.0498019
0.0498019
0.0498017
0.0498016
0.0498013
0.049801
0.0498005
0.0497999
0.0497992
0.0497983
0.0497972
0.0497957
0.0497939
0.0497917
0.0497889
0.0497854
0.049781
0.0497756
0.0497688
0.0497604
0.04975
0.0497372
0.0497216
0.0497025
0.0496795
0.049652
0.0496195
0.0495817
0.0495383
0.049489
0.0587083
0.0587648
0.0588143
0.0588574
0.0588945
0.0589258
0.058952
0.0589738
0.0589916
0.0590063
0.0590181
0.0590277
0.0590355
0.0590417
0.0590468
0.0590508
0.059054
0.0590566
0.0590586
0.0590603
0.0590616
0.0590627
0.0590635
0.0590642
0.0590647
0.0590651
0.0590654
0.0590656
0.0590657
0.0590658
0.0590658
0.0590657
0.0590656
0.0590654
0.0590651
0.0590647
0.0590642
0.0590635
0.0590627
0.0590616
0.0590603
0.0590586
0.0590566
0.059054
0.0590508
0.0590468
0.0590417
0.0590355
0.0590277
0.0590181
0.0590063
0.0589916
0.0589738
0.058952
0.0589258
0.0588945
0.0588574
0.0588143
0.0587648
0.0587083
0.0687056
0.0687687
0.0688238
0.0688717
0.0689129
0.0689477
0.0689769
0.0690011
0.069021
0.0690373
0.0690505
0.0690612
0.0690699
0.0690769
0.0690825
0.069087
0.0690906
0.0690935
0.0690958
0.0690977
0.0690992
0.0691004
0.0691013
0.069102
0.0691026
0.0691031
0.0691034
0.0691036
0.0691038
0.0691039
0.0691039
0.0691038
0.0691036
0.0691034
0.0691031
0.0691026
0.069102
0.0691013
0.0691004
0.0690992
0.0690977
0.0690958
0.0690935
0.0690906
0.069087
0.0690825
0.0690769
0.0690699
0.0690612
0.0690505
0.0690373
0.069021
0.0690011
0.0689769
0.0689477
0.0689129
0.0688717
0.0688238
0.0687687
0.0687056
0.0792562
0.0793254
0.0793856
0.0794379
0.0794828
0.0795208
0.0795527
0.0795791
0.0796009
0.0796188
0.0796333
0.0796451
0.0796546
0.0796623
0.0796685
0.0796734
0.0796774
0.0796806
0.0796832
0.0796852
0.0796869
0.0796882
0.0796892
0.07969
0.0796907
0.0796912
0.0796916
0.0796918
0.079692
0.0796921
0.0796921
0.079692
0.0796918
0.0796916
0.0796912
0.0796907
0.07969
0.0796892
0.0796882
0.0796869
0.0796852
0.0796832
0.0796806
0.0796774
0.0796734
0.0796685
0.0796623
0.0796546
0.0796451
0.0796333
0.0796188
0.0796009
0.0795791
0.0795527
0.0795208
0.0794828
0.0794379
0.0793856
0.0793254
0.0792562
0.0901986
0.0902735
0.0903385
0.0903949
0.0904433
0.0904843
0.0905187
0.0905473
0.0905709
0.0905902
0.0906059
0.0906187
0.0906291
0.0906374
0.0906441
0.0906496
0.0906539
0.0906574
0.0906602
0.0906625
0.0906643
0.0906657
0.0906669
0.0906678
0.0906685
0.090669
0.0906694
0.0906697
0.0906699
0.09067
0.09067
0.0906699
0.0906697
0.0906694
0.090669
0.0906685
0.0906678
0.0906669
0.0906657
0.0906643
0.0906625
0.0906602
0.0906574
0.0906539
0.0906496
0.0906441
0.0906374
0.0906291
0.0906187
0.0906059
0.0905902
0.0905709
0.0905473
0.0905187
0.0904843
0.0904433
0.0903949
0.0903385
0.0902735
0.0901986
0.10143
0.101511
0.10158
0.101641
0.101692
0.101736
0.101773
0.101804
0.101829
0.10185
0.101867
0.10188
0.101892
0.101901
0.101908
0.101914
0.101919
0.101922
0.101925
0.101928
0.10193
0.101931
0.101933
0.101934
0.101934
0.101935
0.101935
0.101936
0.101936
0.101936
0.101936
0.101936
0.101936
0.101935
0.101935
0.101934
0.101934
0.101933
0.101931
0.10193
0.101928
0.101925
0.101922
0.101919
0.101914
0.101908
0.101901
0.101892
0.10188
0.101867
0.10185
0.101829
0.101804
0.101773
0.101736
0.101692
0.101641
0.10158
0.101511
0.10143
0.11289
0.112975
0.113049
0.113113
0.113169
0.113215
0.113255
0.113287
0.113314
0.113336
0.113355
0.113369
0.113381
0.113391
0.113399
0.113405
0.11341
0.113414
0.113418
0.11342
0.113422
0.113424
0.113426
0.113427
0.113427
0.113428
0.113429
0.113429
0.113429
0.113429
0.113429
0.113429
0.113429
0.113429
0.113428
0.113427
0.113427
0.113426
0.113424
0.113422
0.11342
0.113418
0.113414
0.11341
0.113405
0.113399
0.113391
0.113381
0.113369
0.113355
0.113336
0.113314
0.113287
0.113255
0.113215
0.113169
0.113113
0.113049
0.112975
0.11289
0.12454
0.12463
0.124709
0.124777
0.124835
0.124884
0.124926
0.124961
0.12499
0.125013
0.125033
0.125048
0.125061
0.125072
0.12508
0.125087
0.125092
0.125097
0.1251
0.125103
0.125105
0.125107
0.125109
0.12511
0.125111
0.125111
0.125112
0.125112
0.125113
0.125113
0.125113
0.125113
0.125112
0.125112
0.125111
0.125111
0.12511
0.125109
0.125107
0.125105
0.125103
0.1251
0.125097
0.125092
0.125087
0.12508
0.125072
0.125061
0.125048
0.125033
0.125013
0.12499
0.124961
0.124926
0.124884
0.124835
0.124777
0.124709
0.12463
0.12454
0.136356
0.136451
0.136534
0.136606
0.136667
0.13672
0.136764
0.136801
0.136831
0.136856
0.136877
0.136894
0.136907
0.136918
0.136927
0.136935
0.13694
0.136945
0.136949
0.136952
0.136954
0.136956
0.136958
0.136959
0.13696
0.136961
0.136962
0.136962
0.136962
0.136962
0.136962
0.136962
0.136962
0.136962
0.136961
0.13696
0.136959
0.136958
0.136956
0.136954
0.136952
0.136949
0.136945
0.13694
0.136935
0.136927
0.136918
0.136907
0.136894
0.136877
0.136856
0.136831
0.136801
0.136764
0.13672
0.136667
0.136606
0.136534
0.136451
0.136356
0.148321
0.148422
0.148509