/*--------------------------------*- C++ -*----------------------------------*\
| =========                 |                                                 |
| \\      /  F ield         | foam-extend: Open Source CFD                    |
|  \\    /   O peration     | Version:     4.0                                |
|   \\  /    A nd           | Web:         http://www.foam-extend.org         |
|    \\/     M anipulation  |                                                 |
\*---------------------------------------------------------------------------*/
FoamFile
{
    version     2.0;
    format      ascii;
    class       volScalarField;
    location    "2";
    object      netCharge;
}
// * * * * * * * * * * * * * * * * * * * * * * * * * * * * * * * * * * * * * //

dimensions      [0 -3 1 0 0 1 0];

internalField   nonuniform List<scalar> 
6960
(
1.38525e-19
1.38525e-19
1.38525e-19
1.38525e-19
1.38525e-19
1.38525e-19
1.38525e-19
1.38524e-19
1.38524e-19
1.38524e-19
1.38523e-19
1.38523e-19
1.38523e-19
1.38522e-19
1.38522e-19
1.38521e-19
1.38521e-19
1.3852e-19
1.3852e-19
1.38519e-19
1.38519e-19
1.38518e-19
1.38518e-19
1.38517e-19
1.38517e-19
1.38517e-19
1.38516e-19
1.38516e-19
1.38515e-19
1.38515e-19
1.38515e-19
1.38515e-19
1.38514e-19
1.38514e-19
1.38514e-19
1.38514e-19
1.38514e-19
1.38514e-19
1.38514e-19
1.38514e-19
1.38514e-19
1.38514e-19
1.38514e-19
1.38514e-19
1.38514e-19
1.38514e-19
1.38514e-19
1.38514e-19
1.38514e-19
1.38514e-19
1.38514e-19
1.38514e-19
1.38514e-19
1.38514e-19
1.38515e-19
1.38515e-19
1.38515e-19
1.38515e-19
1.38515e-19
1.38515e-19
1.38481e-19
1.38481e-19
1.38481e-19
1.38481e-19
1.38481e-19
1.3848e-19
1.3848e-19
1.3848e-19
1.3848e-19
1.38479e-19
1.38479e-19
1.38479e-19
1.38478e-19
1.38478e-19
1.38477e-19
1.38477e-19
1.38476e-19
1.38476e-19
1.38475e-19
1.38475e-19
1.38474e-19
1.38474e-19
1.38474e-19
1.38473e-19
1.38473e-19
1.38472e-19
1.38472e-19
1.38472e-19
1.38471e-19
1.38471e-19
1.38471e-19
1.3847e-19
1.3847e-19
1.3847e-19
1.3847e-19
1.3847e-19
1.3847e-19
1.38469e-19
1.38469e-19
1.38469e-19
1.38469e-19
1.38469e-19
1.38469e-19
1.38469e-19
1.3847e-19
1.3847e-19
1.3847e-19
1.3847e-19
1.3847e-19
1.3847e-19
1.3847e-19
1.3847e-19
1.3847e-19
1.3847e-19
1.3847e-19
1.3847e-19
1.3847e-19
1.3847e-19
1.3847e-19
1.3847e-19
1.38435e-19
1.38435e-19
1.38435e-19
1.38435e-19
1.38435e-19
1.38435e-19
1.38435e-19
1.38434e-19
1.38434e-19
1.38434e-19
1.38433e-19
1.38433e-19
1.38432e-19
1.38432e-19
1.38432e-19
1.38431e-19
1.38431e-19
1.3843e-19
1.3843e-19
1.38429e-19
1.38429e-19
1.38428e-19
1.38428e-19
1.38427e-19
1.38427e-19
1.38427e-19
1.38426e-19
1.38426e-19
1.38425e-19
1.38425e-19
1.38425e-19
1.38425e-19
1.38424e-19
1.38424e-19
1.38424e-19
1.38424e-19
1.38424e-19
1.38424e-19
1.38424e-19
1.38424e-19
1.38424e-19
1.38424e-19
1.38424e-19
1.38424e-19
1.38424e-19
1.38424e-19
1.38424e-19
1.38424e-19
1.38424e-19
1.38424e-19
1.38424e-19
1.38424e-19
1.38425e-19
1.38425e-19
1.38425e-19
1.38425e-19
1.38425e-19
1.38425e-19
1.38425e-19
1.38425e-19
1.38388e-19
1.38388e-19
1.38388e-19
1.38388e-19
1.38388e-19
1.38388e-19
1.38387e-19
1.38387e-19
1.38387e-19
1.38386e-19
1.38386e-19
1.38386e-19
1.38385e-19
1.38385e-19
1.38384e-19
1.38384e-19
1.38383e-19
1.38383e-19
1.38382e-19
1.38382e-19
1.38382e-19
1.38381e-19
1.38381e-19
1.3838e-19
1.3838e-19
1.38379e-19
1.38379e-19
1.38379e-19
1.38378e-19
1.38378e-19
1.38378e-19
1.38377e-19
1.38377e-19
1.38377e-19
1.38377e-19
1.38377e-19
1.38377e-19
1.38377e-19
1.38377e-19
1.38377e-19
1.38377e-19
1.38377e-19
1.38377e-19
1.38377e-19
1.38377e-19
1.38377e-19
1.38377e-19
1.38377e-19
1.38377e-19
1.38377e-19
1.38377e-19
1.38377e-19
1.38377e-19
1.38378e-19
1.38378e-19
1.38378e-19
1.38378e-19
1.38378e-19
1.38378e-19
1.38378e-19
1.38339e-19
1.38339e-19
1.38339e-19
1.38339e-19
1.38339e-19
1.38339e-19
1.38339e-19
1.38338e-19
1.38338e-19
1.38338e-19
1.38337e-19
1.38337e-19
1.38337e-19
1.38336e-19
1.38336e-19
1.38335e-19
1.38335e-19
1.38334e-19
1.38334e-19
1.38333e-19
1.38333e-19
1.38332e-19
1.38332e-19
1.38331e-19
1.38331e-19
1.38331e-19
1.3833e-19
1.3833e-19
1.3833e-19
1.38329e-19
1.38329e-19
1.38329e-19
1.38329e-19
1.38328e-19
1.38328e-19
1.38328e-19
1.38328e-19
1.38328e-19
1.38328e-19
1.38328e-19
1.38328e-19
1.38328e-19
1.38328e-19
1.38328e-19
1.38328e-19
1.38328e-19
1.38328e-19
1.38328e-19
1.38328e-19
1.38329e-19
1.38329e-19
1.38329e-19
1.38329e-19
1.38329e-19
1.38329e-19
1.38329e-19
1.38329e-19
1.38329e-19
1.38329e-19
1.38329e-19
1.38289e-19
1.38289e-19
1.38289e-19
1.38289e-19
1.38289e-19
1.38289e-19
1.38288e-19
1.38288e-19
1.38288e-19
1.38287e-19
1.38287e-19
1.38287e-19
1.38286e-19
1.38286e-19
1.38285e-19
1.38285e-19
1.38284e-19
1.38284e-19
1.38283e-19
1.38283e-19
1.38282e-19
1.38282e-19
1.38282e-19
1.38281e-19
1.38281e-19
1.3828e-19
1.3828e-19
1.3828e-19
1.38279e-19
1.38279e-19
1.38279e-19
1.38278e-19
1.38278e-19
1.38278e-19
1.38278e-19
1.38278e-19
1.38278e-19
1.38278e-19
1.38278e-19
1.38278e-19
1.38278e-19
1.38278e-19
1.38278e-19
1.38278e-19
1.38278e-19
1.38278e-19
1.38278e-19
1.38278e-19
1.38278e-19
1.38278e-19
1.38278e-19
1.38279e-19
1.38279e-19
1.38279e-19
1.38279e-19
1.38279e-19
1.38279e-19
1.38279e-19
1.38279e-19
1.38279e-19
1.38237e-19
1.38237e-19
1.38237e-19
1.38237e-19
1.38237e-19
1.38237e-19
1.38236e-19
1.38236e-19
1.38236e-19
1.38236e-19
1.38235e-19
1.38235e-19
1.38234e-19
1.38234e-19
1.38233e-19
1.38233e-19
1.38232e-19
1.38232e-19
1.38232e-19
1.38231e-19
1.38231e-19
1.3823e-19
1.3823e-19
1.38229e-19
1.38229e-19
1.38228e-19
1.38228e-19
1.38228e-19
1.38227e-19
1.38227e-19
1.38227e-19
1.38227e-19
1.38226e-19
1.38226e-19
1.38226e-19
1.38226e-19
1.38226e-19
1.38226e-19
1.38226e-19
1.38226e-19
1.38226e-19
1.38226e-19
1.38226e-19
1.38226e-19
1.38226e-19
1.38226e-19
1.38226e-19
1.38226e-19
1.38226e-19
1.38227e-19
1.38227e-19
1.38227e-19
1.38227e-19
1.38227e-19
1.38227e-19
1.38227e-19
1.38227e-19
1.38227e-19
1.38227e-19
1.38227e-19
1.38183e-19
1.38183e-19
1.38183e-19
1.38183e-19
1.38183e-19
1.38183e-19
1.38183e-19
1.38183e-19
1.38182e-19
1.38182e-19
1.38182e-19
1.38181e-19
1.38181e-19
1.3818e-19
1.3818e-19
1.38179e-19
1.38179e-19
1.38178e-19
1.38178e-19
1.38177e-19
1.38177e-19
1.38176e-19
1.38176e-19
1.38176e-19
1.38175e-19
1.38175e-19
1.38174e-19
1.38174e-19
1.38174e-19
1.38173e-19
1.38173e-19
1.38173e-19
1.38173e-19
1.38173e-19
1.38172e-19
1.38172e-19
1.38172e-19
1.38172e-19
1.38172e-19
1.38172e-19
1.38172e-19
1.38172e-19
1.38172e-19
1.38172e-19
1.38172e-19
1.38173e-19
1.38173e-19
1.38173e-19
1.38173e-19
1.38173e-19
1.38173e-19
1.38173e-19
1.38173e-19
1.38173e-19
1.38174e-19
1.38174e-19
1.38174e-19
1.38174e-19
1.38174e-19
1.38174e-19
1.38128e-19
1.38128e-19
1.38128e-19
1.38128e-19
1.38128e-19
1.38128e-19
1.38127e-19
1.38127e-19
1.38127e-19
1.38127e-19
1.38126e-19
1.38126e-19
1.38125e-19
1.38125e-19
1.38124e-19
1.38124e-19
1.38123e-19
1.38123e-19
1.38123e-19
1.38122e-19
1.38122e-19
1.38121e-19
1.38121e-19
1.3812e-19
1.3812e-19
1.38119e-19
1.38119e-19
1.38119e-19
1.38118e-19
1.38118e-19
1.38118e-19
1.38118e-19
1.38117e-19
1.38117e-19
1.38117e-19
1.38117e-19
1.38117e-19
1.38117e-19
1.38117e-19
1.38117e-19
1.38117e-19
1.38117e-19
1.38117e-19
1.38117e-19
1.38117e-19
1.38117e-19
1.38117e-19
1.38118e-19
1.38118e-19
1.38118e-19
1.38118e-19
1.38118e-19
1.38118e-19
1.38118e-19
1.38118e-19
1.38118e-19
1.38118e-19
1.38118e-19
1.38118e-19
1.38118e-19
1.38071e-19
1.38071e-19
1.38071e-19
1.38071e-19
1.38071e-19
1.3807e-19
1.3807e-19
1.3807e-19
1.3807e-19
1.38069e-19
1.38069e-19
1.38069e-19
1.38068e-19
1.38068e-19
1.38067e-19
1.38067e-19
1.38066e-19
1.38066e-19
1.38065e-19
1.38065e-19
1.38064e-19
1.38064e-19
1.38063e-19
1.38063e-19
1.38063e-19
1.38062e-19
1.38062e-19
1.38061e-19
1.38061e-19
1.38061e-19
1.38061e-19
1.3806e-19
1.3806e-19
1.3806e-19
1.3806e-19
1.3806e-19
1.3806e-19
1.3806e-19
1.3806e-19
1.3806e-19
1.3806e-19
1.3806e-19
1.3806e-19
1.3806e-19
1.3806e-19
1.3806e-19
1.3806e-19
1.3806e-19
1.38061e-19
1.38061e-19
1.38061e-19
1.38061e-19
1.38061e-19
1.38061e-19
1.38061e-19
1.38061e-19
1.38061e-19
1.38061e-19
1.38061e-19
1.38061e-19
1.38012e-19
1.38012e-19
1.38012e-19
1.38012e-19
1.38012e-19
1.38011e-19
1.38011e-19
1.38011e-19
1.38011e-19
1.3801e-19
1.3801e-19
1.3801e-19
1.38009e-19
1.38009e-19
1.38008e-19
1.38008e-19
1.38007e-19
1.38007e-19
1.38006e-19
1.38006e-19
1.38005e-19
1.38005e-19
1.38004e-19
1.38004e-19
1.38004e-19
1.38003e-19
1.38003e-19
1.38002e-19
1.38002e-19
1.38002e-19
1.38002e-19
1.38001e-19
1.38001e-19
1.38001e-19
1.38001e-19
1.38001e-19
1.38001e-19
1.38001e-19
1.38001e-19
1.38001e-19
1.38001e-19
1.38001e-19
1.38001e-19
1.38001e-19
1.38001e-19
1.38001e-19
1.38001e-19
1.38002e-19
1.38002e-19
1.38002e-19
1.38002e-19
1.38002e-19
1.38002e-19
1.38002e-19
1.38002e-19
1.38002e-19
1.38002e-19
1.38003e-19
1.38003e-19
1.38003e-19
1.37951e-19
1.37951e-19
1.37951e-19
1.37951e-19
1.37951e-19
1.3795e-19
1.3795e-19
1.3795e-19
1.3795e-19
1.37949e-19
1.37949e-19
1.37949e-19
1.37948e-19
1.37948e-19
1.37947e-19
1.37947e-19
1.37946e-19
1.37946e-19
1.37945e-19
1.37945e-19
1.37944e-19
1.37944e-19
1.37943e-19
1.37943e-19
1.37943e-19
1.37942e-19
1.37942e-19
1.37941e-19
1.37941e-19
1.37941e-19
1.37941e-19
1.3794e-19
1.3794e-19
1.3794e-19
1.3794e-19
1.3794e-19
1.3794e-19
1.3794e-19
1.3794e-19
1.3794e-19
1.3794e-19
1.3794e-19
1.3794e-19
1.3794e-19
1.3794e-19
1.3794e-19
1.37941e-19
1.37941e-19
1.37941e-19
1.37941e-19
1.37941e-19
1.37941e-19
1.37941e-19
1.37941e-19
1.37942e-19
1.37942e-19
1.37942e-19
1.37942e-19
1.37942e-19
1.37942e-19
1.37888e-19
1.37888e-19
1.37888e-19
1.37888e-19
1.37888e-19
1.37888e-19
1.37887e-19
1.37887e-19
1.37887e-19
1.37886e-19
1.37886e-19
1.37886e-19
1.37885e-19
1.37885e-19
1.37884e-19
1.37884e-19
1.37883e-19
1.37883e-19
1.37882e-19
1.37882e-19
1.37881e-19
1.37881e-19
1.3788e-19
1.3788e-19
1.3788e-19
1.37879e-19
1.37879e-19
1.37878e-19
1.37878e-19
1.37878e-19
1.37878e-19
1.37877e-19
1.37877e-19
1.37877e-19
1.37877e-19
1.37877e-19
1.37877e-19
1.37877e-19
1.37877e-19
1.37877e-19
1.37877e-19
1.37877e-19
1.37877e-19
1.37877e-19
1.37877e-19
1.37878e-19
1.37878e-19
1.37878e-19
1.37878e-19
1.37878e-19
1.37878e-19
1.37878e-19
1.37878e-19
1.37879e-19
1.37879e-19
1.37879e-19
1.37879e-19
1.37879e-19
1.37879e-19
1.37879e-19
1.37823e-19
1.37823e-19
1.37823e-19
1.37823e-19
1.37823e-19
1.37822e-19
1.37822e-19
1.37822e-19
1.37822e-19
1.37821e-19
1.37821e-19
1.37821e-19
1.3782e-19
1.3782e-19
1.37819e-19
1.37819e-19
1.37818e-19
1.37818e-19
1.37817e-19
1.37817e-19
1.37816e-19
1.37816e-19
1.37815e-19
1.37815e-19
1.37815e-19
1.37814e-19
1.37814e-19
1.37813e-19
1.37813e-19
1.37813e-19
1.37813e-19
1.37812e-19
1.37812e-19
1.37812e-19
1.37812e-19
1.37812e-19
1.37812e-19
1.37812e-19
1.37812e-19
1.37812e-19
1.37812e-19
1.37812e-19
1.37812e-19
1.37812e-19
1.37812e-19
1.37813e-19
1.37813e-19
1.37813e-19
1.37813e-19
1.37813e-19
1.37813e-19
1.37813e-19
1.37814e-19
1.37814e-19
1.37814e-19
1.37814e-19
1.37814e-19
1.37814e-19
1.37814e-19
1.37814e-19
1.37756e-19
1.37756e-19
1.37756e-19
1.37756e-19
1.37755e-19
1.37755e-19
1.37755e-19
1.37755e-19
1.37754e-19
1.37754e-19
1.37754e-19
1.37753e-19
1.37753e-19
1.37752e-19
1.37752e-19
1.37751e-19
1.37751e-19
1.3775e-19
1.3775e-19
1.3775e-19
1.37749e-19
1.37749e-19
1.37748e-19
1.37748e-19
1.37747e-19
1.37747e-19
1.37747e-19
1.37746e-19
1.37746e-19
1.37746e-19
1.37745e-19
1.37745e-19
1.37745e-19
1.37745e-19
1.37745e-19
1.37745e-19
1.37745e-19
1.37745e-19
1.37745e-19
1.37745e-19
1.37745e-19
1.37745e-19
1.37745e-19
1.37745e-19
1.37745e-19
1.37745e-19
1.37746e-19
1.37746e-19
1.37746e-19
1.37746e-19
1.37746e-19
1.37746e-19
1.37746e-19
1.37747e-19
1.37747e-19
1.37747e-19
1.37747e-19
1.37747e-19
1.37747e-19
1.37747e-19
1.37686e-19
1.37686e-19
1.37686e-19
1.37686e-19
1.37686e-19
1.37686e-19
1.37686e-19
1.37685e-19
1.37685e-19
1.37685e-19
1.37684e-19
1.37684e-19
1.37683e-19
1.37683e-19
1.37683e-19
1.37682e-19
1.37682e-19
1.37681e-19
1.37681e-19
1.3768e-19
1.3768e-19
1.37679e-19
1.37679e-19
1.37678e-19
1.37678e-19
1.37677e-19
1.37677e-19
1.37677e-19
1.37676e-19
1.37676e-19
1.37676e-19
1.37676e-19
1.37676e-19
1.37676e-19
1.37675e-19
1.37675e-19
1.37675e-19
1.37675e-19
1.37675e-19
1.37675e-19
1.37676e-19
1.37676e-19
1.37676e-19
1.37676e-19
1.37676e-19
1.37676e-19
1.37676e-19
1.37676e-19
1.37677e-19
1.37677e-19
1.37677e-19
1.37677e-19
1.37677e-19
1.37677e-19
1.37677e-19
1.37678e-19
1.37678e-19
1.37678e-19
1.37678e-19
1.37678e-19
1.37615e-19
1.37615e-19
1.37615e-19
1.37614e-19
1.37614e-19
1.37614e-19
1.37614e-19
1.37614e-19
1.37613e-19
1.37613e-19
1.37613e-19
1.37612e-19
1.37612e-19
1.37611e-19
1.37611e-19
1.3761e-19
1.3761e-19
1.37609e-19
1.37609e-19
1.37608e-19
1.37608e-19
1.37607e-19
1.37607e-19
1.37606e-19
1.37606e-19
1.37606e-19
1.37605e-19
1.37605e-19
1.37605e-19
1.37604e-19
1.37604e-19
1.37604e-19
1.37604e-19
1.37604e-19
1.37604e-19
1.37604e-19
1.37604e-19
1.37604e-19
1.37604e-19
1.37604e-19
1.37604e-19
1.37604e-19
1.37604e-19
1.37604e-19
1.37604e-19
1.37605e-19
1.37605e-19
1.37605e-19
1.37605e-19
1.37605e-19
1.37605e-19
1.37605e-19
1.37606e-19
1.37606e-19
1.37606e-19
1.37606e-19
1.37606e-19
1.37606e-19
1.37606e-19
1.37606e-19
1.3754e-19
1.3754e-19
1.3754e-19
1.3754e-19
1.3754e-19
1.3754e-19
1.3754e-19
1.37539e-19
1.37539e-19
1.37539e-19
1.37538e-19
1.37538e-19
1.37538e-19
1.37537e-19
1.37537e-19
1.37536e-19
1.37536e-19
1.37535e-19
1.37535e-19
1.37534e-19
1.37534e-19
1.37533e-19
1.37533e-19
1.37532e-19
1.37532e-19
1.37532e-19
1.37531e-19
1.37531e-19
1.37531e-19
1.3753e-19
1.3753e-19
1.3753e-19
1.3753e-19
1.3753e-19
1.3753e-19
1.3753e-19
1.3753e-19
1.3753e-19
1.3753e-19
1.3753e-19
1.3753e-19
1.3753e-19
1.3753e-19
1.3753e-19
1.3753e-19
1.37531e-19
1.37531e-19
1.37531e-19
1.37531e-19
1.37531e-19
1.37531e-19
1.37531e-19
1.37532e-19
1.37532e-19
1.37532e-19
1.37532e-19
1.37532e-19
1.37532e-19
1.37532e-19
1.37532e-19
1.37464e-19
1.37464e-19
1.37464e-19
1.37464e-19
1.37464e-19
1.37463e-19
1.37463e-19
1.37463e-19
1.37463e-19
1.37462e-19
1.37462e-19
1.37461e-19
1.37461e-19
1.3746e-19
1.3746e-19
1.37459e-19
1.37459e-19
1.37459e-19
1.37458e-19
1.37458e-19
1.37457e-19
1.37457e-19
1.37456e-19
1.37456e-19
1.37455e-19
1.37455e-19
1.37455e-19
1.37454e-19
1.37454e-19
1.37454e-19
1.37454e-19
1.37453e-19
1.37453e-19
1.37453e-19
1.37453e-19
1.37453e-19
1.37453e-19
1.37453e-19
1.37453e-19
1.37453e-19
1.37453e-19
1.37453e-19
1.37454e-19
1.37454e-19
1.37454e-19
1.37454e-19
1.37454e-19
1.37454e-19
1.37455e-19
1.37455e-19
1.37455e-19
1.37455e-19
1.37455e-19
1.37455e-19
1.37455e-19
1.37456e-19
1.37456e-19
1.37456e-19
1.37456e-19
1.37456e-19
1.37385e-19
1.37385e-19
1.37385e-19
1.37385e-19
1.37384e-19
1.37384e-19
1.37384e-19
1.37384e-19
1.37383e-19
1.37383e-19
1.37383e-19
1.37382e-19
1.37382e-19
1.37381e-19
1.37381e-19
1.3738e-19
1.3738e-19
1.37379e-19
1.37379e-19
1.37378e-19
1.37378e-19
1.37377e-19
1.37377e-19
1.37377e-19
1.37376e-19
1.37376e-19
1.37375e-19
1.37375e-19
1.37375e-19
1.37375e-19
1.37374e-19
1.37374e-19
1.37374e-19
1.37374e-19
1.37374e-19
1.37374e-19
1.37374e-19
1.37374e-19
1.37374e-19
1.37374e-19
1.37374e-19
1.37374e-19
1.37374e-19
1.37375e-19
1.37375e-19
1.37375e-19
1.37375e-19
1.37375e-19
1.37376e-19
1.37376e-19
1.37376e-19
1.37376e-19
1.37376e-19
1.37376e-19
1.37376e-19
1.37377e-19
1.37377e-19
1.37377e-19
1.37377e-19
1.37377e-19
1.37303e-19
1.37303e-19
1.37303e-19
1.37303e-19
1.37303e-19
1.37302e-19
1.37302e-19
1.37302e-19
1.37301e-19
1.37301e-19
1.37301e-19
1.373e-19
1.373e-19
1.37299e-19
1.37299e-19
1.37298e-19
1.37298e-19
1.37297e-19
1.37297e-19
1.37296e-19
1.37296e-19
1.37296e-19
1.37295e-19
1.37295e-19
1.37294e-19
1.37294e-19
1.37294e-19
1.37293e-19
1.37293e-19
1.37293e-19
1.37293e-19
1.37292e-19
1.37292e-19
1.37292e-19
1.37292e-19
1.37292e-19
1.37292e-19
1.37292e-19
1.37292e-19
1.37292e-19
1.37292e-19
1.37293e-19
1.37293e-19
1.37293e-19
1.37293e-19
1.37293e-19
1.37293e-19
1.37294e-19
1.37294e-19
1.37294e-19
1.37294e-19
1.37294e-19
1.37294e-19
1.37295e-19
1.37295e-19
1.37295e-19
1.37295e-19
1.37295e-19
1.37295e-19
1.37295e-19
1.37218e-19
1.37218e-19
1.37218e-19
1.37218e-19
1.37218e-19
1.37218e-19
1.37217e-19
1.37217e-19
1.37217e-19
1.37217e-19
1.37216e-19
1.37216e-19
1.37215e-19
1.37215e-19
1.37214e-19
1.37214e-19
1.37213e-19
1.37213e-19
1.37212e-19
1.37212e-19
1.37211e-19
1.37211e-19
1.3721e-19
1.3721e-19
1.3721e-19
1.37209e-19
1.37209e-19
1.37209e-19
1.37208e-19
1.37208e-19
1.37208e-19
1.37208e-19
1.37208e-19
1.37208e-19
1.37208e-19
1.37207e-19
1.37208e-19
1.37208e-19
1.37208e-19
1.37208e-19
1.37208e-19
1.37208e-19
1.37208e-19
1.37208e-19
1.37209e-19
1.37209e-19
1.37209e-19
1.37209e-19
1.37209e-19
1.3721e-19
1.3721e-19
1.3721e-19
1.3721e-19
1.3721e-19
1.3721e-19
1.3721e-19
1.3721e-19
1.37211e-19
1.37211e-19
1.37211e-19
1.37131e-19
1.37131e-19
1.37131e-19
1.37131e-19
1.3713e-19
1.3713e-19
1.3713e-19
1.3713e-19
1.37129e-19
1.37129e-19
1.37129e-19
1.37128e-19
1.37128e-19
1.37127e-19
1.37127e-19
1.37126e-19
1.37126e-19
1.37125e-19
1.37125e-19
1.37124e-19
1.37124e-19
1.37123e-19
1.37123e-19
1.37123e-19
1.37122e-19
1.37122e-19
1.37121e-19
1.37121e-19
1.37121e-19
1.37121e-19
1.3712e-19
1.3712e-19
1.3712e-19
1.3712e-19
1.3712e-19
1.3712e-19
1.3712e-19
1.3712e-19
1.3712e-19
1.3712e-19
1.3712e-19
1.37121e-19
1.37121e-19
1.37121e-19
1.37121e-19
1.37121e-19
1.37122e-19
1.37122e-19
1.37122e-19
1.37122e-19
1.37122e-19
1.37123e-19
1.37123e-19
1.37123e-19
1.37123e-19
1.37123e-19
1.37123e-19
1.37123e-19
1.37123e-19
1.37123e-19
1.3704e-19
1.3704e-19
1.3704e-19
1.3704e-19
1.3704e-19
1.3704e-19
1.3704e-19
1.37039e-19
1.37039e-19
1.37039e-19
1.37038e-19
1.37038e-19
1.37037e-19
1.37037e-19
1.37036e-19
1.37036e-19
1.37035e-19
1.37035e-19
1.37034e-19
1.37034e-19
1.37033e-19
1.37033e-19
1.37033e-19
1.37032e-19
1.37032e-19
1.37031e-19
1.37031e-19
1.37031e-19
1.3703e-19
1.3703e-19
1.3703e-19
1.3703e-19
1.3703e-19
1.3703e-19
1.3703e-19
1.3703e-19
1.3703e-19
1.3703e-19
1.3703e-19
1.3703e-19
1.3703e-19
1.3703e-19
1.3703e-19
1.37031e-19
1.37031e-19
1.37031e-19
1.37031e-19
1.37032e-19
1.37032e-19
1.37032e-19
1.37032e-19
1.37032e-19
1.37032e-19
1.37033e-19
1.37033e-19
1.37033e-19
1.37033e-19
1.37033e-19
1.37033e-19
1.37033e-19
1.36947e-19
1.36947e-19
1.36947e-19
1.36947e-19
1.36946e-19
1.36946e-19
1.36946e-19
1.36946e-19
1.36945e-19
1.36945e-19
1.36945e-19
1.36944e-19
1.36944e-19
1.36943e-19
1.36943e-19
1.36942e-19
1.36942e-19
1.36941e-19
1.36941e-19
1.3694e-19
1.3694e-19
1.36939e-19
1.36939e-19
1.36939e-19
1.36938e-19
1.36938e-19
1.36937e-19
1.36937e-19
1.36937e-19
1.36937e-19
1.36937e-19
1.36936e-19
1.36936e-19
1.36936e-19
1.36936e-19
1.36936e-19
1.36936e-19
1.36936e-19
1.36936e-19
1.36937e-19
1.36937e-19
1.36937e-19
1.36937e-19
1.36937e-19
1.36937e-19
1.36938e-19
1.36938e-19
1.36938e-19
1.36938e-19
1.36939e-19
1.36939e-19
1.36939e-19
1.36939e-19
1.36939e-19
1.36939e-19
1.3694e-19
1.3694e-19
1.3694e-19
1.3694e-19
1.3694e-19
1.3685e-19
1.3685e-19
1.3685e-19
1.3685e-19
1.3685e-19
1.3685e-19
1.36849e-19
1.36849e-19
1.36849e-19
1.36848e-19
1.36848e-19
1.36847e-19
1.36847e-19
1.36847e-19
1.36846e-19
1.36846e-19
1.36845e-19
1.36845e-19
1.36844e-19
1.36844e-19
1.36843e-19
1.36843e-19
1.36842e-19
1.36842e-19
1.36841e-19
1.36841e-19
1.36841e-19
1.3684e-19
1.3684e-19
1.3684e-19
1.3684e-19
1.3684e-19
1.3684e-19
1.3684e-19
1.36839e-19
1.36839e-19
1.3684e-19
1.3684e-19
1.3684e-19
1.3684e-19
1.3684e-19
1.3684e-19
1.3684e-19
1.36841e-19
1.36841e-19
1.36841e-19
1.36841e-19
1.36842e-19
1.36842e-19
1.36842e-19
1.36842e-19
1.36842e-19
1.36843e-19
1.36843e-19
1.36843e-19
1.36843e-19
1.36843e-19
1.36843e-19
1.36843e-19
1.36843e-19
1.3675e-19
1.3675e-19
1.3675e-19
1.3675e-19
1.3675e-19
1.3675e-19
1.36749e-19
1.36749e-19
1.36749e-19
1.36748e-19
1.36748e-19
1.36747e-19
1.36747e-19
1.36746e-19
1.36746e-19
1.36746e-19
1.36745e-19
1.36745e-19
1.36744e-19
1.36744e-19
1.36743e-19
1.36743e-19
1.36742e-19
1.36742e-19
1.36741e-19
1.36741e-19
1.36741e-19
1.3674e-19
1.3674e-19
1.3674e-19
1.3674e-19
1.3674e-19
1.3674e-19
1.36739e-19
1.36739e-19
1.36739e-19
1.3674e-19
1.3674e-19
1.3674e-19
1.3674e-19
1.3674e-19
1.3674e-19
1.3674e-19
1.36741e-19
1.36741e-19
1.36741e-19
1.36741e-19
1.36742e-19
1.36742e-19
1.36742e-19
1.36742e-19
1.36743e-19
1.36743e-19
1.36743e-19
1.36743e-19
1.36743e-19
1.36743e-19
1.36743e-19
1.36743e-19
1.36743e-19
1.36647e-19
1.36647e-19
1.36646e-19
1.36646e-19
1.36646e-19
1.36646e-19
1.36646e-19
1.36645e-19
1.36645e-19
1.36645e-19
1.36644e-19
1.36644e-19
1.36643e-19
1.36643e-19
1.36642e-19
1.36642e-19
1.36641e-19
1.36641e-19
1.3664e-19
1.3664e-19
1.3664e-19
1.36639e-19
1.36639e-19
1.36638e-19
1.36638e-19
1.36637e-19
1.36637e-19
1.36637e-19
1.36637e-19
1.36636e-19
1.36636e-19
1.36636e-19
1.36636e-19
1.36636e-19
1.36636e-19
1.36636e-19
1.36636e-19
1.36636e-19
1.36636e-19
1.36636e-19
1.36637e-19
1.36637e-19
1.36637e-19
1.36637e-19
1.36638e-19
1.36638e-19
1.36638e-19
1.36638e-19
1.36639e-19
1.36639e-19
1.36639e-19
1.36639e-19
1.36639e-19
1.3664e-19
1.3664e-19
1.3664e-19
1.3664e-19
1.3664e-19
1.3664e-19
1.3664e-19
1.36539e-19
1.36539e-19
1.36539e-19
1.36539e-19
1.36539e-19
1.36539e-19
1.36539e-19
1.36538e-19
1.36538e-19
1.36538e-19
1.36537e-19
1.36537e-19
1.36536e-19
1.36536e-19
1.36535e-19
1.36535e-19
1.36534e-19
1.36534e-19
1.36533e-19
1.36533e-19
1.36532e-19
1.36532e-19
1.36532e-19
1.36531e-19
1.36531e-19
1.3653e-19
1.3653e-19
1.3653e-19
1.3653e-19
1.36529e-19
1.36529e-19
1.36529e-19
1.36529e-19
1.36529e-19
1.36529e-19
1.36529e-19
1.36529e-19
1.36529e-19
1.36529e-19
1.36529e-19
1.3653e-19
1.3653e-19
1.3653e-19
1.3653e-19
1.36531e-19
1.36531e-19
1.36531e-19
1.36531e-19
1.36532e-19
1.36532e-19
1.36532e-19
1.36532e-19
1.36533e-19
1.36533e-19
1.36533e-19
1.36533e-19
1.36533e-19
1.36533e-19
1.36533e-19
1.36533e-19
1.36429e-19
1.36429e-19
1.36429e-19
1.36428e-19
1.36428e-19
1.36428e-19
1.36428e-19
1.36428e-19
1.36427e-19
1.36427e-19
1.36426e-19
1.36426e-19
1.36426e-19
1.36425e-19
1.36425e-19
1.36424e-19
1.36424e-19
1.36423e-19
1.36423e-19
1.36422e-19
1.36422e-19
1.36421e-19
1.36421e-19
1.3642e-19
1.3642e-19
1.3642e-19
1.36419e-19
1.36419e-19
1.36419e-19
1.36419e-19
1.36418e-19
1.36418e-19
1.36418e-19
1.36418e-19
1.36418e-19
1.36418e-19
1.36418e-19
1.36418e-19
1.36419e-19
1.36419e-19
1.36419e-19
1.36419e-19
1.36419e-19
1.3642e-19
1.3642e-19
1.3642e-19
1.3642e-19
1.36421e-19
1.36421e-19
1.36421e-19
1.36422e-19
1.36422e-19
1.36422e-19
1.36422e-19
1.36422e-19
1.36422e-19
1.36422e-19
1.36423e-19
1.36423e-19
1.36423e-19
1.36314e-19
1.36314e-19
1.36314e-19
1.36314e-19
1.36314e-19
1.36313e-19
1.36313e-19
1.36313e-19
1.36313e-19
1.36312e-19
1.36312e-19
1.36311e-19
1.36311e-19
1.3631e-19
1.3631e-19
1.36309e-19
1.36309e-19
1.36308e-19
1.36308e-19
1.36307e-19
1.36307e-19
1.36306e-19
1.36306e-19
1.36306e-19
1.36305e-19
1.36305e-19
1.36305e-19
1.36304e-19
1.36304e-19
1.36304e-19
1.36304e-19
1.36304e-19
1.36304e-19
1.36304e-19
1.36304e-19
1.36304e-19
1.36304e-19
1.36304e-19
1.36304e-19
1.36304e-19
1.36304e-19
1.36305e-19
1.36305e-19
1.36305e-19
1.36305e-19
1.36306e-19
1.36306e-19
1.36306e-19
1.36307e-19
1.36307e-19
1.36307e-19
1.36307e-19
1.36307e-19
1.36308e-19
1.36308e-19
1.36308e-19
1.36308e-19
1.36308e-19
1.36308e-19
1.36308e-19
1.36195e-19
1.36195e-19
1.36195e-19
1.36195e-19
1.36195e-19
1.36195e-19
1.36194e-19
1.36194e-19
1.36194e-19
1.36193e-19
1.36193e-19
1.36193e-19
1.36192e-19
1.36192e-19
1.36191e-19
1.36191e-19
1.3619e-19
1.3619e-19
1.36189e-19
1.36189e-19
1.36188e-19
1.36188e-19
1.36187e-19
1.36187e-19
1.36186e-19
1.36186e-19
1.36186e-19
1.36186e-19
1.36185e-19
1.36185e-19
1.36185e-19
1.36185e-19
1.36185e-19
1.36185e-19
1.36185e-19
1.36185e-19
1.36185e-19
1.36185e-19
1.36185e-19
1.36186e-19
1.36186e-19
1.36186e-19
1.36186e-19
1.36187e-19
1.36187e-19
1.36187e-19
1.36187e-19
1.36188e-19
1.36188e-19
1.36188e-19
1.36189e-19
1.36189e-19
1.36189e-19
1.36189e-19
1.36189e-19
1.36189e-19
1.3619e-19
1.3619e-19
1.3619e-19
1.3619e-19
1.36072e-19
1.36072e-19
1.36072e-19
1.36072e-19
1.36072e-19
1.36072e-19
1.36072e-19
1.36071e-19
1.36071e-19
1.36071e-19
1.3607e-19
1.3607e-19
1.36069e-19
1.36069e-19
1.36068e-19
1.36068e-19
1.36067e-19
1.36067e-19
1.36066e-19
1.36066e-19
1.36065e-19
1.36065e-19
1.36064e-19
1.36064e-19
1.36064e-19
1.36063e-19
1.36063e-19
1.36063e-19
1.36062e-19
1.36062e-19
1.36062e-19
1.36062e-19
1.36062e-19
1.36062e-19
1.36062e-19
1.36062e-19
1.36062e-19
1.36062e-19
1.36063e-19
1.36063e-19
1.36063e-19
1.36063e-19
1.36064e-19
1.36064e-19
1.36064e-19
1.36064e-19
1.36065e-19
1.36065e-19
1.36065e-19
1.36066e-19
1.36066e-19
1.36066e-19
1.36066e-19
1.36067e-19
1.36067e-19
1.36067e-19
1.36067e-19
1.36067e-19
1.36067e-19
1.36067e-19
1.35945e-19
1.35945e-19
1.35945e-19
1.35945e-19
1.35945e-19
1.35945e-19
1.35944e-19
1.35944e-19
1.35944e-19
1.35943e-19
1.35943e-19
1.35942e-19
1.35942e-19
1.35942e-19
1.35941e-19
1.35941e-19
1.3594e-19
1.35939e-19
1.35939e-19
1.35938e-19
1.35938e-19
1.35938e-19
1.35937e-19
1.35937e-19
1.35936e-19
1.35936e-19
1.35936e-19
1.35935e-19
1.35935e-19
1.35935e-19
1.35935e-19
1.35935e-19
1.35935e-19
1.35935e-19
1.35935e-19
1.35935e-19
1.35935e-19
1.35935e-19
1.35935e-19
1.35936e-19
1.35936e-19
1.35936e-19
1.35936e-19
1.35937e-19
1.35937e-19
1.35937e-19
1.35938e-19
1.35938e-19
1.35938e-19
1.35939e-19
1.35939e-19
1.35939e-19
1.35939e-19
1.3594e-19
1.3594e-19
1.3594e-19
1.3594e-19
1.3594e-19
1.3594e-19
1.3594e-19
1.35814e-19
1.35814e-19
1.35813e-19
1.35813e-19
1.35813e-19
1.35813e-19
1.35813e-19
1.35812e-19
1.35812e-19
1.35812e-19
1.35811e-19
1.35811e-19
1.3581e-19
1.3581e-19
1.35809e-19
1.35809e-19
1.35808e-19
1.35808e-19
1.35807e-19
1.35807e-19
1.35806e-19
1.35806e-19
1.35805e-19
1.35805e-19
1.35805e-19
1.35804e-19
1.35804e-19
1.35804e-19
1.35804e-19
1.35803e-19
1.35803e-19
1.35803e-19
1.35803e-19
1.35803e-19
1.35803e-19
1.35803e-19
1.35803e-19
1.35804e-19
1.35804e-19
1.35804e-19
1.35804e-19
1.35805e-19
1.35805e-19
1.35805e-19
1.35806e-19
1.35806e-19
1.35806e-19
1.35806e-19
1.35807e-19
1.35807e-19
1.35807e-19
1.35808e-19
1.35808e-19
1.35808e-19
1.35808e-19
1.35808e-19
1.35808e-19
1.35809e-19
1.35809e-19
1.35809e-19
1.35677e-19
1.35677e-19
1.35677e-19
1.35677e-19
1.35677e-19
1.35677e-19
1.35676e-19
1.35676e-19
1.35676e-19
1.35675e-19
1.35675e-19
1.35674e-19
1.35674e-19
1.35673e-19
1.35673e-19
1.35672e-19
1.35672e-19
1.35671e-19
1.35671e-19
1.3567e-19
1.3567e-19
1.35669e-19
1.35669e-19
1.35669e-19
1.35668e-19
1.35668e-19
1.35668e-19
1.35667e-19
1.35667e-19
1.35667e-19
1.35667e-19
1.35667e-19
1.35667e-19
1.35667e-19
1.35667e-19
1.35667e-19
1.35667e-19
1.35667e-19
1.35667e-19
1.35668e-19
1.35668e-19
1.35668e-19
1.35669e-19
1.35669e-19
1.35669e-19
1.3567e-19
1.3567e-19
1.3567e-19
1.35671e-19
1.35671e-19
1.35671e-19
1.35671e-19
1.35672e-19
1.35672e-19
1.35672e-19
1.35672e-19
1.35672e-19
1.35672e-19
1.35672e-19
1.35672e-19
1.35536e-19
1.35536e-19
1.35536e-19
1.35536e-19
1.35535e-19
1.35535e-19
1.35535e-19
1.35535e-19
1.35534e-19
1.35534e-19
1.35533e-19
1.35533e-19
1.35532e-19
1.35532e-19
1.35531e-19
1.35531e-19
1.3553e-19
1.3553e-19
1.35529e-19
1.35529e-19
1.35528e-19
1.35528e-19
1.35528e-19
1.35527e-19
1.35527e-19
1.35527e-19
1.35526e-19
1.35526e-19
1.35526e-19
1.35526e-19
1.35526e-19
1.35525e-19
1.35525e-19
1.35525e-19
1.35526e-19
1.35526e-19
1.35526e-19
1.35526e-19
1.35526e-19
1.35527e-19
1.35527e-19
1.35527e-19
1.35527e-19
1.35528e-19
1.35528e-19
1.35528e-19
1.35529e-19
1.35529e-19
1.35529e-19
1.3553e-19
1.3553e-19
1.3553e-19
1.35531e-19
1.35531e-19
1.35531e-19
1.35531e-19
1.35531e-19
1.35531e-19
1.35531e-19
1.35531e-19
1.35389e-19
1.35389e-19
1.35389e-19
1.35389e-19
1.35389e-19
1.35389e-19
1.35388e-19
1.35388e-19
1.35388e-19
1.35387e-19
1.35387e-19
1.35387e-19
1.35386e-19
1.35386e-19
1.35385e-19
1.35385e-19
1.35384e-19
1.35383e-19
1.35383e-19
1.35382e-19
1.35382e-19
1.35382e-19
1.35381e-19
1.35381e-19
1.3538e-19
1.3538e-19
1.3538e-19
1.3538e-19
1.35379e-19
1.35379e-19
1.35379e-19
1.35379e-19
1.35379e-19
1.35379e-19
1.35379e-19
1.35379e-19
1.3538e-19
1.3538e-19
1.3538e-19
1.3538e-19
1.35381e-19
1.35381e-19
1.35381e-19
1.35381e-19
1.35382e-19
1.35382e-19
1.35383e-19
1.35383e-19
1.35383e-19
1.35384e-19
1.35384e-19
1.35384e-19
1.35384e-19
1.35385e-19
1.35385e-19
1.35385e-19
1.35385e-19
1.35385e-19
1.35385e-19
1.35385e-19
1.35238e-19
1.35238e-19
1.35238e-19
1.35237e-19
1.35237e-19
1.35237e-19
1.35237e-19
1.35236e-19
1.35236e-19
1.35236e-19
1.35235e-19
1.35235e-19
1.35234e-19
1.35234e-19
1.35233e-19
1.35233e-19
1.35232e-19
1.35232e-19
1.35231e-19
1.35231e-19
1.3523e-19
1.3523e-19
1.35229e-19
1.35229e-19
1.35229e-19
1.35228e-19
1.35228e-19
1.35228e-19
1.35228e-19
1.35228e-19
1.35227e-19
1.35227e-19
1.35227e-19
1.35227e-19
1.35228e-19
1.35228e-19
1.35228e-19
1.35228e-19
1.35228e-19
1.35229e-19
1.35229e-19
1.35229e-19
1.3523e-19
1.3523e-19
1.3523e-19
1.35231e-19
1.35231e-19
1.35231e-19
1.35232e-19
1.35232e-19
1.35232e-19
1.35233e-19
1.35233e-19
1.35233e-19
1.35233e-19
1.35233e-19
1.35234e-19
1.35234e-19
1.35234e-19
1.35234e-19
1.3508e-19
1.3508e-19
1.3508e-19
1.3508e-19
1.3508e-19
1.3508e-19
1.3508e-19
1.35079e-19
1.35079e-19
1.35078e-19
1.35078e-19
1.35078e-19
1.35077e-19
1.35077e-19
1.35076e-19
1.35076e-19
1.35075e-19
1.35074e-19
1.35074e-19
1.35073e-19
1.35073e-19
1.35073e-19
1.35072e-19
1.35072e-19
1.35071e-19
1.35071e-19
1.35071e-19
1.35071e-19
1.3507e-19
1.3507e-19
1.3507e-19
1.3507e-19
1.3507e-19
1.3507e-19
1.3507e-19
1.35071e-19
1.35071e-19
1.35071e-19
1.35071e-19
1.35071e-19
1.35072e-19
1.35072e-19
1.35072e-19
1.35073e-19
1.35073e-19
1.35074e-19
1.35074e-19
1.35074e-19
1.35075e-19
1.35075e-19
1.35075e-19
1.35076e-19
1.35076e-19
1.35076e-19
1.35076e-19
1.35076e-19
1.35077e-19
1.35077e-19
1.35077e-19
1.35077e-19
1.34917e-19
1.34917e-19
1.34917e-19
1.34917e-19
1.34917e-19
1.34917e-19
1.34917e-19
1.34916e-19
1.34916e-19
1.34915e-19
1.34915e-19
1.34915e-19
1.34914e-19
1.34914e-19
1.34913e-19
1.34913e-19
1.34912e-19
1.34911e-19
1.34911e-19
1.3491e-19
1.3491e-19
1.3491e-19
1.34909e-19
1.34909e-19
1.34908e-19
1.34908e-19
1.34908e-19
1.34908e-19
1.34907e-19
1.34907e-19
1.34907e-19
1.34907e-19
1.34907e-19
1.34907e-19
1.34907e-19
1.34908e-19
1.34908e-19
1.34908e-19
1.34908e-19
1.34909e-19
1.34909e-19
1.34909e-19
1.3491e-19
1.3491e-19
1.3491e-19
1.34911e-19
1.34911e-19
1.34912e-19
1.34912e-19
1.34912e-19
1.34913e-19
1.34913e-19
1.34913e-19
1.34913e-19