/*--------------------------------*- C++ -*----------------------------------*\
| =========                 |                                                 |
| \\      /  F ield         | foam-extend: Open Source CFD                    |
|  \\    /   O peration     | Version:     4.0                                |
|   \\  /    A nd           | Web:         http://www.foam-extend.org         |
|    \\/     M anipulation  |                                                 |
\*---------------------------------------------------------------------------*/
FoamFile
{
    version     2.0;
    format      ascii;
    class       volScalarField;
    location    "2";
    object      p;
}
// * * * * * * * * * * * * * * * * * * * * * * * * * * * * * * * * * * * * * //

dimensions      [0 2 -2 0 0 0 0];

internalField   nonuniform List<scalar> 
6960
(
-1.34434e-13
1.31877e-07
1.23141e-07
1.24471e-07
1.12e-07
1.12213e-07
1.06377e-07
1.0657e-07
1.05883e-07
1.0927e-07
1.09777e-07
1.12022e-07
1.13691e-07
1.15092e-07
1.12928e-07
1.09592e-07
1.06966e-07
1.04937e-07
1.01221e-07
9.67861e-08
9.45146e-08
9.43217e-08
9.33166e-08
9.09868e-08
9.00914e-08
9.12056e-08
9.13709e-08
8.92577e-08
8.75882e-08
8.80124e-08
8.79922e-08
8.55055e-08
8.29396e-08
8.29815e-08
8.3813e-08
8.27784e-08
8.13749e-08
8.29623e-08
8.64721e-08
8.85938e-08
8.90734e-08
9.10812e-08
9.44581e-08
9.59517e-08
9.44622e-08
9.26193e-08
9.29965e-08
9.25541e-08
9.26131e-08
9.14618e-08
9.72611e-08
9.97245e-08
1.0942e-07
1.07792e-07
1.20182e-07
1.11309e-07
1.2551e-07
1.04958e-07
1.25641e-07
1.01213e-07
1.62417e-07
1.18632e-07
1.06663e-07
1.10957e-07
1.04055e-07
1.10511e-07
1.10675e-07
1.1525e-07
1.16466e-07
1.19211e-07
1.17085e-07
1.15646e-07
1.13669e-07
1.12252e-07
1.08587e-07
1.05306e-07
1.04212e-07
1.04667e-07
1.03626e-07
1.01467e-07
1.00748e-07
1.01162e-07
9.97008e-08
9.60781e-08
9.35863e-08
9.32656e-08
9.23542e-08
8.96468e-08
8.80183e-08
8.90695e-08
8.98852e-08
8.80512e-08
8.58332e-08
8.59287e-08
8.64229e-08
8.46143e-08
8.22375e-08
8.30053e-08
8.59529e-08
8.76503e-08
8.78233e-08
8.97181e-08
9.313e-08
9.45508e-08
9.28568e-08
9.0826e-08
9.13178e-08
9.12053e-08
9.18784e-08
9.15285e-08
9.8362e-08
1.01707e-07
1.11774e-07
1.09975e-07
1.21473e-07
1.11758e-07
1.24732e-07
1.04082e-07
1.24491e-07
1.0118e-07
2.14167e-07
1.13748e-07
9.74488e-08
1.0195e-07
9.67224e-08
1.06226e-07
1.10297e-07
1.18541e-07
1.22122e-07
1.25691e-07
1.22857e-07
1.1957e-07
1.15204e-07
1.11482e-07
1.0606e-07
1.01888e-07
1.00918e-07
1.02413e-07
1.02976e-07
1.02558e-07
1.03379e-07
1.04879e-07
1.03851e-07
9.99541e-08
9.66505e-08
9.52769e-08
9.33197e-08
8.97525e-08
8.76293e-08
8.86781e-08
8.99265e-08
8.87469e-08
8.72042e-08
8.7875e-08
8.87107e-08
8.68596e-08
8.40215e-08
8.40526e-08
8.61658e-08
8.70339e-08
8.6472e-08
8.78731e-08
9.11624e-08
9.27919e-08
9.15452e-08
9.00772e-08
9.12503e-08
9.17406e-08
9.28853e-08
9.26451e-08
9.9415e-08
1.02373e-07
1.1203e-07
1.09682e-07
1.20928e-07
1.11174e-07
1.24449e-07
1.03996e-07
1.24501e-07
1.01528e-07
1.57493e-07
1.12293e-07
9.42905e-08
9.83565e-08
9.32432e-08
1.03555e-07
1.08868e-07
1.18498e-07
1.232e-07
1.27461e-07
1.24785e-07
1.21181e-07
1.16182e-07
1.11709e-07
1.05584e-07
1.00912e-07
9.97628e-08
1.0142e-07
1.02402e-07
1.02533e-07
1.03925e-07
1.05919e-07
1.052e-07
1.01368e-07
9.79194e-08
9.62799e-08
9.40065e-08
9.01317e-08
8.77911e-08
8.87843e-08
9.01338e-08
8.91421e-08
8.78145e-08
8.86967e-08
8.96878e-08
8.78648e-08
8.49041e-08
8.47151e-08
8.65698e-08
8.71642e-08
8.63336e-08
8.75302e-08
9.07271e-08
9.23604e-08
9.1172e-08
8.97893e-08
9.10946e-08
9.17142e-08
9.29842e-08
9.27894e-08
9.9627e-08
1.02576e-07
1.12289e-07
1.09879e-07
1.21179e-07
1.11354e-07
1.24695e-07
1.04083e-07
1.24531e-07
1.01676e-07
1.41385e-07
1.11862e-07
9.26021e-08
9.60698e-08
9.06902e-08
1.01275e-07
1.07251e-07
1.17771e-07
1.23315e-07
1.28223e-07
1.25887e-07
1.22295e-07
1.17028e-07
1.12119e-07
1.05515e-07
1.00436e-07
9.90437e-08
1.00669e-07
1.01822e-07
1.02269e-07
1.04039e-07
1.06392e-07
1.05947e-07
1.02254e-07
9.87973e-08
9.70308e-08
9.45684e-08
9.04991e-08
8.80065e-08
8.89293e-08
9.03083e-08
8.94295e-08
8.8254e-08
8.92827e-08
9.03797e-08
8.85938e-08
8.55817e-08
8.52616e-08
8.69405e-08
8.73568e-08
8.63697e-08
8.74507e-08
9.05865e-08
9.22176e-08
9.10614e-08
8.97137e-08
9.10419e-08
9.1665e-08
9.29368e-08
9.27199e-08
9.95701e-08
1.02528e-07
1.1235e-07
1.1001e-07
1.21464e-07
1.11645e-07
1.25045e-07
1.04244e-07
1.24576e-07
1.01772e-07
1.37831e-07
1.11935e-07
9.15985e-08
9.44002e-08
8.85789e-08
9.91944e-08
1.05569e-07
1.16751e-07
1.23007e-07
1.28542e-07
1.26629e-07
1.23197e-07
1.1783e-07
1.12631e-07
1.05652e-07
1.00211e-07
9.85441e-08
1.00048e-07
1.01259e-07
1.01911e-07
1.03964e-07
1.0661e-07
1.06422e-07
1.029e-07
9.94941e-08
9.76642e-08
9.50745e-08
9.08649e-08
8.82484e-08
8.90916e-08
9.04672e-08
8.96654e-08
8.86077e-08
8.97472e-08
9.09265e-08
8.91838e-08
8.6153e-08
8.57422e-08
8.7287e-08
8.75742e-08
8.6483e-08
8.74849e-08
9.05692e-08
9.21916e-08
9.10505e-08
8.97064e-08
9.10026e-08
9.15726e-08
9.27951e-08
9.25306e-08
9.9375e-08
1.02358e-07
1.12319e-07
1.1011e-07
1.21755e-07
1.11978e-07
1.2542e-07
1.04418e-07
1.246e-07
1.01829e-07
1.37394e-07
1.12233e-07
9.08598e-08
9.29501e-08
8.65939e-08
9.71395e-08
1.03818e-07
1.15589e-07
1.22524e-07
1.28696e-07
1.27249e-07
1.2404e-07
1.18631e-07
1.13191e-07
1.05869e-07
1.00072e-07
9.81139e-08
9.94599e-08
1.0069e-07
1.01513e-07
1.03821e-07
1.06744e-07
1.06811e-07
1.03477e-07
1.00142e-07
9.82665e-08
9.55658e-08
9.12305e-08
8.84968e-08
8.92551e-08
9.06174e-08
8.98852e-08
8.8939e-08
9.01803e-08
9.14346e-08
8.9736e-08
8.66941e-08
8.61996e-08
8.76169e-08
8.77882e-08
8.66123e-08
8.75532e-08
9.05978e-08
9.22206e-08
9.10993e-08
8.97542e-08
9.0997e-08
9.14839e-08
9.26228e-08
9.22827e-08
9.90961e-08
1.02099e-07
1.12206e-07
1.10161e-07
1.22029e-07
1.12325e-07
1.25819e-07
1.0461e-07
1.24634e-07
1.01865e-07
1.37772e-07
1.12703e-07
9.02975e-08
9.16255e-08
8.46488e-08
9.50501e-08
1.01975e-07
1.14303e-07
1.21911e-07
1.28741e-07
1.27803e-07
1.24861e-07
1.19451e-07
1.13795e-07
1.06139e-07
9.99813e-08
9.77114e-08
9.88727e-08
1.00097e-07
1.01076e-07
1.0363e-07
1.06828e-07
1.07159e-07
1.04026e-07
1.00776e-07
9.88632e-08
9.60563e-08
9.15984e-08
8.87463e-08
8.94138e-08
9.07571e-08
9.00939e-08
8.9261e-08
9.06046e-08
9.19338e-08
9.02817e-08
8.72316e-08
8.66527e-08
8.79402e-08
8.79974e-08
8.67449e-08
8.76356e-08
9.06515e-08
9.2287e-08
9.11971e-08
8.98551e-08
9.10343e-08
9.14176e-08
9.24437e-08
9.19981e-08
9.87513e-08
1.01758e-07
1.12014e-07
1.10154e-07
1.22276e-07
1.12677e-07
1.26247e-07
1.04829e-07
1.24691e-07
1.01888e-07
1.38472e-07
1.13341e-07
8.99049e-08
9.04141e-08
8.27284e-08
9.29108e-08
1.00026e-07
1.12883e-07
1.21166e-07
1.28681e-07
1.28294e-07
1.25667e-07
1.20292e-07
1.14442e-07
1.06459e-07
9.99319e-08
9.73285e-08
9.82781e-08
9.94737e-08
1.00593e-07
1.03387e-07
1.06863e-07
1.07469e-07
1.04554e-07
1.01402e-07
9.94606e-08
9.65512e-08
9.19712e-08
8.89972e-08
8.9567e-08
9.08857e-08
9.02911e-08
8.9575e-08
9.10239e-08
9.24309e-08
9.08295e-08
8.77745e-08
8.71101e-08
8.82639e-08
8.82061e-08
8.68812e-08
8.77291e-08
9.07256e-08
9.23863e-08
9.13397e-08
9.00071e-08
9.11163e-08
9.1379e-08
9.22656e-08
9.16851e-08
9.83479e-08
1.0134e-07
1.11741e-07
1.10084e-07
1.22491e-07
1.13031e-07
1.26704e-07
1.05078e-07
1.24778e-07
1.01899e-07
1.39399e-07
1.14151e-07
8.96927e-08
8.93243e-08
8.08378e-08
9.07221e-08
9.79688e-08
1.11323e-07
1.20279e-07
1.28508e-07
1.28715e-07
1.26452e-07
1.21152e-07
1.15133e-07
1.06832e-07
9.99261e-08
9.69668e-08
9.76759e-08
9.88176e-08
1.00061e-07
1.03089e-07
1.06844e-07
1.07737e-07
1.05056e-07
1.0202e-07
1.0006e-07
9.70523e-08
9.23509e-08
8.92508e-08
8.97152e-08
9.10032e-08
9.04761e-08
8.98795e-08
9.14374e-08
9.29268e-08
9.13816e-08
8.83259e-08
8.75758e-08
8.8593e-08
8.84188e-08
8.7024e-08
8.78347e-08
9.08197e-08
9.25168e-08
9.15251e-08
9.02088e-08
9.12432e-08
9.13707e-08
9.20929e-08
9.13488e-08
9.78907e-08
1.00848e-07
1.1139e-07
1.09949e-07
1.22671e-07
1.13383e-07
1.27191e-07
1.05358e-07
1.24899e-07
1.01901e-07
1.40528e-07
1.15138e-07
8.96755e-08
8.83701e-08
7.89897e-08
8.84921e-08
9.58036e-08
1.09618e-07
1.19242e-07
1.28209e-07
1.29056e-07
1.27208e-07
1.22027e-07
1.15868e-07
1.07259e-07
9.99676e-08
9.66301e-08
9.70693e-08
9.81299e-08
9.94786e-08
1.02731e-07
1.06768e-07
1.07958e-07
1.05531e-07
1.02626e-07
1.00659e-07
9.756e-08
9.27385e-08
8.95085e-08
8.98596e-08
9.11098e-08
9.0648e-08
9.01728e-08
9.18435e-08
9.34203e-08
9.19379e-08
8.8887e-08
8.80524e-08
8.89308e-08
8.86388e-08
8.7176e-08
8.79537e-08
9.09338e-08
9.26777e-08
9.17521e-08
9.04592e-08
9.14153e-08
9.13948e-08
9.19293e-08
9.09937e-08
9.73842e-08
1.00285e-07
1.10961e-07
1.09745e-07
1.22812e-07
1.13727e-07
1.27704e-07
1.05671e-07
1.25058e-07
1.01894e-07
1.41847e-07
1.16302e-07
8.9868e-08
8.75679e-08
7.72006e-08
8.62329e-08
9.35364e-08
1.07767e-07
1.18047e-07
1.27773e-07
1.29304e-07
1.27924e-07
1.2291e-07
1.16644e-07
1.07741e-07
1.0006e-07
9.63232e-08
9.64624e-08
9.74128e-08
9.88454e-08
1.02311e-07
1.06628e-07
1.08127e-07
1.0597e-07
1.03216e-07
1.01256e-07
9.80737e-08
9.31348e-08
8.97714e-08
9.00012e-08
9.12058e-08
9.0806e-08
9.04532e-08
9.22399e-08
9.39095e-08
9.24975e-08
8.9458e-08
8.85412e-08
8.92796e-08
8.8869e-08
8.73393e-08
8.80875e-08
9.10683e-08
9.28685e-08
9.20195e-08
9.07577e-08
9.16333e-08
9.14538e-08
9.17788e-08
9.06247e-08
9.68326e-08
9.9653e-08
1.10453e-07
1.09471e-07
1.22908e-07
1.14058e-07
1.28242e-07
1.06016e-07
1.25255e-07
1.01879e-07
1.43335e-07
1.17643e-07
9.0285e-08
8.69351e-08
7.549e-08
8.39603e-08
9.11761e-08
1.05769e-07
1.16687e-07
1.27191e-07
1.29447e-07
1.28589e-07
1.23791e-07
1.17457e-07
1.0828e-07
1.00208e-07
9.60516e-08
9.58605e-08
9.66699e-08
9.81622e-08
1.01826e-07
1.06422e-07
1.08239e-07
1.0637e-07
1.03786e-07
1.01847e-07
9.85919e-08
9.35397e-08
9.00403e-08
9.01407e-08
9.12915e-08
9.09493e-08
9.07189e-08
9.26242e-08
9.43924e-08
9.30588e-08
9.00383e-08
8.90429e-08
8.96413e-08
8.91115e-08
8.75159e-08
8.8237e-08
9.12232e-08
9.30882e-08
9.23264e-08
9.11037e-08
9.18981e-08
9.15504e-08
9.16459e-08
9.02472e-08
9.62411e-08
9.8956e-08
1.09867e-07
1.09123e-07
1.22954e-07
1.14371e-07
1.28801e-07
1.06392e-07
1.25493e-07
1.01855e-07
1.44965e-07
1.19161e-07
9.09405e-08
8.64898e-08
7.38791e-08
8.1693e-08
8.87346e-08
1.0363e-07
1.1516e-07
1.26452e-07
1.29472e-07
1.29189e-07
1.24662e-07
1.18301e-07
1.08874e-07
1.00413e-07
9.58207e-08
9.52696e-08
9.59059e-08
9.74308e-08
1.01276e-07
1.06144e-07
1.08287e-07
1.06724e-07
1.04329e-07
1.0243e-07
9.91127e-08
9.39529e-08
9.03157e-08
9.0279e-08
9.13671e-08
9.10773e-08
9.09681e-08
9.29941e-08
9.48662e-08
9.36197e-08
9.0627e-08
8.95578e-08
9.00171e-08
8.9368e-08
8.77073e-08
8.84029e-08
9.13981e-08
9.33359e-08
9.26715e-08
9.14968e-08
9.22107e-08
9.16877e-08
9.15355e-08
8.98671e-08
9.56151e-08
9.81973e-08
1.09202e-07
1.08696e-07
1.22944e-07
1.14657e-07
1.29375e-07
1.06799e-07
1.25773e-07
1.01825e-07
1.46704e-07
1.20852e-07
9.18472e-08
8.62503e-08
7.23911e-08
7.94519e-08
8.6227e-08
1.01355e-07
1.13462e-07
1.25547e-07
1.29366e-07
1.29712e-07
1.25512e-07
1.1917e-07
1.09522e-07
1.00679e-07
9.5636e-08
9.4696e-08
9.51259e-08
9.66541e-08
1.00659e-07
1.05792e-07
1.08267e-07
1.07026e-07
1.04841e-07
1.02998e-07
9.96336e-08
9.43736e-08
9.0598e-08
9.04168e-08
9.1433e-08
9.11891e-08
9.11988e-08
9.33468e-08
9.53283e-08
9.41781e-08
9.12228e-08
9.00856e-08
9.04078e-08
8.964e-08
8.79146e-08
8.85858e-08
9.15925e-08
9.36103e-08
9.30534e-08
9.19361e-08
9.25721e-08
9.1869e-08
9.14531e-08
8.94912e-08
9.49612e-08
9.73813e-08
1.08461e-07
1.08189e-07
1.22871e-07
1.14909e-07
1.29959e-07
1.07234e-07
1.26098e-07
1.01787e-07
1.48513e-07
1.22709e-07
9.30162e-08
8.62343e-08
7.10502e-08
7.72604e-08
8.3671e-08
9.89527e-08
1.11593e-07
1.24469e-07
1.29115e-07
1.30144e-07
1.26327e-07
1.20056e-07
1.1022e-07
1.01007e-07
9.55028e-08
9.41466e-08
9.43361e-08
9.58359e-08
9.99778e-08
1.05363e-07
1.08172e-07
1.07269e-07
1.05314e-07
1.03548e-07
1.00151e-07
9.48004e-08
9.08872e-08
9.05545e-08
9.14894e-08
9.12842e-08
9.14095e-08
9.36797e-08
9.57756e-08
9.47312e-08
9.18238e-08
9.06259e-08
9.08141e-08
8.99285e-08
8.81389e-08
8.87857e-08
9.18058e-08
9.39098e-08
9.34704e-08
9.24209e-08
9.29832e-08
9.20977e-08
9.14044e-08
8.9127e-08
9.42864e-08
9.65133e-08
1.07643e-07
1.07596e-07
1.22729e-07
1.15119e-07
1.30547e-07
1.07695e-07
1.26468e-07
1.01743e-07
1.5035e-07
1.24727e-07
9.4457e-08
8.6459e-08
6.98818e-08
7.5144e-08
8.10871e-08
9.64359e-08
1.09556e-07
1.23209e-07
1.28709e-07
1.30469e-07
1.27094e-07
1.20948e-07
1.10965e-07
1.014e-07
9.54264e-08
9.36282e-08
9.35433e-08
9.49808e-08
9.92323e-08
1.04856e-07
1.08e-07
1.07448e-07
1.05743e-07
1.04075e-07
1.00663e-07
9.52319e-08
9.11831e-08
9.06926e-08
9.15364e-08
9.13619e-08
9.15982e-08
9.39901e-08
9.62051e-08
9.52763e-08
9.24282e-08
9.11777e-08
9.12361e-08
9.02342e-08
8.83807e-08
8.90025e-08
9.20366e-08
9.42323e-08
9.39203e-08
9.29498e-08
9.34447e-08
9.23773e-08
9.13958e-08
8.87824e-08
9.35991e-08
9.55996e-08
1.06752e-07
1.06917e-07
1.22509e-07
1.15276e-07
1.3113e-07
1.08178e-07
1.26884e-07
1.01693e-07
1.5217e-07
1.26894e-07
9.61763e-08
8.69404e-08
6.89117e-08
7.31298e-08
7.84985e-08
9.38187e-08
1.07355e-07
1.21765e-07
1.28135e-07
1.30673e-07
1.27801e-07
1.21838e-07
1.11751e-07
1.01856e-07
9.54112e-08
9.31481e-08
9.27547e-08
9.40942e-08
9.84252e-08
1.04268e-07
1.07745e-07
1.07556e-07
1.06122e-07
1.04572e-07
1.01164e-07
9.56658e-08
9.14852e-08
9.08314e-08
9.15743e-08
9.14216e-08
9.17633e-08
9.42752e-08
9.66134e-08
9.58103e-08
9.30337e-08
9.17401e-08
9.16737e-08
9.05578e-08
8.86405e-08
8.92359e-08
9.22835e-08
9.45754e-08
9.44004e-08
9.35211e-08
9.39571e-08
9.2711e-08
9.14336e-08
8.84662e-08
9.29081e-08
9.46475e-08
1.0579e-07
1.06149e-07
1.22206e-07
1.15372e-07
1.317e-07
1.08678e-07
1.27346e-07
1.01638e-07
1.53929e-07
1.29199e-07
9.81784e-08
8.76928e-08
6.81655e-08
7.12462e-08
7.59308e-08
9.11188e-08
1.04998e-07
1.20133e-07
1.27383e-07
1.30742e-07
1.2843e-07
1.22713e-07
1.12572e-07
1.02375e-07
9.54615e-08
9.27133e-08
9.1978e-08
9.31824e-08
9.75596e-08
1.036e-07
1.07405e-07
1.07588e-07
1.06443e-07
1.05034e-07
1.0165e-07
9.60998e-08
9.17926e-08
9.0971e-08
9.16032e-08
9.14627e-08
9.1903e-08
9.45323e-08
9.69974e-08
9.633e-08
9.36378e-08
9.23115e-08
9.21266e-08
9.08994e-08
8.89185e-08
8.94852e-08
9.25446e-08
9.49363e-08
9.49078e-08
9.41326e-08
9.45203e-08
9.31022e-08
9.15244e-08
8.81877e-08
9.22235e-08
9.36654e-08
1.04762e-07
1.0529e-07
1.21811e-07
1.15396e-07
1.32249e-07
1.09189e-07
1.27853e-07
1.01577e-07
1.55584e-07
1.31627e-07
1.00464e-07
8.87285e-08
6.76688e-08
6.9523e-08
7.34121e-08
8.83568e-08
1.02495e-07
1.18314e-07
1.26444e-07
1.30661e-07
1.28969e-07
1.2356e-07
1.1342e-07
1.02956e-07
9.55806e-08
9.23307e-08
9.12214e-08
9.22523e-08
9.66399e-08
1.02853e-07
1.06975e-07
1.07538e-07
1.06701e-07
1.05454e-07
1.02117e-07
9.6531e-08
9.21042e-08
9.11113e-08
9.16233e-08
9.14848e-08
9.20159e-08
9.47587e-08
9.73536e-08
9.68319e-08
9.42378e-08
9.28902e-08
9.25941e-08
9.12591e-08
8.92145e-08
8.97493e-08
9.28178e-08
9.53116e-08
9.54387e-08
9.47815e-08
9.51339e-08
9.35538e-08
9.16751e-08
8.79567e-08
9.15562e-08
9.26629e-08
1.03672e-07
1.0434e-07
1.2132e-07
1.15338e-07
1.32765e-07
1.09705e-07
1.28405e-07
1.01513e-07
1.57099e-07
1.3416e-07
1.03031e-07
9.00572e-08
6.74461e-08
6.79905e-08
7.09726e-08
8.5556e-08
9.98591e-08
1.16309e-07
1.2531e-07
1.30417e-07
1.294e-07
1.24365e-07
1.14286e-07
1.03595e-07
9.57708e-08
9.20069e-08
9.04931e-08
9.13117e-08
9.56709e-08
1.02027e-07
1.06454e-07
1.07401e-07
1.06888e-07
1.05827e-07
1.02559e-07
9.69562e-08
9.24184e-08
9.12519e-08
9.16345e-08
9.14873e-08
9.21002e-08
9.49518e-08
9.76785e-08
9.73126e-08
9.48305e-08
9.34742e-08
9.30752e-08
9.16364e-08
8.95281e-08
9.00271e-08
9.31006e-08
9.56976e-08
9.59891e-08
9.54646e-08
9.5797e-08
9.40684e-08
9.18922e-08
8.77834e-08
9.09179e-08
9.16509e-08
1.02529e-07
1.03301e-07
1.20726e-07
1.15187e-07
1.33239e-07
1.10217e-07
1.28999e-07
1.01445e-07
1.58439e-07
1.36779e-07
1.05873e-07
9.16856e-08
6.75206e-08
6.66791e-08
6.86444e-08
8.2743e-08
9.7108e-08
1.14124e-07
1.23977e-07
1.29997e-07
1.29708e-07
1.25115e-07
1.15159e-07
1.04287e-07
9.60337e-08
9.1748e-08
8.98018e-08
9.03687e-08
9.4659e-08
1.01125e-07
1.05841e-07
1.07174e-07
1.07e-07
1.06146e-07
1.02971e-07
9.73715e-08
9.27335e-08
9.13923e-08
9.16368e-08
9.14699e-08
9.21547e-08
9.51089e-08
9.79687e-08
9.77683e-08
9.54129e-08
9.40612e-08
9.35688e-08
9.20307e-08
8.98586e-08
9.03171e-08
9.33901e-08
9.60902e-08
9.65542e-08
9.61776e-08
9.65077e-08
9.4648e-08
9.21822e-08
8.76782e-08
9.0321e-08
9.06415e-08
1.01338e-07
1.02174e-07
1.20024e-07
1.14934e-07
1.33657e-07
1.10716e-07
1.29634e-07
1.01373e-07
1.59577e-07
1.39461e-07
1.08978e-07
9.36169e-08
6.79131e-08
6.56191e-08
6.64609e-08
7.99468e-08
9.42617e-08
1.11767e-07
1.22443e-07
1.29392e-07
1.29878e-07
1.25793e-07
1.16028e-07
1.05026e-07
9.63695e-08
9.15594e-08
8.91556e-08
8.94324e-08
9.36109e-08
1.00152e-07
1.05136e-07
1.06852e-07
1.07029e-07
1.06404e-07
1.03347e-07
9.77731e-08
9.30471e-08
9.15318e-08
9.16301e-08
9.14321e-08
9.2178e-08
9.52275e-08
9.82209e-08
9.81952e-08
9.59813e-08
9.46486e-08
9.40732e-08
9.24413e-08
9.02053e-08
9.06175e-08
9.36832e-08
9.64847e-08
9.71286e-08
9.69159e-08
9.72636e-08
9.5294e-08
9.25511e-08
8.76515e-08
8.97786e-08
8.96478e-08
1.00111e-07
1.00963e-07
1.1921e-07
1.14568e-07
1.34009e-07
1.11193e-07
1.30307e-07
1.01299e-07
1.60494e-07
1.42179e-07
1.12333e-07
9.58503e-08
6.86421e-08
6.48397e-08
6.44568e-08
7.71991e-08
9.13438e-08
1.09251e-07
1.20707e-07
1.28591e-07
1.29896e-07
1.26384e-07
1.1688e-07
1.05806e-07
9.67773e-08
9.14458e-08
8.8563e-08
8.85121e-08
9.25347e-08
9.91106e-08
1.04339e-07
1.06433e-07
1.06971e-07
1.06595e-07
1.03682e-07
9.81567e-08
9.33569e-08
9.16693e-08
9.16142e-08
9.13737e-08
9.2169e-08
9.53054e-08
9.84316e-08
9.85896e-08
9.65323e-08
9.52336e-08
9.45865e-08
9.2867e-08
9.0567e-08
9.09264e-08
9.39765e-08
9.68763e-08
9.77066e-08
9.76738e-08
9.80613e-08
9.60067e-08
9.30045e-08
8.77138e-08
8.93045e-08
8.86845e-08
9.8859e-08
9.96744e-08
1.18281e-07
1.1408e-07
1.34281e-07
1.11635e-07
1.31012e-07
1.01223e-07
1.61173e-07
1.44904e-07
1.15916e-07
9.83807e-08
6.97227e-08
6.43688e-08
6.26674e-08
7.45339e-08
8.83812e-08
1.06591e-07
1.18773e-07
1.27587e-07
1.29747e-07
1.26872e-07
1.177e-07
1.06618e-07
9.72546e-08
9.14108e-08
8.80317e-08
8.76172e-08
9.14392e-08
9.80084e-08
1.03453e-07
1.05915e-07
1.06822e-07
1.06715e-07
1.0397e-07
9.85175e-08
9.36598e-08
9.18037e-08
9.15887e-08
9.12942e-08
9.21265e-08
9.53403e-08
9.85976e-08
9.89475e-08
9.7062e-08
9.58129e-08
9.51067e-08
9.33063e-08
9.09424e-08
9.12417e-08
9.42666e-08
9.72596e-08
9.82816e-08
9.84452e-08
9.88965e-08
9.67859e-08
9.35469e-08
8.78751e-08
8.89125e-08
8.7767e-08
9.75938e-08
9.83149e-08
1.17237e-07
1.13462e-07
1.34461e-07
1.1203e-07
1.31745e-07
1.01144e-07
1.61606e-07
1.47605e-07
1.19702e-07
1.01198e-07
7.11661e-08
6.42319e-08
6.11277e-08
7.1987e-08
8.54042e-08
1.03807e-07
1.16649e-07
1.26377e-07
1.29419e-07
1.27241e-07
1.18475e-07
1.07451e-07
9.77977e-08
9.14568e-08
8.75693e-08
8.67576e-08
9.03337e-08
9.6852e-08
1.02481e-07
1.05298e-07
1.06578e-07
1.06756e-07
1.04205e-07
9.88509e-08
9.39528e-08
9.19333e-08
9.15533e-08
9.11936e-08
9.20497e-08
9.53302e-08
9.87157e-08
9.9265e-08
9.75664e-08
9.63833e-08
9.56312e-08
9.37575e-08
9.133e-08
9.15611e-08
9.45496e-08
9.7629e-08
9.88467e-08
9.92226e-08
9.97638e-08
9.76296e-08
9.4182e-08
8.8145e-08
8.86168e-08
8.69116e-08
9.63303e-08
9.68943e-08
1.16078e-07
1.12706e-07
1.34535e-07
1.12364e-07
1.325e-07
1.01064e-07
1.61789e-07
1.50247e-07
1.23662e-07
1.04288e-07
7.29789e-08
6.44518e-08
5.98725e-08
6.95957e-08
8.24463e-08
1.00921e-07
1.14344e-07
1.24958e-07
1.28902e-07
1.27477e-07
1.19189e-07
1.08293e-07
9.8401e-08
9.15853e-08
8.71823e-08
8.59431e-08
8.92287e-08
9.56496e-08
1.01427e-07
1.04582e-07
1.06235e-07
1.06714e-07
1.04382e-07
9.91518e-08
9.42325e-08
9.20565e-08
9.15074e-08
9.10717e-08
9.1938e-08
9.52734e-08
9.8783e-08
9.95382e-08
9.80413e-08
9.6941e-08
9.61574e-08
9.42189e-08
9.17281e-08
9.18824e-08
9.48218e-08
9.79788e-08
9.93945e-08
9.99984e-08
1.00657e-07
9.85351e-08
9.49122e-08
8.8532e-08
8.84312e-08
8.61358e-08
9.50845e-08
9.54244e-08
1.14806e-07
1.11807e-07
1.3449e-07
1.12622e-07
1.33269e-07
1.00981e-07
1.61723e-07
1.52793e-07
1.27761e-07
1.07629e-07
7.51625e-08
6.50476e-08
5.89348e-08
6.73981e-08
7.95434e-08
9.79616e-08
1.11874e-07
1.23334e-07
1.28189e-07
1.27564e-07
1.19827e-07
1.09132e-07
9.90577e-08
9.1796e-08
8.68765e-08
8.51833e-08
8.81347e-08
9.44105e-08
1.00298e-07
1.03769e-07
1.05793e-07
1.06584e-07
1.04494e-07
9.94152e-08
9.44951e-08
9.21714e-08
9.14504e-08
9.09282e-08
9.17907e-08
9.51682e-08
9.87966e-08
9.97633e-08
9.84825e-08
9.74821e-08
9.66821e-08
9.46881e-08
9.21349e-08
9.22032e-08
9.50795e-08
9.83032e-08
9.99172e-08
1.00764e-07
1.01567e-07
9.94979e-08
9.57384e-08
8.90437e-08
8.83693e-08
8.54571e-08
9.38739e-08
9.39191e-08
1.13427e-07
1.10761e-07
1.34315e-07
1.12789e-07
1.34046e-07
1.00895e-07
1.61411e-07
1.55205e-07
1.31959e-07
1.11195e-07
7.77127e-08
6.60339e-08
5.83457e-08
6.54326e-08
7.67341e-08
9.49584e-08
1.09258e-07
1.21509e-07
1.27272e-07
1.27491e-07
1.20372e-07
1.09955e-07
9.97594e-08
9.20873e-08
8.66566e-08
8.44875e-08
8.7063e-08
9.31452e-08
9.9101e-08
1.02862e-07
1.05249e-07
1.06364e-07
1.04538e-07
9.96362e-08
9.4737e-08
9.22758e-08
9.13817e-08
9.07632e-08
9.16076e-08
9.50133e-08
9.87538e-08
9.99365e-08
9.88856e-08
9.80026e-08
9.72022e-08
9.51629e-08
9.25486e-08
9.25213e-08
9.5319e-08
9.85963e-08
1.00407e-07
1.01509e-07
1.02487e-07
1.00512e-07
9.66599e-08
8.96861e-08
8.84438e-08
8.48937e-08
9.27174e-08
9.23949e-08
1.11949e-07
1.09566e-07
1.33998e-07
1.12849e-07
1.34822e-07
1.00805e-07
1.60858e-07
1.57443e-07
1.36212e-07
1.14956e-07
8.06191e-08
6.74203e-08
5.81329e-08
6.3737e-08
7.40586e-08
9.19459e-08
1.06518e-07
1.19494e-07
1.2615e-07
1.27245e-07
1.2081e-07
1.10747e-07
1.00496e-07
9.24561e-08
8.65263e-08
8.38643e-08
8.60248e-08
9.18647e-08
9.78447e-08
1.01867e-07
1.04606e-07
1.0605e-07
1.04508e-07
9.98101e-08
9.49542e-08
9.23676e-08
9.13006e-08
9.05769e-08
9.13885e-08
9.48078e-08
9.86523e-08
1.00054e-07
9.92462e-08
9.8498e-08
9.77141e-08
9.56406e-08
9.29672e-08
9.28344e-08
9.55369e-08
9.88525e-08
1.00855e-07
1.02224e-07
1.03405e-07
1.01569e-07
9.76739e-08
9.04635e-08
8.86664e-08
8.44637e-08
9.16349e-08
9.08705e-08
1.10382e-07
1.08223e-07
1.33527e-07
1.12785e-07
1.35586e-07
1.0071e-07
1.60075e-07
1.59467e-07
1.40472e-07
1.18875e-07
8.38646e-08
6.92108e-08
5.83208e-08
6.23478e-08
7.15583e-08
8.89611e-08
1.03682e-07
1.17302e-07
1.24824e-07
1.26818e-07
1.21126e-07
1.11492e-07
1.01257e-07
9.28975e-08
8.64877e-08
8.33218e-08
8.50316e-08
9.05811e-08
9.6539e-08
1.00789e-07
1.03865e-07
1.05641e-07
1.044e-07
9.99322e-08
9.51431e-08
9.24446e-08
9.12064e-08
9.03693e-08
9.11338e-08
9.4551e-08
9.849e-08
1.00112e-07
9.95598e-08
9.89639e-08
9.82139e-08
9.61187e-08
9.33889e-08
9.31408e-08
9.573e-08
9.90662e-08
1.01253e-07
1.02898e-07
1.04311e-07
1.02661e-07
9.87754e-08
9.13782e-08
8.90472e-08
8.41846e-08
9.06477e-08
8.93668e-08
1.08739e-07
1.06738e-07
1.32896e-07
1.12581e-07
1.36328e-07
1.00608e-07
1.59069e-07
1.61237e-07
1.44687e-07
1.22908e-07
8.74253e-08
7.14026e-08
5.89284e-08
6.12992e-08
6.92752e-08
8.6044e-08
1.00782e-07
1.14952e-07
1.23298e-07
1.26203e-07
1.21306e-07
1.12177e-07
1.02029e-07
9.34051e-08
8.65415e-08
8.28669e-08
8.40946e-08
8.93069e-08
9.51951e-08
9.96365e-08
1.03029e-07
1.05136e-07
1.04213e-07
9.99985e-08
9.53e-08
9.25045e-08
9.10984e-08
9.01409e-08
9.08438e-08
9.42426e-08
9.82653e-08
1.00108e-07
9.9822e-08
9.93955e-08
9.86978e-08
9.65942e-08
9.38117e-08
9.34387e-08
9.58959e-08
9.92325e-08
1.01594e-07
1.03521e-07
1.05191e-07
1.03774e-07
9.99572e-08
9.24299e-08
8.95945e-08
8.40734e-08
8.97772e-08
8.79071e-08
1.07036e-07
1.05116e-07
1.32095e-07
1.12222e-07
1.37038e-07
1.00496e-07
1.57851e-07
1.62713e-07
1.48803e-07
1.27009e-07
9.12702e-08
7.39863e-08
5.99696e-08
6.06222e-08
6.72506e-08
8.32362e-08
9.78521e-08
1.12466e-07
1.21581e-07
1.25397e-07
1.21339e-07
1.12784e-07
1.02799e-07
9.3971e-08
8.66868e-08
8.25056e-08
8.32246e-08
8.80551e-08
9.38251e-08
9.84178e-08
1.02104e-07
1.04537e-07
1.03943e-07
1.00005e-07
9.54214e-08
9.25451e-08
9.0976e-08
8.98921e-08
9.05194e-08
9.38827e-08
9.79766e-08
1.00039e-07
1.00028e-07
9.97883e-08
9.91615e-08
9.70641e-08
9.42338e-08
9.37267e-08
9.60323e-08
9.9347e-08
1.01869e-07
1.0408e-07
1.06034e-07
1.04897e-07
1.01209e-07
9.36156e-08
9.03142e-08
8.41455e-08
8.90454e-08
8.65163e-08
1.05294e-07
1.03369e-07
1.31122e-07
1.11693e-07
1.37705e-07
1.00372e-07
1.56434e-07
1.6386e-07
1.52763e-07
1.31126e-07
9.53616e-08
7.69449e-08
6.14514e-08
6.03436e-08
6.55247e-08
8.05809e-08
9.49307e-08
1.09871e-07
1.19688e-07
1.24399e-07
1.21215e-07
1.13301e-07
1.03554e-07
9.4586e-08
8.69211e-08
8.22424e-08
8.24318e-08
8.68388e-08
9.24421e-08
9.71439e-08
1.01096e-07
1.03845e-07
1.03589e-07
9.99502e-08
9.55042e-08
9.25644e-08
9.08389e-08
8.96238e-08
9.01616e-08
9.34718e-08
9.76232e-08
9.99006e-08
1.00175e-07
1.00137e-07
9.96007e-08
9.75253e-08
9.46535e-08
9.4004e-08
9.61379e-08
9.9406e-08
1.02072e-07
1.04565e-07
1.06823e-07
1.06015e-07
1.0252e-07
9.49294e-08
9.12094e-08
8.44148e-08
8.84738e-08
8.52211e-08
1.03534e-07
1.01512e-07
1.29975e-07
1.10979e-07
1.38316e-07
1.00231e-07
1.5483e-07
1.64645e-07
1.5651e-07
1.35205e-07
9.96547e-08
8.02537e-08
6.33739e-08
6.04852e-08
6.41351e-08
7.81215e-08
9.2059e-08
1.07199e-07
1.17635e-07
1.23214e-07
1.20928e-07
1.13714e-07
1.04279e-07
9.52393e-08
8.72402e-08
8.20804e-08
8.17254e-08
8.56712e-08
9.10598e-08
9.58263e-08
1.00012e-07
1.03065e-07
1.03153e-07
9.98307e-08
9.55458e-08
9.25608e-08
9.06868e-08
8.9337e-08
8.97721e-08
9.30109e-08
9.72046e-08
9.96919e-08
1.00256e-07
1.00437e-07
1.00011e-07
9.79746e-08
9.50691e-08
9.42701e-08
9.62119e-08
9.9407e-08
1.02195e-07
1.04965e-07
1.07544e-07
1.0711e-07
1.03873e-07
9.63622e-08
9.22802e-08
8.48928e-08
8.80832e-08
8.40494e-08
1.01782e-07
9.95628e-08
1.28654e-07
1.10071e-07
1.38862e-07
1.0007e-07
1.53051e-07
1.65038e-07
1.59989e-07
1.39188e-07
1.04099e-07
8.38804e-08
6.57292e-08
6.10625e-08
6.31159e-08
7.59011e-08
8.92801e-08
1.04484e-07
1.15444e-07
1.2185e-07
1.20473e-07
1.14011e-07
1.04959e-07
9.59193e-08
8.76385e-08
8.20213e-08
8.11138e-08
8.4565e-08
8.96926e-08
9.4478e-08
9.88632e-08
1.02203e-07
1.02635e-07
9.96457e-08
9.55443e-08
9.25329e-08
9.05198e-08
8.90331e-08
8.93529e-08
9.25018e-08
9.6721e-08
9.94104e-08
1.0027e-07
1.00684e-07
1.00388e-07
9.84087e-08
9.54792e-08
9.4525e-08
9.62548e-08
9.93482e-08
1.02233e-07
1.05269e-07
1.08183e-07
1.08164e-07
1.05252e-07
9.79013e-08
9.35231e-08
8.55881e-08
8.78933e-08
8.30296e-08
1.00066e-07
9.75451e-08
1.27165e-07
1.08959e-07
1.39331e-07
9.98816e-08
1.51111e-07
1.65017e-07
1.63143e-07
1.43015e-07
1.08636e-07
8.77848e-08
6.85011e-08
6.20839e-08
6.24969e-08
7.3961e-08
8.66384e-08
1.01764e-07
1.13143e-07
1.2032e-07
1.19849e-07
1.14182e-07
1.05582e-07
9.66136e-08
8.81087e-08
8.20648e-08
8.06039e-08
8.35325e-08
8.83549e-08
9.31127e-08
9.76595e-08
1.01264e-07
1.02038e-07
9.93954e-08
9.54984e-08
9.24798e-08
9.03383e-08
8.87139e-08
8.89063e-08
9.19465e-08
9.61729e-08
9.90547e-08
1.00212e-07
1.00872e-07
1.00726e-07
9.88243e-08
9.58823e-08
9.47693e-08
9.62676e-08
9.92294e-08
1.02182e-07
1.05467e-07
1.08723e-07
1.09158e-07
1.06636e-07
9.95306e-08
9.49306e-08
8.65059e-08
8.79213e-08
8.21906e-08
9.84163e-08
9.54856e-08
1.25518e-07
1.07638e-07
1.39715e-07
9.96612e-08
1.49027e-07
1.64566e-07
1.6592e-07
1.46627e-07
1.13207e-07
9.19194e-08
7.16646e-08
6.35502e-08
6.23017e-08
7.23397e-08
8.41784e-08
9.90812e-08
1.10762e-07
1.18639e-07
1.19059e-07
1.1422e-07
1.06134e-07
9.73094e-08
8.86422e-08
8.22093e-08
8.02013e-08
8.2585e-08
8.70612e-08
9.17448e-08
9.6413e-08
1.00256e-07
1.01366e-07
9.90807e-08
9.54077e-08
9.24014e-08
9.01432e-08
8.83816e-08
8.84355e-08
9.13479e-08
9.5562e-08
9.86238e-08
1.00079e-07
1.00997e-07
1.01021e-07
9.92178e-08
9.62774e-08
9.5004e-08
9.62527e-08
9.90518e-08
1.0204e-07
1.05552e-07
1.0915e-07
1.10072e-07
1.08003e-07
1.0123e-07
9.64911e-08
8.76475e-08
8.81823e-08
8.15603e-08
9.68645e-08
9.34151e-08
1.23726e-07
1.06106e-07
1.40003e-07
9.94013e-08
1.46814e-07
1.63676e-07
1.68274e-07
1.49965e-07
1.17745e-07
9.62301e-08
7.51862e-08
6.54535e-08
6.25475e-08
7.1072e-08
8.1944e-08
9.64769e-08
1.08335e-07
1.16829e-07
1.18112e-07
1.1412e-07
1.06603e-07
9.79937e-08
8.92292e-08
8.24512e-08
7.99099e-08
8.17329e-08
8.58257e-08
9.03894e-08
9.51369e-08
9.9191e-08
1.00626e-07
9.87038e-08
9.52725e-08
9.22979e-08
8.9936e-08
8.8039e-08
8.79441e-08
9.07097e-08
9.48904e-08
9.81177e-08
9.98676e-08
1.01054e-07
1.01268e-07
9.95858e-08
9.66631e-08
9.52309e-08
9.62134e-08
9.88182e-08
1.01806e-07
1.05515e-07
1.0945e-07
1.10884e-07
1.09327e-07
1.02978e-07
9.81885e-08
8.90098e-08
8.86874e-08
8.11655e-08
9.5444e-08
9.1368e-08
1.21806e-07
1.04368e-07
1.40191e-07
9.90942e-08
1.44489e-07
1.62347e-07
1.70162e-07
1.52972e-07
1.22182e-07
1.00656e-07
7.90234e-08
6.77773e-08
6.32437e-08
7.01873e-08
7.99769e-08
9.3995e-08
1.059e-07
1.14915e-07
1.17017e-07
1.1388e-07
1.06981e-07
9.86539e-08
8.98591e-08
8.27855e-08
7.97319e-08
8.09852e-08
8.46618e-08
8.90614e-08
9.38452e-08
9.8078e-08
9.98236e-08
9.82683e-08
9.50943e-08
9.21704e-08
8.97188e-08
8.76895e-08
8.74365e-08
9.00361e-08
9.41611e-08
9.75367e-08
9.95763e-08
1.0104e-07
1.01463e-07
9.99246e-08
9.70384e-08
9.54518e-08
9.6154e-08
9.85329e-08
1.0148e-07
1.05354e-07
1.09609e-07
1.11575e-07
1.10584e-07
1.04746e-07
1.00002e-07
9.05847e-08
8.94441e-08
8.10306e-08
9.41885e-08
8.9382e-08
1.19782e-07
1.0243e-07
1.40272e-07
9.87314e-08
1.42073e-07
1.6059e-07
1.71549e-07
1.55598e-07
1.26451e-07
1.05133e-07
8.31259e-08
7.04954e-08
6.43911e-08
6.97088e-08
7.83155e-08
9.16791e-08
1.03497e-07
1.12926e-07
1.1579e-07
1.13504e-07
1.0726e-07
9.92781e-08
9.05208e-08
8.32057e-08
7.96678e-08
8.03495e-08
8.35824e-08
8.7776e-08
9.25522e-08
9.69295e-08
9.89676e-08
9.7779e-08
9.48756e-08
9.2021e-08
8.9494e-08
8.73368e-08
8.69176e-08
8.93324e-08
9.33781e-08
9.68824e-08
9.92032e-08
1.0095e-07
1.01601e-07
1.0023e-07
9.74021e-08
9.56694e-08
9.60799e-08
9.82019e-08
1.01067e-07
1.05063e-07
1.09617e-07
1.12124e-07
1.11745e-07
1.06506e-07