/*--------------------------------*- C++ -*----------------------------------*\
| =========                 |                                                 |
| \\      /  F ield         | foam-extend: Open Source CFD                    |
|  \\    /   O peration     | Version:     4.0                                |
|   \\  /    A nd           | Web:         http://www.foam-extend.org         |
|    \\/     M anipulation  |                                                 |
\*---------------------------------------------------------------------------*/
FoamFile
{
    version     2.0;
    format      ascii;
    class       volVectorField;
    location    "2";
    object      U;
}
// * * * * * * * * * * * * * * * * * * * * * * * * * * * * * * * * * * * * * //

dimensions      [0 1 -1 0 0 0 0];

internalField   nonuniform List<vector> 
6960
(
(7.29606e-13 -1.08752e-12 0)
(-2.81299e-13 3.02628e-14 0)
(-8.26538e-13 2.93982e-14 0)
(-1.02695e-12 1.7586e-14 0)
(-8.08069e-13 -1.27502e-16 0)
(-2.20555e-13 -1.46995e-14 0)
(5.35352e-13 -2.5353e-14 0)
(1.41336e-12 -2.83654e-14 0)
(2.07917e-12 -2.42422e-14 0)
(2.4462e-12 -1.45651e-14 0)
(2.42336e-12 -2.22756e-15 0)
(2.12345e-12 9.72952e-15 0)
(1.60051e-12 1.69854e-14 0)
(1.04983e-12 1.81696e-14 0)
(6.12205e-13 1.45895e-14 0)
(3.50733e-13 8.43173e-15 0)
(2.52558e-13 6.16741e-16 0)
(3.04071e-13 -7.17387e-15 0)
(4.64068e-13 -1.14388e-14 0)
(6.22769e-13 -1.00332e-14 0)
(6.61313e-13 -5.05352e-15 0)
(5.82493e-13 -1.24274e-16 0)
(4.87558e-13 3.67639e-15 0)
(4.46192e-13 6.93197e-15 0)
(4.52035e-13 8.19125e-15 0)
(5.24043e-13 4.95073e-15 0)
(7.23102e-13 -1.80721e-15 0)
(1.02919e-12 -7.47054e-15 0)
(1.27598e-12 -9.20717e-15 0)
(1.2922e-12 -8.34822e-15 0)
(1.05881e-12 -6.20924e-15 0)
(6.41404e-13 -1.45101e-15 0)
(7.24618e-14 6.59013e-15 0)
(-5.98695e-13 1.4188e-14 0)
(-1.20144e-12 1.67903e-14 0)
(-1.47599e-12 1.44784e-14 0)
(-1.30366e-12 9.98844e-15 0)
(-7.93665e-13 4.03274e-15 0)
(-6.36269e-15 -4.48371e-15 0)
(9.03547e-13 -1.44596e-14 0)
(1.7977e-12 -2.10422e-14 0)
(2.45605e-12 -2.15548e-14 0)
(2.46706e-12 -1.90104e-14 0)
(2.08844e-12 -1.33558e-14 0)
(1.1932e-12 -5.79392e-15 0)
(1.95798e-14 4.13773e-15 0)
(-1.08009e-12 1.51314e-14 0)
(-2.24403e-12 1.89554e-14 0)
(-2.63638e-12 1.97646e-14 0)
(-2.49234e-12 1.60205e-14 0)
(-1.85076e-12 8.1733e-15 0)
(-5.44122e-13 -3.06493e-17 0)
(5.94885e-13 -9.95424e-15 0)
(1.77908e-12 -1.48621e-14 0)
(2.35493e-12 -1.20819e-14 0)
(2.08294e-12 -7.06238e-15 0)
(1.40732e-12 2.26637e-15 0)
(2.65594e-13 6.13656e-15 0)
(-4.42957e-13 2.92822e-15 0)
(-5.53046e-13 -8.83043e-15 0)
(2.38735e-12 -2.33436e-12 0)
(-4.93493e-13 8.72297e-14 0)
(-2.14892e-12 1.18326e-13 0)
(-2.83865e-12 8.41609e-14 0)
(-2.34574e-12 2.55685e-14 0)
(-7.91175e-13 -2.88931e-14 0)
(1.32529e-12 -7.54727e-14 0)
(3.89846e-12 -9.97314e-14 0)
(5.9225e-12 -9.71415e-14 0)
(7.12199e-12 -7.14617e-14 0)
(7.21245e-12 -3.06641e-14 0)
(6.47475e-12 1.45275e-14 0)
(5.0199e-12 4.84187e-14 0)
(3.41952e-12 6.31044e-14 0)
(2.11396e-12 5.94629e-14 0)
(1.29137e-12 4.33343e-14 0)
(9.05766e-13 1.80543e-14 0)
(9.50797e-13 -1.06882e-14 0)
(1.36438e-12 -3.09821e-14 0)
(1.83191e-12 -3.38084e-14 0)
(1.95764e-12 -2.31362e-14 0)
(1.72872e-12 -9.70461e-15 0)
(1.47527e-12 1.84474e-15 0)
(1.41269e-12 1.25165e-14 0)
(1.4733e-12 1.80471e-14 0)
(1.67798e-12 1.03854e-14 0)
(2.24633e-12 -8.67069e-15 0)
(3.16969e-12 -2.50782e-14 0)
(3.93412e-12 -2.8651e-14 0)
(3.98113e-12 -2.23506e-14 0)
(3.26183e-12 -1.1232e-14 0)
(2.01784e-12 6.82937e-15 0)
(3.41226e-13 3.31055e-14 0)
(-1.67961e-12 5.57737e-14 0)
(-3.54687e-12 5.98964e-14 0)
(-4.42433e-12 4.51212e-14 0)
(-3.92671e-12 2.10139e-14 0)
(-2.39797e-12 -6.17336e-15 0)
(-5.51916e-14 -3.65836e-14 0)
(2.66628e-12 -6.64912e-14 0)
(5.40598e-12 -7.94549e-14 0)
(7.42982e-12 -6.93903e-14 0)
(7.50097e-12 -4.7114e-14 0)
(6.35147e-12 -1.51021e-14 0)
(3.63158e-12 1.40826e-14 0)
(1.21545e-13 4.50783e-14 0)
(-3.25462e-12 7.02604e-14 0)
(-6.79141e-12 6.61383e-14 0)
(-8.01582e-12 5.30224e-14 0)
(-7.61379e-12 2.3692e-14 0)
(-5.64373e-12 -9.5914e-15 0)
(-1.73089e-12 -3.36345e-14 0)
(1.72425e-12 -5.69213e-14 0)
(5.35276e-12 -5.37855e-14 0)
(7.09734e-12 -2.95783e-14 0)
(6.38807e-12 -6.07585e-16 0)
(4.33572e-12 3.0638e-14 0)
(9.90247e-13 3.14327e-14 0)
(-1.21121e-12 8.94251e-15 0)
(-1.57121e-12 -4.90679e-14 0)
(4.15335e-12 -2.50537e-12 0)
(-4.1206e-13 1.40562e-13 0)
(-3.1789e-12 2.70036e-13 0)
(-4.43607e-12 2.11724e-13 0)
(-3.8037e-12 9.77651e-14 0)
(-1.45126e-12 -2.15464e-14 0)
(1.90728e-12 -1.34222e-13 0)
(6.13081e-12 -2.0868e-13 0)
(9.54069e-12 -2.23897e-13 0)
(1.16584e-11 -1.84504e-13 0)
(1.19924e-11 -1.03241e-13 0)
(1.09479e-11 -2.90985e-15 0)
(8.65284e-12 8.30963e-14 0)
(6.0424e-12 1.33208e-13 0)
(3.86844e-12 1.42423e-13 0)
(2.44651e-12 1.18858e-13 0)
(1.69729e-12 6.96444e-14 0)
(1.64891e-12 6.93298e-15 0)
(2.26226e-12 -4.51859e-14 0)
(3.02933e-12 -6.60928e-14 0)
(3.25109e-12 -5.80405e-14 0)
(2.88243e-12 -3.85736e-14 0)
(2.49633e-12 -1.79766e-14 0)
(2.45546e-12 3.44564e-15 0)
(2.59792e-12 1.77223e-14 0)
(2.92362e-12 1.00812e-14 0)
(3.83721e-12 -1.80479e-14 0)
(5.37772e-12 -4.24662e-14 0)
(6.67611e-12 -4.35114e-14 0)
(6.75824e-12 -2.47673e-14 0)
(5.54951e-12 3.282e-15 0)
(3.49396e-12 4.05584e-14 0)
(7.35844e-13 8.70472e-14 0)
(-2.63964e-12 1.21095e-13 0)
(-5.81822e-12 1.16018e-13 0)
(-7.34964e-12 7.17909e-14 0)
(-6.55974e-12 8.12906e-15 0)
(-4.0329e-12 -5.61262e-14 0)
(-1.62023e-13 -1.14494e-13 0)
(4.36078e-12 -1.59649e-13 0)
(8.98986e-12 -1.61024e-13 0)
(1.2427e-11 -1.14614e-13 0)
(1.26078e-11 -4.43326e-14 0)
(1.07019e-11 4.00958e-14 0)
(6.15486e-12 9.89879e-14 0)
(3.25671e-13 1.47143e-13 0)
(-5.3838e-12 1.65401e-13 0)
(-1.13377e-11 1.18475e-13 0)
(-1.34534e-11 5.96177e-14 0)
(-1.28444e-11 -2.77152e-14 0)
(-9.54066e-12 -1.00996e-13 0)
(-3.04561e-12 -1.33351e-13 0)
(2.75224e-12 -1.51087e-13 0)
(8.89029e-12 -1.00419e-13 0)
(1.18436e-11 -2.17886e-14 0)
(1.08021e-11 5.68657e-14 0)
(7.38284e-12 1.12649e-13 0)
(1.89354e-12 8.57416e-14 0)
(-1.86088e-12 1.42741e-14 0)
(-2.51115e-12 -1.36928e-13 0)
(5.94828e-12 -2.65874e-12 0)
(-8.00034e-14 1.82871e-13 0)
(-3.92851e-12 4.78937e-13 0)
(-5.81489e-12 3.95842e-13 0)
(-5.15639e-12 2.13453e-13 0)
(-2.15599e-12 5.35971e-15 0)
(2.33475e-12 -2.01618e-13 0)
(8.15377e-12 -3.543e-13 0)
(1.2959e-11 -4.03144e-13 0)
(1.60584e-11 -3.52333e-13 0)
(1.67405e-11 -2.18726e-13 0)
(1.55002e-11 -4.18796e-14 0)
(1.24511e-11 1.21336e-13 0)
(8.87501e-12 2.29084e-13 0)
(5.83792e-12 2.64691e-13 0)
(3.78623e-12 2.36435e-13 0)
(2.61369e-12 1.56779e-13 0)
(2.4039e-12 4.73871e-14 0)
(3.16993e-12 -5.20764e-14 0)
(4.22181e-12 -1.05661e-13 0)
(4.54556e-12 -1.10132e-13 0)
(4.05147e-12 -8.81696e-14 0)
(3.55575e-12 -5.72576e-14 0)
(3.56378e-12 -2.16111e-14 0)
(3.80078e-12 5.85986e-15 0)
(4.23392e-12 3.57686e-15 0)
(5.46804e-12 -2.79999e-14 0)
(7.61328e-12 -5.51798e-14 0)
(9.44889e-12 -4.82962e-14 0)
(9.57571e-12 -1.02836e-14 0)
(7.89438e-12 4.22317e-14 0)
(5.05954e-12 1.0351e-13 0)
(1.25752e-12 1.69191e-13 0)
(-3.45796e-12 2.06733e-13 0)
(-7.96828e-12 1.78587e-13 0)
(-1.01956e-11 8.6874e-14 0)
(-9.16383e-12 -3.59798e-14 0)
(-5.69093e-12 -1.51819e-13 0)
(-3.47861e-13 -2.40941e-13 0)
(5.94036e-12 -2.91164e-13 0)
(1.24677e-11 -2.57302e-13 0)
(1.73487e-11 -1.4527e-13 0)
(1.76999e-11 2.53053e-15 0)
(1.50883e-11 1.64401e-13 0)
(8.76415e-12 2.57971e-13 0)
(6.70036e-13 3.13444e-13 0)
(-7.3832e-12 2.96021e-13 0)
(-1.57683e-11 1.65437e-13 0)
(-1.88364e-11 2.52776e-14 0)
(-1.80958e-11 -1.52832e-13 0)
(-1.35068e-11 -2.78209e-13 0)
(-4.50379e-12 -3.06116e-13 0)
(3.62339e-12 -2.92014e-13 0)
(1.22965e-11 -1.47616e-13 0)
(1.65049e-11 2.23151e-14 0)
(1.52433e-11 1.77373e-13 0)
(1.05168e-11 2.57704e-13 0)
(2.95661e-12 1.74895e-13 0)
(-2.37821e-12 2.02756e-14 0)
(-3.36633e-12 -2.72838e-13 0)
(7.73849e-12 -2.9727e-12 0)
(4.9087e-13 2.15043e-13 0)
(-4.39523e-12 7.44308e-13 0)
(-6.96393e-12 6.35943e-13 0)
(-6.38455e-12 3.71003e-13 0)
(-2.88135e-12 4.93202e-14 0)
(2.63118e-12 -2.80056e-13 0)
(9.98207e-12 -5.38579e-13 0)
(1.61814e-11 -6.36189e-13 0)
(2.03152e-11 -5.75346e-13 0)
(2.14393e-11 -3.76478e-13 0)
(2.01079e-11 -1.01066e-13 0)
(1.63916e-11 1.64567e-13 0)
(1.18994e-11 3.521e-13 0)
(8.0092e-12 4.27575e-13 0)
(5.30192e-12 3.96986e-13 0)
(3.65361e-12 2.79612e-13 0)
(3.22189e-12 1.1031e-13 0)
(4.09518e-12 -5.18798e-14 0)
(5.41352e-12 -1.52415e-13 0)
(5.84316e-12 -1.79359e-13 0)
(5.23933e-12 -1.58546e-13 0)
(4.65561e-12 -1.15704e-13 0)
(4.73267e-12 -6.19036e-14 0)
(5.07022e-12 -1.69461e-14 0)
(5.59577e-12 -9.12263e-15 0)
(7.12466e-12 -3.86812e-14 0)
(9.8562e-12 -6.29707e-14 0)
(1.22266e-11 -4.25119e-14 0)
(1.2411e-11 2.14258e-14 0)
(1.02848e-11 1.06032e-13 0)
(6.71322e-12 1.96767e-13 0)
(1.91255e-12 2.81102e-13 0)
(-4.11768e-12 3.1389e-13 0)
(-9.96801e-12 2.48038e-13 0)
(-1.29305e-11 9.0362e-14 0)
(-1.17183e-11 -1.1154e-13 0)
(-7.3696e-12 -2.9413e-13 0)
(-6.27469e-13 -4.17569e-13 0)
(7.37535e-12 -4.62644e-13 0)
(1.57929e-11 -3.69166e-13 0)
(2.21413e-11 -1.61196e-13 0)
(2.27324e-11 9.42352e-14 0)
(1.94867e-11 3.5914e-13 0)
(1.1465e-11 4.93436e-13 0)
(1.18199e-12 5.4641e-13 0)
(-9.20242e-12 4.64231e-13 0)
(-2.00185e-11 2.07825e-13 0)
(-2.41048e-11 -5.06162e-14 0)
(-2.33242e-11 -3.53039e-13 0)
(-1.75285e-11 -5.44098e-13 0)
(-6.12113e-12 -5.5533e-13 0)
(4.30064e-12 -4.82723e-13 0)
(1.55155e-11 -1.97507e-13 0)
(2.10306e-11 1.03113e-13 0)
(1.96703e-11 3.63141e-13 0)
(1.37237e-11 4.70362e-13 0)
(4.17648e-12 3.04272e-13 0)
(-2.75073e-12 3.02706e-14 0)
(-4.13001e-12 -4.55795e-13 0)
(9.50405e-12 -3.40942e-12 0)
(1.29696e-12 2.3198e-13 0)
(-4.5723e-12 1.06335e-12 0)
(-7.86949e-12 9.32629e-13 0)
(-7.47023e-12 5.73065e-13 0)
(-3.60903e-12 1.13803e-13 0)
(2.81124e-12 -3.6615e-13 0)
(1.16219e-11 -7.59206e-13 0)
(1.9205e-11 -9.2239e-13 0)
(2.44182e-11 -8.54629e-13 0)
(2.60726e-11 -5.78779e-13 0)
(2.47525e-11 -1.8337e-13 0)
(2.04585e-11 2.10009e-13 0)
(1.51052e-11 5.0045e-13 0)
(1.03768e-11 6.30779e-13 0)
(6.99194e-12 6.01574e-13 0)
(4.81995e-12 4.4003e-13 0)
(4.10963e-12 1.97995e-13 0)
(5.04478e-12 -4.22333e-14 0)
(6.6081e-12 -2.04516e-13 0)
(7.14552e-12 -2.65007e-13 0)
(6.44796e-12 -2.50114e-13 0)
(5.79684e-12 -1.94296e-13 0)
(5.95879e-12 -1.18576e-13 0)
(6.39882e-12 -5.19885e-14 0)
(7.00057e-12 -2.93044e-14 0)
(8.79744e-12 -5.0843e-14 0)
(1.20929e-11 -6.57393e-14 0)
(1.49923e-11 -2.55132e-14 0)
(1.52499e-11 7.11503e-14 0)
(1.27144e-11 1.95701e-13 0)
(8.45632e-12 3.21809e-13 0)
(2.70864e-12 4.24426e-13 0)
(-4.60344e-12 4.43762e-13 0)
(-1.17945e-11 3.2489e-13 0)
(-1.55308e-11 8.2243e-14 0)
(-1.42083e-11 -2.19132e-13 0)
(-9.06769e-12 -4.84539e-13 0)
(-1.01308e-12 -6.46696e-13 0)
(8.64209e-12 -6.76404e-13 0)
(1.89303e-11 -4.98132e-13 0)
(2.67661e-11 -1.62693e-13 0)
(2.76742e-11 2.31873e-13 0)
(2.38823e-11 6.26813e-13 0)
(1.4264e-11 8.09374e-13 0)
(1.88495e-12 8.50511e-13 0)
(-1.08024e-11 6.73726e-13 0)
(-2.40405e-11 2.47771e-13 0)
(-2.92152e-11 -1.68216e-13 0)
(-2.85e-11 -6.30596e-13 0)
(-2.15986e-11 -9.02864e-13 0)
(-7.91283e-12 -8.86345e-13 0)
(4.75324e-12 -7.28091e-13 0)
(1.85043e-11 -2.53487e-13 0)
(2.53824e-11 2.19699e-13 0)
(2.40539e-11 6.15841e-13 0)
(1.6995e-11 7.54312e-13 0)
(5.55483e-12 4.78304e-13 0)
(-2.96661e-12 4.71504e-14 0)
(-4.79537e-12 -6.84802e-13 0)
(1.12301e-11 -3.93328e-12 0)
(2.33675e-12 2.27259e-13 0)
(-4.4518e-12 1.43247e-12 0)
(-8.51683e-12 1.2862e-12 0)
(-8.3956e-12 8.22623e-13 0)
(-4.32241e-12 2.03069e-13 0)
(2.88671e-12 -4.55614e-13 0)
(1.30763e-11 -1.01306e-12 0)
(2.20245e-11 -1.26053e-12 0)
(2.83556e-11 -1.19109e-12 0)
(3.0624e-11 -8.28178e-13 0)
(2.94171e-11 -2.92248e-13 0)
(2.46385e-11 2.54266e-13 0)
(1.84848e-11 6.71731e-13 0)
(1.29382e-11 8.73469e-13 0)
(8.85767e-12 8.50938e-13 0)
(6.11764e-12 6.39953e-13 0)
(5.07451e-12 3.13025e-13 0)
(6.02545e-12 -2.04878e-14 0)
(7.80928e-12 -2.59923e-13 0)
(8.45425e-12 -3.66111e-13 0)
(7.67869e-12 -3.6297e-13 0)
(6.97978e-12 -2.93842e-13 0)
(7.23942e-12 -1.92822e-13 0)
(7.78098e-12 -1.00617e-13 0)
(8.44173e-12 -5.81687e-14 0)
(1.04788e-11 -6.51995e-14 0)
(1.43129e-11 -6.36382e-14 0)
(1.77333e-11 2.90245e-15 0)
(1.80819e-11 1.393e-13 0)
(1.51788e-11 3.11942e-13 0)
(1.02911e-11 4.79714e-13 0)
(3.65382e-12 6.00448e-13 0)
(-4.90081e-12 5.97593e-13 0)
(-1.34275e-11 4.1023e-13 0)
(-1.79764e-11 6.33132e-14 0)
(-1.6621e-11 -3.58562e-13 0)
(-1.0784e-11 -7.23788e-13 0)
(-1.51525e-12 -9.30006e-13 0)
(9.72004e-12 -9.34579e-13 0)
(2.18504e-11 -6.46229e-13 0)
(3.1191e-11 -1.51165e-13 0)
(3.25004e-11 4.15307e-13 0)
(2.82634e-11 9.68782e-13 0)
(1.71677e-11 1.20883e-12 0)
(2.80009e-12 1.22981e-12 0)
(-1.21494e-11 9.2846e-13 0)
(-2.77933e-11 2.88475e-13 0)
(-3.41318e-11 -3.2623e-13 0)
(-3.35993e-11 -9.86381e-13 0)
(-2.5712e-11 -1.3575e-12 0)
(-9.89321e-12 -1.3039e-12 0)
(4.95364e-12 -1.03307e-12 0)
(2.12258e-11 -3.1973e-13 0)
(2.95267e-11 3.69841e-13 0)
(2.837e-11 9.35879e-13 0)
(2.03235e-11 1.11222e-12 0)
(7.09488e-12 7.01082e-13 0)
(-3.01448e-12 7.39406e-14 0)
(-5.35554e-12 -9.58202e-13 0)
(1.29058e-11 -4.5634e-12 0)
(3.61001e-12 1.94095e-13 0)
(-4.02581e-12 1.84784e-12 0)
(-8.89072e-12 1.69688e-12 0)
(-9.14254e-12 1.12285e-12 0)
(-5.00493e-12 3.21758e-13 0)
(2.86876e-12 -5.43741e-13 0)
(1.43478e-11 -1.29663e-12 0)
(2.46339e-11 -1.64913e-12 0)
(3.21146e-11 -1.58557e-12 0)
(3.50772e-11 -1.12734e-12 0)
(3.40852e-11 -4.31409e-13 0)
(2.8919e-11 2.93645e-13 0)
(2.20316e-11 8.63253e-13 0)
(1.5692e-11 1.15458e-12 0)
(1.09019e-11 1.14571e-12 0)
(7.55281e-12 8.81359e-13 0)
(6.1245e-12 4.58153e-13 0)
(7.04418e-12 1.61989e-14 0)
(9.0211e-12 -3.16406e-13 0)
(9.77112e-12 -4.81507e-13 0)
(8.9325e-12 -4.9704e-13 0)
(8.2043e-12 -4.15071e-13 0)
(8.57202e-12 -2.85841e-13 0)
(9.21195e-12 -1.64211e-13 0)
(9.91369e-12 -9.69514e-14 0)
(1.21622e-11 -8.25619e-14 0)
(1.65075e-11 -5.70041e-14 0)
(2.04391e-11 4.27245e-14 0)
(2.08982e-11 2.26107e-13 0)
(1.76745e-11 4.55314e-13 0)
(1.22198e-11 6.71455e-13 0)
(4.75593e-12 8.10465e-13 0)
(-4.99613e-12 7.76839e-13 0)
(-1.48486e-11 5.05533e-13 0)
(-2.02489e-11 3.48216e-14 0)
(-1.89444e-11 -5.29216e-13 0)
(-1.25169e-11 -1.01229e-12 0)
(-2.14301e-12 -1.26905e-12 0)
(1.05909e-11 -1.23946e-12 0)
(2.45269e-11 -8.15965e-13 0)
(3.53876e-11 -1.28676e-13 0)
(3.71884e-11 6.43719e-13 0)
(3.26197e-11 1.38588e-12 0)
(2.01819e-11 1.69457e-12 0)
(3.94679e-12 1.68843e-12 0)
(-1.32126e-11 1.23289e-12 0)
(-3.12402e-11 3.33911e-13 0)
(-3.88221e-11 -5.2248e-13 0)
(-3.86005e-11 -1.42052e-12 0)
(-2.9864e-11 -1.91054e-12 0)
(-1.20754e-11 -1.81264e-12 0)
(4.87644e-12 -1.40298e-12 0)
(2.36459e-11 -4.0106e-13 0)
(3.34325e-11 5.50568e-13 0)
(3.25963e-11 1.32312e-12 0)
(2.3702e-11 1.54657e-12 0)
(8.80007e-12 9.76901e-13 0)
(-2.88345e-12 1.14001e-13 0)
(-5.80362e-12 -1.27398e-12 0)
(1.45231e-11 -5.31933e-12 0)
(5.11689e-12 1.25345e-13 0)
(-3.28717e-12 2.30501e-12 0)
(-8.97587e-12 2.16446e-12 0)
(-9.69249e-12 1.47682e-12 0)
(-5.63943e-12 4.74681e-13 0)
(2.76908e-12 -6.25462e-13 0)
(1.54388e-11 -1.60595e-12 0)
(2.7027e-11 -2.08627e-12 0)
(3.56823e-11 -2.03861e-12 0)
(3.94153e-11 -1.47884e-12 0)
(3.87399e-11 -6.04673e-13 0)
(3.3287e-11 3.24178e-13 0)
(2.57386e-11 1.07196e-12 0)
(1.8637e-11 1.4727e-12 0)
(1.31279e-11 1.48627e-12 0)
(9.13226e-12 1.16613e-12 0)
(7.2681e-12 6.36169e-13 0)
(8.10844e-12 7.0815e-14 0)
(1.02481e-11 -3.71501e-13 0)
(1.10981e-11 -6.09758e-13 0)
(1.02102e-11 -6.52006e-13 0)
(9.47003e-12 -5.58538e-13 0)
(9.9541e-12 -3.98732e-13 0)
(1.06874e-11 -2.44102e-13 0)
(1.14115e-11 -1.46909e-13 0)
(1.38419e-11 -1.03854e-13 0)
(1.86688e-11 -4.63679e-14 0)
(2.31006e-11 9.37104e-14 0)
(2.36915e-11 3.31561e-13 0)
(2.01985e-11 6.26144e-13 0)
(1.42449e-11 8.97831e-13 0)
(6.02233e-12 1.05574e-12 0)
(-4.87654e-12 9.83129e-13 0)
(-1.60404e-11 6.12635e-13 0)
(-2.23309e-11 -1.51102e-15 0)
(-2.11669e-11 -7.29971e-13 0)
(-1.42637e-11 -1.35004e-12 0)
(-2.9039e-12 -1.66514e-12 0)
(1.1238e-11 -1.59344e-12 0)
(2.69357e-11 -1.01028e-12 0)
(3.93294e-11 -9.79688e-14 0)
(4.17174e-11 9.15524e-13 0)
(3.69409e-11 1.87824e-12 0)
(2.33112e-11 2.26893e-12 0)
(5.34269e-12 2.23052e-12 0)
(-1.39638e-11 1.59191e-12 0)
(-3.43467e-11 3.88866e-13 0)
(-4.32553e-11 -7.53813e-13 0)
(-4.34827e-11 -1.93223e-12 0)
(-3.40496e-11 -2.56389e-12 0)
(-1.44708e-11 -2.41708e-12 0)
(4.49805e-12 -1.84347e-12 0)
(2.57324e-11 -5.03038e-13 0)
(3.70699e-11 7.58032e-13 0)
(3.67109e-11 1.7767e-12 0)
(2.71224e-11 2.05949e-12 0)
(1.06734e-11 1.31023e-12 0)
(-2.56323e-12 1.71124e-13 0)
(-6.13275e-12 -1.62947e-12 0)
(1.60763e-11 -6.20972e-12 0)
(6.85693e-12 1.34805e-14 0)
(-2.22992e-12 2.79884e-12 0)
(-8.75723e-12 2.68829e-12 0)
(-1.00264e-11 1.88746e-12 0)
(-6.2077e-12 6.66824e-13 0)
(2.60054e-12 -6.95318e-13 0)
(1.63533e-11 -1.93653e-12 0)
(2.91985e-11 -2.56953e-12 0)
(3.90459e-11 -2.55043e-12 0)
(4.36212e-11 -1.88517e-12 0)
(4.33638e-11 -8.16004e-13 0)
(3.77287e-11 3.41571e-13 0)
(2.95979e-11 1.29437e-12 0)
(2.17718e-11 1.82598e-12 0)
(1.55392e-11 1.87271e-12 0)
(1.08632e-11 1.496e-12 0)
(8.51433e-12 8.49903e-13 0)
(9.22623e-12 1.46524e-13 0)
(1.14953e-11 -4.22486e-13 0)
(1.24377e-11 -7.49136e-13 0)
(1.15127e-11 -8.27293e-13 0)
(1.07763e-11 -7.24636e-13 0)
(1.13831e-11 -5.32527e-13 0)
(1.22034e-11 -3.41629e-13 0)
(1.29307e-11 -2.09369e-13 0)
(1.55129e-11 -1.3014e-13 0)
(2.07901e-11 -3.2459e-14 0)
(2.57094e-11 1.55395e-13 0)
(2.64547e-11 4.55438e-13 0)
(2.27477e-11 8.24568e-13 0)
(1.63679e-11 1.15951e-12 0)
(7.4597e-12 1.33755e-12 0)
(-4.53002e-12 1.21827e-12 0)
(-1.69864e-11 7.33711e-13 0)
(-2.42056e-11 -4.35236e-14 0)
(-2.32764e-11 -9.59242e-13 0)
(-1.6021e-11 -1.73662e-12 0)
(-3.80382e-12 -2.11943e-12 0)
(1.16468e-11 -1.99901e-12 0)
(2.90546e-11 -1.23257e-12 0)
(4.29917e-11 -6.24543e-14 0)
(4.60672e-11 1.22841e-12 0)
(4.12167e-11 2.44534e-12 0)
(2.6559e-11 2.93389e-12 0)
(7.00361e-12 2.86022e-12 0)
(-1.43764e-11 2.01089e-12 0)
(-3.70802e-11 4.58975e-13 0)
(-4.74016e-11 -1.01612e-12 0)
(-4.82252e-11 -2.51983e-12 0)
(-3.82625e-11 -3.31886e-12 0)
(-1.70892e-11 -3.12162e-12 0)
(3.79671e-12 -2.36055e-12 0)
(2.74549e-11 -6.32015e-13 0)
(4.04094e-11 9.8748e-13 0)
(4.06917e-11 2.29504e-12 0)
(3.05756e-11 2.65279e-12 0)
(1.27167e-11 1.70575e-12 0)
(-2.04424e-12 2.49569e-13 0)
(-6.33618e-12 -2.02131e-12 0)
(1.75613e-11 -7.2402e-12 0)
(8.8284e-12 -1.49453e-13 0)
(-8.49697e-13 3.32337e-12 0)
(-8.22029e-12 3.26713e-12 0)
(-1.01251e-11 2.35745e-12 0)
(-6.69032e-12 9.03312e-13 0)
(2.37757e-12 -7.47441e-13 0)
(1.70964e-11 -2.28329e-12 0)
(3.1144e-11 -3.09593e-12 0)
(4.2193e-11 -3.1208e-12 0)
(4.76776e-11 -2.34862e-12 0)
(4.79385e-11 -1.06946e-12 0)
(4.22292e-11 3.41203e-13 0)
(3.36009e-11 1.52654e-12 0)
(2.50939e-11 2.2121e-12 0)
(1.81391e-11 2.30471e-12 0)
(1.27532e-11 1.87255e-12 0)
(9.87263e-12 1.1022e-12 0)
(1.04061e-11 2.46665e-13 0)
(1.27685e-11 -4.66352e-13 0)
(1.37926e-11 -8.97585e-13 0)
(1.28408e-11 -1.02204e-12 0)
(1.21225e-11 -9.13558e-13 0)
(1.28564e-11 -6.88165e-13 0)
(1.37559e-11 -4.58131e-13 0)
(1.44669e-11 -2.85732e-13 0)
(1.71703e-11 -1.62633e-13 0)
(2.2865e-11 -1.62175e-14 0)
(2.82582e-11 2.27076e-13 0)
(2.91814e-11 5.97285e-13 0)
(2.53189e-11 1.05052e-12 0)
(1.859e-11 1.45702e-12 0)
(9.07382e-12 1.65712e-12 0)
(-3.94553e-12 1.48421e-12 0)
(-1.76711e-11 8.71261e-13 0)
(-2.58565e-11 -8.86134e-14 0)
(-2.52605e-11 -1.21497e-12 0)
(-1.77837e-11 -2.17122e-12 0)
(-4.84688e-12 -2.63283e-12 0)
(1.18043e-11 -2.45876e-12 0)
(3.0863e-11 -1.48663e-12 0)
(4.63509e-11 -2.621e-14 0)
(5.02175e-11 1.57929e-12 0)
(4.54356e-11 3.08596e-12 0)
(2.99268e-11 3.69103e-12 0)
(8.9433e-12 3.58171e-12 0)
(-1.44258e-11 2.49563e-12 0)
(-3.94095e-11 5.50724e-13 0)
(-5.12317e-11 -1.30431e-12 0)
(-5.28063e-11 -3.18071e-12 0)
(-4.24947e-11 -4.17611e-12 0)
(-1.9938e-11 -3.93054e-12 0)
(2.75263e-12 -2.9606e-12 0)
(2.87843e-11 -7.95149e-13 0)
(4.34219e-11 1.23319e-12 0)
(4.45155e-11 2.87571e-12 0)
(3.40506e-11 3.32788e-12 0)
(1.49307e-11 2.16827e-12 0)
(-1.31776e-12 3.5408e-13 0)
(-6.40734e-12 -2.4453e-12 0)
(1.89754e-11 -8.41653e-12 0)
(1.1028e-11 -3.71826e-13 0)
(8.56018e-13 3.87182e-12 0)
(-7.35137e-12 3.89907e-12 0)
(-9.96889e-12 2.88918e-12 0)
(-7.06661e-12 1.18935e-12 0)
(2.11644e-12 -7.75572e-13 0)
(1.76753e-11 -2.64055e-12 0)
(3.28607e-11 -3.66182e-12 0)
(4.5112e-11 -3.74901e-12 0)
(5.15668e-11 -2.87124e-12 0)
(5.24451e-11 -1.36916e-12 0)
(4.67722e-11 3.18146e-13 0)
(3.77373e-11 1.76404e-12 0)
(2.85999e-11 2.62823e-12 0)
(2.09302e-11 2.78159e-12 0)
(1.48095e-11 2.2971e-12 0)
(1.13528e-11 1.39589e-12 0)
(1.16574e-11 3.7474e-13 0)
(1.4074e-11 -4.99798e-13 0)
(1.51661e-11 -1.05269e-12 0)
(1.41955e-11 -1.23504e-12 0)
(1.35076e-11 -1.12526e-12 0)
(1.43714e-11 -8.66471e-13 0)
(1.53413e-11 -5.94932e-13 0)
(1.60163e-11 -3.77475e-13 0)
(1.881e-11 -2.02699e-13 0)
(2.4888e-11 1.19867e-15 0)
(3.07401e-11 3.07804e-13 0)
(3.18653e-11 7.56404e-13 0)
(2.79086e-11 1.30372e-12 0)
(2.09114e-11 1.79074e-12 0)
(1.08694e-11 2.01568e-12 0)
(-3.11311e-12 1.78305e-12 0)
(-1.80798e-11 1.02811e-12 0)
(-2.72674e-11 -1.33724e-13 0)
(-2.71061e-11 -1.49459e-12 0)
(-1.95457e-11 -2.65259e-12 0)
(-6.03524e-12 -3.20604e-12 0)
(1.16998e-11 -2.97534e-12 0)
(3.23422e-11 -1.77666e-12 0)
(4.93843e-11 6.00562e-15 0)
(5.41482e-11 1.9643e-12 0)
(4.95853e-11 3.79815e-12 0)
(3.34142e-11 4.54144e-12 0)
(1.11732e-11 4.39908e-12 0)
(-1.40895e-11 3.05237e-12 0)
(-4.13051e-11 6.71462e-13 0)
(-5.47164e-11 -1.61221e-12 0)
(-5.72033e-11 -3.91122e-12 0)
(-4.67364e-11 -5.13559e-12 0)
(-2.3022e-11 -4.84789e-12 0)
(1.34818e-12 -3.65032e-12 0)
(2.9693e-11 -1.00042e-12 0)
(4.60784e-11 1.48844e-12 0)
(4.81584e-11 3.51541e-12 0)
(3.75346e-11 4.08565e-12 0)
(1.73142e-11 2.70272e-12 0)
(-3.76108e-13 4.89892e-13 0)
(-6.33993e-12 -2.89632e-12 0)
(2.03171e-11 -9.74447e-12 0)
(1.34503e-11 -6.62392e-13 0)
(2.88757e-12 4.43651e-12 0)
(-6.13793e-12 4.58148e-12 0)
(-9.53836e-12 3.48462e-12 0)
(-7.31464e-12 1.53016e-12 0)
(1.83538e-12 -7.73092e-13 0)
(1.80993e-11 -3.00201e-12 0)
(3.43475e-11 -4.26288e-12 0)
(4.77922e-11 -4.43378e-12 0)
(5.52717e-11 -3.45478e-12 0)
(5.68637e-11 -1.71921e-12 0)
(5.13404e-11 2.67191e-13 0)
(4.19955e-11 2.00196e-12 0)
(3.22852e-11 3.07099e-12 0)
(2.39146e-11 3.30215e-12 0)
(1.70393e-11 2.77071e-12 0)
(1.29649e-11 1.73373e-12 0)
(1.29896e-11 5.34398e-13 0)
(1.54187e-11 -5.19228e-13 0)
(1.6562e-11 -1.21169e-12 0)
(1.55781e-11 -1.46474e-12 0)
(1.49309e-11 -1.35944e-12 0)
(1.59254e-11 -1.06812e-12 0)
(1.69557e-11 -7.53321e-13 0)
(1.75751e-11 -4.86136e-13 0)
(2.04278e-11 -2.5186e-13 0)
(2.68539e-11 1.84051e-14 0)
(3.31485e-11 3.96367e-13 0)
(3.45003e-11 9.31832e-13 0)
(3.05129e-11 1.58364e-12 0)
(2.33315e-11 2.16086e-12 0)
(1.28499e-11 2.41437e-12 0)
(-2.02403e-12 2.11703e-12 0)
(-1.81987e-11 1.20741e-12 0)
(-2.84227e-11 -1.75334e-13 0)
(-2.87997e-11 -1.79501e-12 0)
(-2.12989e-11 -3.17899e-12 0)
(-7.36889e-12 -3.83944e-12 0)
(1.13246e-11 -3.55139e-12 0)
(3.34752e-11 -2.10728e-12 0)
(5.20706e-11 2.87439e-14 0)
(5.78389e-11 2.37871e-12 0)
(5.36519e-11 4.57911e-12 0)
(3.70185e-11 5.48569e-12 0)
(1.37023e-11 5.31631e-12 0)
(-1.33469e-11 3.68777e-12 0)
(-4.27386e-11 8.29402e-13 0)
(-5.78267e-11 -1.93258e-12 0)
(-6.13923e-11 -4.7066e-12 0)
(-5.09756e-11 -6.19641e-12 0)
(-2.63431e-11 -5.87741e-12 0)
(-4.31758e-13 -4.43666e-12 0)
(3.01551e-11 -1.25661e-12 0)
(4.835e-11 1.74542e-12 0)
(5.1595e-11 4.20983e-12 0)
(4.10124e-11 4.92645e-12 0)
(1.98642e-11 3.31407e-12 0)
(7.87153e-13 6.6274e-13 0)
(-6.128e-12 -3.36824e-12 0)
(2.1586e-11 -1.12293e-11 0)
(1.60881e-11 -1.03024e-12 0)
(5.24292e-12 5.00888e-12 0)
(-4.56885e-12 5.31087e-12 0)
(-8.81426e-12 4.14527e-12 0)
(-7.41129e-12 1.93091e-12 0)
(1.55469e-12 -7.33066e-13 0)
(1.83798e-11 -3.36075e-12 0)
(3.56055e-11 -4.89407e-12 0)
(5.02241e-11 -5.17317e-12 0)
(5.87749e-11 -4.10058e-12 0)
(6.11738e-11 -2.12363e-12 0)
(5.59147e-11 1.82884e-13 0)
(4.63619e-11 2.23493e-12 0)
(3.61435e-11 3.53643e-12 0)
(2.7093e-11 3.86471e-12 0)
(1.94495e-11 3.29409e-12 0)
(1.4719e-11 2.1184e-12 0)
(1.44131e-11 7.29402e-13 0)
(1.68105e-11 -5.20756e-13 0)
(1.79846e-11 -1.3714e-12 0)
(1.69901e-11 -1.70923e-12 0)
(1.63915e-11 -1.61548e-12 0)
(1.75157e-11 -1.29361e-12 0)
(1.85957e-11 -9.34529e-13 0)
(1.91399e-11 -6.13307e-13 0)
(2.20204e-11 -3.11791e-13 0)
(2.87581e-11 3.37849e-14 0)
(3.54777e-11 4.91281e-13 0)
(3.70803e-11 1.12233e-12 0)
(3.31271e-11 1.8895e-12 0)
(2.58485e-11 2.56738e-12 0)
(1.50175e-11 2.85429e-12 0)
(-6.70954e-13 2.48849e-12 0)
(-1.80151e-11 1.41261e-12 0)
(-2.93066e-11 -2.09447e-13 0)
(-3.03266e-11 -2.11256e-12 0)
(-2.30337e-11 -3.74816e-12 0)
(-8.84546e-12 -4.53307e-12 0)
(1.06724e-11 -4.18955e-12 0)
(3.42471e-11 -2.48345e-12 0)
(5.43893e-11 3.58594e-14 0)
(6.12689e-11 2.81692e-12 0)
(5.76201e-11 5.42517e-12 0)
(4.07343e-11 6.52372e-12 0)
(1.65364e-11 6.33718e-12 0)
(-1.21799e-11 4.40881e-12 0)
(-4.36832e-11 1.03362e-12 0)
(-6.05335e-11 -2.25704e-12 0)
(-6.53479e-11 -5.56087e-12 0)
(-5.51975e-11 -7.35675e-12 0)
(-2.98999e-11 -7.02244e-12 0)
(-2.59952e-12 -5.32679e-12 0)
(3.01462e-11 -1.57332e-12 0)
(5.0208e-11 1.99524e-12 0)
(5.47984e-11 4.95356e-12 0)
(4.44665e-11 5.8499e-12 0)
(2.25754e-11 4.00722e-12 0)
(2.17701e-12 8.78843e-13 0)
(-5.76608e-12 -3.85385e-12 0)
(2.27826e-11 -1.28758e-11 0)
(1.89314e-11 -1.48475e-12 0)
(7.91736e-12 5.57943e-12 0)
(-2.63478e-12 6.08287e-12 0)
(-7.77788e-12 4.87201e-12 0)
(-7.3324e-12 2.39662e-12 0)
(1.29674e-12 -6.48304e-13 0)
(1.85313e-11 -3.70924e-12 0)
(3.6638e-11 -5.54958e-12 0)
(5.23999e-11 -5.96459e-12 0)
(6.206e-11 -4.80953e-12 0)
(6.53544e-11 -2.58636e-12 0)
(6.04749e-11 5.9565e-14 0)
(5.08214e-11 2.4571e-12 0)
(4.01669e-11 4.02e-12 0)
(3.04653e-11 4.46703e-12 0)
(2.20463e-11 3.86759e-12 0)
(1.66255e-11 2.55239e-12 0)
(1.59386e-11 9.63594e-13 0)
(1.82576e-11 -5.00223e-13 0)
(1.9439e-11 -1.52827e-12 0)
(1.84335e-11 -1.96615e-12 0)
(1.78888e-11 -1.89245e-12 0)
(1.91396e-11 -1.54323e-12 0)
(2.02578e-11 -1.1397e-12 0)
(2.07075e-11 -7.60614e-13 0)
(2.35847e-11 -3.84315e-13 0)
(3.05965e-11 4.54851e-14 0)
(3.77219e-11 5.90774e-13 0)
(3.95992e-11 1.32634e-12 0)
(3.57463e-11 2.22021e-12 0)
(2.84593e-11 3.01005e-12 0)
(1.73729e-11 3.3364e-12 0)
(9.51962e-13 2.89985e-12 0)
(-1.75177e-11 1.6475e-12 0)
(-2.9904e-11 -2.31585e-13 0)
(-3.16718e-11 -2.44302e-12 0)
(-2.47387e-11 -4.35728e-12 0)
(-1.04601e-11 -5.28659e-12 0)
(9.73968e-12 -4.89239e-12 0)
(3.46451e-11 -2.91047e-12 0)
(5.6321e-11 2.05094e-14 0)
(6.44172e-11 3.27241e-12 0)
(6.14729e-11 6.33172e-12 0)
(4.45536e-11 7.65476e-12 0)
(1.96785e-11 7.46521e-12 0)
(-1.05733e-11 5.22279e-12 0)
(-4.4114e-11 1.29402e-12 0)
(-6.28077e-11 -2.57599e-12 0)
(-6.90429e-11 -6.4668e-12 0)
(-5.93845e-11 -8.61376e-12 0)
(-3.36875e-11 -8.28579e-12 0)
(-5.16424e-12 -6.32798e-12 0)
(2.96443e-11 -1.96092e-12 0)
(5.16241e-11 2.22784e-12 0)
(5.77404e-11 5.74003e-12 0)
(4.78768e-11 6.85487e-12 0)
(2.54399e-11 4.78699e-12 0)
(3.79675e-12 1.1449e-12 0)
(-5.24929e-12 -4.34472e-12 0)
(2.39079e-11 -1.46881e-11 0)
(2.1968e-11 -2.0355e-12 0)
(1.09033e-11 6.13775e-12 0)
(-3.28491e-13 6.89214e-12 0)
(-6.41139e-12 5.66505e-12 0)
(-7.05299e-12 2.93206e-12 0)
(1.08595e-12 -5.11429e-13 0)
(1.85703e-11 -4.0394e-12 0)
(3.74509e-11 -6.22288e-12 0)
(5.43137e-11 -6.80466e-12 0)
(6.51111e-11 -5.58198e-12 0)
(6.93842e-11 -3.11108e-12 0)
(6.49993e-11 -1.08577e-13 0)
(5.5357e-11 2.66217e-12 0)
(4.43458e-11 4.51657e-12 0)
(3.40298e-11 5.10628e-12 0)
(2.48351e-11 4.49108e-12 0)
(1.86942e-11 3.03801e-12 0)
(1.75771e-11 1.24086e-12 0)
(1.97692e-11 -4.53212e-13 0)
(2.09308e-11 -1.67836e-12 0)
(1.99106e-11 -2.23274e-12 0)
(1.94224e-11 -2.18904e-12 0)
(2.07948e-11 -1.817e-12 0)
(2.19389e-11 -1.36986e-12 0)
(2.2275e-11 -9.29696e-13 0)
(2.51179e-11 -4.7139e-13 0)
(3.23655e-11 5.14163e-14 0)
(3.98762e-11 6.92778e-13 0)
(4.20511e-11 1.54201e-12 0)
(3.83646e-11 2.5744e-12 0)
(3.11599e-11 3.48839e-12 0)
(1.99149e-11 3.86157e-12 0)
(2.84886e-12 3.35363e-12 0)
(-1.6696e-11 1.91611e-12 0)
(-3.02001e-11 -2.36782e-13 0)
(-3.28192e-11 -2.78152e-12 0)
(-2.64004e-11 -5.00288e-12 0)
(-1.22051e-11 -6.0992e-12 0)
(8.52555e-12 -5.66234e-12 0)
(3.46587e-11 -3.39395e-12 0)
(5.7848e-11 -2.4837e-14 0)
(6.72625e-11 3.73767e-12 0)
(6.51915e-11 7.29311e-12 0)
(4.84653e-11 8.87722e-12 0)
(2.31278e-11 8.70351e-12 0)
(-8.51453e-12 6.13722e-12 0)
(-4.40082e-11 1.62135e-12 0)
(-6.46207e-11 -2.87866e-12 0)
(-7.24486e-11 -7.41575e-12 0)
(-6.35159e-11 -9.96343e-12 0)
(-3.76966e-11 -9.66962e-12 0)
(-8.1315e-12 -7.44754e-12 0)
(2.86297e-11 -2.43048e-12 0)
(5.25707e-11 2.43203e-12 0)
(6.03914e-11 6.56141e-12 0)
(5.12205e-11 7.9393e-12 0)
(2.8447e-11 5.65791e-12 0)
(5.64775e-12 1.46805e-12 0)
(-4.57348e-12 -4.83119e-12 0)
(2.49634e-11 -1.66699e-11 0)
(2.51828e-11 -2.69223e-12 0)
(1.41903e-11 6.67251e-12 0)
(2.35479e-12 7.73232e-12 0)
(-4.69816e-12 6.52381e-12 0)
(-6.54749e-12 3.54165e-12 0)
(9.48695e-13 -3.14966e-13 0)
(1.85165e-11 -4.34261e-12 0)
(3.8053e-11 -6.90664e-12 0)
(5.59615e-11 -7.68925e-12 0)
(6.79136e-11 -6.41768e-12 0)
(7.32415e-11 -3.70124e-12 0)
(6.94652e-11 -3.27442e-13 0)
(5.99498e-11 2.84344e-12 0)
(4.86684e-11 5.02038e-12 0)
(3.77832e-11 5.77898e-12 0)
(2.78204e-11 5.16395e-12 0)
(2.09349e-11 3.57727e-12 0)
(1.934e-11 1.56507e-12 0)
(2.13549e-11 -3.75082e-13 0)
(2.24664e-11 -1.81733e-12 0)
(2.14243e-11 -2.50577e-12 0)
(2.0992e-11 -2.50355e-12 0)
(2.2479e-11 -2.11469e-12 0)
(2.36358e-11 -1.62588e-12 0)
(2.38398e-11 -1.12218e-12 0)
(2.6618e-11 -5.751e-13 0)
(3.40621e-11 4.92568e-14 0)
(4.19359e-11 7.94924e-13 0)
(4.44298e-11 1.76714e-12 0)
(4.09757e-11 2.95032e-12 0)
(3.39447e-11 4.0016e-12 0)
(2.26408e-11 4.43048e-12 0)
(5.02207e-12 3.85237e-12 0)
(-1.55415e-11 2.22279e-12 0)
(-3.01806e-11 -2.19589e-13 0)
(-3.37522e-11 -3.12258e-12 0)
(-2.80035e-11 -5.68088e-12 0)
(-1.40701e-11 -6.96958e-12 0)
(7.03237e-12 -6.50163e-12 0)
(3.42801e-11 -3.93973e-12 0)
(5.89537e-11 -1.08379e-13 0)
(6.97833e-11 4.20424e-12 0)
(6.87553e-11 8.30259e-12 0)
(5.24551e-11 1.01886e-11 0)
(2.68798e-11 1.00547e-11 0)
(-5.99459e-12 7.15978e-12 0)
(-4.3345e-11 2.0271e-12 0)
(-6.5944e-11 -3.15302e-12 0)
(-7.55345e-11 -8.39766e-12 0)
(-6.75679e-11 -1.14005e-11 0)
(-4.1914e-11 -1.11753e-11 0)
(-1.15029e-11 -8.69269e-12 0)
(2.70856e-11 -2.99376e-12 0)
(5.30207e-11 2.59542e-12 0)
(6.27202e-11 7.40851e-12 0)
(5.4472e-11 9.10009e-12 0)
(3.15832e-11 6.62417e-12 0)
(7.72918e-12 1.85584e-12 0)