/*--------------------------------*- C++ -*----------------------------------*\
| =========                 |                                                 |
| \\      /  F ield         | foam-extend: Open Source CFD                    |
|  \\    /   O peration     | Version:     4.0                                |
|   \\  /    A nd           | Web:         http://www.foam-extend.org         |
|    \\/     M anipulation  |                                                 |
\*---------------------------------------------------------------------------*/
FoamFile
{
    version     2.0;
    format      ascii;
    class       volScalarField;
    location    "1180";
    object      psiE;
}
// * * * * * * * * * * * * * * * * * * * * * * * * * * * * * * * * * * * * * //

dimensions      [0 0 0 0 0 0 0];

internalField   nonuniform List<scalar> 
6960
(
0.332233
0.332237
0.332242
0.332247
0.332252
0.332257
0.332262
0.332266
0.33227
0.332274
0.332277
0.33228
0.332283
0.332285
0.332287
0.332289
0.332291
0.332293
0.332294
0.332296
0.332297
0.332298
0.332299
0.332299
0.3323
0.3323
0.332301
0.332301
0.332301
0.332301
0.332301
0.332301
0.332301
0.332301
0.3323
0.3323
0.332299
0.332299
0.332298
0.332297
0.332296
0.332294
0.332293
0.332291
0.332289
0.332287
0.332285
0.332283
0.33228
0.332277
0.332274
0.33227
0.332266
0.332262
0.332257
0.332252
0.332247
0.332242
0.332237
0.332233
0.825258
0.825274
0.825294
0.825315
0.825336
0.825355
0.825374
0.82539
0.825406
0.82542
0.825434
0.825446
0.825456
0.825466
0.825475
0.825483
0.825491
0.825497
0.825503
0.825508
0.825512
0.825516
0.825519
0.825522
0.825524
0.825526
0.825528
0.825529
0.82553
0.82553
0.82553
0.82553
0.825529
0.825528
0.825526
0.825524
0.825522
0.825519
0.825516
0.825512
0.825508
0.825503
0.825497
0.825491
0.825483
0.825475
0.825466
0.825456
0.825446
0.825434
0.82542
0.825406
0.82539
0.825374
0.825355
0.825336
0.825315
0.825294
0.825274
0.825258
1.2671
1.26713
1.26717
1.26722
1.26726
1.2673
1.26733
1.26737
1.2674
1.26742
1.26745
1.26747
1.2675
1.26751
1.26753
1.26755
1.26756
1.26757
1.26759
1.2676
1.2676
1.26761
1.26762
1.26762
1.26763
1.26763
1.26763
1.26764
1.26764
1.26764
1.26764
1.26764
1.26764
1.26763
1.26763
1.26763
1.26762
1.26762
1.26761
1.2676
1.2676
1.26759
1.26757
1.26756
1.26755
1.26753
1.26751
1.2675
1.26747
1.26745
1.26742
1.2674
1.26737
1.26733
1.2673
1.26726
1.26722
1.26717
1.26713
1.2671
1.6938
1.69385
1.69392
1.69398
1.69405
1.69411
1.69416
1.69422
1.69427
1.69431
1.69435
1.69439
1.69442
1.69445
1.69448
1.6945
1.69453
1.69455
1.69456
1.69458
1.69459
1.6946
1.69461
1.69462
1.69463
1.69464
1.69464
1.69464
1.69465
1.69465
1.69465
1.69465
1.69464
1.69464
1.69464
1.69463
1.69462
1.69461
1.6946
1.69459
1.69458
1.69456
1.69455
1.69453
1.6945
1.69448
1.69445
1.69442
1.69439
1.69435
1.69431
1.69427
1.69422
1.69416
1.69411
1.69405
1.69398
1.69392
1.69385
1.6938
2.11958
2.11965
2.11974
2.11984
2.11993
2.12001
2.12009
2.12016
2.12023
2.12029
2.12035
2.1204
2.12045
2.12049
2.12053
2.12057
2.1206
2.12062
2.12065
2.12067
2.12069
2.1207
2.12072
2.12073
2.12074
2.12075
2.12075
2.12076
2.12076
2.12076
2.12076
2.12076
2.12076
2.12075
2.12075
2.12074
2.12073
2.12072
2.1207
2.12069
2.12067
2.12065
2.12062
2.1206
2.12057
2.12053
2.12049
2.12045
2.1204
2.12035
2.12029
2.12023
2.12016
2.12009
2.12001
2.11993
2.11984
2.11974
2.11965
2.11958
2.55045
2.55054
2.55066
2.55078
2.5509
2.55101
2.55111
2.55121
2.55129
2.55138
2.55145
2.55152
2.55158
2.55163
2.55168
2.55173
2.55177
2.5518
2.55183
2.55186
2.55189
2.55191
2.55192
2.55194
2.55195
2.55196
2.55197
2.55198
2.55198
2.55198
2.55198
2.55198
2.55198
2.55197
2.55196
2.55195
2.55194
2.55192
2.55191
2.55189
2.55186
2.55183
2.5518
2.55177
2.55173
2.55168
2.55163
2.55158
2.55152
2.55145
2.55138
2.55129
2.55121
2.55111
2.55101
2.5509
2.55078
2.55066
2.55054
2.55045
2.98898
2.9891
2.98924
2.98939
2.98953
2.98967
2.9898
2.98992
2.99003
2.99013
2.99022
2.9903
2.99038
2.99045
2.99051
2.99056
2.99061
2.99066
2.9907
2.99073
2.99076
2.99079
2.99081
2.99083
2.99084
2.99086
2.99087
2.99087
2.99088
2.99088
2.99088
2.99088
2.99087
2.99087
2.99086
2.99084
2.99083
2.99081
2.99079
2.99076
2.99073
2.9907
2.99066
2.99061
2.99056
2.99051
2.99045
2.99038
2.9903
2.99022
2.99013
2.99003
2.98992
2.9898
2.98967
2.98953
2.98939
2.98924
2.9891
2.98898
3.43629
3.43643
3.4366
3.43678
3.43695
3.43712
3.43727
3.43741
3.43754
3.43766
3.43777
3.43787
3.43796
3.43804
3.43812
3.43818
3.43824
3.4383
3.43834
3.43838
3.43842
3.43845
3.43848
3.4385
3.43852
3.43853
3.43855
3.43856
3.43856
3.43856
3.43856
3.43856
3.43856
3.43855
3.43853
3.43852
3.4385
3.43848
3.43845
3.43842
3.43838
3.43834
3.4383
3.43824
3.43818
3.43812
3.43804
3.43796
3.43787
3.43777
3.43766
3.43754
3.43741
3.43727
3.43712
3.43695
3.43678
3.4366
3.43643
3.43629
3.89285
3.89301
3.89321
3.89342
3.89362
3.89381
3.89399
3.89416
3.89431
3.89445
3.89458
3.89469
3.8948
3.8949
3.89498
3.89506
3.89513
3.89519
3.89524
3.89529
3.89533
3.89537
3.8954
3.89543
3.89545
3.89547
3.89548
3.89549
3.8955
3.8955
3.8955
3.8955
3.89549
3.89548
3.89547
3.89545
3.89543
3.8954
3.89537
3.89533
3.89529
3.89524
3.89519
3.89513
3.89506
3.89498
3.8949
3.8948
3.89469
3.89458
3.89445
3.89431
3.89416
3.89399
3.89381
3.89362
3.89342
3.89321
3.89301
3.89285
4.35885
4.35903
4.35926
4.3595
4.35973
4.35995
4.36016
4.36035
4.36052
4.36068
4.36083
4.36096
4.36108
4.36119
4.36129
4.36138
4.36146
4.36153
4.36159
4.36165
4.36169
4.36174
4.36177
4.3618
4.36183
4.36185
4.36186
4.36188
4.36188
4.36189
4.36189
4.36188
4.36188
4.36186
4.36185
4.36183
4.3618
4.36177
4.36174
4.36169
4.36165
4.36159
4.36153
4.36146
4.36138
4.36129
4.36119
4.36108
4.36096
4.36083
4.36068
4.36052
4.36035
4.36016
4.35995
4.35973
4.3595
4.35926
4.35903
4.35885
4.83437
4.83457
4.83483
4.8351
4.83536
4.83561
4.83584
4.83605
4.83625
4.83643
4.8366
4.83675
4.83688
4.83701
4.83712
4.83722
4.83731
4.83739
4.83746
4.83752
4.83757
4.83762
4.83766
4.83769
4.83772
4.83775
4.83776
4.83778
4.83779
4.83779
4.83779
4.83779
4.83778
4.83776
4.83775
4.83772
4.83769
4.83766
4.83762
4.83757
4.83752
4.83746
4.83739
4.83731
4.83722
4.83712
4.83701
4.83688
4.83675
4.8366
4.83643
4.83625
4.83605
4.83584
4.83561
4.83536
4.8351
4.83483
4.83457
4.83437
5.3194
5.31962
5.31991
5.32021
5.3205
5.32078
5.32104
5.32128
5.3215
5.3217
5.32188
5.32205
5.3222
5.32234
5.32246
5.32257
5.32267
5.32276
5.32284
5.32291
5.32297
5.32302
5.32306
5.3231
5.32313
5.32316
5.32318
5.32319
5.3232
5.32321
5.32321
5.3232
5.32319
5.32318
5.32316
5.32313
5.3231
5.32306
5.32302
5.32297
5.32291
5.32284
5.32276
5.32267
5.32257
5.32246
5.32234
5.3222
5.32205
5.32188
5.3217
5.3215
5.32128
5.32104
5.32078
5.3205
5.32021
5.31991
5.31962
5.3194
5.8139
5.81415
5.81447
5.8148
5.81512
5.81542
5.81571
5.81597
5.81622
5.81644
5.81664
5.81683
5.81699
5.81714
5.81728
5.8174
5.81751
5.81761
5.81769
5.81777
5.81784
5.81789
5.81794
5.81799
5.81802
5.81805
5.81807
5.81809
5.8181
5.81811
5.81811
5.8181
5.81809
5.81807
5.81805
5.81802
5.81799
5.81794
5.81789
5.81784
5.81777
5.81769
5.81761
5.81751
5.8174
5.81728
5.81714
5.81699
5.81683
5.81664
5.81644
5.81622
5.81597
5.81571
5.81542
5.81512
5.8148
5.81447
5.81415
5.8139
6.31781
6.31807
6.31842
6.31878
6.31914
6.31947
6.31978
6.32007
6.32034
6.32058
6.3208
6.321
6.32119
6.32135
6.3215
6.32163
6.32175
6.32186
6.32195
6.32204
6.32211
6.32217
6.32223
6.32227
6.32231
6.32234
6.32237
6.32239
6.3224
6.3224
6.3224
6.3224
6.32239
6.32237
6.32234
6.32231
6.32227
6.32223
6.32217
6.32211
6.32204
6.32195
6.32186
6.32175
6.32163
6.3215
6.32135
6.32119
6.321
6.3208
6.32058
6.32034
6.32007
6.31978
6.31947
6.31914
6.31878
6.31842
6.31807
6.31781
6.831
6.8313
6.83167
6.83207
6.83245
6.83281
6.83315
6.83346
6.83375
6.83401
6.83426
6.83448
6.83467
6.83485
6.83502
6.83516
6.83529
6.83541
6.83551
6.8356
6.83568
6.83575
6.8358
6.83585
6.8359
6.83593
6.83596
6.83598
6.83599
6.836
6.836
6.83599
6.83598
6.83596
6.83593
6.8359
6.83585
6.8358
6.83575
6.83568
6.8356
6.83551
6.83541
6.83529
6.83516
6.83502
6.83485
6.83467
6.83448
6.83426
6.83401
6.83375
6.83346
6.83315
6.83281
6.83245
6.83207
6.83167
6.8313
6.831
7.35335
7.35367
7.35407
7.3545
7.35491
7.3553
7.35567
7.356
7.35632
7.3566
7.35686
7.3571
7.35731
7.35751
7.35768
7.35784
7.35798
7.3581
7.35821
7.35831
7.35839
7.35847
7.35853
7.35859
7.35863
7.35867
7.3587
7.35872
7.35873
7.35874
7.35874
7.35873
7.35872
7.3587
7.35867
7.35863
7.35859
7.35853
7.35847
7.35839
7.35831
7.35821
7.3581
7.35798
7.35784
7.35768
7.35751
7.35731
7.3571
7.35686
7.3566
7.35632
7.356
7.35567
7.3553
7.35491
7.3545
7.35407
7.35367
7.35335
7.88467
7.885
7.88544
7.8859
7.88634
7.88676
7.88715
7.88751
7.88785
7.88815
7.88843
7.88869
7.88892
7.88912
7.88931
7.88948
7.88963
7.88976
7.88988
7.88999
7.89008
7.89016
7.89023
7.89029
7.89033
7.89037
7.8904
7.89043
7.89044
7.89045
7.89045
7.89044
7.89043
7.8904
7.89037
7.89033
7.89029
7.89023
7.89016
7.89008
7.88999
7.88988
7.88976
7.88963
7.88948
7.88931
7.88912
7.88892
7.88869
7.88843
7.88815
7.88785
7.88751
7.88715
7.88676
7.88634
7.8859
7.88544
7.885
7.88467
8.42473
8.42509
8.42555
8.42604
8.42651
8.42696
8.42738
8.42776
8.42812
8.42845
8.42874
8.42902
8.42926
8.42948
8.42968
8.42986
8.43002
8.43017
8.43029
8.43041
8.4305
8.43059
8.43066
8.43072
8.43078
8.43082
8.43085
8.43088
8.43089
8.4309
8.4309
8.43089
8.43088
8.43085
8.43082
8.43078
8.43072
8.43066
8.43059
8.4305
8.43041
8.43029
8.43017
8.43002
8.42986
8.42968
8.42948
8.42926
8.42902
8.42874
8.42845
8.42812
8.42776
8.42738
8.42696
8.42651
8.42604
8.42555
8.42509
8.42473
8.97325
8.97363
8.97413
8.97464
8.97515
8.97562
8.97607
8.97648
8.97686
8.9772
8.97752
8.97781
8.97807
8.97831
8.97852
8.97871
8.97888
8.97903
8.97917
8.97929
8.97939
8.97948
8.97956
8.97963
8.97968
8.97973
8.97976
8.97979
8.9798
8.97981
8.97981
8.9798
8.97979
8.97976
8.97973
8.97968
8.97963
8.97956
8.97948
8.97939
8.97929
8.97917
8.97903
8.97888
8.97871
8.97852
8.97831
8.97807
8.97781
8.97752
8.9772
8.97686
8.97648
8.97607
8.97562
8.97515
8.97464
8.97413
8.97363
8.97325
9.52991
9.53032
9.53084
9.53139
9.53192
9.53242
9.53289
9.53333
9.53373
9.5341
9.53443
9.53474
9.53502
9.53527
9.53549
9.53569
9.53587
9.53604
9.53618
9.5363
9.53641
9.53651
9.53659
9.53666
9.53672
9.53677
9.53681
9.53683
9.53685
9.53686
9.53686
9.53685
9.53683
9.53681
9.53677
9.53672
9.53666
9.53659
9.53651
9.53641
9.5363
9.53618
9.53604
9.53587
9.53569
9.53549
9.53527
9.53502
9.53474
9.53443
9.5341
9.53373
9.53333
9.53289
9.53242
9.53192
9.53139
9.53084
9.53032
9.52991
10.0943
10.0947
10.0953
10.0959
10.0964
10.097
10.0975
10.0979
10.0983
10.0987
10.0991
10.0994
10.0997
10.1
10.1002
10.1004
10.1006
10.1008
10.1009
10.1011
10.1012
10.1013
10.1014
10.1014
10.1015
10.1016
10.1016
10.1016
10.1016
10.1016
10.1016
10.1016
10.1016
10.1016
10.1016
10.1015
10.1014
10.1014
10.1013
10.1012
10.1011
10.1009
10.1008
10.1006
10.1004
10.1002
10.1
10.0997
10.0994
10.0991
10.0987
10.0983
10.0979
10.0975
10.097
10.0964
10.0959
10.0953
10.0947
10.0943
10.666
10.6665
10.667
10.6677
10.6682
10.6688
10.6693
10.6698
10.6702
10.6707
10.671
10.6714
10.6717
10.6719
10.6722
10.6724
10.6726
10.6728
10.673
10.6731
10.6732
10.6733
10.6734
10.6735
10.6736
10.6736
10.6737
10.6737
10.6737
10.6737
10.6737
10.6737
10.6737
10.6737
10.6736
10.6736
10.6735
10.6734
10.6733
10.6732
10.6731
10.673
10.6728
10.6726
10.6724
10.6722
10.6719
10.6717
10.6714
10.671
10.6707
10.6702
10.6698
10.6693
10.6688
10.6682
10.6677
10.667
10.6665
10.666
11.2445
11.2449
11.2455
11.2462
11.2468
11.2474
11.2479
11.2484
11.2489
11.2493
11.2497
11.2501
11.2504
11.2507
11.2509
11.2512
11.2514
11.2516
11.2517
11.2519
11.252
11.2521
11.2522
11.2523
11.2524
11.2524
11.2525
11.2525
11.2525
11.2525
11.2525
11.2525
11.2525
11.2525
11.2524
11.2524
11.2523
11.2522
11.2521
11.252
11.2519
11.2517
11.2516
11.2514
11.2512
11.2509
11.2507
11.2504
11.2501
11.2497
11.2493
11.2489
11.2484
11.2479
11.2474
11.2468
11.2462
11.2455
11.2449
11.2445
11.8291
11.8295
11.8302
11.8308
11.8315
11.8321
11.8327
11.8332
11.8337
11.8341
11.8345
11.8349
11.8352
11.8355
11.8358
11.836
11.8363
11.8365
11.8366
11.8368
11.8369
11.837
11.8371
11.8372
11.8373
11.8373
11.8374
11.8374
11.8374
11.8375
11.8375
11.8374
11.8374
11.8374
11.8373
11.8373
11.8372
11.8371
11.837
11.8369
11.8368
11.8366
11.8365
11.8363
11.836
11.8358
11.8355
11.8352
11.8349
11.8345
11.8341
11.8337
11.8332
11.8327
11.8321
11.8315
11.8308
11.8302
11.8295
11.8291
12.419
12.4195
12.4202
12.4209
12.4216
12.4222
12.4228
12.4233
12.4238
12.4243
12.4247
12.4251
12.4255
12.4258
12.426
12.4263
12.4265
12.4267
12.4269
12.4271
12.4272
12.4273
12.4274
12.4275
12.4276
12.4277
12.4277
12.4277
12.4278
12.4278
12.4278
12.4278
12.4277
12.4277
12.4277
12.4276
12.4275
12.4274
12.4273
12.4272
12.4271
12.4269
12.4267
12.4265
12.4263
12.426
12.4258
12.4255
12.4251
12.4247
12.4243
12.4238
12.4233
12.4228
12.4222
12.4216
12.4209
12.4202
12.4195
12.419
13.0136
13.0141
13.0148
13.0155
13.0162
13.0169
13.0175
13.018
13.0186
13.019
13.0195
13.0199
13.0202
13.0206
13.0209
13.0211
13.0214
13.0216
13.0218
13.0219
13.0221
13.0222
13.0223
13.0224
13.0225
13.0225
13.0226
13.0226
13.0226
13.0227
13.0227
13.0226
13.0226
13.0226
13.0225
13.0225
13.0224
13.0223
13.0222
13.0221
13.0219
13.0218
13.0216
13.0214
13.0211
13.0209
13.0206
13.0202
13.0199
13.0195
13.019
13.0186
13.018
13.0175
13.0169
13.0162
13.0155
13.0148
13.0141
13.0136
13.6118
13.6123
13.613
13.6138
13.6145
13.6151
13.6158
13.6164
13.6169
13.6174
13.6178
13.6183
13.6186
13.619
13.6193
13.6195
13.6198
13.62
13.6202
13.6204
13.6205
13.6207
13.6208
13.6209
13.6209
13.621
13.6211
13.6211
13.6211
13.6211
13.6211
13.6211
13.6211
13.6211
13.621
13.6209
13.6209
13.6208
13.6207
13.6205
13.6204
13.6202
13.62
13.6198
13.6195
13.6193
13.619
13.6186
13.6183
13.6178
13.6174
13.6169
13.6164
13.6158
13.6151
13.6145
13.6138
13.613
13.6123
13.6118
14.2125
14.213
14.2137
14.2145
14.2152
14.2159
14.2166
14.2172
14.2177
14.2182
14.2187
14.2191
14.2195
14.2199
14.2202
14.2205
14.2207
14.2209
14.2211
14.2213
14.2215
14.2216
14.2217
14.2218
14.2219
14.222
14.222
14.222
14.2221
14.2221
14.2221
14.2221
14.222
14.222
14.222
14.2219
14.2218
14.2217
14.2216
14.2215
14.2213
14.2211
14.2209
14.2207
14.2205
14.2202
14.2199
14.2195
14.2191
14.2187
14.2182
14.2177
14.2172
14.2166
14.2159
14.2152
14.2145
14.2137
14.213
14.2125
14.8144
14.8149
14.8157
14.8165
14.8172
14.8179
14.8186
14.8192
14.8198
14.8203
14.8208
14.8212
14.8216
14.822
14.8223
14.8226
14.8228
14.8231
14.8233
14.8234
14.8236
14.8237
14.8239
14.824
14.824
14.8241
14.8242
14.8242
14.8242
14.8242
14.8242
14.8242
14.8242
14.8242
14.8241
14.824
14.824
14.8239
14.8237
14.8236
14.8234
14.8233
14.8231
14.8228
14.8226
14.8223
14.822
14.8216
14.8212
14.8208
14.8203
14.8198
14.8192
14.8186
14.8179
14.8172
14.8165
14.8157
14.8149
14.8144
15.4161
15.4167
15.4174
15.4182
15.419
15.4197
15.4204
15.421
15.4216
15.4221
15.4226
15.423
15.4235
15.4238
15.4241
15.4244
15.4247
15.4249
15.4251
15.4253
15.4255
15.4256
15.4258
15.4259
15.4259
15.426
15.4261
15.4261
15.4261
15.4261
15.4261
15.4261
15.4261
15.4261
15.426
15.4259
15.4259
15.4258
15.4256
15.4255
15.4253
15.4251
15.4249
15.4247
15.4244
15.4241
15.4238
15.4235
15.423
15.4226
15.4221
15.4216
15.421
15.4204
15.4197
15.419
15.4182
15.4174
15.4167
15.4161
16.0158
16.0164
16.0172
16.018
16.0188
16.0195
16.0202
16.0209
16.0215
16.022
16.0225
16.0229
16.0234
16.0237
16.0241
16.0244
16.0246
16.0249
16.0251
16.0253
16.0254
16.0256
16.0257
16.0258
16.0259
16.026
16.026
16.0261
16.0261
16.0261
16.0261
16.0261
16.0261
16.026
16.026
16.0259
16.0258
16.0257
16.0256
16.0254
16.0253
16.0251
16.0249
16.0246
16.0244
16.0241
16.0237
16.0234
16.0229
16.0225
16.022
16.0215
16.0209
16.0202
16.0195
16.0188
16.018
16.0172
16.0164
16.0158
16.6117
16.6124
16.6131
16.614
16.6147
16.6155
16.6162
16.6168
16.6174
16.618
16.6185
16.6189
16.6193
16.6197
16.6201
16.6204
16.6206
16.6209
16.6211
16.6213
16.6215
16.6216
16.6217
16.6218
16.6219
16.622
16.622
16.6221
16.6221
16.6221
16.6221
16.6221
16.6221
16.622
16.622
16.6219
16.6218
16.6217
16.6216
16.6215
16.6213
16.6211
16.6209
16.6206
16.6204
16.6201
16.6197
16.6193
16.6189
16.6185
16.618
16.6174
16.6168
16.6162
16.6155
16.6147
16.614
16.6131
16.6124
16.6117
17.2015
17.2021
17.2029
17.2038
17.2045
17.2053
17.206
17.2067
17.2073
17.2078
17.2083
17.2088
17.2092
17.2096
17.2099
17.2102
17.2105
17.2107
17.2109
17.2111
17.2113
17.2115
17.2116
17.2117
17.2118
17.2118
17.2119
17.2119
17.212
17.212
17.212
17.212
17.2119
17.2119
17.2118
17.2118
17.2117
17.2116
17.2115
17.2113
17.2111
17.2109
17.2107
17.2105
17.2102
17.2099
17.2096
17.2092
17.2088
17.2083
17.2078
17.2073
17.2067
17.206
17.2053
17.2045
17.2038
17.2029
17.2021
17.2015
17.7826
17.7832
17.784
17.7848
17.7856
17.7863
17.787
17.7877
17.7883
17.7888
17.7893
17.7898
17.7902
17.7906
17.7909
17.7912
17.7915
17.7918
17.792
17.7922
17.7923
17.7925
17.7926
17.7927
17.7928
17.7929
17.7929
17.793
17.793
17.793
17.793
17.793
17.793
17.7929
17.7929
17.7928
17.7927
17.7926
17.7925
17.7923
17.7922
17.792
17.7918
17.7915
17.7912
17.7909
17.7906
17.7902
17.7898
17.7893
17.7888
17.7883
17.7877
17.787
17.7863
17.7856
17.7848
17.784
17.7832
17.7826
18.3517
18.3524
18.3531
18.354
18.3547
18.3555
18.3562
18.3568
18.3574
18.358
18.3585
18.3589
18.3593
18.3597
18.3601
18.3604
18.3606
18.3609
18.3611
18.3613
18.3615
18.3616
18.3617
18.3618
18.3619
18.362
18.3621
18.3621
18.3621
18.3621
18.3621
18.3621
18.3621
18.3621
18.362
18.3619
18.3618
18.3617
18.3616
18.3615
18.3613
18.3611
18.3609
18.3606
18.3604
18.3601
18.3597
18.3593
18.3589
18.3585
18.358
18.3574
18.3568
18.3562
18.3555
18.3547
18.354
18.3531
18.3524
18.3517
18.9055
18.9061
18.9069
18.9077
18.9084
18.9092
18.9098
18.9105
18.9111
18.9116
18.9121
18.9125
18.9129
18.9133
18.9136
18.914
18.9142
18.9145
18.9147
18.9149
18.915
18.9152
18.9153
18.9154
18.9155
18.9156
18.9156
18.9157
18.9157
18.9157
18.9157
18.9157
18.9157
18.9156
18.9156
18.9155
18.9154
18.9153
18.9152
18.915
18.9149
18.9147
18.9145
18.9142
18.914
18.9136
18.9133
18.9129
18.9125
18.9121
18.9116
18.9111
18.9105
18.9098
18.9092
18.9084
18.9077
18.9069
18.9061
18.9055
19.4394
19.44
19.4408
19.4416
19.4423
19.443
19.4437
19.4443
19.4449
19.4454
19.4459
19.4463
19.4467
19.4471
19.4474
19.4477
19.448
19.4482
19.4484
19.4486
19.4487
19.4489
19.449
19.4491
19.4492
19.4493
19.4493
19.4494
19.4494
19.4494
19.4494
19.4494
19.4494
19.4493
19.4493
19.4492
19.4491
19.449
19.4489
19.4487
19.4486
19.4484
19.4482
19.448
19.4477
19.4474
19.4471
19.4467
19.4463
19.4459
19.4454
19.4449
19.4443
19.4437
19.443
19.4423
19.4416
19.4408
19.44
19.4394
19.9486
19.9491
19.9499
19.9506
19.9513
19.952
19.9526
19.9532
19.9538
19.9543
19.9547
19.9551
19.9555
19.9559
19.9562
19.9565
19.9567
19.9569
19.9571
19.9573
19.9575
19.9576
19.9577
19.9578
19.9579
19.958
19.958
19.9581
19.9581
19.9581
19.9581
19.9581
19.9581
19.958
19.958
19.9579
19.9578
19.9577
19.9576
19.9575
19.9573
19.9571
19.9569
19.9567
19.9565
19.9562
19.9559
19.9555
19.9551
19.9547
19.9543
19.9538
19.9532
19.9526
19.952
19.9513
19.9506
19.9499
19.9491
19.9486
20.4268
20.4274
20.4281
20.4287
20.4294
20.4301
20.4307
20.4312
20.4317
20.4322
20.4326
20.433
20.4334
20.4337
20.434
20.4343
20.4345
20.4347
20.4349
20.4351
20.4352
20.4354
20.4355
20.4356
20.4357
20.4357
20.4358
20.4358
20.4358
20.4358
20.4358
20.4358
20.4358
20.4358
20.4357
20.4357
20.4356
20.4355
20.4354
20.4352
20.4351
20.4349
20.4347
20.4345
20.4343
20.434
20.4337
20.4334
20.433
20.4326
20.4322
20.4317
20.4312
20.4307
20.4301
20.4294
20.4287
20.4281
20.4274
20.4268
20.8675
20.868
20.8686
20.8692
20.8699
20.8704
20.871
20.8715
20.872
20.8724
20.8728
20.8732
20.8735
20.8738
20.8741
20.8743
20.8745
20.8747
20.8749
20.8751
20.8752
20.8753
20.8754
20.8755
20.8756
20.8757
20.8757
20.8757
20.8758
20.8758
20.8758
20.8758
20.8757
20.8757
20.8757
20.8756
20.8755
20.8754
20.8753
20.8752
20.8751
20.8749
20.8747
20.8745
20.8743
20.8741
20.8738
20.8735
20.8732
20.8728
20.8724
20.872
20.8715
20.871
20.8704
20.8699
20.8692
20.8686
20.868
20.8675
21.2635
21.2639
21.2644
21.265
21.2655
21.266
21.2665
21.267
21.2674
21.2678
21.2681
21.2685
21.2688
21.269
21.2693
21.2695
21.2697
21.2699
21.27
21.2702
21.2703
21.2704
21.2705
21.2706
21.2707
21.2707
21.2708
21.2708
21.2708
21.2708
21.2708
21.2708
21.2708
21.2708
21.2707
21.2707
21.2706
21.2705
21.2704
21.2703
21.2702
21.27
21.2699
21.2697
21.2695
21.2693
21.269
21.2688
21.2685
21.2681
21.2678
21.2674
21.267
21.2665
21.266
21.2655
21.265
21.2644
21.2639
21.2635
21.6086
21.6089
21.6094
21.6099
21.6103
21.6108
21.6112
21.6116
21.6119
21.6122
21.6125
21.6128
21.6131
21.6133
21.6135
21.6137
21.6139
21.6141
21.6142
21.6143
21.6144
21.6145
21.6146
21.6147
21.6147
21.6148
21.6148
21.6149
21.6149
21.6149
21.6149
21.6149
21.6149
21.6148
21.6148
21.6147
21.6147
21.6146
21.6145
21.6144
21.6143
21.6142
21.6141
21.6139
21.6137
21.6135
21.6133
21.6131
21.6128
21.6125
21.6122
21.6119
21.6116
21.6112
21.6108
21.6103
21.6099
21.6094
21.6089
21.6086
21.8994
21.8997
21.9001
21.9005
21.9008
21.9012
21.9015
21.9018
21.9021
21.9024
21.9027
21.9029
21.9031
21.9033
21.9035
21.9036
21.9038
21.9039
21.904
21.9042
21.9042
21.9043
21.9044
21.9045
21.9045
21.9046
21.9046
21.9046
21.9046
21.9046
21.9046
21.9046
21.9046
21.9046
21.9046
21.9045
21.9045
21.9044
21.9043
21.9042
21.9042
21.904
21.9039
21.9038
21.9036
21.9035
21.9033
21.9031
21.9029
21.9027
21.9024
21.9021
21.9018
21.9015
21.9012
21.9008
21.9005
21.9001
21.8997
21.8994
22.137
22.1372
22.1375
22.1378
22.1381
22.1384
22.1386
22.1389
22.1391
22.1393
22.1395
22.1397
22.1399
22.1401
22.1402
22.1403
22.1405
22.1406
22.1407
22.1408
22.1408
22.1409
22.141
22.141
22.1411
22.1411
22.1411
22.1412
22.1412
22.1412
22.1412
22.1412
22.1412
22.1411
22.1411
22.1411
22.141
22.141
22.1409
22.1408
22.1408
22.1407
22.1406
22.1405
22.1403
22.1402
22.1401
22.1399
22.1397
22.1395
22.1393
22.1391
22.1389
22.1386
22.1384
22.1381
22.1378
22.1375
22.1372
22.137
22.3269
22.3271
22.3273
22.3275
22.3277
22.3279
22.3281
22.3283
22.3285
22.3287
22.3288
22.329
22.3291
22.3293
22.3294
22.3295
22.3296
22.3297
22.3298
22.3298
22.3299
22.33
22.33
22.3301
22.3301
22.3301
22.3302
22.3302
22.3302
22.3302
22.3302
22.3302
22.3302
22.3302
22.3301
22.3301
22.3301
22.33
22.33
22.3299
22.3298
22.3298
22.3297
22.3296
22.3295
22.3294
22.3293
22.3291
22.329
22.3288
22.3287
22.3285
22.3283
22.3281
22.3279
22.3277
22.3275
22.3273
22.3271
22.3269
22.4779
22.478
22.4781
22.4783
22.4785
22.4786
22.4788
22.4789
22.4791
22.4792
22.4793
22.4794
22.4796
22.4797
22.4798
22.4799
22.4799
22.48
22.4801
22.4802
22.4802
22.4803
22.4803
22.4803
22.4804
22.4804
22.4804
22.4804
22.4805
22.4805
22.4805
22.4805
22.4804
22.4804
22.4804
22.4804
22.4803
22.4803
22.4803
22.4802
22.4802
22.4801
22.48
22.4799
22.4799
22.4798
22.4797
22.4796
22.4794
22.4793
22.4792
22.4791
22.4789
22.4788
22.4786
22.4785
22.4783
22.4781
22.478
22.4779
22.5993
22.5994
22.5995
22.5996
22.5997
22.5998
22.5999
22.6001
22.6002
22.6003
22.6004
22.6005
22.6006
22.6007
22.6007
22.6008
22.6009
22.601
22.601
22.6011
22.6011
22.6012
22.6012
22.6013
22.6013
22.6013
22.6013
22.6013
22.6014
22.6014
22.6014
22.6014
22.6013
22.6013
22.6013
22.6013
22.6013
22.6012
22.6012
22.6011
22.6011
22.601
22.601
22.6009
22.6008
22.6007
22.6007
22.6006
22.6005
22.6004
22.6003
22.6002
22.6001
22.5999
22.5998
22.5997
22.5996
22.5995
22.5994
22.5993
22.6993
22.6993
22.6994
22.6995
22.6996
22.6997
22.6998
22.6999
22.7
22.7001
22.7001
22.7002
22.7003
22.7004
22.7005
22.7005
22.7006
22.7007
22.7007
22.7008
22.7008
22.7009
22.7009
22.7009
22.7009
22.701
22.701
22.701
22.701
22.701
22.701
22.701
22.701
22.701
22.701
22.7009
22.7009
22.7009
22.7009
22.7008
22.7008
22.7007
22.7007
22.7006
22.7005
22.7005
22.7004
22.7003
22.7002
22.7001
22.7001
22.7
22.6999
22.6998
22.6997
22.6996
22.6995
22.6994
22.6993
22.6993
22.7841
22.7841
22.7841
22.7842
22.7843
22.7843
22.7844
22.7845
22.7846
22.7847
22.7847
22.7848
22.7849
22.7849
22.785
22.7851
22.7851
22.7852
22.7852
22.7853
22.7853
22.7854
22.7854
22.7854
22.7855
22.7855
22.7855
22.7855
22.7855
22.7855
22.7855
22.7855
22.7855
22.7855
22.7855
22.7855
22.7854
22.7854
22.7854
22.7853
22.7853
22.7852
22.7852
22.7851
22.7851
22.785
22.7849
22.7849
22.7848
22.7847
22.7847
22.7846
22.7845
22.7844
22.7843
22.7843
22.7842
22.7841
22.7841
22.7841
22.8578
22.8578
22.8578
22.8579
22.858
22.858
22.8581
22.8581
22.8582
22.8583
22.8584
22.8584
22.8585
22.8586
22.8586
22.8587
22.8587
22.8588
22.8588
22.8589
22.8589
22.859
22.859
22.859
22.8591
22.8591
22.8591
22.8591
22.8591
22.8591
22.8591
22.8591
22.8591
22.8591
22.8591
22.8591
22.859
22.859
22.859
22.8589
22.8589
22.8588
22.8588
22.8587
22.8587
22.8586
22.8586
22.8585
22.8584
22.8584
22.8583
22.8582
22.8581
22.8581
22.858
22.858
22.8579
22.8578
22.8578
22.8578
22.9233
22.9234
22.9234
22.9234
22.9235
22.9235
22.9236
22.9236
22.9237
22.9238
22.9238
22.9239
22.924
22.924
22.9241
22.9241
22.9242
22.9242
22.9243
22.9243
22.9244
22.9244
22.9245
22.9245
22.9245
22.9245
22.9245
22.9246
22.9246
22.9246
22.9246
22.9246
22.9246
22.9245
22.9245
22.9245
22.9245
22.9245
22.9244
22.9244
22.9243
22.9243
22.9242
22.9242
22.9241
22.9241
22.924
22.924
22.9239
22.9238
22.9238
22.9237
22.9236
22.9236
22.9235
22.9235
22.9234
22.9234
22.9234
22.9233
22.9826
22.9826
22.9826
22.9826
22.9827
22.9827
22.9828
22.9828
22.9829
22.9829
22.983
22.9831
22.9831
22.9832
22.9832
22.9833
22.9834
22.9834
22.9835
22.9835
22.9836
22.9836
22.9836
22.9837
22.9837
22.9837
22.9837
22.9837
22.9837
22.9837
22.9837
22.9837
22.9837
22.9837
22.9837
22.9837
22.9837
22.9836
22.9836
22.9836
22.9835
22.9835
22.9834
22.9834
22.9833
22.9832
22.9832
22.9831
22.9831
22.983
22.9829
22.9829
22.9828
22.9828
22.9827
22.9827
22.9826
22.9826
22.9826
22.9826
23.0368
23.0368
23.0368
23.0368
23.0368
23.0369
23.0369
23.037
23.037
23.0371
23.0372
23.0372
23.0373
23.0373
23.0374
23.0375
23.0375
23.0376
23.0376
23.0377
23.0377
23.0377
23.0378
23.0378
23.0378
23.0379
23.0379
23.0379
23.0379
23.0379
23.0379
23.0379
23.0379
23.0379
23.0379
23.0378
23.0378
23.0378
23.0377
23.0377
23.0377
23.0376
23.0376
23.0375
23.0375
23.0374
23.0373
23.0373
23.0372
23.0372
23.0371
23.037
23.037
23.0369
23.0369
23.0368
23.0368
23.0368
23.0368
23.0368
23.0868
23.0868
23.0869
23.0869
23.0869
23.0869
23.087
23.087
23.0871
23.0872
23.0872
23.0873
23.0873
23.0874
23.0875
23.0875
23.0876
23.0876
23.0877
23.0877
23.0878
23.0878
23.0878
23.0879
23.0879
23.0879
23.0879
23.0879
23.088
23.088
23.088
23.088
23.0879
23.0879
23.0879
23.0879
23.0879
23.0878
23.0878
23.0878
23.0877
23.0877
23.0876
23.0876
23.0875
23.0875
23.0874
23.0873
23.0873
23.0872
23.0872
23.0871
23.087
23.087
23.0869
23.0869
23.0869
23.0869
23.0868
23.0868
23.1335
23.1335
23.1335
23.1335
23.1335
23.1336
23.1336
23.1337
23.1337
23.1338
23.1338
23.1339
23.134
23.134
23.1341
23.1341
23.1342
23.1343
23.1343
23.1344
23.1344
23.1344
23.1345
23.1345
23.1345
23.1346
23.1346
23.1346
23.1346
23.1346
23.1346
23.1346
23.1346
23.1346
23.1346
23.1345
23.1345
23.1345
23.1344
23.1344
23.1344
23.1343
23.1343
23.1342
23.1341
23.1341
23.134
23.134
23.1339
23.1338
23.1338
23.1337
23.1337
23.1336
23.1336
23.1335
23.1335
23.1335
23.1335
23.1335
23.1772
23.1772
23.1772
23.1772
23.1773
23.1773
23.1773
23.1774
23.1774
23.1775
23.1776
23.1776
23.1777
23.1777
23.1778
23.1779
23.1779
23.178
23.178
23.1781
23.1781
23.1782
23.1782
23.1782
23.1783
23.1783
23.1783
23.1783
23.1783
23.1783
23.1783
23.1783
23.1783
23.1783
23.1783
23.1783
23.1782
23.1782
23.1782
23.1781
23.1781
23.178
23.178
23.1779
23.1779
23.1778
23.1777
23.1777
23.1776
23.1776
23.1775
23.1774
23.1774
23.1773
23.1773
23.1773
23.1772
23.1772
23.1772
23.1772
23.2184
23.2184
23.2184
23.2184
23.2185
23.2185
23.2185
23.2186
23.2186
23.2187
23.2188
23.2188
23.2189
23.219
23.219
23.2191
23.2191
23.2192
23.2193
23.2193
23.2194
23.2194
23.2194
23.2195
23.2195
23.2195
23.2195
23.2195
23.2196
23.2196
23.2196
23.2196
23.2195
23.2195
23.2195
23.2195
23.2195
23.2194
23.2194
23.2194
23.2193
23.2193
23.2192
23.2191
23.2191
23.219
23.219
23.2189
23.2188
23.2188
23.2187
23.2186
23.2186
23.2185
23.2185
23.2185
23.2184
23.2184
23.2184
23.2184
23.2575
23.2575
23.2575
23.2575
23.2575
23.2575
23.2576
23.2576
23.2577
23.2577
23.2578
23.2579
23.2579
23.258
23.2581
23.2581
23.2582
23.2583
23.2583
23.2584
23.2584
23.2584
23.2585
23.2585
23.2586
23.2586
23.2586
23.2586
23.2586
23.2586
23.2586
23.2586
23.2586
23.2586
23.2586
23.2586
23.2585
23.2585
23.2584
23.2584
23.2584
23.2583
23.2583
23.2582
23.2581
23.2581
23.258
23.2579
23.2579
23.2578
23.2577
23.2577
23.2576
23.2576
23.2575
23.2575
23.2575
23.2575
23.2575
23.2575
23.2946
23.2946
23.2946
23.2946
23.2946
23.2947
23.2947
23.2947
23.2948
23.2949
23.2949
23.295
23.2951
23.2951
23.2952
23.2953
23.2953
23.2954
23.2954
23.2955
23.2956
23.2956
23.2956
23.2957
23.2957
23.2957
23.2957
23.2958
23.2958
23.2958
23.2958
23.2958
23.2958
23.2957
23.2957
23.2957
23.2957
23.2956
23.2956
23.2956
23.2955
23.2954
23.2954
23.2953
23.2953
23.2952
23.2951
23.2951
23.295
23.2949
23.2949
23.2948
23.2947
23.2947
23.2947
23.2946
23.2946
23.2946
23.2946
23.2946
23.33
23.33
23.33
23.33
23.33
23.3301
23.3301
23.3302
23.3302
23.3303
23.3304
23.3304
23.3305
23.3306
23.3306
23.3307
23.3308
23.3308
23.3309
23.331
23.331
23.3311
23.3311
23.3311
23.3312
23.3312
23.3312
23.3312
23.3312
23.3312
23.3312
23.3312
23.3312
23.3312
23.3312
23.3312
23.3311
23.3311
23.3311
23.331
23.331
23.3309
23.3308
23.3308
23.3307
23.3306
23.3306
23.3305
23.3304
23.3304
23.3303
23.3302
23.3302
23.3301
23.3301
23.33
23.33
23.33
23.33
23.33
23.3639
23.3639
23.3639
23.3639
23.3639
23.364
23.364
23.3641
23.3641
23.3642
23.3643
23.3643
23.3644
23.3645
23.3646
23.3646
23.3647
23.3648
23.3648
23.3649
23.365
23.365
23.365
23.3651
23.3651
23.3651
23.3652
23.3652
23.3652
23.3652
23.3652
23.3652
23.3652
23.3652
23.3651
23.3651
23.3651
23.365
23.365
23.365
23.3649
23.3648
23.3648
23.3647
23.3646
23.3646
23.3645
23.3644
23.3643
23.3643
23.3642
23.3641
23.3641
23.364
23.364
23.3639
23.3639
23.3639
23.3639
23.3639
23.3964
23.3964
23.3965
23.3965
23.3965
23.3965
23.3966
23.3966
23.3967
23.3968
23.3968
23.3969
23.397
23.3971
23.3971
23.3972
23.3973
23.3974
23.3974
23.3975
23.3975
23.3976