/*--------------------------------*- C++ -*----------------------------------*\
| =========                 |                                                 |
| \\      /  F ield         | foam-extend: Open Source CFD                    |
|  \\    /   O peration     | Version:     4.0                                |
|   \\  /    A nd           | Web:         http://www.foam-extend.org         |
|    \\/     M anipulation  |                                                 |
\*---------------------------------------------------------------------------*/
FoamFile
{
    version     2.0;
    format      ascii;
    class       regIOobject;
    location    "60/uniform";
    object      profilingInfo;
}
// * * * * * * * * * * * * * * * * * * * * * * * * * * * * * * * * * * * * * //

profilingInfo
(

    {
        id              11;
        parentId        10;
        description     "Foam::Time::writeObject - outputTime";
        calls           60;
        totalTime       2.13217;
        childTime       0;
        onStack         1;
    }

    {
        id              10;
        parentId        1;
        description     "Foam::Time::writeObject";
        calls           60;
        totalTime       2.13258;
        childTime       2.13217;
        onStack         1;
    }

    {
        id              1;
        description     "application::main";
        calls           1;
        totalTime       9.00471;
        childTime       8.65554;
        onStack         1;
    }

    {
        id              3;
        parentId        2;
        description     "functionObjectList::read";
        calls           1;
        totalTime       4e-06;
        childTime       0;
        onStack         0;
    }

    {
        id              13;
        parentId        1;
        description     "functionObjects_.end()";
        calls           5;
        totalTime       1e-05;
        childTime       0;
        onStack         0;
    }

    {
        id              12;
        parentId        1;
        description     "functionObjects_.execute()";
        calls           59;
        totalTime       8.9e-05;
        childTime       0;
        onStack         0;
    }

    {
        id              2;
        parentId        1;
        description     "functionObjects_.start()";
        calls           1;
        totalTime       1.4e-05;
        childTime       4e-06;
        onStack         0;
    }

    {
        id              6;
        parentId        1;
        description     "fvMatrix::solve_cMinus";
        calls           136;
        totalTime       3.66677;
        childTime       3.66003;
        onStack         0;
    }

    {
        id              4;
        parentId        1;
        description     "fvMatrix::solve_cPlus";
        calls           91;
        totalTime       1.90801;
        childTime       1.90331;
        onStack         0;
    }

    {
        id              8;
        parentId        1;
        description     "fvMatrix::solve_psiE";
        calls           66;
        totalTime       0.948065;
        childTime       0.94532;
        onStack         0;
    }

    {
        id              7;
        parentId        6;
        description     "lduMatrix::solver_cMinus";
        calls           136;
        totalTime       3.66003;
        childTime       0;
        onStack         0;
    }

    {
        id              5;
        parentId        4;
        description     "lduMatrix::solver_cPlus";
        calls           91;
        totalTime       1.90331;
        childTime       0;
        onStack         0;
    }

    {
        id              9;
        parentId        8;
        description     "lduMatrix::solver_psiE";
        calls           66;
        totalTime       0.94532;
        childTime       0;
        onStack         0;
    }
);


// ************************************************************************* //
