/*--------------------------------*- C++ -*----------------------------------*\
| =========                 |                                                 |
| \\      /  F ield         | foam-extend: Open Source CFD                    |
|  \\    /   O peration     | Version:     4.0                                |
|   \\  /    A nd           | Web:         http://www.foam-extend.org         |
|    \\/     M anipulation  |                                                 |
\*---------------------------------------------------------------------------*/
FoamFile
{
    version     2.0;
    format      ascii;
    class       volScalarField;
    location    "20";
    object      dC1;
}
// * * * * * * * * * * * * * * * * * * * * * * * * * * * * * * * * * * * * * //

dimensions      [0 -1 0 0 0 0 0];

internalField   nonuniform List<scalar> 
6960
(
4.86802e-14
5.03287e-14
4.88195e-14
4.79989e-14
4.79252e-14
5.00264e-14
4.90523e-14
4.96513e-14
4.84456e-14
4.92909e-14
4.97931e-14
4.73926e-14
5.03417e-14
4.8283e-14
5.07168e-14
4.7995e-14
4.94262e-14
5.01773e-14
5.03252e-14
4.8525e-14
4.95025e-14
5.05464e-14
4.92067e-14
4.91222e-14
5.0029e-14
4.87392e-14
4.93594e-14
4.90489e-14
4.97167e-14
4.91347e-14
4.80115e-14
5.00186e-14
4.98815e-14
4.86664e-14
4.80011e-14
5.00359e-14
4.90419e-14
4.83081e-14
5.03256e-14
4.91239e-14
5.0699e-14
4.84452e-14
4.95884e-14
4.88997e-14
4.96569e-14
4.7691e-14
4.89023e-14
4.95793e-14
4.86017e-14
4.8891e-14
4.98022e-14
4.83086e-14
4.96461e-14
4.83038e-14
4.99431e-14
4.84573e-14
5.00307e-14
4.98685e-14
4.90536e-14
5.00273e-14
1.77562e-14
1.71985e-14
1.69292e-14
1.73429e-14
1.77948e-14
1.77744e-14
1.70424e-14
1.77601e-14
1.74908e-14
1.87398e-14
1.71317e-14
1.85429e-14
1.71256e-14
1.81769e-14
1.82363e-14
1.75302e-14
1.68906e-14
1.866e-14
1.68732e-14
1.74366e-14
1.74583e-14
1.79592e-14
1.89449e-14
1.88222e-14
1.71764e-14
1.76564e-14
1.80259e-14
1.64621e-14
1.76734e-14
1.68077e-14
1.8287e-14
1.70562e-14
1.70875e-14
1.83087e-14
1.82849e-14
1.6976e-14
1.70766e-14
1.80377e-14
1.77393e-14
1.81127e-14
1.71191e-14
1.69639e-14
1.67717e-14
1.78468e-14
1.66742e-14
1.70003e-14
1.7159e-14
1.78343e-14
1.7885e-14
1.83555e-14
1.66473e-14
1.80264e-14
1.87272e-14
1.7499e-14
1.69227e-14
1.83633e-14
1.77033e-14
1.74522e-14
1.83039e-14
1.71738e-14
6.93196e-15
8.25598e-15
8.68186e-15
7.91294e-15
8.50405e-15
8.24731e-15
8.0322e-15
7.92725e-15
7.3587e-15
6.93022e-15
8.30239e-15
7.46408e-15
7.6987e-15
8.12154e-15
7.56339e-15
8.10203e-15
7.27977e-15
6.46228e-15
8.59599e-15
7.4888e-15
7.8583e-15
7.47839e-15
8.01356e-15
6.54034e-15
7.69784e-15
7.92812e-15
7.58768e-15
9.01189e-15
7.43459e-15
7.22773e-15
7.70521e-15
7.54388e-15
8.24731e-15
7.01088e-15
7.18566e-15
9.38138e-15
7.94937e-15
6.03207e-15
8.56216e-15
7.9884e-15
7.88692e-15
8.53614e-15
8.83885e-15
6.79795e-15
9.08995e-15
7.40207e-15
7.98146e-15
8.12067e-15
8.00141e-15
8.13282e-15
7.91771e-15
7.80539e-15
7.04428e-15
7.26329e-15
7.37951e-15
7.56079e-15
8.15797e-15
8.88569e-15
7.75595e-15
8.02223e-15
1.19262e-15
6.53557e-16
1.04214e-15
1.53913e-15
1.11673e-15
3.747e-16
9.28511e-16
7.14706e-16
1.164e-15
9.54532e-16
7.09502e-16
1.60765e-15
5.60316e-16
3.70797e-16
1.86136e-15
1.05254e-15
5.61617e-16
2.05825e-15
5.26055e-16
1.06685e-15
2.87964e-16
3.31332e-16
1.9507e-15
6.67869e-16
1.14839e-15
4.0766e-16
4.56666e-16
9.0726e-16
1.48666e-15
4.83554e-16
5.31693e-16
1.42377e-15
7.33354e-16
6.30138e-16
1.81669e-15
2.96638e-16
8.40907e-16
9.44557e-16
3.71665e-16
3.90313e-17
6.09322e-16
-3.56919e-16
6.32307e-16
1.78807e-15
1.29237e-16
5.70724e-16
4.11129e-16
1.84358e-15
-3.82073e-16
4.2067e-16
5.01335e-16
9.51496e-16
3.0748e-16
1.42854e-15
4.56666e-16
1.60635e-15
7.60676e-16
9.59302e-16
9.27643e-16
4.3715e-16
-5.13868e-15
-4.73623e-15
-5.09185e-15
-5.56152e-15
-4.85896e-15
-4.88195e-15
-5.26532e-15
-4.67595e-15
-4.54454e-15
-4.61957e-15
-4.89799e-15
-4.79044e-15
-4.55885e-15
-4.75835e-15
-5.35466e-15
-4.7822e-15
-3.80425e-15
-4.9561e-15
-4.43525e-15
-4.43916e-15
-4.26829e-15
-4.50811e-15
-4.98863e-15
-5.11353e-15
-4.97042e-15
-4.71064e-15
-4.48946e-15
-4.52286e-15
-4.55712e-15
-4.4474e-15
-4.46605e-15
-4.81733e-15
-3.96905e-15
-4.84075e-15
-4.58921e-15
-4.01372e-15
-4.56666e-15
-4.25398e-15
-4.68896e-15
-4.76615e-15
-4.54151e-15
-3.9465e-15
-4.8286e-15
-5.38024e-15
-4.25788e-15
-4.30905e-15
-4.15943e-15
-4.80302e-15
-4.6638e-15
-4.25831e-15
-4.63258e-15
-4.60092e-15
-5.00164e-15
-4.63301e-15
-4.33681e-15
-5.03373e-15
-4.56406e-15
-5.24233e-15
-4.7397e-15
-4.41314e-15
-9.26125e-15
-8.88872e-15
-8.88092e-15
-8.85056e-15
-9.05005e-15
-9.14329e-15
-8.89219e-15
-9.24738e-15
-8.79071e-15
-9.42258e-15
-8.87875e-15
-9.26733e-15
-9.18449e-15
-9.39353e-15
-9.11164e-15
-9.78167e-15
-9.4009e-15
-8.75125e-15
-8.90087e-15
-9.19056e-15
-9.16628e-15
-8.54265e-15
-8.49407e-15
-9.07998e-15
-8.80936e-15
-9.14503e-15
-9.61601e-15
-9.27253e-15
-9.28077e-15
-8.98804e-15
-9.50715e-15
-9.05959e-15
-9.17062e-15
-9.1988e-15
-9.82504e-15
-9.70274e-15
-9.15023e-15
-8.60943e-15
-8.97372e-15
-8.92038e-15
-9.13896e-15
-9.19447e-15
-8.51185e-15
-8.49104e-15
-8.99367e-15
-9.28381e-15
-9.38572e-15
-9.52493e-15
-9.20748e-15
-9.01232e-15
-8.42729e-15
-9.24868e-15
-8.34922e-15
-9.73787e-15
-9.42475e-15
-9.00278e-15
-9.50845e-15
-8.80806e-15
-9.39006e-15
-8.97026e-15
-1.21487e-14
-1.15476e-14
-1.18044e-14
-1.17363e-14
-1.19483e-14
-1.20342e-14
-1.18703e-14
-1.15025e-14
-1.19215e-14
-1.13889e-14
-1.2212e-14
-1.19978e-14
-1.17801e-14
-1.17918e-14
-1.20758e-14
-1.16708e-14
-1.21587e-14
-1.18057e-14
-1.23022e-14
-1.15481e-14
-1.17922e-14
-1.20086e-14
-1.17467e-14
-1.17272e-14
-1.12371e-14
-1.21986e-14
-1.13629e-14
-1.22164e-14
-1.16942e-14
-1.14253e-14
-1.15064e-14
-1.24211e-14
-1.2098e-14
-1.18117e-14
-1.15663e-14
-1.07605e-14
-1.14457e-14
-1.24341e-14
-1.19067e-14
-1.13329e-14
-1.17953e-14
-1.1928e-14
-1.19852e-14
-1.22103e-14
-1.15481e-14
-1.15433e-14
-1.19145e-14
-1.12349e-14
-1.19336e-14
-1.2026e-14
-1.20377e-14
-1.20229e-14
-1.18412e-14
-1.13329e-14
-1.20771e-14
-1.18087e-14
-1.15736e-14
-1.16656e-14
-1.15433e-14
-1.17237e-14
-1.28322e-14
-1.29371e-14
-1.28092e-14
-1.31358e-14
-1.29532e-14
-1.29766e-14
-1.3177e-14
-1.28864e-14
-1.27606e-14
-1.3082e-14
-1.28886e-14
-1.29341e-14
-1.29441e-14
-1.32455e-14
-1.24002e-14
-1.30299e-14
-1.25434e-14
-1.29172e-14
-1.28599e-14
-1.31891e-14
-1.33175e-14
-1.24636e-14
-1.27632e-14
-1.24024e-14
-1.38917e-14
-1.24349e-14
-1.33222e-14
-1.28443e-14
-1.26062e-14
-1.28621e-14
-1.33851e-14
-1.26457e-14
-1.22246e-14
-1.2686e-14
-1.27229e-14
-1.32216e-14
-1.29562e-14
-1.31878e-14
-1.35222e-14
-1.35603e-14
-1.28864e-14
-1.29935e-14
-1.27572e-14
-1.26422e-14
-1.30677e-14
-1.26578e-14
-1.31041e-14
-1.33235e-14
-1.30746e-14
-1.26548e-14
-1.27919e-14
-1.29684e-14
-1.27658e-14
-1.32247e-14
-1.25264e-14
-1.30074e-14
-1.31778e-14
-1.29319e-14
-1.32108e-14
-1.28469e-14
-1.29805e-14
-1.28161e-14
-1.29952e-14
-1.29645e-14
-1.27788e-14
-1.25412e-14
-1.32789e-14
-1.31444e-14
-1.32381e-14
-1.29141e-14
-1.33639e-14
-1.30677e-14
-1.27663e-14
-1.29324e-14
-1.30881e-14
-1.2755e-14
-1.28552e-14
-1.24597e-14
-1.30746e-14
-1.24215e-14
-1.27602e-14
-1.28595e-14
-1.3098e-14
-1.33209e-14
-1.20416e-14
-1.29636e-14
-1.2987e-14
-1.33084e-14
-1.29141e-14
-1.27155e-14
-1.27173e-14
-1.26847e-14
-1.3183e-14
-1.27793e-14
-1.30182e-14
-1.28244e-14
-1.30135e-14
-1.24948e-14
-1.25989e-14
-1.2706e-14
-1.3317e-14
-1.30729e-14
-1.32294e-14
-1.27216e-14
-1.2395e-14
-1.30221e-14
-1.26414e-14
-1.22857e-14
-1.30265e-14
-1.27585e-14
-1.32351e-14
-1.30924e-14
-1.28985e-14
-1.26713e-14
-1.27949e-14
-1.31492e-14
-1.28313e-14
-1.28322e-14
-1.27116e-14
-1.27164e-14
-1.18724e-14
-1.17879e-14
-1.14032e-14
-1.18633e-14
-1.14201e-14
-1.19015e-14
-1.13633e-14
-1.14609e-14
-1.19349e-14
-1.14535e-14
-1.21062e-14
-1.17202e-14
-1.20134e-14
-1.20598e-14
-1.20008e-14
-1.18312e-14
-1.19184e-14
-1.21739e-14
-1.16487e-14
-1.19414e-14
-1.13663e-14
-1.1843e-14
-1.17059e-14
-1.16318e-14
-1.20997e-14
-1.18291e-14
-1.16903e-14
-1.14687e-14
-1.17211e-14
-1.1941e-14
-1.20724e-14
-1.17402e-14
-1.15806e-14
-1.16105e-14
-1.16669e-14
-1.16717e-14
-1.2042e-14
-1.23786e-14
-1.21361e-14
-1.1964e-14
-1.12445e-14
-1.17692e-14
-1.16331e-14
-1.18096e-14
-1.19158e-14
-1.12865e-14
-1.19475e-14
-1.19705e-14
-1.15494e-14
-1.18902e-14
-1.18291e-14
-1.13872e-14
-1.19106e-14
-1.13121e-14
-1.19809e-14
-1.15593e-14
-1.15663e-14
-1.15112e-14
-1.15342e-14
-1.21309e-14
-1.02739e-14
-1.00037e-14
-1.01269e-14
-1.01893e-14
-1.03229e-14
-9.96165e-15
-1.03064e-14
-9.87448e-15
-1.00887e-14
-1.03281e-14
-1.00657e-14
-1.00332e-14
-9.75522e-15
-9.86364e-15
-1.01997e-14
-1.02392e-14
-1.07358e-14
-9.99157e-15
-9.79165e-15
-1.00375e-14
-1.01572e-14
-9.87405e-15
-1.00566e-14
-1.01455e-14
-9.58478e-15
-9.92826e-15
-9.82157e-15
-1.0201e-14
-1.00774e-14
-9.98724e-15
-1.01243e-14
-9.80336e-15
-1.07189e-14
-1.04409e-14
-1.01759e-14
-1.02349e-14
-9.57914e-15
-9.87708e-15
-9.84542e-15
-1.03277e-14
-1.02826e-14
-1.0054e-14
-9.98117e-15
-1.00562e-14
-1.0113e-14
-1.07817e-14
-1.00575e-14
-1.00935e-14
-1.00553e-14
-9.94604e-15
-9.688e-15
-1.00423e-14
-1.0198e-14
-1.01486e-14
-9.95775e-15
-1.02622e-14
-1.00566e-14
-1.00831e-14
-1.02752e-14
-1.01304e-14
-7.84312e-15
-8.2807e-15
-8.06603e-15
-8.04521e-15
-8.05432e-15
-8.57257e-15
-8.31106e-15
-8.29241e-15
-7.92899e-15
-8.18139e-15
-8.17662e-15
-8.49494e-15
-8.21478e-15
-8.25989e-15
-7.93853e-15
-8.19744e-15
-8.09986e-15
-8.54351e-15
-8.23907e-15
-7.93246e-15
-8.58298e-15
-8.11634e-15
-8.51055e-15
-7.77677e-15
-8.58168e-15
-8.34098e-15
-8.4841e-15
-8.12067e-15
-8.25165e-15
-8.0734e-15
-7.95544e-15
-8.37698e-15
-7.89212e-15
-8.39086e-15
-8.26119e-15
-8.2304e-15
-8.32754e-15
-8.25598e-15
-8.05389e-15
-8.00878e-15
-8.02787e-15
-8.6155e-15
-8.00922e-15
-8.57864e-15
-8.38956e-15
-7.92465e-15
-8.26249e-15
-8.59859e-15
-7.99404e-15
-7.87781e-15
-8.79028e-15
-8.40951e-15
-7.92248e-15
-8.12414e-15
-8.4828e-15
-8.23603e-15
-7.91945e-15
-8.60206e-15
-8.09205e-15
-8.36137e-15
-6.89206e-15
-6.41154e-15
-6.62534e-15
-6.57807e-15
-6.95581e-15
-6.17735e-15
-6.54077e-15
-6.20988e-15
-6.69994e-15
-6.69039e-15
-6.56766e-15
-6.10753e-15
-6.53774e-15
-6.37337e-15
-6.5733e-15
-6.80575e-15
-6.50695e-15
-6.20944e-15
-6.92372e-15
-6.86083e-15
-5.96355e-15
-6.61363e-15
-6.44146e-15
-6.79925e-15
-6.48136e-15
-6.48656e-15
-6.5681e-15
-6.3673e-15
-6.54381e-15
-6.61667e-15
-6.25541e-15
-6.4458e-15
-6.41197e-15
-6.52863e-15
-6.88729e-15
-6.99484e-15
-6.66221e-15
-6.78754e-15
-6.70167e-15
-6.51996e-15
-6.40677e-15
-6.13398e-15
-6.70601e-15
-6.55725e-15
-6.24891e-15
-6.63228e-15
-6.36687e-15
-6.13832e-15
-6.47442e-15
-6.79014e-15
-6.2784e-15
-6.29184e-15
-6.52907e-15
-6.66698e-15
-6.29748e-15
-6.40677e-15
-6.74677e-15
-6.54598e-15
-6.61146e-15
-6.4484e-15
-5.33037e-15
-5.032e-15
-5.0307e-15
-5.19593e-15
-4.58661e-15
-5.18335e-15
-5.24667e-15
-5.10876e-15
-5.1582e-15
-5.1517e-15
-4.74924e-15
-5.49647e-15
-5.43879e-15
-5.26922e-15
-5.22108e-15
-5.21415e-15
-5.58061e-15
-5.33037e-15
-5.08231e-15
-4.92445e-15
-5.18509e-15
-4.91751e-15
-5.29871e-15
-5.10789e-15
-4.87587e-15
-5.33774e-15
-5.28397e-15
-5.89979e-15
-5.35813e-15
-5.25057e-15
-6.00691e-15
-5.07016e-15
-4.99167e-15
-5.24971e-15
-4.75141e-15
-5.11266e-15
-4.8724e-15
-5.07797e-15
-4.91317e-15
-5.26185e-15
-5.47262e-15
-5.52943e-15
-5.10139e-15
-5.16037e-15
-5.23279e-15
-5.12828e-15
-5.31996e-15
-5.17425e-15
-4.91968e-15
-5.16948e-15
-5.28223e-15
-5.3217e-15
-4.996e-15
-5.01509e-15
-5.39369e-15
-5.29394e-15
-5.04284e-15
-5.51035e-15
-4.92358e-15
-5.52032e-15
-3.96601e-15
-4.29561e-15
-4.19283e-15
-4.2479e-15
-4.42658e-15
-4.62781e-15
-4.17938e-15
-3.89532e-15
-4.55061e-15
-4.39189e-15
-4.30688e-15
-4.13298e-15
-4.19977e-15
-4.35285e-15
-4.79478e-15
-3.84241e-15
-4.38408e-15
-4.46388e-15
-4.32683e-15
-4.60396e-15
-4.01762e-15
-4.26785e-15
-4.27002e-15
-4.0393e-15
-4.64255e-15
-4.21191e-15
-4.54628e-15
-4.21104e-15
-4.3225e-15
-3.89532e-15
-3.90269e-15
-4.50204e-15
-4.1217e-15
-4.50291e-15
-4.44436e-15
-4.33377e-15
-4.49467e-15
-4.23663e-15
-4.01458e-15
-4.43612e-15
-4.32206e-15
-4.23576e-15
-4.12344e-15
-4.59788e-15
-4.30775e-15
-4.59398e-15
-4.01545e-15
-4.11607e-15
-4.47342e-15
-4.31729e-15
-4.04841e-15
-4.1564e-15
-4.31903e-15
-3.59955e-15
-4.25788e-15
-4.39362e-15
-4.38278e-15
-4.45173e-15
-4.52719e-15
-4.25571e-15
-4.30688e-15
-3.75481e-15
-3.88838e-15
-4.28303e-15
-3.68499e-15
-4.15336e-15
-3.90963e-15
-3.93956e-15
-3.84328e-15
-4.40533e-15
-3.96731e-15
-4.21191e-15
-3.92048e-15
-4.31469e-15
-4.06446e-15
-4.62998e-15
-3.55792e-15
-4.0315e-15
-3.66374e-15
-3.92004e-15
-4.59875e-15
-3.43389e-15
-3.92871e-15
-3.85933e-15
-3.81032e-15
-4.03757e-15
-4.08397e-15
-4.13862e-15
-4.02976e-15
-4.1538e-15
-4.1152e-15
-3.78473e-15
-4.16767e-15
-4.32944e-15
-4.21928e-15
-4.10956e-15
-3.76262e-15
-4.16247e-15
-4.07443e-15
-3.78734e-15
-3.81639e-15
-4.01111e-15
-3.7804e-15
-3.81075e-15
-4.2015e-15
-4.00851e-15
-4.48339e-15
-3.79297e-15
-3.97729e-15
-3.70103e-15
-4.28607e-15
-4.37757e-15
-4.05925e-15
-4.12734e-15
-4.31079e-15
-3.76305e-15
-4.39189e-15
-4.24313e-15
-3.64032e-15
-3.99333e-15
-4.13905e-15
-4.11086e-15
-3.8706e-15
-4.90753e-15
-4.14556e-15
-4.12908e-15
-4.63388e-15
-4.0792e-15
-4.947e-15
-4.28954e-15
-4.24834e-15
-4.15466e-15
-5.09965e-15
-4.50291e-15
-4.38278e-15
-3.77866e-15
-4.83771e-15
-4.06272e-15
-4.59528e-15
-4.32423e-15
-3.93912e-15
-4.50725e-15
-4.27219e-15
-4.47385e-15
-4.61393e-15
-4.20107e-15
-3.84328e-15
-4.49814e-15
-4.28e-15
-4.35242e-15
-4.45781e-15
-4.46041e-15
-4.19369e-15
-3.59435e-15
-4.01935e-15
-4.26308e-15
-4.09265e-15
-4.44653e-15
-4.17201e-15
-4.08224e-15
-4.04234e-15
-4.11476e-15
-4.10045e-15
-4.35893e-15
-4.4036e-15
-4.26352e-15
-3.43779e-15
-4.49467e-15
-4.17374e-15
-4.49163e-15
-4.2002e-15
-3.98639e-15
-3.95517e-15
-3.94042e-15
-3.97815e-15
-4.50464e-15
-4.05708e-15
-4.49857e-15
-4.53153e-15
-4.32944e-15
-5.10095e-15
-5.19116e-15
-5.4067e-15
-4.80605e-15
-4.99947e-15
-4.85246e-15
-4.72712e-15
-5.00945e-15
-5.29654e-15
-6.10493e-15
-5.30131e-15
-5.09315e-15
-5.16601e-15
-5.40323e-15
-5.33514e-15
-5.43662e-15
-4.85202e-15
-5.19636e-15
-5.10876e-15
-5.25751e-15
-5.49387e-15
-5.3694e-15
-4.64299e-15
-5.16124e-15
-4.75227e-15
-5.08968e-15
-4.56623e-15
-5.14259e-15
-4.82123e-15
-5.06843e-15
-5.578e-15
-5.16774e-15
-5.17381e-15
-5.54288e-15
-5.03634e-15
-5.23626e-15
-4.90753e-15
-5.27096e-15
-5.00511e-15
-5.39846e-15
-5.45787e-15
-4.84075e-15
-5.13131e-15
-5.24797e-15
-5.40236e-15
-5.10486e-15
-5.55892e-15
-5.34815e-15
-5.4028e-15
-5.32864e-15
-4.45564e-15
-5.41537e-15
-5.58364e-15
-5.18422e-15
-4.99774e-15
-5.17858e-15
-4.70197e-15
-4.75531e-15
-5.18509e-15
-5.4119e-15
-7.06596e-15
-6.79491e-15
-6.06676e-15
-6.8682e-15
-7.42462e-15
-6.6505e-15
-6.81356e-15
-7.24681e-15
-6.3261e-15
-6.35993e-15
-6.59021e-15
-7.12234e-15
-7.13579e-15
-6.00735e-15
-7.18913e-15
-6.29011e-15
-6.51085e-15
-6.92241e-15
-6.21421e-15
-6.76499e-15
-6.72813e-15
-6.6544e-15
-6.96361e-15
-6.26669e-15
-6.93109e-15
-6.28751e-15
-6.85129e-15
-6.51692e-15
-7.02563e-15
-6.93239e-15
-6.43626e-15
-6.71642e-15
-7.50008e-15
-6.94974e-15
-6.96622e-15
-6.74721e-15
-7.61067e-15
-6.48266e-15
-6.74244e-15
-6.0685e-15
-7.05295e-15
-7.4051e-15
-6.46271e-15
-6.4007e-15
-6.78147e-15
-6.62664e-15
-6.53731e-15
-6.97446e-15
-6.73593e-15
-6.46488e-15
-6.86907e-15
-6.5759e-15
-6.608e-15
-7.0239e-15
-6.73376e-15
-6.46922e-15
-6.73159e-15
-6.6158e-15
-6.63055e-15
-6.97359e-15
-9.14763e-15
-9.09212e-15
-9.36013e-15
-9.30376e-15
-9.03357e-15
-8.94207e-15
-9.51279e-15
-8.43943e-15
-9.64376e-15
-9.24131e-15
-9.14546e-15
-9.12855e-15
-8.99367e-15
-8.6489e-15
-9.13766e-15
-9.3172e-15
-8.44116e-15
-8.91691e-15
-9.71011e-15
-9.17539e-15
-9.04875e-15
-9.17669e-15
-9.0674e-15
-8.75732e-15
-8.98717e-15
-9.40654e-15
-8.87658e-15
-9.75392e-15
-9.19317e-15
-9.4781e-15
-9.66718e-15
-9.0622e-15
-9.28901e-15
-8.52226e-15
-9.29508e-15
-8.98587e-15
-8.57951e-15
-9.29075e-15
-9.0236e-15
-9.04528e-15
-8.90173e-15
-9.28034e-15
-8.95464e-15
-9.69624e-15
-9.397e-15
-9.39526e-15
-9.63812e-15
-8.72262e-15
-9.70534e-15
-9.28554e-15
-9.37358e-15
-9.26689e-15
-8.87441e-15
-8.71612e-15
-8.59729e-15
-8.41948e-15
-9.45207e-15
-9.6069e-15
-9.25692e-15
-9.13028e-15
-1.26843e-14
-1.22081e-14
-1.22784e-14
-1.21739e-14
-1.21778e-14
-1.31145e-14
-1.2536e-14
-1.26305e-14
-1.2464e-14
-1.25533e-14
-1.19136e-14
-1.29892e-14
-1.27424e-14
-1.24878e-14
-1.24822e-14
-1.21431e-14
-1.33899e-14
-1.17007e-14
-1.301e-14
-1.26956e-14
-1.16912e-14
-1.30577e-14
-1.18863e-14
-1.22883e-14
-1.2425e-14
-1.24939e-14
-1.23924e-14
-1.13798e-14
-1.21556e-14
-1.23369e-14
-1.20229e-14
-1.22359e-14
-1.20307e-14
-1.3131e-14
-1.25954e-14
-1.29237e-14
-1.30933e-14
-1.30096e-14
-1.31518e-14
-1.2755e-14
-1.28148e-14
-1.21804e-14
-1.2716e-14
-1.20529e-14
-1.19999e-14
-1.26856e-14
-1.15173e-14
-1.2062e-14
-1.26227e-14
-1.19718e-14
-1.19128e-14
-1.20507e-14
-1.33313e-14
-1.21153e-14
-1.28027e-14
-1.28352e-14
-1.23781e-14
-1.20112e-14
-1.21283e-14
-1.28422e-14
-1.6966e-14
-1.66659e-14
-1.70827e-14
-1.71655e-14
-1.66486e-14
-1.61442e-14
-1.72887e-14
-1.64326e-14
-1.63862e-14
-1.60462e-14
-1.6767e-14
-1.58823e-14
-1.67687e-14
-1.68424e-14
-1.7136e-14
-1.64794e-14
-1.6319e-14
-1.68771e-14
-1.6682e-14
-1.65007e-14
-1.67284e-14
-1.69834e-14
-1.72575e-14
-1.60176e-14
-1.66208e-14
-1.61472e-14
-1.67952e-14
-1.65779e-14
-1.6852e-14
-1.66226e-14
-1.6623e-14
-1.67926e-14
-1.67613e-14
-1.68515e-14
-1.59876e-14
-1.65098e-14
-1.63788e-14
-1.6397e-14
-1.66685e-14
-1.68069e-14
-1.63125e-14
-1.64673e-14
-1.72314e-14
-1.68233e-14
-1.71837e-14
-1.62175e-14
-1.68641e-14
-1.70363e-14
-1.66377e-14
-1.64473e-14
-1.66291e-14
-1.69543e-14
-1.59573e-14
-1.67253e-14
-1.69509e-14
-1.6669e-14
-1.69465e-14
-1.58844e-14
-1.6319e-14
-1.65549e-14
-2.18098e-14
-2.19473e-14
-2.08878e-14
-2.17508e-14
-2.15969e-14
-2.17664e-14
-2.11706e-14
-2.1119e-14
-2.16008e-14
-2.18822e-14
-2.05569e-14
-2.18701e-14
-2.14199e-14
-2.18224e-14
-2.07911e-14
-2.20535e-14
-2.18458e-14
-2.13805e-14
-2.09099e-14
-2.20483e-14
-2.2276e-14
-2.08011e-14
-2.12716e-14
-2.18306e-14
-2.18389e-14
-2.19495e-14
-2.14876e-14
-2.11224e-14
-2.18345e-14
-2.15171e-14
-2.0991e-14
-2.17508e-14
-2.1733e-14
-2.19928e-14
-2.11094e-14
-2.15674e-14
-2.14251e-14
-2.10478e-14
-2.08566e-14
-2.1449e-14
-2.17569e-14
-2.13258e-14
-2.11411e-14
-2.03396e-14
-2.16368e-14
-2.0344e-14
-2.10327e-14
-2.04433e-14
-2.13041e-14
-2.11159e-14
-2.10535e-14
-2.09329e-14
-2.13549e-14
-2.175e-14
-2.16181e-14
-2.13276e-14
-2.10426e-14
-2.11719e-14
-2.15101e-14
-2.07425e-14
-2.55542e-14
-2.5255e-14
-2.50824e-14
-2.49275e-14
-2.55694e-14
-2.56882e-14
-2.5072e-14
-2.50347e-14
-2.48911e-14
-2.52394e-14
-2.52281e-14
-2.5533e-14
-2.57134e-14
-2.47953e-14
-2.57186e-14
-2.47432e-14
-2.56314e-14
-2.53712e-14
-2.52675e-14
-2.44661e-14
-2.53721e-14
-2.55945e-14
-2.49106e-14
-2.50824e-14
-2.4601e-14
-2.42454e-14
-2.52593e-14
-2.49349e-14
-2.57979e-14
-2.50919e-14
-2.51054e-14
-2.51114e-14
-2.4715e-14
-2.52871e-14
-2.54965e-14
-2.4957e-14
-2.49479e-14
-2.63943e-14
-2.44882e-14
-2.57897e-14
-2.37215e-14
-2.47549e-14
-2.55026e-14
-2.49553e-14
-2.59033e-14
-2.55633e-14
-2.55004e-14
-2.53885e-14
-2.5964e-14
-2.53096e-14
-2.6128e-14
-2.60885e-14
-2.59684e-14
-2.47111e-14
-2.46673e-14
-2.49939e-14
-2.52068e-14
-2.53517e-14
-2.49141e-14
-2.57004e-14
-2.57099e-14
-2.5526e-14
-2.55364e-14
-2.55095e-14
-2.5873e-14
-2.61258e-14
-2.52242e-14
-2.50039e-14
-2.55824e-14
-2.56141e-14
-2.52073e-14
-2.47905e-14
-2.55924e-14
-2.57667e-14
-2.57541e-14
-2.55672e-14
-2.5657e-14
-2.61466e-14
-2.64502e-14
-2.61644e-14
-2.54293e-14
-2.59311e-14
-2.56475e-14
-2.54853e-14
-2.56696e-14
-2.53942e-14
-2.67499e-14
-2.57377e-14
-2.62967e-14
-2.48065e-14
-2.52723e-14
-2.4967e-14
-2.53452e-14
-2.52541e-14
-2.59688e-14
-2.56301e-14
-2.55468e-14
-2.60889e-14
-2.5595e-14
-2.51093e-14
-2.59792e-14
-2.44418e-14
-2.58357e-14
-2.56188e-14
-2.51132e-14
-2.5559e-14
-2.46131e-14
-2.4784e-14
-2.57233e-14
-2.5346e-14
-2.53226e-14
-2.54735e-14
-2.50663e-14
-2.52897e-14
-2.59614e-14
-2.60035e-14
-2.58322e-14
-2.55065e-14
-2.5575e-14
-2.57229e-14
-1.87259e-14
-1.92958e-14
-1.90208e-14
-1.85047e-14
-1.93712e-14
-1.8477e-14
-1.8895e-14
-1.85134e-14
-1.84245e-14
-1.88712e-14
-1.84518e-14
-1.96375e-14
-1.79531e-14
-1.8745e-14
-1.90672e-14
-1.7986e-14
-1.84072e-14
-1.77393e-14
-1.84045e-14
-1.83e-14
-1.87563e-14
-1.94224e-14
-1.93118e-14
-1.91735e-14
-1.84457e-14
-1.84961e-14
-1.83339e-14
-1.84887e-14
-1.84822e-14
-1.91266e-14
-1.9477e-14
-1.79535e-14
-1.89545e-14
-1.85728e-14
-1.88564e-14
-1.86561e-14
-1.86431e-14
-1.87879e-14
-1.93573e-14
-1.87125e-14
-1.83638e-14
-1.83933e-14
-1.81999e-14
-1.87415e-14
-1.86526e-14
-1.84011e-14
-1.94185e-14
-1.93235e-14
-1.87537e-14
-1.86019e-14
-1.93062e-14
-1.82441e-14
-1.91158e-14
-1.89965e-14
-1.85121e-14
-1.87645e-14
-1.90984e-14
-1.79422e-14
-1.83499e-14
-1.88109e-14
-1.19739e-15
-8.29198e-16
-6.41414e-16
-7.31186e-16
-8.30933e-16
-1.54694e-15
-1.39472e-15
-1.65579e-15
-1.419e-15
-1.51875e-15
-1.04214e-15
-1.01264e-15
-2.086e-15
-6.08021e-16
-4.02456e-16
-2.49887e-15
-1.48102e-15
-1.85225e-15
-8.55652e-16
-1.13798e-15
-4.93963e-16
-1.8258e-15
-1.47495e-15
-1.10762e-15
-1.69569e-16
-1.25767e-15
-9.22006e-16
-8.81673e-16
-9.67976e-16
-5.99347e-16
-1.02912e-15
-1.53653e-15
-2.26381e-15
-1.8271e-15
-3.03577e-17
-1.2013e-15
-1.17484e-15
-1.64322e-15
-1.03606e-15
-6.11924e-16
-1.17224e-15
-1.82059e-15
-2.2005e-15
-1.4151e-15
-1.26245e-15
-1.32056e-15
-4.88758e-16
-6.90854e-16
-1.80845e-16
-1.47495e-15
-1.2837e-15
-1.33617e-15
-1.18135e-15
-8.1055e-16
-1.52829e-15
-8.35269e-16
-9.34149e-16
-1.69656e-15
-1.69005e-15
-1.22688e-15
2.66128e-14
2.637e-14
2.64268e-14
2.68761e-14
2.68722e-14
2.68284e-14
2.66909e-14
2.72798e-14
2.66189e-14
2.6955e-14
2.67499e-14
2.64645e-14
2.65118e-14
2.68075e-14
2.76524e-14
2.68865e-14
2.71025e-14
2.68392e-14
2.66861e-14
2.71766e-14
2.72625e-14
2.76688e-14
2.66428e-14
2.70109e-14
2.63392e-14
2.57901e-14
2.66818e-14
2.62498e-14
2.65447e-14
2.65439e-14
2.71389e-14
2.74967e-14
2.68561e-14
2.6808e-14
2.55859e-14
2.71935e-14
2.63812e-14
2.60638e-14
2.56709e-14
2.64133e-14
2.74039e-14
2.69884e-14
2.77638e-14
2.67152e-14
2.69324e-14
2.66766e-14
2.57815e-14
2.63617e-14
2.59389e-14
2.68873e-14
2.7243e-14
2.6115e-14
2.6239e-14
2.64276e-14
2.73258e-14
2.72894e-14
2.56626e-14
2.71103e-14
2.62754e-14
2.68843e-14
5.5198e-14
5.49743e-14
5.58299e-14
5.56213e-14
5.47687e-14
5.56621e-14
5.46629e-14
5.52679e-14
5.56759e-14
5.50207e-14
5.46004e-14
5.50744e-14
5.58295e-14
5.5326e-14
5.62146e-14
5.54118e-14
5.52392e-14
5.5999e-14
5.50415e-14
5.48151e-14
5.52627e-14
5.5741e-14
5.57462e-14
5.67957e-14
5.55337e-14
5.50653e-14
5.62714e-14
5.58043e-14
5.55537e-14
5.5767e-14
5.50497e-14
5.64622e-14
5.53355e-14
5.63299e-14
5.58793e-14
5.64076e-14
5.61482e-14
5.59604e-14
5.7121e-14
5.49036e-14
5.52197e-14
5.43775e-14
5.52093e-14
5.4914e-14
5.54613e-14
5.56491e-14
5.70264e-14
5.47353e-14
5.60142e-14
5.56434e-14
5.53776e-14
5.63052e-14
5.65268e-14
5.59279e-14
5.53086e-14
5.55398e-14
5.56313e-14
5.55615e-14
5.52431e-14
5.55038e-14
6.38916e-14
6.44684e-14
6.35863e-14
6.47217e-14
6.63939e-14
6.38812e-14
6.45209e-14
6.37207e-14
6.44693e-14
6.36028e-14
6.40269e-14
6.50239e-14
6.34393e-14
6.37337e-14
6.45191e-14
6.53301e-14
6.5609e-14
6.41045e-14
6.52161e-14
6.40347e-14
6.42841e-14
6.43478e-14
6.63831e-14
6.53041e-14
6.38387e-14
6.3948e-14
6.39523e-14
6.48015e-14
6.39514e-14
6.48925e-14
6.55717e-14
6.24271e-14
6.57456e-14
6.35412e-14
6.41613e-14
6.40829e-14
6.4497e-14
6.38023e-14
6.33838e-14
6.41241e-14
6.4608e-14
6.47629e-14
6.56055e-14
6.47477e-14
6.5141e-14
6.33968e-14
6.53475e-14
6.43504e-14
6.50465e-14
6.54598e-14
6.40616e-14
6.38209e-14
6.47997e-14
6.4474e-14
6.4448e-14
6.41136e-14
6.41267e-14
6.39835e-14
6.47256e-14
6.40408e-14
2.83324e-14
2.96126e-14
2.84521e-14
2.91837e-14
2.81932e-14
2.79429e-14
2.9175e-14
2.95861e-14
2.80453e-14
2.78558e-14
2.89226e-14
2.89191e-14
2.85826e-14
2.89551e-14
2.86624e-14
2.8577e-14
2.77599e-14
2.9293e-14
2.88194e-14
2.87127e-14
2.98442e-14
2.79963e-14
2.88181e-14
2.75322e-14
2.85158e-14
2.92049e-14
2.9031e-14
2.99366e-14
2.91312e-14
2.98984e-14
2.8753e-14
2.9443e-14
2.71671e-14
3.04049e-14
2.89213e-14
2.79711e-14
2.80119e-14
2.95029e-14
2.70621e-14
2.9342e-14
2.83783e-14
2.90063e-14
2.8188e-14
2.81806e-14
2.80938e-14
2.99257e-14
2.825e-14
2.84317e-14
2.93394e-14
2.85106e-14
2.86555e-14
2.81806e-14
2.82179e-14
2.85934e-14
2.81138e-14
2.79286e-14
2.88502e-14
2.9139e-14
2.78727e-14
2.92882e-14
-5.94186e-14
-5.91493e-14
-5.93731e-14
-6.0734e-14
-5.94546e-14
-5.9884e-14
-5.94672e-14
-5.97864e-14
-5.8566e-14
-5.97508e-14
-6.00435e-14
-5.9472e-14
-6.04308e-14
-5.86354e-14
-5.90634e-14
-5.99165e-14
-5.89398e-14
-5.94234e-14
-5.92608e-14
-5.99438e-14
-5.99525e-14
-5.7611e-14
-5.9573e-14
-5.98549e-14
-5.97313e-14
-5.83834e-14
-5.77815e-14
-5.94798e-14
-5.80712e-14
-6.00991e-14
-6.00553e-14
-5.9292e-14
-5.87395e-14
-5.81401e-14
-5.8775e-14
-5.84428e-14
-5.85755e-14
-5.91259e-14
-5.83626e-14
-6.02136e-14
-5.89862e-14
-5.95444e-14
-5.77008e-14
-5.95851e-14
-5.97994e-14
-5.90279e-14
-5.85018e-14
-5.85062e-14
-5.95318e-14
-5.8432e-14
-5.75534e-14
-5.87069e-14
-6.00162e-14
-5.85218e-14
-5.76674e-14
-5.97235e-14
-5.77702e-14
-5.90782e-14
-5.80139e-14
-5.87698e-14
-1.69525e-13
-1.70107e-13
-1.70769e-13
-1.70585e-13
-1.70407e-13
-1.69321e-13
-1.70681e-13
-1.69927e-13
-1.69662e-13
-1.70077e-13
-1.69223e-13
-1.69887e-13
-1.69048e-13
-1.68874e-13
-1.69525e-13
-1.71614e-13
-1.70773e-13
-1.69835e-13
-1.69408e-13
-1.69655e-13
-1.70055e-13
-1.70846e-13
-1.68867e-13
-1.69282e-13
-1.7055e-13
-1.6997e-13
-1.71214e-13
-1.70172e-13
-1.71139e-13
-1.69842e-13
-1.69669e-13
-1.679e-13
-1.70137e-13
-1.70832e-13
-1.68529e-13
-1.70041e-13
-1.70618e-13
-1.72291e-13
-1.69777e-13
-1.69359e-13
-1.68888e-13
-1.68889e-13
-1.71301e-13
-1.69002e-13
-1.70899e-13
-1.69628e-13
-1.71542e-13
-1.7147e-13
-1.69435e-13
-1.68697e-13
-1.71087e-13
-1.72435e-13
-1.6903e-13
-1.71716e-13
-1.7011e-13
-1.7009e-13
-1.71097e-13
-1.7176e-13
-1.70885e-13
-1.6943e-13
-2.44718e-13
-2.45664e-13
-2.45091e-13
-2.44535e-13
-2.44382e-13
-2.45358e-13
-2.44641e-13
-2.45052e-13
-2.44648e-13
-2.45111e-13
-2.45156e-13
-2.43798e-13
-2.44544e-13
-2.44188e-13
-2.45606e-13
-2.44618e-13
-2.44583e-13
-2.44286e-13
-2.45054e-13
-2.44719e-13
-2.43622e-13
-2.45113e-13
-2.44796e-13
-2.45843e-13
-2.44442e-13
-2.45129e-13
-2.4452e-13
-2.44575e-13
-2.43783e-13
-2.43781e-13
-2.45685e-13
-2.45664e-13
-2.44348e-13
-2.43737e-13
-2.45819e-13
-2.46309e-13
-2.44155e-13
-2.43775e-13
-2.45074e-13
-2.45482e-13
-2.43367e-13
-2.43868e-13
-2.45542e-13
-2.44641e-13
-2.44348e-13
-2.44908e-13
-2.43358e-13
-2.45278e-13
-2.45868e-13
-2.44162e-13
-2.44931e-13
-2.43027e-13
-2.4518e-13
-2.45894e-13
-2.44821e-13
-2.45279e-13
-2.43667e-13
-2.44328e-13
-2.45901e-13
-2.43338e-13
-2.31784e-13
-2.32048e-13
-2.30512e-13
-2.29962e-13
-2.32254e-13
-2.32445e-13
-2.31968e-13
-2.31514e-13
-2.31488e-13
-2.30068e-13
-2.32149e-13
-2.32021e-13
-2.30055e-13
-2.31364e-13
-2.31916e-13
-2.33485e-13
-2.32623e-13
-2.31469e-13
-2.29418e-13
-2.31499e-13
-2.32529e-13
-2.31174e-13
-2.32377e-13
-2.31258e-13
-2.29893e-13
-2.30853e-13
-2.3126e-13
-2.33203e-13
-2.31735e-13
-2.32586e-13
-2.32274e-13
-2.31989e-13
-2.31799e-13
-2.31806e-13
-2.30995e-13
-2.31684e-13
-2.31034e-13
-2.30917e-13
-2.30486e-13
-2.31659e-13
-2.3261e-13
-2.29948e-13
-2.29434e-13
-2.31566e-13
-2.30445e-13
-2.34114e-13
-2.31158e-13
-2.33621e-13
-2.3425e-13
-2.33421e-13
-2.30861e-13
-2.33012e-13
-2.29537e-13
-2.30785e-13
-2.32503e-13
-2.30828e-13
-2.31363e-13
-2.30197e-13
-2.30027e-13
-2.33277e-13
-1.27868e-13
-1.28738e-13
-1.29405e-13
-1.2779e-13
-1.2899e-13
-1.28784e-13
-1.29061e-13
-1.27435e-13
-1.28852e-13
-1.28862e-13
-1.28305e-13
-1.29617e-13
-1.28219e-13
-1.2695e-13
-1.29743e-13
-1.28122e-13
-1.28422e-13
-1.29364e-13
-1.31048e-13
-1.29826e-13
-1.26661e-13
-1.28207e-13
-1.29525e-13
-1.28002e-13
-1.29148e-13
-1.27331e-13
-1.2885e-13
-1.27931e-13
-1.29769e-13
-1.27018e-13
-1.29291e-13
-1.28916e-13
-1.27347e-13
-1.28952e-13
-1.27986e-13
-1.27079e-13
-1.2923e-13
-1.28781e-13
-1.29357e-13
-1.27526e-13
-1.2712e-13
-1.28287e-13
-1.29618e-13
-1.29642e-13
-1.2934e-13
-1.26833e-13
-1.31345e-13
-1.29677e-13
-1.26543e-13
-1.2804e-13
-1.29189e-13
-1.28537e-13
-1.30424e-13
-1.28856e-13
-1.28159e-13
-1.3125e-13
-1.27778e-13
-1.3099e-13
-1.2821e-13
-1.27795e-13
1.19171e-14
1.18564e-14
1.3206e-14
1.38392e-14
1.30581e-14
1.18729e-14
1.08325e-14
1.18794e-14
1.22168e-14
1.14041e-14
1.00618e-14
1.18013e-14
1.23395e-14
1.0934e-14
1.22363e-14
1.14197e-14
1.2075e-14
1.08121e-14
1.37924e-14
1.03589e-14
1.08615e-14
1.03745e-14
1.25499e-14
1.52131e-14
1.24228e-14
1.07089e-14
1.17584e-14
1.06161e-14
1.0983e-14
1.10853e-14
1.14071e-14
1.38691e-14
1.14518e-14
9.85366e-15
1.21045e-14
1.0476e-14
1.27814e-14
1.22372e-14
1.07093e-14
1.0473e-14
1.03771e-14
1.18902e-14
1.17948e-14
1.2134e-14
1.15992e-14
1.18508e-14
9.22656e-15
1.12024e-14
1.01438e-14
1.24211e-14
1.15294e-14
1.19431e-14
1.24271e-14
1.08555e-14
1.13286e-14
1.23187e-14
1.08689e-14
1.26813e-14
1.30382e-14
1.10406e-14
1.23848e-13
1.24635e-13
1.23119e-13
1.23604e-13
1.2352e-13
1.23056e-13
1.25302e-13
1.2337e-13
1.26941e-13
1.26051e-13
1.24093e-13
1.23518e-13
1.24263e-13
1.23429e-13
1.23941e-13
1.27484e-13
1.23947e-13
1.25296e-13
1.24333e-13
1.24403e-13
1.22694e-13
1.27746e-13
1.24326e-13
1.21981e-13
1.22419e-13
1.26906e-13
1.23285e-13
1.27418e-13
1.26073e-13
1.26663e-13
1.22552e-13
1.22143e-13
1.26236e-13
1.28217e-13
1.25515e-13
1.24421e-13
1.23511e-13
1.25266e-13
1.26838e-13
1.24731e-13
1.24002e-13
1.2464e-13
1.2269e-13
1.2317e-13
1.27027e-13
1.25833e-13
1.27024e-13
1.24196e-13
1.26893e-13
1.22687e-13
1.26196e-13
1.24998e-13
1.23121e-13
1.24936e-13
1.25499e-13
1.25158e-13
1.22572e-13
1.22706e-13
1.24772e-13
1.22851e-13
1.75156e-13
1.73652e-13
1.77442e-13
1.78809e-13
1.74542e-13
1.79194e-13
1.76267e-13
1.74534e-13
1.75289e-13
1.74285e-13
1.77299e-13
1.76432e-13
1.75963e-13
1.76559e-13
1.77236e-13
1.77226e-13
1.77954e-13
1.75914e-13
1.78357e-13
1.7505e-13
1.77163e-13
1.74332e-13
1.74429e-13
1.76481e-13
1.76241e-13
1.75825e-13
1.74812e-13
1.73204e-13
1.74044e-13
1.76423e-13
1.75555e-13