/*--------------------------------*- C++ -*----------------------------------*\
| =========                 |                                                 |
| \\      /  F ield         | foam-extend: Open Source CFD                    |
|  \\    /   O peration     | Version:     4.0                                |
|   \\  /    A nd           | Web:         http://www.foam-extend.org         |
|    \\/     M anipulation  |                                                 |
\*---------------------------------------------------------------------------*/
FoamFile
{
    version     2.0;
    format      ascii;
    class       volScalarField;
    location    "1630";
    object      cMinus;
}
// * * * * * * * * * * * * * * * * * * * * * * * * * * * * * * * * * * * * * //

dimensions      [0 0 0 0 0 0 0];

internalField   nonuniform List<scalar> 
6960
(
8.35377e-24
8.35538e-24
8.35591e-24
8.35616e-24
8.35635e-24
8.35652e-24
8.35668e-24
8.35686e-24
8.35704e-24
8.35722e-24
8.35741e-24
8.3576e-24
8.35778e-24
8.35796e-24
8.35814e-24
8.35831e-24
8.35848e-24
8.35864e-24
8.35878e-24
8.35892e-24
8.35905e-24
8.35916e-24
8.35926e-24
8.35935e-24
8.35943e-24
8.3595e-24
8.35955e-24
8.35959e-24
8.35962e-24
8.35963e-24
8.35963e-24
8.35962e-24
8.35959e-24
8.35955e-24
8.3595e-24
8.35943e-24
8.35935e-24
8.35926e-24
8.35916e-24
8.35905e-24
8.35892e-24
8.35878e-24
8.35864e-24
8.35848e-24
8.35831e-24
8.35814e-24
8.35796e-24
8.35778e-24
8.3576e-24
8.35741e-24
8.35722e-24
8.35704e-24
8.35686e-24
8.35668e-24
8.35652e-24
8.35635e-24
8.35616e-24
8.35591e-24
8.35538e-24
8.35377e-24
2.31209e-23
2.31257e-23
2.31274e-23
2.31283e-23
2.31291e-23
2.31298e-23
2.31306e-23
2.31313e-23
2.3132e-23
2.31327e-23
2.31335e-23
2.31342e-23
2.31349e-23
2.31355e-23
2.31362e-23
2.31368e-23
2.31374e-23
2.3138e-23
2.31385e-23
2.3139e-23
2.31394e-23
2.31398e-23
2.31402e-23
2.31405e-23
2.31407e-23
2.3141e-23
2.31411e-23
2.31413e-23
2.31414e-23
2.31414e-23
2.31414e-23
2.31414e-23
2.31413e-23
2.31411e-23
2.3141e-23
2.31407e-23
2.31405e-23
2.31402e-23
2.31398e-23
2.31394e-23
2.3139e-23
2.31385e-23
2.3138e-23
2.31374e-23
2.31368e-23
2.31362e-23
2.31355e-23
2.31349e-23
2.31342e-23
2.31335e-23
2.31327e-23
2.3132e-23
2.31313e-23
2.31306e-23
2.31298e-23
2.31291e-23
2.31283e-23
2.31274e-23
2.31257e-23
2.31209e-23
5.5532e-23
5.55441e-23
5.55489e-23
5.5552e-23
5.55547e-23
5.55573e-23
5.55597e-23
5.55622e-23
5.55646e-23
5.5567e-23
5.55693e-23
5.55715e-23
5.55737e-23
5.55758e-23
5.55778e-23
5.55797e-23
5.55815e-23
5.55832e-23
5.55848e-23
5.55862e-23
5.55875e-23
5.55887e-23
5.55897e-23
5.55907e-23
5.55915e-23
5.55921e-23
5.55926e-23
5.5593e-23
5.55933e-23
5.55934e-23
5.55934e-23
5.55933e-23
5.5593e-23
5.55926e-23
5.55921e-23
5.55915e-23
5.55907e-23
5.55897e-23
5.55887e-23
5.55875e-23
5.55862e-23
5.55848e-23
5.55832e-23
5.55815e-23
5.55797e-23
5.55778e-23
5.55758e-23
5.55737e-23
5.55715e-23
5.55693e-23
5.5567e-23
5.55646e-23
5.55622e-23
5.55597e-23
5.55573e-23
5.55547e-23
5.5552e-23
5.55489e-23
5.55441e-23
5.5532e-23
1.27187e-22
1.27216e-22
1.27229e-22
1.27238e-22
1.27247e-22
1.27255e-22
1.27262e-22
1.2727e-22
1.27277e-22
1.27284e-22
1.27291e-22
1.27298e-22
1.27304e-22
1.2731e-22
1.27316e-22
1.27322e-22
1.27327e-22
1.27331e-22
1.27336e-22
1.2734e-22
1.27343e-22
1.27347e-22
1.2735e-22
1.27352e-22
1.27354e-22
1.27356e-22
1.27358e-22
1.27359e-22
1.2736e-22
1.2736e-22
1.2736e-22
1.2736e-22
1.27359e-22
1.27358e-22
1.27356e-22
1.27354e-22
1.27352e-22
1.2735e-22
1.27347e-22
1.27343e-22
1.2734e-22
1.27336e-22
1.27331e-22
1.27327e-22
1.27322e-22
1.27316e-22
1.2731e-22
1.27304e-22
1.27298e-22
1.27291e-22
1.27284e-22
1.27277e-22
1.2727e-22
1.27262e-22
1.27255e-22
1.27247e-22
1.27238e-22
1.27229e-22
1.27216e-22
1.27187e-22
2.8835e-22
2.88419e-22
2.88453e-22
2.8848e-22
2.88504e-22
2.88528e-22
2.8855e-22
2.88572e-22
2.88593e-22
2.88614e-22
2.88633e-22
2.88652e-22
2.8867e-22
2.88687e-22
2.88703e-22
2.88718e-22
2.88732e-22
2.88745e-22
2.88757e-22
2.88768e-22
2.88778e-22
2.88787e-22
2.88795e-22
2.88802e-22
2.88808e-22
2.88813e-22
2.88817e-22
2.8882e-22
2.88822e-22
2.88823e-22
2.88823e-22
2.88822e-22
2.8882e-22
2.88817e-22
2.88813e-22
2.88808e-22
2.88802e-22
2.88795e-22
2.88787e-22
2.88778e-22
2.88768e-22
2.88757e-22
2.88745e-22
2.88732e-22
2.88718e-22
2.88703e-22
2.88687e-22
2.8867e-22
2.88652e-22
2.88633e-22
2.88614e-22
2.88593e-22
2.88572e-22
2.8855e-22
2.88528e-22
2.88504e-22
2.8848e-22
2.88453e-22
2.88419e-22
2.8835e-22
6.58031e-22
6.58197e-22
6.58289e-22
6.58363e-22
6.58432e-22
6.58498e-22
6.58562e-22
6.58624e-22
6.58683e-22
6.5874e-22
6.58794e-22
6.58846e-22
6.58896e-22
6.58942e-22
6.58986e-22
6.59027e-22
6.59066e-22
6.59101e-22
6.59133e-22
6.59163e-22
6.5919e-22
6.59214e-22
6.59235e-22
6.59254e-22
6.5927e-22
6.59283e-22
6.59294e-22
6.59302e-22
6.59307e-22
6.59309e-22
6.59309e-22
6.59307e-22
6.59302e-22
6.59294e-22
6.59283e-22
6.5927e-22
6.59254e-22
6.59235e-22
6.59214e-22
6.5919e-22
6.59163e-22
6.59133e-22
6.59101e-22
6.59066e-22
6.59027e-22
6.58986e-22
6.58942e-22
6.58896e-22
6.58846e-22
6.58794e-22
6.5874e-22
6.58683e-22
6.58624e-22
6.58562e-22
6.58498e-22
6.58432e-22
6.58363e-22
6.58289e-22
6.58197e-22
6.58031e-22
1.52357e-21
1.52398e-21
1.52422e-21
1.52442e-21
1.52462e-21
1.5248e-21
1.52498e-21
1.52515e-21
1.52531e-21
1.52547e-21
1.52562e-21
1.52576e-21
1.5259e-21
1.52603e-21
1.52615e-21
1.52626e-21
1.52636e-21
1.52646e-21
1.52654e-21
1.52662e-21
1.5267e-21
1.52676e-21
1.52682e-21
1.52687e-21
1.52691e-21
1.52694e-21
1.52697e-21
1.52699e-21
1.52701e-21
1.52702e-21
1.52702e-21
1.52701e-21
1.52699e-21
1.52697e-21
1.52694e-21
1.52691e-21
1.52687e-21
1.52682e-21
1.52676e-21
1.5267e-21
1.52662e-21
1.52654e-21
1.52646e-21
1.52636e-21
1.52626e-21
1.52615e-21
1.52603e-21
1.5259e-21
1.52576e-21
1.52562e-21
1.52547e-21
1.52531e-21
1.52515e-21
1.52498e-21
1.5248e-21
1.52462e-21
1.52442e-21
1.52422e-21
1.52398e-21
1.52357e-21
3.59293e-21
3.59393e-21
3.59457e-21
3.59513e-21
3.59567e-21
3.59618e-21
3.59667e-21
3.59715e-21
3.5976e-21
3.59803e-21
3.59845e-21
3.59884e-21
3.59921e-21
3.59955e-21
3.59988e-21
3.60018e-21
3.60046e-21
3.60072e-21
3.60095e-21
3.60117e-21
3.60137e-21
3.60154e-21
3.60169e-21
3.60183e-21
3.60194e-21
3.60204e-21
3.60211e-21
3.60217e-21
3.60221e-21
3.60223e-21
3.60223e-21
3.60221e-21
3.60217e-21
3.60211e-21
3.60204e-21
3.60194e-21
3.60183e-21
3.60169e-21
3.60154e-21
3.60137e-21
3.60117e-21
3.60095e-21
3.60072e-21
3.60046e-21
3.60018e-21
3.59988e-21
3.59955e-21
3.59921e-21
3.59884e-21
3.59845e-21
3.59803e-21
3.5976e-21
3.59715e-21
3.59667e-21
3.59618e-21
3.59567e-21
3.59513e-21
3.59457e-21
3.59393e-21
3.59293e-21
8.64678e-21
8.6493e-21
8.65104e-21
8.65259e-21
8.65407e-21
8.6555e-21
8.65687e-21
8.65818e-21
8.65944e-21
8.66064e-21
8.66177e-21
8.66285e-21
8.66386e-21
8.66481e-21
8.6657e-21
8.66652e-21
8.66729e-21
8.66799e-21
8.66864e-21
8.66923e-21
8.66976e-21
8.67023e-21
8.67065e-21
8.67101e-21
8.67132e-21
8.67158e-21
8.67179e-21
8.67194e-21
8.67204e-21
8.67209e-21
8.67209e-21
8.67204e-21
8.67194e-21
8.67179e-21
8.67158e-21
8.67132e-21
8.67101e-21
8.67065e-21
8.67023e-21
8.66976e-21
8.66923e-21
8.66864e-21
8.66799e-21
8.66729e-21
8.66652e-21
8.6657e-21
8.66481e-21
8.66386e-21
8.66285e-21
8.66177e-21
8.66064e-21
8.65944e-21
8.65818e-21
8.65687e-21
8.6555e-21
8.65407e-21
8.65259e-21
8.65104e-21
8.6493e-21
8.64678e-21
2.12591e-20
2.12656e-20
2.12703e-20
2.12746e-20
2.12788e-20
2.12827e-20
2.12866e-20
2.12902e-20
2.12938e-20
2.12971e-20
2.13002e-20
2.13032e-20
2.1306e-20
2.13087e-20
2.13111e-20
2.13134e-20
2.13155e-20
2.13174e-20
2.13192e-20
2.13208e-20
2.13223e-20
2.13236e-20
2.13247e-20
2.13257e-20
2.13266e-20
2.13273e-20
2.13279e-20
2.13283e-20
2.13286e-20
2.13287e-20
2.13287e-20
2.13286e-20
2.13283e-20
2.13279e-20
2.13273e-20
2.13266e-20
2.13257e-20
2.13247e-20
2.13236e-20
2.13223e-20
2.13208e-20
2.13192e-20
2.13174e-20
2.13155e-20
2.13134e-20
2.13111e-20
2.13087e-20
2.1306e-20
2.13032e-20
2.13002e-20
2.12971e-20
2.12938e-20
2.12902e-20
2.12866e-20
2.12827e-20
2.12788e-20
2.12746e-20
2.12703e-20
2.12656e-20
2.12591e-20
5.34313e-20
5.34485e-20
5.34615e-20
5.34736e-20
5.34853e-20
5.34966e-20
5.35074e-20
5.35177e-20
5.35276e-20
5.3537e-20
5.35459e-20
5.35542e-20
5.35621e-20
5.35695e-20
5.35763e-20
5.35827e-20
5.35886e-20
5.3594e-20
5.3599e-20
5.36035e-20
5.36075e-20
5.36112e-20
5.36144e-20
5.36171e-20
5.36195e-20
5.36215e-20
5.3623e-20
5.36242e-20
5.3625e-20
5.36253e-20
5.36253e-20
5.3625e-20
5.36242e-20
5.3623e-20
5.36215e-20
5.36195e-20
5.36171e-20
5.36144e-20
5.36112e-20
5.36075e-20
5.36035e-20
5.3599e-20
5.3594e-20
5.35886e-20
5.35827e-20
5.35763e-20
5.35695e-20
5.35621e-20
5.35542e-20
5.35459e-20
5.3537e-20
5.35276e-20
5.35177e-20
5.35074e-20
5.34966e-20
5.34853e-20
5.34736e-20
5.34615e-20
5.34485e-20
5.34313e-20
1.3734e-19
1.37386e-19
1.37423e-19
1.37457e-19
1.37491e-19
1.37523e-19
1.37554e-19
1.37583e-19
1.37611e-19
1.37638e-19
1.37663e-19
1.37687e-19
1.3771e-19
1.3773e-19
1.3775e-19
1.37768e-19
1.37785e-19
1.378e-19
1.37814e-19
1.37827e-19
1.37838e-19
1.37849e-19
1.37858e-19
1.37865e-19
1.37872e-19
1.37878e-19
1.37882e-19
1.37885e-19
1.37888e-19
1.37889e-19
1.37889e-19
1.37888e-19
1.37885e-19
1.37882e-19
1.37878e-19
1.37872e-19
1.37865e-19
1.37858e-19
1.37849e-19
1.37838e-19
1.37827e-19
1.37814e-19
1.378e-19
1.37785e-19
1.37768e-19
1.3775e-19
1.3773e-19
1.3771e-19
1.37687e-19
1.37663e-19
1.37638e-19
1.37611e-19
1.37583e-19
1.37554e-19
1.37523e-19
1.37491e-19
1.37457e-19
1.37423e-19
1.37386e-19
1.3734e-19
3.61148e-19
3.61276e-19
3.61381e-19
3.6148e-19
3.61577e-19
3.61671e-19
3.6176e-19
3.61846e-19
3.61928e-19
3.62005e-19
3.62078e-19
3.62147e-19
3.62211e-19
3.62272e-19
3.62328e-19
3.6238e-19
3.62428e-19
3.62472e-19
3.62513e-19
3.62549e-19
3.62582e-19
3.62612e-19
3.62638e-19
3.6266e-19
3.62679e-19
3.62695e-19
3.62708e-19
3.62717e-19
3.62724e-19
3.62727e-19
3.62727e-19
3.62724e-19
3.62717e-19
3.62708e-19
3.62695e-19
3.62679e-19
3.6266e-19
3.62638e-19
3.62612e-19
3.62582e-19
3.62549e-19
3.62513e-19
3.62472e-19
3.62428e-19
3.6238e-19
3.62328e-19
3.62272e-19
3.62211e-19
3.62147e-19
3.62078e-19
3.62005e-19
3.61928e-19
3.61846e-19
3.6176e-19
3.61671e-19
3.61577e-19
3.6148e-19
3.61381e-19
3.61276e-19
3.61148e-19
9.7179e-19
9.72151e-19
9.72455e-19
9.72747e-19
9.73032e-19
9.73308e-19
9.73572e-19
9.73825e-19
9.74065e-19
9.74292e-19
9.74507e-19
9.74709e-19
9.74898e-19
9.75075e-19
9.7524e-19
9.75393e-19
9.75534e-19
9.75663e-19
9.75782e-19
9.75889e-19
9.75985e-19
9.76071e-19
9.76147e-19
9.76213e-19
9.76269e-19
9.76316e-19
9.76353e-19
9.7638e-19
9.76398e-19
9.76408e-19
9.76408e-19
9.76398e-19
9.7638e-19
9.76353e-19
9.76316e-19
9.76269e-19
9.76213e-19
9.76147e-19
9.76071e-19
9.75985e-19
9.75889e-19
9.75782e-19
9.75663e-19
9.75534e-19
9.75393e-19
9.7524e-19
9.75075e-19
9.74898e-19
9.74709e-19
9.74507e-19
9.74292e-19
9.74065e-19
9.73825e-19
9.73572e-19
9.73308e-19
9.73032e-19
9.72747e-19
9.72455e-19
9.72151e-19
9.7179e-19
2.67633e-18
2.67738e-18
2.67828e-18
2.67915e-18
2.68e-18
2.68083e-18
2.68162e-18
2.68238e-18
2.6831e-18
2.68378e-18
2.68442e-18
2.68502e-18
2.68559e-18
2.68612e-18
2.68661e-18
2.68707e-18
2.68749e-18
2.68787e-18
2.68823e-18
2.68855e-18
2.68883e-18
2.68909e-18
2.68932e-18
2.68951e-18
2.68968e-18
2.68982e-18
2.68993e-18
2.69001e-18
2.69006e-18
2.69009e-18
2.69009e-18
2.69006e-18
2.69001e-18
2.68993e-18
2.68982e-18
2.68968e-18
2.68951e-18
2.68932e-18
2.68909e-18
2.68883e-18
2.68855e-18
2.68823e-18
2.68787e-18
2.68749e-18
2.68707e-18
2.68661e-18
2.68612e-18
2.68559e-18
2.68502e-18
2.68442e-18
2.68378e-18
2.6831e-18
2.68238e-18
2.68162e-18
2.68083e-18
2.68e-18
2.67915e-18
2.67828e-18
2.67738e-18
2.67633e-18
7.54478e-18
7.54787e-18
7.55059e-18
7.55325e-18
7.55585e-18
7.55837e-18
7.56079e-18
7.5631e-18
7.56529e-18
7.56736e-18
7.56932e-18
7.57116e-18
7.57288e-18
7.57449e-18
7.57599e-18
7.57737e-18
7.57865e-18
7.57982e-18
7.5809e-18
7.58187e-18
7.58274e-18
7.58352e-18
7.5842e-18
7.5848e-18
7.58531e-18
7.58573e-18
7.58606e-18
7.58631e-18
7.58647e-18
7.58656e-18
7.58656e-18
7.58647e-18
7.58631e-18
7.58606e-18
7.58573e-18
7.58531e-18
7.5848e-18
7.5842e-18
7.58352e-18
7.58274e-18
7.58187e-18
7.5809e-18
7.57982e-18
7.57865e-18
7.57737e-18
7.57599e-18
7.57449e-18
7.57288e-18
7.57116e-18
7.56932e-18
7.56736e-18
7.56529e-18
7.5631e-18
7.56079e-18
7.55837e-18
7.55585e-18
7.55325e-18
7.55059e-18
7.54787e-18
7.54478e-18
2.17732e-17
2.17825e-17
2.17909e-17
2.17991e-17
2.18072e-17
2.18151e-17
2.18226e-17
2.18298e-17
2.18366e-17
2.1843e-17
2.18491e-17
2.18548e-17
2.18601e-17
2.18651e-17
2.18698e-17
2.18741e-17
2.1878e-17
2.18817e-17
2.1885e-17
2.1888e-17
2.18907e-17
2.18931e-17
2.18952e-17
2.18971e-17
2.18986e-17
2.18999e-17
2.1901e-17
2.19017e-17
2.19023e-17
2.19025e-17
2.19025e-17
2.19023e-17
2.19017e-17
2.1901e-17
2.18999e-17
2.18986e-17
2.18971e-17
2.18952e-17
2.18931e-17
2.18907e-17
2.1888e-17
2.1885e-17
2.18817e-17
2.1878e-17
2.18741e-17
2.18698e-17
2.18651e-17
2.18601e-17
2.18548e-17
2.18491e-17
2.1843e-17
2.18366e-17
2.18298e-17
2.18226e-17
2.18151e-17
2.18072e-17
2.17991e-17
2.17909e-17
2.17825e-17
2.17732e-17
6.43226e-17
6.43514e-17
6.43777e-17
6.44038e-17
6.44295e-17
6.44543e-17
6.44781e-17
6.45008e-17
6.45224e-17
6.45428e-17
6.4562e-17
6.45801e-17
6.4597e-17
6.46128e-17
6.46275e-17
6.4641e-17
6.46536e-17
6.46651e-17
6.46755e-17
6.4685e-17
6.46936e-17
6.47012e-17
6.47079e-17
6.47137e-17
6.47186e-17
6.47227e-17
6.4726e-17
6.47284e-17
6.473e-17
6.47309e-17
6.47309e-17
6.473e-17
6.47284e-17
6.4726e-17
6.47227e-17
6.47186e-17
6.47137e-17
6.47079e-17
6.47012e-17
6.46936e-17
6.4685e-17
6.46755e-17
6.46651e-17
6.46536e-17
6.4641e-17
6.46275e-17
6.46128e-17
6.4597e-17
6.45801e-17
6.4562e-17
6.45428e-17
6.45224e-17
6.45008e-17
6.44781e-17
6.44543e-17
6.44295e-17
6.44038e-17
6.43777e-17
6.43514e-17
6.43226e-17
1.94504e-16
1.94596e-16
1.9468e-16
1.94764e-16
1.94847e-16
1.94927e-16
1.95004e-16
1.95077e-16
1.95147e-16
1.95213e-16
1.95275e-16
1.95333e-16
1.95388e-16
1.95439e-16
1.95486e-16
1.9553e-16
1.9557e-16
1.95607e-16
1.95641e-16
1.95672e-16
1.95699e-16
1.95724e-16
1.95745e-16
1.95764e-16
1.9578e-16
1.95793e-16
1.95804e-16
1.95811e-16
1.95817e-16
1.95819e-16
1.95819e-16
1.95817e-16
1.95811e-16
1.95804e-16
1.95793e-16
1.9578e-16
1.95764e-16
1.95745e-16
1.95724e-16
1.95699e-16
1.95672e-16
1.95641e-16
1.95607e-16
1.9557e-16
1.9553e-16
1.95486e-16
1.95439e-16
1.95388e-16
1.95333e-16
1.95275e-16
1.95213e-16
1.95147e-16
1.95077e-16
1.95004e-16
1.94927e-16
1.94847e-16
1.94764e-16
1.9468e-16
1.94596e-16
1.94504e-16
6.01913e-16
6.02207e-16
6.02483e-16
6.0276e-16
6.03032e-16
6.03297e-16
6.0355e-16
6.03792e-16
6.04021e-16
6.04238e-16
6.04442e-16
6.04634e-16
6.04814e-16
6.04981e-16
6.05137e-16
6.05281e-16
6.05413e-16
6.05535e-16
6.05646e-16
6.05747e-16
6.05837e-16
6.05918e-16
6.05989e-16
6.0605e-16
6.06102e-16
6.06146e-16
6.0618e-16
6.06206e-16
6.06223e-16
6.06231e-16
6.06231e-16
6.06223e-16
6.06206e-16
6.0618e-16
6.06146e-16
6.06102e-16
6.0605e-16
6.05989e-16
6.05918e-16
6.05837e-16
6.05747e-16
6.05646e-16
6.05535e-16
6.05413e-16
6.05281e-16
6.05137e-16
6.04981e-16
6.04814e-16
6.04634e-16
6.04442e-16
6.04238e-16
6.04021e-16
6.03792e-16
6.0355e-16
6.03297e-16
6.03032e-16
6.0276e-16
6.02483e-16
6.02207e-16
6.01913e-16
1.90562e-15
1.90659e-15
1.90751e-15
1.90844e-15
1.90935e-15
1.91024e-15
1.91109e-15
1.9119e-15
1.91267e-15
1.9134e-15
1.91409e-15
1.91473e-15
1.91533e-15
1.9159e-15
1.91642e-15
1.9169e-15
1.91735e-15
1.91775e-15
1.91813e-15
1.91846e-15
1.91877e-15
1.91904e-15
1.91927e-15
1.91948e-15
1.91965e-15
1.9198e-15
1.91991e-15
1.92e-15
1.92006e-15
1.92009e-15
1.92009e-15
1.92006e-15
1.92e-15
1.91991e-15
1.9198e-15
1.91965e-15
1.91948e-15
1.91927e-15
1.91904e-15
1.91877e-15
1.91846e-15
1.91813e-15
1.91775e-15
1.91735e-15
1.9169e-15
1.91642e-15
1.9159e-15
1.91533e-15
1.91473e-15
1.91409e-15
1.9134e-15
1.91267e-15
1.9119e-15
1.91109e-15
1.91024e-15
1.90935e-15
1.90844e-15
1.90751e-15
1.90659e-15
1.90562e-15
6.16929e-15
6.17255e-15
6.17569e-15
6.17887e-15
6.182e-15
6.18504e-15
6.18796e-15
6.19073e-15
6.19337e-15
6.19586e-15
6.19821e-15
6.20041e-15
6.20247e-15
6.20439e-15
6.20617e-15
6.20782e-15
6.20935e-15
6.21074e-15
6.21201e-15
6.21316e-15
6.2142e-15
6.21512e-15
6.21593e-15
6.21663e-15
6.21723e-15
6.21773e-15
6.21812e-15
6.21842e-15
6.21861e-15
6.21871e-15
6.21871e-15
6.21861e-15
6.21842e-15
6.21812e-15
6.21773e-15
6.21723e-15
6.21663e-15
6.21593e-15
6.21512e-15
6.2142e-15
6.21316e-15
6.21201e-15
6.21074e-15
6.20935e-15
6.20782e-15
6.20617e-15
6.20439e-15
6.20247e-15
6.20041e-15
6.19821e-15
6.19586e-15
6.19337e-15
6.19073e-15
6.18796e-15
6.18504e-15
6.182e-15
6.17887e-15
6.17569e-15
6.17255e-15
6.16929e-15
2.04107e-14
2.04219e-14
2.04328e-14
2.04439e-14
2.04548e-14
2.04654e-14
2.04756e-14
2.04853e-14
2.04945e-14
2.05032e-14
2.05113e-14
2.0519e-14
2.05262e-14
2.05329e-14
2.05391e-14
2.05448e-14
2.05501e-14
2.0555e-14
2.05594e-14
2.05634e-14
2.0567e-14
2.05702e-14
2.05731e-14
2.05755e-14
2.05776e-14
2.05793e-14
2.05807e-14
2.05817e-14
2.05824e-14
2.05827e-14
2.05827e-14
2.05824e-14
2.05817e-14
2.05807e-14
2.05793e-14
2.05776e-14
2.05755e-14
2.05731e-14
2.05702e-14
2.0567e-14
2.05634e-14
2.05594e-14
2.0555e-14
2.05501e-14
2.05448e-14
2.05391e-14
2.05329e-14
2.05262e-14
2.0519e-14
2.05113e-14
2.05032e-14
2.04945e-14
2.04853e-14
2.04756e-14
2.04654e-14
2.04548e-14
2.04439e-14
2.04328e-14
2.04219e-14
2.04107e-14
6.89525e-14
6.89916e-14
6.90302e-14
6.90694e-14
6.91082e-14
6.91459e-14
6.9182e-14
6.92164e-14
6.9249e-14
6.92798e-14
6.93088e-14
6.9336e-14
6.93615e-14
6.93852e-14
6.94073e-14
6.94277e-14
6.94464e-14
6.94637e-14
6.94793e-14
6.94936e-14
6.95063e-14
6.95177e-14
6.95277e-14
6.95364e-14
6.95437e-14
6.95498e-14
6.95547e-14
6.95583e-14
6.95607e-14
6.95619e-14
6.95619e-14
6.95607e-14
6.95583e-14
6.95547e-14
6.95498e-14
6.95437e-14
6.95364e-14
6.95277e-14
6.95177e-14
6.95063e-14
6.94936e-14
6.94793e-14
6.94637e-14
6.94464e-14
6.94277e-14
6.94073e-14
6.93852e-14
6.93615e-14
6.9336e-14
6.93088e-14
6.92798e-14
6.9249e-14
6.92164e-14
6.9182e-14
6.91459e-14
6.91082e-14
6.90694e-14
6.90302e-14
6.89916e-14
6.89525e-14
2.37606e-13
2.37745e-13
2.37884e-13
2.38026e-13
2.38166e-13
2.38302e-13
2.38432e-13
2.38556e-13
2.38674e-13
2.38785e-13
2.3889e-13
2.38988e-13
2.3908e-13
2.39166e-13
2.39245e-13
2.39319e-13
2.39386e-13
2.39449e-13
2.39505e-13
2.39556e-13
2.39602e-13
2.39643e-13
2.39679e-13
2.39711e-13
2.39737e-13
2.39759e-13
2.39777e-13
2.3979e-13
2.39798e-13
2.39803e-13
2.39803e-13
2.39798e-13
2.3979e-13
2.39777e-13
2.39759e-13
2.39737e-13
2.39711e-13
2.39679e-13
2.39643e-13
2.39602e-13
2.39556e-13
2.39505e-13
2.39449e-13
2.39386e-13
2.39319e-13
2.39245e-13
2.39166e-13
2.3908e-13
2.38988e-13
2.3889e-13
2.38785e-13
2.38674e-13
2.38556e-13
2.38432e-13
2.38302e-13
2.38166e-13
2.38026e-13
2.37884e-13
2.37745e-13
2.37606e-13
8.34104e-13
8.34609e-13
8.35116e-13
8.35636e-13
8.36149e-13
8.36648e-13
8.37126e-13
8.37581e-13
8.38013e-13
8.38421e-13
8.38804e-13
8.39164e-13
8.39501e-13
8.39814e-13
8.40106e-13
8.40375e-13
8.40623e-13
8.4085e-13
8.41057e-13
8.41245e-13
8.41413e-13
8.41563e-13
8.41695e-13
8.41809e-13
8.41907e-13
8.41987e-13
8.42051e-13
8.42099e-13
8.42131e-13
8.42147e-13
8.42147e-13
8.42131e-13
8.42099e-13
8.42051e-13
8.41987e-13
8.41907e-13
8.41809e-13
8.41695e-13
8.41563e-13
8.41413e-13
8.41245e-13
8.41057e-13
8.4085e-13
8.40623e-13
8.40375e-13
8.40106e-13
8.39814e-13
8.39501e-13
8.39164e-13
8.38804e-13
8.38421e-13
8.38013e-13
8.37581e-13
8.37126e-13
8.36648e-13
8.36149e-13
8.35636e-13
8.35116e-13
8.34609e-13
8.34104e-13
2.97819e-12
2.98004e-12
2.98193e-12
2.98386e-12
2.98577e-12
2.98762e-12
2.9894e-12
2.99109e-12
2.9927e-12
2.99421e-12
2.99564e-12
2.99697e-12
2.99823e-12
2.99939e-12
3.00047e-12
3.00147e-12
3.00239e-12
3.00324e-12
3.00401e-12
3.0047e-12
3.00533e-12
3.00588e-12
3.00637e-12
3.0068e-12
3.00716e-12
3.00746e-12
3.0077e-12
3.00787e-12
3.00799e-12
3.00805e-12
3.00805e-12
3.00799e-12
3.00787e-12
3.0077e-12
3.00746e-12
3.00716e-12
3.0068e-12
3.00637e-12
3.00588e-12
3.00533e-12
3.0047e-12
3.00401e-12
3.00324e-12
3.00239e-12
3.00147e-12
3.00047e-12
2.99939e-12
2.99823e-12
2.99697e-12
2.99564e-12
2.99421e-12
2.9927e-12
2.99109e-12
2.9894e-12
2.98762e-12
2.98577e-12
2.98386e-12
2.98193e-12
2.98004e-12
2.97819e-12
1.0795e-11
1.08019e-11
1.0809e-11
1.08163e-11
1.08235e-11
1.08304e-11
1.08371e-11
1.08435e-11
1.08495e-11
1.08552e-11
1.08606e-11
1.08656e-11
1.08703e-11
1.08747e-11
1.08788e-11
1.08825e-11
1.0886e-11
1.08892e-11
1.08921e-11
1.08947e-11
1.0897e-11
1.08991e-11
1.0901e-11
1.09026e-11
1.09039e-11
1.0905e-11
1.09059e-11
1.09066e-11
1.0907e-11
1.09073e-11
1.09073e-11
1.0907e-11
1.09066e-11
1.09059e-11
1.0905e-11
1.09039e-11
1.09026e-11
1.0901e-11
1.08991e-11
1.0897e-11
1.08947e-11
1.08921e-11
1.08892e-11
1.0886e-11
1.08825e-11
1.08788e-11
1.08747e-11
1.08703e-11
1.08656e-11
1.08606e-11
1.08552e-11
1.08495e-11
1.08435e-11
1.08371e-11
1.08304e-11
1.08235e-11
1.08163e-11
1.0809e-11
1.08019e-11
1.0795e-11
3.9632e-11
3.9658e-11
3.96848e-11
3.97124e-11
3.97397e-11
3.97662e-11
3.97916e-11
3.98158e-11
3.98388e-11
3.98604e-11
3.98808e-11
3.98999e-11
3.99177e-11
3.99343e-11
3.99498e-11
3.9964e-11
3.99772e-11
3.99892e-11
4.00001e-11
4.00101e-11
4.0019e-11
4.00269e-11
4.00339e-11
4.00399e-11
4.00451e-11
4.00493e-11
4.00527e-11
4.00552e-11
4.00569e-11
4.00577e-11
4.00577e-11
4.00569e-11
4.00552e-11
4.00527e-11
4.00493e-11
4.00451e-11
4.00399e-11
4.00339e-11
4.00269e-11
4.0019e-11
4.00101e-11
4.00001e-11
3.99892e-11
3.99772e-11
3.9964e-11
3.99498e-11
3.99343e-11
3.99177e-11
3.98999e-11
3.98808e-11
3.98604e-11
3.98388e-11
3.98158e-11
3.97916e-11
3.97662e-11
3.97397e-11
3.97124e-11
3.96848e-11
3.9658e-11
3.9632e-11
1.46975e-10
1.47074e-10
1.47176e-10
1.47282e-10
1.47387e-10
1.47488e-10
1.47585e-10
1.47678e-10
1.47765e-10
1.47848e-10
1.47926e-10
1.47999e-10
1.48067e-10
1.4813e-10
1.48189e-10
1.48244e-10
1.48294e-10
1.4834e-10
1.48382e-10
1.4842e-10
1.48454e-10
1.48484e-10
1.48511e-10
1.48534e-10
1.48553e-10
1.4857e-10
1.48582e-10
1.48592e-10
1.48598e-10
1.48602e-10
1.48602e-10
1.48598e-10
1.48592e-10
1.48582e-10
1.4857e-10
1.48553e-10
1.48534e-10
1.48511e-10
1.48484e-10
1.48454e-10
1.4842e-10
1.48382e-10
1.4834e-10
1.48294e-10
1.48244e-10
1.48189e-10
1.4813e-10
1.48067e-10
1.47999e-10
1.47926e-10
1.47848e-10
1.47765e-10
1.47678e-10
1.47585e-10
1.47488e-10
1.47387e-10
1.47282e-10
1.47176e-10
1.47074e-10
1.46975e-10
5.48836e-10
5.49212e-10
5.49605e-10
5.5001e-10
5.50411e-10
5.508e-10
5.51172e-10
5.51527e-10
5.51863e-10
5.52181e-10
5.52479e-10
5.52759e-10
5.5302e-10
5.53264e-10
5.53489e-10
5.53698e-10
5.5389e-10
5.54066e-10
5.54226e-10
5.54372e-10
5.54502e-10
5.54618e-10
5.5472e-10
5.54808e-10
5.54883e-10
5.54946e-10
5.54995e-10
5.55032e-10
5.55056e-10
5.55069e-10
5.55069e-10
5.55056e-10
5.55032e-10
5.54995e-10
5.54946e-10
5.54883e-10
5.54808e-10
5.5472e-10
5.54618e-10
5.54502e-10
5.54372e-10
5.54226e-10
5.54066e-10
5.5389e-10
5.53698e-10
5.53489e-10
5.53264e-10
5.5302e-10
5.52759e-10
5.52479e-10
5.52181e-10
5.51863e-10
5.51527e-10
5.51172e-10
5.508e-10
5.50411e-10
5.5001e-10
5.49605e-10
5.49212e-10
5.48836e-10
2.05605e-09
2.05748e-09
2.05899e-09
2.06054e-09
2.06208e-09
2.06357e-09
2.065e-09
2.06636e-09
2.06765e-09
2.06886e-09
2.07001e-09
2.07108e-09
2.07208e-09
2.07301e-09
2.07387e-09
2.07467e-09
2.07541e-09
2.07608e-09
2.0767e-09
2.07725e-09
2.07775e-09
2.07819e-09
2.07858e-09
2.07892e-09
2.07921e-09
2.07945e-09
2.07964e-09
2.07978e-09
2.07987e-09
2.07992e-09
2.07992e-09
2.07987e-09
2.07978e-09
2.07964e-09
2.07945e-09
2.07921e-09
2.07892e-09
2.07858e-09
2.07819e-09
2.07775e-09
2.07725e-09
2.0767e-09
2.07608e-09
2.07541e-09
2.07467e-09
2.07387e-09
2.07301e-09
2.07208e-09
2.07108e-09
2.07001e-09
2.06886e-09
2.06765e-09
2.06636e-09
2.065e-09
2.06357e-09
2.06208e-09
2.06054e-09
2.05899e-09
2.05748e-09
2.05605e-09
7.6941e-09
7.69952e-09
7.70528e-09
7.7112e-09
7.71706e-09
7.72274e-09
7.72819e-09
7.73337e-09
7.73828e-09
7.74291e-09
7.74726e-09
7.75134e-09
7.75515e-09
7.7587e-09
7.76199e-09
7.76504e-09
7.76784e-09
7.7704e-09
7.77274e-09
7.77485e-09
7.77675e-09
7.77844e-09
7.77992e-09
7.78121e-09
7.7823e-09
7.78321e-09
7.78393e-09
7.78446e-09
7.78482e-09
7.785e-09
7.785e-09
7.78482e-09
7.78446e-09
7.78393e-09
7.78321e-09
7.7823e-09
7.78121e-09
7.77992e-09
7.77844e-09
7.77675e-09
7.77485e-09
7.77274e-09
7.7704e-09
7.76784e-09
7.76504e-09
7.76199e-09
7.7587e-09
7.75515e-09
7.75134e-09
7.74726e-09
7.74291e-09
7.73828e-09
7.73337e-09
7.72819e-09
7.72274e-09
7.71706e-09
7.7112e-09
7.70528e-09
7.69952e-09
7.6941e-09
2.86201e-08
2.86405e-08
2.86622e-08
2.86846e-08
2.87067e-08
2.87281e-08
2.87486e-08
2.87682e-08
2.87867e-08
2.88041e-08
2.88205e-08
2.88359e-08
2.88502e-08
2.88636e-08
2.8876e-08
2.88875e-08
2.8898e-08
2.89077e-08
2.89165e-08
2.89244e-08
2.89316e-08
2.89379e-08
2.89435e-08
2.89483e-08
2.89525e-08
2.89559e-08
2.89586e-08
2.89606e-08
2.89619e-08
2.89626e-08
2.89626e-08
2.89619e-08
2.89606e-08
2.89586e-08
2.89559e-08
2.89525e-08
2.89483e-08
2.89435e-08
2.89379e-08
2.89316e-08
2.89244e-08
2.89165e-08
2.89077e-08
2.8898e-08
2.88875e-08
2.8876e-08
2.88636e-08
2.88502e-08
2.88359e-08
2.88205e-08
2.88041e-08
2.87867e-08
2.87682e-08
2.87486e-08
2.87281e-08
2.87067e-08
2.86846e-08
2.86622e-08
2.86405e-08
2.86201e-08
1.05226e-07
1.05301e-07
1.05382e-07
1.05465e-07
1.05547e-07
1.05626e-07
1.05702e-07
1.05775e-07
1.05843e-07
1.05908e-07
1.05969e-07
1.06026e-07
1.06079e-07
1.06128e-07
1.06174e-07
1.06216e-07
1.06256e-07
1.06291e-07
1.06324e-07
1.06353e-07
1.0638e-07
1.06403e-07
1.06424e-07
1.06442e-07
1.06457e-07
1.0647e-07
1.0648e-07
1.06487e-07
1.06492e-07
1.06495e-07
1.06495e-07
1.06492e-07
1.06487e-07
1.0648e-07
1.0647e-07
1.06457e-07
1.06442e-07
1.06424e-07
1.06403e-07
1.0638e-07
1.06353e-07
1.06324e-07
1.06291e-07
1.06256e-07
1.06216e-07
1.06174e-07
1.06128e-07
1.06079e-07
1.06026e-07
1.05969e-07
1.05908e-07
1.05843e-07
1.05775e-07
1.05702e-07
1.05626e-07
1.05547e-07
1.05465e-07
1.05382e-07
1.05301e-07
1.05226e-07
3.79943e-07
3.80216e-07
3.80508e-07
3.80808e-07
3.81105e-07
3.81392e-07
3.81667e-07
3.81929e-07
3.82177e-07
3.8241e-07
3.8263e-07
3.82836e-07
3.83028e-07
3.83207e-07
3.83372e-07
3.83526e-07
3.83667e-07
3.83796e-07
3.83913e-07
3.8402e-07
3.84115e-07
3.842e-07
3.84275e-07
3.84339e-07
3.84394e-07
3.8444e-07
3.84476e-07
3.84503e-07
3.84521e-07
3.8453e-07
3.8453e-07
3.84521e-07
3.84503e-07
3.84476e-07
3.8444e-07
3.84394e-07
3.84339e-07
3.84275e-07
3.842e-07
3.84115e-07
3.8402e-07
3.83913e-07
3.83796e-07
3.83667e-07
3.83526e-07
3.83372e-07
3.83207e-07
3.83028e-07
3.82836e-07
3.8263e-07
3.8241e-07
3.82177e-07
3.81929e-07
3.81667e-07
3.81392e-07
3.81105e-07
3.80808e-07
3.80508e-07
3.80216e-07
3.79943e-07
1.33749e-06
1.33844e-06
1.33947e-06
1.34052e-06
1.34156e-06
1.34257e-06
1.34353e-06
1.34445e-06
1.34531e-06
1.34613e-06
1.3469e-06
1.34762e-06
1.34829e-06
1.34892e-06
1.3495e-06
1.35003e-06
1.35053e-06
1.35098e-06
1.35139e-06
1.35176e-06
1.35209e-06
1.35239e-06
1.35265e-06
1.35288e-06
1.35307e-06
1.35323e-06
1.35336e-06
1.35345e-06
1.35351e-06
1.35354e-06
1.35354e-06
1.35351e-06
1.35345e-06
1.35336e-06
1.35323e-06
1.35307e-06
1.35288e-06
1.35265e-06
1.35239e-06
1.35209e-06
1.35176e-06
1.35139e-06
1.35098e-06
1.35053e-06
1.35003e-06
1.3495e-06
1.34892e-06
1.34829e-06
1.34762e-06
1.3469e-06
1.34613e-06
1.34531e-06
1.34445e-06
1.34353e-06
1.34257e-06
1.34156e-06
1.34052e-06
1.33947e-06
1.33844e-06
1.33749e-06
4.55254e-06
4.55577e-06
4.55922e-06
4.56276e-06
4.56625e-06
4.56963e-06
4.57286e-06
4.57593e-06
4.57884e-06
4.58159e-06
4.58416e-06
4.58658e-06
4.58883e-06
4.59093e-06
4.59288e-06
4.59467e-06
4.59633e-06
4.59784e-06
4.59922e-06
4.60046e-06
4.60158e-06
4.60258e-06
4.60345e-06
4.60421e-06
4.60486e-06
4.60539e-06
4.60581e-06
4.60613e-06
4.60634e-06
4.60644e-06
4.60644e-06
4.60634e-06
4.60613e-06
4.60581e-06
4.60539e-06
4.60486e-06
4.60421e-06
4.60345e-06
4.60258e-06
4.60158e-06
4.60046e-06
4.59922e-06
4.59784e-06
4.59633e-06
4.59467e-06
4.59288e-06
4.59093e-06
4.58883e-06
4.58658e-06
4.58416e-06
4.58159e-06
4.57884e-06
4.57593e-06
4.57286e-06
4.56963e-06
4.56625e-06
4.56276e-06
4.55922e-06
4.55577e-06
4.55254e-06
1.48447e-05
1.4855e-05
1.48661e-05
1.48773e-05
1.48885e-05
1.48992e-05
1.49095e-05
1.49193e-05
1.49285e-05
1.49373e-05
1.49455e-05
1.49532e-05
1.49603e-05
1.4967e-05
1.49732e-05
1.49789e-05
1.49842e-05
1.4989e-05
1.49934e-05
1.49973e-05
1.50009e-05
1.5004e-05
1.50068e-05
1.50092e-05
1.50113e-05
1.5013e-05
1.50143e-05
1.50153e-05
1.5016e-05
1.50163e-05
1.50163e-05
1.5016e-05
1.50153e-05
1.50143e-05
1.5013e-05
1.50113e-05
1.50092e-05
1.50068e-05
1.5004e-05
1.50009e-05
1.49973e-05
1.49934e-05
1.4989e-05
1.49842e-05
1.49789e-05
1.49732e-05
1.4967e-05
1.49603e-05
1.49532e-05
1.49455e-05
1.49373e-05
1.49285e-05
1.49193e-05
1.49095e-05
1.48992e-05
1.48885e-05
1.48773e-05
1.48661e-05
1.4855e-05
1.48447e-05
4.58878e-05
4.59189e-05
4.5952e-05
4.59858e-05
4.6019e-05
4.60511e-05
4.60817e-05
4.61109e-05
4.61385e-05
4.61645e-05
4.6189e-05
4.62119e-05
4.62332e-05
4.62531e-05
4.62716e-05
4.62886e-05
4.63043e-05
4.63186e-05
4.63316e-05
4.63435e-05
4.6354e-05
4.63635e-05
4.63718e-05
4.63789e-05
4.6385e-05
4.63901e-05
4.63941e-05
4.63971e-05
4.63991e-05
4.64001e-05
4.64001e-05
4.63991e-05
4.63971e-05
4.63941e-05
4.63901e-05
4.6385e-05
4.63789e-05
4.63718e-05
4.63635e-05
4.6354e-05
4.63435e-05
4.63316e-05
4.63186e-05
4.63043e-05
4.62886e-05
4.62716e-05
4.62531e-05
4.62332e-05
4.62119e-05
4.6189e-05
4.61645e-05
4.61385e-05
4.61109e-05
4.60817e-05
4.60511e-05
4.6019e-05
4.59858e-05
4.5952e-05
4.59189e-05
4.58878e-05
0.000132914
0.000133001
0.000133092
0.000133185
0.000133277
0.000133365
0.00013345
0.00013353
0.000133606
0.000133678
0.000133745
0.000133808
0.000133867
0.000133922
0.000133972
0.000134019
0.000134062
0.000134102
0.000134138
0.00013417
0.000134199
0.000134225
0.000134248
0.000134268
0.000134285
0.000134298
0.000134309
0.000134318
0.000134323
0.000134326
0.000134326
0.000134323
0.000134318
0.000134309
0.000134298
0.000134285
0.000134268
0.000134248
0.000134225
0.000134199
0.00013417
0.000134138
0.000134102
0.000134062
0.000134019
0.000133972
0.000133922
0.000133867
0.000133808
0.000133745
0.000133678
0.000133606
0.00013353
0.00013345
0.000133365