/*--------------------------------*- C++ -*----------------------------------*\
| =========                 |                                                 |
| \\      /  F ield         | foam-extend: Open Source CFD                    |
|  \\    /   O peration     | Version:     4.0                                |
|   \\  /    A nd           | Web:         http://www.foam-extend.org         |
|    \\/     M anipulation  |                                                 |
\*---------------------------------------------------------------------------*/
FoamFile
{
    version     2.0;
    format      ascii;
    class       volScalarField;
    location    "23";
    object      dC1;
}
// * * * * * * * * * * * * * * * * * * * * * * * * * * * * * * * * * * * * * //

dimensions      [0 -1 0 0 0 0 0];

internalField   nonuniform List<scalar> 
6960
(
4.4768e-14
4.34292e-14
4.35364e-14
4.58097e-14
4.49653e-14
4.56497e-14
4.35849e-14
4.43486e-14
4.54888e-14
4.47181e-14
4.53977e-14
4.46834e-14
4.432e-14
4.45009e-14
4.50109e-14
4.45954e-14
4.3957e-14
4.45724e-14
4.47671e-14
4.42988e-14
4.50044e-14
4.60682e-14
4.47047e-14
4.54727e-14
4.51154e-14
4.58591e-14
4.52099e-14
4.51804e-14
4.47667e-14
4.40485e-14
4.50044e-14
4.42194e-14
4.50386e-14
4.42814e-14
4.62343e-14
4.45551e-14
4.55664e-14
4.42688e-14
4.48847e-14
4.55551e-14
4.45147e-14
4.47272e-14
4.45186e-14
4.47533e-14
4.53322e-14
4.52273e-14
4.4428e-14
4.58839e-14
4.40598e-14
4.42112e-14
4.3964e-14
4.45802e-14
4.52984e-14
4.53795e-14
4.42242e-14
4.45768e-14
4.60079e-14
4.4575e-14
4.53079e-14
4.41513e-14
-6.89986e-16
-6.43582e-16
-6.14959e-16
-8.68229e-16
-7.62845e-16
-6.89119e-16
-7.3639e-16
-7.98406e-16
-8.20091e-16
-7.55038e-16
-7.26415e-16
-6.7741e-16
-7.11237e-16
-6.68736e-16
-6.5746e-16
-7.02129e-16
-7.43329e-16
-7.069e-16
-7.02129e-16
-5.62918e-16
-6.64399e-16
-8.12284e-16
-6.74374e-16
-7.35089e-16
-6.9042e-16
-7.91034e-16
-5.91541e-16
-7.66314e-16
-8.25728e-16
-7.2815e-16
-7.10803e-16
-6.65266e-16
-7.22512e-16
-7.44196e-16
-6.50088e-16
-6.0325e-16
-7.97105e-16
-7.66314e-16
-7.72386e-16
-7.02129e-16
-7.97105e-16
-6.88685e-16
-7.25548e-16
-6.98226e-16
-7.04298e-16
-7.79325e-16
-7.74988e-16
-7.24681e-16
-7.3986e-16
-6.15827e-16
-6.71772e-16
-8.45244e-16
-7.44196e-16
-6.77843e-16
-7.5764e-16
-7.29018e-16
-8.32667e-16
-6.76108e-16
-6.50088e-16
-6.57894e-16
-1.16335e-14
-1.15849e-14
-1.16239e-14
-1.1591e-14
-1.15311e-14
-1.16292e-14
-1.15958e-14
-1.16634e-14
-1.16179e-14
-1.15962e-14
-1.16378e-14
-1.15858e-14
-1.16339e-14
-1.15871e-14
-1.16465e-14
-1.16122e-14
-1.1607e-14
-1.15997e-14
-1.1627e-14
-1.16231e-14
-1.16296e-14
-1.16513e-14
-1.16075e-14
-1.1604e-14
-1.16148e-14
-1.15611e-14
-1.16482e-14
-1.16543e-14
-1.16018e-14
-1.162e-14
-1.16309e-14
-1.15884e-14
-1.16313e-14
-1.16157e-14
-1.16448e-14
-1.16309e-14
-1.15832e-14
-1.16209e-14
-1.15936e-14
-1.16391e-14
-1.15541e-14
-1.16105e-14
-1.15984e-14
-1.15663e-14
-1.16582e-14
-1.15723e-14
-1.16322e-14
-1.163e-14
-1.15823e-14
-1.16088e-14
-1.16469e-14
-1.15736e-14
-1.16617e-14
-1.16717e-14
-1.16417e-14
-1.15793e-14
-1.15949e-14
-1.16292e-14
-1.16296e-14
-1.16318e-14
-1.37659e-14
-1.37858e-14
-1.37854e-14
-1.37798e-14
-1.38045e-14
-1.38106e-14
-1.37984e-14
-1.37815e-14
-1.38119e-14
-1.37819e-14
-1.37746e-14
-1.37806e-14
-1.37954e-14
-1.38006e-14
-1.37694e-14
-1.38032e-14
-1.38006e-14
-1.37841e-14
-1.38132e-14
-1.37819e-14
-1.37607e-14
-1.37884e-14
-1.37967e-14
-1.3801e-14
-1.37624e-14
-1.37854e-14
-1.38058e-14
-1.38023e-14
-1.38062e-14
-1.37763e-14
-1.37733e-14
-1.3795e-14
-1.37793e-14
-1.37806e-14
-1.37884e-14
-1.37867e-14
-1.38071e-14
-1.37893e-14
-1.37724e-14
-1.3772e-14
-1.38127e-14
-1.37837e-14
-1.37928e-14
-1.38166e-14
-1.37728e-14
-1.38323e-14
-1.3801e-14
-1.37984e-14
-1.37837e-14
-1.38036e-14
-1.3778e-14
-1.37884e-14
-1.37806e-14
-1.37637e-14
-1.37967e-14
-1.37824e-14
-1.37871e-14
-1.38002e-14
-1.3785e-14
-1.3772e-14
-1.07787e-14
-1.07583e-14
-1.07748e-14
-1.07596e-14
-1.077e-14
-1.0764e-14
-1.0754e-14
-1.07605e-14
-1.07575e-14
-1.07644e-14
-1.07978e-14
-1.0764e-14
-1.07804e-14
-1.07622e-14
-1.07787e-14
-1.07787e-14
-1.07683e-14
-1.07705e-14
-1.07718e-14
-1.07726e-14
-1.07913e-14
-1.07917e-14
-1.07817e-14
-1.07614e-14
-1.07709e-14
-1.07514e-14
-1.07509e-14
-1.07514e-14
-1.07631e-14
-1.07839e-14
-1.07804e-14
-1.07804e-14
-1.07817e-14
-1.07865e-14
-1.07566e-14
-1.07761e-14
-1.07666e-14
-1.07765e-14
-1.07683e-14
-1.07683e-14
-1.07579e-14
-1.07657e-14
-1.07809e-14
-1.07731e-14
-1.07609e-14
-1.07657e-14
-1.07635e-14
-1.07635e-14
-1.07822e-14
-1.07583e-14
-1.07614e-14
-1.07804e-14
-1.07666e-14
-1.07718e-14
-1.07648e-14
-1.07748e-14
-1.07843e-14
-1.07648e-14
-1.07683e-14
-1.07653e-14
-6.53037e-15
-6.53557e-15
-6.52646e-15
-6.50912e-15
-6.52083e-15
-6.51822e-15
-6.52386e-15
-6.51996e-15
-6.52169e-15
-6.5282e-15
-6.51519e-15
-6.50565e-15
-6.51432e-15
-6.51822e-15
-6.52516e-15
-6.52429e-15
-6.53297e-15
-6.52386e-15
-6.51606e-15
-6.52733e-15
-6.52126e-15
-6.5308e-15
-6.53167e-15
-6.52863e-15
-6.52083e-15
-6.52603e-15
-6.5321e-15
-6.51692e-15
-6.51736e-15
-6.51042e-15
-6.51432e-15
-6.52213e-15
-6.52733e-15
-6.52039e-15
-6.52169e-15
-6.51909e-15
-6.5282e-15
-6.51822e-15
-6.54077e-15
-6.51215e-15
-6.5269e-15
-6.51866e-15
-6.52256e-15
-6.52603e-15
-6.51866e-15
-6.51475e-15
-6.52256e-15
-6.51866e-15
-6.52429e-15
-6.52646e-15
-6.52603e-15
-6.5256e-15
-6.51215e-15
-6.51519e-15
-6.53167e-15
-6.51432e-15
-6.51562e-15
-6.51736e-15
-6.52473e-15
-6.53123e-15
-3.30725e-15
-3.30161e-15
-3.30118e-15
-3.30421e-15
-3.29337e-15
-3.29641e-15
-3.28773e-15
-3.30552e-15
-3.29641e-15
-3.29337e-15
-3.30899e-15
-3.30031e-15
-3.29554e-15
-3.29467e-15
-3.29511e-15
-3.27819e-15
-3.28904e-15
-3.29814e-15
-3.30335e-15
-3.28643e-15
-3.29467e-15
-3.29511e-15
-3.29554e-15
-3.29728e-15
-3.29034e-15
-3.29554e-15
-3.29814e-15
-3.30248e-15
-3.30378e-15
-3.29988e-15
-3.29424e-15
-3.30291e-15
-3.27559e-15
-3.27906e-15
-3.29554e-15
-3.29814e-15
-3.30595e-15
-3.30291e-15
-3.29554e-15
-3.31462e-15
-3.29901e-15
-3.30421e-15
-3.29684e-15
-3.29554e-15
-3.30161e-15
-3.29467e-15
-3.28904e-15
-3.2886e-15
-3.28687e-15
-3.29034e-15
-3.29164e-15
-3.28123e-15
-3.30075e-15
-3.30205e-15
-3.30335e-15
-3.30855e-15
-3.29988e-15
-3.31376e-15
-3.29337e-15
-3.28383e-15
-1.58814e-15
-1.5825e-15
-1.5825e-15
-1.59768e-15
-1.59681e-15
-1.60028e-15
-1.59942e-15
-1.60202e-15
-1.58727e-15
-1.60072e-15
-1.57296e-15
-1.59204e-15
-1.60592e-15
-1.60722e-15
-1.60896e-15
-1.61286e-15
-1.59161e-15
-1.60028e-15
-1.58944e-15
-1.59898e-15
-1.59421e-15
-1.6185e-15
-1.58987e-15
-1.59161e-15
-1.60115e-15
-1.58424e-15
-1.59074e-15
-1.59985e-15
-1.60462e-15
-1.59855e-15
-1.61329e-15
-1.58597e-15
-1.60505e-15
-1.62544e-15
-1.59508e-15
-1.59378e-15
-1.59334e-15
-1.58814e-15
-1.60462e-15
-1.58814e-15
-1.58901e-15
-1.5799e-15
-1.60419e-15
-1.59942e-15
-1.60809e-15
-1.60028e-15
-1.59725e-15
-1.61069e-15
-1.59334e-15
-1.60982e-15
-1.61589e-15
-1.61893e-15
-1.59291e-15
-1.59985e-15
-1.56646e-15
-1.59551e-15
-1.60852e-15
-1.59204e-15
-1.58684e-15
-1.62327e-15
-1.10892e-15
-1.11499e-15
-1.1215e-15
-1.12627e-15
-1.13061e-15
-1.11152e-15
-1.1228e-15
-1.10155e-15
-1.09981e-15
-1.14101e-15
-1.14145e-15
-1.12107e-15
-1.09244e-15
-1.11239e-15
-1.10675e-15
-1.10632e-15
-1.13191e-15
-1.09765e-15
-1.11673e-15
-1.12584e-15
-1.11499e-15
-1.10112e-15
-1.11629e-15
-1.11976e-15
-1.10805e-15
-1.13624e-15
-1.14145e-15
-1.12367e-15
-1.10415e-15
-1.12497e-15
-1.11413e-15
-1.13408e-15
-1.1228e-15
-1.09201e-15
-1.12497e-15
-1.14318e-15
-1.11283e-15
-1.1189e-15
-1.11673e-15
-1.12367e-15
-1.12323e-15
-1.12453e-15
-1.1189e-15
-1.11673e-15
-1.08594e-15
-1.12714e-15
-1.11369e-15
-1.09071e-15
-1.11629e-15
-1.09851e-15
-1.10632e-15
-1.0868e-15
-1.09418e-15
-1.10285e-15
-1.13885e-15
-1.11456e-15
-1.10805e-15
-1.10805e-15
-1.128e-15
-1.09071e-15
-1.45717e-15
-1.4511e-15
-1.45066e-15
-1.44069e-15
-1.4086e-15
-1.43939e-15
-1.42204e-15
-1.44763e-15
-1.44806e-15
-1.41467e-15
-1.41553e-15
-1.43375e-15
-1.46541e-15
-1.43375e-15
-1.43462e-15
-1.44719e-15
-1.42898e-15
-1.4151e-15
-1.44416e-15
-1.41987e-15
-1.44589e-15
-1.43809e-15
-1.42508e-15
-1.43939e-15
-1.43678e-15
-1.42898e-15
-1.41076e-15
-1.41423e-15
-1.45673e-15
-1.43375e-15
-1.44893e-15
-1.42811e-15
-1.4086e-15
-1.43592e-15
-1.43028e-15
-1.42161e-15
-1.46497e-15
-1.44069e-15
-1.42464e-15
-1.44719e-15
-1.42247e-15
-1.46497e-15
-1.44633e-15
-1.43982e-15
-1.47495e-15
-1.43462e-15
-1.44893e-15
-1.45587e-15
-1.43939e-15
-1.44719e-15
-1.44849e-15
-1.45543e-15
-1.44589e-15
-1.44893e-15
-1.43115e-15
-1.44849e-15
-1.43028e-15
-1.43852e-15
-1.43332e-15
-1.43201e-15
-2.33277e-15
-2.32106e-15
-2.328e-15
-2.31369e-15
-2.35532e-15
-2.34058e-15
-2.34274e-15
-2.31716e-15
-2.3345e-15
-2.36183e-15
-2.34188e-15
-2.33884e-15
-2.31282e-15
-2.31716e-15
-2.34578e-15
-2.33754e-15
-2.32453e-15
-2.34188e-15
-2.33017e-15
-2.34144e-15
-2.33234e-15
-2.35315e-15
-2.34795e-15
-2.34535e-15
-2.32713e-15
-2.34491e-15
-2.36269e-15
-2.33884e-15
-2.32279e-15
-2.31586e-15
-2.31802e-15
-2.3241e-15
-2.34708e-15
-2.34448e-15
-2.34578e-15
-2.32973e-15
-2.31109e-15
-2.31889e-15
-2.34101e-15
-2.32757e-15
-2.33971e-15
-2.33754e-15
-2.33364e-15
-2.32453e-15
-2.30545e-15
-2.34665e-15
-2.34448e-15
-2.33234e-15
-2.32279e-15
-2.31846e-15
-2.3293e-15
-2.3345e-15
-2.30978e-15
-2.32973e-15
-2.34535e-15
-2.30892e-15
-2.33841e-15
-2.34491e-15
-2.32106e-15
-2.34405e-15
-3.92178e-15
-3.93088e-15
-3.89749e-15
-3.90053e-15
-3.9105e-15
-3.89879e-15
-3.91484e-15
-3.90443e-15
-3.90443e-15
-3.89098e-15
-3.89098e-15
-3.90833e-15
-3.91267e-15
-3.93392e-15
-3.90096e-15
-3.93305e-15
-3.93392e-15
-3.9105e-15
-3.93479e-15
-3.92481e-15
-3.91484e-15
-3.87364e-15
-3.87624e-15
-3.89662e-15
-3.91614e-15
-3.9053e-15
-3.90009e-15
-3.90616e-15
-3.89879e-15
-3.904e-15
-3.91007e-15
-3.93565e-15
-3.89098e-15
-3.90963e-15
-3.91701e-15
-3.89489e-15
-3.9157e-15
-3.92134e-15
-3.91614e-15
-3.91961e-15
-3.87147e-15
-3.92394e-15
-3.93652e-15
-3.9066e-15
-3.91787e-15
-3.92134e-15
-3.92004e-15
-3.92438e-15
-3.90226e-15
-3.90833e-15
-3.91874e-15
-3.92091e-15
-3.92481e-15
-3.90486e-15
-3.9144e-15
-3.94563e-15
-3.92308e-15
-3.89359e-15
-3.92178e-15
-3.90443e-15
-6.55335e-15
-6.55422e-15
-6.54598e-15
-6.56723e-15
-6.5269e-15
-6.57373e-15
-6.52083e-15
-6.56419e-15
-6.52299e-15
-6.60322e-15
-6.55162e-15
-6.55639e-15
-6.53861e-15
-6.54251e-15
-6.52473e-15
-6.5256e-15
-6.51909e-15
-6.54294e-15
-6.51952e-15
-6.56549e-15
-6.56506e-15
-6.58414e-15
-6.60019e-15
-6.55812e-15
-6.55942e-15
-6.52126e-15
-6.53384e-15
-6.54468e-15
-6.55856e-15
-6.5759e-15
-6.57677e-15
-6.54468e-15
-6.54771e-15
-6.51475e-15
-6.51952e-15
-6.54511e-15
-6.54988e-15
-6.51822e-15
-6.56766e-15
-6.53384e-15
-6.5759e-15
-6.49047e-15
-6.53514e-15
-6.53297e-15
-6.5256e-15
-6.53731e-15
-6.54511e-15
-6.57937e-15
-6.56203e-15
-6.53297e-15
-6.51996e-15
-6.5733e-15
-6.51952e-15
-6.54077e-15
-6.55725e-15
-6.49524e-15
-6.54901e-15
-6.56419e-15
-6.54381e-15
-6.57547e-15
-1.0849e-14
-1.08412e-14
-1.08793e-14
-1.08529e-14
-1.0898e-14
-1.07956e-14
-1.08767e-14
-1.08706e-14
-1.09053e-14
-1.08208e-14
-1.0862e-14
-1.08706e-14
-1.08516e-14
-1.08199e-14
-1.08806e-14
-1.08689e-14
-1.0891e-14
-1.08767e-14
-1.08785e-14
-1.08112e-14
-1.08403e-14
-1.08364e-14
-1.08104e-14
-1.08386e-14
-1.08524e-14
-1.08815e-14
-1.08459e-14
-1.08537e-14
-1.08364e-14
-1.08381e-14
-1.07744e-14
-1.0862e-14
-1.08602e-14
-1.08706e-14
-1.08607e-14
-1.08663e-14
-1.08706e-14
-1.08858e-14
-1.08212e-14
-1.08776e-14
-1.08646e-14
-1.09092e-14
-1.0862e-14
-1.0898e-14
-1.08889e-14
-1.08967e-14
-1.08936e-14
-1.08294e-14
-1.0803e-14
-1.08832e-14
-1.08685e-14
-1.0842e-14
-1.08771e-14
-1.08659e-14
-1.08268e-14
-1.09045e-14
-1.08355e-14
-1.08264e-14
-1.0875e-14
-1.08199e-14
-1.66612e-14
-1.66425e-14
-1.66265e-14
-1.66195e-14
-1.66273e-14
-1.66555e-14
-1.66572e-14
-1.66243e-14
-1.66173e-14
-1.66434e-14
-1.66356e-14
-1.66052e-14
-1.66434e-14
-1.66338e-14
-1.66026e-14
-1.66633e-14
-1.66143e-14
-1.65844e-14
-1.66278e-14
-1.66976e-14
-1.66321e-14
-1.66256e-14
-1.66759e-14
-1.66481e-14
-1.66e-14
-1.65909e-14
-1.66494e-14
-1.66113e-14
-1.6662e-14
-1.66729e-14
-1.66984e-14
-1.66265e-14
-1.66507e-14
-1.66286e-14
-1.6695e-14
-1.66204e-14
-1.65922e-14
-1.6613e-14
-1.66568e-14
-1.6633e-14
-1.66373e-14
-1.66126e-14
-1.661e-14
-1.66069e-14
-1.66308e-14
-1.66178e-14
-1.65796e-14
-1.66538e-14
-1.66789e-14
-1.6639e-14
-1.66538e-14
-1.66507e-14
-1.66104e-14
-1.66651e-14
-1.66143e-14
-1.66e-14
-1.66486e-14
-1.66273e-14
-1.66269e-14
-1.6646e-14
-2.02403e-14
-2.02681e-14
-2.02559e-14
-2.02594e-14
-2.02663e-14
-2.02893e-14
-2.02603e-14
-2.02663e-14
-2.02434e-14
-2.0246e-14
-2.02178e-14
-2.0246e-14
-2.02572e-14
-2.02663e-14
-2.02754e-14
-2.02538e-14
-2.03132e-14
-2.02711e-14
-2.02724e-14
-2.02238e-14
-2.02685e-14
-2.03153e-14
-2.02685e-14
-2.0285e-14
-2.02681e-14
-2.02867e-14
-2.02447e-14
-2.02863e-14
-2.02104e-14
-2.02659e-14
-2.02074e-14
-2.02464e-14
-2.02386e-14
-2.02663e-14
-2.02321e-14
-2.02807e-14
-2.03201e-14
-2.02859e-14
-2.02113e-14
-2.02564e-14
-2.02577e-14
-2.02642e-14
-2.02915e-14
-2.02876e-14
-2.0226e-14
-2.02672e-14
-2.02728e-14
-2.02516e-14
-2.02e-14
-2.02256e-14
-2.02195e-14
-2.02373e-14
-2.03093e-14
-2.02334e-14
-2.02789e-14
-2.02598e-14
-2.0282e-14
-2.02707e-14
-2.02624e-14
-2.02655e-14
-1.21205e-14
-1.21153e-14
-1.2081e-14
-1.20945e-14
-1.20702e-14
-1.21175e-14
-1.21166e-14
-1.2117e-14
-1.21517e-14
-1.21066e-14
-1.21175e-14
-1.2078e-14
-1.2101e-14
-1.20984e-14
-1.20893e-14
-1.20537e-14
-1.20784e-14
-1.20949e-14
-1.20932e-14
-1.21183e-14
-1.20628e-14
-1.20607e-14
-1.20637e-14
-1.20711e-14
-1.21118e-14
-1.20893e-14
-1.21275e-14
-1.20871e-14
-1.21335e-14
-1.20893e-14
-1.21474e-14
-1.21409e-14
-1.20841e-14
-1.20884e-14
-1.20784e-14
-1.20789e-14
-1.20455e-14
-1.20971e-14
-1.21556e-14
-1.20754e-14
-1.21131e-14
-1.20993e-14
-1.21175e-14
-1.20359e-14
-1.21461e-14
-1.2104e-14
-1.21084e-14
-1.21327e-14
-1.21734e-14
-1.21348e-14
-1.21183e-14
-1.21292e-14
-1.20732e-14
-1.20841e-14
-1.20954e-14
-1.21235e-14
-1.20368e-14
-1.20928e-14
-1.21049e-14
-1.20659e-14
1.62873e-14
1.62322e-14
1.62283e-14
1.62825e-14
1.62669e-14
1.63103e-14
1.63042e-14
1.62639e-14
1.62804e-14
1.62964e-14
1.62734e-14
1.62188e-14
1.62769e-14
1.62535e-14
1.62834e-14
1.62505e-14
1.62622e-14
1.62344e-14
1.62613e-14
1.62656e-14
1.62171e-14
1.62843e-14
1.62444e-14
1.62444e-14
1.62318e-14
1.62188e-14
1.63233e-14
1.63177e-14
1.62743e-14
1.62769e-14
1.63142e-14
1.62977e-14
1.62396e-14
1.62721e-14
1.62522e-14
1.62153e-14
1.62509e-14
1.62557e-14
1.6299e-14
1.62431e-14
1.62639e-14
1.62522e-14
1.62856e-14
1.62591e-14
1.6293e-14
1.63099e-14
1.62882e-14
1.63142e-14
1.63129e-14
1.62852e-14
1.62552e-14
1.63125e-14
1.62617e-14
1.62487e-14
1.62895e-14
1.62622e-14
1.62583e-14
1.62422e-14
1.62344e-14
1.62886e-14
4.49168e-14
4.49766e-14
4.5023e-14
4.48998e-14
4.49619e-14
4.48799e-14
4.49332e-14
4.49679e-14
4.4948e-14
4.4928e-14
4.49237e-14
4.49783e-14
4.49324e-14
4.49423e-14
4.49506e-14
4.49471e-14
4.49948e-14
4.49892e-14
4.49701e-14
4.4964e-14
4.49866e-14
4.49623e-14
4.49224e-14
4.49623e-14
4.49627e-14
4.49688e-14
4.48556e-14
4.49137e-14
4.49614e-14
4.49254e-14
4.49259e-14
4.49081e-14
4.49237e-14
4.49484e-14
4.49341e-14
4.49311e-14
4.49371e-14
4.49415e-14
4.49298e-14
4.49857e-14
4.49389e-14
4.49736e-14
4.4941e-14
4.49653e-14
4.4971e-14
4.49003e-14
4.49541e-14
4.49254e-14
4.49272e-14
4.49844e-14
4.49276e-14
4.49749e-14
4.49645e-14
4.49371e-14
4.49107e-14
4.49562e-14
4.49133e-14
4.50295e-14
4.49987e-14
4.49285e-14
1.26964e-14
1.26218e-14
1.25772e-14
1.26908e-14
1.26357e-14
1.26847e-14
1.26084e-14
1.26236e-14
1.26305e-14
1.26366e-14
1.26275e-14
1.26557e-14
1.25928e-14
1.26457e-14
1.26492e-14
1.26735e-14
1.25906e-14
1.26097e-14
1.26461e-14
1.26179e-14
1.26323e-14
1.26353e-14
1.26735e-14
1.26028e-14
1.26895e-14
1.26375e-14
1.27212e-14
1.25976e-14
1.25885e-14
1.268e-14
1.26643e-14
1.26817e-14
1.26782e-14
1.2637e-14
1.26696e-14
1.26175e-14
1.26839e-14
1.26461e-14
1.26882e-14
1.25785e-14
1.26271e-14
1.26292e-14
1.26409e-14
1.25767e-14
1.2631e-14
1.25932e-14
1.26214e-14
1.25698e-14
1.26353e-14
1.2588e-14
1.26245e-14
1.25512e-14
1.26127e-14
1.2634e-14
1.27238e-14
1.26839e-14
1.26505e-14
1.25911e-14
1.25963e-14
1.26691e-14
-1.07123e-13
-1.07147e-13
-1.0711e-13
-1.07132e-13
-1.07087e-13
-1.0713e-13
-1.07059e-13
-1.07169e-13
-1.07104e-13
-1.07085e-13
-1.07149e-13
-1.07139e-13
-1.07097e-13
-1.07136e-13
-1.07067e-13
-1.07164e-13
-1.07177e-13
-1.07156e-13
-1.07155e-13
-1.07126e-13
-1.07069e-13
-1.07124e-13
-1.07139e-13
-1.07088e-13
-1.07117e-13
-1.07116e-13
-1.07131e-13
-1.07025e-13
-1.07105e-13
-1.0719e-13
-1.07107e-13
-1.07144e-13
-1.07151e-13
-1.07095e-13
-1.07192e-13
-1.07116e-13
-1.07146e-13
-1.07133e-13
-1.07203e-13
-1.07125e-13
-1.07131e-13
-1.07124e-13
-1.07144e-13
-1.07141e-13
-1.07175e-13
-1.07056e-13
-1.07141e-13
-1.06973e-13
-1.07133e-13
-1.07114e-13
-1.07073e-13
-1.0709e-13
-1.0721e-13
-1.07103e-13
-1.07182e-13
-1.07186e-13
-1.07091e-13
-1.07149e-13
-1.07155e-13
-1.0713e-13
-2.08551e-13
-2.08377e-13
-2.08497e-13
-2.08485e-13
-2.08527e-13
-2.08472e-13
-2.08557e-13
-2.08499e-13
-2.08527e-13
-2.0861e-13
-2.08472e-13
-2.08525e-13
-2.08488e-13
-2.0837e-13
-2.08557e-13
-2.0849e-13
-2.08419e-13
-2.08509e-13
-2.0856e-13
-2.08608e-13
-2.08578e-13
-2.08487e-13
-2.08523e-13
-2.08446e-13
-2.08518e-13
-2.08576e-13
-2.08617e-13
-2.08587e-13
-2.08515e-13
-2.08457e-13
-2.08502e-13
-2.08458e-13
-2.08467e-13
-2.08674e-13
-2.08448e-13
-2.08544e-13
-2.08546e-13
-2.08374e-13
-2.08465e-13
-2.08463e-13
-2.08405e-13
-2.08619e-13
-2.08423e-13
-2.0845e-13
-2.08532e-13
-2.08614e-13
-2.08476e-13
-2.08544e-13
-2.0841e-13
-2.08524e-13
-2.08573e-13
-2.08521e-13
-2.08407e-13
-2.08478e-13
-2.08508e-13
-2.08439e-13
-2.08608e-13
-2.08388e-13
-2.08415e-13
-2.08522e-13
-1.57798e-13
-1.58023e-13
-1.57885e-13
-1.57805e-13
-1.57853e-13
-1.57868e-13
-1.57854e-13
-1.57822e-13
-1.57793e-13
-1.57812e-13
-1.57846e-13
-1.57885e-13
-1.57848e-13
-1.57986e-13
-1.57878e-13
-1.57894e-13
-1.57875e-13
-1.57866e-13
-1.57738e-13
-1.57748e-13
-1.57836e-13
-1.57805e-13
-1.57796e-13
-1.58018e-13
-1.57813e-13
-1.57717e-13
-1.5775e-13
-1.57846e-13
-1.578e-13
-1.57934e-13
-1.57898e-13
-1.5801e-13
-1.57915e-13
-1.57809e-13
-1.57865e-13
-1.57802e-13
-1.57723e-13
-1.57972e-13
-1.57913e-13
-1.57899e-13
-1.57985e-13
-1.57692e-13
-1.58068e-13
-1.57868e-13
-1.5787e-13
-1.57686e-13
-1.57843e-13
-1.57963e-13
-1.58002e-13
-1.57832e-13
-1.57926e-13
-1.57839e-13
-1.57966e-13
-1.57919e-13
-1.57778e-13
-1.57862e-13
-1.57787e-13
-1.5794e-13
-1.58019e-13
-1.57869e-13
4.6547e-15
4.6625e-15
4.67465e-15
4.51679e-15
4.61523e-15
4.50898e-15
4.64949e-15
4.59919e-15
4.48469e-15
4.78263e-15
4.63778e-15
4.69546e-15
4.5723e-15
4.73493e-15
4.65643e-15
4.65079e-15
4.55278e-15
4.71585e-15
4.51028e-15
4.71194e-15
4.57056e-15
4.51852e-15
4.5788e-15
4.89019e-15
4.56709e-15
4.41487e-15
4.52936e-15
4.62434e-15
4.5285e-15
4.66424e-15
4.61306e-15
4.7822e-15
4.75921e-15
4.67595e-15
4.64082e-15
4.71108e-15
4.51505e-15
4.55582e-15
4.71975e-15
4.69286e-15
4.61436e-15
4.56276e-15
4.82253e-15
4.57924e-15
4.68809e-15
4.52416e-15
4.59919e-15
4.77309e-15
4.72582e-15
4.6534e-15
4.78697e-15
4.53023e-15
4.63215e-15
4.64342e-15
4.56926e-15
4.51288e-15
4.62998e-15
4.59615e-15
4.71628e-15
4.64863e-15
1.26192e-13
1.26441e-13
1.26235e-13
1.26379e-13
1.26424e-13
1.26546e-13
1.26392e-13
1.26266e-13
1.26505e-13
1.26199e-13
1.2637e-13
1.26297e-13
1.26323e-13
1.26296e-13
1.26302e-13
1.26483e-13
1.26526e-13
1.26161e-13
1.26402e-13
1.26125e-13
1.2655e-13
1.26476e-13
1.26399e-13
1.26204e-13
1.26409e-13
1.26512e-13
1.26368e-13
1.26331e-13
1.26364e-13
1.2648e-13
1.2636e-13
1.26254e-13
1.26207e-13
1.263e-13
1.26258e-13
1.26255e-13
1.26356e-13
1.26464e-13
1.2612e-13
1.26326e-13
1.26506e-13
1.26373e-13
1.26264e-13
1.26365e-13
1.26345e-13
1.2647e-13
1.2637e-13
1.26255e-13
1.26271e-13
1.26406e-13
1.2625e-13
1.26484e-13
1.26302e-13
1.26356e-13
1.26343e-13
1.26581e-13
1.26353e-13
1.26261e-13
1.26303e-13
1.26381e-13
1.44392e-13
1.44216e-13
1.44371e-13
1.44266e-13
1.44185e-13
1.44344e-13
1.44264e-13
1.4432e-13
1.44223e-13
1.44264e-13
1.44219e-13
1.44478e-13
1.44365e-13
1.44339e-13
1.44398e-13
1.4408e-13
1.4432e-13
1.44621e-13
1.44266e-13
1.44374e-13
1.4427e-13
1.44345e-13
1.44371e-13
1.44373e-13
1.44122e-13
1.44227e-13
1.44329e-13
1.44413e-13
1.44205e-13
1.44311e-13
1.4429e-13
1.44317e-13
1.44319e-13
1.4436e-13
1.44332e-13
1.44335e-13
1.44462e-13
1.44333e-13
1.44565e-13
1.4441e-13
1.4427e-13
1.44329e-13
1.44426e-13
1.4438e-13
1.44334e-13
1.44327e-13
1.44222e-13
1.44391e-13
1.44327e-13
1.4417e-13
1.44327e-13
1.44318e-13
1.44386e-13
1.4432e-13
1.44298e-13
1.44242e-13
1.44263e-13
1.44539e-13
1.44329e-13
1.44181e-13
1.03491e-13
1.0373e-13
1.03632e-13
1.03588e-13
1.03721e-13
1.03453e-13
1.03729e-13
1.03622e-13
1.03703e-13
1.03607e-13
1.03688e-13
1.03419e-13
1.03627e-13
1.03616e-13
1.034e-13
1.03748e-13
1.0335e-13
1.0322e-13
1.03738e-13
1.03549e-13
1.03527e-13
1.0347e-13
1.03612e-13
1.03581e-13
1.038e-13
1.03636e-13
1.03486e-13
1.03519e-13
1.03784e-13
1.03634e-13
1.03726e-13
1.03764e-13
1.03544e-13
1.0354e-13
1.03449e-13
1.03635e-13
1.0359e-13
1.03533e-13
1.03436e-13
1.03472e-13
1.03668e-13
1.03516e-13
1.03444e-13
1.03505e-13
1.03502e-13
1.03558e-13
1.03638e-13
1.03532e-13
1.03692e-13
1.03653e-13
1.03661e-13
1.03598e-13
1.03647e-13
1.03515e-13
1.03694e-13
1.03646e-13
1.03628e-13
1.03337e-13
1.03486e-13
1.03807e-13
5.84272e-14
5.84532e-14
5.819e-14
5.83804e-14
5.85127e-14
5.84953e-14
5.82577e-14
5.82871e-14
5.8102e-14
5.84294e-14
5.84316e-14
5.84758e-14
5.82152e-14
5.83973e-14
5.8746e-14
5.83366e-14
5.87013e-14
5.87486e-14
5.82629e-14
5.85088e-14
5.86302e-14
5.84858e-14
5.84667e-14
5.82616e-14
5.8242e-14
5.84689e-14
5.84281e-14
5.83843e-14
5.82737e-14
5.83873e-14
5.82459e-14
5.82993e-14
5.84602e-14
5.84402e-14
5.85001e-14
5.83526e-14
5.82533e-14
5.85669e-14
5.84333e-14
5.84251e-14
5.83136e-14
5.85075e-14
5.85408e-14
5.84563e-14
5.838e-14
5.83691e-14
5.85526e-14
5.8422e-14
5.82659e-14
5.84515e-14
5.82338e-14
5.83466e-14
5.82047e-14
5.83184e-14
5.8422e-14
5.83964e-14
5.82737e-14
5.8579e-14
5.84454e-14
5.8226e-14
2.85154e-14
2.84742e-14
2.89304e-14
2.86824e-14
2.84907e-14
2.84794e-14
2.86268e-14
2.88033e-14
2.88224e-14
2.85644e-14
2.8508e-14
2.85653e-14
2.8806e-14
2.86021e-14
2.84616e-14
2.85713e-14
2.83866e-14
2.84872e-14
2.87387e-14
2.83966e-14
2.84573e-14
2.86429e-14
2.85813e-14
2.87257e-14
2.87864e-14
2.87461e-14
2.85822e-14
2.88485e-14
2.86242e-14
2.84677e-14
2.87071e-14
2.85336e-14
2.87084e-14
2.85609e-14
2.84725e-14
2.86442e-14
2.88576e-14
2.84915e-14
2.85748e-14
2.84729e-14
2.87847e-14
2.85622e-14
2.86147e-14
2.85752e-14
2.87769e-14
2.84378e-14
2.84412e-14
2.84681e-14
2.86086e-14
2.85557e-14
2.87886e-14
2.86693e-14
2.88493e-14
2.8727e-14
2.83619e-14
2.86125e-14
2.88116e-14
2.84967e-14
2.86316e-14
2.85032e-14
1.2856e-14
1.25919e-14
1.26505e-14
1.26856e-14
1.2853e-14
1.28088e-14
1.28404e-14
1.27355e-14
1.26518e-14
1.28959e-14
1.28291e-14
1.26804e-14
1.2719e-14
1.28669e-14
1.23812e-14
1.2608e-14
1.29935e-14
1.27355e-14
1.26748e-14
1.28057e-14
1.25928e-14
1.27116e-14
1.26912e-14
1.27476e-14
1.24336e-14
1.2441e-14
1.27515e-14
1.25633e-14
1.27207e-14
1.28647e-14
1.24536e-14
1.28001e-14
1.26271e-14
1.25963e-14
1.30161e-14
1.24861e-14
1.27498e-14
1.30521e-14
1.28552e-14
1.27485e-14
1.25447e-14
1.27368e-14
1.23382e-14
1.28552e-14
1.23005e-14
1.31019e-14
1.28495e-14
1.27576e-14
1.26882e-14
1.27125e-14
1.26084e-14
1.28491e-14
1.28001e-14
1.26401e-14
1.2905e-14
1.27945e-14
1.26314e-14
1.28842e-14
1.26487e-14
1.29467e-14
5.18899e-15
5.12437e-15
5.18682e-15
5.1157e-15
4.94396e-15
4.96174e-15
5.18119e-15
4.7887e-15
5.09662e-15
4.99514e-15
5.05629e-15
5.2818e-15
5.00728e-15
4.75618e-15
5.22412e-15
5.28353e-15
4.87978e-15
4.90016e-15
4.97258e-15
5.22499e-15
5.44703e-15
5.17598e-15
5.29915e-15
4.84291e-15
5.27529e-15
5.372e-15
5.19116e-15
5.43576e-15
5.12134e-15
5.09748e-15
5.30392e-15
5.01205e-15
4.96868e-15
5.33644e-15
4.80995e-15
5.29308e-15
4.84812e-15
4.75227e-15
4.73276e-15
5.238e-15
5.18119e-15
5.03547e-15
5.50731e-15
4.89452e-15
5.58147e-15
4.79217e-15
4.82296e-15
5.33991e-15
5.05932e-15
4.99774e-15
5.18509e-15
4.80649e-15
4.95003e-15
5.16687e-15
5.05151e-15
4.80562e-15
4.96261e-15
5.03937e-15
5.24103e-15
5.18726e-15
1.30408e-15
1.86266e-15
1.37564e-15
1.68919e-15
1.52742e-15
1.76031e-15
1.53263e-15
1.78677e-15
1.69829e-15
1.53089e-15
1.60115e-15
1.46584e-15
1.78156e-15
1.81626e-15
1.70957e-15
1.64018e-15
1.85919e-15
1.76118e-15
1.85268e-15
1.50921e-15
1.49099e-15
1.50097e-15
1.54824e-15
1.79717e-15
1.80541e-15
1.48319e-15
1.44763e-15
1.4988e-15
1.55041e-15
1.41467e-15
1.80845e-15
1.6198e-15
1.7846e-15
1.73169e-15
1.55605e-15
1.25637e-15
1.80541e-15
1.69352e-15
1.99623e-15
1.4988e-15
1.73169e-15
1.71e-15
1.40122e-15
1.72692e-15
1.47929e-15
1.93422e-15
1.66924e-15
1.33574e-15
1.77679e-15
1.51441e-15
1.56515e-15
1.63888e-15
1.57816e-15
1.52092e-15
1.39168e-15
1.84488e-15
2.09685e-15
1.7499e-15
1.36436e-15
1.34224e-15
1.9082e-17
1.48753e-16
2.05998e-16
5.68122e-17
3.69496e-16
-7.89299e-17
3.98119e-16
-1.47451e-17
1.67834e-16
1.661e-16
1.76942e-16
2.15973e-16
1.23599e-16
-4.90059e-17
6.07153e-18
-1.48753e-16
1.78677e-16
2.1684e-18
1.53957e-16
3.30465e-16
2.48933e-16
-7.28584e-17
2.6975e-16
-6.85216e-17
-1.04951e-16
-5.1608e-17
2.58474e-16
-9.97466e-18
5.08708e-16
3.84675e-16
-9.75782e-17
1.48753e-16
-5.81132e-17
-5.9848e-17
4.82687e-16
2.30718e-16
1.86483e-16
5.05672e-16
-1.69136e-16
4.65773e-16
-4.90059e-17
2.51535e-17
1.88217e-16
3.32633e-16
-1.60028e-16
-2.4503e-16
1.9082e-16
2.83194e-16
1.44416e-16
1.97758e-16
4.67942e-16
2.58907e-16
7.41161e-16
4.16334e-17
4.16334e-16
-4.90059e-17
-9.93129e-17
-1.30104e-16
5.66821e-16
3.01408e-16
-3.77302e-16
-5.38198e-16
-6.07153e-16
-5.10442e-16
-5.99781e-16
-2.87964e-16
-6.34041e-16
-5.24754e-17
-6.2797e-16
-5.28657e-16
-5.99347e-16
-8.37871e-16
-3.87277e-16
-5.13044e-16
-8.54351e-17
-1.19262e-16
-3.56486e-16
-3.41741e-16
-3.21791e-16
-5.46438e-16
-6.04117e-16
-2.71051e-16
-9.68409e-16
-4.25007e-16
-1.07987e-16
-3.16153e-16
-4.57967e-16
-1.2013e-16
-8.57821e-16
-7.86263e-16
-4.24574e-16
-7.12971e-16
-4.08527e-16
-4.34548e-16
-7.92769e-16
-4.47992e-16
-6.75675e-16
-8.8124e-16
-4.44089e-16
-6.53123e-16
-3.61256e-16
-2.67147e-16
-3.21791e-16
-8.66928e-16
4.68375e-17
-2.7452e-16
-5.47739e-16
-5.45137e-16
-5.59015e-16
-5.18682e-16
-5.70724e-16
-3.62557e-16
-8.60857e-16
-5.32994e-16
-4.44523e-16
-2.47198e-16
-3.81639e-16
-3.5822e-16
-6.74807e-16
-3.26995e-16
-3.04444e-16
-8.04912e-16
-6.14959e-16
-5.91541e-16
-7.22079e-16
-5.93709e-16
-5.5728e-16
-1.16877e-15
-7.00395e-16
-2.64112e-16
-3.57353e-16
-2.8753e-16
-7.59809e-16
-4.22839e-16
-9.54098e-16
-7.25548e-16
-6.69603e-16
-9.00755e-16
-9.04658e-16
-6.4922e-16
-2.75387e-16
-6.66567e-16
-5.3603e-16
-5.72459e-16
-6.78277e-16
-7.81927e-16
-9.0726e-16
-7.87564e-16
-4.82253e-16
1.80845e-16
-4.57967e-16
-3.10949e-16
-7.67615e-16
-7.38992e-16
-5.04805e-16
-4.09395e-16
-5.81566e-16
-4.59268e-16
-7.35089e-16
-6.52256e-16
-6.38378e-16
-6.4445e-16
-1.07163e-15
7.84962e-17
-9.46725e-16
-7.18609e-16
-6.97359e-16
-6.04985e-16
-6.55292e-16
-5.12611e-16
-6.20164e-16
-7.72386e-16
-2.9577e-16
-3.38271e-16
-8.52183e-16
-7.11237e-16
-7.20778e-16
-6.70904e-16
-8.12284e-16
-5.13912e-16
-1.10589e-15
-7.54605e-16
-8.70398e-16
-5.56413e-16
-3.59088e-16
-8.20958e-16
-4.7011e-16
-3.68629e-16
-7.50268e-16
-1.11283e-15
-6.61363e-16
-6.66567e-16
-7.32487e-16
-7.58074e-16
-5.55112e-16
-8.59989e-16
-6.16261e-16
-4.75314e-16
-5.97612e-16
-4.51462e-16
-8.13585e-16
-5.72892e-16
-3.62124e-16
-3.54317e-16
-6.13225e-16
-4.60569e-16
-3.02276e-16
-7.16007e-16
-5.83301e-16
-1.22341e-15
-7.81927e-16
-1.10892e-15
-1.33574e-16
-4.44957e-16
-6.74374e-16
-8.00141e-16
-6.89553e-16
-8.60423e-16
-5.85035e-16
-5.51208e-16
-9.15067e-16
-7.1991e-16
-5.29524e-16
-1.22688e-15
-7.12538e-16
-5.91107e-16
-1.61763e-16
-4.20237e-16
-2.99673e-16
-5.1131e-16
-6.95624e-16
-1.38778e-16
-4.37584e-16
-8.86877e-16
-5.15647e-16
-3.9942e-16
-6.84782e-16
-5.87204e-16
-8.01009e-16
-9.20704e-16
-6.16694e-16
-9.09862e-16
-2.71051e-16
-6.31006e-16
-9.06393e-16
-4.30645e-16
-5.7029e-16
-7.1514e-16
-2.34621e-16
-4.39319e-16
-5.46438e-16
-8.01442e-16
-5.46004e-16
-8.49147e-16
-5.96311e-16
-1.22732e-16
-8.82541e-16
-7.62845e-16
-3.03577e-16
-8.97286e-16
-4.56232e-16
-6.54424e-16
-8.30065e-16
-1.06599e-15
-5.45137e-16
-9.88359e-16
-6.56159e-16
-5.61617e-16
-6.89553e-16
-5.75495e-16
-7.22946e-16
1.02349e-16
-1.00527e-15
-8.1532e-17
-5.1608e-16
-6.62231e-16
-5.69857e-16
-5.46438e-16
-3.97252e-16
-3.66027e-16
-4.77049e-18
-6.5269e-16
-9.40654e-16
-3.07913e-16
-5.31693e-16
-3.19189e-16
-1.13061e-15
-1.05992e-15
-7.56773e-16
-8.71699e-16
-6.88685e-16
-8.12718e-16
-8.43943e-16
-5.31259e-16
-4.68375e-16
-7.86263e-16
-6.29271e-16
-7.42028e-16
-4.46691e-16
-2.64979e-16
-3.44343e-16
2.46764e-16
-7.58508e-16
-6.95624e-16
-3.93782e-16
-6.64399e-16
-5.43402e-16
-5.29958e-16
-9.30245e-16
-4.79651e-16
-9.51062e-16
-4.60569e-16
-6.98226e-16
-5.88071e-16
-4.26308e-16
-9.71445e-16
-4.12431e-16
-6.62231e-16
-9.1897e-16
-4.29778e-16
-5.89372e-16
-7.02563e-16
-2.29417e-16
-3.56919e-16
-5.1131e-16
-2.30285e-16
-5.47305e-16
-5.84602e-16
-2.93602e-16
-4.28043e-16
-4.23273e-16
-1.06295e-15
-5.28223e-16
-1.22125e-15
-1.12497e-15
-4.73146e-16
-6.78277e-16
-4.68809e-16
-6.75241e-16
-1.04734e-15
-1.10979e-15
-4.39319e-16
-3.87711e-16
-8.30933e-16
-4.52763e-16
-7.84529e-16
-5.37764e-16
-3.66027e-16
-8.51316e-16
-4.68375e-17
-8.99888e-16
-8.57821e-16
-2.47198e-16
-5.00034e-16
-5.87204e-16
-6.34909e-16
-5.91107e-16
-3.77302e-16
-3.76435e-16
-8.94684e-16
-6.8218e-16
-8.318e-16
-4.09828e-16
-1.04517e-16
-5.93709e-16
-5.05672e-16
-7.81059e-16
-5.47739e-16
-6.01515e-16
-4.49727e-16
1.86483e-17
-3.16587e-16
-2.51535e-16
-5.00034e-16
-5.72459e-16
-3.44343e-16
-7.20778e-16
-3.39138e-16
-4.90493e-16
-4.81819e-16
-6.27103e-16
-4.52763e-16
-7.71085e-16
-4.65773e-16
-5.60316e-16
-4.65773e-16
-5.37331e-16
-1.48319e-16
-7.19043e-16
-2.54137e-16
-6.05852e-16
-2.74086e-16
-4.08961e-16
-4.46691e-17
1.93855e-16
-3.13118e-16
-3.68629e-16
-4.90927e-16
-3.22659e-16
-4.41053e-16
-2.08167e-16
-3.31332e-16
-6.00214e-16
-1.73906e-16
-5.03937e-16