/*--------------------------------*- C++ -*----------------------------------*\
| =========                 |                                                 |
| \\      /  F ield         | foam-extend: Open Source CFD                    |
|  \\    /   O peration     | Version:     4.0                                |
|   \\  /    A nd           | Web:         http://www.foam-extend.org         |
|    \\/     M anipulation  |                                                 |
\*---------------------------------------------------------------------------*/
FoamFile
{
    version     2.0;
    format      ascii;
    class       volScalarField;
    location    "23";
    object      dC2;
}
// * * * * * * * * * * * * * * * * * * * * * * * * * * * * * * * * * * * * * //

dimensions      [0 -1 0 0 0 0 0];

internalField   nonuniform List<scalar> 
6960
(
6.5251e-18
6.52513e-18
6.52515e-18
6.52518e-18
6.5252e-18
6.52523e-18
6.52522e-18
6.52525e-18
6.52524e-18
6.52524e-18
6.52524e-18
6.52525e-18
6.52525e-18
6.52524e-18
6.52523e-18
6.52524e-18
6.52523e-18
6.52524e-18
6.52523e-18
6.52523e-18
6.52521e-18
6.52523e-18
6.52524e-18
6.52522e-18
6.52521e-18
6.52522e-18
6.52521e-18
6.52522e-18
6.52521e-18
6.52521e-18
6.52521e-18
6.52521e-18
6.52521e-18
6.5252e-18
6.52522e-18
6.52521e-18
6.52522e-18
6.52521e-18
6.52522e-18
6.52523e-18
6.52522e-18
6.52524e-18
6.52523e-18
6.52523e-18
6.52523e-18
6.52524e-18
6.52524e-18
6.52524e-18
6.52525e-18
6.52524e-18
6.52525e-18
6.52524e-18
6.52525e-18
6.52524e-18
6.52524e-18
6.5252e-18
6.52518e-18
6.52515e-18
6.52511e-18
6.52508e-18
2.01992e-17
2.01992e-17
2.01994e-17
2.01995e-17
2.01996e-17
2.01996e-17
2.01996e-17
2.01996e-17
2.01997e-17
2.01997e-17
2.01997e-17
2.01997e-17
2.01996e-17
2.01996e-17
2.01997e-17
2.01996e-17
2.01996e-17
2.01996e-17
2.01996e-17
2.01995e-17
2.01996e-17
2.01996e-17
2.01995e-17
2.01995e-17
2.01996e-17
2.01995e-17
2.01996e-17
2.01995e-17
2.01996e-17
2.01996e-17
2.01996e-17
2.01995e-17
2.01995e-17
2.01995e-17
2.01996e-17
2.01996e-17
2.01996e-17
2.01996e-17
2.01996e-17
2.01996e-17
2.01996e-17
2.01996e-17
2.01996e-17
2.01996e-17
2.01997e-17
2.01996e-17
2.01997e-17
2.01997e-17
2.01996e-17
2.01997e-17
2.01996e-17
2.01997e-17
2.01996e-17
2.01996e-17
2.01995e-17
2.01995e-17
2.01995e-17
2.01994e-17
2.01993e-17
2.01992e-17
5.08234e-17
5.08235e-17
5.08237e-17
5.08241e-17
5.08241e-17
5.08244e-17
5.08245e-17
5.08245e-17
5.08244e-17
5.08244e-17
5.08246e-17
5.08245e-17
5.08245e-17
5.08246e-17
5.08244e-17
5.08244e-17
5.08244e-17
5.08244e-17
5.08244e-17
5.08246e-17
5.08244e-17
5.08244e-17
5.08243e-17
5.08244e-17
5.08243e-17
5.08243e-17
5.08243e-17
5.08244e-17
5.08244e-17
5.08243e-17
5.08243e-17
5.08244e-17
5.08242e-17
5.08243e-17
5.08243e-17
5.08243e-17
5.08243e-17
5.08242e-17
5.08244e-17
5.08245e-17
5.08244e-17
5.08245e-17
5.08245e-17
5.08244e-17
5.08244e-17
5.08246e-17
5.08244e-17
5.08245e-17
5.08246e-17
5.08245e-17
5.08246e-17
5.08245e-17
5.08245e-17
5.08245e-17
5.08245e-17
5.08243e-17
5.08241e-17
5.08237e-17
5.08235e-17
5.08233e-17
1.14056e-16
1.14057e-16
1.14057e-16
1.14058e-16
1.14058e-16
1.14058e-16
1.14059e-16
1.14059e-16
1.14059e-16
1.14059e-16
1.14059e-16
1.14059e-16
1.14059e-16
1.14058e-16
1.14059e-16
1.14059e-16
1.14059e-16
1.14059e-16
1.14058e-16
1.14058e-16
1.14058e-16
1.14058e-16
1.14058e-16
1.14058e-16
1.14058e-16
1.14058e-16
1.14058e-16
1.14058e-16
1.14058e-16
1.14058e-16
1.14058e-16
1.14058e-16
1.14058e-16
1.14058e-16
1.14058e-16
1.14058e-16
1.14058e-16
1.14059e-16
1.14058e-16
1.14058e-16
1.14058e-16
1.14059e-16
1.14059e-16
1.14059e-16
1.14059e-16
1.14058e-16
1.14059e-16
1.14059e-16
1.14059e-16
1.14059e-16
1.14059e-16
1.14058e-16
1.14058e-16
1.14058e-16
1.14058e-16
1.14058e-16
1.14058e-16
1.14057e-16
1.14057e-16
1.14056e-16
2.41918e-16
2.4192e-16
2.41921e-16
2.41922e-16
2.41924e-16
2.41923e-16
2.41924e-16
2.41924e-16
2.41923e-16
2.41923e-16
2.41924e-16
2.41924e-16
2.41924e-16
2.41924e-16
2.41924e-16
2.41923e-16
2.41924e-16
2.41923e-16
2.41924e-16
2.41923e-16
2.41924e-16
2.41924e-16
2.41924e-16
2.41923e-16
2.41923e-16
2.41922e-16
2.41923e-16
2.41923e-16
2.41923e-16
2.41923e-16
2.41923e-16
2.41923e-16
2.41923e-16
2.41923e-16
2.41922e-16
2.41923e-16
2.41923e-16
2.41922e-16
2.41923e-16
2.41923e-16
2.41923e-16
2.41923e-16
2.41924e-16
2.41924e-16
2.41923e-16
2.41924e-16
2.41923e-16
2.41923e-16
2.41924e-16
2.41924e-16
2.41924e-16
2.41925e-16
2.41924e-16
2.41924e-16
2.41922e-16
2.41923e-16
2.41922e-16
2.4192e-16
2.41919e-16
2.41918e-16
4.97651e-16
4.97652e-16
4.97655e-16
4.97656e-16
4.97658e-16
4.97661e-16
4.97662e-16
4.97663e-16
4.97662e-16
4.97663e-16
4.97663e-16
4.97661e-16
4.97662e-16
4.97662e-16
4.97662e-16
4.97661e-16
4.97662e-16
4.97663e-16
4.9766e-16
4.97662e-16
4.9766e-16
4.9766e-16
4.9766e-16
4.9766e-16
4.9766e-16
4.97661e-16
4.9766e-16
4.9766e-16
4.9766e-16
4.9766e-16
4.9766e-16
4.97659e-16
4.97659e-16
4.9766e-16
4.97661e-16
4.97662e-16
4.97662e-16
4.97662e-16
4.97662e-16
4.9766e-16
4.97662e-16
4.97662e-16
4.97663e-16
4.97661e-16
4.97662e-16
4.97661e-16
4.97662e-16
4.97663e-16
4.97662e-16
4.97662e-16
4.97662e-16
4.97662e-16
4.97662e-16
4.97662e-16
4.97663e-16
4.9766e-16
4.97657e-16
4.97655e-16
4.97653e-16
4.9765e-16
1.0032e-15
1.0032e-15
1.0032e-15
1.00321e-15
1.00321e-15
1.00321e-15
1.00321e-15
1.00322e-15
1.00322e-15
1.00322e-15
1.00322e-15
1.00322e-15
1.00322e-15
1.00322e-15
1.00322e-15
1.00322e-15
1.00322e-15
1.00321e-15
1.00322e-15
1.00321e-15
1.00321e-15
1.00321e-15
1.00321e-15
1.00322e-15
1.00321e-15
1.00321e-15
1.00321e-15
1.00321e-15
1.00321e-15
1.00321e-15
1.00321e-15
1.00322e-15
1.00321e-15
1.00321e-15
1.00321e-15
1.00321e-15
1.00321e-15
1.00321e-15
1.00321e-15
1.00322e-15
1.00321e-15
1.00321e-15
1.00321e-15
1.00322e-15
1.00322e-15
1.00322e-15
1.00322e-15
1.00322e-15
1.00322e-15
1.00322e-15
1.00322e-15
1.00322e-15
1.00322e-15
1.00322e-15
1.00321e-15
1.00321e-15
1.00321e-15
1.0032e-15
1.0032e-15
1.0032e-15
1.98473e-15
1.98473e-15
1.98474e-15
1.98475e-15
1.98475e-15
1.98476e-15
1.98476e-15
1.98477e-15
1.98477e-15
1.98476e-15
1.98477e-15
1.98477e-15
1.98477e-15
1.98477e-15
1.98477e-15
1.98477e-15
1.98476e-15
1.98477e-15
1.98477e-15
1.98477e-15
1.98476e-15
1.98476e-15
1.98476e-15
1.98476e-15
1.98477e-15
1.98476e-15
1.98476e-15
1.98476e-15
1.98476e-15
1.98475e-15
1.98476e-15
1.98475e-15
1.98475e-15
1.98476e-15
1.98477e-15
1.98476e-15
1.98476e-15
1.98476e-15
1.98476e-15
1.98476e-15
1.98476e-15
1.98477e-15
1.98477e-15
1.98476e-15
1.98476e-15
1.98477e-15
1.98477e-15
1.98477e-15
1.98477e-15
1.98477e-15
1.98477e-15
1.98477e-15
1.98477e-15
1.98476e-15
1.98476e-15
1.98476e-15
1.98475e-15
1.98474e-15
1.98473e-15
1.98473e-15
3.84264e-15
3.84266e-15
3.84268e-15
3.8427e-15
3.84272e-15
3.84271e-15
3.84272e-15
3.84272e-15
3.84272e-15
3.84275e-15
3.84273e-15
3.84272e-15
3.84273e-15
3.84273e-15
3.84272e-15
3.84273e-15
3.84273e-15
3.84272e-15
3.84271e-15
3.84272e-15
3.84272e-15
3.84272e-15
3.84271e-15
3.8427e-15
3.8427e-15
3.84271e-15
3.84271e-15
3.84272e-15
3.84271e-15
3.84272e-15
3.84272e-15
3.84273e-15
3.84272e-15
3.84271e-15
3.84271e-15
3.84272e-15
3.84271e-15
3.84272e-15
3.84272e-15
3.84271e-15
3.84272e-15
3.84271e-15
3.84272e-15
3.84273e-15
3.84273e-15
3.84274e-15
3.84272e-15
3.84273e-15
3.84273e-15
3.84273e-15
3.84274e-15
3.84273e-15
3.84271e-15
3.84273e-15
3.84272e-15
3.8427e-15
3.84269e-15
3.84268e-15
3.84264e-15
3.84263e-15
7.25442e-15
7.2544e-15
7.25443e-15
7.25446e-15
7.25451e-15
7.25456e-15
7.25456e-15
7.25455e-15
7.25457e-15
7.25453e-15
7.25454e-15
7.25457e-15
7.25456e-15
7.25455e-15
7.25456e-15
7.25451e-15
7.25452e-15
7.25452e-15
7.25455e-15
7.25451e-15
7.25454e-15
7.2545e-15
7.25454e-15
7.25456e-15
7.25452e-15
7.25452e-15
7.25449e-15
7.25452e-15
7.25454e-15
7.2545e-15
7.25448e-15
7.25451e-15
7.25448e-15
7.25451e-15
7.25453e-15
7.25448e-15
7.25454e-15
7.25454e-15
7.25451e-15
7.25457e-15
7.25455e-15
7.25455e-15
7.25454e-15
7.25451e-15
7.25457e-15
7.2545e-15
7.25456e-15
7.25457e-15
7.25454e-15
7.25456e-15
7.25453e-15
7.25457e-15
7.25459e-15
7.25456e-15
7.25453e-15
7.25453e-15
7.2545e-15
7.25443e-15
7.25442e-15
7.25439e-15
1.33251e-14
1.33252e-14
1.33253e-14
1.33254e-14
1.33254e-14
1.33253e-14
1.33253e-14
1.33254e-14
1.33254e-14
1.33255e-14
1.33255e-14
1.33255e-14
1.33254e-14
1.33254e-14
1.33254e-14
1.33255e-14
1.33255e-14
1.33255e-14
1.33253e-14
1.33254e-14
1.33254e-14
1.33254e-14
1.33254e-14
1.33253e-14
1.33254e-14
1.33254e-14
1.33254e-14
1.33253e-14
1.33253e-14
1.33254e-14
1.33254e-14
1.33253e-14
1.33254e-14
1.33254e-14
1.33253e-14
1.33255e-14
1.33253e-14
1.33254e-14
1.33254e-14
1.33254e-14
1.33254e-14
1.33254e-14
1.33255e-14
1.33255e-14
1.33253e-14
1.33255e-14
1.33254e-14
1.33254e-14
1.33255e-14
1.33254e-14
1.33254e-14
1.33254e-14
1.33254e-14
1.33254e-14
1.33254e-14
1.33253e-14
1.33253e-14
1.33252e-14
1.33252e-14
1.33252e-14
2.37568e-14
2.37569e-14
2.3757e-14
2.37572e-14
2.37571e-14
2.37572e-14
2.37576e-14
2.37574e-14
2.37574e-14
2.37573e-14
2.37574e-14
2.37573e-14
2.37573e-14
2.37574e-14
2.37575e-14
2.37575e-14
2.37573e-14
2.37573e-14
2.37575e-14
2.37573e-14
2.37574e-14
2.37571e-14
2.37572e-14
2.37573e-14
2.37573e-14
2.37574e-14
2.37573e-14
2.37574e-14
2.37573e-14
2.37571e-14
2.37572e-14
2.37573e-14
2.37572e-14
2.37574e-14
2.37574e-14
2.37571e-14
2.37574e-14
2.37573e-14
2.37574e-14
2.37574e-14
2.37573e-14
2.37575e-14
2.37574e-14
2.37574e-14
2.37574e-14
2.37573e-14
2.37576e-14
2.37575e-14
2.37574e-14
2.37575e-14
2.37575e-14
2.37574e-14
2.37575e-14
2.37574e-14
2.37574e-14
2.37574e-14
2.37572e-14
2.3757e-14
2.37569e-14
2.37567e-14
4.04802e-14
4.04801e-14
4.04804e-14
4.04805e-14
4.04808e-14
4.04814e-14
4.04805e-14
4.0481e-14
4.04811e-14
4.04812e-14
4.04809e-14
4.04814e-14
4.04813e-14
4.04812e-14
4.04808e-14
4.04809e-14
4.04808e-14
4.04809e-14
4.04808e-14
4.04809e-14
4.04809e-14
4.04811e-14
4.04814e-14
4.04811e-14
4.04811e-14
4.04804e-14
4.04808e-14
4.04808e-14
4.04811e-14
4.04815e-14
4.04814e-14
4.04809e-14
4.0481e-14
4.04803e-14
4.04807e-14
4.04808e-14
4.04806e-14
4.04808e-14
4.04809e-14
4.04809e-14
4.04809e-14
4.04806e-14
4.04809e-14
4.04808e-14
4.04808e-14
4.04812e-14
4.04806e-14
4.04812e-14
4.04813e-14
4.04809e-14
4.04809e-14
4.04812e-14
4.0481e-14
4.04809e-14
4.04809e-14
4.04806e-14
4.04805e-14
4.04808e-14
4.04804e-14
4.04805e-14
6.19009e-14
6.19016e-14
6.19019e-14
6.19027e-14
6.1902e-14
6.19018e-14
6.19034e-14
6.19026e-14
6.1903e-14
6.19025e-14
6.19028e-14
6.19024e-14
6.19022e-14
6.19023e-14
6.1903e-14
6.19024e-14
6.19032e-14
6.1903e-14
6.19027e-14
6.19023e-14
6.19024e-14
6.19025e-14
6.19016e-14
6.19014e-14
6.19016e-14
6.19027e-14
6.19025e-14
6.19019e-14
6.19021e-14
6.19018e-14
6.19012e-14
6.19022e-14
6.19022e-14
6.1903e-14
6.19021e-14
6.19031e-14
6.19029e-14
6.19024e-14
6.19022e-14
6.19024e-14
6.19032e-14
6.19031e-14
6.19026e-14
6.19027e-14
6.19031e-14
6.19023e-14
6.19031e-14
6.19022e-14
6.19017e-14
6.19029e-14
6.19032e-14
6.19022e-14
6.1903e-14
6.19026e-14
6.19023e-14
6.19027e-14
6.19014e-14
6.19015e-14
6.1901e-14
6.19007e-14
6.92698e-14
6.92689e-14
6.92694e-14
6.92683e-14
6.92702e-14
6.92687e-14
6.92694e-14
6.92707e-14
6.92712e-14
6.92701e-14
6.92718e-14
6.92703e-14
6.92704e-14
6.92711e-14
6.92697e-14
6.92706e-14
6.92693e-14
6.92692e-14
6.92707e-14
6.92708e-14
6.92698e-14
6.92705e-14
6.92715e-14
6.92705e-14
6.9271e-14
6.92691e-14
6.92708e-14
6.92698e-14
6.9271e-14
6.927e-14
6.92709e-14
6.92708e-14
6.92708e-14
6.92701e-14
6.92719e-14
6.92677e-14
6.92693e-14
6.92706e-14
6.92712e-14
6.92697e-14
6.92699e-14
6.92701e-14
6.92691e-14
6.92708e-14
6.92712e-14
6.9271e-14
6.92694e-14
6.92704e-14
6.92726e-14
6.92707e-14
6.92704e-14
6.9271e-14
6.92694e-14
6.92701e-14
6.92701e-14
6.92703e-14
6.92706e-14
6.92687e-14
6.92695e-14
6.92697e-14
8.21749e-15
8.21944e-15
8.21884e-15
8.22094e-15
8.22293e-15
8.22203e-15
8.22058e-15
8.22143e-15
8.22038e-15
8.22205e-15
8.21974e-15
8.21931e-15
8.22083e-15
8.22113e-15
8.2211e-15
8.22156e-15
8.22119e-15
8.22018e-15
8.2208e-15
8.21813e-15
8.22235e-15
8.22287e-15
8.22062e-15
8.22266e-15
8.22034e-15
8.22253e-15
8.2201e-15
8.22392e-15
8.21768e-15
8.22216e-15
8.2199e-15
8.21821e-15
8.21914e-15
8.22076e-15
8.21922e-15
8.22188e-15
8.22296e-15
8.22041e-15
8.21779e-15
8.22353e-15
8.2208e-15
8.22068e-15
8.22379e-15
8.2228e-15
8.21742e-15
8.21882e-15
8.22066e-15
8.22209e-15
8.21932e-15
8.2175e-15
8.21765e-15
8.21974e-15
8.22395e-15
8.22056e-15
8.22147e-15
8.21783e-15
8.222e-15
8.22174e-15
8.22104e-15
8.21979e-15
-1.6746e-13
-1.67458e-13
-1.6746e-13
-1.67465e-13
-1.67465e-13
-1.67459e-13
-1.67461e-13
-1.67461e-13
-1.67456e-13
-1.67466e-13
-1.67462e-13
-1.67468e-13
-1.67463e-13
-1.67459e-13
-1.67463e-13
-1.67465e-13
-1.67463e-13
-1.6746e-13
-1.67462e-13
-1.67462e-13
-1.67465e-13
-1.67465e-13
-1.67463e-13
-1.67465e-13
-1.6746e-13
-1.67464e-13
-1.67461e-13
-1.67464e-13
-1.67461e-13
-1.67462e-13
-1.6746e-13
-1.67458e-13
-1.67463e-13
-1.67463e-13
-1.67463e-13
-1.67463e-13
-1.67467e-13
-1.67463e-13
-1.67459e-13
-1.6747e-13
-1.67462e-13
-1.67461e-13
-1.67461e-13
-1.67466e-13
-1.67454e-13
-1.67458e-13
-1.6746e-13
-1.67461e-13
-1.67461e-13
-1.67457e-13
-1.6746e-13
-1.67455e-13
-1.67467e-13
-1.67463e-13
-1.67462e-13
-1.6746e-13
-1.67465e-13
-1.67458e-13
-1.67461e-13
-1.67462e-13
-3.06081e-13
-3.06081e-13
-3.0608e-13
-3.06084e-13
-3.06087e-13
-3.06095e-13
-3.06092e-13
-3.06089e-13
-3.06091e-13
-3.06082e-13
-3.0609e-13
-3.06078e-13
-3.06086e-13
-3.06091e-13
-3.06092e-13
-3.06085e-13
-3.06081e-13
-3.06083e-13
-3.06088e-13
-3.06089e-13
-3.06084e-13
-3.06094e-13
-3.06083e-13
-3.06087e-13
-3.06084e-13
-3.0608e-13
-3.06094e-13
-3.06088e-13
-3.0608e-13
-3.06089e-13
-3.06087e-13
-3.06094e-13
-3.06078e-13
-3.06085e-13
-3.06085e-13
-3.06077e-13
-3.06085e-13
-3.06093e-13
-3.06088e-13
-3.06079e-13
-3.06089e-13
-3.06081e-13
-3.06093e-13
-3.06085e-13
-3.06088e-13
-3.06096e-13
-3.06093e-13
-3.06095e-13
-3.06098e-13
-3.0609e-13
-3.06085e-13
-3.06096e-13
-3.06084e-13
-3.06084e-13
-3.06091e-13
-3.06085e-13
-3.06082e-13
-3.06079e-13
-3.06074e-13
-3.06078e-13
-2.48977e-14
-2.49067e-14
-2.49194e-14
-2.49113e-14
-2.49136e-14
-2.4898e-14
-2.49151e-14
-2.49174e-14
-2.49283e-14
-2.49261e-14
-2.49214e-14
-2.49225e-14
-2.49185e-14
-2.49185e-14
-2.4913e-14
-2.49062e-14
-2.49284e-14
-2.49261e-14
-2.49058e-14
-2.4925e-14
-2.49081e-14
-2.49083e-14
-2.49018e-14
-2.4922e-14
-2.49142e-14
-2.49278e-14
-2.48968e-14
-2.49113e-14
-2.49201e-14
-2.48987e-14
-2.49087e-14
-2.48956e-14
-2.4917e-14
-2.49128e-14
-2.49113e-14
-2.49205e-14
-2.49163e-14
-2.48997e-14
-2.49026e-14
-2.49276e-14
-2.49133e-14
-2.49241e-14
-2.49122e-14
-2.49192e-14
-2.49238e-14
-2.49208e-14
-2.49138e-14
-2.49171e-14
-2.49085e-14
-2.49175e-14
-2.49124e-14
-2.49207e-14
-2.49261e-14
-2.49159e-14
-2.49004e-14
-2.49118e-14
-2.491e-14
-2.4928e-14
-2.49343e-14
-2.49006e-14
6.00736e-13
6.00748e-13
6.00786e-13
6.00736e-13
6.00767e-13
6.00745e-13
6.00765e-13
6.00773e-13
6.0078e-13
6.00757e-13
6.00764e-13
6.00762e-13
6.00762e-13
6.00765e-13
6.00772e-13
6.00738e-13
6.00778e-13
6.00765e-13
6.00736e-13
6.00763e-13
6.00745e-13
6.00762e-13
6.00741e-13
6.0076e-13
6.00743e-13
6.00755e-13
6.00724e-13
6.0079e-13
6.00772e-13
6.00734e-13
6.0075e-13
6.00757e-13
6.00734e-13
6.0075e-13
6.00744e-13
6.00762e-13
6.00739e-13
6.0074e-13
6.0073e-13
6.00773e-13
6.00773e-13
6.00768e-13
6.00742e-13
6.00777e-13
6.00773e-13
6.00791e-13
6.00759e-13
6.00806e-13
6.00762e-13
6.00769e-13
6.00776e-13
6.00813e-13
6.00779e-13
6.00765e-13
6.00723e-13
6.00746e-13
6.00753e-13
6.00762e-13
6.00765e-13
6.00746e-13
6.83488e-13
6.83525e-13
6.83513e-13
6.83546e-13
6.83502e-13
6.83521e-13
6.83491e-13
6.83542e-13
6.83514e-13
6.83501e-13
6.83531e-13
6.83498e-13
6.83497e-13
6.83567e-13
6.83495e-13
6.83536e-13
6.83547e-13
6.8353e-13
6.83535e-13
6.83505e-13
6.83489e-13
6.83512e-13
6.83518e-13
6.83507e-13
6.83548e-13
6.83514e-13
6.83503e-13
6.83471e-13
6.83516e-13
6.83535e-13
6.83516e-13
6.83515e-13
6.8352e-13
6.83489e-13
6.8356e-13
6.83511e-13
6.83516e-13
6.83547e-13
6.83545e-13
6.83515e-13
6.83517e-13
6.83486e-13
6.83538e-13
6.8353e-13
6.83532e-13
6.83478e-13
6.83552e-13
6.83449e-13
6.83517e-13
6.83537e-13
6.83484e-13
6.83478e-13
6.83562e-13
6.83517e-13
6.83565e-13
6.8355e-13
6.83469e-13
6.83504e-13
6.83504e-13
6.83489e-13
-5.70129e-15
-5.82391e-15
-5.70864e-15
-5.72535e-15
-5.7316e-15
-5.76232e-15
-5.68865e-15
-5.73398e-15
-5.71588e-15
-5.64226e-15
-5.73766e-15
-5.69113e-15
-5.71679e-15
-5.78905e-15
-5.71247e-15
-5.74262e-15
-5.75851e-15
-5.72637e-15
-5.66667e-15
-5.61781e-15
-5.67067e-15
-5.74225e-15
-5.71738e-15
-5.72326e-15
-5.73066e-15
-5.6823e-15
-5.63619e-15
-5.6475e-15
-5.70685e-15
-5.75115e-15
-5.72957e-15
-5.77431e-15
-5.73109e-15
-5.60293e-15
-5.7354e-15
-5.70214e-15
-5.66521e-15
-5.84683e-15
-5.72301e-15
-5.73692e-15
-5.79567e-15
-5.63917e-15
-5.81384e-15
-5.74831e-15
-5.70241e-15
-5.64643e-15
-5.78532e-15
-5.69356e-15
-5.77972e-15
-5.68189e-15
-5.67839e-15
-5.73077e-15
-5.79792e-15
-5.75105e-15
-5.71559e-15
-5.77347e-15
-5.61467e-15
-5.77633e-15
-5.79276e-15
-5.69588e-15
-4.81247e-13
-4.81029e-13
-4.81171e-13
-4.8126e-13
-4.81206e-13
-4.81166e-13
-4.81209e-13
-4.81248e-13
-4.81265e-13
-4.81253e-13
-4.81218e-13
-4.81178e-13
-4.81188e-13
-4.81061e-13
-4.81167e-13
-4.81166e-13
-4.81182e-13
-4.81169e-13
-4.8131e-13
-4.81287e-13
-4.81203e-13
-4.81236e-13
-4.81263e-13
-4.81051e-13
-4.81187e-13
-4.81348e-13
-4.81301e-13
-4.81201e-13
-4.81289e-13
-4.81126e-13
-4.81192e-13
-4.81074e-13
-4.81136e-13
-4.81225e-13
-4.81178e-13
-4.8122e-13
-4.81307e-13
-4.81081e-13
-4.81168e-13
-4.81142e-13
-4.81071e-13
-4.81339e-13
-4.80957e-13
-4.81191e-13
-4.81188e-13
-4.81329e-13
-4.81209e-13
-4.81101e-13
-4.81084e-13
-4.81232e-13
-4.8117e-13
-4.81202e-13
-4.81122e-13
-4.81116e-13
-4.81264e-13
-4.8116e-13
-4.81257e-13
-4.81137e-13
-4.81079e-13
-4.81149e-13
-3.34572e-13
-3.34556e-13
-3.34631e-13
-3.34509e-13
-3.34427e-13
-3.34408e-13
-3.34525e-13
-3.34564e-13
-3.34491e-13
-3.34667e-13
-3.3458e-13
-3.34616e-13
-3.34482e-13
-3.34716e-13
-3.34584e-13
-3.34566e-13
-3.3447e-13
-3.34711e-13
-3.34429e-13
-3.34664e-13
-3.34485e-13
-3.34385e-13
-3.34489e-13
-3.34837e-13
-3.34518e-13
-3.34334e-13
-3.34473e-13
-3.34611e-13
-3.34385e-13
-3.34496e-13
-3.34441e-13
-3.34763e-13
-3.34687e-13
-3.34718e-13
-3.34568e-13
-3.34609e-13
-3.34492e-13
-3.34499e-13
-3.34651e-13
-3.34645e-13
-3.3455e-13
-3.34493e-13
-3.34844e-13
-3.34495e-13
-3.34585e-13
-3.34433e-13
-3.34526e-13
-3.34693e-13
-3.34642e-13
-3.34555e-13
-3.34692e-13
-3.34437e-13
-3.34612e-13
-3.34562e-13
-3.34484e-13
-3.34424e-13
-3.34552e-13
-3.34503e-13
-3.34639e-13
-3.34586e-13
-7.93817e-14
-7.96711e-14
-7.94782e-14
-7.96482e-14
-7.96636e-14
-7.98017e-14
-7.95331e-14
-7.95457e-14
-7.97069e-14
-7.93893e-14
-7.95463e-14
-7.94076e-14
-7.9584e-14
-7.9497e-14
-7.95633e-14
-7.97416e-14
-7.97683e-14
-7.93371e-14
-7.96673e-14
-7.93005e-14
-7.97503e-14
-7.96712e-14
-7.96121e-14
-7.94296e-14
-7.96121e-14
-7.97566e-14
-7.96716e-14
-7.95197e-14
-7.95849e-14
-7.9629e-14
-7.9565e-14
-7.94098e-14
-7.93247e-14
-7.94976e-14
-7.95048e-14
-7.94118e-14
-7.95865e-14
-7.97591e-14
-7.93759e-14
-7.95072e-14
-7.97901e-14
-7.9503e-14
-7.94557e-14
-7.97219e-14
-7.95118e-14
-7.96693e-14
-7.96844e-14
-7.94665e-14
-7.95233e-14
-7.96273e-14
-7.94532e-14
-7.96802e-14
-7.94953e-14
-7.95716e-14
-7.96057e-14
-7.97691e-14
-7.96602e-14
-7.95004e-14
-7.95396e-14
-7.96641e-14
-8.3856e-15
-8.19208e-15
-8.40518e-15
-8.32757e-15
-8.1044e-15
-8.32183e-15
-8.3299e-15
-8.35914e-15
-8.20181e-15
-8.34013e-15
-8.18449e-15
-8.55488e-15
-8.36845e-15
-8.30309e-15
-8.37707e-15
-8.00273e-15
-8.33765e-15
-8.72746e-15
-8.26274e-15
-8.39441e-15
-8.29685e-15
-8.31191e-15
-8.34454e-15
-8.39969e-15
-8.08776e-15
-8.25874e-15
-8.27926e-15
-8.39698e-15
-8.33505e-15
-8.27785e-15
-8.29425e-15
-8.36376e-15
-8.45568e-15
-8.3911e-15
-8.39926e-15
-8.35864e-15
-8.43874e-15
-8.24497e-15
-8.68437e-15
-8.46688e-15
-8.20844e-15
-8.28529e-15
-8.46018e-15
-8.37549e-15
-8.37636e-15
-8.31106e-15
-8.16676e-15
-8.41096e-15
-8.34607e-15
-8.05369e-15
-8.30572e-15
-8.35434e-15
-8.45236e-15
-8.40542e-15
-8.25127e-15
-8.19718e-15
-8.28812e-15
-8.56532e-15
-8.40596e-15
-8.12272e-15
-2.66238e-14
-2.68795e-14
-2.67999e-14
-2.67799e-14
-2.69112e-14
-2.66527e-14
-2.69254e-14
-2.67188e-14
-2.68365e-14
-2.67475e-14
-2.68841e-14
-2.65874e-14
-2.68351e-14
-2.67365e-14
-2.65388e-14
-2.69815e-14
-2.63858e-14
-2.62174e-14
-2.67993e-14
-2.67369e-14
-2.65965e-14
-2.6602e-14
-2.67397e-14
-2.67361e-14
-2.69076e-14
-2.67912e-14
-2.65874e-14
-2.67033e-14
-2.69576e-14
-2.68669e-14
-2.69161e-14
-2.69201e-14
-2.66733e-14
-2.66165e-14
-2.64815e-14
-2.67638e-14
-2.6767e-14
-2.66311e-14
-2.65515e-14
-2.65024e-14
-2.67844e-14
-2.66558e-14
-2.65077e-14
-2.66775e-14
-2.67759e-14
-2.67078e-14
-2.67202e-14
-2.6735e-14
-2.68682e-14
-2.68884e-14
-2.68546e-14
-2.6738e-14
-2.67139e-14
-2.66119e-14
-2.68817e-14
-2.68083e-14
-2.66856e-14
-2.63237e-14
-2.67001e-14
-2.70397e-14
-3.70048e-14
-3.70875e-14
-3.67884e-14
-3.70018e-14
-3.71191e-14
-3.71273e-14
-3.68125e-14
-3.68414e-14
-3.66793e-14
-3.70016e-14
-3.70138e-14
-3.70181e-14
-3.67273e-14
-3.71347e-14
-3.74407e-14
-3.68705e-14
-3.7394e-14
-3.74936e-14
-3.67386e-14
-3.71948e-14
-3.72202e-14
-3.69919e-14
-3.71233e-14
-3.67933e-14
-3.67289e-14
-3.69707e-14
-3.71473e-14
-3.69681e-14
-3.67885e-14
-3.69952e-14
-3.69114e-14
-3.69906e-14
-3.7013e-14
-3.7134e-14
-3.71589e-14
-3.70114e-14
-3.66969e-14
-3.7132e-14
-3.70661e-14
-3.72452e-14
-3.67712e-14
-3.70145e-14
-3.71839e-14
-3.71098e-14
-3.69769e-14
-3.68708e-14
-3.71837e-14
-3.70529e-14
-3.68893e-14
-3.70494e-14
-3.68856e-14
-3.69405e-14
-3.6786e-14
-3.69492e-14
-3.702e-14
-3.70973e-14
-3.69276e-14
-3.71193e-14
-3.70405e-14
-3.67218e-14
-2.87231e-14
-2.87024e-14
-2.91459e-14
-2.88759e-14
-2.84829e-14
-2.86846e-14
-2.88154e-14
-2.90174e-14
-2.91225e-14
-2.87598e-14
-2.87114e-14
-2.86161e-14
-2.90533e-14
-2.88969e-14
-2.87429e-14
-2.88299e-14
-2.85328e-14
-2.84945e-14
-2.90836e-14
-2.85057e-14
-2.86058e-14
-2.89454e-14
-2.85929e-14
-2.90022e-14
-2.90442e-14
-2.89805e-14
-2.88666e-14
-2.91103e-14
-2.88034e-14
-2.86828e-14
-2.9039e-14
-2.86192e-14
-2.89476e-14
-2.88087e-14
-2.86308e-14
-2.8844e-14
-2.91146e-14
-2.8556e-14
-2.86592e-14
-2.8754e-14
-2.90042e-14
-2.89313e-14
-2.87684e-14
-2.88283e-14
-2.90642e-14
-2.8469e-14
-2.86304e-14
-2.85728e-14
-2.87693e-14
-2.8842e-14
-2.89495e-14
-2.89833e-14
-2.90893e-14
-2.88764e-14
-2.83914e-14
-2.88697e-14
-2.89918e-14
-2.87298e-14
-2.8851e-14
-2.86359e-14
-1.67747e-14
-1.63688e-14
-1.63721e-14
-1.63208e-14
-1.6659e-14
-1.6589e-14
-1.66221e-14
-1.65967e-14
-1.63399e-14
-1.69307e-14
-1.66956e-14
-1.63886e-14
-1.6513e-14
-1.6736e-14
-1.60929e-14
-1.63731e-14
-1.69368e-14
-1.65438e-14
-1.64455e-14
-1.65946e-14
-1.63365e-14
-1.65038e-14
-1.63588e-14
-1.66802e-14
-1.60904e-14
-1.60873e-14
-1.64281e-14
-1.60757e-14
-1.64659e-14
-1.67763e-14
-1.62164e-14
-1.66445e-14
-1.64433e-14
-1.6396e-14
-1.68546e-14
-1.63026e-14
-1.65957e-14
-1.69743e-14
-1.66335e-14
-1.64375e-14
-1.63117e-14
-1.63526e-14
-1.59214e-14
-1.65939e-14
-1.5862e-14
-1.70511e-14
-1.67107e-14
-1.66015e-14
-1.65621e-14
-1.65943e-14
-1.63876e-14
-1.69034e-14
-1.65733e-14
-1.64708e-14
-1.69085e-14
-1.6576e-14
-1.64639e-14
-1.67822e-14
-1.62834e-14
-1.67876e-14
-7.86687e-15
-7.58225e-15
-7.66146e-15
-7.61974e-15
-7.39554e-15
-7.31495e-15
-7.62802e-15
-7.22686e-15
-7.48793e-15
-7.24956e-15
-7.35262e-15
-7.96618e-15
-7.52041e-15
-6.95724e-15
-7.95606e-15
-7.75171e-15
-7.16109e-15
-7.31434e-15
-7.30565e-15
-7.72027e-15
-8.05956e-15
-7.7039e-15
-7.73391e-15
-7.1575e-15
-7.86698e-15
-8.04e-15
-7.75551e-15
-8.10115e-15
-7.65627e-15
-7.54204e-15
-7.90688e-15
-7.45671e-15
-7.42721e-15
-7.90761e-15
-7.25718e-15
-7.94687e-15
-7.05126e-15
-7.11847e-15
-7.08456e-15
-7.77229e-15
-7.69065e-15
-7.532e-15
-8.34543e-15
-7.1885e-15
-8.1953e-15
-7.19937e-15
-7.17628e-15
-7.84274e-15
-7.58773e-15
-7.40119e-15
-7.7913e-15
-7.25686e-15
-7.19484e-15
-7.59453e-15
-7.59651e-15
-7.18824e-15
-7.40063e-15
-7.30407e-15
-7.89765e-15
-7.59307e-15
-2.29691e-15
-2.992e-15
-2.34411e-15
-2.81138e-15
-2.54474e-15
-2.90473e-15
-2.32812e-15
-3.07806e-15
-2.71443e-15
-2.54953e-15
-2.56938e-15
-2.42851e-15
-2.75536e-15
-3.05312e-15
-2.68506e-15
-2.63185e-15
-2.95e-15
-2.89419e-15
-2.86819e-15
-2.51889e-15
-2.44165e-15
-2.44923e-15
-2.56925e-15
-2.97788e-15
-2.81205e-15
-2.3568e-15
-2.46768e-15
-2.25804e-15
-2.45176e-15
-2.39533e-15
-2.85547e-15
-2.70478e-15
-2.95472e-15
-2.73954e-15
-2.65344e-15
-2.21588e-15
-2.86143e-15
-2.77181e-15
-3.35525e-15
-2.40333e-15
-2.64786e-15
-2.62462e-15
-2.20711e-15
-2.8709e-15
-2.38945e-15
-3.06346e-15
-2.91811e-15
-2.31085e-15
-2.76298e-15
-2.65884e-15
-2.46618e-15
-2.64114e-15
-2.43826e-15
-2.71093e-15
-2.16235e-15
-2.78571e-15
-3.10142e-15
-2.88213e-15
-2.40082e-15
-2.20482e-15
-9.88429e-17
-4.03576e-16
-4.11043e-16
-3.85066e-16
-5.33555e-16
-7.89249e-17
-5.45239e-16
-9.38812e-17
-4.40958e-16
-5.68454e-16
-5.89654e-16
-5.6501e-16
-1.02404e-16
-1.81628e-16
-3.40339e-17
1.99161e-17
-4.41494e-17
-3.26338e-16
-3.17572e-16
-5.21853e-16
-4.28249e-16
-3.74012e-17
-5.28079e-16
-4.13551e-17
1.26478e-16
-1.10046e-16
-5.07616e-16
-1.84944e-16
-7.88108e-16
-6.66782e-16
8.52556e-17
-4.28692e-16
-1.64087e-16
2.6786e-17
-7.80243e-16
-6.52402e-16
-6.07028e-16
-6.80667e-16
1.60106e-16
-6.2017e-16
-1.47695e-16
9.18821e-17
-4.01564e-16
-5.43725e-16
2.51057e-16
6.47906e-17
-2.58606e-16
-5.15138e-16
-5.70841e-16
-2.91381e-16
-4.92744e-16
-3.16332e-16
-9.71432e-16
-1.13517e-16
-5.31004e-16
-5.39071e-17
1.32624e-16
-1.11656e-16
-8.37934e-16
-4.86562e-16
4.49735e-16
6.08446e-16
8.11694e-16
7.08118e-16
8.08894e-16
4.00401e-16
9.14581e-16
-1.55382e-16
9.57789e-16
9.21665e-16
8.28518e-16
1.11189e-15
3.31467e-16
6.17478e-16
5.88232e-17
3.79899e-16
4.9514e-16
5.22658e-16
5.13072e-16
8.79022e-16
8.68834e-16
2.41908e-16
1.2994e-15
5.52669e-16
2.72066e-16
4.19355e-16
7.2722e-16
1.90222e-16
1.19732e-15
1.26469e-15
5.07766e-16
9.22297e-16
5.09164e-16
4.99364e-16
1.13878e-15
9.2375e-16
9.43887e-16
1.31179e-15
3.78716e-16
1.10179e-15
4.51734e-16
4.96952e-16
2.0732e-16
1.33551e-15
-2.7137e-16
4.88697e-16
9.7586e-16
7.46381e-16
8.42436e-16
6.99404e-16
6.5113e-16
6.2117e-16
1.15078e-15
5.39476e-16
6.87867e-16
2.65801e-16
5.46691e-16
4.93585e-16
9.54556e-16
5.51263e-16
4.11788e-16
1.20545e-15
8.16774e-16
8.62346e-16
1.26812e-15
9.78859e-16
9.48692e-16
1.7828e-15
1.13465e-15
5.28117e-16
6.83211e-16
4.2341e-16
1.00457e-15
6.07955e-16
1.56779e-15
1.00815e-15
7.84709e-16
1.30735e-15
1.46899e-15
1.06729e-15
5.39165e-16
1.00513e-15
6.5706e-16
8.91118e-16
1.16977e-15
1.11271e-15
1.36921e-15
1.3157e-15
7.44969e-16
-2.14869e-16
7.96298e-16
4.97677e-16
1.21747e-15
1.19162e-15
6.79734e-16
5.41875e-16
9.46267e-16
7.3359e-16
1.21875e-15
9.51367e-16
9.37484e-16
9.21643e-16
1.45307e-15
-3.11485e-17
1.45294e-15
9.72328e-16
1.03846e-15
8.40177e-16
9.93134e-16
8.63483e-16
1.01499e-15
1.26535e-15
5.03749e-16
4.74869e-16
1.17704e-15
9.57811e-16
1.21842e-15
1.06842e-15
1.21204e-15
4.61063e-16
1.59814e-15
1.05382e-15
1.02897e-15
9.03062e-16
4.34611e-16
1.15688e-15
7.68165e-16
7.49796e-16
1.02333e-15
1.46907e-15
1.29224e-15
1.0536e-15
1.18448e-15
1.20118e-15
6.5164e-16
1.17935e-15
7.97087e-16
6.35436e-16
6.36157e-16
6.08731e-16
1.30947e-15
1.02287e-15
6.83161e-16
6.67467e-16
1.08786e-15
7.89755e-16
5.67064e-16
1.16354e-15
1.08241e-15
1.88626e-15
1.0603e-15
1.73719e-15
2.01194e-16
7.48729e-16
8.67926e-16
1.31176e-15
9.66771e-16
1.18711e-15
1.18491e-15
6.60596e-16
1.49177e-15
1.04664e-15
8.08647e-16
1.90995e-15
1.01356e-15
9.25962e-16
3.14953e-16
5.72271e-16
6.48819e-16
8.86524e-16
1.11639e-15
4.75811e-16
8.10745e-16
1.34738e-15
7.96079e-16
8.36829e-16
9.60808e-16
8.28412e-16
1.1922e-15
1.41204e-15
9.0318e-16
1.19801e-15
4.18057e-16
1.03017e-15
1.28147e-15
8.00025e-16
9.6933e-16
9.3519e-16
3.21236e-16
7.41078e-16
8.80968e-16
1.2714e-15
6.88902e-16
1.30608e-15
9.55662e-16
2.13126e-16
1.7953e-15
1.10641e-15
7.04197e-16
1.4205e-15
7.6265e-16
9.49451e-16
1.30489e-15
1.4226e-15
6.55554e-16
1.39461e-15
1.16608e-15
8.45917e-16
1.05417e-15
8.59352e-16
1.01873e-15
-1.14053e-16
1.66508e-15
3.14547e-16
8.22282e-16
1.17924e-15
8.03242e-16
7.45915e-16
7.64504e-16
8.32389e-16
1.16222e-16
1.02092e-15
1.51173e-15
9.78108e-17
9.85036e-16
6.07495e-16
1.73642e-15
1.49807e-15
1.2075e-15
1.47539e-15
1.18808e-15
1.02454e-15
1.41238e-15
7.85588e-16
7.03974e-16
1.28688e-15
9.57922e-16
1.27783e-15
8.57364e-16
6.11998e-16
3.46076e-16
-3.34609e-16
9.89154e-16
1.0841e-15
5.93817e-16
1.17442e-15
9.65434e-16
7.87949e-16
1.16779e-15
4.12994e-16
1.43448e-15
6.46642e-16
9.26271e-16
6.742e-16
5.63589e-16
1.5091e-15
5.70651e-16
9.56006e-16
1.57502e-15
7.27891e-16
1.07499e-15
1.16015e-15
4.51635e-16
6.58257e-16
6.52668e-16
4.32744e-16
7.12183e-16
1.1059e-15
7.66294e-16
8.04399e-16
7.11664e-16
1.86563e-15
9.00337e-16
1.64984e-15
1.57218e-15
6.07283e-16
8.61265e-16
5.38232e-16
9.88645e-16
1.57171e-15
1.85382e-15
7.66347e-16
6.58711e-16
1.46997e-15
9.99917e-16
1.27778e-15
6.76919e-16
8.96979e-16
1.49819e-15
2.44207e-16
1.35035e-15
1.44133e-15
1.89527e-16
8.74057e-16
1.12225e-15
9.64941e-16
6.64662e-16
5.88047e-16
4.22546e-16
1.35484e-15
1.14157e-15
1.26746e-15
7.36183e-16
1.52307e-16
8.74695e-16
5.91812e-16
1.07149e-15
1.10634e-15
9.92302e-16
6.97028e-16
2.45894e-16
5.81763e-16
1.23963e-16
6.64161e-16
1.3419e-15
5.62819e-16
8.49411e-16
6.57525e-16
6.08763e-16
7.27373e-16
1.05268e-15
9.03943e-16
8.91447e-16
7.29966e-16
7.85116e-16
5.94293e-16
1.04429e-15
3.44054e-16
1.09214e-15
4.20061e-16
8.2219e-16
5.46064e-16
6.3586e-16
8.88585e-17
-4.35547e-16
5.47669e-16
4.65002e-16
7.38855e-16
3.70928e-16
5.86012e-16
3.11154e-16
5.60995e-16
1.124e-15
3.94401e-16
7.88455e-16
4.11147e-16
7.07541e-16
8.75909e-16
-1.7602e-16
1.17049e-15
-4.53354e-16
-3.91883e-17
1.58809e-15
1.0733e-15
1.19285e-15
5.0462e-16
6.51767e-16
1.0108e-15
6.35641e-16
5.06449e-16
1.36317e-16
1.05446e-15
6.49568e-16
1.12398e-15
3.65815e-16
1.03049e-15
1.50121e-16
7.11425e-16
3.31426e-16
5.70855e-16
8.96647e-16
1.25349e-15
1.03504e-15
6.12925e-16
6.78334e-16
1.05359e-15
5.53128e-16
9.16129e-16
2.3446e-16
2.16246e-16
2.68449e-16
5.57205e-16
6.86304e-16
9.37928e-16
6.86729e-16
1.11414e-15
4.5036e-16
1.41562e-15
2.61004e-16
6.06284e-16