/*--------------------------------*- C++ -*----------------------------------*\
| =========                 |                                                 |
| \\      /  F ield         | foam-extend: Open Source CFD                    |
|  \\    /   O peration     | Version:     4.0                                |
|   \\  /    A nd           | Web:         http://www.foam-extend.org         |
|    \\/     M anipulation  |                                                 |
\*---------------------------------------------------------------------------*/
FoamFile
{
    version     2.0;
    format      ascii;
    class       volScalarField;
    location    "400";
    object      cPlus;
}
// * * * * * * * * * * * * * * * * * * * * * * * * * * * * * * * * * * * * * //

dimensions      [0 0 0 0 0 0 0];

internalField   nonuniform List<scalar> 
6960
(
0.313716
0.3137
0.313681
0.313663
0.313646
0.313631
0.313618
0.313606
0.313596
0.313587
0.31358
0.313574
0.313568
0.313564
0.31356
0.313557
0.313554
0.313552
0.31355
0.313549
0.313547
0.313546
0.313545
0.313545
0.313544
0.313544
0.313543
0.313543
0.313543
0.313543
0.313543
0.313543
0.313543
0.313543
0.313544
0.313544
0.313545
0.313545
0.313546
0.313547
0.313549
0.31355
0.313552
0.313554
0.313557
0.31356
0.313564
0.313568
0.313574
0.31358
0.313587
0.313596
0.313606
0.313618
0.313631
0.313646
0.313663
0.313681
0.3137
0.313716
0.0988995
0.098889
0.0988762
0.0988637
0.0988523
0.0988421
0.098833
0.0988252
0.0988184
0.0988126
0.0988075
0.0988033
0.0987997
0.0987966
0.098794
0.0987919
0.0987901
0.0987886
0.0987873
0.0987863
0.0987854
0.0987847
0.0987841
0.0987836
0.0987832
0.098783
0.0987827
0.0987826
0.0987825
0.0987824
0.0987824
0.0987825
0.0987826
0.0987827
0.098783
0.0987832
0.0987836
0.0987841
0.0987847
0.0987854
0.0987863
0.0987873
0.0987886
0.0987901
0.0987919
0.098794
0.0987966
0.0987997
0.0988033
0.0988075
0.0988126
0.0988184
0.0988252
0.098833
0.0988421
0.0988523
0.0988637
0.0988762
0.098889
0.0988995
0.0374985
0.0374933
0.0374867
0.0374803
0.0374743
0.037469
0.0374643
0.0374602
0.0374567
0.0374537
0.0374511
0.0374488
0.037447
0.0374454
0.037444
0.0374429
0.0374419
0.0374412
0.0374405
0.03744
0.0374395
0.0374391
0.0374388
0.0374386
0.0374384
0.0374382
0.0374381
0.037438
0.037438
0.0374379
0.0374379
0.037438
0.037438
0.0374381
0.0374382
0.0374384
0.0374386
0.0374388
0.0374391
0.0374395
0.03744
0.0374405
0.0374412
0.0374419
0.0374429
0.037444
0.0374454
0.037447
0.0374488
0.0374511
0.0374537
0.0374567
0.0374602
0.0374643
0.037469
0.0374743
0.0374803
0.0374867
0.0374933
0.0374985
0.017069
0.0170673
0.0170648
0.0170623
0.0170599
0.0170578
0.017056
0.0170543
0.0170529
0.0170517
0.0170507
0.0170498
0.0170491
0.0170484
0.0170479
0.0170474
0.017047
0.0170467
0.0170465
0.0170462
0.0170461
0.0170459
0.0170458
0.0170457
0.0170456
0.0170455
0.0170455
0.0170455
0.0170454
0.0170454
0.0170454
0.0170454
0.0170455
0.0170455
0.0170455
0.0170456
0.0170457
0.0170458
0.0170459
0.0170461
0.0170462
0.0170465
0.0170467
0.017047
0.0170474
0.0170479
0.0170484
0.0170491
0.0170498
0.0170507
0.0170517
0.0170529
0.0170543
0.017056
0.0170578
0.0170599
0.0170623
0.0170648
0.0170673
0.017069
0.0100365
0.0100367
0.0100364
0.010036
0.0100357
0.0100353
0.010035
0.0100347
0.0100345
0.0100343
0.0100341
0.0100339
0.0100338
0.0100337
0.0100336
0.0100335
0.0100334
0.0100334
0.0100333
0.0100333
0.0100333
0.0100332
0.0100332
0.0100332
0.0100332
0.0100332
0.0100331
0.0100331
0.0100331
0.0100331
0.0100331
0.0100331
0.0100331
0.0100331
0.0100332
0.0100332
0.0100332
0.0100332
0.0100332
0.0100333
0.0100333
0.0100333
0.0100334
0.0100334
0.0100335
0.0100336
0.0100337
0.0100338
0.0100339
0.0100341
0.0100343
0.0100345
0.0100347
0.010035
0.0100353
0.0100357
0.010036
0.0100364
0.0100367
0.0100365
0.00764781
0.00764889
0.00764968
0.00765035
0.00765094
0.00765144
0.00765189
0.00765227
0.00765259
0.00765287
0.00765311
0.00765331
0.00765348
0.00765362
0.00765373
0.00765383
0.00765391
0.00765398
0.00765404
0.00765408
0.00765412
0.00765415
0.00765418
0.0076542
0.00765421
0.00765423
0.00765424
0.00765424
0.00765425
0.00765425
0.00765425
0.00765425
0.00765424
0.00765424
0.00765423
0.00765421
0.0076542
0.00765418
0.00765415
0.00765412
0.00765408
0.00765404
0.00765398
0.00765391
0.00765383
0.00765373
0.00765362
0.00765348
0.00765331
0.00765311
0.00765287
0.00765259
0.00765227
0.00765189
0.00765144
0.00765094
0.00765035
0.00764968
0.00764889
0.00764781
0.00687726
0.00687875
0.00688003
0.00688118
0.00688219
0.00688309
0.00688387
0.00688455
0.00688513
0.00688563
0.00688605
0.00688641
0.00688672
0.00688697
0.00688719
0.00688737
0.00688752
0.00688764
0.00688774
0.00688783
0.0068879
0.00688796
0.00688801
0.00688804
0.00688807
0.0068881
0.00688812
0.00688813
0.00688814
0.00688814
0.00688814
0.00688814
0.00688813
0.00688812
0.0068881
0.00688807
0.00688804
0.00688801
0.00688796
0.0068879
0.00688783
0.00688774
0.00688764
0.00688752
0.00688737
0.00688719
0.00688697
0.00688672
0.00688641
0.00688605
0.00688563
0.00688513
0.00688455
0.00688387
0.00688309
0.00688219
0.00688118
0.00688003
0.00687875
0.00687726
0.00666325
0.00666494
0.00666643
0.00666778
0.00666898
0.00667005
0.00667098
0.00667178
0.00667248
0.00667307
0.00667358
0.00667401
0.00667437
0.00667468
0.00667494
0.00667515
0.00667533
0.00667548
0.0066756
0.00667571
0.00667579
0.00667586
0.00667592
0.00667596
0.006676
0.00667603
0.00667605
0.00667607
0.00667608
0.00667608
0.00667608
0.00667608
0.00667607
0.00667605
0.00667603
0.006676
0.00667596
0.00667592
0.00667586
0.00667579
0.00667571
0.0066756
0.00667548
0.00667533
0.00667515
0.00667494
0.00667468
0.00667437
0.00667401
0.00667358
0.00667307
0.00667248
0.00667178
0.00667098
0.00667005
0.00666898
0.00666778
0.00666643
0.00666494
0.00666325
0.00663798
0.00663975
0.00664134
0.00664279
0.00664408
0.00664522
0.00664621
0.00664708
0.00664782
0.00664846
0.006649
0.00664947
0.00664986
0.00665019
0.00665046
0.00665069
0.00665089
0.00665105
0.00665118
0.00665129
0.00665138
0.00665146
0.00665152
0.00665157
0.00665161
0.00665164
0.00665167
0.00665168
0.00665169
0.0066517
0.0066517
0.00665169
0.00665168
0.00665167
0.00665164
0.00665161
0.00665157
0.00665152
0.00665146
0.00665138
0.00665129
0.00665118
0.00665105
0.00665089
0.00665069
0.00665046
0.00665019
0.00664986
0.00664947
0.006649
0.00664846
0.00664782
0.00664708
0.00664621
0.00664522
0.00664408
0.00664279
0.00664134
0.00663975
0.00663798
0.00667701
0.00667884
0.00668048
0.00668197
0.00668331
0.00668449
0.00668552
0.00668642
0.00668719
0.00668785
0.00668841
0.00668889
0.0066893
0.00668964
0.00668993
0.00669017
0.00669037
0.00669053
0.00669067
0.00669079
0.00669088
0.00669096
0.00669103
0.00669108
0.00669112
0.00669115
0.00669118
0.00669119
0.0066912
0.00669121
0.00669121
0.0066912
0.00669119
0.00669118
0.00669115
0.00669112
0.00669108
0.00669103
0.00669096
0.00669088
0.00669079
0.00669067
0.00669053
0.00669037
0.00669017
0.00668993
0.00668964
0.0066893
0.00668889
0.00668841
0.00668785
0.00668719
0.00668642
0.00668552
0.00668449
0.00668331
0.00668197
0.00668048
0.00667884
0.00667701
0.00673953
0.0067414
0.00674309
0.00674462
0.00674598
0.00674719
0.00674825
0.00674916
0.00674995
0.00675063
0.00675121
0.0067517
0.00675212
0.00675247
0.00675276
0.00675301
0.00675321
0.00675338
0.00675353
0.00675364
0.00675374
0.00675382
0.00675389
0.00675394
0.00675398
0.00675402
0.00675404
0.00675406
0.00675407
0.00675408
0.00675408
0.00675407
0.00675406
0.00675404
0.00675402
0.00675398
0.00675394
0.00675389
0.00675382
0.00675374
0.00675364
0.00675353
0.00675338
0.00675321
0.00675301
0.00675276
0.00675247
0.00675212
0.0067517
0.00675121
0.00675063
0.00674995
0.00674916
0.00674825
0.00674719
0.00674598
0.00674462
0.00674309
0.0067414
0.00673953
0.00681275
0.00681466
0.00681638
0.00681794
0.00681933
0.00682057
0.00682164
0.00682258
0.00682339
0.00682408
0.00682467
0.00682517
0.00682559
0.00682595
0.00682625
0.0068265
0.00682671
0.00682689
0.00682704
0.00682716
0.00682726
0.00682734
0.0068274
0.00682746
0.0068275
0.00682754
0.00682756
0.00682758
0.00682759
0.0068276
0.0068276
0.00682759
0.00682758
0.00682756
0.00682754
0.0068275
0.00682746
0.0068274
0.00682734
0.00682726
0.00682716
0.00682704
0.00682689
0.00682671
0.0068265
0.00682625
0.00682595
0.00682559
0.00682517
0.00682467
0.00682408
0.00682339
0.00682258
0.00682164
0.00682057
0.00681933
0.00681794
0.00681638
0.00681466
0.00681275
0.006893
0.00689495
0.0068967
0.00689829
0.00689972
0.00690097
0.00690207
0.00690303
0.00690385
0.00690456
0.00690516
0.00690567
0.00690611
0.00690647
0.00690678
0.00690703
0.00690725
0.00690743
0.00690758
0.0069077
0.0069078
0.00690789
0.00690795
0.00690801
0.00690805
0.00690809
0.00690812
0.00690813
0.00690815
0.00690815
0.00690815
0.00690815
0.00690813
0.00690812
0.00690809
0.00690805
0.00690801
0.00690795
0.00690789
0.0069078
0.0069077
0.00690758
0.00690743
0.00690725
0.00690703
0.00690678
0.00690647
0.00690611
0.00690567
0.00690516
0.00690456
0.00690385
0.00690303
0.00690207
0.00690097
0.00689972
0.00689829
0.0068967
0.00689495
0.006893
0.00697955
0.00698154
0.00698333
0.00698495
0.0069864
0.00698769
0.00698881
0.00698979
0.00699063
0.00699135
0.00699196
0.00699249
0.00699293
0.0069933
0.00699362
0.00699388
0.0069941
0.00699428
0.00699443
0.00699456
0.00699466
0.00699475
0.00699482
0.00699488
0.00699492
0.00699496
0.00699498
0.006995
0.00699502
0.00699502
0.00699502
0.00699502
0.006995
0.00699498
0.00699496
0.00699492
0.00699488
0.00699482
0.00699475
0.00699466
0.00699456
0.00699443
0.00699428
0.0069941
0.00699388
0.00699362
0.0069933
0.00699293
0.00699249
0.00699196
0.00699135
0.00699063
0.00698979
0.00698881
0.00698769
0.0069864
0.00698495
0.00698333
0.00698154
0.00697955
0.00707261
0.00707465
0.00707648
0.00707814
0.00707963
0.00708094
0.00708209
0.00708308
0.00708394
0.00708468
0.00708531
0.00708584
0.0070863
0.00708668
0.007087
0.00708727
0.00708749
0.00708768
0.00708784
0.00708797
0.00708807
0.00708816
0.00708823
0.00708829
0.00708834
0.00708837
0.0070884
0.00708842
0.00708843
0.00708844
0.00708844
0.00708843
0.00708842
0.0070884
0.00708837
0.00708834
0.00708829
0.00708823
0.00708816
0.00708807
0.00708797
0.00708784
0.00708768
0.00708749
0.00708727
0.007087
0.00708668
0.0070863
0.00708584
0.00708531
0.00708468
0.00708394
0.00708308
0.00708209
0.00708094
0.00707963
0.00707814
0.00707648
0.00707465
0.00707261
0.00717277
0.00717486
0.00717673
0.00717843
0.00717995
0.00718129
0.00718247
0.00718349
0.00718437
0.00718513
0.00718577
0.00718632
0.00718678
0.00718717
0.0071875
0.00718778
0.00718801
0.0071882
0.00718836
0.00718849
0.0071886
0.00718869
0.00718876
0.00718882
0.00718887
0.00718891
0.00718894
0.00718896
0.00718897
0.00718898
0.00718898
0.00718897
0.00718896
0.00718894
0.00718891
0.00718887
0.00718882
0.00718876
0.00718869
0.0071886
0.00718849
0.00718836
0.0071882
0.00718801
0.00718778
0.0071875
0.00718717
0.00718678
0.00718632
0.00718577
0.00718513
0.00718437
0.00718349
0.00718247
0.00718129
0.00717995
0.00717843
0.00717673
0.00717486
0.00717277
0.00728077
0.00728291
0.00728483
0.00728657
0.00728813
0.00728951
0.00729071
0.00729176
0.00729266
0.00729344
0.0072941
0.00729466
0.00729514
0.00729554
0.00729587
0.00729616
0.00729639
0.00729659
0.00729675
0.00729689
0.007297
0.0072971
0.00729717
0.00729723
0.00729728
0.00729732
0.00729735
0.00729737
0.00729738
0.00729739
0.00729739
0.00729738
0.00729737
0.00729735
0.00729732
0.00729728
0.00729723
0.00729717
0.0072971
0.007297
0.00729689
0.00729675
0.00729659
0.00729639
0.00729616
0.00729587
0.00729554
0.00729514
0.00729466
0.0072941
0.00729344
0.00729266
0.00729176
0.00729071
0.00728951
0.00728813
0.00728657
0.00728483
0.00728291
0.00728077
0.00739749
0.0073997
0.00740167
0.00740346
0.00740506
0.00740647
0.00740771
0.00740879
0.00740971
0.00741051
0.00741119
0.00741177
0.00741226
0.00741267
0.00741302
0.00741331
0.00741355
0.00741375
0.00741392
0.00741406
0.00741418
0.00741427
0.00741435
0.00741441
0.00741446
0.0074145
0.00741453
0.00741455
0.00741457
0.00741458
0.00741458
0.00741457
0.00741455
0.00741453
0.0074145
0.00741446
0.00741441
0.00741435
0.00741427
0.00741418
0.00741406
0.00741392
0.00741375
0.00741355
0.00741331
0.00741302
0.00741267
0.00741226
0.00741177
0.00741119
0.00741051
0.00740971
0.00740879
0.00740771
0.00740647
0.00740506
0.00740346
0.00740167
0.0073997
0.00739749
0.007524
0.00752628
0.00752831
0.00753015
0.00753179
0.00753325
0.00753452
0.00753563
0.00753658
0.0075374
0.0075381
0.0075387
0.0075392
0.00753962
0.00753998
0.00754028
0.00754053
0.00754074
0.00754091
0.00754106
0.00754118
0.00754128
0.00754136
0.00754142
0.00754147
0.00754151
0.00754154
0.00754157
0.00754158
0.00754159
0.00754159
0.00754158
0.00754157
0.00754154
0.00754151
0.00754147
0.00754142
0.00754136
0.00754128
0.00754118
0.00754106
0.00754091
0.00754074
0.00754053
0.00754028
0.00753998
0.00753962
0.0075392
0.0075387
0.0075381
0.0075374
0.00753658
0.00753563
0.00753452
0.00753325
0.00753179
0.00753015
0.00752831
0.00752628
0.007524
0.00766152
0.00766387
0.00766597
0.00766786
0.00766956
0.00767106
0.00767238
0.00767352
0.0076745
0.00767535
0.00767607
0.00767668
0.0076772
0.00767764
0.00767801
0.00767832
0.00767858
0.00767879
0.00767897
0.00767912
0.00767925
0.00767935
0.00767943
0.0076795
0.00767955
0.00767959
0.00767962
0.00767965
0.00767966
0.00767967
0.00767967
0.00767966
0.00767965
0.00767962
0.00767959
0.00767955
0.0076795
0.00767943
0.00767935
0.00767925
0.00767912
0.00767897
0.00767879
0.00767858
0.00767832
0.00767801
0.00767764
0.0076772
0.00767668
0.00767607
0.00767535
0.0076745
0.00767352
0.00767238
0.00767106
0.00766956
0.00766786
0.00766597
0.00766387
0.00766152
0.00781152
0.00781395
0.00781612
0.00781808
0.00781983
0.00782138
0.00782274
0.00782392
0.00782494
0.00782581
0.00782656
0.0078272
0.00782773
0.00782819
0.00782857
0.00782889
0.00782916
0.00782938
0.00782957
0.00782972
0.00782985
0.00782995
0.00783004
0.00783011
0.00783016
0.00783021
0.00783024
0.00783026
0.00783028
0.00783029
0.00783029
0.00783028
0.00783026
0.00783024
0.00783021
0.00783016
0.00783011
0.00783004
0.00782995
0.00782985
0.00782972
0.00782957
0.00782938
0.00782916
0.00782889
0.00782857
0.00782819
0.00782773
0.0078272
0.00782656
0.00782581
0.00782494
0.00782392
0.00782274
0.00782138
0.00781983
0.00781808
0.00781612
0.00781395
0.00781152
0.00797572
0.00797824
0.00798049
0.00798253
0.00798434
0.00798595
0.00798736
0.00798858
0.00798964
0.00799055
0.00799132
0.00799198
0.00799254
0.00799301
0.00799341
0.00799374
0.00799402
0.00799425
0.00799444
0.0079946
0.00799473
0.00799484
0.00799493
0.007995
0.00799506
0.0079951
0.00799514
0.00799516
0.00799518
0.00799519
0.00799519
0.00799518
0.00799516
0.00799514
0.0079951
0.00799506
0.007995
0.00799493
0.00799484
0.00799473
0.0079946
0.00799444
0.00799425
0.00799402
0.00799374
0.00799341
0.00799301
0.00799254
0.00799198
0.00799132
0.00799055
0.00798964
0.00798858
0.00798736
0.00798595
0.00798434
0.00798253
0.00798049
0.00797824
0.00797572
0.00815623
0.00815885
0.00816119
0.0081633
0.0081652
0.00816687
0.00816833
0.00816961
0.0081707
0.00817165
0.00817245
0.00817314
0.00817372
0.00817421
0.00817462
0.00817497
0.00817526
0.0081755
0.0081757
0.00817586
0.008176
0.00817612
0.00817621
0.00817628
0.00817634
0.00817639
0.00817643
0.00817645
0.00817647
0.00817648
0.00817648
0.00817647
0.00817645
0.00817643
0.00817639
0.00817634
0.00817628
0.00817621
0.00817612
0.008176
0.00817586
0.0081757
0.0081755
0.00817526
0.00817497
0.00817462
0.00817421
0.00817372
0.00817314
0.00817245
0.00817165
0.0081707
0.00816961
0.00816833
0.00816687
0.0081652
0.0081633
0.00816119
0.00815885
0.00815623
0.00835557
0.00835831
0.00836075
0.00836296
0.00836493
0.00836667
0.0083682
0.00836953
0.00837068
0.00837166
0.00837251
0.00837322
0.00837383
0.00837434
0.00837477
0.00837513
0.00837543
0.00837568
0.00837589
0.00837607
0.00837621
0.00837633
0.00837643
0.00837651
0.00837657
0.00837662
0.00837666
0.00837668
0.0083767
0.00837671
0.00837671
0.0083767
0.00837668
0.00837666
0.00837662
0.00837657
0.00837651
0.00837643
0.00837633
0.00837621
0.00837607
0.00837589
0.00837568
0.00837543
0.00837513
0.00837477
0.00837434
0.00837383
0.00837322
0.00837251
0.00837166
0.00837068
0.00836953
0.0083682
0.00836667
0.00836493
0.00836296
0.00836075
0.00835831
0.00835557
0.00857685
0.00857973
0.00858229
0.0085846
0.00858667
0.0085885
0.0085901
0.00859149
0.00859269
0.00859372
0.00859461
0.00859536
0.00859599
0.00859653
0.00859698
0.00859736
0.00859768
0.00859794
0.00859816
0.00859834
0.00859849
0.00859862
0.00859872
0.0085988
0.00859887
0.00859892
0.00859896
0.00859899
0.00859901
0.00859902
0.00859902
0.00859901
0.00859899
0.00859896
0.00859892
0.00859887
0.0085988
0.00859872
0.00859862
0.00859849
0.00859834
0.00859816
0.00859794
0.00859768
0.00859736
0.00859698
0.00859653
0.00859599
0.00859536
0.00859461
0.00859372
0.00859269
0.00859149
0.0085901
0.0085885
0.00858667
0.0085846
0.00858229
0.00857973
0.00857685
0.00882395
0.00882698
0.00882967
0.00883211
0.00883428
0.00883621
0.00883789
0.00883936
0.00884063
0.00884171
0.00884264
0.00884343
0.0088441
0.00884467
0.00884514
0.00884554
0.00884587
0.00884615
0.00884639
0.00884658
0.00884674
0.00884687
0.00884698
0.00884706
0.00884713
0.00884719
0.00884723
0.00884726
0.00884728
0.00884729
0.00884729
0.00884728
0.00884726
0.00884723
0.00884719
0.00884713
0.00884706
0.00884698
0.00884687
0.00884674
0.00884658
0.00884639
0.00884615
0.00884587
0.00884554
0.00884514
0.00884467
0.0088441
0.00884343
0.00884264
0.00884171
0.00884063
0.00883936
0.00883789
0.00883621
0.00883428
0.00883211
0.00882967
0.00882698
0.00882395
0.00910171
0.00910492
0.00910777
0.00911035
0.00911265
0.00911469
0.00911647
0.00911802
0.00911936
0.00912052
0.0091215
0.00912234
0.00912305
0.00912364
0.00912415
0.00912457
0.00912492
0.00912522
0.00912547
0.00912567
0.00912584
0.00912598
0.00912609
0.00912618
0.00912626
0.00912631
0.00912636
0.00912639
0.00912641
0.00912642
0.00912642
0.00912641
0.00912639
0.00912636
0.00912631
0.00912626
0.00912618
0.00912609
0.00912598
0.00912584
0.00912567
0.00912547
0.00912522
0.00912492
0.00912457
0.00912415
0.00912364
0.00912305
0.00912234
0.0091215
0.00912052
0.00911936
0.00911802
0.00911647
0.00911469
0.00911265
0.00911035
0.00910777
0.00910492
0.00910171
0.00941635
0.00941976
0.0094228
0.00942554
0.009428
0.00943017
0.00943207
0.00943372
0.00943515
0.00943637
0.00943742
0.00943831
0.00943907
0.00943971
0.00944025
0.0094407
0.00944107
0.00944139
0.00944165
0.00944187
0.00944205
0.0094422
0.00944232
0.00944242
0.00944249
0.00944256
0.0094426
0.00944264
0.00944266
0.00944267
0.00944267
0.00944266
0.00944264
0.0094426
0.00944256
0.00944249
0.00944242
0.00944232
0.0094422
0.00944205
0.00944187
0.00944165
0.00944139
0.00944107
0.0094407
0.00944025
0.00943971
0.00943907
0.00943831
0.00943742
0.00943637
0.00943515
0.00943372
0.00943207
0.00943017
0.009428
0.00942554
0.0094228
0.00941976
0.00941635
0.0097759
0.00977957
0.00978282
0.00978577
0.0097884
0.00979073
0.00979277
0.00979455
0.00979608
0.0097974
0.00979852
0.00979948
0.00980029
0.00980097
0.00980155
0.00980204
0.00980244
0.00980278
0.00980306
0.0098033
0.00980349
0.00980365
0.00980378
0.00980388
0.00980397
0.00980404
0.00980409
0.00980412
0.00980415
0.00980416
0.00980416
0.00980415
0.00980412
0.00980409
0.00980404
0.00980397
0.00980388
0.00980378
0.00980365
0.00980349
0.0098033
0.00980306
0.00980278
0.00980244
0.00980204
0.00980155
0.00980097
0.00980029
0.00979948
0.00979852
0.0097974
0.00979608
0.00979455
0.00979277
0.00979073
0.0097884
0.00978577
0.00978282
0.00977957
0.0097759
0.010191
0.010195
0.0101985
0.0102017
0.0102046
0.0102071
0.0102093
0.0102112
0.0102129
0.0102143
0.0102155
0.0102166
0.0102174
0.0102182
0.0102188
0.0102193
0.0102198
0.0102201
0.0102205
0.0102207
0.0102209
0.0102211
0.0102212
0.0102213
0.0102214
0.0102215
0.0102216
0.0102216
0.0102216
0.0102216
0.0102216
0.0102216
0.0102216
0.0102216
0.0102215
0.0102214
0.0102213
0.0102212
0.0102211
0.0102209
0.0102207
0.0102205
0.0102201
0.0102198
0.0102193
0.0102188
0.0102182
0.0102174
0.0102166
0.0102155
0.0102143
0.0102129
0.0102112
0.0102093
0.0102071
0.0102046
0.0102017
0.0101985
0.010195
0.010191
0.0106762
0.0106805
0.0106844
0.0106879
0.010691
0.0106937
0.0106962
0.0106983
0.0107001
0.0107017
0.010703
0.0107041
0.0107051
0.0107059
0.0107066
0.0107072
0.0107076
0.010708
0.0107084
0.0107087
0.0107089
0.0107091
0.0107092
0.0107094
0.0107095
0.0107095
0.0107096
0.0107096
0.0107097
0.0107097
0.0107097
0.0107097
0.0107096
0.0107096
0.0107095
0.0107095
0.0107094
0.0107092
0.0107091
0.0107089
0.0107087
0.0107084
0.010708
0.0107076
0.0107072
0.0107066
0.0107059
0.0107051
0.0107041
0.010703
0.0107017
0.0107001
0.0106983
0.0106962
0.0106937
0.010691
0.0106879
0.0106844
0.0106805
0.0106762
0.0112513
0.0112561
0.0112604
0.0112643
0.0112677
0.0112708
0.0112735
0.0112758
0.0112778
0.0112796
0.011281
0.0112823
0.0112834
0.0112843
0.011285
0.0112857
0.0112862
0.0112867
0.011287
0.0112873
0.0112876
0.0112878
0.011288
0.0112881
0.0112882
0.0112883
0.0112884
0.0112884
0.0112885
0.0112885
0.0112885
0.0112885
0.0112884
0.0112884
0.0112883
0.0112882
0.0112881
0.011288
0.0112878
0.0112876
0.0112873
0.011287
0.0112867
0.0112862
0.0112857
0.011285
0.0112843
0.0112834
0.0112823
0.011281
0.0112796
0.0112778
0.0112758
0.0112735
0.0112708
0.0112677
0.0112643
0.0112604
0.0112561
0.0112513
0.0119449
0.0119503
0.0119551
0.0119595
0.0119634
0.0119668
0.0119699
0.0119725
0.0119748
0.0119767
0.0119784
0.0119798
0.011981
0.0119821
0.0119829
0.0119836
0.0119842
0.0119847
0.0119852
0.0119855
0.0119858
0.011986
0.0119862
0.0119864
0.0119865
0.0119866
0.0119867
0.0119867
0.0119868
0.0119868
0.0119868
0.0119868
0.0119867
0.0119867
0.0119866
0.0119865
0.0119864
0.0119862
0.011986
0.0119858
0.0119855
0.0119852
0.0119847
0.0119842
0.0119836
0.0119829
0.0119821
0.011981
0.0119798
0.0119784
0.0119767
0.0119748
0.0119725
0.0119699
0.0119668
0.0119634
0.0119595
0.0119551
0.0119503
0.0119449
0.0127984
0.0128046
0.0128101
0.0128151
0.0128196
0.0128236
0.0128271
0.0128301
0.0128327
0.012835
0.0128369
0.0128385
0.0128399
0.0128411
0.0128421
0.0128429
0.0128436
0.0128442
0.0128447
0.0128451
0.0128454
0.0128457
0.0128459
0.0128461
0.0128462
0.0128463
0.0128464
0.0128465
0.0128465
0.0128465
0.0128465
0.0128465
0.0128465
0.0128464
0.0128463
0.0128462
0.0128461
0.0128459
0.0128457
0.0128454
0.0128451
0.0128447
0.0128442
0.0128436
0.0128429
0.0128421
0.0128411
0.0128399
0.0128385
0.0128369
0.012835
0.0128327
0.0128301
0.0128271
0.0128236
0.0128196
0.0128151
0.0128101
0.0128046
0.0127984
0.0138732
0.0138804
0.0138869
0.0138928
0.0138981
0.0139028
0.0139069
0.0139104
0.0139135
0.0139162
0.0139185
0.0139204
0.013922
0.0139234
0.0139246
0.0139256
0.0139264
0.0139271
0.0139277
0.0139281
0.0139285
0.0139288
0.0139291
0.0139293
0.0139295
0.0139296
0.0139297
0.0139298
0.0139299
0.0139299
0.0139299
0.0139299
0.0139298
0.0139297
0.0139296
0.0139295
0.0139293
0.0139291
0.0139288
0.0139285
0.0139281
0.0139277
0.0139271
0.0139264
0.0139256
0.0139246
0.0139234
0.013922
0.0139204
0.0139185
0.0139162
0.0139135
0.0139104
0.0139069
0.0139028
0.0138981
0.0138928
0.0138869
0.0138804
0.0138732
0.0152599
0.0152686
0.0152764
0.0152836
0.01529
0.0152957
0.0153007
0.015305
0.0153087
0.0153119
0.0153147
0.015317
0.015319
0.0153207
0.0153221
0.0153233
0.0153243
0.0153251
0.0153258
0.0153264
0.0153269
0.0153273
0.0153276
0.0153279
0.0153281
0.0153282
0.0153284
0.0153285
0.0153285
0.0153285
0.0153285
0.0153285
0.0153285
0.0153284
0.0153282
0.0153281
0.0153279
0.0153276
0.0153273
0.0153269
0.0153264
0.0153258
0.0153251
0.0153243
0.0153233
0.0153221
0.0153207
0.015319
0.015317
0.0153147
0.0153119
0.0153087
0.015305
0.0153007
0.0152957
0.01529
0.0152836
0.0152764
0.0152686
0.0152599
0.0170881
0.0170989
0.0171086
0.0171175
0.0171254
0.0171325
0.0171387
0.0171441
0.0171487
0.0171527
0.0171562
0.0171591
0.0171616
0.0171637
0.0171654
0.0171669
0.0171681
0.0171692
0.01717
0.0171708
0.0171713
0.0171718
0.0171722
0.0171726
0.0171728
0.017173
0.0171732
0.0171733
0.0171734
0.0171734
0.0171734
0.0171734
0.0171733
0.0171732
0.017173
0.0171728
0.0171726
0.0171722
0.0171718
0.0171713
0.0171708
0.01717
0.0171692
0.0171681
0.0171669
0.0171654
0.0171637
0.0171616
0.0171591
0.0171562
0.0171527
0.0171487
0.0171441
0.0171387
0.0171325
0.0171254
0.0171175
0.0171086
0.0170989
0.0170881
0.0195286
0.0195421
0.0195545
0.0195657
0.0195758
0.0195848
0.0195926
0.0195995
0.0196054
0.0196104
0.0196148
0.0196185
0.0196216
0.0196243
0.0196265
0.0196284
0.01963
0.0196313
0.0196324
0.0196333
0.0196341
0.0196347
0.0196352
0.0196356
0.0196359
0.0196362
0.0196364
0.0196365
0.0196366
0.0196367
0.0196367
0.0196366
0.0196365
0.0196364
0.0196362
0.0196359
0.0196356
0.0196352
0.0196347
0.0196341
0.0196333
0.0196324
0.0196313
0.01963
0.0196284
0.0196265
0.0196243
0.0196216
0.0196185
0.0196148
0.0196104
0.0196054
0.0195995
0.0195926
0.0195848
0.0195758
0.0195657
0.0195545
0.0195421
0.0195286
0.0227771
0.0227943
0.02281
0.0228244
0.0228372
0.0228486
0.0228586
0.0228674
0.0228749
0.0228814
0.0228869
0.0228916
0.0228956
0.022899
0.0229019
0.0229043
0.0229063
0.022908
0.0229094
0.0229105
0.0229115
0.0229123
0.0229129
0.0229135
0.0229139
0.0229142
0.0229145
0.0229147
0.0229148
0.0229148
0.0229148
0.0229148
0.0229147
0.0229145
0.0229142
0.0229139
0.0229135
0.0229129
0.0229123
0.0229115
0.0229105
0.0229094
0.022908
0.0229063
0.0229043
0.0229019
0.022899
0.0228956
0.0228916
0.0228869
0.0228814
0.0228749
0.0228674
0.0228586
0.0228486
0.0228372
0.0228244
0.02281
0.0227943
0.0227771
0.0270104
0.0270321
0.0270519
0.02707
0.0270862
0.0271006
0.0271132
0.0271242
0.0271337
0.0271418
0.0271488
0.0271548
0.0271598
0.0271641
0.0271677
0.0271708
0.0271733
0.0271754
0.0271772
0.0271787
0.0271799
0.0271809
0.0271817
0.0271824
0.0271829
0.0271833
0.0271836
0.0271839
0.027184
0.0271841
0.0271841
0.027184
0.0271839
0.0271836
0.0271833
0.0271829
0.0271824
0.0271817
0.0271809
0.0271799
0.0271787
0.0271772
0.0271754
0.0271733
0.0271708
0.0271677
0.0271641
0.0271598
0.0271548
0.0271488
0.0271418
0.0271337
0.0271242
0.0271132
0.0271006
0.0270862
0.02707
0.0270519
0.0270321
0.0270104
0.0323261
0.0323528
0.0323772
0.0323994
0.0324193
0.032437
0.0324525
0.032466
0.0324777
0.0324877
0.0324963
0.0325036
0.0325099
0.0325151
0.0325196
0.0325233
0.0325264
0.032529
0.0325312
0.032533
0.0325345
0.0325357
0.0325368
0.0325376
0.0325382
0.0325388
0.0325392
0.0325394
0.0325396
0.0325397
0.0325397
0.0325396
0.0325394
0.0325392
0.0325388
0.0325382
0.0325376
0.0325368
0.0325357
0.0325345
0.032533
0.0325312
0.032529
0.0325264
0.0325233
0.0325196
0.0325151
0.0325099
0.0325036
0.0324963
0.0324877
0.0324777
0.032466
0.0324525
0.032437
0.0324193
0.0323994
0.0323772
0.0323528
0.0323261
0.0387005
0.0387324
0.0387615
0.0387879
0.0388116
0.0388326
0.038851
0.038867
0.0388809
0.0388929
0.0389031
0.0389118
0.0389192
0.0389255
0.0389308
0.0389352
0.038939
0.0389421
0.0389447
0.0389468
0.0389486
0.0389501
0.0389513
0.0389523
0.0389531
0.0389537
0.0389542
0.0389545
0.0389547
0.0389548
0.0389548
0.0389547
0.0389545
0.0389542
0.0389537
0.0389531
0.0389523
0.0389513
0.0389501
0.0389486
0.0389468
0.0389447
0.0389421
0.038939
0.0389352
0.0389308
0.0389255
0.0389192
0.0389118
0.0389031
0.0388929
0.0388809
0.038867
0.038851
0.0388326
0.0388116
0.0387879
0.0387615
0.0387324
0.0387005
0.0459973
0.0460343
0.0460678
0.0460982
0.0461254
0.0461496
0.0461707
0.0461892
0.0462052
0.0462189
0.0462307
0.0462408
0.0462493
0.0462565
0.0462626
0.0462678
0.0462721
0.0462757
0.0462787
0.0462812
0.0462832
0.046285
0.0462864
0.0462875
0.0462884
0.0462891
0.0462897
0.0462901
0.0462903
0.0462905
0.0462905
0.0462903
0.0462901
0.0462897
0.0462891
0.0462884
0.0462875
0.0462864
0.046285
0.0462832
0.0462812
0.0462787
0.0462757
0.0462721
0.0462678
0.0462626
0.0462565
0.0462493
0.0462408
0.0462307
0.0462189
0.0462052
0.0461892
0.0461707
0.0461496
0.0461254
0.0460982
0.0460678
0.0460343
0.0459973
0.0540225
0.0540641
0.0541017
0.0541358
0.0541663
0.0541933
0.054217
0.0542376
0.0542555
0.054271
0.0542842
0.0542954
0.054305
0.0543131
0.05432
0.0543258
0.0543306
0.0543347
0.054338
0.0543409
0.0543432
0.0543451
0.0543467
0.054348
0.054349
0.0543498
0.0543504
0.0543509
0.0543512
0.0543513
0.0543513
0.0543512
0.0543509
0.0543504
0.0543498
0.054349
0.054348
0.0543467
0.0543451
0.0543432
0.0543409
0.054338
0.0543347
0.0543306
0.0543258
0.05432
0.0543131
0.054305
0.0542954
0.0542842
0.054271
0.0542555
0.0542376
0.054217
0.0541933
0.0541663
0.0541358
0.0541017
0.0540641
0.0540225
0.0625873
0.0626332
0.0626746
0.062712
0.0627454
0.0627751
0.0628011
0.0628238
0.0628434
0.0628604
0.0628749
0.0628873
0.0628978
0.0629068
0.0629143
0.0629207
0.062926
0.0629305
0.0629342
0.0629373
0.0629399
0.0629421
0.0629438
0.0629452
0.0629464
0.0629473
0.062948
0.0629485
0.0629488
0.0629489
0.0629489
0.0629488
0.0629485
0.062948
0.0629473
0.0629464
0.0629452
0.0629438
0.0629421
0.0629399
0.0629373
0.0629342
0.0629305
0.062926
0.0629207
0.0629143
0.0629068
0.0628978
0.0628873
0.0628749
0.0628604
0.0628434
0.0628238
0.0628011
0.0627751
0.0627454
0.062712
0.0626746
0.0626332
0.0625873
0.0715458
0.0715957
0.0716406
0.0716811
0.0717173
0.0717493
0.0717775
0.071802
0.0718233
0.0718417
0.0718575
0.0718709
0.0718824
0.0718921
0.0719003
0.0719072
0.0719131
0.0719179
0.071922
0.0719254
0.0719282
0.0719306
0.0719325
0.071934
0.0719353
0.0719363
0.071937
0.0719376
0.0719379
0.0719381
0.0719381
0.0719379
0.0719376
0.071937
0.0719363
0.0719353
0.071934
0.0719325
0.0719306
0.0719282
0.0719254
0.071922
0.0719179
0.0719131
0.0719072
0.0719003
0.0718921
0.0718824
0.0718709
0.0718575
0.0718417
0.0718233
0.071802
0.0717775
0.0717493
0.0717173
0.0716811
0.0716406
0.0715957
0.0715458
0.0808008
0.0808545
0.0809027
0.0809461
0.0809849
0.0810193
0.0810495
0.0810759
0.0810988
0.0811185
0.0811355
0.0811499
0.0811623
0.0811728
0.0811816
0.0811891
0.0811954
0.0812007
0.0812051
0.0812088
0.0812118
0.0812143
0.0812164
0.0812181
0.0812195
0.0812205
0.0812213
0.0812219
0.0812223
0.0812225
0.0812225
0.0812223
0.0812219
0.0812213
0.0812205
0.0812195
0.0812181
0.0812164
0.0812143
0.0812118
0.0812088
0.0812051
0.0812007
0.0811954
0.0811891
0.0811816