/*--------------------------------*- C++ -*----------------------------------*\
| =========                 |                                                 |
| \\      /  F ield         | foam-extend: Open Source CFD                    |
|  \\    /   O peration     | Version:     4.0                                |
|   \\  /    A nd           | Web:         http://www.foam-extend.org         |
|    \\/     M anipulation  |                                                 |
\*---------------------------------------------------------------------------*/
FoamFile
{
    version     2.0;
    format      ascii;
    class       volScalarField;
    location    "250";
    object      psiE;
}
// * * * * * * * * * * * * * * * * * * * * * * * * * * * * * * * * * * * * * //

dimensions      [0 0 0 0 0 0 0];

internalField   nonuniform List<scalar> 
6960
(
0.368809
0.368831
0.368852
0.368869
0.368882
0.368892
0.368899
0.368904
0.368908
0.368911
0.368913
0.368915
0.368916
0.368918
0.368918
0.368919
0.36892
0.368921
0.368921
0.368922
0.368922
0.368922
0.368923
0.368923
0.368923
0.368923
0.368924
0.368924
0.368924
0.368924
0.368924
0.368924
0.368924
0.368924
0.368923
0.368923
0.368923
0.368923
0.368922
0.368922
0.368922
0.368921
0.368921
0.36892
0.368919
0.368918
0.368918
0.368916
0.368915
0.368913
0.368911
0.368908
0.368904
0.368899
0.368892
0.368882
0.368869
0.368852
0.368831
0.368809
0.977607
0.977696
0.977781
0.97785
0.977903
0.977941
0.97797
0.97799
0.978006
0.978017
0.978025
0.978032
0.978037
0.978041
0.978044
0.978047
0.978049
0.978051
0.978053
0.978054
0.978056
0.978057
0.978058
0.978059
0.97806
0.97806
0.978061
0.978061
0.978061
0.978061
0.978061
0.978061
0.978061
0.978061
0.97806
0.97806
0.978059
0.978058
0.978057
0.978056
0.978054
0.978053
0.978051
0.978049
0.978047
0.978044
0.978041
0.978037
0.978032
0.978025
0.978017
0.978006
0.97799
0.97797
0.977941
0.977903
0.97785
0.977781
0.977696
0.977607
1.56571
1.56588
1.56605
1.56618
1.56628
1.56635
1.5664
1.56644
1.56647
1.56649
1.56651
1.56652
1.56653
1.56654
1.56654
1.56655
1.56655
1.56656
1.56656
1.56656
1.56656
1.56657
1.56657
1.56657
1.56657
1.56657
1.56657
1.56657
1.56657
1.56657
1.56657
1.56657
1.56657
1.56657
1.56657
1.56657
1.56657
1.56657
1.56657
1.56656
1.56656
1.56656
1.56656
1.56655
1.56655
1.56654
1.56654
1.56653
1.56652
1.56651
1.56649
1.56647
1.56644
1.5664
1.56635
1.56628
1.56618
1.56605
1.56588
1.56571
2.15621
2.15647
2.15671
2.15691
2.15706
2.15717
2.15725
2.15731
2.15735
2.15739
2.15741
2.15743
2.15744
2.15745
2.15746
2.15747
2.15747
2.15748
2.15748
2.15749
2.15749
2.15749
2.1575
2.1575
2.1575
2.1575
2.1575
2.1575
2.1575
2.1575
2.1575
2.1575
2.1575
2.1575
2.1575
2.1575
2.1575
2.1575
2.15749
2.15749
2.15749
2.15748
2.15748
2.15747
2.15747
2.15746
2.15745
2.15744
2.15743
2.15741
2.15739
2.15735
2.15731
2.15725
2.15717
2.15706
2.15691
2.15671
2.15647
2.15621
2.75501
2.75535
2.75568
2.75595
2.75615
2.7563
2.75641
2.75649
2.75654
2.75659
2.75662
2.75664
2.75666
2.75667
2.75669
2.7567
2.7567
2.75671
2.75672
2.75672
2.75673
2.75673
2.75673
2.75674
2.75674
2.75674
2.75674
2.75674
2.75674
2.75674
2.75674
2.75674
2.75674
2.75674
2.75674
2.75674
2.75674
2.75673
2.75673
2.75673
2.75672
2.75672
2.75671
2.7567
2.7567
2.75669
2.75667
2.75666
2.75664
2.75662
2.75659
2.75654
2.75649
2.75641
2.7563
2.75615
2.75595
2.75568
2.75535
2.75501
3.36347
3.3639
3.36432
3.36465
3.36491
3.3651
3.36523
3.36533
3.36541
3.36546
3.3655
3.36553
3.36555
3.36557
3.36559
3.3656
3.36561
3.36562
3.36562
3.36563
3.36564
3.36564
3.36564
3.36565
3.36565
3.36565
3.36566
3.36566
3.36566
3.36566
3.36566
3.36566
3.36566
3.36566
3.36565
3.36565
3.36565
3.36564
3.36564
3.36564
3.36563
3.36562
3.36562
3.36561
3.3656
3.36559
3.36557
3.36555
3.36553
3.3655
3.36546
3.36541
3.36533
3.36523
3.3651
3.36491
3.36465
3.36432
3.3639
3.36347
3.98176
3.98227
3.98278
3.98318
3.98349
3.98371
3.98388
3.984
3.98409
3.98415
3.9842
3.98424
3.98426
3.98429
3.9843
3.98432
3.98433
3.98434
3.98435
3.98436
3.98436
3.98437
3.98437
3.98438
3.98438
3.98439
3.98439
3.98439
3.98439
3.98439
3.98439
3.98439
3.98439
3.98439
3.98439
3.98438
3.98438
3.98437
3.98437
3.98436
3.98436
3.98435
3.98434
3.98433
3.98432
3.9843
3.98429
3.98426
3.98424
3.9842
3.98415
3.98409
3.984
3.98388
3.98371
3.98349
3.98318
3.98278
3.98227
3.98176
4.60964
4.61024
4.61083
4.6113
4.61166
4.61193
4.61212
4.61227
4.61237
4.61244
4.6125
4.61254
4.61257
4.6126
4.61262
4.61264
4.61265
4.61266
4.61268
4.61268
4.61269
4.6127
4.6127
4.61271
4.61271
4.61272
4.61272
4.61272
4.61272
4.61272
4.61272
4.61272
4.61272
4.61272
4.61272
4.61271
4.61271
4.6127
4.6127
4.61269
4.61268
4.61268
4.61266
4.61265
4.61264
4.61262
4.6126
4.61257
4.61254
4.6125
4.61244
4.61237
4.61227
4.61212
4.61193
4.61166
4.6113
4.61083
4.61024
4.60964
5.24677
5.24746
5.24813
5.24867
5.24909
5.24939
5.24961
5.24978
5.24989
5.24998
5.25004
5.25009
5.25013
5.25016
5.25018
5.2502
5.25022
5.25023
5.25025
5.25026
5.25026
5.25027
5.25028
5.25028
5.25029
5.25029
5.2503
5.2503
5.2503
5.2503
5.2503
5.2503
5.2503
5.2503
5.25029
5.25029
5.25028
5.25028
5.25027
5.25026
5.25026
5.25025
5.25023
5.25022
5.2502
5.25018
5.25016
5.25013
5.25009
5.25004
5.24998
5.24989
5.24978
5.24961
5.24939
5.24909
5.24867
5.24813
5.24746
5.24677
5.89271
5.89348
5.89424
5.89485
5.89531
5.89565
5.8959
5.89609
5.89622
5.89632
5.89639
5.89644
5.89649
5.89652
5.89655
5.89657
5.89659
5.8966
5.89662
5.89663
5.89664
5.89665
5.89666
5.89666
5.89667
5.89667
5.89667
5.89668
5.89668
5.89668
5.89668
5.89668
5.89668
5.89667
5.89667
5.89667
5.89666
5.89666
5.89665
5.89664
5.89663
5.89662
5.8966
5.89659
5.89657
5.89655
5.89652
5.89649
5.89644
5.89639
5.89632
5.89622
5.89609
5.8959
5.89565
5.89531
5.89485
5.89424
5.89348
5.89271
6.54692
6.54778
6.54862
6.54929
6.54981
6.55019
6.55047
6.55067
6.55082
6.55093
6.55101
6.55107
6.55112
6.55116
6.55119
6.55121
6.55123
6.55125
6.55126
6.55128
6.55129
6.5513
6.55131
6.55131
6.55132
6.55132
6.55133
6.55133
6.55133
6.55133
6.55133
6.55133
6.55133
6.55133
6.55132
6.55132
6.55131
6.55131
6.5513
6.55129
6.55128
6.55126
6.55125
6.55123
6.55121
6.55119
6.55116
6.55112
6.55107
6.55101
6.55093
6.55082
6.55067
6.55047
6.55019
6.54981
6.54929
6.54862
6.54778
6.54692
7.2088
7.20974
7.21066
7.21141
7.21197
7.21239
7.2127
7.21292
7.21308
7.2132
7.21329
7.21336
7.21341
7.21345
7.21348
7.21351
7.21353
7.21355
7.21357
7.21359
7.2136
7.21361
7.21362
7.21363
7.21363
7.21364
7.21364
7.21365
7.21365
7.21365
7.21365
7.21365
7.21365
7.21364
7.21364
7.21363
7.21363
7.21362
7.21361
7.2136
7.21359
7.21357
7.21355
7.21353
7.21351
7.21348
7.21345
7.21341
7.21336
7.21329
7.2132
7.21308
7.21292
7.2127
7.21239
7.21197
7.21141
7.21066
7.20974
7.2088
7.87764
7.87866
7.87966
7.88047
7.88108
7.88154
7.88187
7.88211
7.88229
7.88242
7.88252
7.88259
7.88265
7.88269
7.88273
7.88276
7.88279
7.88281
7.88283
7.88284
7.88286
7.88287
7.88288
7.88289
7.88289
7.8829
7.88291
7.88291
7.88291
7.88291
7.88291
7.88291
7.88291
7.88291
7.8829
7.88289
7.88289
7.88288
7.88287
7.88286
7.88284
7.88283
7.88281
7.88279
7.88276
7.88273
7.88269
7.88265
7.88259
7.88252
7.88242
7.88229
7.88211
7.88187
7.88154
7.88108
7.88047
7.87966
7.87866
7.87764
8.55261
8.55371
8.55478
8.55565
8.55632
8.55681
8.55717
8.55743
8.55762
8.55776
8.55787
8.55795
8.55801
8.55806
8.5581
8.55813
8.55816
8.55818
8.5582
8.55822
8.55823
8.55825
8.55826
8.55827
8.55828
8.55828
8.55829
8.55829
8.5583
8.5583
8.5583
8.5583
8.55829
8.55829
8.55828
8.55828
8.55827
8.55826
8.55825
8.55823
8.55822
8.5582
8.55818
8.55816
8.55813
8.5581
8.55806
8.55801
8.55795
8.55787
8.55776
8.55762
8.55743
8.55717
8.55681
8.55632
8.55565
8.55478
8.55371
8.55261
9.23275
9.23393
9.23508
9.23602
9.23672
9.23725
9.23764
9.23792
9.23812
9.23827
9.23838
9.23847
9.23854
9.23859
9.23863
9.23867
9.2387
9.23872
9.23875
9.23876
9.23878
9.2388
9.23881
9.23882
9.23883
9.23883
9.23884
9.23884
9.23885
9.23885
9.23885
9.23885
9.23884
9.23884
9.23883
9.23883
9.23882
9.23881
9.2388
9.23878
9.23876
9.23875
9.23872
9.2387
9.23867
9.23863
9.23859
9.23854
9.23847
9.23838
9.23827
9.23812
9.23792
9.23764
9.23725
9.23672
9.23602
9.23508
9.23393
9.23275
9.91699
9.91824
9.91947
9.92046
9.92121
9.92177
9.92218
9.92248
9.92269
9.92285
9.92298
9.92307
9.92314
9.92319
9.92324
9.92328
9.92331
9.92334
9.92336
9.92338
9.9234
9.92342
9.92343
9.92344
9.92345
9.92346
9.92346
9.92347
9.92347
9.92347
9.92347
9.92347
9.92347
9.92346
9.92346
9.92345
9.92344
9.92343
9.92342
9.9234
9.92338
9.92336
9.92334
9.92331
9.92328
9.92324
9.92319
9.92314
9.92307
9.92298
9.92285
9.92269
9.92248
9.92218
9.92177
9.92121
9.92046
9.91947
9.91824
9.91699
10.6041
10.6054
10.6067
10.6077
10.6085
10.6091
10.6095
10.6098
10.6101
10.6102
10.6104
10.6105
10.6106
10.6106
10.6107
10.6107
10.6107
10.6108
10.6108
10.6108
10.6108
10.6108
10.6109
10.6109
10.6109
10.6109
10.6109
10.6109
10.6109
10.6109
10.6109
10.6109
10.6109
10.6109
10.6109
10.6109
10.6109
10.6109
10.6108
10.6108
10.6108
10.6108
10.6108
10.6107
10.6107
10.6107
10.6106
10.6106
10.6105
10.6104
10.6102
10.6101
10.6098
10.6095
10.6091
10.6085
10.6077
10.6067
10.6054
10.6041
11.2925
11.2939
11.2952
11.2963
11.2972
11.2978
11.2983
11.2986
11.2988
11.299
11.2991
11.2992
11.2993
11.2994
11.2994
11.2995
11.2995
11.2996
11.2996
11.2996
11.2996
11.2996
11.2997
11.2997
11.2997
11.2997
11.2997
11.2997
11.2997
11.2997
11.2997
11.2997
11.2997
11.2997
11.2997
11.2997
11.2997
11.2997
11.2996
11.2996
11.2996
11.2996
11.2996
11.2995
11.2995
11.2994
11.2994
11.2993
11.2992
11.2991
11.299
11.2988
11.2986
11.2983
11.2978
11.2972
11.2963
11.2952
11.2939
11.2925
11.9807
11.9821
11.9835
11.9847
11.9856
11.9862
11.9867
11.987
11.9873
11.9875
11.9876
11.9877
11.9878
11.9879
11.9879
11.988
11.988
11.988
11.9881
11.9881
11.9881
11.9881
11.9881
11.9882
11.9882
11.9882
11.9882
11.9882
11.9882
11.9882
11.9882
11.9882
11.9882
11.9882
11.9882
11.9882
11.9882
11.9881
11.9881
11.9881
11.9881
11.9881
11.988
11.988
11.988
11.9879
11.9879
11.9878
11.9877
11.9876
11.9875
11.9873
11.987
11.9867
11.9862
11.9856
11.9847
11.9835
11.9821
11.9807
12.6667
12.6682
12.6696
12.6708
12.6717
12.6724
12.6729
12.6732
12.6735
12.6737
12.6738
12.6739
12.674
12.6741
12.6742
12.6742
12.6743
12.6743
12.6743
12.6743
12.6744
12.6744
12.6744
12.6744
12.6744
12.6744
12.6745
12.6745
12.6745
12.6745
12.6745
12.6745
12.6745
12.6745
12.6744
12.6744
12.6744
12.6744
12.6744
12.6744
12.6743
12.6743
12.6743
12.6743
12.6742
12.6742
12.6741
12.674
12.6739
12.6738
12.6737
12.6735
12.6732
12.6729
12.6724
12.6717
12.6708
12.6696
12.6682
12.6667
13.3482
13.3498
13.3513
13.3525
13.3534
13.3541
13.3546
13.355
13.3553
13.3555
13.3556
13.3557
13.3558
13.3559
13.356
13.356
13.3561
13.3561
13.3561
13.3562
13.3562
13.3562
13.3562
13.3562
13.3563
13.3563
13.3563
13.3563
13.3563
13.3563
13.3563
13.3563
13.3563
13.3563
13.3563
13.3563
13.3562
13.3562
13.3562
13.3562
13.3562
13.3561
13.3561
13.3561
13.356
13.356
13.3559
13.3558
13.3557
13.3556
13.3555
13.3553
13.355
13.3546
13.3541
13.3534
13.3525
13.3513
13.3498
13.3482
14.0228
14.0244
14.026
14.0272
14.0282
14.0289
14.0294
14.0298
14.03
14.0303
14.0304
14.0305
14.0306
14.0307
14.0308
14.0308
14.0309
14.0309
14.0309
14.031
14.031
14.031
14.031
14.0311
14.0311
14.0311
14.0311
14.0311
14.0311
14.0311
14.0311
14.0311
14.0311
14.0311
14.0311
14.0311
14.0311
14.031
14.031
14.031
14.031
14.0309
14.0309
14.0309
14.0308
14.0308
14.0307
14.0306
14.0305
14.0304
14.0303
14.03
14.0298
14.0294
14.0289
14.0282
14.0272
14.026
14.0244
14.0228
14.6875
14.6891
14.6907
14.692
14.6929
14.6936
14.6942
14.6945
14.6948
14.695
14.6952
14.6953
14.6954
14.6955
14.6956
14.6956
14.6957
14.6957
14.6958
14.6958
14.6958
14.6958
14.6959
14.6959
14.6959
14.6959
14.6959
14.6959
14.6959
14.6959
14.6959
14.6959
14.6959
14.6959
14.6959
14.6959
14.6959
14.6959
14.6958
14.6958
14.6958
14.6958
14.6957
14.6957
14.6956
14.6956
14.6955
14.6954
14.6953
14.6952
14.695
14.6948
14.6945
14.6942
14.6936
14.6929
14.692
14.6907
14.6891
14.6875
15.3388
15.3404
15.342
15.3432
15.3442
15.3449
15.3455
15.3459
15.3461
15.3464
15.3465
15.3467
15.3468
15.3468
15.3469
15.347
15.347
15.3471
15.3471
15.3471
15.3472
15.3472
15.3472
15.3472
15.3472
15.3473
15.3473
15.3473
15.3473
15.3473
15.3473
15.3473
15.3473
15.3473
15.3473
15.3472
15.3472
15.3472
15.3472
15.3472
15.3471
15.3471
15.3471
15.347
15.347
15.3469
15.3468
15.3468
15.3467
15.3465
15.3464
15.3461
15.3459
15.3455
15.3449
15.3442
15.3432
15.342
15.3404
15.3388
15.9725
15.9741
15.9757
15.977
15.9779
15.9786
15.9792
15.9796
15.9799
15.9801
15.9802
15.9804
15.9805
15.9806
15.9806
15.9807
15.9807
15.9808
15.9808
15.9809
15.9809
15.9809
15.981
15.981
15.981
15.981
15.981
15.981
15.981
15.981
15.981
15.981
15.981
15.981
15.981
15.981
15.981
15.981
15.9809
15.9809
15.9809
15.9808
15.9808
15.9807
15.9807
15.9806
15.9806
15.9805
15.9804
15.9802
15.9801
15.9799
15.9796
15.9792
15.9786
15.9779
15.977
15.9757
15.9741
15.9725
16.5839
16.5855
16.587
16.5882
16.5892
16.5899
16.5904
16.5908
16.5911
16.5913
16.5915
16.5916
16.5917
16.5918
16.5919
16.592
16.592
16.5921
16.5921
16.5921
16.5922
16.5922
16.5922
16.5922
16.5923
16.5923
16.5923
16.5923
16.5923
16.5923
16.5923
16.5923
16.5923
16.5923
16.5923
16.5923
16.5922
16.5922
16.5922
16.5922
16.5921
16.5921
16.5921
16.592
16.592
16.5919
16.5918
16.5917
16.5916
16.5915
16.5913
16.5911
16.5908
16.5904
16.5899
16.5892
16.5882
16.587
16.5855
16.5839
17.167
17.1685
17.17
17.1712
17.1722
17.1728
17.1734
17.1737
17.174
17.1742
17.1744
17.1745
17.1746
17.1747
17.1748
17.1749
17.1749
17.175
17.175
17.1751
17.1751
17.1751
17.1751
17.1752
17.1752
17.1752
17.1752
17.1752
17.1752
17.1752
17.1752
17.1752
17.1752
17.1752
17.1752
17.1752
17.1752
17.1751
17.1751
17.1751
17.1751
17.175
17.175
17.1749
17.1749
17.1748
17.1747
17.1746
17.1745
17.1744
17.1742
17.174
17.1737
17.1734
17.1728
17.1722
17.1712
17.17
17.1685
17.167
17.7149
17.7164
17.7178
17.7189
17.7198
17.7205
17.7209
17.7213
17.7216
17.7218
17.722
17.7221
17.7222
17.7223
17.7224
17.7224
17.7225
17.7225
17.7226
17.7226
17.7227
17.7227
17.7227
17.7227
17.7228
17.7228
17.7228
17.7228
17.7228
17.7228
17.7228
17.7228
17.7228
17.7228
17.7228
17.7228
17.7227
17.7227
17.7227
17.7227
17.7226
17.7226
17.7225
17.7225
17.7224
17.7224
17.7223
17.7222
17.7221
17.722
17.7218
17.7216
17.7213
17.7209
17.7205
17.7198
17.7189
17.7178
17.7164
17.7149
18.2193
18.2207
18.222
18.223
18.2238
18.2244
18.2249
18.2252
18.2255
18.2257
18.2258
18.226
18.2261
18.2262
18.2262
18.2263
18.2264
18.2264
18.2265
18.2265
18.2265
18.2266
18.2266
18.2266
18.2266
18.2267
18.2267
18.2267
18.2267
18.2267
18.2267
18.2267
18.2267
18.2267
18.2267
18.2266
18.2266
18.2266
18.2266
18.2265
18.2265
18.2265
18.2264
18.2264
18.2263
18.2262
18.2262
18.2261
18.226
18.2258
18.2257
18.2255
18.2252
18.2249
18.2244
18.2238
18.223
18.222
18.2207
18.2193
18.671
18.6722
18.6733
18.6743
18.675
18.6755
18.6759
18.6763
18.6765
18.6767
18.6768
18.677
18.6771
18.6771
18.6772
18.6773
18.6774
18.6774
18.6775
18.6775
18.6775
18.6776
18.6776
18.6776
18.6776
18.6777
18.6777
18.6777
18.6777
18.6777
18.6777
18.6777
18.6777
18.6777
18.6777
18.6776
18.6776
18.6776
18.6776
18.6775
18.6775
18.6775
18.6774
18.6774
18.6773
18.6772
18.6771
18.6771
18.677
18.6768
18.6767
18.6765
18.6763
18.6759
18.6755
18.675
18.6743
18.6733
18.6722
18.671
19.0612
19.0622
19.0632
19.064
19.0646
19.065
19.0654
19.0657
19.0659
19.0661
19.0662
19.0663
19.0664
19.0665
19.0666
19.0666
19.0667
19.0668
19.0668
19.0668
19.0669
19.0669
19.0669
19.067
19.067
19.067
19.067
19.067
19.0671
19.0671
19.0671
19.0671
19.067
19.067
19.067
19.067
19.067
19.0669
19.0669
19.0669
19.0668
19.0668
19.0668
19.0667
19.0666
19.0666
19.0665
19.0664
19.0663
19.0662
19.0661
19.0659
19.0657
19.0654
19.065
19.0646
19.064
19.0632
19.0622
19.0612
19.3843
19.3851
19.3858
19.3865
19.387
19.3873
19.3876
19.3879
19.3881
19.3882
19.3883
19.3884
19.3885
19.3886
19.3887
19.3888
19.3888
19.3889
19.3889
19.389
19.389
19.3891
19.3891
19.3891
19.3891
19.3892
19.3892
19.3892
19.3892
19.3892
19.3892
19.3892
19.3892
19.3892
19.3892
19.3891
19.3891
19.3891
19.3891
19.389
19.389
19.3889
19.3889
19.3888
19.3888
19.3887
19.3886
19.3885
19.3884
19.3883
19.3882
19.3881
19.3879
19.3876
19.3873
19.387
19.3865
19.3858
19.3851
19.3843
19.6406
19.6411
19.6417
19.6422
19.6426
19.6429
19.6431
19.6433
19.6434
19.6436
19.6437
19.6438
19.6439
19.644
19.644
19.6441
19.6442
19.6442
19.6443
19.6443
19.6444
19.6444
19.6444
19.6445
19.6445
19.6445
19.6445
19.6445
19.6445
19.6445
19.6445
19.6445
19.6445
19.6445
19.6445
19.6445
19.6445
19.6444
19.6444
19.6444
19.6443
19.6443
19.6442
19.6442
19.6441
19.644
19.644
19.6439
19.6438
19.6437
19.6436
19.6434
19.6433
19.6431
19.6429
19.6426
19.6422
19.6417
19.6411
19.6406
19.8372
19.8376
19.838
19.8383
19.8386
19.8388
19.839
19.8392
19.8393
19.8394
19.8395
19.8396
19.8397
19.8398
19.8399
19.8399
19.84
19.84
19.8401
19.8401
19.8402
19.8402
19.8403
19.8403
19.8403
19.8403
19.8404
19.8404
19.8404
19.8404
19.8404
19.8404
19.8404
19.8404
19.8403
19.8403
19.8403
19.8403
19.8402
19.8402
19.8401
19.8401
19.84
19.84
19.8399
19.8399
19.8398
19.8397
19.8396
19.8395
19.8394
19.8393
19.8392
19.839
19.8388
19.8386
19.8383
19.838
19.8376
19.8372
19.9859
19.9861
19.9864
19.9866
19.9868
19.987
19.9871
19.9873
19.9874
19.9875
19.9876
19.9877
19.9877
19.9878
19.9879
19.988
19.988
19.9881
19.9882
19.9882
19.9882
19.9883
19.9883
19.9884
19.9884
19.9884
19.9884
19.9884
19.9884
19.9884
19.9884
19.9884
19.9884
19.9884
19.9884
19.9884
19.9884
19.9883
19.9883
19.9882
19.9882
19.9882
19.9881
19.988
19.988
19.9879
19.9878
19.9877
19.9877
19.9876
19.9875
19.9874
19.9873
19.9871
19.987
19.9868
19.9866
19.9864
19.9861
19.9859
20.099
20.0992
20.0993
20.0995
20.0997
20.0998
20.0999
20.1
20.1001
20.1002
20.1003
20.1004
20.1005
20.1006
20.1006
20.1007
20.1008
20.1008
20.1009
20.1009
20.101
20.101
20.1011
20.1011
20.1011
20.1012
20.1012
20.1012
20.1012
20.1012
20.1012
20.1012
20.1012
20.1012
20.1012
20.1011
20.1011
20.1011
20.101
20.101
20.1009
20.1009
20.1008
20.1008
20.1007
20.1006
20.1006
20.1005
20.1004
20.1003
20.1002
20.1001
20.1
20.0999
20.0998
20.0997
20.0995
20.0993
20.0992
20.099
20.1871
20.1872
20.1873
20.1874
20.1876
20.1877
20.1878
20.1878
20.1879
20.188
20.1881
20.1882
20.1883
20.1884
20.1885
20.1885
20.1886
20.1887
20.1887
20.1888
20.1888
20.1889
20.1889
20.1889
20.189
20.189
20.189
20.189
20.189
20.189
20.189
20.189
20.189
20.189
20.189
20.189
20.1889
20.1889
20.1889
20.1888
20.1888
20.1887
20.1887
20.1886
20.1885
20.1885
20.1884
20.1883
20.1882
20.1881
20.188
20.1879
20.1878
20.1878
20.1877
20.1876
20.1874
20.1873
20.1872
20.1871
20.2577
20.2577
20.2578
20.2579
20.258
20.258
20.2581
20.2582
20.2583
20.2584
20.2585
20.2586
20.2587
20.2587
20.2588
20.2589
20.259
20.259
20.2591
20.2591
20.2592
20.2592
20.2593
20.2593
20.2593
20.2594
20.2594
20.2594
20.2594
20.2594
20.2594
20.2594
20.2594
20.2594
20.2594
20.2593
20.2593
20.2593
20.2592
20.2592
20.2591
20.2591
20.259
20.259
20.2589
20.2588
20.2587
20.2587
20.2586
20.2585
20.2584
20.2583
20.2582
20.2581
20.258
20.258
20.2579
20.2578
20.2577
20.2577
20.3157
20.3157
20.3157
20.3158
20.3158
20.3159
20.316
20.316
20.3161
20.3162
20.3163
20.3164
20.3165
20.3166
20.3166
20.3167
20.3168
20.3169
20.3169
20.317
20.317
20.3171
20.3171
20.3172
20.3172
20.3172
20.3172
20.3173
20.3173
20.3173
20.3173
20.3173
20.3173
20.3172
20.3172
20.3172
20.3172
20.3171
20.3171
20.317
20.317
20.3169
20.3169
20.3168
20.3167
20.3166
20.3166
20.3165
20.3164
20.3163
20.3162
20.3161
20.316
20.316
20.3159
20.3158
20.3158
20.3157
20.3157
20.3157
20.3642
20.3642
20.3642
20.3642
20.3643
20.3643
20.3644
20.3645
20.3645
20.3646
20.3647
20.3648
20.3649
20.365
20.3651
20.3652
20.3652
20.3653
20.3654
20.3654
20.3655
20.3655
20.3656
20.3656
20.3656
20.3657
20.3657
20.3657
20.3657
20.3657
20.3657
20.3657
20.3657
20.3657
20.3657
20.3656
20.3656
20.3656
20.3655
20.3655
20.3654
20.3654
20.3653
20.3652
20.3652
20.3651
20.365
20.3649
20.3648
20.3647
20.3646
20.3645
20.3645
20.3644
20.3643
20.3643
20.3642
20.3642
20.3642
20.3642
20.4054
20.4053
20.4053
20.4053
20.4054
20.4054
20.4055
20.4055
20.4056
20.4057
20.4058
20.4059
20.406
20.4061
20.4062
20.4063
20.4063
20.4064
20.4065
20.4065
20.4066
20.4066
20.4067
20.4067
20.4068
20.4068
20.4068
20.4068
20.4068
20.4068
20.4068
20.4068
20.4068
20.4068
20.4068
20.4068
20.4067
20.4067
20.4066
20.4066
20.4065
20.4065
20.4064
20.4063
20.4063
20.4062
20.4061
20.406
20.4059
20.4058
20.4057
20.4056
20.4055
20.4055
20.4054
20.4054
20.4053
20.4053
20.4053
20.4054
20.4405
20.4405
20.4405
20.4405
20.4405
20.4405
20.4406
20.4407
20.4408
20.4408
20.4409
20.441
20.4411
20.4412
20.4413
20.4414
20.4415
20.4416
20.4416
20.4417
20.4417
20.4418
20.4418
20.4419
20.4419
20.442
20.442
20.442
20.442
20.442
20.442
20.442
20.442
20.442
20.442
20.4419
20.4419
20.4418
20.4418
20.4417
20.4417
20.4416
20.4416
20.4415
20.4414
20.4413
20.4412
20.4411
20.441
20.4409
20.4408
20.4408
20.4407
20.4406
20.4405
20.4405
20.4405
20.4405
20.4405
20.4405
20.4707
20.4707
20.4706
20.4706
20.4707
20.4707
20.4708
20.4708
20.4709
20.471
20.4711
20.4712
20.4713
20.4714
20.4715
20.4716
20.4716
20.4717
20.4718
20.4719
20.4719
20.472
20.472
20.4721
20.4721
20.4721
20.4722
20.4722
20.4722
20.4722
20.4722
20.4722
20.4722
20.4722
20.4721
20.4721
20.4721
20.472
20.472
20.4719
20.4719
20.4718
20.4717
20.4716
20.4716
20.4715
20.4714
20.4713
20.4712
20.4711
20.471
20.4709
20.4708
20.4708
20.4707
20.4707
20.4706
20.4706
20.4707
20.4707
20.4967
20.4966
20.4966
20.4965
20.4966
20.4966
20.4966
20.4967
20.4968
20.4969
20.497
20.4971
20.4972
20.4973
20.4974
20.4975
20.4976
20.4976
20.4977
20.4978
20.4978
20.4979
20.498
20.498
20.498
20.4981
20.4981
20.4981
20.4981
20.4981
20.4981
20.4981
20.4981
20.4981
20.4981
20.498
20.498
20.498
20.4979
20.4978
20.4978
20.4977
20.4976
20.4976
20.4975
20.4974
20.4973
20.4972
20.4971
20.497
20.4969
20.4968
20.4967
20.4966
20.4966
20.4966
20.4965
20.4966
20.4966
20.4967
20.5189
20.5188
20.5187
20.5187
20.5187
20.5188
20.5188
20.5189
20.519
20.5191
20.5192
20.5193
20.5194
20.5195
20.5196
20.5197
20.5197
20.5198
20.5199
20.52
20.5201
20.5201
20.5202
20.5202
20.5203
20.5203
20.5203
20.5203
20.5203
20.5204
20.5204
20.5203
20.5203
20.5203
20.5203
20.5203
20.5202
20.5202
20.5201
20.5201
20.52
20.5199
20.5198
20.5197
20.5197
20.5196
20.5195
20.5194
20.5193
20.5192
20.5191
20.519
20.5189
20.5188
20.5188
20.5187
20.5187
20.5187
20.5188
20.5189
20.5378
20.5377
20.5376
20.5376
20.5376
20.5376
20.5377
20.5378
20.5378
20.5379
20.538
20.5381
20.5382
20.5384
20.5385
20.5386
20.5386
20.5387
20.5388
20.5389
20.539
20.539
20.5391
20.5391
20.5392
20.5392
20.5392
20.5393
20.5393
20.5393
20.5393
20.5393
20.5393
20.5392
20.5392
20.5392
20.5391
20.5391
20.539
20.539
20.5389
20.5388
20.5387
20.5386
20.5386
20.5385
20.5384
20.5382
20.5381
20.538
20.5379
20.5378
20.5378
20.5377
20.5376
20.5376
20.5376
20.5376
20.5377
20.5378
20.5537
20.5536
20.5536
20.5535
20.5535
20.5535
20.5536
20.5537
20.5538
20.5538
20.5539
20.5541
20.5542
20.5543
20.5544
20.5545
20.5546
20.5547
20.5548
20.5548
20.5549
20.555
20.555
20.5551
20.5551
20.5552
20.5552
20.5552
20.5552
20.5552
20.5552
20.5552
20.5552
20.5552
20.5552
20.5551
20.5551
20.555
20.555
20.5549
20.5548
20.5548
20.5547
20.5546
20.5545
20.5544
20.5543
20.5542
20.5541
20.5539
20.5538
20.5538
20.5537
20.5536
20.5535
20.5535
20.5535
20.5536
20.5536
20.5537
20.5669
20.5668
20.5668
20.5667
20.5667
20.5667
20.5668
20.5669
20.5669
20.567
20.5672
20.5673
20.5674
20.5675
20.5676
20.5677
20.5678
20.5679
20.568
20.5681
20.5681
20.5682
20.5683
20.5683
20.5684
20.5684
20.5684
20.5685
20.5685
20.5685
20.5685
20.5685
20.5685
20.5684
20.5684
20.5684
20.5683
20.5683
20.5682
20.5681
20.5681
20.568
20.5679
20.5678
20.5677
20.5676
20.5675
20.5674
20.5673
20.5672
20.567
20.5669
20.5669
20.5668
20.5667
20.5667
20.5667
20.5668
20.5668
20.5669
20.5776
20.5775
20.5775
20.5774
20.5774
20.5774
20.5775
20.5776
20.5776
20.5777
20.5779
20.578
20.5781
20.5782
20.5783
20.5784
20.5785
20.5786
20.5787
20.5788
20.5789
20.579
20.579
20.5791
20.5791
20.5792
20.5792
20.5792
20.5792
20.5792
20.5792
20.5792
20.5792
20.5792
20.5792
20.5791
20.5791
20.579
20.579
20.5789
20.5788
20.5787
20.5786
20.5785
20.5784
20.5783
20.5782
20.5781
20.578
20.5779
20.5777
20.5776
20.5776
20.5775
20.5774
20.5774
20.5774
20.5775
20.5775
20.5776
20.586
20.5859
20.5858
20.5858
20.5858
20.5858
20.5858
20.5859
20.586
20.5861
20.5862
20.5863
20.5865
20.5866
20.5867
20.5868
20.5869
20.587
20.5871
20.5872
20.5873
20.5874
20.5874
20.5875
20.5875
20.5876
20.5876
20.5876
20.5876
20.5877
20.5877
20.5876
20.5876
20.5876
20.5876
20.5875
20.5875
20.5874
20.5874
20.5873
20.5872
20.5871
20.587
20.5869
20.5868
20.5867
20.5866
20.5865
20.5863
20.5862
20.5861
20.586
20.5859
20.5858
20.5858
20.5858
20.5858
20.5858
20.5859
20.586
20.5922
20.5921
20.592
20.5919
20.5919
20.592
20.592
20.5921
20.5922
20.5923
20.5924
20.5925
20.5926
20.5928
20.5929
20.593
20.5931
20.5932
20.5933
20.5934
20.5935
20.5936
20.5936
20.5937
20.5937
20.5938
20.5938
20.5938
20.5939
20.5939
20.5939
20.5939
20.5938
20.5938
20.5938
20.5937
20.5937
20.5936
20.5936
20.5935
20.5934
20.5933
20.5932
20.5931
20.593
20.5929
20.5928
20.5926
20.5925
20.5924
20.5923
20.5922
20.5921
20.592
20.592
20.5919
20.5919
20.592
20.5921
20.5922
20.5962
20.5961
20.596
20.596
20.596
20.596
20.596
20.5961
20.5962
20.5963
20.5964
20.5966
20.5967
20.5968
20.597
20.5971
20.5972
20.5973
20.5974
20.5975
20.5976
20.5977
20.5977
20.5978
20.5978
20.5979
20.5979
20.5979
20.598
20.598
20.598
20.598
20.5979
20.5979
20.5979
20.5978
20.5978
20.5977
20.5977
20.5976
20.5975
20.5974
20.5973
20.5972
20.5971
20.597
20.5968
20.5967
20.5966
20.5964
20.5963
20.5962
20.5961
20.596
20.596
20.596
20.596
20.596
20.5961
20.5962
20.5983
20.5982
20.5981
20.598
20.598
20.598
20.5981
20.5981
20.5982
20.5984
20.5985
20.5986
20.5987
20.5989
20.599
20.5991
20.5992
20.5994
20.5995
20.5996
20.5997
20.5997
20.5998
20.5999
20.5999
20.6
20.6
20.6
20.6
20.6001
20.6001
20.6
20.6
20.6
20.6
20.5999
20.5999
20.5998
20.5997
20.5997
20.5996
20.5995
20.5994
20.5992
20.5991
20.599
20.5989
20.5987
20.5986
20.5985
20.5984
20.5982
20.5981
20.5981
20.598
20.598
20.598
20.5981
20.5982
20.5983
20.5983
20.5982
20.5981
20.5981
20.598
20.5981
20.5981
20.5982
20.5983
20.5984
20.5985
20.5987
20.5988
20.5989
20.5991
20.5992
20.5993
20.5994
20.5996
20.5997
20.5998
20.5998
20.5999
20.6
20.6
20.6001
20.6001
20.6001
20.6002
20.6002
20.6002
20.6002
20.6001
20.6001
20.6001
20.6
20.6
20.5999
20.5998
20.5998
20.5997
20.5996
20.5994
20.5993
20.5992
20.5991
20.5989
20.5988
20.5987
20.5985
20.5984
20.5983
20.5982
20.5981
20.5981
20.598
20.5981
20.5981
20.5982
20.5983
20.5965
20.5963
20.5962
20.5962
20.5961
20.5962
20.5962
20.5963
20.5964
20.5965
20.5966
20.5968
20.5969
20.5971
20.5972
20.5973
20.5975
20.5976
20.5977
20.5978
20.5979
20.598
20.5981
20.5981
20.5982
20.5982
20.5983
20.5983
20.5983
20.5983
20.5983
20.5983
20.5983
20.5983
20.5982
20.5982
20.5981
20.5981
20.598
20.5979
20.5978
20.5977
20.5976
20.5975
20.5973
20.5972
20.5971
20.5969
20.5968
20.5966
20.5965
20.5964
20.5963
20.5962
20.5962
20.5961
20.5962
20.5962
20.5963
20.5965
20.5926
20.5925
20.5924
20.5923
20.5923
20.5923
20.5924
20.5925
20.5926
20.5927
20.5928
20.593
20.5931
20.5933
20.5934
20.5936
20.5937
20.5938
20.5939
20.594
20.5941
20.5942
20.5943
20.5944
20.5944
20.5945
20.5945
20.5946
20.5946
20.5946
20.5946
20.5946
20.5946
20.5945
20.5945
20.5944
20.5944
20.5943
20.5942
20.5941
20.594
20.5939
20.5938
20.5937
20.5936
20.5934
20.5933
20.5931
20.593
20.5928
20.5927
20.5926
20.5925
20.5924
20.5923
20.5923
20.5923
20.5924
20.5925
20.5926
20.5869
20.5868
20.5866
20.5866
20.5866
20.5866
20.5866
20.5867
20.5868
20.587
20.5871
20.5872
20.5874
20.5875
20.5877
20.5878
20.588
20.5881
20.5882
20.5883
20.5884
20.5885
20.5886
20.5887
20.5887
20.5888
20.5888
20.5889
20.5889
20.5889
20.5889
20.5889
20.5889
20.5888
20.5888
20.5887
20.5887
20.5886
20.5885
20.5884
20.5883
20.5882
20.5881
20.588
20.5878
20.5877
20.5875
20.5874
20.5872
20.5871
20.587
20.5868
20.5867
20.5866
20.5866
20.5866
20.5866
20.5866
20.5868
20.5869
20.5792
20.5791
20.5789
20.5789
20.5789
20.5789
20.5789
20.579
20.5791
20.5793
20.5794
20.5796
20.5797
20.5799
20.58
20.5802
20.5803
20.5805
20.5806
20.5807
20.5808
20.5809
20.581
20.5811
20.5811
20.5812
20.5812
20.5812
20.5813
20.5813
20.5813
20.5813
20.5812
20.5812
20.5812
20.5811
20.5811
20.581
20.5809
20.5808
20.5807
20.5806
20.5805
20.5803
20.5802
20.58
20.5799
20.5797
20.5796
20.5794
20.5793
20.5791
20.579
20.5789
20.5789
20.5789
20.5789
20.5789
20.5791
20.5792
20.5696
20.5694
20.5693
20.5692
20.5692
20.5692
20.5693
20.5693
20.5695
20.5696
20.5697
20.5699
20.5701
20.5702
20.5704
20.5705
20.5707
20.5708
20.571
20.5711
20.5712
20.5713
20.5714
20.5715
20.5715
20.5716
20.5716
20.5717
20.5717
20.5717
20.5717
20.5717
20.5717
20.5716
20.5716
20.5715
20.5715
20.5714
20.5713
20.5712
20.5711
20.571
20.5708
20.5707
20.5705
20.5704
20.5702
20.5701
20.5699
20.5697
20.5696
20.5695
20.5693
20.5693
20.5692
20.5692
20.5692
20.5693
20.5694
20.5696
20.5579
20.5577
20.5576
20.5575
20.5575
20.5575
20.5576
20.5577
20.5578
20.5579
20.5581
20.5582
20.5584
20.5586
20.5587
20.5589
20.559
20.5592
20.5593
20.5594
20.5596
20.5597
20.5598
20.5598
20.5599
20.56
20.56
20.56
20.5601
20.5601
20.5601
20.5601
20.56
20.56
20.56
20.5599
20.5598
20.5598
20.5597
20.5596
20.5594
20.5593
20.5592
20.559
20.5589
20.5587
20.5586
20.5584
20.5582
20.5581
20.5579
20.5578
20.5577
20.5576
20.5575
20.5575
20.5575
20.5576
20.5577
20.5579
20.5441
20.5439
20.5438
20.5437
20.5437
20.5437
20.5438
20.5439
20.544
20.5441
20.5443
20.5445
20.5446
20.5448
20.545
20.5452
20.5453
20.5455
20.5456
20.5457
20.5459
20.546
20.5461
20.5461
20.5462
20.5463
20.5463
20.5463
20.5464
20.5464
20.5464
20.5464
20.5463
20.5463
20.5463
20.5462
20.5461
20.5461
20.546
20.5459
20.5457
20.5456
20.5455
20.5453
20.5452
20.545
20.5448
20.5446
20.5445
20.5443
20.5441
20.544
20.5439
20.5438
20.5437
20.5437
20.5437
20.5438
20.5439
20.5441
20.5282
20.528
20.5279
20.5278
20.5278
20.5278
20.5279
20.528
20.5281
20.5282
20.5284
20.5286
20.5288
20.5289
20.5291
20.5293
20.5294
20.5296
20.5297
20.5299
20.53
20.5301
20.5302
20.5303