/*--------------------------------*- C++ -*----------------------------------*\
| =========                 |                                                 |
| \\      /  F ield         | foam-extend: Open Source CFD                    |
|  \\    /   O peration     | Version:     4.0                                |
|   \\  /    A nd           | Web:         http://www.foam-extend.org         |
|    \\/     M anipulation  |                                                 |
\*---------------------------------------------------------------------------*/
FoamFile
{
    version     2.0;
    format      ascii;
    class       volScalarField;
    location    "130";
    object      cMinus;
}
// * * * * * * * * * * * * * * * * * * * * * * * * * * * * * * * * * * * * * //

dimensions      [0 0 0 0 0 0 0];

internalField   nonuniform List<scalar> 
6960
(
0.00940941
0.00941888
0.00942159
0.0094231
0.00942421
0.00942511
0.00942587
0.00942654
0.00942713
0.00942768
0.00942818
0.00942865
0.00942908
0.00942948
0.00942986
0.00943021
0.00943054
0.00943084
0.00943112
0.00943137
0.0094316
0.0094318
0.00943198
0.00943214
0.00943228
0.00943239
0.00943248
0.00943255
0.00943259
0.00943261
0.00943261
0.00943259
0.00943255
0.00943248
0.00943239
0.00943228
0.00943214
0.00943198
0.0094318
0.0094316
0.00943137
0.00943112
0.00943084
0.00943054
0.00943021
0.00942986
0.00942948
0.00942908
0.00942865
0.00942818
0.00942768
0.00942713
0.00942654
0.00942587
0.00942511
0.00942421
0.0094231
0.00942159
0.00941888
0.00940941
0.0241906
0.0242143
0.0242207
0.0242241
0.0242266
0.0242286
0.0242302
0.0242317
0.024233
0.0242342
0.0242352
0.0242362
0.0242372
0.0242381
0.0242389
0.0242396
0.0242403
0.024241
0.0242416
0.0242421
0.0242426
0.0242431
0.0242435
0.0242438
0.0242441
0.0242444
0.0242445
0.0242447
0.0242448
0.0242448
0.0242448
0.0242448
0.0242447
0.0242445
0.0242444
0.0242441
0.0242438
0.0242435
0.0242431
0.0242426
0.0242421
0.0242416
0.024241
0.0242403
0.0242396
0.0242389
0.0242381
0.0242372
0.0242362
0.0242352
0.0242342
0.024233
0.0242317
0.0242302
0.0242286
0.0242266
0.0242241
0.0242207
0.0242143
0.0241906
0.0475834
0.0476277
0.0476392
0.0476449
0.0476489
0.0476521
0.0476548
0.0476572
0.0476593
0.0476612
0.0476629
0.0476645
0.047666
0.0476675
0.0476688
0.04767
0.0476711
0.0476722
0.0476731
0.047674
0.0476748
0.0476755
0.0476762
0.0476767
0.0476772
0.0476776
0.0476779
0.0476781
0.0476783
0.0476783
0.0476783
0.0476783
0.0476781
0.0476779
0.0476776
0.0476772
0.0476767
0.0476762
0.0476755
0.0476748
0.047674
0.0476731
0.0476722
0.0476711
0.04767
0.0476688
0.0476675
0.047666
0.0476645
0.0476629
0.0476612
0.0476593
0.0476572
0.0476548
0.0476521
0.0476489
0.0476449
0.0476392
0.0476277
0.0475834
0.079331
0.0793998
0.0794167
0.0794247
0.0794301
0.0794344
0.079438
0.0794411
0.0794439
0.0794464
0.0794487
0.0794509
0.0794529
0.0794547
0.0794565
0.0794581
0.0794596
0.079461
0.0794622
0.0794634
0.0794644
0.0794654
0.0794662
0.0794669
0.0794676
0.0794681
0.0794685
0.0794688
0.079469
0.0794691
0.0794691
0.079469
0.0794688
0.0794685
0.0794681
0.0794676
0.0794669
0.0794662
0.0794654
0.0794644
0.0794634
0.0794622
0.079461
0.0794596
0.0794581
0.0794565
0.0794547
0.0794529
0.0794509
0.0794487
0.0794464
0.0794439
0.0794411
0.079438
0.0794344
0.0794301
0.0794247
0.0794167
0.0793998
0.079331
0.117399
0.117493
0.117515
0.117524
0.117531
0.117536
0.11754
0.117544
0.117547
0.11755
0.117552
0.117555
0.117557
0.117559
0.117561
0.117563
0.117565
0.117566
0.117568
0.117569
0.11757
0.117571
0.117572
0.117573
0.117574
0.117574
0.117575
0.117575
0.117575
0.117576
0.117576
0.117575
0.117575
0.117575
0.117574
0.117574
0.117573
0.117572
0.117571
0.11757
0.117569
0.117568
0.117566
0.117565
0.117563
0.117561
0.117559
0.117557
0.117555
0.117552
0.11755
0.117547
0.117544
0.11754
0.117536
0.117531
0.117524
0.117515
0.117493
0.117399
0.158924
0.15904
0.159066
0.159077
0.159084
0.159089
0.159093
0.159097
0.1591
0.159103
0.159106
0.159109
0.159111
0.159113
0.159115
0.159117
0.159119
0.159121
0.159122
0.159124
0.159125
0.159126
0.159127
0.159128
0.159128
0.159129
0.15913
0.15913
0.15913
0.15913
0.15913
0.15913
0.15913
0.15913
0.159129
0.159128
0.159128
0.159127
0.159126
0.159125
0.159124
0.159122
0.159121
0.159119
0.159117
0.159115
0.159113
0.159111
0.159109
0.159106
0.159103
0.1591
0.159097
0.159093
0.159089
0.159084
0.159077
0.159066
0.15904
0.158924
0.201377
0.201512
0.201542
0.201553
0.20156
0.201565
0.201569
0.201573
0.201576
0.201579
0.201582
0.201584
0.201587
0.201589
0.201591
0.201593
0.201594
0.201596
0.201597
0.201599
0.2016
0.201601
0.201602
0.201603
0.201603
0.201604
0.201604
0.201605
0.201605
0.201605
0.201605
0.201605
0.201605
0.201604
0.201604
0.201603
0.201603
0.201602
0.201601
0.2016
0.201599
0.201597
0.201596
0.201594
0.201593
0.201591
0.201589
0.201587
0.201584
0.201582
0.201579
0.201576
0.201573
0.201569
0.201565
0.20156
0.201553
0.201542
0.201512
0.201377
0.243151
0.243303
0.243335
0.243347
0.243353
0.243358
0.243362
0.243366
0.243369
0.243371
0.243374
0.243376
0.243378
0.24338
0.243382
0.243384
0.243385
0.243387
0.243388
0.243389
0.243391
0.243392
0.243392
0.243393
0.243394
0.243394
0.243395
0.243395
0.243395
0.243395
0.243395
0.243395
0.243395
0.243395
0.243394
0.243394
0.243393
0.243392
0.243392
0.243391
0.243389
0.243388
0.243387
0.243385
0.243384
0.243382
0.24338
0.243378
0.243376
0.243374
0.243371
0.243369
0.243366
0.243362
0.243358
0.243353
0.243347
0.243335
0.243303
0.243151
0.283503
0.28367
0.283705
0.283716
0.283723
0.283727
0.283731
0.283734
0.283737
0.283739
0.283742
0.283744
0.283746
0.283747
0.283749
0.283751
0.283752
0.283753
0.283755
0.283756
0.283757
0.283758
0.283758
0.283759
0.28376
0.28376
0.283761
0.283761
0.283761
0.283761
0.283761
0.283761
0.283761
0.283761
0.28376
0.28376
0.283759
0.283758
0.283758
0.283757
0.283756
0.283755
0.283753
0.283752
0.283751
0.283749
0.283747
0.283746
0.283744
0.283742
0.283739
0.283737
0.283734
0.283731
0.283727
0.283723
0.283716
0.283705
0.28367
0.283503
0.322225
0.322405
0.322442
0.322454
0.32246
0.322464
0.322468
0.322471
0.322473
0.322475
0.322477
0.322479
0.322481
0.322483
0.322484
0.322486
0.322487
0.322488
0.322489
0.32249
0.322491
0.322492
0.322493
0.322493
0.322494
0.322494
0.322495
0.322495
0.322495
0.322495
0.322495
0.322495
0.322495
0.322495
0.322494
0.322494
0.322493
0.322493
0.322492
0.322491
0.32249
0.322489
0.322488
0.322487
0.322486
0.322484
0.322483
0.322481
0.322479
0.322477
0.322475
0.322473
0.322471
0.322468
0.322464
0.32246
0.322454
0.322442
0.322405
0.322225
0.359342
0.359534
0.359574
0.359586
0.359592
0.359595
0.359599
0.359601
0.359603
0.359606
0.359607
0.359609
0.359611
0.359612
0.359613
0.359615
0.359616
0.359617
0.359618
0.359619
0.35962
0.35962
0.359621
0.359622
0.359622
0.359623
0.359623
0.359623
0.359623
0.359623
0.359623
0.359623
0.359623
0.359623
0.359623
0.359622
0.359622
0.359621
0.35962
0.35962
0.359619
0.359618
0.359617
0.359616
0.359615
0.359613
0.359612
0.359611
0.359609
0.359607
0.359606
0.359603
0.359601
0.359599
0.359595
0.359592
0.359586
0.359574
0.359534
0.359342
0.394943
0.395146
0.395188
0.3952
0.395205
0.395209
0.395212
0.395214
0.395216
0.395218
0.39522
0.395221
0.395223
0.395224
0.395225
0.395226
0.395227
0.395228
0.395229
0.39523
0.395231
0.395231
0.395232
0.395233
0.395233
0.395233
0.395234
0.395234
0.395234
0.395234
0.395234
0.395234
0.395234
0.395234
0.395233
0.395233
0.395233
0.395232
0.395231
0.395231
0.39523
0.395229
0.395228
0.395227
0.395226
0.395225
0.395224
0.395223
0.395221
0.39522
0.395218
0.395216
0.395214
0.395212
0.395209
0.395205
0.3952
0.395188
0.395146
0.394943
0.429109
0.429321
0.429366
0.429378
0.429383
0.429386
0.429389
0.429391
0.429393
0.429395
0.429396
0.429398
0.429399
0.4294
0.429401
0.429402
0.429403
0.429404
0.429405
0.429406
0.429406
0.429407
0.429407
0.429408
0.429408
0.429409
0.429409
0.429409
0.429409
0.429409
0.429409
0.429409
0.429409
0.429409
0.429409
0.429408
0.429408
0.429407
0.429407
0.429406
0.429406
0.429405
0.429404
0.429403
0.429402
0.429401
0.4294
0.429399
0.429398
0.429396
0.429395
0.429393
0.429391
0.429389
0.429386
0.429383
0.429378
0.429366
0.429321
0.429109
0.461901
0.462122
0.462169
0.462181
0.462186
0.462189
0.462191
0.462193
0.462195
0.462197
0.462198
0.462199
0.4622
0.462201
0.462202
0.462203
0.462204
0.462205
0.462206
0.462206
0.462207
0.462208
0.462208
0.462209
0.462209
0.462209
0.462209
0.46221
0.46221
0.46221
0.46221
0.46221
0.46221
0.462209
0.462209
0.462209
0.462209
0.462208
0.462208
0.462207
0.462206
0.462206
0.462205
0.462204
0.462203
0.462202
0.462201
0.4622
0.462199
0.462198
0.462197
0.462195
0.462193
0.462191
0.462189
0.462186
0.462181
0.462169
0.462122
0.461901
0.493361
0.49359
0.493639
0.493651
0.493656
0.493659
0.493661
0.493663
0.493665
0.493666
0.493667
0.493668
0.493669
0.49367
0.493671
0.493672
0.493673
0.493674
0.493674
0.493675
0.493675
0.493676
0.493676
0.493677
0.493677
0.493677
0.493678
0.493678
0.493678
0.493678
0.493678
0.493678
0.493678
0.493678
0.493677
0.493677
0.493677
0.493676
0.493676
0.493675
0.493675
0.493674
0.493674
0.493673
0.493672
0.493671
0.49367
0.493669
0.493668
0.493667
0.493666
0.493665
0.493663
0.493661
0.493659
0.493656
0.493651
0.493639
0.49359
0.493361
0.523521
0.523757
0.523808
0.52382
0.523825
0.523828
0.52383
0.523832
0.523833
0.523834
0.523835
0.523836
0.523837
0.523838
0.523839
0.52384
0.52384
0.523841
0.523842
0.523842
0.523843
0.523843
0.523844
0.523844
0.523844
0.523844
0.523845
0.523845
0.523845
0.523845
0.523845
0.523845
0.523845
0.523845
0.523844
0.523844
0.523844
0.523844
0.523843
0.523843
0.523842
0.523842
0.523841
0.52384
0.52384
0.523839
0.523838
0.523837
0.523836
0.523835
0.523834
0.523833
0.523832
0.52383
0.523828
0.523825
0.52382
0.523808
0.523757
0.523521
0.552406
0.552648
0.552701
0.552714
0.552718
0.552721
0.552723
0.552724
0.552725
0.552727
0.552728
0.552728
0.552729
0.55273
0.552731
0.552732
0.552732
0.552733
0.552733
0.552734
0.552734
0.552735
0.552735
0.552735
0.552736
0.552736
0.552736
0.552736
0.552736
0.552736
0.552736
0.552736
0.552736
0.552736
0.552736
0.552736
0.552735
0.552735
0.552735
0.552734
0.552734
0.552733
0.552733
0.552732
0.552732
0.552731
0.55273
0.552729
0.552728
0.552728
0.552727
0.552725
0.552724
0.552723
0.552721
0.552718
0.552714
0.552701
0.552648
0.552406
0.580039
0.580286
0.58034
0.580354
0.580358
0.58036
0.580362
0.580364
0.580365
0.580366
0.580367
0.580368
0.580368
0.580369
0.58037
0.58037
0.580371
0.580371
0.580372
0.580372
0.580373
0.580373
0.580373
0.580374
0.580374
0.580374
0.580374
0.580374
0.580374
0.580374
0.580374
0.580374
0.580374
0.580374
0.580374
0.580374
0.580374
0.580373
0.580373
0.580373
0.580372
0.580372
0.580371
0.580371
0.58037
0.58037
0.580369
0.580368
0.580368
0.580367
0.580366
0.580365
0.580364
0.580362
0.58036
0.580358
0.580354
0.58034
0.580286
0.580039
0.606442
0.606693
0.606749
0.606763
0.606767
0.606769
0.606771
0.606772
0.606773
0.606774
0.606775
0.606776
0.606776
0.606777
0.606778
0.606778
0.606779
0.606779
0.606779
0.60678
0.60678
0.606781
0.606781
0.606781
0.606781
0.606781
0.606782
0.606782
0.606782
0.606782
0.606782
0.606782
0.606782
0.606782
0.606781
0.606781
0.606781
0.606781
0.606781
0.60678
0.60678
0.606779
0.606779
0.606779
0.606778
0.606778
0.606777
0.606776
0.606776
0.606775
0.606774
0.606773
0.606772
0.606771
0.606769
0.606767
0.606763
0.606749
0.606693
0.606442
0.631638
0.631891
0.631949
0.631963
0.631967
0.631969
0.631971
0.631972
0.631973
0.631974
0.631974
0.631975
0.631976
0.631976
0.631977
0.631977
0.631978
0.631978
0.631979
0.631979
0.631979
0.63198
0.63198
0.63198
0.63198
0.63198
0.63198
0.631981
0.631981
0.631981
0.631981
0.631981
0.631981
0.63198
0.63198
0.63198
0.63198
0.63198
0.63198
0.631979
0.631979
0.631979
0.631978
0.631978
0.631977
0.631977
0.631976
0.631976
0.631975
0.631974
0.631974
0.631973
0.631972
0.631971
0.631969
0.631967
0.631963
0.631949
0.631891
0.631638
0.655649
0.655904
0.655964
0.655978
0.655982
0.655984
0.655985
0.655986
0.655987
0.655988
0.655989
0.655989
0.65599
0.65599
0.655991
0.655991
0.655992
0.655992
0.655992
0.655993
0.655993
0.655993
0.655994
0.655994
0.655994
0.655994
0.655994
0.655994
0.655994
0.655994
0.655994
0.655994
0.655994
0.655994
0.655994
0.655994
0.655994
0.655994
0.655993
0.655993
0.655993
0.655992
0.655992
0.655992
0.655991
0.655991
0.65599
0.65599
0.655989
0.655989
0.655988
0.655987
0.655986
0.655985
0.655984
0.655982
0.655978
0.655964
0.655904
0.655649
0.6785
0.678756
0.678817
0.678832
0.678836
0.678838
0.678839
0.67884
0.678841
0.678841
0.678842
0.678843
0.678843
0.678844
0.678844
0.678844
0.678845
0.678845
0.678845
0.678846
0.678846
0.678846
0.678846
0.678847
0.678847
0.678847
0.678847
0.678847
0.678847
0.678847
0.678847
0.678847
0.678847
0.678847
0.678847
0.678847
0.678847
0.678846
0.678846
0.678846
0.678846
0.678845
0.678845
0.678845
0.678844
0.678844
0.678844
0.678843
0.678843
0.678842
0.678841
0.678841
0.67884
0.678839
0.678838
0.678836
0.678832
0.678817
0.678756
0.6785
0.700217
0.700473
0.700536
0.700551
0.700555
0.700556
0.700558
0.700558
0.700559
0.70056
0.70056
0.700561
0.700561
0.700562
0.700562
0.700562
0.700563
0.700563
0.700563
0.700564
0.700564
0.700564
0.700564
0.700564
0.700565
0.700565
0.700565
0.700565
0.700565
0.700565
0.700565
0.700565
0.700565
0.700565
0.700565
0.700565
0.700564
0.700564
0.700564
0.700564
0.700564
0.700563
0.700563
0.700563
0.700562
0.700562
0.700562
0.700561
0.700561
0.70056
0.70056
0.700559
0.700558
0.700558
0.700556
0.700555
0.700551
0.700536
0.700473
0.700217
0.720826
0.721082
0.721146
0.721161
0.721165
0.721167
0.721168
0.721169
0.721169
0.72117
0.72117
0.721171
0.721171
0.721172
0.721172
0.721172
0.721173
0.721173
0.721173
0.721173
0.721174
0.721174
0.721174
0.721174
0.721174
0.721174
0.721174
0.721174
0.721174
0.721174
0.721174
0.721174
0.721174
0.721174
0.721174
0.721174
0.721174
0.721174
0.721174
0.721174
0.721173
0.721173
0.721173
0.721173
0.721172
0.721172
0.721172
0.721171
0.721171
0.72117
0.72117
0.721169
0.721169
0.721168
0.721167
0.721165
0.721161
0.721146
0.721082
0.720826
0.740357
0.740611
0.740676
0.740692
0.740696
0.740698
0.740698
0.740699
0.7407
0.7407
0.740701
0.740701
0.740701
0.740702
0.740702
0.740702
0.740703
0.740703
0.740703
0.740703
0.740703
0.740704
0.740704
0.740704
0.740704
0.740704
0.740704
0.740704
0.740704
0.740704
0.740704
0.740704
0.740704
0.740704
0.740704
0.740704
0.740704
0.740704
0.740704
0.740703
0.740703
0.740703
0.740703
0.740703
0.740702
0.740702
0.740702
0.740701
0.740701
0.740701
0.7407
0.7407
0.740699
0.740698
0.740698
0.740696
0.740692
0.740676
0.740611
0.740357
0.758837
0.75909
0.759156
0.759172
0.759176
0.759178
0.759179
0.759179
0.75918
0.75918
0.759181
0.759181
0.759181
0.759181
0.759182
0.759182
0.759182
0.759182
0.759183
0.759183
0.759183
0.759183
0.759183
0.759183
0.759184
0.759184
0.759184
0.759184
0.759184
0.759184
0.759184
0.759184
0.759184
0.759184
0.759184
0.759184
0.759183
0.759183
0.759183
0.759183
0.759183
0.759183
0.759182
0.759182
0.759182
0.759182
0.759181
0.759181
0.759181
0.759181
0.75918
0.75918
0.759179
0.759179
0.759178
0.759176
0.759172
0.759156
0.75909
0.758837
0.776299
0.776549
0.776616
0.776632
0.776636
0.776638
0.776639
0.776639
0.77664
0.77664
0.776641
0.776641
0.776641
0.776641
0.776642
0.776642
0.776642
0.776642
0.776643
0.776643
0.776643
0.776643
0.776643
0.776643
0.776643
0.776643
0.776643
0.776643
0.776643
0.776643
0.776643
0.776643
0.776643
0.776643
0.776643
0.776643
0.776643
0.776643
0.776643
0.776643
0.776643
0.776643
0.776642
0.776642
0.776642
0.776642
0.776641
0.776641
0.776641
0.776641
0.77664
0.77664
0.776639
0.776639
0.776638
0.776636
0.776632
0.776616
0.776549
0.776299
0.792774
0.79302
0.793088
0.793104
0.793109
0.79311
0.793111
0.793111
0.793112
0.793112
0.793113
0.793113
0.793113
0.793113
0.793113
0.793114
0.793114
0.793114
0.793114
0.793114
0.793114
0.793115
0.793115
0.793115
0.793115
0.793115
0.793115
0.793115
0.793115
0.793115
0.793115
0.793115
0.793115
0.793115
0.793115
0.793115
0.793115
0.793115
0.793115
0.793114
0.793114
0.793114
0.793114
0.793114
0.793114
0.793113
0.793113
0.793113
0.793113
0.793113
0.793112
0.793112
0.793111
0.793111
0.79311
0.793109
0.793104
0.793088
0.79302
0.792774
0.808293
0.808536
0.808604
0.808621
0.808625
0.808627
0.808627
0.808628
0.808628
0.808628
0.808629
0.808629
0.808629
0.808629
0.80863
0.80863
0.80863
0.80863
0.80863
0.80863
0.80863
0.808631
0.808631
0.808631
0.808631
0.808631
0.808631
0.808631
0.808631
0.808631
0.808631
0.808631
0.808631
0.808631
0.808631
0.808631
0.808631
0.808631
0.808631
0.80863
0.80863
0.80863
0.80863
0.80863
0.80863
0.80863
0.808629
0.808629
0.808629
0.808629
0.808628
0.808628
0.808628
0.808627
0.808627
0.808625
0.808621
0.808604
0.808536
0.808293
0.822891
0.823129
0.823197
0.823215
0.823219
0.82322
0.823221
0.823222
0.823222
0.823222
0.823222
0.823223
0.823223
0.823223
0.823223
0.823223
0.823224
0.823224
0.823224
0.823224
0.823224
0.823224
0.823224
0.823224
0.823224
0.823224
0.823224
0.823224
0.823224
0.823224
0.823224
0.823224
0.823224
0.823224
0.823224
0.823224
0.823224
0.823224
0.823224
0.823224
0.823224
0.823224
0.823224
0.823224
0.823223
0.823223
0.823223
0.823223
0.823223
0.823222
0.823222
0.823222
0.823222
0.823221
0.82322
0.823219
0.823215
0.823197
0.823129
0.822891
0.8366
0.836834
0.836902
0.83692
0.836924
0.836926
0.836926
0.836927
0.836927
0.836927
0.836927
0.836928
0.836928
0.836928
0.836928
0.836928
0.836928
0.836929
0.836929
0.836929
0.836929
0.836929
0.836929
0.836929
0.836929
0.836929
0.836929
0.836929
0.836929
0.836929
0.836929
0.836929
0.836929
0.836929
0.836929
0.836929
0.836929
0.836929
0.836929
0.836929
0.836929
0.836929
0.836929
0.836928
0.836928
0.836928
0.836928
0.836928
0.836928
0.836927
0.836927
0.836927
0.836927
0.836926
0.836926
0.836924
0.83692
0.836902
0.836834
0.8366
0.849456
0.849684
0.849752
0.84977
0.849775
0.849776
0.849777
0.849777
0.849778
0.849778
0.849778
0.849778
0.849778
0.849779
0.849779
0.849779
0.849779
0.849779
0.849779
0.849779
0.849779
0.849779
0.849779
0.849779
0.84978
0.84978
0.84978
0.84978
0.84978
0.84978
0.84978
0.84978
0.84978
0.84978
0.84978
0.84978
0.849779
0.849779
0.849779
0.849779
0.849779
0.849779
0.849779
0.849779
0.849779
0.849779
0.849779
0.849778
0.849778
0.849778
0.849778
0.849778
0.849777
0.849777
0.849776
0.849775
0.84977
0.849752
0.849684
0.849456
0.861493
0.861715
0.861783
0.861801
0.861806
0.861807
0.861808
0.861808
0.861808
0.861809
0.861809
0.861809
0.861809
0.861809
0.861809
0.861809
0.86181
0.86181
0.86181
0.86181
0.86181
0.86181
0.86181
0.86181
0.86181
0.86181
0.86181
0.86181
0.86181
0.86181
0.86181
0.86181
0.86181
0.86181
0.86181
0.86181
0.86181
0.86181
0.86181
0.86181
0.86181
0.86181
0.86181
0.86181
0.861809
0.861809
0.861809
0.861809
0.861809
0.861809
0.861809
0.861808
0.861808
0.861808
0.861807
0.861806
0.861801
0.861783
0.861715
0.861493
0.872744
0.87296
0.873028
0.873047
0.873051
0.873053
0.873053
0.873054
0.873054
0.873054
0.873054
0.873054
0.873055
0.873055
0.873055
0.873055
0.873055
0.873055
0.873055
0.873055
0.873055
0.873055
0.873055
0.873055
0.873055
0.873055
0.873055
0.873056
0.873056
0.873056
0.873056
0.873056
0.873056
0.873055
0.873055
0.873055
0.873055
0.873055
0.873055
0.873055
0.873055
0.873055
0.873055
0.873055
0.873055
0.873055
0.873055
0.873055
0.873054
0.873054
0.873054
0.873054
0.873054
0.873053
0.873053
0.873051
0.873047
0.873028
0.87296
0.872744
0.883246
0.883455
0.883523
0.883542
0.883547
0.883548
0.883549
0.883549
0.883549
0.883549
0.883549
0.88355
0.88355
0.88355
0.88355
0.88355
0.88355
0.88355
0.88355
0.88355
0.88355
0.88355
0.88355
0.88355
0.88355
0.88355
0.88355
0.88355
0.88355
0.88355
0.88355
0.88355
0.88355
0.88355
0.88355
0.88355
0.88355
0.88355
0.88355
0.88355
0.88355
0.88355
0.88355
0.88355
0.88355
0.88355
0.88355
0.88355
0.88355
0.883549
0.883549
0.883549
0.883549
0.883549
0.883548
0.883547
0.883542
0.883523
0.883455
0.883246
0.893033
0.893235
0.893302
0.893321
0.893326
0.893327
0.893328
0.893328
0.893328
0.893329
0.893329
0.893329
0.893329
0.893329
0.893329
0.893329
0.893329
0.893329
0.893329
0.893329
0.893329
0.893329
0.89333
0.89333
0.89333
0.89333
0.89333
0.89333
0.89333
0.89333
0.89333
0.89333
0.89333
0.89333
0.89333
0.89333
0.89333
0.89333
0.893329
0.893329
0.893329
0.893329
0.893329
0.893329
0.893329
0.893329
0.893329
0.893329
0.893329
0.893329
0.893329
0.893328
0.893328
0.893328
0.893327
0.893326
0.893321
0.893302
0.893235
0.893033
0.902138
0.902333
0.902399
0.902419
0.902424
0.902425
0.902426
0.902426
0.902426
0.902426
0.902427
0.902427
0.902427
0.902427
0.902427
0.902427
0.902427
0.902427
0.902427
0.902427
0.902427
0.902427
0.902427
0.902427
0.902427
0.902427
0.902427
0.902427
0.902427
0.902427
0.902427
0.902427
0.902427
0.902427
0.902427
0.902427
0.902427
0.902427
0.902427
0.902427
0.902427
0.902427
0.902427
0.902427
0.902427
0.902427
0.902427
0.902427
0.902427
0.902427
0.902426
0.902426
0.902426
0.902426
0.902425
0.902424
0.902419
0.902399
0.902333
0.902138
0.910597
0.910784
0.910849
0.910869
0.910874
0.910876
0.910876
0.910877
0.910877
0.910877
0.910877
0.910877
0.910877
0.910877
0.910877
0.910877
0.910877
0.910877
0.910877
0.910877
0.910877
0.910877
0.910878
0.910878
0.910878
0.910878
0.910878
0.910878
0.910878
0.910878
0.910878
0.910878
0.910878
0.910878
0.910878
0.910878
0.910878
0.910878
0.910877
0.910877
0.910877
0.910877
0.910877
0.910877
0.910877
0.910877
0.910877
0.910877
0.910877
0.910877
0.910877
0.910877
0.910877
0.910876
0.910876
0.910874
0.910869
0.910849
0.910784
0.910597
0.918441
0.918622
0.918686
0.918705
0.918711
0.918712
0.918713
0.918713
0.918713
0.918713
0.918713
0.918713
0.918713
0.918713
0.918714
0.918714
0.918714
0.918714
0.918714
0.918714
0.918714
0.918714
0.918714
0.918714
0.918714
0.918714
0.918714
0.918714
0.918714
0.918714
0.918714
0.918714
0.918714
0.918714
0.918714
0.918714
0.918714
0.918714
0.918714
0.918714
0.918714
0.918714
0.918714
0.918714
0.918714
0.918714
0.918713
0.918713
0.918713
0.918713
0.918713
0.918713
0.918713
0.918713
0.918712
0.918711
0.918705
0.918686
0.918622
0.918441
0.925705
0.925878
0.925941
0.92596
0.925966
0.925968
0.925968
0.925968
0.925969
0.925969
0.925969
0.925969
0.925969
0.925969
0.925969
0.925969
0.925969
0.925969
0.925969
0.925969
0.925969
0.925969
0.925969
0.925969
0.925969
0.925969
0.925969
0.925969
0.925969
0.925969
0.925969
0.925969
0.925969
0.925969
0.925969
0.925969
0.925969
0.925969
0.925969
0.925969
0.925969
0.925969
0.925969
0.925969
0.925969
0.925969
0.925969
0.925969
0.925969
0.925969
0.925969
0.925969
0.925968
0.925968
0.925968
0.925966
0.92596
0.925941
0.925878
0.925705
0.932421
0.932586
0.932647
0.932667
0.932673
0.932674
0.932675
0.932675
0.932675
0.932675
0.932675
0.932675
0.932675
0.932676
0.932676
0.932676
0.932676
0.932676
0.932676
0.932676
0.932676
0.932676
0.932676
0.932676
0.932676
0.932676
0.932676
0.932676
0.932676
0.932676
0.932676
0.932676
0.932676
0.932676
0.932676
0.932676
0.932676
0.932676
0.932676
0.932676
0.932676
0.932676
0.932676
0.932676
0.932676
0.932676
0.932676
0.932675
0.932675
0.932675
0.932675
0.932675
0.932675
0.932675
0.932674
0.932673
0.932667
0.932647
0.932586
0.932421
0.938619
0.938777
0.938836
0.938856
0.938862
0.938864
0.938864
0.938864
0.938865
0.938865
0.938865
0.938865
0.938865
0.938865
0.938865
0.938865
0.938865
0.938865
0.938865
0.938865
0.938865
0.938865
0.938865
0.938865
0.938865
0.938865
0.938865
0.938865
0.938865
0.938865
0.938865
0.938865
0.938865
0.938865
0.938865
0.938865
0.938865
0.938865
0.938865
0.938865
0.938865
0.938865
0.938865
0.938865
0.938865
0.938865
0.938865
0.938865
0.938865
0.938865
0.938865
0.938865
0.938864
0.938864
0.938864
0.938862
0.938856
0.938836
0.938777
0.938619
0.944331
0.944481
0.944539
0.944559
0.944565
0.944566
0.944567
0.944567
0.944567
0.944567
0.944567
0.944567
0.944567
0.944568
0.944568
0.944568
0.944568
0.944568
0.944568
0.944568
0.944568
0.944568
0.944568
0.944568
0.944568
0.944568
0.944568
0.944568
0.944568
0.944568
0.944568
0.944568
0.944568
0.944568
0.944568
0.944568
0.944568
0.944568
0.944568
0.944568
0.944568
0.944568
0.944568
0.944568
0.944568
0.944568
0.944568
0.944567
0.944567
0.944567
0.944567
0.944567
0.944567
0.944567
0.944566
0.944565
0.944559
0.944539
0.944481
0.944331
0.949586
0.949728
0.949785
0.949804
0.94981
0.949812
0.949813
0.949813
0.949813
0.949813
0.949813
0.949813
0.949813
0.949813
0.949813
0.949813
0.949813
0.949813
0.949813
0.949813
0.949813
0.949813
0.949813
0.949813
0.949813
0.949813
0.949813
0.949813
0.949813
0.949813
0.949813
0.949813
0.949813
0.949813
0.949813
0.949813
0.949813
0.949813
0.949813
0.949813
0.949813
0.949813
0.949813
0.949813
0.949813
0.949813
0.949813
0.949813
0.949813
0.949813
0.949813
0.949813
0.949813
0.949813
0.949812
0.94981
0.949804
0.949785
0.949728
0.949586
0.954413
0.954548
0.954602
0.954622
0.954628
0.95463
0.95463
0.95463
0.954631
0.954631
0.954631
0.954631
0.954631
0.954631
0.954631
0.954631
0.954631
0.954631
0.954631
0.954631
0.954631
0.954631
0.954631
0.954631
0.954631
0.954631
0.954631
0.954631
0.954631
0.954631
0.954631
0.954631
0.954631
0.954631
0.954631
0.954631
0.954631
0.954631
0.954631
0.954631
0.954631
0.954631
0.954631
0.954631
0.954631
0.954631
0.954631
0.954631
0.954631
0.954631
0.954631
0.954631
0.95463
0.95463
0.95463
0.954628
0.954622
0.954602
0.954548
0.954413
0.958839
0.958966
0.959019
0.959039
0.959045
0.959047
0.959047
0.959048
0.959048
0.959048
0.959048
0.959048
0.959048
0.959048
0.959048
0.959048
0.959048
0.959048
0.959048
0.959048
0.959048
0.959048
0.959048
0.959048
0.959048
0.959048
0.959048
0.959048
0.959048
0.959048
0.959048
0.959048
0.959048
0.959048
0.959048
0.959048
0.959048
0.959048
0.959048
0.959048
0.959048
0.959048
0.959048
0.959048
0.959048
0.959048
0.959048
0.959048
0.959048
0.959048
0.959048
0.959048
0.959048
0.959047
0.959047
0.959045
0.959039
0.959019
0.958966
0.958839
0.962892
0.963012
0.963063
0.963082
0.963088
0.96309
0.96309
0.963091
0.963091
0.963091
0.963091
0.963091
0.963091
0.963091
0.963091
0.963091
0.963091
0.963091
0.963091
0.963091
0.963091
0.963091
0.963091
0.963091
0.963091
0.963091
0.963091
0.963091
0.963091
0.963091
0.963091
0.963091
0.963091
0.963091
0.963091
0.963091
0.963091
0.963091
0.963091
0.963091
0.963091
0.963091
0.963091
0.963091
0.963091
0.963091
0.963091
0.963091
0.963091
0.963091
0.963091
0.963091
0.963091
0.96309
0.96309
0.963088
0.963082
0.963063
0.963012
0.962892
0.966596
0.966709
0.966758
0.966776
0.966783
0.966785
0.966785
0.966786
0.966786
0.966786
0.966786
0.966786
0.966786
0.966786
0.966786
0.966786
0.966786
0.966786
0.966786
0.966786
0.966786
0.966786
0.966786
0.966786
0.966786
0.966786
0.966786
0.966786
0.966786
0.966786
0.966786
0.966786
0.966786
0.966786
0.966786
0.966786
0.966786
0.966786
0.966786
0.966786
0.966786
0.966786
0.966786
0.966786
0.966786
0.966786
0.966786
0.966786
0.966786
0.966786
0.966786
0.966786
0.966786
0.966785
0.966785
0.966783
0.966776
0.966758
0.966709
0.966596
0.969976
0.970082
0.970129
0.970147
0.970154
0.970156
0.970156
0.970157
0.970157
0.970157
0.970157
0.970157
0.970157
0.970157
0.970157
0.970157
0.970157
0.970157
0.970157
0.970157
0.970157
0.970157
0.970157
0.970157
0.970157
0.970157
0.970157
0.970157
0.970157
0.970157
0.970157
0.970157
0.970157
0.970157
0.970157
0.970157
0.970157
0.970157
0.970157
0.970157
0.970157
0.970157
0.970157
0.970157
0.970157
0.970157
0.970157
0.970157
0.970157
0.970157
0.970157
0.970157
0.970157
0.970156
0.970156
0.970154
0.970147
0.970129
0.970082
0.969976
0.973056
0.973155
0.9732
0.973218
0.973224
0.973226
0.973227
0.973227
0.973227
0.973227
0.973227
0.973227
0.973227
0.973227
0.973227
0.973227
0.973227
0.973227
0.973227
0.973227
0.973227
0.973227
0.973227
0.973227
0.973227
0.973227
0.973227
0.973227
0.973227
0.973227
0.973227
0.973227
0.973227
0.973227
0.973227
0.973227
0.973227
0.973227
0.973227
0.973227
0.973227
0.973227
0.973227
0.973227
0.973227
0.973227
0.973227
0.973227
0.973227
0.973227
0.973227
0.973227
0.973227
0.973227
0.973226
0.973224
0.973218
0.9732
0.973155
0.973056
0.975857
0.97595
0.975993
0.97601
0.976016
0.976018
0.976019
0.976019
0.976019
0.976019
0.976019
0.976019
0.976019
0.976019
0.976019
0.976019
0.976019
0.976019
0.976019
0.976019
0.976019
0.976019
0.976019
0.976019
0.976019
0.976019
0.976019
0.976019
0.976019
0.976019
0.976019
0.976019
0.976019
0.976019
0.976019
0.976019
0.976019
0.976019
0.976019
0.976019
0.976019
0.976019
0.976019
0.976019
0.976019
0.976019
0.976019
0.976019
0.976019
0.976019
0.976019
0.976019
0.976019
0.976019
0.976018
0.976016
0.97601
0.975993
0.97595
0.975857
0.978401
0.978487
0.978528
0.978545
0.978551
0.978553
0.978554
0.978554
0.978554
0.978554
0.978554
0.978554
0.978554
0.978554
0.978554
0.978554
0.978554
0.978554
0.978554
0.978554
0.978554
0.978554
0.978554
0.978554
0.978554
0.978554
0.978554
0.978554
0.978554
0.978554
0.978554
0.978554
0.978554
0.978554
0.978554
0.978554
0.978554
0.978554
0.978554
0.978554
0.978554
0.978554
0.978554
0.978554
0.978554
0.978554
0.978554
0.978554
0.978554
0.978554
0.978554
0.978554
0.978554
0.978554
0.978553
0.978551
0.978545
0.978528
0.978487
0.978401
0.980707
0.980787
0.980826
0.980842
0.980848
0.980851
0.980851
0.980852
0.980852
0.980852
0.980852
0.980852
0.980852
0.980852
0.980852
0.980852
0.980852
0.980852
0.980852
0.980852
0.980852
0.980852
0.980852
0.980852
0.980852
0.980852
0.980852
0.980852
0.980852
0.980852
0.980852
0.980852
0.980852
0.980852
0.980852
0.980852
0.980852
0.980852
0.980852
0.980852
0.980852
0.980852
0.980852
0.980852
0.980852
0.980852
0.980852
0.980852
0.980852
0.980852
0.980852
0.980852
0.980852
0.980851
0.980851
0.980848
0.980842
0.980826
0.980787
0.980707
0.982794
0.982869
0.982905
0.982921
0.982927
0.98293
0.98293
0.982931
0.982931
0.982931
0.982931
0.982931
0.982931
0.982931
0.982931
0.982931
0.982931
0.982931
0.982931
0.982931
0.982931
0.982931
0.982931
0.982931
0.982931
0.982931
0.982931
0.982931
0.982931
0.982931
0.982931
0.982931
0.982931
0.982931
0.982931
0.982931
0.982931
0.982931
0.982931
0.982931
0.982931
0.982931
0.982931
0.982931
0.982931
0.982931
0.982931
0.982931
0.982931
0.982931
0.982931
0.982931
0.982931
0.98293
0.98293
0.982927
0.982921
0.982905
0.982869