/*--------------------------------*- C++ -*----------------------------------*\
| =========                 |                                                 |
| \\      /  F ield         | foam-extend: Open Source CFD                    |
|  \\    /   O peration     | Version:     4.0                                |
|   \\  /    A nd           | Web:         http://www.foam-extend.org         |
|    \\/     M anipulation  |                                                 |
\*---------------------------------------------------------------------------*/
FoamFile
{
    version     2.0;
    format      ascii;
    class       volScalarField;
    location    "20";
    object      p;
}
// * * * * * * * * * * * * * * * * * * * * * * * * * * * * * * * * * * * * * //

dimensions      [0 2 -2 0 0 0 0];

internalField   nonuniform List<scalar> 
6960
(
4.43501e-23
6.49229e-23
6.41881e-23
6.50235e-23
6.47781e-23
6.47526e-23
6.45323e-23
6.44601e-23
6.41485e-23
6.40009e-23
6.41065e-23
6.44774e-23
6.4825e-23
6.50063e-23
6.49998e-23
6.49742e-23
6.5052e-23
6.53556e-23
6.58532e-23
6.61951e-23
6.5938e-23
6.4992e-23
6.36892e-23
6.26015e-23
6.22406e-23
6.26699e-23
6.34704e-23
6.42114e-23
6.47427e-23
6.51212e-23
6.53604e-23
6.52039e-23
6.44857e-23
6.35662e-23
6.29683e-23
6.28612e-23
6.31929e-23
6.39126e-23
6.47845e-23
6.53965e-23
6.55181e-23
6.5228e-23
6.48188e-23
6.45852e-23
6.4582e-23
6.46733e-23
6.47481e-23
6.47076e-23
6.44647e-23
6.42162e-23
6.42298e-23
6.4397e-23
6.43568e-23
6.40139e-23
6.35914e-23
6.32925e-23
6.31415e-23
6.31589e-23
6.35693e-23
6.39658e-23
6.64841e-23
6.88109e-23
6.8063e-23
6.84485e-23
6.80664e-23
6.81823e-23
6.80775e-23
6.81657e-23
6.82775e-23
6.86566e-23
6.89464e-23
6.89683e-23
6.87601e-23
6.86239e-23
6.86498e-23
6.88285e-23
6.90599e-23
6.92041e-23
6.90717e-23
6.8661e-23
6.82218e-23
6.79856e-23
6.79221e-23
6.78995e-23
6.78673e-23
6.78409e-23
6.78852e-23
6.81203e-23
6.85584e-23
6.89663e-23
6.90747e-23
6.88551e-23
6.85125e-23
6.82159e-23
6.79577e-23
6.77672e-23
6.77598e-23
6.79042e-23
6.79937e-23
6.79837e-23
6.81279e-23
6.84833e-23
6.87367e-23
6.86982e-23
6.85251e-23
6.84465e-23
6.85587e-23
6.88188e-23
6.90891e-23
6.92368e-23
6.91498e-23
6.88828e-23
6.8576e-23
6.82693e-23
6.79497e-23
6.77326e-23
6.76638e-23
6.75725e-23
6.73609e-23
6.70739e-23
7.02833e-23
7.07647e-23
6.97354e-23
6.98747e-23
6.94802e-23
6.96202e-23
6.94923e-23
6.96536e-23
6.99509e-23
7.04463e-23
7.06754e-23
7.0553e-23
7.02822e-23
7.02332e-23
7.04171e-23
7.0663e-23
7.0747e-23
7.05146e-23
6.99099e-23
6.92195e-23
6.89953e-23
6.95449e-23
7.05512e-23
7.13399e-23
7.14452e-23
7.09741e-23
7.04389e-23
7.02076e-23
7.02361e-23
7.02862e-23
7.02444e-23
7.01998e-23
7.03311e-23
7.06758e-23
7.10018e-23
7.10563e-23
7.07671e-23
7.01991e-23
6.94932e-23
6.89505e-23
6.89987e-23
6.96415e-23
7.02878e-23
7.04384e-23
7.02028e-23
7.00157e-23
7.0115e-23
7.04064e-23
7.07106e-23
7.09278e-23
7.08915e-23
7.05615e-23
7.01362e-23
6.98543e-23
6.97943e-23
6.99327e-23
7.01019e-23
7.0053e-23
6.9647e-23
6.90907e-23
6.7272e-23
6.89466e-23
6.75465e-23
6.7716e-23
6.73834e-23
6.75565e-23
6.75212e-23
6.77366e-23
6.78562e-23
6.80059e-23
6.80376e-23
6.80717e-23
6.81753e-23
6.84348e-23
6.86888e-23
6.875e-23
6.85254e-23
6.81471e-23
6.77979e-23
6.76558e-23
6.78873e-23
6.85311e-23
6.93203e-23
6.98236e-23
6.98194e-23
6.94845e-23
6.91379e-23
6.88465e-23
6.85e-23
6.81916e-23
6.81529e-23
6.83523e-23
6.86383e-23
6.90505e-23
6.95401e-23
6.9761e-23
6.94455e-23
6.87637e-23
6.80858e-23
6.76471e-23
6.75794e-23
6.78438e-23
6.81714e-23
6.82898e-23
6.81706e-23
6.80203e-23
6.80053e-23
6.80329e-23
6.79901e-23
6.80299e-23
6.81711e-23
6.81326e-23
6.77606e-23
6.73635e-23
6.73324e-23
6.76512e-23
6.7955e-23
6.80749e-23
6.8114e-23
6.79673e-23
6.6106e-23
6.7742e-23
6.63443e-23
6.6509e-23
6.61098e-23
6.6326e-23
6.64316e-23
6.66777e-23
6.66436e-23
6.66173e-23
6.66161e-23
6.67671e-23
6.70239e-23
6.73456e-23
6.74961e-23
6.73199e-23
6.68938e-23
6.65773e-23
6.66469e-23
6.71027e-23
6.77315e-23
6.82705e-23
6.85379e-23
6.85831e-23
6.86024e-23
6.86432e-23
6.85261e-23
6.8097e-23
6.74801e-23
6.70316e-23
6.69967e-23
6.72554e-23
6.76052e-23
6.80308e-23
6.84672e-23
6.86737e-23
6.85044e-23
6.81047e-23
6.76884e-23
6.7322e-23
6.70309e-23
6.6843e-23
6.67806e-23
6.68464e-23
6.69365e-23
6.69036e-23
6.67289e-23
6.64845e-23
6.62719e-23
6.62832e-23
6.65117e-23
6.66593e-23
6.64816e-23
6.61444e-23
6.60147e-23
6.62172e-23
6.65526e-23
6.69082e-23
6.73437e-23
6.76184e-23
6.59345e-23
6.76332e-23
6.66053e-23
6.67964e-23
6.62726e-23
6.64051e-23
6.64661e-23
6.66695e-23
6.6639e-23
6.66903e-23
6.67615e-23
6.68927e-23
6.70314e-23
6.71715e-23
6.71264e-23
6.68378e-23
6.64817e-23
6.64146e-23
6.6805e-23
6.75135e-23
6.81965e-23
6.85279e-23
6.84492e-23
6.82844e-23
6.8374e-23
6.85961e-23
6.85336e-23
6.80603e-23
6.74721e-23
6.70908e-23
6.69983e-23
6.71135e-23
6.7383e-23
6.77454e-23
6.8048e-23
6.82203e-23
6.83308e-23
6.83916e-23
6.82512e-23
6.78221e-23
6.72894e-23
6.6864e-23
6.66178e-23
6.65909e-23
6.6722e-23
6.67687e-23
6.65804e-23
6.62898e-23
6.61113e-23
6.61581e-23
6.63453e-23
6.65346e-23
6.66017e-23
6.6479e-23
6.62634e-23
6.62446e-23
6.65953e-23
6.71747e-23
6.77035e-23
6.80471e-23
6.56858e-23
6.75965e-23
6.68663e-23
6.71828e-23
6.66841e-23
6.67255e-23
6.66517e-23
6.68338e-23
6.69245e-23
6.70984e-23
6.71562e-23
6.71161e-23
6.69756e-23
6.68187e-23
6.66059e-23
6.6413e-23
6.63962e-23
6.6713e-23
6.72879e-23
6.786e-23
6.81786e-23
6.81709e-23
6.79702e-23
6.78269e-23
6.7862e-23
6.7939e-23
6.78761e-23
6.76688e-23
6.74308e-23
6.72461e-23
6.71354e-23
6.70684e-23
6.70498e-23
6.71054e-23
6.72078e-23
6.73924e-23
6.77494e-23
6.81895e-23
6.83737e-23
6.8094e-23
6.7583e-23
6.71423e-23
6.68129e-23
6.65688e-23
6.64517e-23
6.64336e-23
6.64241e-23
6.63947e-23
6.63713e-23
6.6413e-23
6.65209e-23
6.66935e-23
6.68662e-23
6.68847e-23
6.67095e-23
6.66259e-23
6.69107e-23
6.74112e-23
6.77481e-23
6.79104e-23
6.54352e-23
6.74588e-23
6.68065e-23
6.73644e-23
6.709e-23
6.7137e-23
6.69355e-23
6.70638e-23
6.7198e-23
6.73807e-23
6.73326e-23
6.70858e-23
6.66877e-23
6.6337e-23
6.61534e-23
6.6247e-23
6.6599e-23
6.71156e-23
6.75639e-23
6.77147e-23
6.75609e-23
6.73347e-23
6.72267e-23
6.71931e-23
6.70721e-23
6.68739e-23
6.68016e-23
6.69255e-23
6.70819e-23
6.7149e-23
6.71265e-23
6.69376e-23
6.65687e-23
6.62543e-23
6.62198e-23
6.64712e-23
6.68987e-23
6.73976e-23
6.77908e-23
6.78848e-23
6.77136e-23
6.74211e-23
6.70444e-23
6.65941e-23
6.62039e-23
6.60734e-23
6.62558e-23
6.65414e-23
6.66761e-23
6.66989e-23
6.6764e-23
6.69009e-23
6.70219e-23
6.70935e-23
6.71454e-23
6.72206e-23
6.7306e-23
6.73521e-23
6.73717e-23
6.74231e-23
6.53962e-23
6.72888e-23
6.65587e-23
6.73225e-23
6.73289e-23
6.75368e-23
6.73294e-23
6.73312e-23
6.72828e-23
6.72872e-23
6.71005e-23
6.676e-23
6.63294e-23
6.6068e-23
6.61276e-23
6.65082e-23
6.69755e-23
6.73039e-23
6.73348e-23
6.70665e-23
6.67022e-23
6.64983e-23
6.64817e-23
6.64453e-23
6.62252e-23
6.59449e-23
6.5878e-23
6.60982e-23
6.6444e-23
6.6747e-23
6.68697e-23
6.66424e-23
6.61122e-23
6.56482e-23
6.55471e-23
6.57579e-23
6.60631e-23
6.64065e-23
6.68418e-23
6.72749e-23
6.75212e-23
6.74573e-23
6.71065e-23
6.6629e-23
6.62346e-23
6.61091e-23
6.63014e-23
6.66179e-23
6.67974e-23
6.68533e-23
6.69182e-23
6.70094e-23
6.70911e-23
6.72616e-23
6.75547e-23
6.77423e-23
6.75609e-23
6.71342e-23
6.69109e-23
6.69075e-23
6.5503e-23
6.72065e-23
6.63787e-23
6.71514e-23
6.72993e-23
6.77254e-23
6.76299e-23
6.74968e-23
6.71309e-23
6.68367e-23
6.65247e-23
6.62792e-23
6.61342e-23
6.6246e-23
6.66023e-23
6.70397e-23
6.72483e-23
6.70965e-23
6.66847e-23
6.62598e-23
6.60176e-23
6.59452e-23
6.58763e-23
6.57345e-23
6.55751e-23
6.54622e-23
6.54236e-23
6.55101e-23
6.57824e-23
6.61537e-23
6.63625e-23
6.62208e-23
6.58582e-23
6.55495e-23
6.54072e-23
6.54024e-23
6.54845e-23
6.56749e-23
6.60336e-23
6.65049e-23
6.69169e-23
6.70723e-23
6.6942e-23
6.67305e-23
6.66293e-23
6.66294e-23
6.66449e-23
6.66637e-23
6.67016e-23
6.67715e-23
6.68461e-23
6.69516e-23
6.71583e-23
6.7498e-23
6.78152e-23
6.7851e-23
6.74961e-23
6.69667e-23
6.66656e-23
6.6471e-23
6.56019e-23
6.72386e-23
6.63758e-23
6.69841e-23
6.70545e-23
6.75552e-23
6.75503e-23
6.7377e-23
6.68225e-23
6.63153e-23
6.59517e-23
6.59394e-23
6.62492e-23
6.67884e-23
6.72825e-23
6.74817e-23
6.72128e-23
6.66171e-23
6.60346e-23
6.57373e-23
6.57002e-23
6.56679e-23
6.54872e-23
6.531e-23
6.53056e-23
6.5398e-23
6.54211e-23
6.53802e-23
6.5426e-23
6.56043e-23
6.57858e-23
6.58608e-23
6.5876e-23
6.58536e-23
6.57073e-23
6.54866e-23
6.53727e-23
6.54494e-23
6.56402e-23
6.58486e-23
6.6094e-23
6.63779e-23
6.66554e-23
6.69451e-23
6.72277e-23
6.73354e-23
6.71504e-23
6.68207e-23
6.65827e-23
6.65213e-23
6.65805e-23
6.68041e-23
6.72205e-23
6.76436e-23
6.77661e-23
6.75392e-23
6.71925e-23
6.68802e-23
6.66228e-23
6.62199e-23
6.56908e-23
6.72992e-23
6.64462e-23
6.68824e-23
6.67349e-23
6.70627e-23
6.70003e-23
6.69035e-23
6.64736e-23
6.60603e-23
6.58147e-23
6.60364e-23
6.66364e-23
6.73238e-23
6.7685e-23
6.7531e-23
6.69203e-23
6.62249e-23
6.58029e-23
6.57067e-23
6.57044e-23
6.55819e-23
6.53774e-23
6.52995e-23
6.54066e-23
6.55753e-23
6.56827e-23
6.56539e-23
6.55021e-23
6.53857e-23
6.54749e-23
6.57527e-23
6.60694e-23
6.62555e-23
6.61959e-23
6.59733e-23
6.57753e-23
6.56833e-23
6.56171e-23
6.55019e-23
6.54911e-23
6.57983e-23
6.64284e-23
6.71601e-23
6.76925e-23
6.78297e-23
6.75837e-23
6.71308e-23
6.66715e-23
6.63826e-23
6.63683e-23
6.6664e-23
6.71158e-23
6.74321e-23
6.73972e-23
6.71199e-23
6.68849e-23
6.6738e-23
6.65632e-23
6.6288e-23
6.58612e-23
6.73195e-23
6.64467e-23
6.67941e-23
6.64303e-23
6.64556e-23
6.62173e-23
6.62422e-23
6.6187e-23
6.62087e-23
6.62835e-23
6.66186e-23
6.70938e-23
6.74679e-23
6.74823e-23
6.714e-23
6.66118e-23
6.62115e-23
6.60741e-23
6.60415e-23
6.5908e-23
6.56857e-23
6.55414e-23
6.55702e-23
6.56933e-23
6.58398e-23
6.59965e-23
6.60418e-23
6.58726e-23
6.56585e-23
6.56714e-23
6.59324e-23
6.62664e-23
6.65237e-23
6.6639e-23
6.66164e-23
6.64424e-23
6.61417e-23
6.58163e-23
6.555e-23
6.54738e-23
6.57517e-23
6.63997e-23
6.7169e-23
6.77104e-23
6.78814e-23
6.77681e-23
6.74683e-23
6.70323e-23
6.66269e-23
6.64463e-23
6.65274e-23
6.67015e-23
6.68383e-23
6.68941e-23
6.68478e-23
6.67003e-23
6.64947e-23
6.63969e-23
6.65812e-23
6.60749e-23
6.73124e-23
6.63603e-23
6.6639e-23
6.61502e-23
6.59809e-23
6.56136e-23
6.57369e-23
6.60623e-23
6.66101e-23
6.70579e-23
6.73516e-23
6.73608e-23
6.71224e-23
6.67681e-23
6.65277e-23
6.64598e-23
6.65234e-23
6.65717e-23
6.6466e-23
6.62193e-23
6.59758e-23
6.58506e-23
6.58633e-23
6.59476e-23
6.60553e-23
6.61792e-23
6.62683e-23
6.62822e-23
6.62627e-23
6.6255e-23
6.6272e-23
6.63765e-23
6.66057e-23
6.68742e-23
6.70408e-23
6.69372e-23
6.65584e-23
6.6161e-23
6.59769e-23
6.60412e-23
6.62611e-23
6.65607e-23
6.69022e-23
6.72277e-23
6.7482e-23
6.76379e-23
6.7667e-23
6.75151e-23
6.71877e-23
6.67518e-23
6.6345e-23
6.61095e-23
6.61753e-23
6.64692e-23
6.66837e-23
6.65894e-23
6.63095e-23
6.62578e-23
6.67261e-23
6.61348e-23
6.72706e-23
6.62513e-23
6.64303e-23
6.59219e-23
6.57964e-23
6.54815e-23
6.56757e-23
6.61619e-23
6.69495e-23
6.7539e-23
6.76769e-23
6.72396e-23
6.6526e-23
6.59976e-23
6.60057e-23
6.63987e-23
6.67911e-23
6.69065e-23
6.67646e-23
6.65351e-23
6.631e-23
6.61087e-23
6.60081e-23
6.60278e-23
6.60774e-23
6.61262e-23
6.62538e-23
6.65048e-23
6.67483e-23
6.67691e-23
6.65626e-23
6.64207e-23
6.65416e-23
6.67968e-23
6.69792e-23
6.69551e-23
6.67521e-23
6.65853e-23
6.66282e-23
6.68224e-23
6.69074e-23
6.67414e-23
6.6514e-23
6.65141e-23
6.68033e-23
6.72264e-23
6.76206e-23
6.78164e-23
6.76109e-23
6.69428e-23
6.61488e-23
6.57056e-23
6.58104e-23
6.62013e-23
6.64745e-23
6.64744e-23
6.63135e-23
6.6242e-23
6.6446e-23
6.59188e-23
6.70842e-23
6.61167e-23
6.62732e-23
6.58496e-23
6.59304e-23
6.58106e-23
6.6057e-23
6.64177e-23
6.69571e-23
6.72766e-23
6.72138e-23
6.66915e-23
6.60126e-23
6.56065e-23
6.57548e-23
6.62358e-23
6.66645e-23
6.68383e-23
6.68143e-23
6.66877e-23
6.64588e-23
6.61662e-23
6.59649e-23
6.58916e-23
6.5851e-23
6.58685e-23
6.6053e-23
6.63854e-23
6.66884e-23
6.6764e-23
6.65905e-23
6.63942e-23
6.63515e-23
6.63986e-23
6.64585e-23
6.65345e-23
6.66718e-23
6.69068e-23
6.71727e-23
6.7325e-23
6.71898e-23
6.67358e-23
6.62101e-23
6.59601e-23
6.61422e-23
6.66535e-23
6.725e-23
6.75991e-23
6.7422e-23
6.67473e-23
6.60335e-23
6.57195e-23
6.58351e-23
6.60763e-23
6.62413e-23
6.6352e-23
6.63658e-23
6.62083e-23
6.58999e-23
6.55459e-23
6.66622e-23
6.58777e-23
6.6233e-23
6.60108e-23
6.6295e-23
6.63372e-23
6.65687e-23
6.66035e-23
6.65557e-23
6.63244e-23
6.60933e-23
6.58753e-23
6.57126e-23
6.56369e-23
6.57242e-23
6.59034e-23
6.61278e-23
6.63649e-23
6.6533e-23
6.65155e-23
6.62875e-23
6.59748e-23
6.574e-23
6.55923e-23
6.55013e-23
6.55411e-23
6.57074e-23
6.58758e-23
6.60081e-23
6.61367e-23
6.6211e-23
6.61716e-23
6.6018e-23
6.58263e-23
6.57721e-23
6.59594e-23
6.63664e-23
6.68704e-23
6.72187e-23
6.72259e-23
6.69206e-23
6.6474e-23
6.6052e-23
6.57781e-23
6.57747e-23
6.60785e-23
6.65046e-23
6.67164e-23
6.65647e-23
6.62229e-23
6.60031e-23
6.5985e-23
6.60505e-23
6.60959e-23
6.61497e-23
6.62303e-23
6.61907e-23
6.59545e-23
6.54836e-23
6.52427e-23
6.61199e-23
6.55381e-23
6.62439e-23
6.62974e-23
6.66956e-23
6.67314e-23
6.68123e-23
6.64776e-23
6.58904e-23
6.52056e-23
6.49105e-23
6.50881e-23
6.54941e-23
6.57385e-23
6.57143e-23
6.55388e-23
6.54905e-23
6.5679e-23
6.59286e-23
6.59982e-23
6.58369e-23
6.55761e-23
6.53733e-23
6.5265e-23
6.52323e-23
6.52597e-23
6.52427e-23
6.51135e-23
6.50287e-23
6.51695e-23
6.5452e-23
6.56301e-23
6.55485e-23
6.53217e-23
6.52622e-23
6.54961e-23
6.5913e-23
6.63495e-23
6.65956e-23
6.65378e-23
6.62911e-23
6.60766e-23
6.59694e-23
6.58733e-23
6.57339e-23
6.56025e-23
6.55131e-23
6.54484e-23
6.54648e-23
6.5632e-23
6.59142e-23
6.61298e-23
6.62127e-23
6.62377e-23
6.62227e-23
6.60668e-23
6.57521e-23
6.55216e-23
6.53497e-23
6.51056e-23
6.57448e-23
6.52619e-23
6.6185e-23
6.64329e-23
6.6861e-23
6.67522e-23
6.65861e-23
6.60064e-23
6.52597e-23
6.45303e-23
6.42973e-23
6.46189e-23
6.51916e-23
6.55506e-23
6.55519e-23
6.53065e-23
6.50934e-23
6.50775e-23
6.52057e-23
6.53063e-23
6.52566e-23
6.5093e-23
6.49995e-23
6.50534e-23
6.51229e-23
6.5048e-23
6.47773e-23
6.44266e-23
6.42249e-23
6.4301e-23
6.45732e-23
6.4871e-23
6.50336e-23
6.50436e-23
6.50835e-23
6.52311e-23
6.5387e-23
6.54928e-23
6.5552e-23
6.55938e-23
6.56427e-23
6.57386e-23
6.5892e-23
6.5968e-23
6.57584e-23
6.52341e-23
6.46748e-23
6.44479e-23
6.46825e-23
6.51664e-23
6.5639e-23
6.59719e-23
6.62065e-23
6.63414e-23
6.62429e-23
6.58386e-23
6.53481e-23
6.51918e-23
6.53148e-23
6.50676e-23
6.57365e-23
6.52241e-23
6.60255e-23
6.62061e-23
6.65697e-23
6.63186e-23
6.59988e-23
6.54425e-23
6.49696e-23
6.45832e-23
6.44756e-23
6.46048e-23
6.486e-23
6.5077e-23
6.52219e-23
6.52112e-23
6.50411e-23
6.4825e-23
6.47148e-23
6.47262e-23
6.47392e-23
6.47193e-23
6.48087e-23
6.50085e-23
6.50851e-23
6.48944e-23
6.45251e-23
6.41627e-23
6.39415e-23
6.38831e-23
6.3975e-23
6.425e-23
6.46405e-23
6.49626e-23
6.5127e-23
6.51025e-23
6.49001e-23
6.46743e-23
6.46291e-23
6.48582e-23
6.52336e-23
6.5566e-23
6.5789e-23
6.58378e-23
6.5569e-23
6.49914e-23
6.44394e-23
6.42804e-23
6.45297e-23
6.49031e-23
6.52623e-23
6.56368e-23
6.60067e-23
6.61777e-23
6.60087e-23
6.56179e-23
6.52747e-23
6.51883e-23
6.52456e-23
6.50484e-23
6.60174e-23
6.54091e-23
6.58434e-23
6.56761e-23
6.58401e-23
6.55494e-23
6.53545e-23
6.51302e-23
6.51472e-23
6.51871e-23
6.51714e-23
6.49871e-23
6.47589e-23
6.46793e-23
6.48824e-23
6.5144e-23
6.51921e-23
6.49851e-23
6.47058e-23
6.45302e-23
6.4513e-23
6.46432e-23
6.48849e-23
6.50707e-23
6.50363e-23
6.48437e-23
6.46384e-23
6.44536e-23
6.42607e-23
6.40694e-23
6.39753e-23
6.41304e-23
6.45302e-23
6.49517e-23
6.5163e-23
6.50242e-23
6.46214e-23
6.42862e-23
6.42899e-23
6.46536e-23
6.51531e-23
6.5517e-23
6.56221e-23
6.54844e-23
6.52149e-23
6.49848e-23
6.49121e-23
6.49474e-23
6.49636e-23
6.49405e-23
6.50462e-23
6.533e-23
6.56192e-23
6.56998e-23
6.55934e-23
6.5501e-23
6.54976e-23
6.54704e-23
6.52986e-23
6.50225e-23
6.63201e-23
6.56123e-23
6.57037e-23
6.51174e-23
6.50035e-23
6.47682e-23
6.49381e-23
6.5198e-23
6.56242e-23
6.58937e-23
6.59035e-23
6.55682e-23
6.50771e-23
6.47245e-23
6.47692e-23
6.50773e-23
6.53453e-23
6.53577e-23
6.51216e-23
6.48424e-23
6.47634e-23
6.49231e-23
6.51329e-23
6.51665e-23
6.50398e-23
6.49843e-23
6.50735e-23
6.51315e-23
6.50196e-23
6.47914e-23
6.4606e-23
6.45979e-23
6.47556e-23
6.49568e-23
6.50787e-23
6.4981e-23
6.46939e-23
6.45089e-23
6.46251e-23
6.49728e-23
6.53235e-23
6.54785e-23
6.53804e-23
6.51452e-23
6.50547e-23
6.53057e-23
6.57199e-23
6.59011e-23
6.57085e-23
6.53645e-23
6.51735e-23
6.51465e-23
6.51494e-23
6.51505e-23
6.5247e-23
6.54803e-23
6.57393e-23
6.58228e-23
6.56264e-23
6.49429e-23
6.641e-23
6.56316e-23
6.55735e-23
6.47767e-23
6.45093e-23
6.43702e-23
6.48629e-23
6.54457e-23
6.6017e-23
6.62907e-23
6.63226e-23
6.61018e-23
6.57015e-23
6.52498e-23
6.50284e-23
6.51247e-23
6.54128e-23
6.56413e-23
6.56532e-23
6.55247e-23
6.54421e-23
6.54377e-23
6.54115e-23
6.53033e-23
6.52212e-23
6.53402e-23
6.56309e-23
6.58666e-23
6.58975e-23
6.57625e-23
6.55768e-23
6.54049e-23
6.52216e-23
6.50438e-23
6.49885e-23
6.50424e-23
6.51018e-23
6.51887e-23
6.53427e-23
6.55069e-23
6.55424e-23
6.53909e-23
6.51805e-23
6.51144e-23
6.53419e-23
6.58308e-23
6.63209e-23
6.65285e-23
6.63915e-23
6.60148e-23
6.55601e-23
6.51245e-23
6.48447e-23
6.48425e-23
6.50921e-23
6.54448e-23
6.57998e-23
6.60357e-23
6.6011e-23
6.47179e-23
6.61931e-23
6.54067e-23
6.53858e-23
6.47063e-23
6.45755e-23
6.45363e-23
6.50443e-23
6.55468e-23
6.59884e-23
6.61886e-23
6.63125e-23
6.63634e-23
6.62662e-23
6.59336e-23
6.55665e-23
6.53742e-23
6.54424e-23
6.56913e-23
6.59808e-23
6.61761e-23
6.61748e-23
6.59587e-23
6.56867e-23
6.55417e-23
6.55821e-23
6.57914e-23
6.60954e-23
6.63745e-23
6.65398e-23
6.65568e-23
6.64251e-23
6.61519e-23
6.57343e-23
6.52886e-23
6.51014e-23
6.52843e-23
6.56359e-23
6.59057e-23
6.59742e-23
6.5865e-23
6.56085e-23
6.53056e-23
6.52131e-23
6.54653e-23
6.58873e-23
6.62246e-23
6.64204e-23
6.65659e-23
6.66404e-23
6.64421e-23
6.59274e-23
6.53123e-23
6.49164e-23
6.4857e-23
6.50242e-23
6.52978e-23
6.56575e-23
6.59612e-23
6.60293e-23
6.43265e-23
6.56869e-23
6.49898e-23
6.51362e-23
6.47875e-23
6.49933e-23
6.5028e-23
6.52589e-23
6.53381e-23
6.54821e-23
6.56269e-23
6.58929e-23
6.62019e-23
6.64074e-23
6.6328e-23
6.60456e-23
6.57102e-23
6.55091e-23
6.55917e-23
6.59512e-23
6.63434e-23
6.64692e-23
6.62627e-23
6.59814e-23
6.58751e-23
6.5951e-23
6.61166e-23
6.63118e-23
6.65127e-23
6.66977e-23
6.68041e-23
6.67531e-23
6.65093e-23
6.60902e-23
6.56476e-23
6.54715e-23
6.56608e-23
6.6004e-23
6.62132e-23
6.61265e-23
6.58191e-23
6.54779e-23
6.53116e-23
6.54903e-23
6.59028e-23
6.61934e-23
6.61823e-23
6.60586e-23
6.60843e-23
6.62392e-23
6.62511e-23
6.60125e-23
6.56318e-23
6.52719e-23
6.50045e-23
6.48907e-23
6.5009e-23
6.53043e-23
6.5519e-23
6.55563e-23
6.38836e-23
6.49895e-23
6.44642e-23
6.48608e-23
6.48272e-23
6.52825e-23
6.53201e-23
6.52432e-23
6.4884e-23
6.47199e-23
6.4793e-23
6.51405e-23
6.55824e-23
6.59651e-23
6.6124e-23
6.60753e-23
6.58493e-23
6.55773e-23
6.54556e-23
6.55787e-23
6.58438e-23
6.60851e-23
6.61951e-23
6.6193e-23
6.61476e-23
6.61078e-23
6.61179e-23
6.61759e-23
6.6246e-23
6.63213e-23
6.63926e-23
6.64126e-23
6.633e-23
6.61353e-23
6.59298e-23
6.58737e-23
6.59426e-23
6.59806e-23
6.59007e-23
6.56773e-23
6.54049e-23
6.52623e-23
6.53777e-23
6.56962e-23
6.59399e-23
6.58901e-23
6.56307e-23
6.53767e-23
6.52509e-23
6.52898e-23
6.54603e-23
6.56838e-23
6.575e-23
6.54981e-23
6.50209e-23
6.46379e-23
6.45648e-23
6.4682e-23
6.47684e-23
6.48805e-23
6.35186e-23
6.42748e-23
6.39205e-23
6.45402e-23
6.46265e-23
6.50557e-23
6.50053e-23
6.4812e-23
6.42999e-23
6.39748e-23
6.39288e-23
6.42046e-23
6.46097e-23
6.50102e-23
6.52862e-23
6.54746e-23
6.55448e-23
6.54527e-23
6.52146e-23
6.49606e-23
6.49064e-23
6.52035e-23
6.57008e-23
6.60641e-23
6.61022e-23
6.59095e-23
6.57229e-23
6.56422e-23
6.55974e-23
6.55372e-23
6.55014e-23
6.5544e-23
6.56598e-23
6.57835e-23
6.58752e-23
6.59249e-23
6.58192e-23
6.54922e-23
6.50981e-23
6.48368e-23
6.48245e-23
6.50242e-23
6.52768e-23
6.54067e-23
6.52895e-23
6.49859e-23
6.46859e-23
6.44429e-23
6.42265e-23
6.41716e-23
6.44345e-23
6.49329e-23
6.52764e-23
6.51737e-23
6.47189e-23
6.42447e-23
6.39621e-23
6.38571e-23
6.39417e-23
6.42828e-23
6.32211e-23
6.37205e-23
6.34453e-23
6.40937e-23
6.4062e-23
6.42682e-23
6.40935e-23
6.39668e-23
6.36088e-23
6.33521e-23
6.32184e-23
6.33019e-23
6.35096e-23
6.37809e-23
6.40433e-23
6.43823e-23
6.47417e-23
6.48973e-23
6.46721e-23
6.4218e-23
6.39643e-23
6.42318e-23
6.48608e-23
6.53988e-23
6.55369e-23
6.53105e-23
6.49923e-23
6.47811e-23
6.46595e-23
6.45403e-23
6.44336e-23
6.44576e-23
6.46904e-23
6.5031e-23
6.5289e-23
6.5346e-23
6.51169e-23
6.46328e-23
6.41557e-23
6.39939e-23
6.42447e-23
6.46214e-23
6.47254e-23
6.44852e-23
6.40983e-23
6.37546e-23
6.35172e-23
6.33359e-23
6.32046e-23
6.32424e-23
6.34959e-23
6.38704e-23
6.41542e-23
6.42043e-23
6.40026e-23
6.36414e-23
6.32829e-23
6.31098e-23
6.32953e-23
6.37175e-23
6.28731e-23
6.33764e-23
6.30618e-23
6.34927e-23
6.31952e-23
6.31865e-23
6.2941e-23
6.29241e-23
6.28134e-23
6.27832e-23
6.26906e-23
6.26046e-23
6.25528e-23
6.26122e-23
6.27775e-23
6.31336e-23
6.35812e-23
6.38489e-23
6.37605e-23
6.34638e-23
6.32923e-23
6.34656e-23
6.38856e-23
6.42903e-23
6.44682e-23
6.43505e-23
6.40593e-23
6.37857e-23
6.36149e-23
6.35047e-23
6.34183e-23
6.34408e-23
6.36631e-23
6.39798e-23
6.41754e-23
6.41629e-23
6.39539e-23
6.36325e-23
6.33927e-23
6.34075e-23
6.3665e-23
6.385e-23
6.36599e-23
6.32116e-23
6.27983e-23
6.25158e-23
6.23343e-23
6.22698e-23
6.23655e-23
6.25676e-23
6.27041e-23
6.27411e-23
6.278e-23
6.28729e-23
6.29098e-23
6.28137e-23
6.26905e-23
6.26929e-23
6.29038e-23
6.30463e-23
6.24218e-23
6.31306e-23
6.26998e-23
6.28308e-23
6.22859e-23
6.21797e-23
6.19534e-23
6.20086e-23
6.20355e-23
6.2194e-23
6.22367e-23
6.21326e-23
6.19352e-23
6.18249e-23
6.18472e-23
6.20502e-23
6.23312e-23
6.25535e-23
6.26823e-23
6.27709e-23
6.2848e-23
6.2931e-23
6.30112e-23
6.30929e-23
6.31758e-23
6.31884e-23
6.30726e-23
6.28676e-23
6.26781e-23
6.25737e-23
6.25551e-23
6.26206e-23
6.27477e-23
6.28315e-23
6.27965e-23
6.27207e-23
6.26961e-23
6.27571e-23
6.28958e-23
6.30077e-23
6.29803e-23
6.27479e-23
6.23684e-23
6.20233e-23
6.17701e-23
6.155e-23
6.14238e-23
6.1504e-23
6.17535e-23
6.1984e-23
6.20007e-23
6.18434e-23
6.1683e-23
6.1639e-23
6.17208e-23
6.19417e-23
6.22739e-23
6.25389e-23
6.265e-23
6.2413e-23
6.19541e-23
6.28425e-23
6.22781e-23
6.22486e-23
6.16231e-23
6.1526e-23
6.13704e-23
6.14673e-23
6.14825e-23
6.1644e-23
6.17704e-23
6.17933e-23
6.16786e-23
6.1549e-23
6.14138e-23
6.13287e-23
6.13201e-23
6.14553e-23
6.17729e-23
6.21658e-23
6.24329e-23
6.24899e-23
6.23614e-23
6.21651e-23
6.20665e-23
6.21102e-23
6.21792e-23
6.21353e-23
6.19869e-23
6.18727e-23
6.18853e-23
6.19742e-23
6.19877e-23
6.18221e-23
6.15783e-23
6.15116e-23
6.17386e-23
6.21502e-23
6.25058e-23
6.25299e-23
6.21733e-23
6.16674e-23
6.13095e-23
6.12043e-23
6.11678e-23
6.10651e-23
6.10266e-23
6.11397e-23
6.12976e-23
6.14052e-23
6.14251e-23
6.13434e-23
6.11317e-23
6.09003e-23
6.09021e-23
6.13149e-23
6.1944e-23
6.23388e-23
6.2404e-23
6.21304e-23
6.15899e-23
6.24815e-23
6.18153e-23
6.18188e-23
6.13147e-23
6.13167e-23
6.12328e-23
6.13422e-23
6.12664e-23
6.12858e-23
6.1371e-23
6.15304e-23
6.16349e-23
6.16184e-23
6.13786e-23
6.10437e-23
6.08314e-23
6.09113e-23
6.12564e-23
6.16682e-23
6.19459e-23
6.20317e-23
6.19108e-23
6.16454e-23
6.14284e-23
6.14028e-23
6.15157e-23
6.15935e-23
6.15525e-23
6.14714e-23
6.14452e-23
6.14532e-23
6.13707e-23
6.11309e-23
6.08818e-23
6.09029e-23
6.12695e-23
6.17492e-23
6.20073e-23
6.18499e-23
6.14155e-23
6.09957e-23
6.07855e-23
6.08271e-23
6.0977e-23
6.1079e-23
6.11169e-23
6.10838e-23
6.09936e-23
6.09835e-23
6.10988e-23
6.11859e-23
6.10598e-23
6.08202e-23
6.07716e-23
6.1085e-23
6.15766e-23
6.19206e-23
6.21317e-23
6.22101e-23
6.1356e-23
6.21032e-23
6.14158e-23
6.15369e-23
6.12602e-23
6.14409e-23
6.1417e-23
6.14827e-23
6.1311e-23
6.12131e-23
6.12161e-23
6.13937e-23
6.16103e-23
6.16988e-23
6.14871e-23
6.11472e-23
6.09402e-23
6.09711e-23
6.11436e-23
6.13259e-23
6.14634e-23
6.1568e-23
6.15745e-23
6.14386e-23
6.126e-23
6.11589e-23
6.11668e-23
6.12398e-23
6.13148e-23
6.1327e-23
6.12362e-23
6.10843e-23
6.09403e-23
6.08285e-23
6.07875e-23
6.09141e-23
6.11827e-23
6.13903e-23
6.13665e-23
6.11456e-23
6.09415e-23
6.0838e-23
6.07828e-23
6.08549e-23
6.11017e-23
6.13492e-23
6.13922e-23
6.1202e-23
6.09718e-23
6.09336e-23
6.10721e-23
6.12177e-23
6.12567e-23
6.12312e-23
6.11882e-23
6.11648e-23
6.12313e-23
6.14361e-23
6.18235e-23
6.22372e-23
6.11812e-23
6.1731e-23
6.1146e-23
6.13868e-23
6.1301e-23
6.16525e-23
6.16703e-23
6.16626e-23
6.14434e-23
6.13634e-23
6.13569e-23
6.14307e-23
6.15145e-23
6.15771e-23
6.15222e-23
6.14458e-23
6.14148e-23
6.13861e-23
6.13012e-23
6.1188e-23
6.1127e-23
6.1191e-23
6.13074e-23
6.13553e-23
6.1313e-23
6.12111e-23
6.11109e-23
6.11063e-23
6.12203e-23
6.13043e-23
6.11875e-23
6.09399e-23
6.07989e-23
6.08738e-23
6.10624e-23
6.12108e-23
6.11989e-23
6.10114e-23
6.07907e-23
6.07086e-23
6.08297e-23
6.10005e-23
6.10718e-23
6.11614e-23
6.13652e-23
6.15418e-23
6.15512e-23
6.1423e-23
6.12949e-23
6.12591e-23
6.12767e-23
6.13497e-23
6.15169e-23
6.16977e-23
6.1656e-23
6.1361e-23
6.11092e-23
6.11356e-23
6.14353e-23
6.1822e-23
6.09706e-23
6.13354e-23
6.09655e-23
6.13456e-23
6.1334e-23
6.17108e-23
6.17223e-23
6.16961e-23
6.15198e-23
6.15491e-23
6.15984e-23
6.15453e-23
6.13829e-23
6.13228e-23
6.14258e-23
6.16588e-23
6.18297e-23
6.17854e-23
6.15412e-23
6.12314e-23
6.1001e-23
6.09746e-23
6.11053e-23
6.12405e-23
6.13029e-23
6.12825e-23
6.12115e-23
6.11738e-23
6.12248e-23
6.12768e-23
6.11913e-23
6.1019e-23
6.0966e-23
6.11237e-23
6.13357e-23
6.13606e-23
6.1097e-23
6.07161e-23
6.0527e-23
6.06403e-23
6.09353e-23
6.12107e-23
6.13767e-23
6.14902e-23
6.15422e-23
6.15179e-23
6.15436e-23
6.16649e-23
6.17487e-23
6.17043e-23
6.15805e-23
6.15382e-23
6.16518e-23
6.18034e-23
6.17639e-23
6.15166e-23
6.12564e-23
6.1063e-23
6.09821e-23
6.10491e-23
6.06715e-23
6.09229e-23
6.07856e-23
6.13156e-23
6.12767e-23
6.15114e-23
6.14584e-23
6.14981e-23
6.14433e-23
6.1559e-23
6.16302e-23
6.15226e-23
6.1256e-23
6.11306e-23
6.1265e-23
6.15864e-23
6.18419e-23
6.18613e-23
6.16507e-23
6.1321e-23
6.10176e-23
6.08959e-23
6.09384e-23
6.10167e-23
6.10969e-23
6.11955e-23
6.12755e-23
6.12838e-23
6.12381e-23
6.1192e-23
6.11645e-23
6.11758e-23
6.12484e-23
6.1343e-23
6.1342e-23
6.1163e-23
6.0856e-23
6.06089e-23
6.05914e-23
6.07675e-23
6.10242e-23
6.1276e-23
6.14637e-23
6.15522e-23
6.14947e-23
6.13924e-23
6.1484e-23
6.1757e-23
6.19467e-23
6.19333e-23
6.17971e-23
6.16463e-23
6.15192e-23
6.14628e-23
6.14763e-23
6.1504e-23
6.14087e-23
6.1044e-23
6.06109e-23
6.03687e-23
6.03049e-23
6.05736e-23
6.05438e-23
6.11206e-23
6.10128e-23
6.10947e-23
6.09771e-23
6.10885e-23
6.11314e-23
6.12482e-23
6.12701e-23
6.1198e-23
6.10661e-23
6.10276e-23
6.10845e-23
6.12315e-23
6.13928e-23
6.148e-23
6.14313e-23
6.12481e-23
6.10024e-23
6.0823e-23
6.07255e-23
6.06743e-23
6.07316e-23
6.09272e-23
6.11356e-23
6.1197e-23
6.11119e-23
6.1024e-23
6.10444e-23
6.11741e-23
6.1301e-23
6.12735e-23
6.10419e-23
6.07502e-23
6.05892e-23
6.06085e-23
6.0716e-23
6.08093e-23
6.09249e-23
6.10822e-23
6.11944e-23
6.124e-23
6.12527e-23
6.12778e-23
6.13797e-23
6.15311e-23
6.16498e-23
6.17155e-23
6.16721e-23
6.14471e-23
6.11113e-23
6.09224e-23
6.10024e-23
6.12007e-23
6.12244e-23
6.09006e-23
6.04576e-23
6.01046e-23
5.99452e-23
6.03399e-23
6.02049e-23
6.06305e-23
6.04601e-23
6.05397e-23
6.04384e-23
6.0543e-23
6.05545e-23
6.06018e-23
6.05715e-23
6.05802e-23
6.06661e-23
6.07949e-23
6.07977e-23
6.07153e-23
6.06668e-23
6.07129e-23
6.08021e-23
6.0836e-23
6.07461e-23
6.05766e-23
6.03827e-23
6.02443e-23
6.02887e-23
6.05043e-23
6.07071e-23
6.07605e-23
6.07159e-23
6.06941e-23
6.07355e-23
6.08173e-23
6.08654e-23
6.07779e-23
6.05507e-23
6.03587e-23
6.03556e-23
6.0482e-23
6.05749e-23
6.05693e-23
6.05612e-23
6.05858e-23
6.06011e-23
6.069e-23
6.08921e-23
6.10559e-23
6.10596e-23
6.09621e-23
6.09248e-23
6.09998e-23
6.10096e-23
6.08169e-23
6.05432e-23
6.04299e-23
6.04892e-23
6.0588e-23
6.06335e-23
6.05764e-23
6.04318e-23
6.0157e-23
5.96459e-23
6.0134e-23
5.97389e-23
5.98965e-23
5.96834e-23
5.98795e-23
5.98714e-23
5.99188e-23
5.97991e-23
5.97619e-23
5.97357e-23
5.98052e-23
5.99748e-23
6.01891e-23
6.02341e-23
6.00865e-23
5.98764e-23
5.97855e-23
5.98822e-23
6.00555e-23
6.01209e-23
6.00409e-23
5.98812e-23
5.97568e-23
5.97836e-23
5.99174e-23
6.00063e-23
6.00105e-23
6.00275e-23
6.0096e-23
6.01232e-23
6.00595e-23
5.99739e-23
5.99472e-23
5.99782e-23
6.00291e-23
6.00628e-23
6.0064e-23
6.0048e-23
6.00045e-23
5.99395e-23
5.98754e-23
5.98862e-23
6.00825e-23
6.03673e-23
6.0489e-23
6.03772e-23
6.01652e-23
6.00004e-23
5.99322e-23
5.98985e-23
5.98747e-23
5.98997e-23
5.99595e-23
5.99267e-23
5.98369e-23
5.98816e-23
6.0087e-23
6.02441e-23
6.01514e-23
5.93616e-23
5.97772e-23
5.91514e-23
5.91297e-23
5.88861e-23
5.9133e-23
5.9185e-23
5.92181e-23
5.90343e-23
5.8968e-23
5.89684e-23
5.90186e-23
5.90771e-23
5.92094e-23
5.93133e-23
5.92829e-23
5.9102e-23
5.89344e-23
5.89371e-23
5.90782e-23
5.92004e-23
5.9254e-23
5.92491e-23
5.92049e-23
5.91765e-23
5.91689e-23
5.91434e-23
5.91157e-23
5.9149e-23
5.92219e-23
5.92007e-23
5.90441e-23
5.8922e-23
5.9037e-23
5.93437e-23
5.95796e-23
5.95656e-23
5.9398e-23
5.92772e-23
5.92239e-23
5.91802e-23
5.91663e-23
5.92524e-23
5.94409e-23
5.95694e-23
5.95232e-23
5.94033e-23
5.92737e-23
5.90664e-23
5.88282e-23
5.87368e-23
5.88868e-23
5.91506e-23
5.93232e-23
5.9289e-23
5.91905e-23
5.92438e-23
5.94685e-23
5.96986e-23
5.97805e-23
5.89561e-23
5.91794e-23
5.85298e-23
5.85347e-23
5.8262e-23
5.83844e-23
5.83647e-23
5.8448e-23
5.83842e-23
5.84007e-23
5.83935e-23
5.83265e-23
5.81789e-23
5.81221e-23
5.81892e-23
5.8302e-23
5.83258e-23
5.82617e-23
5.82015e-23
5.82032e-23
5.82654e-23
5.8403e-23
5.85416e-23
5.85606e-23
5.84694e-23
5.83604e-23
5.82884e-23
5.82528e-23
5.8245e-23
5.82393e-23
5.81713e-23
5.80535e-23
5.80404e-23
5.82687e-23
5.86329e-23
5.88679e-23
5.88383e-23
5.86602e-23
5.85187e-23
5.84641e-23
5.85079e-23
5.86308e-23
5.87235e-23
5.86986e-23
5.85554e-23
5.84069e-23
5.83803e-23
5.83886e-23
5.8249e-23
5.80203e-23
5.7932e-23
5.80668e-23
5.82921e-23
5.84979e-23