/*--------------------------------*- C++ -*----------------------------------*\
| =========                 |                                                 |
| \\      /  F ield         | foam-extend: Open Source CFD                    |
|  \\    /   O peration     | Version:     4.0                                |
|   \\  /    A nd           | Web:         http://www.foam-extend.org         |
|    \\/     M anipulation  |                                                 |
\*---------------------------------------------------------------------------*/
FoamFile
{
    version     2.0;
    format      ascii;
    class       volVectorField;
    location    "20";
    object      U;
}
// * * * * * * * * * * * * * * * * * * * * * * * * * * * * * * * * * * * * * //

dimensions      [0 1 -1 0 0 0 0];

internalField   nonuniform List<vector> 
6960
(
(-3.54772e-27 -1.11932e-25 0)
(-2.69463e-27 -1.87381e-26 0)
(3.19046e-28 -1.70978e-26 0)
(-2.32733e-28 -1.48928e-26 0)
(1.11741e-28 -1.48924e-26 0)
(-4.76669e-29 -1.5935e-26 0)
(8.73632e-29 -1.66126e-26 0)
(3.06468e-29 -1.74432e-26 0)
(4.9439e-29 -1.88679e-26 0)
(-3.64336e-29 -1.98729e-26 0)
(-1.33098e-29 -1.93623e-26 0)
(-1.61974e-29 -1.76292e-26 0)
(-4.75976e-29 -1.59835e-26 0)
(-7.95837e-29 -1.52808e-26 0)
(-6.18588e-29 -1.53499e-26 0)
(-4.05377e-29 -1.54324e-26 0)
(-2.95591e-29 -1.48442e-26 0)
(-2.86042e-29 -1.31459e-26 0)
(6.61488e-30 -1.05666e-26 0)
(4.99667e-29 -8.76115e-27 0)
(6.20335e-29 -9.87766e-27 0)
(6.40452e-29 -1.44445e-26 0)
(6.33378e-29 -2.07983e-26 0)
(4.3329e-29 -2.60978e-26 0)
(3.7501e-29 -2.77829e-26 0)
(4.11826e-29 -2.54915e-26 0)
(2.58015e-29 -2.13509e-26 0)
(1.98808e-29 -1.75382e-26 0)
(2.27363e-29 -1.48259e-26 0)
(-1.2946e-30 -1.30247e-26 0)
(-3.11268e-30 -1.20373e-26 0)
(3.72359e-29 -1.28895e-26 0)
(2.46794e-29 -1.64323e-26 0)
(-4.25451e-29 -2.11255e-26 0)
(-8.28223e-29 -2.4364e-26 0)
(-7.87317e-29 -2.52302e-26 0)
(-7.12415e-29 -2.38652e-26 0)
(-8.15197e-29 -2.04312e-26 0)
(-5.63561e-29 -1.60864e-26 0)
(-2.4182e-29 -1.28928e-26 0)
(-4.19774e-29 -1.22738e-26 0)
(-3.99867e-29 -1.38725e-26 0)
(-3.33912e-31 -1.59427e-26 0)
(2.54553e-29 -1.70112e-26 0)
(3.6493e-29 -1.6975e-26 0)
(2.06414e-29 -1.65265e-26 0)
(-2.32503e-29 -1.61889e-26 0)
(-2.36406e-29 -1.63924e-26 0)
(4.26347e-30 -1.74506e-26 0)
(-2.46984e-31 -1.85205e-26 0)
(-2.5632e-29 -1.83188e-26 0)
(-2.50442e-29 -1.74218e-26 0)
(9.73344e-30 -1.76048e-26 0)
(2.73494e-29 -1.93848e-26 0)
(-9.57849e-30 -2.15803e-26 0)
(-6.59426e-29 -2.31306e-26 0)
(-5.43278e-29 -2.38537e-26 0)
(-2.71996e-29 -2.35911e-26 0)
(7.1528e-30 -2.14677e-26 0)
(2.14919e-29 -1.93025e-26 0)
(-7.59942e-27 -2.27315e-25 0)
(-5.12152e-27 -3.64549e-26 0)
(9.83044e-28 -3.16197e-26 0)
(-6.18815e-28 -2.71694e-26 0)
(2.93346e-28 -2.78239e-26 0)
(-1.8642e-28 -3.02404e-26 0)
(2.16287e-28 -3.1685e-26 0)
(2.97341e-29 -3.33725e-26 0)
(7.49143e-29 -3.554e-26 0)
(-1.20864e-28 -3.59197e-26 0)
(3.01477e-29 -3.34384e-26 0)
(5.99442e-29 -2.99507e-26 0)
(-6.23926e-29 -2.77872e-26 0)
(-2.11554e-28 -2.72973e-26 0)
(-1.8839e-28 -2.73861e-26 0)
(-1.10321e-28 -2.66369e-26 0)
(-2.65324e-29 -2.40951e-26 0)
(3.90198e-29 -1.975e-26 0)
(1.49229e-28 -1.50828e-26 0)
(1.64036e-28 -1.33661e-26 0)
(3.24983e-30 -1.76381e-26 0)
(-1.50983e-28 -2.78884e-26 0)
(-1.73959e-28 -4.09023e-26 0)
(-8.81935e-29 -5.16149e-26 0)
(1.27987e-28 -5.50895e-26 0)
(3.16817e-28 -5.0458e-26 0)
(3.16891e-28 -4.17272e-26 0)
(2.56231e-28 -3.27264e-26 0)
(2.07071e-28 -2.49774e-26 0)
(8.7414e-29 -1.93629e-26 0)
(-4.27807e-31 -1.70086e-26 0)
(-2.44569e-29 -1.98841e-26 0)
(-1.79804e-28 -2.87085e-26 0)
(-3.65402e-28 -3.97778e-26 0)
(-3.62404e-28 -4.78694e-26 0)
(-2.06282e-28 -5.09116e-26 0)
(-5.45284e-29 -4.84948e-26 0)
(2.23416e-31 -4.10088e-26 0)
(6.16565e-29 -3.18107e-26 0)
(4.23312e-29 -2.52915e-26 0)
(-1.53703e-28 -2.33215e-26 0)
(-2.31106e-28 -2.49247e-26 0)
(-1.01995e-28 -2.78591e-26 0)
(3.89735e-29 -3.01009e-26 0)
(1.22727e-28 -3.08306e-26 0)
(8.796e-29 -3.0321e-26 0)
(-6.34511e-29 -2.9116e-26 0)
(-1.12378e-28 -2.82285e-26 0)
(-6.04053e-29 -2.88527e-26 0)
(-3.6336e-29 -3.00838e-26 0)
(-5.07673e-29 -2.99444e-26 0)
(-5.821e-29 -2.93719e-26 0)
(-3.22531e-29 -3.12399e-26 0)
(-3.77814e-29 -3.64385e-26 0)
(-1.40773e-28 -4.25782e-26 0)
(-2.66419e-28 -4.68875e-26 0)
(-1.80533e-28 -4.87023e-26 0)
(-1.27957e-29 -4.84883e-26 0)
(1.48044e-28 -4.51927e-26 0)
(1.27816e-28 -4.20724e-26 0)
(-1.14105e-26 -2.07902e-25 0)
(-7.36683e-27 -2.28602e-26 0)
(1.61201e-27 -1.64272e-26 0)
(-1.02331e-27 -1.33091e-26 0)
(4.32329e-28 -1.54143e-26 0)
(-3.34272e-28 -1.83562e-26 0)
(3.41333e-28 -2.00861e-26 0)
(5.46491e-29 -2.14218e-26 0)
(1.74323e-28 -2.11463e-26 0)
(-1.0546e-28 -1.74864e-26 0)
(1.20813e-28 -1.23195e-26 0)
(1.0436e-28 -9.64088e-27 0)
(-1.3505e-28 -1.02357e-26 0)
(-3.63228e-28 -1.12084e-26 0)
(-2.80182e-28 -1.03289e-26 0)
(-1.08105e-28 -7.28611e-27 0)
(4.59614e-29 -2.67472e-27 0)
(1.16282e-28 1.60477e-27 0)
(2.09691e-28 2.63402e-27 0)
(1.44152e-28 -1.18587e-27 0)
(-1.65685e-28 -8.56102e-27 0)
(-4.19673e-28 -1.68202e-26 0)
(-4.29951e-28 -2.45623e-26 0)
(-2.27855e-28 -3.09862e-26 0)
(2.17679e-28 -3.38472e-26 0)
(6.08727e-28 -3.15389e-26 0)
(6.6554e-28 -2.51177e-26 0)
(6.10498e-28 -1.58982e-26 0)
(5.32322e-28 -5.59162e-27 0)
(2.57113e-28 2.25004e-27 0)
(-2.15246e-29 4.54215e-27 0)
(-1.83748e-28 1.61167e-28 0)
(-4.99102e-28 -9.64215e-27 0)
(-7.94084e-28 -2.06327e-26 0)
(-7.29472e-28 -2.88759e-26 0)
(-3.75011e-28 -3.33191e-26 0)
(-1.69589e-29 -3.307e-26 0)
(1.25667e-28 -2.81512e-26 0)
(2.0266e-28 -2.22347e-26 0)
(1.36794e-28 -1.83638e-26 0)
(-1.89252e-28 -1.53864e-26 0)
(-3.33365e-28 -1.20753e-26 0)
(-1.74991e-28 -1.0345e-26 0)
(1.62399e-29 -1.1785e-26 0)
(1.68683e-28 -1.45408e-26 0)
(1.62552e-28 -1.5447e-26 0)
(-4.14477e-29 -1.32303e-26 0)
(-1.12297e-28 -9.46768e-27 0)
(-5.41112e-29 -6.74241e-27 0)
(-6.09547e-29 -5.66706e-27 0)
(-1.33729e-28 -5.84906e-27 0)
(-1.8734e-28 -8.22478e-27 0)
(-1.7974e-28 -1.38377e-26 0)
(-2.12538e-28 -2.22194e-26 0)
(-3.66069e-28 -3.05229e-26 0)
(-5.16713e-28 -3.5397e-26 0)
(-3.30079e-28 -3.66697e-26 0)
(-4.12652e-29 -3.68721e-26 0)
(2.16212e-28 -3.66901e-26 0)
(1.92882e-28 -3.763e-26 0)
(-1.52793e-26 -1.82332e-25 0)
(-9.77852e-27 -6.7381e-27 0)
(2.11387e-27 -2.34002e-27 0)
(-1.49454e-27 -1.75434e-27 0)
(5.25842e-28 -5.07234e-27 0)
(-4.93824e-28 -8.23382e-27 0)
(4.69064e-28 -9.88416e-27 0)
(1.49881e-28 -1.01715e-26 0)
(4.04229e-28 -7.32021e-27 0)
(2.62295e-29 -7.18168e-28 0)
(2.25066e-28 5.81394e-27 0)
(7.51498e-29 7.68597e-27 0)
(-2.69498e-28 5.89373e-27 0)
(-4.95165e-28 5.53924e-27 0)
(-2.94108e-28 8.66414e-27 0)
(-3.82836e-29 1.34613e-26 0)
(1.07678e-28 1.77557e-26 0)
(6.06157e-29 1.91292e-26 0)
(5.24277e-29 1.51869e-26 0)
(-3.12465e-29 7.05356e-27 0)
(-2.79311e-28 8.95895e-29 0)
(-4.23571e-28 -1.30322e-27 0)
(-3.78873e-28 1.10202e-27 0)
(-2.10331e-28 2.02736e-27 0)
(2.54911e-28 -3.74629e-29 0)
(7.41957e-28 -1.85115e-27 0)
(8.96207e-28 -9.30971e-30 0)
(9.41541e-28 6.52603e-27 0)
(8.77126e-28 1.51973e-26 0)
(4.2489e-28 2.14492e-26 0)
(-6.60427e-29 2.28712e-26 0)
(-3.37591e-28 1.92101e-26 0)
(-7.50774e-28 1.18398e-26 0)
(-1.12709e-27 4.83371e-27 0)
(-1.05062e-27 5.42347e-28 0)
(-5.97986e-28 -3.08373e-27 0)
(-1.31036e-28 -6.72954e-27 0)
(3.73918e-29 -8.9553e-27 0)
(1.39875e-28 -1.06347e-26 0)
(1.53361e-28 -1.18725e-26 0)
(-1.09749e-28 -9.01077e-27 0)
(-2.22376e-28 -1.07785e-27 0)
(-1.16374e-28 5.91252e-27 0)
(-2.42832e-29 6.15272e-27 0)
(1.40111e-28 1.56676e-27 0)
(2.22904e-28 -1.22305e-27 0)
(5.16637e-29 1.33e-27 0)
(-2.18083e-30 6.79627e-27 0)
(5.0416e-29 1.12934e-26 0)
(-4.91793e-29 1.41801e-26 0)
(-2.79054e-28 1.491e-26 0)
(-4.50594e-28 1.07374e-26 0)
(-4.58391e-28 9.3916e-28 0)
(-4.59187e-28 -1.11649e-26 0)
(-5.88894e-28 -2.00939e-26 0)
(-7.18229e-28 -2.26222e-26 0)
(-4.54748e-28 -2.13058e-26 0)
(-1.41083e-28 -2.08066e-26 0)
(1.25864e-28 -2.25353e-26 0)
(1.66453e-28 -2.69775e-26 0)
(-1.89953e-26 -1.78596e-25 0)
(-1.22184e-26 -5.85755e-27 0)
(2.41782e-27 -5.80021e-27 0)
(-2.02312e-27 -7.65214e-27 0)
(5.86923e-28 -1.22178e-26 0)
(-6.44499e-28 -1.51725e-26 0)
(6.2526e-28 -1.54427e-26 0)
(2.97097e-28 -1.41841e-26 0)
(6.79026e-28 -1.05405e-26 0)
(1.83768e-28 -3.84113e-27 0)
(3.34838e-28 2.78599e-27 0)
(6.02882e-29 5.34118e-27 0)
(-3.48751e-28 5.2712e-27 0)
(-5.37441e-28 7.65121e-27 0)
(-2.43709e-28 1.29343e-26 0)
(1.66689e-29 1.72004e-26 0)
(7.6961e-29 1.83195e-26 0)
(-1.17768e-28 1.62127e-26 0)
(-1.93537e-28 1.08899e-26 0)
(-1.90469e-28 4.68708e-27 0)
(-2.28992e-28 2.89578e-27 0)
(-1.57881e-28 8.53503e-27 0)
(-8.21707e-29 1.73131e-26 0)
(-9.20954e-29 2.16883e-26 0)
(2.40075e-28 1.99454e-26 0)
(7.60841e-28 1.66958e-26 0)
(1.02056e-27 1.61156e-26 0)
(1.16616e-27 1.87576e-26 0)
(1.1069e-27 2.21146e-26 0)
(5.2331e-28 2.39201e-26 0)
(-9.16799e-29 2.44842e-26 0)
(-4.11355e-28 2.32782e-26 0)
(-8.86064e-28 1.96561e-26 0)
(-1.31217e-27 1.72395e-26 0)
(-1.26163e-27 1.76933e-26 0)
(-8.56554e-28 1.58097e-26 0)
(-4.38799e-28 8.83579e-27 0)
(-3.01555e-28 1.72844e-28 0)
(-1.21862e-28 -7.73755e-27 0)
(8.21204e-29 -1.32674e-26 0)
(3.78725e-30 -1.24128e-26 0)
(-6.77654e-30 -4.33474e-27 0)
(2.21935e-29 4.13613e-27 0)
(-6.84986e-29 5.62153e-27 0)
(5.7106e-29 9.28744e-28 0)
(2.51445e-28 -2.98107e-27 0)
(1.51516e-28 -1.63555e-27 0)
(1.16036e-28 2.57047e-27 0)
(1.67628e-28 5.97205e-27 0)
(5.09215e-30 9.55675e-27 0)
(-4.03053e-28 1.27241e-26 0)
(-7.93753e-28 9.40183e-27 0)
(-8.89432e-28 -3.29934e-27 0)
(-7.99318e-28 -1.95171e-26 0)
(-7.70158e-28 -2.94272e-26 0)
(-8.07734e-28 -2.91232e-26 0)
(-4.95205e-28 -2.41833e-26 0)
(-2.05254e-28 -2.07076e-26 0)
(1.93861e-29 -1.97225e-26 0)
(1.15163e-28 -2.31786e-26 0)
(-2.25543e-26 -1.81644e-25 0)
(-1.46927e-26 -1.13213e-26 0)
(2.5088e-27 -1.38135e-26 0)
(-2.62937e-27 -1.80356e-26 0)
(6.08089e-28 -2.49709e-26 0)
(-7.50966e-28 -2.79317e-26 0)
(8.44681e-28 -2.62138e-26 0)
(4.75329e-28 -2.34325e-26 0)
(9.37623e-28 -1.98557e-26 0)
(3.2806e-28 -1.36499e-26 0)
(4.66113e-28 -6.71404e-27 0)
(1.12222e-28 -2.88875e-27 0)
(-3.27358e-28 -9.49909e-28 0)
(-4.90818e-28 3.60658e-27 0)
(-1.89525e-28 9.42572e-27 0)
(-2.93267e-29 1.11297e-26 0)
(-8.05332e-29 8.18877e-27 0)
(-3.35276e-28 4.25407e-27 0)
(-3.37335e-28 1.75126e-27 0)
(-1.36895e-28 2.43564e-27 0)
(5.92832e-29 8.58047e-27 0)
(2.82544e-28 1.96782e-26 0)
(2.9396e-28 3.00369e-26 0)
(5.23397e-29 3.41173e-26 0)
(2.45713e-28 3.32312e-26 0)
(7.71678e-28 3.16962e-26 0)
(1.04564e-27 3.02427e-26 0)
(1.19395e-27 2.77977e-26 0)
(1.12957e-27 2.42464e-26 0)
(5.17899e-28 2.10229e-26 0)
(-8.47625e-29 2.04005e-26 0)
(-3.72373e-28 2.12656e-26 0)
(-8.77157e-28 2.14315e-26 0)
(-1.34183e-27 2.34868e-26 0)
(-1.36522e-27 2.78035e-26 0)
(-1.12954e-27 2.74795e-26 0)
(-8.76468e-28 1.95406e-26 0)
(-8.09757e-28 8.51078e-27 0)
(-5.36608e-28 -2.73274e-27 0)
(-1.14967e-28 -1.26262e-26 0)
(2.24591e-29 -1.65089e-26 0)
(1.59282e-28 -1.22482e-26 0)
(1.62868e-28 -5.55654e-27 0)
(-8.576e-29 -3.63247e-27 0)
(-2.27797e-29 -7.01169e-27 0)
(2.34722e-28 -1.09701e-26 0)
(1.7229e-28 -1.19034e-26 0)
(1.55669e-28 -1.08731e-26 0)
(2.60199e-28 -9.43282e-27 0)
(1.18983e-28 -5.11501e-27 0)
(-4.4745e-28 8.45956e-28 0)
(-1.14655e-27 -2.55784e-28 0)
(-1.43431e-27 -1.34016e-26 0)
(-1.24677e-27 -3.22575e-26 0)
(-9.4607e-28 -4.41913e-26 0)
(-7.89836e-28 -4.28475e-26 0)
(-3.90339e-28 -3.38679e-26 0)
(-1.06771e-28 -2.46739e-26 0)
(5.43876e-29 -1.8061e-26 0)
(1.18678e-28 -1.7688e-26 0)
(-2.59316e-26 -1.86335e-25 0)
(-1.71119e-26 -1.64504e-26 0)
(2.45266e-27 -1.78209e-26 0)
(-3.34189e-27 -2.35886e-26 0)
(5.42818e-28 -3.35726e-26 0)
(-8.36737e-28 -3.75743e-26 0)
(1.11423e-27 -3.48582e-26 0)
(6.78075e-28 -3.08864e-26 0)
(1.19489e-27 -2.66502e-26 0)
(4.88775e-28 -1.97703e-26 0)
(6.31814e-28 -1.21541e-26 0)
(2.08304e-28 -8.1266e-27 0)
(-2.58541e-28 -6.43126e-27 0)
(-4.25668e-28 -2.421e-27 0)
(-1.95421e-28 1.81983e-27 0)
(-1.94741e-28 7.57304e-28 0)
(-3.10465e-28 -4.00109e-27 0)
(-4.77386e-28 -6.11402e-27 0)
(-2.50515e-28 -2.72897e-27 0)
(2.13286e-28 5.76005e-27 0)
(5.76851e-28 1.82708e-26 0)
(8.00772e-28 3.17677e-26 0)
(6.4299e-28 4.0971e-26 0)
(1.96663e-28 4.36117e-26 0)
(3.2512e-28 4.37049e-26 0)
(8.21789e-28 4.41722e-26 0)
(9.63928e-28 4.21368e-26 0)
(1.00298e-27 3.57223e-26 0)
(9.44925e-28 2.7252e-26 0)
(4.00232e-28 2.03903e-26 0)
(-8.37336e-29 1.80995e-26 0)
(-2.55305e-28 1.91808e-26 0)
(-7.38797e-28 2.10886e-26 0)
(-1.24117e-27 2.55941e-26 0)
(-1.38588e-27 3.19514e-26 0)
(-1.36823e-27 3.31343e-26 0)
(-1.30413e-27 2.73426e-26 0)
(-1.35144e-27 1.88663e-26 0)
(-1.07478e-27 7.74247e-27 0)
(-5.12528e-28 -6.15658e-27 0)
(-1.61513e-28 -1.62432e-26 0)
(1.84678e-28 -1.74195e-26 0)
(2.49833e-28 -1.41435e-26 0)
(-8.35083e-29 -1.35966e-26 0)
(-7.49513e-29 -1.68385e-26 0)
(1.8027e-28 -2.07617e-26 0)
(9.18645e-29 -2.31007e-26 0)
(1.04932e-28 -2.41274e-26 0)
(3.39346e-28 -2.36395e-26 0)
(2.97498e-28 -1.8411e-26 0)
(-4.02566e-28 -1.02829e-26 0)
(-1.44766e-27 -8.93335e-27 0)
(-2.00558e-27 -2.04401e-26 0)
(-1.78211e-27 -3.98837e-26 0)
(-1.17718e-27 -5.41435e-26 0)
(-6.95329e-28 -5.338e-26 0)
(-7.62115e-29 -4.04864e-26 0)
(2.35309e-28 -2.44959e-26 0)
(2.77382e-28 -1.26381e-26 0)
(1.96405e-28 -8.97757e-27 0)
(-2.9067e-26 -1.93196e-25 0)
(-1.93557e-26 -2.13114e-26 0)
(2.3322e-27 -1.94391e-26 0)
(-4.13872e-27 -2.45817e-26 0)
(3.69044e-28 -3.62247e-26 0)
(-9.50081e-28 -4.18282e-26 0)
(1.4041e-27 -3.96688e-26 0)
(9.28904e-28 -3.49077e-26 0)
(1.50445e-27 -2.89671e-26 0)
(6.92037e-28 -2.05634e-26 0)
(7.95534e-28 -1.29441e-26 0)
(2.54429e-28 -1.09875e-26 0)
(-2.64158e-28 -1.27883e-26 0)
(-4.42686e-28 -1.23094e-26 0)
(-2.83809e-28 -1.05458e-26 0)
(-3.96686e-28 -1.21751e-26 0)
(-4.62234e-28 -1.45459e-26 0)
(-4.13214e-28 -1.12503e-26 0)
(9.86624e-29 -1.43597e-27 0)
(7.77878e-28 1.17141e-26 0)
(1.19099e-27 2.56878e-26 0)
(1.30333e-27 3.82407e-26 0)
(9.40587e-28 4.60483e-26 0)
(3.33297e-28 4.79874e-26 0)
(4.40859e-28 4.78128e-26 0)
(8.82751e-28 4.78038e-26 0)
(8.2388e-28 4.51179e-26 0)
(7.08163e-28 3.82426e-26 0)
(6.53647e-28 2.92318e-26 0)
(1.99084e-28 2.13528e-26 0)
(-1.3272e-28 1.77715e-26 0)
(-1.55206e-28 1.72194e-26 0)
(-5.88484e-28 1.70285e-26 0)
(-1.10869e-27 1.99369e-26 0)
(-1.35716e-27 2.63502e-26 0)
(-1.51323e-27 2.95822e-26 0)
(-1.58409e-27 2.79714e-26 0)
(-1.77555e-27 2.48492e-26 0)
(-1.6439e-27 1.71221e-26 0)
(-1.0915e-27 2.25583e-27 0)
(-5.65174e-28 -1.2055e-26 0)
(3.55324e-29 -1.80312e-26 0)
(2.13508e-28 -1.90672e-26 0)
(-1.6083e-28 -2.2522e-26 0)
(-1.65279e-28 -2.87971e-26 0)
(1.08522e-28 -3.37554e-26 0)
(-4.65314e-30 -3.52892e-26 0)
(4.46894e-29 -3.49505e-26 0)
(4.35443e-28 -3.35721e-26 0)
(5.28094e-28 -2.75765e-26 0)
(-2.79997e-28 -1.79715e-26 0)
(-1.67076e-27 -1.44175e-26 0)
(-2.54915e-27 -2.38984e-26 0)
(-2.37121e-27 -4.27588e-26 0)
(-1.47176e-27 -5.77868e-26 0)
(-5.44293e-28 -5.70311e-26 0)
(4.3556e-28 -4.16649e-26 0)
(7.84299e-28 -2.18546e-26 0)
(6.23936e-28 -7.67213e-27 0)
(3.15733e-28 -2.40935e-27 0)
(-3.19154e-26 -2.00999e-25 0)
(-2.13607e-26 -2.66652e-26 0)
(2.2194e-27 -2.16703e-26 0)
(-4.9205e-27 -2.33701e-26 0)
(1.31057e-28 -3.35816e-26 0)
(-1.12186e-27 -3.97969e-26 0)
(1.67456e-27 -3.90303e-26 0)
(1.23016e-27 -3.45441e-26 0)
(1.88444e-27 -2.7663e-26 0)
(9.2051e-28 -1.87002e-26 0)
(8.85797e-28 -1.25786e-26 0)
(1.38967e-28 -1.46311e-26 0)
(-4.55723e-28 -2.18557e-26 0)
(-5.88398e-28 -2.56773e-26 0)
(-3.90558e-28 -2.47805e-26 0)
(-4.88436e-28 -2.34391e-26 0)
(-3.98526e-28 -2.03507e-26 0)
(-1.08048e-28 -1.14154e-26 0)
(6.06441e-28 1.62431e-27 0)
(1.36849e-27 1.42993e-26 0)
(1.74946e-27 2.54592e-26 0)
(1.75906e-27 3.57697e-26 0)
(1.22863e-27 4.32805e-26 0)
(4.50151e-28 4.51663e-26 0)
(4.95663e-28 4.3108e-26 0)
(8.89649e-28 4.03633e-26 0)
(6.95588e-28 3.69976e-26 0)
(4.69438e-28 3.23621e-26 0)
(3.96995e-28 2.64859e-26 0)
(-1.33755e-29 2.0636e-26 0)
(-2.43495e-28 1.72026e-26 0)
(-1.82955e-28 1.39558e-26 0)
(-5.92372e-28 8.35421e-27 0)
(-1.05952e-27 6.31692e-27 0)
(-1.29134e-27 1.15017e-26 0)
(-1.52444e-27 1.7027e-26 0)
(-1.67253e-27 1.94349e-26 0)
(-2.00856e-27 2.12744e-26 0)
(-2.11119e-27 1.86565e-26 0)
(-1.70267e-27 7.25793e-27 0)
(-1.09493e-27 -6.67607e-27 0)
(-2.79869e-28 -1.5239e-26 0)
(-1.51367e-29 -2.0854e-26 0)
(-4.35243e-28 -2.99157e-26 0)
(-3.86095e-28 -4.10756e-26 0)
(3.62922e-29 -4.77665e-26 0)
(-1.90789e-30 -4.71694e-26 0)
(8.26406e-29 -4.32287e-26 0)
(5.81284e-28 -3.96716e-26 0)
(8.00783e-28 -3.28225e-26 0)
(-9.04634e-29 -2.19797e-26 0)
(-1.82789e-27 -1.66761e-26 0)
(-3.06067e-27 -2.46652e-26 0)
(-2.95239e-27 -4.20037e-26 0)
(-1.74476e-27 -5.49029e-26 0)
(-3.40259e-28 -5.24365e-26 0)
(1.01154e-27 -3.74089e-26 0)
(1.37967e-27 -1.94476e-26 0)
(1.00572e-27 -6.38145e-27 0)
(4.54997e-28 -5.00878e-28 0)
(-3.44868e-26 -2.07414e-25 0)
(-2.31541e-26 -3.21375e-26 0)
(2.15026e-27 -2.53059e-26 0)
(-5.56642e-27 -2.20535e-26 0)
(-6.65503e-29 -2.80587e-26 0)
(-1.31833e-27 -3.24372e-26 0)
(1.89277e-27 -3.23846e-26 0)
(1.51154e-27 -2.98137e-26 0)
(2.25422e-27 -2.51268e-26 0)
(1.09995e-27 -1.86109e-26 0)
(8.39987e-28 -1.57094e-26 0)
(-1.83143e-28 -2.18905e-26 0)
(-8.36104e-28 -3.30946e-26 0)
(-7.93491e-28 -3.83825e-26 0)
(-3.88616e-28 -3.49114e-26 0)
(-3.63438e-28 -2.83168e-26 0)
(-1.20067e-28 -2.05564e-26 0)
(3.09245e-28 -1.01377e-26 0)
(1.08015e-27 6.62058e-28 0)
(1.83121e-27 9.09658e-27 0)
(2.1994e-27 1.67338e-26 0)
(2.19068e-27 2.56959e-26 0)
(1.52744e-27 3.31548e-26 0)
(5.19548e-28 3.42875e-26 0)
(4.38712e-28 3.00195e-26 0)
(8.18872e-28 2.49899e-26 0)
(6.06279e-28 2.11573e-26 0)
(3.6389e-28 1.86304e-26 0)
(2.84657e-28 1.67813e-26 0)
(-1.42705e-28 1.50318e-26 0)
(-3.94372e-28 1.32786e-26 0)
(-3.99246e-28 7.55288e-27 0)
(-8.41704e-28 -3.64437e-27 0)
(-1.15537e-27 -1.08021e-26 0)
(-1.21223e-27 -7.59124e-27 0)
(-1.43013e-27 -1.33645e-27 0)
(-1.62e-27 3.00618e-27 0)
(-2.06016e-27 7.99554e-27 0)
(-2.373e-27 1.04489e-26 0)
(-2.16237e-27 5.07661e-27 0)
(-1.60266e-27 -4.69653e-27 0)
(-7.13157e-28 -1.30348e-26 0)
(-4.52975e-28 -2.17957e-26 0)
(-9.31405e-28 -3.51275e-26 0)
(-7.47993e-28 -4.94774e-26 0)
(-3.18646e-29 -5.70927e-26 0)
(1.19486e-28 -5.53203e-26 0)
(2.45967e-28 -4.93372e-26 0)
(7.9988e-28 -4.41488e-26 0)
(1.12705e-27 -3.61265e-26 0)
(1.60802e-28 -2.39506e-26 0)
(-1.9338e-27 -1.70673e-26 0)
(-3.52217e-27 -2.30191e-26 0)
(-3.44074e-27 -3.71166e-26 0)
(-1.90692e-27 -4.61299e-26 0)
(-1.16774e-28 -4.21407e-26 0)
(1.47458e-27 -3.03073e-26 0)
(1.84828e-27 -1.7997e-26 0)
(1.3522e-27 -8.16648e-27 0)
(6.02732e-28 -3.20989e-27 0)
(-3.68105e-26 -2.1135e-25 0)
(-2.47905e-26 -3.63376e-26 0)
(2.10942e-27 -2.8767e-26 0)
(-6.02436e-27 -2.14107e-26 0)
(-1.23365e-28 -2.26226e-26 0)
(-1.45354e-27 -2.31006e-26 0)
(2.05043e-27 -2.23683e-26 0)
(1.65489e-27 -2.28759e-26 0)
(2.45393e-27 -2.3768e-26 0)
(1.11656e-27 -2.3138e-26 0)
(6.38919e-28 -2.47141e-26 0)
(-6.30598e-28 -3.298e-26 0)
(-1.25026e-27 -4.33868e-26 0)
(-8.89203e-28 -4.48738e-26 0)
(-1.77703e-28 -3.58651e-26 0)
(-5.75472e-29 -2.50854e-26 0)
(1.96756e-28 -1.74464e-26 0)
(6.05532e-28 -1.1686e-26 0)
(1.35857e-27 -7.31089e-27 0)
(2.1438e-27 -3.4756e-27 0)
(2.59549e-27 2.67763e-27 0)
(2.61548e-27 1.13802e-26 0)
(1.796e-27 1.76912e-26 0)
(5.24566e-28 1.70946e-26 0)
(3.18634e-28 1.19622e-26 0)
(7.14546e-28 7.05091e-27 0)
(5.33007e-28 3.3439e-27 0)
(3.51227e-28 1.2719e-27 0)
(3.30589e-28 1.62043e-27 0)
(-1.38798e-28 3.33178e-27 0)
(-5.4264e-28 3.75099e-27 0)
(-7.54809e-28 -2.52039e-27 0)
(-1.27516e-27 -1.59083e-26 0)
(-1.38054e-27 -2.54509e-26 0)
(-1.18634e-27 -2.45834e-26 0)
(-1.33553e-27 -2.0438e-26 0)
(-1.51155e-27 -1.6877e-26 0)
(-1.97331e-27 -1.0395e-26 0)
(-2.42044e-27 -4.32142e-27 0)
(-2.40336e-27 -4.96594e-27 0)
(-1.98529e-27 -1.04487e-26 0)
(-1.15943e-27 -1.62439e-26 0)
(-9.91082e-28 -2.40955e-26 0)
(-1.52233e-27 -3.67621e-26 0)
(-1.15288e-27 -4.99009e-26 0)
(-1.07274e-28 -5.68798e-26 0)
(2.47522e-28 -5.63496e-26 0)
(4.3159e-28 -5.25157e-26 0)
(1.06422e-27 -4.84027e-26 0)
(1.51772e-27 -3.99377e-26 0)
(4.85542e-28 -2.64157e-26 0)
(-1.94772e-27 -1.70435e-26 0)
(-3.85273e-27 -1.8722e-26 0)
(-3.77786e-27 -2.78569e-26 0)
(-1.98233e-27 -3.40364e-26 0)
(4.14027e-29 -3.12561e-26 0)
(1.74009e-27 -2.38539e-26 0)
(2.12944e-27 -1.66608e-26 0)
(1.58909e-27 -1.0414e-26 0)
(7.0974e-28 -9.05645e-27 0)
(-3.88881e-26 -2.12704e-25 0)
(-2.62834e-26 -3.81354e-26 0)
(2.04817e-27 -3.02565e-26 0)
(-6.34296e-27 -2.09361e-26 0)
(-2.3635e-29 -1.91837e-26 0)
(-1.47321e-27 -1.62221e-26 0)
(2.15925e-27 -1.44667e-26 0)
(1.58642e-27 -1.78356e-26 0)
(2.35875e-27 -2.48916e-26 0)
(8.83349e-28 -3.11351e-26 0)
(3.19732e-28 -3.6872e-26 0)
(-1.0235e-27 -4.40962e-26 0)
(-1.45651e-27 -4.85798e-26 0)
(-7.09614e-28 -4.21899e-26 0)
(2.3139e-28 -2.74321e-26 0)
(2.44171e-28 -1.64256e-26 0)
(2.96723e-28 -1.45982e-26 0)
(5.96934e-28 -1.74356e-26 0)
(1.41037e-27 -1.97964e-26 0)
(2.38331e-27 -1.84656e-26 0)
(2.99912e-27 -1.2199e-26 0)
(3.01161e-27 -4.11041e-27 0)
(1.98974e-27 7.04997e-29 0)
(4.91334e-28 -1.89947e-27 0)
(2.28632e-28 -6.11328e-27 0)
(6.47528e-28 -8.96983e-27 0)
(4.59659e-28 -1.15485e-26 0)
(3.43125e-28 -1.39454e-26 0)
(4.35053e-28 -1.42142e-26 0)
(-4.80854e-29 -1.22222e-26 0)
(-6.33614e-28 -1.0328e-26 0)
(-1.0968e-27 -1.42692e-26 0)
(-1.72565e-27 -2.52782e-26 0)
(-1.66891e-27 -3.39049e-26 0)
(-1.27964e-27 -3.48883e-26 0)
(-1.3547e-27 -3.44152e-26 0)
(-1.42756e-27 -3.35721e-26 0)
(-1.81326e-27 -2.74576e-26 0)
(-2.35373e-27 -2.05492e-26 0)
(-2.5252e-27 -2.03592e-26 0)
(-2.24194e-27 -2.43401e-26 0)
(-1.47072e-27 -2.64824e-26 0)
(-1.38597e-27 -2.82013e-26 0)
(-1.97016e-27 -3.37363e-26 0)
(-1.46653e-27 -4.12694e-26 0)
(-2.14178e-28 -4.66048e-26 0)
(2.32175e-28 -4.91021e-26 0)
(4.69067e-28 -5.06943e-26 0)
(1.26564e-27 -5.10863e-26 0)
(1.93798e-27 -4.46034e-26 0)
(9.18847e-28 -3.02785e-26 0)
(-1.77095e-27 -1.70358e-26 0)
(-3.96007e-27 -1.26518e-26 0)
(-3.98202e-27 -1.6876e-26 0)
(-2.09154e-27 -2.26142e-26 0)
(5.51677e-29 -2.32938e-26 0)
(1.84942e-27 -1.96946e-26 0)
(2.27577e-27 -1.51988e-26 0)
(1.65947e-27 -1.1807e-26 0)
(7.14096e-28 -1.47596e-26 0)
(-4.07118e-26 -2.10748e-25 0)
(-2.76255e-26 -3.73775e-26 0)
(1.92106e-27 -2.95315e-26 0)
(-6.62229e-27 -1.99802e-26 0)
(1.36347e-28 -1.81867e-26 0)
(-1.43107e-27 -1.49352e-26 0)
(2.22404e-27 -1.36749e-26 0)
(1.34827e-27 -1.85317e-26 0)
(2.00787e-27 -2.84014e-26 0)
(4.40795e-28 -3.8009e-26 0)
(-2.40669e-29 -4.49583e-26 0)
(-1.20204e-27 -4.86582e-26 0)
(-1.30657e-27 -4.58418e-26 0)
(-2.25688e-28 -3.2452e-26 0)
(7.11771e-28 -1.51393e-26 0)
(3.33599e-28 -7.77877e-27 0)
(2.67103e-29 -1.38783e-26 0)
(2.7106e-28 -2.4285e-26 0)
(1.31987e-27 -3.04767e-26 0)
(2.61127e-27 -2.98524e-26 0)
(3.39313e-27 -2.41453e-26 0)
(3.3414e-27 -1.80442e-26 0)
(2.12268e-27 -1.58256e-26 0)
(4.77026e-28 -1.77803e-26 0)
(2.25713e-28 -2.01628e-26 0)
(6.68099e-28 -2.05232e-26 0)
(4.14686e-28 -2.10008e-26 0)
(2.86206e-28 -2.3132e-26 0)
(4.60365e-28 -2.5554e-26 0)
(2.60427e-29 -2.60178e-26 0)
(-6.2733e-28 -2.37396e-26 0)
(-1.2744e-27 -2.3918e-26 0)
(-2.04424e-27 -3.02096e-26 0)
(-1.939e-27 -3.59153e-26 0)
(-1.47759e-27 -3.695e-26 0)
(-1.52278e-27 -3.88619e-26 0)
(-1.44394e-27 -4.12333e-26 0)
(-1.69847e-27 -3.81282e-26 0)
(-2.3342e-27 -3.39979e-26 0)
(-2.68873e-27 -3.63523e-26 0)
(-2.4302e-27 -4.11175e-26 0)
(-1.52411e-27 -3.95577e-26 0)
(-1.39044e-27 -3.23275e-26 0)
(-2.05733e-27 -2.71087e-26 0)
(-1.59645e-27 -2.70101e-26 0)
(-3.6232e-28 -3.01661e-26 0)
(7.85579e-30 -3.52454e-26 0)
(2.44232e-28 -4.2211e-26 0)
(1.26655e-27 -4.86574e-26 0)
(2.30218e-27 -4.66442e-26 0)
(1.47019e-27 -3.31501e-26 0)
(-1.35494e-27 -1.68854e-26 0)
(-3.84572e-27 -7.95151e-27 0)
(-4.12021e-27 -9.17379e-27 0)
(-2.301e-27 -1.50112e-26 0)
(-7.37452e-29 -1.8067e-26 0)
(1.86627e-27 -1.70376e-26 0)
(2.34502e-27 -1.46079e-26 0)
(1.60804e-27 -1.30654e-26 0)
(6.42803e-28 -1.64008e-26 0)
(-4.23114e-26 -2.04294e-25 0)
(-2.88564e-26 -3.4298e-26 0)
(1.69251e-27 -2.74891e-26 0)
(-6.95168e-27 -1.87762e-26 0)
(2.04806e-28 -1.93745e-26 0)
(-1.46722e-27 -1.93618e-26 0)
(2.2274e-27 -2.0756e-26 0)
(1.08204e-27 -2.54935e-26 0)
(1.63226e-27 -3.2751e-26 0)
(6.15663e-30 -3.8846e-26 0)
(-2.58663e-28 -4.20167e-26 0)
(-1.14943e-27 -4.15526e-26 0)
(-9.03945e-28 -3.54672e-26 0)
(3.84125e-28 -2.15379e-26 0)
(1.10109e-27 -6.78011e-27 0)
(1.55023e-28 -3.87407e-27 0)
(-5.32598e-28 -1.43119e-26 0)
(-2.22337e-28 -2.70803e-26 0)
(1.1817e-27 -3.3814e-26 0)
(2.80447e-27 -3.39789e-26 0)
(3.70291e-27 -3.06409e-26 0)
(3.58462e-27 -2.74969e-26 0)
(2.23979e-27 -2.67418e-26 0)
(5.20191e-28 -2.8034e-26 0)
(3.14781e-28 -2.87143e-26 0)
(7.9213e-28 -2.69597e-26 0)
(4.38897e-28 -2.51533e-26 0)
(1.93969e-28 -2.61594e-26 0)
(3.64752e-28 -2.96093e-26 0)
(3.01178e-29 -3.18936e-26 0)
(-5.41565e-28 -2.98734e-26 0)
(-1.27084e-27 -2.80095e-26 0)
(-2.1903e-27 -3.09562e-26 0)
(-2.11129e-27 -3.33263e-26 0)
(-1.67144e-27 -3.19982e-26 0)
(-1.7822e-27 -3.35066e-26 0)
(-1.62633e-27 -3.84819e-26 0)
(-1.7788e-27 -4.05434e-26 0)
(-2.49544e-27 -4.16987e-26 0)
(-2.96725e-27 -4.72458e-26 0)
(-2.57463e-27 -5.23504e-26 0)
(-1.29994e-27 -4.76348e-26 0)
(-9.51365e-28 -3.35568e-26 0)
(-1.73562e-27 -2.0054e-26 0)
(-1.51074e-27 -1.35644e-26 0)
(-5.01267e-28 -1.35969e-26 0)
(-3.53676e-28 -1.83909e-26 0)
(-2.11199e-28 -2.73892e-26 0)
(1.01953e-27 -3.78728e-26 0)
(2.51685e-27 -4.07663e-26 0)
(2.03141e-27 -3.11598e-26 0)
(-8.318e-28 -1.6836e-26 0)
(-3.6327e-27 -8.19496e-27 0)
(-4.21524e-27 -8.1803e-27 0)
(-2.52142e-27 -1.17864e-26 0)
(-2.61921e-28 -1.37666e-26 0)
(1.78781e-27 -1.44147e-26 0)
(2.33295e-27 -1.51429e-26 0)
(1.58851e-27 -1.46542e-26 0)
(6.30619e-28 -1.30334e-26 0)
(-4.3745e-26 -1.9379e-25 0)
(-3.00652e-26 -2.90999e-26 0)
(1.30874e-27 -2.47527e-26 0)
(-7.39714e-27 -1.80827e-26 0)
(7.18704e-29 -2.21902e-26 0)
(-1.69306e-27 -2.65986e-26 0)
(2.15653e-27 -3.12682e-26 0)
(9.45463e-28 -3.45836e-26 0)
(1.53118e-27 -3.50664e-26 0)
(-1.21657e-28 -3.17816e-26 0)
(-2.63623e-28 -2.71877e-26 0)
(-1.01155e-27 -2.38916e-26 0)
(-5.81573e-28 -2.12426e-26 0)
(8.06671e-28 -1.48696e-26 0)
(1.3013e-27 -6.8026e-27 0)
(-1.32898e-28 -5.91372e-27 0)
(-1.10485e-27 -1.40088e-26 0)
(-6.85509e-28 -2.33316e-26 0)
(1.02785e-27 -2.87475e-26 0)
(2.89686e-27 -3.05618e-26 0)
(3.87422e-27 -3.04223e-26 0)
(3.73059e-27 -3.0383e-26 0)
(2.33901e-27 -3.15777e-26 0)
(6.06487e-28 -3.31667e-26 0)
(4.77311e-28 -3.28851e-26 0)
(1.00462e-27 -2.96887e-26 0)
(5.41832e-28 -2.634e-26 0)
(1.38324e-28 -2.55802e-26 0)
(2.63285e-28 -2.69491e-26 0)
(1.74779e-29 -2.7663e-26 0)
(-4.54346e-28 -2.58002e-26 0)
(-1.2247e-27 -2.5293e-26 0)
(-2.23229e-27 -2.83492e-26 0)
(-2.13405e-27 -2.8286e-26 0)
(-1.74552e-27 -2.3422e-26 0)
(-2.05329e-27 -2.29211e-26 0)
(-1.99069e-27 -2.94232e-26 0)
(-2.12121e-27 -3.60715e-26 0)
(-2.8518e-27 -4.15159e-26 0)
(-3.29958e-27 -4.81001e-26 0)
(-2.64553e-27 -5.15857e-26 0)
(-9.08083e-28 -4.50772e-26 0)
(-2.85381e-28 -3.0023e-26 0)
(-1.18045e-27 -1.54276e-26 0)
(-1.23234e-27 -6.38466e-27 0)
(-5.11553e-28 -2.28452e-27 0)
(-6.65481e-28 -2.74411e-27 0)
(-7.15023e-28 -8.64348e-27 0)
(6.21321e-28 -1.8592e-26 0)
(2.50917e-27 -2.50685e-26 0)
(2.35711e-27 -2.31058e-26 0)
(-4.89151e-28 -1.73179e-26 0)
(-3.47142e-27 -1.36084e-26 0)
(-4.2082e-27 -1.25733e-26 0)
(-2.58956e-27 -1.1368e-26 0)
(-4.12851e-28 -9.84589e-27 0)
(1.5954e-27 -1.11647e-26 0)
(2.21984e-27 -1.48943e-26 0)
(1.71026e-27 -1.53434e-26 0)
(7.75284e-28 -8.47176e-27 0)
(-4.50381e-26 -1.822e-25 0)
(-3.13085e-26 -2.28964e-26 0)
(7.01463e-28 -2.15241e-26 0)
(-8.00847e-27 -1.78319e-26 0)
(-2.68528e-28 -2.50304e-26 0)
(-2.09014e-27 -3.20363e-26 0)
(2.04989e-27 -3.81669e-26 0)
(1.03275e-27 -3.90588e-26 0)
(1.87139e-27 -3.22601e-26 0)
(2.19765e-28 -1.93227e-26 0)
(-2.21117e-29 -7.6682e-27 0)
(-9.90785e-28 -4.1757e-27 0)
(-6.68963e-28 -9.16187e-27 0)
(7.97591e-28 -1.39708e-26 0)
(1.32054e-27 -1.31939e-26 0)
(-2.93437e-28 -1.14002e-26 0)
(-1.41669e-27 -1.28859e-26 0)
(-9.78585e-28 -1.58821e-26 0)
(8.66413e-28 -1.90113e-26 0)
(2.87077e-27 -2.19422e-26 0)
(3.90444e-27 -2.42211e-26 0)
(3.74791e-27 -2.73084e-26 0)
(2.35066e-27 -3.18291e-26 0)
(6.76131e-28 -3.53918e-26 0)
(6.75829e-28 -3.53439e-26 0)
(1.26608e-27 -3.18068e-26 0)
(7.17281e-28 -2.77e-26 0)
(2.19342e-28 -2.43967e-26 0)
(3.32091e-28 -2.11484e-26 0)
(9.1045e-29 -1.77071e-26 0)
(-4.31924e-28 -1.53161e-26 0)
(-1.29597e-27 -1.76714e-26 0)
(-2.28459e-27 -2.31845e-26 0)
(-2.03492e-27 -2.26965e-26 0)
(-1.68573e-27 -1.58325e-26 0)
(-2.30098e-27 -1.40213e-26 0)
(-2.46166e-27 -2.06767e-26 0)
(-2.6059e-27 -2.80563e-26 0)
(-3.26103e-27 -3.30602e-26 0)
(-3.56691e-27 -3.72819e-26 0)
(-2.63933e-27 -3.84443e-26 0)
(-5.44927e-28 -3.28279e-26 0)
(2.64322e-28 -2.2589e-26 0)
(-6.84864e-28 -1.35794e-26 0)
(-8.4495e-28 -6.34416e-27 0)
(-2.73838e-28 1.49212e-27 0)
(-6.99873e-28 8.27196e-27 0)
(-1.02144e-27 9.94568e-27 0)
(2.22053e-28 4.38916e-27 0)
(2.2191e-27 -4.64665e-27 0)
(2.20752e-27 -1.24299e-26 0)
(-5.52829e-28 -1.78431e-26 0)
(-3.42569e-27 -1.98417e-26 0)
(-4.04126e-27 -1.73474e-26 0)
(-2.43625e-27 -1.15395e-26 0)
(-4.70174e-28 -6.75747e-27 0)
(1.35133e-27 -7.20908e-27 0)
(2.02841e-27 -1.18268e-26 0)
(1.88385e-27 -1.41086e-26 0)
(9.9715e-28 -7.82595e-27 0)
(-4.61707e-26 -1.72817e-25 0)
(-3.2558e-26 -1.8506e-26 0)
(-1.34623e-28 -1.86754e-26 0)
(-8.77494e-27 -1.66084e-26 0)
(-7.23625e-28 -2.47176e-26 0)
(-2.52345e-27 -3.11203e-26 0)
(1.99727e-27 -3.5919e-26 0)
(1.33713e-27 -3.40207e-26 0)
(2.55429e-27 -2.32876e-26 0)
(8.80404e-28 -6.99308e-27 0)
(3.14017e-28 5.46955e-27 0)
(-1.20246e-27 6.26587e-27 0)
(-1.22011e-27 -4.84106e-27 0)
(3.77554e-28 -1.67933e-26 0)
(1.2402e-27 -1.99151e-26 0)
(-2.31697e-28 -1.65498e-26 0)
(-1.40065e-27 -1.2943e-26 0)
(-1.05312e-27 -1.07977e-26 0)
(7.60383e-28 -1.06561e-26 0)
(2.79534e-27 -1.23296e-26 0)
(3.81488e-27 -1.54678e-26 0)
(3.58705e-27 -2.18505e-26 0)
(2.19378e-27 -3.07233e-26 0)
(6.54505e-28 -3.74053e-26 0)
(8.44721e-28 -3.89311e-26 0)
(1.5352e-27 -3.61597e-26 0)
(9.8077e-28 -3.1351e-26 0)
(5.00918e-28 -2.51183e-26 0)
(6.4035e-28 -1.77343e-26 0)
(3.03294e-28 -1.08351e-26 0)
(-4.45868e-28 -6.99773e-27 0)
(-1.50287e-27 -1.00814e-26 0)
(-2.42931e-27 -1.73545e-26 0)
(-1.9402e-27 -1.86142e-26 0)
(-1.6007e-27 -1.3193e-26 0)
(-2.52869e-27 -1.18644e-26 0)
(-2.88215e-27 -1.69636e-26 0)
(-2.96767e-27 -2.02077e-26 0)
(-3.49514e-27 -1.94045e-26 0)
(-3.69657e-27 -1.87743e-26 0)
(-2.64737e-27 -1.90394e-26 0)