/*--------------------------------*- C++ -*----------------------------------*\
| =========                 |                                                 |
| \\      /  F ield         | foam-extend: Open Source CFD                    |
|  \\    /   O peration     | Version:     4.0                                |
|   \\  /    A nd           | Web:         http://www.foam-extend.org         |
|    \\/     M anipulation  |                                                 |
\*---------------------------------------------------------------------------*/
FoamFile
{
    version     2.0;
    format      ascii;
    class       volScalarField;
    location    "1990";
    object      cMinus;
}
// * * * * * * * * * * * * * * * * * * * * * * * * * * * * * * * * * * * * * //

dimensions      [0 0 0 0 0 0 0];

internalField   nonuniform List<scalar> 
6960
(
8.74342e-24
8.7479e-24
8.74894e-24
8.74926e-24
8.74941e-24
8.74952e-24
8.74963e-24
8.74976e-24
8.74991e-24
8.75008e-24
8.75025e-24
8.75044e-24
8.75063e-24
8.75082e-24
8.75101e-24
8.75119e-24
8.75137e-24
8.75154e-24
8.75169e-24
8.75184e-24
8.75197e-24
8.7521e-24
8.7522e-24
8.7523e-24
8.75238e-24
8.75245e-24
8.75251e-24
8.75255e-24
8.75258e-24
8.75259e-24
8.75259e-24
8.75258e-24
8.75255e-24
8.75251e-24
8.75245e-24
8.75238e-24
8.7523e-24
8.7522e-24
8.7521e-24
8.75197e-24
8.75184e-24
8.75169e-24
8.75154e-24
8.75137e-24
8.75119e-24
8.75101e-24
8.75082e-24
8.75063e-24
8.75044e-24
8.75025e-24
8.75008e-24
8.74991e-24
8.74976e-24
8.74963e-24
8.74952e-24
8.74941e-24
8.74926e-24
8.74894e-24
8.7479e-24
8.74342e-24
3.36361e-23
3.36543e-23
3.36596e-23
3.36621e-23
3.36639e-23
3.36655e-23
3.3667e-23
3.36685e-23
3.367e-23
3.36715e-23
3.3673e-23
3.36744e-23
3.36758e-23
3.36771e-23
3.36783e-23
3.36795e-23
3.36806e-23
3.36816e-23
3.36825e-23
3.36834e-23
3.36842e-23
3.36848e-23
3.36854e-23
3.3686e-23
3.36864e-23
3.36868e-23
3.36871e-23
3.36873e-23
3.36875e-23
3.36875e-23
3.36875e-23
3.36875e-23
3.36873e-23
3.36871e-23
3.36868e-23
3.36864e-23
3.3686e-23
3.36854e-23
3.36848e-23
3.36842e-23
3.36834e-23
3.36825e-23
3.36816e-23
3.36806e-23
3.36795e-23
3.36783e-23
3.36771e-23
3.36758e-23
3.36744e-23
3.3673e-23
3.36715e-23
3.367e-23
3.36685e-23
3.3667e-23
3.36655e-23
3.36639e-23
3.36621e-23
3.36596e-23
3.36543e-23
3.36361e-23
9.35383e-23
9.35922e-23
9.36106e-23
9.36217e-23
9.36308e-23
9.3639e-23
9.36467e-23
9.36542e-23
9.36614e-23
9.36682e-23
9.36748e-23
9.3681e-23
9.36869e-23
9.36924e-23
9.36975e-23
9.37022e-23
9.37066e-23
9.37106e-23
9.37142e-23
9.37175e-23
9.37204e-23
9.3723e-23
9.37253e-23
9.37272e-23
9.37289e-23
9.37303e-23
9.37314e-23
9.37322e-23
9.37328e-23
9.3733e-23
9.3733e-23
9.37328e-23
9.37322e-23
9.37314e-23
9.37303e-23
9.37289e-23
9.37272e-23
9.37253e-23
9.3723e-23
9.37204e-23
9.37175e-23
9.37142e-23
9.37106e-23
9.37066e-23
9.37022e-23
9.36975e-23
9.36924e-23
9.36869e-23
9.3681e-23
9.36748e-23
9.36682e-23
9.36614e-23
9.36542e-23
9.36467e-23
9.3639e-23
9.36308e-23
9.36217e-23
9.36106e-23
9.35922e-23
9.35383e-23
2.37555e-22
2.37701e-22
2.3776e-22
2.378e-22
2.37835e-22
2.37867e-22
2.37898e-22
2.37926e-22
2.37953e-22
2.37979e-22
2.38003e-22
2.38026e-22
2.38047e-22
2.38066e-22
2.38084e-22
2.38101e-22
2.38116e-22
2.38129e-22
2.38142e-22
2.38153e-22
2.38163e-22
2.38171e-22
2.38179e-22
2.38185e-22
2.38191e-22
2.38195e-22
2.38199e-22
2.38202e-22
2.38204e-22
2.38204e-22
2.38204e-22
2.38204e-22
2.38202e-22
2.38199e-22
2.38195e-22
2.38191e-22
2.38185e-22
2.38179e-22
2.38171e-22
2.38163e-22
2.38153e-22
2.38142e-22
2.38129e-22
2.38116e-22
2.38101e-22
2.38084e-22
2.38066e-22
2.38047e-22
2.38026e-22
2.38003e-22
2.37979e-22
2.37953e-22
2.37926e-22
2.37898e-22
2.37867e-22
2.37835e-22
2.378e-22
2.3776e-22
2.37701e-22
2.37555e-22
5.89894e-22
5.90283e-22
5.90461e-22
5.90596e-22
5.90716e-22
5.90827e-22
5.90931e-22
5.91029e-22
5.91122e-22
5.91208e-22
5.91289e-22
5.91364e-22
5.91433e-22
5.91497e-22
5.91555e-22
5.91609e-22
5.91657e-22
5.91701e-22
5.9174e-22
5.91776e-22
5.91807e-22
5.91834e-22
5.91858e-22
5.91878e-22
5.91896e-22
5.9191e-22
5.91921e-22
5.91929e-22
5.91935e-22
5.91938e-22
5.91938e-22
5.91935e-22
5.91929e-22
5.91921e-22
5.9191e-22
5.91896e-22
5.91878e-22
5.91858e-22
5.91834e-22
5.91807e-22
5.91776e-22
5.9174e-22
5.91701e-22
5.91657e-22
5.91609e-22
5.91555e-22
5.91497e-22
5.91433e-22
5.91364e-22
5.91289e-22
5.91208e-22
5.91122e-22
5.91029e-22
5.90931e-22
5.90827e-22
5.90716e-22
5.90596e-22
5.90461e-22
5.90283e-22
5.89894e-22
1.47043e-21
1.47147e-21
1.472e-21
1.47243e-21
1.47281e-21
1.47318e-21
1.47351e-21
1.47383e-21
1.47413e-21
1.47441e-21
1.47466e-21
1.4749e-21
1.47512e-21
1.47532e-21
1.4755e-21
1.47567e-21
1.47582e-21
1.47596e-21
1.47608e-21
1.47619e-21
1.47628e-21
1.47637e-21
1.47644e-21
1.4765e-21
1.47655e-21
1.4766e-21
1.47663e-21
1.47666e-21
1.47667e-21
1.47668e-21
1.47668e-21
1.47667e-21
1.47666e-21
1.47663e-21
1.4766e-21
1.47655e-21
1.4765e-21
1.47644e-21
1.47637e-21
1.47628e-21
1.47619e-21
1.47608e-21
1.47596e-21
1.47582e-21
1.47567e-21
1.4755e-21
1.47532e-21
1.47512e-21
1.4749e-21
1.47466e-21
1.47441e-21
1.47413e-21
1.47383e-21
1.47351e-21
1.47318e-21
1.47281e-21
1.47243e-21
1.472e-21
1.47147e-21
1.47043e-21
3.72057e-21
3.72338e-21
3.72495e-21
3.72628e-21
3.7275e-21
3.72864e-21
3.7297e-21
3.7307e-21
3.73163e-21
3.7325e-21
3.73329e-21
3.73403e-21
3.73471e-21
3.73533e-21
3.73589e-21
3.7364e-21
3.73686e-21
3.73727e-21
3.73764e-21
3.73797e-21
3.73826e-21
3.73852e-21
3.73874e-21
3.73892e-21
3.73908e-21
3.73921e-21
3.73932e-21
3.73939e-21
3.73944e-21
3.73947e-21
3.73947e-21
3.73944e-21
3.73939e-21
3.73932e-21
3.73921e-21
3.73908e-21
3.73892e-21
3.73874e-21
3.73852e-21
3.73826e-21
3.73797e-21
3.73764e-21
3.73727e-21
3.73686e-21
3.7364e-21
3.73589e-21
3.73533e-21
3.73471e-21
3.73403e-21
3.73329e-21
3.7325e-21
3.73163e-21
3.7307e-21
3.7297e-21
3.72864e-21
3.7275e-21
3.72628e-21
3.72495e-21
3.72338e-21
3.72057e-21
9.60294e-21
9.61067e-21
9.61536e-21
9.61943e-21
9.62321e-21
9.62675e-21
9.63007e-21
9.63316e-21
9.63604e-21
9.63871e-21
9.64117e-21
9.64344e-21
9.64551e-21
9.6474e-21
9.64912e-21
9.65067e-21
9.65208e-21
9.65333e-21
9.65446e-21
9.65545e-21
9.65633e-21
9.6571e-21
9.65776e-21
9.65833e-21
9.65881e-21
9.6592e-21
9.65951e-21
9.65974e-21
9.65989e-21
9.65996e-21
9.65996e-21
9.65989e-21
9.65974e-21
9.65951e-21
9.6592e-21
9.65881e-21
9.65833e-21
9.65776e-21
9.6571e-21
9.65633e-21
9.65545e-21
9.65446e-21
9.65333e-21
9.65208e-21
9.65067e-21
9.64912e-21
9.6474e-21
9.64551e-21
9.64344e-21
9.64117e-21
9.63871e-21
9.63604e-21
9.63316e-21
9.63007e-21
9.62675e-21
9.62321e-21
9.61943e-21
9.61536e-21
9.61067e-21
9.60294e-21
2.53402e-20
2.53618e-20
2.53759e-20
2.53884e-20
2.54001e-20
2.54111e-20
2.54214e-20
2.5431e-20
2.54399e-20
2.54481e-20
2.54557e-20
2.54626e-20
2.5469e-20
2.54748e-20
2.548e-20
2.54848e-20
2.54891e-20
2.54929e-20
2.54963e-20
2.54993e-20
2.5502e-20
2.55043e-20
2.55064e-20
2.55081e-20
2.55095e-20
2.55107e-20
2.55116e-20
2.55123e-20
2.55128e-20
2.5513e-20
2.5513e-20
2.55128e-20
2.55123e-20
2.55116e-20
2.55107e-20
2.55095e-20
2.55081e-20
2.55064e-20
2.55043e-20
2.5502e-20
2.54993e-20
2.54963e-20
2.54929e-20
2.54891e-20
2.54848e-20
2.548e-20
2.54748e-20
2.5469e-20
2.54626e-20
2.54557e-20
2.54481e-20
2.54399e-20
2.5431e-20
2.54214e-20
2.54111e-20
2.54001e-20
2.53884e-20
2.53759e-20
2.53618e-20
2.53402e-20
6.84393e-20
6.85015e-20
6.85441e-20
6.85828e-20
6.86191e-20
6.86533e-20
6.86853e-20
6.8715e-20
6.87427e-20
6.87682e-20
6.87916e-20
6.88132e-20
6.88328e-20
6.88507e-20
6.88669e-20
6.88815e-20
6.88947e-20
6.89065e-20
6.89169e-20
6.89262e-20
6.89344e-20
6.89416e-20
6.89477e-20
6.8953e-20
6.89574e-20
6.8961e-20
6.89639e-20
6.8966e-20
6.89674e-20
6.8968e-20
6.8968e-20
6.89674e-20
6.8966e-20
6.89639e-20
6.8961e-20
6.89574e-20
6.8953e-20
6.89477e-20
6.89416e-20
6.89344e-20
6.89262e-20
6.89169e-20
6.89065e-20
6.88947e-20
6.88815e-20
6.88669e-20
6.88507e-20
6.88328e-20
6.88132e-20
6.87916e-20
6.87682e-20
6.87427e-20
6.8715e-20
6.86853e-20
6.86533e-20
6.86191e-20
6.85828e-20
6.85441e-20
6.85015e-20
6.84393e-20
1.89301e-19
1.89483e-19
1.89614e-19
1.89735e-19
1.89849e-19
1.89956e-19
1.90057e-19
1.9015e-19
1.90237e-19
1.90316e-19
1.9039e-19
1.90457e-19
1.90518e-19
1.90574e-19
1.90625e-19
1.9067e-19
1.90711e-19
1.90748e-19
1.9078e-19
1.90809e-19
1.90835e-19
1.90857e-19
1.90876e-19
1.90892e-19
1.90906e-19
1.90917e-19
1.90926e-19
1.90932e-19
1.90937e-19
1.90939e-19
1.90939e-19
1.90937e-19
1.90932e-19
1.90926e-19
1.90917e-19
1.90906e-19
1.90892e-19
1.90876e-19
1.90857e-19
1.90835e-19
1.90809e-19
1.9078e-19
1.90748e-19
1.90711e-19
1.9067e-19
1.90625e-19
1.90574e-19
1.90518e-19
1.90457e-19
1.9039e-19
1.90316e-19
1.90237e-19
1.9015e-19
1.90057e-19
1.89956e-19
1.89849e-19
1.89735e-19
1.89614e-19
1.89483e-19
1.89301e-19
5.36427e-19
5.36972e-19
5.37381e-19
5.37763e-19
5.38125e-19
5.38466e-19
5.38785e-19
5.39081e-19
5.39356e-19
5.39609e-19
5.39842e-19
5.40054e-19
5.40248e-19
5.40424e-19
5.40584e-19
5.40728e-19
5.40857e-19
5.40972e-19
5.41075e-19
5.41166e-19
5.41245e-19
5.41315e-19
5.41375e-19
5.41426e-19
5.41469e-19
5.41504e-19
5.41532e-19
5.41552e-19
5.41566e-19
5.41573e-19
5.41573e-19
5.41566e-19
5.41552e-19
5.41532e-19
5.41504e-19
5.41469e-19
5.41426e-19
5.41375e-19
5.41315e-19
5.41245e-19
5.41166e-19
5.41075e-19
5.40972e-19
5.40857e-19
5.40728e-19
5.40584e-19
5.40424e-19
5.40248e-19
5.40054e-19
5.39842e-19
5.39609e-19
5.39356e-19
5.39081e-19
5.38785e-19
5.38466e-19
5.38125e-19
5.37763e-19
5.37381e-19
5.36972e-19
5.36427e-19
1.55768e-18
1.55935e-18
1.56065e-18
1.56188e-18
1.56304e-18
1.56414e-18
1.56517e-18
1.56612e-18
1.56701e-18
1.56782e-18
1.56857e-18
1.56925e-18
1.56988e-18
1.57044e-18
1.57095e-18
1.57141e-18
1.57183e-18
1.5722e-18
1.57253e-18
1.57282e-18
1.57307e-18
1.57329e-18
1.57349e-18
1.57365e-18
1.57379e-18
1.5739e-18
1.57399e-18
1.57405e-18
1.5741e-18
1.57412e-18
1.57412e-18
1.5741e-18
1.57405e-18
1.57399e-18
1.5739e-18
1.57379e-18
1.57365e-18
1.57349e-18
1.57329e-18
1.57307e-18
1.57282e-18
1.57253e-18
1.5722e-18
1.57183e-18
1.57141e-18
1.57095e-18
1.57044e-18
1.56988e-18
1.56925e-18
1.56857e-18
1.56782e-18
1.56701e-18
1.56612e-18
1.56517e-18
1.56414e-18
1.56304e-18
1.56188e-18
1.56065e-18
1.55935e-18
1.55768e-18
4.63574e-18
4.64095e-18
4.64516e-18
4.64916e-18
4.65298e-18
4.65658e-18
4.65995e-18
4.66307e-18
4.66597e-18
4.66863e-18
4.67108e-18
4.67331e-18
4.67535e-18
4.67719e-18
4.67886e-18
4.68036e-18
4.68171e-18
4.68292e-18
4.68399e-18
4.68493e-18
4.68576e-18
4.68649e-18
4.68711e-18
4.68765e-18
4.68809e-18
4.68846e-18
4.68874e-18
4.68895e-18
4.68909e-18
4.68916e-18
4.68916e-18
4.68909e-18
4.68895e-18
4.68874e-18
4.68846e-18
4.68809e-18
4.68765e-18
4.68711e-18
4.68649e-18
4.68576e-18
4.68493e-18
4.68399e-18
4.68292e-18
4.68171e-18
4.68036e-18
4.67886e-18
4.67719e-18
4.67535e-18
4.67331e-18
4.67108e-18
4.66863e-18
4.66597e-18
4.66307e-18
4.65995e-18
4.65658e-18
4.65298e-18
4.64916e-18
4.64516e-18
4.64095e-18
4.63574e-18
1.41402e-17
1.41568e-17
1.41707e-17
1.4184e-17
1.41968e-17
1.42088e-17
1.422e-17
1.42304e-17
1.424e-17
1.42489e-17
1.4257e-17
1.42645e-17
1.42712e-17
1.42774e-17
1.42829e-17
1.42879e-17
1.42924e-17
1.42964e-17
1.42999e-17
1.43031e-17
1.43058e-17
1.43082e-17
1.43103e-17
1.43121e-17
1.43135e-17
1.43147e-17
1.43157e-17
1.43164e-17
1.43169e-17
1.43171e-17
1.43171e-17
1.43169e-17
1.43164e-17
1.43157e-17
1.43147e-17
1.43135e-17
1.43121e-17
1.43103e-17
1.43082e-17
1.43058e-17
1.43031e-17
1.42999e-17
1.42964e-17
1.42924e-17
1.42879e-17
1.42829e-17
1.42774e-17
1.42712e-17
1.42645e-17
1.4257e-17
1.42489e-17
1.424e-17
1.42304e-17
1.422e-17
1.42088e-17
1.41968e-17
1.4184e-17
1.41707e-17
1.41568e-17
1.41402e-17
4.42047e-17
4.42593e-17
4.4306e-17
4.43511e-17
4.43943e-17
4.4435e-17
4.44731e-17
4.45085e-17
4.45412e-17
4.45713e-17
4.45989e-17
4.46241e-17
4.4647e-17
4.46678e-17
4.46866e-17
4.47035e-17
4.47186e-17
4.47321e-17
4.47441e-17
4.47547e-17
4.47641e-17
4.47722e-17
4.47792e-17
4.47851e-17
4.47901e-17
4.47942e-17
4.47974e-17
4.47997e-17
4.48013e-17
4.48021e-17
4.48021e-17
4.48013e-17
4.47997e-17
4.47974e-17
4.47942e-17
4.47901e-17
4.47851e-17
4.47792e-17
4.47722e-17
4.47641e-17
4.47547e-17
4.47441e-17
4.47321e-17
4.47186e-17
4.47035e-17
4.46866e-17
4.46678e-17
4.4647e-17
4.46241e-17
4.45989e-17
4.45713e-17
4.45412e-17
4.45085e-17
4.44731e-17
4.4435e-17
4.43943e-17
4.43511e-17
4.4306e-17
4.42593e-17
4.42047e-17
1.41612e-16
1.41795e-16
1.41955e-16
1.42111e-16
1.4226e-16
1.42401e-16
1.42533e-16
1.42656e-16
1.42769e-16
1.42873e-16
1.42968e-16
1.43055e-16
1.43134e-16
1.43206e-16
1.43271e-16
1.43329e-16
1.43381e-16
1.43428e-16
1.43469e-16
1.43506e-16
1.43538e-16
1.43566e-16
1.4359e-16
1.43611e-16
1.43628e-16
1.43642e-16
1.43653e-16
1.43661e-16
1.43666e-16
1.43669e-16
1.43669e-16
1.43666e-16
1.43661e-16
1.43653e-16
1.43642e-16
1.43628e-16
1.43611e-16
1.4359e-16
1.43566e-16
1.43538e-16
1.43506e-16
1.43469e-16
1.43428e-16
1.43381e-16
1.43329e-16
1.43271e-16
1.43206e-16
1.43134e-16
1.43055e-16
1.42968e-16
1.42873e-16
1.42769e-16
1.42656e-16
1.42533e-16
1.42401e-16
1.4226e-16
1.42111e-16
1.41955e-16
1.41795e-16
1.41612e-16
4.64767e-16
4.65393e-16
4.65955e-16
4.66504e-16
4.67031e-16
4.67528e-16
4.67993e-16
4.68424e-16
4.68823e-16
4.6919e-16
4.69526e-16
4.69833e-16
4.70111e-16
4.70364e-16
4.70592e-16
4.70797e-16
4.70981e-16
4.71145e-16
4.71291e-16
4.7142e-16
4.71532e-16
4.71631e-16
4.71715e-16
4.71787e-16
4.71848e-16
4.71897e-16
4.71936e-16
4.71964e-16
4.71983e-16
4.71992e-16
4.71992e-16
4.71983e-16
4.71964e-16
4.71936e-16
4.71897e-16
4.71848e-16
4.71787e-16
4.71715e-16
4.71631e-16
4.71532e-16
4.7142e-16
4.71291e-16
4.71145e-16
4.70981e-16
4.70797e-16
4.70592e-16
4.70364e-16
4.70111e-16
4.69833e-16
4.69526e-16
4.6919e-16
4.68823e-16
4.68424e-16
4.67993e-16
4.67528e-16
4.67031e-16
4.66504e-16
4.65955e-16
4.65393e-16
4.64767e-16
1.56206e-15
1.56426e-15
1.56626e-15
1.56823e-15
1.57013e-15
1.57191e-15
1.57359e-15
1.57514e-15
1.57657e-15
1.57789e-15
1.5791e-15
1.5802e-15
1.5812e-15
1.58211e-15
1.58293e-15
1.58366e-15
1.58432e-15
1.58491e-15
1.58543e-15
1.58589e-15
1.5863e-15
1.58665e-15
1.58695e-15
1.58721e-15
1.58743e-15
1.5876e-15
1.58774e-15
1.58784e-15
1.58791e-15
1.58795e-15
1.58795e-15
1.58791e-15
1.58784e-15
1.58774e-15
1.5876e-15
1.58743e-15
1.58721e-15
1.58695e-15
1.58665e-15
1.5863e-15
1.58589e-15
1.58543e-15
1.58491e-15
1.58432e-15
1.58366e-15
1.58293e-15
1.58211e-15
1.5812e-15
1.5802e-15
1.5791e-15
1.57789e-15
1.57657e-15
1.57514e-15
1.57359e-15
1.57191e-15
1.57013e-15
1.56823e-15
1.56626e-15
1.56426e-15
1.56206e-15
5.3733e-15
5.38115e-15
5.38846e-15
5.39568e-15
5.40261e-15
5.40917e-15
5.41529e-15
5.42098e-15
5.42623e-15
5.43106e-15
5.43548e-15
5.43951e-15
5.44318e-15
5.4465e-15
5.44949e-15
5.45219e-15
5.4546e-15
5.45675e-15
5.45866e-15
5.46035e-15
5.46183e-15
5.46311e-15
5.46422e-15
5.46517e-15
5.46596e-15
5.4666e-15
5.4671e-15
5.46748e-15
5.46773e-15
5.46785e-15
5.46785e-15
5.46773e-15
5.46748e-15
5.4671e-15
5.4666e-15
5.46596e-15
5.46517e-15
5.46422e-15
5.46311e-15
5.46183e-15
5.46035e-15
5.45866e-15
5.45675e-15
5.4546e-15
5.45219e-15
5.44949e-15
5.4465e-15
5.44318e-15
5.43951e-15
5.43548e-15
5.43106e-15
5.42623e-15
5.42098e-15
5.41529e-15
5.40917e-15
5.40261e-15
5.39568e-15
5.38846e-15
5.38115e-15
5.3733e-15
1.89031e-14
1.89318e-14
1.89589e-14
1.89858e-14
1.90117e-14
1.90362e-14
1.90591e-14
1.90803e-14
1.90999e-14
1.91179e-14
1.91344e-14
1.91494e-14
1.91631e-14
1.91755e-14
1.91867e-14
1.91967e-14
1.92057e-14
1.92137e-14
1.92208e-14
1.92271e-14
1.92326e-14
1.92374e-14
1.92415e-14
1.9245e-14
1.9248e-14
1.92504e-14
1.92523e-14
1.92537e-14
1.92546e-14
1.9255e-14
1.9255e-14
1.92546e-14
1.92537e-14
1.92523e-14
1.92504e-14
1.9248e-14
1.9245e-14
1.92415e-14
1.92374e-14
1.92326e-14
1.92271e-14
1.92208e-14
1.92137e-14
1.92057e-14
1.91967e-14
1.91867e-14
1.91755e-14
1.91631e-14
1.91494e-14
1.91344e-14
1.91179e-14
1.90999e-14
1.90803e-14
1.90591e-14
1.90362e-14
1.90117e-14
1.89858e-14
1.89589e-14
1.89318e-14
1.89031e-14
6.79432e-14
6.805e-14
6.81528e-14
6.8255e-14
6.83533e-14
6.84463e-14
6.85332e-14
6.86138e-14
6.86882e-14
6.87567e-14
6.88193e-14
6.88764e-14
6.89283e-14
6.89753e-14
6.90177e-14
6.90558e-14
6.90899e-14
6.91203e-14
6.91473e-14
6.91711e-14
6.9192e-14
6.92102e-14
6.92259e-14
6.92392e-14
6.92503e-14
6.92594e-14
6.92665e-14
6.92718e-14
6.92753e-14
6.9277e-14
6.9277e-14
6.92753e-14
6.92718e-14
6.92665e-14
6.92594e-14
6.92503e-14
6.92392e-14
6.92259e-14
6.92102e-14
6.9192e-14
6.91711e-14
6.91473e-14
6.91203e-14
6.90899e-14
6.90558e-14
6.90177e-14
6.89753e-14
6.89283e-14
6.88764e-14
6.88193e-14
6.87567e-14
6.86882e-14
6.86138e-14
6.85332e-14
6.84463e-14
6.83533e-14
6.8255e-14
6.81528e-14
6.805e-14
6.79432e-14
2.49197e-13
2.49602e-13
2.49998e-13
2.50392e-13
2.50772e-13
2.51131e-13
2.51466e-13
2.51778e-13
2.52065e-13
2.5233e-13
2.52571e-13
2.52792e-13
2.52992e-13
2.53174e-13
2.53337e-13
2.53484e-13
2.53616e-13
2.53733e-13
2.53837e-13
2.53929e-13
2.54009e-13
2.5408e-13
2.5414e-13
2.54191e-13
2.54234e-13
2.54269e-13
2.54297e-13
2.54317e-13
2.5433e-13
2.54337e-13
2.54337e-13
2.5433e-13
2.54317e-13
2.54297e-13
2.54269e-13
2.54234e-13
2.54191e-13
2.5414e-13
2.5408e-13
2.54009e-13
2.53929e-13
2.53837e-13
2.53733e-13
2.53616e-13
2.53484e-13
2.53337e-13
2.53174e-13
2.52992e-13
2.52792e-13
2.52571e-13
2.5233e-13
2.52065e-13
2.51778e-13
2.51466e-13
2.51131e-13
2.50772e-13
2.50392e-13
2.49998e-13
2.49602e-13
2.49197e-13
9.31223e-13
9.32787e-13
9.34335e-13
9.3588e-13
9.3737e-13
9.38777e-13
9.40093e-13
9.41314e-13
9.42441e-13
9.43477e-13
9.44425e-13
9.45289e-13
9.46074e-13
9.46784e-13
9.47425e-13
9.48001e-13
9.48516e-13
9.48976e-13
9.49383e-13
9.49743e-13
9.50058e-13
9.50332e-13
9.50569e-13
9.50769e-13
9.50937e-13
9.51074e-13
9.51182e-13
9.51261e-13
9.51314e-13
9.5134e-13
9.5134e-13
9.51314e-13
9.51261e-13
9.51182e-13
9.51074e-13
9.50937e-13
9.50769e-13
9.50569e-13
9.50332e-13
9.50058e-13
9.49743e-13
9.49383e-13
9.48976e-13
9.48516e-13
9.48001e-13
9.47425e-13
9.46784e-13
9.46074e-13
9.45289e-13
9.44425e-13
9.43477e-13
9.42441e-13
9.41314e-13
9.40093e-13
9.38777e-13
9.3737e-13
9.3588e-13
9.34335e-13
9.32787e-13
9.31223e-13
3.5389e-12
3.54502e-12
3.55116e-12
3.5573e-12
3.56321e-12
3.56881e-12
3.57403e-12
3.57889e-12
3.58336e-12
3.58748e-12
3.59124e-12
3.59467e-12
3.59779e-12
3.60061e-12
3.60315e-12
3.60544e-12
3.60748e-12
3.6093e-12
3.61092e-12
3.61235e-12
3.6136e-12
3.61469e-12
3.61562e-12
3.61642e-12
3.61709e-12
3.61763e-12
3.61806e-12
3.61837e-12
3.61858e-12
3.61868e-12
3.61868e-12
3.61858e-12
3.61837e-12
3.61806e-12
3.61763e-12
3.61709e-12
3.61642e-12
3.61562e-12
3.61469e-12
3.6136e-12
3.61235e-12
3.61092e-12
3.6093e-12
3.60748e-12
3.60544e-12
3.60315e-12
3.60061e-12
3.59779e-12
3.59467e-12
3.59124e-12
3.58748e-12
3.58336e-12
3.57889e-12
3.57403e-12
3.56881e-12
3.56321e-12
3.5573e-12
3.55116e-12
3.54502e-12
3.5389e-12
1.3646e-11
1.36703e-11
1.36949e-11
1.37195e-11
1.37433e-11
1.37658e-11
1.37868e-11
1.38062e-11
1.38242e-11
1.38407e-11
1.38558e-11
1.38696e-11
1.38821e-11
1.38934e-11
1.39036e-11
1.39128e-11
1.3921e-11
1.39283e-11
1.39348e-11
1.39405e-11
1.39455e-11
1.39499e-11
1.39537e-11
1.39569e-11
1.39595e-11
1.39617e-11
1.39634e-11
1.39647e-11
1.39655e-11
1.39659e-11
1.39659e-11
1.39655e-11
1.39647e-11
1.39634e-11
1.39617e-11
1.39595e-11
1.39569e-11
1.39537e-11
1.39499e-11
1.39455e-11
1.39405e-11
1.39348e-11
1.39283e-11
1.3921e-11
1.39128e-11
1.39036e-11
1.38934e-11
1.38821e-11
1.38696e-11
1.38558e-11
1.38407e-11
1.38242e-11
1.38062e-11
1.37868e-11
1.37658e-11
1.37433e-11
1.37195e-11
1.36949e-11
1.36703e-11
1.3646e-11
5.32472e-11
5.33446e-11
5.3444e-11
5.35437e-11
5.36399e-11
5.37309e-11
5.38159e-11
5.38947e-11
5.39675e-11
5.40343e-11
5.40954e-11
5.41512e-11
5.42018e-11
5.42476e-11
5.42888e-11
5.43259e-11
5.43591e-11
5.43887e-11
5.44149e-11
5.4438e-11
5.44583e-11
5.44759e-11
5.44911e-11
5.4504e-11
5.45148e-11
5.45236e-11
5.45305e-11
5.45356e-11
5.4539e-11
5.45407e-11
5.45407e-11
5.4539e-11
5.45356e-11
5.45305e-11
5.45236e-11
5.45148e-11
5.4504e-11
5.44911e-11
5.44759e-11
5.44583e-11
5.4438e-11
5.44149e-11
5.43887e-11
5.43591e-11
5.43259e-11
5.42888e-11
5.42476e-11
5.42018e-11
5.41512e-11
5.40954e-11
5.40343e-11
5.39675e-11
5.38947e-11
5.38159e-11
5.37309e-11
5.36399e-11
5.35437e-11
5.3444e-11
5.33446e-11
5.32472e-11
2.09586e-10
2.09979e-10
2.10383e-10
2.10788e-10
2.1118e-10
2.1155e-10
2.11895e-10
2.12216e-10
2.12512e-10
2.12783e-10
2.13032e-10
2.13258e-10
2.13464e-10
2.1365e-10
2.13818e-10
2.13969e-10
2.14103e-10
2.14224e-10
2.1433e-10
2.14424e-10
2.14506e-10
2.14578e-10
2.1464e-10
2.14692e-10
2.14736e-10
2.14772e-10
2.148e-10
2.1482e-10
2.14834e-10
2.14841e-10
2.14841e-10
2.14834e-10
2.1482e-10
2.148e-10
2.14772e-10
2.14736e-10
2.14692e-10
2.1464e-10
2.14578e-10
2.14506e-10
2.14424e-10
2.1433e-10
2.14224e-10
2.14103e-10
2.13969e-10
2.13818e-10
2.1365e-10
2.13464e-10
2.13258e-10
2.13032e-10
2.12783e-10
2.12512e-10
2.12216e-10
2.11895e-10
2.1155e-10
2.1118e-10
2.10788e-10
2.10383e-10
2.09979e-10
2.09586e-10
8.29062e-10
8.30648e-10
8.32291e-10
8.33942e-10
8.35534e-10
8.37039e-10
8.38445e-10
8.3975e-10
8.40953e-10
8.42059e-10
8.43069e-10
8.43991e-10
8.44827e-10
8.45584e-10
8.46266e-10
8.46879e-10
8.47427e-10
8.47915e-10
8.48348e-10
8.4873e-10
8.49065e-10
8.49356e-10
8.49606e-10
8.49819e-10
8.49997e-10
8.50142e-10
8.50256e-10
8.50341e-10
8.50396e-10
8.50424e-10
8.50424e-10
8.50396e-10
8.50341e-10
8.50256e-10
8.50142e-10
8.49997e-10
8.49819e-10
8.49606e-10
8.49356e-10
8.49065e-10
8.4873e-10
8.48348e-10
8.47915e-10
8.47427e-10
8.46879e-10
8.46266e-10
8.45584e-10
8.44827e-10
8.43991e-10
8.43069e-10
8.42059e-10
8.40953e-10
8.3975e-10
8.38445e-10
8.37039e-10
8.35534e-10
8.33942e-10
8.32291e-10
8.30648e-10
8.29062e-10
3.28162e-09
3.28801e-09
3.29467e-09
3.30137e-09
3.30782e-09
3.31392e-09
3.31962e-09
3.3249e-09
3.32978e-09
3.33426e-09
3.33835e-09
3.34208e-09
3.34547e-09
3.34854e-09
3.3513e-09
3.35378e-09
3.356e-09
3.35798e-09
3.35973e-09
3.36128e-09
3.36263e-09
3.36381e-09
3.36482e-09
3.36568e-09
3.3664e-09
3.36699e-09
3.36745e-09
3.36779e-09
3.36802e-09
3.36813e-09
3.36813e-09
3.36802e-09
3.36779e-09
3.36745e-09
3.36699e-09
3.3664e-09
3.36568e-09
3.36482e-09
3.36381e-09
3.36263e-09
3.36128e-09
3.35973e-09
3.35798e-09
3.356e-09
3.35378e-09
3.3513e-09
3.34854e-09
3.34547e-09
3.34208e-09
3.33835e-09
3.33426e-09
3.32978e-09
3.3249e-09
3.31962e-09
3.31392e-09
3.30782e-09
3.30137e-09
3.29467e-09
3.28801e-09
3.28162e-09
1.2933e-08
1.29585e-08
1.29853e-08
1.30122e-08
1.30381e-08
1.30626e-08
1.30854e-08
1.31067e-08
1.31262e-08
1.31442e-08
1.31606e-08
1.31756e-08
1.31892e-08
1.32015e-08
1.32126e-08
1.32225e-08
1.32314e-08
1.32393e-08
1.32464e-08
1.32526e-08
1.3258e-08
1.32627e-08
1.32668e-08
1.32702e-08
1.32731e-08
1.32755e-08
1.32773e-08
1.32787e-08
1.32796e-08
1.328e-08
1.328e-08
1.32796e-08
1.32787e-08
1.32773e-08
1.32755e-08
1.32731e-08
1.32702e-08
1.32668e-08
1.32627e-08
1.3258e-08
1.32526e-08
1.32464e-08
1.32393e-08
1.32314e-08
1.32225e-08
1.32126e-08
1.32015e-08
1.31892e-08
1.31756e-08
1.31606e-08
1.31442e-08
1.31262e-08
1.31067e-08
1.30854e-08
1.30626e-08
1.30381e-08
1.30122e-08
1.29853e-08
1.29585e-08
1.2933e-08
5.04579e-08
5.05586e-08
5.06645e-08
5.07707e-08
5.08732e-08
5.09699e-08
5.10603e-08
5.11441e-08
5.12214e-08
5.12924e-08
5.13573e-08
5.14164e-08
5.14701e-08
5.15186e-08
5.15624e-08
5.16017e-08
5.16368e-08
5.16681e-08
5.16958e-08
5.17203e-08
5.17417e-08
5.17604e-08
5.17764e-08
5.179e-08
5.18014e-08
5.18107e-08
5.1818e-08
5.18234e-08
5.1827e-08
5.18287e-08
5.18287e-08
5.1827e-08
5.18234e-08
5.1818e-08
5.18107e-08
5.18014e-08
5.179e-08
5.17764e-08
5.17604e-08
5.17417e-08
5.17203e-08
5.16958e-08
5.16681e-08
5.16368e-08
5.16017e-08
5.15624e-08
5.15186e-08
5.14701e-08
5.14164e-08
5.13573e-08
5.12924e-08
5.12214e-08
5.11441e-08
5.10603e-08
5.09699e-08
5.08732e-08
5.07707e-08
5.06645e-08
5.05586e-08
5.04579e-08
1.93618e-07
1.94007e-07
1.94416e-07
1.94827e-07
1.95223e-07
1.95596e-07
1.95946e-07
1.96269e-07
1.96568e-07
1.96841e-07
1.97092e-07
1.9732e-07
1.97527e-07
1.97715e-07
1.97883e-07
1.98035e-07
1.98171e-07
1.98291e-07
1.98398e-07
1.98493e-07
1.98575e-07
1.98647e-07
1.98709e-07
1.98762e-07
1.98806e-07
1.98841e-07
1.98869e-07
1.9889e-07
1.98904e-07
1.98911e-07
1.98911e-07
1.98904e-07
1.9889e-07
1.98869e-07
1.98841e-07
1.98806e-07
1.98762e-07
1.98709e-07
1.98647e-07
1.98575e-07
1.98493e-07
1.98398e-07
1.98291e-07
1.98171e-07
1.98035e-07
1.97883e-07
1.97715e-07
1.97527e-07
1.9732e-07
1.97092e-07
1.96841e-07
1.96568e-07
1.96269e-07
1.95946e-07
1.95596e-07
1.95223e-07
1.94827e-07
1.94416e-07
1.94007e-07
1.93618e-07
7.25333e-07
7.26791e-07
7.28326e-07
7.29865e-07
7.31347e-07
7.32746e-07
7.34052e-07
7.35264e-07
7.3638e-07
7.37405e-07
7.38342e-07
7.39196e-07
7.39971e-07
7.40671e-07
7.41303e-07
7.41869e-07
7.42376e-07
7.42828e-07
7.43228e-07
7.4358e-07
7.43889e-07
7.44158e-07
7.44389e-07
7.44586e-07
7.4475e-07
7.44884e-07
7.44989e-07
7.45067e-07
7.45118e-07
7.45143e-07
7.45143e-07
7.45118e-07
7.45067e-07
7.44989e-07
7.44884e-07
7.4475e-07
7.44586e-07
7.44389e-07
7.44158e-07
7.43889e-07
7.4358e-07
7.43228e-07
7.42828e-07
7.42376e-07
7.41869e-07
7.41303e-07
7.40671e-07
7.39971e-07
7.39196e-07
7.38342e-07
7.37405e-07
7.3638e-07
7.35264e-07
7.34052e-07
7.32746e-07
7.31347e-07
7.29865e-07
7.28326e-07
7.26791e-07
7.25333e-07
2.63075e-06
2.63601e-06
2.64154e-06
2.64708e-06
2.65241e-06
2.65744e-06
2.66213e-06
2.66649e-06
2.6705e-06
2.67418e-06
2.67755e-06
2.68061e-06
2.68339e-06
2.68591e-06
2.68818e-06
2.69021e-06
2.69203e-06
2.69365e-06
2.69509e-06
2.69636e-06
2.69746e-06
2.69843e-06
2.69926e-06
2.69996e-06
2.70055e-06
2.70103e-06
2.70141e-06
2.70169e-06
2.70187e-06
2.70196e-06
2.70196e-06
2.70187e-06
2.70169e-06
2.70141e-06
2.70103e-06
2.70055e-06
2.69996e-06
2.69926e-06
2.69843e-06
2.69746e-06
2.69636e-06
2.69509e-06
2.69365e-06
2.69203e-06
2.69021e-06
2.68818e-06
2.68591e-06
2.68339e-06
2.68061e-06
2.67755e-06
2.67418e-06
2.6705e-06
2.66649e-06
2.66213e-06
2.65744e-06
2.65241e-06
2.64708e-06
2.64154e-06
2.63601e-06
2.63075e-06
9.15164e-06
9.16967e-06
9.18863e-06
9.20756e-06
9.22577e-06
9.24294e-06
9.25897e-06
9.27383e-06
9.28752e-06
9.30009e-06
9.31158e-06
9.32204e-06
9.33153e-06
9.34011e-06
9.34784e-06
9.35478e-06
9.36099e-06
9.36651e-06
9.37141e-06
9.37573e-06
9.37951e-06
9.3828e-06
9.38563e-06
9.38803e-06
9.39004e-06
9.39168e-06
9.39296e-06
9.39391e-06
9.39454e-06
9.39485e-06
9.39485e-06
9.39454e-06
9.39391e-06
9.39296e-06
9.39168e-06
9.39004e-06
9.38803e-06
9.38563e-06
9.3828e-06
9.37951e-06
9.37573e-06
9.37141e-06
9.36651e-06
9.36099e-06
9.35478e-06
9.34784e-06
9.34011e-06
9.33153e-06
9.32204e-06
9.31158e-06
9.30009e-06
9.28752e-06
9.27383e-06
9.25897e-06
9.24294e-06
9.22577e-06
9.20756e-06
9.18863e-06
9.16967e-06
9.15164e-06
3.02152e-05
3.02733e-05
3.03343e-05
3.03951e-05
3.04534e-05
3.05085e-05
3.05598e-05
3.06074e-05
3.06512e-05
3.06915e-05
3.07283e-05
3.07617e-05
3.07921e-05
3.08196e-05
3.08443e-05
3.08665e-05
3.08864e-05
3.09041e-05
3.09197e-05
3.09336e-05
3.09457e-05
3.09562e-05
3.09652e-05
3.09729e-05
3.09793e-05
3.09846e-05
3.09887e-05
3.09917e-05
3.09937e-05
3.09947e-05
3.09947e-05
3.09937e-05
3.09917e-05
3.09887e-05
3.09846e-05
3.09793e-05
3.09729e-05
3.09652e-05
3.09562e-05
3.09457e-05
3.09336e-05
3.09197e-05
3.09041e-05
3.08864e-05
3.08665e-05
3.08443e-05
3.08196e-05
3.07921e-05
3.07617e-05
3.07283e-05
3.06915e-05
3.06512e-05
3.06074e-05
3.05598e-05
3.05085e-05
3.04534e-05
3.03951e-05
3.03343e-05
3.02733e-05
3.02152e-05
9.35757e-05
9.37494e-05
9.39309e-05
9.41113e-05
9.42844e-05
9.44475e-05
9.45997e-05
9.47406e-05
9.48705e-05
9.49897e-05
9.50986e-05
9.51977e-05
9.52877e-05
9.5369e-05
9.54422e-05
9.5508e-05
9.55667e-05
9.5619e-05
9.56654e-05
9.57063e-05
9.57421e-05
9.57732e-05
9.57999e-05
9.58227e-05
9.58417e-05
9.58572e-05
9.58693e-05
9.58783e-05
9.58842e-05
9.58872e-05
9.58872e-05
9.58842e-05
9.58783e-05
9.58693e-05
9.58572e-05
9.58417e-05
9.58227e-05
9.57999e-05
9.57732e-05
9.57421e-05
9.57063e-05
9.56654e-05
9.5619e-05
9.55667e-05
9.5508e-05
9.54422e-05
9.5369e-05
9.52877e-05
9.51977e-05
9.50986e-05
9.49897e-05
9.48705e-05
9.47406e-05
9.45997e-05
9.44475e-05
9.42844e-05
9.41113e-05
9.39309e-05
9.37494e-05
9.35757e-05
0.00026835
0.000268824
0.000269316
0.000269804
0.000270271
0.000270711
0.000271122
0.000271502
0.000271852
0.000272173
0.000272467
0.000272734
0.000272976
0.000273195
0.000273393
0.00027357
0.000273728
0.000273869
0.000273994
0.000274104
0.0002742
0.000274284
0.000274356
0.000274418
0.000274469
0.00027451
0.000274543
0.000274567
0.000274583
0.000274591
0.000274591
0.000274583
0.000274567
0.000274543
0.00027451
0.000274469
0.000274418
0.000274356
0.000274284
0.0002742
0.000274104
0.000273994
0.000273869
0.000273728
0.00027357
0.000273393
0.000273195
0.000272976
0.000272734
0.000272467
0.000272173
0.000271852
0.000271502
0.000271122
0.000270711
0.000270271
0.000269804
0.000269316
0.000268824
0.00026835
0.000702901
0.000704057
0.000705251
0.000706431
0.00070756
0.000708622
0.000709613
0.00071053
0.000711374
0.000712149
0.000712856
0.0007135
0.000714085
0.000714613
0.000715088
0.000715515
0.000715896
0.000716235
0.000716536
0.000716801
0.000717033
0.000717235
0.000717409
0.000717556
0.000717679
0.00071778
0.000717859
0.000717917
0.000717955
0.000717974
0.000717974
0.000717955
0.000717917
0.000717859
0.00071778
0.000717679
0.000717556
0.000717409
0.000717235
0.000717033
0.000716801
0.000716536
0.000716235
0.000715896
0.000715515
0.000715088
0.000714613
0.000714085
0.0007135
0.000712856
0.000712149
0.000711374
0.00071053
0.000709613
0.000708622
0.00070756
0.000706431
0.000705251
0.000704057
0.000702901
0.00165938
0.00166187
0.00166442
0.00166692
0.00166932
0.00167158
0.00167368
0.00167562
0.00167741
0.00167905
0.00168055
0.00168192
0.00168315
0.00168427
0.00168528
0.00168618
0.00168699
0.00168771
0.00168835
0.00168891
0.0016894
0.00168983
0.00169019
0.0016905
0.00169077
0.00169098
0.00169114
0.00169127
0.00169135
0.00169139
0.00169139
0.00169135
0.00169127
0.00169114
0.00169098
0.00169077
0.0016905
0.00169019
0.00168983
0.0016894
0.00168891
0.00168835
0.00168771
0.00168699
0.00168618
0.00168528
0.00168427
0.00168315
0.00168192
0.00168055
0.00167905
0.00167741
0.00167562
0.00167368
0.00167158
0.00166932