/*--------------------------------*- C++ -*----------------------------------*\
| =========                 |                                                 |
| \\      /  F ield         | foam-extend: Open Source CFD                    |
|  \\    /   O peration     | Version:     4.0                                |
|   \\  /    A nd           | Web:         http://www.foam-extend.org         |
|    \\/     M anipulation  |                                                 |
\*---------------------------------------------------------------------------*/
FoamFile
{
    version     2.0;
    format      ascii;
    class       volScalarField;
    location    "1990";
    object      psiE;
}
// * * * * * * * * * * * * * * * * * * * * * * * * * * * * * * * * * * * * * //

dimensions      [0 0 0 0 0 0 0];

internalField   nonuniform List<scalar> 
6960
(
0.331888
0.331892
0.331897
0.331901
0.331906
0.331911
0.331915
0.331919
0.331922
0.331925
0.331928
0.331931
0.331933
0.331935
0.331937
0.331939
0.331941
0.331942
0.331943
0.331944
0.331945
0.331946
0.331947
0.331947
0.331948
0.331948
0.331949
0.331949
0.331949
0.331949
0.331949
0.331949
0.331949
0.331949
0.331948
0.331948
0.331947
0.331947
0.331946
0.331945
0.331944
0.331943
0.331942
0.331941
0.331939
0.331937
0.331935
0.331933
0.331931
0.331928
0.331925
0.331922
0.331919
0.331915
0.331911
0.331906
0.331901
0.331897
0.331892
0.331888
0.823513
0.823528
0.823547
0.823566
0.823585
0.823603
0.82362
0.823636
0.82365
0.823663
0.823675
0.823686
0.823696
0.823704
0.823712
0.82372
0.823726
0.823732
0.823737
0.823741
0.823745
0.823748
0.823751
0.823753
0.823755
0.823757
0.823758
0.823759
0.82376
0.82376
0.82376
0.82376
0.823759
0.823758
0.823757
0.823755
0.823753
0.823751
0.823748
0.823745
0.823741
0.823737
0.823732
0.823726
0.82372
0.823712
0.823704
0.823696
0.823686
0.823675
0.823663
0.82365
0.823636
0.82362
0.823603
0.823585
0.823566
0.823547
0.823528
0.823513
1.26334
1.26337
1.26341
1.26345
1.26349
1.26352
1.26356
1.26359
1.26362
1.26364
1.26367
1.26369
1.26371
1.26373
1.26374
1.26375
1.26377
1.26378
1.26379
1.2638
1.26381
1.26381
1.26382
1.26382
1.26383
1.26383
1.26383
1.26383
1.26384
1.26384
1.26384
1.26384
1.26383
1.26383
1.26383
1.26383
1.26382
1.26382
1.26381
1.26381
1.2638
1.26379
1.26378
1.26377
1.26375
1.26374
1.26373
1.26371
1.26369
1.26367
1.26364
1.26362
1.26359
1.26356
1.26352
1.26349
1.26345
1.26341
1.26337
1.26334
1.6876
1.68765
1.6877
1.68777
1.68783
1.68788
1.68794
1.68798
1.68803
1.68807
1.68811
1.68814
1.68817
1.6882
1.68822
1.68825
1.68827
1.68828
1.6883
1.68831
1.68833
1.68834
1.68835
1.68835
1.68836
1.68837
1.68837
1.68837
1.68837
1.68838
1.68838
1.68837
1.68837
1.68837
1.68837
1.68836
1.68835
1.68835
1.68834
1.68833
1.68831
1.6883
1.68828
1.68827
1.68825
1.68822
1.6882
1.68817
1.68814
1.68811
1.68807
1.68803
1.68798
1.68794
1.68788
1.68783
1.68777
1.6877
1.68765
1.6876
2.11065
2.11072
2.1108
2.11089
2.11097
2.11105
2.11113
2.1112
2.11126
2.11132
2.11137
2.11142
2.11146
2.1115
2.11153
2.11156
2.11159
2.11162
2.11164
2.11166
2.11168
2.11169
2.1117
2.11171
2.11172
2.11173
2.11174
2.11174
2.11174
2.11174
2.11174
2.11174
2.11174
2.11174
2.11173
2.11172
2.11171
2.1117
2.11169
2.11168
2.11166
2.11164
2.11162
2.11159
2.11156
2.11153
2.1115
2.11146
2.11142
2.11137
2.11132
2.11126
2.1112
2.11113
2.11105
2.11097
2.11089
2.1108
2.11072
2.11065
2.53863
2.53871
2.53882
2.53893
2.53904
2.53914
2.53924
2.53933
2.53941
2.53949
2.53956
2.53962
2.53967
2.53973
2.53977
2.53981
2.53985
2.53988
2.53991
2.53993
2.53996
2.53998
2.53999
2.54001
2.54002
2.54003
2.54003
2.54004
2.54004
2.54005
2.54005
2.54004
2.54004
2.54003
2.54003
2.54002
2.54001
2.53999
2.53998
2.53996
2.53993
2.53991
2.53988
2.53985
2.53981
2.53977
2.53973
2.53967
2.53962
2.53956
2.53949
2.53941
2.53933
2.53924
2.53914
2.53904
2.53893
2.53882
2.53871
2.53863
2.97416
2.97427
2.9744
2.97454
2.97468
2.97481
2.97493
2.97504
2.97514
2.97523
2.97532
2.9754
2.97547
2.97553
2.97559
2.97564
2.97568
2.97572
2.97576
2.97579
2.97582
2.97584
2.97586
2.97588
2.97589
2.9759
2.97591
2.97592
2.97592
2.97593
2.97593
2.97592
2.97592
2.97591
2.9759
2.97589
2.97588
2.97586
2.97584
2.97582
2.97579
2.97576
2.97572
2.97568
2.97564
2.97559
2.97553
2.97547
2.9754
2.97532
2.97523
2.97514
2.97504
2.97493
2.97481
2.97468
2.97454
2.9744
2.97427
2.97416
3.41842
3.41855
3.41871
3.41888
3.41904
3.41919
3.41934
3.41947
3.41959
3.4197
3.41981
3.4199
3.41998
3.42006
3.42013
3.42019
3.42024
3.42029
3.42033
3.42037
3.4204
3.42043
3.42046
3.42048
3.42049
3.42051
3.42052
3.42053
3.42053
3.42054
3.42054
3.42053
3.42053
3.42052
3.42051
3.42049
3.42048
3.42046
3.42043
3.4204
3.42037
3.42033
3.42029
3.42024
3.42019
3.42013
3.42006
3.41998
3.4199
3.41981
3.4197
3.41959
3.41947
3.41934
3.41919
3.41904
3.41888
3.41871
3.41855
3.41842
3.8719
3.87205
3.87224
3.87243
3.87262
3.8728
3.87297
3.87312
3.87327
3.8734
3.87352
3.87362
3.87372
3.87381
3.87389
3.87396
3.87402
3.87408
3.87413
3.87417
3.87421
3.87425
3.87427
3.8743
3.87432
3.87434
3.87435
3.87436
3.87436
3.87437
3.87437
3.87436
3.87436
3.87435
3.87434
3.87432
3.8743
3.87427
3.87425
3.87421
3.87417
3.87413
3.87408
3.87402
3.87396
3.87389
3.87381
3.87372
3.87362
3.87352
3.8734
3.87327
3.87312
3.87297
3.8728
3.87262
3.87243
3.87224
3.87205
3.8719
4.33481
4.33497
4.33519
4.33541
4.33563
4.33584
4.33603
4.33621
4.33637
4.33652
4.33666
4.33678
4.33689
4.33699
4.33708
4.33717
4.33724
4.3373
4.33736
4.33741
4.33746
4.33749
4.33753
4.33755
4.33758
4.3376
4.33761
4.33762
4.33763
4.33763
4.33763
4.33763
4.33762
4.33761
4.3376
4.33758
4.33755
4.33753
4.33749
4.33746
4.33741
4.33736
4.3373
4.33724
4.33717
4.33708
4.33699
4.33689
4.33678
4.33666
4.33652
4.33637
4.33621
4.33603
4.33584
4.33563
4.33541
4.33519
4.33497
4.33481
4.80722
4.80741
4.80765
4.8079
4.80815
4.80838
4.8086
4.8088
4.80898
4.80915
4.80931
4.80945
4.80957
4.80969
4.80979
4.80988
4.80996
4.81004
4.8101
4.81016
4.81021
4.81025
4.81029
4.81032
4.81034
4.81037
4.81038
4.8104
4.8104
4.81041
4.81041
4.8104
4.8104
4.81038
4.81037
4.81034
4.81032
4.81029
4.81025
4.81021
4.81016
4.8101
4.81004
4.80996
4.80988
4.80979
4.80969
4.80957
4.80945
4.80931
4.80915
4.80898
4.8088
4.8086
4.80838
4.80815
4.8079
4.80765
4.80741
4.80722
5.28915
5.28936
5.28963
5.28991
5.29019
5.29044
5.29069
5.29091
5.29112
5.2913
5.29147
5.29163
5.29177
5.2919
5.29201
5.29212
5.29221
5.29229
5.29236
5.29242
5.29248
5.29253
5.29257
5.2926
5.29263
5.29266
5.29268
5.29269
5.2927
5.2927
5.2927
5.2927
5.29269
5.29268
5.29266
5.29263
5.2926
5.29257
5.29253
5.29248
5.29242
5.29236
5.29229
5.29221
5.29212
5.29201
5.2919
5.29177
5.29163
5.29147
5.2913
5.29112
5.29091
5.29069
5.29044
5.29019
5.28991
5.28963
5.28936
5.28915
5.78057
5.7808
5.7811
5.78141
5.78171
5.78199
5.78226
5.78251
5.78273
5.78294
5.78313
5.7833
5.78346
5.7836
5.78373
5.78384
5.78394
5.78403
5.78411
5.78418
5.78424
5.78429
5.78434
5.78438
5.78441
5.78444
5.78446
5.78447
5.78448
5.78449
5.78449
5.78448
5.78447
5.78446
5.78444
5.78441
5.78438
5.78434
5.78429
5.78424
5.78418
5.78411
5.78403
5.78394
5.78384
5.78373
5.7836
5.78346
5.7833
5.78313
5.78294
5.78273
5.78251
5.78226
5.78199
5.78171
5.78141
5.7811
5.7808
5.78057
6.28141
6.28166
6.28198
6.28232
6.28265
6.28297
6.28326
6.28353
6.28378
6.284
6.28421
6.2844
6.28457
6.28472
6.28486
6.28498
6.28509
6.28519
6.28528
6.28536
6.28542
6.28548
6.28553
6.28557
6.28561
6.28564
6.28566
6.28568
6.28569
6.28569
6.28569
6.28569
6.28568
6.28566
6.28564
6.28561
6.28557
6.28553
6.28548
6.28542
6.28536
6.28528
6.28519
6.28509
6.28498
6.28486
6.28472
6.28457
6.2844
6.28421
6.284
6.28378
6.28353
6.28326
6.28297
6.28265
6.28232
6.28198
6.28166
6.28141
6.79157
6.79184
6.7922
6.79256
6.79292
6.79326
6.79358
6.79387
6.79414
6.79439
6.79461
6.79482
6.795
6.79517
6.79532
6.79545
6.79557
6.79568
6.79577
6.79586
6.79593
6.79599
6.79605
6.79609
6.79613
6.79616
6.79619
6.79621
6.79622
6.79622
6.79622
6.79622
6.79621
6.79619
6.79616
6.79613
6.79609
6.79605
6.79599
6.79593
6.79586
6.79577
6.79568
6.79557
6.79545
6.79532
6.79517
6.795
6.79482
6.79461
6.79439
6.79414
6.79387
6.79358
6.79326
6.79292
6.79256
6.7922
6.79184
6.79157
7.31092
7.31122
7.3116
7.312
7.31238
7.31275
7.31309
7.31341
7.3137
7.31397
7.31421
7.31443
7.31463
7.31481
7.31497
7.31511
7.31524
7.31536
7.31546
7.31555
7.31563
7.3157
7.31576
7.3158
7.31585
7.31588
7.31591
7.31593
7.31594
7.31595
7.31595
7.31594
7.31593
7.31591
7.31588
7.31585
7.3158
7.31576
7.3157
7.31563
7.31555
7.31546
7.31536
7.31524
7.31511
7.31497
7.31481
7.31463
7.31443
7.31421
7.31397
7.3137
7.31341
7.31309
7.31275
7.31238
7.312
7.3116
7.31122
7.31092
7.8393
7.83961
7.84002
7.84045
7.84086
7.84126
7.84162
7.84196
7.84228
7.84256
7.84282
7.84306
7.84327
7.84347
7.84364
7.8438
7.84393
7.84406
7.84417
7.84426
7.84435
7.84442
7.84448
7.84454
7.84458
7.84462
7.84464
7.84467
7.84468
7.84469
7.84469
7.84468
7.84467
7.84464
7.84462
7.84458
7.84454
7.84448
7.84442
7.84435
7.84426
7.84417
7.84406
7.84393
7.8438
7.84364
7.84347
7.84327
7.84306
7.84282
7.84256
7.84228
7.84196
7.84162
7.84126
7.84086
7.84045
7.84002
7.83961
7.8393
8.37648
8.37682
8.37725
8.37771
8.37815
8.37857
8.37896
8.37933
8.37966
8.37997
8.38024
8.3805
8.38072
8.38093
8.38112
8.38128
8.38143
8.38156
8.38168
8.38178
8.38187
8.38195
8.38202
8.38207
8.38212
8.38216
8.38219
8.38221
8.38223
8.38223
8.38223
8.38223
8.38221
8.38219
8.38216
8.38212
8.38207
8.38202
8.38195
8.38187
8.38178
8.38168
8.38156
8.38143
8.38128
8.38112
8.38093
8.38072
8.3805
8.38024
8.37997
8.37966
8.37933
8.37896
8.37857
8.37815
8.37771
8.37725
8.37682
8.37648
8.92221
8.92257
8.92303
8.92352
8.92399
8.92443
8.92485
8.92524
8.92559
8.92591
8.92621
8.92648
8.92672
8.92694
8.92714
8.92731
8.92747
8.92761
8.92774
8.92785
8.92794
8.92802
8.92809
8.92816
8.92821
8.92825
8.92828
8.9283
8.92832
8.92833
8.92833
8.92832
8.9283
8.92828
8.92825
8.92821
8.92816
8.92809
8.92802
8.92794
8.92785
8.92774
8.92761
8.92747
8.92731
8.92714
8.92694
8.92672
8.92648
8.92621
8.92591
8.92559
8.92524
8.92485
8.92443
8.92399
8.92352
8.92303
8.92257
8.92221
9.47618
9.47655
9.47705
9.47756
9.47806
9.47853
9.47897
9.47938
9.47975
9.4801
9.48041
9.48069
9.48095
9.48118
9.48139
9.48158
9.48175
9.48189
9.48202
9.48214
9.48224
9.48233
9.4824
9.48247
9.48252
9.48257
9.4826
9.48262
9.48264
9.48265
9.48265
9.48264
9.48262
9.4826
9.48257
9.48252
9.48247
9.4824
9.48233
9.48224
9.48214
9.48202
9.48189
9.48175
9.48158
9.48139
9.48118
9.48095
9.48069
9.48041
9.4801
9.47975
9.47938
9.47897
9.47853
9.47806
9.47756
9.47705
9.47655
9.47618
10.038
10.0384
10.0389
10.0395
10.04
10.0405
10.041
10.0414
10.0418
10.0421
10.0425
10.0428
10.043
10.0433
10.0435
10.0437
10.0439
10.044
10.0442
10.0443
10.0444
10.0445
10.0446
10.0446
10.0447
10.0447
10.0448
10.0448
10.0448
10.0448
10.0448
10.0448
10.0448
10.0448
10.0447
10.0447
10.0446
10.0446
10.0445
10.0444
10.0443
10.0442
10.044
10.0439
10.0437
10.0435
10.0433
10.043
10.0428
10.0425
10.0421
10.0418
10.0414
10.041
10.0405
10.04
10.0395
10.0389
10.0384
10.038
10.6073
10.6077
10.6082
10.6088
10.6093
10.6099
10.6104
10.6108
10.6112
10.6116
10.6119
10.6123
10.6125
10.6128
10.613
10.6132
10.6134
10.6136
10.6137
10.6139
10.614
10.6141
10.6142
10.6142
10.6143
10.6143
10.6144
10.6144
10.6144
10.6144
10.6144
10.6144
10.6144
10.6144
10.6143
10.6143
10.6142
10.6142
10.6141
10.614
10.6139
10.6137
10.6136
10.6134
10.6132
10.613
10.6128
10.6125
10.6123
10.6119
10.6116
10.6112
10.6108
10.6104
10.6099
10.6093
10.6088
10.6082
10.6077
10.6073
11.1834
11.1839
11.1844
11.185
11.1856
11.1862
11.1867
11.1871
11.1876
11.188
11.1883
11.1887
11.189
11.1892
11.1895
11.1897
11.1899
11.1901
11.1902
11.1903
11.1905
11.1906
11.1906
11.1907
11.1908
11.1908
11.1909
11.1909
11.1909
11.1909
11.1909
11.1909
11.1909
11.1909
11.1908
11.1908
11.1907
11.1906
11.1906
11.1905
11.1903
11.1902
11.1901
11.1899
11.1897
11.1895
11.1892
11.189
11.1887
11.1883
11.188
11.1876
11.1871
11.1867
11.1862
11.1856
11.185
11.1844
11.1839
11.1834
11.7659
11.7664
11.767
11.7676
11.7682
11.7688
11.7693
11.7698
11.7702
11.7706
11.771
11.7714
11.7717
11.772
11.7722
11.7724
11.7726
11.7728
11.773
11.7731
11.7732
11.7733
11.7734
11.7735
11.7736
11.7736
11.7737
11.7737
11.7737
11.7737
11.7737
11.7737
11.7737
11.7737
11.7736
11.7736
11.7735
11.7734
11.7733
11.7732
11.7731
11.773
11.7728
11.7726
11.7724
11.7722
11.772
11.7717
11.7714
11.771
11.7706
11.7702
11.7698
11.7693
11.7688
11.7682
11.7676
11.767
11.7664
11.7659
12.354
12.3545
12.3551
12.3558
12.3564
12.357
12.3575
12.358
12.3585
12.3589
12.3593
12.3597
12.36
12.3603
12.3606
12.3608
12.361
12.3612
12.3614
12.3615
12.3616
12.3617
12.3618
12.3619
12.362
12.362
12.3621
12.3621
12.3621
12.3621
12.3621
12.3621
12.3621
12.3621
12.362
12.362
12.3619
12.3618
12.3617
12.3616
12.3615
12.3614
12.3612
12.361
12.3608
12.3606
12.3603
12.36
12.3597
12.3593
12.3589
12.3585
12.358
12.3575
12.357
12.3564
12.3558
12.3551
12.3545
12.354
12.9469
12.9474
12.9481
12.9487
12.9494
12.95
12.9506
12.9511
12.9516
12.952
12.9525
12.9528
12.9532
12.9535
12.9537
12.954
12.9542
12.9544
12.9546
12.9547
12.9548
12.955
12.955
12.9551
12.9552
12.9553
12.9553
12.9553
12.9554
12.9554
12.9554
12.9554
12.9553
12.9553
12.9553
12.9552
12.9551
12.955
12.955
12.9548
12.9547
12.9546
12.9544
12.9542
12.954
12.9537
12.9535
12.9532
12.9528
12.9525
12.952
12.9516
12.9511
12.9506
12.95
12.9494
12.9487
12.9481
12.9474
12.9469
13.5438
13.5443
13.5449
13.5456
13.5463
13.5469
13.5475
13.5481
13.5486
13.549
13.5495
13.5498
13.5502
13.5505
13.5508
13.551
13.5513
13.5515
13.5516
13.5518
13.5519
13.552
13.5521
13.5522
13.5523
13.5524
13.5524
13.5524
13.5525
13.5525
13.5525
13.5525
13.5524
13.5524
13.5524
13.5523
13.5522
13.5521
13.552
13.5519
13.5518
13.5516
13.5515
13.5513
13.551
13.5508
13.5505
13.5502
13.5498
13.5495
13.549
13.5486
13.5481
13.5475
13.5469
13.5463
13.5456
13.5449
13.5443
13.5438
14.1434
14.144
14.1447
14.1454
14.1461
14.1467
14.1473
14.1479
14.1484
14.1489
14.1493
14.1497
14.15
14.1504
14.1507
14.1509
14.1511
14.1513
14.1515
14.1517
14.1518
14.1519
14.1521
14.1521
14.1522
14.1523
14.1523
14.1524
14.1524
14.1524
14.1524
14.1524
14.1524
14.1523
14.1523
14.1522
14.1521
14.1521
14.1519
14.1518
14.1517
14.1515
14.1513
14.1511
14.1509
14.1507
14.1504
14.15
14.1497
14.1493
14.1489
14.1484
14.1479
14.1473
14.1467
14.1461
14.1454
14.1447
14.144
14.1434
14.7447
14.7453
14.746
14.7467
14.7474
14.7481
14.7487
14.7493
14.7498
14.7503
14.7507
14.7511
14.7515
14.7518
14.7521
14.7524
14.7526
14.7528
14.753
14.7532
14.7533
14.7534
14.7536
14.7536
14.7537
14.7538
14.7538
14.7539
14.7539
14.7539
14.7539
14.7539
14.7539
14.7538
14.7538
14.7537
14.7536
14.7536
14.7534
14.7533
14.7532
14.753
14.7528
14.7526
14.7524
14.7521
14.7518
14.7515
14.7511
14.7507
14.7503
14.7498
14.7493
14.7487
14.7481
14.7474
14.7467
14.746
14.7453
14.7447
15.3462
15.3468
15.3475
15.3482
15.349
15.3496
15.3503
15.3509
15.3514
15.3519
15.3524
15.3528
15.3531
15.3535
15.3538
15.354
15.3543
15.3545
15.3547
15.3549
15.355
15.3551
15.3552
15.3553
15.3554
15.3555
15.3555
15.3556
15.3556
15.3556
15.3556
15.3556
15.3556
15.3555
15.3555
15.3554
15.3553
15.3552
15.3551
15.355
15.3549
15.3547
15.3545
15.3543
15.354
15.3538
15.3535
15.3531
15.3528
15.3524
15.3519
15.3514
15.3509
15.3503
15.3496
15.349
15.3482
15.3475
15.3468
15.3462
15.9463
15.9469
15.9476
15.9484
15.9491
15.9498
15.9504
15.951
15.9516
15.9521
15.9526
15.953
15.9534
15.9537
15.954
15.9543
15.9545
15.9547
15.9549
15.9551
15.9552
15.9554
15.9555
15.9556
15.9557
15.9557
15.9558
15.9558
15.9558
15.9558
15.9558
15.9558
15.9558
15.9558
15.9557
15.9557
15.9556
15.9555
15.9554
15.9552
15.9551
15.9549
15.9547
15.9545
15.9543
15.954
15.9537
15.9534
15.953
15.9526
15.9521
15.9516
15.951
15.9504
15.9498
15.9491
15.9484
15.9476
15.9469
15.9463
16.5431
16.5437
16.5444
16.5452
16.546
16.5467
16.5473
16.5479
16.5485
16.549
16.5494
16.5499
16.5502
16.5506
16.5509
16.5512
16.5514
16.5516
16.5518
16.552
16.5522
16.5523
16.5524
16.5525
16.5526
16.5526
16.5527
16.5527
16.5527
16.5528
16.5528
16.5527
16.5527
16.5527
16.5526
16.5526
16.5525
16.5524
16.5523
16.5522
16.552
16.5518
16.5516
16.5514
16.5512
16.5509
16.5506
16.5502
16.5499
16.5494
16.549
16.5485
16.5479
16.5473
16.5467
16.546
16.5452
16.5444
16.5437
16.5431
17.1345
17.1351
17.1358
17.1366
17.1373
17.138
17.1387
17.1393
17.1399
17.1404
17.1408
17.1413
17.1417
17.142
17.1423
17.1426
17.1428
17.1431
17.1433
17.1434
17.1436
17.1437
17.1438
17.1439
17.144
17.1441
17.1441
17.1441
17.1442
17.1442
17.1442
17.1442
17.1441
17.1441
17.1441
17.144
17.1439
17.1438
17.1437
17.1436
17.1434
17.1433
17.1431
17.1428
17.1426
17.1423
17.142
17.1417
17.1413
17.1408
17.1404
17.1399
17.1393
17.1387
17.138
17.1373
17.1366
17.1358
17.1351
17.1345
17.7179
17.7185
17.7192
17.72
17.7207
17.7214
17.7221
17.7227
17.7233
17.7238
17.7242
17.7247
17.725
17.7254
17.7257
17.726
17.7262
17.7264
17.7266
17.7268
17.727
17.7271
17.7272
17.7273
17.7274
17.7274
17.7275
17.7275
17.7276
17.7276
17.7276
17.7276
17.7275
17.7275
17.7274
17.7274
17.7273
17.7272
17.7271
17.727
17.7268
17.7266
17.7264
17.7262
17.726
17.7257
17.7254
17.725
17.7247
17.7242
17.7238
17.7233
17.7227
17.7221
17.7214
17.7207
17.72
17.7192
17.7185
17.7179
18.2904
18.291
18.2917
18.2925
18.2932
18.2939
18.2946
18.2952
18.2957
18.2962
18.2967
18.2971
18.2975
18.2978
18.2981
18.2984
18.2986
18.2989
18.2991
18.2992
18.2994
18.2995
18.2996
18.2997
18.2998
18.2999
18.2999
18.2999
18.3
18.3
18.3
18.3
18.2999
18.2999
18.2999
18.2998
18.2997
18.2996
18.2995
18.2994
18.2992
18.2991
18.2989
18.2986
18.2984
18.2981
18.2978
18.2975
18.2971
18.2967
18.2962
18.2957
18.2952
18.2946
18.2939
18.2932
18.2925
18.2917
18.291
18.2904
18.8485
18.8491
18.8498
18.8505
18.8513
18.852
18.8526
18.8532
18.8537
18.8542
18.8547
18.8551
18.8555
18.8558
18.8561
18.8564
18.8566
18.8568
18.857
18.8572
18.8573
18.8575
18.8576
18.8577
18.8577
18.8578
18.8578
18.8579
18.8579
18.8579
18.8579
18.8579
18.8579
18.8578
18.8578
18.8577
18.8577
18.8576
18.8575
18.8573
18.8572
18.857
18.8568
18.8566
18.8564
18.8561
18.8558
18.8555
18.8551
18.8547
18.8542
18.8537
18.8532
18.8526
18.852
18.8513
18.8505
18.8498
18.8491
18.8485
19.3881
19.3887
19.3894
19.3901
19.3908
19.3915
19.3921
19.3927
19.3932
19.3937
19.3941
19.3945
19.3949
19.3952
19.3955
19.3958
19.396
19.3962
19.3964
19.3966
19.3967
19.3968
19.3969
19.397
19.3971
19.3972
19.3972
19.3973
19.3973
19.3973
19.3973
19.3973
19.3973
19.3972
19.3972
19.3971
19.397
19.3969
19.3968
19.3967
19.3966
19.3964
19.3962
19.396
19.3958
19.3955
19.3952
19.3949
19.3945
19.3941
19.3937
19.3932
19.3927
19.3921
19.3915
19.3908
19.3901
19.3894
19.3887
19.3881
19.9044
19.905
19.9056
19.9063
19.907
19.9077
19.9083
19.9088
19.9093
19.9098
19.9102
19.9106
19.9109
19.9112
19.9115
19.9118
19.912
19.9122
19.9124
19.9125
19.9127
19.9128
19.9129
19.913
19.913
19.9131
19.9131
19.9132
19.9132
19.9132
19.9132
19.9132
19.9132
19.9131
19.9131
19.913
19.913
19.9129
19.9128
19.9127
19.9125
19.9124
19.9122
19.912
19.9118
19.9115
19.9112
19.9109
19.9106
19.9102
19.9098
19.9093
19.9088
19.9083
19.9077
19.907
19.9063
19.9056
19.905
19.9044
20.3917
20.3922
20.3928
20.3935
20.3941
20.3947
20.3953
20.3958
20.3963
20.3967
20.3971
20.3975
20.3978
20.3981
20.3983
20.3986
20.3988
20.399
20.3991
20.3993
20.3994
20.3995
20.3996
20.3997
20.3998
20.3998
20.3999
20.3999
20.3999
20.3999
20.3999
20.3999
20.3999
20.3999
20.3998
20.3998
20.3997
20.3996
20.3995
20.3994
20.3993
20.3991
20.399
20.3988
20.3986
20.3983
20.3981
20.3978
20.3975
20.3971
20.3967
20.3963
20.3958
20.3953
20.3947
20.3941
20.3935
20.3928
20.3922
20.3917
20.8433
20.8438
20.8443
20.8449
20.8455
20.8461
20.8466
20.8471
20.8475
20.8479
20.8483
20.8486
20.8489
20.8492
20.8494
20.8496
20.8498
20.85
20.8501
20.8503
20.8504
20.8505
20.8506
20.8506
20.8507
20.8507
20.8508
20.8508
20.8508
20.8508
20.8508
20.8508
20.8508
20.8508
20.8507
20.8507
20.8506
20.8506
20.8505
20.8504
20.8503
20.8501
20.85
20.8498
20.8496
20.8494
20.8492
20.8489
20.8486
20.8483
20.8479
20.8475
20.8471
20.8466
20.8461
20.8455
20.8449
20.8443
20.8438
20.8433
21.2522
21.2526
21.2532
21.2537
21.2542
21.2547
21.2552
21.2556
21.256
21.2563
21.2566
21.2569
21.2572
21.2574
21.2576
21.2578
21.258
21.2581
21.2583
21.2584
21.2585
21.2586
21.2587
21.2587
21.2588
21.2588
21.2589
21.2589
21.2589
21.2589
21.2589
21.2589
21.2589
21.2589
21.2588
21.2588
21.2587
21.2587
21.2586
21.2585
21.2584
21.2583
21.2581
21.258
21.2578
21.2576
21.2574
21.2572
21.2569
21.2566
21.2563
21.256
21.2556
21.2552
21.2547
21.2542
21.2537
21.2532
21.2526
21.2522
21.612
21.6123
21.6128
21.6132
21.6137
21.6141
21.6145
21.6148
21.6152
21.6155
21.6157
21.616
21.6162
21.6164
21.6166
21.6167
21.6169
21.617
21.6171
21.6172
21.6173
21.6174
21.6174
21.6175
21.6175
21.6176
21.6176
21.6176
21.6176
21.6176
21.6176
21.6176
21.6176
21.6176
21.6176
21.6175
21.6175
21.6174
21.6174
21.6173
21.6172
21.6171
21.617
21.6169
21.6167
21.6166
21.6164
21.6162
21.616
21.6157
21.6155
21.6152
21.6148
21.6145
21.6141
21.6137
21.6132
21.6128
21.6123
21.612
21.9183
21.9186
21.9189
21.9193
21.9197
21.92
21.9203
21.9206
21.9209
21.9211
21.9213
21.9215
21.9217
21.9219
21.922
21.9221
21.9222
21.9223
21.9224
21.9225
21.9226
21.9226
21.9227
21.9227
21.9228
21.9228
21.9228
21.9228
21.9228
21.9229
21.9229
21.9228
21.9228
21.9228
21.9228
21.9228
21.9227
21.9227
21.9226
21.9226
21.9225
21.9224
21.9223
21.9222
21.9221
21.922
21.9219
21.9217
21.9215
21.9213
21.9211
21.9209
21.9206
21.9203
21.92
21.9197
21.9193
21.9189
21.9186
21.9183
22.1709
22.1711
22.1714
22.1717
22.1719
22.1722
22.1724
22.1727
22.1729
22.173
22.1732
22.1734
22.1735
22.1736
22.1737
22.1738
22.1739
22.174
22.1741
22.1741
22.1742
22.1742
22.1743
22.1743
22.1743
22.1743
22.1744
22.1744
22.1744
22.1744
22.1744
22.1744
22.1744
22.1744
22.1743
22.1743
22.1743
22.1743
22.1742
22.1742
22.1741
22.1741
22.174
22.1739
22.1738
22.1737
22.1736
22.1735
22.1734
22.1732
22.173
22.1729
22.1727
22.1724
22.1722
22.1719
22.1717
22.1714
22.1711
22.1709
22.3743
22.3744
22.3746
22.3748
22.375
22.3752
22.3754
22.3755
22.3757
22.3758
22.3759
22.376
22.3761
22.3762
22.3763
22.3764
22.3764
22.3765
22.3766
22.3766
22.3766
22.3767
22.3767
22.3767
22.3767
22.3767
22.3768
22.3768
22.3768
22.3768
22.3768
22.3768
22.3768
22.3768
22.3767
22.3767
22.3767
22.3767
22.3767
22.3766
22.3766
22.3766
22.3765
22.3764
22.3764
22.3763
22.3762
22.3761
22.376
22.3759
22.3758
22.3757
22.3755
22.3754
22.3752
22.375
22.3748
22.3746
22.3744
22.3743
22.5364
22.5365
22.5367
22.5368
22.537
22.5371
22.5372
22.5373
22.5374
22.5375
22.5376
22.5377
22.5378
22.5378
22.5379
22.5379
22.538
22.538
22.538
22.5381
22.5381
22.5381
22.5381
22.5381
22.5382
22.5382
22.5382
22.5382
22.5382
22.5382
22.5382
22.5382
22.5382
22.5382
22.5382
22.5382
22.5381
22.5381
22.5381
22.5381
22.5381
22.538
22.538
22.538
22.5379
22.5379
22.5378
22.5378
22.5377
22.5376
22.5375
22.5374
22.5373
22.5372
22.5371
22.537
22.5368
22.5367
22.5365
22.5364
22.6668
22.6669
22.667
22.6671
22.6672
22.6673
22.6674
22.6674
22.6675
22.6676
22.6676
22.6677
22.6677
22.6678
22.6678
22.6678
22.6679
22.6679
22.6679
22.6679
22.6679
22.668
22.668
22.668
22.668
22.668
22.668
22.668
22.668
22.668
22.668
22.668
22.668
22.668
22.668
22.668
22.668
22.668
22.668
22.6679
22.6679
22.6679
22.6679
22.6679
22.6678
22.6678
22.6678
22.6677
22.6677
22.6676
22.6676
22.6675
22.6674
22.6674
22.6673
22.6672
22.6671
22.667
22.6669
22.6668
22.774
22.774
22.7741
22.7742
22.7742
22.7743
22.7744
22.7744
22.7745
22.7745
22.7745
22.7746
22.7746
22.7746
22.7747
22.7747
22.7747
22.7747
22.7747
22.7747
22.7747
22.7747
22.7748
22.7748
22.7748
22.7748
22.7748
22.7748
22.7748
22.7748
22.7748
22.7748
22.7748
22.7748
22.7748
22.7748
22.7748
22.7748
22.7747
22.7747
22.7747
22.7747
22.7747
22.7747
22.7747
22.7747
22.7746
22.7746
22.7746
22.7745
22.7745
22.7745
22.7744
22.7744
22.7743
22.7742
22.7742
22.7741
22.774
22.774
22.8646
22.8647
22.8647
22.8647
22.8648
22.8648
22.8649
22.8649
22.8649
22.865
22.865
22.865
22.865
22.865
22.865
22.8651
22.8651
22.8651
22.8651
22.8651
22.8651
22.8651
22.8651
22.8651
22.8651
22.8651
22.8651
22.8651
22.8651
22.8651
22.8651
22.8651
22.8651
22.8651
22.8651
22.8651
22.8651
22.8651
22.8651
22.8651
22.8651
22.8651
22.8651
22.8651
22.8651
22.865
22.865
22.865
22.865
22.865
22.865
22.8649
22.8649
22.8649
22.8648
22.8648
22.8647
22.8647
22.8647
22.8646
22.9434
22.9434
22.9434
22.9435
22.9435
22.9435
22.9435
22.9436
22.9436
22.9436
22.9436
22.9436
22.9436
22.9436
22.9436
22.9436
22.9437
22.9437
22.9437
22.9437
22.9437
22.9437
22.9437
22.9437
22.9437
22.9437
22.9437
22.9437
22.9437
22.9437
22.9437
22.9437
22.9437
22.9437
22.9437
22.9437
22.9437
22.9437
22.9437
22.9437
22.9437
22.9437
22.9437
22.9437
22.9436
22.9436
22.9436
22.9436
22.9436
22.9436
22.9436
22.9436
22.9436
22.9435
22.9435
22.9435
22.9435
22.9434
22.9434
22.9434
23.0134
23.0134
23.0134
23.0135
23.0135
23.0135
23.0135
23.0135
23.0135
23.0135
23.0135
23.0136
23.0136
23.0136
23.0136
23.0136
23.0136
23.0136
23.0136
23.0136
23.0136
23.0136
23.0136
23.0136
23.0136
23.0136
23.0136
23.0136
23.0136
23.0136
23.0136
23.0136
23.0136
23.0136
23.0136
23.0136
23.0136
23.0136
23.0136
23.0136
23.0136
23.0136
23.0136
23.0136
23.0136
23.0136
23.0136
23.0136
23.0136
23.0135
23.0135
23.0135
23.0135
23.0135
23.0135
23.0135
23.0135
23.0134
23.0134
23.0134
23.0768
23.0768
23.0768
23.0768
23.0768
23.0768
23.0769
23.0769
23.0769
23.0769
23.0769
23.0769
23.0769
23.0769
23.0769
23.0769
23.0769
23.0768
23.0768
23.0768
23.0768
23.0768
23.0768
23.0768
23.0768
23.0768
23.0768
23.0768
23.0768
23.0768
23.0768
23.0768
23.0768
23.0768
23.0768
23.0768
23.0768
23.0768
23.0768
23.0768
23.0768
23.0768
23.0768
23.0769
23.0769
23.0769
23.0769
23.0769
23.0769
23.0769
23.0769
23.0769
23.0769
23.0769
23.0768
23.0768
23.0768
23.0768
23.0768
23.0768
23.135
23.135
23.135
23.135
23.135
23.135
23.135
23.135
23.135
23.135
23.135
23.135
23.1349
23.1349
23.1349
23.1349
23.1349
23.1349
23.1349
23.1349
23.1349
23.1349
23.1349
23.1349
23.1349
23.1349
23.1349
23.1349
23.1349
23.1349
23.1349
23.1349
23.1349
23.1349
23.1349
23.1349
23.1349
23.1349
23.1349
23.1349
23.1349
23.1349
23.1349
23.1349
23.1349
23.1349
23.1349
23.1349
23.135
23.135
23.135
23.135
23.135
23.135
23.135
23.135
23.135
23.135
23.135
23.135
23.1889
23.1889
23.1889
23.1889
23.1889
23.1889
23.1889
23.1889
23.1888
23.1888
23.1888
23.1888
23.1888
23.1888
23.1888
23.1888
23.1888
23.1888
23.1888
23.1888
23.1888
23.1888
23.1888
23.1887
23.1887
23.1887
23.1887
23.1887
23.1887
23.1887
23.1887
23.1887
23.1887
23.1887
23.1887
23.1887
23.1887
23.1888
23.1888
23.1888
23.1888
23.1888
23.1888
23.1888
23.1888
23.1888
23.1888
23.1888
23.1888
23.1888
23.1888
23.1888
23.1889
23.1889
23.1889
23.1889
23.1889
23.1889
23.1889
23.1889
23.2393
23.2393
23.2393
23.2393
23.2393
23.2393
23.2392
23.2392
23.2392
23.2392
23.2392
23.2392
23.2392
23.2392
23.2392
23.2392
23.2392
23.2391
23.2391
23.2391
23.2391
23.2391
23.2391
23.2391
23.2391
23.2391
23.2391
23.2391
23.2391
23.2391
23.2391
23.2391
23.2391
23.2391
23.2391
23.2391
23.2391
23.2391
23.2391
23.2391
23.2391
23.2391
23.2391
23.2392
23.2392
23.2392
23.2392
23.2392
23.2392
23.2392
23.2392
23.2392
23.2392
23.2392
23.2393
23.2393
23.2393
23.2393
23.2393
23.2393
23.2868
23.2868
23.2867
23.2867
23.2867
23.2867
23.2867
23.2867
23.2867
23.2867
23.2866
23.2866
23.2866
23.2866
23.2866
23.2866
23.2866
23.2866
23.2866
23.2866
23.2865
23.2865
23.2865
23.2865
23.2865
23.2865
23.2865
23.2865
23.2865
23.2865
23.2865
23.2865
23.2865
23.2865
23.2865
23.2865
23.2865
23.2865
23.2865
23.2865
23.2866
23.2866
23.2866
23.2866
23.2866
23.2866
23.2866
23.2866
23.2866
23.2866
23.2867
23.2867
23.2867
23.2867
23.2867
23.2867
23.2867
23.2867
23.2868
23.2868
23.3317
23.3317
23.3317
23.3317
23.3317
23.3317
23.3316
23.3316
23.3316
23.3316
23.3316
23.3316
23.3316
23.3315
23.3315
23.3315
23.3315
23.3315
23.3315
23.3315
23.3315
23.3315
23.3315
23.3315
23.3314
23.3314
23.3314
23.3314
23.3314
23.3314
23.3314
23.3314
23.3314
23.3314
23.3314
23.3314
23.3315
23.3315
23.3315
23.3315
23.3315
23.3315
23.3315
23.3315
23.3315
23.3315
23.3315
23.3316
23.3316
23.3316
23.3316
23.3316
23.3316
23.3316
23.3317
23.3317
23.3317
23.3317
23.3317
23.3317
23.3745
23.3745
23.3745
23.3745
23.3745
23.3744
23.3744
23.3744
23.3744
23.3744
23.3744
23.3743
23.3743
23.3743
23.3743
23.3743
23.3743
23.3743
23.3743
23.3742
23.3742
23.3742
23.3742
23.3742
23.3742
23.3742
23.3742
23.3742
23.3742
23.3742
23.3742
23.3742
23.3742
23.3742
23.3742
23.3742
23.3742
23.3742
23.3742
23.3742
23.3742
23.3743
23.3743
23.3743
23.3743
23.3743
23.3743
23.3743
23.3743
23.3744
23.3744
23.3744
23.3744
23.3744
23.3744
23.3745
23.3745
23.3745
23.3745
23.3745
23.4154
23.4154
23.4154
23.4154
23.4154
23.4154
23.4153
23.4153
23.4153
23.4153
23.4153
23.4152
23.4152
23.4152
23.4152
23.4152
23.4152
23.4152
23.4152
23.4151
23.4151
23.4151
23.4151
23.4151
23.4151
23.4151
23.4151
23.4151
23.4151
23.4151
23.4151
23.4151
23.4151
23.4151
23.4151
23.4151
23.4151
23.4151
23.4151
23.4151
23.4151
23.4152
23.4152
23.4152
23.4152
23.4152
23.4152
23.4152
23.4152
23.4153
23.4153
23.4153
23.4153
23.4153
23.4154
23.4154
23.4154
23.4154
23.4154
23.4154
23.4547
23.4547
23.4547
23.4547
23.4546
23.4546
23.4546
23.4546
23.4546
23.4545
23.4545
23.4545
23.4545
23.4545
23.4545
23.4544
23.4544
23.4544
23.4544
23.4544
23.4544
23.4544
23.4544
23.4544
23.4544
23.4544
23.4544
23.4544
23.4544
23.4544
23.4544
23.4544
23.4544
23.4544
23.4544
23.4544
23.4544
23.4544
23.4544
23.4544
23.4544
23.4544
23.4544
23.4544
23.4544
23.4545
23.4545
23.4545
23.4545
23.4545
23.4545
23.4546
23.4546
23.4546
23.4546
23.4546
23.4547
23.4547
23.4547
23.4547
23.4925
23.4925
23.4925
23.4925
23.4925
23.4924
23.4924
23.4924
23.4924
23.4924
23.4923
23.4923
23.4923
23.4923
23.4923
23.4923
23.4922
23.4922
23.4922
23.4922
23.4922
23.4922
23.4922
23.4922
23.4922
23.4922
23.4922
23.4922
23.4922
23.4922
23.4922
23.4922
23.4922
23.4922
23.4922
23.4922
23.4922
23.4922
23.4922
23.4922
23.4922
23.4922
23.4922
23.4922
23.4923
23.4923
23.4923
23.4923
23.4923
23.4923
23.4924
23.4924
23.4924
23.4924
23.4924
23.4925
23.4925
23.4925
23.4925
23.4925
23.5291
23.5291
23.529
23.529
23.529
23.529
23.529
23.5289
23.5289
23.5289
23.5289
23.5289
23.5288