/*--------------------------------*- C++ -*----------------------------------*\
| =========                 |                                                 |
| \\      /  F ield         | foam-extend: Open Source CFD                    |
|  \\    /   O peration     | Version:     4.0                                |
|   \\  /    A nd           | Web:         http://www.foam-extend.org         |
|    \\/     M anipulation  |                                                 |
\*---------------------------------------------------------------------------*/
FoamFile
{
    version     2.0;
    format      ascii;
    class       volScalarField;
    location    "1440";
    object      cPlus;
}
// * * * * * * * * * * * * * * * * * * * * * * * * * * * * * * * * * * * * * //

dimensions      [0 0 0 0 0 0 0];

internalField   nonuniform List<scalar> 
6960
(
0.346225
0.346221
0.346216
0.346211
0.346206
0.346202
0.346197
0.346193
0.346189
0.346185
0.346182
0.346179
0.346176
0.346173
0.346171
0.346168
0.346166
0.346164
0.346163
0.346161
0.34616
0.346159
0.346158
0.346157
0.346156
0.346155
0.346155
0.346155
0.346154
0.346154
0.346154
0.346154
0.346155
0.346155
0.346155
0.346156
0.346157
0.346158
0.346159
0.34616
0.346161
0.346163
0.346164
0.346166
0.346168
0.346171
0.346173
0.346176
0.346179
0.346182
0.346185
0.346189
0.346193
0.346197
0.346202
0.346206
0.346211
0.346216
0.346221
0.346225
0.123005
0.123002
0.122998
0.122994
0.12299
0.122986
0.122982
0.122979
0.122976
0.122973
0.12297
0.122967
0.122965
0.122963
0.122961
0.122959
0.122957
0.122956
0.122954
0.122953
0.122952
0.122951
0.12295
0.12295
0.122949
0.122948
0.122948
0.122948
0.122948
0.122947
0.122947
0.122948
0.122948
0.122948
0.122948
0.122949
0.12295
0.12295
0.122951
0.122952
0.122953
0.122954
0.122956
0.122957
0.122959
0.122961
0.122963
0.122965
0.122967
0.12297
0.122973
0.122976
0.122979
0.122982
0.122986
0.12299
0.122994
0.122998
0.123002
0.123005
0.0516883
0.0516865
0.051684
0.0516813
0.0516786
0.0516761
0.0516737
0.0516714
0.0516693
0.0516673
0.0516654
0.0516637
0.0516622
0.0516607
0.0516594
0.0516582
0.0516571
0.0516561
0.0516552
0.0516544
0.0516536
0.051653
0.0516524
0.051652
0.0516516
0.0516512
0.051651
0.0516508
0.0516507
0.0516506
0.0516506
0.0516507
0.0516508
0.051651
0.0516512
0.0516516
0.051652
0.0516524
0.051653
0.0516536
0.0516544
0.0516552
0.0516561
0.0516571
0.0516582
0.0516594
0.0516607
0.0516622
0.0516637
0.0516654
0.0516673
0.0516693
0.0516714
0.0516737
0.0516761
0.0516786
0.0516813
0.051684
0.0516865
0.0516883
0.0239839
0.0239829
0.0239814
0.0239799
0.0239784
0.0239769
0.0239756
0.0239742
0.023973
0.0239719
0.0239708
0.0239698
0.0239689
0.0239681
0.0239673
0.0239666
0.023966
0.0239654
0.0239649
0.0239645
0.023964
0.0239637
0.0239634
0.0239631
0.0239629
0.0239627
0.0239625
0.0239624
0.0239623
0.0239623
0.0239623
0.0239623
0.0239624
0.0239625
0.0239627
0.0239629
0.0239631
0.0239634
0.0239637
0.023964
0.0239645
0.0239649
0.0239654
0.023966
0.0239666
0.0239673
0.0239681
0.0239689
0.0239698
0.0239708
0.0239719
0.023973
0.0239742
0.0239756
0.0239769
0.0239784
0.0239799
0.0239814
0.0239829
0.0239839
0.0124366
0.0124362
0.0124356
0.0124348
0.0124341
0.0124334
0.0124328
0.0124321
0.0124315
0.012431
0.0124305
0.01243
0.0124296
0.0124292
0.0124288
0.0124285
0.0124282
0.0124279
0.0124276
0.0124274
0.0124272
0.012427
0.0124269
0.0124268
0.0124267
0.0124266
0.0124265
0.0124264
0.0124264
0.0124264
0.0124264
0.0124264
0.0124264
0.0124265
0.0124266
0.0124267
0.0124268
0.0124269
0.012427
0.0124272
0.0124274
0.0124276
0.0124279
0.0124282
0.0124285
0.0124288
0.0124292
0.0124296
0.01243
0.0124305
0.012431
0.0124315
0.0124321
0.0124328
0.0124334
0.0124341
0.0124348
0.0124356
0.0124362
0.0124366
0.00753722
0.00753719
0.00753701
0.00753679
0.00753656
0.00753634
0.00753613
0.00753592
0.00753574
0.00753556
0.0075354
0.00753524
0.0075351
0.00753497
0.00753486
0.00753475
0.00753465
0.00753456
0.00753448
0.00753441
0.00753435
0.00753429
0.00753424
0.0075342
0.00753416
0.00753414
0.00753411
0.00753409
0.00753408
0.00753408
0.00753408
0.00753408
0.00753409
0.00753411
0.00753414
0.00753416
0.0075342
0.00753424
0.00753429
0.00753435
0.00753441
0.00753448
0.00753456
0.00753465
0.00753475
0.00753486
0.00753497
0.0075351
0.00753524
0.0075354
0.00753556
0.00753574
0.00753592
0.00753613
0.00753634
0.00753656
0.00753679
0.00753701
0.00753719
0.00753722
0.00547548
0.00547567
0.00547577
0.00547584
0.00547589
0.00547595
0.00547599
0.00547604
0.00547608
0.00547612
0.00547615
0.00547618
0.00547621
0.00547624
0.00547627
0.00547629
0.00547631
0.00547633
0.00547635
0.00547636
0.00547637
0.00547639
0.0054764
0.00547641
0.00547641
0.00547642
0.00547643
0.00547643
0.00547643
0.00547643
0.00547643
0.00547643
0.00547643
0.00547643
0.00547642
0.00547641
0.00547641
0.0054764
0.00547639
0.00547637
0.00547636
0.00547635
0.00547633
0.00547631
0.00547629
0.00547627
0.00547624
0.00547621
0.00547618
0.00547615
0.00547612
0.00547608
0.00547604
0.00547599
0.00547595
0.00547589
0.00547584
0.00547577
0.00547567
0.00547548
0.00463069
0.00463099
0.00463124
0.00463146
0.00463168
0.00463188
0.00463206
0.00463224
0.0046324
0.00463256
0.0046327
0.00463283
0.00463295
0.00463307
0.00463317
0.00463326
0.00463335
0.00463342
0.00463349
0.00463356
0.00463361
0.00463366
0.0046337
0.00463374
0.00463377
0.0046338
0.00463382
0.00463383
0.00463384
0.00463385
0.00463385
0.00463384
0.00463383
0.00463382
0.0046338
0.00463377
0.00463374
0.0046337
0.00463366
0.00463361
0.00463356
0.00463349
0.00463342
0.00463335
0.00463326
0.00463317
0.00463307
0.00463295
0.00463283
0.0046327
0.00463256
0.0046324
0.00463224
0.00463206
0.00463188
0.00463168
0.00463146
0.00463124
0.00463099
0.00463069
0.00430262
0.00430298
0.00430331
0.00430361
0.0043039
0.00430418
0.00430444
0.00430468
0.00430491
0.00430512
0.00430532
0.0043055
0.00430567
0.00430583
0.00430597
0.0043061
0.00430622
0.00430633
0.00430642
0.00430651
0.00430659
0.00430665
0.00430671
0.00430676
0.00430681
0.00430684
0.00430687
0.00430689
0.0043069
0.00430691
0.00430691
0.0043069
0.00430689
0.00430687
0.00430684
0.00430681
0.00430676
0.00430671
0.00430665
0.00430659
0.00430651
0.00430642
0.00430633
0.00430622
0.0043061
0.00430597
0.00430583
0.00430567
0.0043055
0.00430532
0.00430512
0.00430491
0.00430468
0.00430444
0.00430418
0.0043039
0.00430361
0.00430331
0.00430298
0.00430262
0.00419062
0.00419101
0.00419137
0.00419172
0.00419205
0.00419237
0.00419266
0.00419294
0.0041932
0.00419345
0.00419367
0.00419388
0.00419407
0.00419425
0.00419441
0.00419456
0.0041947
0.00419482
0.00419493
0.00419503
0.00419511
0.00419519
0.00419526
0.00419532
0.00419537
0.00419541
0.00419544
0.00419546
0.00419548
0.00419549
0.00419549
0.00419548
0.00419546
0.00419544
0.00419541
0.00419537
0.00419532
0.00419526
0.00419519
0.00419511
0.00419503
0.00419493
0.00419482
0.0041947
0.00419456
0.00419441
0.00419425
0.00419407
0.00419388
0.00419367
0.00419345
0.0041932
0.00419294
0.00419266
0.00419237
0.00419205
0.00419172
0.00419137
0.00419101
0.00419062
0.00416773
0.00416814
0.00416852
0.00416889
0.00416924
0.00416958
0.00416989
0.00417019
0.00417047
0.00417072
0.00417096
0.00417119
0.00417139
0.00417158
0.00417175
0.00417191
0.00417205
0.00417218
0.0041723
0.00417241
0.0041725
0.00417258
0.00417265
0.00417271
0.00417277
0.00417281
0.00417284
0.00417287
0.00417289
0.00417289
0.00417289
0.00417289
0.00417287
0.00417284
0.00417281
0.00417277
0.00417271
0.00417265
0.00417258
0.0041725
0.00417241
0.0041723
0.00417218
0.00417205
0.00417191
0.00417175
0.00417158
0.00417139
0.00417119
0.00417096
0.00417072
0.00417047
0.00417019
0.00416989
0.00416958
0.00416924
0.00416889
0.00416852
0.00416814
0.00416773
0.00418151
0.00418193
0.00418233
0.00418271
0.00418307
0.00418342
0.00418374
0.00418405
0.00418434
0.0041846
0.00418485
0.00418508
0.00418529
0.00418549
0.00418567
0.00418583
0.00418598
0.00418611
0.00418623
0.00418634
0.00418644
0.00418652
0.0041866
0.00418666
0.00418672
0.00418676
0.0041868
0.00418682
0.00418684
0.00418685
0.00418685
0.00418684
0.00418682
0.0041868
0.00418676
0.00418672
0.00418666
0.0041866
0.00418652
0.00418644
0.00418634
0.00418623
0.00418611
0.00418598
0.00418583
0.00418567
0.00418549
0.00418529
0.00418508
0.00418485
0.0041846
0.00418434
0.00418405
0.00418374
0.00418342
0.00418307
0.00418271
0.00418233
0.00418193
0.00418151
0.00421087
0.0042113
0.0042117
0.00421209
0.00421246
0.00421282
0.00421315
0.00421346
0.00421376
0.00421403
0.00421428
0.00421452
0.00421473
0.00421493
0.00421512
0.00421528
0.00421543
0.00421557
0.0042157
0.00421581
0.0042159
0.00421599
0.00421607
0.00421613
0.00421619
0.00421623
0.00421627
0.0042163
0.00421631
0.00421632
0.00421632
0.00421631
0.0042163
0.00421627
0.00421623
0.00421619
0.00421613
0.00421607
0.00421599
0.0042159
0.00421581
0.0042157
0.00421557
0.00421543
0.00421528
0.00421512
0.00421493
0.00421473
0.00421452
0.00421428
0.00421403
0.00421376
0.00421346
0.00421315
0.00421282
0.00421246
0.00421209
0.0042117
0.0042113
0.00421087
0.00424759
0.00424803
0.00424844
0.00424884
0.00424922
0.00424958
0.00424991
0.00425023
0.00425053
0.00425081
0.00425107
0.00425131
0.00425153
0.00425173
0.00425191
0.00425208
0.00425224
0.00425238
0.0042525
0.00425262
0.00425272
0.00425281
0.00425288
0.00425295
0.00425301
0.00425305
0.00425309
0.00425312
0.00425313
0.00425314
0.00425314
0.00425313
0.00425312
0.00425309
0.00425305
0.00425301
0.00425295
0.00425288
0.00425281
0.00425272
0.00425262
0.0042525
0.00425238
0.00425224
0.00425208
0.00425191
0.00425173
0.00425153
0.00425131
0.00425107
0.00425081
0.00425053
0.00425023
0.00424991
0.00424958
0.00424922
0.00424884
0.00424844
0.00424803
0.00424759
0.00428865
0.00428909
0.00428951
0.00428991
0.0042903
0.00429066
0.00429101
0.00429133
0.00429163
0.00429192
0.00429218
0.00429242
0.00429265
0.00429285
0.00429304
0.00429321
0.00429337
0.00429351
0.00429364
0.00429376
0.00429386
0.00429395
0.00429403
0.00429409
0.00429415
0.0042942
0.00429424
0.00429426
0.00429428
0.00429429
0.00429429
0.00429428
0.00429426
0.00429424
0.0042942
0.00429415
0.00429409
0.00429403
0.00429395
0.00429386
0.00429376
0.00429364
0.00429351
0.00429337
0.00429321
0.00429304
0.00429285
0.00429265
0.00429242
0.00429218
0.00429192
0.00429163
0.00429133
0.00429101
0.00429066
0.0042903
0.00428991
0.00428951
0.00428909
0.00428865
0.00433304
0.00433349
0.00433392
0.00433432
0.00433472
0.00433509
0.00433544
0.00433577
0.00433607
0.00433636
0.00433663
0.00433687
0.0043371
0.00433731
0.0043375
0.00433768
0.00433784
0.00433798
0.00433811
0.00433823
0.00433834
0.00433843
0.00433851
0.00433858
0.00433863
0.00433868
0.00433872
0.00433875
0.00433877
0.00433877
0.00433877
0.00433877
0.00433875
0.00433872
0.00433868
0.00433863
0.00433858
0.00433851
0.00433843
0.00433834
0.00433823
0.00433811
0.00433798
0.00433784
0.00433768
0.0043375
0.00433731
0.0043371
0.00433687
0.00433663
0.00433636
0.00433607
0.00433577
0.00433544
0.00433509
0.00433472
0.00433432
0.00433392
0.00433349
0.00433304
0.00438056
0.00438102
0.00438145
0.00438187
0.00438227
0.00438264
0.004383
0.00438333
0.00438365
0.00438394
0.00438421
0.00438446
0.00438469
0.00438491
0.0043851
0.00438528
0.00438544
0.00438559
0.00438572
0.00438584
0.00438595
0.00438604
0.00438612
0.00438619
0.00438625
0.0043863
0.00438634
0.00438637
0.00438639
0.00438639
0.00438639
0.00438639
0.00438637
0.00438634
0.0043863
0.00438625
0.00438619
0.00438612
0.00438604
0.00438595
0.00438584
0.00438572
0.00438559
0.00438544
0.00438528
0.0043851
0.00438491
0.00438469
0.00438446
0.00438421
0.00438394
0.00438365
0.00438333
0.004383
0.00438264
0.00438227
0.00438187
0.00438145
0.00438102
0.00438056
0.00443132
0.00443179
0.00443223
0.00443265
0.00443306
0.00443344
0.0044338
0.00443415
0.00443446
0.00443476
0.00443504
0.00443529
0.00443553
0.00443575
0.00443594
0.00443613
0.00443629
0.00443644
0.00443658
0.0044367
0.00443681
0.0044369
0.00443698
0.00443705
0.00443711
0.00443716
0.0044372
0.00443723
0.00443725
0.00443726
0.00443726
0.00443725
0.00443723
0.0044372
0.00443716
0.00443711
0.00443705
0.00443698
0.0044369
0.00443681
0.0044367
0.00443658
0.00443644
0.00443629
0.00443613
0.00443594
0.00443575
0.00443553
0.00443529
0.00443504
0.00443476
0.00443446
0.00443415
0.0044338
0.00443344
0.00443306
0.00443265
0.00443223
0.00443179
0.00443132
0.00448556
0.00448604
0.00448649
0.00448692
0.00448734
0.00448773
0.0044881
0.00448845
0.00448877
0.00448907
0.00448936
0.00448962
0.00448986
0.00449008
0.00449028
0.00449047
0.00449063
0.00449079
0.00449093
0.00449105
0.00449116
0.00449126
0.00449134
0.00449141
0.00449147
0.00449152
0.00449156
0.00449159
0.00449161
0.00449162
0.00449162
0.00449161
0.00449159
0.00449156
0.00449152
0.00449147
0.00449141
0.00449134
0.00449126
0.00449116
0.00449105
0.00449093
0.00449079
0.00449063
0.00449047
0.00449028
0.00449008
0.00448986
0.00448962
0.00448936
0.00448907
0.00448877
0.00448845
0.0044881
0.00448773
0.00448734
0.00448692
0.00448649
0.00448604
0.00448556
0.00454362
0.00454411
0.00454457
0.00454501
0.00454543
0.00454583
0.00454621
0.00454656
0.00454689
0.0045472
0.00454749
0.00454776
0.004548
0.00454823
0.00454844
0.00454862
0.0045488
0.00454895
0.00454909
0.00454922
0.00454933
0.00454943
0.00454952
0.00454959
0.00454965
0.00454971
0.00454975
0.00454978
0.0045498
0.00454981
0.00454981
0.0045498
0.00454978
0.00454975
0.00454971
0.00454965
0.00454959
0.00454952
0.00454943
0.00454933
0.00454922
0.00454909
0.00454895
0.0045488
0.00454862
0.00454844
0.00454823
0.004548
0.00454776
0.00454749
0.0045472
0.00454689
0.00454656
0.00454621
0.00454583
0.00454543
0.00454501
0.00454457
0.00454411
0.00454362
0.00460587
0.00460637
0.00460684
0.00460729
0.00460772
0.00460813
0.00460852
0.00460888
0.00460922
0.00460953
0.00460983
0.0046101
0.00461035
0.00461058
0.00461079
0.00461099
0.00461116
0.00461132
0.00461147
0.0046116
0.00461171
0.00461181
0.0046119
0.00461197
0.00461204
0.00461209
0.00461213
0.00461216
0.00461218
0.0046122
0.0046122
0.00461218
0.00461216
0.00461213
0.00461209
0.00461204
0.00461197
0.0046119
0.00461181
0.00461171
0.0046116
0.00461147
0.00461132
0.00461116
0.00461099
0.00461079
0.00461058
0.00461035
0.0046101
0.00460983
0.00460953
0.00460922
0.00460888
0.00460852
0.00460813
0.00460772
0.00460729
0.00460684
0.00460637
0.00460587
0.00467276
0.00467328
0.00467376
0.00467422
0.00467466
0.00467508
0.00467547
0.00467584
0.00467619
0.00467651
0.00467681
0.00467709
0.00467735
0.00467759
0.0046778
0.004678
0.00467818
0.00467834
0.00467849
0.00467862
0.00467874
0.00467884
0.00467893
0.00467901
0.00467908
0.00467913
0.00467917
0.00467921
0.00467923
0.00467924
0.00467924
0.00467923
0.00467921
0.00467917
0.00467913
0.00467908
0.00467901
0.00467893
0.00467884
0.00467874
0.00467862
0.00467849
0.00467834
0.00467818
0.004678
0.0046778
0.00467759
0.00467735
0.00467709
0.00467681
0.00467651
0.00467619
0.00467584
0.00467547
0.00467508
0.00467466
0.00467422
0.00467376
0.00467328
0.00467276
0.00474481
0.00474534
0.00474583
0.0047463
0.00474676
0.00474719
0.00474759
0.00474797
0.00474833
0.00474866
0.00474897
0.00474925
0.00474951
0.00474976
0.00474998
0.00475018
0.00475037
0.00475053
0.00475069
0.00475082
0.00475094
0.00475105
0.00475114
0.00475122
0.00475129
0.00475134
0.00475139
0.00475142
0.00475144
0.00475145
0.00475145
0.00475144
0.00475142
0.00475139
0.00475134
0.00475129
0.00475122
0.00475114
0.00475105
0.00475094
0.00475082
0.00475069
0.00475053
0.00475037
0.00475018
0.00474998
0.00474976
0.00474951
0.00474925
0.00474897
0.00474866
0.00474833
0.00474797
0.00474759
0.00474719
0.00474676
0.0047463
0.00474583
0.00474534
0.00474481
0.00482261
0.00482316
0.00482366
0.00482415
0.00482461
0.00482505
0.00482547
0.00482586
0.00482622
0.00482657
0.00482688
0.00482717
0.00482745
0.00482769
0.00482792
0.00482813
0.00482832
0.00482849
0.00482865
0.00482879
0.00482891
0.00482902
0.00482912
0.0048292
0.00482927
0.00482932
0.00482937
0.0048294
0.00482942
0.00482944
0.00482944
0.00482942
0.0048294
0.00482937
0.00482932
0.00482927
0.0048292
0.00482912
0.00482902
0.00482891
0.00482879
0.00482865
0.00482849
0.00482832
0.00482813
0.00482792
0.00482769
0.00482745
0.00482717
0.00482688
0.00482657
0.00482622
0.00482586
0.00482547
0.00482505
0.00482461
0.00482415
0.00482366
0.00482316
0.00482261
0.00490687
0.00490743
0.00490795
0.00490845
0.00490893
0.00490938
0.00490981
0.00491021
0.00491059
0.00491094
0.00491126
0.00491156
0.00491184
0.0049121
0.00491233
0.00491255
0.00491274
0.00491292
0.00491308
0.00491322
0.00491335
0.00491346
0.00491356
0.00491365
0.00491372
0.00491378
0.00491382
0.00491386
0.00491388
0.00491389
0.00491389
0.00491388
0.00491386
0.00491382
0.00491378
0.00491372
0.00491365
0.00491356
0.00491346
0.00491335
0.00491322
0.00491308
0.00491292
0.00491274
0.00491255
0.00491233
0.0049121
0.00491184
0.00491156
0.00491126
0.00491094
0.00491059
0.00491021
0.00490981
0.00490938
0.00490893
0.00490845
0.00490795
0.00490743
0.00490687
0.00499839
0.00499897
0.00499951
0.00500002
0.00500052
0.00500098
0.00500143
0.00500184
0.00500223
0.00500259
0.00500293
0.00500324
0.00500352
0.00500379
0.00500403
0.00500425
0.00500445
0.00500464
0.0050048
0.00500495
0.00500508
0.0050052
0.0050053
0.00500539
0.00500546
0.00500552
0.00500557
0.0050056
0.00500563
0.00500564
0.00500564
0.00500563
0.0050056
0.00500557
0.00500552
0.00500546
0.00500539
0.0050053
0.0050052
0.00500508
0.00500495
0.0050048
0.00500464
0.00500445
0.00500425
0.00500403
0.00500379
0.00500352
0.00500324
0.00500293
0.00500259
0.00500223
0.00500184
0.00500143
0.00500098
0.00500052
0.00500002
0.00499951
0.00499897
0.00499839
0.00509816
0.00509875
0.00509931
0.00509984
0.00510035
0.00510084
0.00510129
0.00510172
0.00510212
0.0051025
0.00510285
0.00510317
0.00510346
0.00510374
0.00510399
0.00510422
0.00510443
0.00510462
0.00510479
0.00510494
0.00510508
0.0051052
0.0051053
0.00510539
0.00510547
0.00510553
0.00510558
0.00510561
0.00510564
0.00510565
0.00510565
0.00510564
0.00510561
0.00510558
0.00510553
0.00510547
0.00510539
0.0051053
0.0051052
0.00510508
0.00510494
0.00510479
0.00510462
0.00510443
0.00510422
0.00510399
0.00510374
0.00510346
0.00510317
0.00510285
0.0051025
0.00510212
0.00510172
0.00510129
0.00510084
0.00510035
0.00509984
0.00509931
0.00509875
0.00509816
0.00520731
0.00520793
0.00520851
0.00520907
0.00520959
0.0052101
0.00521057
0.00521101
0.00521143
0.00521182
0.00521218
0.00521251
0.00521282
0.0052131
0.00521336
0.0052136
0.00521382
0.00521401
0.00521419
0.00521435
0.00521449
0.00521462
0.00521472
0.00521482
0.0052149
0.00521496
0.00521501
0.00521505
0.00521508
0.00521509
0.00521509
0.00521508
0.00521505
0.00521501
0.00521496
0.0052149
0.00521482
0.00521472
0.00521462
0.00521449
0.00521435
0.00521419
0.00521401
0.00521382
0.0052136
0.00521336
0.0052131
0.00521282
0.00521251
0.00521218
0.00521182
0.00521143
0.00521101
0.00521057
0.0052101
0.00520959
0.00520907
0.00520851
0.00520793
0.00520731
0.00532725
0.0053279
0.0053285
0.00532908
0.00532963
0.00533015
0.00533064
0.0053311
0.00533154
0.00533194
0.00533232
0.00533266
0.00533298
0.00533328
0.00533355
0.0053338
0.00533402
0.00533423
0.00533441
0.00533458
0.00533472
0.00533485
0.00533496
0.00533506
0.00533514
0.00533521
0.00533526
0.0053353
0.00533533
0.00533534
0.00533534
0.00533533
0.0053353
0.00533526
0.00533521
0.00533514
0.00533506
0.00533496
0.00533485
0.00533472
0.00533458
0.00533441
0.00533423
0.00533402
0.0053338
0.00533355
0.00533328
0.00533298
0.00533266
0.00533232
0.00533194
0.00533154
0.0053311
0.00533064
0.00533015
0.00532963
0.00532908
0.0053285
0.0053279
0.00532725
0.00545966
0.00546034
0.00546096
0.00546156
0.00546214
0.00546268
0.0054632
0.00546368
0.00546413
0.00546455
0.00546495
0.00546531
0.00546564
0.00546595
0.00546624
0.00546649
0.00546673
0.00546694
0.00546713
0.00546731
0.00546746
0.0054676
0.00546771
0.00546782
0.0054679
0.00546797
0.00546803
0.00546807
0.0054681
0.00546811
0.00546811
0.0054681
0.00546807
0.00546803
0.00546797
0.0054679
0.00546782
0.00546771
0.0054676
0.00546746
0.00546731
0.00546713
0.00546694
0.00546673
0.00546649
0.00546624
0.00546595
0.00546564
0.00546531
0.00546495
0.00546455
0.00546413
0.00546368
0.0054632
0.00546268
0.00546214
0.00546156
0.00546096
0.00546034
0.00545966
0.0056066
0.00560731
0.00560797
0.0056086
0.0056092
0.00560977
0.00561031
0.00561082
0.00561129
0.00561173
0.00561215
0.00561253
0.00561288
0.0056132
0.0056135
0.00561377
0.00561402
0.00561424
0.00561444
0.00561462
0.00561478
0.00561492
0.00561505
0.00561515
0.00561524
0.00561532
0.00561538
0.00561542
0.00561545
0.00561546
0.00561546
0.00561545
0.00561542
0.00561538
0.00561532
0.00561524
0.00561515
0.00561505
0.00561492
0.00561478
0.00561462
0.00561444
0.00561424
0.00561402
0.00561377
0.0056135
0.0056132
0.00561288
0.00561253
0.00561215
0.00561173
0.00561129
0.00561082
0.00561031
0.00560977
0.0056092
0.0056086
0.00560797
0.00560731
0.0056066
0.00577064
0.00577139
0.00577209
0.00577275
0.00577339
0.00577399
0.00577456
0.00577509
0.00577559
0.00577605
0.00577649
0.00577689
0.00577726
0.0057776
0.00577791
0.0057782
0.00577846
0.00577869
0.00577891
0.0057791
0.00577927
0.00577942
0.00577955
0.00577966
0.00577975
0.00577983
0.00577989
0.00577994
0.00577997
0.00577998
0.00577998
0.00577997
0.00577994
0.00577989
0.00577983
0.00577975
0.00577966
0.00577955
0.00577942
0.00577927
0.0057791
0.00577891
0.00577869
0.00577846
0.0057782
0.00577791
0.0057776
0.00577726
0.00577689
0.00577649
0.00577605
0.00577559
0.00577509
0.00577456
0.00577399
0.00577339
0.00577275
0.00577209
0.00577139
0.00577064
0.00595502
0.00595582
0.00595655
0.00595725
0.00595793
0.00595856
0.00595917
0.00595973
0.00596026
0.00596075
0.00596121
0.00596164
0.00596203
0.00596239
0.00596272
0.00596302
0.0059633
0.00596355
0.00596377
0.00596398
0.00596416
0.00596432
0.00596445
0.00596457
0.00596467
0.00596476
0.00596482
0.00596487
0.0059649
0.00596492
0.00596492
0.0059649
0.00596487
0.00596482
0.00596476
0.00596467
0.00596457
0.00596445
0.00596432
0.00596416
0.00596398
0.00596377
0.00596355
0.0059633
0.00596302
0.00596272
0.00596239
0.00596203
0.00596164
0.00596121
0.00596075
0.00596026
0.00595973
0.00595917
0.00595856
0.00595793
0.00595725
0.00595655
0.00595582
0.00595502
0.00616386
0.0061647
0.00616549
0.00616624
0.00616695
0.00616763
0.00616828
0.00616888
0.00616944
0.00616997
0.00617046
0.00617091
0.00617133
0.00617171
0.00617207
0.00617239
0.00617268
0.00617295
0.00617319
0.00617341
0.0061736
0.00617377
0.00617391
0.00617404
0.00617415
0.00617424
0.00617431
0.00617436
0.00617439
0.00617441
0.00617441
0.00617439
0.00617436
0.00617431
0.00617424
0.00617415
0.00617404
0.00617391
0.00617377
0.0061736
0.00617341
0.00617319
0.00617295
0.00617268
0.00617239
0.00617207
0.00617171
0.00617133
0.00617091
0.00617046
0.00616997
0.00616944
0.00616888
0.00616828
0.00616763
0.00616695
0.00616624
0.00616549
0.0061647
0.00616386
0.00640251
0.00640341
0.00640426
0.00640506
0.00640583
0.00640656
0.00640725
0.0064079
0.00640851
0.00640907
0.0064096
0.00641008
0.00641053
0.00641095
0.00641133
0.00641167
0.00641199
0.00641228
0.00641253
0.00641277
0.00641297
0.00641315
0.00641331
0.00641345
0.00641356
0.00641366
0.00641373
0.00641379
0.00641383
0.00641385
0.00641385
0.00641383
0.00641379
0.00641373
0.00641366
0.00641356
0.00641345
0.00641331
0.00641315
0.00641297
0.00641277
0.00641253
0.00641228
0.00641199
0.00641167
0.00641133
0.00641095
0.00641053
0.00641008
0.0064096
0.00640907
0.00640851
0.0064079
0.00640725
0.00640656
0.00640583
0.00640506
0.00640426
0.00640341
0.00640251
0.00667805
0.00667904
0.00667995
0.00668082
0.00668166
0.00668245
0.0066832
0.0066839
0.00668456
0.00668517
0.00668574
0.00668627
0.00668676
0.00668721
0.00668762
0.00668799
0.00668834
0.00668865
0.00668893
0.00668918
0.0066894
0.0066896
0.00668977
0.00668992
0.00669005
0.00669015
0.00669023
0.00669029
0.00669033
0.00669035
0.00669035
0.00669033
0.00669029
0.00669023
0.00669015
0.00669005
0.00668992
0.00668977
0.0066896
0.0066894
0.00668918
0.00668893
0.00668865
0.00668834
0.00668799
0.00668762
0.00668721
0.00668676
0.00668627
0.00668574
0.00668517
0.00668456
0.0066839
0.0066832
0.00668245
0.00668166
0.00668082
0.00667995
0.00667904
0.00667805
0.00700008
0.00700116
0.00700216
0.00700311
0.00700403
0.0070049
0.00700572
0.00700649
0.00700721
0.00700788
0.00700851
0.00700908
0.00700962
0.00701011
0.00701056
0.00701098
0.00701135
0.00701169
0.007012
0.00701228
0.00701252
0.00701274
0.00701293
0.00701309
0.00701323
0.00701334
0.00701343
0.0070135
0.00701354
0.00701356
0.00701356
0.00701354
0.0070135
0.00701343
0.00701334
0.00701323
0.00701309
0.00701293
0.00701274
0.00701252
0.00701228
0.007012
0.00701169
0.00701135
0.00701098
0.00701056
0.00701011
0.00700962
0.00700908
0.00700851
0.00700788
0.00700721
0.00700649
0.00700572
0.0070049
0.00700403
0.00700311
0.00700216
0.00700116
0.00700008
0.00738183
0.00738302
0.00738413
0.00738519
0.00738621
0.00738718
0.00738809
0.00738894
0.00738974
0.00739049
0.00739118
0.00739183
0.00739242
0.00739297
0.00739347
0.00739393
0.00739435
0.00739473
0.00739507
0.00739538
0.00739565
0.00739589
0.0073961
0.00739628
0.00739643
0.00739656
0.00739666
0.00739673
0.00739678
0.00739681
0.00739681
0.00739678
0.00739673
0.00739666
0.00739656
0.00739643
0.00739628
0.0073961
0.00739589
0.00739565
0.00739538
0.00739507
0.00739473
0.00739435
0.00739393
0.00739347
0.00739297
0.00739242
0.00739183
0.00739118
0.00739049
0.00738974
0.00738894
0.00738809
0.00738718
0.00738621
0.00738519
0.00738413
0.00738302
0.00738183
0.00784203
0.00784337
0.00784462
0.00784582
0.00784697
0.00784806
0.00784909
0.00785005
0.00785096
0.0078518
0.00785259
0.00785332
0.00785399
0.00785461
0.00785517
0.00785569
0.00785616
0.00785659
0.00785698
0.00785733
0.00785763
0.00785791
0.00785814
0.00785835
0.00785852
0.00785866
0.00785878
0.00785886
0.00785892
0.00785894
0.00785894
0.00785892
0.00785886
0.00785878
0.00785866
0.00785852
0.00785835
0.00785814
0.00785791
0.00785763
0.00785733
0.00785698
0.00785659
0.00785616
0.00785569
0.00785517
0.00785461
0.00785399
0.00785332
0.00785259
0.0078518
0.00785096
0.00785005
0.00784909
0.00784806
0.00784697
0.00784582
0.00784462
0.00784337
0.00784203
0.0084077
0.00840924
0.00841067
0.00841205
0.00841338
0.00841463
0.00841582
0.00841693
0.00841797
0.00841894
0.00841985
0.00842069
0.00842146
0.00842217
0.00842283
0.00842343
0.00842397
0.00842447
0.00842491
0.00842531
0.00842567
0.00842598
0.00842625
0.00842649
0.00842669
0.00842685
0.00842698
0.00842708
0.00842714
0.00842718
0.00842718
0.00842714
0.00842708
0.00842698
0.00842685
0.00842669
0.00842649
0.00842625
0.00842598
0.00842567
0.00842531
0.00842491
0.00842447
0.00842397
0.00842343
0.00842283
0.00842217
0.00842146
0.00842069
0.00841985
0.00841894
0.00841797
0.00841693
0.00841582
0.00841463
0.00841338
0.00841205
0.00841067
0.00840924
0.0084077
0.00911818
0.00911997
0.00912166
0.00912329
0.00912484
0.00912632
0.00912772
0.00912903
0.00913026
0.00913141
0.00913247
0.00913346
0.00913438
0.00913522
0.00913599
0.00913669
0.00913734
0.00913792
0.00913845
0.00913892
0.00913934
0.00913971
0.00914003
0.00914031
0.00914054
0.00914074
0.00914089
0.009141
0.00914108
0.00914112
0.00914112
0.00914108
0.009141
0.00914089
0.00914074
0.00914054
0.00914031
0.00914003
0.00913971
0.00913934
0.00913892
0.00913845
0.00913792
0.00913734
0.00913669
0.00913599
0.00913522
0.00913438
0.00913346
0.00913247
0.00913141
0.00913026
0.00912903
0.00912772
0.00912632
0.00912484
0.00912329
0.00912166
0.00911997
0.00911818
0.0100302
0.0100324
0.0100344
0.0100364
0.0100382
0.01004
0.0100417
0.0100433
0.0100448
0.0100462
0.0100475
0.0100486
0.0100498
0.0100508
0.0100517
0.0100526
0.0100533
0.010054
0.0100547
0.0100552
0.0100558
0.0100562
0.0100566
0.0100569
0.0100572
0.0100574
0.0100576
0.0100578
0.0100579
0.0100579
0.0100579
0.0100579
0.0100578
0.0100576
0.0100574
0.0100572
0.0100569
0.0100566
0.0100562
0.0100558
0.0100552
0.0100547
0.010054
0.0100533
0.0100526
0.0100517
0.0100508
0.0100498
0.0100486
0.0100475
0.0100462
0.0100448
0.0100433
0.0100417
0.01004
0.0100382
0.0100364
0.0100344
0.0100324
0.0100302
0.0112226
0.0112253
0.0112278
0.0112302
0.0112325
0.0112347
0.0112368
0.0112388
0.0112406
0.0112423
0.0112439
0.0112454
0.0112468
0.011248
0.0112492
0.0112502
0.0112512
0.0112521
0.0112529
0.0112536
0.0112542
0.0112547
0.0112552
0.0112556
0.011256
0.0112563
0.0112565
0.0112567
0.0112568
0.0112569
0.0112569
0.0112568
0.0112567
0.0112565
0.0112563
0.011256
0.0112556
0.0112552
0.0112547
0.0112542
0.0112536
0.0112529
0.0112521
0.0112512
0.0112502
0.0112492
0.011248
0.0112468
0.0112454
0.0112439
0.0112423
0.0112406
0.0112388
0.0112368
0.0112347
0.0112325
0.0112302
0.0112278
0.0112253
0.0112226
0.0127967
0.0128
0.0128031
0.0128062
0.0128091
0.0128119
0.0128145
0.012817
0.0128193
0.0128214
0.0128234
0.0128253
0.012827
0.0128286
0.01283
0.0128314
0.0128326
0.0128337
0.0128347
0.0128355
0.0128363
0.012837
0.0128376
0.0128382
0.0128386
0.012839
0.0128393
0.0128395
0.0128396
0.0128397
0.0128397
0.0128396
0.0128395
0.0128393
0.012839
0.0128386
0.0128382
0.0128376
0.012837
0.0128363
0.0128355
0.0128347
0.0128337
0.0128326
0.0128314
0.01283
0.0128286
0.012827
0.0128253
0.0128234
0.0128214
0.0128193
0.012817
0.0128145
0.0128119
0.0128091
0.0128062
0.0128031
0.0128
0.0127967
0.0148664
0.0148706
0.0148745
0.0148784
0.0148821
0.0148856
0.0148889
0.014892
0.0148949
0.0148976
0.0149001
0.0149025
0.0149046
0.0149066
0.0149085
0.0149101
0.0149117
0.014913
0.0149143
0.0149154
0.0149164
0.0149173
0.0149181
0.0149187
0.0149193
0.0149197
0.0149201
0.0149204
0.0149205
0.0149206
0.0149206
0.0149205
0.0149204
0.0149201
0.0149197
0.0149193
0.0149187
0.0149181
0.0149173
0.0149164
0.0149154
0.0149143
0.014913
0.0149117
0.0149101
0.0149085
0.0149066
0.0149046
0.0149025
0.0149001
0.0148976
0.0148949
0.014892
0.0148889
0.0148856
0.0148821
0.0148784
0.0148745
0.0148706
0.0148664
0.0175351
0.0175403
0.0175452
0.01755
0.0175546
0.017559
0.0175631
0.017567
0.0175706
0.017574
0.0175771
0.0175801
0.0175828
0.0175852
0.0175875
0.0175896
0.0175915
0.0175932
0.0175948
0.0175962
0.0175974
0.0175985
0.0175995
0.0176003
0.017601
0.0176016
0.017602
0.0176024
0.0176026
0.0176027
0.0176027
0.0176026
0.0176024
0.017602
0.0176016
0.017601
0.0176003