/*--------------------------------*- C++ -*----------------------------------*\
| =========                 |                                                 |
| \\      /  F ield         | foam-extend: Open Source CFD                    |
|  \\    /   O peration     | Version:     4.0                                |
|   \\  /    A nd           | Web:         http://www.foam-extend.org         |
|    \\/     M anipulation  |                                                 |
\*---------------------------------------------------------------------------*/
FoamFile
{
    version     2.0;
    format      ascii;
    class       volScalarField;
    location    "1440";
    object      psiE;
}
// * * * * * * * * * * * * * * * * * * * * * * * * * * * * * * * * * * * * * //

dimensions      [0 0 0 0 0 0 0];

internalField   nonuniform List<scalar> 
6960
(
0.327391
0.327393
0.327395
0.327398
0.3274
0.327403
0.327405
0.327408
0.32741
0.327412
0.327414
0.327416
0.327418
0.327419
0.327421
0.327422
0.327423
0.327424
0.327425
0.327426
0.327427
0.327428
0.327429
0.327429
0.32743
0.32743
0.32743
0.327431
0.327431
0.327431
0.327431
0.327431
0.327431
0.32743
0.32743
0.32743
0.327429
0.327429
0.327428
0.327427
0.327426
0.327425
0.327424
0.327423
0.327422
0.327421
0.327419
0.327418
0.327416
0.327414
0.327412
0.32741
0.327408
0.327405
0.327403
0.3274
0.327398
0.327395
0.327393
0.327391
0.805386
0.805393
0.805404
0.805414
0.805425
0.805435
0.805445
0.805455
0.805464
0.805472
0.80548
0.805487
0.805494
0.8055
0.805506
0.805511
0.805516
0.805521
0.805525
0.805528
0.805532
0.805534
0.805537
0.805539
0.805541
0.805542
0.805544
0.805545
0.805545
0.805545
0.805545
0.805545
0.805545
0.805544
0.805542
0.805541
0.805539
0.805537
0.805534
0.805532
0.805528
0.805525
0.805521
0.805516
0.805511
0.805506
0.8055
0.805494
0.805487
0.80548
0.805472
0.805464
0.805455
0.805445
0.805435
0.805425
0.805414
0.805404
0.805393
0.805386
1.22739
1.22741
1.22743
1.22745
1.22747
1.22749
1.22751
1.22753
1.22754
1.22756
1.22758
1.22759
1.2276
1.22762
1.22763
1.22764
1.22765
1.22766
1.22767
1.22767
1.22768
1.22768
1.22769
1.22769
1.2277
1.2277
1.2277
1.2277
1.22771
1.22771
1.22771
1.22771
1.2277
1.2277
1.2277
1.2277
1.22769
1.22769
1.22768
1.22768
1.22767
1.22767
1.22766
1.22765
1.22764
1.22763
1.22762
1.2276
1.22759
1.22758
1.22756
1.22754
1.22753
1.22751
1.22749
1.22747
1.22745
1.22743
1.22741
1.22739
1.6307
1.63073
1.63076
1.63079
1.63083
1.63086
1.63089
1.63092
1.63095
1.63097
1.631
1.63102
1.63104
1.63106
1.63108
1.6311
1.63111
1.63113
1.63114
1.63115
1.63116
1.63117
1.63118
1.63118
1.63119
1.63119
1.6312
1.6312
1.6312
1.6312
1.6312
1.6312
1.6312
1.6312
1.63119
1.63119
1.63118
1.63118
1.63117
1.63116
1.63115
1.63114
1.63113
1.63111
1.6311
1.63108
1.63106
1.63104
1.63102
1.631
1.63097
1.63095
1.63092
1.63089
1.63086
1.63083
1.63079
1.63076
1.63073
1.6307
2.03069
2.03072
2.03077
2.03081
2.03086
2.03091
2.03095
2.03099
2.03103
2.03107
2.0311
2.03113
2.03116
2.03119
2.03122
2.03124
2.03126
2.03128
2.0313
2.03131
2.03133
2.03134
2.03135
2.03136
2.03137
2.03137
2.03138
2.03138
2.03139
2.03139
2.03139
2.03139
2.03138
2.03138
2.03137
2.03137
2.03136
2.03135
2.03134
2.03133
2.03131
2.0313
2.03128
2.03126
2.03124
2.03122
2.03119
2.03116
2.03113
2.0311
2.03107
2.03103
2.03099
2.03095
2.03091
2.03086
2.03081
2.03077
2.03072
2.03069
2.43418
2.43423
2.43429
2.43435
2.43441
2.43447
2.43453
2.43458
2.43463
2.43468
2.43473
2.43477
2.43481
2.43484
2.43488
2.43491
2.43494
2.43496
2.43498
2.435
2.43502
2.43504
2.43505
2.43506
2.43507
2.43508
2.43509
2.43509
2.4351
2.4351
2.4351
2.4351
2.43509
2.43509
2.43508
2.43507
2.43506
2.43505
2.43504
2.43502
2.435
2.43498
2.43496
2.43494
2.43491
2.43488
2.43484
2.43481
2.43477
2.43473
2.43468
2.43463
2.43458
2.43453
2.43447
2.43441
2.43435
2.43429
2.43423
2.43418
2.84433
2.84438
2.84446
2.84454
2.84461
2.84469
2.84476
2.84483
2.84489
2.84495
2.84501
2.84506
2.84511
2.84515
2.84519
2.84523
2.84527
2.8453
2.84533
2.84535
2.84537
2.84539
2.84541
2.84543
2.84544
2.84545
2.84546
2.84547
2.84547
2.84547
2.84547
2.84547
2.84547
2.84546
2.84545
2.84544
2.84543
2.84541
2.84539
2.84537
2.84535
2.84533
2.8453
2.84527
2.84523
2.84519
2.84515
2.84511
2.84506
2.84501
2.84495
2.84489
2.84483
2.84476
2.84469
2.84461
2.84454
2.84446
2.84438
2.84433
3.26258
3.26265
3.26273
3.26283
3.26292
3.26301
3.2631
3.26318
3.26326
3.26333
3.2634
3.26346
3.26352
3.26357
3.26362
3.26367
3.26371
3.26374
3.26378
3.26381
3.26384
3.26386
3.26388
3.2639
3.26392
3.26393
3.26394
3.26395
3.26395
3.26395
3.26395
3.26395
3.26395
3.26394
3.26393
3.26392
3.2639
3.26388
3.26386
3.26384
3.26381
3.26378
3.26374
3.26371
3.26367
3.26362
3.26357
3.26352
3.26346
3.2634
3.26333
3.26326
3.26318
3.2631
3.26301
3.26292
3.26283
3.26273
3.26265
3.26258
3.68961
3.68969
3.68979
3.6899
3.69001
3.69012
3.69022
3.69031
3.6904
3.69049
3.69057
3.69064
3.69071
3.69077
3.69083
3.69088
3.69093
3.69097
3.69101
3.69105
3.69108
3.69111
3.69113
3.69115
3.69117
3.69119
3.6912
3.69121
3.69121
3.69122
3.69122
3.69121
3.69121
3.6912
3.69119
3.69117
3.69115
3.69113
3.69111
3.69108
3.69105
3.69101
3.69097
3.69093
3.69088
3.69083
3.69077
3.69071
3.69064
3.69057
3.69049
3.6904
3.69031
3.69022
3.69012
3.69001
3.6899
3.68979
3.68969
3.68961
4.12573
4.12582
4.12594
4.12607
4.12619
4.12631
4.12643
4.12654
4.12664
4.12674
4.12683
4.12692
4.12699
4.12707
4.12713
4.12719
4.12725
4.1273
4.12735
4.12739
4.12742
4.12746
4.12748
4.12751
4.12753
4.12755
4.12756
4.12757
4.12758
4.12758
4.12758
4.12758
4.12757
4.12756
4.12755
4.12753
4.12751
4.12748
4.12746
4.12742
4.12739
4.12735
4.1273
4.12725
4.12719
4.12713
4.12707
4.12699
4.12692
4.12683
4.12674
4.12664
4.12654
4.12643
4.12631
4.12619
4.12607
4.12594
4.12582
4.12573
4.5711
4.5712
4.57134
4.57148
4.57162
4.57176
4.57189
4.57202
4.57213
4.57224
4.57234
4.57244
4.57253
4.57261
4.57268
4.57275
4.57282
4.57287
4.57293
4.57297
4.57301
4.57305
4.57308
4.57311
4.57313
4.57315
4.57317
4.57318
4.57319
4.57319
4.57319
4.57319
4.57318
4.57317
4.57315
4.57313
4.57311
4.57308
4.57305
4.57301
4.57297
4.57293
4.57287
4.57282
4.57275
4.57268
4.57261
4.57253
4.57244
4.57234
4.57224
4.57213
4.57202
4.57189
4.57176
4.57162
4.57148
4.57134
4.5712
4.5711
5.02578
5.02589
5.02604
5.0262
5.02636
5.02652
5.02666
5.0268
5.02693
5.02705
5.02717
5.02727
5.02737
5.02746
5.02755
5.02763
5.0277
5.02776
5.02782
5.02787
5.02792
5.02796
5.02799
5.02802
5.02805
5.02807
5.02809
5.0281
5.02811
5.02811
5.02811
5.02811
5.0281
5.02809
5.02807
5.02805
5.02802
5.02799
5.02796
5.02792
5.02787
5.02782
5.02776
5.0277
5.02763
5.02755
5.02746
5.02737
5.02727
5.02717
5.02705
5.02693
5.0268
5.02666
5.02652
5.02636
5.0262
5.02604
5.02589
5.02578
5.48979
5.48991
5.49008
5.49025
5.49043
5.4906
5.49076
5.49092
5.49106
5.4912
5.49132
5.49144
5.49155
5.49165
5.49174
5.49183
5.4919
5.49198
5.49204
5.4921
5.49215
5.49219
5.49223
5.49227
5.4923
5.49232
5.49234
5.49235
5.49236
5.49237
5.49237
5.49236
5.49235
5.49234
5.49232
5.4923
5.49227
5.49223
5.49219
5.49215
5.4921
5.49204
5.49198
5.4919
5.49183
5.49174
5.49165
5.49155
5.49144
5.49132
5.4912
5.49106
5.49092
5.49076
5.4906
5.49043
5.49025
5.49008
5.48991
5.48979
5.96311
5.96324
5.96342
5.96362
5.96381
5.964
5.96417
5.96434
5.9645
5.96465
5.96479
5.96492
5.96504
5.96515
5.96525
5.96534
5.96543
5.9655
5.96557
5.96564
5.96569
5.96574
5.96579
5.96582
5.96586
5.96588
5.9659
5.96592
5.96593
5.96593
5.96593
5.96593
5.96592
5.9659
5.96588
5.96586
5.96582
5.96579
5.96574
5.96569
5.96564
5.96557
5.9655
5.96543
5.96534
5.96525
5.96515
5.96504
5.96492
5.96479
5.96465
5.9645
5.96434
5.96417
5.964
5.96381
5.96362
5.96342
5.96324
5.96311
6.44569
6.44584
6.44604
6.44625
6.44646
6.44666
6.44686
6.44704
6.44721
6.44737
6.44752
6.44766
6.44779
6.44791
6.44802
6.44813
6.44822
6.4483
6.44838
6.44845
6.44851
6.44856
6.44861
6.44865
6.44868
6.44871
6.44874
6.44875
6.44876
6.44877
6.44877
6.44876
6.44875
6.44874
6.44871
6.44868
6.44865
6.44861
6.44856
6.44851
6.44845
6.44838
6.4483
6.44822
6.44813
6.44802
6.44791
6.44779
6.44766
6.44752
6.44737
6.44721
6.44704
6.44686
6.44666
6.44646
6.44625
6.44604
6.44584
6.44569
6.93747
6.93763
6.93785
6.93808
6.9383
6.93852
6.93873
6.93893
6.93912
6.93929
6.93945
6.93961
6.93975
6.93988
6.94
6.94011
6.94021
6.9403
6.94038
6.94045
6.94052
6.94058
6.94063
6.94067
6.94071
6.94074
6.94076
6.94078
6.94079
6.9408
6.9408
6.94079
6.94078
6.94076
6.94074
6.94071
6.94067
6.94063
6.94058
6.94052
6.94045
6.94038
6.9403
6.94021
6.94011
6.94
6.93988
6.93975
6.93961
6.93945
6.93929
6.93912
6.93893
6.93873
6.93852
6.9383
6.93808
6.93785
6.93763
6.93747
7.43835
7.43852
7.43875
7.43899
7.43924
7.43947
7.4397
7.43991
7.44011
7.4403
7.44047
7.44064
7.44079
7.44093
7.44106
7.44117
7.44128
7.44138
7.44147
7.44155
7.44162
7.44168
7.44174
7.44178
7.44182
7.44186
7.44188
7.4419
7.44192
7.44192
7.44192
7.44192
7.4419
7.44188
7.44186
7.44182
7.44178
7.44174
7.44168
7.44162
7.44155
7.44147
7.44138
7.44128
7.44117
7.44106
7.44093
7.44079
7.44064
7.44047
7.4403
7.44011
7.43991
7.4397
7.43947
7.43924
7.43899
7.43875
7.43852
7.43835
7.94817
7.94835
7.9486
7.94886
7.94912
7.94937
7.94961
7.94984
7.95006
7.95026
7.95044
7.95062
7.95078
7.95093
7.95107
7.95119
7.95131
7.95141
7.95151
7.9516
7.95167
7.95174
7.9518
7.95185
7.95189
7.95193
7.95195
7.95197
7.95199
7.95199
7.95199
7.95199
7.95197
7.95195
7.95193
7.95189
7.95185
7.9518
7.95174
7.95167
7.9516
7.95151
7.95141
7.95131
7.95119
7.95107
7.95093
7.95078
7.95062
7.95044
7.95026
7.95006
7.94984
7.94961
7.94937
7.94912
7.94886
7.9486
7.94835
7.94817
8.46677
8.46696
8.46722
8.4675
8.46778
8.46805
8.4683
8.46855
8.46878
8.46899
8.46919
8.46938
8.46955
8.46971
8.46985
8.46999
8.47011
8.47022
8.47032
8.47042
8.4705
8.47057
8.47063
8.47068
8.47073
8.47077
8.4708
8.47082
8.47083
8.47084
8.47084
8.47083
8.47082
8.4708
8.47077
8.47073
8.47068
8.47063
8.47057
8.4705
8.47042
8.47032
8.47022
8.47011
8.46999
8.46985
8.46971
8.46955
8.46938
8.46919
8.46899
8.46878
8.46855
8.4683
8.46805
8.46778
8.4675
8.46722
8.46696
8.46677
8.99392
8.99412
8.9944
8.9947
8.99499
8.99528
8.99555
8.99581
8.99605
8.99628
8.99649
8.99669
8.99687
8.99704
8.99719
8.99734
8.99747
8.99759
8.99769
8.99779
8.99787
8.99795
8.99802
8.99807
8.99812
8.99816
8.99819
8.99822
8.99823
8.99824
8.99824
8.99823
8.99822
8.99819
8.99816
8.99812
8.99807
8.99802
8.99795
8.99787
8.99779
8.99769
8.99759
8.99747
8.99734
8.99719
8.99704
8.99687
8.99669
8.99649
8.99628
8.99605
8.99581
8.99555
8.99528
8.99499
8.9947
8.9944
8.99412
8.99392
9.52936
9.52958
9.52987
9.53018
9.53049
9.53079
9.53108
9.53135
9.53161
9.53185
9.53207
9.53228
9.53248
9.53265
9.53282
9.53297
9.53311
9.53323
9.53335
9.53345
9.53354
9.53362
9.53369
9.53375
9.5338
9.53384
9.53388
9.5339
9.53392
9.53393
9.53393
9.53392
9.5339
9.53388
9.53384
9.5338
9.53375
9.53369
9.53362
9.53354
9.53345
9.53335
9.53323
9.53311
9.53297
9.53282
9.53265
9.53248
9.53228
9.53207
9.53185
9.53161
9.53135
9.53108
9.53079
9.53049
9.53018
9.52987
9.52958
9.52936
10.0728
10.073
10.0733
10.0736
10.074
10.0743
10.0746
10.0749
10.0751
10.0754
10.0756
10.0758
10.076
10.0762
10.0764
10.0766
10.0767
10.0768
10.077
10.0771
10.0772
10.0773
10.0773
10.0774
10.0774
10.0775
10.0775
10.0776
10.0776
10.0776
10.0776
10.0776
10.0776
10.0775
10.0775
10.0774
10.0774
10.0773
10.0773
10.0772
10.0771
10.077
10.0768
10.0767
10.0766
10.0764
10.0762
10.076
10.0758
10.0756
10.0754
10.0751
10.0749
10.0746
10.0743
10.074
10.0736
10.0733
10.073
10.0728
10.6238
10.624
10.6243
10.6247
10.625
10.6253
10.6257
10.626
10.6263
10.6265
10.6268
10.627
10.6272
10.6274
10.6276
10.6278
10.6279
10.628
10.6282
10.6283
10.6284
10.6285
10.6286
10.6286
10.6287
10.6287
10.6288
10.6288
10.6288
10.6288
10.6288
10.6288
10.6288
10.6288
10.6287
10.6287
10.6286
10.6286
10.6285
10.6284
10.6283
10.6282
10.628
10.6279
10.6278
10.6276
10.6274
10.6272
10.627
10.6268
10.6265
10.6263
10.626
10.6257
10.6253
10.625
10.6247
10.6243
10.624
10.6238
11.1819
11.1822
11.1825
11.1829
11.1832
11.1836
11.1839
11.1842
11.1845
11.1848
11.185
11.1853
11.1855
11.1857
11.1859
11.1861
11.1862
11.1864
11.1865
11.1866
11.1867
11.1868
11.1869
11.187
11.187
11.1871
11.1871
11.1872
11.1872
11.1872
11.1872
11.1872
11.1872
11.1871
11.1871
11.187
11.187
11.1869
11.1868
11.1867
11.1866
11.1865
11.1864
11.1862
11.1861
11.1859
11.1857
11.1855
11.1853
11.185
11.1848
11.1845
11.1842
11.1839
11.1836
11.1832
11.1829
11.1825
11.1822
11.1819
11.7467
11.7469
11.7473
11.7477
11.748
11.7484
11.7487
11.7491
11.7494
11.7497
11.7499
11.7502
11.7504
11.7506
11.7508
11.751
11.7512
11.7513
11.7515
11.7516
11.7517
11.7518
11.7519
11.752
11.752
11.7521
11.7521
11.7521
11.7522
11.7522
11.7522
11.7522
11.7521
11.7521
11.7521
11.752
11.752
11.7519
11.7518
11.7517
11.7516
11.7515
11.7513
11.7512
11.751
11.7508
11.7506
11.7504
11.7502
11.7499
11.7497
11.7494
11.7491
11.7487
11.7484
11.748
11.7477
11.7473
11.7469
11.7467
12.3174
12.3177
12.3181
12.3185
12.3189
12.3192
12.3196
12.3199
12.3203
12.3206
12.3208
12.3211
12.3213
12.3216
12.3218
12.322
12.3221
12.3223
12.3224
12.3226
12.3227
12.3228
12.3229
12.3229
12.323
12.3231
12.3231
12.3231
12.3232
12.3232
12.3232
12.3232
12.3231
12.3231
12.3231
12.323
12.3229
12.3229
12.3228
12.3227
12.3226
12.3224
12.3223
12.3221
12.322
12.3218
12.3216
12.3213
12.3211
12.3208
12.3206
12.3203
12.3199
12.3196
12.3192
12.3189
12.3185
12.3181
12.3177
12.3174
12.8935
12.8938
12.8942
12.8946
12.895
12.8954
12.8958
12.8961
12.8964
12.8968
12.897
12.8973
12.8976
12.8978
12.898
12.8982
12.8984
12.8986
12.8987
12.8988
12.899
12.8991
12.8992
12.8992
12.8993
12.8994
12.8994
12.8994
12.8994
12.8995
12.8995
12.8994
12.8994
12.8994
12.8994
12.8993
12.8992
12.8992
12.8991
12.899
12.8988
12.8987
12.8986
12.8984
12.8982
12.898
12.8978
12.8976
12.8973
12.897
12.8968
12.8964
12.8961
12.8958
12.8954
12.895
12.8946
12.8942
12.8938
12.8935
13.4741
13.4744
13.4748
13.4752
13.4756
13.476
13.4764
13.4768
13.4771
13.4774
13.4777
13.478
13.4783
13.4785
13.4788
13.479
13.4791
13.4793
13.4795
13.4796
13.4797
13.4798
13.4799
13.48
13.4801
13.4801
13.4802
13.4802
13.4802
13.4802
13.4802
13.4802
13.4802
13.4802
13.4801
13.4801
13.48
13.4799
13.4798
13.4797
13.4796
13.4795
13.4793
13.4791
13.479
13.4788
13.4785
13.4783
13.478
13.4777
13.4774
13.4771
13.4768
13.4764
13.476
13.4756
13.4752
13.4748
13.4744
13.4741
14.0583
14.0586
14.059
14.0594
14.0598
14.0602
14.0606
14.061
14.0614
14.0617
14.062
14.0623
14.0626
14.0628
14.063
14.0632
14.0634
14.0636
14.0638
14.0639
14.064
14.0642
14.0642
14.0643
14.0644
14.0645
14.0645
14.0645
14.0646
14.0646
14.0646
14.0646
14.0645
14.0645
14.0645
14.0644
14.0643
14.0642
14.0642
14.064
14.0639
14.0638
14.0636
14.0634
14.0632
14.063
14.0628
14.0626
14.0623
14.062
14.0617
14.0614
14.061
14.0606
14.0602
14.0598
14.0594
14.059
14.0586
14.0583
14.6449
14.6452
14.6456
14.6461
14.6465
14.6469
14.6473
14.6477
14.6481
14.6484
14.6487
14.649
14.6493
14.6496
14.6498
14.65
14.6502
14.6504
14.6506
14.6507
14.6508
14.6509
14.651
14.6511
14.6512
14.6513
14.6513
14.6514
14.6514
14.6514
14.6514
14.6514
14.6514
14.6513
14.6513
14.6512
14.6511
14.651
14.6509
14.6508
14.6507
14.6506
14.6504
14.6502
14.65
14.6498
14.6496
14.6493
14.649
14.6487
14.6484
14.6481
14.6477
14.6473
14.6469
14.6465
14.6461
14.6456
14.6452
14.6449
15.2328
15.2331
15.2335
15.234
15.2344
15.2349
15.2353
15.2357
15.236
15.2364
15.2367
15.237
15.2373
15.2376
15.2378
15.238
15.2382
15.2384
15.2386
15.2387
15.2389
15.239
15.2391
15.2392
15.2392
15.2393
15.2394
15.2394
15.2394
15.2394
15.2394
15.2394
15.2394
15.2394
15.2393
15.2392
15.2392
15.2391
15.239
15.2389
15.2387
15.2386
15.2384
15.2382
15.238
15.2378
15.2376
15.2373
15.237
15.2367
15.2364
15.236
15.2357
15.2353
15.2349
15.2344
15.234
15.2335
15.2331
15.2328
15.8205
15.8208
15.8213
15.8217
15.8222
15.8226
15.823
15.8234
15.8238
15.8242
15.8245
15.8248
15.8251
15.8254
15.8256
15.8258
15.826
15.8262
15.8264
15.8266
15.8267
15.8268
15.8269
15.827
15.8271
15.8271
15.8272
15.8272
15.8273
15.8273
15.8273
15.8273
15.8272
15.8272
15.8271
15.8271
15.827
15.8269
15.8268
15.8267
15.8266
15.8264
15.8262
15.826
15.8258
15.8256
15.8254
15.8251
15.8248
15.8245
15.8242
15.8238
15.8234
15.823
15.8226
15.8222
15.8217
15.8213
15.8208
15.8205
16.4064
16.4067
16.4072
16.4076
16.4081
16.4085
16.409
16.4094
16.4098
16.4101
16.4105
16.4108
16.4111
16.4113
16.4116
16.4118
16.412
16.4122
16.4124
16.4125
16.4127
16.4128
16.4129
16.413
16.4131
16.4131
16.4132
16.4132
16.4132
16.4133
16.4133
16.4132
16.4132
16.4132
16.4131
16.4131
16.413
16.4129
16.4128
16.4127
16.4125
16.4124
16.4122
16.412
16.4118
16.4116
16.4113
16.4111
16.4108
16.4105
16.4101
16.4098
16.4094
16.409
16.4085
16.4081
16.4076
16.4072
16.4067
16.4064
16.9886
16.9889
16.9893
16.9898
16.9903
16.9907
16.9912
16.9916
16.992
16.9923
16.9927
16.993
16.9933
16.9936
16.9938
16.994
16.9942
16.9944
16.9946
16.9948
16.9949
16.995
16.9951
16.9952
16.9953
16.9954
16.9954
16.9955
16.9955
16.9955
16.9955
16.9955
16.9955
16.9954
16.9954
16.9953
16.9952
16.9951
16.995
16.9949
16.9948
16.9946
16.9944
16.9942
16.994
16.9938
16.9936
16.9933
16.993
16.9927
16.9923
16.992
16.9916
16.9912
16.9907
16.9903
16.9898
16.9893
16.9889
16.9886
17.5648
17.5651
17.5656
17.5661
17.5665
17.567
17.5674
17.5678
17.5682
17.5686
17.5689
17.5692
17.5695
17.5698
17.5701
17.5703
17.5705
17.5707
17.5709
17.571
17.5712
17.5713
17.5714
17.5715
17.5716
17.5716
17.5717
17.5717
17.5718
17.5718
17.5718
17.5718
17.5717
17.5717
17.5716
17.5716
17.5715
17.5714
17.5713
17.5712
17.571
17.5709
17.5707
17.5705
17.5703
17.5701
17.5698
17.5695
17.5692
17.5689
17.5686
17.5682
17.5678
17.5674
17.567
17.5665
17.5661
17.5656
17.5651
17.5648
18.1325
18.1329
18.1333
18.1338
18.1343
18.1347
18.1352
18.1356
18.136
18.1363
18.1367
18.137
18.1373
18.1376
18.1378
18.1381
18.1383
18.1385
18.1386
18.1388
18.1389
18.1391
18.1392
18.1393
18.1393
18.1394
18.1395
18.1395
18.1395
18.1395
18.1395
18.1395
18.1395
18.1395
18.1394
18.1393
18.1393
18.1392
18.1391
18.1389
18.1388
18.1386
18.1385
18.1383
18.1381
18.1378
18.1376
18.1373
18.137
18.1367
18.1363
18.136
18.1356
18.1352
18.1347
18.1343
18.1338
18.1333
18.1329
18.1325
18.6888
18.6892
18.6896
18.6901
18.6905
18.691
18.6914
18.6918
18.6922
18.6926
18.6929
18.6932
18.6935
18.6938
18.694
18.6943
18.6945
18.6947
18.6948
18.695
18.6951
18.6953
18.6954
18.6955
18.6955
18.6956
18.6957
18.6957
18.6957
18.6957
18.6957
18.6957
18.6957
18.6957
18.6956
18.6955
18.6955
18.6954
18.6953
18.6951
18.695
18.6948
18.6947
18.6945
18.6943
18.694
18.6938
18.6935
18.6932
18.6929
18.6926
18.6922
18.6918
18.6914
18.691
18.6905
18.6901
18.6896
18.6892
18.6888
19.2301
19.2304
19.2308
19.2313
19.2318
19.2322
19.2326
19.233
19.2334
19.2338
19.2341
19.2344
19.2347
19.2349
19.2352
19.2354
19.2356
19.2358
19.236
19.2361
19.2363
19.2364
19.2365
19.2366
19.2367
19.2367
19.2368
19.2368
19.2369
19.2369
19.2369
19.2369
19.2368
19.2368
19.2367
19.2367
19.2366
19.2365
19.2364
19.2363
19.2361
19.236
19.2358
19.2356
19.2354
19.2352
19.2349
19.2347
19.2344
19.2341
19.2338
19.2334
19.233
19.2326
19.2322
19.2318
19.2313
19.2308
19.2304
19.2301
19.7521
19.7524
19.7529
19.7533
19.7538
19.7542
19.7546
19.755
19.7553
19.7557
19.756
19.7563
19.7566
19.7569
19.7571
19.7573
19.7575
19.7577
19.7579
19.758
19.7582
19.7583
19.7584
19.7585
19.7585
19.7586
19.7587
19.7587
19.7587
19.7587
19.7587
19.7587
19.7587
19.7587
19.7586
19.7585
19.7585
19.7584
19.7583
19.7582
19.758
19.7579
19.7577
19.7575
19.7573
19.7571
19.7569
19.7566
19.7563
19.756
19.7557
19.7553
19.755
19.7546
19.7542
19.7538
19.7533
19.7529
19.7524
19.7521
20.25
20.2503
20.2507
20.2512
20.2516
20.252
20.2524
20.2528
20.2531
20.2534
20.2538
20.254
20.2543
20.2546
20.2548
20.255
20.2552
20.2554
20.2555
20.2557
20.2558
20.2559
20.256
20.2561
20.2562
20.2562
20.2563
20.2563
20.2564
20.2564
20.2564
20.2564
20.2563
20.2563
20.2562
20.2562
20.2561
20.256
20.2559
20.2558
20.2557
20.2555
20.2554
20.2552
20.255
20.2548
20.2546
20.2543
20.254
20.2538
20.2534
20.2531
20.2528
20.2524
20.252
20.2516
20.2512
20.2507
20.2503
20.25
20.718
20.7183
20.7187
20.7191
20.7195
20.7198
20.7202
20.7206
20.7209
20.7212
20.7215
20.7218
20.722
20.7223
20.7225
20.7227
20.7229
20.723
20.7232
20.7233
20.7234
20.7235
20.7236
20.7237
20.7238
20.7238
20.7239
20.7239
20.7239
20.724
20.724
20.7239
20.7239
20.7239
20.7238
20.7238
20.7237
20.7236
20.7235
20.7234
20.7233
20.7232
20.723
20.7229
20.7227
20.7225
20.7223
20.722
20.7218
20.7215
20.7212
20.7209
20.7206
20.7202
20.7198
20.7195
20.7191
20.7187
20.7183
20.718
21.1495
21.1497
21.1501
21.1504
21.1508
21.1512
21.1515
21.1518
21.1521
21.1524
21.1527
21.1529
21.1532
21.1534
21.1536
21.1538
21.1539
21.1541
21.1542
21.1544
21.1545
21.1546
21.1547
21.1547
21.1548
21.1549
21.1549
21.1549
21.155
21.155
21.155
21.155
21.1549
21.1549
21.1549
21.1548
21.1547
21.1547
21.1546
21.1545
21.1544
21.1542
21.1541
21.1539
21.1538
21.1536
21.1534
21.1532
21.1529
21.1527
21.1524
21.1521
21.1518
21.1515
21.1512
21.1508
21.1504
21.1501
21.1497
21.1495
21.5377
21.5379
21.5382
21.5385
21.5389
21.5392
21.5395
21.5398
21.54
21.5403
21.5405
21.5408
21.541
21.5412
21.5413
21.5415
21.5417
21.5418
21.5419
21.542
21.5421
21.5422
21.5423
21.5424
21.5424
21.5425
21.5425
21.5426
21.5426
21.5426
21.5426
21.5426
21.5426
21.5425
21.5425
21.5424
21.5424
21.5423
21.5422
21.5421
21.542
21.5419
21.5418
21.5417
21.5415
21.5413
21.5412
21.541
21.5408
21.5405
21.5403
21.54
21.5398
21.5395
21.5392
21.5389
21.5385
21.5382
21.5379
21.5377
21.8767
21.8769
21.8772
21.8775
21.8777
21.878
21.8782
21.8785
21.8787
21.8789
21.8792
21.8793
21.8795
21.8797
21.8799
21.88
21.8801
21.8803
21.8804
21.8805
21.8806
21.8806
21.8807
21.8808
21.8808
21.8809
21.8809
21.8809
21.8809
21.8809
21.8809
21.8809
21.8809
21.8809
21.8809
21.8808
21.8808
21.8807
21.8806
21.8806
21.8805
21.8804
21.8803
21.8801
21.88
21.8799
21.8797
21.8795
21.8793
21.8792
21.8789
21.8787
21.8785
21.8782
21.878
21.8777
21.8775
21.8772
21.8769
21.8767
22.1633
22.1635
22.1637
22.1639
22.1641
22.1643
22.1645
22.1647
22.1649
22.1651
22.1653
22.1655
22.1656
22.1658
22.1659
22.166
22.1661
22.1662
22.1663
22.1664
22.1665
22.1666
22.1666
22.1667
22.1667
22.1667
22.1668
22.1668
22.1668
22.1668
22.1668
22.1668
22.1668
22.1668
22.1667
22.1667
22.1667
22.1666
22.1666
22.1665
22.1664
22.1663
22.1662
22.1661
22.166
22.1659
22.1658
22.1656
22.1655
22.1653
22.1651
22.1649
22.1647
22.1645
22.1643
22.1641
22.1639
22.1637
22.1635
22.1633
22.3983
22.3984
22.3986
22.3987
22.3989
22.3991
22.3992
22.3994
22.3995
22.3997
22.3998
22.4
22.4001
22.4002
22.4003
22.4004
22.4005
22.4006
22.4007
22.4007
22.4008
22.4009
22.4009
22.401
22.401
22.401
22.4011
22.4011
22.4011
22.4011
22.4011
22.4011
22.4011
22.4011
22.401
22.401
22.401
22.4009
22.4009
22.4008
22.4007
22.4007
22.4006
22.4005
22.4004
22.4003
22.4002
22.4001
22.4
22.3998
22.3997
22.3995
22.3994
22.3992
22.3991
22.3989
22.3987
22.3986
22.3984
22.3983
22.5868
22.5869
22.587
22.5872
22.5873
22.5874
22.5876
22.5877
22.5878
22.5879
22.588
22.5881
22.5882
22.5883
22.5884
22.5885
22.5886
22.5887
22.5887
22.5888
22.5888
22.5889
22.5889
22.589
22.589
22.589
22.589
22.5891
22.5891
22.5891
22.5891
22.5891
22.5891
22.589
22.589
22.589
22.589
22.5889
22.5889
22.5888
22.5888
22.5887
22.5887
22.5886
22.5885
22.5884
22.5883
22.5882
22.5881
22.588
22.5879
22.5878
22.5877
22.5876
22.5874
22.5873
22.5872
22.587
22.5869
22.5868
22.7373
22.7373
22.7374
22.7375
22.7376
22.7377
22.7378
22.7379
22.738
22.7381
22.7382
22.7383
22.7383
22.7384
22.7385
22.7386
22.7386
22.7387
22.7387
22.7388
22.7388
22.7389
22.7389
22.7389
22.739
22.739
22.739
22.739
22.739
22.739
22.739
22.739
22.739
22.739
22.739
22.739
22.7389
22.7389
22.7389
22.7388
22.7388
22.7387
22.7387
22.7386
22.7386
22.7385
22.7384
22.7383
22.7383
22.7382
22.7381
22.738
22.7379
22.7378
22.7377
22.7376
22.7375
22.7374
22.7373
22.7373
22.8585
22.8586
22.8586
22.8587
22.8588
22.8589
22.8589
22.859
22.8591
22.8592
22.8592
22.8593
22.8594
22.8595
22.8595
22.8596
22.8596
22.8597
22.8597
22.8598
22.8598
22.8598
22.8599
22.8599
22.8599
22.86
22.86
22.86
22.86
22.86
22.86
22.86
22.86
22.86
22.86
22.8599
22.8599
22.8599
22.8598
22.8598
22.8598
22.8597
22.8597
22.8596
22.8596
22.8595
22.8595
22.8594
22.8593
22.8592
22.8592
22.8591
22.859
22.8589
22.8589
22.8588
22.8587
22.8586
22.8586
22.8585
22.9586
22.9586
22.9587
22.9587
22.9588
22.9588
22.9589
22.959
22.959
22.9591
22.9592
22.9592
22.9593
22.9593
22.9594
22.9594
22.9595
22.9595
22.9596
22.9596
22.9597
22.9597
22.9597
22.9597
22.9598
22.9598
22.9598
22.9598
22.9598
22.9598
22.9598
22.9598
22.9598
22.9598
22.9598
22.9598
22.9597
22.9597
22.9597
22.9597
22.9596
22.9596
22.9595
22.9595
22.9594
22.9594
22.9593
22.9593
22.9592
22.9592
22.9591
22.959
22.959
22.9589
22.9588
22.9588
22.9587
22.9587
22.9586
22.9586
23.0435
23.0435
23.0435
23.0436
23.0436
23.0436
23.0437
23.0438
23.0438
23.0439
23.0439
23.044
23.044
23.0441
23.0441
23.0442
23.0442
23.0443
23.0443
23.0444
23.0444
23.0444
23.0444
23.0445
23.0445
23.0445
23.0445
23.0445
23.0445
23.0445
23.0445
23.0445
23.0445
23.0445
23.0445
23.0445
23.0445
23.0444
23.0444
23.0444
23.0444
23.0443
23.0443
23.0442
23.0442
23.0441
23.0441
23.044
23.044
23.0439
23.0439
23.0438
23.0438
23.0437
23.0436
23.0436
23.0436
23.0435
23.0435
23.0435
23.1173
23.1174
23.1174
23.1174
23.1175
23.1175
23.1175
23.1176
23.1176
23.1177
23.1177
23.1178
23.1178
23.1179
23.1179
23.118
23.118
23.1181
23.1181
23.1181
23.1182
23.1182
23.1182
23.1183
23.1183
23.1183
23.1183
23.1183
23.1183
23.1183
23.1183
23.1183
23.1183
23.1183
23.1183
23.1183
23.1183
23.1182
23.1182
23.1182
23.1181
23.1181
23.1181
23.118
23.118
23.1179
23.1179
23.1178
23.1178
23.1177
23.1177
23.1176
23.1176
23.1175
23.1175
23.1175
23.1174
23.1174
23.1174
23.1173
23.1831
23.1831
23.1831
23.1831
23.1831
23.1832
23.1832
23.1833
23.1833
23.1834
23.1834
23.1835
23.1835
23.1836
23.1836
23.1836
23.1837
23.1837
23.1838
23.1838
23.1838
23.1839
23.1839
23.1839
23.1839
23.1839
23.184
23.184
23.184
23.184
23.184
23.184
23.184
23.184
23.1839
23.1839
23.1839
23.1839
23.1839
23.1838
23.1838
23.1838
23.1837
23.1837
23.1836
23.1836
23.1836
23.1835
23.1835
23.1834
23.1834
23.1833
23.1833
23.1832
23.1832
23.1831
23.1831
23.1831
23.1831
23.1831
23.2425
23.2425
23.2425
23.2425
23.2425
23.2426
23.2426
23.2426
23.2427
23.2427
23.2428
23.2428
23.2429
23.2429
23.243
23.243
23.2431
23.2431
23.2431
23.2432
23.2432
23.2432
23.2433
23.2433
23.2433
23.2433
23.2433
23.2433
23.2433
23.2433
23.2433
23.2433
23.2433
23.2433
23.2433
23.2433
23.2433
23.2433
23.2432
23.2432
23.2432
23.2431
23.2431
23.2431
23.243
23.243
23.2429
23.2429
23.2428
23.2428
23.2427
23.2427
23.2426
23.2426
23.2426
23.2425
23.2425
23.2425
23.2425
23.2425
23.2968
23.2969
23.2969
23.2969
23.2969
23.2969
23.297
23.297
23.2971
23.2971
23.2972
23.2972
23.2972
23.2973
23.2973
23.2974
23.2974
23.2975
23.2975
23.2975
23.2976
23.2976
23.2976
23.2976
23.2977
23.2977
23.2977
23.2977
23.2977
23.2977
23.2977
23.2977
23.2977
23.2977
23.2977
23.2977
23.2976
23.2976
23.2976
23.2976
23.2975
23.2975
23.2975
23.2974
23.2974
23.2973
23.2973
23.2972
23.2972
23.2972
23.2971
23.2971
23.297
23.297
23.2969
23.2969
23.2969
23.2969
23.2969
23.2968
23.3471
23.3471
23.3471
23.3472
23.3472
23.3472
23.3473
23.3473
23.3473
23.3474
23.3474
23.3475
23.3475
23.3476
23.3476
23.3477
23.3477
23.3477
23.3478
23.3478
23.3478
23.3479
23.3479
23.3479
23.3479
23.348
23.348
23.348
23.348
23.348
23.348
23.348
23.348
23.348
23.348
23.3479
23.3479
23.3479
23.3479
23.3478
23.3478
23.3478
23.3477
23.3477
23.3477
23.3476
23.3476
23.3475
23.3475
23.3474
23.3474
23.3473
23.3473
23.3473
23.3472
23.3472
23.3472
23.3471
23.3471
23.3471
23.394
23.394
23.394
23.394
23.394
23.3941
23.3941
23.3941
23.3942
23.3942
23.3943
23.3943
23.3944
23.3944
23.3945
23.3945
23.3946
23.3946
23.3946
23.3947
23.3947
23.3947
23.3948
23.3948
23.3948
23.3948
23.3948
23.3949
23.3949
23.3949
23.3949
23.3949
23.3949
23.3948
23.3948
23.3948
23.3948
23.3948
23.3947
23.3947
23.3947
23.3946
23.3946
23.3946
23.3945
23.3945
23.3944
23.3944
23.3943
23.3943
23.3942
23.3942
23.3941
23.3941
23.3941
23.394
23.394
23.394
23.394
23.394
23.4379
23.438
23.438
23.438
23.438
23.438
23.4381
23.4381
23.4381
23.4382
23.4382
23.4383
23.4383
23.4384
23.4384
23.4385
23.4385
23.4386
23.4386
23.4386
23.4387
23.4387
23.4387
23.4388
23.4388
23.4388
23.4388
23.4388
23.4388
23.4388
23.4388
23.4388
23.4388
23.4388
23.4388
23.4388
23.4388
23.4387
23.4387
23.4387
23.4386
23.4386
23.4386
23.4385
23.4385
23.4384
23.4384
23.4383
23.4383
23.4382
23.4382
23.4381
23.4381
23.4381
23.438
23.438
23.438
23.438
23.438
23.4379
23.4794
23.4794
23.4794
23.4794
23.4795
23.4795
23.4795
23.4796
23.4796
23.4796
23.4797
23.4797
23.4798
23.4798
23.4799
23.4799
23.48
23.48
23.4801
23.4801
23.4802
23.4802
23.4802
23.4802
23.4803
23.4803
23.4803
23.4803
23.4803
23.4803
23.4803
23.4803
23.4803
23.4803
23.4803
23.4803
23.4802
23.4802
23.4802
23.4802
23.4801
23.4801
23.48
23.48
23.4799
23.4799
23.4798
23.4798
23.4797
23.4797
23.4796
23.4796
23.4796
23.4795
23.4795
23.4795
23.4794
23.4794
23.4794
23.4794
23.5187
23.5187
23.5187
23.5187
23.5187
23.5188
23.5188
23.5188
23.5189
23.5189
23.519
23.519
23.5191
23.5191
23.5192
23.5192
23.5193
23.5193
23.5194
23.5194
23.5195
23.5195
23.5195
23.5195
23.5196
23.5196
23.5196
23.5196
23.5196
23.5196
23.5196
23.5196
23.5196
23.5196
23.5196
23.5196
23.5195
23.5195
23.5195
23.5195
23.5194
23.5194
23.5193
23.5193
23.5192
23.5192
23.5191
23.5191
23.519
23.519
23.5189
23.5189
23.5188
23.5188
23.5188
23.5187
23.5187
23.5187
23.5187
23.5187
23.5561
23.5561
23.5561
23.5561
23.5561
23.5561
23.5562
23.5562
23.5563
23.5563
23.5564
23.5564
23.5565
23.5565
23.5566
23.5566
23.5567
23.5567
23.5568
23.5568
23.5569
23.5569
23.5569
23.557
23.557
23.557
23.557
23.557
23.557
23.557
23.557
23.557
23.557
23.557
23.557
23.557
23.557
23.5569
23.5569
23.5569
23.5568
23.5568
23.5567
23.5567
23.5566
23.5566
23.5565
23.5565
23.5564
23.5564
23.5563
23.5563
23.5562
23.5562
23.5561
23.5561
23.5561
23.5561
23.5561
23.5561
23.5917
23.5917
23.5918
23.5918
23.5918
23.5918
23.5919
23.5919
23.592
23.592
23.5921
23.5921
23.5922
23.5922
23.5923
23.5923
23.5924
23.5924
23.5925
23.5925
23.5926
23.5926
23.5926
23.5927
23.5927