/*--------------------------------*- C++ -*----------------------------------*\
| =========                 |                                                 |
| \\      /  F ield         | foam-extend: Open Source CFD                    |
|  \\    /   O peration     | Version:     4.0                                |
|   \\  /    A nd           | Web:         http://www.foam-extend.org         |
|    \\/     M anipulation  |                                                 |
\*---------------------------------------------------------------------------*/
FoamFile
{
    version     2.0;
    format      ascii;
    class       volScalarField;
    location    "1200";
    object      psiE;
}
// * * * * * * * * * * * * * * * * * * * * * * * * * * * * * * * * * * * * * //

dimensions      [0 0 0 0 0 0 0];

internalField   nonuniform List<scalar> 
6960
(
0.353445
0.353458
0.353472
0.353485
0.353496
0.353506
0.353514
0.353521
0.353527
0.353531
0.353535
0.353538
0.353541
0.353543
0.353544
0.353546
0.353547
0.353548
0.353548
0.353549
0.353549
0.35355
0.35355
0.35355
0.353551
0.353551
0.353551
0.353551
0.353551
0.353551
0.353551
0.353551
0.353551
0.353551
0.353551
0.353551
0.35355
0.35355
0.35355
0.353549
0.353549
0.353548
0.353548
0.353547
0.353546
0.353544
0.353543
0.353541
0.353538
0.353535
0.353531
0.353527
0.353521
0.353514
0.353506
0.353496
0.353485
0.353472
0.353458
0.353445
0.911116
0.911167
0.911224
0.911277
0.911323
0.911362
0.911395
0.911423
0.911445
0.911464
0.911479
0.911491
0.911501
0.911509
0.911516
0.911521
0.911525
0.911529
0.911532
0.911534
0.911536
0.911537
0.911539
0.91154
0.911541
0.911541
0.911542
0.911542
0.911542
0.911542
0.911542
0.911542
0.911542
0.911542
0.911541
0.911541
0.91154
0.911539
0.911537
0.911536
0.911534
0.911532
0.911529
0.911525
0.911521
0.911516
0.911509
0.911501
0.911491
0.911479
0.911464
0.911445
0.911423
0.911395
0.911362
0.911323
0.911277
0.911224
0.911167
0.911116
1.43529
1.43539
1.4355
1.4356
1.43569
1.43577
1.43583
1.43588
1.43593
1.43596
1.43599
1.43602
1.43604
1.43605
1.43606
1.43607
1.43608
1.43609
1.43609
1.4361
1.4361
1.43611
1.43611
1.43611
1.43611
1.43611
1.43611
1.43611
1.43611
1.43611
1.43611
1.43611
1.43611
1.43611
1.43611
1.43611
1.43611
1.43611
1.43611
1.4361
1.4361
1.43609
1.43609
1.43608
1.43607
1.43606
1.43605
1.43604
1.43602
1.43599
1.43596
1.43593
1.43588
1.43583
1.43577
1.43569
1.4356
1.4355
1.43539
1.43529
1.95566
1.95582
1.95599
1.95614
1.95628
1.9564
1.9565
1.95658
1.95665
1.9567
1.95675
1.95678
1.95681
1.95684
1.95685
1.95687
1.95688
1.95689
1.9569
1.95691
1.95691
1.95692
1.95692
1.95692
1.95693
1.95693
1.95693
1.95693
1.95693
1.95693
1.95693
1.95693
1.95693
1.95693
1.95693
1.95693
1.95692
1.95692
1.95692
1.95691
1.95691
1.9569
1.95689
1.95688
1.95687
1.95685
1.95684
1.95681
1.95678
1.95675
1.9567
1.95665
1.95658
1.9565
1.9564
1.95628
1.95614
1.95599
1.95582
1.95566
2.48181
2.48201
2.48225
2.48246
2.48265
2.48281
2.48294
2.48306
2.48315
2.48322
2.48328
2.48333
2.48337
2.48341
2.48343
2.48346
2.48347
2.48349
2.4835
2.48351
2.48351
2.48352
2.48353
2.48353
2.48353
2.48354
2.48354
2.48354
2.48354
2.48354
2.48354
2.48354
2.48354
2.48354
2.48354
2.48353
2.48353
2.48353
2.48352
2.48351
2.48351
2.4835
2.48349
2.48347
2.48346
2.48343
2.48341
2.48337
2.48333
2.48328
2.48322
2.48315
2.48306
2.48294
2.48281
2.48265
2.48246
2.48225
2.48201
2.48181
3.01684
3.01711
3.0174
3.01768
3.01792
3.01812
3.01829
3.01844
3.01855
3.01865
3.01873
3.01879
3.01884
3.01888
3.01892
3.01895
3.01897
3.01899
3.019
3.01901
3.01902
3.01903
3.01904
3.01904
3.01904
3.01905
3.01905
3.01905
3.01905
3.01905
3.01905
3.01905
3.01905
3.01905
3.01905
3.01904
3.01904
3.01904
3.01903
3.01902
3.01901
3.019
3.01899
3.01897
3.01895
3.01892
3.01888
3.01884
3.01879
3.01873
3.01865
3.01855
3.01844
3.01829
3.01812
3.01792
3.01768
3.0174
3.01711
3.01684
3.56174
3.56206
3.56242
3.56276
3.56305
3.5633
3.56351
3.56368
3.56383
3.56394
3.56404
3.56412
3.56418
3.56423
3.56427
3.5643
3.56433
3.56435
3.56437
3.56438
3.5644
3.56441
3.56441
3.56442
3.56442
3.56443
3.56443
3.56443
3.56443
3.56443
3.56443
3.56443
3.56443
3.56443
3.56443
3.56442
3.56442
3.56441
3.56441
3.5644
3.56438
3.56437
3.56435
3.56433
3.5643
3.56427
3.56423
3.56418
3.56412
3.56404
3.56394
3.56383
3.56368
3.56351
3.5633
3.56305
3.56276
3.56242
3.56206
3.56174
4.11673
4.11711
4.11754
4.11793
4.11828
4.11857
4.11882
4.11903
4.1192
4.11933
4.11945
4.11954
4.11961
4.11967
4.11972
4.11976
4.11979
4.11982
4.11984
4.11985
4.11987
4.11988
4.11989
4.1199
4.1199
4.11991
4.11991
4.11991
4.11991
4.11991
4.11991
4.11991
4.11991
4.11991
4.11991
4.1199
4.1199
4.11989
4.11988
4.11987
4.11985
4.11984
4.11982
4.11979
4.11976
4.11972
4.11967
4.11961
4.11954
4.11945
4.11933
4.1192
4.11903
4.11882
4.11857
4.11828
4.11793
4.11754
4.11711
4.11673
4.68179
4.68222
4.68271
4.68317
4.68357
4.68391
4.6842
4.68444
4.68463
4.68479
4.68492
4.68503
4.68511
4.68518
4.68524
4.68528
4.68532
4.68535
4.68537
4.68539
4.68541
4.68542
4.68543
4.68544
4.68544
4.68545
4.68545
4.68546
4.68546
4.68546
4.68546
4.68546
4.68546
4.68545
4.68545
4.68544
4.68544
4.68543
4.68542
4.68541
4.68539
4.68537
4.68535
4.68532
4.68528
4.68524
4.68518
4.68511
4.68503
4.68492
4.68479
4.68463
4.68444
4.6842
4.68391
4.68357
4.68317
4.68271
4.68222
4.68179
5.25677
5.25726
5.25782
5.25834
5.25879
5.25918
5.2595
5.25977
5.25999
5.26017
5.26032
5.26044
5.26053
5.26061
5.26068
5.26073
5.26077
5.2608
5.26083
5.26085
5.26087
5.26088
5.2609
5.26091
5.26091
5.26092
5.26092
5.26093
5.26093
5.26093
5.26093
5.26093
5.26093
5.26092
5.26092
5.26091
5.26091
5.2609
5.26088
5.26087
5.26085
5.26083
5.2608
5.26077
5.26073
5.26068
5.26061
5.26053
5.26044
5.26032
5.26017
5.25999
5.25977
5.2595
5.25918
5.25879
5.25834
5.25782
5.25726
5.25677
5.84147
5.84201
5.84264
5.84322
5.84372
5.84415
5.84452
5.84482
5.84506
5.84527
5.84543
5.84557
5.84567
5.84576
5.84583
5.84589
5.84594
5.84597
5.846
5.84603
5.84605
5.84607
5.84608
5.84609
5.8461
5.8461
5.84611
5.84611
5.84612
5.84612
5.84612
5.84612
5.84611
5.84611
5.8461
5.8461
5.84609
5.84608
5.84607
5.84605
5.84603
5.846
5.84597
5.84594
5.84589
5.84583
5.84576
5.84567
5.84557
5.84543
5.84527
5.84506
5.84482
5.84452
5.84415
5.84372
5.84322
5.84264
5.84201
5.84147
6.43562
6.43622
6.43691
6.43755
6.43811
6.43859
6.43899
6.43932
6.43959
6.43982
6.44
6.44015
6.44027
6.44037
6.44044
6.44051
6.44056
6.4406
6.44063
6.44066
6.44068
6.4407
6.44072
6.44073
6.44074
6.44075
6.44075
6.44075
6.44076
6.44076
6.44076
6.44076
6.44075
6.44075
6.44075
6.44074
6.44073
6.44072
6.4407
6.44068
6.44066
6.44063
6.4406
6.44056
6.44051
6.44044
6.44037
6.44027
6.44015
6.44
6.43982
6.43959
6.43932
6.43899
6.43859
6.43811
6.43755
6.43691
6.43622
6.43562
7.03891
7.03957
7.04032
7.04102
7.04164
7.04216
7.0426
7.04296
7.04326
7.0435
7.0437
7.04387
7.044
7.0441
7.04419
7.04426
7.04432
7.04436
7.0444
7.04443
7.04445
7.04447
7.04449
7.0445
7.04451
7.04452
7.04453
7.04453
7.04453
7.04453
7.04453
7.04453
7.04453
7.04453
7.04452
7.04451
7.0445
7.04449
7.04447
7.04445
7.04443
7.0444
7.04436
7.04432
7.04426
7.04419
7.0441
7.044
7.04387
7.0437
7.0435
7.04326
7.04296
7.0426
7.04216
7.04164
7.04102
7.04032
7.03957
7.03891
7.65096
7.65167
7.65249
7.65325
7.65391
7.65448
7.65496
7.65535
7.65568
7.65594
7.65616
7.65634
7.65648
7.65659
7.65669
7.65676
7.65682
7.65687
7.65691
7.65695
7.65697
7.65699
7.65701
7.65703
7.65704
7.65705
7.65705
7.65706
7.65706
7.65706
7.65706
7.65706
7.65706
7.65705
7.65705
7.65704
7.65703
7.65701
7.65699
7.65697
7.65695
7.65691
7.65687
7.65682
7.65676
7.65669
7.65659
7.65648
7.65634
7.65616
7.65594
7.65568
7.65535
7.65496
7.65448
7.65391
7.65325
7.65249
7.65167
7.65096
8.27131
8.27208
8.27296
8.27378
8.27449
8.27511
8.27562
8.27604
8.27639
8.27668
8.27691
8.2771
8.27726
8.27738
8.27748
8.27756
8.27763
8.27768
8.27773
8.27776
8.27779
8.27782
8.27783
8.27785
8.27786
8.27787
8.27788
8.27788
8.27789
8.27789
8.27789
8.27789
8.27788
8.27788
8.27787
8.27786
8.27785
8.27783
8.27782
8.27779
8.27776
8.27773
8.27768
8.27763
8.27756
8.27748
8.27738
8.27726
8.2771
8.27691
8.27668
8.27639
8.27604
8.27562
8.27511
8.27449
8.27378
8.27296
8.27208
8.27131
8.89944
8.90026
8.9012
8.90208
8.90285
8.9035
8.90405
8.90451
8.90488
8.90519
8.90544
8.90564
8.90581
8.90594
8.90605
8.90614
8.90621
8.90626
8.90631
8.90635
8.90638
8.90641
8.90643
8.90644
8.90645
8.90646
8.90647
8.90648
8.90648
8.90648
8.90648
8.90648
8.90648
8.90647
8.90646
8.90645
8.90644
8.90643
8.90641
8.90638
8.90635
8.90631
8.90626
8.90621
8.90614
8.90605
8.90594
8.90581
8.90564
8.90544
8.90519
8.90488
8.90451
8.90405
8.9035
8.90285
8.90208
8.9012
8.90026
8.89944
9.53473
9.5356
9.5366
9.53754
9.53835
9.53905
9.53963
9.54012
9.54052
9.54085
9.54111
9.54133
9.54151
9.54165
9.54176
9.54186
9.54193
9.54199
9.54204
9.54208
9.54212
9.54214
9.54217
9.54218
9.5422
9.54221
9.54222
9.54222
9.54223
9.54223
9.54223
9.54223
9.54222
9.54222
9.54221
9.5422
9.54218
9.54217
9.54214
9.54212
9.54208
9.54204
9.54199
9.54193
9.54186
9.54176
9.54165
9.54151
9.54133
9.54111
9.54085
9.54052
9.54012
9.53963
9.53905
9.53835
9.53754
9.5366
9.5356
9.53473
10.1765
10.1774
10.1784
10.1794
10.1803
10.181
10.1817
10.1822
10.1826
10.1829
10.1832
10.1835
10.1836
10.1838
10.1839
10.184
10.1841
10.1842
10.1842
10.1843
10.1843
10.1843
10.1843
10.1844
10.1844
10.1844
10.1844
10.1844
10.1844
10.1844
10.1844
10.1844
10.1844
10.1844
10.1844
10.1844
10.1844
10.1843
10.1843
10.1843
10.1843
10.1842
10.1842
10.1841
10.184
10.1839
10.1838
10.1836
10.1835
10.1832
10.1829
10.1826
10.1822
10.1817
10.181
10.1803
10.1794
10.1784
10.1774
10.1765
10.8238
10.8248
10.8259
10.8269
10.8279
10.8286
10.8293
10.8298
10.8303
10.8306
10.8309
10.8312
10.8314
10.8315
10.8317
10.8318
10.8319
10.8319
10.832
10.832
10.8321
10.8321
10.8321
10.8321
10.8322
10.8322
10.8322
10.8322
10.8322
10.8322
10.8322
10.8322
10.8322
10.8322
10.8322
10.8322
10.8321
10.8321
10.8321
10.8321
10.832
10.832
10.8319
10.8319
10.8318
10.8317
10.8315
10.8314
10.8312
10.8309
10.8306
10.8303
10.8298
10.8293
10.8286
10.8279
10.8269
10.8259
10.8248
10.8238
11.4758
11.4769
11.478
11.4791
11.4801
11.4809
11.4816
11.4821
11.4826
11.483
11.4833
11.4836
11.4838
11.4839
11.4841
11.4842
11.4843
11.4843
11.4844
11.4844
11.4845
11.4845
11.4845
11.4846
11.4846
11.4846
11.4846
11.4846
11.4846
11.4846
11.4846
11.4846
11.4846
11.4846
11.4846
11.4846
11.4846
11.4845
11.4845
11.4845
11.4844
11.4844
11.4843
11.4843
11.4842
11.4841
11.4839
11.4838
11.4836
11.4833
11.483
11.4826
11.4821
11.4816
11.4809
11.4801
11.4791
11.478
11.4769
11.4758
12.1314
12.1325
12.1337
12.1348
12.1358
12.1367
12.1374
12.138
12.1385
12.1389
12.1392
12.1395
12.1397
12.1399
12.14
12.1401
12.1402
12.1403
12.1403
12.1404
12.1404
12.1405
12.1405
12.1405
12.1405
12.1406
12.1406
12.1406
12.1406
12.1406
12.1406
12.1406
12.1406
12.1406
12.1406
12.1405
12.1405
12.1405
12.1405
12.1404
12.1404
12.1403
12.1403
12.1402
12.1401
12.14
12.1399
12.1397
12.1395
12.1392
12.1389
12.1385
12.138
12.1374
12.1367
12.1358
12.1348
12.1337
12.1325
12.1314
12.7893
12.7904
12.7917
12.7928
12.7939
12.7948
12.7955
12.7961
12.7966
12.797
12.7974
12.7977
12.7979
12.7981
12.7982
12.7983
12.7984
12.7985
12.7986
12.7986
12.7987
12.7987
12.7987
12.7988
12.7988
12.7988
12.7988
12.7988
12.7988
12.7988
12.7988
12.7988
12.7988
12.7988
12.7988
12.7988
12.7988
12.7987
12.7987
12.7987
12.7986
12.7986
12.7985
12.7984
12.7983
12.7982
12.7981
12.7979
12.7977
12.7974
12.797
12.7966
12.7961
12.7955
12.7948
12.7939
12.7928
12.7917
12.7904
12.7893
13.448
13.4492
13.4505
13.4517
13.4528
13.4537
13.4544
13.4551
13.4556
13.456
13.4564
13.4567
13.4569
13.4571
13.4572
13.4574
13.4575
13.4576
13.4576
13.4577
13.4577
13.4578
13.4578
13.4578
13.4578
13.4578
13.4579
13.4579
13.4579
13.4579
13.4579
13.4579
13.4579
13.4579
13.4578
13.4578
13.4578
13.4578
13.4578
13.4577
13.4577
13.4576
13.4576
13.4575
13.4574
13.4572
13.4571
13.4569
13.4567
13.4564
13.456
13.4556
13.4551
13.4544
13.4537
13.4528
13.4517
13.4505
13.4492
13.448
14.1059
14.1071
14.1084
14.1097
14.1108
14.1117
14.1125
14.1132
14.1137
14.1142
14.1145
14.1148
14.115
14.1152
14.1154
14.1155
14.1156
14.1157
14.1158
14.1158
14.1159
14.1159
14.116
14.116
14.116
14.116
14.116
14.116
14.116
14.116
14.116
14.116
14.116
14.116
14.116
14.116
14.116
14.116
14.1159
14.1159
14.1158
14.1158
14.1157
14.1156
14.1155
14.1154
14.1152
14.115
14.1148
14.1145
14.1142
14.1137
14.1132
14.1125
14.1117
14.1108
14.1097
14.1084
14.1071
14.1059
14.761
14.7622
14.7636
14.7649
14.766
14.767
14.7678
14.7685
14.769
14.7695
14.7698
14.7701
14.7704
14.7706
14.7708
14.7709
14.771
14.7711
14.7711
14.7712
14.7713
14.7713
14.7713
14.7713
14.7714
14.7714
14.7714
14.7714
14.7714
14.7714
14.7714
14.7714
14.7714
14.7714
14.7714
14.7714
14.7713
14.7713
14.7713
14.7713
14.7712
14.7711
14.7711
14.771
14.7709
14.7708
14.7706
14.7704
14.7701
14.7698
14.7695
14.769
14.7685
14.7678
14.767
14.766
14.7649
14.7636
14.7622
14.761
15.4111
15.4124
15.4138
15.4151
15.4162
15.4172
15.418
15.4187
15.4193
15.4197
15.4201
15.4204
15.4207
15.4209
15.421
15.4212
15.4213
15.4214
15.4215
15.4215
15.4216
15.4216
15.4216
15.4217
15.4217
15.4217
15.4217
15.4217
15.4217
15.4217
15.4217
15.4217
15.4217
15.4217
15.4217
15.4217
15.4217
15.4216
15.4216
15.4216
15.4215
15.4215
15.4214
15.4213
15.4212
15.421
15.4209
15.4207
15.4204
15.4201
15.4197
15.4193
15.4187
15.418
15.4172
15.4162
15.4151
15.4138
15.4124
15.4111
16.0537
16.0549
16.0563
16.0577
16.0588
16.0598
16.0606
16.0613
16.0619
16.0624
16.0627
16.0631
16.0633
16.0635
16.0637
16.0638
16.0639
16.064
16.0641
16.0642
16.0642
16.0642
16.0643
16.0643
16.0643
16.0643
16.0644
16.0644
16.0644
16.0644
16.0644
16.0644
16.0644
16.0644
16.0643
16.0643
16.0643
16.0643
16.0642
16.0642
16.0642
16.0641
16.064
16.0639
16.0638
16.0637
16.0635
16.0633
16.0631
16.0627
16.0624
16.0619
16.0613
16.0606
16.0598
16.0588
16.0577
16.0563
16.0549
16.0537
16.6855
16.6868
16.6882
16.6896
16.6907
16.6917
16.6925
16.6932
16.6938
16.6943
16.6947
16.695
16.6952
16.6954
16.6956
16.6957
16.6959
16.696
16.696
16.6961
16.6961
16.6962
16.6962
16.6962
16.6963
16.6963
16.6963
16.6963
16.6963
16.6963
16.6963
16.6963
16.6963
16.6963
16.6963
16.6963
16.6962
16.6962
16.6962
16.6961
16.6961
16.696
16.696
16.6959
16.6957
16.6956
16.6954
16.6952
16.695
16.6947
16.6943
16.6938
16.6932
16.6925
16.6917
16.6907
16.6896
16.6882
16.6868
16.6855
17.3032
17.3045
17.3059
17.3072
17.3084
17.3094
17.3102
17.3109
17.3115
17.3119
17.3123
17.3126
17.3129
17.3131
17.3133
17.3134
17.3135
17.3136
17.3137
17.3137
17.3138
17.3138
17.3139
17.3139
17.3139
17.3139
17.314
17.314
17.314
17.314
17.314
17.314
17.314
17.314
17.3139
17.3139
17.3139
17.3139
17.3138
17.3138
17.3137
17.3137
17.3136
17.3135
17.3134
17.3133
17.3131
17.3129
17.3126
17.3123
17.3119
17.3115
17.3109
17.3102
17.3094
17.3084
17.3072
17.3059
17.3045
17.3032
17.9025
17.9038
17.9052
17.9065
17.9076
17.9086
17.9094
17.9101
17.9106
17.9111
17.9115
17.9118
17.912
17.9123
17.9124
17.9126
17.9127
17.9128
17.9128
17.9129
17.913
17.913
17.913
17.9131
17.9131
17.9131
17.9131
17.9131
17.9131
17.9131
17.9131
17.9131
17.9131
17.9131
17.9131
17.9131
17.9131
17.913
17.913
17.913
17.9129
17.9128
17.9128
17.9127
17.9126
17.9124
17.9123
17.912
17.9118
17.9115
17.9111
17.9106
17.9101
17.9094
17.9086
17.9076
17.9065
17.9052
17.9038
17.9025
18.4784
18.4797
18.481
18.4823
18.4834
18.4843
18.4851
18.4858
18.4863
18.4868
18.4871
18.4874
18.4877
18.4879
18.4881
18.4882
18.4883
18.4884
18.4885
18.4885
18.4886
18.4886
18.4887
18.4887
18.4887
18.4887
18.4887
18.4887
18.4888
18.4888
18.4888
18.4888
18.4887
18.4887
18.4887
18.4887
18.4887
18.4887
18.4886
18.4886
18.4885
18.4885
18.4884
18.4883
18.4882
18.4881
18.4879
18.4877
18.4874
18.4871
18.4868
18.4863
18.4858
18.4851
18.4843
18.4834
18.4823
18.481
18.4797
18.4784
19.0249
19.0261
19.0274
19.0286
19.0297
19.0306
19.0313
19.032
19.0325
19.0329
19.0333
19.0336
19.0338
19.034
19.0342
19.0343
19.0344
19.0345
19.0346
19.0346
19.0347
19.0347
19.0347
19.0348
19.0348
19.0348
19.0348
19.0348
19.0348
19.0348
19.0348
19.0348
19.0348
19.0348
19.0348
19.0348
19.0348
19.0347
19.0347
19.0347
19.0346
19.0346
19.0345
19.0344
19.0343
19.0342
19.034
19.0338
19.0336
19.0333
19.0329
19.0325
19.032
19.0313
19.0306
19.0297
19.0286
19.0274
19.0261
19.0249
19.535
19.5361
19.5373
19.5384
19.5394
19.5403
19.541
19.5416
19.5421
19.5425
19.5428
19.5431
19.5433
19.5435
19.5436
19.5438
19.5439
19.5439
19.544
19.5441
19.5441
19.5442
19.5442
19.5442
19.5442
19.5443
19.5443
19.5443
19.5443
19.5443
19.5443
19.5443
19.5443
19.5443
19.5443
19.5442
19.5442
19.5442
19.5442
19.5441
19.5441
19.544
19.5439
19.5439
19.5438
19.5436
19.5435
19.5433
19.5431
19.5428
19.5425
19.5421
19.5416
19.541
19.5403
19.5394
19.5384
19.5373
19.5361
19.535
20.0006
20.0016
20.0027
20.0037
20.0046
20.0054
20.006
20.0066
20.007
20.0074
20.0077
20.0079
20.0081
20.0083
20.0085
20.0086
20.0087
20.0087
20.0088
20.0089
20.0089
20.009
20.009
20.009
20.009
20.009
20.0091
20.0091
20.0091
20.0091
20.0091
20.0091
20.0091
20.0091
20.009
20.009
20.009
20.009
20.009
20.0089
20.0089
20.0088
20.0087
20.0087
20.0086
20.0085
20.0083
20.0081
20.0079
20.0077
20.0074
20.007
20.0066
20.006
20.0054
20.0046
20.0037
20.0027
20.0016
20.0006
20.4137
20.4145
20.4155
20.4164
20.4171
20.4178
20.4184
20.4188
20.4192
20.4196
20.4198
20.42
20.4202
20.4204
20.4205
20.4206
20.4207
20.4208
20.4208
20.4209
20.4209
20.421
20.421
20.421
20.421
20.4211
20.4211
20.4211
20.4211
20.4211
20.4211
20.4211
20.4211
20.4211
20.4211
20.421
20.421
20.421
20.421
20.4209
20.4209
20.4208
20.4208
20.4207
20.4206
20.4205
20.4204
20.4202
20.42
20.4198
20.4196
20.4192
20.4188
20.4184
20.4178
20.4171
20.4164
20.4155
20.4145
20.4137
20.7676
20.7683
20.7691
20.7699
20.7705
20.7711
20.7715
20.7719
20.7722
20.7725
20.7727
20.7729
20.7731
20.7732
20.7733
20.7734
20.7735
20.7736
20.7736
20.7737
20.7737
20.7738
20.7738
20.7738
20.7738
20.7738
20.7738
20.7739
20.7739
20.7739
20.7739
20.7739
20.7739
20.7738
20.7738
20.7738
20.7738
20.7738
20.7738
20.7737
20.7737
20.7736
20.7736
20.7735
20.7734
20.7733
20.7732
20.7731
20.7729
20.7727
20.7725
20.7722
20.7719
20.7715
20.7711
20.7705
20.7699
20.7691
20.7683
20.7676
21.0601
21.0607
21.0613
21.0619
21.0624
21.0628
21.0632
21.0635
21.0638
21.064
21.0642
21.0643
21.0645
21.0646
21.0647
21.0648
21.0648
21.0649
21.0649
21.065
21.065
21.065
21.0651
21.0651
21.0651
21.0651
21.0651
21.0651
21.0651
21.0651
21.0651
21.0651
21.0651
21.0651
21.0651
21.0651
21.0651
21.0651
21.065
21.065
21.065
21.0649
21.0649
21.0648
21.0648
21.0647
21.0646
21.0645
21.0643
21.0642
21.064
21.0638
21.0635
21.0632
21.0628
21.0624
21.0619
21.0613
21.0607
21.0601
21.2946
21.2949
21.2954
21.2958
21.2962
21.2965
21.2968
21.2971
21.2973
21.2975
21.2976
21.2977
21.2978
21.2979
21.298
21.2981
21.2981
21.2982
21.2982
21.2983
21.2983
21.2983
21.2984
21.2984
21.2984
21.2984
21.2984
21.2984
21.2984
21.2984
21.2984
21.2984
21.2984
21.2984
21.2984
21.2984
21.2984
21.2984
21.2983
21.2983
21.2983
21.2982
21.2982
21.2981
21.2981
21.298
21.2979
21.2978
21.2977
21.2976
21.2975
21.2973
21.2971
21.2968
21.2965
21.2962
21.2958
21.2954
21.2949
21.2946
21.4795
21.4797
21.4801
21.4804
21.4806
21.4809
21.4811
21.4813
21.4815
21.4816
21.4817
21.4818
21.4819
21.482
21.482
21.4821
21.4822
21.4822
21.4822
21.4823
21.4823
21.4823
21.4823
21.4824
21.4824
21.4824
21.4824
21.4824
21.4824
21.4824
21.4824
21.4824
21.4824
21.4824
21.4824
21.4824
21.4824
21.4823
21.4823
21.4823
21.4823
21.4822
21.4822
21.4822
21.4821
21.482
21.482
21.4819
21.4818
21.4817
21.4816
21.4815
21.4813
21.4811
21.4809
21.4806
21.4804
21.4801
21.4797
21.4795
21.6259
21.6261
21.6263
21.6265
21.6268
21.6269
21.6271
21.6272
21.6274
21.6275
21.6276
21.6277
21.6277
21.6278
21.6278
21.6279
21.6279
21.628
21.628
21.6281
21.6281
21.6281
21.6281
21.6281
21.6282
21.6282
21.6282
21.6282
21.6282
21.6282
21.6282
21.6282
21.6282
21.6282
21.6282
21.6282
21.6281
21.6281
21.6281
21.6281
21.6281
21.628
21.628
21.6279
21.6279
21.6278
21.6278
21.6277
21.6277
21.6276
21.6275
21.6274
21.6272
21.6271
21.6269
21.6268
21.6265
21.6263
21.6261
21.6259
21.7445
21.7446
21.7448
21.7449
21.7451
21.7452
21.7453
21.7455
21.7455
21.7456
21.7457
21.7458
21.7459
21.7459
21.746
21.746
21.746
21.7461
21.7461
21.7461
21.7462
21.7462
21.7462
21.7462
21.7462
21.7463
21.7463
21.7463
21.7463
21.7463
21.7463
21.7463
21.7463
21.7463
21.7463
21.7462
21.7462
21.7462
21.7462
21.7462
21.7461
21.7461
21.7461
21.746
21.746
21.746
21.7459
21.7459
21.7458
21.7457
21.7456
21.7455
21.7455
21.7453
21.7452
21.7451
21.7449
21.7448
21.7446
21.7445
21.8435
21.8436
21.8437
21.8438
21.8439
21.844
21.8441
21.8442
21.8443
21.8444
21.8444
21.8445
21.8446
21.8446
21.8447
21.8447
21.8447
21.8448
21.8448
21.8448
21.8449
21.8449
21.8449
21.8449
21.8449
21.8449
21.845
21.845
21.845
21.845
21.845
21.845
21.845
21.845
21.8449
21.8449
21.8449
21.8449
21.8449
21.8449
21.8448
21.8448
21.8448
21.8447
21.8447
21.8447
21.8446
21.8446
21.8445
21.8444
21.8444
21.8443
21.8442
21.8441
21.844
21.8439
21.8438
21.8437
21.8436
21.8435
21.9288
21.9288
21.9289
21.929
21.9291
21.9292
21.9292
21.9293
21.9294
21.9294
21.9295
21.9296
21.9296
21.9297
21.9297
21.9297
21.9298
21.9298
21.9299
21.9299
21.9299
21.9299
21.9299
21.93
21.93
21.93
21.93
21.93
21.93
21.93
21.93
21.93
21.93
21.93
21.93
21.93
21.93
21.9299
21.9299
21.9299
21.9299
21.9299
21.9298
21.9298
21.9297
21.9297
21.9297
21.9296
21.9296
21.9295
21.9294
21.9294
21.9293
21.9292
21.9292
21.9291
21.929
21.9289
21.9288
21.9288
22.0042
22.0042
22.0042
22.0043
22.0044
22.0044
22.0045
22.0046
22.0046
22.0047
22.0047
22.0048
22.0048
22.0049
22.0049
22.005
22.005
22.005
22.0051
22.0051
22.0051
22.0051
22.0052
22.0052
22.0052
22.0052
22.0052
22.0052
22.0052
22.0052
22.0052
22.0052
22.0052
22.0052
22.0052
22.0052
22.0052
22.0052
22.0051
22.0051
22.0051
22.0051
22.005
22.005
22.005
22.0049
22.0049
22.0048
22.0048
22.0047
22.0047
22.0046
22.0046
22.0045
22.0044
22.0044
22.0043
22.0042
22.0042
22.0042
22.0721
22.0722
22.0722
22.0722
22.0723
22.0723
22.0724
22.0724
22.0725
22.0725
22.0726
22.0726
22.0727
22.0727
22.0728
22.0728
22.0729
22.0729
22.0729
22.0729
22.073
22.073
22.073
22.073
22.073
22.0731
22.0731
22.0731
22.0731
22.0731
22.0731
22.0731
22.0731
22.0731
22.0731
22.073
22.073
22.073
22.073
22.073
22.0729
22.0729
22.0729
22.0729
22.0728
22.0728
22.0727
22.0727
22.0726
22.0726
22.0725
22.0725
22.0724
22.0724
22.0723
22.0723
22.0722
22.0722
22.0722
22.0721
22.1344
22.1344
22.1344
22.1344
22.1345
22.1345
22.1346
22.1346
22.1346
22.1347
22.1347
22.1348
22.1348
22.1349
22.1349
22.135
22.135
22.135
22.1351
22.1351
22.1351
22.1351
22.1352
22.1352
22.1352
22.1352
22.1352
22.1352
22.1352
22.1352
22.1352
22.1352
22.1352
22.1352
22.1352
22.1352
22.1352
22.1352
22.1351
22.1351
22.1351
22.1351
22.135
22.135
22.135
22.1349
22.1349
22.1348
22.1348
22.1347
22.1347
22.1346
22.1346
22.1346
22.1345
22.1345
22.1344
22.1344
22.1344
22.1344
22.192
22.192
22.192
22.192
22.1921
22.1921
22.1921
22.1922
22.1922
22.1923
22.1923
22.1924
22.1924
22.1924
22.1925
22.1925
22.1926
22.1926
22.1926
22.1927
22.1927
22.1927
22.1927
22.1927
22.1928
22.1928
22.1928
22.1928
22.1928
22.1928
22.1928
22.1928
22.1928
22.1928
22.1928
22.1928
22.1927
22.1927
22.1927
22.1927
22.1927
22.1926
22.1926
22.1926
22.1925
22.1925
22.1924
22.1924
22.1924
22.1923
22.1923
22.1922
22.1922
22.1921
22.1921
22.1921
22.192
22.192
22.192
22.192
22.2459
22.2459
22.2459
22.2459
22.2459
22.246
22.246
22.246
22.2461
22.2461
22.2462
22.2462
22.2462
22.2463
22.2463
22.2464
22.2464
22.2464
22.2465
22.2465
22.2465
22.2465
22.2466
22.2466
22.2466
22.2466
22.2466
22.2466
22.2466
22.2466
22.2466
22.2466
22.2466
22.2466
22.2466
22.2466
22.2466
22.2466
22.2465
22.2465
22.2465
22.2465
22.2464
22.2464
22.2464
22.2463
22.2463
22.2462
22.2462
22.2462
22.2461
22.2461
22.246
22.246
22.246
22.2459
22.2459
22.2459
22.2459
22.2459
22.2967
22.2967
22.2967
22.2967
22.2967
22.2967
22.2967
22.2968
22.2968
22.2969
22.2969
22.2969
22.297
22.297
22.2971
22.2971
22.2971
22.2972
22.2972
22.2972
22.2973
22.2973
22.2973
22.2973
22.2973
22.2973
22.2974
22.2974
22.2974
22.2974
22.2974
22.2974
22.2974
22.2974
22.2973
22.2973
22.2973
22.2973
22.2973
22.2973
22.2972
22.2972
22.2972
22.2971
22.2971
22.2971
22.297
22.297
22.2969
22.2969
22.2969
22.2968
22.2968
22.2967
22.2967
22.2967
22.2967
22.2967
22.2967
22.2967
22.3448
22.3448
22.3448
22.3448
22.3448
22.3448
22.3449
22.3449
22.3449
22.345
22.345
22.3451
22.3451
22.3451
22.3452
22.3452
22.3453
22.3453
22.3453
22.3454
22.3454
22.3454
22.3454
22.3454
22.3455
22.3455
22.3455
22.3455
22.3455
22.3455
22.3455
22.3455
22.3455
22.3455
22.3455
22.3455
22.3454
22.3454
22.3454
22.3454
22.3454
22.3453
22.3453
22.3453
22.3452
22.3452
22.3451
22.3451
22.3451
22.345
22.345
22.3449
22.3449
22.3449
22.3448
22.3448
22.3448
22.3448
22.3448
22.3448
22.3907
22.3907
22.3907
22.3907
22.3907
22.3907
22.3908
22.3908
22.3908
22.3909
22.3909
22.3909
22.391
22.391
22.3911
22.3911
22.3911
22.3912
22.3912
22.3912
22.3913
22.3913
22.3913
22.3913
22.3914
22.3914
22.3914
22.3914
22.3914
22.3914
22.3914
22.3914
22.3914
22.3914
22.3914
22.3914
22.3913
22.3913
22.3913
22.3913
22.3912
22.3912
22.3912
22.3911
22.3911
22.3911
22.391
22.391
22.3909
22.3909
22.3909
22.3908
22.3908
22.3908
22.3907
22.3907
22.3907
22.3907
22.3907
22.3907
22.4347
22.4347
22.4347
22.4347
22.4347
22.4347
22.4348
22.4348
22.4348
22.4349
22.4349
22.4349
22.435
22.435
22.4351
22.4351
22.4351
22.4352
22.4352
22.4352
22.4353
22.4353
22.4353
22.4353
22.4353
22.4354
22.4354
22.4354
22.4354
22.4354
22.4354
22.4354
22.4354
22.4354
22.4354
22.4353
22.4353
22.4353
22.4353
22.4353
22.4352
22.4352
22.4352
22.4351
22.4351
22.4351
22.435
22.435
22.4349
22.4349
22.4349
22.4348
22.4348
22.4348
22.4347
22.4347
22.4347
22.4347
22.4347
22.4347
22.4771
22.4771
22.477
22.477
22.477
22.4771
22.4771
22.4771
22.4771
22.4772
22.4772
22.4773
22.4773
22.4773
22.4774
22.4774
22.4775
22.4775
22.4775
22.4776
22.4776
22.4776
22.4776
22.4777
22.4777
22.4777
22.4777
22.4777
22.4777
22.4777
22.4777
22.4777
22.4777
22.4777
22.4777
22.4777
22.4777
22.4776
22.4776
22.4776
22.4776
22.4775
22.4775
22.4775
22.4774
22.4774
22.4773
22.4773
22.4773
22.4772
22.4772
22.4771
22.4771
22.4771
22.4771
22.477
22.477
22.477
22.4771
22.4771
22.518
22.518
22.5179
22.5179
22.5179
22.518
22.518
22.518
22.518
22.5181
22.5181
22.5181
22.5182
22.5182
22.5183
22.5183
22.5184
22.5184
22.5184
22.5185
22.5185
22.5185
22.5185
22.5186
22.5186
22.5186
22.5186
22.5186
22.5186
22.5186
22.5186
22.5186
22.5186
22.5186
22.5186
22.5186
22.5186
22.5185
22.5185
22.5185
22.5185
22.5184
22.5184
22.5184
22.5183
22.5183
22.5182
22.5182
22.5181
22.5181
22.5181
22.518
22.518
22.518
22.518
22.5179
22.5179
22.5179
22.518
22.518
22.5576
22.5576
22.5576
22.5576
22.5576
22.5576
22.5576
22.5576
22.5577
22.5577
22.5577
22.5578
22.5578
22.5579
22.5579
22.558
22.558
22.558
22.5581
22.5581
22.5581
22.5582
22.5582
22.5582
22.5582
22.5582
22.5583
22.5583
22.5583
22.5583
22.5583
22.5583
22.5583
22.5583
22.5582
22.5582
22.5582
22.5582
22.5582
22.5581
22.5581
22.5581
22.558
22.558
22.558
22.5579
22.5579
22.5578
22.5578
22.5577
22.5577
22.5577
22.5576
22.5576
22.5576
22.5576
22.5576
22.5576
22.5576
22.5576
22.5961
22.5961
22.5961
22.5961
22.5961
22.5961
22.5961
22.5962
22.5962
22.5962
22.5963
22.5963
22.5964
22.5964
22.5964
22.5965
22.5965
22.5966
22.5966
22.5966
22.5967
22.5967
22.5967
22.5967
22.5968
22.5968
22.5968
22.5968
22.5968
22.5968
22.5968
22.5968
22.5968
22.5968
22.5968
22.5968
22.5967
22.5967
22.5967
22.5967
22.5966
22.5966
22.5966
22.5965
22.5965
22.5964
22.5964
22.5964
22.5963
22.5963
22.5962
22.5962
22.5962
22.5961
22.5961
22.5961
22.5961
22.5961
22.5961
22.5961
22.6337
22.6337
22.6337
22.6337
22.6337
22.6337
22.6337
22.6337
22.6338
22.6338
22.6338
22.6339
22.6339
22.634
22.634
22.6341
22.6341
22.6341
22.6342
22.6342
22.6342
22.6343
22.6343
22.6343
22.6343
22.6344
22.6344
22.6344
22.6344
22.6344
22.6344
22.6344
22.6344
22.6344
22.6344
22.6343
22.6343
22.6343
22.6343
22.6342
22.6342
22.6342
22.6341
22.6341
22.6341
22.634
22.634
22.6339
22.6339
22.6338
22.6338
22.6338
22.6337
22.6337
22.6337
22.6337
22.6337
22.6337
22.6337
22.6337
22.6704
22.6704
22.6704
22.6704
22.6704
22.6704
22.6704
22.6704
22.6705
22.6705
22.6705
22.6706
22.6706
22.6707
22.6707
22.6708
22.6708
22.6709
22.6709
22.6709
22.671
22.671
22.671
22.671
22.6711
22.6711
22.6711
22.6711
22.6711
22.6711
22.6711
22.6711
22.6711
22.6711
22.6711
22.6711
22.671
22.671
22.671
22.671
22.6709
22.6709
22.6709
22.6708
22.6708
22.6707
22.6707
22.6706
22.6706
22.6705
22.6705
22.6705
22.6704
22.6704
22.6704
22.6704
22.6704
22.6704
22.6704
22.6704
22.7064
22.7064
22.7064
22.7063
22.7063
22.7064
22.7064
22.7064
22.7064
22.7065
22.7065
22.7066
22.7066
22.7066
22.7067
22.7067
22.7068
22.7068
22.7069
22.7069
22.7069
22.707
22.707
22.707
22.707
22.7071
22.7071
22.7071
22.7071
22.7071
22.7071
22.7071
22.7071
22.7071
22.7071
22.707
22.707
22.707
22.707
22.7069
22.7069
22.7069
22.7068
22.7068
22.7067
22.7067
22.7066
22.7066
22.7066
22.7065
22.7065
22.7064
22.7064
22.7064
22.7064
22.7063
22.7063
22.7064
22.7064
22.7064
22.7417
22.7417
22.7416
22.7416
22.7416
22.7417
22.7417
22.7417
22.7417
22.7418
22.7418
22.7419
22.7419
22.7419
22.742
22.742
22.7421
22.7421
22.7422
22.7422
22.7422
22.7423
22.7423
22.7423
22.7424
22.7424
22.7424
22.7424
22.7424
22.7424
22.7424
22.7424
22.7424
22.7424
22.7424
22.7424
22.7423
22.7423
22.7423
22.7422
22.7422
22.7422
22.7421
22.7421
22.742
22.742
22.7419
22.7419
22.7419
22.7418
22.7418
22.7417
22.7417
22.7417
22.7417
22.7416
22.7416
22.7416
22.7417
22.7417
22.7764
22.7764
22.7764
22.7764
22.7764
22.7764
22.7764
22.7764
22.7764
22.7765
22.7765
22.7766
22.7766
22.7767
22.7767
22.7768
22.7768
22.7769
22.7769
22.7769
22.777
22.777
22.777
22.7771
22.7771
22.7771
22.7771
22.7771
22.7771
22.7771
22.7771
22.7771
22.7771
22.7771
22.7771
22.7771
22.7771
22.777
22.777
22.777
22.7769
22.7769
22.7769
22.7768
22.7768
22.7767
22.7767
22.7766
22.7766
22.7765
22.7765
22.7764
22.7764
22.7764
22.7764
22.7764
22.7764
22.7764
22.7764
22.7764
22.8106
22.8106
22.8106
22.8106
22.8106
22.8106
22.8106
22.8106
22.8107
22.8107
22.8107
22.8108
22.8108
22.8109
22.8109
22.811