/*--------------------------------*- C++ -*----------------------------------*\
| =========                 |                                                 |
| \\      /  F ield         | foam-extend: Open Source CFD                    |
|  \\    /   O peration     | Version:     4.0                                |
|   \\  /    A nd           | Web:         http://www.foam-extend.org         |
|    \\/     M anipulation  |                                                 |
\*---------------------------------------------------------------------------*/
FoamFile
{
    version     2.0;
    format      ascii;
    class       volScalarField;
    location    "1790";
    object      cMinus;
}
// * * * * * * * * * * * * * * * * * * * * * * * * * * * * * * * * * * * * * //

dimensions      [0 0 0 0 0 0 0];

internalField   nonuniform List<scalar> 
6960
(
1.08091e-23
1.08152e-23
1.0816e-23
1.08159e-23
1.08155e-23
1.0815e-23
1.08147e-23
1.08143e-23
1.08141e-23
1.08139e-23
1.08137e-23
1.08136e-23
1.08135e-23
1.08134e-23
1.08134e-23
1.08134e-23
1.08134e-23
1.08134e-23
1.08134e-23
1.08135e-23
1.08135e-23
1.08135e-23
1.08136e-23
1.08136e-23
1.08136e-23
1.08136e-23
1.08137e-23
1.08137e-23
1.08137e-23
1.08137e-23
1.08137e-23
1.08137e-23
1.08137e-23
1.08137e-23
1.08136e-23
1.08136e-23
1.08136e-23
1.08136e-23
1.08135e-23
1.08135e-23
1.08135e-23
1.08134e-23
1.08134e-23
1.08134e-23
1.08134e-23
1.08134e-23
1.08134e-23
1.08135e-23
1.08136e-23
1.08137e-23
1.08139e-23
1.08141e-23
1.08143e-23
1.08147e-23
1.0815e-23
1.08155e-23
1.08159e-23
1.0816e-23
1.08152e-23
1.08091e-23
4.27347e-23
4.27605e-23
4.27661e-23
4.27676e-23
4.27682e-23
4.27684e-23
4.27687e-23
4.2769e-23
4.27695e-23
4.277e-23
4.27705e-23
4.27711e-23
4.27718e-23
4.27724e-23
4.2773e-23
4.27736e-23
4.27742e-23
4.27748e-23
4.27753e-23
4.27758e-23
4.27762e-23
4.27766e-23
4.2777e-23
4.27773e-23
4.27776e-23
4.27778e-23
4.2778e-23
4.27782e-23
4.27783e-23
4.27783e-23
4.27783e-23
4.27783e-23
4.27782e-23
4.2778e-23
4.27778e-23
4.27776e-23
4.27773e-23
4.2777e-23
4.27766e-23
4.27762e-23
4.27758e-23
4.27753e-23
4.27748e-23
4.27742e-23
4.27736e-23
4.2773e-23
4.27724e-23
4.27718e-23
4.27711e-23
4.27705e-23
4.277e-23
4.27695e-23
4.2769e-23
4.27687e-23
4.27684e-23
4.27682e-23
4.27676e-23
4.27661e-23
4.27605e-23
4.27347e-23
1.2259e-22
1.2267e-22
1.22693e-22
1.22705e-22
1.22713e-22
1.2272e-22
1.22727e-22
1.22733e-22
1.22739e-22
1.22745e-22
1.22751e-22
1.22756e-22
1.22761e-22
1.22766e-22
1.2277e-22
1.22774e-22
1.22777e-22
1.22781e-22
1.22784e-22
1.22786e-22
1.22789e-22
1.22791e-22
1.22793e-22
1.22794e-22
1.22796e-22
1.22797e-22
1.22798e-22
1.22798e-22
1.22799e-22
1.22799e-22
1.22799e-22
1.22799e-22
1.22798e-22
1.22798e-22
1.22797e-22
1.22796e-22
1.22794e-22
1.22793e-22
1.22791e-22
1.22789e-22
1.22786e-22
1.22784e-22
1.22781e-22
1.22777e-22
1.22774e-22
1.2277e-22
1.22766e-22
1.22761e-22
1.22756e-22
1.22751e-22
1.22745e-22
1.22739e-22
1.22733e-22
1.22727e-22
1.2272e-22
1.22713e-22
1.22705e-22
1.22693e-22
1.2267e-22
1.2259e-22
3.22886e-22
3.23114e-22
3.23196e-22
3.23248e-22
3.23292e-22
3.23331e-22
3.23366e-22
3.234e-22
3.23431e-22
3.2346e-22
3.23486e-22
3.23511e-22
3.23534e-22
3.23554e-22
3.23573e-22
3.2359e-22
3.23605e-22
3.23619e-22
3.23631e-22
3.23642e-22
3.23652e-22
3.2366e-22
3.23668e-22
3.23674e-22
3.23679e-22
3.23683e-22
3.23687e-22
3.23689e-22
3.23691e-22
3.23692e-22
3.23692e-22
3.23691e-22
3.23689e-22
3.23687e-22
3.23683e-22
3.23679e-22
3.23674e-22
3.23668e-22
3.2366e-22
3.23652e-22
3.23642e-22
3.23631e-22
3.23619e-22
3.23605e-22
3.2359e-22
3.23573e-22
3.23554e-22
3.23534e-22
3.23511e-22
3.23486e-22
3.2346e-22
3.23431e-22
3.234e-22
3.23366e-22
3.23331e-22
3.23292e-22
3.23248e-22
3.23196e-22
3.23114e-22
3.22886e-22
8.35036e-22
8.35675e-22
8.3595e-22
8.36149e-22
8.36322e-22
8.3648e-22
8.36625e-22
8.36759e-22
8.36882e-22
8.36996e-22
8.37101e-22
8.37196e-22
8.37282e-22
8.3736e-22
8.37431e-22
8.37494e-22
8.37551e-22
8.37601e-22
8.37646e-22
8.37685e-22
8.3772e-22
8.3775e-22
8.37776e-22
8.37798e-22
8.37816e-22
8.37831e-22
8.37843e-22
8.37852e-22
8.37858e-22
8.37861e-22
8.37861e-22
8.37858e-22
8.37852e-22
8.37843e-22
8.37831e-22
8.37816e-22
8.37798e-22
8.37776e-22
8.3775e-22
8.3772e-22
8.37685e-22
8.37646e-22
8.37601e-22
8.37551e-22
8.37494e-22
8.37431e-22
8.3736e-22
8.37282e-22
8.37196e-22
8.37101e-22
8.36996e-22
8.36882e-22
8.36759e-22
8.36625e-22
8.3648e-22
8.36322e-22
8.36149e-22
8.3595e-22
8.35675e-22
8.35036e-22
2.17434e-21
2.17614e-21
2.17703e-21
2.17773e-21
2.17835e-21
2.17892e-21
2.17944e-21
2.17992e-21
2.18037e-21
2.18077e-21
2.18114e-21
2.18148e-21
2.18178e-21
2.18205e-21
2.1823e-21
2.18252e-21
2.18271e-21
2.18289e-21
2.18304e-21
2.18317e-21
2.18329e-21
2.18339e-21
2.18348e-21
2.18355e-21
2.18361e-21
2.18366e-21
2.1837e-21
2.18373e-21
2.18375e-21
2.18376e-21
2.18376e-21
2.18375e-21
2.18373e-21
2.1837e-21
2.18366e-21
2.18361e-21
2.18355e-21
2.18348e-21
2.18339e-21
2.18329e-21
2.18317e-21
2.18304e-21
2.18289e-21
2.18271e-21
2.18252e-21
2.1823e-21
2.18205e-21
2.18178e-21
2.18148e-21
2.18114e-21
2.18077e-21
2.18037e-21
2.17992e-21
2.17944e-21
2.17892e-21
2.17835e-21
2.17773e-21
2.17703e-21
2.17614e-21
2.17434e-21
5.75929e-21
5.76444e-21
5.76728e-21
5.76962e-21
5.77174e-21
5.77369e-21
5.77549e-21
5.77714e-21
5.77865e-21
5.78003e-21
5.78128e-21
5.78241e-21
5.78343e-21
5.78435e-21
5.78516e-21
5.78589e-21
5.78654e-21
5.78712e-21
5.78762e-21
5.78806e-21
5.78845e-21
5.78878e-21
5.78907e-21
5.78931e-21
5.78951e-21
5.78967e-21
5.7898e-21
5.7899e-21
5.78996e-21
5.78999e-21
5.78999e-21
5.78996e-21
5.7899e-21
5.7898e-21
5.78967e-21
5.78951e-21
5.78931e-21
5.78907e-21
5.78878e-21
5.78845e-21
5.78806e-21
5.78762e-21
5.78712e-21
5.78654e-21
5.78589e-21
5.78516e-21
5.78435e-21
5.78343e-21
5.78241e-21
5.78128e-21
5.78003e-21
5.77865e-21
5.77714e-21
5.77549e-21
5.77369e-21
5.77174e-21
5.76962e-21
5.76728e-21
5.76444e-21
5.75929e-21
1.55857e-20
1.56007e-20
1.56097e-20
1.56174e-20
1.56245e-20
1.5631e-20
1.5637e-20
1.56425e-20
1.56476e-20
1.56521e-20
1.56563e-20
1.566e-20
1.56634e-20
1.56664e-20
1.56691e-20
1.56715e-20
1.56736e-20
1.56755e-20
1.56772e-20
1.56786e-20
1.56799e-20
1.56809e-20
1.56819e-20
1.56826e-20
1.56833e-20
1.56838e-20
1.56842e-20
1.56845e-20
1.56848e-20
1.56849e-20
1.56849e-20
1.56848e-20
1.56845e-20
1.56842e-20
1.56838e-20
1.56833e-20
1.56826e-20
1.56819e-20
1.56809e-20
1.56799e-20
1.56786e-20
1.56772e-20
1.56755e-20
1.56736e-20
1.56715e-20
1.56691e-20
1.56664e-20
1.56634e-20
1.566e-20
1.56563e-20
1.56521e-20
1.56476e-20
1.56425e-20
1.5637e-20
1.5631e-20
1.56245e-20
1.56174e-20
1.56097e-20
1.56007e-20
1.55857e-20
4.31759e-20
4.32204e-20
4.32492e-20
4.32746e-20
4.32979e-20
4.33195e-20
4.33393e-20
4.33576e-20
4.33742e-20
4.33893e-20
4.34029e-20
4.34153e-20
4.34263e-20
4.34362e-20
4.3445e-20
4.34529e-20
4.34598e-20
4.34659e-20
4.34713e-20
4.3476e-20
4.34801e-20
4.34836e-20
4.34866e-20
4.34891e-20
4.34913e-20
4.3493e-20
4.34943e-20
4.34953e-20
4.34959e-20
4.34963e-20
4.34963e-20
4.34959e-20
4.34953e-20
4.34943e-20
4.3493e-20
4.34913e-20
4.34891e-20
4.34866e-20
4.34836e-20
4.34801e-20
4.3476e-20
4.34713e-20
4.34659e-20
4.34598e-20
4.34529e-20
4.3445e-20
4.34362e-20
4.34263e-20
4.34153e-20
4.34029e-20
4.33893e-20
4.33742e-20
4.33576e-20
4.33393e-20
4.33195e-20
4.32979e-20
4.32746e-20
4.32492e-20
4.32204e-20
4.31759e-20
1.22551e-19
1.22686e-19
1.22779e-19
1.22862e-19
1.22939e-19
1.23011e-19
1.23076e-19
1.23137e-19
1.23192e-19
1.23242e-19
1.23287e-19
1.23327e-19
1.23364e-19
1.23396e-19
1.23425e-19
1.23451e-19
1.23474e-19
1.23494e-19
1.23511e-19
1.23527e-19
1.2354e-19
1.23552e-19
1.23561e-19
1.2357e-19
1.23577e-19
1.23582e-19
1.23587e-19
1.2359e-19
1.23592e-19
1.23593e-19
1.23593e-19
1.23592e-19
1.2359e-19
1.23587e-19
1.23582e-19
1.23577e-19
1.2357e-19
1.23561e-19
1.23552e-19
1.2354e-19
1.23527e-19
1.23511e-19
1.23494e-19
1.23474e-19
1.23451e-19
1.23425e-19
1.23396e-19
1.23364e-19
1.23327e-19
1.23287e-19
1.23242e-19
1.23192e-19
1.23137e-19
1.23076e-19
1.23011e-19
1.22939e-19
1.22862e-19
1.22779e-19
1.22686e-19
1.22551e-19
3.56586e-19
3.57004e-19
3.57307e-19
3.57583e-19
3.5784e-19
3.58079e-19
3.58298e-19
3.58499e-19
3.58682e-19
3.58848e-19
3.58999e-19
3.59134e-19
3.59255e-19
3.59363e-19
3.59459e-19
3.59544e-19
3.59619e-19
3.59686e-19
3.59744e-19
3.59794e-19
3.59838e-19
3.59876e-19
3.59909e-19
3.59936e-19
3.59959e-19
3.59977e-19
3.59991e-19
3.60002e-19
3.60009e-19
3.60012e-19
3.60012e-19
3.60009e-19
3.60002e-19
3.59991e-19
3.59977e-19
3.59959e-19
3.59936e-19
3.59909e-19
3.59876e-19
3.59838e-19
3.59794e-19
3.59744e-19
3.59686e-19
3.59619e-19
3.59544e-19
3.59459e-19
3.59363e-19
3.59255e-19
3.59134e-19
3.58999e-19
3.58848e-19
3.58682e-19
3.58499e-19
3.58298e-19
3.58079e-19
3.5784e-19
3.57583e-19
3.57307e-19
3.57004e-19
3.56586e-19
1.06392e-18
1.06524e-18
1.06624e-18
1.06717e-18
1.06804e-18
1.06884e-18
1.06958e-18
1.07026e-18
1.07088e-18
1.07143e-18
1.07194e-18
1.07239e-18
1.0728e-18
1.07316e-18
1.07349e-18
1.07377e-18
1.07402e-18
1.07425e-18
1.07444e-18
1.07461e-18
1.07476e-18
1.07488e-18
1.07499e-18
1.07508e-18
1.07516e-18
1.07522e-18
1.07527e-18
1.0753e-18
1.07533e-18
1.07534e-18
1.07534e-18
1.07533e-18
1.0753e-18
1.07527e-18
1.07522e-18
1.07516e-18
1.07508e-18
1.07499e-18
1.07488e-18
1.07476e-18
1.07461e-18
1.07444e-18
1.07425e-18
1.07402e-18
1.07377e-18
1.07349e-18
1.07316e-18
1.0728e-18
1.07239e-18
1.07194e-18
1.07143e-18
1.07088e-18
1.07026e-18
1.06958e-18
1.06884e-18
1.06804e-18
1.06717e-18
1.06624e-18
1.06524e-18
1.06392e-18
3.25548e-18
3.25977e-18
3.26315e-18
3.26631e-18
3.26927e-18
3.27202e-18
3.27455e-18
3.27686e-18
3.27897e-18
3.28088e-18
3.2826e-18
3.28415e-18
3.28553e-18
3.28677e-18
3.28787e-18
3.28884e-18
3.2897e-18
3.29046e-18
3.29112e-18
3.2917e-18
3.29219e-18
3.29262e-18
3.29299e-18
3.2933e-18
3.29356e-18
3.29376e-18
3.29393e-18
3.29404e-18
3.29412e-18
3.29416e-18
3.29416e-18
3.29412e-18
3.29404e-18
3.29393e-18
3.29376e-18
3.29356e-18
3.2933e-18
3.29299e-18
3.29262e-18
3.29219e-18
3.2917e-18
3.29112e-18
3.29046e-18
3.2897e-18
3.28884e-18
3.28787e-18
3.28677e-18
3.28553e-18
3.28415e-18
3.2826e-18
3.28088e-18
3.27897e-18
3.27686e-18
3.27455e-18
3.27202e-18
3.26927e-18
3.26631e-18
3.26315e-18
3.25977e-18
3.25548e-18
1.02167e-17
1.0231e-17
1.02425e-17
1.02535e-17
1.02638e-17
1.02733e-17
1.02821e-17
1.02901e-17
1.02974e-17
1.0304e-17
1.031e-17
1.03154e-17
1.03202e-17
1.03245e-17
1.03283e-17
1.03316e-17
1.03346e-17
1.03372e-17
1.03395e-17
1.03415e-17
1.03432e-17
1.03447e-17
1.0346e-17
1.03471e-17
1.03479e-17
1.03487e-17
1.03492e-17
1.03496e-17
1.03499e-17
1.035e-17
1.035e-17
1.03499e-17
1.03496e-17
1.03492e-17
1.03487e-17
1.03479e-17
1.03471e-17
1.0346e-17
1.03447e-17
1.03432e-17
1.03415e-17
1.03395e-17
1.03372e-17
1.03346e-17
1.03316e-17
1.03283e-17
1.03245e-17
1.03202e-17
1.03154e-17
1.031e-17
1.0304e-17
1.02974e-17
1.02901e-17
1.02821e-17
1.02733e-17
1.02638e-17
1.02535e-17
1.02425e-17
1.0231e-17
1.02167e-17
3.28837e-17
3.29319e-17
3.29724e-17
3.30109e-17
3.30472e-17
3.30809e-17
3.31119e-17
3.31403e-17
3.31661e-17
3.31895e-17
3.32106e-17
3.32295e-17
3.32464e-17
3.32615e-17
3.3275e-17
3.32868e-17
3.32973e-17
3.33065e-17
3.33145e-17
3.33215e-17
3.33276e-17
3.33328e-17
3.33373e-17
3.3341e-17
3.33441e-17
3.33466e-17
3.33486e-17
3.33501e-17
3.3351e-17
3.33515e-17
3.33515e-17
3.3351e-17
3.33501e-17
3.33486e-17
3.33466e-17
3.33441e-17
3.3341e-17
3.33373e-17
3.33328e-17
3.33276e-17
3.33215e-17
3.33145e-17
3.33065e-17
3.32973e-17
3.32868e-17
3.3275e-17
3.32615e-17
3.32464e-17
3.32295e-17
3.32106e-17
3.31895e-17
3.31661e-17
3.31403e-17
3.31119e-17
3.30809e-17
3.30472e-17
3.30109e-17
3.29724e-17
3.29319e-17
3.28837e-17
1.08531e-16
1.08698e-16
1.08842e-16
1.0898e-16
1.09111e-16
1.09232e-16
1.09344e-16
1.09446e-16
1.09538e-16
1.09622e-16
1.09698e-16
1.09766e-16
1.09827e-16
1.09881e-16
1.09929e-16
1.09972e-16
1.1001e-16
1.10043e-16
1.10072e-16
1.10097e-16
1.10118e-16
1.10137e-16
1.10153e-16
1.10166e-16
1.10178e-16
1.10187e-16
1.10194e-16
1.10199e-16
1.10202e-16
1.10204e-16
1.10204e-16
1.10202e-16
1.10199e-16
1.10194e-16
1.10187e-16
1.10178e-16
1.10166e-16
1.10153e-16
1.10137e-16
1.10118e-16
1.10097e-16
1.10072e-16
1.10043e-16
1.1001e-16
1.09972e-16
1.09929e-16
1.09881e-16
1.09827e-16
1.09766e-16
1.09698e-16
1.09622e-16
1.09538e-16
1.09446e-16
1.09344e-16
1.09232e-16
1.09111e-16
1.0898e-16
1.08842e-16
1.08698e-16
1.08531e-16
3.67199e-16
3.67793e-16
3.68317e-16
3.68823e-16
3.693e-16
3.69745e-16
3.70154e-16
3.70528e-16
3.70868e-16
3.71176e-16
3.71453e-16
3.71702e-16
3.71925e-16
3.72124e-16
3.723e-16
3.72456e-16
3.72593e-16
3.72714e-16
3.72819e-16
3.72911e-16
3.7299e-16
3.73059e-16
3.73117e-16
3.73166e-16
3.73207e-16
3.73239e-16
3.73265e-16
3.73284e-16
3.73296e-16
3.73302e-16
3.73302e-16
3.73296e-16
3.73284e-16
3.73265e-16
3.73239e-16
3.73207e-16
3.73166e-16
3.73117e-16
3.73059e-16
3.7299e-16
3.72911e-16
3.72819e-16
3.72714e-16
3.72593e-16
3.72456e-16
3.723e-16
3.72124e-16
3.71925e-16
3.71702e-16
3.71453e-16
3.71176e-16
3.70868e-16
3.70528e-16
3.70154e-16
3.69745e-16
3.693e-16
3.68823e-16
3.68317e-16
3.67793e-16
3.67199e-16
1.27303e-15
1.27519e-15
1.27713e-15
1.27902e-15
1.2808e-15
1.28246e-15
1.28399e-15
1.28538e-15
1.28665e-15
1.2878e-15
1.28884e-15
1.28977e-15
1.2906e-15
1.29134e-15
1.292e-15
1.29258e-15
1.29309e-15
1.29354e-15
1.29393e-15
1.29428e-15
1.29457e-15
1.29483e-15
1.29504e-15
1.29522e-15
1.29538e-15
1.2955e-15
1.29559e-15
1.29566e-15
1.29571e-15
1.29573e-15
1.29573e-15
1.29571e-15
1.29566e-15
1.29559e-15
1.2955e-15
1.29538e-15
1.29522e-15
1.29504e-15
1.29483e-15
1.29457e-15
1.29428e-15
1.29393e-15
1.29354e-15
1.29309e-15
1.29258e-15
1.292e-15
1.29134e-15
1.2906e-15
1.28977e-15
1.28884e-15
1.2878e-15
1.28665e-15
1.28538e-15
1.28399e-15
1.28246e-15
1.2808e-15
1.27902e-15
1.27713e-15
1.27519e-15
1.27303e-15
4.51958e-15
4.52756e-15
4.53493e-15
4.54209e-15
4.54887e-15
4.55518e-15
4.561e-15
4.56631e-15
4.57114e-15
4.57552e-15
4.57946e-15
4.58299e-15
4.58615e-15
4.58896e-15
4.59146e-15
4.59367e-15
4.59562e-15
4.59732e-15
4.59882e-15
4.60012e-15
4.60124e-15
4.60221e-15
4.60303e-15
4.60372e-15
4.60429e-15
4.60476e-15
4.60512e-15
4.60539e-15
4.60556e-15
4.60565e-15
4.60565e-15
4.60556e-15
4.60539e-15
4.60512e-15
4.60476e-15
4.60429e-15
4.60372e-15
4.60303e-15
4.60221e-15
4.60124e-15
4.60012e-15
4.59882e-15
4.59732e-15
4.59562e-15
4.59367e-15
4.59146e-15
4.58896e-15
4.58615e-15
4.58299e-15
4.57946e-15
4.57552e-15
4.57114e-15
4.56631e-15
4.561e-15
4.55518e-15
4.54887e-15
4.54209e-15
4.53493e-15
4.52756e-15
4.51958e-15
1.6418e-14
1.64482e-14
1.64766e-14
1.65043e-14
1.65306e-14
1.65551e-14
1.65776e-14
1.65982e-14
1.66169e-14
1.66339e-14
1.66491e-14
1.66628e-14
1.6675e-14
1.66859e-14
1.66956e-14
1.67042e-14
1.67117e-14
1.67183e-14
1.67241e-14
1.67291e-14
1.67334e-14
1.67372e-14
1.67404e-14
1.6743e-14
1.67453e-14
1.6747e-14
1.67484e-14
1.67495e-14
1.67501e-14
1.67505e-14
1.67505e-14
1.67501e-14
1.67495e-14
1.67484e-14
1.6747e-14
1.67453e-14
1.6743e-14
1.67404e-14
1.67372e-14
1.67334e-14
1.67291e-14
1.67241e-14
1.67183e-14
1.67117e-14
1.67042e-14
1.66956e-14
1.66859e-14
1.6675e-14
1.66628e-14
1.66491e-14
1.66339e-14
1.66169e-14
1.65982e-14
1.65776e-14
1.65551e-14
1.65306e-14
1.65043e-14
1.64766e-14
1.64482e-14
1.6418e-14
6.09597e-14
6.10766e-14
6.1188e-14
6.12972e-14
6.14008e-14
6.14973e-14
6.15862e-14
6.16674e-14
6.17412e-14
6.1808e-14
6.18682e-14
6.19221e-14
6.19704e-14
6.20133e-14
6.20514e-14
6.20851e-14
6.21147e-14
6.21408e-14
6.21635e-14
6.21833e-14
6.22004e-14
6.22151e-14
6.22276e-14
6.22382e-14
6.22469e-14
6.22539e-14
6.22594e-14
6.22635e-14
6.22661e-14
6.22675e-14
6.22675e-14
6.22661e-14
6.22635e-14
6.22594e-14
6.22539e-14
6.22469e-14
6.22382e-14
6.22276e-14
6.22151e-14
6.22004e-14
6.21833e-14
6.21635e-14
6.21408e-14
6.21147e-14
6.20851e-14
6.20514e-14
6.20133e-14
6.19704e-14
6.19221e-14
6.18682e-14
6.1808e-14
6.17412e-14
6.16674e-14
6.15862e-14
6.14973e-14
6.14008e-14
6.12972e-14
6.1188e-14
6.10766e-14
6.09597e-14
2.3104e-13
2.315e-13
2.31945e-13
2.32382e-13
2.32797e-13
2.33184e-13
2.3354e-13
2.33866e-13
2.34162e-13
2.3443e-13
2.34671e-13
2.34887e-13
2.3508e-13
2.35252e-13
2.35405e-13
2.35539e-13
2.35658e-13
2.35762e-13
2.35854e-13
2.35933e-13
2.36001e-13
2.3606e-13
2.3611e-13
2.36152e-13
2.36187e-13
2.36215e-13
2.36237e-13
2.36254e-13
2.36264e-13
2.36269e-13
2.36269e-13
2.36264e-13
2.36254e-13
2.36237e-13
2.36215e-13
2.36187e-13
2.36152e-13
2.3611e-13
2.3606e-13
2.36001e-13
2.35933e-13
2.35854e-13
2.35762e-13
2.35658e-13
2.35539e-13
2.35405e-13
2.35252e-13
2.3508e-13
2.34887e-13
2.34671e-13
2.3443e-13
2.34162e-13
2.33866e-13
2.3354e-13
2.33184e-13
2.32797e-13
2.32382e-13
2.31945e-13
2.315e-13
2.3104e-13
8.92345e-13
8.94185e-13
8.9599e-13
8.97768e-13
8.99456e-13
9.01029e-13
9.02478e-13
9.03802e-13
9.05006e-13
9.06095e-13
9.07075e-13
9.07954e-13
9.0874e-13
9.09439e-13
9.10059e-13
9.10607e-13
9.1109e-13
9.11514e-13
9.11884e-13
9.12205e-13
9.12484e-13
9.12723e-13
9.12926e-13
9.13097e-13
9.13239e-13
9.13353e-13
9.13443e-13
9.13508e-13
9.13551e-13
9.13573e-13
9.13573e-13
9.13551e-13
9.13508e-13
9.13443e-13
9.13353e-13
9.13239e-13
9.13097e-13
9.12926e-13
9.12723e-13
9.12484e-13
9.12205e-13
9.11884e-13
9.11514e-13
9.1109e-13
9.10607e-13
9.10059e-13
9.09439e-13
9.0874e-13
9.07954e-13
9.07075e-13
9.06095e-13
9.05006e-13
9.03802e-13
9.02478e-13
9.01029e-13
8.99456e-13
8.97768e-13
8.9599e-13
8.94185e-13
8.92345e-13
3.50511e-12
3.51259e-12
3.52001e-12
3.52732e-12
3.53428e-12
3.54076e-12
3.54673e-12
3.55218e-12
3.55714e-12
3.56163e-12
3.56566e-12
3.56929e-12
3.57252e-12
3.5754e-12
3.57795e-12
3.58021e-12
3.5822e-12
3.58394e-12
3.58546e-12
3.58679e-12
3.58793e-12
3.58892e-12
3.58975e-12
3.59046e-12
3.59104e-12
3.59151e-12
3.59188e-12
3.59215e-12
3.59232e-12
3.59241e-12
3.59241e-12
3.59232e-12
3.59215e-12
3.59188e-12
3.59151e-12
3.59104e-12
3.59046e-12
3.58975e-12
3.58892e-12
3.58793e-12
3.58679e-12
3.58546e-12
3.58394e-12
3.5822e-12
3.58021e-12
3.57795e-12
3.5754e-12
3.57252e-12
3.56929e-12
3.56566e-12
3.56163e-12
3.55714e-12
3.55218e-12
3.54673e-12
3.54076e-12
3.53428e-12
3.52732e-12
3.52001e-12
3.51259e-12
3.50511e-12
1.39681e-11
1.39989e-11
1.40297e-11
1.40601e-11
1.40891e-11
1.4116e-11
1.41409e-11
1.41636e-11
1.41842e-11
1.42029e-11
1.42197e-11
1.42348e-11
1.42482e-11
1.42602e-11
1.42708e-11
1.42802e-11
1.42885e-11
1.42957e-11
1.43021e-11
1.43076e-11
1.43123e-11
1.43164e-11
1.43199e-11
1.43228e-11
1.43252e-11
1.43272e-11
1.43287e-11
1.43298e-11
1.43306e-11
1.43309e-11
1.43309e-11
1.43306e-11
1.43298e-11
1.43287e-11
1.43272e-11
1.43252e-11
1.43228e-11
1.43199e-11
1.43164e-11
1.43123e-11
1.43076e-11
1.43021e-11
1.42957e-11
1.42885e-11
1.42802e-11
1.42708e-11
1.42602e-11
1.42482e-11
1.42348e-11
1.42197e-11
1.42029e-11
1.41842e-11
1.41636e-11
1.41409e-11
1.4116e-11
1.40891e-11
1.40601e-11
1.40297e-11
1.39989e-11
1.39681e-11
5.63096e-11
5.6437e-11
5.6566e-11
5.66936e-11
5.6815e-11
5.69281e-11
5.70322e-11
5.71274e-11
5.72139e-11
5.72921e-11
5.73626e-11
5.74257e-11
5.74821e-11
5.75323e-11
5.75768e-11
5.76161e-11
5.76508e-11
5.76811e-11
5.77077e-11
5.77307e-11
5.77506e-11
5.77678e-11
5.77823e-11
5.77946e-11
5.78047e-11
5.78129e-11
5.78193e-11
5.7824e-11
5.78271e-11
5.78286e-11
5.78286e-11
5.78271e-11
5.7824e-11
5.78193e-11
5.78129e-11
5.78047e-11
5.77946e-11
5.77823e-11
5.77678e-11
5.77506e-11
5.77307e-11
5.77077e-11
5.76811e-11
5.76508e-11
5.76161e-11
5.75768e-11
5.75323e-11
5.74821e-11
5.74257e-11
5.73626e-11
5.72921e-11
5.72139e-11
5.71274e-11
5.70322e-11
5.69281e-11
5.6815e-11
5.66936e-11
5.6566e-11
5.6437e-11
5.63096e-11
2.28848e-10
2.29379e-10
2.29921e-10
2.30458e-10
2.30969e-10
2.31444e-10
2.31883e-10
2.32283e-10
2.32647e-10
2.32976e-10
2.33272e-10
2.33538e-10
2.33775e-10
2.33986e-10
2.34173e-10
2.34339e-10
2.34484e-10
2.34612e-10
2.34723e-10
2.3482e-10
2.34904e-10
2.34976e-10
2.35037e-10
2.35089e-10
2.35131e-10
2.35166e-10
2.35193e-10
2.35212e-10
2.35225e-10
2.35232e-10
2.35232e-10
2.35225e-10
2.35212e-10
2.35193e-10
2.35166e-10
2.35131e-10
2.35089e-10
2.35037e-10
2.34976e-10
2.34904e-10
2.3482e-10
2.34723e-10
2.34612e-10
2.34484e-10
2.34339e-10
2.34173e-10
2.33986e-10
2.33775e-10
2.33538e-10
2.33272e-10
2.32976e-10
2.32647e-10
2.32283e-10
2.31883e-10
2.31444e-10
2.30969e-10
2.30458e-10
2.29921e-10
2.29379e-10
2.28848e-10
9.33875e-10
9.36092e-10
9.38371e-10
9.40629e-10
9.42776e-10
9.44777e-10
9.4662e-10
9.48304e-10
9.49834e-10
9.51217e-10
9.52462e-10
9.53578e-10
9.54575e-10
9.55462e-10
9.56249e-10
9.56944e-10
9.57555e-10
9.58092e-10
9.5856e-10
9.58968e-10
9.5932e-10
9.59622e-10
9.59879e-10
9.60095e-10
9.60274e-10
9.60418e-10
9.60531e-10
9.60614e-10
9.60668e-10
9.60695e-10
9.60695e-10
9.60668e-10
9.60614e-10
9.60531e-10
9.60418e-10
9.60274e-10
9.60095e-10
9.59879e-10
9.59622e-10
9.5932e-10
9.58968e-10
9.5856e-10
9.58092e-10
9.57555e-10
9.56944e-10
9.56249e-10
9.55462e-10
9.54575e-10
9.53578e-10
9.52462e-10
9.51217e-10
9.49834e-10
9.48304e-10
9.4662e-10
9.44777e-10
9.42776e-10
9.40629e-10
9.38371e-10
9.36092e-10
9.33875e-10
3.8088e-09
3.81802e-09
3.82755e-09
3.83699e-09
3.84597e-09
3.85433e-09
3.86204e-09
3.86908e-09
3.87547e-09
3.88126e-09
3.88646e-09
3.89113e-09
3.89529e-09
3.899e-09
3.90229e-09
3.90519e-09
3.90774e-09
3.90999e-09
3.91194e-09
3.91364e-09
3.91511e-09
3.91638e-09
3.91745e-09
3.91835e-09
3.9191e-09
3.9197e-09
3.92017e-09
3.92052e-09
3.92075e-09
3.92086e-09
3.92086e-09
3.92075e-09
3.92052e-09
3.92017e-09
3.9197e-09
3.9191e-09
3.91835e-09
3.91745e-09
3.91638e-09
3.91511e-09
3.91364e-09
3.91194e-09
3.90999e-09
3.90774e-09
3.90519e-09
3.90229e-09
3.899e-09
3.89529e-09
3.89113e-09
3.88646e-09
3.88126e-09
3.87547e-09
3.86908e-09
3.86204e-09
3.85433e-09
3.84597e-09
3.83699e-09
3.82755e-09
3.81802e-09
3.8088e-09
1.54424e-08
1.54804e-08
1.55198e-08
1.55588e-08
1.55959e-08
1.56305e-08
1.56624e-08
1.56915e-08
1.57179e-08
1.57418e-08
1.57633e-08
1.57826e-08
1.57998e-08
1.58151e-08
1.58287e-08
1.58406e-08
1.58512e-08
1.58605e-08
1.58685e-08
1.58756e-08
1.58816e-08
1.58868e-08
1.58913e-08
1.5895e-08
1.58981e-08
1.59006e-08
1.59025e-08
1.59039e-08
1.59049e-08
1.59053e-08
1.59053e-08
1.59049e-08
1.59039e-08
1.59025e-08
1.59006e-08
1.58981e-08
1.5895e-08
1.58913e-08
1.58868e-08
1.58816e-08
1.58756e-08
1.58685e-08
1.58605e-08
1.58512e-08
1.58406e-08
1.58287e-08
1.58151e-08
1.57998e-08
1.57826e-08
1.57633e-08
1.57418e-08
1.57179e-08
1.56915e-08
1.56624e-08
1.56305e-08
1.55959e-08
1.55588e-08
1.55198e-08
1.54804e-08
1.54424e-08
6.18592e-08
6.2013e-08
6.21731e-08
6.23316e-08
6.24823e-08
6.26227e-08
6.27519e-08
6.287e-08
6.29772e-08
6.30742e-08
6.31614e-08
6.32396e-08
6.33094e-08
6.33716e-08
6.34266e-08
6.34753e-08
6.35181e-08
6.35556e-08
6.35884e-08
6.36169e-08
6.36415e-08
6.36626e-08
6.36806e-08
6.36957e-08
6.37082e-08
6.37183e-08
6.37261e-08
6.37319e-08
6.37357e-08
6.37376e-08
6.37376e-08
6.37357e-08
6.37319e-08
6.37261e-08
6.37183e-08
6.37082e-08
6.36957e-08
6.36806e-08
6.36626e-08
6.36415e-08
6.36169e-08
6.35884e-08
6.35556e-08
6.35181e-08
6.34753e-08
6.34266e-08
6.33716e-08
6.33094e-08
6.32396e-08
6.31614e-08
6.30742e-08
6.29772e-08
6.287e-08
6.27519e-08
6.26227e-08
6.24823e-08
6.23316e-08
6.21731e-08
6.2013e-08
6.18592e-08
2.43123e-07
2.43731e-07
2.44365e-07
2.44993e-07
2.45589e-07
2.46144e-07
2.46655e-07
2.47122e-07
2.47546e-07
2.4793e-07
2.48275e-07
2.48584e-07
2.4886e-07
2.49105e-07
2.49323e-07
2.49515e-07
2.49685e-07
2.49833e-07
2.49962e-07
2.50075e-07
2.50172e-07
2.50256e-07
2.50327e-07
2.50386e-07
2.50436e-07
2.50475e-07
2.50507e-07
2.50529e-07
2.50544e-07
2.50552e-07
2.50552e-07
2.50544e-07
2.50529e-07
2.50507e-07
2.50475e-07
2.50436e-07
2.50386e-07
2.50327e-07
2.50256e-07
2.50172e-07
2.50075e-07
2.49962e-07
2.49833e-07
2.49685e-07
2.49515e-07
2.49323e-07
2.49105e-07
2.4886e-07
2.48584e-07
2.48275e-07
2.4793e-07
2.47546e-07
2.47122e-07
2.46655e-07
2.46144e-07
2.45589e-07
2.44993e-07
2.44365e-07
2.43731e-07
2.43123e-07
9.30158e-07
9.32485e-07
9.34914e-07
9.37313e-07
9.39592e-07
9.41714e-07
9.43666e-07
9.4545e-07
9.4707e-07
9.48534e-07
9.49851e-07
9.51032e-07
9.52086e-07
9.53024e-07
9.53855e-07
9.54588e-07
9.55234e-07
9.558e-07
9.56295e-07
9.56724e-07
9.57095e-07
9.57414e-07
9.57684e-07
9.57912e-07
9.581e-07
9.58253e-07
9.58371e-07
9.58458e-07
9.58516e-07
9.58544e-07
9.58544e-07
9.58516e-07
9.58458e-07
9.58371e-07
9.58253e-07
9.581e-07
9.57912e-07
9.57684e-07
9.57414e-07
9.57095e-07
9.56724e-07
9.56295e-07
9.558e-07
9.55234e-07
9.54588e-07
9.53855e-07
9.53024e-07
9.52086e-07
9.51032e-07
9.49851e-07
9.48534e-07
9.4707e-07
9.4545e-07
9.43666e-07
9.41714e-07
9.39592e-07
9.37313e-07
9.34914e-07
9.32485e-07
9.30158e-07
3.43356e-06
3.44209e-06
3.45099e-06
3.45977e-06
3.4681e-06
3.47585e-06
3.48299e-06
3.4895e-06
3.49542e-06
3.50077e-06
3.50558e-06
3.50989e-06
3.51374e-06
3.51716e-06
3.5202e-06
3.52288e-06
3.52524e-06
3.5273e-06
3.52911e-06
3.53067e-06
3.53203e-06
3.53319e-06
3.53418e-06
3.53501e-06
3.5357e-06
3.53625e-06
3.53668e-06
3.537e-06
3.53721e-06
3.53731e-06
3.53731e-06
3.53721e-06
3.537e-06
3.53668e-06
3.53625e-06
3.5357e-06
3.53501e-06
3.53418e-06
3.53319e-06
3.53203e-06
3.53067e-06
3.52911e-06
3.5273e-06
3.52524e-06
3.52288e-06
3.5202e-06
3.51716e-06
3.51374e-06
3.50989e-06
3.50558e-06
3.50077e-06
3.49542e-06
3.4895e-06
3.48299e-06
3.47585e-06
3.4681e-06
3.45977e-06
3.45099e-06
3.44209e-06
3.43356e-06
1.2108e-05
1.21376e-05
1.21685e-05
1.21988e-05
1.22276e-05
1.22544e-05
1.22791e-05
1.23016e-05
1.2322e-05
1.23405e-05
1.23571e-05
1.2372e-05
1.23853e-05
1.23971e-05
1.24076e-05
1.24168e-05
1.2425e-05
1.24321e-05
1.24383e-05
1.24437e-05
1.24484e-05
1.24524e-05
1.24558e-05
1.24587e-05
1.24611e-05
1.2463e-05
1.24645e-05
1.24656e-05
1.24663e-05
1.24666e-05
1.24666e-05
1.24663e-05
1.24656e-05
1.24645e-05
1.2463e-05
1.24611e-05
1.24587e-05
1.24558e-05
1.24524e-05
1.24484e-05
1.24437e-05
1.24383e-05
1.24321e-05
1.2425e-05
1.24168e-05
1.24076e-05
1.23971e-05
1.23853e-05
1.2372e-05
1.23571e-05
1.23405e-05
1.2322e-05
1.23016e-05
1.22791e-05
1.22544e-05
1.22276e-05
1.21988e-05
1.21685e-05
1.21376e-05
1.2108e-05
4.03379e-05
4.04341e-05
4.05339e-05
4.0632e-05
4.07249e-05
4.08113e-05
4.08908e-05
4.09634e-05
4.10293e-05
4.10888e-05
4.11423e-05
4.11903e-05
4.12331e-05
4.12712e-05
4.13049e-05
4.13347e-05
4.13609e-05
4.13839e-05
4.14039e-05
4.14213e-05
4.14364e-05
4.14493e-05
4.14603e-05
4.14695e-05
4.14771e-05
4.14833e-05
4.14881e-05
4.14916e-05
4.14939e-05
4.14951e-05
4.14951e-05
4.14939e-05
4.14916e-05
4.14881e-05
4.14833e-05
4.14771e-05
4.14695e-05
4.14603e-05
4.14493e-05
4.14364e-05
4.14213e-05
4.14039e-05
4.13839e-05
4.13609e-05
4.13347e-05
4.13049e-05
4.12712e-05
4.12331e-05
4.11903e-05
4.11423e-05
4.10888e-05
4.10293e-05
4.09634e-05
4.08908e-05
4.08113e-05
4.07249e-05
4.0632e-05
4.05339e-05
4.04341e-05
4.03379e-05
0.000125403
0.000125691
0.000125988
0.000126279
0.000126555
0.000126811
0.000127047
0.000127262
0.000127457
0.000127633
0.000127792
0.000127934
0.000128061
0.000128173
0.000128273
0.000128361
0.000128439
0.000128507
0.000128566
0.000128618
0.000128663
0.000128701
0.000128733
0.000128761
0.000128783
0.000128801
0.000128816
0.000128826
0.000128833
0.000128836
0.000128836
0.000128833
0.000128826
0.000128816
0.000128801
0.000128783
0.000128761
0.000128733
0.000128701
0.000128663
0.000128618
0.000128566
0.000128507
0.000128439
0.000128361
0.000128273
0.000128173
0.000128061
0.000127934
0.000127792
0.000127633
0.000127457
0.000127262
0.000127047
0.000126811
0.000126555
0.000126279
0.000125988
0.000125691
0.000125403
0.000358923
0.000359701
0.000360502
0.000361284
0.000362023
0.00036271
0.000363341
0.000363918
0.000364441
0.000364913
0.000365337
0.000365718
0.000366057
0.000366359
0.000366626
0.000366862
0.00036707
0.000367252
0.000367411
0.000367549
0.000367668
0.00036777
0.000367857
0.00036793
0.00036799
0.000368039
0.000368077
0.000368105
0.000368124
0.000368133
0.000368133
0.000368124
0.000368105
0.000368077
0.000368039
0.00036799
0.00036793
0.000367857
0.00036777
0.000367668
0.000367549
0.000367411
0.000367252
0.00036707
0.000366862
0.000366626
0.000366359
0.000366057
0.000365718
0.000365337
0.000364913
0.000364441
0.000363918
0.000363341
0.00036271
0.000362023
0.000361284
0.000360501
0.000359701
0.000358923
0.000932562
0.000934437
0.000936352
0.000938217
0.000939978
0.000941613
0.000943115
0.000944485
0.000945728
0.000946851
0.00094786
0.000948764
0.00094957
0.000950287
0.000950922
0.000951483
0.000951976
0.000952408
0.000952786
0.000953113
0.000953396
0.000953639
0.000953845
0.000954019
0.000954162
0.000954278
0.000954369
0.000954435
0.000954479
0.0009545
0.0009545
0.000954479
0.000954435
0.000954369
0.000954278
0.000954162
0.000954019
0.000953845
0.000953639
0.000953396
0.000953113
0.000952786
0.000952408
0.000951976
0.000951483
0.000950922
0.000950287
0.00094957
0.000948764
0.00094786
0.000946851
0.000945728
0.000944485
0.000943115
0.000941613
0.000939978
0.000938217
0.000936352
0.000934437
0.000932562
0.00217064
0.00217459
0.00217859
0.00218247
0.00218613
0.00218952
0.00219264
0.00219548
0.00219806
0.00220039
0.00220248
0.00220436
0.00220603
0.00220752
0.00220883
0.00220999
0.00221102
0.00221191
0.00221269
0.00221337
0.00221396
0.00221446
0.00221489
0.00221525
0.00221555
0.00221579
0.00221597
0.00221611
0.0022162
0.00221625
0.00221625
0.0022162
0.00221611
0.00221597
0.00221579
0.00221555
0.00221525
0.00221489
0.00221446
0.00221396
0.00221337
0.00221269
0.00221191
0.00221102
0.00220999
0.00220883
0.00220752
0.00220603
0.00220436
0.00220248
0.00220039
0.00219806
0.00219548
0.00219264
0.00218952
0.00218613
0.00218247
0.00217859
0.00217459
0.00217064
0.00448214
0.00448932
0.00449653
0.0045035
0.00451005
0.00451613
0.00452171
0.0045268
0.00453141
0.00453557
0.00453931
0.00454266
0.00454565
0.00454831
0.00455066
0.00455274
0.00455457
0.00455617
0.00455756
0.00455877
0.00455982
0.00456072
0.00456149
0.00456213
0.00456266
0.00456309
0.00456342
0.00456367
0.00456383
0.00456391
0.00456391
0.00456383
0.00456367
0.00456342
0.00456309
0.00456266
0.00456213
0.00456149
0.00456072
0.00455982
0.00455877
0.00455756
0.00455617
0.00455457
0.00455274
0.00455066
0.00454831
0.00454565
0.00454266
0.00453931
0.00453557
0.00453141
0.0045268
0.00452171
0.00451613
0.00451005
0.0045035
0.00449653
0.00448932
0.00448214
0.00818632