/*--------------------------------*- C++ -*----------------------------------*\
| =========                 |                                                 |
| \\      /  F ield         | foam-extend: Open Source CFD                    |
|  \\    /   O peration     | Version:     4.0                                |
|   \\  /    A nd           | Web:         http://www.foam-extend.org         |
|    \\/     M anipulation  |                                                 |
\*---------------------------------------------------------------------------*/
FoamFile
{
    version     2.0;
    format      ascii;
    class       volScalarField;
    location    "1790";
    object      cPlus;
}
// * * * * * * * * * * * * * * * * * * * * * * * * * * * * * * * * * * * * * //

dimensions      [0 0 0 0 0 0 0];

internalField   nonuniform List<scalar> 
6960
(
0.331325
0.331315
0.331303
0.331291
0.331279
0.331268
0.331258
0.331249
0.331241
0.331233
0.331227
0.331221
0.331215
0.331211
0.331206
0.331203
0.3312
0.331197
0.331194
0.331192
0.33119
0.331189
0.331187
0.331186
0.331185
0.331184
0.331184
0.331183
0.331183
0.331183
0.331183
0.331183
0.331183
0.331184
0.331184
0.331185
0.331186
0.331187
0.331189
0.33119
0.331192
0.331194
0.331197
0.3312
0.331203
0.331206
0.331211
0.331215
0.331221
0.331227
0.331233
0.331241
0.331249
0.331258
0.331268
0.331279
0.331291
0.331303
0.331315
0.331325
0.111389
0.111382
0.111373
0.111364
0.111355
0.111347
0.111339
0.111332
0.111326
0.11132
0.111315
0.111311
0.111307
0.111303
0.1113
0.111297
0.111295
0.111293
0.111291
0.111289
0.111288
0.111287
0.111286
0.111285
0.111284
0.111284
0.111283
0.111283
0.111283
0.111283
0.111283
0.111283
0.111283
0.111283
0.111284
0.111284
0.111285
0.111286
0.111287
0.111288
0.111289
0.111291
0.111293
0.111295
0.111297
0.1113
0.111303
0.111307
0.111311
0.111315
0.11132
0.111326
0.111332
0.111339
0.111347
0.111355
0.111364
0.111373
0.111382
0.111389
0.0444087
0.0444046
0.0443993
0.0443939
0.0443887
0.0443838
0.0443793
0.0443752
0.0443715
0.0443682
0.0443652
0.0443625
0.0443601
0.044358
0.0443562
0.0443545
0.0443531
0.0443518
0.0443507
0.0443498
0.0443489
0.0443482
0.0443476
0.0443471
0.0443467
0.0443464
0.0443461
0.0443459
0.0443458
0.0443457
0.0443457
0.0443458
0.0443459
0.0443461
0.0443464
0.0443467
0.0443471
0.0443476
0.0443482
0.0443489
0.0443498
0.0443507
0.0443518
0.0443531
0.0443545
0.0443562
0.044358
0.0443601
0.0443625
0.0443652
0.0443682
0.0443715
0.0443752
0.0443793
0.0443838
0.0443887
0.0443939
0.0443993
0.0444046
0.0444087
0.0201071
0.0201052
0.0201027
0.0201
0.0200975
0.0200951
0.0200928
0.0200908
0.020089
0.0200874
0.0200859
0.0200846
0.0200834
0.0200823
0.0200814
0.0200806
0.0200799
0.0200793
0.0200787
0.0200782
0.0200778
0.0200775
0.0200772
0.0200769
0.0200767
0.0200766
0.0200764
0.0200763
0.0200763
0.0200763
0.0200763
0.0200763
0.0200763
0.0200764
0.0200766
0.0200767
0.0200769
0.0200772
0.0200775
0.0200778
0.0200782
0.0200787
0.0200793
0.0200799
0.0200806
0.0200814
0.0200823
0.0200834
0.0200846
0.0200859
0.0200874
0.020089
0.0200908
0.0200928
0.0200951
0.0200975
0.0201
0.0201027
0.0201052
0.0201071
0.0108134
0.010813
0.0108122
0.0108112
0.0108103
0.0108095
0.0108087
0.0108079
0.0108073
0.0108067
0.0108062
0.0108057
0.0108053
0.0108049
0.0108046
0.0108043
0.010804
0.0108038
0.0108036
0.0108034
0.0108033
0.0108031
0.010803
0.0108029
0.0108029
0.0108028
0.0108028
0.0108027
0.0108027
0.0108027
0.0108027
0.0108027
0.0108027
0.0108028
0.0108028
0.0108029
0.0108029
0.010803
0.0108031
0.0108033
0.0108034
0.0108036
0.0108038
0.010804
0.0108043
0.0108046
0.0108049
0.0108053
0.0108057
0.0108062
0.0108067
0.0108073
0.0108079
0.0108087
0.0108095
0.0108103
0.0108112
0.0108122
0.010813
0.0108134
0.0072474
0.00724774
0.00724784
0.00724787
0.00724788
0.00724788
0.00724787
0.00724787
0.00724786
0.00724785
0.00724784
0.00724784
0.00724783
0.00724783
0.00724782
0.00724782
0.00724781
0.00724781
0.0072478
0.0072478
0.0072478
0.00724779
0.00724779
0.00724779
0.00724779
0.00724779
0.00724778
0.00724778
0.00724778
0.00724778
0.00724778
0.00724778
0.00724778
0.00724778
0.00724779
0.00724779
0.00724779
0.00724779
0.00724779
0.0072478
0.0072478
0.0072478
0.00724781
0.00724781
0.00724782
0.00724782
0.00724783
0.00724783
0.00724784
0.00724784
0.00724785
0.00724786
0.00724787
0.00724787
0.00724788
0.00724788
0.00724787
0.00724784
0.00724774
0.0072474
0.00591099
0.00591173
0.00591232
0.00591284
0.00591332
0.00591376
0.00591416
0.00591452
0.00591484
0.00591513
0.00591539
0.00591563
0.00591584
0.00591602
0.00591618
0.00591632
0.00591645
0.00591656
0.00591665
0.00591673
0.00591681
0.00591687
0.00591692
0.00591696
0.005917
0.00591702
0.00591705
0.00591706
0.00591707
0.00591708
0.00591708
0.00591707
0.00591706
0.00591705
0.00591702
0.005917
0.00591696
0.00591692
0.00591687
0.00591681
0.00591673
0.00591665
0.00591656
0.00591645
0.00591632
0.00591618
0.00591602
0.00591584
0.00591563
0.00591539
0.00591513
0.00591484
0.00591452
0.00591416
0.00591376
0.00591332
0.00591284
0.00591232
0.00591173
0.00591099
0.00543731
0.00543824
0.00543906
0.00543983
0.00544053
0.00544118
0.00544177
0.00544231
0.0054428
0.00544323
0.00544362
0.00544397
0.00544428
0.00544456
0.0054448
0.00544501
0.0054452
0.00544537
0.00544551
0.00544563
0.00544574
0.00544583
0.00544591
0.00544597
0.00544603
0.00544607
0.0054461
0.00544613
0.00544614
0.00544615
0.00544615
0.00544614
0.00544613
0.0054461
0.00544607
0.00544603
0.00544597
0.00544591
0.00544583
0.00544574
0.00544563
0.00544551
0.00544537
0.0054452
0.00544501
0.0054448
0.00544456
0.00544428
0.00544397
0.00544362
0.00544323
0.0054428
0.00544231
0.00544177
0.00544118
0.00544053
0.00543983
0.00543906
0.00543824
0.00543731
0.00529236
0.00529338
0.00529432
0.00529519
0.00529601
0.00529675
0.00529744
0.00529806
0.00529862
0.00529912
0.00529958
0.00529998
0.00530034
0.00530066
0.00530094
0.00530119
0.0053014
0.00530159
0.00530176
0.0053019
0.00530202
0.00530213
0.00530222
0.0053023
0.00530236
0.00530241
0.00530245
0.00530247
0.00530249
0.0053025
0.0053025
0.00530249
0.00530247
0.00530245
0.00530241
0.00530236
0.0053023
0.00530222
0.00530213
0.00530202
0.0053019
0.00530176
0.00530159
0.0053014
0.00530119
0.00530094
0.00530066
0.00530034
0.00529998
0.00529958
0.00529912
0.00529862
0.00529806
0.00529744
0.00529675
0.00529601
0.00529519
0.00529432
0.00529338
0.00529236
0.00527091
0.00527199
0.00527298
0.00527391
0.00527477
0.00527557
0.0052763
0.00527696
0.00527756
0.00527809
0.00527858
0.00527901
0.00527939
0.00527973
0.00528003
0.00528029
0.00528052
0.00528073
0.0052809
0.00528105
0.00528119
0.0052813
0.00528139
0.00528147
0.00528154
0.00528159
0.00528164
0.00528167
0.00528169
0.0052817
0.0052817
0.00528169
0.00528167
0.00528164
0.00528159
0.00528154
0.00528147
0.00528139
0.0052813
0.00528119
0.00528105
0.0052809
0.00528073
0.00528052
0.00528029
0.00528003
0.00527973
0.00527939
0.00527901
0.00527858
0.00527809
0.00527756
0.00527696
0.0052763
0.00527557
0.00527477
0.00527391
0.00527298
0.00527199
0.00527091
0.00529595
0.00529705
0.00529808
0.00529904
0.00529993
0.00530075
0.00530151
0.00530219
0.00530281
0.00530336
0.00530386
0.00530431
0.0053047
0.00530506
0.00530537
0.00530564
0.00530588
0.00530609
0.00530627
0.00530643
0.00530656
0.00530668
0.00530678
0.00530686
0.00530693
0.00530699
0.00530703
0.00530706
0.00530708
0.00530709
0.00530709
0.00530708
0.00530706
0.00530703
0.00530699
0.00530693
0.00530686
0.00530678
0.00530668
0.00530656
0.00530643
0.00530627
0.00530609
0.00530588
0.00530564
0.00530537
0.00530506
0.0053047
0.00530431
0.00530386
0.00530336
0.00530281
0.00530219
0.00530151
0.00530075
0.00529993
0.00529904
0.00529808
0.00529705
0.00529595
0.00533939
0.00534052
0.00534157
0.00534255
0.00534346
0.0053443
0.00534507
0.00534577
0.0053464
0.00534697
0.00534748
0.00534794
0.00534834
0.0053487
0.00534902
0.0053493
0.00534954
0.00534976
0.00534995
0.00535011
0.00535025
0.00535037
0.00535047
0.00535055
0.00535062
0.00535068
0.00535072
0.00535076
0.00535078
0.00535079
0.00535079
0.00535078
0.00535076
0.00535072
0.00535068
0.00535062
0.00535055
0.00535047
0.00535037
0.00535025
0.00535011
0.00534995
0.00534976
0.00534954
0.0053493
0.00534902
0.0053487
0.00534834
0.00534794
0.00534748
0.00534697
0.0053464
0.00534577
0.00534507
0.0053443
0.00534346
0.00534255
0.00534157
0.00534052
0.00533939
0.0053914
0.00539255
0.00539362
0.00539462
0.00539555
0.00539641
0.00539719
0.0053979
0.00539855
0.00539913
0.00539965
0.00540011
0.00540052
0.00540089
0.00540121
0.0054015
0.00540175
0.00540197
0.00540216
0.00540232
0.00540246
0.00540259
0.00540269
0.00540278
0.00540285
0.0054029
0.00540295
0.00540298
0.005403
0.00540302
0.00540302
0.005403
0.00540298
0.00540295
0.0054029
0.00540285
0.00540278
0.00540269
0.00540259
0.00540246
0.00540232
0.00540216
0.00540197
0.00540175
0.0054015
0.00540121
0.00540089
0.00540052
0.00540011
0.00539965
0.00539913
0.00539855
0.0053979
0.00539719
0.00539641
0.00539555
0.00539462
0.00539362
0.00539255
0.0053914
0.00544876
0.00544993
0.00545102
0.00545204
0.00545298
0.00545386
0.00545465
0.00545538
0.00545604
0.00545663
0.00545716
0.00545763
0.00545805
0.00545842
0.00545875
0.00545904
0.0054593
0.00545952
0.00545971
0.00545988
0.00546003
0.00546015
0.00546026
0.00546034
0.00546042
0.00546048
0.00546052
0.00546056
0.00546058
0.00546059
0.00546059
0.00546058
0.00546056
0.00546052
0.00546048
0.00546042
0.00546034
0.00546026
0.00546015
0.00546003
0.00545988
0.00545971
0.00545952
0.0054593
0.00545904
0.00545875
0.00545842
0.00545805
0.00545763
0.00545716
0.00545663
0.00545604
0.00545538
0.00545465
0.00545386
0.00545298
0.00545204
0.00545102
0.00544993
0.00544876
0.00551061
0.00551181
0.00551291
0.00551395
0.00551492
0.00551581
0.00551662
0.00551736
0.00551803
0.00551863
0.00551917
0.00551965
0.00552008
0.00552046
0.00552079
0.00552109
0.00552135
0.00552158
0.00552177
0.00552195
0.00552209
0.00552222
0.00552233
0.00552242
0.00552249
0.00552255
0.0055226
0.00552263
0.00552266
0.00552267
0.00552267
0.00552266
0.00552263
0.0055226
0.00552255
0.00552249
0.00552242
0.00552233
0.00552222
0.00552209
0.00552195
0.00552177
0.00552158
0.00552135
0.00552109
0.00552079
0.00552046
0.00552008
0.00551965
0.00551917
0.00551863
0.00551803
0.00551736
0.00551662
0.00551581
0.00551492
0.00551395
0.00551291
0.00551181
0.00551061
0.00557694
0.00557816
0.00557929
0.00558035
0.00558133
0.00558224
0.00558307
0.00558382
0.0055845
0.00558512
0.00558567
0.00558616
0.0055866
0.00558698
0.00558733
0.00558763
0.00558789
0.00558813
0.00558833
0.0055885
0.00558865
0.00558878
0.00558889
0.00558898
0.00558906
0.00558912
0.00558917
0.0055892
0.00558923
0.00558924
0.00558924
0.00558923
0.0055892
0.00558917
0.00558912
0.00558906
0.00558898
0.00558889
0.00558878
0.00558865
0.0055885
0.00558833
0.00558813
0.00558789
0.00558763
0.00558733
0.00558698
0.0055866
0.00558616
0.00558567
0.00558512
0.0055845
0.00558382
0.00558307
0.00558224
0.00558133
0.00558035
0.00557929
0.00557816
0.00557694
0.00564805
0.0056493
0.00565045
0.00565153
0.00565253
0.00565346
0.00565431
0.00565508
0.00565577
0.0056564
0.00565696
0.00565746
0.00565791
0.0056583
0.00565865
0.00565896
0.00565923
0.00565947
0.00565968
0.00565985
0.00566001
0.00566014
0.00566025
0.00566035
0.00566042
0.00566049
0.00566054
0.00566057
0.00566059
0.00566061
0.00566061
0.00566059
0.00566057
0.00566054
0.00566049
0.00566042
0.00566035
0.00566025
0.00566014
0.00566001
0.00565985
0.00565968
0.00565947
0.00565923
0.00565896
0.00565865
0.0056583
0.00565791
0.00565746
0.00565696
0.0056564
0.00565577
0.00565508
0.00565431
0.00565346
0.00565253
0.00565153
0.00565045
0.0056493
0.00564805
0.00572438
0.00572566
0.00572683
0.00572794
0.00572896
0.00572991
0.00573077
0.00573156
0.00573227
0.00573291
0.00573349
0.005734
0.00573446
0.00573486
0.00573522
0.00573553
0.00573581
0.00573605
0.00573626
0.00573645
0.0057366
0.00573674
0.00573685
0.00573695
0.00573703
0.00573709
0.00573714
0.00573718
0.0057372
0.00573722
0.00573722
0.0057372
0.00573718
0.00573714
0.00573709
0.00573703
0.00573695
0.00573685
0.00573674
0.0057366
0.00573645
0.00573626
0.00573605
0.00573581
0.00573553
0.00573522
0.00573486
0.00573446
0.005734
0.00573349
0.00573291
0.00573227
0.00573156
0.00573077
0.00572991
0.00572896
0.00572794
0.00572683
0.00572566
0.00572438
0.00580647
0.00580778
0.00580898
0.00581011
0.00581116
0.00581213
0.00581302
0.00581382
0.00581455
0.00581521
0.00581579
0.00581632
0.00581679
0.0058172
0.00581757
0.00581789
0.00581817
0.00581842
0.00581864
0.00581883
0.00581899
0.00581913
0.00581924
0.00581934
0.00581942
0.00581949
0.00581954
0.00581958
0.0058196
0.00581961
0.00581961
0.0058196
0.00581958
0.00581954
0.00581949
0.00581942
0.00581934
0.00581924
0.00581913
0.00581899
0.00581883
0.00581864
0.00581842
0.00581817
0.00581789
0.00581757
0.0058172
0.00581679
0.00581632
0.00581579
0.00581521
0.00581455
0.00581382
0.00581302
0.00581213
0.00581116
0.00581011
0.00580898
0.00580778
0.00580647
0.00589495
0.0058963
0.00589753
0.00589869
0.00589977
0.00590076
0.00590167
0.0059025
0.00590324
0.00590391
0.00590452
0.00590506
0.00590554
0.00590596
0.00590634
0.00590667
0.00590696
0.00590721
0.00590744
0.00590763
0.00590779
0.00590794
0.00590806
0.00590816
0.00590824
0.00590831
0.00590836
0.0059084
0.00590843
0.00590844
0.00590844
0.00590843
0.0059084
0.00590836
0.00590831
0.00590824
0.00590816
0.00590806
0.00590794
0.00590779
0.00590763
0.00590744
0.00590721
0.00590696
0.00590667
0.00590634
0.00590596
0.00590554
0.00590506
0.00590452
0.00590391
0.00590324
0.0059025
0.00590167
0.00590076
0.00589977
0.00589869
0.00589753
0.0058963
0.00589495
0.00599057
0.00599195
0.00599323
0.00599442
0.00599552
0.00599654
0.00599748
0.00599832
0.00599909
0.00599978
0.0060004
0.00600095
0.00600145
0.00600189
0.00600227
0.00600261
0.00600291
0.00600317
0.0060034
0.0060036
0.00600377
0.00600392
0.00600404
0.00600414
0.00600423
0.0060043
0.00600435
0.00600439
0.00600442
0.00600443
0.00600443
0.00600442
0.00600439
0.00600435
0.0060043
0.00600423
0.00600414
0.00600404
0.00600392
0.00600377
0.0060036
0.0060034
0.00600317
0.00600291
0.00600261
0.00600227
0.00600189
0.00600145
0.00600095
0.0060004
0.00599978
0.00599909
0.00599832
0.00599748
0.00599654
0.00599552
0.00599442
0.00599323
0.00599195
0.00599057
0.00609419
0.00609562
0.00609692
0.00609815
0.00609929
0.00610034
0.0061013
0.00610217
0.00610296
0.00610367
0.00610431
0.00610488
0.00610539
0.00610584
0.00610624
0.00610659
0.00610689
0.00610716
0.0061074
0.0061076
0.00610778
0.00610793
0.00610806
0.00610816
0.00610825
0.00610832
0.00610838
0.00610842
0.00610845
0.00610846
0.00610846
0.00610845
0.00610842
0.00610838
0.00610832
0.00610825
0.00610816
0.00610806
0.00610793
0.00610778
0.0061076
0.0061074
0.00610716
0.00610689
0.00610659
0.00610624
0.00610584
0.00610539
0.00610488
0.00610431
0.00610367
0.00610296
0.00610217
0.0061013
0.00610034
0.00609929
0.00609815
0.00609692
0.00609562
0.00609419
0.00620682
0.00620829
0.00620964
0.0062109
0.00621208
0.00621316
0.00621415
0.00621505
0.00621587
0.0062166
0.00621726
0.00621785
0.00621837
0.00621884
0.00621925
0.00621961
0.00621993
0.00622021
0.00622045
0.00622066
0.00622084
0.006221
0.00622113
0.00622124
0.00622133
0.00622141
0.00622146
0.00622151
0.00622153
0.00622155
0.00622155
0.00622153
0.00622151
0.00622146
0.00622141
0.00622133
0.00622124
0.00622113
0.006221
0.00622084
0.00622066
0.00622045
0.00622021
0.00621993
0.00621961
0.00621925
0.00621884
0.00621837
0.00621785
0.00621726
0.0062166
0.00621587
0.00621505
0.00621415
0.00621316
0.00621208
0.0062109
0.00620964
0.00620829
0.00620682
0.00632966
0.00633118
0.00633258
0.00633389
0.0063351
0.00633622
0.00633725
0.00633818
0.00633902
0.00633978
0.00634046
0.00634107
0.00634161
0.00634209
0.00634252
0.00634289
0.00634322
0.00634351
0.00634376
0.00634398
0.00634416
0.00634432
0.00634446
0.00634458
0.00634467
0.00634475
0.00634481
0.00634485
0.00634488
0.00634489
0.00634489
0.00634488
0.00634485
0.00634481
0.00634475
0.00634467
0.00634458
0.00634446
0.00634432
0.00634416
0.00634398
0.00634376
0.00634351
0.00634322
0.00634289
0.00634252
0.00634209
0.00634161
0.00634107
0.00634046
0.00633978
0.00633902
0.00633818
0.00633725
0.00633622
0.0063351
0.00633389
0.00633258
0.00633118
0.00632966
0.00646413
0.00646572
0.00646717
0.00646852
0.00646978
0.00647094
0.00647201
0.00647297
0.00647385
0.00647463
0.00647534
0.00647597
0.00647653
0.00647703
0.00647747
0.00647786
0.0064782
0.0064785
0.00647876
0.00647899
0.00647918
0.00647935
0.00647949
0.00647961
0.00647971
0.00647979
0.00647985
0.0064799
0.00647993
0.00647994
0.00647994
0.00647993
0.0064799
0.00647985
0.00647979
0.00647971
0.00647961
0.00647949
0.00647935
0.00647918
0.00647899
0.00647876
0.0064785
0.0064782
0.00647786
0.00647747
0.00647703
0.00647653
0.00647597
0.00647534
0.00647463
0.00647385
0.00647297
0.00647201
0.00647094
0.00646978
0.00646852
0.00646717
0.00646572
0.00646413
0.00661197
0.00661362
0.00661513
0.00661654
0.00661785
0.00661906
0.00662016
0.00662117
0.00662208
0.0066229
0.00662363
0.00662429
0.00662487
0.00662539
0.00662585
0.00662626
0.00662661
0.00662692
0.00662719
0.00662743
0.00662763
0.00662781
0.00662795
0.00662808
0.00662818
0.00662826
0.00662833
0.00662837
0.00662841
0.00662842
0.00662842
0.00662841
0.00662837
0.00662833
0.00662826
0.00662818
0.00662808
0.00662795
0.00662781
0.00662763
0.00662743
0.00662719
0.00662692
0.00662661
0.00662626
0.00662585
0.00662539
0.00662487
0.00662429
0.00662363
0.0066229
0.00662208
0.00662117
0.00662016
0.00661906
0.00661785
0.00661654
0.00661513
0.00661362
0.00661197
0.00677525
0.00677697
0.00677855
0.00678002
0.00678139
0.00678265
0.0067838
0.00678485
0.0067858
0.00678666
0.00678743
0.00678811
0.00678872
0.00678927
0.00678975
0.00679017
0.00679054
0.00679087
0.00679115
0.0067914
0.00679161
0.00679179
0.00679194
0.00679207
0.00679218
0.00679227
0.00679233
0.00679238
0.00679242
0.00679243
0.00679243
0.00679242
0.00679238
0.00679233
0.00679227
0.00679218
0.00679207
0.00679194
0.00679179
0.00679161
0.0067914
0.00679115
0.00679087
0.00679054
0.00679017
0.00678975
0.00678927
0.00678872
0.00678811
0.00678743
0.00678666
0.0067858
0.00678485
0.0067838
0.00678265
0.00678139
0.00678002
0.00677855
0.00677697
0.00677525
0.00695654
0.00695834
0.00696
0.00696154
0.00696298
0.0069643
0.00696551
0.00696661
0.0069676
0.0069685
0.00696931
0.00697003
0.00697067
0.00697124
0.00697174
0.00697218
0.00697257
0.00697291
0.00697321
0.00697347
0.00697369
0.00697388
0.00697404
0.00697418
0.00697429
0.00697438
0.00697445
0.00697451
0.00697454
0.00697456
0.00697456
0.00697454
0.00697451
0.00697445
0.00697438
0.00697429
0.00697418
0.00697404
0.00697388
0.00697369
0.00697347
0.00697321
0.00697291
0.00697257
0.00697218
0.00697174
0.00697124
0.00697067
0.00697003
0.00696931
0.0069685
0.0069676
0.00696661
0.00696551
0.0069643
0.00696298
0.00696154
0.00696
0.00695834
0.00695654
0.00715901
0.00716092
0.00716266
0.00716429
0.0071658
0.00716719
0.00716847
0.00716963
0.00717068
0.00717162
0.00717247
0.00717323
0.0071739
0.0071745
0.00717503
0.0071755
0.00717591
0.00717627
0.00717658
0.00717686
0.00717709
0.00717729
0.00717746
0.00717761
0.00717773
0.00717782
0.0071779
0.00717795
0.00717799
0.007178
0.007178
0.00717799
0.00717795
0.0071779
0.00717782
0.00717773
0.00717761
0.00717746
0.00717729
0.00717709
0.00717686
0.00717658
0.00717627
0.00717591
0.0071755
0.00717503
0.0071745
0.0071739
0.00717323
0.00717247
0.00717162
0.00717068
0.00716963
0.00716847
0.00716719
0.0071658
0.00716429
0.00716266
0.00716092
0.00715901
0.00738669
0.00738871
0.00739055
0.00739227
0.00739387
0.00739535
0.0073967
0.00739793
0.00739904
0.00740004
0.00740094
0.00740174
0.00740246
0.0074031
0.00740366
0.00740415
0.00740459
0.00740497
0.0074053
0.00740559
0.00740584
0.00740605
0.00740623
0.00740639
0.00740651
0.00740661
0.00740669
0.00740675
0.00740679
0.00740681
0.00740681
0.00740679
0.00740675
0.00740669
0.00740661
0.00740651
0.00740639
0.00740623
0.00740605
0.00740584
0.00740559
0.0074053
0.00740497
0.00740459
0.00740415
0.00740366
0.0074031
0.00740246
0.00740174
0.00740094
0.00740004
0.00739904
0.00739793
0.0073967
0.00739535
0.00739387
0.00739227
0.00739055
0.00738871
0.00738669
0.00764468
0.00764683
0.00764879
0.00765063
0.00765234
0.00765391
0.00765535
0.00765666
0.00765785
0.00765891
0.00765987
0.00766073
0.00766149
0.00766217
0.00766277
0.0076633
0.00766376
0.00766417
0.00766452
0.00766483
0.0076651
0.00766533
0.00766552
0.00766568
0.00766582
0.00766592
0.00766601
0.00766607
0.00766611
0.00766613
0.00766613
0.00766611
0.00766607
0.00766601
0.00766592
0.00766582
0.00766568
0.00766552
0.00766533
0.0076651
0.00766483
0.00766452
0.00766417
0.00766376
0.0076633
0.00766277
0.00766217
0.00766149
0.00766073
0.00765987
0.00765891
0.00765785
0.00765666
0.00765535
0.00765391
0.00765234
0.00765063
0.00764879
0.00764683
0.00764468
0.00793963
0.00794194
0.00794405
0.00794602
0.00794786
0.00794955
0.00795109
0.0079525
0.00795378
0.00795492
0.00795595
0.00795687
0.00795769
0.00795842
0.00795907
0.00795964
0.00796014
0.00796057
0.00796095
0.00796129
0.00796157
0.00796182
0.00796202
0.0079622
0.00796234
0.00796246
0.00796255
0.00796262
0.00796266
0.00796268
0.00796268
0.00796266
0.00796262
0.00796255
0.00796246
0.00796234
0.0079622
0.00796202
0.00796182
0.00796157
0.00796129
0.00796095
0.00796057
0.00796014
0.00795964
0.00795907
0.00795842
0.00795769
0.00795687
0.00795595
0.00795492
0.00795378
0.0079525
0.00795109
0.00794955
0.00794786
0.00794602
0.00794405
0.00794194
0.00793963
0.00828036
0.00828286
0.00828515
0.00828729
0.00828927
0.00829111
0.00829278
0.00829431
0.00829569
0.00829693
0.00829805
0.00829905
0.00829994
0.00830073
0.00830143
0.00830205
0.00830259
0.00830306
0.00830348
0.00830383
0.00830414
0.00830441
0.00830464
0.00830483
0.00830498
0.00830511
0.00830521
0.00830528
0.00830533
0.00830535
0.00830535
0.00830533
0.00830528
0.00830521
0.00830511
0.00830498
0.00830483
0.00830464
0.00830441
0.00830414
0.00830383
0.00830348
0.00830306
0.00830259
0.00830205
0.00830143
0.00830073
0.00829994
0.00829905
0.00829805
0.00829693
0.00829569
0.00829431
0.00829278
0.00829111
0.00828927
0.00828729
0.00828515
0.00828286
0.00828036
0.00867878
0.00868152
0.00868402
0.00868637
0.00868854
0.00869055
0.00869239
0.00869406
0.00869558
0.00869694
0.00869817
0.00869926
0.00870024
0.00870111
0.00870187
0.00870255
0.00870314
0.00870366
0.00870412
0.00870451
0.00870485
0.00870514
0.00870539
0.0087056
0.00870577
0.00870591
0.00870602
0.0087061
0.00870615
0.00870618
0.00870618
0.00870615
0.0087061
0.00870602
0.00870591
0.00870577
0.0087056
0.00870539
0.00870514
0.00870485
0.00870451
0.00870412
0.00870366
0.00870314
0.00870255
0.00870187
0.00870111
0.00870024
0.00869926
0.00869817
0.00869694
0.00869558
0.00869406
0.00869239
0.00869055
0.00868854
0.00868637
0.00868402
0.00868152
0.00867878
0.00915142
0.00915445
0.00915723
0.00915983
0.00916225
0.00916448
0.00916652
0.00916838
0.00917006
0.00917158
0.00917294
0.00917416
0.00917524
0.00917621
0.00917706
0.00917781
0.00917847
0.00917905
0.00917956
0.00918
0.00918038
0.0091807
0.00918098
0.00918121
0.0091814
0.00918155
0.00918167
0.00918176
0.00918182
0.00918185
0.00918185
0.00918182
0.00918176
0.00918167
0.00918155
0.0091814
0.00918121
0.00918098
0.0091807
0.00918038
0.00918
0.00917956
0.00917905
0.00917847
0.00917781
0.00917706
0.00917621
0.00917524
0.00917416
0.00917294
0.00917158
0.00917006
0.00916838
0.00916652
0.00916448
0.00916225
0.00915983
0.00915723
0.00915445
0.00915142
0.00972171
0.00972512
0.00972825
0.00973119
0.00973392
0.00973644
0.00973875
0.00974085
0.00974275
0.00974446
0.009746
0.00974738
0.0097486
0.00974969
0.00975066
0.00975151
0.00975225
0.00975291
0.00975348
0.00975398
0.0097544
0.00975477
0.00975508
0.00975534
0.00975556
0.00975574
0.00975587
0.00975597
0.00975604
0.00975607
0.00975607
0.00975604
0.00975597
0.00975587
0.00975574
0.00975556
0.00975534
0.00975508
0.00975477
0.0097544
0.00975398
0.00975348
0.00975291
0.00975225
0.00975151
0.00975066
0.00974969
0.0097486
0.00974738
0.009746
0.00974446
0.00974275
0.00974085
0.00973875
0.00973644
0.00973392
0.00973119
0.00972825
0.00972512
0.00972171
0.0104236
0.0104276
0.0104312
0.0104345
0.0104377
0.0104406
0.0104432
0.0104457
0.0104479
0.0104498
0.0104516
0.0104532
0.0104546
0.0104559
0.010457
0.010458
0.0104588
0.0104596
0.0104602
0.0104608
0.0104613
0.0104617
0.0104621
0.0104624
0.0104626
0.0104628
0.010463
0.0104631
0.0104632
0.0104632
0.0104632
0.0104632
0.0104631
0.010463
0.0104628
0.0104626
0.0104624
0.0104621
0.0104617
0.0104613
0.0104608
0.0104602
0.0104596
0.0104588
0.010458
0.010457
0.0104559
0.0104546
0.0104532
0.0104516
0.0104498
0.0104479
0.0104457
0.0104432
0.0104406
0.0104377
0.0104345
0.0104312
0.0104276
0.0104236
0.0113071
0.0113117
0.0113159
0.0113199
0.0113236
0.011327
0.0113302
0.011333
0.0113356
0.0113379
0.01134
0.0113419
0.0113436
0.0113451
0.0113464
0.0113475
0.0113486
0.0113494
0.0113502
0.0113509
0.0113515
0.011352
0.0113524
0.0113528
0.0113531
0.0113533
0.0113535
0.0113536
0.0113537
0.0113538
0.0113538
0.0113537
0.0113536
0.0113535
0.0113533
0.0113531
0.0113528
0.0113524
0.011352
0.0113515
0.0113509
0.0113502
0.0113494
0.0113486
0.0113475
0.0113464
0.0113451
0.0113436
0.0113419
0.01134
0.0113379
0.0113356
0.011333
0.0113302
0.011327
0.0113236
0.0113199
0.0113159
0.0113117
0.0113071
0.0124446
0.0124501
0.0124552
0.0124601
0.0124646
0.0124687
0.0124725
0.012476
0.0124791
0.0124819
0.0124845
0.0124867
0.0124888
0.0124906
0.0124922
0.0124936
0.0124948
0.0124959
0.0124968
0.0124976
0.0124984
0.012499
0.0124995
0.0124999
0.0125003
0.0125006
0.0125008
0.0125009
0.0125011
0.0125011
0.0125011
0.0125011
0.0125009
0.0125008
0.0125006
0.0125003
0.0124999
0.0124995
0.012499
0.0124984
0.0124976
0.0124968
0.0124959
0.0124948
0.0124936
0.0124922
0.0124906
0.0124888
0.0124867
0.0124845
0.0124819
0.0124791
0.012476
0.0124725
0.0124687
0.0124646
0.0124601
0.0124552
0.0124501
0.0124446
0.0139381
0.0139449
0.0139512
0.0139572
0.0139628
0.0139679
0.0139727
0.0139769
0.0139808
0.0139843
0.0139875
0.0139903
0.0139928
0.0139951
0.013997
0.0139988
0.0140003
0.0140017
0.0140028
0.0140039
0.0140047
0.0140055
0.0140061
0.0140067
0.0140071
0.0140075
0.0140078
0.014008
0.0140081
0.0140082
0.0140082
0.0140081
0.014008
0.0140078
0.0140075
0.0140071
0.0140067
0.0140061
0.0140055
0.0140047
0.0140039
0.0140028
0.0140017
0.0140003
0.0139988
0.013997
0.0139951
0.0139928
0.0139903
0.0139875
0.0139843
0.0139808
0.0139769
0.0139727
0.0139679
0.0139628
0.0139572
0.0139512
0.0139449
0.0139381
0.0159194
0.0159279
0.0159359
0.0159434
0.0159505
0.015957
0.0159629
0.0159683
0.0159733
0.0159777
0.0159817
0.0159852
0.0159884
0.0159912
0.0159937
0.0159959
0.0159979
0.0159996
0.016001
0.0160023
0.0160034
0.0160044
0.0160052
0.0160059
0.0160064
0.0160069
0.0160073
0.0160075
0.0160077
0.0160078
0.0160078
0.0160077
0.0160075
0.0160073
0.0160069
0.0160064
0.0160059
0.0160052
0.0160044
0.0160034
0.0160023
0.016001
0.0159996
0.0159979
0.0159959
0.0159937
0.0159912
0.0159884
0.0159852
0.0159817
0.0159777
0.0159733
0.0159683
0.0159629
0.015957
0.0159505
0.0159434
0.0159359
0.0159279
0.0159194
0.0185371
0.0185479
0.018558
0.0185675
0.0185764
0.0185847
0.0185922
0.0185991
0.0186053
0.0186109
0.0186159
0.0186204
0.0186245
0.018628
0.0186312
0.018634
0.0186365
0.0186386
0.0186405
0.0186421
0.0186435
0.0186448
0.0186458
0.0186466
0.0186474
0.0186479
0.0186484
0.0186487
0.0186489
0.018649
0.018649
0.0186489
0.0186487
0.0186484
0.0186479
0.0186474
0.0186466
0.0186458
0.0186448
0.0186435
0.0186421
0.0186405
0.0186386
0.0186365
0.018634
0.0186312
0.018628
0.0186245
0.0186204
0.0186159
0.0186109
0.0186053
0.0185991
0.0185922
0.0185847
0.0185764
0.0185675
0.018558
0.0185479
0.0185371
0.0219241
0.0219376
0.0219502
0.0219622
0.0219733
0.0219836
0.0219931
0.0220017
0.0220095
0.0220165
0.0220228
0.0220284
0.0220335
0.022038
0.0220419
0.0220454
0.0220485
0.0220512
0.0220536
0.0220556
0.0220574
0.0220589
0.0220602
0.0220613
0.0220622
0.0220629
0.0220635
0.0220639
0.0220641
0.0220643
0.0220643
0.0220641
0.0220639
0.0220635
0.0220629
0.0220622
0.0220613
0.0220602
0.0220589
0.0220574
0.0220556
0.0220536
0.0220512
0.0220485
0.0220454
0.0220419
0.022038
0.0220335
0.0220284
0.0220228
0.0220165
0.0220095
0.0220017
0.0219931
0.0219836
0.0219733
0.0219622
0.0219502
0.0219376
0.0219241
0.0261539
0.0261705
0.0261859
0.0262006
0.0262142
0.0262268
0.0262383
0.0262488
0.0262583
0.0262669
0.0262746
0.0262815
0.0262877
0.0262931
0.026298
0.0263023
0.026306
0.0263093
0.0263122
0.0263147
0.0263169
0.0263187
0.0263203
0.0263216
0.0263227
0.0263236
0.0263243
0.0263248
0.0263251
0.0263253
0.0263253
0.0263251
0.0263248
0.0263243
0.0263236
0.0263227
0.0263216
0.0263203
0.0263187
0.0263169
0.0263147
0.0263122
0.0263093
0.026306
0.0263023
0.026298
0.0262931
0.0262877
0.0262815
0.0262746
0.0262669
0.0262583
0.0262488
0.0262383
0.0262268
0.0262142
0.0262006
0.0261859
0.0261705
0.0261539
0.031211
0.0312307
0.0312491
0.0312664
0.0312826
0.0312974
0.0313111
0.0313235
0.0313348
0.0313449
0.031354
0.0313622
0.0313695
0.031376
0.0313817
0.0313868
0.0313912
0.0313951
0.0313986
0.0314015
0.0314041
0.0314063
0.0314081
0.0314097
0.031411
0.0314121
0.0314129
0.0314135
0.0314139
0.0314141
0.0314141
0.0314139
0.0314135
0.0314129
0.0314121
0.031411
0.0314097
0.0314081
0.0314063
0.0314041
0.0314015
0.0313986
0.0313951
0.0313912
0.0313868
0.0313817
0.031376
0.0313695
0.0313622
0.031354
0.0313449
0.0313348
0.0313235
0.0313111
0.0312974
0.0312826
0.0312664
0.0312491
0.0312307
0.031211
0.0369966
0.0370193
0.0370404
0.0370603
0.0370788
0.0370959
0.0371116
0.0371258
0.0371387
0.0371503
0.0371608
0.0371702
0.0371785
0.037186
0.0371926
0.0371984
0.0372035
0.037208
0.0372119
0.0372153
0.0372183
0.0372208
0.0372229
0.0372247
0.0372262
0.0372274
0.0372284
0.0372291
0.0372295
0.0372297
0.0372297
0.0372295
0.0372291
0.0372284
0.0372274
0.0372262
0.0372247
0.0372229
0.0372208
0.0372183
0.0372153
0.0372119
0.037208
0.0372035
0.0371984
0.0371926
0.037186
0.0371785
0.0371702
0.0371608
0.0371503
0.0371387
0.0371258
0.0371116
0.0370959
0.0370788
0.0370603
0.0370404
0.0370193
0.0369966
0.0433679
0.0433934
0.0434172
0.0434394
0.0434601
0.0434792
0.0434966