/*--------------------------------*- C++ -*----------------------------------*\
| =========                 |                                                 |
| \\      /  F ield         | foam-extend: Open Source CFD                    |
|  \\    /   O peration     | Version:     4.0                                |
|   \\  /    A nd           | Web:         http://www.foam-extend.org         |
|    \\/     M anipulation  |                                                 |
\*---------------------------------------------------------------------------*/
FoamFile
{
    version     2.0;
    format      ascii;
    class       volScalarField;
    location    "1790";
    object      psiE;
}
// * * * * * * * * * * * * * * * * * * * * * * * * * * * * * * * * * * * * * //

dimensions      [0 0 0 0 0 0 0];

internalField   nonuniform List<scalar> 
6960
(
0.335285
0.33529
0.335297
0.335303
0.335309
0.335315
0.33532
0.335325
0.335329
0.335333
0.335337
0.33534
0.335342
0.335345
0.335347
0.335349
0.335351
0.335352
0.335354
0.335355
0.335356
0.335357
0.335357
0.335358
0.335358
0.335359
0.335359
0.335359
0.33536
0.33536
0.33536
0.33536
0.335359
0.335359
0.335359
0.335358
0.335358
0.335357
0.335357
0.335356
0.335355
0.335354
0.335352
0.335351
0.335349
0.335347
0.335345
0.335342
0.33534
0.335337
0.335333
0.335329
0.335325
0.33532
0.335315
0.335309
0.335303
0.335297
0.33529
0.335285
0.837337
0.837358
0.837383
0.837409
0.837434
0.837457
0.837479
0.837498
0.837516
0.837532
0.837546
0.837559
0.83757
0.83758
0.837589
0.837597
0.837604
0.83761
0.837615
0.83762
0.837624
0.837627
0.83763
0.837633
0.837635
0.837636
0.837637
0.837638
0.837639
0.837639
0.837639
0.837639
0.837638
0.837637
0.837636
0.837635
0.837633
0.83763
0.837627
0.837624
0.83762
0.837615
0.83761
0.837604
0.837597
0.837589
0.83758
0.83757
0.837559
0.837546
0.837532
0.837516
0.837498
0.837479
0.837457
0.837434
0.837409
0.837383
0.837358
0.837337
1.29076
1.2908
1.29085
1.29091
1.29095
1.291
1.29104
1.29108
1.29112
1.29115
1.29118
1.2912
1.29122
1.29124
1.29126
1.29128
1.29129
1.2913
1.29131
1.29132
1.29133
1.29134
1.29134
1.29135
1.29135
1.29135
1.29136
1.29136
1.29136
1.29136
1.29136
1.29136
1.29136
1.29136
1.29135
1.29135
1.29135
1.29134
1.29134
1.29133
1.29132
1.29131
1.2913
1.29129
1.29128
1.29126
1.29124
1.29122
1.2912
1.29118
1.29115
1.29112
1.29108
1.29104
1.291
1.29095
1.29091
1.29085
1.2908
1.29076
1.73086
1.73092
1.731
1.73108
1.73116
1.73123
1.7313
1.73136
1.73141
1.73146
1.73151
1.73155
1.73158
1.73161
1.73164
1.73167
1.73169
1.73171
1.73172
1.73174
1.73175
1.73176
1.73177
1.73178
1.73178
1.73179
1.73179
1.73179
1.7318
1.7318
1.7318
1.7318
1.73179
1.73179
1.73179
1.73178
1.73178
1.73177
1.73176
1.73175
1.73174
1.73172
1.73171
1.73169
1.73167
1.73164
1.73161
1.73158
1.73155
1.73151
1.73146
1.73141
1.73136
1.7313
1.73123
1.73116
1.73108
1.731
1.73092
1.73086
2.17122
2.17131
2.17142
2.17153
2.17164
2.17174
2.17183
2.17192
2.172
2.17206
2.17213
2.17218
2.17223
2.17228
2.17231
2.17235
2.17238
2.17241
2.17243
2.17245
2.17247
2.17248
2.17249
2.1725
2.17251
2.17252
2.17252
2.17253
2.17253
2.17253
2.17253
2.17253
2.17253
2.17252
2.17252
2.17251
2.1725
2.17249
2.17248
2.17247
2.17245
2.17243
2.17241
2.17238
2.17235
2.17231
2.17228
2.17223
2.17218
2.17213
2.17206
2.172
2.17192
2.17183
2.17174
2.17164
2.17153
2.17142
2.17131
2.17122
2.61742
2.61753
2.61768
2.61782
2.61796
2.61809
2.61821
2.61832
2.61842
2.61851
2.61859
2.61867
2.61873
2.61879
2.61884
2.61888
2.61892
2.61896
2.61899
2.61901
2.61903
2.61905
2.61907
2.61908
2.61909
2.6191
2.61911
2.61912
2.61912
2.61912
2.61912
2.61912
2.61912
2.61911
2.6191
2.61909
2.61908
2.61907
2.61905
2.61903
2.61901
2.61899
2.61896
2.61892
2.61888
2.61884
2.61879
2.61873
2.61867
2.61859
2.61851
2.61842
2.61832
2.61821
2.61809
2.61796
2.61782
2.61768
2.61753
2.61742
3.07176
3.0719
3.07208
3.07226
3.07243
3.07259
3.07274
3.07288
3.073
3.07311
3.07321
3.0733
3.07338
3.07345
3.07351
3.07357
3.07362
3.07366
3.0737
3.07373
3.07376
3.07378
3.0738
3.07382
3.07383
3.07384
3.07385
3.07386
3.07386
3.07386
3.07386
3.07386
3.07386
3.07385
3.07384
3.07383
3.07382
3.0738
3.07378
3.07376
3.07373
3.0737
3.07366
3.07362
3.07357
3.07351
3.07345
3.07338
3.0733
3.07321
3.07311
3.073
3.07288
3.07274
3.07259
3.07243
3.07226
3.07208
3.0719
3.07176
3.53519
3.53536
3.53557
3.53579
3.536
3.53619
3.53637
3.53653
3.53668
3.53681
3.53693
3.53704
3.53713
3.53721
3.53729
3.53736
3.53741
3.53746
3.53751
3.53755
3.53758
3.53761
3.53763
3.53765
3.53767
3.53768
3.53769
3.5377
3.5377
3.53771
3.53771
3.5377
3.5377
3.53769
3.53768
3.53767
3.53765
3.53763
3.53761
3.53758
3.53755
3.53751
3.53746
3.53741
3.53736
3.53729
3.53721
3.53713
3.53704
3.53693
3.53681
3.53668
3.53653
3.53637
3.53619
3.536
3.53579
3.53557
3.53536
3.53519
4.0081
4.0083
4.00855
4.0088
4.00904
4.00927
4.00947
4.00966
4.00983
4.00999
4.01013
4.01025
4.01036
4.01046
4.01055
4.01062
4.01069
4.01075
4.0108
4.01085
4.01088
4.01092
4.01095
4.01097
4.01099
4.011
4.01102
4.01103
4.01103
4.01103
4.01103
4.01103
4.01103
4.01102
4.011
4.01099
4.01097
4.01095
4.01092
4.01088
4.01085
4.0108
4.01075
4.01069
4.01062
4.01055
4.01046
4.01036
4.01025
4.01013
4.00999
4.00983
4.00966
4.00947
4.00927
4.00904
4.0088
4.00855
4.0083
4.0081
4.49063
4.49085
4.49114
4.49142
4.4917
4.49196
4.4922
4.49241
4.49261
4.49279
4.49294
4.49309
4.49321
4.49333
4.49342
4.49351
4.49359
4.49366
4.49372
4.49377
4.49381
4.49385
4.49388
4.49391
4.49393
4.49395
4.49396
4.49397
4.49398
4.49398
4.49398
4.49398
4.49397
4.49396
4.49395
4.49393
4.49391
4.49388
4.49385
4.49381
4.49377
4.49372
4.49366
4.49359
4.49351
4.49342
4.49333
4.49321
4.49309
4.49294
4.49279
4.49261
4.49241
4.4922
4.49196
4.4917
4.49142
4.49114
4.49085
4.49063
4.9828
4.98305
4.98337
4.9837
4.98401
4.9843
4.98457
4.98481
4.98503
4.98523
4.98541
4.98557
4.98571
4.98584
4.98595
4.98605
4.98614
4.98621
4.98628
4.98634
4.98638
4.98643
4.98646
4.98649
4.98652
4.98654
4.98655
4.98657
4.98657
4.98658
4.98658
4.98657
4.98657
4.98655
4.98654
4.98652
4.98649
4.98646
4.98643
4.98638
4.98634
4.98628
4.98621
4.98614
4.98605
4.98595
4.98584
4.98571
4.98557
4.98541
4.98523
4.98503
4.98481
4.98457
4.9843
4.98401
4.9837
4.98337
4.98305
4.9828
5.48459
5.48487
5.48523
5.48559
5.48593
5.48626
5.48655
5.48683
5.48707
5.48729
5.48749
5.48767
5.48783
5.48797
5.48809
5.4882
5.4883
5.48838
5.48846
5.48852
5.48858
5.48862
5.48866
5.4887
5.48873
5.48875
5.48877
5.48878
5.48879
5.48879
5.48879
5.48879
5.48878
5.48877
5.48875
5.48873
5.4887
5.48866
5.48862
5.48858
5.48852
5.48846
5.48838
5.4883
5.4882
5.48809
5.48797
5.48783
5.48767
5.48749
5.48729
5.48707
5.48683
5.48655
5.48626
5.48593
5.48559
5.48523
5.48487
5.48459
5.99593
5.99623
5.99662
5.99702
5.9974
5.99776
5.99809
5.99839
5.99866
5.9989
5.99912
5.99932
5.99949
5.99965
5.99978
5.9999
6.00001
6.0001
6.00019
6.00026
6.00032
6.00037
6.00041
6.00045
6.00048
6.00051
6.00053
6.00054
6.00055
6.00055
6.00055
6.00055
6.00054
6.00053
6.00051
6.00048
6.00045
6.00041
6.00037
6.00032
6.00026
6.00019
6.0001
6.00001
5.9999
5.99978
5.99965
5.99949
5.99932
5.99912
5.9989
5.99866
5.99839
5.99809
5.99776
5.9974
5.99702
5.99662
5.99623
5.99593
6.5167
6.51704
6.51746
6.5179
6.51831
6.5187
6.51906
6.51939
6.51968
6.51995
6.52019
6.5204
6.52059
6.52076
6.52091
6.52105
6.52116
6.52126
6.52135
6.52143
6.5215
6.52155
6.5216
6.52164
6.52168
6.5217
6.52172
6.52174
6.52175
6.52175
6.52175
6.52175
6.52174
6.52172
6.5217
6.52168
6.52164
6.5216
6.52155
6.5215
6.52143
6.52135
6.52126
6.52116
6.52105
6.52091
6.52076
6.52059
6.5204
6.52019
6.51995
6.51968
6.51939
6.51906
6.5187
6.51831
6.5179
6.51746
6.51704
6.5167
7.04677
7.04713
7.04759
7.04807
7.04852
7.04894
7.04933
7.04968
7.05
7.05029
7.05055
7.05078
7.05099
7.05118
7.05134
7.05148
7.05161
7.05172
7.05181
7.0519
7.05197
7.05203
7.05208
7.05213
7.05216
7.05219
7.05222
7.05223
7.05224
7.05225
7.05225
7.05224
7.05223
7.05222
7.05219
7.05216
7.05213
7.05208
7.05203
7.05197
7.0519
7.05181
7.05172
7.05161
7.05148
7.05134
7.05118
7.05099
7.05078
7.05055
7.05029
7.05
7.04968
7.04933
7.04894
7.04852
7.04807
7.04759
7.04713
7.04677
7.58595
7.58634
7.58684
7.58735
7.58783
7.58829
7.58871
7.58909
7.58943
7.58975
7.59003
7.59028
7.5905
7.5907
7.59087
7.59103
7.59116
7.59128
7.59139
7.59148
7.59155
7.59162
7.59168
7.59172
7.59176
7.5918
7.59182
7.59184
7.59185
7.59186
7.59186
7.59185
7.59184
7.59182
7.5918
7.59176
7.59172
7.59168
7.59162
7.59155
7.59148
7.59139
7.59128
7.59116
7.59103
7.59087
7.5907
7.5905
7.59028
7.59003
7.58975
7.58943
7.58909
7.58871
7.58829
7.58783
7.58735
7.58684
7.58634
7.58595
8.13402
8.13443
8.13496
8.13551
8.13603
8.13652
8.13697
8.13738
8.13775
8.13808
8.13838
8.13865
8.13889
8.1391
8.13929
8.13946
8.1396
8.13973
8.13984
8.13994
8.14002
8.14009
8.14015
8.1402
8.14024
8.14028
8.14031
8.14032
8.14034
8.14034
8.14034
8.14034
8.14032
8.14031
8.14028
8.14024
8.1402
8.14015
8.14009
8.14002
8.13994
8.13984
8.13973
8.1396
8.13946
8.13929
8.1391
8.13889
8.13865
8.13838
8.13808
8.13775
8.13738
8.13697
8.13652
8.13603
8.13551
8.13496
8.13443
8.13402
8.69069
8.69113
8.6917
8.69228
8.69284
8.69336
8.69384
8.69427
8.69467
8.69502
8.69534
8.69563
8.69588
8.69611
8.69631
8.69649
8.69664
8.69678
8.6969
8.697
8.69709
8.69717
8.69723
8.69728
8.69733
8.69737
8.69739
8.69741
8.69743
8.69743
8.69743
8.69743
8.69741
8.69739
8.69737
8.69733
8.69728
8.69723
8.69717
8.69709
8.697
8.6969
8.69678
8.69664
8.69649
8.69631
8.69611
8.69588
8.69563
8.69534
8.69502
8.69467
8.69427
8.69384
8.69336
8.69284
8.69228
8.6917
8.69113
8.69069
9.25563
9.2561
9.25671
9.25732
9.25792
9.25847
9.25897
9.25944
9.25986
9.26024
9.26058
9.26088
9.26115
9.26139
9.2616
9.26179
9.26195
9.2621
9.26222
9.26233
9.26243
9.26251
9.26258
9.26264
9.26268
9.26272
9.26275
9.26277
9.26279
9.2628
9.2628
9.26279
9.26277
9.26275
9.26272
9.26268
9.26264
9.26258
9.26251
9.26243
9.26233
9.26222
9.2621
9.26195
9.26179
9.2616
9.26139
9.26115
9.26088
9.26058
9.26024
9.25986
9.25944
9.25897
9.25847
9.25792
9.25732
9.25671
9.2561
9.25563
9.82846
9.82896
9.82959
9.83025
9.83087
9.83146
9.83199
9.83248
9.83292
9.83332
9.83368
9.834
9.83429
9.83454
9.83477
9.83497
9.83514
9.83529
9.83543
9.83554
9.83564
9.83573
9.8358
9.83586
9.83591
9.83595
9.83598
9.83601
9.83602
9.83603
9.83603
9.83602
9.83601
9.83598
9.83595
9.83591
9.83586
9.8358
9.83573
9.83564
9.83554
9.83543
9.83529
9.83514
9.83497
9.83477
9.83454
9.83429
9.834
9.83368
9.83332
9.83292
9.83248
9.83199
9.83146
9.83087
9.83025
9.82959
9.82896
9.82846
10.4087
10.4092
10.4099
10.4106
10.4112
10.4119
10.4124
10.4129
10.4134
10.4138
10.4142
10.4145
10.4148
10.4151
10.4153
10.4156
10.4157
10.4159
10.416
10.4162
10.4163
10.4164
10.4164
10.4165
10.4165
10.4166
10.4166
10.4166
10.4167
10.4167
10.4167
10.4167
10.4166
10.4166
10.4166
10.4165
10.4165
10.4164
10.4164
10.4163
10.4162
10.416
10.4159
10.4157
10.4156
10.4153
10.4151
10.4148
10.4145
10.4142
10.4138
10.4134
10.4129
10.4124
10.4119
10.4112
10.4106
10.4099
10.4092
10.4087
10.9958
10.9964
10.9971
10.9978
10.9985
10.9991
10.9997
11.0003
11.0008
11.0012
11.0016
11.0019
11.0023
11.0025
11.0028
11.003
11.0032
11.0034
11.0035
11.0036
11.0038
11.0038
11.0039
11.004
11.0041
11.0041
11.0041
11.0042
11.0042
11.0042
11.0042
11.0042
11.0042
11.0041
11.0041
11.0041
11.004
11.0039
11.0038
11.0038
11.0036
11.0035
11.0034
11.0032
11.003
11.0028
11.0025
11.0023
11.0019
11.0016
11.0012
11.0008
11.0003
10.9997
10.9991
10.9985
10.9978
10.9971
10.9964
10.9958
11.5892
11.5898
11.5905
11.5913
11.592
11.5926
11.5933
11.5938
11.5943
11.5948
11.5952
11.5956
11.5959
11.5962
11.5965
11.5967
11.5969
11.5971
11.5972
11.5974
11.5975
11.5976
11.5977
11.5977
11.5978
11.5978
11.5979
11.5979
11.5979
11.5979
11.5979
11.5979
11.5979
11.5979
11.5978
11.5978
11.5977
11.5977
11.5976
11.5975
11.5974
11.5972
11.5971
11.5969
11.5967
11.5965
11.5962
11.5959
11.5956
11.5952
11.5948
11.5943
11.5938
11.5933
11.5926
11.592
11.5913
11.5905
11.5898
11.5892
12.1881
12.1887
12.1894
12.1902
12.191
12.1917
12.1923
12.1929
12.1934
12.1939
12.1943
12.1947
12.1951
12.1954
12.1957
12.1959
12.1961
12.1963
12.1964
12.1966
12.1967
12.1968
12.1969
12.197
12.197
12.1971
12.1971
12.1971
12.1972
12.1972
12.1972
12.1972
12.1971
12.1971
12.1971
12.197
12.197
12.1969
12.1968
12.1967
12.1966
12.1964
12.1963
12.1961
12.1959
12.1957
12.1954
12.1951
12.1947
12.1943
12.1939
12.1934
12.1929
12.1923
12.1917
12.191
12.1902
12.1894
12.1887
12.1881
12.7916
12.7923
12.7931
12.7939
12.7946
12.7954
12.796
12.7966
12.7972
12.7977
12.7981
12.7985
12.7989
12.7992
12.7995
12.7997
12.8
12.8002
12.8003
12.8005
12.8006
12.8007
12.8008
12.8009
12.8009
12.801
12.801
12.801
12.8011
12.8011
12.8011
12.8011
12.801
12.801
12.801
12.8009
12.8009
12.8008
12.8007
12.8006
12.8005
12.8003
12.8002
12.8
12.7997
12.7995
12.7992
12.7989
12.7985
12.7981
12.7977
12.7972
12.7966
12.796
12.7954
12.7946
12.7939
12.7931
12.7923
12.7916
13.3989
13.3995
13.4004
13.4012
13.402
13.4028
13.4035
13.4041
13.4047
13.4052
13.4056
13.406
13.4064
13.4067
13.407
13.4073
13.4075
13.4077
13.4079
13.408
13.4082
13.4083
13.4084
13.4084
13.4085
13.4085
13.4086
13.4086
13.4086
13.4087
13.4087
13.4086
13.4086
13.4086
13.4085
13.4085
13.4084
13.4084
13.4083
13.4082
13.408
13.4079
13.4077
13.4075
13.4073
13.407
13.4067
13.4064
13.406
13.4056
13.4052
13.4047
13.4041
13.4035
13.4028
13.402
13.4012
13.4004
13.3995
13.3989
14.0088
14.0094
14.0103
14.0111
14.012
14.0127
14.0134
14.0141
14.0147
14.0152
14.0157
14.0161
14.0165
14.0168
14.0171
14.0174
14.0176
14.0178
14.018
14.0182
14.0183
14.0184
14.0185
14.0186
14.0186
14.0187
14.0187
14.0188
14.0188
14.0188
14.0188
14.0188
14.0188
14.0187
14.0187
14.0186
14.0186
14.0185
14.0184
14.0183
14.0182
14.018
14.0178
14.0176
14.0174
14.0171
14.0168
14.0165
14.0161
14.0157
14.0152
14.0147
14.0141
14.0134
14.0127
14.012
14.0111
14.0103
14.0094
14.0088
14.6199
14.6206
14.6215
14.6224
14.6232
14.624
14.6247
14.6254
14.626
14.6265
14.627
14.6275
14.6279
14.6282
14.6285
14.6288
14.629
14.6292
14.6294
14.6296
14.6297
14.6298
14.6299
14.63
14.6301
14.6301
14.6302
14.6302
14.6302
14.6302
14.6302
14.6302
14.6302
14.6302
14.6301
14.6301
14.63
14.6299
14.6298
14.6297
14.6296
14.6294
14.6292
14.629
14.6288
14.6285
14.6282
14.6279
14.6275
14.627
14.6265
14.626
14.6254
14.6247
14.624
14.6232
14.6224
14.6215
14.6206
14.6199
15.2309
15.2316
15.2325
15.2334
15.2343
15.2351
15.2358
15.2365
15.2371
15.2377
15.2382
15.2386
15.239
15.2394
15.2397
15.2399
15.2402
15.2404
15.2406
15.2407
15.2409
15.241
15.2411
15.2412
15.2413
15.2413
15.2414
15.2414
15.2414
15.2414
15.2414
15.2414
15.2414
15.2414
15.2413
15.2413
15.2412
15.2411
15.241
15.2409
15.2407
15.2406
15.2404
15.2402
15.2399
15.2397
15.2394
15.239
15.2386
15.2382
15.2377
15.2371
15.2365
15.2358
15.2351
15.2343
15.2334
15.2325
15.2316
15.2309
15.84
15.8407
15.8416
15.8426
15.8434
15.8443
15.845
15.8457
15.8463
15.8469
15.8474
15.8478
15.8483
15.8486
15.8489
15.8492
15.8495
15.8497
15.8499
15.85
15.8502
15.8503
15.8504
15.8505
15.8505
15.8506
15.8506
15.8507
15.8507
15.8507
15.8507
15.8507
15.8507
15.8506
15.8506
15.8505
15.8505
15.8504
15.8503
15.8502
15.85
15.8499
15.8497
15.8495
15.8492
15.8489
15.8486
15.8483
15.8478
15.8474
15.8469
15.8463
15.8457
15.845
15.8443
15.8434
15.8426
15.8416
15.8407
15.84
16.4453
16.446
16.4469
16.4478
16.4487
16.4496
16.4503
16.451
16.4517
16.4522
16.4527
16.4532
16.4536
16.454
16.4543
16.4546
16.4548
16.455
16.4552
16.4554
16.4555
16.4557
16.4558
16.4558
16.4559
16.456
16.456
16.4561
16.4561
16.4561
16.4561
16.4561
16.4561
16.456
16.456
16.4559
16.4558
16.4558
16.4557
16.4555
16.4554
16.4552
16.455
16.4548
16.4546
16.4543
16.454
16.4536
16.4532
16.4527
16.4522
16.4517
16.451
16.4503
16.4496
16.4487
16.4478
16.4469
16.446
16.4453
17.0444
17.0451
17.046
17.047
17.0479
17.0487
17.0495
17.0502
17.0508
17.0514
17.0519
17.0524
17.0528
17.0531
17.0535
17.0537
17.054
17.0542
17.0544
17.0546
17.0547
17.0548
17.0549
17.055
17.0551
17.0552
17.0552
17.0552
17.0553
17.0553
17.0553
17.0553
17.0552
17.0552
17.0552
17.0551
17.055
17.0549
17.0548
17.0547
17.0546
17.0544
17.0542
17.054
17.0537
17.0535
17.0531
17.0528
17.0524
17.0519
17.0514
17.0508
17.0502
17.0495
17.0487
17.0479
17.047
17.046
17.0451
17.0444
17.6347
17.6354
17.6364
17.6373
17.6382
17.639
17.6398
17.6405
17.6411
17.6417
17.6422
17.6427
17.6431
17.6435
17.6438
17.6441
17.6443
17.6445
17.6447
17.6449
17.645
17.6451
17.6453
17.6453
17.6454
17.6455
17.6455
17.6455
17.6456
17.6456
17.6456
17.6456
17.6455
17.6455
17.6455
17.6454
17.6453
17.6453
17.6451
17.645
17.6449
17.6447
17.6445
17.6443
17.6441
17.6438
17.6435
17.6431
17.6427
17.6422
17.6417
17.6411
17.6405
17.6398
17.639
17.6382
17.6373
17.6364
17.6354
17.6347
18.2131
18.2139
18.2148
18.2157
18.2166
18.2174
18.2182
18.2189
18.2195
18.2201
18.2206
18.221
18.2214
18.2218
18.2221
18.2224
18.2226
18.2229
18.223
18.2232
18.2234
18.2235
18.2236
18.2237
18.2237
18.2238
18.2238
18.2239
18.2239
18.2239
18.2239
18.2239
18.2239
18.2238
18.2238
18.2237
18.2237
18.2236
18.2235
18.2234
18.2232
18.223
18.2229
18.2226
18.2224
18.2221
18.2218
18.2214
18.221
18.2206
18.2201
18.2195
18.2189
18.2182
18.2174
18.2166
18.2157
18.2148
18.2139
18.2131
18.776
18.7767
18.7776
18.7785
18.7794
18.7802
18.7809
18.7816
18.7822
18.7828
18.7833
18.7837
18.7841
18.7845
18.7848
18.7851
18.7853
18.7855
18.7857
18.7859
18.786
18.7861
18.7862
18.7863
18.7864
18.7864
18.7865
18.7865
18.7865
18.7866
18.7866
18.7865
18.7865
18.7865
18.7864
18.7864
18.7863
18.7862
18.7861
18.786
18.7859
18.7857
18.7855
18.7853
18.7851
18.7848
18.7845
18.7841
18.7837
18.7833
18.7828
18.7822
18.7816
18.7809
18.7802
18.7794
18.7785
18.7776
18.7767
18.776
19.3189
19.3196
19.3205
19.3214
19.3222
19.323
19.3237
19.3244
19.325
19.3255
19.326
19.3264
19.3268
19.3272
19.3275
19.3277
19.328
19.3282
19.3283
19.3285
19.3286
19.3288
19.3288
19.3289
19.329
19.3291
19.3291
19.3291
19.3291
19.3292
19.3292
19.3291
19.3291
19.3291
19.3291
19.329
19.3289
19.3288
19.3288
19.3286
19.3285
19.3283
19.3282
19.328
19.3277
19.3275
19.3272
19.3268
19.3264
19.326
19.3255
19.325
19.3244
19.3237
19.323
19.3222
19.3214
19.3205
19.3196
19.3189
19.8367
19.8374
19.8382
19.8391
19.8399
19.8407
19.8414
19.842
19.8426
19.8431
19.8435
19.8439
19.8443
19.8446
19.8449
19.8452
19.8454
19.8456
19.8458
19.8459
19.846
19.8462
19.8463
19.8463
19.8464
19.8464
19.8465
19.8465
19.8465
19.8465
19.8465
19.8465
19.8465
19.8465
19.8464
19.8464
19.8463
19.8463
19.8462
19.846
19.8459
19.8458
19.8456
19.8454
19.8452
19.8449
19.8446
19.8443
19.8439
19.8435
19.8431
19.8426
19.842
19.8414
19.8407
19.8399
19.8391
19.8382
19.8374
19.8367
20.3234
20.3241
20.3249
20.3257
20.3264
20.3271
20.3278
20.3284
20.3289
20.3294
20.3298
20.3302
20.3305
20.3308
20.3311
20.3313
20.3316
20.3317
20.3319
20.332
20.3322
20.3323
20.3323
20.3324
20.3325
20.3325
20.3326
20.3326
20.3326
20.3326
20.3326
20.3326
20.3326
20.3326
20.3325
20.3325
20.3324
20.3323
20.3323
20.3322
20.332
20.3319
20.3317
20.3316
20.3313
20.3311
20.3308
20.3305
20.3302
20.3298
20.3294
20.3289
20.3284
20.3278
20.3271
20.3264
20.3257
20.3249
20.3241
20.3234
20.7721
20.7727
20.7734
20.7741
20.7748
20.7754
20.776
20.7766
20.7771
20.7775
20.7779
20.7782
20.7786
20.7788
20.7791
20.7793
20.7795
20.7796
20.7798
20.7799
20.78
20.7801
20.7802
20.7803
20.7803
20.7804
20.7804
20.7804
20.7804
20.7805
20.7805
20.7804
20.7804
20.7804
20.7804
20.7803
20.7803
20.7802
20.7801
20.78
20.7799
20.7798
20.7796
20.7795
20.7793
20.7791
20.7788
20.7786
20.7782
20.7779
20.7775
20.7771
20.7766
20.776
20.7754
20.7748
20.7741
20.7734
20.7727
20.7721
21.1755
21.176
21.1766
21.1772
21.1779
21.1784
21.1789
21.1794
21.1798
21.1802
21.1806
21.1809
21.1811
21.1814
21.1816
21.1818
21.182
21.1821
21.1822
21.1823
21.1824
21.1825
21.1826
21.1826
21.1827
21.1827
21.1828
21.1828
21.1828
21.1828
21.1828
21.1828
21.1828
21.1828
21.1827
21.1827
21.1826
21.1826
21.1825
21.1824
21.1823
21.1822
21.1821
21.182
21.1818
21.1816
21.1814
21.1811
21.1809
21.1806
21.1802
21.1798
21.1794
21.1789
21.1784
21.1779
21.1772
21.1766
21.176
21.1755
21.5272
21.5277
21.5282
21.5287
21.5292
21.5297
21.5302
21.5306
21.5309
21.5312
21.5315
21.5318
21.532
21.5322
21.5324
21.5326
21.5327
21.5328
21.5329
21.533
21.5331
21.5332
21.5332
21.5333
21.5333
21.5334
21.5334
21.5334
21.5334
21.5334
21.5334
21.5334
21.5334
21.5334
21.5334
21.5333
21.5333
21.5332
21.5332
21.5331
21.533
21.5329
21.5328
21.5327
21.5326
21.5324
21.5322
21.532
21.5318
21.5315
21.5312
21.5309
21.5306
21.5302
21.5297
21.5292
21.5287
21.5282
21.5277
21.5272
21.8239
21.8242
21.8247
21.8251
21.8255
21.8259
21.8262
21.8265
21.8268
21.8271
21.8273
21.8275
21.8277
21.8279
21.828
21.8281
21.8283
21.8283
21.8284
21.8285
21.8286
21.8286
21.8287
21.8287
21.8287
21.8288
21.8288
21.8288
21.8288
21.8288
21.8288
21.8288
21.8288
21.8288
21.8288
21.8287
21.8287
21.8287
21.8286
21.8286
21.8285
21.8284
21.8283
21.8283
21.8281
21.828
21.8279
21.8277
21.8275
21.8273
21.8271
21.8268
21.8265
21.8262
21.8259
21.8255
21.8251
21.8247
21.8242
21.8239
22.0664
22.0666
22.0669
22.0673
22.0676
22.0679
22.0681
22.0684
22.0686
22.0688
22.069
22.0691
22.0693
22.0694
22.0695
22.0696
22.0697
22.0698
22.0698
22.0699
22.0699
22.07
22.07
22.07
22.0701
22.0701
22.0701
22.0701
22.0701
22.0701
22.0701
22.0701
22.0701
22.0701
22.0701
22.0701
22.07
22.07
22.07
22.0699
22.0699
22.0698
22.0698
22.0697
22.0696
22.0695
22.0694
22.0693
22.0691
22.069
22.0688
22.0686
22.0684
22.0681
22.0679
22.0676
22.0673
22.0669
22.0666
22.0664
22.2604
22.2606
22.2608
22.2611
22.2613
22.2615
22.2617
22.2619
22.2621
22.2622
22.2623
22.2624
22.2625
22.2626
22.2627
22.2628
22.2628
22.2629
22.2629
22.263
22.263
22.263
22.2631
22.2631
22.2631
22.2631
22.2631
22.2631
22.2631
22.2631
22.2631
22.2631
22.2631
22.2631
22.2631
22.2631
22.2631
22.2631
22.263
22.263
22.263
22.2629
22.2629
22.2628
22.2628
22.2627
22.2626
22.2625
22.2624
22.2623
22.2622
22.2621
22.2619
22.2617
22.2615
22.2613
22.2611
22.2608
22.2606
22.2604
22.415
22.4151
22.4153
22.4155
22.4156
22.4158
22.4159
22.416
22.4161
22.4162
22.4163
22.4164
22.4165
22.4166
22.4166
22.4167
22.4167
22.4167
22.4168
22.4168
22.4168
22.4168
22.4169
22.4169
22.4169
22.4169
22.4169
22.4169
22.4169
22.4169
22.4169
22.4169
22.4169
22.4169
22.4169
22.4169
22.4169
22.4169
22.4168
22.4168
22.4168
22.4168
22.4167
22.4167
22.4167
22.4166
22.4166
22.4165
22.4164
22.4163
22.4162
22.4161
22.416
22.4159
22.4158
22.4156
22.4155
22.4153
22.4151
22.415
22.5397
22.5398
22.5399
22.54
22.5401
22.5403
22.5403
22.5404
22.5405
22.5406
22.5406
22.5407
22.5407
22.5408
22.5408
22.5409
22.5409
22.5409
22.5409
22.541
22.541
22.541
22.541
22.541
22.541
22.541
22.541
22.541
22.541
22.541
22.541
22.541
22.541
22.541
22.541
22.541
22.541
22.541
22.541
22.541
22.541
22.5409
22.5409
22.5409
22.5409
22.5408
22.5408
22.5407
22.5407
22.5406
22.5406
22.5405
22.5404
22.5403
22.5403
22.5401
22.54
22.5399
22.5398
22.5397
22.6429
22.643
22.643
22.6431
22.6432
22.6433
22.6433
22.6434
22.6434
22.6435
22.6435
22.6436
22.6436
22.6436
22.6437
22.6437
22.6437
22.6437
22.6437
22.6437
22.6438
22.6438
22.6438
22.6438
22.6438
22.6438
22.6438
22.6438
22.6438
22.6438
22.6438
22.6438
22.6438
22.6438
22.6438
22.6438
22.6438
22.6438
22.6438
22.6438
22.6437
22.6437
22.6437
22.6437
22.6437
22.6437
22.6436
22.6436
22.6436
22.6435
22.6435
22.6434
22.6434
22.6433
22.6433
22.6432
22.6431
22.643
22.643
22.6429
22.7308
22.7308
22.7309
22.7309
22.731
22.731
22.7311
22.7311
22.7312
22.7312
22.7312
22.7313
22.7313
22.7313
22.7313
22.7313
22.7313
22.7314
22.7314
22.7314
22.7314
22.7314
22.7314
22.7314
22.7314
22.7314
22.7314
22.7314
22.7314
22.7314
22.7314
22.7314
22.7314
22.7314
22.7314
22.7314
22.7314
22.7314
22.7314
22.7314
22.7314
22.7314
22.7314
22.7313
22.7313
22.7313
22.7313
22.7313
22.7313
22.7312
22.7312
22.7312
22.7311
22.7311
22.731
22.731
22.7309
22.7309
22.7308
22.7308
22.8077
22.8077
22.8078
22.8078
22.8078
22.8079
22.8079
22.8079
22.808
22.808
22.808
22.808
22.808
22.808
22.8081
22.8081
22.8081
22.8081
22.8081
22.8081
22.8081
22.8081
22.8081
22.8081
22.8081
22.8081
22.8081
22.8081
22.8081
22.8081
22.8081
22.8081
22.8081
22.8081
22.8081
22.8081
22.8081
22.8081
22.8081
22.8081
22.8081
22.8081
22.8081
22.8081
22.8081
22.8081
22.808
22.808
22.808
22.808
22.808
22.808
22.8079
22.8079
22.8079
22.8078
22.8078
22.8078
22.8077
22.8077
22.8765
22.8765
22.8765
22.8766
22.8766
22.8766
22.8766
22.8766
22.8766
22.8767
22.8767
22.8767
22.8767
22.8767
22.8767
22.8767
22.8767
22.8767
22.8767
22.8767
22.8767
22.8767
22.8767
22.8767
22.8767
22.8767
22.8767
22.8767
22.8767
22.8767
22.8767
22.8767
22.8767
22.8767
22.8767
22.8767
22.8767
22.8767
22.8767
22.8767
22.8767
22.8767
22.8767
22.8767
22.8767
22.8767
22.8767
22.8767
22.8767
22.8767
22.8767
22.8766
22.8766
22.8766
22.8766
22.8766
22.8766
22.8765
22.8765
22.8765
22.939
22.939
22.939
22.9391
22.9391
22.9391
22.9391
22.9391
22.9391
22.9391
22.9391
22.9391
22.9391
22.9391
22.9391
22.9391
22.9391
22.9391
22.9391
22.9391
22.9391
22.9391
22.9391
22.9391
22.9391
22.9391
22.9391
22.9391
22.9391
22.9391
22.9391
22.9391
22.9391
22.9391
22.9391
22.9391
22.9391
22.9391
22.9391
22.9391
22.9391
22.9391
22.9391
22.9391
22.9391
22.9391
22.9391
22.9391
22.9391
22.9391
22.9391
22.9391
22.9391
22.9391
22.9391
22.9391
22.9391
22.939
22.939
22.939
22.9966
22.9966
22.9966
22.9966
22.9966
22.9966
22.9966
22.9966
22.9966
22.9966
22.9966
22.9966
22.9966
22.9966
22.9966
22.9966
22.9966
22.9966
22.9966
22.9966
22.9966
22.9966
22.9966
22.9966
22.9966
22.9966
22.9966
22.9966
22.9966
22.9966
22.9966
22.9966
22.9966
22.9966
22.9966
22.9966
22.9966
22.9966
22.9966
22.9966
22.9966
22.9966
22.9966
22.9966
22.9966
22.9966
22.9966
22.9966
22.9966
22.9966
22.9966
22.9966
22.9966
22.9966
22.9966
22.9966
22.9966
22.9966
22.9966
22.9966
23.0501
23.0501
23.0501
23.0501
23.0501
23.0501
23.0501
23.0501
23.0501
23.0501
23.0501
23.0501
23.0501
23.0501
23.0501
23.0501
23.0501
23.0501
23.0501
23.0501
23.0501
23.0501
23.0501
23.0501
23.0501
23.0501
23.0501
23.0501
23.0501
23.0501
23.0501
23.0501
23.0501
23.0501
23.0501
23.0501
23.0501
23.0501
23.0501
23.0501
23.0501
23.0501
23.0501
23.0501
23.0501
23.0501
23.0501
23.0501
23.0501
23.0501
23.0501
23.0501
23.0501
23.0501
23.0501
23.0501
23.0501
23.0501
23.0501
23.0501
23.1003
23.1003
23.1003
23.1003
23.1003
23.1003
23.1003
23.1003
23.1003
23.1003
23.1003
23.1003
23.1003
23.1003
23.1003
23.1003
23.1002
23.1002
23.1002
23.1002
23.1002
23.1002
23.1002
23.1002
23.1002
23.1002
23.1002
23.1002
23.1002
23.1002
23.1002
23.1002
23.1002
23.1002
23.1002
23.1002
23.1002
23.1002
23.1002
23.1002
23.1002
23.1002
23.1002
23.1002
23.1003
23.1003
23.1003
23.1003
23.1003
23.1003
23.1003
23.1003
23.1003
23.1003
23.1003
23.1003
23.1003
23.1003
23.1003
23.1003
23.1477
23.1477
23.1477
23.1477
23.1477
23.1477
23.1477
23.1477
23.1476
23.1476
23.1476
23.1476
23.1476
23.1476
23.1476
23.1476
23.1476
23.1476
23.1476
23.1476
23.1476
23.1476
23.1476
23.1476
23.1476
23.1476
23.1476
23.1476
23.1476
23.1476
23.1476
23.1476
23.1476
23.1476
23.1476
23.1476
23.1476
23.1476
23.1476
23.1476
23.1476
23.1476
23.1476
23.1476
23.1476
23.1476
23.1476
23.1476
23.1476
23.1476
23.1476
23.1476
23.1477
23.1477
23.1477
23.1477
23.1477
23.1477
23.1477
23.1477
23.1927
23.1927
23.1927
23.1927
23.1927
23.1926
23.1926
23.1926
23.1926
23.1926
23.1926
23.1926
23.1926
23.1926
23.1926
23.1925
23.1925
23.1925
23.1925
23.1925
23.1925
23.1925
23.1925
23.1925
23.1925
23.1925
23.1925
23.1925
23.1925
23.1925
23.1925
23.1925
23.1925
23.1925
23.1925
23.1925
23.1925
23.1925
23.1925
23.1925
23.1925
23.1925
23.1925
23.1925
23.1925
23.1926
23.1926
23.1926
23.1926
23.1926
23.1926
23.1926
23.1926
23.1926
23.1926
23.1927
23.1927
23.1927
23.1927
23.1927
23.2356
23.2356
23.2356
23.2356
23.2356
23.2355
23.2355
23.2355
23.2355
23.2355
23.2355
23.2355
23.2355
23.2354
23.2354
23.2354
23.2354
23.2354
23.2354
23.2354
23.2354
23.2354
23.2354
23.2354
23.2354
23.2354
23.2354
23.2354
23.2354
23.2354
23.2354
23.2354
23.2354
23.2354
23.2354
23.2354
23.2354
23.2354
23.2354
23.2354
23.2354
23.2354
23.2354
23.2354
23.2354
23.2354
23.2354
23.2355
23.2355
23.2355
23.2355
23.2355
23.2355
23.2355
23.2355
23.2356
23.2356
23.2356
23.2356
23.2356
23.2767
23.2767
23.2767
23.2767
23.2767
23.2767
23.2766
23.2766
23.2766
23.2766
23.2766
23.2766
23.2766
23.2765
23.2765
23.2765
23.2765
23.2765
23.2765
23.2765
23.2765
23.2765
23.2765
23.2765
23.2765
23.2765
23.2765
23.2765
23.2765
23.2765
23.2765
23.2765
23.2765
23.2765
23.2765
23.2765
23.2765
23.2765
23.2765
23.2765
23.2765
23.2765
23.2765
23.2765
23.2765
23.2765
23.2765
23.2766
23.2766
23.2766
23.2766
23.2766
23.2766
23.2766
23.2767
23.2767
23.2767
23.2767
23.2767
23.2767
23.3163
23.3163
23.3162
23.3162
23.3162
23.3162
23.3162
23.3161
23.3161
23.3161
23.3161
23.3161
23.3161
23.3161
23.3161
23.316
23.316
23.316
23.316
23.316
23.316
23.316
23.316
23.316
23.316
23.316
23.316
23.316
23.316
23.316
23.316
23.316
23.316
23.316
23.316
23.316
23.316
23.316
23.316
23.316
23.316
23.316
23.316
23.316
23.316
23.3161
23.3161
23.3161
23.3161
23.3161
23.3161
23.3161
23.3161
23.3162
23.3162
23.3162
23.3162
23.3162
23.3163
23.3163
23.3544
23.3544
23.3544
23.3544
23.3544
23.3543
23.3543
23.3543
23.3543
23.3543
23.3542
23.3542
23.3542
23.3542
23.3542
23.3542
23.3542
23.3542
23.3542
23.3542
23.3542
23.3541
23.3541
23.3541
23.3541
23.3541
23.3541
23.3541
23.3541
23.3541
23.3541
23.3541
23.3541
23.3541
23.3541
23.3541
23.3541
23.3541
23.3541
23.3542
23.3542
23.3542
23.3542
23.3542
23.3542
23.3542
23.3542
23.3542
23.3542
23.3542
23.3543
23.3543
23.3543
23.3543
23.3543
23.3544
23.3544
23.3544
23.3544
23.3544
23.3914
23.3913
23.3913
23.3913
23.3913
23.3913
23.3912
23.3912
23.3912
23.3912
23.3912
23.3911
23.3911
23.3911
23.3911
23.3911
23.3911
23.3911
23.3911
23.3911
23.3911
23.3911
23.3911
23.3911
23.3911
23.3911
23.391
23.391
23.391
23.391
23.391
23.391
23.391
23.391
23.3911
23.3911
23.3911
23.3911
23.3911
23.3911
23.3911
23.3911
23.3911
23.3911
23.3911
23.3911
23.3911
23.3911
23.3911
23.3912
23.3912
23.3912
23.3912
23.3912
23.3913
23.3913
23.3913
23.3913
23.3913
23.3914
23.4272
23.4272
23.4272
23.4271
23.4271
23.4271
23.4271
23.427
23.427
23.427
23.427
23.427
23.427
23.427
23.4269
23.4269
23.4269
23.4269
23.4269