/*--------------------------------*- C++ -*----------------------------------*\
| =========                 |                                                 |
| \\      /  F ield         | foam-extend: Open Source CFD                    |
|  \\    /   O peration     | Version:     4.0                                |
|   \\  /    A nd           | Web:         http://www.foam-extend.org         |
|    \\/     M anipulation  |                                                 |
\*---------------------------------------------------------------------------*/
FoamFile
{
    version     2.0;
    format      ascii;
    class       volScalarField;
    location    "530";
    object      cMinus;
}
// * * * * * * * * * * * * * * * * * * * * * * * * * * * * * * * * * * * * * //

dimensions      [0 0 0 0 0 0 0];

internalField   nonuniform List<scalar> 
6960
(
9.59473e-18
9.56418e-18
9.58906e-18
9.5998e-18
9.60259e-18
9.60115e-18
9.59739e-18
9.59229e-18
9.58637e-18
9.57991e-18
9.57311e-18
9.56613e-18
9.55908e-18
9.55208e-18
9.5452e-18
9.53853e-18
9.53214e-18
9.52607e-18
9.52038e-18
9.5151e-18
9.51025e-18
9.50586e-18
9.50194e-18
9.4985e-18
9.49554e-18
9.49308e-18
9.49111e-18
9.48963e-18
9.48864e-18
9.48815e-18
9.48815e-18
9.48864e-18
9.48963e-18
9.49111e-18
9.49308e-18
9.49554e-18
9.4985e-18
9.50194e-18
9.50586e-18
9.51025e-18
9.5151e-18
9.52038e-18
9.52607e-18
9.53214e-18
9.53853e-18
9.5452e-18
9.55208e-18
9.55908e-18
9.56613e-18
9.57311e-18
9.57991e-18
9.58637e-18
9.59229e-18
9.59739e-18
9.60115e-18
9.60259e-18
9.5998e-18
9.58906e-18
9.56418e-18
9.59473e-18
1.5617e-17
1.55759e-17
1.56144e-17
1.56309e-17
1.56351e-17
1.56328e-17
1.56269e-17
1.5619e-17
1.56097e-17
1.55997e-17
1.55891e-17
1.55782e-17
1.55672e-17
1.55563e-17
1.55456e-17
1.55352e-17
1.55253e-17
1.55158e-17
1.55069e-17
1.54987e-17
1.54912e-17
1.54843e-17
1.54782e-17
1.54729e-17
1.54683e-17
1.54644e-17
1.54614e-17
1.5459e-17
1.54575e-17
1.54567e-17
1.54567e-17
1.54575e-17
1.5459e-17
1.54614e-17
1.54644e-17
1.54683e-17
1.54729e-17
1.54782e-17
1.54843e-17
1.54912e-17
1.54987e-17
1.55069e-17
1.55158e-17
1.55253e-17
1.55352e-17
1.55456e-17
1.55563e-17
1.55672e-17
1.55782e-17
1.55891e-17
1.55997e-17
1.56097e-17
1.5619e-17
1.56269e-17
1.56328e-17
1.56351e-17
1.56309e-17
1.56144e-17
1.55759e-17
1.5617e-17
5.20351e-17
5.19203e-17
5.20414e-17
5.20931e-17
5.21061e-17
5.20985e-17
5.20796e-17
5.20542e-17
5.20248e-17
5.19928e-17
5.19591e-17
5.19246e-17
5.18897e-17
5.1855e-17
5.18209e-17
5.17879e-17
5.17563e-17
5.17263e-17
5.16981e-17
5.16719e-17
5.16479e-17
5.16262e-17
5.16068e-17
5.15898e-17
5.15752e-17
5.1563e-17
5.15532e-17
5.15459e-17
5.1541e-17
5.15386e-17
5.15386e-17
5.1541e-17
5.15459e-17
5.15532e-17
5.1563e-17
5.15752e-17
5.15898e-17
5.16068e-17
5.16262e-17
5.16479e-17
5.16719e-17
5.16981e-17
5.17263e-17
5.17563e-17
5.17879e-17
5.18209e-17
5.1855e-17
5.18897e-17
5.19246e-17
5.19591e-17
5.19928e-17
5.20248e-17
5.20542e-17
5.20796e-17
5.20985e-17
5.21061e-17
5.20931e-17
5.20414e-17
5.19203e-17
5.20351e-17
1.93728e-16
1.93384e-16
1.93804e-16
1.93982e-16
1.94027e-16
1.94e-16
1.93934e-16
1.93846e-16
1.93744e-16
1.93633e-16
1.93516e-16
1.93396e-16
1.93275e-16
1.93154e-16
1.93036e-16
1.92922e-16
1.92812e-16
1.92708e-16
1.9261e-16
1.9252e-16
1.92436e-16
1.92361e-16
1.92294e-16
1.92235e-16
1.92184e-16
1.92142e-16
1.92108e-16
1.92083e-16
1.92066e-16
1.92057e-16
1.92057e-16
1.92066e-16
1.92083e-16
1.92108e-16
1.92142e-16
1.92184e-16
1.92235e-16
1.92294e-16
1.92361e-16
1.92436e-16
1.9252e-16
1.9261e-16
1.92708e-16
1.92812e-16
1.92922e-16
1.93036e-16
1.93154e-16
1.93275e-16
1.93396e-16
1.93516e-16
1.93633e-16
1.93744e-16
1.93846e-16
1.93934e-16
1.94e-16
1.94027e-16
1.93982e-16
1.93804e-16
1.93384e-16
1.93728e-16
7.62163e-16
7.61242e-16
7.62736e-16
7.63369e-16
7.63529e-16
7.63437e-16
7.63209e-16
7.62902e-16
7.62547e-16
7.6216e-16
7.61754e-16
7.61337e-16
7.60916e-16
7.60498e-16
7.60087e-16
7.59689e-16
7.59307e-16
7.58945e-16
7.58606e-16
7.5829e-16
7.58001e-16
7.57739e-16
7.57505e-16
7.573e-16
7.57124e-16
7.56977e-16
7.56859e-16
7.56771e-16
7.56712e-16
7.56683e-16
7.56683e-16
7.56712e-16
7.56771e-16
7.56859e-16
7.56977e-16
7.57124e-16
7.573e-16
7.57505e-16
7.57739e-16
7.58001e-16
7.5829e-16
7.58606e-16
7.58945e-16
7.59307e-16
7.59689e-16
7.60087e-16
7.60498e-16
7.60916e-16
7.61337e-16
7.61754e-16
7.6216e-16
7.62547e-16
7.62902e-16
7.63209e-16
7.63437e-16
7.63529e-16
7.63369e-16
7.62736e-16
7.61242e-16
7.62163e-16
3.25004e-15
3.2486e-15
3.25422e-15
3.25663e-15
3.25729e-15
3.25702e-15
3.25626e-15
3.25521e-15
3.25398e-15
3.25265e-15
3.25125e-15
3.24981e-15
3.24836e-15
3.24692e-15
3.2455e-15
3.24413e-15
3.24281e-15
3.24156e-15
3.24039e-15
3.2393e-15
3.23831e-15
3.2374e-15
3.2366e-15
3.23589e-15
3.23528e-15
3.23478e-15
3.23437e-15
3.23407e-15
3.23387e-15
3.23376e-15
3.23376e-15
3.23387e-15
3.23407e-15
3.23437e-15
3.23478e-15
3.23528e-15
3.23589e-15
3.2366e-15
3.2374e-15
3.23831e-15
3.2393e-15
3.24039e-15
3.24156e-15
3.24281e-15
3.24413e-15
3.2455e-15
3.24692e-15
3.24836e-15
3.24981e-15
3.25125e-15
3.25265e-15
3.25398e-15
3.25521e-15
3.25626e-15
3.25702e-15
3.25729e-15
3.25663e-15
3.25422e-15
3.2486e-15
3.25004e-15
1.55132e-14
1.55213e-14
1.55455e-14
1.55562e-14
1.55597e-14
1.55594e-14
1.55571e-14
1.55537e-14
1.55496e-14
1.55451e-14
1.55404e-14
1.55355e-14
1.55306e-14
1.55257e-14
1.55209e-14
1.55163e-14
1.55118e-14
1.55076e-14
1.55036e-14
1.54999e-14
1.54966e-14
1.54935e-14
1.54908e-14
1.54884e-14
1.54863e-14
1.54846e-14
1.54833e-14
1.54822e-14
1.54816e-14
1.54812e-14
1.54812e-14
1.54816e-14
1.54822e-14
1.54833e-14
1.54846e-14
1.54863e-14
1.54884e-14
1.54908e-14
1.54935e-14
1.54966e-14
1.54999e-14
1.55036e-14
1.55076e-14
1.55118e-14
1.55163e-14
1.55209e-14
1.55257e-14
1.55306e-14
1.55355e-14
1.55404e-14
1.55451e-14
1.55496e-14
1.55537e-14
1.55571e-14
1.55594e-14
1.55597e-14
1.55562e-14
1.55455e-14
1.55213e-14
1.55132e-14
8.43387e-14
8.44728e-14
8.46025e-14
8.46635e-14
8.46877e-14
8.4693e-14
8.46885e-14
8.46787e-14
8.46662e-14
8.4652e-14
8.46368e-14
8.46211e-14
8.46052e-14
8.45894e-14
8.45739e-14
8.45588e-14
8.45444e-14
8.45307e-14
8.45179e-14
8.4506e-14
8.4495e-14
8.44852e-14
8.44763e-14
8.44686e-14
8.4462e-14
8.44565e-14
8.44521e-14
8.44488e-14
8.44466e-14
8.44455e-14
8.44455e-14
8.44466e-14
8.44488e-14
8.44521e-14
8.44565e-14
8.4462e-14
8.44686e-14
8.44763e-14
8.44852e-14
8.4495e-14
8.4506e-14
8.45179e-14
8.45307e-14
8.45444e-14
8.45588e-14
8.45739e-14
8.45894e-14
8.46052e-14
8.46211e-14
8.46368e-14
8.4652e-14
8.46662e-14
8.46787e-14
8.46885e-14
8.4693e-14
8.46877e-14
8.46635e-14
8.46025e-14
8.44728e-14
8.43387e-14
5.16617e-13
5.17972e-13
5.18847e-13
5.19282e-13
5.19482e-13
5.1956e-13
5.19577e-13
5.19563e-13
5.19534e-13
5.19496e-13
5.19454e-13
5.1941e-13
5.19364e-13
5.19319e-13
5.19274e-13
5.1923e-13
5.19189e-13
5.19149e-13
5.19112e-13
5.19077e-13
5.19046e-13
5.19018e-13
5.18992e-13
5.1897e-13
5.18951e-13
5.18935e-13
5.18923e-13
5.18913e-13
5.18907e-13
5.18904e-13
5.18904e-13
5.18907e-13
5.18913e-13
5.18923e-13
5.18935e-13
5.18951e-13
5.1897e-13
5.18992e-13
5.19018e-13
5.19046e-13
5.19077e-13
5.19112e-13
5.19149e-13
5.19189e-13
5.1923e-13
5.19274e-13
5.19319e-13
5.19364e-13
5.1941e-13
5.19454e-13
5.19496e-13
5.19534e-13
5.19563e-13
5.19577e-13
5.1956e-13
5.19482e-13
5.19282e-13
5.18847e-13
5.17972e-13
5.16617e-13
3.45214e-12
3.4643e-12
3.47114e-12
3.47467e-12
3.4764e-12
3.47721e-12
3.47756e-12
3.47769e-12
3.47771e-12
3.47767e-12
3.47761e-12
3.47753e-12
3.47745e-12
3.47737e-12
3.47728e-12
3.4772e-12
3.47712e-12
3.47704e-12
3.47697e-12
3.4769e-12
3.47684e-12
3.47679e-12
3.47674e-12
3.4767e-12
3.47667e-12
3.47664e-12
3.47661e-12
3.4766e-12
3.47658e-12
3.47658e-12
3.47658e-12
3.47658e-12
3.4766e-12
3.47661e-12
3.47664e-12
3.47667e-12
3.4767e-12
3.47674e-12
3.47679e-12
3.47684e-12
3.4769e-12
3.47697e-12
3.47704e-12
3.47712e-12
3.4772e-12
3.47728e-12
3.47737e-12
3.47745e-12
3.47753e-12
3.47761e-12
3.47767e-12
3.47771e-12
3.47769e-12
3.47756e-12
3.47721e-12
3.4764e-12
3.47467e-12
3.47114e-12
3.4643e-12
3.45214e-12
2.42608e-11
2.43648e-11
2.44212e-11
2.44509e-11
2.44659e-11
2.44733e-11
2.4477e-11
2.44789e-11
2.448e-11
2.44806e-11
2.4481e-11
2.44814e-11
2.44817e-11
2.44819e-11
2.44822e-11
2.44824e-11
2.44826e-11
2.44828e-11
2.4483e-11
2.44831e-11
2.44833e-11
2.44834e-11
2.44836e-11
2.44837e-11
2.44838e-11
2.44839e-11
2.4484e-11
2.4484e-11
2.44841e-11
2.44841e-11
2.44841e-11
2.44841e-11
2.4484e-11
2.4484e-11
2.44839e-11
2.44838e-11
2.44837e-11
2.44836e-11
2.44834e-11
2.44833e-11
2.44831e-11
2.4483e-11
2.44828e-11
2.44826e-11
2.44824e-11
2.44822e-11
2.44819e-11
2.44817e-11
2.44814e-11
2.4481e-11
2.44806e-11
2.448e-11
2.44789e-11
2.4477e-11
2.44733e-11
2.44659e-11
2.44509e-11
2.44212e-11
2.43648e-11
2.42608e-11
1.73925e-10
1.74782e-10
1.75248e-10
1.75495e-10
1.75621e-10
1.75685e-10
1.75718e-10
1.75736e-10
1.75748e-10
1.75756e-10
1.75762e-10
1.75768e-10
1.75773e-10
1.75778e-10
1.75783e-10
1.75787e-10
1.75791e-10
1.75795e-10
1.75799e-10
1.75802e-10
1.75806e-10
1.75809e-10
1.75811e-10
1.75814e-10
1.75816e-10
1.75817e-10
1.75819e-10
1.7582e-10
1.7582e-10
1.75821e-10
1.75821e-10
1.7582e-10
1.7582e-10
1.75819e-10
1.75817e-10
1.75816e-10
1.75814e-10
1.75811e-10
1.75809e-10
1.75806e-10
1.75802e-10
1.75799e-10
1.75795e-10
1.75791e-10
1.75787e-10
1.75783e-10
1.75778e-10
1.75773e-10
1.75768e-10
1.75762e-10
1.75756e-10
1.75748e-10
1.75736e-10
1.75718e-10
1.75685e-10
1.75621e-10
1.75495e-10
1.75248e-10
1.74782e-10
1.73925e-10
1.24233e-09
1.24912e-09
1.25285e-09
1.25484e-09
1.25586e-09
1.25638e-09
1.25665e-09
1.2568e-09
1.2569e-09
1.25697e-09
1.25703e-09
1.25708e-09
1.25713e-09
1.25717e-09
1.25722e-09
1.25726e-09
1.2573e-09
1.25733e-09
1.25737e-09
1.2574e-09
1.25743e-09
1.25746e-09
1.25748e-09
1.2575e-09
1.25752e-09
1.25754e-09
1.25755e-09
1.25756e-09
1.25757e-09
1.25757e-09
1.25757e-09
1.25757e-09
1.25756e-09
1.25755e-09
1.25754e-09
1.25752e-09
1.2575e-09
1.25748e-09
1.25746e-09
1.25743e-09
1.2574e-09
1.25737e-09
1.25733e-09
1.2573e-09
1.25726e-09
1.25722e-09
1.25717e-09
1.25713e-09
1.25708e-09
1.25703e-09
1.25697e-09
1.2569e-09
1.2568e-09
1.25665e-09
1.25638e-09
1.25586e-09
1.25484e-09
1.25285e-09
1.24912e-09
1.24233e-09
8.67459e-09
8.7258e-09
8.7543e-09
8.7695e-09
8.7773e-09
8.78128e-09
8.78337e-09
8.78455e-09
8.7853e-09
8.78585e-09
8.78629e-09
8.78669e-09
8.78706e-09
8.7874e-09
8.78773e-09
8.78805e-09
8.78835e-09
8.78863e-09
8.78889e-09
8.78914e-09
8.78936e-09
8.78957e-09
8.78975e-09
8.78991e-09
8.79005e-09
8.79017e-09
8.79026e-09
8.79034e-09
8.79038e-09
8.79041e-09
8.79041e-09
8.79038e-09
8.79034e-09
8.79026e-09
8.79017e-09
8.79005e-09
8.78991e-09
8.78975e-09
8.78957e-09
8.78936e-09
8.78914e-09
8.78889e-09
8.78863e-09
8.78835e-09
8.78805e-09
8.78773e-09
8.7874e-09
8.78706e-09
8.78669e-09
8.78629e-09
8.78585e-09
8.7853e-09
8.78455e-09
8.78337e-09
8.78128e-09
8.7773e-09
8.7695e-09
8.7543e-09
8.7258e-09
8.67459e-09
5.82142e-08
5.8578e-08
5.87824e-08
5.88914e-08
5.89474e-08
5.8976e-08
5.8991e-08
5.89994e-08
5.90047e-08
5.90085e-08
5.90116e-08
5.90143e-08
5.90169e-08
5.90192e-08
5.90215e-08
5.90237e-08
5.90257e-08
5.90276e-08
5.90294e-08
5.90311e-08
5.90326e-08
5.9034e-08
5.90353e-08
5.90364e-08
5.90373e-08
5.90381e-08
5.90387e-08
5.90392e-08
5.90395e-08
5.90397e-08
5.90397e-08
5.90395e-08
5.90392e-08
5.90387e-08
5.90381e-08
5.90373e-08
5.90364e-08
5.90353e-08
5.9034e-08
5.90326e-08
5.90311e-08
5.90294e-08
5.90276e-08
5.90257e-08
5.90237e-08
5.90215e-08
5.90192e-08
5.90169e-08
5.90143e-08
5.90116e-08
5.90085e-08
5.90047e-08
5.89994e-08
5.8991e-08
5.8976e-08
5.89474e-08
5.88914e-08
5.87824e-08
5.8578e-08
5.82142e-08
3.69434e-07
3.71833e-07
3.7319e-07
3.73913e-07
3.74285e-07
3.74474e-07
3.74573e-07
3.74628e-07
3.74663e-07
3.74687e-07
3.74707e-07
3.74725e-07
3.7474e-07
3.74755e-07
3.7477e-07
3.74783e-07
3.74796e-07
3.74808e-07
3.74819e-07
3.74829e-07
3.74839e-07
3.74847e-07
3.74855e-07
3.74862e-07
3.74868e-07
3.74873e-07
3.74877e-07
3.7488e-07
3.74882e-07
3.74883e-07
3.74883e-07
3.74882e-07
3.7488e-07
3.74877e-07
3.74873e-07
3.74868e-07
3.74862e-07
3.74855e-07
3.74847e-07
3.74839e-07
3.74829e-07
3.74819e-07
3.74808e-07
3.74796e-07
3.74783e-07
3.7477e-07
3.74755e-07
3.7474e-07
3.74725e-07
3.74707e-07
3.74687e-07
3.74663e-07
3.74628e-07
3.74573e-07
3.74474e-07
3.74285e-07
3.73913e-07
3.7319e-07
3.71833e-07
3.69434e-07
2.18163e-06
2.19609e-06
2.2043e-06
2.20868e-06
2.21093e-06
2.21207e-06
2.21267e-06
2.213e-06
2.2132e-06
2.21335e-06
2.21346e-06
2.21356e-06
2.21365e-06
2.21374e-06
2.21382e-06
2.2139e-06
2.21397e-06
2.21404e-06
2.2141e-06
2.21416e-06
2.21421e-06
2.21426e-06
2.2143e-06
2.21434e-06
2.21438e-06
2.2144e-06
2.21443e-06
2.21444e-06
2.21445e-06
2.21446e-06
2.21446e-06
2.21445e-06
2.21444e-06
2.21443e-06
2.2144e-06
2.21438e-06
2.21434e-06
2.2143e-06
2.21426e-06
2.21421e-06
2.21416e-06
2.2141e-06
2.21404e-06
2.21397e-06
2.2139e-06
2.21382e-06
2.21374e-06
2.21365e-06
2.21356e-06
2.21346e-06
2.21335e-06
2.2132e-06
2.213e-06
2.21267e-06
2.21207e-06
2.21093e-06
2.20868e-06
2.2043e-06
2.19609e-06
2.18163e-06
1.17953e-05
1.18737e-05
1.19183e-05
1.19421e-05
1.19543e-05
1.19605e-05
1.19637e-05
1.19655e-05
1.19665e-05
1.19673e-05
1.19679e-05
1.19684e-05
1.19689e-05
1.19693e-05
1.19697e-05
1.19701e-05
1.19705e-05
1.19708e-05
1.19712e-05
1.19715e-05
1.19717e-05
1.1972e-05
1.19722e-05
1.19724e-05
1.19726e-05
1.19727e-05
1.19728e-05
1.19729e-05
1.1973e-05
1.1973e-05
1.1973e-05
1.1973e-05
1.19729e-05
1.19728e-05
1.19727e-05
1.19726e-05
1.19724e-05
1.19722e-05
1.1972e-05
1.19717e-05
1.19715e-05
1.19712e-05
1.19708e-05
1.19705e-05
1.19701e-05
1.19697e-05
1.19693e-05
1.19689e-05
1.19684e-05
1.19679e-05
1.19673e-05
1.19665e-05
1.19655e-05
1.19637e-05
1.19605e-05
1.19543e-05
1.19421e-05
1.19183e-05
1.18737e-05
1.17953e-05
5.74308e-05
5.78063e-05
5.802e-05
5.81338e-05
5.81921e-05
5.82217e-05
5.8237e-05
5.82455e-05
5.82506e-05
5.82541e-05
5.82569e-05
5.82593e-05
5.82614e-05
5.82634e-05
5.82653e-05
5.8267e-05
5.82687e-05
5.82702e-05
5.82717e-05
5.8273e-05
5.82743e-05
5.82754e-05
5.82764e-05
5.82773e-05
5.82781e-05
5.82787e-05
5.82792e-05
5.82796e-05
5.82799e-05
5.828e-05
5.828e-05
5.82799e-05
5.82796e-05
5.82792e-05
5.82787e-05
5.82781e-05
5.82773e-05
5.82764e-05
5.82754e-05
5.82743e-05
5.8273e-05
5.82717e-05
5.82702e-05
5.82687e-05
5.8267e-05
5.82653e-05
5.82634e-05
5.82614e-05
5.82593e-05
5.82569e-05
5.82541e-05
5.82506e-05
5.82455e-05
5.8237e-05
5.82217e-05
5.81921e-05
5.81338e-05
5.802e-05
5.78063e-05
5.74308e-05
0.000247587
0.000249147
0.000250033
0.000250504
0.000250745
0.000250868
0.000250931
0.000250966
0.000250987
0.000251001
0.000251012
0.000251022
0.00025103
0.000251038
0.000251045
0.000251052
0.000251059
0.000251065
0.000251071
0.000251076
0.000251081
0.000251085
0.000251089
0.000251093
0.000251096
0.000251098
0.0002511
0.000251102
0.000251103
0.000251103
0.000251103
0.000251103
0.000251102
0.0002511
0.000251098
0.000251096
0.000251093
0.000251089
0.000251085
0.000251081
0.000251076
0.000251071
0.000251065
0.000251059
0.000251052
0.000251045
0.000251038
0.00025103
0.000251022
0.000251012
0.000251001
0.000250987
0.000250966
0.000250931
0.000250868
0.000250745
0.000250504
0.000250033
0.000249147
0.000247587
0.000928805
0.000934304
0.00093742
0.000939075
0.000939922
0.000940352
0.000940574
0.000940695
0.000940768
0.000940817
0.000940855
0.000940887
0.000940915
0.000940942
0.000940966
0.000940989
0.000941011
0.000941032
0.000941051
0.000941068
0.000941084
0.000941099
0.000941112
0.000941124
0.000941134
0.000941142
0.000941149
0.000941154
0.000941157
0.000941159
0.000941159
0.000941157
0.000941154
0.000941149
0.000941142
0.000941134
0.000941124
0.000941112
0.000941099
0.000941084
0.000941068
0.000941051
0.000941032
0.000941011
0.000940989
0.000940966
0.000940942
0.000940915
0.000940887
0.000940855
0.000940817
0.000940768
0.000940695
0.000940574
0.000940352
0.000939922
0.000939075
0.00093742
0.000934304
0.000928805
0.00298079
0.0029969
0.00300599
0.00301082
0.00301329
0.00301454
0.00301519
0.00301554
0.00301575
0.00301589
0.003016
0.00301608
0.00301616
0.00301624
0.00301631
0.00301637
0.00301643
0.00301649
0.00301654
0.00301659
0.00301663
0.00301667
0.00301671
0.00301674
0.00301677
0.00301679
0.00301681
0.00301682
0.00301683
0.00301684
0.00301684
0.00301683
0.00301682
0.00301681
0.00301679
0.00301677
0.00301674
0.00301671
0.00301667
0.00301663
0.00301659
0.00301654
0.00301649
0.00301643
0.00301637
0.00301631
0.00301624
0.00301616
0.00301608
0.003016
0.00301589
0.00301575
0.00301554
0.00301519
0.00301454
0.00301329
0.00301082
0.00300599
0.0029969
0.00298079
0.008067
0.00810547
0.00812709
0.00813855
0.00814441
0.00814739
0.00814892
0.00814975
0.00815024
0.00815057
0.00815082
0.00815102
0.00815121
0.00815137
0.00815153
0.00815167
0.00815181
0.00815194
0.00815206
0.00815217
0.00815227
0.00815236
0.00815244
0.00815251
0.00815257
0.00815263
0.00815267
0.0081527
0.00815272
0.00815273
0.00815273
0.00815272
0.0081527
0.00815267
0.00815263
0.00815257
0.00815251
0.00815244
0.00815236
0.00815227
0.00815217
0.00815206
0.00815194
0.00815181
0.00815167
0.00815153
0.00815137
0.00815121
0.00815102
0.00815082
0.00815057
0.00815024
0.00814975
0.00814892
0.00814739
0.00814441
0.00813855
0.00812709
0.00810547
0.008067
0.0182813
0.0183556
0.0183972
0.0184191
0.0184304
0.0184361
0.0184391
0.0184406
0.0184416
0.0184422
0.0184427
0.018443
0.0184434
0.0184437
0.018444
0.0184442
0.0184445
0.0184447
0.0184449
0.0184451
0.0184453
0.0184455
0.0184456
0.0184458
0.0184459
0.018446
0.018446
0.0184461
0.0184461
0.0184462
0.0184462
0.0184461
0.0184461
0.018446
0.018446
0.0184459
0.0184458
0.0184456
0.0184455
0.0184453
0.0184451
0.0184449
0.0184447
0.0184445
0.0184442
0.018444
0.0184437
0.0184434
0.018443
0.0184427
0.0184422
0.0184416
0.0184406
0.0184391
0.0184361
0.0184304
0.0184191
0.0183972
0.0183556
0.0182813
0.0348852
0.0350025
0.0350677
0.0351022
0.0351199
0.0351289
0.0351335
0.035136
0.0351375
0.0351384
0.0351391
0.0351397
0.0351402
0.0351407
0.0351411
0.0351415
0.0351418
0.0351422
0.0351425
0.0351428
0.0351431
0.0351433
0.0351435
0.0351437
0.0351439
0.035144
0.0351442
0.0351442
0.0351443
0.0351443
0.0351443
0.0351443
0.0351442
0.0351442
0.035144
0.0351439
0.0351437
0.0351435
0.0351433
0.0351431
0.0351428
0.0351425
0.0351422
0.0351418
0.0351415
0.0351411
0.0351407
0.0351402
0.0351397
0.0351391
0.0351384
0.0351375
0.035136
0.0351335
0.0351289
0.0351199
0.0351022
0.0350677
0.0350025
0.0348852
0.0571916
0.0573487
0.0574354
0.0574813
0.0575049
0.0575169
0.057523
0.0575264
0.0575283
0.0575295
0.0575304
0.0575312
0.0575318
0.0575324
0.0575329
0.0575334
0.0575339
0.0575343
0.0575347
0.0575351
0.0575354
0.0575357
0.057536
0.0575362
0.0575365
0.0575366
0.0575368
0.0575369
0.0575369
0.057537
0.057537
0.0575369
0.0575369
0.0575368
0.0575366
0.0575365
0.0575362
0.057536
0.0575357
0.0575354
0.0575351
0.0575347
0.0575343
0.0575339
0.0575334
0.0575329
0.0575324
0.0575318
0.0575312
0.0575304
0.0575295
0.0575283
0.0575264
0.057523
0.0575169
0.0575049
0.0574813
0.0574354
0.0573487
0.0571916
0.0830289
0.0832163
0.0833193
0.0833739
0.083402
0.0834162
0.0834236
0.0834275
0.0834298
0.0834313
0.0834323
0.0834332
0.0834339
0.0834345
0.0834351
0.0834357
0.0834362
0.0834367
0.0834371
0.0834375
0.0834379
0.0834382
0.0834385
0.0834388
0.083439
0.0834392
0.0834394
0.0834395
0.0834396
0.0834396
0.0834396
0.0834396
0.0834395
0.0834394
0.0834392
0.083439
0.0834388
0.0834385
0.0834382
0.0834379
0.0834375
0.0834371
0.0834367
0.0834362
0.0834357
0.0834351
0.0834345
0.0834339
0.0834332
0.0834323
0.0834313
0.0834298
0.0834275
0.0834236
0.0834162
0.083402
0.0833739
0.0833193
0.0832163
0.0830289
0.110236
0.110446
0.110561
0.110622
0.110653
0.110669
0.110677
0.110682
0.110684
0.110686
0.110687
0.110688
0.110689
0.110689
0.11069
0.11069
0.110691
0.110691
0.110692
0.110692
0.110693
0.110693
0.110693
0.110694
0.110694
0.110694
0.110694
0.110694
0.110694
0.110695
0.110695
0.110694
0.110694
0.110694
0.110694
0.110694
0.110694
0.110693
0.110693
0.110693
0.110692
0.110692
0.110691
0.110691
0.11069
0.11069
0.110689
0.110689
0.110688
0.110687
0.110686
0.110684
0.110682
0.110677
0.110669
0.110653
0.110622
0.110561
0.110446
0.110236
0.137552
0.137779
0.137903
0.137969
0.138003
0.138021
0.13803
0.138034
0.138037
0.138039
0.13804
0.138041
0.138042
0.138043
0.138043
0.138044
0.138044
0.138045
0.138045
0.138046
0.138046
0.138046
0.138047
0.138047
0.138047
0.138047
0.138048
0.138048
0.138048
0.138048
0.138048
0.138048
0.138048
0.138048
0.138047
0.138047
0.138047
0.138047
0.138046
0.138046
0.138046
0.138045
0.138045
0.138044
0.138044
0.138043
0.138043
0.138042
0.138041
0.13804
0.138039
0.138037
0.138034
0.13803
0.138021
0.138003
0.137969
0.137903
0.137779
0.137552
0.164518
0.16476
0.164893
0.164964
0.165001
0.16502
0.16503
0.165035
0.165038
0.16504
0.165041
0.165042
0.165043
0.165043
0.165044
0.165045
0.165045
0.165046
0.165046
0.165047
0.165047
0.165047
0.165048
0.165048
0.165048
0.165048
0.165049
0.165049
0.165049
0.165049
0.165049
0.165049
0.165049
0.165049
0.165048
0.165048
0.165048
0.165048
0.165047
0.165047
0.165047
0.165046
0.165046
0.165045
0.165045
0.165044
0.165043
0.165043
0.165042
0.165041
0.16504
0.165038
0.165035
0.16503
0.16502
0.165001
0.164964
0.164893
0.16476
0.164518
0.191065
0.191322
0.191464
0.19154
0.191579
0.191599
0.19161
0.191616
0.191619
0.191621
0.191622
0.191623
0.191624
0.191625
0.191625
0.191626
0.191627
0.191627
0.191627
0.191628
0.191628
0.191629
0.191629
0.191629
0.19163
0.19163
0.19163
0.19163
0.19163
0.19163
0.19163
0.19163
0.19163
0.19163
0.19163
0.19163
0.191629
0.191629
0.191629
0.191628
0.191628
0.191627
0.191627
0.191627
0.191626
0.191625
0.191625
0.191624
0.191623
0.191622
0.191621
0.191619
0.191616
0.19161
0.191599
0.191579
0.19154
0.191464
0.191322
0.191065
0.217226
0.217498
0.217648
0.217729
0.217771
0.217793
0.217804
0.217811
0.217814
0.217816
0.217817
0.217818
0.217819
0.21782
0.217821
0.217821
0.217822
0.217822
0.217823
0.217823
0.217824
0.217824
0.217824
0.217825
0.217825
0.217825
0.217825
0.217825
0.217825
0.217825
0.217825
0.217825
0.217825
0.217825
0.217825
0.217825
0.217825
0.217824
0.217824
0.217824
0.217823
0.217823
0.217822
0.217822
0.217821
0.217821
0.21782
0.217819
0.217818
0.217817
0.217816
0.217814
0.217811
0.217804
0.217793
0.217771
0.217729
0.217648
0.217498
0.217226
0.243032
0.243317
0.243476
0.243561
0.243606
0.24363
0.243642
0.243649
0.243652
0.243655
0.243656
0.243657
0.243658
0.243659
0.243659
0.24366
0.243661
0.243661
0.243662
0.243662
0.243662
0.243663
0.243663
0.243663
0.243664
0.243664
0.243664
0.243664
0.243664
0.243664
0.243664
0.243664
0.243664
0.243664
0.243664
0.243664
0.243663
0.243663
0.243663
0.243662
0.243662
0.243662
0.243661
0.243661
0.24366
0.243659
0.243659
0.243658
0.243657
0.243656
0.243655
0.243652
0.243649
0.243642
0.24363
0.243606
0.243561
0.243476
0.243317
0.243032
0.26849
0.268788
0.268954
0.269045
0.269092
0.269118
0.269131
0.269138
0.269142
0.269144
0.269146
0.269147
0.269148
0.269148
0.269149
0.26915
0.26915
0.269151
0.269151
0.269152
0.269152
0.269152
0.269153
0.269153
0.269153
0.269153
0.269154
0.269154
0.269154
0.269154
0.269154
0.269154
0.269154
0.269154
0.269153
0.269153
0.269153
0.269153
0.269152
0.269152
0.269152
0.269151
0.269151
0.26915
0.26915
0.269149
0.269148
0.269148
0.269147
0.269146
0.269144
0.269142
0.269138
0.269131
0.269118
0.269092
0.269045
0.268954
0.268788
0.26849
0.293592
0.293901
0.294075
0.294171
0.294221
0.294248
0.294262
0.29427
0.294274
0.294277
0.294278
0.294279
0.29428
0.294281
0.294282
0.294282
0.294283
0.294283
0.294284
0.294284
0.294285
0.294285
0.294285
0.294286
0.294286
0.294286
0.294286
0.294286
0.294286
0.294286
0.294286
0.294286
0.294286
0.294286
0.294286
0.294286
0.294286
0.294285
0.294285
0.294285
0.294284
0.294284
0.294283
0.294283
0.294282
0.294282
0.294281
0.29428
0.294279
0.294278
0.294277
0.294274
0.29427
0.294262
0.294248
0.294221
0.294171
0.294075
0.293901
0.293592
0.318323
0.318642
0.318824
0.318924
0.318978
0.319006
0.319021
0.319029
0.319034
0.319037
0.319038
0.31904
0.31904
0.319041
0.319042
0.319042
0.319043
0.319043
0.319044
0.319044
0.319045
0.319045
0.319045
0.319046
0.319046
0.319046
0.319046
0.319046
0.319046
0.319046
0.319046
0.319046
0.319046
0.319046
0.319046
0.319046
0.319046
0.319045
0.319045
0.319045
0.319044
0.319044
0.319043
0.319043
0.319042
0.319042
0.319041
0.31904
0.31904
0.319038
0.319037
0.319034
0.319029
0.319021
0.319006
0.318978
0.318924
0.318824
0.318642
0.318323
0.342663
0.342992
0.343181
0.343286
0.343343
0.343373
0.343389
0.343398
0.343403
0.343405
0.343407
0.343409
0.343409
0.34341
0.343411
0.343411
0.343412
0.343412
0.343413
0.343413
0.343414
0.343414
0.343414
0.343414
0.343415
0.343415
0.343415
0.343415
0.343415
0.343415
0.343415
0.343415
0.343415
0.343415
0.343415
0.343415
0.343414
0.343414
0.343414
0.343414
0.343413
0.343413
0.343412
0.343412
0.343411
0.343411
0.34341
0.343409
0.343409
0.343407
0.343405
0.343403
0.343398
0.343389
0.343373
0.343343
0.343286
0.343181
0.342992
0.342663
0.366595
0.366932
0.367128
0.367237
0.367297
0.367329
0.367346
0.367356
0.367361
0.367364
0.367366
0.367367
0.367368
0.367369
0.367369
0.36737
0.367371
0.367371
0.367371
0.367372
0.367372
0.367372
0.367373
0.367373
0.367373
0.367373
0.367374
0.367374
0.367374
0.367374
0.367374
0.367374
0.367374
0.367374
0.367373
0.367373
0.367373
0.367373
0.367372
0.367372
0.367372
0.367371
0.367371
0.367371
0.36737
0.367369
0.367369
0.367368
0.367367
0.367366
0.367364
0.367361
0.367356
0.367346
0.367329
0.367297
0.367237
0.367128
0.366932
0.366595
0.390099
0.390444
0.390646
0.39076
0.390822
0.390856
0.390875
0.390884
0.39089
0.390893
0.390895
0.390897
0.390898
0.390898
0.390899
0.3909
0.3909
0.390901
0.390901
0.390901
0.390902
0.390902
0.390902
0.390903
0.390903
0.390903
0.390903
0.390903
0.390903
0.390903
0.390903
0.390903
0.390903
0.390903
0.390903
0.390903
0.390903
0.390902
0.390902
0.390902
0.390901
0.390901
0.390901
0.3909
0.3909
0.390899
0.390898
0.390898
0.390897
0.390895
0.390893
0.39089
0.390884
0.390875
0.390856
0.390822
0.39076
0.390646
0.390444
0.390099
0.413158
0.413509
0.413717
0.413835
0.413901
0.413937
0.413956
0.413967
0.413973
0.413976
0.413978
0.41398
0.413981
0.413981
0.413982
0.413983
0.413983
0.413983
0.413984
0.413984
0.413985
0.413985
0.413985
0.413985
0.413986
0.413986
0.413986
0.413986
0.413986
0.413986
0.413986
0.413986
0.413986
0.413986
0.413986
0.413986
0.413985
0.413985
0.413985
0.413985
0.413984
0.413984
0.413983
0.413983
0.413983
0.413982
0.413981
0.413981
0.41398
0.413978
0.413976
0.413973
0.413967
0.413956
0.413937
0.413901
0.413835
0.413717
0.413509
0.413158
0.435755
0.436112
0.436325
0.436448
0.436516
0.436554
0.436575
0.436586
0.436592
0.436596
0.436598
0.4366
0.436601
0.436601
0.436602
0.436603
0.436603
0.436603
0.436604
0.436604
0.436605
0.436605
0.436605
0.436605
0.436605
0.436606
0.436606
0.436606
0.436606
0.436606
0.436606
0.436606
0.436606
0.436606
0.436606
0.436605
0.436605
0.436605
0.436605
0.436605
0.436604
0.436604
0.436603
0.436603
0.436603
0.436602
0.436601
0.436601
0.4366
0.436598
0.436596
0.436592
0.436586
0.436575
0.436554
0.436516
0.436448
0.436325
0.436112
0.435755
0.457877
0.458238
0.458456
0.458583
0.458654
0.458694
0.458716
0.458728
0.458734
0.458738
0.458741
0.458742
0.458743
0.458744
0.458745
0.458745
0.458746
0.458746
0.458746
0.458747
0.458747
0.458747
0.458747
0.458748
0.458748
0.458748
0.458748
0.458748
0.458748
0.458748
0.458748
0.458748
0.458748
0.458748
0.458748
0.458748
0.458748
0.458747
0.458747
0.458747
0.458747
0.458746
0.458746
0.458746
0.458745
0.458745
0.458744
0.458743
0.458742
0.458741
0.458738
0.458734
0.458728
0.458716
0.458694
0.458654
0.458583
0.458456
0.458238
0.457877
0.479509
0.479874
0.480097
0.480227
0.480302
0.480343
0.480366
0.480379
0.480386
0.48039
0.480392
0.480394
0.480395
0.480396
0.480397
0.480397
0.480398
0.480398
0.480398
0.480399
0.480399
0.480399
0.480399
0.4804
0.4804
0.4804
0.4804
0.4804
0.4804
0.4804
0.4804
0.4804
0.4804
0.4804
0.4804
0.4804
0.4804
0.480399
0.480399
0.480399
0.480399
0.480398
0.480398
0.480398
0.480397
0.480397
0.480396
0.480395
0.480394
0.480392
0.48039
0.480386
0.480379
0.480366
0.480343
0.480302
0.480227
0.480097
0.479874
0.479509
0.500641
0.501009
0.501236
0.50137
0.501447
0.50149
0.501514
0.501528
0.501535
0.50154
0.501542
0.501544
0.501545
0.501546
0.501547
0.501547
0.501548
0.501548
0.501548
0.501549
0.501549
0.501549
0.501549
0.50155
0.50155
0.50155
0.50155
0.50155
0.50155
0.50155
0.50155
0.50155
0.50155
0.50155
0.50155
0.50155
0.50155
0.501549
0.501549
0.501549
0.501549
0.501548
0.501548
0.501548
0.501547
0.501547
0.501546
0.501545
0.501544
0.501542
0.50154
0.501535
0.501528
0.501514
0.50149
0.501447
0.50137
0.501236
0.501009
0.500641
0.521262
0.521632
0.521863
0.522001
0.52208
0.522125
0.522151
0.522165
0.522173
0.522178
0.522181
0.522183
0.522184
0.522185
0.522185
0.522186
0.522186
0.522186
0.522187
0.522187
0.522187
0.522187
0.522188
0.522188
0.522188
0.522188
0.522188
0.522188
0.522188
0.522188
0.522188
0.522188
0.522188
0.522188
0.522188
0.522188
0.522188
0.522188
0.522187
0.522187
0.522187
0.522187
0.522186
0.522186
0.522186
0.522185
0.522185
0.522184
0.522183
0.522181
0.522178
0.522173
0.522165
0.522151
0.522125
0.52208
0.522001
0.521863
0.521632
0.521262
0.541366
0.541737
0.54197
0.542111
0.542194
0.542241
0.542268
0.542283
0.542291
0.542296
0.542299
0.542301
0.542302
0.542303
0.542304
0.542304
0.542305
0.542305
0.542305
0.542306
0.542306
0.542306
0.542306
0.542306
0.542307
0.542307
0.542307
0.542307
0.542307
0.542307
0.542307
0.542307
0.542307
0.542307
0.542307
0.542307
0.542306
0.542306
0.542306
0.542306
0.542306
0.542305
0.542305
0.542305
0.542304
0.542304
0.542303
0.542302
0.542301
0.542299
0.542296
0.542291
0.542283
0.542268
0.542241
0.542194
0.542111
0.54197
0.541737
0.541366
0.560944
0.561315
0.561552
0.561696
0.561781
0.56183
0.561858
0.561874
0.561883
0.561888
0.561892
0.561893
0.561895
0.561896
0.561896
0.561897
0.561897
0.561897
0.561898
0.561898
0.561898
0.561898
0.561898
0.561899
0.561899
0.561899
0.561899
0.561899
0.561899
0.561899
0.561899
0.561899
0.561899
0.561899
0.561899
0.561899
0.561899
0.561898
0.561898
0.561898
0.561898
0.561898