/*--------------------------------*- C++ -*----------------------------------*\
| =========                 |                                                 |
| \\      /  F ield         | foam-extend: Open Source CFD                    |
|  \\    /   O peration     | Version:     4.0                                |
|   \\  /    A nd           | Web:         http://www.foam-extend.org         |
|    \\/     M anipulation  |                                                 |
\*---------------------------------------------------------------------------*/
FoamFile
{
    version     2.0;
    format      ascii;
    class       volScalarField;
    location    "19";
    object      dC2;
}
// * * * * * * * * * * * * * * * * * * * * * * * * * * * * * * * * * * * * * //

dimensions      [0 -1 0 0 0 0 0];

internalField   nonuniform List<scalar> 
6960
(
9.96393e-16
9.96393e-16
9.96395e-16
9.96396e-16
9.96396e-16
9.96396e-16
9.96395e-16
9.96395e-16
9.96396e-16
9.96395e-16
9.96396e-16
9.96396e-16
9.96396e-16
9.96395e-16
9.96396e-16
9.96396e-16
9.96396e-16
9.96396e-16
9.96395e-16
9.96396e-16
9.96396e-16
9.96395e-16
9.96395e-16
9.96396e-16
9.96395e-16
9.96396e-16
9.96395e-16
9.96396e-16
9.96395e-16
9.96396e-16
9.96396e-16
9.96396e-16
9.96395e-16
9.96396e-16
9.96395e-16
9.96396e-16
9.96395e-16
9.96396e-16
9.96396e-16
9.96395e-16
9.96395e-16
9.96395e-16
9.96396e-16
9.96395e-16
9.96396e-16
9.96396e-16
9.96396e-16
9.96396e-16
9.96395e-16
9.96396e-16
9.96396e-16
9.96395e-16
9.96396e-16
9.96396e-16
9.96395e-16
9.96396e-16
9.96395e-16
9.96394e-16
9.96394e-16
9.96393e-16
2.85582e-15
2.85582e-15
2.85582e-15
2.85582e-15
2.85582e-15
2.85582e-15
2.85582e-15
2.85583e-15
2.85582e-15
2.85582e-15
2.85582e-15
2.85582e-15
2.85582e-15
2.85582e-15
2.85583e-15
2.85582e-15
2.85582e-15
2.85582e-15
2.85582e-15
2.85582e-15
2.85582e-15
2.85582e-15
2.85583e-15
2.85582e-15
2.85582e-15
2.85582e-15
2.85582e-15
2.85582e-15
2.85582e-15
2.85582e-15
2.85582e-15
2.85582e-15
2.85582e-15
2.85582e-15
2.85583e-15
2.85582e-15
2.85582e-15
2.85582e-15
2.85582e-15
2.85582e-15
2.85583e-15
2.85582e-15
2.85582e-15
2.85582e-15
2.85582e-15
2.85582e-15
2.85582e-15
2.85582e-15
2.85582e-15
2.85582e-15
2.85582e-15
2.85583e-15
2.85582e-15
2.85582e-15
2.85583e-15
2.85582e-15
2.85582e-15
2.85582e-15
2.85582e-15
2.85582e-15
6.45901e-15
6.45901e-15
6.45902e-15
6.45903e-15
6.45902e-15
6.45903e-15
6.45902e-15
6.45902e-15
6.45902e-15
6.45903e-15
6.45903e-15
6.45903e-15
6.45903e-15
6.45902e-15
6.45902e-15
6.45902e-15
6.45902e-15
6.45902e-15
6.45902e-15
6.45902e-15
6.45903e-15
6.45902e-15
6.45902e-15
6.45902e-15
6.45903e-15
6.45902e-15
6.45902e-15
6.45902e-15
6.45902e-15
6.45902e-15
6.45902e-15
6.45902e-15
6.45903e-15
6.45903e-15
6.45902e-15
6.45903e-15
6.45902e-15
6.45902e-15
6.45902e-15
6.45902e-15
6.45902e-15
6.45902e-15
6.45902e-15
6.45902e-15
6.45903e-15
6.45902e-15
6.45902e-15
6.45903e-15
6.45902e-15
6.45903e-15
6.45901e-15
6.45902e-15
6.45902e-15
6.45902e-15
6.45902e-15
6.45902e-15
6.45902e-15
6.45902e-15
6.45901e-15
6.45901e-15
1.25908e-14
1.25908e-14
1.25908e-14
1.25908e-14
1.25908e-14
1.25908e-14
1.25908e-14
1.25908e-14
1.25908e-14
1.25908e-14
1.25908e-14
1.25908e-14
1.25908e-14
1.25908e-14
1.25908e-14
1.25908e-14
1.25908e-14
1.25908e-14
1.25908e-14
1.25908e-14
1.25908e-14
1.25908e-14
1.25908e-14
1.25908e-14
1.25908e-14
1.25908e-14
1.25908e-14
1.25908e-14
1.25908e-14
1.25908e-14
1.25908e-14
1.25908e-14
1.25908e-14
1.25908e-14
1.25908e-14
1.25908e-14
1.25908e-14
1.25908e-14
1.25908e-14
1.25908e-14
1.25908e-14
1.25908e-14
1.25908e-14
1.25908e-14
1.25908e-14
1.25908e-14
1.25908e-14
1.25908e-14
1.25908e-14
1.25908e-14
1.25908e-14
1.25908e-14
1.25908e-14
1.25908e-14
1.25908e-14
1.25908e-14
1.25908e-14
1.25908e-14
1.25908e-14
1.25908e-14
2.24437e-14
2.24437e-14
2.24437e-14
2.24438e-14
2.24438e-14
2.24438e-14
2.24438e-14
2.24437e-14
2.24438e-14
2.24437e-14
2.24437e-14
2.24438e-14
2.24438e-14
2.24437e-14
2.24438e-14
2.24437e-14
2.24438e-14
2.24438e-14
2.24437e-14
2.24437e-14
2.24438e-14
2.24438e-14
2.24437e-14
2.24437e-14
2.24438e-14
2.24437e-14
2.24437e-14
2.24438e-14
2.24438e-14
2.24438e-14
2.24438e-14
2.24438e-14
2.24437e-14
2.24437e-14
2.24437e-14
2.24438e-14
2.24437e-14
2.24437e-14
2.24437e-14
2.24438e-14
2.24437e-14
2.24438e-14
2.24438e-14
2.24438e-14
2.24438e-14
2.24438e-14
2.24437e-14
2.24438e-14
2.24438e-14
2.24438e-14
2.24438e-14
2.24437e-14
2.24438e-14
2.24438e-14
2.24438e-14
2.24437e-14
2.24437e-14
2.24437e-14
2.24437e-14
2.24437e-14
3.78141e-14
3.78141e-14
3.78141e-14
3.78141e-14
3.78141e-14
3.78141e-14
3.78141e-14
3.78141e-14
3.78141e-14
3.78141e-14
3.78141e-14
3.78141e-14
3.78141e-14
3.78141e-14
3.78141e-14
3.78141e-14
3.78141e-14
3.78141e-14
3.78141e-14
3.78141e-14
3.78141e-14
3.78141e-14
3.78142e-14
3.78141e-14
3.78141e-14
3.78141e-14
3.78141e-14
3.78141e-14
3.78141e-14
3.78141e-14
3.78141e-14
3.78141e-14
3.78141e-14
3.78141e-14
3.78141e-14
3.78141e-14
3.78141e-14
3.78141e-14
3.78141e-14
3.78141e-14
3.78141e-14
3.78141e-14
3.78141e-14
3.78141e-14
3.78141e-14
3.78141e-14
3.78141e-14
3.78141e-14
3.78141e-14
3.78141e-14
3.78141e-14
3.78141e-14
3.78141e-14
3.78141e-14
3.78141e-14
3.78141e-14
3.78141e-14
3.78141e-14
3.78141e-14
3.7814e-14
6.17444e-14
6.17445e-14
6.17444e-14
6.17446e-14
6.17446e-14
6.17447e-14
6.17446e-14
6.17446e-14
6.17447e-14
6.17446e-14
6.17446e-14
6.17447e-14
6.17446e-14
6.17446e-14
6.17447e-14
6.17447e-14
6.17446e-14
6.17446e-14
6.17446e-14
6.17446e-14
6.17446e-14
6.17446e-14
6.17446e-14
6.17446e-14
6.17446e-14
6.17446e-14
6.17446e-14
6.17446e-14
6.17446e-14
6.17445e-14
6.17446e-14
6.17446e-14
6.17445e-14
6.17446e-14
6.17446e-14
6.17446e-14
6.17446e-14
6.17446e-14
6.17446e-14
6.17446e-14
6.17445e-14
6.17446e-14
6.17447e-14
6.17446e-14
6.17446e-14
6.17447e-14
6.17445e-14
6.17446e-14
6.17446e-14
6.17446e-14
6.17446e-14
6.17446e-14
6.17445e-14
6.17446e-14
6.17446e-14
6.17446e-14
6.17445e-14
6.17446e-14
6.17444e-14
6.17444e-14
9.95179e-14
9.95179e-14
9.9518e-14
9.9518e-14
9.9518e-14
9.9518e-14
9.9518e-14
9.95182e-14
9.95179e-14
9.9518e-14
9.95181e-14
9.9518e-14
9.95182e-14
9.95181e-14
9.95181e-14
9.95181e-14
9.9518e-14
9.95181e-14
9.9518e-14
9.95181e-14
9.95181e-14
9.95179e-14
9.95179e-14
9.95181e-14
9.9518e-14
9.95181e-14
9.95179e-14
9.9518e-14
9.95179e-14
9.95181e-14
9.9518e-14
9.95181e-14
9.95181e-14
9.95181e-14
9.95181e-14
9.95182e-14
9.95182e-14
9.95181e-14
9.95181e-14
9.9518e-14
9.95181e-14
9.95181e-14
9.95179e-14
9.95181e-14
9.9518e-14
9.95181e-14
9.95181e-14
9.95181e-14
9.95181e-14
9.95182e-14
9.95181e-14
9.95181e-14
9.95182e-14
9.9518e-14
9.95182e-14
9.95181e-14
9.9518e-14
9.95179e-14
9.95179e-14
9.95181e-14
1.58282e-13
1.58282e-13
1.58282e-13
1.58282e-13
1.58282e-13
1.58282e-13
1.58282e-13
1.58282e-13
1.58283e-13
1.58282e-13
1.58282e-13
1.58283e-13
1.58282e-13
1.58282e-13
1.58282e-13
1.58282e-13
1.58282e-13
1.58282e-13
1.58283e-13
1.58283e-13
1.58282e-13
1.58283e-13
1.58282e-13
1.58282e-13
1.58282e-13
1.58282e-13
1.58282e-13
1.58282e-13
1.58283e-13
1.58282e-13
1.58283e-13
1.58282e-13
1.58282e-13
1.58282e-13
1.58282e-13
1.58282e-13
1.58282e-13
1.58282e-13
1.58282e-13
1.58282e-13
1.58282e-13
1.58282e-13
1.58282e-13
1.58283e-13
1.58282e-13
1.58282e-13
1.58283e-13
1.58282e-13
1.58282e-13
1.58282e-13
1.58282e-13
1.58283e-13
1.58283e-13
1.58282e-13
1.58282e-13
1.58282e-13
1.58282e-13
1.58282e-13
1.58282e-13
1.58282e-13
2.37862e-13
2.37862e-13
2.37862e-13
2.37862e-13
2.37862e-13
2.37862e-13
2.37863e-13
2.37862e-13
2.37863e-13
2.37863e-13
2.37863e-13
2.37862e-13
2.37863e-13
2.37862e-13
2.37863e-13
2.37864e-13
2.37863e-13
2.37863e-13
2.37862e-13
2.37862e-13
2.37862e-13
2.37862e-13
2.37863e-13
2.37863e-13
2.37862e-13
2.37862e-13
2.37862e-13
2.37862e-13
2.37862e-13
2.37863e-13
2.37862e-13
2.37863e-13
2.37863e-13
2.37863e-13
2.37863e-13
2.37863e-13
2.37863e-13
2.37863e-13
2.37862e-13
2.37862e-13
2.37862e-13
2.37863e-13
2.37863e-13
2.37862e-13
2.37864e-13
2.37863e-13
2.37862e-13
2.37863e-13
2.37864e-13
2.37863e-13
2.37863e-13
2.37862e-13
2.37862e-13
2.37863e-13
2.37863e-13
2.37863e-13
2.37862e-13
2.37863e-13
2.37862e-13
2.37862e-13
2.97691e-13
2.97691e-13
2.97693e-13
2.97692e-13
2.97693e-13
2.97693e-13
2.97691e-13
2.97693e-13
2.97692e-13
2.97692e-13
2.97691e-13
2.97692e-13
2.97692e-13
2.97694e-13
2.97693e-13
2.97692e-13
2.97692e-13
2.97692e-13
2.97693e-13
2.97693e-13
2.97693e-13
2.97692e-13
2.97692e-13
2.97692e-13
2.97692e-13
2.97693e-13
2.97693e-13
2.97693e-13
2.97692e-13
2.97692e-13
2.97692e-13
2.97692e-13
2.97692e-13
2.97691e-13
2.97692e-13
2.97692e-13
2.97692e-13
2.97691e-13
2.97693e-13
2.97692e-13
2.97693e-13
2.97692e-13
2.97691e-13
2.97693e-13
2.97692e-13
2.97692e-13
2.97692e-13
2.97694e-13
2.97691e-13
2.97691e-13
2.97692e-13
2.97692e-13
2.97693e-13
2.97692e-13
2.97692e-13
2.97692e-13
2.97691e-13
2.9769e-13
2.97692e-13
2.9769e-13
2.04242e-13
2.04241e-13
2.04243e-13
2.04244e-13
2.04242e-13
2.04244e-13
2.04243e-13
2.04242e-13
2.04244e-13
2.04245e-13
2.04246e-13
2.04243e-13
2.04242e-13
2.04241e-13
2.04242e-13
2.04242e-13
2.04243e-13
2.04242e-13
2.04244e-13
2.04241e-13
2.0424e-13
2.04244e-13
2.04243e-13
2.04243e-13
2.04244e-13
2.04242e-13
2.04243e-13
2.0424e-13
2.04243e-13
2.04244e-13
2.04245e-13
2.04242e-13
2.04245e-13
2.04244e-13
2.04244e-13
2.04244e-13
2.04243e-13
2.04244e-13
2.04244e-13
2.04244e-13
2.04241e-13
2.04243e-13
2.04244e-13
2.04242e-13
2.04243e-13
2.04244e-13
2.04244e-13
2.04242e-13
2.04244e-13
2.04244e-13
2.04244e-13
2.04243e-13
2.04244e-13
2.04242e-13
2.04243e-13
2.04243e-13
2.04245e-13
2.04244e-13
2.04241e-13
2.04245e-13
-2.30851e-13
-2.30848e-13
-2.30853e-13
-2.30853e-13
-2.30844e-13
-2.30849e-13
-2.30847e-13
-2.30849e-13
-2.30852e-13
-2.30852e-13
-2.30852e-13
-2.30848e-13
-2.30848e-13
-2.30851e-13
-2.30847e-13
-2.30849e-13
-2.3085e-13
-2.30849e-13
-2.30851e-13
-2.30848e-13
-2.30847e-13
-2.30852e-13
-2.30851e-13
-2.30852e-13
-2.3085e-13
-2.30851e-13
-2.30847e-13
-2.30847e-13
-2.30848e-13
-2.30854e-13
-2.30856e-13
-2.30847e-13
-2.30851e-13
-2.3085e-13
-2.30853e-13
-2.30849e-13
-2.30848e-13
-2.30853e-13
-2.30855e-13
-2.30852e-13
-2.3085e-13
-2.30846e-13
-2.30847e-13
-2.30851e-13
-2.30846e-13
-2.30851e-13
-2.30851e-13
-2.3085e-13
-2.30848e-13
-2.30853e-13
-2.3085e-13
-2.30848e-13
-2.30852e-13
-2.30848e-13
-2.30846e-13
-2.30849e-13
-2.30854e-13
-2.30851e-13
-2.30849e-13
-2.30854e-13
-9.11899e-13
-9.11902e-13
-9.11897e-13
-9.11896e-13
-9.11914e-13
-9.11901e-13
-9.11911e-13
-9.11905e-13
-9.11899e-13
-9.11899e-13
-9.11901e-13
-9.11907e-13
-9.11897e-13
-9.11899e-13
-9.11901e-13
-9.119e-13
-9.11901e-13
-9.11902e-13
-9.11908e-13
-9.119e-13
-9.11902e-13
-9.11904e-13
-9.11896e-13
-9.11894e-13
-9.11897e-13
-9.11902e-13
-9.11902e-13
-9.11906e-13
-9.11907e-13
-9.119e-13
-9.11886e-13
-9.11904e-13
-9.11899e-13
-9.11904e-13
-9.11897e-13
-9.11902e-13
-9.1191e-13
-9.119e-13
-9.1189e-13
-9.119e-13
-9.11903e-13
-9.1191e-13
-9.11908e-13
-9.11895e-13
-9.11905e-13
-9.11901e-13
-9.11909e-13
-9.119e-13
-9.11904e-13
-9.119e-13
-9.11895e-13
-9.11909e-13
-9.11902e-13
-9.11905e-13
-9.11907e-13
-9.11904e-13
-9.11896e-13
-9.11899e-13
-9.11898e-13
-9.11905e-13
-1.04378e-12
-1.04379e-12
-1.04377e-12
-1.04379e-12
-1.04378e-12
-1.04378e-12
-1.04377e-12
-1.04378e-12
-1.04378e-12
-1.04378e-12
-1.04379e-12
-1.04378e-12
-1.0438e-12
-1.04378e-12
-1.04379e-12
-1.04379e-12
-1.04377e-12
-1.0438e-12
-1.04377e-12
-1.04379e-12
-1.04378e-12
-1.04378e-12
-1.0438e-12
-1.04379e-12
-1.0438e-12
-1.04379e-12
-1.04379e-12
-1.04377e-12
-1.04378e-12
-1.04378e-12
-1.04381e-12
-1.04378e-12
-1.0438e-12
-1.04378e-12
-1.04378e-12
-1.04379e-12
-1.04378e-12
-1.04379e-12
-1.04379e-12
-1.04378e-12
-1.04377e-12
-1.04377e-12
-1.04379e-12
-1.04378e-12
-1.04379e-12
-1.04379e-12
-1.04377e-12
-1.04378e-12
-1.04378e-12
-1.04379e-12
-1.04381e-12
-1.04378e-12
-1.04379e-12
-1.04379e-12
-1.04378e-12
-1.04378e-12
-1.04379e-12
-1.04378e-12
-1.04379e-12
-1.04377e-12
1.96866e-13
1.96876e-13
1.96852e-13
1.96892e-13
1.96871e-13
1.96865e-13
1.96866e-13
1.96869e-13
1.9686e-13
1.96872e-13
1.96857e-13
1.96862e-13
1.96886e-13
1.96862e-13
1.96872e-13
1.96876e-13
1.96846e-13
1.96894e-13
1.96859e-13
1.96876e-13
1.96844e-13
1.96875e-13
1.96893e-13
1.96853e-13
1.96873e-13
1.9687e-13
1.96866e-13
1.96869e-13
1.96883e-13
1.96865e-13
1.96884e-13
1.96872e-13
1.96893e-13
1.96875e-13
1.96852e-13
1.96877e-13
1.96871e-13
1.96871e-13
1.96853e-13
1.96891e-13
1.96854e-13
1.96858e-13
1.96876e-13
1.96875e-13
1.96883e-13
1.96869e-13
1.96861e-13
1.96868e-13
1.96873e-13
1.96864e-13
1.96902e-13
1.96885e-13
1.96882e-13
1.96876e-13
1.96872e-13
1.96883e-13
1.96873e-13
1.96863e-13
1.9688e-13
1.96883e-13
1.88675e-12
1.8867e-12
1.88674e-12
1.88672e-12
1.8867e-12
1.88675e-12
1.88675e-12
1.88672e-12
1.88672e-12
1.88674e-12
1.88674e-12
1.88676e-12
1.88668e-12
1.88671e-12
1.88672e-12
1.88671e-12
1.88675e-12
1.88672e-12
1.88673e-12
1.8867e-12
1.88676e-12
1.88673e-12
1.88671e-12
1.88674e-12
1.88672e-12
1.88674e-12
1.88674e-12
1.88673e-12
1.8867e-12
1.88672e-12
1.88674e-12
1.88672e-12
1.88672e-12
1.88671e-12
1.8867e-12
1.88672e-12
1.88673e-12
1.88672e-12
1.88675e-12
1.88669e-12
1.88675e-12
1.88673e-12
1.88674e-12
1.8867e-12
1.88673e-12
1.88672e-12
1.88671e-12
1.88675e-12
1.8867e-12
1.88674e-12
1.88669e-12
1.88672e-12
1.88673e-12
1.88673e-12
1.88672e-12
1.88671e-12
1.88672e-12
1.88675e-12
1.88671e-12
1.88672e-12
1.87105e-12
1.8711e-12
1.8711e-12
1.87112e-12
1.87108e-12
1.87107e-12
1.87107e-12
1.8711e-12
1.87108e-12
1.87106e-12
1.87108e-12
1.87107e-12
1.87114e-12
1.87113e-12
1.87111e-12
1.87111e-12
1.87108e-12
1.87109e-12
1.87108e-12
1.8711e-12
1.87108e-12
1.87107e-12
1.87107e-12
1.87109e-12
1.87107e-12
1.87107e-12
1.87107e-12
1.87105e-12
1.87112e-12
1.87104e-12
1.87107e-12
1.87109e-12
1.87105e-12
1.87113e-12
1.87111e-12
1.87108e-12
1.8711e-12
1.8711e-12
1.8711e-12
1.87112e-12
1.87105e-12
1.8711e-12
1.87107e-12
1.87114e-12
1.87107e-12
1.87113e-12
1.87108e-12
1.87106e-12
1.87115e-12
1.87109e-12
1.87111e-12
1.87109e-12
1.87108e-12
1.87109e-12
1.8711e-12
1.87106e-12
1.87106e-12
1.87105e-12
1.87107e-12
1.87108e-12
1.37108e-13
1.37112e-13
1.37068e-13
1.37092e-13
1.37135e-13
1.37077e-13
1.3712e-13
1.37118e-13
1.37072e-13
1.37148e-13
1.3712e-13
1.3711e-13
1.37032e-13
1.37112e-13
1.37073e-13
1.37155e-13
1.37073e-13
1.37089e-13
1.37085e-13
1.37118e-13
1.37055e-13
1.37105e-13
1.37072e-13
1.37144e-13
1.3712e-13
1.37133e-13
1.37111e-13
1.37138e-13
1.37125e-13
1.37172e-13
1.37116e-13
1.37137e-13
1.37169e-13
1.37092e-13
1.37136e-13
1.37079e-13
1.37096e-13
1.37149e-13
1.3709e-13
1.37116e-13
1.37149e-13
1.37076e-13
1.37105e-13
1.37069e-13
1.37143e-13
1.37058e-13
1.37147e-13
1.3711e-13
1.37029e-13
1.37096e-13
1.37184e-13
1.37087e-13
1.37076e-13
1.37048e-13
1.3712e-13
1.37174e-13
1.371e-13
1.37129e-13
1.37115e-13
1.37102e-13
-1.10701e-12
-1.10704e-12
-1.107e-12
-1.10702e-12
-1.10701e-12
-1.10704e-12
-1.10704e-12
-1.107e-12
-1.10698e-12
-1.107e-12
-1.10706e-12
-1.10694e-12
-1.10693e-12
-1.10707e-12
-1.10697e-12
-1.10708e-12
-1.10696e-12
-1.10699e-12
-1.10704e-12
-1.10705e-12
-1.10695e-12
-1.10699e-12
-1.10699e-12
-1.10707e-12
-1.10698e-12
-1.107e-12
-1.10698e-12
-1.107e-12
-1.10706e-12
-1.10707e-12
-1.10705e-12
-1.10707e-12
-1.10709e-12
-1.10708e-12
-1.10707e-12
-1.10696e-12
-1.10699e-12
-1.1071e-12
-1.10704e-12
-1.10703e-12
-1.10701e-12
-1.10695e-12
-1.10704e-12
-1.10699e-12
-1.10704e-12
-1.10699e-12
-1.10701e-12
-1.10702e-12
-1.10702e-12
-1.10707e-12
-1.10707e-12
-1.10703e-12
-1.10693e-12
-1.10691e-12
-1.10705e-12
-1.10706e-12
-1.10703e-12
-1.10703e-12
-1.10705e-12
-1.10694e-12
-9.65839e-13
-9.65854e-13
-9.6584e-13
-9.65797e-13
-9.65916e-13
-9.65729e-13
-9.6587e-13
-9.65953e-13
-9.65895e-13
-9.65855e-13
-9.65863e-13
-9.65881e-13
-9.65841e-13
-9.65821e-13
-9.65913e-13
-9.65884e-13
-9.6596e-13
-9.65829e-13
-9.65847e-13
-9.65848e-13
-9.65936e-13
-9.65933e-13
-9.65867e-13
-9.65884e-13
-9.65912e-13
-9.6584e-13
-9.65846e-13
-9.65991e-13
-9.65869e-13
-9.65835e-13
-9.65828e-13
-9.65909e-13
-9.65811e-13
-9.65843e-13
-9.65838e-13
-9.65875e-13
-9.6589e-13
-9.6582e-13
-9.65795e-13
-9.6584e-13
-9.65882e-13
-9.65913e-13
-9.65843e-13
-9.65872e-13
-9.65846e-13
-9.6588e-13
-9.65915e-13
-9.65916e-13
-9.65804e-13
-9.65822e-13
-9.6583e-13
-9.65842e-13
-9.65976e-13
-9.65941e-13
-9.65868e-13
-9.65888e-13
-9.65897e-13
-9.65758e-13
-9.65844e-13
-9.65927e-13
-3.91633e-13
-3.9149e-13
-3.91514e-13
-3.91497e-13
-3.91662e-13
-3.9168e-13
-3.91598e-13
-3.91553e-13
-3.91617e-13
-3.91567e-13
-3.91445e-13
-3.91561e-13
-3.91638e-13
-3.91558e-13
-3.91579e-13
-3.91494e-13
-3.91509e-13
-3.91624e-13
-3.91514e-13
-3.91675e-13
-3.91547e-13
-3.91501e-13
-3.9161e-13
-3.91579e-13
-3.9159e-13
-3.91706e-13
-3.91556e-13
-3.915e-13
-3.91544e-13
-3.91628e-13
-3.91712e-13
-3.91569e-13
-3.91661e-13
-3.91521e-13
-3.91593e-13
-3.9164e-13
-3.91616e-13
-3.91564e-13
-3.91607e-13
-3.91511e-13
-3.91666e-13
-3.91419e-13
-3.91623e-13
-3.91433e-13
-3.91575e-13
-3.91561e-13
-3.91473e-13
-3.91615e-13
-3.91714e-13
-3.91656e-13
-3.91654e-13
-3.9152e-13
-3.91485e-13
-3.91533e-13
-3.91626e-13
-3.91621e-13
-3.91509e-13
-3.91678e-13
-3.91598e-13
-3.91738e-13
-1.23009e-13
-1.2328e-13
-1.23132e-13
-1.23133e-13
-1.23122e-13
-1.23207e-13
-1.23182e-13
-1.23124e-13
-1.23131e-13
-1.23199e-13
-1.23255e-13
-1.23181e-13
-1.23153e-13
-1.23174e-13
-1.23114e-13
-1.23306e-13
-1.23102e-13
-1.23078e-13
-1.23139e-13
-1.23052e-13
-1.23163e-13
-1.2312e-13
-1.23136e-13
-1.22973e-13
-1.22991e-13
-1.23049e-13
-1.23309e-13
-1.2323e-13
-1.2305e-13
-1.23057e-13
-1.22886e-13
-1.23107e-13
-1.22966e-13
-1.23131e-13
-1.23203e-13
-1.2313e-13
-1.2316e-13
-1.23119e-13
-1.23124e-13
-1.23245e-13
-1.22996e-13
-1.23336e-13
-1.23016e-13
-1.23246e-13
-1.23028e-13
-1.23046e-13
-1.23187e-13
-1.23177e-13
-1.23005e-13
-1.2305e-13
-1.22988e-13
-1.23239e-13
-1.23248e-13
-1.23076e-13
-1.23142e-13
-1.23031e-13
-1.23064e-13
-1.22982e-13
-1.23102e-13
-1.23013e-13
-1.08311e-13
-1.08221e-13
-1.08012e-13
-1.08253e-13
-1.08076e-13
-1.08114e-13
-1.08128e-13
-1.08118e-13
-1.08235e-13
-1.08053e-13
-1.08141e-13
-1.08088e-13
-1.08115e-13
-1.08126e-13
-1.08119e-13
-1.08055e-13
-1.08263e-13
-1.08227e-13
-1.08094e-13
-1.08228e-13
-1.07994e-13
-1.08284e-13
-1.08199e-13
-1.08253e-13
-1.08254e-13
-1.08169e-13
-1.08158e-13
-1.08139e-13
-1.08118e-13
-1.08162e-13
-1.08372e-13
-1.082e-13
-1.08313e-13
-1.08234e-13
-1.08098e-13
-1.08096e-13
-1.08114e-13
-1.08133e-13
-1.08189e-13
-1.08086e-13
-1.08277e-13
-1.07968e-13
-1.08335e-13
-1.08085e-13
-1.08116e-13
-1.08182e-13
-1.08282e-13
-1.07967e-13
-1.08324e-13
-1.08222e-13
-1.08193e-13
-1.08114e-13
-1.0823e-13
-1.08228e-13
-1.07992e-13
-1.08315e-13
-1.08104e-13
-1.08206e-13
-1.07925e-13
-1.08267e-13
-1.28193e-13
-1.28198e-13
-1.28362e-13
-1.28181e-13
-1.28434e-13
-1.28286e-13
-1.28281e-13
-1.28224e-13
-1.28169e-13
-1.28313e-13
-1.28339e-13
-1.28152e-13
-1.28237e-13
-1.28152e-13
-1.27978e-13
-1.2843e-13
-1.28156e-13
-1.28082e-13
-1.28356e-13
-1.28189e-13
-1.28472e-13
-1.2817e-13
-1.2826e-13
-1.28361e-13
-1.28167e-13
-1.28087e-13
-1.28017e-13
-1.28187e-13
-1.28312e-13
-1.28279e-13
-1.28273e-13
-1.28076e-13
-1.28293e-13
-1.28022e-13
-1.28328e-13
-1.28177e-13
-1.28298e-13
-1.2827e-13
-1.28236e-13
-1.28288e-13
-1.28233e-13
-1.28383e-13
-1.27994e-13
-1.28292e-13
-1.28367e-13
-1.28313e-13
-1.28119e-13
-1.28322e-13
-1.28166e-13
-1.28145e-13
-1.28227e-13
-1.28166e-13
-1.28137e-13
-1.28201e-13
-1.28411e-13
-1.28136e-13
-1.28245e-13
-1.28325e-13
-1.28373e-13
-1.28301e-13
-1.11958e-13
-1.1147e-13
-1.1186e-13
-1.11786e-13
-1.11709e-13
-1.11628e-13
-1.11684e-13
-1.11871e-13
-1.117e-13
-1.11745e-13
-1.11604e-13
-1.11997e-13
-1.11739e-13
-1.12025e-13
-1.12044e-13
-1.11608e-13
-1.11713e-13
-1.12084e-13
-1.11693e-13
-1.11804e-13
-1.11512e-13
-1.12001e-13
-1.11913e-13
-1.11565e-13
-1.11691e-13
-1.12075e-13
-1.12001e-13
-1.11816e-13
-1.11678e-13
-1.11813e-13
-1.11804e-13
-1.11913e-13
-1.11655e-13
-1.12084e-13
-1.11684e-13
-1.11748e-13
-1.11707e-13
-1.1211e-13
-1.11925e-13
-1.11843e-13
-1.11831e-13
-1.11683e-13
-1.11904e-13
-1.11741e-13
-1.11753e-13
-1.11877e-13
-1.11823e-13
-1.11919e-13
-1.11805e-13
-1.11851e-13
-1.12094e-13
-1.11718e-13
-1.11878e-13
-1.11624e-13
-1.11693e-13
-1.11817e-13
-1.1197e-13
-1.11884e-13
-1.11974e-13
-1.11506e-13
-7.56514e-14
-7.60164e-14
-7.55954e-14
-7.56937e-14
-7.56954e-14
-7.58111e-14
-7.58894e-14
-7.55706e-14
-7.59886e-14
-7.5808e-14
-7.5865e-14
-7.55301e-14
-7.5786e-14
-7.54993e-14
-7.55502e-14
-7.5759e-14
-7.59991e-14
-7.56805e-14
-7.55542e-14
-7.57343e-14
-7.59683e-14
-7.55446e-14
-7.56789e-14
-7.57882e-14
-7.6004e-14
-7.55092e-14
-7.56666e-14
-7.56189e-14
-7.56879e-14
-7.56461e-14
-7.5475e-14
-7.54953e-14
-7.58322e-14
-7.55351e-14
-7.58992e-14
-7.57961e-14
-7.57012e-14
-7.53792e-14
-7.55764e-14
-7.543e-14
-7.56843e-14
-7.59947e-14
-7.57591e-14
-7.57192e-14
-7.58655e-14
-7.57654e-14
-7.55937e-14
-7.55224e-14
-7.58028e-14
-7.55969e-14
-7.53e-14
-7.57877e-14
-7.58462e-14
-7.59184e-14
-7.56065e-14
-7.55613e-14
-7.55162e-14
-7.56828e-14
-7.54858e-14
-7.60825e-14
-4.26272e-14
-4.23414e-14
-4.26463e-14
-4.23118e-14
-4.28277e-14
-4.26161e-14
-4.22806e-14
-4.28597e-14
-4.23484e-14
-4.22823e-14
-4.24303e-14
-4.26359e-14
-4.26664e-14
-4.28072e-14
-4.26757e-14
-4.28533e-14
-4.2384e-14
-4.24022e-14
-4.27342e-14
-4.27202e-14
-4.2673e-14
-4.26079e-14
-4.24344e-14
-4.27582e-14
-4.22969e-14
-4.26762e-14
-4.24041e-14
-4.27504e-14
-4.28149e-14
-4.27049e-14
-4.27759e-14
-4.29988e-14
-4.25768e-14
-4.25904e-14
-4.24778e-14
-4.26521e-14
-4.26826e-14
-4.27297e-14
-4.29391e-14
-4.30175e-14
-4.2468e-14
-4.23476e-14
-4.25233e-14
-4.27133e-14
-4.22634e-14
-4.22191e-14
-4.2712e-14
-4.27208e-14
-4.27505e-14
-4.27695e-14
-4.28286e-14
-4.23259e-14
-4.23466e-14
-4.24198e-14
-4.27034e-14
-4.2545e-14
-4.29539e-14
-4.26633e-14
-4.25468e-14
-4.2298e-14
-2.03932e-14
-2.04905e-14
-2.05928e-14
-2.04913e-14
-2.01955e-14
-2.05157e-14
-2.07969e-14
-2.02664e-14
-2.04438e-14
-2.07128e-14
-2.05353e-14
-2.04922e-14
-2.03829e-14
-2.04994e-14
-2.02622e-14
-1.99404e-14
-2.02473e-14
-2.03202e-14
-2.06111e-14
-2.01562e-14
-2.03949e-14
-2.05216e-14
-2.06281e-14
-1.99954e-14
-2.07173e-14
-2.04927e-14
-2.05086e-14
-2.02194e-14
-2.02877e-14
-1.99955e-14
-2.0775e-14
-1.99857e-14
-2.02158e-14
-2.06402e-14
-2.05377e-14
-2.02247e-14
-2.00492e-14
-2.05432e-14
-2.02841e-14
-2.02473e-14
-2.05871e-14
-2.06996e-14
-2.04309e-14
-2.02671e-14
-2.06526e-14
-2.10008e-14
-2.06652e-14
-2.02769e-14
-2.00933e-14
-2.03862e-14
-2.03221e-14
-2.06175e-14
-2.05267e-14
-2.0435e-14
-2.02593e-14
-2.04453e-14
-2.03229e-14
-2.04804e-14
-2.03703e-14
-2.04239e-14
-7.4145e-15
-7.7974e-15
-7.47692e-15
-8.2405e-15
-7.97792e-15
-7.62965e-15
-7.62238e-15
-7.83438e-15
-7.71095e-15
-7.25099e-15
-7.67234e-15
-7.72602e-15
-7.44812e-15
-7.78815e-15
-7.84492e-15
-7.86958e-15
-8.06444e-15
-7.64002e-15
-7.30986e-15
-8.35462e-15
-7.59094e-15
-7.71659e-15
-7.64896e-15
-7.83904e-15
-7.52326e-15
-8.26343e-15
-7.66758e-15
-7.88761e-15
-7.68104e-15
-8.20278e-15
-7.30376e-15
-7.81437e-15
-8.18109e-15
-7.67615e-15
-7.4974e-15
-7.5838e-15
-8.20026e-15
-7.77432e-15
-7.97825e-15
-7.66276e-15
-7.81017e-15
-7.62773e-15
-7.92271e-15
-7.70458e-15
-7.73484e-15
-7.56194e-15
-7.4922e-15
-7.74895e-15
-8.20419e-15
-7.72935e-15
-7.94886e-15
-7.74428e-15
-7.65019e-15
-7.66533e-15
-7.75212e-15
-7.84638e-15
-7.61267e-15
-7.63465e-15
-7.81917e-15
-7.89398e-15
-1.91189e-15
-1.42117e-15
-1.88482e-15
-1.35689e-15
-1.36102e-15
-1.47012e-15
-1.31847e-15
-1.31635e-15
-1.33832e-15
-1.84076e-15
-1.66144e-15
-1.50207e-15
-1.83167e-15
-1.49416e-15
-1.5603e-15
-1.47359e-15
-1.30538e-15
-1.82999e-15
-1.98467e-15
-1.04749e-15
-1.44132e-15
-1.41894e-15
-1.67582e-15
-1.93134e-15
-1.63743e-15
-7.67276e-16
-1.26845e-15
-1.24058e-15
-1.64713e-15
-1.52642e-15
-1.38647e-15
-1.46511e-15
-1.06278e-15
-1.4705e-15
-1.53193e-15
-1.78915e-15
-1.37209e-15
-1.46994e-15
-1.1872e-15
-1.53843e-15
-1.58375e-15
-1.11864e-15
-1.35105e-15
-1.76801e-15
-1.25489e-15
-1.6362e-15
-1.96156e-15
-1.7283e-15
-1.22476e-15
-1.2644e-15
-1.21546e-15
-1.84333e-15
-1.63914e-15
-1.61452e-15
-1.59639e-15
-1.33651e-15
-1.71194e-15
-1.59241e-15
-1.64805e-15
-1.35966e-15
1.55714e-15
1.63487e-15
1.72661e-15
1.7562e-15
1.39674e-15
1.80328e-15
1.20315e-15
1.29002e-15
1.4279e-15
1.8578e-15
1.8179e-15
1.83344e-15
1.61178e-15
1.44179e-15
1.5787e-15
1.38251e-15
1.32438e-15
1.69964e-15
1.8179e-15
1.23476e-15
1.13218e-15
1.53924e-15
1.45691e-15
2.04153e-15
1.62286e-15
1.04704e-15
1.23345e-15
1.35427e-15
1.28467e-15
1.36558e-15
1.1526e-15
1.35349e-15
1.07692e-15
1.70785e-15
1.59657e-15
1.52762e-15
1.57281e-15
1.67019e-15
1.24687e-15
1.75697e-15
1.60028e-15
1.25951e-15
1.66685e-15
1.85934e-15
1.0308e-15
1.94912e-15
1.67505e-15
1.38605e-15
1.55686e-15
1.30451e-15
1.60633e-15
2.02375e-15
1.4395e-15
1.64125e-15
1.34977e-15
1.59587e-15
1.42002e-15
1.24589e-15
1.65036e-15
1.11724e-15
2.85199e-15
2.16054e-15
2.49439e-15
2.12515e-15
2.73421e-15
2.45022e-15
2.78841e-15
2.61279e-15
2.21583e-15
2.38383e-15
2.41062e-15
1.85953e-15
2.49868e-15
2.35994e-15
2.48377e-15
2.52134e-15
3.0263e-15
2.63106e-15
2.64836e-15
2.81926e-15
2.75908e-15
2.79895e-15
3.03108e-15
2.51221e-15
2.17711e-15
2.7527e-15
2.38914e-15
2.92021e-15
2.8295e-15
2.70711e-15
2.98145e-15
2.61e-15
2.53319e-15
2.52679e-15
1.89351e-15
2.61736e-15
2.4918e-15
2.47073e-15
2.66836e-15
2.41316e-15
2.30307e-15
2.64906e-15
2.05767e-15
2.3279e-15
2.79953e-15
2.3827e-15
2.70326e-15
2.83429e-15
2.13845e-15
2.41862e-15
2.26855e-15
2.45553e-15
2.52953e-15
2.4197e-15
2.94755e-15
2.16088e-15
2.41721e-15
2.74291e-15
2.3931e-15
2.62087e-15
2.69853e-15
3.29301e-15
3.15032e-15
2.85016e-15
2.85968e-15
3.01788e-15
2.99076e-15
3.06365e-15
3.47307e-15
2.77844e-15
2.89171e-15
3.53738e-15
2.89069e-15
2.96992e-15
3.05864e-15
2.7615e-15
2.72759e-15
2.52072e-15
2.58897e-15
2.60913e-15
2.98972e-15
2.68423e-15
2.95065e-15
2.61779e-15
3.16982e-15
2.86937e-15
3.09301e-15
2.33071e-15
2.76787e-15
2.46141e-15
2.70958e-15
2.76519e-15
3.61676e-15
2.83158e-15
3.07755e-15
2.93058e-15
2.60919e-15
3.15643e-15
3.01381e-15
3.06482e-15
3.07564e-15
2.73269e-15
3.07876e-15
2.85274e-15
2.96535e-15
2.88669e-15
2.7818e-15
2.82994e-15
3.593e-15
2.74481e-15
3.35315e-15
3.2694e-15
2.9957e-15
2.89937e-15
2.95787e-15
3.27058e-15
3.16204e-15
3.12551e-15
3.12184e-15
3.43746e-15
2.9062e-15
2.97757e-15
3.02452e-15
3.11742e-15
3.12941e-15
2.57863e-15
3.06909e-15
3.00978e-15
2.50081e-15
3.28525e-15
3.15427e-15
2.86206e-15
3.13428e-15
2.9762e-15
2.99369e-15
3.34986e-15
2.87367e-15
3.27829e-15
3.12338e-15
3.06127e-15
2.93721e-15
3.04038e-15
2.42284e-15
2.75001e-15
3.10277e-15
2.92564e-15
2.71974e-15
3.19317e-15
2.83985e-15
3.31138e-15
2.8465e-15
2.99064e-15
2.46108e-15
3.18584e-15
3.25741e-15
2.85992e-15
3.16714e-15
2.74192e-15
2.87006e-15
3.12711e-15
2.81588e-15
3.02276e-15
2.90834e-15
3.1712e-15
3.03698e-15
2.86781e-15
2.68349e-15
2.78545e-15
2.7554e-15
3.13755e-15
2.58348e-15
2.68017e-15
2.86377e-15
3.03224e-15
3.00869e-15
2.80117e-15
3.20235e-15
2.8342e-15
2.38668e-15
2.4291e-15
2.7043e-15
2.5861e-15
2.35479e-15
2.76061e-15
2.81584e-15
3.41449e-15
2.1458e-15
2.65962e-15
2.75122e-15
2.1e-15
2.59604e-15
2.38626e-15
2.33763e-15
2.62856e-15
2.32778e-15
2.01249e-15
2.53214e-15
2.1095e-15
2.65214e-15
2.88257e-15
2.71046e-15
2.24097e-15
3.08156e-15
2.98633e-15
1.89718e-15
2.68828e-15
3.17725e-15
2.37529e-15
2.96379e-15
2.65316e-15
2.60112e-15
2.86354e-15
3.00344e-15
2.83953e-15
2.65395e-15
2.49427e-15
2.70621e-15
2.46852e-15
1.9343e-15
2.50955e-15
2.59619e-15
2.98786e-15
2.93371e-15
2.46881e-15
1.97596e-15
2.83798e-15
2.59615e-15
2.87646e-15
2.42806e-15
2.61887e-15
2.12041e-15
2.73582e-15
2.81675e-15
2.48648e-15
2.68958e-15
2.84497e-15
2.53194e-15
2.43132e-15
3.00981e-15
2.58396e-15
2.77649e-15
2.36538e-15
2.58703e-15
2.56837e-15
2.36421e-15
2.06105e-15
3.11317e-15
2.62083e-15
2.49912e-15
2.92419e-15
2.06035e-15
2.34268e-15
2.5511e-15
2.24321e-15
2.39526e-15
2.94243e-15
2.55123e-15
3.02792e-15
2.27029e-15
2.30163e-15
2.31223e-15
3.10365e-15
2.38418e-15
2.49887e-15
2.86723e-15
2.23674e-15
1.9559e-15
2.78474e-15
2.10852e-15
2.41479e-15
2.92493e-15
2.08073e-15
2.2288e-15
1.9714e-15
2.06296e-15
3.10053e-15
2.20364e-15
2.36194e-15
3.39264e-15
2.66217e-15
2.5125e-15
1.94363e-15
2.34001e-15
2.76646e-15
3.11021e-15
1.83493e-15
2.43216e-15
2.18238e-15
2.59449e-15
2.68771e-15
3.23039e-15
2.50269e-15
2.65593e-15
2.62283e-15
2.32723e-15
2.50675e-15
2.28448e-15
3.30626e-15
2.35731e-15
2.92836e-15
1.69666e-15
2.44922e-15
1.86752e-15
1.9967e-15
2.27006e-15
2.00019e-15
1.83775e-15
1.79107e-15
1.66858e-15
2.09471e-15
2.41798e-15
2.04549e-15
2.53632e-15
2.8371e-15
2.65427e-15
1.80698e-15
1.95398e-15
2.09276e-15
2.24665e-15
1.95602e-15
2.44216e-15
1.75242e-15
2.03423e-15
2.3796e-15
1.89121e-15
2.5188e-15
2.35891e-15
2.34954e-15
2.66081e-15
2.09153e-15
1.91701e-15
2.48513e-15
2.25955e-15
2.60952e-15
2.37246e-15
1.83864e-15
2.29879e-15
2.5908e-15
1.96316e-15
1.98883e-15
2.1808e-15
2.43419e-15
2.32152e-15
1.83549e-15
1.98819e-15
3.44536e-15
2.66136e-15
2.46486e-15
2.18856e-15
2.14222e-15
2.00495e-15
2.54034e-15
1.74922e-15
1.95203e-15
2.28047e-15
2.06013e-15
2.39736e-15
1.20361e-15
2.20644e-15
1.86997e-15
2.48248e-15
2.14688e-15
2.12346e-15
2.02937e-15
1.6803e-15
2.44151e-15
1.55345e-15
2.60003e-15
2.81092e-15
1.92756e-15
2.20142e-15
2.42622e-15
1.57792e-15
1.39791e-15
1.84952e-15
2.21291e-15
1.84389e-15
2.27249e-15
1.5967e-15
2.72288e-15
1.34496e-15
2.88557e-15
2.25757e-15
2.20679e-15
2.50022e-15
1.9818e-15
1.83839e-15
1.88294e-15
1.68676e-15
1.81545e-15
1.26247e-15
1.70917e-15
1.87628e-15
1.55972e-15
1.98955e-15
2.13963e-15
2.04438e-15
1.67549e-15
2.06475e-15
2.1827e-15
2.11223e-15
1.81301e-15
1.73131e-15
2.55807e-15
1.82613e-15
9.97941e-16
1.9044e-15
1.46245e-15
1.78276e-15
1.95764e-15
1.80654e-15
1.59686e-15
2.49603e-15
2.1271e-15
2.34304e-15
2.49149e-15
1.96419e-15
2.32201e-15
1.86019e-15
2.03044e-15
1.91454e-15
1.33042e-15
1.96162e-15
1.60019e-15
1.80155e-15
1.64253e-15
3.08604e-15
1.87731e-15
1.26634e-15
1.06312e-15
1.83093e-15
1.49147e-15
1.68831e-15
2.04023e-15
1.87867e-15
1.62262e-15
2.31053e-15
6.41451e-16
1.98873e-15
8.50767e-16
2.8526e-15
9.35515e-16
9.42832e-16
1.35541e-15
1.9081e-15
1.70658e-15
2.25138e-15
1.95051e-15
1.76436e-15
1.74277e-15
2.51903e-15