/*--------------------------------*- C++ -*----------------------------------*\
| =========                 |                                                 |
| \\      /  F ield         | foam-extend: Open Source CFD                    |
|  \\    /   O peration     | Version:     4.0                                |
|   \\  /    A nd           | Web:         http://www.foam-extend.org         |
|    \\/     M anipulation  |                                                 |
\*---------------------------------------------------------------------------*/
FoamFile
{
    version     2.0;
    format      ascii;
    class       volVectorField;
    location    "19";
    object      U;
}
// * * * * * * * * * * * * * * * * * * * * * * * * * * * * * * * * * * * * * //

dimensions      [0 1 -1 0 0 0 0];

internalField   nonuniform List<vector> 
6960
(
(7.06375e-07 -219.894 0)
(2.82382e-06 -219.887 0)
(3.05952e-06 -219.887 0)
(1.29837e-06 -219.887 0)
(5.51952e-07 -219.887 0)
(2.89195e-07 -219.887 0)
(1.47503e-07 -219.887 0)
(7.65639e-08 -219.887 0)
(3.15264e-08 -219.887 0)
(5.24709e-09 -219.887 0)
(-1.33972e-08 -219.887 0)
(-2.53124e-08 -219.887 0)
(-3.41483e-08 -219.887 0)
(-3.98891e-08 -219.887 0)
(-4.3957e-08 -219.887 0)
(-4.62694e-08 -219.887 0)
(-4.74548e-08 -219.887 0)
(-4.74809e-08 -219.887 0)
(-4.66571e-08 -219.887 0)
(-4.49931e-08 -219.887 0)
(-4.26639e-08 -219.887 0)
(-3.97052e-08 -219.887 0)
(-3.62312e-08 -219.887 0)
(-3.22905e-08 -219.887 0)
(-2.7967e-08 -219.887 0)
(-2.33137e-08 -219.887 0)
(-1.84015e-08 -219.887 0)
(-1.32862e-08 -219.887 0)
(-8.02956e-09 -219.887 0)
(-2.68586e-09 -219.887 0)
(2.68535e-09 -219.887 0)
(8.02881e-09 -219.887 0)
(1.32851e-08 -219.887 0)
(1.84013e-08 -219.887 0)
(2.33125e-08 -219.887 0)
(2.7965e-08 -219.887 0)
(3.22893e-08 -219.887 0)
(3.62304e-08 -219.887 0)
(3.97047e-08 -219.887 0)
(4.26636e-08 -219.887 0)
(4.49929e-08 -219.887 0)
(4.66572e-08 -219.887 0)
(4.74824e-08 -219.887 0)
(4.74576e-08 -219.887 0)
(4.62719e-08 -219.887 0)
(4.39597e-08 -219.887 0)
(3.98919e-08 -219.887 0)
(3.41516e-08 -219.887 0)
(2.53167e-08 -219.887 0)
(1.34004e-08 -219.887 0)
(-5.24441e-09 -219.887 0)
(-3.1522e-08 -219.887 0)
(-7.65584e-08 -219.887 0)
(-1.47497e-07 -219.887 0)
(-2.89187e-07 -219.887 0)
(-5.51945e-07 -219.887 0)
(-1.29836e-06 -219.887 0)
(-3.05951e-06 -219.887 0)
(-2.82381e-06 -219.887 0)
(-7.06373e-07 -219.894 0)
(0.000218266 14.3203 0)
(0.000224489 14.327 0)
(8.98641e-06 14.327 0)
(3.82254e-06 14.327 0)
(1.64251e-06 14.327 0)
(8.63045e-07 14.327 0)
(4.42361e-07 14.327 0)
(2.31147e-07 14.327 0)
(9.70743e-08 14.327 0)
(1.86644e-08 14.327 0)
(-3.68943e-08 14.327 0)
(-7.24627e-08 14.327 0)
(-9.8827e-08 14.327 0)
(-1.15987e-07 14.327 0)
(-1.28153e-07 14.327 0)
(-1.35129e-07 14.327 0)
(-1.3874e-07 14.327 0)
(-1.38921e-07 14.327 0)
(-1.36598e-07 14.327 0)
(-1.31778e-07 14.327 0)
(-1.24992e-07 14.327 0)
(-1.16363e-07 14.327 0)
(-1.06199e-07 14.327 0)
(-9.4658e-08 14.327 0)
(-8.20028e-08 14.327 0)
(-6.83612e-08 14.327 0)
(-5.39564e-08 14.327 0)
(-3.8968e-08 14.327 0)
(-2.35453e-08 14.327 0)
(-7.86042e-09 14.327 0)
(7.83845e-09 14.327 0)
(2.35489e-08 14.327 0)
(3.90085e-08 14.327 0)
(5.3912e-08 14.327 0)
(6.83577e-08 14.327 0)
(8.20407e-08 14.327 0)
(9.46106e-08 14.327 0)
(1.06196e-07 14.327 0)
(1.16405e-07 14.327 0)
(1.24947e-07 14.327 0)
(1.31778e-07 14.327 0)
(1.36642e-07 14.327 0)
(1.38882e-07 14.327 0)
(1.38748e-07 14.327 0)
(1.3518e-07 14.327 0)
(1.28117e-07 14.327 0)
(1.15995e-07 14.327 0)
(9.88804e-08 14.327 0)
(7.24314e-08 14.327 0)
(3.69038e-08 14.327 0)
(-1.86127e-08 14.327 0)
(-9.71054e-08 14.327 0)
(-2.31131e-07 14.327 0)
(-4.42298e-07 14.327 0)
(-8.63066e-07 14.327 0)
(-1.64248e-06 14.327 0)
(-3.82247e-06 14.327 0)
(-8.98643e-06 14.327 0)
(-0.000224489 14.327 0)
(-0.000218266 14.3203 0)
(0.000192539 39.6025 0)
(0.00020239 39.5989 0)
(1.43477e-05 39.5989 0)
(6.24281e-06 39.5989 0)
(2.71107e-06 39.5989 0)
(1.43143e-06 39.5989 0)
(7.37861e-07 39.5989 0)
(3.88916e-07 39.5989 0)
(1.67058e-07 39.5989 0)
(3.71532e-08 39.5989 0)
(-5.49113e-08 39.5989 0)
(-1.13911e-07 39.5989 0)
(-1.57633e-07 39.5989 0)
(-1.86154e-07 39.5989 0)
(-2.06414e-07 39.5989 0)
(-2.18106e-07 39.5989 0)
(-2.24266e-07 39.5989 0)
(-2.24786e-07 39.5989 0)
(-2.21185e-07 39.5989 0)
(-2.13501e-07 39.5989 0)
(-2.02596e-07 39.5989 0)
(-1.88664e-07 39.5989 0)
(-1.72231e-07 39.5989 0)
(-1.53549e-07 39.5989 0)
(-1.33035e-07 39.5989 0)
(-1.1092e-07 39.5989 0)
(-8.75594e-08 39.5989 0)
(-6.32342e-08 39.5989 0)
(-3.82135e-08 39.5989 0)
(-1.27692e-08 39.5989 0)
(1.27487e-08 39.5989 0)
(3.82149e-08 39.5989 0)
(6.32672e-08 39.5989 0)
(8.75198e-08 39.5989 0)
(1.10914e-07 39.5989 0)
(1.33063e-07 39.5989 0)
(1.53505e-07 39.5989 0)
(1.72227e-07 39.5989 0)
(1.88699e-07 39.5989 0)
(2.02556e-07 39.5989 0)
(2.135e-07 39.5989 0)
(2.21223e-07 39.5989 0)
(2.24755e-07 39.5989 0)
(2.24279e-07 39.5989 0)
(2.18157e-07 39.5989 0)
(2.06388e-07 39.5989 0)
(1.86168e-07 39.5989 0)
(1.57686e-07 39.5989 0)
(1.13893e-07 39.5989 0)
(5.49269e-08 39.5989 0)
(-3.71018e-08 39.5989 0)
(-1.67076e-07 39.5989 0)
(-3.8889e-07 39.5989 0)
(-7.37791e-07 39.5989 0)
(-1.43143e-06 39.5989 0)
(-2.71104e-06 39.5989 0)
(-6.24273e-06 39.5989 0)
(-1.43477e-05 39.5989 0)
(-0.00020239 39.5989 0)
(-0.000192539 39.6025 0)
(9.79488e-05 9.47099 0)
(0.000110989 9.46732 0)
(1.91487e-05 9.46732 0)
(8.51534e-06 9.46731 0)
(3.74521e-06 9.46731 0)
(1.98959e-06 9.46731 0)
(1.03219e-06 9.46731 0)
(5.49541e-07 9.46731 0)
(2.41906e-07 9.46731 0)
(6.15922e-08 9.46731 0)
(-6.62828e-08 9.46731 0)
(-1.48297e-07 9.46731 0)
(-2.09087e-07 9.46731 0)
(-2.48827e-07 9.46731 0)
(-2.77127e-07 9.46731 0)
(-2.93581e-07 9.46731 0)
(-3.02418e-07 9.46731 0)
(-3.03491e-07 9.46731 0)
(-2.98894e-07 9.46731 0)
(-2.88705e-07 9.46731 0)
(-2.74104e-07 9.46731 0)
(-2.55348e-07 9.46731 0)
(-2.33184e-07 9.46731 0)
(-2.07943e-07 9.46731 0)
(-1.8019e-07 9.46731 0)
(-1.50262e-07 9.46731 0)
(-1.18632e-07 9.46731 0)
(-8.5675e-08 9.46731 0)
(-5.1782e-08 9.46731 0)
(-1.73152e-08 9.46731 0)
(1.73028e-08 9.46731 0)
(5.17793e-08 9.46731 0)
(8.56866e-08 9.46731 0)
(1.18611e-07 9.46731 0)
(1.50254e-07 9.46731 0)
(1.80196e-07 9.46731 0)
(2.07916e-07 9.46731 0)
(2.33178e-07 9.46731 0)
(2.55363e-07 9.46731 0)
(2.74083e-07 9.46731 0)
(2.88703e-07 9.46731 0)
(2.98913e-07 9.46731 0)
(3.03482e-07 9.46731 0)
(3.02436e-07 9.46731 0)
(2.93616e-07 9.46731 0)
(2.77126e-07 9.46731 0)
(2.48846e-07 9.46731 0)
(2.09128e-07 9.46731 0)
(1.48305e-07 9.46731 0)
(6.63042e-08 9.46731 0)
(-6.15553e-08 9.46731 0)
(-2.41898e-07 9.46731 0)
(-5.49506e-07 9.46731 0)
(-1.03213e-06 9.46731 0)
(-1.98956e-06 9.46731 0)
(-3.74516e-06 9.46731 0)
(-8.51527e-06 9.46731 0)
(-1.91487e-05 9.46732 0)
(-0.000110989 9.46732 0)
(-9.79488e-05 9.47099 0)
(6.94356e-05 -1.45658 0)
(8.53282e-05 -1.45709 0)
(2.3488e-05 -1.45709 0)
(1.06315e-05 -1.45709 0)
(4.73882e-06 -1.45709 0)
(2.5351e-06 -1.45709 0)
(1.3244e-06 -1.45709 0)
(7.12763e-07 -1.45709 0)
(3.21722e-07 -1.45709 0)
(9.22855e-08 -1.45709 0)
(-7.05741e-08 -1.45709 0)
(-1.751e-07 -1.45709 0)
(-2.52623e-07 -1.45709 0)
(-3.034e-07 -1.45709 0)
(-3.39664e-07 -1.45709 0)
(-3.60921e-07 -1.45709 0)
(-3.72564e-07 -1.45709 0)
(-3.74415e-07 -1.45709 0)
(-3.69129e-07 -1.45709 0)
(-3.5682e-07 -1.45709 0)
(-3.38978e-07 -1.45709 0)
(-3.15923e-07 -1.45709 0)
(-2.88607e-07 -1.45709 0)
(-2.5744e-07 -1.45709 0)
(-2.23127e-07 -1.45709 0)
(-1.861e-07 -1.45709 0)
(-1.46947e-07 -1.45709 0)
(-1.06131e-07 -1.45709 0)
(-6.41509e-08 -1.45709 0)
(-2.14555e-08 -1.45709 0)
(2.14448e-08 -1.45709 0)
(6.4146e-08 -1.45709 0)
(1.06135e-07 -1.45709 0)
(1.46931e-07 -1.45709 0)
(1.8609e-07 -1.45709 0)
(2.23124e-07 -1.45709 0)
(2.57417e-07 -1.45709 0)
(2.88599e-07 -1.45709 0)
(3.15931e-07 -1.45709 0)
(3.38962e-07 -1.45709 0)
(3.56818e-07 -1.45709 0)
(3.69143e-07 -1.45709 0)
(3.74414e-07 -1.45709 0)
(3.72587e-07 -1.45709 0)
(3.60955e-07 -1.45709 0)
(3.39673e-07 -1.45709 0)
(3.03423e-07 -1.45709 0)
(2.52662e-07 -1.45709 0)
(1.75121e-07 -1.45709 0)
(7.06009e-08 -1.45709 0)
(-9.22499e-08 -1.45709 0)
(-3.21701e-07 -1.45709 0)
(-7.12719e-07 -1.45709 0)
(-1.32433e-06 -1.45709 0)
(-2.53505e-06 -1.45709 0)
(-4.73876e-06 -1.45709 0)
(-1.06314e-05 -1.45709 0)
(-2.34879e-05 -1.45709 0)
(-8.53282e-05 -1.45709 0)
(-6.94356e-05 -1.45658 0)
(7.60301e-05 -0.866364 0)
(9.44074e-05 -0.865882 0)
(2.734e-05 -0.865882 0)
(1.25951e-05 -0.865891 0)
(5.68749e-06 -0.865891 0)
(3.06609e-06 -0.865892 0)
(1.61372e-06 -0.865892 0)
(8.7831e-07 -0.865892 0)
(4.0649e-07 -0.865892 0)
(1.29359e-07 -0.865892 0)
(-6.75739e-08 -0.865892 0)
(-1.94056e-07 -0.865892 0)
(-2.87937e-07 -0.865892 0)
(-3.49548e-07 -0.865892 0)
(-3.93688e-07 -0.865892 0)
(-4.19786e-07 -0.865892 0)
(-4.34364e-07 -0.865892 0)
(-4.37222e-07 -0.865892 0)
(-4.31566e-07 -0.865892 0)
(-4.17536e-07 -0.865892 0)
(-3.96928e-07 -0.865892 0)
(-3.7012e-07 -0.865892 0)
(-3.38256e-07 -0.865892 0)
(-3.01822e-07 -0.865892 0)
(-2.61659e-07 -0.865892 0)
(-2.18279e-07 -0.865892 0)
(-1.72382e-07 -0.865892 0)
(-1.24513e-07 -0.865892 0)
(-7.52673e-08 -0.865892 0)
(-2.51746e-08 -0.865892 0)
(2.51622e-08 -0.865892 0)
(7.52612e-08 -0.865892 0)
(1.24516e-07 -0.865892 0)
(1.72363e-07 -0.865892 0)
(2.18267e-07 -0.865892 0)
(2.61654e-07 -0.865892 0)
(3.01796e-07 -0.865892 0)
(3.38246e-07 -0.865892 0)
(3.70128e-07 -0.865892 0)
(3.9691e-07 -0.865892 0)
(4.17534e-07 -0.865892 0)
(4.31581e-07 -0.865892 0)
(4.37222e-07 -0.865892 0)
(4.34391e-07 -0.865892 0)
(4.19824e-07 -0.865892 0)
(3.937e-07 -0.865892 0)
(3.49576e-07 -0.865892 0)
(2.87981e-07 -0.865892 0)
(1.94082e-07 -0.865892 0)
(6.76059e-08 -0.865892 0)
(-1.29317e-07 -0.865892 0)
(-4.06464e-07 -0.865892 0)
(-8.78259e-07 -0.865892 0)
(-1.61365e-06 -0.865892 0)
(-3.06603e-06 -0.865892 0)
(-5.68743e-06 -0.865891 0)
(-1.2595e-05 -0.865891 0)
(-2.734e-05 -0.865882 0)
(-9.44073e-05 -0.865882 0)
(-7.603e-05 -0.866364 0)
(7.87742e-05 0.222737 0)
(9.92199e-05 0.222927 0)
(3.06566e-05 0.222928 0)
(1.44032e-05 0.222918 0)
(6.58734e-06 0.222917 0)
(3.58086e-06 0.222917 0)
(1.89944e-06 0.222917 0)
(1.04588e-06 0.222917 0)
(4.96125e-07 0.222917 0)
(1.72848e-07 0.222917 0)
(-5.71734e-08 0.222916 0)
(-2.05013e-07 0.222916 0)
(-3.14846e-07 0.222916 0)
(-3.87073e-07 0.222916 0)
(-4.38989e-07 0.222916 0)
(-4.69955e-07 0.222916 0)
(-4.876e-07 0.222916 0)
(-4.91697e-07 0.222916 0)
(-4.85993e-07 0.222916 0)
(-4.70653e-07 0.222916 0)
(-4.47765e-07 0.222916 0)
(-4.17763e-07 0.222916 0)
(-3.81972e-07 0.222916 0)
(-3.40949e-07 0.222916 0)
(-2.95663e-07 0.222916 0)
(-2.46698e-07 0.222916 0)
(-1.94857e-07 0.222916 0)
(-1.40763e-07 0.222916 0)
(-8.50969e-08 0.222916 0)
(-2.84638e-08 0.222916 0)
(2.84501e-08 0.222916 0)
(8.50895e-08 0.222916 0)
(1.40765e-07 0.222916 0)
(1.94838e-07 0.222916 0)
(2.46684e-07 0.222916 0)
(2.95656e-07 0.222916 0)
(3.40921e-07 0.222916 0)
(3.81961e-07 0.222916 0)
(4.1777e-07 0.222916 0)
(4.47745e-07 0.222916 0)
(4.7065e-07 0.222916 0)
(4.86009e-07 0.222916 0)
(4.91699e-07 0.222916 0)
(4.87629e-07 0.222916 0)
(4.69997e-07 0.222916 0)
(4.39003e-07 0.222916 0)
(3.87103e-07 0.222916 0)
(3.14895e-07 0.222916 0)
(2.05043e-07 0.222916 0)
(5.72101e-08 0.222916 0)
(-1.72802e-07 0.222917 0)
(-4.96095e-07 0.222917 0)
(-1.04582e-06 0.222917 0)
(-1.89936e-06 0.222917 0)
(-3.5808e-06 0.222917 0)
(-6.58726e-06 0.222917 0)
(-1.44031e-05 0.222918 0)
(-3.06565e-05 0.222928 0)
(-9.92199e-05 0.222927 0)
(-7.87741e-05 0.222737 0)
(7.43163e-05 0.247184 0)
(9.64119e-05 0.247163 0)
(3.34293e-05 0.247163 0)
(1.60475e-05 0.247153 0)
(7.43493e-06 0.247151 0)
(4.07783e-06 0.247151 0)
(2.18084e-06 0.247151 0)
(1.21511e-06 0.247151 0)
(5.90473e-07 0.247151 0)
(2.227e-07 0.247151 0)
(-3.93651e-08 0.247151 0)
(-2.07927e-07 0.247151 0)
(-3.33284e-07 0.247151 0)
(-4.1589e-07 0.247151 0)
(-4.75474e-07 0.247151 0)
(-5.11333e-07 0.247151 0)
(-5.32171e-07 0.247151 0)
(-5.37742e-07 0.247151 0)
(-5.32314e-07 0.247151 0)
(-5.16077e-07 0.247151 0)
(-4.91401e-07 0.247151 0)
(-4.58769e-07 0.247151 0)
(-4.19681e-07 0.247151 0)
(-3.74756e-07 0.247151 0)
(-3.25081e-07 0.247151 0)
(-2.71309e-07 0.247151 0)
(-2.14336e-07 0.247151 0)
(-1.54854e-07 0.247151 0)
(-9.36233e-08 0.247151 0)
(-3.13179e-08 0.247151 0)
(3.13035e-08 0.247151 0)
(9.36145e-08 0.247151 0)
(1.54852e-07 0.247151 0)
(2.14316e-07 0.247151 0)
(2.71293e-07 0.247151 0)
(3.25071e-07 0.247151 0)
(3.74727e-07 0.247151 0)
(4.19669e-07 0.247151 0)
(4.58774e-07 0.247151 0)
(4.91381e-07 0.247151 0)
(5.16074e-07 0.247151 0)
(5.3233e-07 0.247151 0)
(5.37747e-07 0.247151 0)
(5.32204e-07 0.247151 0)
(5.11377e-07 0.247151 0)
(4.75493e-07 0.247151 0)
(4.15924e-07 0.247151 0)
(3.33335e-07 0.247151 0)
(2.07962e-07 0.247151 0)
(3.94063e-08 0.247151 0)
(-2.22652e-07 0.247151 0)
(-5.90437e-07 0.247151 0)
(-1.21505e-06 0.247151 0)
(-2.18075e-06 0.247151 0)
(-4.07776e-06 0.247151 0)
(-7.43484e-06 0.247151 0)
(-1.60474e-05 0.247153 0)
(-3.34292e-05 0.247163 0)
(-9.64118e-05 0.247163 0)
(-7.43163e-05 0.247184 0)
(6.88094e-05 0.0692992 0)
(9.21534e-05 0.069293 0)
(3.56704e-05 0.0692943 0)
(1.75214e-05 0.0692827 0)
(8.22733e-06 0.0692813 0)
(4.55552e-06 0.0692807 0)
(2.45722e-06 0.0692805 0)
(1.38561e-06 0.0692804 0)
(6.89303e-07 0.0692803 0)
(2.78768e-07 0.0692803 0)
(-1.4245e-08 0.0692803 0)
(-2.02865e-07 0.0692802 0)
(-3.43298e-07 0.0692802 0)
(-4.36038e-07 0.0692802 0)
(-5.03173e-07 0.0692802 0)
(-5.43943e-07 0.0692802 0)
(-5.68096e-07 0.0692802 0)
(-5.75372e-07 0.0692802 0)
(-5.70542e-07 0.0692802 0)
(-5.5382e-07 0.0692802 0)
(-5.27845e-07 0.0692802 0)
(-4.93147e-07 0.0692802 0)
(-4.5139e-07 0.0692802 0)
(-4.03247e-07 0.0692802 0)
(-3.49917e-07 0.0692802 0)
(-2.92115e-07 0.0692802 0)
(-2.30821e-07 0.0692802 0)
(-1.66786e-07 0.0692802 0)
(-1.00848e-07 0.0692802 0)
(-3.37367e-08 0.0692802 0)
(3.37217e-08 0.0692802 0)
(1.00837e-07 0.0692802 0)
(1.66782e-07 0.0692802 0)
(2.308e-07 0.0692802 0)
(2.92097e-07 0.0692802 0)
(3.49904e-07 0.0692802 0)
(4.03218e-07 0.0692802 0)
(4.51376e-07 0.0692802 0)
(4.9315e-07 0.0692802 0)
(5.27826e-07 0.0692802 0)
(5.53817e-07 0.0692802 0)
(5.70557e-07 0.0692802 0)
(5.7538e-07 0.0692802 0)
(5.68132e-07 0.0692802 0)
(5.43988e-07 0.0692802 0)
(5.03196e-07 0.0692802 0)
(4.36075e-07 0.0692802 0)
(3.43351e-07 0.0692802 0)
(2.02906e-07 0.0692802 0)
(1.42902e-08 0.0692803 0)
(-2.78717e-07 0.0692803 0)
(-6.89263e-07 0.0692803 0)
(-1.38554e-06 0.0692804 0)
(-2.45712e-06 0.0692805 0)
(-4.55544e-06 0.0692807 0)
(-8.22724e-06 0.0692813 0)
(-1.75213e-05 0.0692827 0)
(-3.56703e-05 0.0692943 0)
(-9.21533e-05 0.069293 0)
(-6.88094e-05 0.0692992 0)
(6.41378e-05 0.0020608 0)
(8.83441e-05 0.00210175 0)
(3.73936e-05 0.00210399 0)
(1.88212e-05 0.00209146 0)
(8.9621e-06 0.0020898 0)
(5.01253e-06 0.00208904 0)
(2.72784e-06 0.00208877 0)
(1.55691e-06 0.00208863 0)
(7.92305e-07 0.00208857 0)
(3.40808e-07 0.00208853 0)
(1.79866e-08 0.00208851 0)
(-1.90007e-07 0.00208849 0)
(-3.45053e-07 0.00208848 0)
(-4.47672e-07 0.00208848 0)
(-5.22233e-07 0.00208847 0)
(-5.67926e-07 0.00208847 0)
(-5.95512e-07 0.00208846 0)
(-6.04717e-07 0.00208846 0)
(-6.00799e-07 0.00208846 0)
(-5.83996e-07 0.00208845 0)
(-5.57205e-07 0.00208845 0)
(-5.20996e-07 0.00208845 0)
(-4.77186e-07 0.00208845 0)
(-4.26501e-07 0.00208845 0)
(-3.7024e-07 0.00208845 0)
(-3.09172e-07 0.00208845 0)
(-2.44355e-07 0.00208845 0)
(-1.76593e-07 0.00208845 0)
(-1.06789e-07 0.00208844 0)
(-3.57265e-08 0.00208844 0)
(3.57108e-08 0.00208844 0)
(1.06777e-07 0.00208844 0)
(1.76587e-07 0.00208845 0)
(2.44334e-07 0.00208845 0)
(3.09153e-07 0.00208845 0)
(3.70224e-07 0.00208845 0)
(4.26471e-07 0.00208845 0)
(4.77171e-07 0.00208845 0)
(5.20996e-07 0.00208845 0)
(5.57185e-07 0.00208845 0)
(5.83993e-07 0.00208845 0)
(6.00814e-07 0.00208846 0)
(6.04728e-07 0.00208846 0)
(5.9555e-07 0.00208846 0)
(5.67972e-07 0.00208847 0)
(5.22259e-07 0.00208847 0)
(4.47712e-07 0.00208848 0)
(3.45108e-07 0.00208848 0)
(1.90052e-07 0.00208849 0)
(-1.79378e-08 0.00208851 0)
(-3.40755e-07 0.00208853 0)
(-7.92261e-07 0.00208857 0)
(-1.55684e-06 0.00208863 0)
(-2.72774e-06 0.00208877 0)
(-5.01245e-06 0.00208904 0)
(-8.96201e-06 0.0020898 0)
(-1.88211e-05 0.00209146 0)
(-3.73935e-05 0.00210399 0)
(-8.83441e-05 0.00210175 0)
(-6.41378e-05 0.0020608 0)
(5.96662e-05 -0.00790863 0)
(8.43657e-05 -0.00785205 0)
(3.86149e-05 -0.00784893 0)
(1.99453e-05 -0.00786223 0)
(9.6373e-06 -0.00786418 0)
(5.44759e-06 -0.00786509 0)
(2.99199e-06 -0.00786542 0)
(1.7285e-06 -0.00786559 0)
(8.99081e-07 -0.00786567 0)
(4.08478e-07 -0.00786572 0)
(5.70191e-08 -0.00786574 0)
(-1.69648e-07 -0.00786576 0)
(-3.38835e-07 -0.00786577 0)
(-4.51072e-07 -0.00786578 0)
(-5.32928e-07 -0.00786579 0)
(-5.8355e-07 -0.00786579 0)
(-6.14678e-07 -0.0078658 0)
(-6.26026e-07 -0.0078658 0)
(-6.23325e-07 -0.0078658 0)
(-6.06831e-07 -0.00786581 0)
(-5.79689e-07 -0.00786581 0)
(-5.42506e-07 -0.00786581 0)
(-4.97244e-07 -0.00786581 0)
(-4.44671e-07 -0.00786582 0)
(-3.86181e-07 -0.00786582 0)
(-3.2259e-07 -0.00786582 0)
(-2.55024e-07 -0.00786582 0)
(-1.84336e-07 -0.00786582 0)
(-1.11484e-07 -0.00786582 0)
(-3.72999e-08 -0.00786582 0)
(3.72834e-08 -0.00786582 0)
(1.11471e-07 -0.00786582 0)
(1.84327e-07 -0.00786582 0)
(2.55003e-07 -0.00786582 0)
(3.22569e-07 -0.00786582 0)
(3.86163e-07 -0.00786582 0)
(4.44641e-07 -0.00786582 0)
(4.97227e-07 -0.00786581 0)
(5.42504e-07 -0.00786581 0)
(5.79669e-07 -0.00786581 0)
(6.06827e-07 -0.00786581 0)
(6.23339e-07 -0.0078658 0)
(6.26039e-07 -0.0078658 0)
(6.14717e-07 -0.0078658 0)
(5.83597e-07 -0.00786579 0)
(5.32957e-07 -0.00786579 0)
(4.51113e-07 -0.00786578 0)
(3.38891e-07 -0.00786577 0)
(1.69696e-07 -0.00786576 0)
(-5.69672e-08 -0.00786574 0)
(-4.08422e-07 -0.00786572 0)
(-8.99034e-07 -0.00786567 0)
(-1.72842e-06 -0.00786559 0)
(-2.99189e-06 -0.00786542 0)
(-5.4475e-06 -0.00786509 0)
(-9.6372e-06 -0.00786418 0)
(-1.99452e-05 -0.00786223 0)
(-3.86148e-05 -0.00784893 0)
(-8.43656e-05 -0.00785205 0)
(-5.96661e-05 -0.00790863 0)
(5.4965e-05 -0.0150658 0)
(7.98119e-05 -0.0150065 0)
(3.9358e-05 -0.0150025 0)
(2.08935e-05 -0.0150165 0)
(1.02516e-05 -0.0150187 0)
(5.85951e-06 -0.0150198 0)
(3.24894e-06 -0.0150202 0)
(1.89977e-06 -0.0150204 0)
(1.00914e-06 -0.0150205 0)
(4.81325e-07 -0.0150205 0)
(1.02423e-07 -0.0150206 0)
(-1.4221e-07 -0.0150206 0)
(-3.25061e-07 -0.0150206 0)
(-4.46651e-07 -0.0150206 0)
(-5.35667e-07 -0.0150206 0)
(-5.91216e-07 -0.0150206 0)
(-6.25984e-07 -0.0150206 0)
(-6.39678e-07 -0.0150206 0)
(-6.3848e-07 -0.0150206 0)
(-6.22667e-07 -0.0150206 0)
(-5.95618e-07 -0.0150206 0)
(-5.57973e-07 -0.0150206 0)
(-5.11828e-07 -0.0150206 0)
(-4.57992e-07 -0.0150206 0)
(-3.97942e-07 -0.0150206 0)
(-3.32536e-07 -0.0150206 0)
(-2.62962e-07 -0.0150206 0)
(-1.9011e-07 -0.0150206 0)
(-1.14992e-07 -0.0150206 0)
(-3.84762e-08 -0.0150206 0)
(3.84588e-08 -0.0150206 0)
(1.14977e-07 -0.0150206 0)
(1.90099e-07 -0.0150206 0)
(2.6294e-07 -0.0150206 0)
(3.32514e-07 -0.0150206 0)
(3.97922e-07 -0.0150206 0)
(4.57962e-07 -0.0150206 0)
(5.11811e-07 -0.0150206 0)
(5.57968e-07 -0.0150206 0)
(5.95598e-07 -0.0150206 0)
(6.22663e-07 -0.0150206 0)
(6.38494e-07 -0.0150206 0)
(6.39694e-07 -0.0150206 0)
(6.26026e-07 -0.0150206 0)
(5.91263e-07 -0.0150206 0)
(5.35698e-07 -0.0150206 0)
(4.46693e-07 -0.0150206 0)
(3.25117e-07 -0.0150206 0)
(1.42261e-07 -0.0150206 0)
(-1.02368e-07 -0.0150206 0)
(-4.81268e-07 -0.0150205 0)
(-1.00909e-06 -0.0150205 0)
(-1.89969e-06 -0.0150204 0)
(-3.24884e-06 -0.0150202 0)
(-5.85942e-06 -0.0150198 0)
(-1.02515e-05 -0.0150187 0)
(-2.08934e-05 -0.0150165 0)
(-3.93579e-05 -0.0150025 0)
(-7.98118e-05 -0.0150065 0)
(-5.4965e-05 -0.0150658 0)
(5.01005e-05 -0.0277709 0)
(7.47796e-05 -0.0277067 0)
(3.96555e-05 -0.0277018 0)
(2.16677e-05 -0.0277163 0)
(1.08042e-05 -0.0277188 0)
(6.24727e-06 -0.0277201 0)
(3.49796e-06 -0.0277205 0)
(2.07007e-06 -0.0277208 0)
(1.12191e-06 -0.0277209 0)
(5.58783e-07 -0.027721 0)
(1.53642e-07 -0.027721 0)
(-1.0825e-07 -0.027721 0)
(-3.04287e-07 -0.027721 0)
(-4.34965e-07 -0.0277211 0)
(-5.31001e-07 -0.0277211 0)
(-5.91471e-07 -0.0277211 0)
(-6.29965e-07 -0.0277211 0)
(-6.46189e-07 -0.0277211 0)
(-6.46759e-07 -0.0277211 0)
(-6.31972e-07 -0.0277211 0)
(-6.05428e-07 -0.0277211 0)
(-5.67798e-07 -0.0277211 0)
(-5.21304e-07 -0.0277211 0)
(-4.66786e-07 -0.0277211 0)
(-4.05801e-07 -0.0277211 0)
(-3.39242e-07 -0.0277211 0)
(-2.68348e-07 -0.0277211 0)
(-1.94046e-07 -0.0277211 0)
(-1.17389e-07 -0.0277211 0)
(-3.92815e-08 -0.0277211 0)
(3.92632e-08 -0.0277211 0)
(1.17374e-07 -0.0277211 0)
(1.94032e-07 -0.0277211 0)
(2.68325e-07 -0.0277211 0)
(3.39218e-07 -0.0277211 0)
(4.05779e-07 -0.0277211 0)
(4.66756e-07 -0.0277211 0)
(5.21285e-07 -0.0277211 0)
(5.67791e-07 -0.0277211 0)
(6.05408e-07 -0.0277211 0)
(6.31967e-07 -0.0277211 0)
(6.46773e-07 -0.0277211 0)
(6.46207e-07 -0.0277211 0)
(6.30008e-07 -0.0277211 0)
(5.91518e-07 -0.0277211 0)
(5.31035e-07 -0.0277211 0)
(4.35009e-07 -0.0277211 0)
(3.04343e-07 -0.027721 0)
(1.08304e-07 -0.027721 0)
(-1.53585e-07 -0.027721 0)
(-5.58724e-07 -0.027721 0)
(-1.12185e-06 -0.0277209 0)
(-2.06999e-06 -0.0277208 0)
(-3.49785e-06 -0.0277205 0)
(-6.24718e-06 -0.0277201 0)
(-1.08041e-05 -0.0277188 0)
(-2.16676e-05 -0.0277163 0)
(-3.96554e-05 -0.0277018 0)
(-7.47796e-05 -0.0277067 0)
(-5.01005e-05 -0.0277709 0)
(4.52455e-05 -0.0417533 0)
(6.94792e-05 -0.0416812 0)
(3.95483e-05 -0.0416754 0)
(2.22719e-05 -0.0416904 0)
(1.12954e-05 -0.0416932 0)
(6.61003e-06 -0.0416946 0)
(3.73833e-06 -0.0416951 0)
(2.23869e-06 -0.0416954 0)
(1.2367e-06 -0.0416956 0)
(6.40171e-07 -0.0416956 0)
(2.09995e-07 -0.0416957 0)
(-6.84591e-08 -0.0416957 0)
(-2.7721e-07 -0.0416957 0)
(-4.16717e-07 -0.0416958 0)
(-5.19631e-07 -0.0416958 0)
(-5.85004e-07 -0.0416958 0)
(-6.27297e-07 -0.0416958 0)
(-6.46215e-07 -0.0416958 0)
(-6.4879e-07 -0.0416958 0)
(-6.3534e-07 -0.0416958 0)
(-6.09677e-07 -0.0416958 0)
(-5.72494e-07 -0.0416958 0)
(-5.26134e-07 -0.0416958 0)
(-4.71464e-07 -0.0416958 0)
(-4.10111e-07 -0.0416958 0)
(-3.42999e-07 -0.0416958 0)
(-2.71415e-07 -0.0416958 0)
(-1.96309e-07 -0.0416958 0)
(-1.18778e-07 -0.0416958 0)
(-3.97495e-08 -0.0416958 0)
(3.97304e-08 -0.0416958 0)
(1.18761e-07 -0.0416958 0)
(1.96294e-07 -0.0416958 0)
(2.71391e-07 -0.0416958 0)
(3.42974e-07 -0.0416958 0)
(4.10088e-07 -0.0416958 0)
(4.71434e-07 -0.0416958 0)
(5.26114e-07 -0.0416958 0)
(5.72485e-07 -0.0416958 0)
(6.09656e-07 -0.0416958 0)
(6.35335e-07 -0.0416958 0)
(6.48804e-07 -0.0416958 0)
(6.46234e-07 -0.0416958 0)
(6.2734e-07 -0.0416958 0)
(5.85051e-07 -0.0416958 0)
(5.19666e-07 -0.0416958 0)
(4.16761e-07 -0.0416958 0)
(2.77266e-07 -0.0416957 0)
(6.85153e-08 -0.0416957 0)
(-2.09936e-07 -0.0416957 0)
(-6.40111e-07 -0.0416956 0)
(-1.23664e-06 -0.0416956 0)
(-2.23861e-06 -0.0416954 0)
(-3.73822e-06 -0.0416951 0)
(-6.60993e-06 -0.0416946 0)
(-1.12953e-05 -0.0416932 0)
(-2.22717e-05 -0.0416904 0)
(-3.95482e-05 -0.0416754 0)
(-6.94791e-05 -0.0416812 0)
(-4.52455e-05 -0.0417533 0)
(4.05241e-05 -0.0518824 0)
(6.40776e-05 -0.0518026 0)
(3.90846e-05 -0.0517958 0)
(2.27125e-05 -0.0518111 0)
(1.1726e-05 -0.0518143 0)
(6.94717e-06 -0.0518159 0)
(3.96939e-06 -0.0518164 0)
(2.40488e-06 -0.0518168 0)
(1.35276e-06 -0.0518169 0)
(7.2471e-07 -0.051817 0)
(2.70688e-07 -0.0518171 0)
(-2.36522e-08 -0.0518171 0)
(-2.44657e-07 -0.0518171 0)
(-3.9274e-07 -0.0518172 0)
(-5.0239e-07 -0.0518172 0)
(-5.72641e-07 -0.0518172 0)
(-6.18789e-07 -0.0518172 0)
(-6.4054e-07 -0.0518172 0)
(-6.45328e-07 -0.0518172 0)
(-6.33487e-07 -0.0518172 0)
(-6.0903e-07 -0.0518172 0)
(-5.72676e-07 -0.0518172 0)
(-5.26875e-07 -0.0518172 0)
(-4.72518e-07 -0.0518172 0)
(-4.11298e-07 -0.0518172 0)
(-3.44161e-07 -0.0518172 0)
(-2.72438e-07 -0.0518172 0)
(-1.97101e-07 -0.0518172 0)
(-1.19278e-07 -0.0518172 0)
(-3.99205e-08 -0.0518172 0)
(3.99004e-08 -0.0518172 0)
(1.1926e-07 -0.0518172 0)
(1.97083e-07 -0.0518172 0)
(2.72413e-07 -0.0518172 0)
(3.44135e-07 -0.0518172 0)
(4.11273e-07 -0.0518172 0)
(4.72489e-07 -0.0518172 0)
(5.26854e-07 -0.0518172 0)
(5.72665e-07 -0.0518172 0)
(6.0901e-07 -0.0518172 0)
(6.33482e-07 -0.0518172 0)
(6.45341e-07 -0.0518172 0)
(6.40562e-07 -0.0518172 0)
(6.18832e-07 -0.0518172 0)
(5.72688e-07 -0.0518172 0)
(5.02426e-07 -0.0518172 0)
(3.92784e-07 -0.0518172 0)
(2.44713e-07 -0.0518171 0)
(2.37099e-08 -0.0518171 0)
(-2.70628e-07 -0.0518171 0)
(-7.2465e-07 -0.051817 0)
(-1.3527e-06 -0.0518169 0)
(-2.40479e-06 -0.0518168 0)
(-3.96929e-06 -0.0518164 0)
(-6.94707e-06 -0.0518159 0)
(-1.17259e-05 -0.0518143 0)
(-2.27124e-05 -0.0518111 0)
(-3.90845e-05 -0.0517958 0)
(-6.40776e-05 -0.0518026 0)
(-4.05241e-05 -0.0518824 0)
(3.59969e-05 -0.0513228 0)
(5.86824e-05 -0.0512386 0)
(3.83184e-05 -0.0512309 0)
(2.29986e-05 -0.0512466 0)
(1.20977e-05 -0.0512499 0)
(7.25835e-06 -0.0512517 0)
(4.19057e-06 -0.0512524 0)
(2.56786e-06 -0.0512528 0)
(1.4693e-06 -0.0512529 0)
(8.11554e-07 -0.051253 0)
(3.34845e-07 -0.0512531 0)
(2.52661e-08 -0.0512531 0)
(-2.07552e-07 -0.0512532 0)
(-3.63969e-07 -0.0512532 0)
(-4.80213e-07 -0.0512532 0)
(-5.55313e-07 -0.0512532 0)
(-6.05353e-07 -0.0512532 0)
(-6.30053e-07 -0.0512532 0)
(-6.37222e-07 -0.0512532 0)
(-6.2722e-07 -0.0512532 0)
(-6.04245e-07 -0.0512533 0)
(-5.6904e-07 -0.0512533 0)
(-5.24155e-07 -0.0512533 0)
(-4.70506e-07 -0.0512533 0)
(-4.0984e-07 -0.0512533 0)
(-3.43127e-07 -0.0512533 0)
(-2.71733e-07 -0.0512533 0)
(-1.96646e-07 -0.0512533 0)
(-1.19026e-07 -0.0512533 0)
(-3.98401e-08 -0.0512533 0)
(3.98191e-08 -0.0512533 0)
(1.19007e-07 -0.0512533 0)
(1.96627e-07 -0.0512533 0)
(2.71707e-07 -0.0512533 0)
(3.431e-07 -0.0512533 0)
(4.09814e-07 -0.0512533 0)
(4.70476e-07 -0.0512533 0)
(5.24133e-07 -0.0512533 0)
(5.69026e-07 -0.0512533 0)
(6.04225e-07 -0.0512533 0)
(6.27214e-07 -0.0512532 0)
(6.37236e-07 -0.0512532 0)
(6.30075e-07 -0.0512532 0)
(6.05396e-07 -0.0512532 0)
(5.55359e-07 -0.0512532 0)
(4.80251e-07 -0.0512532 0)
(3.64014e-07 -0.0512532 0)
(2.07606e-07 -0.0512532 0)
(-2.52074e-08 -0.0512531 0)
(-3.34783e-07 -0.0512531 0)
(-8.11493e-07 -0.051253 0)
(-1.46924e-06 -0.0512529 0)
(-2.56778e-06 -0.0512528 0)
(-4.19046e-06 -0.0512524 0)
(-7.25825e-06 -0.0512517 0)
(-1.20976e-05 -0.0512499 0)
(-2.29985e-05 -0.0512466 0)
(-3.83183e-05 -0.0512309 0)
(-5.86823e-05 -0.0512386 0)
(-3.59969e-05 -0.0513228 0)
(3.16368e-05 -0.0334404 0)
(5.33146e-05 -0.0333586 0)
(3.73062e-05 -0.0333501 0)
(2.31411e-05 -0.0333659 0)
(1.24131e-05 -0.0333695 0)
(7.54353e-06 -0.0333715 0)
(4.40139e-06 -0.0333722 0)
(2.72693e-06 -0.0333727 0)
(1.58553e-06 -0.0333729 0)
(8.99843e-07 -0.033373 0)
(4.01563e-07 -0.033373 0)
(7.7354e-08 -0.0333731 0)
(-1.6686e-07 -0.0333731 0)
(-3.31388e-07 -0.0333731 0)
(-4.5409e-07 -0.0333732 0)
(-5.34001e-07 -0.0333732 0)
(-5.87956e-07 -0.0333732 0)
(-6.1569e-07 -0.0333732 0)
(-6.25375e-07 -0.0333732 0)
(-6.17392e-07 -0.0333732 0)
(-5.9612e-07 -0.0333732 0)
(-5.62322e-07 -0.0333732 0)
(-5.18644e-07 -0.0333732 0)
(-4.66018e-07 -0.0333732 0)
(-4.06248e-07 -0.0333732 0)
(-3.4032e-07 -0.0333732 0)
(-2.69632e-07 -0.0333732 0)
(-1.95186e-07 -0.0333732 0)
(-1.18167e-07 -0.0333732 0)
(-3.95568e-08 -0.0333732 0)
(3.95347e-08 -0.0333732 0)
(1.18147e-07 -0.0333732 0)
(1.95165e-07 -0.0333732 0)
(2.69604e-07 -0.0333732 0)
(3.40291e-07 -0.0333732 0)
(4.06221e-07 -0.0333732 0)
(4.65989e-07 -0.0333732 0)
(5.18621e-07 -0.0333732 0)
(5.62307e-07 -0.0333732 0)
(5.961e-07 -0.0333732 0)
(6.17387e-07 -0.0333732 0)
(6.25389e-07 -0.0333732 0)
(6.15714e-07 -0.0333732 0)
(5.87998e-07 -0.0333732 0)
(5.34047e-07 -0.0333732 0)
(4.54129e-07 -0.0333732 0)
(3.31433e-07 -0.0333731 0)
(1.66914e-07 -0.0333731 0)
(-7.72946e-08 -0.0333731 0)
(-4.015e-07 -0.033373 0)
(-8.99781e-07 -0.033373 0)
(-1.58547e-06 -0.0333729 0)
(-2.72684e-06 -0.0333727 0)
(-4.40128e-06 -0.0333722 0)
(-7.54343e-06 -0.0333715 0)
(-1.2413e-05 -0.0333695 0)
(-2.3141e-05 -0.0333659 0)
(-3.73061e-05 -0.0333501 0)
(-5.33146e-05 -0.0333586 0)
(-3.16367e-05 -0.0334404 0)
(2.73181e-05 0.00234353 0)
(4.78946e-05 0.00241434 0)
(3.61036e-05 0.00242371 0)
(2.31523e-05 0.00240781 0)
(1.26754e-05 0.00240398 0)
(7.803e-06 0.00240183 0)
(4.60157e-06 0.00240101 0)
(2.88148e-06 0.00240054 0)
(1.70074e-06 0.00240032 0)
(9.88771e-07 0.00240018 0)
(4.69981e-07 0.0024001 0)
(1.31704e-07 0.00240004 0)
(-1.2352e-07 0.00240001 0)
(-2.95955e-07 0.00239998 0)
(-4.24986e-07 0.00239997 0)
(-5.09668e-07 0.00239995 0)
(-5.67544e-07 0.00239994 0)
(-5.98375e-07 0.00239993 0)
(-6.10673e-07 0.00239992 0)
(-6.04848e-07 0.00239992 0)
(-5.85445e-07 0.00239991 0)
(-5.53251e-07 0.00239991 0)
(-5.10999e-07 0.0023999 0)
(-4.5964e-07 0.0023999 0)
(-4.01025e-07 0.0023999 0)
(-3.36158e-07 0.00239989 0)
(-2.66464e-07 0.00239989 0)
(-1.92957e-07 0.00239989 0)
(-1.16844e-07 0.00239989 0)
(-3.91184e-08 0.00239989 0)
(3.90954e-08 0.00239989 0)
(1.16823e-07 0.00239989 0)
(1.92935e-07 0.00239989 0)
(2.66435e-07 0.00239989 0)
(3.36128e-07 0.00239989 0)
(4.00997e-07 0.0023999 0)
(4.59611e-07 0.0023999 0)
(5.10975e-07 0.0023999 0)
(5.53234e-07 0.00239991 0)
(5.85425e-07 0.00239991 0)
(6.04842e-07 0.00239992 0)
(6.10687e-07 0.00239992 0)
(5.98399e-07 0.00239993 0)
(5.67586e-07 0.00239994 0)
(5.09713e-07 0.00239995 0)
(4.25026e-07 0.00239997 0)
(2.96e-07 0.00239998 0)
(1.23573e-07 0.00240001 0)
(-1.31644e-07 0.00240004 0)
(-4.69917e-07 0.0024001 0)
(-9.88709e-07 0.00240018 0)
(-1.70068e-06 0.00240032 0)
(-2.8814e-06 0.00240054 0)
(-4.60146e-06 0.00240101 0)
(-7.8029e-06 0.00240183 0)
(-1.26753e-05 0.00240398 0)
(-2.31522e-05 0.00240781 0)
(-3.61035e-05 0.00242371 0)
(-4.78945e-05 0.00241434 0)
(-2.73181e-05 0.00234353 0)
(2.28757e-05 0.0467423 0)
(4.22968e-05 0.0467956 0)
(3.47605e-05 0.0468058 0)
(2.30455e-05 0.0467899 0)
(1.2888e-05 0.0467859 0)
(8.03736e-06 0.0467835 0)
(4.79101e-06 0.0467826 0)
(3.03107e-06 0.0467821 0)
(1.81434e-06 0.0467819 0)
(1.07766e-06 0.0467817 0)
(5.39355e-07 0.0467816 0)
(1.8752e-07 0.0467816 0)
(-7.83632e-08 0.0467815 0)
(-2.58524e-07 0.0467815 0)
(-3.93767e-07 0.0467815 0)
(-4.83179e-07 0.0467815 0)
(-5.44972e-07 0.0467814 0)
(-5.78941e-07 0.0467814 0)
(-5.9392e-07 0.0467814 0)
(-5.90349e-07 0.0467814 0)
(-5.72936e-07 0.0467814 0)
(-5.42486e-07 0.0467814 0)
(-5.01818e-07 0.0467814 0)
(-4.51901e-07 0.0467814 0)
(-3.94629e-07 0.0467814 0)
(-3.31021e-07 0.0467814 0)
(-2.62528e-07 0.0467814 0)