/*--------------------------------*- C++ -*----------------------------------*\
| =========                 |                                                 |
| \\      /  F ield         | foam-extend: Open Source CFD                    |
|  \\    /   O peration     | Version:     4.0                                |
|   \\  /    A nd           | Web:         http://www.foam-extend.org         |
|    \\/     M anipulation  |                                                 |
\*---------------------------------------------------------------------------*/
FoamFile
{
    version     2.0;
    format      ascii;
    class       volScalarField;
    location    "3";
    object      p;
}
// * * * * * * * * * * * * * * * * * * * * * * * * * * * * * * * * * * * * * //

dimensions      [0 2 -2 0 0 0 0];

internalField   nonuniform List<scalar> 
6960
(
2.65469e-24
4.55918e-24
4.76405e-24
4.04798e-24
4.31817e-24
4.78385e-24
4.97527e-24
5.28523e-24
4.96593e-24
5.04642e-24
4.91509e-24
4.36387e-24
4.53999e-24
4.15758e-24
4.84969e-24
5.01377e-24
4.1402e-24
4.5198e-24
4.00093e-24
3.48604e-24
2.96464e-24
2.28982e-24
2.5842e-24
2.17969e-24
2.42771e-24
2.5305e-24
3.199e-24
4.42643e-24
4.46527e-24
3.96948e-24
3.41965e-24
3.61197e-24
3.56265e-24
2.54634e-24
2.38135e-24
2.88036e-24
2.53903e-24
2.55991e-24
2.74503e-24
3.5394e-24
3.84701e-24
3.45943e-24
3.69933e-24
3.57658e-24
3.96784e-24
3.978e-24
3.02785e-24
3.04269e-24
3.65276e-24
3.56396e-24
3.52507e-24
3.51638e-24
3.51756e-24
3.53665e-24
3.66189e-24
4.16964e-24
4.32731e-24
4.46803e-24
4.47965e-24
3.17611e-24
3.99815e-24
4.43921e-24
4.66697e-24
3.95224e-24
4.16912e-24
4.61553e-24
4.80252e-24
5.1228e-24
4.86146e-24
4.98445e-24
4.81969e-24
4.23337e-24
4.42048e-24
4.06294e-24
4.76031e-24
4.95009e-24
4.13649e-24
4.51597e-24
3.931e-24
3.39075e-24
2.90949e-24
2.25794e-24
2.51662e-24
2.08864e-24
2.36717e-24
2.51457e-24
3.20856e-24
4.42925e-24
4.43332e-24
3.91591e-24
3.33091e-24
3.50458e-24
3.47192e-24
2.48198e-24
2.37068e-24
2.88796e-24
2.49586e-24
2.47221e-24
2.64026e-24
3.43185e-24
3.78554e-24
3.441e-24
3.6747e-24
3.54796e-24
3.94442e-24
3.94394e-24
2.97857e-24
2.96189e-24
3.51405e-24
3.4318e-24
3.48723e-24
3.54252e-24
3.54882e-24
3.52553e-24
3.5577e-24
4.01468e-24
4.18284e-24
4.34139e-24
4.4056e-24
3.16771e-24
4.21332e-24
4.33754e-24
4.56552e-24
3.85493e-24
4.05421e-24
4.47882e-24
4.64676e-24
4.96231e-24
4.72852e-24
4.8912e-24
4.74338e-24
4.1547e-24
4.34757e-24
4.01856e-24
4.72771e-24
4.9036e-24
4.07513e-24
4.44468e-24
3.86368e-24
3.32902e-24
2.84788e-24
2.20444e-24
2.4833e-24
2.07854e-24
2.36068e-24
2.50454e-24
3.19986e-24
4.41331e-24
4.39435e-24
3.85816e-24
3.27719e-24
3.47858e-24
3.47034e-24
2.48989e-24
2.37901e-24
2.87721e-24
2.45488e-24
2.41815e-24
2.59513e-24
3.39067e-24
3.74984e-24
3.41341e-24
3.64396e-24
3.51226e-24
3.90157e-24
3.89641e-24
2.93662e-24
2.92889e-24
3.48266e-24
3.3911e-24
3.4379e-24
3.50071e-24
3.51991e-24
3.487e-24
3.48259e-24
3.90517e-24
4.07053e-24
4.2653e-24
4.38922e-24
3.21089e-24
3.97595e-24
4.20525e-24
4.42812e-24
3.7236e-24
3.90842e-24
4.30248e-24
4.43941e-24
4.74139e-24
4.53493e-24
4.75313e-24
4.64614e-24
4.06527e-24
4.26541e-24
3.97677e-24
4.70299e-24
4.84496e-24
3.97118e-24
4.3248e-24
3.77208e-24
3.25464e-24
2.76019e-24
2.12359e-24
2.45e-24
2.09297e-24
2.37079e-24
2.49405e-24
3.18417e-24
4.38745e-24
4.33882e-24
3.77594e-24
3.21396e-24
3.47093e-24
3.50016e-24
2.52681e-24
2.39963e-24
2.85887e-24
2.3991e-24
2.35461e-24
2.5545e-24
3.35752e-24
3.71029e-24
3.37305e-24
3.59875e-24
3.46024e-24
3.83646e-24
3.82598e-24
2.88114e-24
2.90135e-24
3.47843e-24
3.36754e-24
3.36763e-24
3.42186e-24
3.4612e-24
3.42599e-24
3.38923e-24
3.76973e-24
3.92689e-24
4.17958e-24
4.39199e-24
3.28134e-24
3.82532e-24
4.03903e-24
4.25455e-24
3.55829e-24
3.72513e-24
4.0796e-24
4.17499e-24
4.45597e-24
4.28131e-24
4.5709e-24
4.52081e-24
3.95398e-24
4.16394e-24
3.92657e-24
4.67148e-24
4.76451e-24
3.82851e-24
4.16251e-24
3.65095e-24
3.15664e-24
2.64154e-24
2.01335e-24
2.40549e-24
2.11346e-24
2.38401e-24
2.47786e-24
3.15998e-24
4.34974e-24
4.26284e-24
3.66505e-24
3.12936e-24
3.46169e-24
3.54022e-24
2.57526e-24
2.42515e-24
2.83154e-24
2.32265e-24
2.27037e-24
2.5032e-24
3.31629e-24
3.65743e-24
3.31592e-24
3.53405e-24
3.3869e-24
3.74626e-24
3.72853e-24
2.80473e-24
2.86686e-24
3.47954e-24
3.34245e-24
3.27502e-24
3.3138e-24
3.37868e-24
3.34198e-24
3.268e-24
3.59835e-24
3.74604e-24
4.07127e-24
4.39352e-24
3.37554e-24
3.70734e-24
3.8444e-24
4.05375e-24
3.36737e-24
3.51097e-24
3.81763e-24
3.86308e-24
4.1164e-24
3.97604e-24
4.34882e-24
4.36789e-24
3.82104e-24
4.04404e-24
3.86539e-24
4.62717e-24
4.65804e-24
3.64839e-24
3.96153e-24
3.50104e-24
3.03353e-24
2.49144e-24
1.87289e-24
2.34482e-24
2.13203e-24
2.39422e-24
2.45225e-24
3.12371e-24
4.29716e-24
4.16569e-24
3.52637e-24
3.02086e-24
3.44206e-24
3.57921e-24
2.62497e-24
2.44872e-24
2.79206e-24
2.22382e-24
2.16259e-24
2.43628e-24
3.26135e-24
3.58756e-24
3.23927e-24
3.44682e-24
3.28973e-24
3.62911e-24
3.6019e-24
2.70434e-24
2.82016e-24
3.47871e-24
3.31095e-24
3.16156e-24
3.17945e-24
3.27238e-24
3.23374e-24
3.11956e-24
3.39592e-24
3.53275e-24
3.93925e-24
4.38915e-24
3.47934e-24
3.57576e-24
3.62875e-24
3.83599e-24
3.16071e-24
3.27509e-24
3.52701e-24
3.51665e-24
3.73653e-24
3.63014e-24
4.09252e-24
4.18938e-24
3.66877e-24
3.90811e-24
3.79184e-24
4.56522e-24
4.52232e-24
3.43245e-24
3.72607e-24
3.32477e-24
2.88584e-24
2.31066e-24
1.70193e-24
2.26411e-24
2.14208e-24
2.39594e-24
2.4135e-24
3.07154e-24
4.22698e-24
4.0481e-24
3.36241e-24
2.88766e-24
3.40522e-24
3.60693e-24
2.66606e-24
2.46269e-24
2.73666e-24
2.10215e-24
2.03032e-24
2.35004e-24
3.18854e-24
3.49777e-24
3.14085e-24
3.33471e-24
3.16692e-24
3.48398e-24
3.44497e-24
2.57786e-24
2.75699e-24
3.47009e-24
3.27006e-24
3.02904e-24
3.02135e-24
3.14168e-24
3.10034e-24
2.94679e-24
3.16979e-24
3.29588e-24
3.78794e-24
4.37384e-24
3.57318e-24
3.42639e-24
3.40185e-24
3.61054e-24
2.94769e-24
3.02748e-24
3.21939e-24
3.14942e-24
3.3313e-24
3.25608e-24
3.80864e-24
3.98816e-24
3.50032e-24
3.759e-24
3.70531e-24
4.48167e-24
4.35541e-24
3.18411e-24
3.46177e-24
3.12606e-24
2.71562e-24
2.10143e-24
1.50201e-24
2.16081e-24
2.13794e-24
2.38461e-24
2.35884e-24
3.00099e-24
4.13786e-24
3.91216e-24
3.17751e-24
2.73058e-24
3.34581e-24
3.61439e-24
2.68951e-24
2.46014e-24
2.66224e-24
1.9583e-24
1.87416e-24
2.24204e-24
3.09466e-24
3.38621e-24
3.01942e-24
3.19697e-24
3.01829e-24
3.31146e-24
3.25847e-24
2.4246e-24
2.67412e-24
3.44841e-24
3.21713e-24
2.88003e-24
2.84258e-24
2.9872e-24
2.9417e-24
2.7535e-24
2.93031e-24
3.04736e-24
3.61995e-24
4.33857e-24
3.65675e-24
3.26387e-24
3.1722e-24
3.38884e-24
2.73825e-24
2.77756e-24
2.906e-24
2.77573e-24
2.91635e-24
2.86682e-24
3.50504e-24
3.76829e-24
3.31942e-24
3.60063e-24
3.6059e-24
4.37419e-24
4.15778e-24
2.9088e-24
3.17652e-24
2.9104e-24
2.52651e-24
1.8684e-24
1.27703e-24
2.03444e-24
2.11534e-24
2.35713e-24
2.28766e-24
2.91159e-24
4.03023e-24
3.76171e-24
2.97778e-24
2.55296e-24
3.26044e-24
3.59455e-24
2.68849e-24
2.43599e-24
2.5674e-24
1.79451e-24
1.69635e-24
2.11183e-24
2.97821e-24
3.25265e-24
2.87582e-24
3.03489e-24
2.8461e-24
3.11457e-24
3.04537e-24
2.24627e-24
2.5698e-24
3.40957e-24
3.15035e-24
2.71771e-24
2.64745e-24
2.81058e-24
2.76015e-24
2.54623e-24
2.68807e-24
2.79747e-24
3.44194e-24
4.28617e-24
3.71074e-24
3.09792e-24
2.94847e-24
3.17931e-24
2.54103e-24
2.53463e-24
2.59802e-24
2.40909e-24
2.50674e-24
2.47578e-24
3.19023e-24
3.53474e-24
3.13087e-24
3.43705e-24
3.49497e-24
4.24246e-24
3.93223e-24
2.61463e-24
2.8798e-24
2.68488e-24
2.32412e-24
1.61839e-24
1.03337e-24
1.88674e-24
2.07209e-24
2.31231e-24
2.20129e-24
2.80507e-24
3.9062e-24
3.60193e-24
2.77106e-24
2.35995e-24
3.14853e-24
3.54301e-24
2.65861e-24
2.38763e-24
2.45278e-24
1.61495e-24
1.50108e-24
1.96081e-24
2.83984e-24
3.09895e-24
2.71296e-24
2.85234e-24
2.65499e-24
2.89884e-24
2.81125e-24
2.04665e-24
2.4445e-24
3.35078e-24
3.06882e-24
2.54575e-24
2.44107e-24
2.61583e-24
2.55989e-24
2.33206e-24
2.45386e-24
2.55924e-24
3.26221e-24
4.21295e-24
3.73073e-24
2.93215e-24
2.74037e-24
2.99021e-24
2.36306e-24
2.30704e-24
2.30603e-24
2.06239e-24
2.11681e-24
2.09605e-24
2.87361e-24
3.29385e-24
2.94013e-24
3.27316e-24
3.3751e-24
4.08862e-24
3.68461e-24
2.3119e-24
2.58286e-24
2.45821e-24
2.11592e-24
1.36035e-24
7.79809e-25
1.72215e-24
2.0086e-24
2.25117e-24
2.10283e-24
2.68501e-24
3.76991e-24
3.43927e-24
2.56601e-24
2.15867e-24
3.01225e-24
3.45887e-24
2.59847e-24
2.315e-24
2.32154e-24
1.42605e-24
1.29477e-24
1.79273e-24
2.6824e-24
2.92939e-24
2.5363e-24
2.65568e-24
2.45218e-24
2.67227e-24
2.5642e-24
1.83214e-24
2.30076e-24
3.27131e-24
2.97274e-24
2.36874e-24
2.22966e-24
2.40859e-24
2.34727e-24
2.11949e-24
2.23927e-24
2.3441e-24
3.08643e-24
4.12024e-24
3.71937e-24
2.77191e-24
2.55432e-24
2.82967e-24
2.21159e-24
2.10228e-24
2.03977e-24
1.74774e-24
1.75999e-24
1.74046e-24
2.56558e-24
3.05335e-24
2.75375e-24
3.11468e-24
3.25045e-24
3.91774e-24
3.42396e-24
2.01315e-24
2.29861e-24
2.24058e-24
1.91112e-24
1.1054e-24
5.27505e-25
1.54816e-24
1.92831e-24
2.17683e-24
1.9973e-24
2.55698e-24
3.62727e-24
3.28121e-24
2.37176e-24
1.95763e-24
2.85687e-24
3.34483e-24
2.51024e-24
2.22094e-24
2.17936e-24
1.23667e-24
1.08633e-24
1.61408e-24
2.51148e-24
2.75073e-24
2.35406e-24
2.45395e-24
2.24741e-24
2.44522e-24
2.3147e-24
1.61165e-24
2.14364e-24
3.17273e-24
2.86438e-24
2.19212e-24
2.02065e-24
2.19651e-24
2.13126e-24
1.91864e-24
2.05364e-24
2.16102e-24
2.92482e-24
4.01572e-24
3.66397e-24
2.62641e-24
2.3989e-24
2.70223e-24
2.09169e-24
1.92823e-24
1.80912e-24
1.47606e-24
1.44853e-24
1.42177e-24
2.27735e-24
2.82241e-24
2.57948e-24
2.96796e-24
3.12709e-24
3.73779e-24
3.16211e-24
1.73321e-24
2.04091e-24
2.04319e-24
1.72038e-24
8.66295e-25
2.90073e-25
1.3749e-24
1.83719e-24
2.09457e-24
1.89131e-24
2.42847e-24
3.4854e-24
3.13535e-24
2.19766e-24
1.76624e-24
2.69016e-24
3.20704e-24
2.39946e-24
2.11161e-24
2.03429e-24
1.05755e-24
8.87107e-25
1.43429e-24
2.33556e-24
2.57217e-24
2.17652e-24
2.25853e-24
2.05238e-24
2.22997e-24
2.07524e-24
1.39607e-24
1.98082e-24
3.05937e-24
2.74789e-24
2.02277e-24
1.82267e-24
1.98967e-24
1.92243e-24
1.73906e-24
1.90615e-24
2.01989e-24
2.78399e-24
3.899e-24
3.57749e-24
2.49573e-24
2.28107e-24
2.61471e-24
2.00845e-24
1.79132e-24
1.62282e-24
1.25757e-24
1.19371e-24
1.15205e-24
2.02087e-24
2.61149e-24
2.42574e-24
2.84041e-24
3.01241e-24
3.55909e-24
2.91349e-24
1.48788e-24
1.82411e-24
1.87757e-24
1.55506e-24
6.57146e-25
8.2442e-26
1.21443e-24
1.74318e-24
2.01119e-24
1.79303e-24
2.30798e-24
3.35204e-24
3.00893e-24
2.05214e-24
1.59454e-24
2.52152e-24
3.05419e-24
2.27476e-24
1.99576e-24
1.89643e-24
9.00638e-25
7.09895e-25
1.26536e-24
2.16577e-24
2.40489e-24
2.01555e-24
2.08193e-24
1.88001e-24
2.03971e-24
1.85931e-24
1.19793e-24
1.82189e-24
2.93818e-24
2.62973e-24
1.86874e-24
1.64563e-24
1.79915e-24
1.73284e-24
1.59127e-24
1.80405e-24
1.92545e-24
2.66942e-24
3.77989e-24
3.46118e-24
2.39045e-24
2.20451e-24
2.57011e-24
1.9664e-24
1.69789e-24
1.48876e-24
1.10096e-24
1.00536e-24
9.42698e-25
1.80822e-24
2.43168e-24
2.30169e-24
2.73954e-24
2.91481e-24
3.39377e-24
2.69363e-24
1.29318e-24
1.66176e-24
1.75475e-24
1.42673e-24
4.92028e-25
-8.03444e-26
1.07945e-24
1.65557e-24
1.93464e-24
1.71097e-24
2.20443e-24
3.23466e-24
2.90815e-24
1.94236e-24
1.45167e-24
2.36139e-24
2.89665e-24
2.1465e-24
1.88404e-24
1.77704e-24
7.78403e-25
5.68024e-25
1.12061e-24
2.01503e-24
2.2614e-24
1.8836e-24
1.93692e-24
1.74299e-24
1.88747e-24
1.68043e-24
1.03013e-24
1.67799e-24
2.81819e-24
2.51829e-24
1.73898e-24
1.49982e-24
1.63726e-24
1.5751e-24
1.48449e-24
1.75127e-24
1.88098e-24
2.58842e-24
3.66438e-24
3.31607e-24
2.31061e-24
2.176e-24
2.57067e-24
1.96726e-24
1.65301e-24
1.41377e-24
1.0131e-24
8.9134e-25
8.03753e-25
1.65093e-24
2.29413e-24
2.21616e-24
2.67253e-24
2.84292e-24
3.25431e-24
2.51793e-24
1.16367e-24
1.56553e-24
1.68462e-24
1.3459e-24
3.83533e-25
-1.84732e-25
9.82226e-25
1.58415e-24
1.87303e-24
1.65311e-24
2.12599e-24
3.14009e-24
2.83761e-24
1.87317e-24
1.34535e-24
2.21988e-24
2.74552e-24
2.02561e-24
1.78744e-24
1.68742e-24
7.02645e-25
4.74275e-25
1.01325e-24
1.89654e-24
2.15428e-24
1.79257e-24
1.83516e-24
1.65246e-24
1.78459e-24
1.55078e-24
9.0496e-25
1.5606e-24
2.70984e-24
2.42303e-24
1.64285e-24
1.39557e-24
1.51607e-24
1.46087e-24
1.42585e-24
1.75059e-24
1.8879e-24
2.54145e-24
3.55505e-24
3.16258e-24
2.25787e-24
2.19515e-24
2.61822e-24
2.01301e-24
1.65932e-24
1.40181e-24
9.98611e-25
8.57162e-25
7.42953e-25
1.55913e-24
2.20884e-24
2.17674e-24
2.64548e-24
2.80426e-24
3.15232e-24
2.39997e-24
1.11093e-24
1.5443e-24
1.67454e-24
1.32065e-24
3.41383e-25
-2.20183e-25
9.33309e-25
1.53787e-24
1.83339e-24
1.62604e-24
2.07926e-24
3.07353e-24
2.79987e-24
1.84671e-24
1.28101e-24
2.10583e-24
2.61104e-24
1.92247e-24
1.71595e-24
1.63729e-24
6.83089e-25
4.39239e-25
9.55076e-25
1.822e-24
2.09427e-24
1.75233e-24
1.78575e-24
1.61679e-24
1.73942e-24
1.47983e-24
8.32788e-25
1.48034e-24
2.62363e-24
2.35378e-24
1.58903e-24
1.34188e-24
1.4459e-24
1.40015e-24
1.42112e-24
1.80078e-24
1.94194e-24
2.53084e-24
3.46279e-24
2.9988e-24
2.23746e-24
2.26192e-24
2.70882e-24
2.1019e-24
1.71797e-24
1.4544e-24
1.05831e-24
9.04767e-25
7.65101e-25
1.54017e-24
2.18337e-24
2.18889e-24
2.66205e-24
2.80428e-24
3.09681e-24
2.34969e-24
1.14248e-24
1.60244e-24
1.72797e-24
1.35532e-24
3.70986e-25
-1.80165e-25
9.39838e-25
1.52341e-24
1.82084e-24
1.63389e-24
2.06865e-24
3.03774e-24
2.79475e-24
1.8625e-24
1.26118e-24
2.02568e-24
2.50144e-24
1.84532e-24
1.6775e-24
1.63334e-24
7.25532e-25
4.69828e-25
9.54592e-25
1.80016e-24
2.08858e-24
1.76881e-24
1.794e-24
1.64027e-24
1.75626e-24
1.47312e-24
8.20614e-25
1.44561e-24
2.56886e-24
2.31901e-24
1.58432e-24
1.34527e-24
1.43465e-24
1.39975e-24
1.47166e-24
1.89787e-24
2.03937e-24
2.55623e-24
3.38801e-24
2.83985e-24
2.24053e-24
2.37436e-24
2.83936e-24
2.22948e-24
1.82578e-24
1.56902e-24
1.1893e-24
1.03195e-24
8.70597e-25
1.59733e-24
2.22169e-24
2.25446e-24
2.72282e-24
2.84506e-24
3.09269e-24
2.37229e-24
1.25999e-24
1.7388e-24
1.84339e-24
1.4494e-24
4.72762e-25
-6.37123e-26
1.00436e-24
1.54397e-24
1.8375e-24
1.67798e-24
2.09523e-24
3.03268e-24
2.81942e-24
1.91694e-24
1.28548e-24
1.98271e-24
2.42183e-24
1.79937e-24
1.67651e-24
1.67818e-24
8.30571e-25
5.67426e-25
1.01545e-24
1.83505e-24
2.13952e-24
1.8427e-24
1.85988e-24
1.72224e-24
1.83444e-24
1.53141e-24
8.71063e-25
1.46121e-24
2.55201e-24
2.32456e-24
1.6323e-24
1.40862e-24
1.48572e-24
1.46185e-24
1.57574e-24
2.03597e-24
2.17248e-24
2.61243e-24
3.33517e-24
2.70063e-24
2.27041e-24
2.52252e-24
3.00143e-24
2.3896e-24
1.97633e-24
1.73828e-24
1.38376e-24
1.23165e-24
1.05469e-24
1.72876e-24
2.32271e-24
2.37103e-24
2.82434e-24
2.92436e-24
3.13998e-24
2.46655e-24
1.45836e-24
1.94579e-24
2.01368e-24
1.59722e-24
6.41033e-25
1.23789e-25
1.12387e-24
1.59867e-24
1.88212e-24
1.75575e-24
2.15652e-24
3.05515e-24
2.86842e-24
2.00373e-24
1.35016e-24
1.97689e-24
2.37361e-24
1.78576e-24
1.71308e-24
1.76933e-24
9.9297e-25
7.26831e-25
1.13484e-24
1.92464e-24
2.24346e-24
1.96875e-24
1.97741e-24
1.85623e-24
1.96788e-24
1.65009e-24
9.81637e-25
1.52722e-24
2.57543e-24
2.37223e-24
1.73212e-24
1.52973e-24
1.59739e-24
1.58399e-24
1.72767e-24
2.20502e-24
2.33115e-24
2.69758e-24
3.30935e-24
2.57954e-24
2.31943e-24
2.69994e-24
3.1835e-24
2.57069e-24
2.15953e-24
1.951e-24
1.62869e-24
1.49119e-24
1.30695e-24
1.9265e-24
2.47971e-24
2.53107e-24
2.95852e-24
3.03552e-24
3.23278e-24
2.62437e-24
1.72529e-24
2.20938e-24
2.22644e-24
1.78755e-24
8.63766e-25
3.7034e-25
1.28966e-24
1.6824e-24
1.94962e-24
1.86069e-24
2.24619e-24
3.09893e-24
2.93395e-24
2.11421e-24
1.44854e-24
2.00467e-24
2.35452e-24
1.80134e-24
1.78255e-24
1.89902e-24
1.20132e-24
9.3621e-25
1.30273e-24
2.05996e-24
2.39039e-24
2.13573e-24
2.13488e-24
2.03003e-24
2.1448e-24
1.81905e-24
1.14442e-24
1.63858e-24
2.63633e-24
2.45864e-24
1.87756e-24
1.70106e-24
1.7623e-24
1.75778e-24
1.91683e-24
2.39392e-24
2.50641e-24
2.80398e-24
3.30608e-24
2.49637e-24
2.37884e-24
2.8927e-24
3.37397e-24
2.76026e-24
2.36084e-24
2.19089e-24
1.90674e-24
1.79295e-24
1.61094e-24
2.17644e-24
2.67999e-24
2.72187e-24
3.11314e-24
3.16706e-24
3.35943e-24
2.83083e-24
2.04171e-24
2.51005e-24
2.46423e-24
2.00394e-24
1.12311e-24
6.5791e-25
1.48797e-24
1.78578e-24
2.03126e-24
1.98276e-24
2.35428e-24
3.15513e-24
3.00654e-24
2.23797e-24
1.57169e-24
2.05937e-24
2.35861e-24
1.83916e-24
1.87577e-24
2.05448e-24
1.43874e-24
1.17744e-24
1.50264e-24
2.22528e-24
2.56413e-24
2.32709e-24
2.31564e-24
2.22667e-24
2.34844e-24
2.02305e-24
1.34638e-24
1.785e-24
2.72663e-24
2.575e-24
2.05709e-24
1.90939e-24
1.96701e-24
1.96962e-24
2.13e-24
2.58965e-24
2.68519e-24
2.92377e-24
3.32846e-24
2.45123e-24
2.44843e-24
3.08559e-24
3.55582e-24
2.94339e-24
2.56416e-24
2.43862e-24
2.19629e-24
2.11485e-24
1.94522e-24
2.45875e-24
2.90531e-24
2.92639e-24
3.27203e-24
3.30346e-24
3.50318e-24
3.0653e-24
2.3837e-24
2.82395e-24
2.70573e-24
2.22586e-24
1.3967e-24
9.64156e-25
1.70072e-24
1.896e-24
2.11548e-24
2.10898e-24
2.46829e-24
3.21272e-24
3.07558e-24
2.36405e-24
1.70903e-24
2.13191e-24
2.37708e-24
1.88904e-24
1.98034e-24
2.21911e-24
1.68403e-24
1.42782e-24
1.71287e-24
2.39975e-24
2.7436e-24
2.52211e-24
2.49968e-24
2.42596e-24
2.55856e-24
2.2427e-24
1.57003e-24
1.95162e-24
2.83345e-24
2.70761e-24
2.25412e-24
2.13661e-24
2.19337e-24
2.20174e-24
2.35044e-24
2.77723e-24
2.85599e-24
3.05026e-24
3.37157e-24
2.44328e-24
2.51395e-24
3.2666e-24
3.71426e-24
3.10307e-24
2.75119e-24
2.67331e-24
2.47385e-24
2.43185e-24
2.28448e-24
2.74918e-24
3.13347e-24
3.12421e-24
3.41647e-24
3.42651e-24
3.6438e-24
3.30385e-24
2.7242e-24
3.12489e-24
2.92761e-24
2.43063e-24
1.66004e-24
1.26407e-24
1.90738e-24
1.99809e-24
2.18895e-24
2.22496e-24
2.57399e-24
3.2598e-24
3.13047e-24
2.48149e-24
1.84946e-24
2.21172e-24
2.39937e-24
1.93905e-24
2.08188e-24
2.3745e-24
1.91399e-24
1.66221e-24
1.90908e-24
2.55981e-24
2.90542e-24
2.69814e-24
2.6654e-24
2.60653e-24
2.7534e-24
2.45648e-24
1.79502e-24
2.12037e-24
2.94041e-24
2.83911e-24
2.44865e-24
2.36127e-24
2.41983e-24
2.43296e-24
2.55972e-24
2.94299e-24
3.00747e-24
3.17104e-24
3.42727e-24
2.48129e-24
2.57251e-24
3.41766e-24
3.83461e-24
3.22518e-24
2.90398e-24
2.87341e-24
2.71583e-24
2.71842e-24
2.60166e-24
3.02129e-24
3.34005e-24
3.29357e-24
3.52718e-24
3.51728e-24
3.76032e-24
3.5214e-24
3.03575e-24
3.38691e-24
3.10701e-24
2.59619e-24
1.88869e-24
1.53255e-24
2.08709e-24
2.07682e-24
2.23839e-24
2.31613e-24
2.65713e-24
3.28486e-24
3.16174e-24
2.58039e-24
1.9822e-24
2.28804e-24
2.41454e-24
1.97697e-24
2.16592e-24
2.50259e-24
2.10635e-24
1.85619e-24
2.06724e-24
2.68214e-24
3.02691e-24
2.83353e-24
2.79219e-24
2.74791e-24
2.912e-24
2.643e-24
2.00051e-24
2.27194e-24
3.02955e-24
2.95059e-24
2.61943e-24
2.56059e-24
2.62324e-24
2.64149e-24
2.74006e-24
3.07277e-24
3.12666e-24
3.27728e-24
3.49225e-24
2.5484e-24
2.62016e-24
3.52769e-24
3.90221e-24
3.29584e-24
3.0076e-24
3.02043e-24
2.90046e-24
2.95045e-24
2.87088e-24
3.24904e-24
3.50113e-24
3.41379e-24
3.58645e-24
3.55901e-24
3.83333e-24
3.69462e-24
3.29328e-24
3.58722e-24
3.22467e-24
2.70351e-24
2.06105e-24
1.74714e-24
2.22115e-24
2.11886e-24
2.25218e-24
2.36955e-24
2.70519e-24
3.27825e-24
3.162e-24
2.65294e-24
2.09764e-24
2.35102e-24
2.41281e-24
1.992e-24
2.21996e-24
2.5881e-24
2.24258e-24
1.98954e-24
2.16696e-24
2.74709e-24
3.08928e-24
2.91071e-24
2.86325e-24
2.83295e-24
3.01633e-24
2.78348e-24
2.16769e-24
2.38851e-24
3.08384e-24
3.02407e-24
2.74635e-24
2.7133e-24
2.78206e-24
2.80662e-24
2.87431e-24
3.15449e-24
3.20486e-24
3.35854e-24
3.55228e-24
2.64109e-24
2.64616e-24
3.58749e-24
3.90961e-24
3.30557e-24
3.04996e-24
3.0999e-24
3.01108e-24
3.10831e-24
3.06979e-24
3.40974e-24
3.59617e-24
3.46792e-24
3.5811e-24
3.53923e-24
3.84765e-24
3.80477e-24
3.47713e-24
3.70926e-24
3.26726e-24
2.73918e-24
2.16108e-24
1.89071e-24
2.29568e-24
2.1146e-24
2.22221e-24
2.37601e-24
2.70887e-24
3.23348e-24
3.12704e-24
2.69401e-24
2.1887e-24
2.39268e-24
2.38673e-24
1.97655e-24
2.23529e-24
2.62082e-24
2.31062e-24
2.0491e-24
2.19504e-24
2.74165e-24
3.08051e-24
2.91879e-24
2.86811e-24
2.85039e-24
3.05359e-24
2.86389e-24
2.28223e-24
2.45644e-24
3.08992e-24
3.04506e-24
2.81346e-24
2.80231e-24
2.87837e-24
2.91099e-24
2.94928e-24
3.17994e-24
3.23327e-24
3.4028e-24
3.5983e-24
2.74936e-24
2.6554e-24
3.5882e-24
3.85093e-24
3.25118e-24
3.02541e-24
3.10327e-24
3.03737e-24
3.17916e-24
3.18254e-24
3.48681e-24
3.61077e-24
3.44563e-24
3.50438e-24
3.45182e-24
3.79466e-24
3.84021e-24
3.57586e-24
3.74463e-24
3.22928e-24
2.69752e-24
2.18056e-24
1.95398e-24
2.30328e-24
2.05992e-24
2.14552e-24
2.33123e-24
2.66375e-24
3.14819e-24
3.05641e-24
2.70209e-24
2.25111e-24
2.40811e-24
2.33229e-24
1.92729e-24
2.20867e-24
2.59728e-24
2.30668e-24
2.03108e-24
2.1477e-24
2.66224e-24
2.99741e-24
2.85527e-24
2.80437e-24
2.79674e-24
3.01837e-24
2.8769e-24
2.33628e-24
2.46836e-24
3.04058e-24
3.0054e-24
2.81101e-24
2.81693e-24
2.90051e-24
2.94342e-24
2.95676e-24
3.14326e-24
3.20614e-24
3.40429e-24
3.62156e-24
2.84945e-24
2.64355e-24
3.53237e-24
3.72669e-24
3.13295e-24
2.93469e-24
3.03021e-24
2.97723e-24
3.15821e-24
3.2016e-24
3.47209e-24
3.53916e-24
3.34485e-24
3.35744e-24
3.29853e-24
3.67382e-24
3.7985e-24
3.58743e-24
3.69427e-24
3.1142e-24
2.5817e-24
2.12069e-24
1.93663e-24
2.24449e-24
1.95726e-24
2.02508e-24
2.23702e-24
2.57098e-24
3.02493e-24
2.95383e-24
2.67928e-24
2.28414e-24
2.39594e-24
2.24976e-24
1.84588e-24
2.14283e-24
2.52153e-24
2.23617e-24
1.94189e-24
2.03175e-24
2.51563e-24
2.84674e-24
2.72675e-24
2.6782e-24
2.67714e-24
2.91381e-24
2.82343e-24
2.32964e-24
2.42453e-24
2.93634e-24
2.90468e-24
2.73748e-24
2.75468e-24
2.84497e-24
2.89956e-24
2.89399e-24
3.04482e-24
3.1234e-24
3.3558e-24
3.60863e-24
2.93847e-24
2.60971e-24
3.42221e-24
3.54542e-24
2.95948e-24
2.78454e-24
2.88745e-24
2.83745e-24
3.05008e-24
3.12874e-24
3.36721e-24
3.38519e-24
3.17252e-24
3.14996e-24
3.08941e-24
3.49367e-24
3.68655e-24
3.51937e-24
3.56837e-24
2.9344e-24
2.40409e-24
1.99194e-24
1.84761e-24
2.12799e-24
1.81576e-24
1.87002e-24
2.10125e-24
2.43741e-24
2.87122e-24
2.827e-24
2.63104e-24
2.29055e-24
2.35862e-24
2.14381e-24
1.73906e-24
2.04617e-24
2.40469e-24
2.11317e-24
1.79758e-24
1.86389e-24
2.31841e-24
2.64469e-24
2.54854e-24
2.5038e-24
2.50482e-24
2.75166e-24
2.71299e-24
2.27044e-24
2.3331e-24
2.78564e-24
2.7509e-24
2.60017e-24
2.62184e-24
2.71631e-24
2.78323e-24
2.76598e-24
2.88996e-24
2.98662e-24
3.25575e-24
3.55809e-24
2.99805e-24
2.56536e-24
3.26589e-24
3.3167e-24
2.74418e-24
2.58936e-24
2.68925e-24
2.63234e-24
2.86788e-24
2.97538e-24
3.18355e-24
3.16207e-24
2.94427e-24
2.89944e-24
2.84246e-24
3.27083e-24
3.51961e-24
3.38762e-24
3.38515e-24
2.71006e-24
2.18475e-24
1.81297e-24
1.70405e-24
1.96959e-24
1.65051e-24
1.69471e-24
1.93701e-24
2.27517e-24
2.69862e-24
2.6868e-24
2.56589e-24
2.27594e-24
2.30219e-24
2.02295e-24
1.61768e-24
1.93177e-24
2.26328e-24
1.95836e-24
1.62173e-24
1.66845e-24
2.09474e-24
2.41463e-24
2.34264e-24
2.3018e-24
2.29962e-24
2.5508e-24
2.5627e-24
2.17432e-24
2.20938e-24
2.60394e-24
2.55955e-24
2.4142e-24
2.43285e-24
2.52761e-24
2.60598e-24
2.58359e-24
2.68867e-24
2.80454e-24
3.10943e-24
3.46609e-24
3.01868e-24
2.5059e-24
3.07984e-24
3.0586e-24
2.50365e-24
2.36716e-24
2.45575e-24
2.38305e-24
2.63193e-24
2.76071e-24
2.94076e-24
2.89101e-24
2.68265e-24
2.62973e-24
2.58149e-24
3.02774e-24
3.3192e-24
3.21418e-24
3.16851e-24
2.46642e-24
1.94892e-24
1.60822e-24
1.52885e-24
1.79025e-24
1.48044e-24
1.51703e-24
1.76129e-24
2.09971e-24
2.52146e-24
2.54607e-24
2.49396e-24
2.24843e-24
2.23506e-24
1.8984e-24
1.49527e-24
1.81524e-24
2.11672e-24
1.79585e-24
1.44173e-24
1.47392e-24
1.87272e-24
2.18375e-24
2.13461e-24
2.09646e-24
2.08551e-24
2.33483e-24
2.39487e-24
2.06225e-24
2.07395e-24
2.4118e-24
2.35119e-24
2.20062e-24
2.20855e-24
2.29835e-24
2.38539e-24
2.36333e-24
2.45731e-24
2.59027e-24
2.92274e-24
3.33469e-24
3.00688e-24
2.4433e-24
2.87544e-24
2.79027e-24
2.25963e-24
2.13899e-24
2.20963e-24
2.11456e-24
2.36747e-24
2.50932e-24
2.66408e-24
2.59843e-24
2.41473e-24
2.36784e-24
2.33283e-24
2.78972e-24
3.10986e-24
3.02411e-24
2.94449e-24
2.23032e-24
1.7237e-24
1.40446e-24
1.34767e-24
1.61288e-24
1.32579e-24
1.35604e-24
1.59244e-24
1.92798e-24
2.35476e-24
2.41778e-24
2.42593e-24
2.21695e-24
2.16707e-24
1.78231e-24
1.38587e-24
1.71228e-24
1.98418e-24
1.64938e-24
1.2846e-24
1.30833e-24
1.68018e-24
1.97881e-24
1.94961e-24
1.91211e-24
1.88735e-24
2.12905e-24
2.23372e-24
1.95722e-24
1.94939e-24
2.23185e-24
2.14892e-24
1.98314e-24
1.97304e-24
2.05192e-24
2.14377e-24
2.12624e-24
2.21418e-24
2.35921e-24
2.71127e-24
3.17652e-24
2.95432e-24
2.38505e-24
2.67211e-24
2.52953e-24
2.03131e-24
1.92693e-24
1.97505e-24
1.85263e-24
2.10086e-24
2.24792e-24
2.38114e-24
2.31268e-24
2.16819e-24
2.14013e-24
2.12179e-24
2.58127e-24
2.91587e-24
2.84166e-24
2.73753e-24
2.0264e-24
1.53412e-24
1.22711e-24
1.18493e-24
1.45906e-24
1.2051e-24
1.2291e-24
1.44755e-24
1.77593e-24
2.2121e-24
2.31334e-24
2.37126e-24
2.18997e-24
2.10772e-24
1.68603e-24
1.30169e-24
1.63595e-24
1.88131e-24
1.5385e-24
1.17259e-24
1.19479e-24
1.54017e-24
1.82205e-24
1.80857e-24
1.76935e-24
1.72728e-24
1.95681e-24
2.10192e-24
1.88053e-24
1.85654e-24
2.08533e-24
1.97464e-24
1.78479e-24
1.75033e-24
1.81286e-24
1.90481e-24
1.8941e-24
1.9799e-24
2.13199e-24
2.49196e-24
2.99983e-24
2.87743e-24
2.32806e-24
2.48567e-24
2.2976e-24
1.83723e-24
1.7492e-24
1.77338e-24
1.62116e-24
1.85668e-24
2.00157e-24
2.11813e-24
2.06001e-24
1.96727e-24
1.96858e-24
1.96903e-24
2.42274e-24
2.75749e-24
2.68672e-24
2.56688e-24
1.87368e-24
1.3996e-24
1.09634e-24
1.06034e-24
1.34588e-24
1.13234e-24
1.14917e-24
1.34002e-24
1.65592e-24
2.10381e-24
2.24078e-24
2.33651e-24
2.17407e-24
2.06446e-24
1.61823e-24
1.25123e-24
1.59419e-24
1.8176e-24
1.4754e-24
1.11971e-24
1.14775e-24
1.46713e-24
1.72769e-24
1.72496e-24
1.68198e-24
1.62123e-24
1.83598e-24
2.01711e-24
1.84833e-24
1.81096e-24
1.98823e-24
1.84562e-24
1.62465e-24
1.56116e-24
1.6029e-24
1.69068e-24
1.68858e-24
1.77512e-24
1.92717e-24
2.28226e-24
2.82324e-24
2.78873e-24
2.28915e-24
2.3255e-24
2.10647e-24
1.69247e-24
1.6212e-24
1.62085e-24
1.43827e-24
1.65445e-24
1.79084e-24
1.89632e-24
1.86058e-24
1.8293e-24
1.86754e-24
1.88762e-24
2.32727e-24
2.64787e-24
2.57195e-24
2.44405e-24
1.78275e-24
1.33112e-24
1.02415e-24
9.86066e-25
1.28325e-24
1.1146e-24
1.12285e-24
1.27728e-24
1.57531e-24
2.03505e-24
2.20345e-24
2.32451e-24
2.1723e-24
2.04157e-24
1.58323e-24
1.23753e-24
1.58848e-24
1.79456e-24
1.463e-24
1.12959e-24
1.17067e-24
1.46472e-24
1.69962e-24
1.70274e-24
1.65485e-24
1.57649e-24
1.77612e-24
1.98885e-24
1.86898e-24
1.82022e-24
1.94865e-24
1.77173e-24
1.51491e-24
1.42004e-24
1.43881e-24
1.51957e-24
1.52756e-24
1.6162e-24
1.76232e-24
2.10338e-24
2.66366e-24
2.69506e-24
2.26055e-24
2.20523e-24
1.96668e-24
1.6039e-24
1.55102e-24
1.52748e-24
1.31505e-24
1.50621e-24
1.62889e-24
1.72904e-24
1.72596e-24
1.76213e-24
1.84177e-24
1.88113e-24
2.29868e-24
2.59146e-24
2.50121e-24
2.37132e-24
1.75446e-24
1.32951e-24
1.01289e-24
9.65015e-25
1.27248e-24
1.151e-24
1.14917e-24
1.26008e-24
1.53496e-24
2.00517e-24
2.19941e-24
2.33339e-24
2.18398e-24
2.03882e-24
1.58027e-24
1.25763e-24
1.61343e-24
1.80564e-24
1.49456e-24
1.195e-24
1.25571e-24
1.52529e-24
1.73107e-24
1.73581e-24
1.68316e-24
1.59074e-24
1.77684e-24
2.01696e-24
1.94127e-24
1.88257e-24
1.96544e-24
1.7536e-24
1.45917e-24
1.3337e-24
1.33023e-24
1.40293e-24
1.42265e-24
1.51584e-24
1.65202e-24
1.96842e-24
2.53233e-24
2.62182e-24
2.24621e-24
2.12411e-24
1.883e-24
1.5749e-24
1.53922e-24
1.49439e-24
1.25424e-24
1.41573e-24
1.52006e-24
1.62024e-24
1.65762e-24
1.76343e-24
1.88566e-24
1.94288e-24
2.33128e-24
2.5836e-24
2.46968e-24
2.34182e-24
1.77994e-24
1.38588e-24
1.05512e-24
9.90908e-25
1.30638e-24
1.23271e-24
1.21997e-24
1.28234e-24
1.52952e-24
2.0078e-24
2.22153e-24
2.35697e-24
2.20423e-24
2.05162e-24
1.60329e-24
1.30299e-24
1.65759e-24
1.83751e-24
1.55527e-24
1.29947e-24
1.38527e-24
1.63158e-24
1.80598e-24
1.80926e-24
1.75342e-24
1.6524e-24
1.82813e-24
2.09136e-24
2.05439e-24
1.98707e-24
2.02843e-24
1.78312e-24
1.45224e-24
1.30022e-24
1.27855e-24
1.34487e-24
1.37912e-24
1.47902e-24
1.60202e-24
1.88851e-24
2.44462e-24
2.5707e-24
2.24973e-24
2.08238e-24
1.8501e-24
1.59993e-24
1.58056e-24
1.51568e-24
1.24997e-24
1.37802e-24
1.4601e-24
1.56474e-24
1.6475e-24
1.82127e-24
1.98412e-24
2.05719e-24
2.41091e-24
2.61197e-24
2.46513e-24
2.3413e-24
1.84253e-24
1.48315e-24
1.13539e-24
1.04981e-24
1.37075e-24
1.34471e-24
1.32116e-24
1.33236e-24
1.54865e-24
2.03189e-24
2.25877e-24
2.38556e-24
2.22478e-24
2.07173e-24
1.64218e-24
1.36084e-24
1.70574e-24
1.87253e-24
1.62525e-24
1.42056e-24
1.53522e-24
1.7598e-24
1.90209e-24
1.90216e-24
1.84578e-24
1.74287e-24
1.91201e-24
2.1938e-24
2.18964e-24
2.11515e-24
2.12032e-24
1.845e-24
1.48156e-24
1.31013e-24
1.27777e-24
1.34193e-24
1.39376e-24
1.50286e-24
1.6133e-24
1.868e-24
2.40237e-24
2.55016e-24
2.256e-24
2.07606e-24
1.86331e-24
1.66821e-24
1.66209e-24
1.57886e-24
1.28988e-24
1.38109e-24
1.43746e-24
1.54995e-24
1.68007e-24
1.91617e-24
2.11523e-24
2.20207e-24
2.51765e-24
2.65914e-24
2.47075e-24
2.35108e-24
1.92101e-24
1.59924e-24
1.23321e-24
1.12304e-24
1.44734e-24
1.46828e-24
1.43511e-24
1.39524e-24
1.5788e-24
2.06404e-24
2.29794e-24
2.40753e-24
2.23561e-24
2.08854e-24
1.68453e-24
1.41674e-24
1.74146e-24
1.89236e-24
1.68342e-24
1.53417e-24
1.67941e-24
1.88394e-24
1.99499e-24
1.99146e-24
1.9377e-24
1.83963e-24
2.0057e-24
2.30112e-24
2.32358e-24
2.24399e-24
2.21952e-24
1.9197e-24
1.53006e-24
1.34876e-24
1.31559e-24
1.38369e-24
1.45681e-24
1.57847e-24
1.67802e-24
1.9004e-24
2.40468e-24
2.56588e-24
2.27369e-24
2.09153e-24
1.9086e-24
1.76676e-24
1.76833e-24
1.6665e-24
1.35655e-24
1.40855e-24
1.43645e-24
1.55889e-24
1.73512e-24
2.02494e-24
2.25386e-24
2.35286e-24
2.62941e-24
2.70583e-24
2.46872e-24
2.35188e-24
1.99329e-24
1.71116e-24
1.32686e-24
1.19102e-24
1.51727e-24
1.58429e-24
1.54387e-24
1.45535e-24
1.60619e-24
2.09065e-24
2.32604e-24
2.41163e-24
2.22658e-24
2.09147e-24
1.71796e-24
1.45733e-24
1.75068e-24
1.88145e-24
1.71165e-24
1.61892e-24
1.79435e-24
1.98045e-24
2.0625e-24
2.05609e-24
2.00802e-24
1.92035e-24
2.08569e-24
2.38916e-24
2.43233e-24
2.35044e-24
2.30416e-24
1.98714e-24