/*--------------------------------*- C++ -*----------------------------------*\
| =========                 |                                                 |
| \\      /  F ield         | foam-extend: Open Source CFD                    |
|  \\    /   O peration     | Version:     4.0                                |
|   \\  /    A nd           | Web:         http://www.foam-extend.org         |
|    \\/     M anipulation  |                                                 |
\*---------------------------------------------------------------------------*/
FoamFile
{
    version     2.0;
    format      ascii;
    class       volVectorField;
    location    "3";
    object      U;
}
// * * * * * * * * * * * * * * * * * * * * * * * * * * * * * * * * * * * * * //

dimensions      [0 1 -1 0 0 0 0];

internalField   nonuniform List<vector> 
6960
(
(2.21777e-28 -7.19162e-27 0)
(1.6653e-28 -4.3788e-28 0)
(3.21942e-28 -2.68417e-28 0)
(6.16011e-28 -2.76604e-28 0)
(-1.91348e-29 -5.97184e-28 0)
(-4.6618e-28 -6.38093e-28 0)
(-8.91607e-29 -5.84626e-28 0)
(-5.02287e-29 -4.91778e-28 0)
(-3.90002e-28 -1.83809e-28 0)
(-1.90451e-28 -4.62543e-29 0)
(2.83014e-28 -3.74289e-28 0)
(1.15162e-28 -6.24565e-28 0)
(-1.24702e-29 -5.70926e-28 0)
(4.21023e-29 -5.15338e-28 0)
(-9.86695e-29 -5.35773e-28 0)
(-1.55842e-28 -2.80086e-28 0)
(-2.3152e-28 2.46106e-28 0)
(4.06714e-28 2.89065e-28 0)
(8.3799e-28 -2.28581e-28 0)
(3.03279e-28 -4.48539e-28 0)
(-1.34112e-29 -1.49416e-28 0)
(1.14528e-28 -9.53645e-30 0)
(5.47587e-28 -3.70845e-28 0)
(3.32697e-28 -6.52175e-28 0)
(-4.82056e-28 -4.41216e-28 0)
(-8.81572e-28 -9.0777e-29 0)
(-6.79355e-28 9.54369e-29 0)
(2.6543e-28 7.67304e-29 0)
(6.39921e-28 -8.21042e-29 0)
(2.67973e-28 -1.59982e-28 0)
(-1.52655e-28 -4.4306e-28 0)
(-3.21809e-28 -7.06013e-28 0)
(1.30649e-28 -6.88602e-28 0)
(-9.6382e-30 -5.3125e-28 0)
(-5.18849e-28 -1.28252e-28 0)
(3.03122e-28 9.2843e-29 0)
(4.73536e-28 -1.53907e-28 0)
(-2.4426e-28 -4.27958e-28 0)
(-1.38672e-28 -5.93652e-28 0)
(1.8944e-29 -6.33698e-28 0)
(3.24546e-29 -3.13906e-28 0)
(1.68537e-28 -2.79299e-29 0)
(3.4568e-29 -6.36784e-29 0)
(-4.48976e-28 -7.0307e-29 0)
(-2.46811e-28 2.71881e-30 0)
(3.67912e-28 -5.53422e-29 0)
(7.57147e-29 -1.90323e-28 0)
(-1.73079e-28 -4.6237e-28 0)
(2.28213e-28 -9.07792e-28 0)
(-2.73069e-29 -8.20334e-28 0)
(-3.08223e-28 -7.23693e-29 0)
(-8.52121e-29 3.76736e-28 0)
(3.34177e-29 3.59574e-28 0)
(4.06826e-28 8.49416e-29 0)
(2.68521e-28 -4.49088e-28 0)
(-4.05791e-28 -6.70548e-28 0)
(-3.21033e-28 -5.74895e-28 0)
(-1.21015e-28 -6.16775e-28 0)
(-1.05134e-28 -5.06024e-28 0)
(1.41951e-29 -2.42786e-28 0)
(9.16428e-28 -1.47869e-26 0)
(7.80551e-28 -1.07384e-27 0)
(9.13496e-28 -6.80973e-28 0)
(1.75877e-27 -6.86728e-28 0)
(-3.62592e-30 -1.4559e-27 0)
(-1.3228e-27 -1.57203e-27 0)
(-2.08162e-28 -1.46456e-27 0)
(-1.25306e-28 -1.24771e-27 0)
(-1.14608e-27 -4.94978e-28 0)
(-5.66826e-28 -1.4537e-28 0)
(7.369e-28 -9.09539e-28 0)
(2.91744e-28 -1.49694e-27 0)
(-4.73074e-29 -1.374e-27 0)
(1.68884e-28 -1.22884e-27 0)
(-1.85536e-28 -1.27869e-27 0)
(-5.07858e-28 -6.72691e-28 0)
(-7.17887e-28 5.83141e-28 0)
(1.16463e-27 6.66694e-28 0)
(2.33033e-27 -5.66024e-28 0)
(7.85673e-28 -1.08698e-27 0)
(-1.5229e-28 -3.77249e-28 0)
(2.91194e-28 -4.13236e-29 0)
(1.59192e-27 -8.97481e-28 0)
(9.76098e-28 -1.54427e-27 0)
(-1.36054e-27 -1.03647e-27 0)
(-2.50403e-27 -2.10124e-28 0)
(-1.79166e-27 2.20043e-28 0)
(9.24226e-28 1.63764e-28 0)
(1.82981e-27 -2.19625e-28 0)
(6.4935e-28 -4.04873e-28 0)
(-5.24888e-28 -1.0809e-27 0)
(-9.46809e-28 -1.7024e-27 0)
(2.78798e-28 -1.63955e-27 0)
(-1.31794e-28 -1.2386e-27 0)
(-1.47425e-27 -2.83527e-28 0)
(9.05956e-28 2.18108e-28 0)
(1.32906e-27 -3.78457e-28 0)
(-7.30613e-28 -1.03908e-27 0)
(-3.04923e-28 -1.43426e-27 0)
(2.06462e-28 -1.53078e-27 0)
(1.28672e-28 -7.62774e-28 0)
(5.00404e-28 -7.15633e-29 0)
(1.12741e-28 -1.5562e-28 0)
(-1.30298e-27 -1.75486e-28 0)
(-6.88628e-28 -1.66157e-29 0)
(9.74895e-28 -1.48605e-28 0)
(9.69727e-29 -4.48035e-28 0)
(-4.81882e-28 -1.09729e-27 0)
(7.15128e-28 -2.17304e-27 0)
(-5.3566e-29 -1.97104e-27 0)
(-8.5194e-28 -1.88855e-28 0)
(-2.22329e-28 8.95484e-28 0)
(8.58829e-29 8.70502e-28 0)
(1.17212e-27 2.13624e-28 0)
(8.17771e-28 -1.07856e-27 0)
(-1.14191e-27 -1.63262e-27 0)
(-9.11051e-28 -1.41657e-27 0)
(-3.19957e-28 -1.50609e-27 0)
(-4.17289e-28 -1.20172e-27 0)
(-8.64976e-29 -4.91856e-28 0)
(1.6263e-27 -1.40449e-26 0)
(1.43774e-27 -2.23393e-27 0)
(1.4676e-27 -1.48071e-27 0)
(2.79842e-27 -1.47429e-27 0)
(2.69197e-29 -2.97429e-27 0)
(-2.12315e-27 -3.22286e-27 0)
(-2.82154e-28 -3.0527e-27 0)
(-1.58681e-28 -2.66337e-27 0)
(-1.83601e-27 -1.1827e-27 0)
(-9.23027e-28 -4.34699e-28 0)
(1.08004e-27 -1.85841e-27 0)
(4.191e-28 -2.97734e-27 0)
(-7.63453e-29 -2.74134e-27 0)
(3.3774e-28 -2.44387e-27 0)
(-1.77177e-28 -2.53778e-27 0)
(-8.64762e-28 -1.38839e-27 0)
(-1.20079e-27 1.01705e-27 0)
(1.84653e-27 1.15541e-27 0)
(3.62606e-27 -1.2288e-27 0)
(1.16343e-27 -2.23142e-27 0)
(-3.6203e-28 -8.65972e-28 0)
(4.22264e-28 -2.06302e-28 0)
(2.57165e-27 -1.82676e-27 0)
(1.60186e-27 -3.04123e-27 0)
(-2.13545e-27 -2.06112e-27 0)
(-3.97335e-27 -4.82333e-28 0)
(-2.68481e-27 3.37825e-28 0)
(1.66909e-27 2.12218e-28 0)
(2.91449e-27 -5.64574e-28 0)
(8.79423e-28 -9.4043e-28 0)
(-9.66585e-28 -2.2294e-27 0)
(-1.54955e-27 -3.37699e-27 0)
(3.46363e-28 -3.20332e-27 0)
(-3.10464e-28 -2.4071e-27 0)
(-2.33337e-27 -5.72462e-28 0)
(1.48314e-27 3.45855e-28 0)
(2.06469e-27 -8.55126e-28 0)
(-1.23112e-27 -2.13675e-27 0)
(-3.81278e-28 -2.87101e-27 0)
(5.3157e-28 -3.05425e-27 0)
(2.81406e-28 -1.57705e-27 0)
(8.36745e-28 -2.41216e-28 0)
(1.9441e-28 -4.12432e-28 0)
(-2.11187e-27 -4.55411e-28 0)
(-1.08499e-27 -1.55907e-28 0)
(1.46392e-27 -4.05258e-28 0)
(3.23897e-32 -9.50209e-28 0)
(-7.84672e-28 -2.17262e-27 0)
(1.20245e-27 -4.25247e-27 0)
(-2.87523e-29 -3.90246e-27 0)
(-1.27973e-27 -4.92241e-28 0)
(-3.04645e-28 1.61944e-27 0)
(1.15031e-28 1.61172e-27 0)
(1.84601e-27 3.5061e-28 0)
(1.3259e-27 -2.19075e-27 0)
(-1.82022e-27 -3.31241e-27 0)
(-1.44213e-27 -2.90098e-27 0)
(-4.5451e-28 -3.02105e-27 0)
(-7.62737e-28 -2.34414e-27 0)
(-2.60478e-28 -9.15735e-28 0)
(2.26837e-27 -1.27737e-26 0)
(2.05247e-27 -3.53502e-27 0)
(1.9872e-27 -2.41819e-27 0)
(3.71391e-27 -2.3869e-27 0)
(4.12873e-29 -4.62868e-27 0)
(-2.87365e-27 -4.99234e-27 0)
(-3.3021e-28 -4.77475e-27 0)
(-1.46419e-28 -4.25184e-27 0)
(-2.41929e-27 -2.03831e-27 0)
(-1.23321e-27 -8.51438e-28 0)
(1.32782e-27 -2.91046e-27 0)
(5.0765e-28 -4.54774e-27 0)
(-8.73059e-29 -4.21325e-27 0)
(5.39364e-28 -3.79301e-27 0)
(-1.0091e-28 -3.96183e-27 0)
(-1.20139e-27 -2.25761e-27 0)
(-1.65645e-27 1.34259e-27 0)
(2.43299e-27 1.52216e-27 0)
(4.71292e-27 -2.06617e-27 0)
(1.45133e-27 -3.57803e-27 0)
(-6.04786e-28 -1.54675e-27 0)
(5.18719e-28 -5.49348e-28 0)
(3.47128e-27 -2.9514e-27 0)
(2.20414e-27 -4.74877e-27 0)
(-2.79175e-27 -3.295e-27 0)
(-5.26869e-27 -9.59064e-28 0)
(-3.38374e-27 2.50862e-28 0)
(2.44452e-27 4.53238e-29 0)
(3.87021e-27 -1.15254e-27 0)
(9.73826e-28 -1.71672e-27 0)
(-1.45682e-27 -3.6199e-27 0)
(-2.11199e-27 -5.27641e-27 0)
(3.63129e-28 -4.95474e-27 0)
(-5.05939e-28 -3.74127e-27 0)
(-3.08432e-27 -1.01434e-27 0)
(2.00361e-27 2.95199e-28 0)
(2.65672e-27 -1.54743e-27 0)
(-1.74098e-27 -3.4477e-27 0)
(-3.8771e-28 -4.49948e-27 0)
(9.61637e-28 -4.77821e-27 0)
(4.95685e-28 -2.59295e-27 0)
(1.17432e-27 -6.12835e-28 0)
(2.73333e-28 -8.86536e-28 0)
(-2.86162e-27 -9.46704e-28 0)
(-1.43614e-27 -4.92291e-28 0)
(1.84749e-27 -8.42955e-28 0)
(-1.84803e-28 -1.60004e-27 0)
(-1.09052e-27 -3.37333e-27 0)
(1.65795e-27 -6.49697e-27 0)
(4.68346e-29 -6.04417e-27 0)
(-1.574e-27 -9.88185e-28 0)
(-3.22298e-28 2.19453e-27 0)
(1.19775e-28 2.24284e-27 0)
(2.39789e-27 3.88518e-28 0)
(1.7524e-27 -3.43448e-27 0)
(-2.44208e-27 -5.13606e-27 0)
(-1.90118e-27 -4.52016e-27 0)
(-5.10406e-28 -4.69093e-27 0)
(-1.07889e-27 -3.63469e-27 0)
(-4.60173e-28 -1.40627e-27 0)
(2.84746e-27 -1.27262e-26 0)
(2.62361e-27 -4.88074e-27 0)
(2.47172e-27 -3.43334e-27 0)
(4.49872e-27 -3.37337e-27 0)
(2.49667e-29 -6.29438e-27 0)
(-3.57721e-27 -6.71854e-27 0)
(-3.68375e-28 -6.47127e-27 0)
(-9.48568e-29 -5.89591e-27 0)
(-2.88041e-27 -3.0313e-27 0)
(-1.48054e-27 -1.39546e-27 0)
(1.50388e-27 -3.98736e-27 0)
(5.69923e-28 -6.06711e-27 0)
(-7.57196e-29 -5.66691e-27 0)
(7.61179e-28 -5.19477e-27 0)
(1.61228e-29 -5.48664e-27 0)
(-1.50805e-27 -3.27108e-27 0)
(-2.07414e-27 1.4696e-27 0)
(2.91938e-27 1.67131e-27 0)
(5.59898e-27 -3.0775e-27 0)
(1.66232e-27 -5.09065e-27 0)
(-8.57519e-28 -2.44826e-27 0)
(5.90834e-28 -1.12551e-27 0)
(4.28708e-27 -4.25807e-27 0)
(2.77758e-27 -6.61476e-27 0)
(-3.3304e-27 -4.74179e-27 0)
(-6.38777e-27 -1.71659e-27 0)
(-3.91727e-27 -1.48689e-28 0)
(3.21069e-27 -4.38433e-28 0)
(4.69047e-27 -2.05864e-27 0)
(9.57387e-28 -2.78619e-27 0)
(-1.97146e-27 -5.23186e-27 0)
(-2.62211e-27 -7.31419e-27 0)
(3.49006e-28 -6.80829e-27 0)
(-6.95647e-28 -5.20095e-27 0)
(-3.72909e-27 -1.6582e-27 0)
(2.44971e-27 -3.26141e-29 0)
(3.10376e-27 -2.50528e-27 0)
(-2.24869e-27 -4.94433e-27 0)
(-3.41451e-28 -6.23783e-27 0)
(1.46122e-27 -6.62167e-27 0)
(7.62381e-28 -3.81402e-27 0)
(1.50605e-27 -1.26796e-27 0)
(3.45941e-28 -1.6623e-27 0)
(-3.54326e-27 -1.7203e-27 0)
(-1.74272e-27 -1.09335e-27 0)
(2.14267e-27 -1.51088e-27 0)
(-4.25094e-28 -2.4082e-27 0)
(-1.39648e-27 -4.63199e-27 0)
(2.06322e-27 -8.74329e-27 0)
(1.59937e-28 -8.27539e-27 0)
(-1.74423e-27 -1.72625e-27 0)
(-2.78561e-28 2.47181e-27 0)
(1.04447e-28 2.62335e-27 0)
(2.82471e-27 2.64098e-28 0)
(2.08664e-27 -4.73844e-27 0)
(-3.00529e-27 -6.95852e-27 0)
(-2.28526e-27 -6.14688e-27 0)
(-4.88292e-28 -6.40408e-27 0)
(-1.33001e-27 -4.9911e-27 0)
(-6.49825e-28 -1.99665e-27 0)
(3.3613e-27 -1.29558e-26 0)
(3.14275e-27 -6.25354e-27 0)
(2.92025e-27 -4.52001e-27 0)
(5.15685e-27 -4.4247e-27 0)
(-2.58925e-29 -7.93985e-27 0)
(-4.23452e-27 -8.35068e-27 0)
(-4.07655e-28 -8.08842e-27 0)
(-1.41056e-29 -7.56692e-27 0)
(-3.22073e-27 -4.17077e-27 0)
(-1.65868e-27 -2.08149e-27 0)
(1.631e-27 -5.06679e-27 0)
(6.17245e-28 -7.48243e-27 0)
(-4.25056e-29 -7.05965e-27 0)
(9.89612e-28 -6.63068e-27 0)
(1.51476e-28 -7.11097e-27 0)
(-1.78042e-27 -4.45537e-27 0)
(-2.44892e-27 1.33455e-27 0)
(3.30887e-27 1.53817e-27 0)
(6.30187e-27 -4.29525e-27 0)
(1.80894e-27 -6.7909e-27 0)
(-1.10581e-27 -3.61538e-27 0)
(6.45769e-28 -1.98682e-27 0)
(5.01916e-27 -5.77425e-27 0)
(3.31703e-27 -8.66315e-27 0)
(-3.76021e-27 -6.4536e-27 0)
(-7.33923e-27 -2.82694e-27 0)
(-4.31509e-27 -9.3633e-28 0)
(3.94128e-27 -1.31516e-27 0)
(5.38138e-27 -3.357e-27 0)
(8.57564e-28 -4.21252e-27 0)
(-2.49049e-27 -7.09063e-27 0)
(-3.0762e-27 -9.47643e-27 0)
(3.16869e-28 -8.75229e-27 0)
(-8.66564e-28 -6.80012e-27 0)
(-4.27524e-27 -2.5523e-27 0)
(2.81563e-27 -7.11468e-28 0)
(3.41777e-27 -3.78993e-27 0)
(-2.74279e-27 -6.64888e-27 0)
(-2.58483e-28 -8.07446e-27 0)
(1.99783e-27 -8.57653e-27 0)
(1.06769e-27 -5.27975e-27 0)
(1.82518e-27 -2.28428e-27 0)
(4.10303e-28 -2.82502e-27 0)
(-4.15267e-27 -2.84812e-27 0)
(-2.00592e-27 -2.01437e-27 0)
(2.36754e-27 -2.45826e-27 0)
(-6.92845e-28 -3.40782e-27 0)
(-1.69777e-27 -5.93492e-27 0)
(2.40886e-27 -1.09386e-26 0)
(2.96255e-28 -1.05709e-26 0)
(-1.80911e-27 -2.76119e-27 0)
(-1.82379e-28 2.35227e-27 0)
(7.49563e-29 2.65922e-27 0)
(3.13777e-27 -7.9536e-29 0)
(2.33372e-27 -6.10411e-27 0)
(-3.50737e-27 -8.74501e-27 0)
(-2.5974e-27 -7.72603e-27 0)
(-3.99681e-28 -8.10716e-27 0)
(-1.50629e-27 -6.42371e-27 0)
(-8.17351e-28 -2.74689e-27 0)
(3.80187e-27 -1.31322e-26 0)
(3.59874e-27 -7.62383e-27 0)
(3.33329e-27 -5.6729e-27 0)
(5.69951e-27 -5.55517e-27 0)
(-1.08519e-28 -9.57023e-27 0)
(-4.84542e-27 -9.87254e-27 0)
(-4.54736e-28 -9.60807e-27 0)
(8.53534e-29 -9.26252e-27 0)
(-3.45188e-27 -5.47442e-27 0)
(-1.76984e-27 -2.92817e-27 0)
(1.72766e-27 -6.14179e-27 0)
(6.58222e-28 -8.76833e-27 0)
(8.22569e-30 -8.37162e-27 0)
(1.21189e-27 -8.09364e-27 0)
(2.8885e-28 -8.83901e-27 0)
(-2.01551e-27 -5.83731e-27 0)
(-2.7787e-27 8.82178e-28 0)
(3.60857e-27 1.06481e-27 0)
(6.84311e-27 -5.75175e-27 0)
(1.90368e-27 -8.70268e-27 0)
(-1.34015e-27 -5.08803e-27 0)
(6.8747e-28 -3.17495e-27 0)
(5.66873e-27 -7.52816e-27 0)
(3.81789e-27 -1.09229e-26 0)
(-4.09383e-27 -8.47721e-27 0)
(-8.13829e-27 -4.34683e-27 0)
(-4.60586e-27 -2.16318e-27 0)
(4.6207e-27 -2.6331e-27 0)
(5.95728e-27 -5.10309e-27 0)
(7.00757e-28 -6.04185e-27 0)
(-3.00003e-27 -9.21091e-27 0)
(-3.47735e-27 -1.1749e-26 0)
(2.74971e-28 -1.07736e-26 0)
(-1.01134e-27 -8.55245e-27 0)
(-4.73224e-27 -3.73426e-27 0)
(3.10407e-27 -1.79153e-27 0)
(3.61762e-27 -5.44843e-27 0)
(-3.21447e-27 -8.57961e-27 0)
(-1.53441e-28 -1.00025e-26 0)
(2.54488e-27 -1.06454e-26 0)
(1.39785e-27 -7.02277e-27 0)
(2.12681e-27 -3.72718e-27 0)
(4.65505e-28 -4.44496e-27 0)
(-4.69023e-27 -4.38401e-27 0)
(-2.2276e-27 -3.29428e-27 0)
(2.53927e-27 -3.7199e-27 0)
(-9.66615e-28 -4.62828e-27 0)
(-1.99158e-27 -7.27791e-27 0)
(2.69123e-27 -1.30477e-26 0)
(4.45001e-28 -1.29177e-26 0)
(-1.78793e-27 -4.13472e-27 0)
(-4.37013e-29 1.75459e-27 0)
(3.70732e-29 2.26608e-27 0)
(3.35435e-27 -7.06049e-28 0)
(2.50633e-27 -7.55279e-27 0)
(-3.94729e-27 -1.04733e-26 0)
(-2.84582e-27 -9.23639e-27 0)
(-2.63531e-28 -9.80779e-27 0)
(-1.61004e-27 -7.9359e-27 0)
(-9.54265e-28 -3.617e-27 0)
(4.17173e-27 -1.32302e-26 0)
(3.98802e-27 -8.98858e-27 0)
(3.7118e-27 -6.89689e-27 0)
(6.14174e-27 -6.78286e-27 0)
(-2.1613e-28 -1.12044e-26 0)
(-5.40985e-27 -1.12979e-26 0)
(-5.13323e-28 -1.10345e-26 0)
(1.93776e-28 -1.09894e-26 0)
(-3.59056e-27 -6.95949e-27 0)
(-1.82152e-27 -3.95145e-27 0)
(1.80723e-27 -7.21541e-27 0)
(6.98575e-28 -9.91691e-27 0)
(7.07847e-29 -9.59636e-27 0)
(1.41695e-27 -9.57963e-27 0)
(4.17827e-28 -1.06674e-26 0)
(-2.21065e-27 -7.43428e-27 0)
(-3.06304e-27 6.53156e-29 0)
(3.82728e-27 2.03878e-28 0)
(7.24489e-27 -7.47211e-27 0)
(1.9589e-27 -1.08395e-26 0)
(-1.55398e-27 -6.89206e-27 0)
(7.17732e-28 -4.72067e-27 0)
(6.23742e-27 -9.53712e-27 0)
(4.2765e-27 -1.34128e-26 0)
(-4.34548e-27 -1.08464e-26 0)
(-8.8038e-27 -6.31175e-27 0)
(-4.8158e-27 -3.85313e-27 0)
(5.24132e-27 -4.41038e-27 0)
(6.43651e-27 -7.31959e-27 0)
(5.10438e-28 -8.29623e-27 0)
(-3.49148e-27 -1.15869e-26 0)
(-3.83269e-27 -1.41004e-26 0)
(2.28846e-28 -1.28476e-26 0)
(-1.12655e-27 -1.04607e-26 0)
(-5.11019e-27 -5.22688e-27 0)
(3.32267e-27 -3.30106e-27 0)
(3.72452e-27 -7.50003e-27 0)
(-3.65784e-27 -1.07381e-26 0)
(-3.89428e-29 -1.20107e-26 0)
(3.08263e-27 -1.28244e-26 0)
(1.7411e-27 -9.06599e-27 0)
(2.40804e-27 -5.63962e-27 0)
(5.11126e-28 -6.56974e-27 0)
(-5.15985e-27 -6.35944e-27 0)
(-2.4103e-27 -4.94697e-27 0)
(2.6733e-27 -5.31281e-27 0)
(-1.23131e-27 -6.0883e-27 0)
(-2.27761e-27 -8.65925e-27 0)
(2.91028e-27 -1.50422e-26 0)
(5.99506e-28 -1.52977e-26 0)
(-1.69704e-27 -5.87366e-27 0)
(1.28729e-28 6.15036e-28 0)
(-3.965e-30 1.36618e-27 0)
(3.49332e-27 -1.6769e-27 0)
(2.61965e-27 -9.11528e-27 0)
(-4.32707e-27 -1.2154e-26 0)
(-3.04266e-27 -1.06737e-26 0)
(-9.928e-29 -1.14826e-26 0)
(-1.65026e-27 -9.51083e-27 0)
(-1.05604e-27 -4.70058e-27 0)
(4.47028e-27 -1.32426e-26 0)
(4.30949e-27 -1.03498e-26 0)
(4.05962e-27 -8.20666e-27 0)
(6.50108e-27 -8.1271e-27 0)
(-3.40695e-28 -1.28712e-26 0)
(-5.92874e-27 -1.26543e-26 0)
(-5.85443e-28 -1.23876e-26 0)
(3.02475e-28 -1.27573e-26 0)
(-3.65504e-27 -8.63284e-27 0)
(-1.82343e-27 -5.16093e-27 0)
(1.87883e-27 -8.29434e-27 0)
(7.41551e-28 -1.09328e-26 0)
(1.39041e-28 -1.07371e-26 0)
(1.59585e-27 -1.10792e-26 0)
(5.32518e-28 -1.2579e-26 0)
(-2.36387e-27 -9.24663e-27 0)
(-3.30271e-27 -1.14386e-27 0)
(3.9743e-27 -1.07595e-27 0)
(7.52837e-27 -9.46365e-27 0)
(1.98659e-27 -1.31972e-26 0)
(-1.74254e-27 -9.03228e-27 0)
(7.37347e-28 -6.63253e-27 0)
(6.72773e-27 -1.18021e-26 0)
(4.69004e-27 -1.61348e-26 0)
(-4.52993e-27 -1.35728e-26 0)
(-9.35602e-27 -8.72802e-27 0)
(-4.9679e-27 -5.99436e-27 0)
(5.80106e-27 -6.62675e-27 0)
(6.83834e-27 -9.99225e-27 0)
(3.06168e-28 -1.09611e-26 0)
(-3.95948e-27 -1.41865e-26 0)
(-4.15056e-27 -1.64779e-26 0)
(1.82259e-28 -1.49331e-26 0)
(-1.2117e-27 -1.25107e-26 0)
(-5.41967e-27 -7.03003e-27 0)
(3.48098e-27 -5.23838e-27 0)
(3.75927e-27 -9.93097e-27 0)
(-4.06942e-27 -1.31005e-26 0)
(7.52404e-29 -1.40732e-26 0)
(3.59766e-27 -1.50976e-26 0)
(2.08791e-27 -1.14115e-26 0)
(2.66756e-27 -8.0369e-27 0)
(5.46847e-28 -9.21397e-27 0)
(-5.56763e-27 -8.7736e-27 0)
(-2.55693e-27 -6.9574e-27 0)
(2.78267e-27 -7.22701e-27 0)
(-1.47676e-27 -7.79189e-27 0)
(-2.55713e-27 -1.00733e-26 0)
(3.06817e-27 -1.68953e-26 0)
(7.56013e-28 -1.76829e-26 0)
(-1.54956e-27 -7.98039e-27 0)
(3.28431e-28 -1.10603e-27 0)
(-4.33413e-29 -9.94998e-29 0)
(3.57255e-27 -3.05162e-27 0)
(2.68784e-27 -1.08328e-26 0)
(-4.6508e-27 -1.38041e-26 0)
(-3.19944e-27 -1.20331e-26 0)
(7.40579e-29 -1.31246e-26 0)
(-1.64313e-27 -1.11736e-26 0)
(-1.13135e-27 -5.97523e-27 0)
(4.70115e-27 -1.32455e-26 0)
(4.56618e-27 -1.16761e-26 0)
(4.38067e-27 -9.59406e-27 0)
(6.79512e-27 -9.61195e-27 0)
(-4.73505e-28 -1.46044e-26 0)
(-6.4039e-27 -1.39774e-26 0)
(-6.72845e-28 -1.36923e-26 0)
(4.03515e-28 -1.45706e-26 0)
(-3.66286e-27 -1.04872e-26 0)
(-1.78511e-27 -6.55306e-27 0)
(1.94857e-27 -9.3849e-27 0)
(7.8862e-28 -1.18288e-26 0)
(2.07271e-28 -1.17992e-26 0)
(1.74164e-27 -1.25745e-26 0)
(6.29967e-28 -1.45377e-26 0)
(-2.47475e-27 -1.12501e-26 0)
(-3.49981e-27 -2.74703e-27 0)
(4.05892e-27 -2.77878e-27 0)
(7.71315e-27 -1.17107e-26 0)
(1.9978e-27 -1.57466e-26 0)
(-1.90236e-27 -1.14848e-26 0)
(7.47148e-28 -8.89001e-27 0)
(7.14308e-27 -1.43013e-26 0)
(5.05662e-27 -1.90705e-26 0)
(-4.66172e-27 -1.6637e-26 0)
(-9.81492e-27 -1.15636e-26 0)
(-5.08119e-27 -8.53436e-27 0)
(6.3012e-27 -9.2196e-27 0)
(7.18071e-27 -1.30647e-26 0)
(1.03812e-28 -1.39813e-26 0)
(-4.40023e-27 -1.69423e-26 0)
(-4.43837e-27 -1.88103e-26 0)
(1.3778e-28 -1.69706e-26 0)
(-1.26916e-27 -1.46656e-26 0)
(-5.67175e-27 -9.11455e-27 0)
(3.58822e-27 -7.56282e-27 0)
(3.74068e-27 -1.26919e-26 0)
(-4.44674e-27 -1.56137e-26 0)
(1.82368e-28 -1.61439e-26 0)
(4.08177e-27 -1.74318e-26 0)
(2.43045e-27 -1.40329e-26 0)
(2.90481e-27 -1.0899e-26 0)
(5.72616e-28 -1.23523e-26 0)
(-5.92059e-27 -1.15864e-26 0)
(-2.67056e-27 -9.27647e-27 0)
(2.87785e-27 -9.42303e-27 0)
(-1.69634e-27 -9.72075e-27 0)
(-2.83128e-27 -1.15089e-26 0)
(3.16832e-27 -1.85771e-26 0)
(9.12007e-28 -2.00335e-26 0)
(-1.35629e-27 -1.04273e-26 0)
(5.5066e-28 -3.4141e-27 0)
(-7.68163e-29 -2.16919e-27 0)
(3.60793e-27 -4.87737e-27 0)
(2.72439e-27 -1.27407e-26 0)
(-4.92362e-27 -1.54406e-26 0)
(-3.32914e-27 -1.33334e-26 0)
(2.39358e-28 -1.47496e-26 0)
(-1.59946e-27 -1.28914e-26 0)
(-1.1765e-27 -7.42069e-27 0)
(4.87371e-27 -1.31808e-26 0)
(4.76474e-27 -1.29838e-26 0)
(4.67922e-27 -1.10651e-26 0)
(7.03976e-27 -1.12392e-26 0)
(-6.06528e-28 -1.6429e-26 0)
(-6.83782e-27 -1.53094e-26 0)
(-7.77223e-28 -1.49755e-26 0)
(4.89377e-28 -1.64223e-26 0)
(-3.62974e-27 -1.2496e-26 0)
(-1.71447e-27 -8.10948e-27 0)
(2.0207e-27 -1.04899e-26 0)
(8.40323e-28 -1.26205e-26 0)
(2.70656e-28 -1.27875e-26 0)
(1.84929e-27 -1.40362e-26 0)
(7.08869e-28 -1.64865e-26 0)
(-2.54517e-27 -1.33933e-26 0)
(-3.65772e-27 -4.71393e-27 0)
(4.09025e-27 -4.87641e-27 0)
(7.81701e-27 -1.41687e-26 0)
(2.00248e-27 -1.84297e-26 0)
(-2.03104e-27 -1.41911e-26 0)
(7.48539e-28 -1.14431e-26 0)
(7.488e-27 -1.69883e-26 0)
(5.3749e-27 -2.21741e-26 0)
(-4.75454e-27 -1.99868e-26 0)
(-1.01988e-26 -1.47437e-26 0)
(-5.17056e-27 -1.13784e-26 0)
(6.74496e-27 -1.20876e-26 0)
(7.47895e-27 -1.64348e-26 0)
(-8.40857e-29 -1.72593e-26 0)
(-4.80988e-27 -1.97571e-26 0)
(-4.70163e-27 -2.10043e-26 0)
(9.68528e-29 -1.88885e-26 0)
(-1.3038e-27 -1.68668e-26 0)
(-5.87798e-27 -1.14172e-26 0)
(3.65201e-27 -1.01962e-26 0)
(3.68492e-27 -1.56911e-26 0)
(-4.78745e-27 -1.81965e-26 0)
(2.78828e-28 -1.81582e-26 0)
(4.53045e-27 -1.97696e-26 0)
(2.76176e-27 -1.68757e-26 0)
(3.11936e-27 -1.41632e-26 0)
(5.88666e-28 -1.59152e-26 0)
(-6.22531e-27 -1.47186e-26 0)
(-2.75422e-27 -1.18191e-26 0)
(2.96655e-27 -1.18313e-26 0)
(-1.88564e-27 -1.18344e-26 0)
(-3.09992e-27 -1.29433e-26 0)
(3.21511e-27 -2.00564e-26 0)
(1.06465e-27 -2.22931e-26 0)
(-1.12721e-27 -1.31583e-26 0)
(7.91461e-28 -6.2789e-27 0)
(-1.0074e-28 -4.84685e-27 0)
(3.61364e-27 -7.17838e-27 0)
(2.74138e-27 -1.48696e-26 0)
(-5.15129e-27 -1.71015e-26 0)
(-3.44275e-27 -1.45873e-26 0)
(3.84873e-28 -1.63217e-26 0)
(-1.53321e-27 -1.4645e-26 0)
(-1.20002e-27 -9.09764e-27 0)
(4.98405e-27 -1.30873e-26 0)
(4.90778e-27 -1.42393e-26 0)
(4.96091e-27 -1.26083e-26 0)
(7.24954e-27 -1.30146e-26 0)
(-7.33142e-28 -1.83655e-26 0)
(-7.23353e-27 -1.66826e-26 0)
(-9.00359e-28 -1.62572e-26 0)
(5.53115e-28 -1.82932e-26 0)
(-3.56918e-27 -1.46125e-26 0)
(-1.6173e-27 -9.79411e-27 0)
(2.09852e-27 -1.16032e-26 0)
(8.968e-28 -1.33217e-26 0)
(3.25705e-28 -1.37027e-26 0)
(1.91565e-27 -1.5422e-26 0)
(7.68577e-28 -1.83489e-26 0)
(-2.5796e-27 -1.55974e-26 0)
(-3.78113e-27 -6.97922e-27 0)
(4.07723e-27 -7.30574e-27 0)
(7.85616e-27 -1.67597e-26 0)
(2.00917e-27 -2.11561e-26 0)
(-2.12726e-27 -1.70617e-26 0)
(7.43647e-28 -1.42095e-26 0)
(7.76805e-27 -1.97899e-26 0)
(5.64404e-27 -2.53702e-26 0)
(-4.82083e-27 -2.35297e-26 0)
(-1.05231e-26 -1.81554e-26 0)
(-5.24675e-27 -1.43944e-26 0)
(7.13636e-27 -1.50875e-26 0)
(7.7453e-27 -1.99608e-26 0)
(-2.47855e-28 -2.06579e-26 0)
(-5.18376e-27 -2.25061e-26 0)
(-4.94353e-27 -2.29546e-26 0)
(5.94518e-29 -2.06e-26 0)
(-1.32267e-27 -1.90375e-26 0)
(-6.0502e-27 -1.38458e-26 0)
(3.67799e-27 -1.30179e-26 0)
(3.60545e-27 -1.88e-26 0)
(-5.08886e-27 -2.0739e-26 0)
(3.63775e-28 -2.00336e-26 0)
(4.94159e-27 -2.2036e-26 0)
(3.0752e-27 -1.98493e-26 0)
(3.31055e-27 -1.77252e-26 0)
(5.95703e-28 -1.97865e-26 0)
(-6.48706e-27 -1.80502e-26 0)
(-2.81075e-27 -1.44695e-26 0)
(3.0535e-27 -1.43522e-26 0)
(-2.04174e-27 -1.40686e-26 0)
(-3.36079e-27 -1.43425e-26 0)
(3.21361e-27 -2.12955e-26 0)
(1.20989e-27 -2.43947e-26 0)
(-8.72917e-28 -1.60848e-26 0)
(1.04675e-27 -9.63007e-27 0)
(-1.12266e-28 -8.09948e-27 0)
(3.60175e-27 -9.95484e-27 0)
(2.7499e-27 -1.72399e-26 0)
(-5.33779e-27 -1.88036e-26 0)
(-3.54831e-27 -1.58035e-26 0)
(5.00085e-28 -1.78491e-26 0)
(-1.45656e-27 -1.64234e-26 0)
(-1.20949e-27 -1.08818e-26 0)
(5.04475e-27 -1.30054e-26 0)
(5.00462e-27 -1.54223e-26 0)
(5.22792e-27 -1.41944e-26 0)
(7.43507e-27 -1.49238e-26 0)
(-8.47313e-28 -2.0421e-26 0)
(-7.59362e-27 -1.81213e-26 0)
(-1.04399e-27 -1.75453e-26 0)
(5.88262e-28 -2.01471e-26 0)
(-3.49227e-27 -1.67696e-26 0)
(-1.49731e-27 -1.15505e-26 0)
(2.18469e-27 -1.27068e-26 0)
(9.58212e-28 -1.39397e-26 0)
(3.70537e-28 -1.45366e-26 0)
(1.93956e-27 -1.66775e-26 0)
(8.08722e-28 -2.00295e-26 0)
(-2.58509e-27 -1.77576e-26 0)
(-3.87587e-27 -9.44422e-27 0)
(4.02866e-27 -9.96451e-27 0)
(7.84547e-27 -1.93729e-26 0)
(2.02483e-27 -2.38056e-26 0)
(-2.19086e-27 -1.99744e-26 0)
(7.3539e-28 -1.7077e-26 0)
(7.98941e-27 -2.26028e-26 0)
(5.86361e-27 -2.85505e-26 0)
(-4.87143e-27 -2.71381e-26 0)
(-1.08004e-26 -2.16487e-26 0)
(-5.31619e-27 -1.74178e-26 0)
(7.47961e-27 -1.80435e-26 0)
(7.98862e-27 -2.34617e-26 0)
(-3.80037e-28 -2.40092e-26 0)
(-5.51633e-27 -2.50444e-26 0)
(-5.16523e-27 -2.45465e-26 0)
(2.40308e-29 -2.20109e-26 0)
(-1.33486e-27 -2.10831e-26 0)
(-6.19981e-27 -1.62817e-26 0)
(3.67008e-27 -1.58733e-26 0)
(3.51316e-27 -2.18539e-26 0)
(-5.34765e-27 -2.31068e-26 0)
(4.38223e-28 -2.16721e-26 0)
(5.31453e-27 -2.41376e-26 0)
(3.36424e-27 -2.28348e-26 0)
(3.47727e-27 -2.14368e-26 0)
(5.95134e-28 -2.38062e-26 0)
(-6.70937e-27 -2.14249e-26 0)
(-2.84283e-27 -1.7083e-26 0)
(3.14061e-27 -1.68608e-26 0)
(-2.16292e-27 -1.63337e-26 0)
(-3.60935e-27 -1.56582e-26 0)
(3.16949e-27 -2.22518e-26 0)
(1.34212e-27 -2.62566e-26 0)
(-6.05188e-28 -1.90911e-26 0)
(1.31105e-27 -1.33568e-26 0)
(-1.09907e-28 -1.18544e-26 0)
(3.58278e-27 -1.31707e-26 0)
(2.76121e-27 -1.98421e-26 0)
(-5.48566e-27 -2.05623e-26 0)
(-3.65344e-27 -1.7e-26 0)
(5.78919e-28 -1.93055e-26 0)
(-1.37547e-27 -1.81414e-26 0)
(-1.20213e-27 -1.27836e-26 0)
(5.05534e-27 -1.28598e-26 0)
(5.05988e-27 -1.65296e-26 0)
(5.48414e-27 -1.58106e-26 0)
(7.6044e-27 -1.69324e-26 0)
(-9.45207e-28 -2.25793e-26 0)
(-7.92026e-27 -1.9633e-26 0)
(-1.20894e-27 -1.88352e-26 0)
(5.89432e-28 -2.19312e-26 0)
(-3.40791e-27 -1.88798e-26 0)
(-1.35662e-27 -1.33035e-26 0)
(2.28136e-27 -1.37679e-26 0)
(1.02493e-27 -1.44702e-26 0)
(4.05035e-28 -1.52703e-26 0)
(1.92205e-27 -1.77359e-26 0)
(8.29139e-28 -2.14208e-26 0)
(-2.5709e-27 -1.97492e-26 0)
(-3.94862e-27 -1.19776e-26 0)
(3.95325e-27 -1.27167e-26 0)
(7.79862e-27 -2.18687e-26 0)
(2.05495e-27 -2.62338e-26 0)
(-2.22277e-27 -2.27788e-26 0)
(7.27148e-28 -1.99037e-26 0)
(8.15885e-27 -2.52969e-26 0)
(6.03334e-27 -3.15784e-26 0)
(-4.91534e-27 -3.06532e-26 0)
(-1.10391e-26 -2.50436e-26 0)
(-5.38155e-27 -2.02584e-26 0)
(7.77887e-27 -2.07573e-26 0)
(8.2147e-27 -2.67315e-26 0)
(-4.75399e-28 -2.71198e-26 0)
(-5.80119e-27 -2.72181e-26 0)
(-5.36649e-27 -2.56639e-26 0)
(-1.27687e-29 -2.30266e-26 0)
(-1.35061e-27 -2.28968e-26 0)
(-6.33741e-27 -1.85823e-26 0)
(3.63113e-27 -1.85837e-26 0)
(3.41677e-27 -2.46636e-26 0)
(-5.56037e-27 -2.51488e-26 0)
(5.04464e-28 -2.29646e-26 0)
(5.64911e-27 -2.59657e-26 0)
(3.6226e-27 -2.56902e-26 0)
(3.61833e-27 -2.51148e-26 0)
(5.88975e-28 -2.7776e-26 0)
(-6.89385e-27 -2.46572e-26 0)
(-2.85315e-27 -1.94939e-26 0)
(3.22688e-27 -1.92109e-26 0)
(-2.24855e-27 -1.85189e-26 0)
(-3.83919e-27 -1.6826e-26 0)
(3.08905e-27 -2.28758e-26 0)
(1.45443e-27 -2.77884e-26 0)
(-3.37556e-28 -2.20374e-26 0)
(1.57714e-27 -1.73126e-26 0)
(-9.35776e-29 -1.59922e-26 0)
(3.56572e-27 -1.67486e-26 0)
(2.78548e-27 -2.26467e-26 0)
(-5.59561e-27 -2.23792e-26 0)
(-3.76053e-27 -1.81586e-26 0)
(6.1927e-28 -2.06324e-26 0)
(-1.30205e-27 -1.97652e-26 0)
(-1.19409e-27 -1.47322e-26 0)
(5.01687e-27 -1.27568e-26 0)
(5.07858e-27 -1.74904e-26 0)
(5.73039e-27 -1.73988e-26 0)
(7.76299e-27 -1.90064e-26 0)
(-1.0237e-27 -2.48132e-26 0)
(-8.21487e-27 -2.12017e-26 0)
(-1.39511e-27 -2.01018e-26 0)
(5.52708e-28 -2.35797e-26 0)
(-3.32298e-27 -2.08418e-26 0)
(-1.19645e-27 -1.49613e-26 0)
(2.38997e-27 -1.47383e-26 0)
(1.09756e-27 -1.48954e-26 0)
(4.30967e-28 -1.58714e-26 0)
(1.86649e-27 -1.85224e-26 0)
(8.29999e-28 -2.24103e-26 0)
(-2.54768e-27 -2.14352e-26 0)
(-4.00657e-27 -1.44248e-26 0)
(3.85957e-27 -1.54005e-26 0)
(7.72833e-27 -2.409e-26 0)
(2.10355e-27 -2.82796e-26 0)
(-2.22481e-27 -2.53044e-26 0)
(7.22592e-28 -2.25233e-26 0)
(8.28295e-27 -2.77233e-26 0)
(6.15325e-27 -3.43004e-26 0)
(-4.95944e-27 -3.38916e-26 0)
(-1.12445e-26 -2.81398e-26 0)
(-5.44207e-27 -2.27154e-26 0)
(8.03785e-27 -2.3022e-26 0)
(8.42668e-27 -2.9555e-26 0)
(-5.30459e-28 -2.97867e-26 0)
(-6.03206e-27 -2.88705e-26 0)
(-5.54648e-27 -2.62059e-26 0)
(-5.5869e-29 -2.35582e-26 0)
(-1.38068e-27 -2.4367e-26 0)
(-6.47206e-27 -2.05924e-26 0)
(3.56332e-27 -2.09527e-26 0)
(3.32319e-27 -2.70349e-26 0)
(-5.72357e-27 -2.67087e-26 0)
(5.65108e-28 -2.3797e-26 0)
(5.94527e-27 -2.74061e-26 0)
(3.84454e-27 -2.82559e-26 0)
(3.73281e-27 -2.85552e-26 0)
(5.80067e-28 -3.14725e-26 0)
(-7.04048e-27 -2.75431e-26 0)
(-2.84453e-27 -2.15268e-26 0)
(3.30868e-27 -2.12432e-26 0)
(-2.29929e-27 -2.04948e-26 0)
(-4.04255e-27 -1.77684e-26 0)
(2.97899e-27 -2.31125e-26 0)
(1.53905e-27 -2.88964e-26 0)
(-8.47844e-29 -2.47671e-26 0)
(1.8357e-27 -2.13173e-26 0)
(-6.49413e-29 -2.03556e-26 0)
(3.55748e-27 -2.05745e-26 0)
(2.83265e-27 -2.55867e-26 0)
(-5.66538e-27 -2.42153e-26 0)
(-3.8705e-27 -1.92563e-26 0)
(6.18939e-28 -2.18071e-26 0)
(-1.2401e-27 -2.12066e-26 0)
(-1.18343e-27 -1.65583e-26 0)
(4.94328e-27 -1.26181e-26 0)
(5.07055e-27 -1.83021e-26 0)
(5.96568e-27 -1.89147e-26 0)
(7.91213e-27 -2.10758e-26 0)
(-1.0809e-27 -2.70707e-26 0)
(-8.4775e-27 -2.27974e-26 0)
(-1.60085e-27 -2.13067e-26 0)
(4.75864e-28 -2.5015e-26 0)
(-3.24251e-27 -2.25463e-26 0)
(-1.01767e-27 -1.6424e-26 0)
(2.51114e-27 -1.55583e-26 0)
(1.17689e-27 -1.51837e-26 0)
(4.5187e-28 -1.62964e-26 0)
(1.7786e-27 -1.89606e-26 0)
(8.12133e-28 -2.28909e-26 0)
(-2.52677e-27 -2.26798e-26 0)
(-4.05702e-27 -1.6622e-26 0)
(3.75592e-27 -1.78418e-26 0)
(7.64647e-27 -2.5874e-26 0)
(2.17367e-27 -2.97804e-26 0)
(-2.19953e-27 -2.73716e-26 0)
(7.25186e-28 -2.47628e-26 0)
(8.36793e-27 -2.97268e-26 0)
(6.22366e-27 -3.65532e-26 0)
(-5.00835e-27 -3.66623e-26 0)
(-1.14182e-26 -3.07317e-26 0)
(-5.4944e-27 -2.45936e-26 0)
(8.25993e-27 -2.46442e-26 0)
(8.62551e-27 -3.17226e-26 0)
(-5.43472e-28 -3.18152e-26 0)
(-6.2035e-27 -2.98629e-26 0)
(-5.70473e-27 -2.60889e-26 0)
(-1.11392e-28 -2.35374e-26 0)
(-1.43543e-27 -2.53866e-26 0)
(-6.61074e-27 -2.21539e-26 0)
(3.46875e-27 -2.27879e-26 0)
(3.23764e-27 -2.87771e-26 0)
(-5.83427e-27 -2.76443e-26 0)
(6.22589e-28 -2.40661e-26 0)
(6.20289e-27 -2.83457e-26 0)
(4.02534e-27 -3.03719e-26 0)
(3.8204e-27 -3.15437e-26 0)
(5.71994e-28 -3.46671e-26 0)
(-7.14804e-27 -2.98793e-26 0)
(-2.82019e-27 -2.30097e-26 0)
(3.38017e-27 -2.27983e-26 0)
(-2.31719e-27 -2.21216e-26 0)
(-4.21138e-27 -1.83971e-26 0)
(2.84635e-27 -2.29074e-26 0)
(1.58808e-27 -2.9488e-26 0)
(1.37607e-28 -2.71202e-26 0)
(2.07546e-27 -2.51724e-26 0)
(-2.75849e-29 -2.47523e-26 0)
(3.5636e-27 -2.44927e-26 0)
(2.91191e-27 -2.85603e-26 0)
(-5.69217e-27 -2.60258e-26 0)
(-3.98211e-27 -2.02536e-26 0)
(5.81596e-28 -2.27318e-26 0)
(-1.19443e-27 -2.23496e-26 0)
(-1.17472e-27 -1.82602e-26 0)
(4.82559e-27 -1.244e-26 0)
(5.03666e-27 -1.89012e-26 0)
(6.19049e-27 -2.03073e-26 0)
(8.05271e-27 -2.30773e-26 0)
(-1.11664e-27 -2.92828e-26 0)
(-8.70775e-27 -2.43665e-26 0)
(-1.82264e-27 -2.23994e-26 0)
(3.58954e-28 -2.61597e-26 0)
(-3.17005e-27 -2.38873e-26 0)
(-8.21445e-28 -1.75907e-26 0)
(2.64447e-27 -1.61619e-26 0)
(1.26384e-27 -1.52938e-26 0)
(4.72866e-28 -1.64961e-26 0)
(1.66632e-27 -1.89799e-26 0)
(7.77137e-28 -2.27737e-26 0)
(-2.51939e-27 -2.33637e-26 0)
(-4.10697e-27 -1.84118e-26 0)
(3.65036e-27 -1.98716e-26 0)
(7.56423e-27 -2.70682e-26 0)
(2.26751e-27 -3.05871e-26 0)
(-2.15005e-27 -2.8816e-26 0)
(7.37868e-28 -2.64592e-26 0)
(8.41945e-27 -3.11613e-26 0)
(6.24543e-27 -3.81824e-26 0)
(-5.06456e-27 -3.87809e-26 0)
(-1.15592e-26 -3.26325e-26 0)
(-5.53345e-27 -2.5726e-26 0)
(8.44808e-27 -2.54593e-26 0)
(8.81066e-27 -3.30554e-26 0)
(-5.14585e-28 -3.30375e-26 0)
(-6.31164e-27 -3.00879e-26 0)
(-5.84166e-27 -2.52654e-26 0)
(-1.86391e-28 -2.29193e-26 0)
(-1.52373e-27 -2.5869e-26 0)
(-6.75809e-27 -2.31257e-26 0)
(3.34981e-27 -2.39143e-26 0)
(3.16374e-27 -2.97268e-26 0)