/*--------------------------------*- C++ -*----------------------------------*\
| =========                 |                                                 |
| \\      /  F ield         | foam-extend: Open Source CFD                    |
|  \\    /   O peration     | Version:     4.0                                |
|   \\  /    A nd           | Web:         http://www.foam-extend.org         |
|    \\/     M anipulation  |                                                 |
\*---------------------------------------------------------------------------*/
FoamFile
{
    version     2.0;
    format      ascii;
    class       volScalarField;
    location    "1430";
    object      cMinus;
}
// * * * * * * * * * * * * * * * * * * * * * * * * * * * * * * * * * * * * * //

dimensions      [0 0 0 0 0 0 0];

internalField   nonuniform List<scalar> 
6960
(
1.61971e-19
1.61747e-19
1.61469e-19
1.613e-19
1.61206e-19
1.61157e-19
1.61132e-19
1.6112e-19
1.61115e-19
1.61115e-19
1.61117e-19
1.6112e-19
1.61124e-19
1.61128e-19
1.61133e-19
1.61137e-19
1.61142e-19
1.61146e-19
1.6115e-19
1.61154e-19
1.61157e-19
1.6116e-19
1.61163e-19
1.61166e-19
1.61168e-19
1.6117e-19
1.61171e-19
1.61172e-19
1.61173e-19
1.61174e-19
1.61174e-19
1.61173e-19
1.61172e-19
1.61171e-19
1.6117e-19
1.61168e-19
1.61166e-19
1.61163e-19
1.6116e-19
1.61157e-19
1.61154e-19
1.6115e-19
1.61146e-19
1.61142e-19
1.61137e-19
1.61133e-19
1.61128e-19
1.61124e-19
1.6112e-19
1.61117e-19
1.61115e-19
1.61115e-19
1.6112e-19
1.61132e-19
1.61157e-19
1.61206e-19
1.613e-19
1.61469e-19
1.61747e-19
1.61971e-19
9.56684e-19
9.55862e-19
9.54549e-19
9.53738e-19
9.53285e-19
9.53045e-19
9.52924e-19
9.52869e-19
9.52852e-19
9.52854e-19
9.52869e-19
9.5289e-19
9.52915e-19
9.52941e-19
9.52968e-19
9.52995e-19
9.53022e-19
9.53047e-19
9.53071e-19
9.53093e-19
9.53114e-19
9.53133e-19
9.5315e-19
9.53165e-19
9.53178e-19
9.53189e-19
9.53198e-19
9.53205e-19
9.53209e-19
9.53211e-19
9.53211e-19
9.53209e-19
9.53205e-19
9.53198e-19
9.53189e-19
9.53178e-19
9.53165e-19
9.5315e-19
9.53133e-19
9.53114e-19
9.53093e-19
9.53071e-19
9.53047e-19
9.53022e-19
9.52995e-19
9.52968e-19
9.52941e-19
9.52915e-19
9.5289e-19
9.52869e-19
9.52854e-19
9.52852e-19
9.52869e-19
9.52924e-19
9.53045e-19
9.53285e-19
9.53738e-19
9.54549e-19
9.55862e-19
9.56684e-19
5.45195e-18
5.45039e-18
5.44501e-18
5.44157e-18
5.43961e-18
5.43857e-18
5.43806e-18
5.43784e-18
5.43779e-18
5.43783e-18
5.43794e-18
5.43807e-18
5.43821e-18
5.43837e-18
5.43853e-18
5.43868e-18
5.43884e-18
5.43898e-18
5.43912e-18
5.43925e-18
5.43937e-18
5.43948e-18
5.43958e-18
5.43966e-18
5.43974e-18
5.4398e-18
5.43985e-18
5.43989e-18
5.43991e-18
5.43993e-18
5.43993e-18
5.43991e-18
5.43989e-18
5.43985e-18
5.4398e-18
5.43974e-18
5.43966e-18
5.43958e-18
5.43948e-18
5.43937e-18
5.43925e-18
5.43912e-18
5.43898e-18
5.43884e-18
5.43868e-18
5.43853e-18
5.43837e-18
5.43821e-18
5.43807e-18
5.43794e-18
5.43783e-18
5.43779e-18
5.43784e-18
5.43806e-18
5.43857e-18
5.43961e-18
5.44157e-18
5.44501e-18
5.45039e-18
5.45195e-18
3.18164e-17
3.18262e-17
3.18077e-17
3.17948e-17
3.17873e-17
3.17832e-17
3.17813e-17
3.17806e-17
3.17806e-17
3.1781e-17
3.17817e-17
3.17825e-17
3.17835e-17
3.17844e-17
3.17853e-17
3.17863e-17
3.17872e-17
3.1788e-17
3.17888e-17
3.17896e-17
3.17903e-17
3.17909e-17
3.17915e-17
3.1792e-17
3.17925e-17
3.17928e-17
3.17931e-17
3.17933e-17
3.17935e-17
3.17936e-17
3.17936e-17
3.17935e-17
3.17933e-17
3.17931e-17
3.17928e-17
3.17925e-17
3.1792e-17
3.17915e-17
3.17909e-17
3.17903e-17
3.17896e-17
3.17888e-17
3.1788e-17
3.17872e-17
3.17863e-17
3.17853e-17
3.17844e-17
3.17835e-17
3.17825e-17
3.17817e-17
3.1781e-17
3.17806e-17
3.17806e-17
3.17813e-17
3.17832e-17
3.17873e-17
3.17948e-17
3.18077e-17
3.18262e-17
3.18164e-17
1.9184e-16
1.92016e-16
1.91983e-16
1.9195e-16
1.91929e-16
1.91917e-16
1.91912e-16
1.91911e-16
1.91913e-16
1.91917e-16
1.91922e-16
1.91927e-16
1.91933e-16
1.91939e-16
1.91944e-16
1.9195e-16
1.91956e-16
1.91961e-16
1.91966e-16
1.9197e-16
1.91975e-16
1.91979e-16
1.91982e-16
1.91985e-16
1.91988e-16
1.9199e-16
1.91992e-16
1.91993e-16
1.91994e-16
1.91994e-16
1.91994e-16
1.91994e-16
1.91993e-16
1.91992e-16
1.9199e-16
1.91988e-16
1.91985e-16
1.91982e-16
1.91979e-16
1.91975e-16
1.9197e-16
1.91966e-16
1.91961e-16
1.91956e-16
1.9195e-16
1.91944e-16
1.91939e-16
1.91933e-16
1.91927e-16
1.91922e-16
1.91917e-16
1.91913e-16
1.91911e-16
1.91912e-16
1.91917e-16
1.91929e-16
1.9195e-16
1.91983e-16
1.92016e-16
1.9184e-16
1.1946e-15
1.19642e-15
1.19672e-15
1.1968e-15
1.19681e-15
1.19682e-15
1.19683e-15
1.19684e-15
1.19687e-15
1.1969e-15
1.19693e-15
1.19697e-15
1.19701e-15
1.19704e-15
1.19708e-15
1.19712e-15
1.19715e-15
1.19718e-15
1.19722e-15
1.19724e-15
1.19727e-15
1.1973e-15
1.19732e-15
1.19734e-15
1.19735e-15
1.19737e-15
1.19738e-15
1.19739e-15
1.19739e-15
1.19739e-15
1.19739e-15
1.19739e-15
1.19739e-15
1.19738e-15
1.19737e-15
1.19735e-15
1.19734e-15
1.19732e-15
1.1973e-15
1.19727e-15
1.19724e-15
1.19722e-15
1.19718e-15
1.19715e-15
1.19712e-15
1.19708e-15
1.19704e-15
1.19701e-15
1.19697e-15
1.19693e-15
1.1969e-15
1.19687e-15
1.19684e-15
1.19683e-15
1.19682e-15
1.19681e-15
1.1968e-15
1.19672e-15
1.19642e-15
1.1946e-15
7.66152e-15
7.67785e-15
7.683e-15
7.68531e-15
7.68638e-15
7.68692e-15
7.68725e-15
7.68751e-15
7.68775e-15
7.68799e-15
7.68823e-15
7.68848e-15
7.68873e-15
7.68898e-15
7.68922e-15
7.68945e-15
7.68968e-15
7.68989e-15
7.69009e-15
7.69027e-15
7.69045e-15
7.6906e-15
7.69074e-15
7.69086e-15
7.69097e-15
7.69106e-15
7.69113e-15
7.69118e-15
7.69122e-15
7.69124e-15
7.69124e-15
7.69122e-15
7.69118e-15
7.69113e-15
7.69106e-15
7.69097e-15
7.69086e-15
7.69074e-15
7.6906e-15
7.69045e-15
7.69027e-15
7.69009e-15
7.68989e-15
7.68968e-15
7.68945e-15
7.68922e-15
7.68898e-15
7.68873e-15
7.68848e-15
7.68823e-15
7.68799e-15
7.68775e-15
7.68751e-15
7.68725e-15
7.68692e-15
7.68638e-15
7.68531e-15
7.683e-15
7.67785e-15
7.66152e-15
5.04144e-14
5.05522e-14
5.06072e-14
5.06343e-14
5.06477e-14
5.06546e-14
5.06586e-14
5.06612e-14
5.06633e-14
5.06652e-14
5.06669e-14
5.06687e-14
5.06704e-14
5.0672e-14
5.06737e-14
5.06752e-14
5.06767e-14
5.06781e-14
5.06794e-14
5.06807e-14
5.06818e-14
5.06828e-14
5.06837e-14
5.06845e-14
5.06852e-14
5.06858e-14
5.06863e-14
5.06866e-14
5.06869e-14
5.0687e-14
5.0687e-14
5.06869e-14
5.06866e-14
5.06863e-14
5.06858e-14
5.06852e-14
5.06845e-14
5.06837e-14
5.06828e-14
5.06818e-14
5.06807e-14
5.06794e-14
5.06781e-14
5.06767e-14
5.06752e-14
5.06737e-14
5.0672e-14
5.06704e-14
5.06687e-14
5.06669e-14
5.06652e-14
5.06633e-14
5.06612e-14
5.06586e-14
5.06546e-14
5.06477e-14
5.06343e-14
5.06072e-14
5.05522e-14
5.04144e-14
3.38722e-13
3.39847e-13
3.40357e-13
3.40618e-13
3.4075e-13
3.40819e-13
3.40857e-13
3.40881e-13
3.40898e-13
3.40913e-13
3.40926e-13
3.40938e-13
3.4095e-13
3.40961e-13
3.40972e-13
3.40983e-13
3.40993e-13
3.41002e-13
3.41011e-13
3.4102e-13
3.41027e-13
3.41034e-13
3.4104e-13
3.41046e-13
3.4105e-13
3.41054e-13
3.41057e-13
3.4106e-13
3.41061e-13
3.41062e-13
3.41062e-13
3.41061e-13
3.4106e-13
3.41057e-13
3.41054e-13
3.4105e-13
3.41046e-13
3.4104e-13
3.41034e-13
3.41027e-13
3.4102e-13
3.41011e-13
3.41002e-13
3.40993e-13
3.40983e-13
3.40972e-13
3.40961e-13
3.4095e-13
3.40938e-13
3.40926e-13
3.40913e-13
3.40898e-13
3.40881e-13
3.40857e-13
3.40819e-13
3.4075e-13
3.40618e-13
3.40357e-13
3.39847e-13
3.38722e-13
2.31002e-12
2.31902e-12
2.32342e-12
2.32572e-12
2.32691e-12
2.32752e-12
2.32786e-12
2.32807e-12
2.32821e-12
2.32832e-12
2.32841e-12
2.3285e-12
2.32858e-12
2.32866e-12
2.32874e-12
2.32881e-12
2.32888e-12
2.32894e-12
2.329e-12
2.32906e-12
2.32911e-12
2.32916e-12
2.3292e-12
2.32924e-12
2.32927e-12
2.32929e-12
2.32932e-12
2.32933e-12
2.32934e-12
2.32935e-12
2.32935e-12
2.32934e-12
2.32933e-12
2.32932e-12
2.32929e-12
2.32927e-12
2.32924e-12
2.3292e-12
2.32916e-12
2.32911e-12
2.32906e-12
2.329e-12
2.32894e-12
2.32888e-12
2.32881e-12
2.32874e-12
2.32866e-12
2.32858e-12
2.3285e-12
2.32841e-12
2.32832e-12
2.32821e-12
2.32807e-12
2.32786e-12
2.32752e-12
2.32691e-12
2.32572e-12
2.32342e-12
2.31902e-12
2.31002e-12
1.58783e-11
1.59488e-11
1.59851e-11
1.60044e-11
1.60143e-11
1.60196e-11
1.60224e-11
1.60241e-11
1.60252e-11
1.6026e-11
1.60267e-11
1.60274e-11
1.60279e-11
1.60285e-11
1.6029e-11
1.60295e-11
1.603e-11
1.60304e-11
1.60308e-11
1.60312e-11
1.60316e-11
1.60319e-11
1.60322e-11
1.60324e-11
1.60326e-11
1.60328e-11
1.6033e-11
1.60331e-11
1.60331e-11
1.60332e-11
1.60332e-11
1.60331e-11
1.60331e-11
1.6033e-11
1.60328e-11
1.60326e-11
1.60324e-11
1.60322e-11
1.60319e-11
1.60316e-11
1.60312e-11
1.60308e-11
1.60304e-11
1.603e-11
1.60295e-11
1.6029e-11
1.60285e-11
1.60279e-11
1.60274e-11
1.60267e-11
1.6026e-11
1.60252e-11
1.60241e-11
1.60224e-11
1.60196e-11
1.60143e-11
1.60044e-11
1.59851e-11
1.59488e-11
1.58783e-11
1.09094e-10
1.09634e-10
1.09922e-10
1.10077e-10
1.10157e-10
1.10199e-10
1.10222e-10
1.10235e-10
1.10244e-10
1.1025e-10
1.10255e-10
1.1026e-10
1.10264e-10
1.10267e-10
1.10271e-10
1.10274e-10
1.10278e-10
1.10281e-10
1.10283e-10
1.10286e-10
1.10288e-10
1.10291e-10
1.10293e-10
1.10294e-10
1.10296e-10
1.10297e-10
1.10298e-10
1.10299e-10
1.10299e-10
1.10299e-10
1.10299e-10
1.10299e-10
1.10299e-10
1.10298e-10
1.10297e-10
1.10296e-10
1.10294e-10
1.10293e-10
1.10291e-10
1.10288e-10
1.10286e-10
1.10283e-10
1.10281e-10
1.10278e-10
1.10274e-10
1.10271e-10
1.10267e-10
1.10264e-10
1.1026e-10
1.10255e-10
1.1025e-10
1.10244e-10
1.10235e-10
1.10222e-10
1.10199e-10
1.10157e-10
1.10077e-10
1.09922e-10
1.09634e-10
1.09094e-10
7.4209e-10
7.46101e-10
7.48304e-10
7.4949e-10
7.5011e-10
7.50435e-10
7.5061e-10
7.50711e-10
7.50775e-10
7.5082e-10
7.50857e-10
7.50888e-10
7.50916e-10
7.50942e-10
7.50966e-10
7.50989e-10
7.51011e-10
7.51031e-10
7.5105e-10
7.51067e-10
7.51083e-10
7.51097e-10
7.5111e-10
7.51121e-10
7.51131e-10
7.51139e-10
7.51146e-10
7.5115e-10
7.51154e-10
7.51155e-10
7.51155e-10
7.51154e-10
7.5115e-10
7.51146e-10
7.51139e-10
7.51131e-10
7.51121e-10
7.5111e-10
7.51097e-10
7.51083e-10
7.51067e-10
7.5105e-10
7.51031e-10
7.51011e-10
7.50989e-10
7.50966e-10
7.50942e-10
7.50916e-10
7.50888e-10
7.50857e-10
7.5082e-10
7.50775e-10
7.50711e-10
7.5061e-10
7.50435e-10
7.5011e-10
7.4949e-10
7.48304e-10
7.46101e-10
7.4209e-10
4.94396e-09
4.97266e-09
4.98875e-09
4.99744e-09
5.002e-09
5.00439e-09
5.00568e-09
5.00641e-09
5.00687e-09
5.00719e-09
5.00744e-09
5.00765e-09
5.00784e-09
5.00801e-09
5.00817e-09
5.00832e-09
5.00846e-09
5.0086e-09
5.00872e-09
5.00883e-09
5.00893e-09
5.00903e-09
5.00911e-09
5.00918e-09
5.00925e-09
5.0093e-09
5.00934e-09
5.00937e-09
5.00939e-09
5.0094e-09
5.0094e-09
5.00939e-09
5.00937e-09
5.00934e-09
5.0093e-09
5.00925e-09
5.00918e-09
5.00911e-09
5.00903e-09
5.00893e-09
5.00883e-09
5.00872e-09
5.0086e-09
5.00846e-09
5.00832e-09
5.00817e-09
5.00801e-09
5.00784e-09
5.00765e-09
5.00744e-09
5.00719e-09
5.00687e-09
5.00641e-09
5.00568e-09
5.00439e-09
5.002e-09
4.99744e-09
4.98875e-09
4.97266e-09
4.94396e-09
3.18753e-08
3.2071e-08
3.21822e-08
3.22425e-08
3.22742e-08
3.22908e-08
3.22997e-08
3.23048e-08
3.23079e-08
3.23101e-08
3.23117e-08
3.23131e-08
3.23143e-08
3.23154e-08
3.23164e-08
3.23174e-08
3.23183e-08
3.23191e-08
3.23199e-08
3.23206e-08
3.23212e-08
3.23218e-08
3.23223e-08
3.23228e-08
3.23232e-08
3.23235e-08
3.23237e-08
3.23239e-08
3.23241e-08
3.23241e-08
3.23241e-08
3.23241e-08
3.23239e-08
3.23237e-08
3.23235e-08
3.23232e-08
3.23228e-08
3.23223e-08
3.23218e-08
3.23212e-08
3.23206e-08
3.23199e-08
3.23191e-08
3.23183e-08
3.23174e-08
3.23164e-08
3.23154e-08
3.23143e-08
3.23131e-08
3.23117e-08
3.23101e-08
3.23079e-08
3.23048e-08
3.22997e-08
3.22908e-08
3.22742e-08
3.22425e-08
3.21822e-08
3.2071e-08
3.18753e-08
1.96304e-07
1.97559e-07
1.98279e-07
1.98671e-07
1.98877e-07
1.98985e-07
1.99043e-07
1.99076e-07
1.99096e-07
1.99109e-07
1.99119e-07
1.99128e-07
1.99135e-07
1.99142e-07
1.99148e-07
1.99154e-07
1.99159e-07
1.99164e-07
1.99168e-07
1.99173e-07
1.99176e-07
1.9918e-07
1.99183e-07
1.99186e-07
1.99188e-07
1.9919e-07
1.99191e-07
1.99193e-07
1.99193e-07
1.99194e-07
1.99194e-07
1.99193e-07
1.99193e-07
1.99191e-07
1.9919e-07
1.99188e-07
1.99186e-07
1.99183e-07
1.9918e-07
1.99176e-07
1.99173e-07
1.99168e-07
1.99164e-07
1.99159e-07
1.99154e-07
1.99148e-07
1.99142e-07
1.99135e-07
1.99128e-07
1.99119e-07
1.99109e-07
1.99096e-07
1.99076e-07
1.99043e-07
1.98985e-07
1.98877e-07
1.98671e-07
1.98279e-07
1.97559e-07
1.96304e-07
1.13875e-06
1.14621e-06
1.15052e-06
1.15287e-06
1.15411e-06
1.15476e-06
1.1551e-06
1.1553e-06
1.15542e-06
1.1555e-06
1.15556e-06
1.1556e-06
1.15565e-06
1.15568e-06
1.15572e-06
1.15575e-06
1.15578e-06
1.15581e-06
1.15583e-06
1.15585e-06
1.15587e-06
1.15589e-06
1.15591e-06
1.15593e-06
1.15594e-06
1.15595e-06
1.15596e-06
1.15596e-06
1.15597e-06
1.15597e-06
1.15597e-06
1.15597e-06
1.15596e-06
1.15596e-06
1.15595e-06
1.15594e-06
1.15593e-06
1.15591e-06
1.15589e-06
1.15587e-06
1.15585e-06
1.15583e-06
1.15581e-06
1.15578e-06
1.15575e-06
1.15572e-06
1.15568e-06
1.15565e-06
1.1556e-06
1.15556e-06
1.1555e-06
1.15542e-06
1.1553e-06
1.1551e-06
1.15476e-06
1.15411e-06
1.15287e-06
1.15052e-06
1.14621e-06
1.13875e-06
6.13071e-06
6.17123e-06
6.19476e-06
6.20759e-06
6.21436e-06
6.2179e-06
6.2198e-06
6.22086e-06
6.2215e-06
6.22193e-06
6.22224e-06
6.2225e-06
6.22271e-06
6.2229e-06
6.22308e-06
6.22324e-06
6.22339e-06
6.22353e-06
6.22366e-06
6.22378e-06
6.22389e-06
6.22398e-06
6.22407e-06
6.22415e-06
6.22421e-06
6.22427e-06
6.22431e-06
6.22434e-06
6.22436e-06
6.22437e-06
6.22437e-06
6.22436e-06
6.22434e-06
6.22431e-06
6.22427e-06
6.22421e-06
6.22415e-06
6.22407e-06
6.22398e-06
6.22389e-06
6.22378e-06
6.22366e-06
6.22353e-06
6.22339e-06
6.22324e-06
6.22308e-06
6.2229e-06
6.22271e-06
6.2225e-06
6.22224e-06
6.22193e-06
6.2215e-06
6.22086e-06
6.2198e-06
6.2179e-06
6.21436e-06
6.20759e-06
6.19476e-06
6.17123e-06
6.13071e-06
3.01584e-05
3.03561e-05
3.04712e-05
3.0534e-05
3.05671e-05
3.05845e-05
3.05938e-05
3.05989e-05
3.06021e-05
3.06041e-05
3.06056e-05
3.06068e-05
3.06078e-05
3.06087e-05
3.06095e-05
3.06103e-05
3.0611e-05
3.06116e-05
3.06122e-05
3.06127e-05
3.06132e-05
3.06137e-05
3.06141e-05
3.06144e-05
3.06147e-05
3.0615e-05
3.06152e-05
3.06153e-05
3.06154e-05
3.06155e-05
3.06155e-05
3.06154e-05
3.06153e-05
3.06152e-05
3.0615e-05
3.06147e-05
3.06144e-05
3.06141e-05
3.06137e-05
3.06132e-05
3.06127e-05
3.06122e-05
3.06116e-05
3.0611e-05
3.06103e-05
3.06095e-05
3.06087e-05
3.06078e-05
3.06068e-05
3.06056e-05
3.06041e-05
3.06021e-05
3.05989e-05
3.05938e-05
3.05845e-05
3.05671e-05
3.0534e-05
3.04712e-05
3.03561e-05
3.01584e-05
0.000133353
0.000134204
0.000134699
0.00013497
0.000135112
0.000135187
0.000135227
0.000135249
0.000135263
0.000135271
0.000135278
0.000135283
0.000135287
0.000135291
0.000135294
0.000135297
0.0001353
0.000135302
0.000135305
0.000135307
0.000135309
0.000135311
0.000135312
0.000135314
0.000135315
0.000135316
0.000135317
0.000135317
0.000135318
0.000135318
0.000135318
0.000135318
0.000135317
0.000135317
0.000135316
0.000135315
0.000135314
0.000135312
0.000135311
0.000135309
0.000135307
0.000135305
0.000135302
0.0001353
0.000135297
0.000135294
0.000135291
0.000135287
0.000135283
0.000135278
0.000135271
0.000135263
0.000135249
0.000135227
0.000135187
0.000135112
0.00013497
0.000134699
0.000134204
0.000133353
0.000520981
0.000524147
0.000525988
0.000526992
0.000527522
0.0005278
0.000527948
0.000528031
0.00052808
0.000528112
0.000528135
0.000528153
0.000528168
0.000528181
0.000528193
0.000528204
0.000528214
0.000528223
0.000528232
0.00052824
0.000528247
0.000528253
0.000528259
0.000528264
0.000528268
0.000528271
0.000528274
0.000528276
0.000528278
0.000528278
0.000528278
0.000528278
0.000528276
0.000528274
0.000528271
0.000528268
0.000528264
0.000528259
0.000528253
0.000528247
0.00052824
0.000528232
0.000528223
0.000528214
0.000528204
0.000528193
0.000528181
0.000528168
0.000528153
0.000528135
0.000528112
0.00052808
0.000528031
0.000527948
0.0005278
0.000527522
0.000526992
0.000525988
0.000524147
0.000520981
0.00176682
0.00177678
0.00178255
0.0017857
0.00178736
0.00178823
0.0017887
0.00178896
0.00178911
0.00178921
0.00178928
0.00178934
0.00178938
0.00178942
0.00178946
0.00178949
0.00178952
0.00178955
0.00178957
0.0017896
0.00178962
0.00178964
0.00178965
0.00178967
0.00178968
0.00178969
0.0017897
0.00178971
0.00178971
0.00178971
0.00178971
0.00178971
0.00178971
0.0017897
0.00178969
0.00178968
0.00178967
0.00178965
0.00178964
0.00178962
0.0017896
0.00178957
0.00178955
0.00178952
0.00178949
0.00178946
0.00178942
0.00178938
0.00178934
0.00178928
0.00178921
0.00178911
0.00178896
0.0017887
0.00178823
0.00178736
0.0017857
0.00178255
0.00177678
0.00176682
0.00511532
0.00514124
0.00515621
0.00516436
0.00516867
0.00517093
0.00517214
0.00517281
0.00517321
0.00517346
0.00517364
0.00517378
0.00517389
0.00517399
0.00517408
0.00517416
0.00517424
0.00517431
0.00517437
0.00517443
0.00517448
0.00517453
0.00517457
0.0051746
0.00517464
0.00517466
0.00517468
0.0051747
0.00517471
0.00517471
0.00517471
0.00517471
0.0051747
0.00517468
0.00517466
0.00517464
0.0051746
0.00517457
0.00517453
0.00517448
0.00517443
0.00517437
0.00517431
0.00517424
0.00517416
0.00517408
0.00517399
0.00517389
0.00517378
0.00517364
0.00517346
0.00517321
0.00517281
0.00517214
0.00517093
0.00516867
0.00516436
0.00515621
0.00514124
0.00511532
0.0124915
0.0125464
0.012578
0.0125951
0.0126042
0.012609
0.0126115
0.012613
0.0126138
0.0126143
0.0126147
0.012615
0.0126152
0.0126154
0.0126156
0.0126158
0.0126159
0.0126161
0.0126162
0.0126163
0.0126164
0.0126165
0.0126166
0.0126166
0.0126167
0.0126168
0.0126168
0.0126168
0.0126169
0.0126169
0.0126169
0.0126169
0.0126168
0.0126168
0.0126168
0.0126167
0.0126166
0.0126166
0.0126165
0.0126164
0.0126163
0.0126162
0.0126161
0.0126159
0.0126158
0.0126156
0.0126154
0.0126152
0.012615
0.0126147
0.0126143
0.0126138
0.012613
0.0126115
0.012609
0.0126042
0.0125951
0.012578
0.0125464
0.0124915
0.0256735
0.0257684
0.0258225
0.025852
0.0258676
0.0258758
0.0258802
0.0258826
0.025884
0.0258849
0.0258855
0.025886
0.0258864
0.0258867
0.025887
0.0258873
0.0258876
0.0258878
0.025888
0.0258882
0.0258884
0.0258885
0.0258886
0.0258888
0.0258889
0.0258889
0.025889
0.0258891
0.0258891
0.0258891
0.0258891
0.0258891
0.0258891
0.025889
0.0258889
0.0258889
0.0258888
0.0258886
0.0258885
0.0258884
0.0258882
0.025888
0.0258878
0.0258876
0.0258873
0.025887
0.0258867
0.0258864
0.025886
0.0258855
0.0258849
0.025884
0.0258826
0.0258802
0.0258758
0.0258676
0.025852
0.0258225
0.0257684
0.0256735
0.0449498
0.0450861
0.0451635
0.0452056
0.0452279
0.0452396
0.0452459
0.0452493
0.0452514
0.0452527
0.0452536
0.0452542
0.0452548
0.0452552
0.0452556
0.045256
0.0452563
0.0452566
0.0452569
0.0452572
0.0452574
0.0452576
0.0452578
0.045258
0.0452581
0.0452582
0.0452583
0.0452584
0.0452584
0.0452584
0.0452584
0.0452584
0.0452584
0.0452583
0.0452582
0.0452581
0.045258
0.0452578
0.0452576
0.0452574
0.0452572
0.0452569
0.0452566
0.0452563
0.045256
0.0452556
0.0452552
0.0452548
0.0452542
0.0452536
0.0452527
0.0452514
0.0452493
0.0452459
0.0452396
0.0452279
0.0452056
0.0451635
0.0450861
0.0449498
0.0687528
0.0689233
0.0690196
0.0690719
0.0690997
0.0691143
0.0691222
0.0691265
0.069129
0.0691306
0.0691317
0.0691325
0.0691332
0.0691338
0.0691342
0.0691347
0.0691351
0.0691354
0.0691358
0.0691361
0.0691363
0.0691366
0.0691368
0.069137
0.0691371
0.0691373
0.0691374
0.0691375
0.0691375
0.0691375
0.0691375
0.0691375
0.0691375
0.0691374
0.0691373
0.0691371
0.069137
0.0691368
0.0691366
0.0691363
0.0691361
0.0691358
0.0691354
0.0691351
0.0691347
0.0691342
0.0691338
0.0691332
0.0691325
0.0691317
0.0691306
0.069129
0.0691265
0.0691222
0.0691143
0.0690997
0.0690719
0.0690196
0.0689233
0.0687528
0.094818
0.0950137
0.0951236
0.0951834
0.0952151
0.095232
0.095241
0.0952459
0.0952488
0.0952507
0.0952519
0.0952528
0.0952535
0.0952541
0.0952547
0.0952551
0.0952556
0.095256
0.0952563
0.0952566
0.0952569
0.0952572
0.0952574
0.0952576
0.0952578
0.0952579
0.095258
0.0952581
0.0952582
0.0952582
0.0952582
0.0952582
0.0952581
0.095258
0.0952579
0.0952578
0.0952576
0.0952574
0.0952572
0.0952569
0.0952566
0.0952563
0.095256
0.0952556
0.0952551
0.0952547
0.0952541
0.0952535
0.0952528
0.0952519
0.0952507
0.0952488
0.0952459
0.095241
0.095232
0.0952151
0.0951834
0.0951236
0.0950137
0.094818
0.121472
0.121687
0.121807
0.121872
0.121907
0.121926
0.121936
0.121941
0.121944
0.121946
0.121948
0.121949
0.12195
0.12195
0.121951
0.121951
0.121952
0.121952
0.121952
0.121953
0.121953
0.121953
0.121954
0.121954
0.121954
0.121954
0.121954
0.121954
0.121954
0.121954
0.121954
0.121954
0.121954
0.121954
0.121954
0.121954
0.121954
0.121954
0.121953
0.121953
0.121953
0.121952
0.121952
0.121952
0.121951
0.121951
0.12195
0.12195
0.121949
0.121948
0.121946
0.121944
0.121941
0.121936
0.121926
0.121907
0.121872
0.121807
0.121687
0.121472
0.147948
0.148178
0.148307
0.148378
0.148416
0.148436
0.148446
0.148452
0.148456
0.148458
0.148459
0.148461
0.148461
0.148462
0.148463
0.148463
0.148464
0.148464
0.148464
0.148465
0.148465
0.148465
0.148465
0.148466
0.148466
0.148466
0.148466
0.148466
0.148466
0.148466
0.148466
0.148466
0.148466
0.148466
0.148466
0.148466
0.148466
0.148465
0.148465
0.148465
0.148465
0.148464
0.148464
0.148464
0.148463
0.148463
0.148462
0.148461
0.148461
0.148459
0.148458
0.148456
0.148452
0.148446
0.148436
0.148416
0.148378
0.148307
0.148178
0.147948
0.174045
0.17429
0.174428
0.174503
0.174544
0.174565
0.174577
0.174584
0.174587
0.17459
0.174591
0.174592
0.174593
0.174594
0.174594
0.174595
0.174595
0.174596
0.174596
0.174597
0.174597
0.174597
0.174597
0.174598
0.174598
0.174598
0.174598
0.174598
0.174598
0.174598
0.174598
0.174598
0.174598
0.174598
0.174598
0.174598
0.174598
0.174597
0.174597
0.174597
0.174597
0.174596
0.174596
0.174595
0.174595
0.174594
0.174594
0.174593
0.174592
0.174591
0.17459
0.174587
0.174584
0.174577
0.174565
0.174544
0.174503
0.174428
0.17429
0.174045
0.199769
0.200029
0.200175
0.200255
0.200299
0.200322
0.200335
0.200342
0.200346
0.200348
0.20035
0.200351
0.200352
0.200353
0.200353
0.200354
0.200354
0.200355
0.200355
0.200355
0.200356
0.200356
0.200356
0.200356
0.200357
0.200357
0.200357
0.200357
0.200357
0.200357
0.200357
0.200357
0.200357
0.200357
0.200357
0.200357
0.200356
0.200356
0.200356
0.200356
0.200355
0.200355
0.200355
0.200354
0.200354
0.200353
0.200353
0.200352
0.200351
0.20035
0.200348
0.200346
0.200342
0.200335
0.200322
0.200299
0.200255
0.200175
0.200029
0.199769
0.225156
0.225429
0.225584
0.225669
0.225715
0.22574
0.225754
0.225761
0.225766
0.225768
0.22577
0.225771
0.225772
0.225773
0.225774
0.225774
0.225775
0.225775
0.225775
0.225776
0.225776
0.225776
0.225777
0.225777
0.225777
0.225777
0.225777
0.225777
0.225777
0.225777
0.225777
0.225777
0.225777
0.225777
0.225777
0.225777
0.225777
0.225777
0.225776
0.225776
0.225776
0.225775
0.225775
0.225775
0.225774
0.225774
0.225773
0.225772
0.225771
0.22577
0.225768
0.225766
0.225761
0.225754
0.22574
0.225715
0.225669
0.225584
0.225429
0.225156
0.250221
0.250507
0.25067
0.25076
0.250809
0.250836
0.250851
0.250859
0.250863
0.250866
0.250868
0.250869
0.25087
0.250871
0.250872
0.250872
0.250873
0.250873
0.250874
0.250874
0.250874
0.250875
0.250875
0.250875
0.250875
0.250875
0.250875
0.250876
0.250876
0.250876
0.250876
0.250876
0.250876
0.250875
0.250875
0.250875
0.250875
0.250875
0.250875
0.250874
0.250874
0.250874
0.250873
0.250873
0.250872
0.250872
0.250871
0.25087
0.250869
0.250868
0.250866
0.250863
0.250859
0.250851
0.250836
0.250809
0.25076
0.25067
0.250507
0.250221
0.274962
0.27526
0.27543
0.275526
0.275578
0.275606
0.275622
0.275631
0.275636
0.275639
0.275641
0.275642
0.275643
0.275644
0.275645
0.275645
0.275646
0.275646
0.275647
0.275647
0.275647
0.275648
0.275648
0.275648
0.275648
0.275648
0.275648
0.275649
0.275649
0.275649
0.275649
0.275649
0.275649
0.275648
0.275648
0.275648
0.275648
0.275648
0.275648
0.275647
0.275647
0.275647
0.275646
0.275646
0.275645
0.275645
0.275644
0.275643
0.275642
0.275641
0.275639
0.275636
0.275631
0.275622
0.275606
0.275578
0.275526
0.27543
0.27526
0.274962
0.299365
0.299674
0.299852
0.299953
0.300008
0.300038
0.300055
0.300064
0.30007
0.300073
0.300075
0.300077
0.300078
0.300078
0.300079
0.30008
0.30008
0.300081
0.300081
0.300081
0.300082
0.300082
0.300082
0.300082
0.300083
0.300083
0.300083
0.300083
0.300083
0.300083
0.300083
0.300083
0.300083
0.300083
0.300083
0.300083
0.300082
0.300082
0.300082
0.300082
0.300081
0.300081
0.300081
0.30008
0.30008
0.300079
0.300078
0.300078
0.300077
0.300075
0.300073
0.30007
0.300064
0.300055
0.300038
0.300008
0.299953
0.299852
0.299674
0.299365
0.323414
0.323732
0.323918
0.324023
0.324081
0.324114
0.324131
0.324141
0.324147
0.324151
0.324153
0.324155
0.324156
0.324156
0.324157
0.324158
0.324158
0.324159
0.324159
0.324159
0.32416
0.32416
0.32416
0.32416
0.324161
0.324161
0.324161
0.324161
0.324161
0.324161
0.324161
0.324161
0.324161
0.324161
0.324161
0.324161
0.32416
0.32416
0.32416
0.32416
0.324159
0.324159
0.324159
0.324158
0.324158
0.324157
0.324156
0.324156
0.324155
0.324153
0.324151
0.324147
0.324141
0.324131
0.324114
0.324081
0.324023
0.323918
0.323732
0.323414
0.347087
0.347415
0.347608
0.347717
0.347779
0.347813
0.347832
0.347843
0.347849
0.347852
0.347855
0.347856
0.347858
0.347859
0.347859
0.34786
0.34786
0.347861
0.347861
0.347862
0.347862
0.347862
0.347862
0.347863
0.347863
0.347863
0.347863
0.347863
0.347863
0.347863
0.347863
0.347863
0.347863
0.347863
0.347863
0.347863
0.347863
0.347862
0.347862
0.347862
0.347862
0.347861
0.347861
0.34786
0.34786
0.347859
0.347859
0.347858
0.347856
0.347855
0.347852
0.347849
0.347843
0.347832
0.347813
0.347779
0.347717
0.347608
0.347415
0.347087
0.370367
0.370703
0.370902
0.371016
0.371081
0.371117
0.371137
0.371148
0.371155
0.371159
0.371162
0.371163
0.371164
0.371165
0.371166
0.371167
0.371167
0.371168
0.371168
0.371168
0.371169
0.371169
0.371169
0.371169
0.37117
0.37117
0.37117
0.37117
0.37117
0.37117
0.37117
0.37117
0.37117
0.37117
0.37117
0.37117
0.371169
0.371169
0.371169
0.371169
0.371168
0.371168
0.371168
0.371167
0.371167
0.371166
0.371165
0.371164
0.371163
0.371162
0.371159
0.371155
0.371148
0.371137
0.371117
0.371081
0.371016
0.370902
0.370703
0.370367
0.393235
0.393577
0.393782
0.393901
0.393969
0.394007
0.394028
0.39404
0.394047
0.394052
0.394054
0.394056
0.394058
0.394058
0.394059
0.39406
0.39406
0.394061
0.394061
0.394062
0.394062
0.394062
0.394062
0.394063
0.394063
0.394063
0.394063
0.394063
0.394063
0.394063
0.394063
0.394063
0.394063
0.394063
0.394063
0.394063
0.394063
0.394062
0.394062
0.394062
0.394062
0.394061
0.394061
0.39406
0.39406
0.394059
0.394058
0.394058
0.394056
0.394054
0.394052
0.394047
0.39404
0.394028
0.394007
0.393969
0.393901
0.393782
0.393577
0.393235
0.415673
0.416021
0.416232
0.416356
0.416426
0.416466
0.416489
0.416501
0.416509
0.416514
0.416517
0.416518
0.41652
0.416521
0.416521
0.416522
0.416523
0.416523
0.416523
0.416524
0.416524
0.416524
0.416525
0.416525
0.416525
0.416525
0.416525
0.416525
0.416525
0.416525
0.416525
0.416525
0.416525
0.416525
0.416525
0.416525
0.416525
0.416525
0.416524
0.416524
0.416524
0.416523
0.416523
0.416523
0.416522
0.416521
0.416521
0.41652
0.416518
0.416517
0.416514
0.416509
0.416501
0.416489
0.416466
0.416426
0.416356
0.416232
0.416021
0.415673
0.437666
0.438019
0.438235
0.438363
0.438436
0.438478
0.438502
0.438516
0.438524
0.438529
0.438532
0.438534
0.438535
0.438536
0.438537
0.438538
0.438538
0.438539
0.438539
0.43854
0.43854
0.43854
0.43854
0.43854
0.438541
0.438541
0.438541
0.438541
0.438541
0.438541
0.438541
0.438541
0.438541
0.438541
0.438541
0.438541
0.43854
0.43854
0.43854
0.43854
0.43854
0.438539
0.438539
0.438538
0.438538
0.438537
0.438536
0.438535
0.438534
0.438532
0.438529
0.438524
0.438516
0.438502
0.438478
0.438436
0.438363
0.438235
0.438019
0.437666
0.459199
0.459557
0.459778
0.45991
0.459986
0.46003
0.460055
0.46007
0.460078
0.460083
0.460087
0.460089
0.46009
0.460091
0.460092
0.460093
0.460093
0.460094
0.460094
0.460094
0.460095
0.460095
0.460095
0.460095
0.460096
0.460096
0.460096
0.460096
0.460096
0.460096
0.460096
0.460096
0.460096
0.460096
0.460096
0.460096
0.460095
0.460095
0.460095
0.460095
0.460094
0.460094
0.460094
0.460093
0.460093
0.460092
0.460091
0.46009
0.460089
0.460087
0.460083
0.460078
0.46007
0.460055
0.46003
0.459986
0.45991
0.459778
0.459557
0.459199
0.480261
0.480622
0.480848
0.480983
0.481062
0.481108
0.481135
0.48115
0.481159
0.481165
0.481168
0.48117
0.481172
0.481173
0.481174
0.481175
0.481175
0.481176
0.481176
0.481176
0.481177
0.481177
0.481177
0.481177
0.481177
0.481177
0.481178
0.481178
0.481178
0.481178
0.481178
0.481178
0.481178
0.481178
0.481177
0.481177
0.481177
0.481177
0.481177
0.481177
0.481176
0.481176
0.481176
0.481175
0.481175
0.481174
0.481173
0.481172
0.48117
0.481168
0.481165
0.481159
0.48115
0.481135
0.481108
0.481062
0.480983
0.480848
0.480622
0.480261
0.50084
0.501204
0.501433
0.501572
0.501654
0.501702
0.50173
0.501746
0.501756
0.501762
0.501765
0.501768
0.501769
0.501771
0.501772
0.501772
0.501773
0.501773
0.501774
0.501774
0.501774
0.501774
0.501775
0.501775
0.501775
0.501775
0.501775
0.501775
0.501775
0.501775
0.501775
0.501775
0.501775
0.501775
0.501775
0.501775
0.501775
0.501775
0.501774
0.501774
0.501774
0.501774
0.501773
0.501773
0.501772
0.501772
0.501771
0.501769
0.501768
0.501765
0.501762
0.501756
0.501746
0.50173
0.501702
0.501654
0.501572
0.501433
0.501204
0.50084
0.520928
0.521293
0.521525
0.521668
0.521752
0.521802
0.521832
0.521849
0.521859
0.521865
0.521869
0.521872
0.521874
0.521875
0.521876
0.521876
0.521877
0.521877
0.521878
0.521878
0.521878
0.521879
0.521879
0.521879
0.521879
0.521879
0.521879
0.521879
0.52188
0.52188
0.52188
0.52188
0.521879
0.521879
0.521879
0.521879
0.521879
0.521879
0.521879
0.521878
0.521878
0.521878
0.521877
0.521877
0.521876
0.521876
0.521875
0.521874
0.521872
0.521869
0.521865
0.521859
0.521849
0.521832
0.521802
0.521752
0.521668
0.521525
0.521293
0.520928
0.540515
0.540881
0.541116
0.541262
0.54135
0.541401
0.541432
0.54145
0.541461
0.541468
0.541472
0.541475
0.541477
0.541478
0.541479
0.541479
0.54148
0.54148
0.541481
0.541481
0.541481
0.541482
0.541482
0.541482
0.541482
0.541482
0.541482
0.541483
0.541483
0.541483
0.541483