/*--------------------------------*- C++ -*----------------------------------*\
| =========                 |                                                 |
| \\      /  F ield         | foam-extend: Open Source CFD                    |
|  \\    /   O peration     | Version:     4.0                                |
|   \\  /    A nd           | Web:         http://www.foam-extend.org         |
|    \\/     M anipulation  |                                                 |
\*---------------------------------------------------------------------------*/
FoamFile
{
    version     2.0;
    format      ascii;
    class       volVectorField;
    location    "10";
    object      bodyForce;
}
// * * * * * * * * * * * * * * * * * * * * * * * * * * * * * * * * * * * * * //

dimensions      [1 -2 -2 0 0 0 0];

internalField   nonuniform List<vector> 
6960
(
(2.30515e-31 -4.14176e-15 -0)
(2.85839e-31 -4.14176e-15 -0)
(-9.22061e-32 -4.14176e-15 -0)
(-2.30515e-31 -4.14176e-15 -0)
(1.65971e-31 -4.14176e-15 -0)
(4.42589e-31 -4.14176e-15 -0)
(4.14927e-31 -4.14176e-15 -0)
(5.25575e-31 -4.14176e-15 -0)
(-2.76618e-32 -4.14176e-15 -0)
(-4.97913e-31 -4.14176e-15 -0)
(-2.95059e-31 -4.14176e-15 -0)
(-1.84412e-31 -4.14176e-15 -0)
(-2.76618e-32 -4.14176e-15 -0)
(2.76618e-32 -4.14176e-15 -0)
(-1.65971e-31 -4.14176e-15 -0)
(-3.68824e-31 -4.14176e-15 -0)
(3.68824e-32 -4.14176e-15 -0)
(4.88692e-31 -4.14176e-15 -0)
(9.22061e-33 -4.14176e-15 -0)
(-5.16354e-31 -4.14176e-15 -0)
(-3.31942e-31 -4.14176e-15 -0)
(-2.48956e-31 -4.14176e-15 -0)
(2.76618e-32 -4.14176e-15 -0)
(1.93633e-31 -4.14176e-15 -0)
(-9.22061e-33 -4.14176e-15 -0)
(1.01427e-31 -4.14176e-15 -0)
(-1.10647e-31 -4.14176e-15 -0)
(2.95059e-31 -4.14176e-15 -0)
(4.70251e-31 -4.14176e-15 -0)
(2.30515e-31 -4.14176e-15 -0)
(-8.29855e-32 -4.14176e-15 -0)
(-6.91545e-31 -4.14176e-15 -0)
(-1.4753e-31 -4.14176e-15 -0)
(2.39736e-31 -4.14176e-15 -0)
(-9.22061e-32 -4.14176e-15 -0)
(-9.22061e-32 -4.14176e-15 -0)
(9.22061e-32 -4.14176e-15 -0)
(2.48956e-31 -4.14176e-15 -0)
(1.10647e-31 -4.14176e-15 -0)
(5.53236e-32 -4.14176e-15 -0)
(1.19868e-31 -4.14176e-15 -0)
(-1.10647e-31 -4.14176e-15 -0)
(8.29855e-32 -4.14176e-15 -0)
(3.22721e-31 -4.14176e-15 -0)
(4.97913e-31 -4.14176e-15 -0)
(4.5181e-31 -4.14176e-15 -0)
(-7.37649e-32 -4.14176e-15 -0)
(-1.5675e-31 -4.14176e-15 -0)
(9.22061e-33 -4.14176e-15 -0)
(1.4753e-31 -4.14176e-15 -0)
(1.65971e-31 -4.14176e-15 -0)
(5.53236e-32 -4.14176e-15 -0)
(-2.12074e-31 -4.14176e-15 -0)
(-6.45442e-32 -4.14176e-15 -0)
(3.22721e-31 -4.14176e-15 -0)
(-1.5675e-31 -4.14176e-15 -0)
(-5.71678e-31 -4.14176e-15 -0)
(-2.95059e-31 -4.14176e-15 -0)
(-4.05707e-31 -4.14176e-15 -0)
(-3.41162e-31 -4.14176e-15 -0)
(8.95189e-31 -4.14176e-15 -0)
(8.95189e-31 -4.14176e-15 -0)
(-3.58076e-31 -4.14176e-15 -0)
(-8.59381e-31 -4.14176e-15 -0)
(5.01306e-31 -4.14176e-15 -0)
(1.36069e-30 -4.14176e-15 -0)
(1.32488e-30 -4.14176e-15 -0)
(1.50392e-30 -4.14176e-15 -0)
(3.58076e-32 -4.14176e-15 -0)
(-1.50392e-30 -4.14176e-15 -0)
(-1.03842e-30 -4.14176e-15 -0)
(-5.72921e-31 -4.14176e-15 -0)
(-7.16151e-32 -4.14176e-15 -0)
(7.16151e-32 -4.14176e-15 -0)
(-4.65498e-31 -4.14176e-15 -0)
(-9.66804e-31 -4.14176e-15 -0)
(2.14845e-31 -4.14176e-15 -0)
(1.53973e-30 -4.14176e-15 -0)
(-1.07423e-31 -4.14176e-15 -0)
(-1.79038e-30 -4.14176e-15 -0)
(-1.07423e-30 -4.14176e-15 -0)
(-6.44536e-31 -4.14176e-15 -0)
(1.07423e-31 -4.14176e-15 -0)
(6.44536e-31 -4.14176e-15 -0)
(-0 -4.14176e-15 -0)
(1.79038e-31 -4.14176e-15 -0)
(-3.93883e-31 -4.14176e-15 -0)
(1.03842e-30 -4.14176e-15 -0)
(1.36069e-30 -4.14176e-15 -0)
(6.80344e-31 -4.14176e-15 -0)
(-2.8646e-31 -4.14176e-15 -0)
(-2.07684e-30 -4.14176e-15 -0)
(-3.58076e-31 -4.14176e-15 -0)
(6.08729e-31 -4.14176e-15 -0)
(-2.8646e-31 -4.14176e-15 -0)
(-2.50653e-31 -4.14176e-15 -0)
(1.4323e-31 -4.14176e-15 -0)
(8.23574e-31 -4.14176e-15 -0)
(4.65498e-31 -4.14176e-15 -0)
(1.07423e-31 -4.14176e-15 -0)
(3.93883e-31 -4.14176e-15 -0)
(-2.50653e-31 -4.14176e-15 -0)
(1.4323e-31 -4.14176e-15 -0)
(1.03842e-30 -4.14176e-15 -0)
(1.50392e-30 -4.14176e-15 -0)
(1.25326e-30 -4.14176e-15 -0)
(-2.50653e-31 -4.14176e-15 -0)
(-3.58076e-31 -4.14176e-15 -0)
(1.07423e-31 -4.14176e-15 -0)
(4.29691e-31 -4.14176e-15 -0)
(3.58076e-31 -4.14176e-15 -0)
(1.07423e-31 -4.14176e-15 -0)
(-3.93883e-31 -4.14176e-15 -0)
(-3.22268e-31 -4.14176e-15 -0)
(8.95189e-31 -4.14176e-15 -0)
(-3.58076e-31 -4.14176e-15 -0)
(-1.71876e-30 -4.14176e-15 -0)
(-9.30997e-31 -4.14176e-15 -0)
(-1.28907e-30 -4.14176e-15 -0)
(-9.66804e-31 -4.14176e-15 -0)
(1.39056e-30 -4.14176e-15 -0)
(1.52962e-30 -4.14176e-15 -0)
(-4.86696e-31 -4.14176e-15 -0)
(-1.18198e-30 -4.14176e-15 -0)
(7.64808e-31 -4.14176e-15 -0)
(2.15537e-30 -4.14176e-15 -0)
(2.08584e-30 -4.14176e-15 -0)
(2.64207e-30 -4.14176e-15 -0)
(2.08584e-31 -4.14176e-15 -0)
(-2.71159e-30 -4.14176e-15 -0)
(-1.87726e-30 -4.14176e-15 -0)
(-9.73393e-31 -4.14176e-15 -0)
(-2.08584e-31 -4.14176e-15 -0)
(2.08584e-31 -4.14176e-15 -0)
(-5.56224e-31 -4.14176e-15 -0)
(-1.87726e-30 -4.14176e-15 -0)
(1.39056e-31 -4.14176e-15 -0)
(2.71159e-30 -4.14176e-15 -0)
(-1.39056e-31 -4.14176e-15 -0)
(-2.92018e-30 -4.14176e-15 -0)
(-1.52962e-30 -4.14176e-15 -0)
(-1.2515e-30 -4.14176e-15 -0)
(2.08584e-31 -4.14176e-15 -0)
(1.04292e-30 -4.14176e-15 -0)
(-2.08584e-31 -4.14176e-15 -0)
(4.17168e-31 -4.14176e-15 -0)
(-4.86696e-31 -4.14176e-15 -0)
(1.46009e-30 -4.14176e-15 -0)
(2.15537e-30 -4.14176e-15 -0)
(1.39056e-30 -4.14176e-15 -0)
(-3.4764e-31 -4.14176e-15 -0)
(-3.54593e-30 -4.14176e-15 -0)
(-4.17168e-31 -4.14176e-15 -0)
(1.18198e-30 -4.14176e-15 -0)
(-6.25752e-31 -4.14176e-15 -0)
(-2.78112e-31 -4.14176e-15 -0)
(2.78112e-31 -4.14176e-15 -0)
(1.04292e-30 -4.14176e-15 -0)
(6.25752e-31 -4.14176e-15 -0)
(2.08584e-31 -4.14176e-15 -0)
(6.9528e-31 -4.14176e-15 -0)
(-4.17168e-31 -4.14176e-15 -0)
(3.4764e-31 -4.14176e-15 -0)
(1.7382e-30 -4.14176e-15 -0)
(2.57254e-30 -4.14176e-15 -0)
(2.2249e-30 -4.14176e-15 -0)
(-6.25752e-31 -4.14176e-15 -0)
(-4.86696e-31 -4.14176e-15 -0)
(3.4764e-31 -4.14176e-15 -0)
(6.9528e-31 -4.14176e-15 -0)
(4.86696e-31 -4.14176e-15 -0)
(2.08584e-31 -4.14176e-15 -0)
(-6.25752e-31 -4.14176e-15 -0)
(-5.56224e-31 -4.14176e-15 -0)
(1.59915e-30 -4.14176e-15 -0)
(-6.25752e-31 -4.14176e-15 -0)
(-2.98971e-30 -4.14176e-15 -0)
(-1.59915e-30 -4.14176e-15 -0)
(-1.94679e-30 -4.14176e-15 -0)
(-1.59915e-30 -4.14176e-15 -0)
(1.95755e-30 -4.14176e-15 -0)
(2.16006e-30 -4.14176e-15 -0)
(-8.77523e-31 -4.14176e-15 -0)
(-1.82255e-30 -4.14176e-15 -0)
(1.14753e-30 -4.14176e-15 -0)
(3.44259e-30 -4.14176e-15 -0)
(3.17258e-30 -4.14176e-15 -0)
(3.7126e-30 -4.14176e-15 -0)
(6.75018e-32 -4.14176e-15 -0)
(-4.05011e-30 -4.14176e-15 -0)
(-2.56507e-30 -4.14176e-15 -0)
(-1.28253e-30 -4.14176e-15 -0)
(-3.37509e-31 -4.14176e-15 -0)
(3.37509e-31 -4.14176e-15 -0)
(-7.4252e-31 -4.14176e-15 -0)
(-2.36256e-30 -4.14176e-15 -0)
(2.70007e-31 -4.14176e-15 -0)
(3.6451e-30 -4.14176e-15 -0)
(-3.37509e-31 -4.14176e-15 -0)
(-4.11761e-30 -4.14176e-15 -0)
(-2.29506e-30 -4.14176e-15 -0)
(-1.82255e-30 -4.14176e-15 -0)
(-0 -4.14176e-15 -0)
(1.55254e-30 -4.14176e-15 -0)
(-2.02505e-31 -4.14176e-15 -0)
(6.75018e-31 -4.14176e-15 -0)
(-6.75018e-31 -4.14176e-15 -0)
(1.89005e-30 -4.14176e-15 -0)
(3.30759e-30 -4.14176e-15 -0)
(2.16006e-30 -4.14176e-15 -0)
(-4.72513e-31 -4.14176e-15 -0)
(-5.06263e-30 -4.14176e-15 -0)
(-1.01253e-30 -4.14176e-15 -0)
(1.75505e-30 -4.14176e-15 -0)
(-4.05011e-31 -4.14176e-15 -0)
(-7.4252e-31 -4.14176e-15 -0)
(4.72513e-31 -4.14176e-15 -0)
(1.82255e-30 -4.14176e-15 -0)
(8.77523e-31 -4.14176e-15 -0)
(4.72513e-31 -4.14176e-15 -0)
(1.01253e-30 -4.14176e-15 -0)
(-8.10021e-31 -4.14176e-15 -0)
(6.75018e-31 -4.14176e-15 -0)
(2.16006e-30 -4.14176e-15 -0)
(3.10508e-30 -4.14176e-15 -0)
(3.30759e-30 -4.14176e-15 -0)
(-5.40014e-31 -4.14176e-15 -0)
(-7.4252e-31 -4.14176e-15 -0)
(2.70007e-31 -4.14176e-15 -0)
(8.77523e-31 -4.14176e-15 -0)
(9.45025e-31 -4.14176e-15 -0)
(4.72513e-31 -4.14176e-15 -0)
(-1.08003e-30 -4.14176e-15 -0)
(-7.4252e-31 -4.14176e-15 -0)
(2.16006e-30 -4.14176e-15 -0)
(-1.21503e-30 -4.14176e-15 -0)
(-4.11761e-30 -4.14176e-15 -0)
(-1.89005e-30 -4.14176e-15 -0)
(-3.03758e-30 -4.14176e-15 -0)
(-2.49757e-30 -4.14176e-15 -0)
(2.62138e-30 -4.14175e-15 -0)
(2.88352e-30 -4.14175e-15 -0)
(-6.55346e-31 -4.14175e-15 -0)
(-2.22818e-30 -4.14175e-15 -0)
(1.31069e-30 -4.14175e-15 -0)
(4.06314e-30 -4.14175e-15 -0)
(4.19421e-30 -4.14175e-15 -0)
(5.1117e-30 -4.14175e-15 -0)
(-3.93207e-31 -4.14175e-15 -0)
(-4.84956e-30 -4.14175e-15 -0)
(-3.4078e-30 -4.14175e-15 -0)
(-1.57283e-30 -4.14175e-15 -0)
(-3.93207e-31 -4.14175e-15 -0)
(3.93207e-31 -4.14175e-15 -0)
(-1.17962e-30 -4.14175e-15 -0)
(-3.27673e-30 -4.14175e-15 -0)
(5.24277e-31 -4.14175e-15 -0)
(5.37384e-30 -4.14175e-15 -0)
(-3.93207e-31 -4.14175e-15 -0)
(-5.5049e-30 -4.14175e-15 -0)
(-3.01459e-30 -4.14175e-15 -0)
(-2.49031e-30 -4.14175e-15 -0)
(3.93207e-31 -4.14175e-15 -0)
(1.57283e-30 -4.14175e-15 -0)
(-2.62138e-31 -4.14175e-15 -0)
(1.31069e-30 -4.14175e-15 -0)
(-1.04855e-30 -4.14175e-15 -0)
(2.49031e-30 -4.14175e-15 -0)
(4.06314e-30 -4.14175e-15 -0)
(2.35924e-30 -4.14175e-15 -0)
(-5.24277e-31 -4.14175e-15 -0)
(-6.02918e-30 -4.14175e-15 -0)
(-1.31069e-30 -4.14175e-15 -0)
(1.96604e-30 -4.14175e-15 -0)
(-9.17484e-31 -4.14175e-15 -0)
(-9.17484e-31 -4.14175e-15 -0)
(9.17484e-31 -4.14175e-15 -0)
(2.35924e-30 -4.14175e-15 -0)
(1.04855e-30 -4.14175e-15 -0)
(5.24277e-31 -4.14175e-15 -0)
(1.04855e-30 -4.14175e-15 -0)
(-1.31069e-30 -4.14175e-15 -0)
(7.86415e-31 -4.14175e-15 -0)
(3.53887e-30 -4.14175e-15 -0)
(4.71849e-30 -4.14175e-15 -0)
(4.06314e-30 -4.14175e-15 -0)
(-6.55346e-31 -4.14175e-15 -0)
(-1.44176e-30 -4.14175e-15 -0)
(5.24277e-31 -4.14175e-15 -0)
(1.57283e-30 -4.14175e-15 -0)
(9.17484e-31 -4.14175e-15 -0)
(3.93207e-31 -4.14175e-15 -0)
(-1.04855e-30 -4.14175e-15 -0)
(-6.55346e-31 -4.14175e-15 -0)
(2.62138e-30 -4.14175e-15 -0)
(-1.7039e-30 -4.14175e-15 -0)
(-5.5049e-30 -4.14175e-15 -0)
(-2.88352e-30 -4.14175e-15 -0)
(-3.66994e-30 -4.14175e-15 -0)
(-2.88352e-30 -4.14175e-15 -0)
(3.18123e-30 -4.14175e-15 -0)
(3.30848e-30 -4.14175e-15 -0)
(-7.63496e-31 -4.14175e-15 -0)
(-2.29049e-30 -4.14175e-15 -0)
(1.78149e-30 -4.14175e-15 -0)
(4.96273e-30 -4.14175e-15 -0)
(5.59897e-30 -4.14175e-15 -0)
(6.36247e-30 -4.14175e-15 -0)
(-3.81748e-31 -4.14175e-15 -0)
(-5.98072e-30 -4.14175e-15 -0)
(-4.19923e-30 -4.14175e-15 -0)
(-2.41774e-30 -4.14175e-15 -0)
(-1.27249e-31 -4.14175e-15 -0)
(6.36247e-31 -4.14175e-15 -0)
(-1.90874e-30 -4.14175e-15 -0)
(-3.81748e-30 -4.14175e-15 -0)
(5.08998e-31 -4.14175e-15 -0)
(6.23522e-30 -4.14175e-15 -0)
(-0 -4.14175e-15 -0)
(-6.74422e-30 -4.14175e-15 -0)
(-4.58098e-30 -4.14175e-15 -0)
(-2.67224e-30 -4.14175e-15 -0)
(1.018e-30 -4.14175e-15 -0)
(1.90874e-30 -4.14175e-15 -0)
(-7.63496e-31 -4.14175e-15 -0)
(1.14524e-30 -4.14175e-15 -0)
(-6.36247e-31 -4.14175e-15 -0)
(3.69023e-30 -4.14175e-15 -0)
(4.96273e-30 -4.14175e-15 -0)
(2.92674e-30 -4.14175e-15 -0)
(-1.14524e-30 -4.14175e-15 -0)
(-7.63496e-30 -4.14175e-15 -0)
(-1.52699e-30 -4.14175e-15 -0)
(2.41774e-30 -4.14175e-15 -0)
(-6.36247e-31 -4.14175e-15 -0)
(-1.018e-30 -4.14175e-15 -0)
(5.08998e-31 -4.14175e-15 -0)
(2.79949e-30 -4.14175e-15 -0)
(1.78149e-30 -4.14175e-15 -0)
(3.81748e-31 -4.14175e-15 -0)
(1.14524e-30 -4.14175e-15 -0)
(-1.27249e-30 -4.14175e-15 -0)
(1.39974e-30 -4.14175e-15 -0)
(4.07198e-30 -4.14175e-15 -0)
(5.21723e-30 -4.14175e-15 -0)
(5.08998e-30 -4.14175e-15 -0)
(-3.81748e-31 -4.14175e-15 -0)
(-1.39974e-30 -4.14175e-15 -0)
(-0 -4.14175e-15 -0)
(1.39974e-30 -4.14175e-15 -0)
(1.39974e-30 -4.14175e-15 -0)
(3.81748e-31 -4.14175e-15 -0)
(-1.39974e-30 -4.14175e-15 -0)
(-3.81748e-31 -4.14175e-15 -0)
(3.18124e-30 -4.14175e-15 -0)
(-2.41774e-30 -4.14175e-15 -0)
(-6.36247e-30 -4.14175e-15 -0)
(-3.30848e-30 -4.14175e-15 -0)
(-5.08998e-30 -4.14175e-15 -0)
(-4.07198e-30 -4.14175e-15 -0)
(3.82977e-30 -4.14175e-15 -0)
(4.44747e-30 -4.14175e-15 -0)
(-1.23541e-30 -4.14175e-15 -0)
(-2.7179e-30 -4.14175e-15 -0)
(2.1002e-30 -4.14175e-15 -0)
(6.05351e-30 -4.14175e-15 -0)
(6.54767e-30 -4.14175e-15 -0)
(7.04183e-30 -4.14175e-15 -0)
(-2.47082e-31 -4.14175e-15 -0)
(-7.28892e-30 -4.14175e-15 -0)
(-4.44747e-30 -4.14175e-15 -0)
(-2.47082e-30 -4.14175e-15 -0)
(-4.94164e-31 -4.14175e-15 -0)
(1.23541e-31 -4.14175e-15 -0)
(-1.35895e-30 -4.14175e-15 -0)
(-4.20039e-30 -4.14175e-15 -0)
(3.70623e-31 -4.14175e-15 -0)
(7.04183e-30 -4.14175e-15 -0)
(-6.17705e-31 -4.14175e-15 -0)
(-7.65954e-30 -4.14175e-15 -0)
(-4.57102e-30 -4.14175e-15 -0)
(-3.95331e-30 -4.14175e-15 -0)
(8.64787e-31 -4.14175e-15 -0)
(2.7179e-30 -4.14175e-15 -0)
(-7.41246e-31 -4.14175e-15 -0)
(1.35895e-30 -4.14175e-15 -0)
(-9.88328e-31 -4.14175e-15 -0)
(3.70623e-30 -4.14175e-15 -0)
(6.17705e-30 -4.14175e-15 -0)
(4.07685e-30 -4.14175e-15 -0)
(-1.23541e-30 -4.14175e-15 -0)
(-9.26557e-30 -4.14175e-15 -0)
(-1.72957e-30 -4.14175e-15 -0)
(3.08852e-30 -4.14175e-15 -0)
(-6.17705e-31 -4.14175e-15 -0)
(-1.23541e-30 -4.14175e-15 -0)
(4.94164e-31 -4.14175e-15 -0)
(3.08852e-30 -4.14175e-15 -0)
(2.1002e-30 -4.14175e-15 -0)
(9.88328e-31 -4.14175e-15 -0)
(1.35895e-30 -4.14175e-15 -0)
(-1.35895e-30 -4.14175e-15 -0)
(1.23541e-30 -4.14175e-15 -0)
(4.69456e-30 -4.14175e-15 -0)
(6.17705e-30 -4.14175e-15 -0)
(5.92997e-30 -4.14175e-15 -0)
(-8.64787e-31 -4.14175e-15 -0)
(-1.23541e-30 -4.14175e-15 -0)
(7.41246e-31 -4.14175e-15 -0)
(1.97666e-30 -4.14175e-15 -0)
(1.72957e-30 -4.14175e-15 -0)
(2.47082e-31 -4.14175e-15 -0)
(-2.1002e-30 -4.14175e-15 -0)
(-4.94164e-31 -4.14175e-15 -0)
(4.44747e-30 -4.14175e-15 -0)
(-3.08852e-30 -4.14175e-15 -0)
(-7.78308e-30 -4.14175e-15 -0)
(-4.20039e-30 -4.14175e-15 -0)
(-6.05351e-30 -4.14175e-15 -0)
(-4.44747e-30 -4.14175e-15 -0)
(3.95804e-30 -4.14175e-15 -0)
(4.07798e-30 -4.14175e-15 -0)
(-8.39584e-31 -4.14175e-15 -0)
(-2.63869e-30 -4.14175e-15 -0)
(2.51875e-30 -4.14175e-15 -0)
(7.07649e-30 -4.14175e-15 -0)
(6.47679e-30 -4.14175e-15 -0)
(8.03602e-30 -4.14175e-15 -0)
(2.39881e-31 -4.14175e-15 -0)
(-7.91608e-30 -4.14175e-15 -0)
(-5.39733e-30 -4.14175e-15 -0)
(-3.11846e-30 -4.14175e-15 -0)
(-5.99703e-31 -4.14175e-15 -0)
(-0 -4.14175e-15 -0)
(-2.15893e-30 -4.14175e-15 -0)
(-4.91756e-30 -4.14175e-15 -0)
(-0 -4.14175e-15 -0)
(7.91608e-30 -4.14175e-15 -0)
(-0 -4.14175e-15 -0)
(-9.23543e-30 -4.14175e-15 -0)
(-5.39733e-30 -4.14175e-15 -0)
(-3.35834e-30 -4.14175e-15 -0)
(1.07947e-30 -4.14175e-15 -0)
(2.87857e-30 -4.14175e-15 -0)
(-8.39584e-31 -4.14175e-15 -0)
(2.15893e-30 -4.14175e-15 -0)
(-1.91905e-30 -4.14175e-15 -0)
(4.79762e-30 -4.14175e-15 -0)
(7.43632e-30 -4.14175e-15 -0)
(4.19792e-30 -4.14175e-15 -0)
(-9.59525e-31 -4.14175e-15 -0)
(-1.12744e-29 -4.14175e-15 -0)
(-2.15893e-30 -4.14175e-15 -0)
(4.4378e-30 -4.14175e-15 -0)
(-2.15893e-30 -4.14175e-15 -0)
(-1.55923e-30 -4.14175e-15 -0)
(1.55923e-30 -4.14175e-15 -0)
(3.59822e-30 -4.14175e-15 -0)
(2.27887e-30 -4.14175e-15 -0)
(1.31935e-30 -4.14175e-15 -0)
(1.43929e-30 -4.14175e-15 -0)
(-2.75863e-30 -4.14175e-15 -0)
(1.91905e-30 -4.14175e-15 -0)
(6.23691e-30 -4.14175e-15 -0)
(7.43632e-30 -4.14175e-15 -0)
(7.31638e-30 -4.14175e-15 -0)
(-1.43929e-30 -4.14175e-15 -0)
(-2.03899e-30 -4.14175e-15 -0)
(9.59525e-31 -4.14175e-15 -0)
(2.15893e-30 -4.14175e-15 -0)
(2.27887e-30 -4.14175e-15 -0)
(8.39584e-31 -4.14175e-15 -0)
(-3.11846e-30 -4.14175e-15 -0)
(-5.99703e-31 -4.14175e-15 -0)
(5.15745e-30 -4.14175e-15 -0)
(-3.71816e-30 -4.14175e-15 -0)
(-9.35537e-30 -4.14175e-15 -0)
(-5.0375e-30 -4.14175e-15 -0)
(-7.31638e-30 -4.14175e-15 -0)
(-5.39733e-30 -4.14175e-15 -0)
(4.19203e-30 -4.14174e-15 -0)
(5.12359e-30 -4.14174e-15 -0)
(-1.63023e-30 -4.14174e-15 -0)
(-3.72624e-30 -4.14174e-15 -0)
(3.26046e-30 -4.14174e-15 -0)
(7.91827e-30 -4.14174e-15 -0)
(8.61694e-30 -4.14174e-15 -0)
(9.5485e-30 -4.14174e-15 -0)
(-1.16445e-30 -4.14174e-15 -0)
(-9.08272e-30 -4.14174e-15 -0)
(-6.75382e-30 -4.14174e-15 -0)
(-4.42492e-30 -4.14174e-15 -0)
(-0 -4.14174e-15 -0)
(2.3289e-31 -4.14174e-15 -0)
(-2.3289e-30 -4.14174e-15 -0)
(-5.12359e-30 -4.14174e-15 -0)
(6.98671e-31 -4.14174e-15 -0)
(8.84983e-30 -4.14174e-15 -0)
(-0 -4.14174e-15 -0)
(-9.5485e-30 -4.14174e-15 -0)
(-6.52093e-30 -4.14174e-15 -0)
(-5.12359e-30 -4.14174e-15 -0)
(1.16445e-30 -4.14174e-15 -0)
(3.26046e-30 -4.14174e-15 -0)
(-1.16445e-30 -4.14174e-15 -0)
(2.3289e-30 -4.14174e-15 -0)
(-1.63023e-30 -4.14174e-15 -0)
(5.12359e-30 -4.14174e-15 -0)
(8.38405e-30 -4.14174e-15 -0)
(6.05515e-30 -4.14174e-15 -0)
(-1.16445e-30 -4.14174e-15 -0)
(-1.25761e-29 -4.14174e-15 -0)
(-2.3289e-30 -4.14174e-15 -0)
(3.49335e-30 -4.14174e-15 -0)
(-1.86312e-30 -4.14174e-15 -0)
(-1.86312e-30 -4.14174e-15 -0)
(1.39734e-30 -4.14174e-15 -0)
(4.65781e-30 -4.14174e-15 -0)
(2.09601e-30 -4.14174e-15 -0)
(1.16445e-30 -4.14174e-15 -0)
(2.3289e-30 -4.14174e-15 -0)
(-2.09601e-30 -4.14174e-15 -0)
(1.39734e-30 -4.14174e-15 -0)
(6.28804e-30 -4.14174e-15 -0)
(1.00143e-29 -4.14174e-15 -0)
(8.38405e-30 -4.14174e-15 -0)
(-1.39734e-30 -4.14174e-15 -0)
(-2.3289e-30 -4.14174e-15 -0)
(4.65781e-31 -4.14174e-15 -0)
(2.56179e-30 -4.14174e-15 -0)
(2.3289e-30 -4.14174e-15 -0)
(9.31561e-31 -4.14174e-15 -0)
(-2.56179e-30 -4.14174e-15 -0)
(-9.31561e-31 -4.14174e-15 -0)
(6.05515e-30 -4.14174e-15 -0)
(-3.49335e-30 -4.14174e-15 -0)
(-1.14116e-29 -4.14174e-15 -0)
(-6.28804e-30 -4.14174e-15 -0)
(-8.15116e-30 -4.14174e-15 -0)
(-5.58937e-30 -4.14174e-15 -0)
(4.97427e-30 -4.14174e-15 -0)
(6.10478e-30 -4.14174e-15 -0)
(-2.03493e-30 -4.14174e-15 -0)
(-4.06986e-30 -4.14174e-15 -0)
(4.06986e-30 -4.14174e-15 -0)
(8.36582e-30 -4.14174e-15 -0)
(9.49633e-30 -4.14174e-15 -0)
(1.0853e-29 -4.14174e-15 -0)
(-1.13052e-30 -4.14174e-15 -0)
(-1.10791e-29 -4.14174e-15 -0)
(-6.55699e-30 -4.14174e-15 -0)
(-4.06986e-30 -4.14174e-15 -0)
(-4.52206e-31 -4.14174e-15 -0)
(2.26103e-31 -4.14174e-15 -0)
(-2.71324e-30 -4.14174e-15 -0)
(-6.55699e-30 -4.14174e-15 -0)
(1.58272e-30 -4.14174e-15 -0)
(1.06268e-29 -4.14174e-15 -0)
(-2.26103e-31 -4.14174e-15 -0)
(-1.15313e-29 -4.14174e-15 -0)
(-7.91361e-30 -4.14174e-15 -0)
(-5.42648e-30 -4.14174e-15 -0)
(1.13052e-30 -4.14174e-15 -0)
(2.93934e-30 -4.14174e-15 -0)
(-1.13052e-30 -4.14174e-15 -0)
(2.71324e-30 -4.14174e-15 -0)
(-1.80883e-30 -4.14174e-15 -0)
(6.55699e-30 -4.14174e-15 -0)
(9.72243e-30 -4.14174e-15 -0)
(6.33089e-30 -4.14174e-15 -0)
(-1.13052e-30 -4.14174e-15 -0)
(-1.42445e-29 -4.14174e-15 -0)
(-3.16544e-30 -4.14174e-15 -0)
(4.52206e-30 -4.14174e-15 -0)
(-1.80883e-30 -4.14174e-15 -0)
(-2.93934e-30 -4.14174e-15 -0)
(1.35662e-30 -4.14174e-15 -0)
(4.97427e-30 -4.14174e-15 -0)
(3.39155e-30 -4.14174e-15 -0)
(2.26103e-30 -4.14174e-15 -0)
(1.35662e-30 -4.14174e-15 -0)
(-3.16544e-30 -4.14174e-15 -0)
(1.80883e-30 -4.14174e-15 -0)
(8.36582e-30 -4.14174e-15 -0)
(1.01746e-29 -4.14174e-15 -0)
(9.94854e-30 -4.14174e-15 -0)
(-4.52206e-31 -4.14174e-15 -0)
(-2.71324e-30 -4.14174e-15 -0)
(-2.26103e-31 -4.14174e-15 -0)
(2.71324e-30 -4.14174e-15 -0)
(2.48713e-30 -4.14174e-15 -0)
(6.78309e-31 -4.14174e-15 -0)
(-2.93934e-30 -4.14174e-15 -0)
(-4.52206e-31 -4.14174e-15 -0)
(7.2353e-30 -4.14174e-15 -0)
(-4.74817e-30 -4.14174e-15 -0)
(-1.17574e-29 -4.14174e-15 -0)
(-7.2353e-30 -4.14174e-15 -0)
(-1.01746e-29 -4.14174e-15 -0)
(-7.0092e-30 -4.14174e-15 -0)
(4.60979e-30 -4.14174e-15 -0)
(6.58541e-30 -4.14174e-15 -0)
(-8.78055e-31 -4.14174e-15 -0)
(-3.95125e-30 -4.14174e-15 -0)
(3.95125e-30 -4.14174e-15 -0)
(8.56104e-30 -4.14174e-15 -0)
(1.05367e-29 -4.14174e-15 -0)
(1.25123e-29 -4.14174e-15 -0)
(-4.39028e-31 -4.14174e-15 -0)
(-1.20733e-29 -4.14174e-15 -0)
(-7.9025e-30 -4.14174e-15 -0)
(-4.60979e-30 -4.14174e-15 -0)
(-2.19514e-31 -4.14174e-15 -0)
(-0 -4.14174e-15 -0)
(-3.29271e-30 -4.14174e-15 -0)
(-6.80493e-30 -4.14174e-15 -0)
(1.75611e-30 -4.14174e-15 -0)
(1.16342e-29 -4.14174e-15 -0)
(-6.58541e-31 -4.14174e-15 -0)
(-1.25123e-29 -4.14174e-15 -0)
(-8.78055e-30 -4.14174e-15 -0)
(-5.70736e-30 -4.14174e-15 -0)
(1.5366e-30 -4.14174e-15 -0)
(2.41465e-30 -4.14174e-15 -0)
(-1.09757e-30 -4.14174e-15 -0)
(2.63417e-30 -4.14174e-15 -0)
(-2.41465e-30 -4.14174e-15 -0)
(7.9025e-30 -4.14174e-15 -0)
(1.20733e-29 -4.14174e-15 -0)
(7.24395e-30 -4.14174e-15 -0)
(-2.41465e-30 -4.14174e-15 -0)
(-1.69026e-29 -4.14174e-15 -0)
(-2.85368e-30 -4.14174e-15 -0)
(5.70736e-30 -4.14174e-15 -0)
(-2.85368e-30 -4.14174e-15 -0)
(-3.51222e-30 -4.14174e-15 -0)
(2.63417e-30 -4.14174e-15 -0)
(5.70736e-30 -4.14174e-15 -0)
(3.29271e-30 -4.14174e-15 -0)
(1.5366e-30 -4.14174e-15 -0)
(1.5366e-30 -4.14174e-15 -0)
(-3.73173e-30 -4.14174e-15 -0)
(2.85368e-30 -4.14174e-15 -0)
(9.43909e-30 -4.14174e-15 -0)
(1.09757e-29 -4.14174e-15 -0)
(1.16342e-29 -4.14174e-15 -0)
(-6.58541e-31 -4.14174e-15 -0)
(-3.95125e-30 -4.14174e-15 -0)
(4.39028e-31 -4.14174e-15 -0)
(3.07319e-30 -4.14174e-15 -0)
(2.19514e-30 -4.14174e-15 -0)
(1.31708e-30 -4.14174e-15 -0)
(-3.51222e-30 -4.14174e-15 -0)
(-2.19514e-31 -4.14174e-15 -0)
(8.56104e-30 -4.14174e-15 -0)
(-5.48784e-30 -4.14174e-15 -0)
(-1.33903e-29 -4.14174e-15 -0)
(-8.34152e-30 -4.14174e-15 -0)
(-1.22928e-29 -4.14174e-15 -0)
(-7.68298e-30 -4.14174e-15 -0)
(4.47544e-30 -4.14174e-15 -0)
(6.18038e-30 -4.14174e-15 -0)
(-1.2787e-30 -4.14174e-15 -0)
(-4.26233e-30 -4.14174e-15 -0)
(5.11479e-30 -4.14174e-15 -0)
(1.02296e-29 -4.14174e-15 -0)
(1.12952e-29 -4.14174e-15 -0)
(1.42788e-29 -4.14174e-15 -0)
(-1.2787e-30 -4.14174e-15 -0)
(-1.34263e-29 -4.14174e-15 -0)
(-8.31154e-30 -4.14174e-15 -0)
(-5.32791e-30 -4.14174e-15 -0)
(-8.52466e-31 -4.14174e-15 -0)
(4.26233e-31 -4.14174e-15 -0)
(-4.47544e-30 -4.14174e-15 -0)
(-7.88531e-30 -4.14174e-15 -0)
(2.34428e-30 -4.14174e-15 -0)
(1.19345e-29 -4.14174e-15 -0)
(-0 -4.14174e-15 -0)
(-1.34263e-29 -4.14174e-15 -0)
(-9.80336e-30 -4.14174e-15 -0)
(-5.96726e-30 -4.14174e-15 -0)
(8.52466e-31 -4.14174e-15 -0)
(2.98363e-30 -4.14174e-15 -0)
(-1.06558e-30 -4.14174e-15 -0)
(2.77051e-30 -4.14174e-15 -0)
(-3.19675e-30 -4.14174e-15 -0)
(8.95089e-30 -4.14174e-15 -0)
(1.42788e-29 -4.14174e-15 -0)
(7.45907e-30 -4.14174e-15 -0)
(-2.77051e-30 -4.14174e-15 -0)
(-1.72624e-29 -4.14174e-15 -0)
(-2.98363e-30 -4.14174e-15 -0)
(5.75414e-30 -4.14174e-15 -0)
(-3.40986e-30 -4.14174e-15 -0)
(-3.62298e-30 -4.14174e-15 -0)
(2.77051e-30 -4.14174e-15 -0)
(6.39349e-30 -4.14174e-15 -0)
(3.40986e-30 -4.14174e-15 -0)
(2.13116e-30 -4.14174e-15 -0)
(1.49181e-30 -4.14174e-15 -0)
(-4.68856e-30 -4.14174e-15 -0)
(4.04921e-30 -4.14174e-15 -0)
(1.12952e-29 -4.14174e-15 -0)
(1.15083e-29 -4.14174e-15 -0)
(1.10821e-29 -4.14174e-15 -0)
(-4.26233e-31 -4.14174e-15 -0)
(-3.62298e-30 -4.14174e-15 -0)
(2.13116e-31 -4.14174e-15 -0)
(3.8361e-30 -4.14174e-15 -0)
(3.19675e-30 -4.14174e-15 -0)
(6.39349e-31 -4.14174e-15 -0)
(-3.62298e-30 -4.14174e-15 -0)
(4.26233e-31 -4.14174e-15 -0)
(9.37712e-30 -4.14174e-15 -0)
(-6.18038e-30 -4.14174e-15 -0)
(-1.51313e-29 -4.14174e-15 -0)
(-9.59024e-30 -4.14174e-15 -0)
(-1.44919e-29 -4.14174e-15 -0)
(-8.95089e-30 -4.14174e-15 -0)
(4.96573e-30 -4.14173e-15 -0)
(7.4486e-30 -4.14173e-15 -0)
(2.06906e-31 -4.14173e-15 -0)
(-4.55192e-30 -4.14173e-15 -0)
(4.34502e-30 -4.14173e-15 -0)
(1.13798e-29 -4.14173e-15 -0)
(1.34489e-29 -4.14173e-15 -0)
(1.51041e-29 -4.14173e-15 -0)
(-1.86215e-30 -4.14173e-15 -0)
(-1.48972e-29 -4.14173e-15 -0)
(-9.51765e-30 -4.14173e-15 -0)
(-6.20717e-30 -4.14173e-15 -0)
(-8.27622e-31 -4.14173e-15 -0)
(-2.06906e-31 -4.14173e-15 -0)
(-4.55192e-30 -4.14173e-15 -0)
(-8.27622e-30 -4.14173e-15 -0)
(2.48287e-30 -4.14173e-15 -0)
(1.38627e-29 -4.14173e-15 -0)
(-1.03453e-30 -4.14173e-15 -0)
(-1.44834e-29 -4.14173e-15 -0)
(-1.07591e-29 -4.14173e-15 -0)
(-6.41407e-30 -4.14173e-15 -0)
(1.44834e-30 -4.14173e-15 -0)
(2.68977e-30 -4.14173e-15 -0)
(-1.65524e-30 -4.14173e-15 -0)
(3.31049e-30 -4.14173e-15 -0)
(-2.89668e-30 -4.14173e-15 -0)
(1.01384e-29 -4.14173e-15 -0)
(1.57248e-29 -4.14173e-15 -0)
(7.4486e-30 -4.14173e-15 -0)
(-3.10358e-30 -4.14173e-15 -0)
(-1.98629e-29 -4.14173e-15 -0)
(-4.75883e-30 -4.14173e-15 -0)
(7.6555e-30 -4.14173e-15 -0)
(-3.31049e-30 -4.14173e-15 -0)
(-3.7243e-30 -4.14173e-15 -0)
(4.13811e-30 -4.14173e-15 -0)
(6.00026e-30 -4.14173e-15 -0)
(2.68977e-30 -4.14173e-15 -0)
(1.65524e-30 -4.14173e-15 -0)
(2.68977e-30 -4.14173e-15 -0)
(-3.9312e-30 -4.14173e-15 -0)
(3.7243e-30 -4.14173e-15 -0)
(1.13798e-29 -4.14173e-15 -0)
(1.34489e-29 -4.14173e-15 -0)
(1.38627e-29 -4.14173e-15 -0)
(-8.27622e-31 -4.14173e-15 -0)
(-4.13811e-30 -4.14173e-15 -0)
(-2.06906e-31 -4.14173e-15 -0)
(3.7243e-30 -4.14173e-15 -0)
(3.10358e-30 -4.14173e-15 -0)
(1.03453e-30 -4.14173e-15 -0)
(-4.55192e-30 -4.14173e-15 -0)
(-2.06906e-31 -4.14173e-15 -0)
(1.15867e-29 -4.14173e-15 -0)
(-6.62098e-30 -4.14173e-15 -0)
(-1.69663e-29 -4.14173e-15 -0)
(-1.07591e-29 -4.14173e-15 -0)
(-1.61386e-29 -4.14173e-15 -0)
(-9.93147e-30 -4.14173e-15 -0)
(4.82101e-30 -4.14173e-15 -0)
(7.63327e-30 -4.14173e-15 -0)
(-0 -4.14173e-15 -0)
(-4.41926e-30 -4.14173e-15 -0)
(4.41926e-30 -4.14173e-15 -0)
(1.16508e-29 -4.14173e-15 -0)
(1.32578e-29 -4.14173e-15 -0)
(1.72753e-29 -4.14173e-15 -0)
(-1.20525e-30 -4.14173e-15 -0)
(-1.64718e-29 -4.14173e-15 -0)
(-1.00438e-29 -4.14173e-15 -0)
(-6.02627e-30 -4.14173e-15 -0)
(-1.607e-30 -4.14173e-15 -0)
(-1.20525e-30 -4.14173e-15 -0)
(-4.82101e-30 -4.14173e-15 -0)
(-8.83853e-30 -4.14173e-15 -0)
(2.41051e-30 -4.14173e-15 -0)
(1.48648e-29 -4.14173e-15 -0)
(8.03502e-31 -4.14173e-15 -0)
(-1.52665e-29 -4.14173e-15 -0)
(-1.20525e-29 -4.14173e-15 -0)
(-8.03502e-30 -4.14173e-15 -0)
(2.00876e-30 -4.14173e-15 -0)
(4.41926e-30 -4.14173e-15 -0)
(-1.20525e-30 -4.14173e-15 -0)
(2.81226e-30 -4.14173e-15 -0)
(-3.61576e-30 -4.14173e-15 -0)
(1.1249e-29 -4.14173e-15 -0)
(1.76771e-29 -4.14173e-15 -0)
(7.63327e-30 -4.14173e-15 -0)
(-4.01751e-30 -4.14173e-15 -0)
(-2.16946e-29 -4.14173e-15 -0)
(-2.41051e-30 -4.14173e-15 -0)
(7.23152e-30 -4.14173e-15 -0)
(-6.42802e-30 -4.14173e-15 -0)
(-3.61576e-30 -4.14173e-15 -0)
(4.82101e-30 -4.14173e-15 -0)
(7.23152e-30 -4.14173e-15 -0)
(2.81226e-30 -4.14173e-15 -0)
(1.607e-30 -4.14173e-15 -0)
(3.21401e-30 -4.14173e-15 -0)
(-5.22277e-30 -4.14173e-15 -0)
(3.21401e-30 -4.14173e-15 -0)
(1.64718e-29 -4.14173e-15 -0)
(1.36595e-29 -4.14173e-15 -0)
(1.2856e-29 -4.14173e-15 -0)
(-0 -4.14173e-15 -0)
(-4.01751e-30 -4.14173e-15 -0)
(-1.20525e-30 -4.14173e-15 -0)
(3.61576e-30 -4.14173e-15 -0)
(4.41926e-30 -4.14173e-15 -0)
(4.01751e-31 -4.14173e-15 -0)
(-4.82101e-30 -4.14173e-15 -0)
(2.41051e-30 -4.14173e-15 -0)
(1.04455e-29 -4.14173e-15 -0)
(-8.43678e-30 -4.14173e-15 -0)
(-1.72753e-29 -4.14173e-15 -0)
(-1.20525e-29 -4.14173e-15 -0)
(-1.68736e-29 -4.14173e-15 -0)
(-1.00438e-29 -4.14173e-15 -0)
(5.07056e-30 -4.14173e-15 -0)
(8.97099e-30 -4.14173e-15 -0)
(-1.17013e-30 -4.14173e-15 -0)
(-5.85064e-30 -4.14173e-15 -0)
(6.24069e-30 -4.14173e-15 -0)
(1.24814e-29 -4.14173e-15 -0)
(1.59918e-29 -4.14173e-15 -0)
(1.8332e-29 -4.14173e-15 -0)
(-3.90043e-30 -4.14173e-15 -0)
(-1.71619e-29 -4.14173e-15 -0)
(-9.75107e-30 -4.14173e-15 -0)
(-6.63073e-30 -4.14173e-15 -0)
(-2.34026e-30 -4.14173e-15 -0)
(-3.90043e-31 -4.14173e-15 -0)
(-6.24069e-30 -4.14173e-15 -0)
(-1.05312e-29 -4.14173e-15 -0)
(3.51039e-30 -4.14173e-15 -0)
(1.67718e-29 -4.14173e-15 -0)
(-0 -4.14173e-15 -0)
(-1.63818e-29 -4.14173e-15 -0)
(-1.28714e-29 -4.14173e-15 -0)
(-8.97099e-30 -4.14173e-15 -0)
(1.56017e-30 -4.14173e-15 -0)
(5.4606e-30 -4.14173e-15 -0)
(-7.80086e-31 -4.14173e-15 -0)
(1.56017e-30 -4.14173e-15 -0)
(-4.68051e-30 -4.14173e-15 -0)
(1.32615e-29 -4.14173e-15 -0)
(1.98922e-29 -4.14173e-15 -0)
(8.1909e-30 -4.14173e-15 -0)
(-4.29047e-30 -4.14173e-15 -0)
(-2.30125e-29 -4.14173e-15 -0)
(-3.12034e-30 -4.14173e-15 -0)
(7.41081e-30 -4.14173e-15 -0)
(-6.63073e-30 -4.14173e-15 -0)
(-3.90043e-30 -4.14173e-15 -0)
(5.85064e-30 -4.14173e-15 -0)
(6.63073e-30 -4.14173e-15 -0)
(2.7303e-30 -4.14173e-15 -0)
(1.95021e-30 -4.14173e-15 -0)
(2.34026e-30 -4.14173e-15 -0)
(-5.4606e-30 -4.14173e-15 -0)
(5.07056e-30 -4.14173e-15 -0)
(1.67718e-29 -4.14173e-15 -0)
(1.52117e-29 -4.14173e-15 -0)
(1.56017e-29 -4.14173e-15 -0)
(1.17013e-30 -4.14173e-15 -0)
(-5.07056e-30 -4.14173e-15 -0)
(-2.7303e-30 -4.14173e-15 -0)
(3.51039e-30 -4.14173e-15 -0)
(5.07056e-30 -4.14173e-15 -0)
(7.80086e-31 -4.14173e-15 -0)
(-4.68051e-30 -4.14173e-15 -0)
(1.17013e-30 -4.14173e-15 -0)
(1.40415e-29 -4.14173e-15 -0)
(-8.58094e-30 -4.14173e-15 -0)
(-1.91121e-29 -4.14173e-15 -0)
(-1.44316e-29 -4.14173e-15 -0)
(-2.06723e-29 -4.14173e-15 -0)
(-1.17013e-29 -4.14173e-15 -0)
(6.05881e-30 -4.14172e-15 -0)
(1.06029e-29 -4.14172e-15 -0)
(3.78676e-31 -4.14172e-15 -0)
(-6.05881e-30 -4.14172e-15 -0)
(6.43749e-30 -4.14172e-15 -0)
(1.2875e-29 -4.14172e-15 -0)
(1.66617e-29 -4.14172e-15 -0)
(2.00698e-29 -4.14172e-15 -0)
(-3.02941e-30 -4.14172e-15 -0)
(-1.74191e-29 -4.14172e-15 -0)
(-1.17389e-29 -4.14172e-15 -0)
(-8.70954e-30 -4.14172e-15 -0)
(-2.27205e-30 -4.14172e-15 -0)
(-3.78676e-31 -4.14172e-15 -0)
(-6.43749e-30 -4.14172e-15 -0)
(-1.13603e-29 -4.14172e-15 -0)
(3.40808e-30 -4.14172e-15 -0)
(1.66617e-29 -4.14172e-15 -0)
(3.78676e-31 -4.14172e-15 -0)
(-1.77978e-29 -4.14172e-15 -0)
(-1.36323e-29 -4.14172e-15 -0)
(-7.57351e-30 -4.14172e-15 -0)
(3.40808e-30 -4.14172e-15 -0)
(4.54411e-30 -4.14172e-15 -0)
(-3.40808e-30 -4.14172e-15 -0)
(1.13603e-30 -4.14172e-15 -0)
(-5.30146e-30 -4.14172e-15 -0)
(1.4011e-29 -4.14172e-15 -0)
(2.42352e-29 -4.14172e-15 -0)
(1.02242e-29 -4.14172e-15 -0)
(-6.43749e-30 -4.14172e-15 -0)
(-2.61286e-29 -4.14172e-15 -0)
(-2.65073e-30 -4.14172e-15 -0)
(8.33087e-30 -4.14172e-15 -0)
(-7.95219e-30 -4.14172e-15 -0)
(-5.30146e-30 -4.14172e-15 -0)
(5.68014e-30 -4.14172e-15 -0)
(9.46689e-30 -4.14172e-15 -0)
(3.40808e-30 -4.14172e-15 -0)
(2.27205e-30 -4.14172e-15 -0)
(3.02941e-30 -4.14172e-15 -0)
(-5.68014e-30 -4.14172e-15 -0)
(3.78676e-30 -4.14172e-15 -0)
(1.85551e-29 -4.14172e-15 -0)
(1.70404e-29 -4.14172e-15 -0)
(1.4011e-29 -4.14172e-15 -0)
(1.89338e-30 -4.14172e-15 -0)
(-3.78676e-30 -4.14172e-15 -0)
(-2.65073e-30 -4.14172e-15 -0)
(3.40808e-30 -4.14172e-15 -0)
(5.30146e-30 -4.14172e-15 -0)
(1.5147e-30 -4.14172e-15 -0)
(-5.30146e-30 -4.14172e-15 -0)
(3.78676e-30 -4.14172e-15 -0)
(1.4011e-29 -4.14172e-15 -0)
(-1.17389e-29 -4.14172e-15 -0)
(-2.00698e-29 -4.14172e-15 -0)
(-1.47684e-29 -4.14172e-15 -0)
(-2.23419e-29 -4.14172e-15 -0)
(-1.21176e-29 -4.14172e-15 -0)
(7.72044e-30 -4.14172e-15 -0)
(1.21321e-29 -4.14172e-15 -0)