/*--------------------------------*- C++ -*----------------------------------*\
| =========                 |                                                 |
| \\      /  F ield         | foam-extend: Open Source CFD                    |
|  \\    /   O peration     | Version:     4.0                                |
|   \\  /    A nd           | Web:         http://www.foam-extend.org         |
|    \\/     M anipulation  |                                                 |
\*---------------------------------------------------------------------------*/
FoamFile
{
    version     2.0;
    format      ascii;
    class       volScalarField;
    location    "1230";
    object      psiE;
}
// * * * * * * * * * * * * * * * * * * * * * * * * * * * * * * * * * * * * * //

dimensions      [0 0 0 0 0 0 0];

internalField   nonuniform List<scalar> 
6960
(
0.33102
0.331023
0.331028
0.331032
0.331037
0.331041
0.331045
0.331049
0.331053
0.331056
0.331059
0.331062
0.331064
0.331067
0.331069
0.331071
0.331072
0.331074
0.331075
0.331077
0.331078
0.331079
0.33108
0.33108
0.331081
0.331081
0.331082
0.331082
0.331082
0.331082
0.331082
0.331082
0.331082
0.331082
0.331081
0.331081
0.33108
0.33108
0.331079
0.331078
0.331077
0.331075
0.331074
0.331072
0.331071
0.331069
0.331067
0.331064
0.331062
0.331059
0.331056
0.331053
0.331049
0.331045
0.331041
0.331037
0.331032
0.331028
0.331023
0.33102
0.820282
0.820296
0.820314
0.820333
0.820351
0.820368
0.820385
0.8204
0.820414
0.820427
0.820439
0.82045
0.820461
0.82047
0.820478
0.820486
0.820493
0.820499
0.820504
0.820509
0.820513
0.820517
0.82052
0.820523
0.820525
0.820527
0.820529
0.82053
0.820531
0.820531
0.820531
0.820531
0.82053
0.820529
0.820527
0.820525
0.820523
0.82052
0.820517
0.820513
0.820509
0.820504
0.820499
0.820493
0.820486
0.820478
0.82047
0.820461
0.82045
0.820439
0.820427
0.820414
0.8204
0.820385
0.820368
0.820351
0.820333
0.820314
0.820296
0.820282
1.25718
1.25721
1.25725
1.25728
1.25732
1.25735
1.25739
1.25742
1.25745
1.25747
1.25749
1.25752
1.25754
1.25755
1.25757
1.25759
1.2576
1.25761
1.25762
1.25763
1.25764
1.25765
1.25765
1.25766
1.25766
1.25767
1.25767
1.25767
1.25767
1.25767
1.25767
1.25767
1.25767
1.25767
1.25767
1.25766
1.25766
1.25765
1.25765
1.25764
1.25763
1.25762
1.25761
1.2576
1.25759
1.25757
1.25755
1.25754
1.25752
1.25749
1.25747
1.25745
1.25742
1.25739
1.25735
1.25732
1.25728
1.25725
1.25721
1.25718
1.67809
1.67813
1.67819
1.67825
1.6783
1.67836
1.67841
1.67846
1.6785
1.67854
1.67858
1.67861
1.67864
1.67867
1.6787
1.67872
1.67874
1.67876
1.67878
1.67879
1.67881
1.67882
1.67883
1.67884
1.67884
1.67885
1.67885
1.67886
1.67886
1.67886
1.67886
1.67886
1.67886
1.67885
1.67885
1.67884
1.67884
1.67883
1.67882
1.67881
1.67879
1.67878
1.67876
1.67874
1.67872
1.6787
1.67867
1.67864
1.67861
1.67858
1.67854
1.6785
1.67846
1.67841
1.67836
1.6783
1.67825
1.67819
1.67813
1.67809
2.09751
2.09757
2.09765
2.09773
2.09781
2.09789
2.09796
2.09802
2.09809
2.09814
2.0982
2.09824
2.09829
2.09833
2.09836
2.0984
2.09843
2.09845
2.09847
2.0985
2.09851
2.09853
2.09854
2.09856
2.09857
2.09857
2.09858
2.09858
2.09859
2.09859
2.09859
2.09859
2.09858
2.09858
2.09857
2.09857
2.09856
2.09854
2.09853
2.09851
2.0985
2.09847
2.09845
2.09843
2.0984
2.09836
2.09833
2.09829
2.09824
2.0982
2.09814
2.09809
2.09802
2.09796
2.09789
2.09781
2.09773
2.09765
2.09757
2.09751
2.52165
2.52173
2.52183
2.52194
2.52204
2.52214
2.52224
2.52232
2.52241
2.52248
2.52255
2.52261
2.52267
2.52272
2.52277
2.52281
2.52285
2.52288
2.52291
2.52294
2.52296
2.52298
2.523
2.52301
2.52303
2.52304
2.52305
2.52305
2.52306
2.52306
2.52306
2.52306
2.52305
2.52305
2.52304
2.52303
2.52301
2.523
2.52298
2.52296
2.52294
2.52291
2.52288
2.52285
2.52281
2.52277
2.52272
2.52267
2.52261
2.52255
2.52248
2.52241
2.52232
2.52224
2.52214
2.52204
2.52194
2.52183
2.52173
2.52165
2.95323
2.95333
2.95346
2.95359
2.95372
2.95384
2.95396
2.95407
2.95417
2.95426
2.95434
2.95442
2.95449
2.95456
2.95461
2.95467
2.95471
2.95476
2.95479
2.95483
2.95486
2.95488
2.9549
2.95492
2.95494
2.95495
2.95496
2.95497
2.95497
2.95498
2.95498
2.95497
2.95497
2.95496
2.95495
2.95494
2.95492
2.9549
2.95488
2.95486
2.95483
2.95479
2.95476
2.95471
2.95467
2.95461
2.95456
2.95449
2.95442
2.95434
2.95426
2.95417
2.95407
2.95396
2.95384
2.95372
2.95359
2.95346
2.95333
2.95323
3.39344
3.39356
3.39371
3.39387
3.39402
3.39417
3.39431
3.39444
3.39456
3.39467
3.39477
3.39487
3.39495
3.39503
3.3951
3.39516
3.39522
3.39527
3.39531
3.39535
3.39539
3.39542
3.39544
3.39547
3.39548
3.3955
3.39551
3.39552
3.39553
3.39553
3.39553
3.39553
3.39552
3.39551
3.3955
3.39548
3.39547
3.39544
3.39542
3.39539
3.39535
3.39531
3.39527
3.39522
3.39516
3.3951
3.39503
3.39495
3.39487
3.39477
3.39467
3.39456
3.39444
3.39431
3.39417
3.39402
3.39387
3.39371
3.39356
3.39344
3.84279
3.84293
3.84311
3.84329
3.84348
3.84365
3.84381
3.84396
3.8441
3.84423
3.84435
3.84446
3.84456
3.84465
3.84473
3.8448
3.84487
3.84493
3.84498
3.84503
3.84507
3.8451
3.84513
3.84516
3.84518
3.8452
3.84521
3.84522
3.84523
3.84523
3.84523
3.84523
3.84522
3.84521
3.8452
3.84518
3.84516
3.84513
3.8451
3.84507
3.84503
3.84498
3.84493
3.84487
3.8448
3.84473
3.84465
3.84456
3.84446
3.84435
3.84423
3.8441
3.84396
3.84381
3.84365
3.84348
3.84329
3.84311
3.84293
3.84279
4.30151
4.30167
4.30188
4.30209
4.3023
4.3025
4.30268
4.30286
4.30302
4.30316
4.3033
4.30342
4.30354
4.30364
4.30373
4.30382
4.30389
4.30396
4.30402
4.30407
4.30412
4.30416
4.3042
4.30423
4.30425
4.30427
4.30429
4.3043
4.30431
4.30431
4.30431
4.30431
4.3043
4.30429
4.30427
4.30425
4.30423
4.3042
4.30416
4.30412
4.30407
4.30402
4.30396
4.30389
4.30382
4.30373
4.30364
4.30354
4.30342
4.3033
4.30316
4.30302
4.30286
4.30268
4.3025
4.3023
4.30209
4.30188
4.30167
4.30151
4.76969
4.76987
4.7701
4.77034
4.77058
4.7708
4.77101
4.77121
4.77139
4.77155
4.77171
4.77185
4.77197
4.77209
4.7722
4.77229
4.77238
4.77245
4.77252
4.77258
4.77263
4.77268
4.77272
4.77275
4.77278
4.7728
4.77282
4.77284
4.77285
4.77285
4.77285
4.77285
4.77284
4.77282
4.7728
4.77278
4.77275
4.77272
4.77268
4.77263
4.77258
4.77252
4.77245
4.77238
4.77229
4.7722
4.77209
4.77197
4.77185
4.77171
4.77155
4.77139
4.77121
4.77101
4.7708
4.77058
4.77034
4.7701
4.76987
4.76969
5.24734
5.24754
5.2478
5.24806
5.24833
5.24858
5.24881
5.24903
5.24923
5.24942
5.24959
5.24974
5.24989
5.25002
5.25013
5.25024
5.25033
5.25042
5.2505
5.25056
5.25062
5.25067
5.25072
5.25075
5.25079
5.25081
5.25083
5.25085
5.25086
5.25086
5.25086
5.25086
5.25085
5.25083
5.25081
5.25079
5.25075
5.25072
5.25067
5.25062
5.25056
5.2505
5.25042
5.25033
5.25024
5.25013
5.25002
5.24989
5.24974
5.24959
5.24942
5.24923
5.24903
5.24881
5.24858
5.24833
5.24806
5.2478
5.24754
5.24734
5.73444
5.73466
5.73494
5.73524
5.73553
5.7358
5.73606
5.7363
5.73653
5.73673
5.73692
5.73709
5.73725
5.73739
5.73752
5.73764
5.73774
5.73784
5.73792
5.73799
5.73806
5.73812
5.73816
5.73821
5.73824
5.73827
5.73829
5.73831
5.73832
5.73833
5.73833
5.73832
5.73831
5.73829
5.73827
5.73824
5.73821
5.73816
5.73812
5.73806
5.73799
5.73792
5.73784
5.73774
5.73764
5.73752
5.73739
5.73725
5.73709
5.73692
5.73673
5.73653
5.7363
5.73606
5.7358
5.73553
5.73524
5.73494
5.73466
5.73444
6.23093
6.23117
6.23148
6.2318
6.23212
6.23242
6.2327
6.23297
6.23321
6.23343
6.23364
6.23383
6.234
6.23416
6.2343
6.23443
6.23454
6.23464
6.23473
6.23482
6.23489
6.23495
6.235
6.23505
6.23509
6.23512
6.23514
6.23516
6.23517
6.23518
6.23518
6.23517
6.23516
6.23514
6.23512
6.23509
6.23505
6.235
6.23495
6.23489
6.23482
6.23473
6.23464
6.23454
6.23443
6.2343
6.23416
6.234
6.23383
6.23364
6.23343
6.23321
6.23297
6.2327
6.23242
6.23212
6.2318
6.23148
6.23117
6.23093
6.73671
6.73697
6.73731
6.73766
6.738
6.73833
6.73864
6.73893
6.73919
6.73943
6.73966
6.73986
6.74005
6.74022
6.74037
6.74051
6.74064
6.74075
6.74085
6.74094
6.74101
6.74108
6.74114
6.74119
6.74123
6.74127
6.74129
6.74131
6.74132
6.74133
6.74133
6.74132
6.74131
6.74129
6.74127
6.74123
6.74119
6.74114
6.74108
6.74101
6.74094
6.74085
6.74075
6.74064
6.74051
6.74037
6.74022
6.74005
6.73986
6.73966
6.73943
6.73919
6.73893
6.73864
6.73833
6.738
6.73766
6.73731
6.73697
6.73671
7.25167
7.25195
7.25231
7.25269
7.25306
7.25342
7.25375
7.25406
7.25434
7.25461
7.25485
7.25507
7.25527
7.25546
7.25562
7.25577
7.25591
7.25603
7.25614
7.25623
7.25631
7.25639
7.25645
7.2565
7.25655
7.25659
7.25661
7.25664
7.25665
7.25666
7.25666
7.25665
7.25664
7.25661
7.25659
7.25655
7.2565
7.25645
7.25639
7.25631
7.25623
7.25614
7.25603
7.25591
7.25577
7.25562
7.25546
7.25527
7.25507
7.25485
7.25461
7.25434
7.25406
7.25375
7.25342
7.25306
7.25269
7.25231
7.25195
7.25167
7.77564
7.77594
7.77633
7.77673
7.77713
7.77751
7.77787
7.7782
7.77851
7.77879
7.77905
7.77929
7.77951
7.7797
7.77988
7.78004
7.78019
7.78032
7.78043
7.78053
7.78062
7.7807
7.78077
7.78083
7.78088
7.78092
7.78095
7.78097
7.78098
7.78099
7.78099
7.78098
7.78097
7.78095
7.78092
7.78088
7.78083
7.78077
7.7807
7.78062
7.78053
7.78043
7.78032
7.78019
7.78004
7.77988
7.7797
7.77951
7.77929
7.77905
7.77879
7.77851
7.7782
7.77787
7.77751
7.77713
7.77673
7.77633
7.77594
7.77564
8.30842
8.30873
8.30915
8.30959
8.31001
8.31042
8.3108
8.31115
8.31148
8.31178
8.31206
8.31232
8.31255
8.31276
8.31295
8.31312
8.31327
8.31341
8.31354
8.31364
8.31374
8.31382
8.3139
8.31396
8.31401
8.31405
8.31409
8.31411
8.31413
8.31413
8.31413
8.31413
8.31411
8.31409
8.31405
8.31401
8.31396
8.3139
8.31382
8.31374
8.31364
8.31354
8.31341
8.31327
8.31312
8.31295
8.31276
8.31255
8.31232
8.31206
8.31178
8.31148
8.31115
8.3108
8.31042
8.31001
8.30959
8.30915
8.30873
8.30842
8.84975
8.85009
8.85053
8.85099
8.85145
8.85188
8.85228
8.85266
8.85301
8.85333
8.85363
8.8539
8.85414
8.85437
8.85457
8.85475
8.85492
8.85506
8.8552
8.85531
8.85541
8.8555
8.85558
8.85564
8.8557
8.85574
8.85578
8.85581
8.85582
8.85583
8.85583
8.85582
8.85581
8.85578
8.85574
8.8557
8.85564
8.85558
8.8555
8.85541
8.85531
8.8552
8.85506
8.85492
8.85475
8.85457
8.85437
8.85414
8.8539
8.85363
8.85333
8.85301
8.85266
8.85228
8.85188
8.85145
8.85099
8.85053
8.85009
8.84975
9.39934
9.3997
9.40017
9.40066
9.40114
9.4016
9.40203
9.40242
9.40279
9.40313
9.40345
9.40373
9.40399
9.40423
9.40445
9.40464
9.40481
9.40497
9.40511
9.40523
9.40534
9.40543
9.40552
9.40559
9.40564
9.40569
9.40573
9.40576
9.40577
9.40578
9.40578
9.40577
9.40576
9.40573
9.40569
9.40564
9.40559
9.40552
9.40543
9.40534
9.40523
9.40511
9.40497
9.40481
9.40464
9.40445
9.40423
9.40399
9.40373
9.40345
9.40313
9.40279
9.40242
9.40203
9.4016
9.40114
9.40066
9.40017
9.3997
9.39934
9.95684
9.95721
9.95771
9.95822
9.95873
9.95921
9.95966
9.96009
9.96048
9.96084
9.96117
9.96147
9.96174
9.96199
9.96222
9.96242
9.96261
9.96277
9.96292
9.96305
9.96316
9.96326
9.96335
9.96342
9.96348
9.96353
9.96357
9.9636
9.96362
9.96363
9.96363
9.96362
9.9636
9.96357
9.96353
9.96348
9.96342
9.96335
9.96326
9.96316
9.96305
9.96292
9.96277
9.96261
9.96242
9.96222
9.96199
9.96174
9.96147
9.96117
9.96084
9.96048
9.96009
9.95966
9.95921
9.95873
9.95822
9.95771
9.95721
9.95684
10.5218
10.5222
10.5227
10.5233
10.5238
10.5243
10.5248
10.5252
10.5256
10.526
10.5264
10.5267
10.527
10.5272
10.5275
10.5277
10.5279
10.528
10.5282
10.5283
10.5285
10.5286
10.5287
10.5287
10.5288
10.5288
10.5289
10.5289
10.5289
10.5289
10.5289
10.5289
10.5289
10.5289
10.5288
10.5288
10.5287
10.5287
10.5286
10.5285
10.5283
10.5282
10.528
10.5279
10.5277
10.5275
10.5272
10.527
10.5267
10.5264
10.526
10.5256
10.5252
10.5248
10.5243
10.5238
10.5233
10.5227
10.5222
10.5218
11.0938
11.0942
11.0947
11.0953
11.0958
11.0964
11.0969
11.0973
11.0978
11.0982
11.0985
11.0989
11.0992
11.0994
11.0997
11.0999
11.1001
11.1003
11.1005
11.1006
11.1007
11.1008
11.1009
11.101
11.1011
11.1011
11.1012
11.1012
11.1012
11.1012
11.1012
11.1012
11.1012
11.1012
11.1011
11.1011
11.101
11.1009
11.1008
11.1007
11.1006
11.1005
11.1003
11.1001
11.0999
11.0997
11.0994
11.0992
11.0989
11.0985
11.0982
11.0978
11.0973
11.0969
11.0964
11.0958
11.0953
11.0947
11.0942
11.0938
11.6721
11.6725
11.6731
11.6737
11.6743
11.6748
11.6754
11.6758
11.6763
11.6767
11.6771
11.6774
11.6778
11.678
11.6783
11.6785
11.6787
11.6789
11.6791
11.6793
11.6794
11.6795
11.6796
11.6797
11.6798
11.6798
11.6799
11.6799
11.6799
11.6799
11.6799
11.6799
11.6799
11.6799
11.6798
11.6798
11.6797
11.6796
11.6795
11.6794
11.6793
11.6791
11.6789
11.6787
11.6785
11.6783
11.678
11.6778
11.6774
11.6771
11.6767
11.6763
11.6758
11.6754
11.6748
11.6743
11.6737
11.6731
11.6725
11.6721
12.2562
12.2567
12.2573
12.2579
12.2585
12.259
12.2596
12.2601
12.2606
12.261
12.2614
12.2617
12.2621
12.2624
12.2626
12.2629
12.2631
12.2633
12.2635
12.2636
12.2638
12.2639
12.264
12.2641
12.2642
12.2642
12.2643
12.2643
12.2643
12.2643
12.2643
12.2643
12.2643
12.2643
12.2642
12.2642
12.2641
12.264
12.2639
12.2638
12.2636
12.2635
12.2633
12.2631
12.2629
12.2626
12.2624
12.2621
12.2617
12.2614
12.261
12.2606
12.2601
12.2596
12.259
12.2585
12.2579
12.2573
12.2567
12.2562
12.8453
12.8457
12.8463
12.847
12.8476
12.8482
12.8488
12.8493
12.8498
12.8502
12.8506
12.851
12.8513
12.8517
12.8519
12.8522
12.8524
12.8526
12.8528
12.853
12.8531
12.8532
12.8533
12.8534
12.8535
12.8536
12.8536
12.8537
12.8537
12.8537
12.8537
12.8537
12.8537
12.8536
12.8536
12.8535
12.8534
12.8533
12.8532
12.8531
12.853
12.8528
12.8526
12.8524
12.8522
12.8519
12.8517
12.8513
12.851
12.8506
12.8502
12.8498
12.8493
12.8488
12.8482
12.8476
12.847
12.8463
12.8457
12.8453
13.4384
13.4389
13.4395
13.4402
13.4408
13.4414
13.442
13.4426
13.4431
13.4435
13.4439
13.4443
13.4447
13.445
13.4453
13.4456
13.4458
13.446
13.4462
13.4464
13.4465
13.4466
13.4467
13.4468
13.4469
13.447
13.447
13.4471
13.4471
13.4471
13.4471
13.4471
13.4471
13.447
13.447
13.4469
13.4468
13.4467
13.4466
13.4465
13.4464
13.4462
13.446
13.4458
13.4456
13.4453
13.445
13.4447
13.4443
13.4439
13.4435
13.4431
13.4426
13.442
13.4414
13.4408
13.4402
13.4395
13.4389
13.4384
14.0346
14.0351
14.0357
14.0364
14.0371
14.0377
14.0383
14.0389
14.0394
14.0398
14.0403
14.0407
14.041
14.0414
14.0417
14.0419
14.0422
14.0424
14.0426
14.0428
14.0429
14.0431
14.0432
14.0433
14.0433
14.0434
14.0435
14.0435
14.0435
14.0435
14.0435
14.0435
14.0435
14.0435
14.0434
14.0433
14.0433
14.0432
14.0431
14.0429
14.0428
14.0426
14.0424
14.0422
14.0419
14.0417
14.0414
14.041
14.0407
14.0403
14.0398
14.0394
14.0389
14.0383
14.0377
14.0371
14.0364
14.0357
14.0351
14.0346
14.6326
14.6331
14.6338
14.6345
14.6352
14.6358
14.6364
14.637
14.6375
14.638
14.6385
14.6389
14.6392
14.6396
14.6399
14.6402
14.6404
14.6406
14.6408
14.641
14.6412
14.6413
14.6414
14.6415
14.6416
14.6417
14.6417
14.6418
14.6418
14.6418
14.6418
14.6418
14.6418
14.6417
14.6417
14.6416
14.6415
14.6414
14.6413
14.6412
14.641
14.6408
14.6406
14.6404
14.6402
14.6399
14.6396
14.6392
14.6389
14.6385
14.638
14.6375
14.637
14.6364
14.6358
14.6352
14.6345
14.6338
14.6331
14.6326
15.2311
15.2317
15.2323
15.2331
15.2338
15.2344
15.2351
15.2356
15.2362
15.2367
15.2371
15.2375
15.2379
15.2383
15.2386
15.2389
15.2391
15.2394
15.2396
15.2397
15.2399
15.24
15.2402
15.2403
15.2404
15.2404
15.2405
15.2405
15.2406
15.2406
15.2406
15.2406
15.2405
15.2405
15.2404
15.2404
15.2403
15.2402
15.24
15.2399
15.2397
15.2396
15.2394
15.2391
15.2389
15.2386
15.2383
15.2379
15.2375
15.2371
15.2367
15.2362
15.2356
15.2351
15.2344
15.2338
15.2331
15.2323
15.2317
15.2311
15.8286
15.8291
15.8298
15.8306
15.8313
15.832
15.8326
15.8332
15.8337
15.8342
15.8347
15.8351
15.8355
15.8359
15.8362
15.8365
15.8367
15.837
15.8372
15.8374
15.8375
15.8377
15.8378
15.8379
15.838
15.8381
15.8381
15.8382
15.8382
15.8382
15.8382
15.8382
15.8382
15.8381
15.8381
15.838
15.8379
15.8378
15.8377
15.8375
15.8374
15.8372
15.837
15.8367
15.8365
15.8362
15.8359
15.8355
15.8351
15.8347
15.8342
15.8337
15.8332
15.8326
15.832
15.8313
15.8306
15.8298
15.8291
15.8286
16.4232
16.4237
16.4245
16.4252
16.4259
16.4266
16.4272
16.4278
16.4284
16.4289
16.4294
16.4298
16.4302
16.4306
16.4309
16.4312
16.4315
16.4317
16.4319
16.4321
16.4323
16.4324
16.4325
16.4326
16.4327
16.4328
16.4329
16.4329
16.4329
16.4329
16.4329
16.4329
16.4329
16.4329
16.4328
16.4327
16.4326
16.4325
16.4324
16.4323
16.4321
16.4319
16.4317
16.4315
16.4312
16.4309
16.4306
16.4302
16.4298
16.4294
16.4289
16.4284
16.4278
16.4272
16.4266
16.4259
16.4252
16.4245
16.4237
16.4232
17.0128
17.0134
17.0141
17.0148
17.0156
17.0163
17.0169
17.0175
17.0181
17.0186
17.0191
17.0195
17.0199
17.0203
17.0206
17.0209
17.0212
17.0214
17.0216
17.0218
17.022
17.0221
17.0222
17.0223
17.0224
17.0225
17.0226
17.0226
17.0226
17.0227
17.0227
17.0226
17.0226
17.0226
17.0225
17.0224
17.0223
17.0222
17.0221
17.022
17.0218
17.0216
17.0214
17.0212
17.0209
17.0206
17.0203
17.0199
17.0195
17.0191
17.0186
17.0181
17.0175
17.0169
17.0163
17.0156
17.0148
17.0141
17.0134
17.0128
17.595
17.5956
17.5963
17.5971
17.5978
17.5985
17.5991
17.5997
17.6003
17.6008
17.6013
17.6017
17.6021
17.6025
17.6028
17.6031
17.6034
17.6036
17.6039
17.6041
17.6042
17.6044
17.6045
17.6046
17.6047
17.6048
17.6048
17.6049
17.6049
17.6049
17.6049
17.6049
17.6049
17.6048
17.6048
17.6047
17.6046
17.6045
17.6044
17.6042
17.6041
17.6039
17.6036
17.6034
17.6031
17.6028
17.6025
17.6021
17.6017
17.6013
17.6008
17.6003
17.5997
17.5991
17.5985
17.5978
17.5971
17.5963
17.5956
17.595
18.167
18.1676
18.1683
18.1691
18.1698
18.1705
18.1711
18.1717
18.1723
18.1728
18.1733
18.1737
18.1741
18.1745
18.1748
18.1751
18.1754
18.1756
18.1758
18.176
18.1762
18.1763
18.1765
18.1766
18.1767
18.1767
18.1768
18.1768
18.1769
18.1769
18.1769
18.1769
18.1768
18.1768
18.1767
18.1767
18.1766
18.1765
18.1763
18.1762
18.176
18.1758
18.1756
18.1754
18.1751
18.1748
18.1745
18.1741
18.1737
18.1733
18.1728
18.1723
18.1717
18.1711
18.1705
18.1698
18.1691
18.1683
18.1676
18.167
18.7255
18.726
18.7267
18.7275
18.7282
18.7288
18.7295
18.7301
18.7306
18.7311
18.7316
18.732
18.7324
18.7328
18.7331
18.7334
18.7337
18.7339
18.7341
18.7343
18.7345
18.7346
18.7348
18.7349
18.735
18.735
18.7351
18.7351
18.7352
18.7352
18.7352
18.7352
18.7351
18.7351
18.735
18.735
18.7349
18.7348
18.7346
18.7345
18.7343
18.7341
18.7339
18.7337
18.7334
18.7331
18.7328
18.7324
18.732
18.7316
18.7311
18.7306
18.7301
18.7295
18.7288
18.7282
18.7275
18.7267
18.726
18.7255
19.2664
19.2669
19.2676
19.2683
19.269
19.2697
19.2703
19.2709
19.2714
19.2719
19.2724
19.2728
19.2732
19.2736
19.2739
19.2742
19.2744
19.2747
19.2749
19.2751
19.2752
19.2754
19.2755
19.2756
19.2757
19.2758
19.2758
19.2759
19.2759
19.2759
19.2759
19.2759
19.2759
19.2758
19.2758
19.2757
19.2756
19.2755
19.2754
19.2752
19.2751
19.2749
19.2747
19.2744
19.2742
19.2739
19.2736
19.2732
19.2728
19.2724
19.2719
19.2714
19.2709
19.2703
19.2697
19.269
19.2683
19.2676
19.2669
19.2664
19.7851
19.7857
19.7863
19.787
19.7877
19.7883
19.7889
19.7895
19.79
19.7905
19.7909
19.7914
19.7917
19.7921
19.7924
19.7927
19.7929
19.7931
19.7933
19.7935
19.7937
19.7938
19.7939
19.794
19.7941
19.7942
19.7942
19.7943
19.7943
19.7943
19.7943
19.7943
19.7943
19.7942
19.7942
19.7941
19.794
19.7939
19.7938
19.7937
19.7935
19.7933
19.7931
19.7929
19.7927
19.7924
19.7921
19.7917
19.7914
19.7909
19.7905
19.79
19.7895
19.7889
19.7883
19.7877
19.787
19.7863
19.7857
19.7851
20.2762
20.2767
20.2773
20.278
20.2786
20.2792
20.2798
20.2803
20.2808
20.2813
20.2817
20.2821
20.2825
20.2828
20.2831
20.2833
20.2836
20.2838
20.284
20.2842
20.2843
20.2845
20.2846
20.2847
20.2847
20.2848
20.2849
20.2849
20.2849
20.2849
20.2849
20.2849
20.2849
20.2849
20.2848
20.2847
20.2847
20.2846
20.2845
20.2843
20.2842
20.284
20.2838
20.2836
20.2833
20.2831
20.2828
20.2825
20.2821
20.2817
20.2813
20.2808
20.2803
20.2798
20.2792
20.2786
20.278
20.2773
20.2767
20.2762
20.7332
20.7337
20.7343
20.7349
20.7355
20.736
20.7365
20.737
20.7375
20.7379
20.7383
20.7387
20.739
20.7393
20.7396
20.7398
20.7401
20.7403
20.7404
20.7406
20.7408
20.7409
20.741
20.7411
20.7412
20.7412
20.7413
20.7413
20.7413
20.7413
20.7413
20.7413
20.7413
20.7413
20.7412
20.7412
20.7411
20.741
20.7409
20.7408
20.7406
20.7404
20.7403
20.7401
20.7398
20.7396
20.7393
20.739
20.7387
20.7383
20.7379
20.7375
20.737
20.7365
20.736
20.7355
20.7349
20.7343
20.7337
20.7332
21.1492
21.1496
21.1501
21.1507
21.1512
21.1517
21.1522
21.1526
21.153
21.1534
21.1538
21.1541
21.1544
21.1547
21.1549
21.1552
21.1554
21.1555
21.1557
21.1559
21.156
21.1561
21.1562
21.1563
21.1564
21.1564
21.1565
21.1565
21.1565
21.1565
21.1565
21.1565
21.1565
21.1565
21.1564
21.1564
21.1563
21.1562
21.1561
21.156
21.1559
21.1557
21.1555
21.1554
21.1552
21.1549
21.1547
21.1544
21.1541
21.1538
21.1534
21.153
21.1526
21.1522
21.1517
21.1512
21.1507
21.1501
21.1496
21.1492
21.5174
21.5178
21.5182
21.5187
21.5191
21.5196
21.52
21.5204
21.5207
21.5211
21.5214
21.5217
21.5219
21.5222
21.5224
21.5226
21.5228
21.5229
21.5231
21.5232
21.5233
21.5234
21.5235
21.5236
21.5237
21.5237
21.5238
21.5238
21.5238
21.5238
21.5238
21.5238
21.5238
21.5238
21.5237
21.5237
21.5236
21.5235
21.5234
21.5233
21.5232
21.5231
21.5229
21.5228
21.5226
21.5224
21.5222
21.5219
21.5217
21.5214
21.5211
21.5207
21.5204
21.52
21.5196
21.5191
21.5187
21.5182
21.5178
21.5174
21.8329
21.8332
21.8336
21.834
21.8344
21.8347
21.8351
21.8354
21.8357
21.836
21.8363
21.8365
21.8367
21.8369
21.8371
21.8373
21.8374
21.8376
21.8377
21.8378
21.8379
21.838
21.8381
21.8382
21.8382
21.8383
21.8383
21.8383
21.8383
21.8383
21.8383
21.8383
21.8383
21.8383
21.8383
21.8382
21.8382
21.8381
21.838
21.8379
21.8378
21.8377
21.8376
21.8374
21.8373
21.8371
21.8369
21.8367
21.8365
21.8363
21.836
21.8357
21.8354
21.8351
21.8347
21.8344
21.834
21.8336
21.8332
21.8329
22.0946
22.0948
22.0951
22.0954
22.0957
22.096
22.0963
22.0965
22.0968
22.097
22.0972
22.0974
22.0976
22.0978
22.0979
22.0981
22.0982
22.0983
22.0984
22.0985
22.0986
22.0987
22.0987
22.0988
22.0989
22.0989
22.0989
22.0989
22.099
22.099
22.099
22.099
22.0989
22.0989
22.0989
22.0989
22.0988
22.0987
22.0987
22.0986
22.0985
22.0984
22.0983
22.0982
22.0981
22.0979
22.0978
22.0976
22.0974
22.0972
22.097
22.0968
22.0965
22.0963
22.096
22.0957
22.0954
22.0951
22.0948
22.0946
22.3058
22.3059
22.3061
22.3064
22.3066
22.3068
22.307
22.3072
22.3074
22.3076
22.3078
22.3079
22.3081
22.3082
22.3083
22.3085
22.3086
22.3087
22.3088
22.3088
22.3089
22.309
22.309
22.3091
22.3091
22.3091
22.3092
22.3092
22.3092
22.3092
22.3092
22.3092
22.3092
22.3092
22.3091
22.3091
22.3091
22.309
22.309
22.3089
22.3088
22.3088
22.3087
22.3086
22.3085
22.3083
22.3082
22.3081
22.3079
22.3078
22.3076
22.3074
22.3072
22.307
22.3068
22.3066
22.3064
22.3061
22.3059
22.3058
22.4739
22.474
22.4741
22.4743
22.4745
22.4746
22.4748
22.4749
22.4751
22.4752
22.4754
22.4755
22.4756
22.4757
22.4758
22.4759
22.476
22.4761
22.4762
22.4762
22.4763
22.4763
22.4764
22.4764
22.4765
22.4765
22.4765
22.4765
22.4765
22.4765
22.4765
22.4765
22.4765
22.4765
22.4765
22.4765
22.4764
22.4764
22.4763
22.4763
22.4762
22.4762
22.4761
22.476
22.4759
22.4758
22.4757
22.4756
22.4755
22.4754
22.4752
22.4751
22.4749
22.4748
22.4746
22.4745
22.4743
22.4741
22.474
22.4739
22.6081
22.6082
22.6083
22.6084
22.6086
22.6087
22.6088
22.6089
22.609
22.6092
22.6093
22.6094
22.6095
22.6096
22.6096
22.6097
22.6098
22.6099
22.6099
22.61
22.61
22.6101
22.6101
22.6102
22.6102
22.6102
22.6102
22.6102
22.6103
22.6103
22.6103
22.6103
22.6102
22.6102
22.6102
22.6102
22.6102
22.6101
22.6101
22.61
22.61
22.6099
22.6099
22.6098
22.6097
22.6096
22.6096
22.6095
22.6094
22.6093
22.6092
22.609
22.6089
22.6088
22.6087
22.6086
22.6084
22.6083
22.6082
22.6081
22.7174
22.7175
22.7175
22.7176
22.7177
22.7178
22.7179
22.718
22.7181
22.7182
22.7183
22.7184
22.7185
22.7185
22.7186
22.7187
22.7187
22.7188
22.7189
22.7189
22.719
22.719
22.719
22.7191
22.7191
22.7191
22.7191
22.7191
22.7192
22.7192
22.7192
22.7192
22.7191
22.7191
22.7191
22.7191
22.7191
22.719
22.719
22.719
22.7189
22.7189
22.7188
22.7187
22.7187
22.7186
22.7185
22.7185
22.7184
22.7183
22.7182
22.7181
22.718
22.7179
22.7178
22.7177
22.7176
22.7175
22.7175
22.7174
22.8088
22.8088
22.8089
22.809
22.809
22.8091
22.8092
22.8093
22.8094
22.8094
22.8095
22.8096
22.8097
22.8097
22.8098
22.8099
22.8099
22.81
22.81
22.8101
22.8101
22.8101
22.8102
22.8102
22.8102
22.8103
22.8103
22.8103
22.8103
22.8103
22.8103
22.8103
22.8103
22.8103
22.8103
22.8102
22.8102
22.8102
22.8101
22.8101
22.8101
22.81
22.81
22.8099
22.8099
22.8098
22.8097
22.8097
22.8096
22.8095
22.8094
22.8094
22.8093
22.8092
22.8091
22.809
22.809
22.8089
22.8088
22.8088
22.8874
22.8874
22.8875
22.8875
22.8876
22.8876
22.8877
22.8878
22.8878
22.8879
22.888
22.888
22.8881
22.8882
22.8882
22.8883
22.8883
22.8884
22.8885
22.8885
22.8885
22.8886
22.8886
22.8886
22.8887
22.8887
22.8887
22.8887
22.8887
22.8887
22.8887
22.8887
22.8887
22.8887
22.8887
22.8887
22.8886
22.8886
22.8886
22.8885
22.8885
22.8885
22.8884
22.8883
22.8883
22.8882
22.8882
22.8881
22.888
22.888
22.8879
22.8878
22.8878
22.8877
22.8876
22.8876
22.8875
22.8875
22.8874
22.8874
22.9566
22.9566
22.9567
22.9567
22.9567
22.9568
22.9569
22.9569
22.957
22.957
22.9571
22.9572
22.9572
22.9573
22.9573
22.9574
22.9575
22.9575
22.9576
22.9576
22.9576
22.9577
22.9577
22.9577
22.9578
22.9578
22.9578
22.9578
22.9578
22.9578
22.9578
22.9578
22.9578
22.9578
22.9578
22.9578
22.9577
22.9577
22.9577
22.9576
22.9576
22.9576
22.9575
22.9575
22.9574
22.9573
22.9573
22.9572
22.9572
22.9571
22.957
22.957
22.9569
22.9569
22.9568
22.9567
22.9567
22.9567
22.9566
22.9566
23.0187
23.0187
23.0187
23.0188
23.0188
23.0189
23.0189
23.019
23.019
23.0191
23.0191
23.0192
23.0193
23.0193
23.0194
23.0194
23.0195
23.0195
23.0196
23.0196
23.0197
23.0197
23.0197
23.0198
23.0198
23.0198
23.0198
23.0198
23.0198
23.0198
23.0198
23.0198
23.0198
23.0198
23.0198
23.0198
23.0198
23.0197
23.0197
23.0197
23.0196
23.0196
23.0195
23.0195
23.0194
23.0194
23.0193
23.0193
23.0192
23.0191
23.0191
23.019
23.019
23.0189
23.0189
23.0188
23.0188
23.0187
23.0187
23.0187
23.0752
23.0752
23.0752
23.0753
23.0753
23.0753
23.0754
23.0754
23.0755
23.0755
23.0756
23.0757
23.0757
23.0758
23.0758
23.0759
23.0759
23.076
23.076
23.0761
23.0761
23.0762
23.0762
23.0762
23.0762
23.0763
23.0763
23.0763
23.0763
23.0763
23.0763
23.0763
23.0763
23.0763
23.0763
23.0762
23.0762
23.0762
23.0762
23.0761
23.0761
23.076
23.076
23.0759
23.0759
23.0758
23.0758
23.0757
23.0757
23.0756
23.0755
23.0755
23.0754
23.0754
23.0753
23.0753
23.0753
23.0752
23.0752
23.0752
23.1272
23.1272
23.1272
23.1273
23.1273
23.1273
23.1274
23.1274
23.1275
23.1275
23.1276
23.1276
23.1277
23.1278
23.1278
23.1279
23.1279
23.128
23.128
23.1281
23.1281
23.1281
23.1282
23.1282
23.1282
23.1282
23.1283
23.1283
23.1283
23.1283
23.1283
23.1283
23.1283
23.1283
23.1282
23.1282
23.1282
23.1282
23.1281
23.1281
23.1281
23.128
23.128
23.1279
23.1279
23.1278
23.1278
23.1277
23.1276
23.1276
23.1275
23.1275
23.1274
23.1274
23.1273
23.1273
23.1273
23.1272
23.1272
23.1272
23.1755
23.1755
23.1755
23.1755
23.1755
23.1756
23.1756
23.1757
23.1757
23.1758
23.1758
23.1759
23.1759
23.176
23.1761
23.1761
23.1762
23.1762
23.1763
23.1763
23.1764
23.1764
23.1764
23.1765
23.1765
23.1765
23.1765
23.1765
23.1765
23.1765
23.1765
23.1765
23.1765
23.1765
23.1765
23.1765
23.1765
23.1764
23.1764
23.1764
23.1763
23.1763
23.1762
23.1762
23.1761
23.1761
23.176
23.1759
23.1759
23.1758
23.1758
23.1757
23.1757
23.1756
23.1756
23.1755
23.1755
23.1755
23.1755
23.1755
23.2206
23.2206
23.2206
23.2206
23.2207
23.2207
23.2207
23.2208
23.2208
23.2209
23.2209
23.221
23.2211
23.2211
23.2212
23.2212
23.2213
23.2213
23.2214
23.2214
23.2215
23.2215
23.2215
23.2216
23.2216
23.2216
23.2216
23.2217
23.2217
23.2217
23.2217
23.2217
23.2217
23.2216
23.2216
23.2216
23.2216
23.2215
23.2215
23.2215
23.2214
23.2214
23.2213
23.2213
23.2212
23.2212
23.2211
23.2211
23.221
23.2209
23.2209
23.2208
23.2208
23.2207
23.2207
23.2207
23.2206
23.2206
23.2206
23.2206
23.263
23.263
23.263
23.2631
23.2631
23.2631
23.2632
23.2632
23.2633
23.2633
23.2634
23.2634
23.2635
23.2636
23.2636
23.2637
23.2637
23.2638
23.2638
23.2639
23.2639
23.264
23.264
23.264
23.2641
23.2641
23.2641
23.2641
23.2641
23.2641
23.2641
23.2641
23.2641
23.2641
23.2641
23.2641
23.264
23.264
23.264
23.2639
23.2639
23.2638
23.2638
23.2637
23.2637
23.2636
23.2636
23.2635
23.2634
23.2634
23.2633
23.2633
23.2632
23.2632
23.2631
23.2631
23.2631
23.263
23.263
23.263
23.3031
23.3031
23.3032
23.3032
23.3032
23.3032
23.3033
23.3033
23.3034
23.3034
23.3035
23.3035
23.3036
23.3037
23.3037
23.3038
23.3038
23.3039
23.304
23.304
23.304
23.3041
23.3041
23.3042
23.3042
23.3042
23.3042
23.3042
23.3042
23.3042
23.3042
23.3042
23.3042
23.3042
23.3042
23.3042
23.3042
23.3041
23.3041
23.304
23.304
23.304
23.3039
23.3038
23.3038
23.3037
23.3037
23.3036
23.3035
23.3035
23.3034
23.3034
23.3033
23.3033
23.3032
23.3032
23.3032
23.3032
23.3031
23.3031
23.3412
23.3412
23.3412
23.3412
23.3413
23.3413
23.3413
23.3414
23.3414
23.3415
23.3416
23.3416
23.3417
23.3417
23.3418
23.3419
23.3419
23.342
23.342
23.3421
23.3421
23.3422
23.3422
23.3423
23.3423
23.3423
23.3423
23.3423
23.3423
23.3424
23.3424
23.3423
23.3423
23.3423
23.3423
23.3423
23.3423
23.3422
23.3422
23.3421
23.3421
23.342
23.342
23.3419
23.3419
23.3418
23.3417
23.3417
23.3416
23.3416
23.3415
23.3414
23.3414
23.3413
23.3413
23.3413
23.3412
23.3412
23.3412
23.3412
23.3775
23.3775
23.3775
23.3775
23.3775
23.3776
23.3776
23.3777
23.3777
23.3778
23.3778
23.3779
23.378
23.378
23.3781
23.3782
23.3782
23.3783
23.3784
23.3784
23.3785
23.3785
23.3785
23.3786
23.3786
23.3786
23.3786
23.3787
23.3787
23.3787
23.3787
23.3787
23.3787
23.3786
23.3786
23.3786
23.3786
23.3785
23.3785
23.3785
23.3784
23.3784
23.3783
23.3782
23.3782
23.3781
23.378
23.378
23.3779
23.3778
23.3778
23.3777
23.3777
23.3776
23.3776
23.3775
23.3775
23.3775
23.3775
23.3775
23.4122
23.4122
23.4122
23.4122
23.4122
23.4123
23.4123
23.4124
23.4124
23.4125
23.4125
23.4126
23.4127
23.4127
23.4128
23.4129
23.4129
23.413
23.4131
23.4131
23.4132
23.4132
23.4133
23.4133
23.4133
23.4133
23.4134
23.4134
23.4134
23.4134
23.4134
23.4134
23.4134
23.4134
23.4133
23.4133
23.4133
23.4133
23.4132
23.4132
23.4131
23.4131
23.413
23.4129
23.4129
23.4128
23.4127
23.4127
23.4126
23.4125
23.4125
23.4124
23.4124
23.4123
23.4123
23.4122
23.4122
23.4122
23.4122
23.4122
23.4454
23.4454
23.4454
23.4455
23.4455
23.4455
23.4456
23.4456