/*--------------------------------*- C++ -*----------------------------------*\
| =========                 |                                                 |
| \\      /  F ield         | foam-extend: Open Source CFD                    |
|  \\    /   O peration     | Version:     4.0                                |
|   \\  /    A nd           | Web:         http://www.foam-extend.org         |
|    \\/     M anipulation  |                                                 |
\*---------------------------------------------------------------------------*/
FoamFile
{
    version     2.0;
    format      ascii;
    class       volScalarField;
    location    "540";
    object      cPlus;
}
// * * * * * * * * * * * * * * * * * * * * * * * * * * * * * * * * * * * * * //

dimensions      [0 0 0 0 0 0 0];

internalField   nonuniform List<scalar> 
6960
(
0.231324
0.231269
0.231255
0.231251
0.231251
0.231252
0.231253
0.231254
0.231255
0.231256
0.231257
0.231258
0.231259
0.231259
0.23126
0.231261
0.231261
0.231262
0.231262
0.231263
0.231263
0.231264
0.231264
0.231264
0.231265
0.231265
0.231265
0.231265
0.231265
0.231265
0.231265
0.231265
0.231265
0.231265
0.231265
0.231265
0.231264
0.231264
0.231264
0.231263
0.231263
0.231262
0.231262
0.231261
0.231261
0.23126
0.231259
0.231259
0.231258
0.231257
0.231256
0.231255
0.231254
0.231253
0.231252
0.231251
0.231251
0.231255
0.231269
0.231324
0.0815513
0.0815499
0.0815493
0.0815496
0.0815502
0.0815508
0.0815515
0.0815521
0.0815526
0.0815531
0.0815536
0.0815541
0.0815546
0.081555
0.0815553
0.0815557
0.081556
0.0815563
0.0815566
0.0815569
0.0815571
0.0815573
0.0815575
0.0815577
0.0815578
0.0815579
0.081558
0.0815581
0.0815581
0.0815582
0.0815582
0.0815581
0.0815581
0.081558
0.0815579
0.0815578
0.0815577
0.0815575
0.0815573
0.0815571
0.0815569
0.0815566
0.0815563
0.081556
0.0815557
0.0815553
0.081555
0.0815546
0.0815541
0.0815536
0.0815531
0.0815526
0.0815521
0.0815515
0.0815508
0.0815502
0.0815496
0.0815493
0.0815499
0.0815513
0.0579863
0.0580067
0.0580119
0.0580137
0.0580145
0.0580151
0.0580156
0.058016
0.0580164
0.0580167
0.058017
0.0580173
0.0580176
0.0580179
0.0580181
0.0580184
0.0580186
0.0580188
0.0580189
0.0580191
0.0580193
0.0580194
0.0580195
0.0580196
0.0580197
0.0580198
0.0580198
0.0580199
0.0580199
0.0580199
0.0580199
0.0580199
0.0580199
0.0580198
0.0580198
0.0580197
0.0580196
0.0580195
0.0580194
0.0580193
0.0580191
0.0580189
0.0580188
0.0580186
0.0580184
0.0580181
0.0580179
0.0580176
0.0580173
0.058017
0.0580167
0.0580164
0.058016
0.0580156
0.0580151
0.0580145
0.0580137
0.0580119
0.0580067
0.0579863
0.0554819
0.0555103
0.0555175
0.0555199
0.0555209
0.0555215
0.0555219
0.0555223
0.0555226
0.055523
0.0555232
0.0555235
0.0555238
0.055524
0.0555242
0.0555244
0.0555246
0.0555248
0.0555249
0.0555251
0.0555252
0.0555253
0.0555254
0.0555255
0.0555256
0.0555256
0.0555257
0.0555257
0.0555257
0.0555258
0.0555258
0.0555257
0.0555257
0.0555257
0.0555256
0.0555256
0.0555255
0.0555254
0.0555253
0.0555252
0.0555251
0.0555249
0.0555248
0.0555246
0.0555244
0.0555242
0.055524
0.0555238
0.0555235
0.0555232
0.055523
0.0555226
0.0555223
0.0555219
0.0555215
0.0555209
0.0555199
0.0555175
0.0555103
0.0554819
0.0572096
0.0572421
0.0572505
0.0572532
0.0572543
0.057255
0.0572554
0.0572558
0.0572562
0.0572565
0.0572568
0.0572571
0.0572574
0.0572576
0.0572578
0.057258
0.0572582
0.0572584
0.0572586
0.0572587
0.0572589
0.057259
0.0572591
0.0572592
0.0572593
0.0572593
0.0572594
0.0572594
0.0572595
0.0572595
0.0572595
0.0572595
0.0572594
0.0572594
0.0572593
0.0572593
0.0572592
0.0572591
0.057259
0.0572589
0.0572587
0.0572586
0.0572584
0.0572582
0.057258
0.0572578
0.0572576
0.0572574
0.0572571
0.0572568
0.0572565
0.0572562
0.0572558
0.0572554
0.057255
0.0572543
0.0572532
0.0572505
0.0572421
0.0572096
0.0602031
0.0602394
0.0602488
0.0602518
0.060253
0.0602537
0.0602543
0.0602547
0.0602551
0.0602555
0.0602558
0.0602562
0.0602565
0.0602567
0.060257
0.0602572
0.0602574
0.0602576
0.0602578
0.060258
0.0602581
0.0602583
0.0602584
0.0602585
0.0602586
0.0602587
0.0602587
0.0602588
0.0602588
0.0602588
0.0602588
0.0602588
0.0602588
0.0602587
0.0602587
0.0602586
0.0602585
0.0602584
0.0602583
0.0602581
0.060258
0.0602578
0.0602576
0.0602574
0.0602572
0.060257
0.0602567
0.0602565
0.0602562
0.0602558
0.0602555
0.0602551
0.0602547
0.0602543
0.0602537
0.060253
0.0602518
0.0602488
0.0602394
0.0602031
0.0640442
0.0640849
0.0640955
0.0640989
0.0641003
0.0641011
0.0641017
0.0641023
0.0641027
0.0641032
0.0641036
0.0641039
0.0641043
0.0641046
0.0641049
0.0641051
0.0641054
0.0641056
0.0641058
0.064106
0.0641062
0.0641064
0.0641065
0.0641066
0.0641068
0.0641068
0.0641069
0.064107
0.064107
0.064107
0.064107
0.064107
0.064107
0.0641069
0.0641068
0.0641068
0.0641066
0.0641065
0.0641064
0.0641062
0.064106
0.0641058
0.0641056
0.0641054
0.0641051
0.0641049
0.0641046
0.0641043
0.0641039
0.0641036
0.0641032
0.0641027
0.0641023
0.0641017
0.0641011
0.0641003
0.0640989
0.0640955
0.0640849
0.0640442
0.0688692
0.0689157
0.0689278
0.0689317
0.0689333
0.0689343
0.068935
0.0689357
0.0689362
0.0689367
0.0689372
0.0689376
0.068938
0.0689384
0.0689388
0.0689391
0.0689394
0.0689397
0.0689399
0.0689402
0.0689404
0.0689406
0.0689407
0.0689409
0.068941
0.0689411
0.0689412
0.0689413
0.0689413
0.0689413
0.0689413
0.0689413
0.0689413
0.0689412
0.0689411
0.068941
0.0689409
0.0689407
0.0689406
0.0689404
0.0689402
0.0689399
0.0689397
0.0689394
0.0689391
0.0689388
0.0689384
0.068938
0.0689376
0.0689372
0.0689367
0.0689362
0.0689357
0.068935
0.0689343
0.0689333
0.0689317
0.0689278
0.0689157
0.0688692
0.0750266
0.075081
0.0750952
0.0750998
0.0751018
0.0751029
0.0751038
0.0751046
0.0751053
0.0751059
0.0751065
0.075107
0.0751075
0.075108
0.0751084
0.0751088
0.0751092
0.0751095
0.0751098
0.0751101
0.0751104
0.0751106
0.0751108
0.075111
0.0751111
0.0751113
0.0751114
0.0751115
0.0751115
0.0751115
0.0751115
0.0751115
0.0751115
0.0751114
0.0751113
0.0751111
0.075111
0.0751108
0.0751106
0.0751104
0.0751101
0.0751098
0.0751095
0.0751092
0.0751088
0.0751084
0.075108
0.0751075
0.075107
0.0751065
0.0751059
0.0751053
0.0751046
0.0751038
0.0751029
0.0751018
0.0750998
0.0750952
0.075081
0.0750266
0.083042
0.0831073
0.0831244
0.0831301
0.0831325
0.0831339
0.083135
0.083136
0.0831368
0.0831376
0.0831383
0.083139
0.0831396
0.0831402
0.0831407
0.0831412
0.0831417
0.0831421
0.0831425
0.0831429
0.0831432
0.0831435
0.0831438
0.083144
0.0831442
0.0831443
0.0831445
0.0831446
0.0831446
0.0831447
0.0831447
0.0831446
0.0831446
0.0831445
0.0831443
0.0831442
0.083144
0.0831438
0.0831435
0.0831432
0.0831429
0.0831425
0.0831421
0.0831417
0.0831412
0.0831407
0.0831402
0.0831396
0.083139
0.0831383
0.0831376
0.0831368
0.083136
0.083135
0.0831339
0.0831325
0.0831301
0.0831244
0.0831073
0.083042
0.093612
0.0936924
0.0937136
0.0937206
0.0937236
0.0937254
0.0937268
0.093728
0.0937291
0.0937301
0.093731
0.0937318
0.0937326
0.0937333
0.093734
0.0937346
0.0937352
0.0937358
0.0937363
0.0937367
0.0937371
0.0937375
0.0937378
0.0937381
0.0937384
0.0937386
0.0937387
0.0937389
0.0937389
0.093739
0.093739
0.0937389
0.0937389
0.0937387
0.0937386
0.0937384
0.0937381
0.0937378
0.0937375
0.0937371
0.0937367
0.0937363
0.0937358
0.0937352
0.0937346
0.093734
0.0937333
0.0937326
0.0937318
0.093731
0.0937301
0.0937291
0.093728
0.0937268
0.0937254
0.0937236
0.0937206
0.0937136
0.0936924
0.093612
0.107528
0.107628
0.107654
0.107663
0.107667
0.107669
0.107671
0.107673
0.107674
0.107675
0.107676
0.107677
0.107678
0.107679
0.10768
0.107681
0.107682
0.107682
0.107683
0.107684
0.107684
0.107685
0.107685
0.107685
0.107686
0.107686
0.107686
0.107686
0.107686
0.107686
0.107686
0.107686
0.107686
0.107686
0.107686
0.107686
0.107685
0.107685
0.107685
0.107684
0.107684
0.107683
0.107682
0.107682
0.107681
0.10768
0.107679
0.107678
0.107677
0.107676
0.107675
0.107674
0.107673
0.107671
0.107669
0.107667
0.107663
0.107654
0.107628
0.107528
0.125476
0.1256
0.125633
0.125645
0.125649
0.125652
0.125654
0.125656
0.125658
0.125659
0.125661
0.125662
0.125663
0.125664
0.125665
0.125666
0.125667
0.125668
0.125669
0.12567
0.12567
0.125671
0.125671
0.125672
0.125672
0.125672
0.125673
0.125673
0.125673
0.125673
0.125673
0.125673
0.125673
0.125673
0.125672
0.125672
0.125672
0.125671
0.125671
0.12567
0.12567
0.125669
0.125668
0.125667
0.125666
0.125665
0.125664
0.125663
0.125662
0.125661
0.125659
0.125658
0.125656
0.125654
0.125652
0.125649
0.125645
0.125633
0.1256
0.125476
0.14776
0.147912
0.147953
0.147967
0.147973
0.147976
0.147979
0.147981
0.147983
0.147985
0.147986
0.147988
0.147989
0.147991
0.147992
0.147993
0.147994
0.147995
0.147996
0.147997
0.147998
0.147998
0.147999
0.147999
0.148
0.148
0.148
0.148001
0.148001
0.148001
0.148001
0.148001
0.148001
0.148
0.148
0.148
0.147999
0.147999
0.147998
0.147998
0.147997
0.147996
0.147995
0.147994
0.147993
0.147992
0.147991
0.147989
0.147988
0.147986
0.147985
0.147983
0.147981
0.147979
0.147976
0.147973
0.147967
0.147953
0.147912
0.14776
0.174103
0.174283
0.174333
0.174349
0.174356
0.174359
0.174362
0.174365
0.174367
0.174369
0.174371
0.174373
0.174374
0.174376
0.174377
0.174379
0.17438
0.174381
0.174382
0.174383
0.174384
0.174384
0.174385
0.174386
0.174386
0.174387
0.174387
0.174387
0.174387
0.174387
0.174387
0.174387
0.174387
0.174387
0.174387
0.174386
0.174386
0.174385
0.174384
0.174384
0.174383
0.174382
0.174381
0.17438
0.174379
0.174377
0.174376
0.174374
0.174373
0.174371
0.174369
0.174367
0.174365
0.174362
0.174359
0.174356
0.174349
0.174333
0.174283
0.174103
0.203678
0.203885
0.203942
0.203961
0.203969
0.203973
0.203976
0.203979
0.203981
0.203983
0.203985
0.203987
0.203989
0.203991
0.203992
0.203993
0.203995
0.203996
0.203997
0.203998
0.203999
0.204
0.204001
0.204001
0.204002
0.204002
0.204003
0.204003
0.204003
0.204003
0.204003
0.204003
0.204003
0.204003
0.204002
0.204002
0.204001
0.204001
0.204
0.203999
0.203998
0.203997
0.203996
0.203995
0.203993
0.203992
0.203991
0.203989
0.203987
0.203985
0.203983
0.203981
0.203979
0.203976
0.203973
0.203969
0.203961
0.203942
0.203885
0.203678
0.235376
0.235606
0.235671
0.235692
0.2357
0.235705
0.235708
0.235711
0.235714
0.235716
0.235718
0.23572
0.235722
0.235723
0.235725
0.235726
0.235728
0.235729
0.23573
0.235731
0.235732
0.235733
0.235734
0.235734
0.235735
0.235735
0.235736
0.235736
0.235736
0.235736
0.235736
0.235736
0.235736
0.235736
0.235735
0.235735
0.235734
0.235734
0.235733
0.235732
0.235731
0.23573
0.235729
0.235728
0.235726
0.235725
0.235723
0.235722
0.23572
0.235718
0.235716
0.235714
0.235711
0.235708
0.235705
0.2357
0.235692
0.235671
0.235606
0.235376
0.268121
0.268371
0.268443
0.268466
0.268475
0.26848
0.268484
0.268486
0.268489
0.268491
0.268493
0.268495
0.268497
0.268499
0.2685
0.268502
0.268503
0.268504
0.268505
0.268506
0.268507
0.268508
0.268509
0.26851
0.26851
0.268511
0.268511
0.268511
0.268512
0.268512
0.268512
0.268512
0.268511
0.268511
0.268511
0.26851
0.26851
0.268509
0.268508
0.268507
0.268506
0.268505
0.268504
0.268503
0.268502
0.2685
0.268499
0.268497
0.268495
0.268493
0.268491
0.268489
0.268486
0.268484
0.26848
0.268475
0.268466
0.268443
0.268371
0.268121
0.301073
0.30134
0.301418
0.301443
0.301453
0.301458
0.301461
0.301464
0.301467
0.301469
0.301471
0.301473
0.301475
0.301476
0.301478
0.301479
0.301481
0.301482
0.301483
0.301484
0.301485
0.301486
0.301486
0.301487
0.301488
0.301488
0.301488
0.301489
0.301489
0.301489
0.301489
0.301489
0.301489
0.301488
0.301488
0.301488
0.301487
0.301486
0.301486
0.301485
0.301484
0.301483
0.301482
0.301481
0.301479
0.301478
0.301476
0.301475
0.301473
0.301471
0.301469
0.301467
0.301464
0.301461
0.301458
0.301453
0.301443
0.301418
0.30134
0.301073
0.333668
0.33395
0.334033
0.33406
0.33407
0.334075
0.334079
0.334082
0.334084
0.334086
0.334088
0.33409
0.334092
0.334093
0.334095
0.334096
0.334097
0.334099
0.3341
0.334101
0.334102
0.334102
0.334103
0.334104
0.334104
0.334105
0.334105
0.334105
0.334106
0.334106
0.334106
0.334106
0.334105
0.334105
0.334105
0.334104
0.334104
0.334103
0.334102
0.334102
0.334101
0.3341
0.334099
0.334097
0.334096
0.334095
0.334093
0.334092
0.33409
0.334088
0.334086
0.334084
0.334082
0.334079
0.334075
0.33407
0.33406
0.334033
0.33395
0.333668
0.365569
0.365862
0.36595
0.365979
0.36599
0.365995
0.365998
0.366001
0.366003
0.366006
0.366007
0.366009
0.366011
0.366012
0.366014
0.366015
0.366016
0.366018
0.366019
0.36602
0.36602
0.366021
0.366022
0.366022
0.366023
0.366023
0.366024
0.366024
0.366024
0.366024
0.366024
0.366024
0.366024
0.366024
0.366023
0.366023
0.366022
0.366022
0.366021
0.36602
0.36602
0.366019
0.366018
0.366016
0.366015
0.366014
0.366012
0.366011
0.366009
0.366007
0.366006
0.366003
0.366001
0.365998
0.365995
0.36599
0.365979
0.36595
0.365862
0.365569
0.396586
0.396889
0.396982
0.397013
0.397024
0.39703
0.397033
0.397036
0.397038
0.39704
0.397042
0.397044
0.397045
0.397047
0.397048
0.397049
0.39705
0.397051
0.397052
0.397053
0.397054
0.397055
0.397056
0.397056
0.397057
0.397057
0.397057
0.397058
0.397058
0.397058
0.397058
0.397058
0.397058
0.397057
0.397057
0.397057
0.397056
0.397056
0.397055
0.397054
0.397053
0.397052
0.397051
0.39705
0.397049
0.397048
0.397047
0.397045
0.397044
0.397042
0.39704
0.397038
0.397036
0.397033
0.39703
0.397024
0.397013
0.396982
0.396889
0.396586
0.426623
0.426934
0.427032
0.427065
0.427077
0.427082
0.427086
0.427088
0.42709
0.427092
0.427094
0.427095
0.427097
0.427098
0.4271
0.427101
0.427102
0.427103
0.427104
0.427105
0.427106
0.427106
0.427107
0.427107
0.427108
0.427108
0.427109
0.427109
0.427109
0.427109
0.427109
0.427109
0.427109
0.427109
0.427108
0.427108
0.427107
0.427107
0.427106
0.427106
0.427105
0.427104
0.427103
0.427102
0.427101
0.4271
0.427098
0.427097
0.427095
0.427094
0.427092
0.42709
0.427088
0.427086
0.427082
0.427077
0.427065
0.427032
0.426934
0.426623
0.455632
0.45595
0.456053
0.456087
0.4561
0.456105
0.456108
0.456111
0.456113
0.456115
0.456116
0.456118
0.456119
0.456121
0.456122
0.456123
0.456124
0.456125
0.456126
0.456127
0.456128
0.456128
0.456129
0.456129
0.45613
0.45613
0.45613
0.456131
0.456131
0.456131
0.456131
0.456131
0.456131
0.45613
0.45613
0.45613
0.456129
0.456129
0.456128
0.456128
0.456127
0.456126
0.456125
0.456124
0.456123
0.456122
0.456121
0.456119
0.456118
0.456116
0.456115
0.456113
0.456111
0.456108
0.456105
0.4561
0.456087
0.456053
0.45595
0.455632
0.483595
0.483919
0.484025
0.484061
0.484074
0.48408
0.484083
0.484086
0.484088
0.484089
0.484091
0.484092
0.484094
0.484095
0.484096
0.484097
0.484098
0.484099
0.4841
0.484101
0.484101
0.484102
0.484103
0.484103
0.484104
0.484104
0.484104
0.484104
0.484105
0.484105
0.484105
0.484105
0.484104
0.484104
0.484104
0.484104
0.484103
0.484103
0.484102
0.484101
0.484101
0.4841
0.484099
0.484098
0.484097
0.484096
0.484095
0.484094
0.484092
0.484091
0.484089
0.484088
0.484086
0.484083
0.48408
0.484074
0.484061
0.484025
0.483919
0.483595
0.510509
0.510837
0.510948
0.510985
0.510999
0.511005
0.511008
0.51101
0.511012
0.511014
0.511015
0.511017
0.511018
0.511019
0.51102
0.511021
0.511022
0.511023
0.511024
0.511025
0.511025
0.511026
0.511026
0.511027
0.511027
0.511027
0.511028
0.511028
0.511028
0.511028
0.511028
0.511028
0.511028
0.511028
0.511027
0.511027
0.511027
0.511026
0.511026
0.511025
0.511025
0.511024
0.511023
0.511022
0.511021
0.51102
0.511019
0.511018
0.511017
0.511015
0.511014
0.511012
0.51101
0.511008
0.511005
0.510999
0.510985
0.510948
0.510837
0.510509
0.536382
0.536713
0.536827
0.536867
0.536881
0.536887
0.53689
0.536892
0.536894
0.536896
0.536897
0.536898
0.536899
0.5369
0.536902
0.536902
0.536903
0.536904
0.536905
0.536906
0.536906
0.536907
0.536907
0.536908
0.536908
0.536908
0.536909
0.536909
0.536909
0.536909
0.536909
0.536909
0.536909
0.536909
0.536908
0.536908
0.536908
0.536907
0.536907
0.536906
0.536906
0.536905
0.536904
0.536903
0.536902
0.536902
0.5369
0.536899
0.536898
0.536897
0.536896
0.536894
0.536892
0.53689
0.536887
0.536881
0.536867
0.536827
0.536713
0.536382
0.561227
0.56156
0.561678
0.561719
0.561734
0.56174
0.561743
0.561745
0.561747
0.561748
0.56175
0.561751
0.561752
0.561753
0.561754
0.561755
0.561756
0.561757
0.561757
0.561758
0.561758
0.561759
0.561759
0.56176
0.56176
0.561761
0.561761
0.561761
0.561761
0.561761
0.561761
0.561761
0.561761
0.561761
0.561761
0.56176
0.56176
0.561759
0.561759
0.561758
0.561758
0.561757
0.561757
0.561756
0.561755
0.561754
0.561753
0.561752
0.561751
0.56175
0.561748
0.561747
0.561745
0.561743
0.56174
0.561734
0.561719
0.561678
0.56156
0.561227
0.585062
0.585397
0.585517
0.58556
0.585575
0.585582
0.585585
0.585587
0.585588
0.58559
0.585591
0.585592
0.585593
0.585594
0.585595
0.585596
0.585597
0.585598
0.585598
0.585599
0.585599
0.5856
0.5856
0.585601
0.585601
0.585601
0.585602
0.585602
0.585602
0.585602
0.585602
0.585602
0.585602
0.585602
0.585601
0.585601
0.585601
0.5856
0.5856
0.585599
0.585599
0.585598
0.585598
0.585597
0.585596
0.585595
0.585594
0.585593
0.585592
0.585591
0.58559
0.585588
0.585587
0.585585
0.585582
0.585575
0.58556
0.585517
0.585397
0.585062
0.607907
0.608242
0.608366
0.60841
0.608426
0.608432
0.608435
0.608437
0.608439
0.60844
0.608441
0.608443
0.608444
0.608444
0.608445
0.608446
0.608447
0.608448
0.608448
0.608449
0.608449
0.60845
0.60845
0.60845
0.608451
0.608451
0.608451
0.608451
0.608452
0.608452
0.608452
0.608452
0.608451
0.608451
0.608451
0.608451
0.60845
0.60845
0.60845
0.608449
0.608449
0.608448
0.608448
0.608447
0.608446
0.608445
0.608444
0.608444
0.608443
0.608441
0.60844
0.608439
0.608437
0.608435
0.608432
0.608426
0.60841
0.608366
0.608242
0.607907
0.629784
0.630118
0.630245
0.63029
0.630307
0.630314
0.630317
0.630319
0.630321
0.630322
0.630323
0.630324
0.630325
0.630326
0.630326
0.630327
0.630328
0.630328
0.630329
0.63033
0.63033
0.630331
0.630331
0.630331
0.630332
0.630332
0.630332
0.630332
0.630332
0.630332
0.630332
0.630332
0.630332
0.630332
0.630332
0.630332
0.630331
0.630331
0.630331
0.63033
0.63033
0.630329
0.630328
0.630328
0.630327
0.630326
0.630326
0.630325
0.630324
0.630323
0.630322
0.630321
0.630319
0.630317
0.630314
0.630307
0.63029
0.630245
0.630118
0.629784
0.650716
0.651049
0.651178
0.651225
0.651243
0.65125
0.651253
0.651255
0.651256
0.651257
0.651258
0.651259
0.65126
0.651261
0.651262
0.651262
0.651263
0.651264
0.651264
0.651265
0.651265
0.651266
0.651266
0.651266
0.651266
0.651267
0.651267
0.651267
0.651267
0.651267
0.651267
0.651267
0.651267
0.651267
0.651267
0.651266
0.651266
0.651266
0.651266
0.651265
0.651265
0.651264
0.651264
0.651263
0.651262
0.651262
0.651261
0.65126
0.651259
0.651258
0.651257
0.651256
0.651255
0.651253
0.65125
0.651243
0.651225
0.651178
0.651049
0.650716
0.670728
0.671059
0.671189
0.671238
0.671256
0.671263
0.671267
0.671269
0.67127
0.671271
0.671272
0.671273
0.671274
0.671274
0.671275
0.671276
0.671276
0.671277
0.671277
0.671278
0.671278
0.671279
0.671279
0.671279
0.67128
0.67128
0.67128
0.67128
0.67128
0.67128
0.67128
0.67128
0.67128
0.67128
0.67128
0.67128
0.671279
0.671279
0.671279
0.671278
0.671278
0.671277
0.671277
0.671276
0.671276
0.671275
0.671274
0.671274
0.671273
0.671272
0.671271
0.67127
0.671269
0.671267
0.671263
0.671256
0.671238
0.671189
0.671059
0.670728
0.689843
0.690171
0.690303
0.690354
0.690373
0.69038
0.690383
0.690385
0.690386
0.690387
0.690388
0.690389
0.69039
0.690391
0.690391
0.690392
0.690392
0.690393
0.690393
0.690394
0.690394
0.690395
0.690395
0.690395
0.690395
0.690396
0.690396
0.690396
0.690396
0.690396
0.690396
0.690396
0.690396
0.690396
0.690396
0.690395
0.690395
0.690395
0.690395
0.690394
0.690394
0.690393
0.690393
0.690392
0.690392
0.690391
0.690391
0.69039
0.690389
0.690388
0.690387
0.690386
0.690385
0.690383
0.69038
0.690373
0.690354
0.690303
0.690171
0.689843
0.708087
0.708412
0.708545
0.708597
0.708616
0.708624
0.708628
0.708629
0.708631
0.708632
0.708632
0.708633
0.708634
0.708634
0.708635
0.708636
0.708636
0.708637
0.708637
0.708637
0.708638
0.708638
0.708638
0.708639
0.708639
0.708639
0.708639
0.708639
0.708639
0.70864
0.70864
0.708639
0.708639
0.708639
0.708639
0.708639
0.708639
0.708638
0.708638
0.708638
0.708637
0.708637
0.708637
0.708636
0.708636
0.708635
0.708634
0.708634
0.708633
0.708632
0.708632
0.708631
0.708629
0.708628
0.708624
0.708616
0.708597
0.708545
0.708412
0.708087
0.725485
0.725805
0.72594
0.725993
0.726013
0.726021
0.726024
0.726026
0.726027
0.726028
0.726029
0.72603
0.72603
0.726031
0.726032
0.726032
0.726033
0.726033
0.726034
0.726034
0.726034
0.726035
0.726035
0.726035
0.726035
0.726035
0.726036
0.726036
0.726036
0.726036
0.726036
0.726036
0.726036
0.726036
0.726035
0.726035
0.726035
0.726035
0.726035
0.726034
0.726034
0.726034
0.726033
0.726033
0.726032
0.726032
0.726031
0.72603
0.72603
0.726029
0.726028
0.726027
0.726026
0.726024
0.726021
0.726013
0.725993
0.72594
0.725805
0.725485
0.742061
0.742377
0.742512
0.742566
0.742587
0.742596
0.742599
0.742601
0.742602
0.742603
0.742604
0.742605
0.742605
0.742606
0.742606
0.742607
0.742607
0.742608
0.742608
0.742608
0.742609
0.742609
0.742609
0.742609
0.74261
0.74261
0.74261
0.74261
0.74261
0.74261
0.74261
0.74261
0.74261
0.74261
0.74261
0.74261
0.742609
0.742609
0.742609
0.742609
0.742608
0.742608
0.742608
0.742607
0.742607
0.742606
0.742606
0.742605
0.742605
0.742604
0.742603
0.742602
0.742601
0.742599
0.742596
0.742587
0.742566
0.742512
0.742377
0.742061
0.757842
0.758152
0.758288
0.758343
0.758365
0.758374
0.758377
0.758379
0.75838
0.758381
0.758382
0.758382
0.758383
0.758384
0.758384
0.758384
0.758385
0.758385
0.758386
0.758386
0.758386
0.758386
0.758387
0.758387
0.758387
0.758387
0.758387
0.758387
0.758388
0.758388
0.758388
0.758388
0.758387
0.758387
0.758387
0.758387
0.758387
0.758387
0.758386
0.758386
0.758386
0.758386
0.758385
0.758385
0.758384
0.758384
0.758384
0.758383
0.758382
0.758382
0.758381
0.75838
0.758379
0.758377
0.758374
0.758365
0.758343
0.758288
0.758152
0.757842
0.772852
0.773156
0.773292
0.773349
0.773371
0.77338
0.773384
0.773386
0.773387
0.773388
0.773388
0.773389
0.773389
0.77339
0.77339
0.773391
0.773391
0.773391
0.773392
0.773392
0.773392
0.773393
0.773393
0.773393
0.773393
0.773393
0.773393
0.773394
0.773394
0.773394
0.773394
0.773394
0.773394
0.773393
0.773393
0.773393
0.773393
0.773393
0.773393
0.773392
0.773392
0.773392
0.773391
0.773391
0.773391
0.77339
0.77339
0.773389
0.773389
0.773388
0.773388
0.773387
0.773386
0.773384
0.77338
0.773371
0.773349
0.773292
0.773156
0.772852
0.787116
0.787414
0.78755
0.787608
0.787631
0.78764
0.787644
0.787646
0.787647
0.787648
0.787649
0.787649
0.787649
0.78765
0.78765
0.787651
0.787651
0.787651
0.787652
0.787652
0.787652
0.787652
0.787653
0.787653
0.787653
0.787653
0.787653
0.787653
0.787653
0.787653
0.787653
0.787653
0.787653
0.787653
0.787653
0.787653
0.787653
0.787653
0.787652
0.787652
0.787652
0.787652
0.787651
0.787651
0.787651
0.78765
0.78765
0.787649
0.787649
0.787649
0.787648
0.787647
0.787646
0.787644
0.78764
0.787631
0.787608
0.78755
0.787414
0.787116
0.80066
0.800951
0.801087
0.801145
0.801169
0.801179
0.801183
0.801185
0.801186
0.801187
0.801187
0.801188
0.801188
0.801189
0.801189
0.801189
0.80119
0.80119
0.80119
0.80119
0.801191
0.801191
0.801191
0.801191
0.801191
0.801191
0.801192
0.801192
0.801192
0.801192
0.801192
0.801192
0.801192
0.801192
0.801191
0.801191
0.801191
0.801191
0.801191
0.801191
0.80119
0.80119
0.80119
0.80119
0.801189
0.801189
0.801189
0.801188
0.801188
0.801187
0.801187
0.801186
0.801185
0.801183
0.801179
0.801169
0.801145
0.801087
0.800951
0.80066
0.813508
0.813792
0.813927
0.813986
0.814011
0.814021
0.814026
0.814027
0.814029
0.814029
0.81403
0.81403
0.814031
0.814031
0.814031
0.814031
0.814032
0.814032
0.814032
0.814033
0.814033
0.814033
0.814033
0.814033
0.814033
0.814033
0.814034
0.814034
0.814034
0.814034
0.814034
0.814034
0.814034
0.814034
0.814033
0.814033
0.814033
0.814033
0.814033
0.814033
0.814033
0.814032
0.814032
0.814032
0.814031
0.814031
0.814031
0.814031
0.81403
0.81403
0.814029
0.814029
0.814027
0.814026
0.814021
0.814011
0.813986
0.813927
0.813792
0.813508
0.825685
0.825962
0.826096
0.826156
0.826181
0.826192
0.826196
0.826198
0.826199
0.8262
0.8262
0.826201
0.826201
0.826201
0.826202
0.826202
0.826202
0.826202
0.826203
0.826203
0.826203
0.826203
0.826203
0.826204
0.826204
0.826204
0.826204
0.826204
0.826204
0.826204
0.826204
0.826204
0.826204
0.826204
0.826204
0.826204
0.826204
0.826203
0.826203
0.826203
0.826203
0.826203
0.826202
0.826202
0.826202
0.826202
0.826201
0.826201
0.826201
0.8262
0.8262
0.826199
0.826198
0.826196
0.826192
0.826181
0.826156
0.826096
0.825962
0.825685
0.837215
0.837484
0.837618
0.837678
0.837704
0.837715
0.837719
0.837722
0.837723
0.837723
0.837724
0.837724
0.837724
0.837725
0.837725
0.837725
0.837725
0.837726
0.837726
0.837726
0.837726
0.837726
0.837726
0.837726
0.837727
0.837727
0.837727
0.837727
0.837727
0.837727
0.837727
0.837727
0.837727
0.837727
0.837727
0.837727
0.837726
0.837726
0.837726
0.837726
0.837726
0.837726
0.837726
0.837725
0.837725
0.837725
0.837725
0.837724
0.837724
0.837724
0.837723
0.837723
0.837722
0.837719
0.837715
0.837704
0.837678
0.837618
0.837484
0.837215
0.848123
0.848384
0.848516
0.848577
0.848604
0.848615
0.84862
0.848622
0.848623
0.848623
0.848624
0.848624
0.848624
0.848625
0.848625
0.848625
0.848625
0.848626
0.848626
0.848626
0.848626
0.848626
0.848626
0.848626
0.848626
0.848627
0.848627
0.848627
0.848627
0.848627
0.848627
0.848627
0.848627
0.848627
0.848627
0.848626
0.848626
0.848626
0.848626
0.848626
0.848626
0.848626
0.848626
0.848625
0.848625
0.848625
0.848625
0.848624
0.848624
0.848624
0.848623
0.848623
0.848622
0.84862
0.848615
0.848604
0.848577
0.848516
0.848384
0.848123
0.858432
0.858686
0.858816
0.858877
0.858904
0.858916
0.858921
0.858923
0.858924
0.858924
0.858925
0.858925
0.858925
0.858926
0.858926
0.858926
0.858926
0.858926
0.858927
0.858927
0.858927
0.858927
0.858927
0.858927
0.858927
0.858927
0.858927
0.858927
0.858927
0.858927
0.858927
0.858927
0.858927
0.858927
0.858927
0.858927
0.858927
0.858927
0.858927
0.858927
0.858927
0.858927
0.858926
0.858926
0.858926
0.858926
0.858926
0.858925
0.858925
0.858925
0.858924
0.858924
0.858923
0.858921
0.858916
0.858904
0.858877
0.858816
0.858686
0.858432
0.868166
0.868412
0.86854
0.868601
0.868629
0.868641
0.868646
0.868648
0.868649
0.86865
0.86865
0.868651
0.868651
0.868651
0.868651
0.868651
0.868651
0.868652
0.868652
0.868652
0.868652
0.868652
0.868652
0.868652
0.868652
0.868652
0.868652
0.868653
0.868653
0.868653
0.868653
0.868653
0.868653
0.868652
0.868652
0.868652
0.868652
0.868652
0.868652
0.868652
0.868652
0.868652
0.868652
0.868651
0.868651
0.868651
0.868651
0.868651
0.868651
0.86865
0.86865
0.868649
0.868648
0.868646
0.868641
0.868629
0.868601
0.86854
0.868412
0.868166
0.877348
0.877586
0.877712
0.877773
0.877801
0.877814
0.877819
0.877821
0.877823
0.877823
0.877823
0.877824
0.877824
0.877824
0.877824
0.877824
0.877824
0.877825
0.877825
0.877825
0.877825
0.877825
0.877825
0.877825
0.877825
0.877825
0.877825
0.877825
0.877825
0.877825
0.877825
0.877825
0.877825
0.877825
0.877825
0.877825
0.877825
0.877825
0.877825
0.877825
0.877825
0.877825
0.877825
0.877824
0.877824
0.877824
0.877824
0.877824
0.877824
0.877823
0.877823
0.877823
0.877821
0.877819
0.877814
0.877801
0.877773
0.877712
0.877586
0.877348
0.886002
0.886231
0.886355
0.886416
0.886444
0.886457
0.886463
0.886465
0.886466
0.886467
0.886467
0.886467
0.886468
0.886468
0.886468
0.886468
0.886468
0.886468
0.886468
0.886468
0.886468
0.886468
0.886469
0.886469
0.886469
0.886469
0.886469
0.886469
0.886469
0.886469
0.886469
0.886469
0.886469
0.886469
0.886469
0.886469
0.886469
0.886469
0.886468
0.886468
0.886468
0.886468
0.886468
0.886468
0.886468
0.886468
0.886468
0.886468
0.886467
0.886467
0.886467
0.886466
0.886465
0.886463
0.886457
0.886444
0.886416
0.886355
0.886231
0.886002
0.894149
0.894369
0.894491
0.894552
0.89458
0.894594
0.894599
0.894602
0.894603
0.894604
0.894604
0.894604
0.894604
0.894604
0.894605
0.894605
0.894605
0.894605
0.894605
0.894605
0.894605
0.894605
0.894605
0.894605
0.894605
0.894605
0.894605
0.894605
0.894605
0.894605
0.894605
0.894605
0.894605
0.894605
0.894605
0.894605
0.894605
0.894605
0.894605
0.894605
0.894605
0.894605
0.894605
0.894605
0.894605
0.894605
0.894604
0.894604
0.894604
0.894604
0.894604
0.894603
0.894602
0.894599
0.894594
0.89458
0.894552
0.894491
0.894369
0.894149
0.901811
0.902023
0.902142
0.902203
0.902232
0.902245
0.902251
0.902254
0.902255
0.902256
0.902256
0.902256
0.902256
0.902256
0.902257
0.902257
0.902257
0.902257
0.902257
0.902257
0.902257
0.902257
0.902257
0.902257
0.902257
0.902257
0.902257
0.902257
0.902257
0.902257
0.902257
0.902257
0.902257
0.902257
0.902257
0.902257
0.902257
0.902257
0.902257
0.902257
0.902257
0.902257
0.902257
0.902257
0.902257
0.902257
0.902256
0.902256
0.902256
0.902256
0.902256
0.902255
0.902254
0.902251
0.902245
0.902232
0.902203
0.902142
0.902023
0.901811
0.909011
0.909215
0.90933
0.909391
0.90942
0.909434
0.90944
0.909443
0.909444
0.909445
0.909445
0.909445
0.909445
0.909445
0.909445
0.909445
0.909445
0.909445
0.909445
0.909446
0.909446
0.909446
0.909446
0.909446
0.909446
0.909446
0.909446
0.909446
0.909446
0.909446
0.909446
0.909446
0.909446
0.909446
0.909446
0.909446
0.909446
0.909446
0.909446
0.909446
0.909446
0.909445
0.909445
0.909445
0.909445
0.909445
0.909445
0.909445
0.909445
0.909445
0.909445
0.909444
0.909443
0.90944
0.909434
0.90942
0.909391
0.90933
0.909215
0.909011
0.915769
0.915965
0.916077
0.916137
0.916166
0.916181
0.916187
0.91619
0.916191
0.916192
0.916192
0.916192
0.916192
0.916192
0.916192
0.916192
0.916192
0.916192
0.916192
0.916192
0.916192
0.916192
0.916192
0.916192
0.916192
0.916193
0.916193
0.916193
0.916193
0.916193
0.916193
0.916193
0.916193
0.916193
0.916193
0.916192
0.916192
0.916192
0.916192
0.916192
0.916192
0.916192
0.916192
0.916192
0.916192
0.916192
0.916192
0.916192
0.916192
0.916192
0.916192
0.916191
0.91619
0.916187
0.916181
0.916166
0.916137
0.916077
0.915965
0.915769
0.922106
0.922293
0.922403
0.922462
0.922492
0.922506
0.922513
0.922516
0.922517
0.922518
0.922518
0.922518
0.922518
0.922518
0.922518
0.922518
0.922518
0.922518
0.922518
0.922518
0.922518
0.922518
0.922518
0.922518
0.922518
0.922518
0.922518