/*--------------------------------*- C++ -*----------------------------------*\
| =========                 |                                                 |
| \\      /  F ield         | foam-extend: Open Source CFD                    |
|  \\    /   O peration     | Version:     4.0                                |
|   \\  /    A nd           | Web:         http://www.foam-extend.org         |
|    \\/     M anipulation  |                                                 |
\*---------------------------------------------------------------------------*/
FoamFile
{
    version     2.0;
    format      ascii;
    class       volScalarField;
    location    "1360";
    object      cMinus;
}
// * * * * * * * * * * * * * * * * * * * * * * * * * * * * * * * * * * * * * //

dimensions      [0 0 0 0 0 0 0];

internalField   nonuniform List<scalar> 
6960
(
1.02711e-23
1.02716e-23
1.02726e-23
1.02731e-23
1.02734e-23
1.02736e-23
1.02738e-23
1.0274e-23
1.02742e-23
1.02744e-23
1.02746e-23
1.02748e-23
1.0275e-23
1.02752e-23
1.02754e-23
1.02755e-23
1.02757e-23
1.02759e-23
1.0276e-23
1.02761e-23
1.02762e-23
1.02763e-23
1.02764e-23
1.02765e-23
1.02766e-23
1.02767e-23
1.02767e-23
1.02767e-23
1.02768e-23
1.02768e-23
1.02768e-23
1.02768e-23
1.02767e-23
1.02767e-23
1.02767e-23
1.02766e-23
1.02765e-23
1.02764e-23
1.02763e-23
1.02762e-23
1.02761e-23
1.0276e-23
1.02759e-23
1.02757e-23
1.02755e-23
1.02754e-23
1.02752e-23
1.0275e-23
1.02748e-23
1.02746e-23
1.02744e-23
1.02742e-23
1.0274e-23
1.02738e-23
1.02736e-23
1.02734e-23
1.02731e-23
1.02726e-23
1.02716e-23
1.02711e-23
2.89647e-23
2.89708e-23
2.89742e-23
2.8976e-23
2.89773e-23
2.89785e-23
2.89797e-23
2.89808e-23
2.89819e-23
2.8983e-23
2.89841e-23
2.89852e-23
2.89862e-23
2.89872e-23
2.89881e-23
2.8989e-23
2.89898e-23
2.89906e-23
2.89913e-23
2.8992e-23
2.89926e-23
2.89932e-23
2.89936e-23
2.89941e-23
2.89944e-23
2.89947e-23
2.8995e-23
2.89951e-23
2.89953e-23
2.89953e-23
2.89953e-23
2.89953e-23
2.89951e-23
2.8995e-23
2.89947e-23
2.89944e-23
2.89941e-23
2.89936e-23
2.89932e-23
2.89926e-23
2.8992e-23
2.89913e-23
2.89906e-23
2.89898e-23
2.8989e-23
2.89881e-23
2.89872e-23
2.89862e-23
2.89852e-23
2.89841e-23
2.8983e-23
2.89819e-23
2.89808e-23
2.89797e-23
2.89785e-23
2.89773e-23
2.8976e-23
2.89742e-23
2.89708e-23
2.89647e-23
7.17262e-23
7.17426e-23
7.17532e-23
7.17599e-23
7.17654e-23
7.17705e-23
7.17753e-23
7.17799e-23
7.17845e-23
7.17888e-23
7.1793e-23
7.1797e-23
7.18008e-23
7.18043e-23
7.18077e-23
7.18109e-23
7.18138e-23
7.18165e-23
7.18189e-23
7.18212e-23
7.18232e-23
7.1825e-23
7.18267e-23
7.1828e-23
7.18292e-23
7.18302e-23
7.1831e-23
7.18316e-23
7.1832e-23
7.18322e-23
7.18322e-23
7.1832e-23
7.18316e-23
7.1831e-23
7.18302e-23
7.18292e-23
7.1828e-23
7.18267e-23
7.1825e-23
7.18232e-23
7.18212e-23
7.18189e-23
7.18165e-23
7.18138e-23
7.18109e-23
7.18077e-23
7.18043e-23
7.18008e-23
7.1797e-23
7.1793e-23
7.17888e-23
7.17845e-23
7.17799e-23
7.17753e-23
7.17705e-23
7.17654e-23
7.17599e-23
7.17532e-23
7.17426e-23
7.17262e-23
1.70357e-22
1.70397e-22
1.70428e-22
1.7045e-22
1.70469e-22
1.70487e-22
1.70504e-22
1.7052e-22
1.70536e-22
1.70551e-22
1.70565e-22
1.70578e-22
1.7059e-22
1.70602e-22
1.70613e-22
1.70623e-22
1.70632e-22
1.7064e-22
1.70648e-22
1.70655e-22
1.70661e-22
1.70666e-22
1.70671e-22
1.70676e-22
1.70679e-22
1.70682e-22
1.70684e-22
1.70686e-22
1.70687e-22
1.70688e-22
1.70688e-22
1.70687e-22
1.70686e-22
1.70684e-22
1.70682e-22
1.70679e-22
1.70676e-22
1.70671e-22
1.70666e-22
1.70661e-22
1.70655e-22
1.70648e-22
1.7064e-22
1.70632e-22
1.70623e-22
1.70613e-22
1.70602e-22
1.7059e-22
1.70578e-22
1.70565e-22
1.70551e-22
1.70536e-22
1.7052e-22
1.70504e-22
1.70487e-22
1.70469e-22
1.7045e-22
1.70428e-22
1.70397e-22
1.70357e-22
4.02092e-22
4.02184e-22
4.02272e-22
4.02342e-22
4.02404e-22
4.02462e-22
4.02516e-22
4.02568e-22
4.02617e-22
4.02664e-22
4.02707e-22
4.02748e-22
4.02786e-22
4.02821e-22
4.02854e-22
4.02884e-22
4.02911e-22
4.02936e-22
4.02959e-22
4.02979e-22
4.02998e-22
4.03014e-22
4.03028e-22
4.0304e-22
4.03051e-22
4.03059e-22
4.03066e-22
4.03071e-22
4.03074e-22
4.03076e-22
4.03076e-22
4.03074e-22
4.03071e-22
4.03066e-22
4.03059e-22
4.03051e-22
4.0304e-22
4.03028e-22
4.03014e-22
4.02998e-22
4.02979e-22
4.02959e-22
4.02936e-22
4.02911e-22
4.02884e-22
4.02854e-22
4.02821e-22
4.02786e-22
4.02748e-22
4.02707e-22
4.02664e-22
4.02617e-22
4.02568e-22
4.02516e-22
4.02462e-22
4.02404e-22
4.02342e-22
4.02272e-22
4.02184e-22
4.02092e-22
9.57927e-22
9.58147e-22
9.58397e-22
9.58604e-22
9.58793e-22
9.58971e-22
9.59138e-22
9.59296e-22
9.59444e-22
9.59584e-22
9.59714e-22
9.59836e-22
9.59948e-22
9.60052e-22
9.60148e-22
9.60236e-22
9.60316e-22
9.60389e-22
9.60455e-22
9.60514e-22
9.60567e-22
9.60614e-22
9.60655e-22
9.6069e-22
9.6072e-22
9.60744e-22
9.60764e-22
9.60778e-22
9.60788e-22
9.60792e-22
9.60792e-22
9.60788e-22
9.60778e-22
9.60764e-22
9.60744e-22
9.6072e-22
9.6069e-22
9.60655e-22
9.60614e-22
9.60567e-22
9.60514e-22
9.60455e-22
9.60389e-22
9.60316e-22
9.60236e-22
9.60148e-22
9.60052e-22
9.59948e-22
9.59836e-22
9.59714e-22
9.59584e-22
9.59444e-22
9.59296e-22
9.59138e-22
9.58971e-22
9.58793e-22
9.58604e-22
9.58397e-22
9.58147e-22
9.57927e-22
2.31988e-21
2.32043e-21
2.32113e-21
2.32174e-21
2.3223e-21
2.32283e-21
2.32333e-21
2.3238e-21
2.32424e-21
2.32465e-21
2.32503e-21
2.32539e-21
2.32572e-21
2.32602e-21
2.3263e-21
2.32656e-21
2.32679e-21
2.327e-21
2.32719e-21
2.32736e-21
2.32751e-21
2.32764e-21
2.32776e-21
2.32786e-21
2.32795e-21
2.32802e-21
2.32807e-21
2.32811e-21
2.32814e-21
2.32815e-21
2.32815e-21
2.32814e-21
2.32811e-21
2.32807e-21
2.32802e-21
2.32795e-21
2.32786e-21
2.32776e-21
2.32764e-21
2.32751e-21
2.32736e-21
2.32719e-21
2.327e-21
2.32679e-21
2.32656e-21
2.3263e-21
2.32602e-21
2.32572e-21
2.32539e-21
2.32503e-21
2.32465e-21
2.32424e-21
2.3238e-21
2.32333e-21
2.32283e-21
2.3223e-21
2.32174e-21
2.32113e-21
2.32043e-21
2.31988e-21
5.73021e-21
5.73161e-21
5.73361e-21
5.73538e-21
5.73703e-21
5.73859e-21
5.74005e-21
5.74143e-21
5.74272e-21
5.74393e-21
5.74505e-21
5.74609e-21
5.74705e-21
5.74793e-21
5.74874e-21
5.74947e-21
5.75014e-21
5.75075e-21
5.7513e-21
5.75179e-21
5.75222e-21
5.7526e-21
5.75294e-21
5.75323e-21
5.75347e-21
5.75367e-21
5.75383e-21
5.75394e-21
5.75402e-21
5.75406e-21
5.75406e-21
5.75402e-21
5.75394e-21
5.75383e-21
5.75367e-21
5.75347e-21
5.75323e-21
5.75294e-21
5.7526e-21
5.75222e-21
5.75179e-21
5.7513e-21
5.75075e-21
5.75014e-21
5.74947e-21
5.74874e-21
5.74793e-21
5.74705e-21
5.74609e-21
5.74505e-21
5.74393e-21
5.74272e-21
5.74143e-21
5.74005e-21
5.73859e-21
5.73703e-21
5.73538e-21
5.73361e-21
5.73161e-21
5.73021e-21
1.44592e-20
1.4463e-20
1.44687e-20
1.44739e-20
1.44787e-20
1.44833e-20
1.44876e-20
1.44917e-20
1.44955e-20
1.4499e-20
1.45023e-20
1.45053e-20
1.45081e-20
1.45107e-20
1.4513e-20
1.45152e-20
1.45171e-20
1.45189e-20
1.45204e-20
1.45219e-20
1.45231e-20
1.45242e-20
1.45252e-20
1.4526e-20
1.45267e-20
1.45273e-20
1.45278e-20
1.45281e-20
1.45283e-20
1.45284e-20
1.45284e-20
1.45283e-20
1.45281e-20
1.45278e-20
1.45273e-20
1.45267e-20
1.4526e-20
1.45252e-20
1.45242e-20
1.45231e-20
1.45219e-20
1.45204e-20
1.45189e-20
1.45171e-20
1.45152e-20
1.4513e-20
1.45107e-20
1.45081e-20
1.45053e-20
1.45023e-20
1.4499e-20
1.44955e-20
1.44917e-20
1.44876e-20
1.44833e-20
1.44787e-20
1.44739e-20
1.44687e-20
1.4463e-20
1.44592e-20
3.73044e-20
3.73152e-20
3.73315e-20
3.73466e-20
3.73609e-20
3.73745e-20
3.73872e-20
3.73992e-20
3.74104e-20
3.74208e-20
3.74304e-20
3.74393e-20
3.74475e-20
3.74551e-20
3.7462e-20
3.74683e-20
3.7474e-20
3.74791e-20
3.74838e-20
3.74879e-20
3.74916e-20
3.74948e-20
3.74976e-20
3.75001e-20
3.75021e-20
3.75038e-20
3.75051e-20
3.75061e-20
3.75067e-20
3.75071e-20
3.75071e-20
3.75067e-20
3.75061e-20
3.75051e-20
3.75038e-20
3.75021e-20
3.75001e-20
3.74976e-20
3.74948e-20
3.74916e-20
3.74879e-20
3.74838e-20
3.74791e-20
3.7474e-20
3.74683e-20
3.7462e-20
3.74551e-20
3.74475e-20
3.74393e-20
3.74304e-20
3.74208e-20
3.74104e-20
3.73992e-20
3.73872e-20
3.73745e-20
3.73609e-20
3.73466e-20
3.73315e-20
3.73152e-20
3.73044e-20
9.84544e-20
9.84863e-20
9.8534e-20
9.85788e-20
9.86213e-20
9.86616e-20
9.86996e-20
9.87352e-20
9.87685e-20
9.87995e-20
9.88282e-20
9.88547e-20
9.88791e-20
9.89015e-20
9.8922e-20
9.89406e-20
9.89576e-20
9.89728e-20
9.89866e-20
9.89988e-20
9.90097e-20
9.90193e-20
9.90276e-20
9.90348e-20
9.90408e-20
9.90458e-20
9.90497e-20
9.90526e-20
9.90545e-20
9.90555e-20
9.90555e-20
9.90545e-20
9.90526e-20
9.90497e-20
9.90458e-20
9.90408e-20
9.90348e-20
9.90276e-20
9.90193e-20
9.90097e-20
9.89988e-20
9.89866e-20
9.89728e-20
9.89576e-20
9.89406e-20
9.8922e-20
9.89015e-20
9.88791e-20
9.88547e-20
9.88282e-20
9.87995e-20
9.87685e-20
9.87352e-20
9.86996e-20
9.86616e-20
9.86213e-20
9.85788e-20
9.8534e-20
9.84863e-20
9.84544e-20
2.65904e-19
2.66002e-19
2.66144e-19
2.66278e-19
2.66406e-19
2.66527e-19
2.66642e-19
2.66749e-19
2.6685e-19
2.66943e-19
2.67029e-19
2.67109e-19
2.67183e-19
2.6725e-19
2.67312e-19
2.67368e-19
2.67419e-19
2.67465e-19
2.67506e-19
2.67543e-19
2.67576e-19
2.67605e-19
2.6763e-19
2.67651e-19
2.67669e-19
2.67684e-19
2.67696e-19
2.67705e-19
2.67711e-19
2.67714e-19
2.67714e-19
2.67711e-19
2.67705e-19
2.67696e-19
2.67684e-19
2.67669e-19
2.67651e-19
2.6763e-19
2.67605e-19
2.67576e-19
2.67543e-19
2.67506e-19
2.67465e-19
2.67419e-19
2.67368e-19
2.67312e-19
2.6725e-19
2.67183e-19
2.67109e-19
2.67029e-19
2.66943e-19
2.6685e-19
2.66749e-19
2.66642e-19
2.66527e-19
2.66406e-19
2.66278e-19
2.66144e-19
2.66002e-19
2.65904e-19
7.35112e-19
7.35421e-19
7.35847e-19
7.36255e-19
7.36646e-19
7.37017e-19
7.37368e-19
7.37696e-19
7.38003e-19
7.38289e-19
7.38553e-19
7.38797e-19
7.39022e-19
7.39229e-19
7.39417e-19
7.39589e-19
7.39745e-19
7.39885e-19
7.40012e-19
7.40124e-19
7.40225e-19
7.40313e-19
7.40389e-19
7.40455e-19
7.40511e-19
7.40556e-19
7.40592e-19
7.40619e-19
7.40636e-19
7.40645e-19
7.40645e-19
7.40636e-19
7.40619e-19
7.40592e-19
7.40556e-19
7.40511e-19
7.40455e-19
7.40389e-19
7.40313e-19
7.40225e-19
7.40124e-19
7.40012e-19
7.39885e-19
7.39745e-19
7.39589e-19
7.39417e-19
7.39229e-19
7.39022e-19
7.38797e-19
7.38553e-19
7.38289e-19
7.38003e-19
7.37696e-19
7.37368e-19
7.37017e-19
7.36646e-19
7.36255e-19
7.35847e-19
7.35421e-19
7.35112e-19
2.08076e-18
2.08175e-18
2.08306e-18
2.08432e-18
2.08554e-18
2.08669e-18
2.08778e-18
2.0888e-18
2.08975e-18
2.09064e-18
2.09146e-18
2.09222e-18
2.09292e-18
2.09356e-18
2.09415e-18
2.09468e-18
2.09517e-18
2.09561e-18
2.096e-18
2.09635e-18
2.09666e-18
2.09694e-18
2.09718e-18
2.09738e-18
2.09755e-18
2.09769e-18
2.09781e-18
2.09789e-18
2.09794e-18
2.09797e-18
2.09797e-18
2.09794e-18
2.09789e-18
2.09781e-18
2.09769e-18
2.09755e-18
2.09738e-18
2.09718e-18
2.09694e-18
2.09666e-18
2.09635e-18
2.096e-18
2.09561e-18
2.09517e-18
2.09468e-18
2.09415e-18
2.09356e-18
2.09292e-18
2.09222e-18
2.09146e-18
2.09064e-18
2.08975e-18
2.0888e-18
2.08778e-18
2.08669e-18
2.08554e-18
2.08432e-18
2.08306e-18
2.08175e-18
2.08076e-18
6.0313e-18
6.03458e-18
6.03866e-18
6.04264e-18
6.04647e-18
6.05011e-18
6.05355e-18
6.05678e-18
6.0598e-18
6.06261e-18
6.06521e-18
6.06761e-18
6.06983e-18
6.07186e-18
6.07372e-18
6.07541e-18
6.07695e-18
6.07833e-18
6.07958e-18
6.08069e-18
6.08168e-18
6.08255e-18
6.0833e-18
6.08395e-18
6.0845e-18
6.08495e-18
6.0853e-18
6.08557e-18
6.08574e-18
6.08583e-18
6.08583e-18
6.08574e-18
6.08557e-18
6.0853e-18
6.08495e-18
6.0845e-18
6.08395e-18
6.0833e-18
6.08255e-18
6.08168e-18
6.08069e-18
6.07958e-18
6.07833e-18
6.07695e-18
6.07541e-18
6.07372e-18
6.07186e-18
6.06983e-18
6.06761e-18
6.06521e-18
6.06261e-18
6.0598e-18
6.05678e-18
6.05355e-18
6.05011e-18
6.04647e-18
6.04264e-18
6.03866e-18
6.03458e-18
6.0313e-18
1.79052e-17
1.79162e-17
1.79292e-17
1.79419e-17
1.79542e-17
1.7966e-17
1.7977e-17
1.79875e-17
1.79972e-17
1.80062e-17
1.80146e-17
1.80224e-17
1.80295e-17
1.80361e-17
1.80421e-17
1.80475e-17
1.80525e-17
1.80569e-17
1.8061e-17
1.80646e-17
1.80677e-17
1.80706e-17
1.8073e-17
1.80751e-17
1.80769e-17
1.80783e-17
1.80795e-17
1.80803e-17
1.80809e-17
1.80812e-17
1.80812e-17
1.80809e-17
1.80803e-17
1.80795e-17
1.80783e-17
1.80769e-17
1.80751e-17
1.8073e-17
1.80706e-17
1.80677e-17
1.80646e-17
1.8061e-17
1.80569e-17
1.80525e-17
1.80475e-17
1.80421e-17
1.80361e-17
1.80295e-17
1.80224e-17
1.80146e-17
1.80062e-17
1.79972e-17
1.79875e-17
1.7977e-17
1.7966e-17
1.79542e-17
1.79419e-17
1.79292e-17
1.79162e-17
1.79052e-17
5.4444e-17
5.44813e-17
5.45237e-17
5.45653e-17
5.46057e-17
5.46442e-17
5.46805e-17
5.47147e-17
5.47466e-17
5.47763e-17
5.48039e-17
5.48294e-17
5.48528e-17
5.48744e-17
5.48941e-17
5.4912e-17
5.49283e-17
5.49431e-17
5.49563e-17
5.49681e-17
5.49786e-17
5.49878e-17
5.49959e-17
5.50028e-17
5.50086e-17
5.50134e-17
5.50172e-17
5.502e-17
5.50218e-17
5.50227e-17
5.50227e-17
5.50218e-17
5.502e-17
5.50172e-17
5.50134e-17
5.50086e-17
5.50028e-17
5.49959e-17
5.49878e-17
5.49786e-17
5.49681e-17
5.49563e-17
5.49431e-17
5.49283e-17
5.4912e-17
5.48941e-17
5.48744e-17
5.48528e-17
5.48294e-17
5.48039e-17
5.47763e-17
5.47466e-17
5.47147e-17
5.46805e-17
5.46442e-17
5.46057e-17
5.45653e-17
5.45237e-17
5.44813e-17
5.4444e-17
1.69554e-16
1.69682e-16
1.69823e-16
1.69962e-16
1.70097e-16
1.70226e-16
1.70347e-16
1.70462e-16
1.70568e-16
1.70668e-16
1.7076e-16
1.70846e-16
1.70924e-16
1.70996e-16
1.71063e-16
1.71123e-16
1.71177e-16
1.71227e-16
1.71271e-16
1.71311e-16
1.71346e-16
1.71377e-16
1.71404e-16
1.71427e-16
1.71447e-16
1.71463e-16
1.71475e-16
1.71485e-16
1.71491e-16
1.71494e-16
1.71494e-16
1.71491e-16
1.71485e-16
1.71475e-16
1.71463e-16
1.71447e-16
1.71427e-16
1.71404e-16
1.71377e-16
1.71346e-16
1.71311e-16
1.71271e-16
1.71227e-16
1.71177e-16
1.71123e-16
1.71063e-16
1.70996e-16
1.70924e-16
1.70846e-16
1.7076e-16
1.70668e-16
1.70568e-16
1.70462e-16
1.70347e-16
1.70226e-16
1.70097e-16
1.69962e-16
1.69823e-16
1.69682e-16
1.69554e-16
5.40733e-16
5.4118e-16
5.41657e-16
5.4213e-16
5.4259e-16
5.43029e-16
5.43444e-16
5.43834e-16
5.44199e-16
5.44539e-16
5.44855e-16
5.45146e-16
5.45415e-16
5.45662e-16
5.45887e-16
5.46093e-16
5.4628e-16
5.46449e-16
5.46601e-16
5.46736e-16
5.46857e-16
5.46963e-16
5.47055e-16
5.47134e-16
5.47201e-16
5.47256e-16
5.47299e-16
5.47331e-16
5.47353e-16
5.47363e-16
5.47363e-16
5.47353e-16
5.47331e-16
5.47299e-16
5.47256e-16
5.47201e-16
5.47134e-16
5.47055e-16
5.46963e-16
5.46857e-16
5.46736e-16
5.46601e-16
5.46449e-16
5.4628e-16
5.46093e-16
5.45887e-16
5.45662e-16
5.45415e-16
5.45146e-16
5.44855e-16
5.44539e-16
5.44199e-16
5.43834e-16
5.43444e-16
5.43029e-16
5.4259e-16
5.4213e-16
5.41657e-16
5.4118e-16
5.40733e-16
1.7654e-15
1.76698e-15
1.76862e-15
1.77027e-15
1.77187e-15
1.77339e-15
1.77484e-15
1.7762e-15
1.77747e-15
1.77865e-15
1.77975e-15
1.78076e-15
1.7817e-15
1.78256e-15
1.78335e-15
1.78406e-15
1.78472e-15
1.7853e-15
1.78583e-15
1.78631e-15
1.78672e-15
1.78709e-15
1.78742e-15
1.78769e-15
1.78793e-15
1.78812e-15
1.78827e-15
1.78838e-15
1.78845e-15
1.78849e-15
1.78849e-15
1.78845e-15
1.78838e-15
1.78827e-15
1.78812e-15
1.78793e-15
1.78769e-15
1.78742e-15
1.78709e-15
1.78672e-15
1.78631e-15
1.78583e-15
1.7853e-15
1.78472e-15
1.78406e-15
1.78335e-15
1.78256e-15
1.7817e-15
1.78076e-15
1.77975e-15
1.77865e-15
1.77747e-15
1.7762e-15
1.77484e-15
1.77339e-15
1.77187e-15
1.77027e-15
1.76862e-15
1.76698e-15
1.7654e-15
5.89765e-15
5.9033e-15
5.90912e-15
5.91494e-15
5.9206e-15
5.92602e-15
5.93115e-15
5.93597e-15
5.94048e-15
5.94468e-15
5.94858e-15
5.95219e-15
5.95551e-15
5.95856e-15
5.96135e-15
5.9639e-15
5.96621e-15
5.9683e-15
5.97018e-15
5.97186e-15
5.97335e-15
5.97466e-15
5.9758e-15
5.97679e-15
5.97761e-15
5.97829e-15
5.97883e-15
5.97923e-15
5.97949e-15
5.97962e-15
5.97962e-15
5.97949e-15
5.97923e-15
5.97883e-15
5.97829e-15
5.97761e-15
5.97679e-15
5.9758e-15
5.97466e-15
5.97335e-15
5.97186e-15
5.97018e-15
5.9683e-15
5.96621e-15
5.9639e-15
5.96135e-15
5.95856e-15
5.95551e-15
5.95219e-15
5.94858e-15
5.94468e-15
5.94048e-15
5.93597e-15
5.93115e-15
5.92602e-15
5.9206e-15
5.91494e-15
5.90912e-15
5.9033e-15
5.89765e-15
2.01465e-14
2.0167e-14
2.0188e-14
2.0209e-14
2.02295e-14
2.0249e-14
2.02676e-14
2.0285e-14
2.03013e-14
2.03165e-14
2.03306e-14
2.03436e-14
2.03557e-14
2.03667e-14
2.03768e-14
2.0386e-14
2.03944e-14
2.04019e-14
2.04087e-14
2.04148e-14
2.04202e-14
2.04249e-14
2.04291e-14
2.04326e-14
2.04356e-14
2.04381e-14
2.044e-14
2.04415e-14
2.04424e-14
2.04429e-14
2.04429e-14
2.04424e-14
2.04415e-14
2.044e-14
2.04381e-14
2.04356e-14
2.04326e-14
2.04291e-14
2.04249e-14
2.04202e-14
2.04148e-14
2.04087e-14
2.04019e-14
2.03944e-14
2.0386e-14
2.03768e-14
2.03667e-14
2.03557e-14
2.03436e-14
2.03306e-14
2.03165e-14
2.03013e-14
2.0285e-14
2.02676e-14
2.0249e-14
2.02295e-14
2.0209e-14
2.0188e-14
2.0167e-14
2.01465e-14
7.03097e-14
7.03853e-14
7.0462e-14
7.05393e-14
7.06146e-14
7.06867e-14
7.0755e-14
7.08191e-14
7.08792e-14
7.09351e-14
7.0987e-14
7.1035e-14
7.10792e-14
7.11198e-14
7.1157e-14
7.11909e-14
7.12217e-14
7.12495e-14
7.12745e-14
7.12969e-14
7.13168e-14
7.13342e-14
7.13494e-14
7.13625e-14
7.13735e-14
7.13826e-14
7.13897e-14
7.1395e-14
7.13985e-14
7.14003e-14
7.14003e-14
7.13985e-14
7.1395e-14
7.13897e-14
7.13826e-14
7.13735e-14
7.13625e-14
7.13494e-14
7.13342e-14
7.13168e-14
7.12969e-14
7.12745e-14
7.12495e-14
7.12217e-14
7.11909e-14
7.1157e-14
7.11198e-14
7.10792e-14
7.1035e-14
7.0987e-14
7.09351e-14
7.08792e-14
7.08191e-14
7.0755e-14
7.06867e-14
7.06146e-14
7.05393e-14
7.0462e-14
7.03853e-14
7.03097e-14
2.50395e-13
2.50677e-13
2.50963e-13
2.51252e-13
2.51534e-13
2.51804e-13
2.52059e-13
2.523e-13
2.52524e-13
2.52734e-13
2.52928e-13
2.53108e-13
2.53273e-13
2.53425e-13
2.53565e-13
2.53691e-13
2.53807e-13
2.53911e-13
2.54004e-13
2.54088e-13
2.54162e-13
2.54228e-13
2.54285e-13
2.54333e-13
2.54375e-13
2.54408e-13
2.54435e-13
2.54455e-13
2.54468e-13
2.54475e-13
2.54475e-13
2.54468e-13
2.54455e-13
2.54435e-13
2.54408e-13
2.54375e-13
2.54333e-13
2.54285e-13
2.54228e-13
2.54162e-13
2.54088e-13
2.54004e-13
2.53911e-13
2.53807e-13
2.53691e-13
2.53565e-13
2.53425e-13
2.53273e-13
2.53108e-13
2.52928e-13
2.52734e-13
2.52524e-13
2.523e-13
2.52059e-13
2.51804e-13
2.51534e-13
2.51252e-13
2.50963e-13
2.50677e-13
2.50395e-13
9.08669e-13
9.09735e-13
9.10821e-13
9.11918e-13
9.1299e-13
9.14016e-13
9.14988e-13
9.15901e-13
9.16755e-13
9.17551e-13
9.18289e-13
9.18972e-13
9.19602e-13
9.2018e-13
9.20709e-13
9.21191e-13
9.21628e-13
9.22024e-13
9.22379e-13
9.22697e-13
9.2298e-13
9.23228e-13
9.23444e-13
9.2363e-13
9.23786e-13
9.23915e-13
9.24016e-13
9.24092e-13
9.24142e-13
9.24166e-13
9.24166e-13
9.24142e-13
9.24092e-13
9.24016e-13
9.23915e-13
9.23786e-13
9.2363e-13
9.23444e-13
9.23228e-13
9.2298e-13
9.22697e-13
9.22379e-13
9.22024e-13
9.21628e-13
9.21191e-13
9.20709e-13
9.2018e-13
9.19602e-13
9.18972e-13
9.18289e-13
9.17551e-13
9.16755e-13
9.15901e-13
9.14988e-13
9.14016e-13
9.1299e-13
9.11918e-13
9.10821e-13
9.09735e-13
9.08669e-13
3.35422e-12
3.35831e-12
3.36248e-12
3.36671e-12
3.37084e-12
3.3748e-12
3.37854e-12
3.38206e-12
3.38535e-12
3.38842e-12
3.39126e-12
3.39389e-12
3.39632e-12
3.39854e-12
3.40058e-12
3.40244e-12
3.40412e-12
3.40564e-12
3.40701e-12
3.40824e-12
3.40932e-12
3.41028e-12
3.41111e-12
3.41183e-12
3.41243e-12
3.41292e-12
3.41331e-12
3.41361e-12
3.4138e-12
3.41389e-12
3.41389e-12
3.4138e-12
3.41361e-12
3.41331e-12
3.41292e-12
3.41243e-12
3.41183e-12
3.41111e-12
3.41028e-12
3.40932e-12
3.40824e-12
3.40701e-12
3.40564e-12
3.40412e-12
3.40244e-12
3.40058e-12
3.39854e-12
3.39632e-12
3.39389e-12
3.39126e-12
3.38842e-12
3.38535e-12
3.38206e-12
3.37854e-12
3.3748e-12
3.37084e-12
3.36671e-12
3.36248e-12
3.35831e-12
3.35422e-12
1.25679e-11
1.25837e-11
1.26e-11
1.26165e-11
1.26326e-11
1.2648e-11
1.26626e-11
1.26763e-11
1.26891e-11
1.27011e-11
1.27122e-11
1.27224e-11
1.27318e-11
1.27405e-11
1.27485e-11
1.27557e-11
1.27622e-11
1.27682e-11
1.27735e-11
1.27783e-11
1.27825e-11
1.27862e-11
1.27895e-11
1.27922e-11
1.27946e-11
1.27965e-11
1.2798e-11
1.27992e-11
1.27999e-11
1.28003e-11
1.28003e-11
1.27999e-11
1.27992e-11
1.2798e-11
1.27965e-11
1.27946e-11
1.27922e-11
1.27895e-11
1.27862e-11
1.27825e-11
1.27783e-11
1.27735e-11
1.27682e-11
1.27622e-11
1.27557e-11
1.27485e-11
1.27405e-11
1.27318e-11
1.27224e-11
1.27122e-11
1.27011e-11
1.26891e-11
1.26763e-11
1.26626e-11
1.2648e-11
1.26326e-11
1.26165e-11
1.26e-11
1.25837e-11
1.25679e-11
4.76785e-11
4.77402e-11
4.7804e-11
4.78688e-11
4.79321e-11
4.79928e-11
4.80501e-11
4.81041e-11
4.81545e-11
4.82015e-11
4.82451e-11
4.82853e-11
4.83225e-11
4.83565e-11
4.83877e-11
4.84161e-11
4.84419e-11
4.84652e-11
4.84861e-11
4.85049e-11
4.85215e-11
4.85361e-11
4.85488e-11
4.85597e-11
4.85689e-11
4.85765e-11
4.85824e-11
4.85869e-11
4.85898e-11
4.85913e-11
4.85913e-11
4.85898e-11
4.85869e-11
4.85824e-11
4.85765e-11
4.85689e-11
4.85597e-11
4.85488e-11
4.85361e-11
4.85215e-11
4.85049e-11
4.84861e-11
4.84652e-11
4.84419e-11
4.84161e-11
4.83877e-11
4.83565e-11
4.83225e-11
4.82853e-11
4.82451e-11
4.82015e-11
4.81545e-11
4.81041e-11
4.80501e-11
4.79928e-11
4.79321e-11
4.78688e-11
4.7804e-11
4.77402e-11
4.76785e-11
1.82588e-10
1.8283e-10
1.83082e-10
1.83339e-10
1.83589e-10
1.83829e-10
1.84056e-10
1.84269e-10
1.84468e-10
1.84654e-10
1.84826e-10
1.84986e-10
1.85132e-10
1.85267e-10
1.8539e-10
1.85502e-10
1.85604e-10
1.85696e-10
1.85779e-10
1.85853e-10
1.85918e-10
1.85976e-10
1.86026e-10
1.86069e-10
1.86105e-10
1.86135e-10
1.86159e-10
1.86176e-10
1.86188e-10
1.86194e-10
1.86194e-10
1.86188e-10
1.86176e-10
1.86159e-10
1.86135e-10
1.86105e-10
1.86069e-10
1.86026e-10
1.85976e-10
1.85918e-10
1.85853e-10
1.85779e-10
1.85696e-10
1.85604e-10
1.85502e-10
1.8539e-10
1.85267e-10
1.85132e-10
1.84986e-10
1.84826e-10
1.84654e-10
1.84468e-10
1.84269e-10
1.84056e-10
1.83829e-10
1.83589e-10
1.83339e-10
1.83082e-10
1.8283e-10
1.82588e-10
7.03385e-10
7.0434e-10
7.05339e-10
7.06354e-10
7.07346e-10
7.08296e-10
7.09195e-10
7.1004e-10
7.1083e-10
7.11565e-10
7.12247e-10
7.12877e-10
7.13457e-10
7.1399e-10
7.14478e-10
7.14922e-10
7.15325e-10
7.15689e-10
7.16016e-10
7.16308e-10
7.16567e-10
7.16795e-10
7.16994e-10
7.17164e-10
7.17308e-10
7.17426e-10
7.17519e-10
7.17588e-10
7.17634e-10
7.17657e-10
7.17657e-10
7.17634e-10
7.17588e-10
7.17519e-10
7.17426e-10
7.17308e-10
7.17164e-10
7.16994e-10
7.16795e-10
7.16567e-10
7.16308e-10
7.16016e-10
7.15689e-10
7.15325e-10
7.14922e-10
7.14478e-10
7.1399e-10
7.13457e-10
7.12877e-10
7.12247e-10
7.11565e-10
7.1083e-10
7.1004e-10
7.09195e-10
7.08296e-10
7.07346e-10
7.06354e-10
7.05339e-10
7.0434e-10
7.03385e-10
2.71469e-09
2.71845e-09
2.7224e-09
2.72641e-09
2.73033e-09
2.73409e-09
2.73764e-09
2.74097e-09
2.74409e-09
2.747e-09
2.74969e-09
2.75218e-09
2.75447e-09
2.75657e-09
2.7585e-09
2.76025e-09
2.76184e-09
2.76328e-09
2.76457e-09
2.76572e-09
2.76674e-09
2.76764e-09
2.76843e-09
2.7691e-09
2.76966e-09
2.77013e-09
2.7705e-09
2.77077e-09
2.77095e-09
2.77104e-09
2.77104e-09
2.77095e-09
2.77077e-09
2.7705e-09
2.77013e-09
2.76966e-09
2.7691e-09
2.76843e-09
2.76764e-09
2.76674e-09
2.76572e-09
2.76457e-09
2.76328e-09
2.76184e-09
2.76025e-09
2.7585e-09
2.75657e-09
2.75447e-09
2.75218e-09
2.74969e-09
2.747e-09
2.74409e-09
2.74097e-09
2.73764e-09
2.73409e-09
2.73033e-09
2.72641e-09
2.7224e-09
2.71845e-09
2.71469e-09
1.04476e-08
1.04623e-08
1.04777e-08
1.04935e-08
1.05089e-08
1.05236e-08
1.05375e-08
1.05506e-08
1.05628e-08
1.05742e-08
1.05847e-08
1.05945e-08
1.06035e-08
1.06117e-08
1.06192e-08
1.06261e-08
1.06323e-08
1.0638e-08
1.0643e-08
1.06475e-08
1.06515e-08
1.06551e-08
1.06581e-08
1.06608e-08
1.0663e-08
1.06648e-08
1.06662e-08
1.06673e-08
1.0668e-08
1.06684e-08
1.06684e-08
1.0668e-08
1.06673e-08
1.06662e-08
1.06648e-08
1.0663e-08
1.06608e-08
1.06581e-08
1.06551e-08
1.06515e-08
1.06475e-08
1.0643e-08
1.0638e-08
1.06323e-08
1.06261e-08
1.06192e-08
1.06117e-08
1.06035e-08
1.05945e-08
1.05847e-08
1.05742e-08
1.05628e-08
1.05506e-08
1.05375e-08
1.05236e-08
1.05089e-08
1.04935e-08
1.04777e-08
1.04623e-08
1.04476e-08
3.98782e-08
3.99349e-08
3.99949e-08
4.00558e-08
4.01154e-08
4.01723e-08
4.02261e-08
4.02767e-08
4.0324e-08
4.0368e-08
4.04088e-08
4.04464e-08
4.04811e-08
4.0513e-08
4.05421e-08
4.05686e-08
4.05927e-08
4.06144e-08
4.06339e-08
4.06513e-08
4.06668e-08
4.06804e-08
4.06922e-08
4.07024e-08
4.07109e-08
4.0718e-08
4.07235e-08
4.07277e-08
4.07304e-08
4.07317e-08
4.07317e-08
4.07304e-08
4.07277e-08
4.07235e-08
4.0718e-08
4.07109e-08
4.07024e-08
4.06922e-08
4.06804e-08
4.06668e-08
4.06513e-08
4.06339e-08
4.06144e-08
4.05927e-08
4.05686e-08
4.05421e-08
4.0513e-08
4.04811e-08
4.04464e-08
4.04088e-08
4.0368e-08
4.0324e-08
4.02767e-08
4.02261e-08
4.01723e-08
4.01154e-08
4.00558e-08
3.99949e-08
3.99349e-08
3.98782e-08
1.50041e-07
1.50256e-07
1.50484e-07
1.50715e-07
1.50941e-07
1.51156e-07
1.5136e-07
1.51552e-07
1.51731e-07
1.51898e-07
1.52052e-07
1.52195e-07
1.52326e-07
1.52447e-07
1.52557e-07
1.52657e-07
1.52748e-07
1.52831e-07
1.52905e-07
1.5297e-07
1.53029e-07
1.5308e-07
1.53125e-07
1.53164e-07
1.53196e-07
1.53223e-07
1.53244e-07
1.53259e-07
1.5327e-07
1.53275e-07
1.53275e-07
1.5327e-07
1.53259e-07
1.53244e-07
1.53223e-07
1.53196e-07
1.53164e-07
1.53125e-07
1.5308e-07
1.53029e-07
1.5297e-07
1.52905e-07
1.52831e-07
1.52748e-07
1.52657e-07
1.52557e-07
1.52447e-07
1.52326e-07
1.52195e-07
1.52052e-07
1.51898e-07
1.51731e-07
1.51552e-07
1.5136e-07
1.51156e-07
1.50941e-07
1.50715e-07
1.50484e-07
1.50256e-07
1.50041e-07
5.52595e-07
5.53387e-07
5.54227e-07
5.5508e-07
5.55912e-07
5.56708e-07
5.57459e-07
5.58165e-07
5.58825e-07
5.59438e-07
5.60007e-07
5.60532e-07
5.61016e-07
5.6146e-07
5.61865e-07
5.62235e-07
5.6257e-07
5.62872e-07
5.63144e-07
5.63387e-07
5.63602e-07
5.63791e-07
5.63956e-07
5.64097e-07
5.64216e-07
5.64314e-07
5.64391e-07
5.64448e-07
5.64486e-07
5.64505e-07
5.64505e-07
5.64486e-07
5.64448e-07
5.64391e-07
5.64314e-07
5.64216e-07
5.64097e-07
5.63956e-07
5.63791e-07
5.63602e-07
5.63387e-07
5.63144e-07
5.62872e-07
5.6257e-07
5.62235e-07
5.61865e-07
5.6146e-07
5.61016e-07
5.60532e-07
5.60007e-07
5.59438e-07
5.58825e-07
5.58165e-07
5.57459e-07
5.56708e-07
5.55912e-07
5.5508e-07
5.54227e-07
5.53387e-07
5.52595e-07
1.97649e-06
1.97931e-06
1.9823e-06
1.98533e-06
1.98829e-06
1.99111e-06
1.99378e-06
1.99629e-06
1.99863e-06
2.0008e-06
2.00282e-06
2.00469e-06
2.0064e-06
2.00797e-06
2.00941e-06
2.01072e-06
2.01191e-06
2.01298e-06
2.01395e-06
2.01481e-06
2.01557e-06
2.01624e-06
2.01682e-06
2.01732e-06
2.01775e-06
2.01809e-06
2.01837e-06
2.01857e-06
2.0187e-06
2.01877e-06
2.01877e-06
2.0187e-06
2.01857e-06
2.01837e-06
2.01809e-06
2.01775e-06
2.01732e-06
2.01682e-06
2.01624e-06
2.01557e-06
2.01481e-06
2.01395e-06
2.01298e-06
2.01191e-06
2.01072e-06
2.00941e-06
2.00797e-06
2.0064e-06
2.00469e-06
2.00282e-06
2.0008e-06
1.99863e-06
1.99629e-06
1.99378e-06
1.99111e-06
1.98829e-06
1.98533e-06
1.9823e-06
1.97931e-06
1.97649e-06
6.80468e-06
6.81427e-06
6.82445e-06
6.83473e-06
6.84475e-06
6.85431e-06
6.86335e-06
6.87183e-06
6.87976e-06
6.88712e-06
6.89395e-06
6.90026e-06
6.90606e-06
6.91139e-06
6.91625e-06
6.92068e-06
6.9247e-06
6.92832e-06
6.93158e-06
6.93449e-06
6.93707e-06
6.93934e-06
6.94131e-06
6.943e-06
6.94443e-06
6.9456e-06
6.94652e-06
6.94721e-06
6.94766e-06
6.94789e-06
6.94789e-06
6.94766e-06
6.94721e-06
6.94652e-06
6.9456e-06
6.94443e-06
6.943e-06
6.94131e-06
6.93934e-06
6.93707e-06
6.93449e-06
6.93158e-06
6.92832e-06
6.9247e-06
6.92068e-06
6.91625e-06
6.91139e-06
6.90606e-06
6.90026e-06
6.89395e-06
6.88712e-06
6.87976e-06
6.87183e-06
6.86335e-06
6.85431e-06
6.84475e-06
6.83473e-06
6.82445e-06
6.81427e-06
6.80468e-06
2.23257e-05
2.23565e-05
2.23891e-05
2.2422e-05
2.2454e-05
2.24846e-05
2.25134e-05
2.25405e-05
2.25658e-05
2.25893e-05
2.26111e-05
2.26312e-05
2.26497e-05
2.26667e-05
2.26822e-05
2.26963e-05
2.27091e-05
2.27207e-05
2.27311e-05
2.27403e-05
2.27486e-05
2.27558e-05
2.27621e-05
2.27675e-05
2.2772e-05
2.27757e-05
2.27787e-05
2.27809e-05
2.27823e-05
2.2783e-05
2.2783e-05
2.27823e-05
2.27809e-05
2.27787e-05
2.27757e-05
2.2772e-05
2.27675e-05
2.27621e-05
2.27558e-05
2.27486e-05
2.27403e-05
2.27311e-05
2.27207e-05
2.27091e-05
2.26963e-05
2.26822e-05
2.26667e-05
2.26497e-05
2.26312e-05
2.26111e-05
2.25893e-05
2.25658e-05
2.25405e-05
2.25134e-05
2.24846e-05
2.2454e-05
2.2422e-05
2.23891e-05
2.23565e-05
2.23257e-05
6.90282e-05
6.91205e-05
6.92178e-05
6.93156e-05
6.94107e-05
6.95015e-05
6.95871e-05
6.96675e-05
6.97426e-05
6.98123e-05
6.9877e-05
6.99366e-05
6.99916e-05
7.00419e-05
7.00879e-05
7.01298e-05
7.01678e-05
7.0202e-05
7.02328e-05
7.02603e-05
7.02847e-05
7.03061e-05
7.03247e-05
7.03407e-05
7.03542e-05
7.03652e-05
7.0374e-05
7.03804e-05
7.03847e-05
7.03869e-05
7.03869e-05
7.03847e-05
7.03804e-05
7.0374e-05
7.03652e-05
7.03542e-05
7.03407e-05
7.03247e-05
7.03061e-05
7.02847e-05
7.02603e-05
7.02328e-05
7.0202e-05
7.01678e-05
7.01298e-05
7.00879e-05
7.00419e-05
6.99916e-05
6.99366e-05
6.9877e-05
6.98123e-05
6.97426e-05
6.96675e-05
6.95871e-05
6.95015e-05
6.94107e-05
6.93156e-05
6.92178e-05
6.91205e-05
6.90282e-05
0.000198653
0.000198906
0.000199172
0.000199439
0.000199698
0.000199945
0.000200178
0.000200396
0.0002006
0.00020079
0.000200966
0.000201128
0.000201277
0.000201414
0.000201539
0.000201652
0.000201756
0.000201849
0.000201932
0.000202007
0.000202073
0.000202131
0.000202182
0.000202225
0.000202262
0.000202292
0.000202315
0.000202333
0.000202345
0.00020235
0.00020235
0.000202345
0.000202333
0.000202315
0.000202292
0.000202262
0.000202225
0.000202182
0.000202131
0.000202073
0.000202007
0.000201932
0.000201849
0.000201756
0.000201652
0.000201539
0.000201414
0.000201277
0.000201128
0.000200966
0.00020079
0.0002006
0.000200396
0.000200178
0.000199945
0.000199698
0.000199439
0.000199172
0.000198906
0.000198653
0.000525089
0.000525717
0.000526372
0.000527028
0.000527662
0.000528267
0.000528838
0.000529373
0.000529873
0.000530337
0.000530767
0.000531164
0.000531529
0.000531863
0.000532169
0.000532447
0.000532699
0.000532927
0.000533131
0.000533314
0.000533475
0.000533618
0.000533741
0.000533847
0.000533937
0.00053401
0.000534068
0.000534111
0.000534139
0.000534153
0.000534153
0.000534139
0.000534111
0.000534068
0.00053401
0.000533937
0.000533847
0.000533741
0.000533618
0.000533475
0.000533314
0.000533131
0.000532927
0.000532699
0.000532447
0.000532169
0.000531863
0.000531529
0.000531164
0.000530767
0.000530337
0.000529873