/*--------------------------------*- C++ -*----------------------------------*\
| =========                 |                                                 |
| \\      /  F ield         | foam-extend: Open Source CFD                    |
|  \\    /   O peration     | Version:     4.0                                |
|   \\  /    A nd           | Web:         http://www.foam-extend.org         |
|    \\/     M anipulation  |                                                 |
\*---------------------------------------------------------------------------*/
FoamFile
{
    version     2.0;
    format      ascii;
    class       volScalarField;
    location    "8";
    object      cMinus;
}
// * * * * * * * * * * * * * * * * * * * * * * * * * * * * * * * * * * * * * //

dimensions      [0 -3 0 0 0 0 0];

internalField   nonuniform List<scalar> 
6960
(
-9.04274e-07
-3.18269e-07
2.79772e-07
4.22406e-07
2.82327e-07
1.31605e-07
5.187e-08
2.188e-08
1.28375e-08
1.05106e-08
9.97497e-09
9.86203e-09
9.84027e-09
9.83589e-09
9.8342e-09
9.83548e-09
9.8356e-09
9.83598e-09
9.8365e-09
9.83447e-09
9.83301e-09
9.83342e-09
9.83398e-09
9.83546e-09
9.83353e-09
9.8382e-09
9.8371e-09
9.83327e-09
9.8347e-09
9.8335e-09
9.83262e-09
9.83612e-09
9.83707e-09
9.83418e-09
9.83616e-09
9.83419e-09
9.83396e-09
9.83353e-09
9.83226e-09
9.83496e-09
9.83528e-09
9.83377e-09
9.83452e-09
9.83315e-09
9.83439e-09
9.8352e-09
9.83566e-09
9.8391e-09
9.8639e-09
9.97645e-09
1.05112e-08
1.28384e-08
2.18764e-08
5.18704e-08
1.31604e-07
2.82328e-07
4.2241e-07
2.79771e-07
-3.18269e-07
-9.04271e-07
-9.96813e-07
-3.50847e-07
3.08394e-07
4.65634e-07
3.11231e-07
1.45085e-07
5.7186e-08
2.41226e-08
1.41523e-08
1.15863e-08
1.09956e-08
1.0871e-08
1.0847e-08
1.08422e-08
1.08403e-08
1.08417e-08
1.08418e-08
1.08422e-08
1.08428e-08
1.08406e-08
1.0839e-08
1.08394e-08
1.084e-08
1.08417e-08
1.08395e-08
1.08447e-08
1.08435e-08
1.08393e-08
1.08408e-08
1.08395e-08
1.08386e-08
1.08424e-08
1.08434e-08
1.08403e-08
1.08424e-08
1.08403e-08
1.084e-08
1.08396e-08
1.08382e-08
1.08411e-08
1.08415e-08
1.08398e-08
1.08406e-08
1.08391e-08
1.08405e-08
1.08414e-08
1.08419e-08
1.08457e-08
1.0873e-08
1.09972e-08
1.1587e-08
1.41533e-08
2.41186e-08
5.71865e-08
1.45084e-07
3.11232e-07
4.65639e-07
3.08392e-07
-3.50847e-07
-9.9681e-07
-1.09244e-06
-3.84713e-07
3.37695e-07
5.10301e-07
3.41286e-07
1.59189e-07
6.27749e-08
2.64805e-08
1.55276e-08
1.27063e-08
1.20563e-08
1.19191e-08
1.18926e-08
1.18873e-08
1.18853e-08
1.18868e-08
1.18869e-08
1.18874e-08
1.1888e-08
1.18856e-08
1.18838e-08
1.18843e-08
1.1885e-08
1.18867e-08
1.18845e-08
1.189e-08
1.18886e-08
1.18842e-08
1.18859e-08
1.18845e-08
1.18834e-08
1.18875e-08
1.18887e-08
1.18852e-08
1.18876e-08
1.18852e-08
1.1885e-08
1.18845e-08
1.1883e-08
1.18862e-08
1.18866e-08
1.18848e-08
1.18857e-08
1.1884e-08
1.18855e-08
1.18864e-08
1.1887e-08
1.18913e-08
1.19213e-08
1.20581e-08
1.2707e-08
1.55286e-08
2.64763e-08
6.27753e-08
1.59188e-07
3.41287e-07
5.10306e-07
3.37693e-07
-3.84712e-07
-1.09244e-06
-1.191e-06
-4.1984e-07
3.67584e-07
5.56329e-07
3.72473e-07
1.73922e-07
6.86432e-08
2.89567e-08
1.69637e-08
1.387e-08
1.31562e-08
1.30055e-08
1.29762e-08
1.29704e-08
1.29682e-08
1.29698e-08
1.297e-08
1.29705e-08
1.29711e-08
1.29685e-08
1.29665e-08
1.29672e-08
1.29679e-08
1.29697e-08
1.29674e-08
1.29732e-08
1.29717e-08
1.2967e-08
1.29688e-08
1.29673e-08
1.29663e-08
1.29706e-08
1.29718e-08
1.29682e-08
1.29706e-08
1.29681e-08
1.29679e-08
1.29674e-08
1.29658e-08
1.29691e-08
1.29696e-08
1.29677e-08
1.29686e-08
1.29669e-08
1.29685e-08
1.29693e-08
1.297e-08
1.29749e-08
1.30079e-08
1.31583e-08
1.38708e-08
1.69648e-08
2.89523e-08
6.86436e-08
1.73921e-07
3.72474e-07
5.56335e-07
3.67582e-07
-4.1984e-07
-1.19099e-06
-1.2923e-06
-4.56203e-07
3.97962e-07
6.03638e-07
4.04768e-07
1.89288e-07
7.47978e-08
3.15542e-08
1.84612e-08
1.50769e-08
1.42945e-08
1.4129e-08
1.40967e-08
1.40905e-08
1.40881e-08
1.40897e-08
1.40899e-08
1.40904e-08
1.40911e-08
1.40883e-08
1.40862e-08
1.4087e-08
1.40876e-08
1.40895e-08
1.40871e-08
1.40932e-08
1.40916e-08
1.40867e-08
1.40886e-08
1.40871e-08
1.40861e-08
1.40905e-08
1.40918e-08
1.4088e-08
1.40905e-08
1.40878e-08
1.40877e-08
1.40872e-08
1.40856e-08
1.4089e-08
1.40895e-08
1.40875e-08
1.40885e-08
1.40867e-08
1.40883e-08
1.40891e-08
1.40899e-08
1.40955e-08
1.41316e-08
1.42968e-08
1.50777e-08
1.84623e-08
3.15497e-08
7.47982e-08
1.89287e-07
4.04769e-07
6.03644e-07
3.97959e-07
-4.56202e-07
-1.2923e-06
-1.39618e-06
-4.93768e-07
4.28724e-07
6.52139e-07
4.38145e-07
2.05291e-07
8.12456e-08
3.42762e-08
2.00205e-08
1.63263e-08
1.547e-08
1.52886e-08
1.52529e-08
1.52462e-08
1.52437e-08
1.52453e-08
1.52455e-08
1.52461e-08
1.52467e-08
1.52438e-08
1.52415e-08
1.52425e-08
1.52431e-08
1.5245e-08
1.52427e-08
1.52488e-08
1.52472e-08
1.52422e-08
1.52441e-08
1.52426e-08
1.52416e-08
1.52461e-08
1.52475e-08
1.52435e-08
1.5246e-08
1.52433e-08
1.52432e-08
1.52427e-08
1.52411e-08
1.52445e-08
1.52452e-08
1.5243e-08
1.5244e-08
1.52422e-08
1.52439e-08
1.52446e-08
1.52455e-08
1.52519e-08
1.52913e-08
1.54726e-08
1.63271e-08
2.00216e-08
3.42716e-08
8.1246e-08
2.0529e-07
4.38147e-07
6.52145e-07
4.28722e-07
-4.93767e-07
-1.39618e-06
-1.50243e-06
-5.32502e-07
4.59765e-07
7.01738e-07
4.72575e-07
2.21934e-07
8.79933e-08
3.7126e-08
2.1642e-08
1.76174e-08
1.66818e-08
1.64831e-08
1.64437e-08
1.64365e-08
1.64337e-08
1.64353e-08
1.64356e-08
1.64361e-08
1.64368e-08
1.64337e-08
1.64313e-08
1.64324e-08
1.64331e-08
1.6435e-08
1.64327e-08
1.64389e-08
1.64372e-08
1.64321e-08
1.64341e-08
1.64326e-08
1.64316e-08
1.64361e-08
1.64376e-08
1.64336e-08
1.6436e-08
1.64332e-08
1.64332e-08
1.64326e-08
1.64311e-08
1.64345e-08
1.64353e-08
1.64329e-08
1.6434e-08
1.64322e-08
1.64339e-08
1.64346e-08
1.64355e-08
1.64429e-08
1.64859e-08
1.66846e-08
1.76182e-08
2.16431e-08
3.71214e-08
8.79937e-08
2.21933e-07
4.72577e-07
7.01745e-07
4.59763e-07
-5.32501e-07
-1.50243e-06
-1.61085e-06
-5.72366e-07
4.90972e-07
7.52336e-07
5.08025e-07
2.39219e-07
9.5048e-08
4.01069e-08
2.33264e-08
1.89496e-08
1.79286e-08
1.77111e-08
1.76677e-08
1.76598e-08
1.76569e-08
1.76585e-08
1.76587e-08
1.76593e-08
1.76599e-08
1.76568e-08
1.76543e-08
1.76555e-08
1.76562e-08
1.7658e-08
1.76558e-08
1.7662e-08
1.76603e-08
1.76552e-08
1.76572e-08
1.76557e-08
1.76547e-08
1.76592e-08
1.76607e-08
1.76567e-08
1.76591e-08
1.76563e-08
1.76563e-08
1.76557e-08
1.76542e-08
1.76576e-08
1.76584e-08
1.7656e-08
1.76571e-08
1.76553e-08
1.7657e-08
1.76576e-08
1.76587e-08
1.7667e-08
1.7714e-08
1.79316e-08
1.89503e-08
2.33274e-08
4.01024e-08
9.50484e-08
2.39218e-07
5.08028e-07
7.52343e-07
4.90969e-07
-5.72366e-07
-1.61085e-06
-1.72122e-06
-6.13321e-07
5.2223e-07
8.03828e-07
5.44461e-07
2.57147e-07
1.02417e-07
4.32226e-08
2.5074e-08
2.03219e-08
1.92092e-08
1.89713e-08
1.89235e-08
1.89148e-08
1.89118e-08
1.89132e-08
1.89134e-08
1.89141e-08
1.89147e-08
1.89115e-08
1.8909e-08
1.89103e-08
1.8911e-08
1.89127e-08
1.89106e-08
1.89168e-08
1.89151e-08
1.89099e-08
1.89119e-08
1.89105e-08
1.89095e-08
1.8914e-08
1.89155e-08
1.89116e-08
1.89139e-08
1.8911e-08
1.89111e-08
1.89104e-08
1.8909e-08
1.89123e-08
1.89132e-08
1.89107e-08
1.89118e-08
1.891e-08
1.89118e-08
1.89123e-08
1.89136e-08
1.89229e-08
1.89742e-08
1.92124e-08
2.03226e-08
2.5075e-08
4.32182e-08
1.02417e-07
2.57147e-07
5.44464e-07
8.03835e-07
5.22228e-07
-6.1332e-07
-1.72122e-06
-1.83332e-06
-6.55321e-07
5.53423e-07
8.56106e-07
5.81843e-07
2.7572e-07
1.10106e-07
4.64766e-08
2.68854e-08
2.17336e-08
2.05222e-08
2.02622e-08
2.02095e-08
2.02e-08
2.01968e-08
2.01981e-08
2.01983e-08
2.0199e-08
2.01996e-08
2.01964e-08
2.01938e-08
2.01952e-08
2.0196e-08
2.01976e-08
2.01956e-08
2.02016e-08
2.01999e-08
2.01949e-08
2.01967e-08
2.01954e-08
2.01944e-08
2.01989e-08
2.02004e-08
2.01966e-08
2.01988e-08
2.01959e-08
2.0196e-08
2.01953e-08
2.01939e-08
2.01972e-08
2.01982e-08
2.01955e-08
2.01967e-08
2.01949e-08
2.01967e-08
2.01971e-08
2.01987e-08
2.02091e-08
2.02651e-08
2.05256e-08
2.17343e-08
2.68864e-08
4.64723e-08
1.10107e-07
2.7572e-07
5.81846e-07
8.56113e-07
5.53421e-07
-6.55321e-07
-1.83332e-06
-1.94691e-06
-6.98322e-07
5.8443e-07
9.09055e-07
6.20131e-07
2.94936e-07
1.18124e-07
4.98729e-08
2.87613e-08
2.31838e-08
2.18662e-08
2.15821e-08
2.15242e-08
2.15137e-08
2.15104e-08
2.15116e-08
2.15117e-08
2.15125e-08
2.15131e-08
2.15098e-08
2.15073e-08
2.15087e-08
2.15095e-08
2.1511e-08
2.15091e-08
2.15151e-08
2.15133e-08
2.15084e-08
2.15101e-08
2.1509e-08
2.15079e-08
2.15124e-08
2.15138e-08
2.15102e-08
2.15123e-08
2.15094e-08
2.15095e-08
2.15087e-08
2.15074e-08
2.15106e-08
2.15117e-08
2.15088e-08
2.151e-08
2.15083e-08
2.15101e-08
2.15105e-08
2.15123e-08
2.15239e-08
2.15851e-08
2.18698e-08
2.31844e-08
2.87623e-08
4.98687e-08
1.18125e-07
2.94936e-07
6.20134e-07
9.09062e-07
5.84428e-07
-6.98322e-07
-1.94691e-06
-2.06176e-06
-7.42272e-07
6.1513e-07
9.62557e-07
6.59279e-07
3.14794e-07
1.26478e-07
5.34155e-08
3.07025e-08
2.46715e-08
2.32399e-08
2.29297e-08
2.2866e-08
2.28544e-08
2.28509e-08
2.28519e-08
2.2852e-08
2.28528e-08
2.28534e-08
2.28502e-08
2.28477e-08
2.28492e-08
2.285e-08
2.28514e-08
2.28496e-08
2.28554e-08
2.28536e-08
2.28488e-08
2.28504e-08
2.28494e-08
2.28483e-08
2.28528e-08
2.28541e-08
2.28507e-08
2.28527e-08
2.28498e-08
2.28499e-08
2.2849e-08
2.28478e-08
2.28509e-08
2.28521e-08
2.28491e-08
2.28503e-08
2.28487e-08
2.28505e-08
2.28509e-08
2.2853e-08
2.28658e-08
2.29326e-08
2.32435e-08
2.46722e-08
3.07034e-08
5.34114e-08
1.26478e-07
3.14794e-07
6.59282e-07
9.62564e-07
6.15128e-07
-7.42272e-07
-2.06176e-06
-2.17762e-06
-7.87121e-07
6.45399e-07
1.01649e-06
6.99241e-07
3.35291e-07
1.35173e-07
5.71085e-08
3.27096e-08
2.6196e-08
2.46417e-08
2.43031e-08
2.42331e-08
2.42202e-08
2.42166e-08
2.42175e-08
2.42175e-08
2.42184e-08
2.4219e-08
2.42157e-08
2.42133e-08
2.42148e-08
2.42157e-08
2.4217e-08
2.42153e-08
2.42209e-08
2.42191e-08
2.42145e-08
2.42159e-08
2.4215e-08
2.42139e-08
2.42183e-08
2.42196e-08
2.42164e-08
2.42182e-08
2.42154e-08
2.42154e-08
2.42145e-08
2.42134e-08
2.42164e-08
2.42176e-08
2.42146e-08
2.42158e-08
2.42142e-08
2.4216e-08
2.42164e-08
2.42188e-08
2.4233e-08
2.4306e-08
2.46454e-08
2.61966e-08
3.27105e-08
5.71046e-08
1.35174e-07
3.35292e-07
6.99244e-07
1.0165e-06
6.45397e-07
-7.87121e-07
-2.17762e-06
-2.29424e-06
-8.32812e-07
6.75115e-07
1.07073e-06
7.39967e-07
3.56426e-07
1.44219e-07
6.09565e-08
3.47836e-08
2.77564e-08
2.60701e-08
2.57007e-08
2.56238e-08
2.56095e-08
2.56058e-08
2.56064e-08
2.56064e-08
2.56073e-08
2.5608e-08
2.56046e-08
2.56023e-08
2.56039e-08
2.56048e-08
2.5606e-08
2.56044e-08
2.56098e-08
2.5608e-08
2.56036e-08
2.56048e-08
2.5604e-08
2.56029e-08
2.56072e-08
2.56086e-08
2.56056e-08
2.56073e-08
2.56044e-08
2.56044e-08
2.56034e-08
2.56024e-08
2.56053e-08
2.56066e-08
2.56035e-08
2.56046e-08
2.56031e-08
2.5605e-08
2.56053e-08
2.56082e-08
2.56238e-08
2.57035e-08
2.60739e-08
2.77569e-08
3.47845e-08
6.09526e-08
1.4422e-07
3.56426e-07
7.3997e-07
1.07074e-06
6.75113e-07
-8.32812e-07
-2.29423e-06
-2.41136e-06
-8.7929e-07
7.04153e-07
1.12515e-06
7.81402e-07
3.78192e-07
1.53621e-07
6.4964e-08
3.69256e-08
2.93518e-08
2.75237e-08
2.71207e-08
2.70364e-08
2.70205e-08
2.70165e-08
2.7017e-08
2.7017e-08
2.70179e-08
2.70186e-08
2.70152e-08
2.7013e-08
2.70146e-08
2.70155e-08
2.70166e-08
2.70151e-08
2.70203e-08
2.70185e-08
2.70143e-08
2.70154e-08
2.70147e-08
2.70135e-08
2.70178e-08
2.70191e-08
2.70164e-08
2.70179e-08
2.70151e-08
2.7015e-08
2.7014e-08
2.70131e-08
2.70159e-08
2.70171e-08
2.7014e-08
2.70151e-08
2.70137e-08
2.70155e-08
2.70158e-08
2.70192e-08
2.70364e-08
2.71235e-08
2.75275e-08
2.93523e-08
3.69265e-08
6.49602e-08
1.53623e-07
3.78193e-07
7.81406e-07
1.12516e-06
7.04152e-07
-8.7929e-07
-2.41136e-06
-2.52873e-06
-9.26494e-07
7.32392e-07
1.17962e-06
8.23493e-07
4.00585e-07
1.63388e-07
6.91358e-08
3.91366e-08
3.09814e-08
2.90007e-08
2.85615e-08
2.84689e-08
2.84512e-08
2.84471e-08
2.84473e-08
2.84473e-08
2.84482e-08
2.8449e-08
2.84455e-08
2.84435e-08
2.84451e-08
2.84461e-08
2.84471e-08
2.84457e-08
2.84506e-08
2.84487e-08
2.84448e-08
2.84457e-08
2.84451e-08
2.84439e-08
2.8448e-08
2.84494e-08
2.84469e-08
2.84483e-08
2.84455e-08
2.84453e-08
2.84443e-08
2.84435e-08
2.84462e-08
2.84474e-08
2.84443e-08
2.84453e-08
2.8444e-08
2.84458e-08
2.84461e-08
2.84501e-08
2.84691e-08
2.85642e-08
2.90047e-08
3.0982e-08
3.91376e-08
6.91321e-08
1.63389e-07
4.00586e-07
8.23496e-07
1.17962e-06
7.3239e-07
-9.26495e-07
-2.52873e-06
-2.64609e-06
-9.74363e-07
7.59708e-07
1.234e-06
8.66179e-07
4.23598e-07
1.73526e-07
7.3477e-08
4.14181e-08
3.26445e-08
3.04999e-08
3.00211e-08
2.99196e-08
2.98999e-08
2.98956e-08
2.98955e-08
2.98955e-08
2.98964e-08
2.98973e-08
2.98936e-08
2.98919e-08
2.98934e-08
2.98945e-08
2.98954e-08
2.98941e-08
2.98988e-08
2.98969e-08
2.98932e-08
2.98939e-08
2.98934e-08
2.98922e-08
2.98962e-08
2.98977e-08
2.98954e-08
2.98966e-08
2.98939e-08
2.98935e-08
2.98925e-08
2.98918e-08
2.98944e-08
2.98956e-08
2.98925e-08
2.98934e-08
2.98922e-08
2.98941e-08
2.98943e-08
2.98989e-08
2.99198e-08
3.00238e-08
3.05038e-08
3.26451e-08
4.14191e-08
7.34734e-08
1.73527e-07
4.23598e-07
8.66182e-07
1.23401e-06
7.59707e-07
-9.74364e-07
-2.64608e-06
-2.76317e-06
-1.02283e-06
7.85981e-07
1.28816e-06
9.09399e-07
4.47222e-07
1.84042e-07
7.79929e-08
4.37716e-08
3.43405e-08
3.20195e-08
3.14979e-08
3.13865e-08
3.13646e-08
3.136e-08
3.13596e-08
3.13597e-08
3.13606e-08
3.13616e-08
3.13578e-08
3.13563e-08
3.13579e-08
3.13589e-08
3.13597e-08
3.13585e-08
3.13629e-08
3.1361e-08
3.13576e-08
3.13582e-08
3.13576e-08
3.13565e-08
3.13603e-08
3.1362e-08
3.13598e-08
3.13609e-08
3.13582e-08
3.13577e-08
3.13566e-08
3.13562e-08
3.13586e-08
3.13597e-08
3.13567e-08
3.13575e-08
3.13565e-08
3.13583e-08
3.13584e-08
3.13638e-08
3.13868e-08
3.15005e-08
3.20235e-08
3.43411e-08
4.37725e-08
7.79895e-08
1.84043e-07
4.47223e-07
9.09402e-07
1.28817e-06
7.8598e-07
-1.02283e-06
-2.76317e-06
-2.87971e-06
-1.07184e-06
8.11094e-07
1.34196e-06
9.5309e-07
4.71449e-07
1.94943e-07
8.26892e-08
4.61986e-08
3.60687e-08
3.35581e-08
3.29899e-08
3.28678e-08
3.28435e-08
3.28386e-08
3.28379e-08
3.28381e-08
3.28389e-08
3.284e-08
3.28361e-08
3.28347e-08
3.28364e-08
3.28373e-08
3.28381e-08
3.28371e-08
3.28411e-08
3.28392e-08
3.28361e-08
3.28365e-08
3.2836e-08
3.28348e-08
3.28385e-08
3.28403e-08
3.28383e-08
3.28393e-08
3.28366e-08
3.2836e-08
3.28349e-08
3.28346e-08
3.28369e-08
3.28379e-08
3.2835e-08
3.28357e-08
3.28347e-08
3.28366e-08
3.28367e-08
3.28428e-08
3.28683e-08
3.29925e-08
3.35622e-08
3.60694e-08
4.61996e-08
8.26858e-08
1.94945e-07
4.7145e-07
9.53093e-07
1.34197e-06
8.11093e-07
-1.07184e-06
-2.87971e-06
-2.99546e-06
-1.12131e-06
8.34931e-07
1.39527e-06
9.97185e-07
4.96267e-07
2.06236e-07
8.75715e-08
4.87011e-08
3.78287e-08
3.51143e-08
3.44955e-08
3.43615e-08
3.43346e-08
3.43293e-08
3.43283e-08
3.43286e-08
3.43294e-08
3.43306e-08
3.43265e-08
3.43254e-08
3.4327e-08
3.4328e-08
3.43287e-08
3.43278e-08
3.43315e-08
3.43296e-08
3.43267e-08
3.4327e-08
3.43264e-08
3.43254e-08
3.43288e-08
3.43309e-08
3.4329e-08
3.43298e-08
3.43272e-08
3.43264e-08
3.43254e-08
3.43252e-08
3.43274e-08
3.43283e-08
3.43255e-08
3.4326e-08
3.43252e-08
3.4327e-08
3.43272e-08
3.43341e-08
3.43622e-08
3.44979e-08
3.51184e-08
3.78294e-08
4.87022e-08
8.75682e-08
2.06238e-07
4.96268e-07
9.97188e-07
1.39528e-06
8.3493e-07
-1.12131e-06
-2.99545e-06
-3.11014e-06
-1.17118e-06
8.5738e-07
1.44795e-06
1.04161e-06
5.21665e-07
2.17929e-07
9.2646e-08
5.12813e-08
3.96199e-08
3.66865e-08
3.60127e-08
3.58659e-08
3.58361e-08
3.58303e-08
3.5829e-08
3.58294e-08
3.58302e-08
3.58314e-08
3.58272e-08
3.58263e-08
3.5828e-08
3.58288e-08
3.58295e-08
3.58288e-08
3.58321e-08
3.58303e-08
3.58276e-08
3.58278e-08
3.58272e-08
3.58261e-08
3.58293e-08
3.58317e-08
3.58298e-08
3.58306e-08
3.58281e-08
3.58272e-08
3.58261e-08
3.5826e-08
3.58281e-08
3.58289e-08
3.58263e-08
3.58265e-08
3.58258e-08
3.58277e-08
3.58279e-08
3.58357e-08
3.58667e-08
3.60151e-08
3.66907e-08
3.96208e-08
5.12823e-08
9.26428e-08
2.17931e-07
5.21667e-07
1.04162e-06
1.44796e-06
8.57379e-07
-1.17118e-06
-3.11014e-06
-3.22351e-06
-1.22137e-06
8.78333e-07
1.49986e-06
1.08631e-06
5.4763e-07
2.30026e-07
9.7919e-08
5.39413e-08
4.14423e-08
3.82736e-08
3.75399e-08
3.73789e-08
3.7346e-08
3.73397e-08
3.73381e-08
3.73386e-08
3.73393e-08
3.73406e-08
3.73363e-08
3.73355e-08
3.73372e-08
3.7338e-08
3.73387e-08
3.73381e-08
3.73411e-08
3.73393e-08
3.73368e-08
3.7337e-08
3.73362e-08
3.73352e-08
3.73381e-08
3.73408e-08
3.7339e-08
3.73398e-08
3.73373e-08
3.73362e-08
3.73352e-08
3.73352e-08
3.73371e-08
3.73378e-08
3.73355e-08
3.73354e-08
3.73348e-08
3.73367e-08
3.7337e-08
3.73457e-08
3.73799e-08
3.75423e-08
3.82777e-08
4.14433e-08
5.39424e-08
9.79159e-08
2.30028e-07
5.47631e-07
1.08631e-06
1.49987e-06
8.78332e-07
-1.22137e-06
-3.22351e-06
-3.33531e-06
-1.27182e-06
8.97686e-07
1.55086e-06
1.13119e-06
5.74145e-07
2.42535e-07
1.03397e-07
5.66839e-08
4.32957e-08
3.9874e-08
3.90754e-08
3.88989e-08
3.88624e-08
3.88555e-08
3.88535e-08
3.88543e-08
3.88549e-08
3.88562e-08
3.88518e-08
3.88512e-08
3.8853e-08
3.88536e-08
3.88543e-08
3.88538e-08
3.88565e-08
3.88548e-08
3.88524e-08
3.88525e-08
3.88516e-08
3.88507e-08
3.88533e-08
3.88564e-08
3.88545e-08
3.88554e-08
3.88529e-08
3.88518e-08
3.88507e-08
3.88508e-08
3.88526e-08
3.88531e-08
3.8851e-08
3.88507e-08
3.88502e-08
3.88521e-08
3.88526e-08
3.88623e-08
3.89e-08
3.90777e-08
3.98781e-08
4.32967e-08
5.66849e-08
1.03394e-07
2.42538e-07
5.74146e-07
1.13119e-06
1.55087e-06
8.97685e-07
-1.27182e-06
-3.33531e-06
-3.44529e-06
-1.32245e-06
9.15341e-07
1.60082e-06
1.17619e-06
6.01194e-07
2.55461e-07
1.09087e-07
5.95118e-08
4.518e-08
4.14867e-08
4.06173e-08
4.04239e-08
4.03835e-08
4.03759e-08
4.03735e-08
4.03745e-08
4.0375e-08
4.03764e-08
4.03718e-08
4.03714e-08
4.03732e-08
4.03736e-08
4.03745e-08
4.03741e-08
4.03765e-08
4.03748e-08
4.03726e-08
4.03727e-08
4.03716e-08
4.03708e-08
4.03731e-08
4.03764e-08
4.03745e-08
4.03755e-08
4.03731e-08
4.03719e-08
4.03708e-08
4.0371e-08
4.03726e-08
4.0373e-08
4.03712e-08
4.03706e-08
4.03701e-08
4.0372e-08
4.03727e-08
4.03834e-08
4.04251e-08
4.06196e-08
4.14907e-08
4.51811e-08
5.95128e-08
1.09084e-07
2.55464e-07
6.01196e-07
1.17619e-06
1.60082e-06
9.15339e-07
-1.32245e-06
-3.44528e-06
-3.5532e-06
-1.37319e-06
9.31203e-07
1.64959e-06
1.22122e-06
6.28758e-07
2.6881e-07
1.14996e-07
6.24281e-08
4.70954e-08
4.31103e-08
4.21642e-08
4.19521e-08
4.19074e-08
4.1899e-08
4.18963e-08
4.18974e-08
4.18979e-08
4.18993e-08
4.18945e-08
4.18943e-08
4.18962e-08
4.18964e-08
4.18973e-08
4.18971e-08
4.18992e-08
4.18975e-08
4.18955e-08
4.18955e-08
4.18943e-08
4.18935e-08
4.18955e-08
4.18992e-08
4.18972e-08
4.18983e-08
4.1896e-08
4.18948e-08
4.18936e-08
4.18939e-08
4.18953e-08
4.18955e-08
4.1894e-08
4.18931e-08
4.18927e-08
4.18946e-08
4.18956e-08
4.19073e-08
4.19535e-08
4.21664e-08
4.31142e-08
4.70966e-08
6.24291e-08
1.14994e-07
2.68814e-07
6.2876e-07
1.22122e-06
1.6496e-06
9.31202e-07
-1.37319e-06
-3.5532e-06
-3.65881e-06
-1.42395e-06
9.45186e-07
1.69705e-06
1.2662e-06
6.56818e-07
2.82588e-07
1.21132e-07
6.54364e-08
4.90424e-08
4.4744e-08
4.37143e-08
4.34818e-08
4.34324e-08
4.34231e-08
4.34199e-08
4.34213e-08
4.34217e-08
4.34231e-08
4.34181e-08
4.34181e-08
4.342e-08
4.342e-08
4.3421e-08
4.34209e-08
4.34228e-08
4.34211e-08
4.34192e-08
4.34193e-08
4.34179e-08
4.34171e-08
4.34188e-08
4.34227e-08
4.34207e-08
4.3422e-08
4.34197e-08
4.34185e-08
4.34173e-08
4.34176e-08
4.34189e-08
4.34189e-08
4.34177e-08
4.34166e-08
4.34162e-08
4.34181e-08
4.34193e-08
4.34322e-08
4.34833e-08
4.37166e-08
4.47477e-08
4.90436e-08
6.54373e-08
1.21129e-07
2.82591e-07
6.56821e-07
1.26621e-06
1.69706e-06
9.45185e-07
-1.42395e-06
-3.6588e-06
-3.76188e-06
-1.47466e-06
9.57209e-07
1.74307e-06
1.31106e-06
6.85351e-07
2.96798e-07
1.27501e-07
6.85402e-08
5.10215e-08
4.63865e-08
4.52662e-08
4.50113e-08
4.49566e-08
4.49462e-08
4.49426e-08
4.49442e-08
4.49445e-08
4.4946e-08
4.49408e-08
4.4941e-08
4.49428e-08
4.49427e-08
4.49438e-08
4.49439e-08
4.49455e-08
4.49438e-08
4.49421e-08
4.4942e-08
4.49405e-08
4.49398e-08
4.49412e-08
4.49454e-08
4.49433e-08
4.49448e-08
4.49426e-08
4.49413e-08
4.49401e-08
4.49405e-08
4.49416e-08
4.49414e-08
4.49404e-08
4.49391e-08
4.49388e-08
4.49406e-08
4.49422e-08
4.49563e-08
4.50128e-08
4.52684e-08
4.63901e-08
5.10226e-08
6.85411e-08
1.27499e-07
2.96802e-07
6.85354e-07
1.31107e-06
1.74308e-06
9.57208e-07
-1.47466e-06
-3.76188e-06
-3.86219e-06
-1.52524e-06
9.67196e-07
1.78752e-06
1.35571e-06
7.14333e-07
3.11445e-07
1.34113e-07
7.17438e-08
5.30334e-08
4.80373e-08
4.68184e-08
4.65389e-08
4.64783e-08
4.64667e-08
4.64626e-08
4.64645e-08
4.64647e-08
4.64662e-08
4.64608e-08
4.64612e-08
4.6463e-08
4.64628e-08
4.64639e-08
4.64641e-08
4.64656e-08
4.64638e-08
4.64622e-08
4.64621e-08
4.64605e-08
4.64598e-08
4.6461e-08
4.64653e-08
4.64632e-08
4.6465e-08
4.64628e-08
4.64615e-08
4.64602e-08
4.64607e-08
4.64616e-08
4.64612e-08
4.64605e-08
4.64589e-08
4.64587e-08
4.64604e-08
4.64625e-08
4.64779e-08
4.65405e-08
4.68206e-08
4.80406e-08
5.30345e-08
7.17445e-08
1.34111e-07
3.11449e-07
7.14336e-07
1.35571e-06
1.78752e-06
9.67195e-07
-1.52524e-06
-3.86219e-06
-3.95953e-06
-1.57562e-06
9.75081e-07
1.83026e-06
1.40006e-06
7.43738e-07
3.26533e-07
1.40974e-07
7.50514e-08
5.50792e-08
4.96954e-08
4.83694e-08
4.8063e-08
4.79958e-08
4.79829e-08
4.79783e-08
4.79804e-08
4.79806e-08
4.7982e-08
4.79764e-08
4.7977e-08
4.79788e-08
4.79785e-08
4.79797e-08
4.79799e-08
4.79813e-08
4.79794e-08
4.7978e-08
4.79779e-08
4.79761e-08
4.79754e-08
4.79764e-08
4.79808e-08
4.79787e-08
4.79807e-08
4.79786e-08
4.79774e-08
4.79759e-08
4.79765e-08
4.79772e-08
4.79766e-08
4.79761e-08
4.79744e-08
4.79743e-08
4.7976e-08
4.79784e-08
4.79954e-08
4.80645e-08
4.83718e-08
4.96984e-08
5.50801e-08
7.5052e-08
1.40972e-07
3.26537e-07
7.43741e-07
1.40006e-06
1.83026e-06
9.7508e-07
-1.57562e-06
-3.95952e-06
-4.05368e-06
-1.62571e-06
9.80803e-07
1.87118e-06
1.44403e-06
7.73538e-07
3.42064e-07
1.48093e-07
7.84678e-08
5.716e-08
5.13603e-08
4.9918e-08
4.95819e-08
4.95076e-08
4.94932e-08
4.94881e-08
4.94902e-08
4.94905e-08
4.94918e-08
4.94861e-08
4.94868e-08
4.94885e-08
4.94881e-08
4.94894e-08
4.94898e-08
4.94911e-08
4.94891e-08
4.94878e-08
4.94875e-08
4.94856e-08
4.9485e-08
4.94858e-08
4.94904e-08
4.94883e-08
4.94905e-08
4.94885e-08
4.94873e-08
4.94856e-08
4.94863e-08
4.94869e-08
4.94861e-08
4.94857e-08
4.94839e-08
4.94839e-08
4.94855e-08
4.94884e-08
4.95071e-08
4.95835e-08
4.99205e-08
5.13631e-08
5.71608e-08
7.84683e-08
1.48092e-07
3.42069e-07
7.73541e-07
1.44403e-06
1.87118e-06
9.80802e-07
-1.62571e-06
-4.05368e-06
-4.14445e-06
-1.67543e-06
9.84311e-07
1.91016e-06
1.48752e-06
8.03702e-07
3.58041e-07
1.55479e-07
8.19982e-08
5.92773e-08
5.30315e-08
5.1463e-08
5.10944e-08
5.1012e-08
5.09959e-08
5.09903e-08
5.09925e-08
5.09927e-08
5.0994e-08
5.09881e-08
5.09889e-08
5.09906e-08
5.09902e-08
5.09915e-08
5.0992e-08
5.09932e-08
5.09911e-08
5.09901e-08
5.09896e-08
5.09876e-08
5.09869e-08
5.09876e-08
5.09923e-08
5.09904e-08
5.09927e-08
5.09907e-08
5.09895e-08
5.09877e-08
5.09885e-08
5.09889e-08
5.0988e-08
5.09877e-08
5.09859e-08
5.09859e-08
5.09874e-08
5.09908e-08
5.10114e-08
5.10959e-08
5.14656e-08
5.30341e-08
5.92781e-08
8.19985e-08
1.55478e-07
3.58046e-07
8.03705e-07
1.48752e-06
1.91016e-06
9.84309e-07
-1.67543e-06
-4.14445e-06
-4.23165e-06
-1.72471e-06
9.85559e-07
1.94708e-06
1.53045e-06
8.34198e-07
3.74465e-07
1.6314e-07
8.56479e-08
6.1433e-08
5.47087e-08
5.30031e-08
5.25988e-08
5.25075e-08
5.24896e-08
5.24833e-08
5.24855e-08
5.24858e-08
5.24869e-08
5.2481e-08
5.24819e-08
5.24836e-08
5.24832e-08
5.24845e-08
5.2485e-08
5.24861e-08
5.2484e-08
5.24831e-08
5.24825e-08
5.24804e-08
5.24798e-08
5.24804e-08
5.24852e-08
5.24833e-08
5.24857e-08
5.24838e-08
5.24826e-08
5.24806e-08
5.24816e-08
5.24818e-08
5.24808e-08
5.24806e-08
5.24787e-08
5.24787e-08
5.24803e-08
5.24842e-08
5.25069e-08
5.26003e-08
5.30059e-08
5.47111e-08
6.14337e-08
8.56481e-08
1.6314e-07
3.7447e-07
8.34202e-07
1.53045e-06
1.94709e-06
9.85558e-07
-1.72471e-06
-4.23165e-06
-4.31512e-06
-1.77346e-06
9.84512e-07
1.98184e-06
1.57273e-06
8.64992e-07
3.91336e-07
1.71085e-07
8.94228e-08
6.3629e-08
5.63919e-08
5.45374e-08
5.40939e-08
5.39928e-08
5.39727e-08
5.39658e-08
5.39679e-08
5.39683e-08
5.39693e-08
5.39633e-08
5.39642e-08
5.3966e-08
5.39656e-08
5.39668e-08
5.39675e-08
5.39684e-08
5.39663e-08
5.39656e-08
5.39648e-08
5.39626e-08
5.3962e-08
5.39626e-08
5.39674e-08
5.39657e-08
5.39681e-08
5.39664e-08
5.39651e-08
5.3963e-08
5.3964e-08
5.3964e-08
5.39631e-08
5.39628e-08
5.3961e-08
5.3961e-08
5.39626e-08
5.39672e-08
5.39922e-08
5.40953e-08
5.45404e-08
5.63941e-08
6.36297e-08
8.94229e-08
1.71085e-07
3.9134e-07
8.64996e-07
1.57273e-06
1.98185e-06
9.84511e-07
-1.77345e-06
-4.31511e-06
-4.39467e-06
-1.82159e-06
9.81143e-07
2.01433e-06
1.61426e-06
8.96046e-07
4.08653e-07
1.79322e-07
9.33291e-08
6.58677e-08
5.80811e-08
5.6065e-08
5.55784e-08
5.54665e-08
5.54438e-08
5.54363e-08
5.54383e-08
5.54388e-08
5.54396e-08
5.54336e-08
5.54345e-08
5.54363e-08
5.5436e-08
5.54372e-08
5.54379e-08
5.54387e-08
5.54366e-08
5.5436e-08
5.5435e-08
5.54327e-08
5.54322e-08
5.54328e-08
5.54377e-08
5.54362e-08
5.54385e-08
5.54368e-08
5.54356e-08
5.54333e-08
5.54343e-08
5.54343e-08
5.54333e-08
5.5433e-08
5.54313e-08
5.54312e-08
5.54329e-08
5.54382e-08
5.54658e-08
5.55798e-08
5.60682e-08
5.8083e-08
6.58684e-08
9.33291e-08
1.79322e-07
4.08658e-07
8.9605e-07
1.61426e-06
2.01434e-06
9.81143e-07
-1.82159e-06
-4.39466e-06
-4.47016e-06
-1.86904e-06
9.75433e-07
2.04446e-06
1.65495e-06
9.27321e-07
4.26415e-07
1.87861e-07
9.73734e-08
6.81518e-08
5.97765e-08
5.75851e-08
5.70511e-08
5.69272e-08
5.69017e-08
5.68935e-08
5.68954e-08
5.68959e-08
5.68965e-08
5.68906e-08
5.68914e-08
5.68933e-08
5.6893e-08
5.68942e-08
5.68949e-08
5.68956e-08
5.68936e-08
5.68931e-08
5.68919e-08
5.68896e-08
5.68891e-08
5.68896e-08
5.68947e-08
5.68933e-08
5.68956e-08
5.6894e-08
5.68927e-08
5.68902e-08
5.68913e-08
5.68912e-08
5.68903e-08
5.68898e-08
5.68883e-08
5.68881e-08
5.68899e-08
5.6896e-08
5.69265e-08
5.70525e-08
5.75885e-08
5.97782e-08
6.81525e-08
9.73733e-08
1.87861e-07
4.2642e-07
9.27325e-07
1.65496e-06
2.04446e-06
9.75433e-07
-1.86904e-06
-4.47016e-06
-4.54145e-06
-1.91573e-06
9.67372e-07
2.07212e-06
1.69472e-06
9.58775e-07
4.44619e-07
1.96709e-07
1.01563e-07
7.04842e-08
6.14786e-08
5.90971e-08
5.8511e-08
5.83738e-08
5.83451e-08
5.83361e-08
5.83378e-08
5.83384e-08
5.83388e-08
5.8333e-08
5.83338e-08
5.83357e-08
5.83354e-08
5.83365e-08
5.83373e-08
5.83378e-08
5.8336e-08
5.83356e-08
5.83342e-08
5.83318e-08
5.83314e-08
5.83319e-08
5.8337e-08
5.83358e-08
5.8338e-08
5.83364e-08
5.83352e-08
5.83325e-08
5.83337e-08
5.83334e-08
5.83327e-08
5.83321e-08
5.83307e-08
5.83303e-08
5.83324e-08
5.83394e-08
5.83731e-08
5.85123e-08
5.91005e-08
6.14802e-08
7.04849e-08
1.01562e-07
1.96709e-07
4.44623e-07
9.58779e-07
1.69472e-06
2.07212e-06
9.67372e-07
-1.91572e-06
-4.54145e-06
-4.60841e-06
-1.96156e-06
9.56959e-07
2.09724e-06
1.73346e-06
9.90364e-07
4.6326e-07
2.05876e-07
1.05904e-07
7.28682e-08
6.3188e-08
6.06003e-08
5.9957e-08
5.98051e-08
5.97728e-08
5.9763e-08
5.97645e-08
5.97651e-08
5.97653e-08
5.97596e-08
5.97602e-08
5.97622e-08
5.9762e-08
5.97631e-08
5.97638e-08
5.97641e-08
5.97625e-08
5.97622e-08
5.97607e-08
5.97583e-08
5.97578e-08
5.97584e-08
5.97634e-08
5.97624e-08
5.97646e-08
5.97631e-08
5.97617e-08
5.97591e-08
5.97602e-08
5.97599e-08
5.97593e-08
5.97585e-08
5.97573e-08
5.97568e-08
5.9759e-08
5.9767e-08
5.98044e-08
5.99583e-08
6.06038e-08
6.31895e-08
7.2869e-08
1.05904e-07
2.05876e-07
4.63264e-07
9.90368e-07
1.73346e-06
2.09724e-06
9.56959e-07
-1.96155e-06
-4.60841e-06
-4.67093e-06
-2.00646e-06
9.44201e-07
2.11973e-06
1.77108e-06
1.02204e-06
4.82332e-07
2.1537e-07
1.10405e-07
7.53076e-08
6.49057e-08
6.20945e-08
6.13884e-08
6.12201e-08
6.11837e-08
6.11729e-08
6.11742e-08
6.11747e-08
6.11748e-08
6.11692e-08
6.11698e-08
6.11719e-08
6.11716e-08
6.11726e-08
6.11734e-08
6.11736e-08
6.11722e-08
6.11719e-08
6.11702e-08
6.11678e-08
6.11673e-08
6.1168e-08
6.1173e-08
6.11721e-08
6.11742e-08
6.11727e-08
6.11713e-08
6.11686e-08
6.11697e-08
6.11694e-08
6.1169e-08
6.11681e-08
6.11669e-08
6.11663e-08
6.11688e-08
6.11779e-08
6.12193e-08
6.13896e-08
6.2098e-08
6.49071e-08
7.53084e-08
1.10405e-07
2.1537e-07
4.82336e-07
1.02204e-06
1.77109e-06
2.11973e-06
9.44201e-07
-2.00646e-06
-4.67092e-06
-4.7289e-06
-2.05036e-06
9.29115e-07
2.13952e-06
1.8075e-06
1.05376e-06
5.01827e-07
2.25199e-07
1.15074e-07
7.78064e-08
6.66328e-08
6.35793e-08
6.28042e-08
6.26177e-08
6.25767e-08
6.25649e-08
6.25659e-08
6.25664e-08
6.25663e-08
6.25609e-08
6.25614e-08
6.25634e-08
6.25632e-08
6.25642e-08
6.25649e-08
6.2565e-08
6.25638e-08
6.25636e-08
6.25618e-08
6.25593e-08
6.25589e-08
6.25596e-08
6.25644e-08
6.25638e-08
6.25657e-08
6.25643e-08
6.25629e-08
6.25602e-08
6.25611e-08
6.2561e-08
6.25606e-08
6.25596e-08
6.25586e-08
6.25579e-08
6.25606e-08
6.2571e-08
6.26169e-08
6.28054e-08
6.35828e-08
6.66342e-08
7.78071e-08
1.15074e-07
2.25199e-07
5.01832e-07
1.05376e-06
1.80751e-06
2.13952e-06
9.29116e-07
-2.05035e-06
-4.7289e-06
-4.78224e-06
-2.09317e-06
9.11728e-07
2.15654e-06
1.84262e-06
1.08546e-06
5.21738e-07
2.35371e-07
1.19919e-07
8.03689e-08
6.83707e-08
6.50547e-08
6.42037e-08
6.3997e-08
6.39509e-08
6.3938e-08
6.39387e-08
6.3939e-08
6.39388e-08
6.39336e-08
6.3934e-08
6.3936e-08
6.39358e-08
6.39368e-08
6.39375e-08
6.39374e-08
6.39364e-08
6.39362e-08
6.39344e-08
6.39319e-08
6.39314e-08
6.39322e-08
6.39369e-08
6.39364e-08
6.39383e-08
6.3937e-08
6.39354e-08
6.39328e-08
6.39336e-08
6.39335e-08
6.39333e-08
6.39322e-08
6.39313e-08
6.39306e-08
6.39335e-08
6.39452e-08
6.39963e-08
6.4205e-08
6.50581e-08
6.83721e-08
8.03696e-08
1.19919e-07
2.35371e-07
5.21742e-07
1.08547e-06
1.84263e-06
2.15655e-06
9.11728e-07
-2.09317e-06
-4.78223e-06
-4.83087e-06
-2.13482e-06
8.92072e-07
2.17075e-06
1.87635e-06
1.1171e-06
5.42052e-07
2.45894e-07
1.24949e-07
8.29999e-08
7.01211e-08
6.65206e-08
6.55865e-08
6.53574e-08
6.53054e-08
6.52912e-08
6.52915e-08
6.52918e-08
6.52913e-08
6.52863e-08
6.52867e-08
6.52887e-08
6.52885e-08
6.52894e-08
6.52901e-08
6.52899e-08
6.52892e-08
6.52889e-08
6.5287e-08
6.52846e-08
6.52841e-08
6.5285e-08
6.52895e-08
6.52891e-08
6.52909e-08
6.52896e-08
6.5288e-08
6.52855e-08