/*--------------------------------*- C++ -*----------------------------------*\
| =========                 |                                                 |
| \\      /  F ield         | foam-extend: Open Source CFD                    |
|  \\    /   O peration     | Version:     4.0                                |
|   \\  /    A nd           | Web:         http://www.foam-extend.org         |
|    \\/     M anipulation  |                                                 |
\*---------------------------------------------------------------------------*/
FoamFile
{
    version     2.0;
    format      ascii;
    class       volScalarField;
    location    "270";
    object      cMinus;
}
// * * * * * * * * * * * * * * * * * * * * * * * * * * * * * * * * * * * * * //

dimensions      [0 0 0 0 0 0 0];

internalField   nonuniform List<scalar> 
6960
(
1.80882e-08
1.81081e-08
1.81125e-08
1.81162e-08
1.81199e-08
1.81233e-08
1.81265e-08
1.81295e-08
1.81323e-08
1.8135e-08
1.81374e-08
1.81397e-08
1.81418e-08
1.81438e-08
1.81457e-08
1.81475e-08
1.81491e-08
1.81506e-08
1.8152e-08
1.81532e-08
1.81544e-08
1.81554e-08
1.81563e-08
1.81571e-08
1.81578e-08
1.81584e-08
1.81589e-08
1.81592e-08
1.81594e-08
1.81596e-08
1.81596e-08
1.81594e-08
1.81592e-08
1.81589e-08
1.81584e-08
1.81578e-08
1.81571e-08
1.81563e-08
1.81554e-08
1.81544e-08
1.81532e-08
1.8152e-08
1.81506e-08
1.81491e-08
1.81475e-08
1.81457e-08
1.81438e-08
1.81418e-08
1.81397e-08
1.81374e-08
1.8135e-08
1.81323e-08
1.81295e-08
1.81265e-08
1.81233e-08
1.81199e-08
1.81162e-08
1.81125e-08
1.81081e-08
1.80882e-08
1.48786e-07
1.49027e-07
1.49081e-07
1.49116e-07
1.49147e-07
1.49176e-07
1.49203e-07
1.49229e-07
1.49252e-07
1.49275e-07
1.49296e-07
1.49316e-07
1.49335e-07
1.49353e-07
1.49369e-07
1.49385e-07
1.494e-07
1.49413e-07
1.49426e-07
1.49437e-07
1.49447e-07
1.49457e-07
1.49465e-07
1.49472e-07
1.49479e-07
1.49484e-07
1.49488e-07
1.49491e-07
1.49493e-07
1.49494e-07
1.49494e-07
1.49493e-07
1.49491e-07
1.49488e-07
1.49484e-07
1.49479e-07
1.49472e-07
1.49465e-07
1.49457e-07
1.49447e-07
1.49437e-07
1.49426e-07
1.49413e-07
1.494e-07
1.49385e-07
1.49369e-07
1.49353e-07
1.49335e-07
1.49316e-07
1.49296e-07
1.49275e-07
1.49252e-07
1.49229e-07
1.49203e-07
1.49176e-07
1.49147e-07
1.49116e-07
1.49081e-07
1.49027e-07
1.48786e-07
8.23058e-07
8.24741e-07
8.25134e-07
8.25346e-07
8.25515e-07
8.25667e-07
8.2581e-07
8.25943e-07
8.26068e-07
8.26186e-07
8.26297e-07
8.26402e-07
8.26501e-07
8.26594e-07
8.26681e-07
8.26763e-07
8.26839e-07
8.2691e-07
8.26975e-07
8.27035e-07
8.2709e-07
8.27139e-07
8.27183e-07
8.27221e-07
8.27254e-07
8.27281e-07
8.27303e-07
8.27319e-07
8.2733e-07
8.27335e-07
8.27335e-07
8.2733e-07
8.27319e-07
8.27303e-07
8.27281e-07
8.27254e-07
8.27221e-07
8.27183e-07
8.27139e-07
8.2709e-07
8.27035e-07
8.26975e-07
8.2691e-07
8.26839e-07
8.26763e-07
8.26681e-07
8.26594e-07
8.26501e-07
8.26402e-07
8.26297e-07
8.26186e-07
8.26068e-07
8.25943e-07
8.2581e-07
8.25667e-07
8.25515e-07
8.25346e-07
8.25134e-07
8.24741e-07
8.23058e-07
4.0656e-06
4.07543e-06
4.0778e-06
4.07891e-06
4.07972e-06
4.08044e-06
4.08109e-06
4.08171e-06
4.08228e-06
4.08283e-06
4.08334e-06
4.08382e-06
4.08427e-06
4.0847e-06
4.0851e-06
4.08548e-06
4.08583e-06
4.08615e-06
4.08645e-06
4.08673e-06
4.08698e-06
4.08721e-06
4.08741e-06
4.08758e-06
4.08773e-06
4.08786e-06
4.08796e-06
4.08803e-06
4.08808e-06
4.08811e-06
4.08811e-06
4.08808e-06
4.08803e-06
4.08796e-06
4.08786e-06
4.08773e-06
4.08758e-06
4.08741e-06
4.08721e-06
4.08698e-06
4.08673e-06
4.08645e-06
4.08615e-06
4.08583e-06
4.08548e-06
4.0851e-06
4.0847e-06
4.08427e-06
4.08382e-06
4.08334e-06
4.08283e-06
4.08228e-06
4.08171e-06
4.08109e-06
4.08044e-06
4.07972e-06
4.07891e-06
4.0778e-06
4.07543e-06
4.0656e-06
1.85631e-05
1.86136e-05
1.8626e-05
1.86313e-05
1.86348e-05
1.86379e-05
1.86407e-05
1.86432e-05
1.86457e-05
1.86479e-05
1.86501e-05
1.86521e-05
1.8654e-05
1.86558e-05
1.86575e-05
1.86591e-05
1.86605e-05
1.86619e-05
1.86632e-05
1.86643e-05
1.86654e-05
1.86663e-05
1.86672e-05
1.86679e-05
1.86685e-05
1.86691e-05
1.86695e-05
1.86698e-05
1.867e-05
1.86701e-05
1.86701e-05
1.867e-05
1.86698e-05
1.86695e-05
1.86691e-05
1.86685e-05
1.86679e-05
1.86672e-05
1.86663e-05
1.86654e-05
1.86643e-05
1.86632e-05
1.86619e-05
1.86605e-05
1.86591e-05
1.86575e-05
1.86558e-05
1.8654e-05
1.86521e-05
1.86501e-05
1.86479e-05
1.86457e-05
1.86432e-05
1.86407e-05
1.86379e-05
1.86348e-05
1.86313e-05
1.8626e-05
1.86136e-05
1.85631e-05
7.80781e-05
7.83074e-05
7.83643e-05
7.8387e-05
7.84012e-05
7.8413e-05
7.84237e-05
7.84336e-05
7.84429e-05
7.84516e-05
7.84598e-05
7.84675e-05
7.84748e-05
7.84816e-05
7.84881e-05
7.84941e-05
7.84997e-05
7.85049e-05
7.85097e-05
7.85141e-05
7.85181e-05
7.85217e-05
7.85249e-05
7.85277e-05
7.85301e-05
7.85321e-05
7.85338e-05
7.8535e-05
7.85358e-05
7.85362e-05
7.85362e-05
7.85358e-05
7.8535e-05
7.85338e-05
7.85321e-05
7.85301e-05
7.85277e-05
7.85249e-05
7.85217e-05
7.85181e-05
7.85141e-05
7.85097e-05
7.85049e-05
7.84997e-05
7.84941e-05
7.84881e-05
7.84816e-05
7.84748e-05
7.84675e-05
7.84598e-05
7.84516e-05
7.84429e-05
7.84336e-05
7.84237e-05
7.8413e-05
7.84012e-05
7.8387e-05
7.83643e-05
7.83074e-05
7.80781e-05
0.000299098
0.000300013
0.000300242
0.000300328
0.000300379
0.00030042
0.000300457
0.000300492
0.000300523
0.000300553
0.000300582
0.000300608
0.000300633
0.000300656
0.000300678
0.000300699
0.000300718
0.000300736
0.000300753
0.000300768
0.000300781
0.000300794
0.000300805
0.000300814
0.000300823
0.000300829
0.000300835
0.000300839
0.000300842
0.000300843
0.000300843
0.000300842
0.000300839
0.000300835
0.000300829
0.000300823
0.000300814
0.000300805
0.000300794
0.000300781
0.000300768
0.000300753
0.000300736
0.000300718
0.000300699
0.000300678
0.000300656
0.000300633
0.000300608
0.000300582
0.000300553
0.000300523
0.000300492
0.000300457
0.00030042
0.000300379
0.000300328
0.000300242
0.000300013
0.000299098
0.00102947
0.00103265
0.00103345
0.00103373
0.0010339
0.00103402
0.00103414
0.00103424
0.00103434
0.00103443
0.00103451
0.00103459
0.00103467
0.00103474
0.00103481
0.00103487
0.00103493
0.00103498
0.00103503
0.00103508
0.00103512
0.00103515
0.00103519
0.00103522
0.00103524
0.00103526
0.00103528
0.00103529
0.0010353
0.0010353
0.0010353
0.0010353
0.00103529
0.00103528
0.00103526
0.00103524
0.00103522
0.00103519
0.00103515
0.00103512
0.00103508
0.00103503
0.00103498
0.00103493
0.00103487
0.00103481
0.00103474
0.00103467
0.00103459
0.00103451
0.00103443
0.00103434
0.00103424
0.00103414
0.00103402
0.0010339
0.00103373
0.00103345
0.00103265
0.00102947
0.00313894
0.00314839
0.00315078
0.00315161
0.00315206
0.00315239
0.00315269
0.00315297
0.00315322
0.00315346
0.00315368
0.00315389
0.00315409
0.00315428
0.00315445
0.00315462
0.00315477
0.00315491
0.00315504
0.00315516
0.00315527
0.00315537
0.00315546
0.00315553
0.0031556
0.00315565
0.0031557
0.00315573
0.00315575
0.00315576
0.00315576
0.00315575
0.00315573
0.0031557
0.00315565
0.0031556
0.00315553
0.00315546
0.00315537
0.00315527
0.00315516
0.00315504
0.00315491
0.00315477
0.00315462
0.00315445
0.00315428
0.00315409
0.00315389
0.00315368
0.00315346
0.00315322
0.00315297
0.00315269
0.00315239
0.00315206
0.00315161
0.00315078
0.00314839
0.00313894
0.0083664
0.00839017
0.00839622
0.00839825
0.00839929
0.00840006
0.00840073
0.00840134
0.00840191
0.00840245
0.00840295
0.00840342
0.00840386
0.00840427
0.00840466
0.00840503
0.00840537
0.00840569
0.00840598
0.00840624
0.00840649
0.0084067
0.0084069
0.00840707
0.00840721
0.00840733
0.00840743
0.0084075
0.00840755
0.00840758
0.00840758
0.00840755
0.0084075
0.00840743
0.00840733
0.00840721
0.00840707
0.0084069
0.0084067
0.00840649
0.00840624
0.00840598
0.00840569
0.00840537
0.00840503
0.00840466
0.00840427
0.00840386
0.00840342
0.00840295
0.00840245
0.00840191
0.00840134
0.00840073
0.00840006
0.00839929
0.00839825
0.00839622
0.00839017
0.0083664
0.0193014
0.0193514
0.0193642
0.0193683
0.0193704
0.0193718
0.0193731
0.0193743
0.0193753
0.0193763
0.0193773
0.0193782
0.019379
0.0193798
0.0193805
0.0193812
0.0193818
0.0193824
0.0193829
0.0193834
0.0193839
0.0193843
0.0193847
0.019385
0.0193852
0.0193855
0.0193857
0.0193858
0.0193859
0.0193859
0.0193859
0.0193859
0.0193858
0.0193857
0.0193855
0.0193852
0.019385
0.0193847
0.0193843
0.0193839
0.0193834
0.0193829
0.0193824
0.0193818
0.0193812
0.0193805
0.0193798
0.019379
0.0193782
0.0193773
0.0193763
0.0193753
0.0193743
0.0193731
0.0193718
0.0193704
0.0193683
0.0193642
0.0193514
0.0193014
0.038433
0.0385209
0.0385434
0.0385506
0.0385539
0.0385563
0.0385583
0.0385601
0.0385618
0.0385633
0.0385648
0.0385662
0.0385674
0.0385687
0.0385698
0.0385709
0.0385718
0.0385728
0.0385736
0.0385744
0.0385751
0.0385757
0.0385763
0.0385768
0.0385772
0.0385776
0.0385778
0.0385781
0.0385782
0.0385783
0.0385783
0.0385782
0.0385781
0.0385778
0.0385776
0.0385772
0.0385768
0.0385763
0.0385757
0.0385751
0.0385744
0.0385736
0.0385728
0.0385718
0.0385709
0.0385698
0.0385687
0.0385674
0.0385662
0.0385648
0.0385633
0.0385618
0.0385601
0.0385583
0.0385563
0.0385539
0.0385506
0.0385434
0.0385209
0.038433
0.0665305
0.0666616
0.0666954
0.0667059
0.0667106
0.0667138
0.0667164
0.0667188
0.066721
0.0667231
0.066725
0.0667268
0.0667285
0.0667301
0.0667316
0.066733
0.0667343
0.0667355
0.0667366
0.0667376
0.0667386
0.0667394
0.0667401
0.0667408
0.0667413
0.0667418
0.0667422
0.0667425
0.0667426
0.0667427
0.0667427
0.0667426
0.0667425
0.0667422
0.0667418
0.0667413
0.0667408
0.0667401
0.0667394
0.0667386
0.0667376
0.0667366
0.0667355
0.0667343
0.066733
0.0667316
0.0667301
0.0667285
0.0667268
0.066725
0.0667231
0.066721
0.0667188
0.0667164
0.0667138
0.0667106
0.0667059
0.0666954
0.0666616
0.0665305
0.101869
0.10204
0.102084
0.102098
0.102104
0.102107
0.10211
0.102113
0.102116
0.102118
0.10212
0.102122
0.102124
0.102126
0.102128
0.102129
0.102131
0.102132
0.102134
0.102135
0.102136
0.102137
0.102138
0.102138
0.102139
0.102139
0.10214
0.10214
0.10214
0.102141
0.102141
0.10214
0.10214
0.10214
0.102139
0.102139
0.102138
0.102138
0.102137
0.102136
0.102135
0.102134
0.102132
0.102131
0.102129
0.102128
0.102126
0.102124
0.102122
0.10212
0.102118
0.102116
0.102113
0.10211
0.102107
0.102104
0.102098
0.102084
0.10204
0.101869
0.141257
0.14146
0.141513
0.141529
0.141535
0.141539
0.141542
0.141545
0.141548
0.14155
0.141552
0.141554
0.141556
0.141558
0.14156
0.141562
0.141563
0.141565
0.141566
0.141567
0.141568
0.141569
0.14157
0.141571
0.141571
0.141572
0.141572
0.141573
0.141573
0.141573
0.141573
0.141573
0.141573
0.141572
0.141572
0.141571
0.141571
0.14157
0.141569
0.141568
0.141567
0.141566
0.141565
0.141563
0.141562
0.14156
0.141558
0.141556
0.141554
0.141552
0.14155
0.141548
0.141545
0.141542
0.141539
0.141535
0.141529
0.141513
0.14146
0.141257
0.18177
0.181997
0.182057
0.182075
0.182081
0.182085
0.182089
0.182091
0.182094
0.182096
0.182099
0.182101
0.182103
0.182104
0.182106
0.182108
0.182109
0.182111
0.182112
0.182113
0.182114
0.182115
0.182116
0.182116
0.182117
0.182118
0.182118
0.182118
0.182119
0.182119
0.182119
0.182119
0.182118
0.182118
0.182118
0.182117
0.182116
0.182116
0.182115
0.182114
0.182113
0.182112
0.182111
0.182109
0.182108
0.182106
0.182104
0.182103
0.182101
0.182099
0.182096
0.182094
0.182091
0.182089
0.182085
0.182081
0.182075
0.182057
0.181997
0.18177
0.221654
0.221901
0.221966
0.221985
0.221993
0.221996
0.222
0.222002
0.222005
0.222007
0.222009
0.222011
0.222013
0.222014
0.222016
0.222017
0.222019
0.22202
0.222021
0.222022
0.222023
0.222024
0.222025
0.222026
0.222026
0.222027
0.222027
0.222028
0.222028
0.222028
0.222028
0.222028
0.222028
0.222027
0.222027
0.222026
0.222026
0.222025
0.222024
0.222023
0.222022
0.222021
0.22202
0.222019
0.222017
0.222016
0.222014
0.222013
0.222011
0.222009
0.222007
0.222005
0.222002
0.222
0.221996
0.221993
0.221985
0.221966
0.221901
0.221654
0.260201
0.260463
0.260534
0.260555
0.260562
0.260566
0.260569
0.260572
0.260574
0.260576
0.260578
0.26058
0.260581
0.260583
0.260584
0.260586
0.260587
0.260588
0.260589
0.26059
0.260591
0.260592
0.260593
0.260593
0.260594
0.260594
0.260595
0.260595
0.260595
0.260595
0.260595
0.260595
0.260595
0.260595
0.260594
0.260594
0.260593
0.260593
0.260592
0.260591
0.26059
0.260589
0.260588
0.260587
0.260586
0.260584
0.260583
0.260581
0.26058
0.260578
0.260576
0.260574
0.260572
0.260569
0.260566
0.260562
0.260555
0.260534
0.260463
0.260201
0.297265
0.297541
0.297618
0.29764
0.297647
0.297651
0.297654
0.297656
0.297658
0.29766
0.297662
0.297664
0.297665
0.297667
0.297668
0.297669
0.29767
0.297672
0.297673
0.297673
0.297674
0.297675
0.297676
0.297676
0.297677
0.297677
0.297678
0.297678
0.297678
0.297678
0.297678
0.297678
0.297678
0.297678
0.297677
0.297677
0.297676
0.297676
0.297675
0.297674
0.297673
0.297673
0.297672
0.29767
0.297669
0.297668
0.297667
0.297665
0.297664
0.297662
0.29766
0.297658
0.297656
0.297654
0.297651
0.297647
0.29764
0.297618
0.297541
0.297265
0.332899
0.333189
0.33327
0.333293
0.333301
0.333305
0.333307
0.33331
0.333312
0.333313
0.333315
0.333317
0.333318
0.333319
0.333321
0.333322
0.333323
0.333324
0.333325
0.333326
0.333327
0.333327
0.333328
0.333328
0.333329
0.333329
0.33333
0.33333
0.33333
0.33333
0.33333
0.33333
0.33333
0.33333
0.333329
0.333329
0.333328
0.333328
0.333327
0.333327
0.333326
0.333325
0.333324
0.333323
0.333322
0.333321
0.333319
0.333318
0.333317
0.333315
0.333313
0.333312
0.33331
0.333307
0.333305
0.333301
0.333293
0.33327
0.333189
0.332899
0.367188
0.367489
0.367576
0.3676
0.367608
0.367612
0.367615
0.367617
0.367619
0.36762
0.367622
0.367623
0.367625
0.367626
0.367627
0.367628
0.367629
0.36763
0.367631
0.367632
0.367632
0.367633
0.367634
0.367634
0.367635
0.367635
0.367635
0.367635
0.367636
0.367636
0.367636
0.367636
0.367635
0.367635
0.367635
0.367635
0.367634
0.367634
0.367633
0.367632
0.367632
0.367631
0.36763
0.367629
0.367628
0.367627
0.367626
0.367625
0.367623
0.367622
0.36762
0.367619
0.367617
0.367615
0.367612
0.367608
0.3676
0.367576
0.367489
0.367188
0.400199
0.400511
0.400602
0.400628
0.400636
0.40064
0.400643
0.400644
0.400646
0.400648
0.400649
0.40065
0.400652
0.400653
0.400654
0.400655
0.400656
0.400657
0.400658
0.400658
0.400659
0.40066
0.40066
0.400661
0.400661
0.400661
0.400662
0.400662
0.400662
0.400662
0.400662
0.400662
0.400662
0.400662
0.400661
0.400661
0.400661
0.40066
0.40066
0.400659
0.400658
0.400658
0.400657
0.400656
0.400655
0.400654
0.400653
0.400652
0.40065
0.400649
0.400648
0.400646
0.400644
0.400643
0.40064
0.400636
0.400628
0.400602
0.400511
0.400199
0.431979
0.4323
0.432395
0.432423
0.432432
0.432435
0.432438
0.432439
0.432441
0.432442
0.432444
0.432445
0.432446
0.432447
0.432448
0.432449
0.43245
0.432451
0.432452
0.432452
0.432453
0.432453
0.432454
0.432454
0.432455
0.432455
0.432455
0.432455
0.432456
0.432456
0.432456
0.432456
0.432455
0.432455
0.432455
0.432455
0.432454
0.432454
0.432453
0.432453
0.432452
0.432452
0.432451
0.43245
0.432449
0.432448
0.432447
0.432446
0.432445
0.432444
0.432442
0.432441
0.432439
0.432438
0.432435
0.432432
0.432423
0.432395
0.4323
0.431979
0.462561
0.462889
0.462989
0.463019
0.463028
0.463031
0.463034
0.463035
0.463037
0.463038
0.463039
0.46304
0.463041
0.463042
0.463043
0.463044
0.463045
0.463046
0.463046
0.463047
0.463048
0.463048
0.463049
0.463049
0.463049
0.46305
0.46305
0.46305
0.46305
0.46305
0.46305
0.46305
0.46305
0.46305
0.46305
0.463049
0.463049
0.463049
0.463048
0.463048
0.463047
0.463046
0.463046
0.463045
0.463044
0.463043
0.463042
0.463041
0.46304
0.463039
0.463038
0.463037
0.463035
0.463034
0.463031
0.463028
0.463019
0.462989
0.462889
0.462561
0.491972
0.492307
0.492411
0.492441
0.492451
0.492455
0.492457
0.492458
0.49246
0.492461
0.492462
0.492463
0.492464
0.492465
0.492466
0.492467
0.492467
0.492468
0.492469
0.492469
0.49247
0.49247
0.492471
0.492471
0.492471
0.492472
0.492472
0.492472
0.492472
0.492472
0.492472
0.492472
0.492472
0.492472
0.492472
0.492471
0.492471
0.492471
0.49247
0.49247
0.492469
0.492469
0.492468
0.492467
0.492467
0.492466
0.492465
0.492464
0.492463
0.492462
0.492461
0.49246
0.492458
0.492457
0.492455
0.492451
0.492441
0.492411
0.492307
0.491972
0.520234
0.520574
0.520682
0.520714
0.520724
0.520728
0.52073
0.520732
0.520733
0.520734
0.520735
0.520736
0.520737
0.520738
0.520739
0.520739
0.52074
0.520741
0.520741
0.520742
0.520742
0.520743
0.520743
0.520743
0.520744
0.520744
0.520744
0.520744
0.520744
0.520744
0.520744
0.520744
0.520744
0.520744
0.520744
0.520744
0.520743
0.520743
0.520743
0.520742
0.520742
0.520741
0.520741
0.52074
0.520739
0.520739
0.520738
0.520737
0.520736
0.520735
0.520734
0.520733
0.520732
0.52073
0.520728
0.520724
0.520714
0.520682
0.520574
0.520234
0.547369
0.547713
0.547825
0.547859
0.547869
0.547873
0.547875
0.547877
0.547878
0.547879
0.54788
0.547881
0.547881
0.547882
0.547883
0.547884
0.547884
0.547885
0.547885
0.547886
0.547886
0.547887
0.547887
0.547887
0.547887
0.547888
0.547888
0.547888
0.547888
0.547888
0.547888
0.547888
0.547888
0.547888
0.547888
0.547887
0.547887
0.547887
0.547887
0.547886
0.547886
0.547885
0.547885
0.547884
0.547884
0.547883
0.547882
0.547881
0.547881
0.54788
0.547879
0.547878
0.547877
0.547875
0.547873
0.547869
0.547859
0.547825
0.547713
0.547369
0.573398
0.573745
0.57386
0.573896
0.573907
0.573911
0.573912
0.573914
0.573915
0.573916
0.573917
0.573917
0.573918
0.573919
0.57392
0.57392
0.573921
0.573921
0.573922
0.573922
0.573923
0.573923
0.573923
0.573924
0.573924
0.573924
0.573924
0.573924
0.573924
0.573924
0.573924
0.573924
0.573924
0.573924
0.573924
0.573924
0.573924
0.573923
0.573923
0.573923
0.573922
0.573922
0.573921
0.573921
0.57392
0.57392
0.573919
0.573918
0.573917
0.573917
0.573916
0.573915
0.573914
0.573912
0.573911
0.573907
0.573896
0.57386
0.573745
0.573398
0.598341
0.59869
0.598809
0.598846
0.598857
0.598861
0.598863
0.598864
0.598865
0.598866
0.598867
0.598867
0.598868
0.598869
0.598869
0.59887
0.59887
0.598871
0.598871
0.598872
0.598872
0.598872
0.598873
0.598873
0.598873
0.598873
0.598874
0.598874
0.598874
0.598874
0.598874
0.598874
0.598874
0.598874
0.598873
0.598873
0.598873
0.598873
0.598872
0.598872
0.598872
0.598871
0.598871
0.59887
0.59887
0.598869
0.598869
0.598868
0.598867
0.598867
0.598866
0.598865
0.598864
0.598863
0.598861
0.598857
0.598846
0.598809
0.59869
0.598341
0.62222
0.62257
0.622691
0.622729
0.622741
0.622745
0.622747
0.622748
0.622749
0.62275
0.622751
0.622752
0.622752
0.622753
0.622753
0.622754
0.622754
0.622755
0.622755
0.622755
0.622756
0.622756
0.622756
0.622757
0.622757
0.622757
0.622757
0.622757
0.622757
0.622757
0.622757
0.622757
0.622757
0.622757
0.622757
0.622757
0.622757
0.622756
0.622756
0.622756
0.622755
0.622755
0.622755
0.622754
0.622754
0.622753
0.622753
0.622752
0.622752
0.622751
0.62275
0.622749
0.622748
0.622747
0.622745
0.622741
0.622729
0.622691
0.62257
0.62222
0.645055
0.645405
0.645529
0.645569
0.645581
0.645585
0.645587
0.645588
0.645589
0.64559
0.645591
0.645591
0.645592
0.645592
0.645593
0.645593
0.645594
0.645594
0.645594
0.645595
0.645595
0.645595
0.645596
0.645596
0.645596
0.645596
0.645596
0.645596
0.645596
0.645596
0.645596
0.645596
0.645596
0.645596
0.645596
0.645596
0.645596
0.645596
0.645595
0.645595
0.645595
0.645594
0.645594
0.645594
0.645593
0.645593
0.645592
0.645592
0.645591
0.645591
0.64559
0.645589
0.645588
0.645587
0.645585
0.645581
0.645569
0.645529
0.645405
0.645055
0.66687
0.667218
0.667344
0.667385
0.667398
0.667403
0.667405
0.667406
0.667406
0.667407
0.667408
0.667408
0.667409
0.667409
0.66741
0.66741
0.66741
0.667411
0.667411
0.667411
0.667412
0.667412
0.667412
0.667412
0.667413
0.667413
0.667413
0.667413
0.667413
0.667413
0.667413
0.667413
0.667413
0.667413
0.667413
0.667413
0.667412
0.667412
0.667412
0.667412
0.667411
0.667411
0.667411
0.66741
0.66741
0.66741
0.667409
0.667409
0.667408
0.667408
0.667407
0.667406
0.667406
0.667405
0.667403
0.667398
0.667385
0.667344
0.667218
0.66687
0.687685
0.688031
0.688159
0.688202
0.688216
0.68822
0.688222
0.688223
0.688224
0.688224
0.688225
0.688225
0.688226
0.688226
0.688227
0.688227
0.688227
0.688228
0.688228
0.688228
0.688229
0.688229
0.688229
0.688229
0.688229
0.688229
0.688229
0.68823
0.68823
0.68823
0.68823
0.68823
0.68823
0.688229
0.688229
0.688229
0.688229
0.688229
0.688229
0.688229
0.688228
0.688228
0.688228
0.688227
0.688227
0.688227
0.688226
0.688226
0.688225
0.688225
0.688224
0.688224
0.688223
0.688222
0.68822
0.688216
0.688202
0.688159
0.688031
0.687685
0.707524
0.707867
0.707997
0.708042
0.708056
0.708061
0.708062
0.708063
0.708064
0.708065
0.708065
0.708066
0.708066
0.708066
0.708067
0.708067
0.708067
0.708068
0.708068
0.708068
0.708068
0.708069
0.708069
0.708069
0.708069
0.708069
0.708069
0.708069
0.708069
0.708069
0.708069
0.708069
0.708069
0.708069
0.708069
0.708069
0.708069
0.708069
0.708069
0.708068
0.708068
0.708068
0.708068
0.708067
0.708067
0.708067
0.708066
0.708066
0.708066
0.708065
0.708065
0.708064
0.708063
0.708062
0.708061
0.708056
0.708042
0.707997
0.707867
0.707524
0.726412
0.726751
0.726883
0.726928
0.726943
0.726948
0.72695
0.726951
0.726951
0.726952
0.726952
0.726953
0.726953
0.726954
0.726954
0.726954
0.726954
0.726955
0.726955
0.726955
0.726955
0.726956
0.726956
0.726956
0.726956
0.726956
0.726956
0.726956
0.726956
0.726956
0.726956
0.726956
0.726956
0.726956
0.726956
0.726956
0.726956
0.726956
0.726956
0.726955
0.726955
0.726955
0.726955
0.726954
0.726954
0.726954
0.726954
0.726953
0.726953
0.726952
0.726952
0.726951
0.726951
0.72695
0.726948
0.726943
0.726928
0.726883
0.726751
0.726412
0.744372
0.744707
0.744839
0.744886
0.744901
0.744906
0.744908
0.744909
0.74491
0.74491
0.744911
0.744911
0.744912
0.744912
0.744912
0.744912
0.744913
0.744913
0.744913
0.744913
0.744914
0.744914
0.744914
0.744914
0.744914
0.744914
0.744914
0.744914
0.744914
0.744914
0.744914
0.744914
0.744914
0.744914
0.744914
0.744914
0.744914
0.744914
0.744914
0.744914
0.744913
0.744913
0.744913
0.744913
0.744912
0.744912
0.744912
0.744912
0.744911
0.744911
0.74491
0.74491
0.744909
0.744908
0.744906
0.744901
0.744886
0.744839
0.744707
0.744372
0.761429
0.761759
0.761892
0.76194
0.761956
0.761961
0.761963
0.761964
0.761965
0.761965
0.761965
0.761966
0.761966
0.761966
0.761967
0.761967
0.761967
0.761967
0.761968
0.761968
0.761968
0.761968
0.761968
0.761968
0.761968
0.761968
0.761969
0.761969
0.761969
0.761969
0.761969
0.761969
0.761969
0.761969
0.761968
0.761968
0.761968
0.761968
0.761968
0.761968
0.761968
0.761968
0.761967
0.761967
0.761967
0.761967
0.761966
0.761966
0.761966
0.761965
0.761965
0.761965
0.761964
0.761963
0.761961
0.761956
0.76194
0.761892
0.761759
0.761429
0.777609
0.777933
0.778066
0.778115
0.778132
0.778138
0.77814
0.77814
0.778141
0.778141
0.778142
0.778142
0.778142
0.778143
0.778143
0.778143
0.778143
0.778143
0.778144
0.778144
0.778144
0.778144
0.778144
0.778144
0.778144
0.778144
0.778144
0.778145
0.778145
0.778145
0.778145
0.778145
0.778145
0.778144
0.778144
0.778144
0.778144
0.778144
0.778144
0.778144
0.778144
0.778144
0.778143
0.778143
0.778143
0.778143
0.778143
0.778142
0.778142
0.778142
0.778141
0.778141
0.77814
0.77814
0.778138
0.778132
0.778115
0.778066
0.777933
0.777609
0.792937
0.793255
0.793388
0.793438
0.793455
0.793461
0.793464
0.793464
0.793465
0.793465
0.793466
0.793466
0.793466
0.793466
0.793467
0.793467
0.793467
0.793467
0.793467
0.793467
0.793468
0.793468
0.793468
0.793468
0.793468
0.793468
0.793468
0.793468
0.793468
0.793468
0.793468
0.793468
0.793468
0.793468
0.793468
0.793468
0.793468
0.793468
0.793468
0.793468
0.793467
0.793467
0.793467
0.793467
0.793467
0.793467
0.793466
0.793466
0.793466
0.793466
0.793465
0.793465
0.793464
0.793464
0.793461
0.793455
0.793438
0.793388
0.793255
0.792937
0.807441
0.807751
0.807884
0.807935
0.807953
0.807959
0.807961
0.807962
0.807963
0.807963
0.807963
0.807964
0.807964
0.807964
0.807964
0.807964
0.807965
0.807965
0.807965
0.807965
0.807965
0.807965
0.807965
0.807965
0.807965
0.807966
0.807966
0.807966
0.807966
0.807966
0.807966
0.807966
0.807966
0.807966
0.807966
0.807965
0.807965
0.807965
0.807965
0.807965
0.807965
0.807965
0.807965
0.807965
0.807964
0.807964
0.807964
0.807964
0.807964
0.807963
0.807963
0.807963
0.807962
0.807961
0.807959
0.807953
0.807935
0.807884
0.807751
0.807441
0.821145
0.821448
0.821581
0.821633
0.821651
0.821658
0.82166
0.821661
0.821661
0.821662
0.821662
0.821662
0.821662
0.821662
0.821663
0.821663
0.821663
0.821663
0.821663
0.821663
0.821663
0.821664
0.821664
0.821664
0.821664
0.821664
0.821664
0.821664
0.821664
0.821664
0.821664
0.821664
0.821664
0.821664
0.821664
0.821664
0.821664
0.821664
0.821664
0.821663
0.821663
0.821663
0.821663
0.821663
0.821663
0.821663
0.821662
0.821662
0.821662
0.821662
0.821662
0.821661
0.821661
0.82166
0.821658
0.821651
0.821633
0.821581
0.821448
0.821145
0.834079
0.834374
0.834506
0.834558
0.834577
0.834584
0.834586
0.834587
0.834588
0.834588
0.834588
0.834588
0.834589
0.834589
0.834589
0.834589
0.834589
0.834589
0.834589
0.834589
0.83459
0.83459
0.83459
0.83459
0.83459
0.83459
0.83459
0.83459
0.83459
0.83459
0.83459
0.83459
0.83459
0.83459
0.83459
0.83459
0.83459
0.83459
0.83459
0.83459
0.834589
0.834589
0.834589
0.834589
0.834589
0.834589
0.834589
0.834589
0.834588
0.834588
0.834588
0.834588
0.834587
0.834586
0.834584
0.834577
0.834558
0.834506
0.834374
0.834079
0.846268
0.846555
0.846686
0.846739
0.846758
0.846765
0.846768
0.846769
0.846769
0.846769
0.84677
0.84677
0.84677
0.84677
0.84677
0.84677
0.84677
0.84677
0.846771
0.846771
0.846771
0.846771
0.846771
0.846771
0.846771
0.846771
0.846771
0.846771
0.846771
0.846771
0.846771
0.846771
0.846771
0.846771
0.846771
0.846771
0.846771
0.846771
0.846771
0.846771
0.846771
0.846771
0.84677
0.84677
0.84677
0.84677
0.84677
0.84677
0.84677
0.84677
0.846769
0.846769
0.846769
0.846768
0.846765
0.846758
0.846739
0.846686
0.846555
0.846268
0.857741
0.858019
0.858148
0.858202
0.858222
0.858229
0.858232
0.858233
0.858233
0.858233
0.858234
0.858234
0.858234
0.858234
0.858234
0.858234
0.858234
0.858234
0.858234
0.858234
0.858235
0.858235
0.858235
0.858235
0.858235
0.858235
0.858235
0.858235
0.858235
0.858235
0.858235
0.858235
0.858235
0.858235
0.858235
0.858235
0.858235
0.858235
0.858235
0.858235
0.858234
0.858234
0.858234
0.858234
0.858234
0.858234
0.858234
0.858234
0.858234
0.858234
0.858233
0.858233
0.858233
0.858232
0.858229
0.858222
0.858202
0.858148
0.858019
0.857741
0.868525
0.868794
0.868921
0.868975
0.868995
0.869003
0.869006
0.869007
0.869007
0.869008
0.869008
0.869008
0.869008
0.869008
0.869008
0.869008
0.869008
0.869008
0.869008
0.869008
0.869009
0.869009
0.869009
0.869009
0.869009
0.869009
0.869009
0.869009
0.869009
0.869009
0.869009
0.869009
0.869009
0.869009
0.869009
0.869009
0.869009
0.869009
0.869009
0.869009
0.869008
0.869008
0.869008
0.869008
0.869008
0.869008
0.869008
0.869008
0.869008
0.869008
0.869008
0.869007
0.869007
0.869006
0.869003
0.868995
0.868975
0.868921
0.868794
0.868525
0.878647
0.878907
0.879032
0.879086
0.879107
0.879115
0.879118
0.879119
0.879119
0.879119
0.87912
0.87912
0.87912
0.87912
0.87912
0.87912
0.87912
0.87912
0.87912
0.87912
0.87912
0.87912
0.87912
0.87912
0.879121
0.879121
0.879121
0.879121
0.879121
0.879121
0.879121
0.879121
0.879121
0.879121
0.879121
0.879121
0.87912
0.87912
0.87912
0.87912
0.87912
0.87912
0.87912
0.87912
0.87912
0.87912
0.87912
0.87912
0.87912
0.87912
0.879119
0.879119
0.879119
0.879118
0.879115
0.879107
0.879086
0.879032
0.878907
0.878647
0.888135
0.888386
0.888509
0.888562
0.888584
0.888592
0.888595
0.888596
0.888597
0.888597
0.888597
0.888597
0.888597
0.888597
0.888597
0.888597
0.888597
0.888597
0.888597
0.888597
0.888597
0.888598
0.888598
0.888598
0.888598
0.888598
0.888598
0.888598
0.888598
0.888598
0.888598
0.888598
0.888598
0.888598
0.888598
0.888598
0.888598
0.888598
0.888598
0.888597
0.888597
0.888597
0.888597
0.888597
0.888597
0.888597
0.888597
0.888597
0.888597
0.888597
0.888597
0.888597
0.888596
0.888595
0.888592
0.888584
0.888562
0.888509
0.888386
0.888135
0.897017
0.897258
0.897378
0.897432
0.897453
0.897462
0.897465
0.897466
0.897467
0.897467
0.897467
0.897467
0.897467
0.897467
0.897467
0.897467
0.897467
0.897467
0.897467
0.897467
0.897467
0.897467
0.897468
0.897468
0.897468
0.897468
0.897468
0.897468
0.897468
0.897468
0.897468
0.897468
0.897468
0.897468
0.897468
0.897468
0.897468
0.897468
0.897467
0.897467
0.897467
0.897467
0.897467
0.897467
0.897467
0.897467
0.897467
0.897467
0.897467
0.897467
0.897467
0.897467
0.897466
0.897465
0.897462
0.897453
0.897432
0.897378
0.897258
0.897017
0.905319
0.90555
0.905668
0.905721
0.905743
0.905752
0.905755
0.905756
0.905757
0.905757
0.905757
0.905757
0.905757
0.905757
0.905757
0.905757
0.905757
0.905757
0.905757
0.905757
0.905757
0.905757
0.905758
0.905758
0.905758
0.905758
0.905758
0.905758
0.905758
0.905758
0.905758
0.905758
0.905758
0.905758
0.905758
0.905758
0.905758
0.905758
0.905757
0.905757
0.905757
0.905757
0.905757
0.905757
0.905757
0.905757
0.905757
0.905757
0.905757
0.905757
0.905757
0.905757
0.905756
0.905755
0.905752
0.905743
0.905721
0.905668
0.90555
0.905319
0.913068
0.91329
0.913405
0.913457
0.91348
0.913489
0.913492
0.913493
0.913494
0.913494
0.913494
0.913494
0.913494
0.913494
0.913494
0.913494
0.913494
0.913494
0.913494
0.913494
0.913494
0.913494
0.913494
0.913495
0.913495
0.913495
0.913495
0.913495
0.913495
0.913495
0.913495
0.913495
0.913495
0.913495
0.913495
0.913495
0.913495
0.913494
0.913494
0.913494
0.913494
0.913494
0.913494
0.913494
0.913494
0.913494
0.913494
0.913494
0.913494
0.913494
0.913494
0.913494
0.913493
0.913492
0.913489
0.91348
0.913457
0.913405
0.91329
0.913068
0.920292
0.920504
0.920615
0.920668
0.92069
0.920699
0.920703
0.920704
0.920705
0.920705
0.920705
0.920705
0.920705
0.920705
0.920705
0.920705
0.920705
0.920705
0.920705
0.920705
0.920705
0.920705
0.920705
0.920705
0.920705
0.920705
0.920705
0.920705
0.920705
0.920705
0.920705
0.920705
0.920705
0.920705
0.920705
0.920705
0.920705
0.920705
0.920705
0.920705
0.920705
0.920705
0.920705
0.920705
0.920705
0.920705
0.920705
0.920705
0.920705
0.920705
0.920705
0.920705
0.920704
0.920703
0.920699
0.92069
0.920668
0.920615
0.920504
0.920292
0.927016
0.927218
0.927326
0.927378
0.9274
0.92741
0.927414
0.927415
0.927415
0.927416