/*--------------------------------*- C++ -*----------------------------------*\
| =========                 |                                                 |
| \\      /  F ield         | foam-extend: Open Source CFD                    |
|  \\    /   O peration     | Version:     4.0                                |
|   \\  /    A nd           | Web:         http://www.foam-extend.org         |
|    \\/     M anipulation  |                                                 |
\*---------------------------------------------------------------------------*/
FoamFile
{
    version     2.0;
    format      ascii;
    class       volScalarField;
    location    "1420";
    object      psiE;
}
// * * * * * * * * * * * * * * * * * * * * * * * * * * * * * * * * * * * * * //

dimensions      [0 0 0 0 0 0 0];

internalField   nonuniform List<scalar> 
6960
(
0.347216
0.347226
0.347237
0.347248
0.347258
0.347267
0.347275
0.347281
0.347287
0.347292
0.347296
0.347299
0.347302
0.347305
0.347307
0.347308
0.34731
0.347311
0.347312
0.347313
0.347313
0.347314
0.347314
0.347315
0.347315
0.347315
0.347315
0.347315
0.347315
0.347316
0.347316
0.347315
0.347315
0.347315
0.347315
0.347315
0.347315
0.347314
0.347314
0.347313
0.347313
0.347312
0.347311
0.34731
0.347308
0.347307
0.347305
0.347302
0.347299
0.347296
0.347292
0.347287
0.347281
0.347275
0.347267
0.347258
0.347248
0.347237
0.347226
0.347216
0.885823
0.885863
0.885909
0.885954
0.885994
0.88603
0.886061
0.886088
0.886111
0.88613
0.886146
0.88616
0.886171
0.886181
0.886189
0.886196
0.886201
0.886206
0.88621
0.886213
0.886216
0.886218
0.88622
0.886221
0.886222
0.886223
0.886224
0.886224
0.886225
0.886225
0.886225
0.886225
0.886224
0.886224
0.886223
0.886222
0.886221
0.88622
0.886218
0.886216
0.886213
0.88621
0.886206
0.886201
0.886196
0.886189
0.886181
0.886171
0.88616
0.886146
0.88613
0.886111
0.886088
0.886061
0.88603
0.885994
0.885954
0.885909
0.885863
0.885823
1.38607
1.38615
1.38624
1.38632
1.3864
1.38647
1.38653
1.38658
1.38663
1.38667
1.3867
1.38673
1.38675
1.38677
1.38678
1.3868
1.38681
1.38682
1.38682
1.38683
1.38683
1.38684
1.38684
1.38684
1.38685
1.38685
1.38685
1.38685
1.38685
1.38685
1.38685
1.38685
1.38685
1.38685
1.38685
1.38685
1.38684
1.38684
1.38684
1.38683
1.38683
1.38682
1.38682
1.38681
1.3868
1.38678
1.38677
1.38675
1.38673
1.3867
1.38667
1.38663
1.38658
1.38653
1.38647
1.3864
1.38632
1.38624
1.38615
1.38607
1.87967
1.87979
1.87993
1.88007
1.88019
1.8803
1.88039
1.88047
1.88054
1.8806
1.88065
1.88069
1.88072
1.88075
1.88078
1.8808
1.88081
1.88083
1.88084
1.88085
1.88086
1.88086
1.88087
1.88087
1.88088
1.88088
1.88088
1.88088
1.88088
1.88088
1.88088
1.88088
1.88088
1.88088
1.88088
1.88088
1.88087
1.88087
1.88086
1.88086
1.88085
1.88084
1.88083
1.88081
1.8808
1.88078
1.88075
1.88072
1.88069
1.88065
1.8806
1.88054
1.88047
1.88039
1.8803
1.88019
1.88007
1.87993
1.87979
1.87967
2.37753
2.3777
2.37789
2.37808
2.37825
2.3784
2.37853
2.37864
2.37873
2.37881
2.37888
2.37894
2.37898
2.37902
2.37906
2.37909
2.37911
2.37913
2.37914
2.37916
2.37917
2.37918
2.37918
2.37919
2.37919
2.3792
2.3792
2.3792
2.3792
2.37921
2.37921
2.3792
2.3792
2.3792
2.3792
2.37919
2.37919
2.37918
2.37918
2.37917
2.37916
2.37914
2.37913
2.37911
2.37909
2.37906
2.37902
2.37898
2.37894
2.37888
2.37881
2.37873
2.37864
2.37853
2.3784
2.37825
2.37808
2.37789
2.3777
2.37753
2.88353
2.88374
2.88399
2.88423
2.88445
2.88464
2.8848
2.88494
2.88507
2.88517
2.88526
2.88533
2.88539
2.88544
2.88548
2.88552
2.88555
2.88557
2.88559
2.88561
2.88562
2.88564
2.88565
2.88565
2.88566
2.88566
2.88567
2.88567
2.88567
2.88567
2.88567
2.88567
2.88567
2.88567
2.88566
2.88566
2.88565
2.88565
2.88564
2.88562
2.88561
2.88559
2.88557
2.88555
2.88552
2.88548
2.88544
2.88539
2.88533
2.88526
2.88517
2.88507
2.88494
2.8848
2.88464
2.88445
2.88423
2.88399
2.88374
2.88353
3.399
3.39926
3.39957
3.39986
3.40012
3.40036
3.40056
3.40073
3.40088
3.40101
3.40111
3.4012
3.40128
3.40134
3.40139
3.40144
3.40147
3.4015
3.40153
3.40155
3.40157
3.40158
3.40159
3.4016
3.40161
3.40161
3.40162
3.40162
3.40162
3.40163
3.40163
3.40162
3.40162
3.40162
3.40161
3.40161
3.4016
3.40159
3.40158
3.40157
3.40155
3.40153
3.4015
3.40147
3.40144
3.40139
3.40134
3.40128
3.4012
3.40111
3.40101
3.40088
3.40073
3.40056
3.40036
3.40012
3.39986
3.39957
3.39926
3.399
3.92438
3.92469
3.92505
3.92539
3.92571
3.92598
3.92622
3.92643
3.92661
3.92676
3.92688
3.92699
3.92708
3.92715
3.92721
3.92727
3.92731
3.92734
3.92737
3.9274
3.92742
3.92743
3.92745
3.92746
3.92747
3.92747
3.92748
3.92748
3.92749
3.92749
3.92749
3.92749
3.92748
3.92748
3.92747
3.92747
3.92746
3.92745
3.92743
3.92742
3.9274
3.92737
3.92734
3.92731
3.92727
3.92721
3.92715
3.92708
3.92699
3.92688
3.92676
3.92661
3.92643
3.92622
3.92598
3.92571
3.92539
3.92505
3.92469
3.92438
4.45975
4.4601
4.46052
4.46092
4.46128
4.4616
4.46188
4.46212
4.46232
4.4625
4.46264
4.46277
4.46287
4.46295
4.46303
4.46309
4.46314
4.46318
4.46321
4.46324
4.46326
4.46328
4.4633
4.46331
4.46332
4.46333
4.46333
4.46334
4.46334
4.46334
4.46334
4.46334
4.46334
4.46333
4.46333
4.46332
4.46331
4.4633
4.46328
4.46326
4.46324
4.46321
4.46318
4.46314
4.46309
4.46303
4.46295
4.46287
4.46277
4.46264
4.4625
4.46232
4.46212
4.46188
4.4616
4.46128
4.46092
4.46052
4.4601
4.45975
5.00505
5.00545
5.00593
5.00638
5.00679
5.00716
5.00747
5.00775
5.00798
5.00818
5.00834
5.00848
5.0086
5.0087
5.00878
5.00885
5.0089
5.00895
5.00899
5.00902
5.00905
5.00907
5.00909
5.0091
5.00911
5.00912
5.00913
5.00913
5.00914
5.00914
5.00914
5.00914
5.00913
5.00913
5.00912
5.00911
5.0091
5.00909
5.00907
5.00905
5.00902
5.00899
5.00895
5.0089
5.00885
5.00878
5.0087
5.0086
5.00848
5.00834
5.00818
5.00798
5.00775
5.00747
5.00716
5.00679
5.00638
5.00593
5.00545
5.00505
5.56017
5.56062
5.56115
5.56166
5.56212
5.56253
5.56288
5.56319
5.56345
5.56367
5.56385
5.56401
5.56414
5.56425
5.56434
5.56442
5.56448
5.56453
5.56458
5.56461
5.56464
5.56467
5.56469
5.5647
5.56472
5.56473
5.56474
5.56474
5.56475
5.56475
5.56475
5.56475
5.56474
5.56474
5.56473
5.56472
5.5647
5.56469
5.56467
5.56464
5.56461
5.56458
5.56453
5.56448
5.56442
5.56434
5.56425
5.56414
5.56401
5.56385
5.56367
5.56345
5.56319
5.56288
5.56253
5.56212
5.56166
5.56115
5.56062
5.56017
6.12492
6.12542
6.126
6.12657
6.12708
6.12753
6.12793
6.12826
6.12855
6.1288
6.129
6.12918
6.12932
6.12944
6.12954
6.12963
6.1297
6.12976
6.1298
6.12984
6.12988
6.1299
6.12993
6.12995
6.12996
6.12997
6.12998
6.12999
6.12999
6.12999
6.12999
6.12999
6.12999
6.12998
6.12997
6.12996
6.12995
6.12993
6.1299
6.12988
6.12984
6.1298
6.12976
6.1297
6.12963
6.12954
6.12944
6.12932
6.12918
6.129
6.1288
6.12855
6.12826
6.12793
6.12753
6.12708
6.12657
6.126
6.12542
6.12492
6.69909
6.69963
6.70027
6.70089
6.70145
6.70195
6.70238
6.70275
6.70307
6.70333
6.70356
6.70375
6.70391
6.70404
6.70416
6.70425
6.70432
6.70439
6.70444
6.70449
6.70452
6.70455
6.70458
6.7046
6.70461
6.70462
6.70463
6.70464
6.70464
6.70465
6.70465
6.70464
6.70464
6.70463
6.70462
6.70461
6.7046
6.70458
6.70455
6.70452
6.70449
6.70444
6.70439
6.70432
6.70425
6.70416
6.70404
6.70391
6.70375
6.70356
6.70333
6.70307
6.70275
6.70238
6.70195
6.70145
6.70089
6.70027
6.69963
6.69909
7.28239
7.28298
7.28368
7.28435
7.28496
7.2855
7.28597
7.28637
7.28672
7.28701
7.28725
7.28746
7.28763
7.28778
7.2879
7.288
7.28808
7.28815
7.28821
7.28826
7.2883
7.28833
7.28836
7.28838
7.2884
7.28841
7.28842
7.28843
7.28843
7.28844
7.28844
7.28843
7.28843
7.28842
7.28841
7.2884
7.28838
7.28836
7.28833
7.2883
7.28826
7.28821
7.28815
7.28808
7.288
7.2879
7.28778
7.28763
7.28746
7.28725
7.28701
7.28672
7.28637
7.28597
7.2855
7.28496
7.28435
7.28368
7.28298
7.28239
7.87449
7.87513
7.87588
7.87661
7.87727
7.87785
7.87836
7.87879
7.87917
7.87948
7.87975
7.87997
7.88016
7.88031
7.88045
7.88055
7.88065
7.88072
7.88078
7.88083
7.88088
7.88091
7.88094
7.88096
7.88098
7.881
7.88101
7.88102
7.88102
7.88102
7.88102
7.88102
7.88102
7.88101
7.881
7.88098
7.88096
7.88094
7.88091
7.88088
7.88083
7.88078
7.88072
7.88065
7.88055
7.88045
7.88031
7.88016
7.87997
7.87975
7.87948
7.87917
7.87879
7.87836
7.87785
7.87727
7.87661
7.87588
7.87513
7.87449
8.47501
8.47569
8.4765
8.47728
8.47799
8.47861
8.47916
8.47962
8.48002
8.48036
8.48064
8.48088
8.48109
8.48125
8.48139
8.48151
8.48161
8.48169
8.48176
8.48181
8.48186
8.4819
8.48193
8.48195
8.48197
8.48199
8.482
8.48201
8.48201
8.48202
8.48202
8.48201
8.48201
8.482
8.48199
8.48197
8.48195
8.48193
8.4819
8.48186
8.48181
8.48176
8.48169
8.48161
8.48151
8.48139
8.48125
8.48109
8.48088
8.48064
8.48036
8.48002
8.47962
8.47916
8.47861
8.47799
8.47728
8.4765
8.47569
8.47501
9.08346
9.08419
9.08505
9.08589
9.08664
9.08731
9.08789
9.08839
9.08881
9.08917
9.08948
9.08974
9.08995
9.09013
9.09028
9.09041
9.09051
9.0906
9.09067
9.09073
9.09078
9.09082
9.09085
9.09088
9.0909
9.09091
9.09093
9.09094
9.09094
9.09094
9.09094
9.09094
9.09094
9.09093
9.09091
9.0909
9.09088
9.09085
9.09082
9.09078
9.09073
9.09067
9.0906
9.09051
9.09041
9.09028
9.09013
9.08995
9.08974
9.08948
9.08917
9.08881
9.08839
9.08789
9.08731
9.08664
9.08589
9.08505
9.08419
9.08346
9.69932
9.70009
9.70101
9.70189
9.7027
9.7034
9.70402
9.70455
9.705
9.70538
9.7057
9.70598
9.7062
9.7064
9.70656
9.70669
9.7068
9.70689
9.70697
9.70703
9.70708
9.70712
9.70716
9.70719
9.70721
9.70723
9.70724
9.70725
9.70726
9.70726
9.70726
9.70726
9.70725
9.70724
9.70723
9.70721
9.70719
9.70716
9.70712
9.70708
9.70703
9.70697
9.70689
9.7068
9.70669
9.70656
9.7064
9.7062
9.70598
9.7057
9.70538
9.705
9.70455
9.70402
9.7034
9.7027
9.70189
9.70101
9.70009
9.69932
10.3219
10.3228
10.3237
10.3247
10.3255
10.3263
10.3269
10.3275
10.3279
10.3283
10.3287
10.329
10.3292
10.3294
10.3296
10.3297
10.3298
10.3299
10.33
10.3301
10.3301
10.3302
10.3302
10.3303
10.3303
10.3303
10.3303
10.3303
10.3303
10.3303
10.3303
10.3303
10.3303
10.3303
10.3303
10.3303
10.3303
10.3302
10.3302
10.3301
10.3301
10.33
10.3299
10.3298
10.3297
10.3296
10.3294
10.3292
10.329
10.3287
10.3283
10.3279
10.3275
10.3269
10.3263
10.3255
10.3247
10.3237
10.3228
10.3219
10.9506
10.9514
10.9525
10.9534
10.9543
10.9551
10.9558
10.9564
10.9569
10.9573
10.9577
10.958
10.9582
10.9584
10.9586
10.9588
10.9589
10.959
10.9591
10.9592
10.9592
10.9593
10.9593
10.9593
10.9594
10.9594
10.9594
10.9594
10.9594
10.9594
10.9594
10.9594
10.9594
10.9594
10.9594
10.9594
10.9593
10.9593
10.9593
10.9592
10.9592
10.9591
10.959
10.9589
10.9588
10.9586
10.9584
10.9582
10.958
10.9577
10.9573
10.9569
10.9564
10.9558
10.9551
10.9543
10.9534
10.9525
10.9514
10.9506
11.5844
11.5853
11.5864
11.5874
11.5883
11.5892
11.5899
11.5905
11.591
11.5915
11.5918
11.5922
11.5924
11.5926
11.5928
11.593
11.5931
11.5932
11.5933
11.5934
11.5934
11.5935
11.5935
11.5936
11.5936
11.5936
11.5936
11.5936
11.5937
11.5937
11.5937
11.5937
11.5936
11.5936
11.5936
11.5936
11.5936
11.5935
11.5935
11.5934
11.5934
11.5933
11.5932
11.5931
11.593
11.5928
11.5926
11.5924
11.5922
11.5918
11.5915
11.591
11.5905
11.5899
11.5892
11.5883
11.5874
11.5864
11.5853
11.5844
12.2224
12.2234
12.2245
12.2256
12.2265
12.2274
12.2281
12.2288
12.2293
12.2298
12.2302
12.2305
12.2308
12.231
12.2312
12.2314
12.2315
12.2316
12.2317
12.2318
12.2319
12.2319
12.232
12.232
12.232
12.232
12.2321
12.2321
12.2321
12.2321
12.2321
12.2321
12.2321
12.2321
12.232
12.232
12.232
12.232
12.2319
12.2319
12.2318
12.2317
12.2316
12.2315
12.2314
12.2312
12.231
12.2308
12.2305
12.2302
12.2298
12.2293
12.2288
12.2281
12.2274
12.2265
12.2256
12.2245
12.2234
12.2224
12.8636
12.8645
12.8657
12.8668
12.8678
12.8687
12.8695
12.8701
12.8707
12.8712
12.8716
12.8719
12.8722
12.8725
12.8727
12.8728
12.873
12.8731
12.8732
12.8733
12.8733
12.8734
12.8734
12.8735
12.8735
12.8735
12.8735
12.8735
12.8735
12.8736
12.8736
12.8735
12.8735
12.8735
12.8735
12.8735
12.8735
12.8734
12.8734
12.8733
12.8733
12.8732
12.8731
12.873
12.8728
12.8727
12.8725
12.8722
12.8719
12.8716
12.8712
12.8707
12.8701
12.8695
12.8687
12.8678
12.8668
12.8657
12.8645
12.8636
13.5064
13.5074
13.5086
13.5098
13.5108
13.5117
13.5125
13.5132
13.5138
13.5143
13.5147
13.5151
13.5154
13.5156
13.5158
13.516
13.5162
13.5163
13.5164
13.5165
13.5165
13.5166
13.5166
13.5167
13.5167
13.5167
13.5167
13.5168
13.5168
13.5168
13.5168
13.5168
13.5168
13.5167
13.5167
13.5167
13.5167
13.5166
13.5166
13.5165
13.5165
13.5164
13.5163
13.5162
13.516
13.5158
13.5156
13.5154
13.5151
13.5147
13.5143
13.5138
13.5132
13.5125
13.5117
13.5108
13.5098
13.5086
13.5074
13.5064
14.1496
14.1506
14.1519
14.153
14.1541
14.1551
14.1559
14.1566
14.1572
14.1577
14.1581
14.1585
14.1588
14.1591
14.1593
14.1595
14.1596
14.1597
14.1598
14.1599
14.16
14.16
14.1601
14.1601
14.1602
14.1602
14.1602
14.1602
14.1602
14.1602
14.1602
14.1602
14.1602
14.1602
14.1602
14.1602
14.1601
14.1601
14.16
14.16
14.1599
14.1598
14.1597
14.1596
14.1595
14.1593
14.1591
14.1588
14.1585
14.1581
14.1577
14.1572
14.1566
14.1559
14.1551
14.1541
14.153
14.1519
14.1506
14.1496
14.7913
14.7924
14.7936
14.7948
14.7959
14.7969
14.7978
14.7985
14.7991
14.7996
14.8001
14.8004
14.8007
14.801
14.8012
14.8014
14.8016
14.8017
14.8018
14.8019
14.802
14.802
14.8021
14.8021
14.8021
14.8022
14.8022
14.8022
14.8022
14.8022
14.8022
14.8022
14.8022
14.8022
14.8022
14.8021
14.8021
14.8021
14.802
14.802
14.8019
14.8018
14.8017
14.8016
14.8014
14.8012
14.801
14.8007
14.8004
14.8001
14.7996
14.7991
14.7985
14.7978
14.7969
14.7959
14.7948
14.7936
14.7924
14.7913
15.4296
15.4307
15.432
15.4332
15.4343
15.4353
15.4362
15.4369
15.4375
15.4381
15.4385
15.4389
15.4392
15.4395
15.4397
15.4399
15.4401
15.4402
15.4403
15.4404
15.4405
15.4405
15.4406
15.4406
15.4406
15.4407
15.4407
15.4407
15.4407
15.4407
15.4407
15.4407
15.4407
15.4407
15.4407
15.4406
15.4406
15.4406
15.4405
15.4405
15.4404
15.4403
15.4402
15.4401
15.4399
15.4397
15.4395
15.4392
15.4389
15.4385
15.4381
15.4375
15.4369
15.4362
15.4353
15.4343
15.4332
15.432
15.4307
15.4296
16.0622
16.0633
16.0646
16.0658
16.067
16.068
16.0688
16.0696
16.0702
16.0708
16.0712
16.0716
16.0719
16.0722
16.0724
16.0726
16.0728
16.0729
16.073
16.0731
16.0732
16.0732
16.0733
16.0733
16.0734
16.0734
16.0734
16.0734
16.0734
16.0734
16.0734
16.0734
16.0734
16.0734
16.0734
16.0734
16.0733
16.0733
16.0732
16.0732
16.0731
16.073
16.0729
16.0728
16.0726
16.0724
16.0722
16.0719
16.0716
16.0712
16.0708
16.0702
16.0696
16.0688
16.068
16.067
16.0658
16.0646
16.0633
16.0622
16.6863
16.6875
16.6888
16.69
16.6912
16.6922
16.693
16.6938
16.6944
16.695
16.6954
16.6958
16.6962
16.6964
16.6967
16.6968
16.697
16.6971
16.6973
16.6973
16.6974
16.6975
16.6975
16.6976
16.6976
16.6976
16.6977
16.6977
16.6977
16.6977
16.6977
16.6977
16.6977
16.6977
16.6976
16.6976
16.6976
16.6975
16.6975
16.6974
16.6973
16.6973
16.6971
16.697
16.6968
16.6967
16.6964
16.6962
16.6958
16.6954
16.695
16.6944
16.6938
16.693
16.6922
16.6912
16.69
16.6888
16.6875
16.6863
17.299
17.3001
17.3014
17.3027
17.3038
17.3048
17.3057
17.3064
17.3071
17.3076
17.3081
17.3085
17.3088
17.3091
17.3093
17.3095
17.3096
17.3098
17.3099
17.31
17.3101
17.3101
17.3102
17.3102
17.3102
17.3103
17.3103
17.3103
17.3103
17.3103
17.3103
17.3103
17.3103
17.3103
17.3103
17.3102
17.3102
17.3102
17.3101
17.3101
17.31
17.3099
17.3098
17.3096
17.3095
17.3093
17.3091
17.3088
17.3085
17.3081
17.3076
17.3071
17.3064
17.3057
17.3048
17.3038
17.3027
17.3014
17.3001
17.299
17.8964
17.8975
17.8988
17.9001
17.9012
17.9022
17.903
17.9038
17.9044
17.905
17.9054
17.9058
17.9061
17.9064
17.9066
17.9068
17.907
17.9071
17.9072
17.9073
17.9074
17.9074
17.9075
17.9075
17.9076
17.9076
17.9076
17.9076
17.9076
17.9076
17.9076
17.9076
17.9076
17.9076
17.9076
17.9076
17.9075
17.9075
17.9074
17.9074
17.9073
17.9072
17.9071
17.907
17.9068
17.9066
17.9064
17.9061
17.9058
17.9054
17.905
17.9044
17.9038
17.903
17.9022
17.9012
17.9001
17.8988
17.8975
17.8964
18.4743
18.4754
18.4767
18.4779
18.479
18.4799
18.4808
18.4815
18.4821
18.4827
18.4831
18.4835
18.4838
18.4841
18.4843
18.4845
18.4846
18.4848
18.4849
18.4849
18.485
18.4851
18.4851
18.4852
18.4852
18.4852
18.4853
18.4853
18.4853
18.4853
18.4853
18.4853
18.4853
18.4853
18.4852
18.4852
18.4852
18.4851
18.4851
18.485
18.4849
18.4849
18.4848
18.4846
18.4845
18.4843
18.4841
18.4838
18.4835
18.4831
18.4827
18.4821
18.4815
18.4808
18.4799
18.479
18.4779
18.4767
18.4754
18.4743
19.0274
19.0285
19.0297
19.0309
19.0319
19.0329
19.0337
19.0344
19.035
19.0355
19.0359
19.0363
19.0366
19.0368
19.037
19.0372
19.0374
19.0375
19.0376
19.0377
19.0378
19.0378
19.0379
19.0379
19.038
19.038
19.038
19.038
19.038
19.038
19.038
19.038
19.038
19.038
19.038
19.038
19.0379
19.0379
19.0378
19.0378
19.0377
19.0376
19.0375
19.0374
19.0372
19.037
19.0368
19.0366
19.0363
19.0359
19.0355
19.035
19.0344
19.0337
19.0329
19.0319
19.0309
19.0297
19.0285
19.0274
19.5496
19.5506
19.5518
19.5529
19.5539
19.5548
19.5555
19.5562
19.5568
19.5572
19.5576
19.558
19.5583
19.5585
19.5587
19.5589
19.559
19.5592
19.5593
19.5593
19.5594
19.5595
19.5595
19.5596
19.5596
19.5596
19.5596
19.5597
19.5597
19.5597
19.5597
19.5597
19.5597
19.5596
19.5596
19.5596
19.5596
19.5595
19.5595
19.5594
19.5593
19.5593
19.5592
19.559
19.5589
19.5587
19.5585
19.5583
19.558
19.5576
19.5572
19.5568
19.5562
19.5555
19.5548
19.5539
19.5529
19.5518
19.5506
19.5496
20.0337
20.0346
20.0357
20.0367
20.0376
20.0384
20.0391
20.0398
20.0403
20.0407
20.0411
20.0414
20.0417
20.0419
20.0421
20.0423
20.0424
20.0425
20.0426
20.0427
20.0428
20.0428
20.0428
20.0429
20.0429
20.0429
20.043
20.043
20.043
20.043
20.043
20.043
20.043
20.043
20.0429
20.0429
20.0429
20.0428
20.0428
20.0428
20.0427
20.0426
20.0425
20.0424
20.0423
20.0421
20.0419
20.0417
20.0414
20.0411
20.0407
20.0403
20.0398
20.0391
20.0384
20.0376
20.0367
20.0357
20.0346
20.0337
20.4718
20.4726
20.4736
20.4745
20.4753
20.476
20.4766
20.4772
20.4777
20.4781
20.4784
20.4787
20.4789
20.4791
20.4793
20.4795
20.4796
20.4797
20.4798
20.4798
20.4799
20.4799
20.48
20.48
20.48
20.4801
20.4801
20.4801
20.4801
20.4801
20.4801
20.4801
20.4801
20.4801
20.4801
20.48
20.48
20.48
20.4799
20.4799
20.4798
20.4798
20.4797
20.4796
20.4795
20.4793
20.4791
20.4789
20.4787
20.4784
20.4781
20.4777
20.4772
20.4766
20.476
20.4753
20.4745
20.4736
20.4726
20.4718
20.8564
20.8571
20.8579
20.8587
20.8594
20.86
20.8606
20.8611
20.8615
20.8618
20.8621
20.8623
20.8626
20.8627
20.8629
20.863
20.8631
20.8632
20.8633
20.8633
20.8634
20.8634
20.8635
20.8635
20.8635
20.8636
20.8636
20.8636
20.8636
20.8636
20.8636
20.8636
20.8636
20.8636
20.8636
20.8635
20.8635
20.8635
20.8634
20.8634
20.8633
20.8633
20.8632
20.8631
20.863
20.8629
20.8627
20.8626
20.8623
20.8621
20.8618
20.8615
20.8611
20.8606
20.86
20.8594
20.8587
20.8579
20.8571
20.8564
21.1826
21.1832
21.1838
21.1844
21.185
21.1855
21.186
21.1863
21.1867
21.187
21.1872
21.1874
21.1876
21.1877
21.1879
21.188
21.188
21.1881
21.1882
21.1882
21.1883
21.1883
21.1884
21.1884
21.1884
21.1884
21.1884
21.1884
21.1885
21.1885
21.1885
21.1885
21.1884
21.1884
21.1884
21.1884
21.1884
21.1884
21.1883
21.1883
21.1882
21.1882
21.1881
21.188
21.188
21.1879
21.1877
21.1876
21.1874
21.1872
21.187
21.1867
21.1863
21.186
21.1855
21.185
21.1844
21.1838
21.1832
21.1826
21.4498
21.4502
21.4507
21.4512
21.4516
21.452
21.4524
21.4527
21.4529
21.4532
21.4533
21.4535
21.4536
21.4538
21.4539
21.454
21.454
21.4541
21.4541
21.4542
21.4542
21.4543
21.4543
21.4543
21.4543
21.4543
21.4543
21.4544
21.4544
21.4544
21.4544
21.4544
21.4544
21.4543
21.4543
21.4543
21.4543
21.4543
21.4543
21.4542
21.4542
21.4541
21.4541
21.454
21.454
21.4539
21.4538
21.4536
21.4535
21.4533
21.4532
21.4529
21.4527
21.4524
21.452
21.4516
21.4512
21.4507
21.4502
21.4498
21.6631
21.6634
21.6637
21.6641
21.6644
21.6647
21.665
21.6652
21.6654
21.6656
21.6657
21.6658
21.666
21.666
21.6661
21.6662
21.6663
21.6663
21.6663
21.6664
21.6664
21.6664
21.6665
21.6665
21.6665
21.6665
21.6665
21.6665
21.6665
21.6665
21.6665
21.6665
21.6665
21.6665
21.6665
21.6665
21.6665
21.6665
21.6664
21.6664
21.6664
21.6663
21.6663
21.6663
21.6662
21.6661
21.666
21.666
21.6658
21.6657
21.6656
21.6654
21.6652
21.665
21.6647
21.6644
21.6641
21.6637
21.6634
21.6631
21.8318
21.832
21.8322
21.8325
21.8327
21.8329
21.8331
21.8333
21.8334
21.8336
21.8337
21.8338
21.8339
21.8339
21.834
21.834
21.8341
21.8341
21.8342
21.8342
21.8342
21.8342
21.8343
21.8343
21.8343
21.8343
21.8343
21.8343
21.8343
21.8343
21.8343
21.8343
21.8343
21.8343
21.8343
21.8343
21.8343
21.8343
21.8342
21.8342
21.8342
21.8342
21.8341
21.8341
21.834
21.834
21.8339
21.8339
21.8338
21.8337
21.8336
21.8334
21.8333
21.8331
21.8329
21.8327
21.8325
21.8322
21.832
21.8318
21.9665
21.9667
21.9668
21.967
21.9672
21.9673
21.9675
21.9676
21.9677
21.9678
21.9679
21.968
21.968
21.9681
21.9681
21.9682
21.9682
21.9683
21.9683
21.9683
21.9683
21.9684
21.9684
21.9684
21.9684
21.9684
21.9684
21.9684
21.9684
21.9684
21.9684
21.9684
21.9684
21.9684
21.9684
21.9684
21.9684
21.9684
21.9684
21.9683
21.9683
21.9683
21.9683
21.9682
21.9682
21.9681
21.9681
21.968
21.968
21.9679
21.9678
21.9677
21.9676
21.9675
21.9673
21.9672
21.967
21.9668
21.9667
21.9665
22.0769
22.077
22.0771
22.0772
22.0774
22.0775
22.0776
22.0777
22.0778
22.0778
22.0779
22.078
22.078
22.0781
22.0781
22.0781
22.0782
22.0782
22.0782
22.0782
22.0783
22.0783
22.0783
22.0783
22.0783
22.0783
22.0783
22.0783
22.0783
22.0783
22.0783
22.0783
22.0783
22.0783
22.0783
22.0783
22.0783
22.0783
22.0783
22.0783
22.0782
22.0782
22.0782
22.0782
22.0781
22.0781
22.0781
22.078
22.078
22.0779
22.0778
22.0778
22.0777
22.0776
22.0775
22.0774
22.0772
22.0771
22.077
22.0769
22.1702
22.1702
22.1703
22.1704
22.1705
22.1706
22.1706
22.1707
22.1708
22.1708
22.1709
22.1709
22.171
22.171
22.1711
22.1711
22.1711
22.1711
22.1712
22.1712
22.1712
22.1712
22.1712
22.1712
22.1713
22.1713
22.1713
22.1713
22.1713
22.1713
22.1713
22.1713
22.1713
22.1713
22.1713
22.1713
22.1712
22.1712
22.1712
22.1712
22.1712
22.1712
22.1711
22.1711
22.1711
22.1711
22.171
22.171
22.1709
22.1709
22.1708
22.1708
22.1707
22.1706
22.1706
22.1705
22.1704
22.1703
22.1702
22.1702
22.2513
22.2513
22.2513
22.2514
22.2515
22.2515
22.2516
22.2516
22.2517
22.2517
22.2518
22.2518
22.2519
22.2519
22.2519
22.252
22.252
22.252
22.252
22.2521
22.2521
22.2521
22.2521
22.2521
22.2521
22.2521
22.2521
22.2521
22.2521
22.2521
22.2521
22.2521
22.2521
22.2521
22.2521
22.2521
22.2521
22.2521
22.2521
22.2521
22.2521
22.252
22.252
22.252
22.252
22.2519
22.2519
22.2519
22.2518
22.2518
22.2517
22.2517
22.2516
22.2516
22.2515
22.2515
22.2514
22.2513
22.2513
22.2513
22.3235
22.3235
22.3235
22.3236
22.3236
22.3237
22.3237
22.3237
22.3238
22.3238
22.3239
22.3239
22.3239
22.324
22.324
22.324
22.324
22.3241
22.3241
22.3241
22.3241
22.3241
22.3241
22.3242
22.3242
22.3242
22.3242
22.3242
22.3242
22.3242
22.3242
22.3242
22.3242
22.3242
22.3242
22.3242
22.3242
22.3241
22.3241
22.3241
22.3241
22.3241
22.3241
22.324
22.324
22.324
22.324
22.3239
22.3239
22.3239
22.3238
22.3238
22.3237
22.3237
22.3237
22.3236
22.3236
22.3235
22.3235
22.3235
22.3889
22.3889
22.389
22.389
22.389
22.3891
22.3891
22.3891
22.3892
22.3892
22.3892
22.3893
22.3893
22.3893
22.3893
22.3894
22.3894
22.3894
22.3894
22.3894
22.3895
22.3895
22.3895
22.3895
22.3895
22.3895
22.3895
22.3895
22.3895
22.3895
22.3895
22.3895
22.3895
22.3895
22.3895
22.3895
22.3895
22.3895
22.3895
22.3895
22.3894
22.3894
22.3894
22.3894
22.3894
22.3893
22.3893
22.3893
22.3893
22.3892
22.3892
22.3892
22.3891
22.3891
22.3891
22.389
22.389
22.389
22.3889
22.3889
22.4491
22.4491
22.4491
22.4491
22.4492
22.4492
22.4492
22.4493
22.4493
22.4493
22.4493
22.4494
22.4494
22.4494
22.4494
22.4495
22.4495
22.4495
22.4495
22.4495
22.4496
22.4496
22.4496
22.4496
22.4496
22.4496
22.4496
22.4496
22.4496
22.4496
22.4496
22.4496
22.4496
22.4496
22.4496
22.4496
22.4496
22.4496
22.4496
22.4496
22.4495
22.4495
22.4495
22.4495
22.4495
22.4494
22.4494
22.4494
22.4494
22.4493
22.4493
22.4493
22.4493
22.4492
22.4492
22.4492
22.4491
22.4491
22.4491
22.4491
22.505
22.505
22.505
22.505
22.5051
22.5051
22.5051
22.5051
22.5052
22.5052
22.5052
22.5052
22.5053
22.5053
22.5053
22.5053
22.5053
22.5054
22.5054
22.5054
22.5054
22.5054
22.5054
22.5054
22.5055
22.5055
22.5055
22.5055
22.5055
22.5055
22.5055
22.5055
22.5055
22.5055
22.5055
22.5055
22.5054
22.5054
22.5054
22.5054
22.5054
22.5054
22.5054
22.5053
22.5053
22.5053
22.5053
22.5053
22.5052
22.5052
22.5052
22.5052
22.5051
22.5051
22.5051
22.5051
22.505
22.505
22.505
22.505
22.5575
22.5574
22.5574
22.5574
22.5575
22.5575
22.5575
22.5575
22.5575
22.5575
22.5576
22.5576
22.5576
22.5576
22.5577
22.5577
22.5577
22.5577
22.5577
22.5578
22.5578
22.5578
22.5578
22.5578
22.5578
22.5578
22.5578
22.5578
22.5578
22.5578
22.5578
22.5578
22.5578
22.5578
22.5578
22.5578
22.5578
22.5578
22.5578
22.5578
22.5578
22.5577
22.5577
22.5577
22.5577
22.5577
22.5576
22.5576
22.5576
22.5576
22.5575
22.5575
22.5575
22.5575
22.5575
22.5575
22.5574
22.5574
22.5574
22.5575
22.6069
22.6069
22.6069
22.6069
22.6069
22.6069
22.6069
22.607
22.607
22.607
22.607
22.607
22.6071
22.6071
22.6071
22.6071
22.6071
22.6072
22.6072
22.6072
22.6072
22.6072
22.6072
22.6072
22.6073
22.6073
22.6073
22.6073
22.6073
22.6073
22.6073
22.6073
22.6073
22.6073
22.6073
22.6073
22.6072
22.6072
22.6072
22.6072
22.6072
22.6072
22.6072
22.6071
22.6071
22.6071
22.6071
22.6071
22.607
22.607
22.607
22.607
22.607
22.6069
22.6069
22.6069
22.6069
22.6069
22.6069
22.6069
22.6539
22.6539
22.6539
22.6539
22.6539
22.6539
22.6539
22.6539
22.654
22.654
22.654
22.654
22.654
22.6541
22.6541
22.6541
22.6541
22.6541
22.6541
22.6542
22.6542
22.6542
22.6542
22.6542
22.6542
22.6542
22.6542
22.6542
22.6542
22.6542
22.6542
22.6542
22.6542
22.6542
22.6542
22.6542
22.6542
22.6542
22.6542
22.6542
22.6542
22.6541
22.6541
22.6541
22.6541
22.6541
22.6541
22.654
22.654
22.654
22.654
22.654
22.6539
22.6539
22.6539
22.6539
22.6539
22.6539
22.6539
22.6539
22.6988
22.6988
22.6988
22.6988
22.6988
22.6988
22.6988
22.6988
22.6988
22.6988
22.6988
22.6989
22.6989
22.6989
22.6989
22.6989
22.699
22.699
22.699
22.699
22.699
22.699
22.6991
22.6991
22.6991
22.6991
22.6991
22.6991
22.6991
22.6991
22.6991
22.6991
22.6991
22.6991
22.6991
22.6991
22.6991
22.6991
22.699
22.699
22.699
22.699
22.699
22.699
22.6989
22.6989
22.6989
22.6989
22.6989
22.6988
22.6988
22.6988
22.6988
22.6988
22.6988
22.6988
22.6988
22.6988
22.6988
22.6988
22.7419
22.7419
22.7418
22.7418
22.7418
22.7418
22.7418
22.7418
22.7419
22.7419
22.7419
22.7419
22.7419
22.7419
22.742
22.742
22.742
22.742
22.742
22.742
22.7421
22.7421
22.7421
22.7421
22.7421
22.7421
22.7421
22.7421
22.7421
22.7421
22.7421
22.7421
22.7421
22.7421
22.7421
22.7421
22.7421
22.7421
22.7421
22.7421
22.742
22.742
22.742
22.742
22.742
22.742
22.7419
22.7419
22.7419
22.7419
22.7419
22.7419
22.7418
22.7418
22.7418
22.7418
22.7418
22.7418
22.7419
22.7419
22.7833
22.7833
22.7833
22.7833
22.7833
22.7833
22.7833
22.7833
22.7833
22.7833
22.7833
22.7833
22.7834
22.7834
22.7834
22.7834
22.7834
22.7835
22.7835
22.7835
22.7835
22.7835
22.7835
22.7835
22.7835
22.7836
22.7836
22.7836
22.7836
22.7836
22.7836
22.7836
22.7836
22.7836
22.7836
22.7835
22.7835
22.7835
22.7835
22.7835
22.7835
22.7835
22.7835
22.7834
22.7834
22.7834
22.7834
22.7834
22.7833
22.7833
22.7833
22.7833
22.7833
22.7833
22.7833
22.7833
22.7833
22.7833
22.7833
22.7833
22.8234
22.8234
22.8234
22.8234
22.8233
22.8233
22.8233
22.8234
22.8234
22.8234
22.8234
22.8234
22.8234
22.8234
22.8235
22.8235
22.8235
22.8235
22.8235
22.8235
22.8236
22.8236
22.8236
22.8236
22.8236
22.8236
22.8236
22.8236
22.8236
22.8236
22.8236
22.8236
22.8236
22.8236
22.8236
22.8236
22.8236
22.8236
22.8236
22.8236
22.8235
22.8235
22.8235
22.8235
22.8235
22.8235
22.8234
22.8234
22.8234
22.8234
22.8234
22.8234
22.8234
22.8233
22.8233
22.8233
22.8234
22.8234
22.8234
22.8234
22.8623
22.8622
22.8622
22.8622
22.8622
22.8622
22.8622
22.8622
22.8622
22.8622
22.8622
22.8622
22.8623
22.8623
22.8623
22.8623
22.8623
22.8624
22.8624
22.8624
22.8624
22.8624
22.8624
22.8624
22.8625
22.8625
22.8625
22.8625
22.8625
22.8625
22.8625
22.8625
22.8625
22.8625
22.8625
22.8625
22.8624
22.8624
22.8624
22.8624
22.8624
22.8624
22.8624
22.8623
22.8623
22.8623
22.8623
22.8623
22.8622
22.8622
22.8622
22.8622
22.8622
22.8622
22.8622
22.8622
22.8622
22.8622
22.8622
22.8623
22.9
22.9
22.9
22.9
22.9
22.9
22.9
22.9
22.9
22.9
22.9
22.9
22.9
22.9001
22.9001
22.9001
22.9001
22.9001
22.9002
22.9002
22.9002
22.9002
22.9002
22.9002
22.9002
22.9002
22.9003
22.9003
22.9003
22.9003
22.9003
22.9003
22.9003
22.9003
22.9002
22.9002
22.9002
22.9002
22.9002
22.9002
22.9002
22.9002
22.9001
22.9001
22.9001
22.9001
22.9001
22.9
22.9
22.9
22.9
22.9
22.9
22.9
22.9
22.9
22.9
22.9
22.9
22.9
22.9369
22.9369
22.9369
22.9368
22.9368
22.9368
22.9368
22.9368
22.9368
22.9368
22.9368
22.9369
22.9369
22.9369
22.9369
22.9369
22.937
22.937
22.937
22.937
22.937
22.937
22.9371
22.9371
22.9371
22.9371
22.9371
22.9371
22.9371
22.9371
22.9371
22.9371
22.9371
22.9371
22.9371
22.9371
22.9371
22.9371
22.937
22.937
22.937
22.937
22.937
22.937
22.9369
22.9369
22.9369
22.9369
22.9369
22.9368
22.9368
22.9368
22.9368
22.9368
22.9368
22.9368
22.9368
22.9369
22.9369
22.9369
22.9729
22.9729
22.9729
22.9728
22.9728
22.9728
22.9728
22.9728
22.9728
22.9728
22.9728
22.9729
22.9729
22.9729
22.9729
22.9729
22.973
22.973
22.973
22.973
22.973
22.973
22.9731
22.9731
22.9731
22.9731
22.9731
22.9731
22.9731
22.9731
22.9731
22.9731
22.9731
22.9731
22.9731
22.9731
22.9731
22.9731
22.973
22.973
22.973
22.973
22.973
22.973
22.9729
22.9729
22.9729
22.9729
22.9729
22.9728
22.9728
22.9728
22.9728
22.9728
22.9728
22.9728
22.9728
22.9729
22.9729
22.9729
23.0082
23.0081
23.0081
23.0081
23.0081
23.0081
23.0081
23.0081
23.0081
23.0081
23.0081
23.0081
23.0081
23.0082
23.0082
23.0082
23.0082
23.0082
23.0083
23.0083
23.0083
23.0083
23.0083
23.0083
23.0084
23.0084
23.0084
23.0084
23.0084
23.0084
23.0084
23.0084
23.0084
23.0084
23.0084
23.0084
23.0083
23.0083
23.0083
23.0083
23.0083
23.0083
23.0082
23.0082
23.0082
23.0082
23.0082
23.0081
23.0081
23.0081
23.0081
23.0081
23.0081
23.0081
23.0081
23.0081
23.0081
23.0081
23.0081
23.0082
23.0428
23.0428
23.0427
23.0427
23.0427
23.0427
23.0427
23.0427
23.0427
23.0427
23.0427
23.0427
23.0428
23.0428
23.0428
23.0428
23.0428
23.0429
23.0429
23.0429
23.0429
23.0429
23.043
23.043
23.043
23.043
23.043
23.043