/*--------------------------------*- C++ -*----------------------------------*\
| =========                 |                                                 |
| \\      /  F ield         | foam-extend: Open Source CFD                    |
|  \\    /   O peration     | Version:     4.0                                |
|   \\  /    A nd           | Web:         http://www.foam-extend.org         |
|    \\/     M anipulation  |                                                 |
\*---------------------------------------------------------------------------*/
FoamFile
{
    version     2.0;
    format      ascii;
    class       volVectorField;
    location    "13";
    object      bodyForce;
}
// * * * * * * * * * * * * * * * * * * * * * * * * * * * * * * * * * * * * * //

dimensions      [1 -2 -2 0 0 0 0];

internalField   nonuniform List<vector> 
6960
(
(3.96503e-31 -5.38452e-15 -0)
(4.51829e-31 -5.38452e-15 -0)
(1.93641e-31 -5.38452e-15 -0)
(-4.05724e-31 -5.38452e-15 -0)
(-3.31956e-31 -5.38452e-15 -0)
(4.42608e-31 -5.38452e-15 -0)
(4.79492e-31 -5.38452e-15 -0)
(1.19873e-31 -5.38452e-15 -0)
(-1.56757e-31 -5.38452e-15 -0)
(-1.19873e-31 -5.38452e-15 -0)
(-2.12083e-31 -5.38452e-15 -0)
(-3.87282e-31 -5.38452e-15 -0)
(-1.01431e-31 -5.38452e-15 -0)
(-6.4547e-32 -5.38452e-15 -0)
(1.01431e-31 -5.38452e-15 -0)
(1.8442e-31 -5.38452e-15 -0)
(4.70271e-31 -5.38452e-15 -0)
(8.02227e-31 -5.38452e-15 -0)
(-2.7663e-32 -5.38452e-15 -0)
(-2.95072e-31 -5.38452e-15 -0)
(-3.04293e-31 -5.38452e-15 -0)
(-4.6105e-32 -5.38452e-15 -0)
(3.59619e-31 -5.38452e-15 -0)
(-3.59619e-31 -5.38452e-15 -0)
(-3.78061e-31 -5.38452e-15 -0)
(4.24166e-31 -5.38452e-15 -0)
(-7.3768e-32 -5.38452e-15 -0)
(-3.50398e-31 -5.38452e-15 -0)
(1.10652e-31 -5.38452e-15 -0)
(3.96503e-31 -5.38452e-15 -0)
(-1.93641e-31 -5.38452e-15 -0)
(-6.63912e-31 -5.38452e-15 -0)
(-3.04293e-31 -5.38452e-15 -0)
(-3.6884e-32 -5.38452e-15 -0)
(4.70271e-31 -5.38452e-15 -0)
(3.59619e-31 -5.38452e-15 -0)
(-1.01431e-31 -5.38452e-15 -0)
(-2.30525e-31 -5.38452e-15 -0)
(-2.21304e-31 -5.38452e-15 -0)
(3.04293e-31 -5.38452e-15 -0)
(3.13514e-31 -5.38452e-15 -0)
(-2.67409e-31 -5.38452e-15 -0)
(1.01431e-31 -5.38452e-15 -0)
(6.36249e-31 -5.38452e-15 -0)
(5.62481e-31 -5.38452e-15 -0)
(4.97934e-31 -5.38452e-15 -0)
(1.75199e-31 -5.38452e-15 -0)
(1.38315e-31 -5.38452e-15 -0)
(1.93641e-31 -5.38452e-15 -0)
(-2.48967e-31 -5.38452e-15 -0)
(-1.47536e-31 -5.38452e-15 -0)
(5.34818e-31 -5.38452e-15 -0)
(1.47536e-31 -5.38452e-15 -0)
(-6.63912e-31 -5.38452e-15 -0)
(-5.5326e-32 -5.38452e-15 -0)
(1.56757e-31 -5.38452e-15 -0)
(-4.97934e-31 -5.38452e-15 -0)
(-4.6105e-31 -5.38452e-15 -0)
(-3.41177e-31 -5.38452e-15 -0)
(-1.93641e-31 -5.38452e-15 -0)
(1.28913e-30 -5.38452e-15 -0)
(1.28913e-30 -5.38452e-15 -0)
(3.22282e-31 -5.38452e-15 -0)
(-1.28913e-30 -5.38452e-15 -0)
(-8.95227e-31 -5.38452e-15 -0)
(1.39655e-30 -5.38452e-15 -0)
(1.46817e-30 -5.38452e-15 -0)
(3.58091e-31 -5.38452e-15 -0)
(-3.58091e-31 -5.38452e-15 -0)
(-3.58091e-31 -5.38452e-15 -0)
(-7.51991e-31 -5.38452e-15 -0)
(-1.07427e-30 -5.38452e-15 -0)
(-5.72945e-31 -5.38452e-15 -0)
(-3.22282e-31 -5.38452e-15 -0)
(4.65518e-31 -5.38452e-15 -0)
(6.80373e-31 -5.38452e-15 -0)
(1.46817e-30 -5.38452e-15 -0)
(2.50664e-30 -5.38452e-15 -0)
(-2.86473e-31 -5.38452e-15 -0)
(-9.66845e-31 -5.38452e-15 -0)
(-7.51991e-31 -5.38452e-15 -0)
(-1.79045e-31 -5.38452e-15 -0)
(1.1817e-30 -5.38452e-15 -0)
(-8.95227e-31 -5.38452e-15 -0)
(-1.14589e-30 -5.38452e-15 -0)
(1.11008e-30 -5.38452e-15 -0)
(-2.14855e-31 -5.38452e-15 -0)
(-9.31036e-31 -5.38452e-15 -0)
(2.50664e-31 -5.38452e-15 -0)
(1.21751e-30 -5.38452e-15 -0)
(-6.80373e-31 -5.38452e-15 -0)
(-2.25597e-30 -5.38452e-15 -0)
(-7.878e-31 -5.38452e-15 -0)
(-1.43236e-31 -5.38452e-15 -0)
(1.36075e-30 -5.38452e-15 -0)
(1.32494e-30 -5.38452e-15 -0)
(-3.939e-31 -5.38452e-15 -0)
(-7.51991e-31 -5.38452e-15 -0)
(-4.65518e-31 -5.38452e-15 -0)
(1.03846e-30 -5.38452e-15 -0)
(9.66845e-31 -5.38452e-15 -0)
(-9.66845e-31 -5.38452e-15 -0)
(1.79045e-31 -5.38452e-15 -0)
(1.93369e-30 -5.38452e-15 -0)
(1.64722e-30 -5.38452e-15 -0)
(1.36075e-30 -5.38452e-15 -0)
(6.44564e-31 -5.38452e-15 -0)
(5.01327e-31 -5.38452e-15 -0)
(4.65518e-31 -5.38452e-15 -0)
(-8.23609e-31 -5.38452e-15 -0)
(-2.50664e-31 -5.38452e-15 -0)
(1.53979e-30 -5.38452e-15 -0)
(5.72945e-31 -5.38452e-15 -0)
(-1.86207e-30 -5.38452e-15 -0)
(-2.14855e-31 -5.38452e-15 -0)
(4.65518e-31 -5.38452e-15 -0)
(-1.39655e-30 -5.38452e-15 -0)
(-1.39655e-30 -5.38452e-15 -0)
(-1.00265e-30 -5.38452e-15 -0)
(-5.37136e-31 -5.38452e-15 -0)
(2.15546e-30 -5.38452e-15 -0)
(2.22499e-30 -5.38452e-15 -0)
(9.03904e-31 -5.38452e-15 -0)
(-1.94687e-30 -5.38452e-15 -0)
(-1.66875e-30 -5.38452e-15 -0)
(2.22499e-30 -5.38452e-15 -0)
(2.57265e-30 -5.38452e-15 -0)
(7.64841e-31 -5.38452e-15 -0)
(-8.34373e-31 -5.38452e-15 -0)
(-9.73435e-31 -5.38452e-15 -0)
(-1.32109e-30 -5.38452e-15 -0)
(-1.80781e-30 -5.38452e-15 -0)
(-6.25779e-31 -5.38452e-15 -0)
(-4.17186e-31 -5.38452e-15 -0)
(8.34373e-31 -5.38452e-15 -0)
(6.9531e-31 -5.38452e-15 -0)
(2.22499e-30 -5.38452e-15 -0)
(4.65858e-30 -5.38452e-15 -0)
(-1.39062e-31 -5.38452e-15 -0)
(-1.73828e-30 -5.38452e-15 -0)
(-1.18203e-30 -5.38452e-15 -0)
(-3.47655e-31 -5.38452e-15 -0)
(1.59921e-30 -5.38452e-15 -0)
(-1.66875e-30 -5.38452e-15 -0)
(-2.08593e-30 -5.38452e-15 -0)
(2.08593e-30 -5.38452e-15 -0)
(-6.9531e-32 -5.38452e-15 -0)
(-1.87734e-30 -5.38452e-15 -0)
(3.47655e-31 -5.38452e-15 -0)
(2.08593e-30 -5.38452e-15 -0)
(-9.73435e-31 -5.38452e-15 -0)
(-3.40702e-30 -5.38452e-15 -0)
(-1.46015e-30 -5.38452e-15 -0)
(-4.17186e-31 -5.38452e-15 -0)
(2.29452e-30 -5.38452e-15 -0)
(2.08593e-30 -5.38452e-15 -0)
(-6.25779e-31 -5.38452e-15 -0)
(-1.32109e-30 -5.38452e-15 -0)
(-8.34373e-31 -5.38452e-15 -0)
(1.66875e-30 -5.38452e-15 -0)
(1.46015e-30 -5.38452e-15 -0)
(-1.52968e-30 -5.38452e-15 -0)
(5.56248e-31 -5.38452e-15 -0)
(3.33749e-30 -5.38452e-15 -0)
(3.1289e-30 -5.38452e-15 -0)
(2.64218e-30 -5.38452e-15 -0)
(6.25779e-31 -5.38452e-15 -0)
(4.86717e-31 -5.38452e-15 -0)
(7.64841e-31 -5.38452e-15 -0)
(-1.46015e-30 -5.38452e-15 -0)
(-6.25779e-31 -5.38452e-15 -0)
(2.85077e-30 -5.38452e-15 -0)
(9.03904e-31 -5.38452e-15 -0)
(-3.1289e-30 -5.38452e-15 -0)
(-2.08593e-31 -5.38452e-15 -0)
(6.25779e-31 -5.38452e-15 -0)
(-2.43359e-30 -5.38452e-15 -0)
(-2.15546e-30 -5.38452e-15 -0)
(-1.66875e-30 -5.38452e-15 -0)
(-1.04297e-30 -5.38452e-15 -0)
(3.03771e-30 -5.38452e-15 -0)
(3.30773e-30 -5.38452e-15 -0)
(9.45066e-31 -5.38452e-15 -0)
(-3.03771e-30 -5.38452e-15 -0)
(-2.16015e-30 -5.38452e-15 -0)
(3.17272e-30 -5.38452e-15 -0)
(3.57775e-30 -5.38452e-15 -0)
(9.45066e-31 -5.38452e-15 -0)
(-1.14758e-30 -5.38452e-15 -0)
(-1.35009e-30 -5.38452e-15 -0)
(-1.89013e-30 -5.38452e-15 -0)
(-2.16015e-30 -5.38452e-15 -0)
(-1.14758e-30 -5.38452e-15 -0)
(-3.37524e-31 -5.38452e-15 -0)
(1.4851e-30 -5.38452e-15 -0)
(1.01257e-30 -5.38452e-15 -0)
(3.24023e-30 -5.38452e-15 -0)
(5.94042e-30 -5.38452e-15 -0)
(-2.02514e-31 -5.38452e-15 -0)
(-2.43017e-30 -5.38452e-15 -0)
(-1.82263e-30 -5.38452e-15 -0)
(-3.37524e-31 -5.38452e-15 -0)
(2.70019e-30 -5.38452e-15 -0)
(-2.8352e-30 -5.38452e-15 -0)
(-3.10522e-30 -5.38452e-15 -0)
(3.24023e-30 -5.38452e-15 -0)
(6.75047e-32 -5.38452e-15 -0)
(-2.9027e-30 -5.38452e-15 -0)
(4.05028e-31 -5.38452e-15 -0)
(3.37524e-30 -5.38452e-15 -0)
(-1.28259e-30 -5.38452e-15 -0)
(-4.86034e-30 -5.38452e-15 -0)
(-2.43017e-30 -5.38452e-15 -0)
(-5.40038e-31 -5.38452e-15 -0)
(3.24023e-30 -5.38452e-15 -0)
(3.24023e-30 -5.38452e-15 -0)
(-9.45066e-31 -5.38452e-15 -0)
(-2.09265e-30 -5.38452e-15 -0)
(-1.01257e-30 -5.38452e-15 -0)
(2.70019e-30 -5.38452e-15 -0)
(2.29516e-30 -5.38452e-15 -0)
(-2.36267e-30 -5.38452e-15 -0)
(4.72533e-31 -5.38452e-15 -0)
(4.59032e-30 -5.38452e-15 -0)
(4.18529e-30 -5.38452e-15 -0)
(3.44274e-30 -5.38452e-15 -0)
(1.21509e-30 -5.38452e-15 -0)
(1.4176e-30 -5.38452e-15 -0)
(1.14758e-30 -5.38452e-15 -0)
(-2.09265e-30 -5.38452e-15 -0)
(-5.40038e-31 -5.38452e-15 -0)
(3.98278e-30 -5.38452e-15 -0)
(1.14758e-30 -5.38452e-15 -0)
(-4.52282e-30 -5.38452e-15 -0)
(-7.42552e-31 -5.38452e-15 -0)
(6.75047e-31 -5.38452e-15 -0)
(-3.78026e-30 -5.38452e-15 -0)
(-3.03771e-30 -5.38452e-15 -0)
(-2.29516e-30 -5.38452e-15 -0)
(-1.35009e-30 -5.38452e-15 -0)
(4.06332e-30 -5.38452e-15 -0)
(4.1944e-30 -5.38452e-15 -0)
(1.70397e-30 -5.38452e-15 -0)
(-3.27687e-30 -5.38452e-15 -0)
(-3.1458e-30 -5.38452e-15 -0)
(4.06332e-30 -5.38452e-15 -0)
(4.98085e-30 -5.38452e-15 -0)
(1.44182e-30 -5.38452e-15 -0)
(-1.44182e-30 -5.38452e-15 -0)
(-1.5729e-30 -5.38452e-15 -0)
(-2.6215e-30 -5.38452e-15 -0)
(-3.53902e-30 -5.38452e-15 -0)
(-1.44182e-30 -5.38452e-15 -0)
(-3.93225e-31 -5.38452e-15 -0)
(1.70397e-30 -5.38452e-15 -0)
(1.44182e-30 -5.38452e-15 -0)
(4.1944e-30 -5.38452e-15 -0)
(8.12665e-30 -5.38452e-15 -0)
(-3.93225e-31 -5.38452e-15 -0)
(-3.1458e-30 -5.38452e-15 -0)
(-1.83505e-30 -5.38452e-15 -0)
(-5.243e-31 -5.38452e-15 -0)
(3.40795e-30 -5.38452e-15 -0)
(-3.40795e-30 -5.38452e-15 -0)
(-3.93225e-30 -5.38452e-15 -0)
(4.06332e-30 -5.38452e-15 -0)
(-5.243e-31 -5.38452e-15 -0)
(-3.40795e-30 -5.38452e-15 -0)
(9.17525e-31 -5.38452e-15 -0)
(3.53902e-30 -5.38452e-15 -0)
(-2.49042e-30 -5.38452e-15 -0)
(-6.16052e-30 -5.38452e-15 -0)
(-2.35935e-30 -5.38452e-15 -0)
(-6.55375e-31 -5.38452e-15 -0)
(3.6701e-30 -5.38452e-15 -0)
(3.93225e-30 -5.38452e-15 -0)
(-7.8645e-31 -5.38452e-15 -0)
(-2.75257e-30 -5.38452e-15 -0)
(-1.44182e-30 -5.38452e-15 -0)
(3.1458e-30 -5.38452e-15 -0)
(2.49042e-30 -5.38452e-15 -0)
(-2.6215e-30 -5.38452e-15 -0)
(6.55375e-31 -5.38452e-15 -0)
(6.2916e-30 -5.38452e-15 -0)
(5.63622e-30 -5.38452e-15 -0)
(4.84977e-30 -5.38452e-15 -0)
(1.83505e-30 -5.38452e-15 -0)
(1.0486e-30 -5.38452e-15 -0)
(1.5729e-30 -5.38452e-15 -0)
(-2.35935e-30 -5.38452e-15 -0)
(-1.31075e-30 -5.38452e-15 -0)
(4.84977e-30 -5.38452e-15 -0)
(1.5729e-30 -5.38452e-15 -0)
(-5.63622e-30 -5.38452e-15 -0)
(-5.243e-31 -5.38452e-15 -0)
(9.17525e-31 -5.38452e-15 -0)
(-4.7187e-30 -5.38452e-15 -0)
(-4.06332e-30 -5.38452e-15 -0)
(-3.1458e-30 -5.38452e-15 -0)
(-1.96612e-30 -5.38452e-15 -0)
(5.21746e-30 -5.38452e-15 -0)
(5.21746e-30 -5.38452e-15 -0)
(2.03608e-30 -5.38452e-15 -0)
(-4.32667e-30 -5.38452e-15 -0)
(-3.81765e-30 -5.38452e-15 -0)
(5.47197e-30 -5.38452e-15 -0)
(5.59922e-30 -5.38452e-15 -0)
(1.65432e-30 -5.38452e-15 -0)
(-1.78157e-30 -5.38452e-15 -0)
(-1.1453e-30 -5.38452e-15 -0)
(-2.41785e-30 -5.38452e-15 -0)
(-4.83569e-30 -5.38452e-15 -0)
(-1.65432e-30 -5.38452e-15 -0)
(-6.36275e-31 -5.38452e-15 -0)
(1.65432e-30 -5.38452e-15 -0)
(1.65432e-30 -5.38452e-15 -0)
(5.21746e-30 -5.38452e-15 -0)
(1.01804e-29 -5.38452e-15 -0)
(-1.27255e-31 -5.38452e-15 -0)
(-4.45393e-30 -5.38452e-15 -0)
(-2.92687e-30 -5.38452e-15 -0)
(-1.27255e-31 -5.38452e-15 -0)
(4.58118e-30 -5.38452e-15 -0)
(-4.45393e-30 -5.38452e-15 -0)
(-4.58118e-30 -5.38452e-15 -0)
(5.72648e-30 -5.38452e-15 -0)
(-0 -5.38452e-15 -0)
(-4.45393e-30 -5.38452e-15 -0)
(6.36275e-31 -5.38452e-15 -0)
(3.81765e-30 -5.38452e-15 -0)
(-2.92687e-30 -5.38452e-15 -0)
(-7.50805e-30 -5.38452e-15 -0)
(-3.30863e-30 -5.38452e-15 -0)
(-1.1453e-30 -5.38452e-15 -0)
(5.72648e-30 -5.38452e-15 -0)
(4.96295e-30 -5.38452e-15 -0)
(-1.52706e-30 -5.38452e-15 -0)
(-3.6904e-30 -5.38452e-15 -0)
(-1.65432e-30 -5.38452e-15 -0)
(4.96295e-30 -5.38452e-15 -0)
(3.56314e-30 -5.38452e-15 -0)
(-3.94491e-30 -5.38452e-15 -0)
(6.36275e-31 -5.38452e-15 -0)
(7.6353e-30 -5.38452e-15 -0)
(6.10824e-30 -5.38452e-15 -0)
(5.47197e-30 -5.38452e-15 -0)
(3.43589e-30 -5.38452e-15 -0)
(2.16334e-30 -5.38452e-15 -0)
(1.01804e-30 -5.38452e-15 -0)
(-3.30863e-30 -5.38452e-15 -0)
(-8.90786e-31 -5.38452e-15 -0)
(6.2355e-30 -5.38452e-15 -0)
(1.90883e-30 -5.38452e-15 -0)
(-7.25354e-30 -5.38452e-15 -0)
(-6.36275e-31 -5.38452e-15 -0)
(1.65432e-30 -5.38452e-15 -0)
(-5.85373e-30 -5.38452e-15 -0)
(-5.47197e-30 -5.38452e-15 -0)
(-3.94491e-30 -5.38452e-15 -0)
(-2.03608e-30 -5.38452e-15 -0)
(6.42442e-30 -5.38452e-15 -0)
(6.91861e-30 -5.38452e-15 -0)
(2.47093e-30 -5.38452e-15 -0)
(-5.68314e-30 -5.38452e-15 -0)
(-4.44768e-30 -5.38452e-15 -0)
(6.42442e-30 -5.38452e-15 -0)
(6.42442e-30 -5.38452e-15 -0)
(1.72965e-30 -5.38452e-15 -0)
(-2.47093e-30 -5.38452e-15 -0)
(-2.22384e-30 -5.38452e-15 -0)
(-3.21221e-30 -5.38452e-15 -0)
(-4.94186e-30 -5.38452e-15 -0)
(-1.72965e-30 -5.38452e-15 -0)
(-2.47093e-31 -5.38452e-15 -0)
(2.96512e-30 -5.38452e-15 -0)
(1.48256e-30 -5.38452e-15 -0)
(6.17733e-30 -5.38452e-15 -0)
(1.23547e-29 -5.38452e-15 -0)
(-7.41279e-31 -5.38452e-15 -0)
(-5.43605e-30 -5.38452e-15 -0)
(-3.21221e-30 -5.38452e-15 -0)
(-4.94186e-31 -5.38452e-15 -0)
(5.18895e-30 -5.38452e-15 -0)
(-4.94186e-30 -5.38452e-15 -0)
(-5.43605e-30 -5.38452e-15 -0)
(6.91861e-30 -5.38452e-15 -0)
(-0 -5.38452e-15 -0)
(-5.43605e-30 -5.38452e-15 -0)
(9.88372e-31 -5.38452e-15 -0)
(4.69477e-30 -5.38452e-15 -0)
(-3.7064e-30 -5.38452e-15 -0)
(-9.38954e-30 -5.38452e-15 -0)
(-3.95349e-30 -5.38452e-15 -0)
(-1.48256e-30 -5.38452e-15 -0)
(6.67151e-30 -5.38452e-15 -0)
(6.17733e-30 -5.38452e-15 -0)
(-2.47093e-30 -5.38452e-15 -0)
(-4.44768e-30 -5.38452e-15 -0)
(-1.23547e-30 -5.38452e-15 -0)
(6.17733e-30 -5.38452e-15 -0)
(3.7064e-30 -5.38452e-15 -0)
(-4.20058e-30 -5.38452e-15 -0)
(7.41279e-31 -5.38452e-15 -0)
(8.40116e-30 -5.38452e-15 -0)
(8.15407e-30 -5.38452e-15 -0)
(6.91861e-30 -5.38452e-15 -0)
(2.71802e-30 -5.38452e-15 -0)
(2.47093e-30 -5.38452e-15 -0)
(2.71802e-30 -5.38452e-15 -0)
(-3.21221e-30 -5.38452e-15 -0)
(-1.48256e-30 -5.38452e-15 -0)
(7.1657e-30 -5.38452e-15 -0)
(1.97674e-30 -5.38452e-15 -0)
(-8.89535e-30 -5.38452e-15 -0)
(-9.88372e-31 -5.38452e-15 -0)
(1.97674e-30 -5.38452e-15 -0)
(-7.1657e-30 -5.38452e-15 -0)
(-6.67151e-30 -5.38452e-15 -0)
(-5.43605e-30 -5.38452e-15 -0)
(-2.71802e-30 -5.38452e-15 -0)
(6.2372e-30 -5.38452e-15 -0)
(7.19676e-30 -5.38452e-15 -0)
(4.07817e-30 -5.38452e-15 -0)
(-5.27763e-30 -5.38452e-15 -0)
(-5.9973e-30 -5.38452e-15 -0)
(7.67655e-30 -5.38452e-15 -0)
(7.43666e-30 -5.38452e-15 -0)
(1.43935e-30 -5.38452e-15 -0)
(-2.63881e-30 -5.38452e-15 -0)
(-1.91914e-30 -5.38452e-15 -0)
(-3.59838e-30 -5.38452e-15 -0)
(-5.51752e-30 -5.38452e-15 -0)
(-2.15903e-30 -5.38452e-15 -0)
(-1.19946e-30 -5.38452e-15 -0)
(2.63881e-30 -5.38452e-15 -0)
(2.39892e-30 -5.38452e-15 -0)
(7.19676e-30 -5.38452e-15 -0)
(1.39137e-29 -5.38452e-15 -0)
(-7.19676e-31 -5.38452e-15 -0)
(-6.71698e-30 -5.38452e-15 -0)
(-3.83827e-30 -5.38452e-15 -0)
(9.59569e-31 -5.38452e-15 -0)
(6.47709e-30 -5.38452e-15 -0)
(-6.47709e-30 -5.38452e-15 -0)
(-7.43666e-30 -5.38452e-15 -0)
(8.15633e-30 -5.38452e-15 -0)
(-7.19676e-31 -5.38452e-15 -0)
(-5.9973e-30 -5.38452e-15 -0)
(2.39892e-30 -5.38452e-15 -0)
(5.9973e-30 -5.38452e-15 -0)
(-4.55795e-30 -5.38452e-15 -0)
(-1.15148e-29 -5.38452e-15 -0)
(-4.07817e-30 -5.38452e-15 -0)
(-7.19676e-31 -5.38452e-15 -0)
(6.47709e-30 -5.38452e-15 -0)
(6.2372e-30 -5.38452e-15 -0)
(-1.91914e-30 -5.38452e-15 -0)
(-4.79784e-30 -5.38452e-15 -0)
(-1.67924e-30 -5.38452e-15 -0)
(6.71698e-30 -5.38452e-15 -0)
(3.59838e-30 -5.38452e-15 -0)
(-5.27763e-30 -5.38452e-15 -0)
(1.91914e-30 -5.38452e-15 -0)
(1.03154e-29 -5.38452e-15 -0)
(9.1159e-30 -5.38452e-15 -0)
(9.35579e-30 -5.38452e-15 -0)
(3.35849e-30 -5.38452e-15 -0)
(1.91914e-30 -5.38452e-15 -0)
(2.87871e-30 -5.38452e-15 -0)
(-4.31806e-30 -5.38452e-15 -0)
(-1.91914e-30 -5.38452e-15 -0)
(8.15633e-30 -5.38452e-15 -0)
(2.15903e-30 -5.38452e-15 -0)
(-1.00755e-29 -5.38452e-15 -0)
(-4.79784e-31 -5.38452e-15 -0)
(1.67924e-30 -5.38452e-15 -0)
(-8.63612e-30 -5.38452e-15 -0)
(-7.19676e-30 -5.38452e-15 -0)
(-5.9973e-30 -5.38452e-15 -0)
(-3.59838e-30 -5.38452e-15 -0)
(6.98703e-30 -5.38452e-15 -0)
(8.38444e-30 -5.38452e-15 -0)
(4.42512e-30 -5.38452e-15 -0)
(-6.28833e-30 -5.38452e-15 -0)
(-6.75413e-30 -5.38452e-15 -0)
(7.91864e-30 -5.38452e-15 -0)
(9.08314e-30 -5.38452e-15 -0)
(1.86321e-30 -5.38452e-15 -0)
(-3.26061e-30 -5.38452e-15 -0)
(-2.32901e-30 -5.38452e-15 -0)
(-4.19222e-30 -5.38452e-15 -0)
(-7.45283e-30 -5.38452e-15 -0)
(-3.26061e-30 -5.38452e-15 -0)
(-4.65802e-31 -5.38452e-15 -0)
(4.19222e-30 -5.38452e-15 -0)
(2.79481e-30 -5.38452e-15 -0)
(7.68573e-30 -5.38452e-15 -0)
(1.60702e-29 -5.38452e-15 -0)
(-2.32901e-31 -5.38452e-15 -0)
(-6.05543e-30 -5.38452e-15 -0)
(-4.42512e-30 -5.38452e-15 -0)
(-6.98703e-31 -5.38452e-15 -0)
(6.52123e-30 -5.38452e-15 -0)
(-6.52123e-30 -5.38452e-15 -0)
(-7.45283e-30 -5.38452e-15 -0)
(9.31604e-30 -5.38452e-15 -0)
(-6.98703e-31 -5.38452e-15 -0)
(-7.45283e-30 -5.38452e-15 -0)
(2.09611e-30 -5.38452e-15 -0)
(7.45283e-30 -5.38452e-15 -0)
(-4.89092e-30 -5.38452e-15 -0)
(-1.32754e-29 -5.38452e-15 -0)
(-4.89092e-30 -5.38452e-15 -0)
(-1.63031e-30 -5.38452e-15 -0)
(8.15154e-30 -5.38452e-15 -0)
(7.45283e-30 -5.38452e-15 -0)
(-2.56191e-30 -5.38452e-15 -0)
(-5.35672e-30 -5.38452e-15 -0)
(-2.56191e-30 -5.38452e-15 -0)
(7.21993e-30 -5.38452e-15 -0)
(4.19222e-30 -5.38452e-15 -0)
(-5.82253e-30 -5.38452e-15 -0)
(2.32901e-30 -5.38452e-15 -0)
(1.1878e-29 -5.38452e-15 -0)
(1.14122e-29 -5.38452e-15 -0)
(1.09463e-29 -5.38452e-15 -0)
(4.19222e-30 -5.38452e-15 -0)
(1.63031e-30 -5.38452e-15 -0)
(2.32901e-30 -5.38452e-15 -0)
(-5.12382e-30 -5.38452e-15 -0)
(-1.86321e-30 -5.38452e-15 -0)
(9.78184e-30 -5.38452e-15 -0)
(3.49352e-30 -5.38452e-15 -0)
(-1.11793e-29 -5.38452e-15 -0)
(-9.31604e-31 -5.38452e-15 -0)
(2.09611e-30 -5.38452e-15 -0)
(-1.00147e-29 -5.38452e-15 -0)
(-9.08314e-30 -5.38452e-15 -0)
(-7.45283e-30 -5.38452e-15 -0)
(-3.95932e-30 -5.38452e-15 -0)
(7.91398e-30 -5.38452e-15 -0)
(9.27066e-30 -5.38452e-15 -0)
(4.9745e-30 -5.38452e-15 -0)
(-6.78341e-30 -5.38452e-15 -0)
(-7.46175e-30 -5.38452e-15 -0)
(9.49678e-30 -5.38452e-15 -0)
(9.72289e-30 -5.38452e-15 -0)
(1.80891e-30 -5.38452e-15 -0)
(-4.29616e-30 -5.38452e-15 -0)
(-3.39171e-30 -5.38452e-15 -0)
(-4.29616e-30 -5.38452e-15 -0)
(-7.91398e-30 -5.38452e-15 -0)
(-4.29616e-30 -5.38452e-15 -0)
(-4.52227e-31 -5.38452e-15 -0)
(4.52227e-30 -5.38452e-15 -0)
(2.93948e-30 -5.38452e-15 -0)
(9.04455e-30 -5.38452e-15 -0)
(1.89936e-29 -5.38452e-15 -0)
(-0 -5.38452e-15 -0)
(-8.14009e-30 -5.38452e-15 -0)
(-5.20062e-30 -5.38452e-15 -0)
(-2.26114e-31 -5.38452e-15 -0)
(7.23564e-30 -5.38452e-15 -0)
(-7.00953e-30 -5.38452e-15 -0)
(-7.91398e-30 -5.38452e-15 -0)
(9.04455e-30 -5.38452e-15 -0)
(-1.13057e-30 -5.38452e-15 -0)
(-7.91398e-30 -5.38452e-15 -0)
(2.26114e-30 -5.38452e-15 -0)
(8.14009e-30 -5.38452e-15 -0)
(-5.20062e-30 -5.38452e-15 -0)
(-1.4019e-29 -5.38452e-15 -0)
(-6.33118e-30 -5.38452e-15 -0)
(-1.5828e-30 -5.38452e-15 -0)
(9.49678e-30 -5.38452e-15 -0)
(9.27066e-30 -5.38452e-15 -0)
(-2.71336e-30 -5.38452e-15 -0)
(-7.23564e-30 -5.38452e-15 -0)
(-2.71336e-30 -5.38452e-15 -0)
(9.49678e-30 -5.38452e-15 -0)
(4.07005e-30 -5.38452e-15 -0)
(-6.33118e-30 -5.38452e-15 -0)
(3.39171e-30 -5.38452e-15 -0)
(1.31146e-29 -5.38452e-15 -0)
(1.22101e-29 -5.38452e-15 -0)
(1.1984e-29 -5.38452e-15 -0)
(4.9745e-30 -5.38452e-15 -0)
(1.13057e-30 -5.38452e-15 -0)
(1.35668e-30 -5.38452e-15 -0)
(-4.74839e-30 -5.38452e-15 -0)
(-1.13057e-30 -5.38452e-15 -0)
(1.13057e-29 -5.38452e-15 -0)
(4.07005e-30 -5.38452e-15 -0)
(-1.22101e-29 -5.38452e-15 -0)
(-1.13057e-30 -5.38452e-15 -0)
(2.71336e-30 -5.38452e-15 -0)
(-1.08535e-29 -5.38452e-15 -0)
(-1.06273e-29 -5.38452e-15 -0)
(-8.81843e-30 -5.38452e-15 -0)
(-4.29616e-30 -5.38452e-15 -0)
(7.46382e-30 -5.38452e-15 -0)
(8.34192e-30 -5.38452e-15 -0)
(6.80525e-30 -5.38452e-15 -0)
(-7.46382e-30 -5.38452e-15 -0)
(-9.22002e-30 -5.38452e-15 -0)
(1.03176e-29 -5.38452e-15 -0)
(1.05372e-29 -5.38452e-15 -0)
(1.97572e-30 -5.38452e-15 -0)
(-3.73191e-30 -5.38452e-15 -0)
(-2.41477e-30 -5.38452e-15 -0)
(-4.17096e-30 -5.38452e-15 -0)
(-9.65906e-30 -5.38452e-15 -0)
(-4.61001e-30 -5.38452e-15 -0)
(-1.09762e-30 -5.38452e-15 -0)
(6.14668e-30 -5.38452e-15 -0)
(4.17096e-30 -5.38452e-15 -0)
(1.03176e-29 -5.38452e-15 -0)
(1.88791e-29 -5.38452e-15 -0)
(-1.31715e-30 -5.38452e-15 -0)
(-7.46382e-30 -5.38452e-15 -0)
(-5.92715e-30 -5.38452e-15 -0)
(-2.19524e-31 -5.38452e-15 -0)
(8.34192e-30 -5.38452e-15 -0)
(-7.68335e-30 -5.38452e-15 -0)
(-8.34192e-30 -5.38452e-15 -0)
(1.00981e-29 -5.38452e-15 -0)
(-1.31715e-30 -5.38452e-15 -0)
(-9.22002e-30 -5.38452e-15 -0)
(4.17096e-30 -5.38452e-15 -0)
(9.65906e-30 -5.38452e-15 -0)
(-7.02477e-30 -5.38452e-15 -0)
(-1.71229e-29 -5.38452e-15 -0)
(-5.92715e-30 -5.38452e-15 -0)
(-1.53667e-30 -5.38452e-15 -0)
(9.43954e-30 -5.38452e-15 -0)
(1.05372e-29 -5.38452e-15 -0)
(-2.85381e-30 -5.38452e-15 -0)
(-6.80525e-30 -5.38452e-15 -0)
(-1.97572e-30 -5.38452e-15 -0)
(1.03176e-29 -5.38452e-15 -0)
(4.17096e-30 -5.38452e-15 -0)
(-9.22002e-30 -5.38452e-15 -0)
(3.95144e-30 -5.38452e-15 -0)
(1.49276e-29 -5.38452e-15 -0)
(1.25129e-29 -5.38452e-15 -0)
(1.383e-29 -5.38452e-15 -0)
(6.14668e-30 -5.38452e-15 -0)
(1.31715e-30 -5.38452e-15 -0)
(1.53667e-30 -5.38452e-15 -0)
(-5.26858e-30 -5.38452e-15 -0)
(-4.39048e-31 -5.38452e-15 -0)
(1.29519e-29 -5.38452e-15 -0)
(5.26858e-30 -5.38452e-15 -0)
(-1.49276e-29 -5.38452e-15 -0)
(-1.75619e-30 -5.38452e-15 -0)
(3.73191e-30 -5.38452e-15 -0)
(-1.20738e-29 -5.38452e-15 -0)
(-1.16348e-29 -5.38452e-15 -0)
(-1.03176e-29 -5.38452e-15 -0)
(-5.92715e-30 -5.38452e-15 -0)
(7.67256e-30 -5.38452e-15 -0)
(9.37757e-30 -5.38452e-15 -0)
(7.67256e-30 -5.38452e-15 -0)
(-7.24631e-30 -5.38452e-15 -0)
(-1.02301e-29 -5.38452e-15 -0)
(1.15088e-29 -5.38452e-15 -0)
(1.10826e-29 -5.38452e-15 -0)
(1.70501e-30 -5.38452e-15 -0)
(-5.54129e-30 -5.38452e-15 -0)
(-2.55752e-30 -5.38452e-15 -0)
(-3.83628e-30 -5.38452e-15 -0)
(-1.10826e-29 -5.38452e-15 -0)
(-6.3938e-30 -5.38452e-15 -0)
(4.26253e-31 -5.38452e-15 -0)
(7.24631e-30 -5.38452e-15 -0)
(4.26253e-30 -5.38452e-15 -0)
(1.06563e-29 -5.38452e-15 -0)
(2.08864e-29 -5.38452e-15 -0)
(8.52507e-31 -5.38452e-15 -0)
(-9.37757e-30 -5.38452e-15 -0)
(-6.82005e-30 -5.38452e-15 -0)
(1.27876e-30 -5.38452e-15 -0)
(8.09881e-30 -5.38452e-15 -0)
(-8.09881e-30 -5.38452e-15 -0)
(-9.37757e-30 -5.38452e-15 -0)
(1.06563e-29 -5.38452e-15 -0)
(-1.70501e-30 -5.38452e-15 -0)
(-8.95132e-30 -5.38452e-15 -0)
(3.41003e-30 -5.38452e-15 -0)
(9.80383e-30 -5.38452e-15 -0)
(-7.24631e-30 -5.38452e-15 -0)
(-1.83289e-29 -5.38452e-15 -0)
(-7.24631e-30 -5.38452e-15 -0)
(-1.27876e-30 -5.38452e-15 -0)
(1.10826e-29 -5.38452e-15 -0)
(1.06563e-29 -5.38452e-15 -0)
(-2.55752e-30 -5.38452e-15 -0)
(-7.24631e-30 -5.38452e-15 -0)
(-3.83628e-30 -5.38452e-15 -0)
(1.15088e-29 -5.38452e-15 -0)
(5.11504e-30 -5.38452e-15 -0)
(-9.80383e-30 -5.38452e-15 -0)
(4.26253e-30 -5.38452e-15 -0)
(1.74764e-29 -5.38452e-15 -0)
(1.40664e-29 -5.38452e-15 -0)
(1.44926e-29 -5.38452e-15 -0)
(6.82005e-30 -5.38452e-15 -0)
(1.70501e-30 -5.38452e-15 -0)
(2.55752e-30 -5.38452e-15 -0)
(-5.96755e-30 -5.38452e-15 -0)
(-4.26253e-31 -5.38452e-15 -0)
(1.53451e-29 -5.38452e-15 -0)
(5.11504e-30 -5.38452e-15 -0)
(-1.70501e-29 -5.38452e-15 -0)
(-2.55752e-30 -5.38452e-15 -0)
(4.68879e-30 -5.38452e-15 -0)
(-1.36401e-29 -5.38452e-15 -0)
(-1.44926e-29 -5.38452e-15 -0)
(-1.10826e-29 -5.38452e-15 -0)
(-5.11504e-30 -5.38452e-15 -0)
(7.86279e-30 -5.38452e-15 -0)
(9.93195e-30 -5.38452e-15 -0)
(9.10429e-30 -5.38452e-15 -0)
(-8.27662e-30 -5.38452e-15 -0)
(-1.11734e-29 -5.38452e-15 -0)
(1.20011e-29 -5.38452e-15 -0)
(1.36564e-29 -5.38452e-15 -0)
(1.24149e-30 -5.38452e-15 -0)
(-7.03513e-30 -5.38452e-15 -0)
(-2.89682e-30 -5.38452e-15 -0)
(-3.72448e-30 -5.38452e-15 -0)
(-1.03458e-29 -5.38452e-15 -0)
(-6.20747e-30 -5.38452e-15 -0)
(-4.13831e-31 -5.38452e-15 -0)
(7.03513e-30 -5.38452e-15 -0)
(5.37981e-30 -5.38452e-15 -0)
(1.24149e-29 -5.38452e-15 -0)
(2.35884e-29 -5.38452e-15 -0)
(4.13831e-31 -5.38452e-15 -0)
(-1.15873e-29 -5.38452e-15 -0)
(-8.69046e-30 -5.38452e-15 -0)
(1.65532e-30 -5.38452e-15 -0)
(1.07596e-29 -5.38452e-15 -0)
(-1.07596e-29 -5.38452e-15 -0)
(-1.07596e-29 -5.38452e-15 -0)
(1.24149e-29 -5.38452e-15 -0)
(-1.65532e-30 -5.38452e-15 -0)
(-1.07596e-29 -5.38452e-15 -0)
(4.13831e-30 -5.38452e-15 -0)
(1.07596e-29 -5.38452e-15 -0)
(-8.27662e-30 -5.38452e-15 -0)
(-2.11054e-29 -5.38452e-15 -0)
(-7.03513e-30 -5.38452e-15 -0)
(-1.24149e-30 -5.38452e-15 -0)
(1.20011e-29 -5.38452e-15 -0)
(1.15873e-29 -5.38452e-15 -0)
(-2.48299e-30 -5.38452e-15 -0)
(-8.69046e-30 -5.38452e-15 -0)
(-4.96597e-30 -5.38452e-15 -0)
(1.32426e-29 -5.38452e-15 -0)
(6.20747e-30 -5.38452e-15 -0)
(-9.93195e-30 -5.38452e-15 -0)
(3.72448e-30 -5.38452e-15 -0)
(1.77947e-29 -5.38452e-15 -0)
(1.82086e-29 -5.38452e-15 -0)
(1.69671e-29 -5.38452e-15 -0)
(7.44896e-30 -5.38452e-15 -0)
(8.27662e-31 -5.38452e-15 -0)
(1.65532e-30 -5.38452e-15 -0)
(-6.20747e-30 -5.38452e-15 -0)
(-8.27662e-31 -5.38452e-15 -0)
(1.48979e-29 -5.38452e-15 -0)
(5.79364e-30 -5.38452e-15 -0)
(-1.61394e-29 -5.38452e-15 -0)
(-2.48299e-30 -5.38452e-15 -0)
(3.72448e-30 -5.38452e-15 -0)
(-1.61394e-29 -5.38452e-15 -0)
(-1.57256e-29 -5.38452e-15 -0)
(-1.32426e-29 -5.38452e-15 -0)
(-7.03513e-30 -5.38452e-15 -0)
(8.83896e-30 -5.38452e-15 -0)
(1.24549e-29 -5.38452e-15 -0)
(1.12496e-29 -5.38452e-15 -0)
(-8.83896e-30 -5.38452e-15 -0)
(-1.20531e-29 -5.38452e-15 -0)
(1.4062e-29 -5.38452e-15 -0)
(1.36602e-29 -5.38452e-15 -0)
(8.03542e-31 -5.38452e-15 -0)
(-6.42834e-30 -5.38452e-15 -0)
(-3.21417e-30 -5.38452e-15 -0)
(-3.61594e-30 -5.38452e-15 -0)
(-1.08478e-29 -5.38452e-15 -0)
(-8.03542e-30 -5.38452e-15 -0)
(-1.60708e-30 -5.38452e-15 -0)
(6.83011e-30 -5.38452e-15 -0)
(4.41948e-30 -5.38452e-15 -0)
(1.32584e-29 -5.38452e-15 -0)
(2.65169e-29 -5.38452e-15 -0)
(3.21417e-30 -5.38452e-15 -0)
(-1.24549e-29 -5.38452e-15 -0)
(-1.16514e-29 -5.38452e-15 -0)
(2.41063e-30 -5.38452e-15 -0)
(1.20531e-29 -5.38452e-15 -0)
(-8.83896e-30 -5.38452e-15 -0)
(-1.20531e-29 -5.38452e-15 -0)
(1.16514e-29 -5.38452e-15 -0)
(-3.61594e-30 -5.38452e-15 -0)
(-1.08478e-29 -5.38452e-15 -0)
(7.63365e-30 -5.38452e-15 -0)
(1.0446e-29 -5.38452e-15 -0)
(-1.16514e-29 -5.38452e-15 -0)
(-2.16956e-29 -5.38452e-15 -0)
(-5.22302e-30 -5.38452e-15 -0)
(-2.8124e-30 -5.38452e-15 -0)
(1.24549e-29 -5.38452e-15 -0)
(1.36602e-29 -5.38452e-15 -0)
(-3.61594e-30 -5.38452e-15 -0)
(-9.24073e-30 -5.38452e-15 -0)
(-2.8124e-30 -5.38452e-15 -0)
(1.24549e-29 -5.38452e-15 -0)
(4.01771e-30 -5.38452e-15 -0)
(-8.83896e-30 -5.38452e-15 -0)
(4.41948e-30 -5.38452e-15 -0)
(2.00886e-29 -5.38452e-15 -0)
(1.88832e-29 -5.38452e-15 -0)
(1.84815e-29 -5.38452e-15 -0)
(9.24073e-30 -5.38452e-15 -0)
(1.60708e-30 -5.38452e-15 -0)
(4.01771e-31 -5.38452e-15 -0)
(-7.63365e-30 -5.38452e-15 -0)
(8.03542e-31 -5.38452e-15 -0)
(1.56691e-29 -5.38452e-15 -0)
(4.01771e-30 -5.38452e-15 -0)
(-1.76779e-29 -5.38452e-15 -0)
(-1.20531e-30 -5.38452e-15 -0)
(5.22302e-30 -5.38452e-15 -0)
(-1.60708e-29 -5.38452e-15 -0)
(-1.72762e-29 -5.38452e-15 -0)
(-1.52673e-29 -5.38452e-15 -0)
(-6.02657e-30 -5.38452e-15 -0)
(9.3615e-30 -5.38451e-15 -0)
(1.44323e-29 -5.38451e-15 -0)
(1.20919e-29 -5.38451e-15 -0)
(-8.19131e-30 -5.38451e-15 -0)
(-1.28721e-29 -5.38451e-15 -0)
(1.32621e-29 -5.38451e-15 -0)
(1.75528e-29 -5.38451e-15 -0)
(3.90062e-31 -5.38451e-15 -0)
(-8.19131e-30 -5.38451e-15 -0)
(-2.73044e-30 -5.38451e-15 -0)
(-3.90062e-30 -5.38451e-15 -0)
(-1.17019e-29 -5.38451e-15 -0)
(-1.01416e-29 -5.38451e-15 -0)
(-2.73044e-30 -5.38451e-15 -0)
(6.63106e-30 -5.38451e-15 -0)
(5.46087e-30 -5.38451e-15 -0)
(1.52124e-29 -5.38451e-15 -0)
(2.88646e-29 -5.38451e-15 -0)
(2.73044e-30 -5.38451e-15 -0)
(-1.20919e-29 -5.38451e-15 -0)
(-1.05317e-29 -5.38451e-15 -0)
(1.95031e-30 -5.38451e-15 -0)
(1.20919e-29 -5.38451e-15 -0)
(-9.3615e-30 -5.38451e-15 -0)
(-1.32621e-29 -5.38451e-15 -0)
(1.13118e-29 -5.38451e-15 -0)
(-5.46087e-30 -5.38451e-15 -0)
(-1.2482e-29 -5.38451e-15 -0)
(7.80125e-30 -5.38451e-15 -0)
(1.20919e-29 -5.38451e-15 -0)
(-1.05317e-29 -5.38451e-15 -0)
(-2.37938e-29 -5.38451e-15 -0)
(-6.63106e-30 -5.38451e-15 -0)
(-7.80125e-31 -5.38451e-15 -0)
(1.36522e-29 -5.38451e-15 -0)
(1.28721e-29 -5.38451e-15 -0)
(-1.95031e-30 -5.38451e-15 -0)
(-1.01416e-29 -5.38451e-15 -0)
(-4.68075e-30 -5.38451e-15 -0)
(1.20919e-29 -5.38451e-15 -0)
(3.1205e-30 -5.38451e-15 -0)
(-7.80125e-30 -5.38451e-15 -0)
(6.241e-30 -5.38451e-15 -0)
(2.22336e-29 -5.38451e-15 -0)
(2.14534e-29 -5.38451e-15 -0)
(1.91131e-29 -5.38451e-15 -0)
(1.09217e-29 -5.38451e-15 -0)
(1.56025e-30 -5.38451e-15 -0)
(-2.73044e-30 -5.38451e-15 -0)
(-8.58137e-30 -5.38451e-15 -0)
(3.90062e-31 -5.38451e-15 -0)
(1.71627e-29 -5.38451e-15 -0)
(6.241e-30 -5.38451e-15 -0)
(-1.79429e-29 -5.38451e-15 -0)
(-7.80125e-31 -5.38451e-15 -0)
(5.07081e-30 -5.38451e-15 -0)
(-1.71627e-29 -5.38451e-15 -0)
(-1.8723e-29 -5.38451e-15 -0)
(-1.52124e-29 -5.38451e-15 -0)
(-7.41119e-30 -5.38451e-15 -0)
(1.13609e-29 -5.38451e-15 -0)
(1.43904e-29 -5.38451e-15 -0)
(1.28756e-29 -5.38451e-15 -0)
(-6.43782e-30 -5.38451e-15 -0)
(-1.17395e-29 -5.38451e-15 -0)
(1.40117e-29 -5.38451e-15 -0)
(1.66626e-29 -5.38451e-15 -0)
(1.51478e-30 -5.38451e-15 -0)
(-6.81651e-30 -5.38451e-15 -0)
(-3.02956e-30 -5.38451e-15 -0)
(-5.68043e-30 -5.38451e-15 -0)
(-1.3633e-29 -5.38451e-15 -0)
(-1.09822e-29 -5.38451e-15 -0)
(-3.40826e-30 -5.38451e-15 -0)
(8.70999e-30 -5.38451e-15 -0)
(5.30173e-30 -5.38451e-15 -0)
(1.43904e-29 -5.38451e-15 -0)
(3.02956e-29 -5.38451e-15 -0)
(5.68043e-30 -5.38451e-15 -0)
(-1.28756e-29 -5.38451e-15 -0)
(-1.13609e-29 -5.38451e-15 -0)
(3.02956e-30 -5.38451e-15 -0)
(1.21182e-29 -5.38451e-15 -0)
(-9.84607e-30 -5.38451e-15 -0)
(-1.3633e-29 -5.38451e-15 -0)
(9.84607e-30 -5.38451e-15 -0)
(-5.68043e-30 -5.38451e-15 -0)
(-1.28756e-29 -5.38451e-15 -0)
(1.06035e-29 -5.38451e-15 -0)
(1.40117e-29 -5.38451e-15 -0)
(-1.32543e-29 -5.38451e-15 -0)
(-2.76447e-29 -5.38451e-15 -0)
(-6.43782e-30 -5.38451e-15 -0)
(-1.89348e-30 -5.38451e-15 -0)
(1.32543e-29 -5.38451e-15 -0)
(1.55265e-29 -5.38451e-15 -0)
(-2.65087e-30 -5.38451e-15 -0)
(-9.46737e-30 -5.38451e-15 -0)
(-2.27217e-30 -5.38451e-15 -0)
(1.28756e-29 -5.38451e-15 -0)
(2.27217e-30 -5.38451e-15 -0)
(-9.84607e-30 -5.38451e-15 -0)
(5.30173e-30 -5.38451e-15 -0)
(2.53726e-29 -5.38451e-15 -0)
(2.31004e-29 -5.38451e-15 -0)
(1.93134e-29 -5.38451e-15 -0)
(1.21182e-29 -5.38451e-15 -0)
(2.27217e-30 -5.38451e-15 -0)
(-3.40826e-30 -5.38451e-15 -0)
(-1.06035e-29 -5.38451e-15 -0)
(2.27217e-30 -5.38451e-15 -0)
(2.04495e-29 -5.38451e-15 -0)
(5.68042e-30 -5.38451e-15 -0)
(-1.77987e-29 -5.38451e-15 -0)
(-1.13609e-30 -5.38451e-15 -0)
(3.78695e-30 -5.38451e-15 -0)
(-1.62839e-29 -5.38451e-15 -0)
(-2.08282e-29 -5.38451e-15 -0)