/*--------------------------------*- C++ -*----------------------------------*\
| =========                 |                                                 |
| \\      /  F ield         | foam-extend: Open Source CFD                    |
|  \\    /   O peration     | Version:     4.0                                |
|   \\  /    A nd           | Web:         http://www.foam-extend.org         |
|    \\/     M anipulation  |                                                 |
\*---------------------------------------------------------------------------*/
FoamFile
{
    version     2.0;
    format      ascii;
    class       volScalarField;
    location    "13";
    object      p;
}
// * * * * * * * * * * * * * * * * * * * * * * * * * * * * * * * * * * * * * //

dimensions      [0 2 -2 0 0 0 0];

internalField   nonuniform List<scalar> 
6960
(
-7.55915e-11
-1.13382e-10
-1.11575e-10
-1.12061e-10
-1.11532e-10
-1.11679e-10
-1.1143e-10
-1.11503e-10
-1.11434e-10
-1.11529e-10
-1.1156e-10
-1.11658e-10
-1.11711e-10
-1.11771e-10
-1.11783e-10
-1.11784e-10
-1.11763e-10
-1.11741e-10
-1.11707e-10
-1.11678e-10
-1.11664e-10
-1.1167e-10
-1.11679e-10
-1.1169e-10
-1.1171e-10
-1.1174e-10
-1.11763e-10
-1.11772e-10
-1.11776e-10
-1.11785e-10
-1.11787e-10
-1.11774e-10
-1.11758e-10
-1.11754e-10
-1.11752e-10
-1.11744e-10
-1.11741e-10
-1.11753e-10
-1.11771e-10
-1.11782e-10
-1.11789e-10
-1.11801e-10
-1.1181e-10
-1.11801e-10
-1.11777e-10
-1.11755e-10
-1.11736e-10
-1.11713e-10
-1.11695e-10
-1.11693e-10
-1.11714e-10
-1.11739e-10
-1.1177e-10
-1.11795e-10
-1.11825e-10
-1.11825e-10
-1.11824e-10
-1.11796e-10
-1.11793e-10
-1.11772e-10
-1.07956e-10
-1.1335e-10
-1.11567e-10
-1.12062e-10
-1.11531e-10
-1.11679e-10
-1.1143e-10
-1.11503e-10
-1.11434e-10
-1.11529e-10
-1.1156e-10
-1.11658e-10
-1.11712e-10
-1.11772e-10
-1.11783e-10
-1.11784e-10
-1.11763e-10
-1.11741e-10
-1.11707e-10
-1.11678e-10
-1.11664e-10
-1.1167e-10
-1.11679e-10
-1.1169e-10
-1.1171e-10
-1.1174e-10
-1.11763e-10
-1.11772e-10
-1.11776e-10
-1.11785e-10
-1.11787e-10
-1.11774e-10
-1.11758e-10
-1.11754e-10
-1.11752e-10
-1.11744e-10
-1.11741e-10
-1.11753e-10
-1.11771e-10
-1.11782e-10
-1.11789e-10
-1.11801e-10
-1.1181e-10
-1.118e-10
-1.11777e-10
-1.11755e-10
-1.11736e-10
-1.11713e-10
-1.11695e-10
-1.11693e-10
-1.11714e-10
-1.11739e-10
-1.1177e-10
-1.11795e-10
-1.11825e-10
-1.11825e-10
-1.11824e-10
-1.11796e-10
-1.11793e-10
-1.11772e-10
-1.13321e-10
-1.13306e-10
-1.11561e-10
-1.12064e-10
-1.11531e-10
-1.1168e-10
-1.1143e-10
-1.11503e-10
-1.11433e-10
-1.11528e-10
-1.11559e-10
-1.11658e-10
-1.11711e-10
-1.11771e-10
-1.11783e-10
-1.11784e-10
-1.11763e-10
-1.11741e-10
-1.11707e-10
-1.11678e-10
-1.11664e-10
-1.1167e-10
-1.11679e-10
-1.1169e-10
-1.1171e-10
-1.1174e-10
-1.11763e-10
-1.11772e-10
-1.11776e-10
-1.11785e-10
-1.11787e-10
-1.11774e-10
-1.11758e-10
-1.11754e-10
-1.11752e-10
-1.11744e-10
-1.11741e-10
-1.11753e-10
-1.11771e-10
-1.11782e-10
-1.11789e-10
-1.11801e-10
-1.1181e-10
-1.118e-10
-1.11777e-10
-1.11756e-10
-1.11737e-10
-1.11714e-10
-1.11695e-10
-1.11693e-10
-1.11714e-10
-1.11739e-10
-1.1177e-10
-1.11795e-10
-1.11824e-10
-1.11825e-10
-1.11824e-10
-1.11796e-10
-1.11793e-10
-1.11772e-10
-1.10723e-10
-1.13261e-10
-1.11557e-10
-1.12066e-10
-1.11532e-10
-1.11681e-10
-1.1143e-10
-1.11503e-10
-1.11432e-10
-1.11527e-10
-1.11558e-10
-1.11657e-10
-1.11711e-10
-1.11771e-10
-1.11783e-10
-1.11784e-10
-1.11764e-10
-1.11741e-10
-1.11707e-10
-1.11678e-10
-1.11664e-10
-1.1167e-10
-1.11679e-10
-1.1169e-10
-1.11709e-10
-1.11739e-10
-1.11763e-10
-1.11771e-10
-1.11776e-10
-1.11785e-10
-1.11787e-10
-1.11774e-10
-1.11758e-10
-1.11754e-10
-1.11752e-10
-1.11744e-10
-1.11741e-10
-1.11752e-10
-1.11771e-10
-1.11782e-10
-1.11789e-10
-1.11801e-10
-1.1181e-10
-1.118e-10
-1.11778e-10
-1.11756e-10
-1.11737e-10
-1.11714e-10
-1.11695e-10
-1.11693e-10
-1.11714e-10
-1.11738e-10
-1.11769e-10
-1.11795e-10
-1.11824e-10
-1.11825e-10
-1.11825e-10
-1.11796e-10
-1.11793e-10
-1.11772e-10
-1.09654e-10
-1.13218e-10
-1.11553e-10
-1.12069e-10
-1.11533e-10
-1.11682e-10
-1.1143e-10
-1.11502e-10
-1.11431e-10
-1.11526e-10
-1.11557e-10
-1.11656e-10
-1.1171e-10
-1.11771e-10
-1.11783e-10
-1.11785e-10
-1.11764e-10
-1.11742e-10
-1.11708e-10
-1.11679e-10
-1.11664e-10
-1.11669e-10
-1.11679e-10
-1.11689e-10
-1.11709e-10
-1.11739e-10
-1.11762e-10
-1.11771e-10
-1.11776e-10
-1.11785e-10
-1.11787e-10
-1.11774e-10
-1.11759e-10
-1.11754e-10
-1.11752e-10
-1.11745e-10
-1.11741e-10
-1.11752e-10
-1.11771e-10
-1.11782e-10
-1.11789e-10
-1.11801e-10
-1.1181e-10
-1.11801e-10
-1.11778e-10
-1.11757e-10
-1.11738e-10
-1.11715e-10
-1.11696e-10
-1.11693e-10
-1.11713e-10
-1.11738e-10
-1.11769e-10
-1.11794e-10
-1.11824e-10
-1.11825e-10
-1.11825e-10
-1.11796e-10
-1.11794e-10
-1.11772e-10
-1.09785e-10
-1.13176e-10
-1.11549e-10
-1.12071e-10
-1.11535e-10
-1.11684e-10
-1.11431e-10
-1.11503e-10
-1.11431e-10
-1.11525e-10
-1.11555e-10
-1.11654e-10
-1.11709e-10
-1.1177e-10
-1.11783e-10
-1.11785e-10
-1.11765e-10
-1.11742e-10
-1.11708e-10
-1.11679e-10
-1.11665e-10
-1.11669e-10
-1.11678e-10
-1.11689e-10
-1.11709e-10
-1.11738e-10
-1.11762e-10
-1.11771e-10
-1.11776e-10
-1.11785e-10
-1.11787e-10
-1.11774e-10
-1.11759e-10
-1.11754e-10
-1.11752e-10
-1.11745e-10
-1.1174e-10
-1.11752e-10
-1.1177e-10
-1.11781e-10
-1.11788e-10
-1.11801e-10
-1.11809e-10
-1.11801e-10
-1.11779e-10
-1.11757e-10
-1.11738e-10
-1.11715e-10
-1.11696e-10
-1.11693e-10
-1.11713e-10
-1.11737e-10
-1.11768e-10
-1.11793e-10
-1.11823e-10
-1.11825e-10
-1.11825e-10
-1.11797e-10
-1.11794e-10
-1.11772e-10
-1.09975e-10
-1.13134e-10
-1.11545e-10
-1.12074e-10
-1.11537e-10
-1.11687e-10
-1.11433e-10
-1.11503e-10
-1.1143e-10
-1.11523e-10
-1.11553e-10
-1.11652e-10
-1.11707e-10
-1.11769e-10
-1.11783e-10
-1.11785e-10
-1.11765e-10
-1.11743e-10
-1.11709e-10
-1.1168e-10
-1.11665e-10
-1.11669e-10
-1.11678e-10
-1.11688e-10
-1.11708e-10
-1.11738e-10
-1.11761e-10
-1.11771e-10
-1.11776e-10
-1.11785e-10
-1.11787e-10
-1.11774e-10
-1.11759e-10
-1.11755e-10
-1.11753e-10
-1.11745e-10
-1.1174e-10
-1.11752e-10
-1.1177e-10
-1.11781e-10
-1.11788e-10
-1.118e-10
-1.11809e-10
-1.11801e-10
-1.11779e-10
-1.11758e-10
-1.11739e-10
-1.11716e-10
-1.11696e-10
-1.11693e-10
-1.11712e-10
-1.11736e-10
-1.11767e-10
-1.11792e-10
-1.11822e-10
-1.11825e-10
-1.11825e-10
-1.11797e-10
-1.11794e-10
-1.11772e-10
-1.10041e-10
-1.13092e-10
-1.11543e-10
-1.12077e-10
-1.1154e-10
-1.1169e-10
-1.11434e-10
-1.11503e-10
-1.11428e-10
-1.11521e-10
-1.1155e-10
-1.1165e-10
-1.11705e-10
-1.11768e-10
-1.11782e-10
-1.11786e-10
-1.11766e-10
-1.11744e-10
-1.1171e-10
-1.1168e-10
-1.11665e-10
-1.11669e-10
-1.11677e-10
-1.11688e-10
-1.11707e-10
-1.11737e-10
-1.11761e-10
-1.1177e-10
-1.11776e-10
-1.11785e-10
-1.11787e-10
-1.11775e-10
-1.1176e-10
-1.11755e-10
-1.11753e-10
-1.11745e-10
-1.1174e-10
-1.11751e-10
-1.11769e-10
-1.1178e-10
-1.11787e-10
-1.118e-10
-1.11809e-10
-1.11801e-10
-1.1178e-10
-1.11759e-10
-1.1174e-10
-1.11717e-10
-1.11697e-10
-1.11693e-10
-1.11711e-10
-1.11735e-10
-1.11765e-10
-1.11791e-10
-1.11821e-10
-1.11825e-10
-1.11825e-10
-1.11798e-10
-1.11795e-10
-1.11773e-10
-1.10074e-10
-1.1305e-10
-1.1154e-10
-1.1208e-10
-1.11544e-10
-1.11694e-10
-1.11437e-10
-1.11504e-10
-1.11427e-10
-1.11519e-10
-1.11547e-10
-1.11647e-10
-1.11702e-10
-1.11766e-10
-1.11782e-10
-1.11786e-10
-1.11767e-10
-1.11745e-10
-1.11711e-10
-1.11681e-10
-1.11666e-10
-1.11669e-10
-1.11677e-10
-1.11687e-10
-1.11706e-10
-1.11736e-10
-1.1176e-10
-1.1177e-10
-1.11775e-10
-1.11785e-10
-1.11787e-10
-1.11775e-10
-1.1176e-10
-1.11755e-10
-1.11753e-10
-1.11745e-10
-1.1174e-10
-1.11751e-10
-1.11769e-10
-1.11779e-10
-1.11787e-10
-1.118e-10
-1.11809e-10
-1.11802e-10
-1.11781e-10
-1.1176e-10
-1.11742e-10
-1.11718e-10
-1.11698e-10
-1.11693e-10
-1.11711e-10
-1.11734e-10
-1.11764e-10
-1.1179e-10
-1.1182e-10
-1.11824e-10
-1.11826e-10
-1.11798e-10
-1.11795e-10
-1.11773e-10
-1.10116e-10
-1.13007e-10
-1.11538e-10
-1.12083e-10
-1.11548e-10
-1.11698e-10
-1.11439e-10
-1.11505e-10
-1.11427e-10
-1.11516e-10
-1.11544e-10
-1.11643e-10
-1.11699e-10
-1.11764e-10
-1.11781e-10
-1.11786e-10
-1.11768e-10
-1.11746e-10
-1.11712e-10
-1.11682e-10
-1.11666e-10
-1.11669e-10
-1.11676e-10
-1.11686e-10
-1.11705e-10
-1.11735e-10
-1.11759e-10
-1.11769e-10
-1.11775e-10
-1.11785e-10
-1.11787e-10
-1.11776e-10
-1.11761e-10
-1.11756e-10
-1.11754e-10
-1.11745e-10
-1.1174e-10
-1.11751e-10
-1.11768e-10
-1.11779e-10
-1.11786e-10
-1.11799e-10
-1.11809e-10
-1.11802e-10
-1.11782e-10
-1.11762e-10
-1.11743e-10
-1.11719e-10
-1.11698e-10
-1.11693e-10
-1.1171e-10
-1.11732e-10
-1.11762e-10
-1.11788e-10
-1.11819e-10
-1.11824e-10
-1.11826e-10
-1.11799e-10
-1.11795e-10
-1.11773e-10
-1.10162e-10
-1.12964e-10
-1.11536e-10
-1.12086e-10
-1.11552e-10
-1.11703e-10
-1.11443e-10
-1.11507e-10
-1.11426e-10
-1.11514e-10
-1.1154e-10
-1.1164e-10
-1.11696e-10
-1.11762e-10
-1.1178e-10
-1.11786e-10
-1.11769e-10
-1.11748e-10
-1.11714e-10
-1.11683e-10
-1.11667e-10
-1.11669e-10
-1.11676e-10
-1.11685e-10
-1.11704e-10
-1.11734e-10
-1.11758e-10
-1.11768e-10
-1.11775e-10
-1.11785e-10
-1.11788e-10
-1.11776e-10
-1.11762e-10
-1.11757e-10
-1.11754e-10
-1.11745e-10
-1.1174e-10
-1.1175e-10
-1.11767e-10
-1.11778e-10
-1.11785e-10
-1.11799e-10
-1.11809e-10
-1.11803e-10
-1.11783e-10
-1.11763e-10
-1.11744e-10
-1.11721e-10
-1.11699e-10
-1.11694e-10
-1.11709e-10
-1.11731e-10
-1.1176e-10
-1.11787e-10
-1.11818e-10
-1.11824e-10
-1.11826e-10
-1.118e-10
-1.11796e-10
-1.11773e-10
-1.10207e-10
-1.12922e-10
-1.11535e-10
-1.12089e-10
-1.11557e-10
-1.11708e-10
-1.11446e-10
-1.11508e-10
-1.11425e-10
-1.11511e-10
-1.11537e-10
-1.11636e-10
-1.11693e-10
-1.11759e-10
-1.11779e-10
-1.11786e-10
-1.1177e-10
-1.11749e-10
-1.11715e-10
-1.11685e-10
-1.11668e-10
-1.11669e-10
-1.11675e-10
-1.11685e-10
-1.11703e-10
-1.11732e-10
-1.11756e-10
-1.11767e-10
-1.11774e-10
-1.11784e-10
-1.11788e-10
-1.11776e-10
-1.11762e-10
-1.11757e-10
-1.11754e-10
-1.11746e-10
-1.1174e-10
-1.1175e-10
-1.11766e-10
-1.11777e-10
-1.11784e-10
-1.11798e-10
-1.11809e-10
-1.11803e-10
-1.11784e-10
-1.11765e-10
-1.11746e-10
-1.11722e-10
-1.117e-10
-1.11694e-10
-1.11708e-10
-1.11729e-10
-1.11758e-10
-1.11785e-10
-1.11817e-10
-1.11823e-10
-1.11826e-10
-1.118e-10
-1.11796e-10
-1.11773e-10
-1.10252e-10
-1.12879e-10
-1.11533e-10
-1.12092e-10
-1.11562e-10
-1.11713e-10
-1.1145e-10
-1.1151e-10
-1.11424e-10
-1.11509e-10
-1.11533e-10
-1.11631e-10
-1.11689e-10
-1.11756e-10
-1.11777e-10
-1.11786e-10
-1.11771e-10
-1.11751e-10
-1.11717e-10
-1.11686e-10
-1.11668e-10
-1.11669e-10
-1.11675e-10
-1.11684e-10
-1.11702e-10
-1.11731e-10
-1.11755e-10
-1.11766e-10
-1.11774e-10
-1.11784e-10
-1.11788e-10
-1.11777e-10
-1.11763e-10
-1.11758e-10
-1.11755e-10
-1.11746e-10
-1.1174e-10
-1.11749e-10
-1.11765e-10
-1.11776e-10
-1.11784e-10
-1.11797e-10
-1.11808e-10
-1.11804e-10
-1.11785e-10
-1.11766e-10
-1.11748e-10
-1.11724e-10
-1.11702e-10
-1.11694e-10
-1.11708e-10
-1.11728e-10
-1.11756e-10
-1.11783e-10
-1.11815e-10
-1.11822e-10
-1.11826e-10
-1.11801e-10
-1.11797e-10
-1.11773e-10
-1.10295e-10
-1.12836e-10
-1.11532e-10
-1.12094e-10
-1.11568e-10
-1.11719e-10
-1.11455e-10
-1.11513e-10
-1.11424e-10
-1.11506e-10
-1.11529e-10
-1.11627e-10
-1.11684e-10
-1.11753e-10
-1.11775e-10
-1.11786e-10
-1.11772e-10
-1.11752e-10
-1.11718e-10
-1.11688e-10
-1.11669e-10
-1.11669e-10
-1.11674e-10
-1.11683e-10
-1.11701e-10
-1.1173e-10
-1.11754e-10
-1.11765e-10
-1.11773e-10
-1.11784e-10
-1.11788e-10
-1.11777e-10
-1.11764e-10
-1.11758e-10
-1.11755e-10
-1.11746e-10
-1.1174e-10
-1.11749e-10
-1.11764e-10
-1.11775e-10
-1.11783e-10
-1.11797e-10
-1.11808e-10
-1.11804e-10
-1.11787e-10
-1.11768e-10
-1.1175e-10
-1.11725e-10
-1.11703e-10
-1.11694e-10
-1.11707e-10
-1.11726e-10
-1.11754e-10
-1.11781e-10
-1.11814e-10
-1.11822e-10
-1.11826e-10
-1.11802e-10
-1.11797e-10
-1.11773e-10
-1.10338e-10
-1.12793e-10
-1.11531e-10
-1.12097e-10
-1.11573e-10
-1.11725e-10
-1.1146e-10
-1.11515e-10
-1.11424e-10
-1.11503e-10
-1.11524e-10
-1.11622e-10
-1.11679e-10
-1.11749e-10
-1.11773e-10
-1.11785e-10
-1.11772e-10
-1.11753e-10
-1.1172e-10
-1.11689e-10
-1.1167e-10
-1.11669e-10
-1.11674e-10
-1.11682e-10
-1.117e-10
-1.11728e-10
-1.11752e-10
-1.11764e-10
-1.11772e-10
-1.11783e-10
-1.11787e-10
-1.11778e-10
-1.11764e-10
-1.11759e-10
-1.11756e-10
-1.11746e-10
-1.1174e-10
-1.11748e-10
-1.11764e-10
-1.11774e-10
-1.11782e-10
-1.11796e-10
-1.11808e-10
-1.11804e-10
-1.11788e-10
-1.1177e-10
-1.11752e-10
-1.11727e-10
-1.11704e-10
-1.11695e-10
-1.11706e-10
-1.11724e-10
-1.11752e-10
-1.11778e-10
-1.11812e-10
-1.11821e-10
-1.11826e-10
-1.11802e-10
-1.11798e-10
-1.11773e-10
-1.10379e-10
-1.12749e-10
-1.1153e-10
-1.12098e-10
-1.11579e-10
-1.11732e-10
-1.11466e-10
-1.11519e-10
-1.11424e-10
-1.11501e-10
-1.1152e-10
-1.11616e-10
-1.11674e-10
-1.11745e-10
-1.11771e-10
-1.11785e-10
-1.11773e-10
-1.11755e-10
-1.11722e-10
-1.11691e-10
-1.11672e-10
-1.1167e-10
-1.11673e-10
-1.11681e-10
-1.11698e-10
-1.11726e-10
-1.1175e-10
-1.11763e-10
-1.11771e-10
-1.11783e-10
-1.11787e-10
-1.11778e-10
-1.11765e-10
-1.1176e-10
-1.11756e-10
-1.11747e-10
-1.1174e-10
-1.11748e-10
-1.11763e-10
-1.11772e-10
-1.11781e-10
-1.11795e-10
-1.11807e-10
-1.11805e-10
-1.11789e-10
-1.11772e-10
-1.11754e-10
-1.11729e-10
-1.11706e-10
-1.11696e-10
-1.11705e-10
-1.11722e-10
-1.11749e-10
-1.11776e-10
-1.1181e-10
-1.1182e-10
-1.11826e-10
-1.11803e-10
-1.11798e-10
-1.11773e-10
-1.1042e-10
-1.12706e-10
-1.11529e-10
-1.121e-10
-1.11585e-10
-1.11739e-10
-1.11472e-10
-1.11522e-10
-1.11425e-10
-1.11499e-10
-1.11516e-10
-1.11611e-10
-1.11669e-10
-1.11741e-10
-1.11768e-10
-1.11784e-10
-1.11773e-10
-1.11756e-10
-1.11724e-10
-1.11693e-10
-1.11673e-10
-1.1167e-10
-1.11673e-10
-1.1168e-10
-1.11697e-10
-1.11725e-10
-1.11749e-10
-1.11761e-10
-1.1177e-10
-1.11782e-10
-1.11787e-10
-1.11778e-10
-1.11766e-10
-1.11761e-10
-1.11757e-10
-1.11747e-10
-1.1174e-10
-1.11747e-10
-1.11762e-10
-1.11771e-10
-1.1178e-10
-1.11794e-10
-1.11807e-10
-1.11805e-10
-1.1179e-10
-1.11774e-10
-1.11756e-10
-1.11732e-10
-1.11707e-10
-1.11696e-10
-1.11705e-10
-1.11721e-10
-1.11747e-10
-1.11774e-10
-1.11808e-10
-1.11819e-10
-1.11826e-10
-1.11804e-10
-1.11799e-10
-1.11773e-10
-1.10461e-10
-1.12663e-10
-1.11527e-10
-1.121e-10
-1.11592e-10
-1.11746e-10
-1.11478e-10
-1.11526e-10
-1.11426e-10
-1.11497e-10
-1.11511e-10
-1.11605e-10
-1.11663e-10
-1.11736e-10
-1.11765e-10
-1.11783e-10
-1.11774e-10
-1.11758e-10
-1.11726e-10
-1.11695e-10
-1.11674e-10
-1.11671e-10
-1.11673e-10
-1.11679e-10
-1.11696e-10
-1.11723e-10
-1.11747e-10
-1.1176e-10
-1.11769e-10
-1.11782e-10
-1.11787e-10
-1.11779e-10
-1.11767e-10
-1.11761e-10
-1.11757e-10
-1.11748e-10
-1.11741e-10
-1.11747e-10
-1.1176e-10
-1.1177e-10
-1.11778e-10
-1.11793e-10
-1.11806e-10
-1.11805e-10
-1.11792e-10
-1.11776e-10
-1.11758e-10
-1.11734e-10
-1.11709e-10
-1.11697e-10
-1.11704e-10
-1.11719e-10
-1.11744e-10
-1.11771e-10
-1.11805e-10
-1.11818e-10
-1.11826e-10
-1.11804e-10
-1.11799e-10
-1.11774e-10
-1.105e-10
-1.1262e-10
-1.11526e-10
-1.12101e-10
-1.11598e-10
-1.11753e-10
-1.11485e-10
-1.11531e-10
-1.11427e-10
-1.11495e-10
-1.11507e-10
-1.116e-10
-1.11658e-10
-1.11731e-10
-1.11762e-10
-1.11781e-10
-1.11774e-10
-1.11759e-10
-1.11727e-10
-1.11697e-10
-1.11676e-10
-1.11671e-10
-1.11672e-10
-1.11678e-10
-1.11694e-10
-1.11721e-10
-1.11745e-10
-1.11758e-10
-1.11768e-10
-1.11781e-10
-1.11787e-10
-1.11779e-10
-1.11767e-10
-1.11762e-10
-1.11758e-10
-1.11748e-10
-1.11741e-10
-1.11747e-10
-1.11759e-10
-1.11769e-10
-1.11777e-10
-1.11792e-10
-1.11806e-10
-1.11806e-10
-1.11793e-10
-1.11778e-10
-1.11761e-10
-1.11736e-10
-1.11711e-10
-1.11698e-10
-1.11704e-10
-1.11717e-10
-1.11742e-10
-1.11768e-10
-1.11803e-10
-1.11816e-10
-1.11826e-10
-1.11805e-10
-1.118e-10
-1.11774e-10
-1.10539e-10
-1.12576e-10
-1.11525e-10
-1.121e-10
-1.11604e-10
-1.1176e-10
-1.11492e-10
-1.11536e-10
-1.11429e-10
-1.11493e-10
-1.11503e-10
-1.11594e-10
-1.11652e-10
-1.11726e-10
-1.11758e-10
-1.11779e-10
-1.11774e-10
-1.1176e-10
-1.11729e-10
-1.11699e-10
-1.11677e-10
-1.11672e-10
-1.11672e-10
-1.11677e-10
-1.11693e-10
-1.11719e-10
-1.11743e-10
-1.11756e-10
-1.11767e-10
-1.1178e-10
-1.11786e-10
-1.11779e-10
-1.11768e-10
-1.11763e-10
-1.11759e-10
-1.11748e-10
-1.11741e-10
-1.11746e-10
-1.11758e-10
-1.11767e-10
-1.11776e-10
-1.11791e-10
-1.11805e-10
-1.11806e-10
-1.11794e-10
-1.1178e-10
-1.11763e-10
-1.11739e-10
-1.11713e-10
-1.11699e-10
-1.11703e-10
-1.11716e-10
-1.11739e-10
-1.11766e-10
-1.118e-10
-1.11815e-10
-1.11825e-10
-1.11805e-10
-1.118e-10
-1.11774e-10
-1.10576e-10
-1.12533e-10
-1.11523e-10
-1.12099e-10
-1.1161e-10
-1.11768e-10
-1.115e-10
-1.11541e-10
-1.11431e-10
-1.11492e-10
-1.11499e-10
-1.11588e-10
-1.11645e-10
-1.11721e-10
-1.11754e-10
-1.11777e-10
-1.11774e-10
-1.11761e-10
-1.11731e-10
-1.11701e-10
-1.11679e-10
-1.11673e-10
-1.11672e-10
-1.11676e-10
-1.11691e-10
-1.11717e-10
-1.11741e-10
-1.11755e-10
-1.11766e-10
-1.11779e-10
-1.11786e-10
-1.11779e-10
-1.11769e-10
-1.11764e-10
-1.11759e-10
-1.11749e-10
-1.11741e-10
-1.11746e-10
-1.11757e-10
-1.11766e-10
-1.11775e-10
-1.1179e-10
-1.11804e-10
-1.11806e-10
-1.11795e-10
-1.11782e-10
-1.11766e-10
-1.11741e-10
-1.11715e-10
-1.11701e-10
-1.11703e-10
-1.11714e-10
-1.11737e-10
-1.11763e-10
-1.11798e-10
-1.11813e-10
-1.11824e-10
-1.11806e-10
-1.11801e-10
-1.11774e-10
-1.10613e-10
-1.1249e-10
-1.11522e-10
-1.12097e-10
-1.11616e-10
-1.11775e-10
-1.11508e-10
-1.11546e-10
-1.11434e-10
-1.11491e-10
-1.11495e-10
-1.11582e-10
-1.11639e-10
-1.11715e-10
-1.1175e-10
-1.11775e-10
-1.11773e-10
-1.11762e-10
-1.11733e-10
-1.11703e-10
-1.11681e-10
-1.11673e-10
-1.11672e-10
-1.11676e-10
-1.1169e-10
-1.11715e-10
-1.11738e-10
-1.11753e-10
-1.11764e-10
-1.11778e-10
-1.11785e-10
-1.11779e-10
-1.11769e-10
-1.11764e-10
-1.1176e-10
-1.1175e-10
-1.11742e-10
-1.11746e-10
-1.11756e-10
-1.11765e-10
-1.11773e-10
-1.11789e-10
-1.11803e-10
-1.11806e-10
-1.11796e-10
-1.11784e-10
-1.11768e-10
-1.11744e-10
-1.11718e-10
-1.11702e-10
-1.11703e-10
-1.11713e-10
-1.11734e-10
-1.1176e-10
-1.11795e-10
-1.11811e-10
-1.11824e-10
-1.11806e-10
-1.11801e-10
-1.11774e-10
-1.10649e-10
-1.12447e-10
-1.1152e-10
-1.12094e-10
-1.11622e-10
-1.11782e-10
-1.11516e-10
-1.11553e-10
-1.11437e-10
-1.1149e-10
-1.11491e-10
-1.11577e-10
-1.11632e-10
-1.11708e-10
-1.11745e-10
-1.11772e-10
-1.11772e-10
-1.11762e-10
-1.11734e-10
-1.11705e-10
-1.11683e-10
-1.11674e-10
-1.11672e-10
-1.11675e-10
-1.11689e-10
-1.11713e-10
-1.11736e-10
-1.11751e-10
-1.11763e-10
-1.11777e-10
-1.11784e-10
-1.11779e-10
-1.1177e-10
-1.11765e-10
-1.1176e-10
-1.1175e-10
-1.11742e-10
-1.11745e-10
-1.11756e-10
-1.11764e-10
-1.11772e-10
-1.11787e-10
-1.11802e-10
-1.11806e-10
-1.11797e-10
-1.11786e-10
-1.11771e-10
-1.11747e-10
-1.1172e-10
-1.11704e-10
-1.11703e-10
-1.11712e-10
-1.11732e-10
-1.11757e-10
-1.11792e-10
-1.11809e-10
-1.11823e-10
-1.11807e-10
-1.11802e-10
-1.11774e-10
-1.10684e-10
-1.12404e-10
-1.11518e-10
-1.1209e-10
-1.11628e-10
-1.11789e-10
-1.11525e-10
-1.11559e-10
-1.11441e-10
-1.1149e-10
-1.11488e-10
-1.11571e-10
-1.11626e-10
-1.11702e-10
-1.1174e-10
-1.11769e-10
-1.11771e-10
-1.11763e-10
-1.11736e-10
-1.11707e-10
-1.11684e-10
-1.11675e-10
-1.11672e-10
-1.11674e-10
-1.11687e-10
-1.11711e-10
-1.11734e-10
-1.11749e-10
-1.11761e-10
-1.11775e-10
-1.11783e-10
-1.11779e-10
-1.1177e-10
-1.11766e-10
-1.11761e-10
-1.11751e-10
-1.11742e-10
-1.11745e-10
-1.11755e-10
-1.11762e-10
-1.11771e-10
-1.11786e-10
-1.11801e-10
-1.11805e-10
-1.11798e-10
-1.11788e-10
-1.11773e-10
-1.1175e-10
-1.11723e-10
-1.11706e-10
-1.11704e-10
-1.11711e-10
-1.1173e-10
-1.11754e-10
-1.11789e-10
-1.11807e-10
-1.11822e-10
-1.11807e-10
-1.11802e-10
-1.11774e-10
-1.10718e-10
-1.12362e-10
-1.11515e-10
-1.12085e-10
-1.11633e-10
-1.11796e-10
-1.11533e-10
-1.11566e-10
-1.11445e-10
-1.11491e-10
-1.11485e-10
-1.11566e-10
-1.11619e-10
-1.11696e-10
-1.11735e-10
-1.11766e-10
-1.1177e-10
-1.11763e-10
-1.11737e-10
-1.11709e-10
-1.11686e-10
-1.11677e-10
-1.11672e-10
-1.11674e-10
-1.11686e-10
-1.11709e-10
-1.11732e-10
-1.11747e-10
-1.11759e-10
-1.11774e-10
-1.11783e-10
-1.11779e-10
-1.11771e-10
-1.11766e-10
-1.11762e-10
-1.11751e-10
-1.11743e-10
-1.11745e-10
-1.11754e-10
-1.11761e-10
-1.11769e-10
-1.11784e-10
-1.118e-10
-1.11805e-10
-1.11799e-10
-1.1179e-10
-1.11775e-10
-1.11752e-10
-1.11726e-10
-1.11708e-10
-1.11704e-10
-1.1171e-10
-1.11727e-10
-1.11751e-10
-1.11786e-10
-1.11805e-10
-1.1182e-10
-1.11807e-10
-1.11803e-10
-1.11775e-10
-1.10751e-10
-1.12319e-10
-1.11513e-10
-1.1208e-10
-1.11638e-10
-1.11802e-10
-1.11542e-10
-1.11573e-10
-1.1145e-10
-1.11491e-10
-1.11483e-10
-1.1156e-10
-1.11612e-10
-1.11689e-10
-1.1173e-10
-1.11762e-10
-1.11768e-10
-1.11763e-10
-1.11739e-10
-1.11711e-10
-1.11688e-10
-1.11678e-10
-1.11673e-10
-1.11674e-10
-1.11685e-10
-1.11707e-10
-1.11729e-10
-1.11744e-10
-1.11758e-10
-1.11773e-10
-1.11781e-10
-1.11779e-10
-1.11771e-10
-1.11767e-10
-1.11762e-10
-1.11752e-10
-1.11743e-10
-1.11745e-10
-1.11753e-10
-1.1176e-10
-1.11768e-10
-1.11783e-10
-1.11799e-10
-1.11804e-10
-1.118e-10
-1.11791e-10
-1.11778e-10
-1.11755e-10
-1.11729e-10
-1.1171e-10
-1.11705e-10
-1.11709e-10
-1.11725e-10
-1.11748e-10
-1.11783e-10
-1.11803e-10
-1.11819e-10
-1.11807e-10
-1.11803e-10
-1.11775e-10
-1.10783e-10
-1.12277e-10
-1.1151e-10
-1.12073e-10
-1.11642e-10
-1.11808e-10
-1.11551e-10
-1.1158e-10
-1.11455e-10
-1.11493e-10
-1.11481e-10
-1.11555e-10
-1.11606e-10
-1.11682e-10
-1.11724e-10
-1.11758e-10
-1.11766e-10
-1.11763e-10
-1.1174e-10
-1.11713e-10
-1.1169e-10
-1.11679e-10
-1.11673e-10
-1.11673e-10
-1.11684e-10
-1.11705e-10
-1.11727e-10
-1.11742e-10
-1.11756e-10
-1.11771e-10
-1.1178e-10
-1.11778e-10
-1.11771e-10
-1.11768e-10
-1.11763e-10
-1.11753e-10
-1.11744e-10
-1.11745e-10
-1.11752e-10
-1.11759e-10
-1.11767e-10
-1.11781e-10
-1.11797e-10
-1.11804e-10
-1.118e-10
-1.11793e-10
-1.1178e-10
-1.11758e-10
-1.11732e-10
-1.11712e-10
-1.11706e-10
-1.11708e-10
-1.11723e-10
-1.11746e-10
-1.11779e-10
-1.118e-10
-1.11818e-10
-1.11807e-10
-1.11803e-10
-1.11775e-10
-1.10815e-10
-1.12236e-10
-1.11507e-10
-1.12065e-10
-1.11646e-10
-1.11814e-10
-1.1156e-10
-1.11588e-10
-1.1146e-10
-1.11494e-10
-1.11479e-10
-1.11551e-10
-1.11599e-10
-1.11675e-10
-1.11718e-10
-1.11754e-10
-1.11764e-10
-1.11762e-10
-1.11741e-10
-1.11715e-10
-1.11692e-10
-1.1168e-10
-1.11674e-10
-1.11673e-10
-1.11683e-10
-1.11703e-10
-1.11724e-10
-1.1174e-10
-1.11754e-10
-1.11769e-10
-1.11779e-10
-1.11778e-10
-1.11772e-10
-1.11768e-10
-1.11763e-10
-1.11753e-10
-1.11745e-10
-1.11745e-10
-1.11751e-10
-1.11757e-10
-1.11765e-10
-1.1178e-10
-1.11796e-10
-1.11803e-10
-1.118e-10
-1.11794e-10
-1.11782e-10
-1.11761e-10
-1.11735e-10
-1.11715e-10
-1.11707e-10
-1.11708e-10
-1.11722e-10
-1.11743e-10
-1.11776e-10
-1.11797e-10
-1.11816e-10
-1.11806e-10
-1.11803e-10
-1.11775e-10
-1.10845e-10
-1.12195e-10
-1.11503e-10
-1.12056e-10
-1.11649e-10
-1.11819e-10
-1.11568e-10
-1.11595e-10
-1.11466e-10
-1.11497e-10
-1.11478e-10
-1.11546e-10
-1.11593e-10
-1.11668e-10
-1.11711e-10
-1.11749e-10
-1.11761e-10
-1.11761e-10
-1.11741e-10
-1.11716e-10
-1.11694e-10
-1.11682e-10
-1.11674e-10
-1.11673e-10
-1.11682e-10
-1.11701e-10
-1.11722e-10
-1.11738e-10
-1.11752e-10
-1.11767e-10
-1.11778e-10
-1.11777e-10
-1.11772e-10
-1.11768e-10
-1.11764e-10
-1.11754e-10
-1.11745e-10
-1.11745e-10
-1.11751e-10
-1.11756e-10
-1.11764e-10
-1.11778e-10
-1.11794e-10
-1.11802e-10
-1.11801e-10
-1.11795e-10
-1.11784e-10
-1.11764e-10
-1.11738e-10
-1.11718e-10
-1.11709e-10
-1.11708e-10
-1.1172e-10
-1.1174e-10
-1.11773e-10
-1.11795e-10
-1.11814e-10
-1.11806e-10
-1.11803e-10
-1.11775e-10
-1.10875e-10
-1.12155e-10
-1.11499e-10
-1.12046e-10
-1.11652e-10
-1.11823e-10
-1.11577e-10
-1.11603e-10
-1.11473e-10
-1.11499e-10
-1.11478e-10
-1.11542e-10
-1.11587e-10
-1.11661e-10
-1.11705e-10
-1.11744e-10
-1.11758e-10
-1.1176e-10
-1.11742e-10
-1.11718e-10
-1.11696e-10
-1.11683e-10
-1.11675e-10
-1.11673e-10
-1.11681e-10
-1.117e-10
-1.1172e-10
-1.11735e-10
-1.1175e-10
-1.11765e-10
-1.11776e-10
-1.11776e-10
-1.11772e-10
-1.11769e-10
-1.11765e-10
-1.11755e-10
-1.11746e-10
-1.11745e-10
-1.1175e-10
-1.11755e-10
-1.11762e-10
-1.11777e-10
-1.11792e-10
-1.11801e-10
-1.11801e-10
-1.11796e-10
-1.11786e-10
-1.11767e-10
-1.11741e-10
-1.1172e-10
-1.1171e-10
-1.11708e-10
-1.11719e-10
-1.11738e-10
-1.1177e-10
-1.11792e-10
-1.11812e-10
-1.11805e-10
-1.11803e-10
-1.11775e-10
-1.10904e-10
-1.12115e-10
-1.11495e-10
-1.12035e-10
-1.11654e-10
-1.11827e-10
-1.11585e-10
-1.11611e-10
-1.1148e-10
-1.11503e-10
-1.11478e-10
-1.11539e-10
-1.11581e-10
-1.11654e-10
-1.11698e-10
-1.11739e-10
-1.11754e-10
-1.11758e-10
-1.11742e-10
-1.11719e-10
-1.11697e-10
-1.11684e-10
-1.11676e-10
-1.11673e-10
-1.1168e-10
-1.11698e-10
-1.11717e-10
-1.11733e-10
-1.11747e-10
-1.11763e-10
-1.11774e-10
-1.11775e-10
-1.11772e-10
-1.11769e-10
-1.11765e-10
-1.11756e-10
-1.11747e-10
-1.11746e-10
-1.1175e-10
-1.11754e-10
-1.11761e-10
-1.11775e-10
-1.11791e-10
-1.118e-10
-1.118e-10
-1.11797e-10
-1.11788e-10
-1.1177e-10
-1.11745e-10
-1.11723e-10
-1.11712e-10
-1.11709e-10
-1.11718e-10
-1.11736e-10
-1.11766e-10
-1.11789e-10
-1.11809e-10
-1.11804e-10
-1.11803e-10
-1.11775e-10
-1.10932e-10
-1.12076e-10
-1.11491e-10
-1.12023e-10
-1.11655e-10
-1.1183e-10
-1.11593e-10
-1.11618e-10
-1.11487e-10
-1.11506e-10
-1.11478e-10
-1.11536e-10
-1.11575e-10
-1.11647e-10
-1.11691e-10
-1.11733e-10
-1.1175e-10
-1.11756e-10
-1.11741e-10
-1.1172e-10
-1.11699e-10
-1.11686e-10
-1.11677e-10
-1.11673e-10
-1.1168e-10
-1.11696e-10
-1.11715e-10
-1.11731e-10
-1.11745e-10
-1.11761e-10
-1.11773e-10
-1.11774e-10
-1.11771e-10
-1.11769e-10
-1.11765e-10
-1.11756e-10
-1.11747e-10
-1.11746e-10
-1.1175e-10
-1.11754e-10
-1.1176e-10
-1.11773e-10
-1.11789e-10
-1.11798e-10
-1.118e-10
-1.11798e-10
-1.1179e-10
-1.11772e-10
-1.11748e-10
-1.11727e-10
-1.11714e-10
-1.1171e-10
-1.11717e-10
-1.11734e-10
-1.11763e-10
-1.11786e-10
-1.11807e-10
-1.11803e-10
-1.11802e-10
-1.11775e-10
-1.10959e-10
-1.12038e-10
-1.11486e-10
-1.1201e-10
-1.11656e-10
-1.11832e-10
-1.11601e-10
-1.11626e-10
-1.11494e-10
-1.11511e-10
-1.11479e-10
-1.11533e-10
-1.1157e-10
-1.1164e-10
-1.11685e-10
-1.11727e-10
-1.11746e-10
-1.11754e-10
-1.11741e-10
-1.11721e-10
-1.11701e-10
-1.11687e-10
-1.11678e-10
-1.11674e-10
-1.11679e-10
-1.11695e-10
-1.11713e-10
-1.11728e-10
-1.11743e-10
-1.11759e-10
-1.11771e-10
-1.11773e-10
-1.11771e-10
-1.11769e-10
-1.11766e-10
-1.11757e-10
-1.11748e-10
-1.11746e-10
-1.11749e-10
-1.11753e-10
-1.11759e-10
-1.11772e-10
-1.11787e-10
-1.11797e-10
-1.118e-10
-1.11799e-10
-1.11791e-10
-1.11775e-10
-1.11751e-10
-1.1173e-10
-1.11717e-10
-1.11711e-10
-1.11716e-10
-1.11732e-10
-1.1176e-10
-1.11782e-10
-1.11805e-10
-1.11802e-10
-1.11802e-10
-1.11775e-10
-1.10985e-10
-1.12e-10
-1.11482e-10
-1.11996e-10
-1.11655e-10
-1.11833e-10
-1.11608e-10
-1.11634e-10
-1.11502e-10
-1.11515e-10
-1.11481e-10
-1.11531e-10
-1.11565e-10
-1.11633e-10
-1.11678e-10
-1.11721e-10
-1.11742e-10
-1.11751e-10
-1.1174e-10
-1.11722e-10
-1.11702e-10
-1.11689e-10
-1.11679e-10
-1.11674e-10
-1.11679e-10
-1.11694e-10
-1.11711e-10
-1.11726e-10
-1.11741e-10
-1.11757e-10
-1.11769e-10
-1.11772e-10
-1.1177e-10
-1.11769e-10
-1.11766e-10
-1.11758e-10
-1.11749e-10
-1.11747e-10
-1.11749e-10
-1.11752e-10
-1.11758e-10
-1.1177e-10
-1.11785e-10
-1.11795e-10
-1.11799e-10
-1.11799e-10
-1.11793e-10
-1.11777e-10
-1.11754e-10
-1.11733e-10
-1.11719e-10
-1.11712e-10
-1.11716e-10
-1.1173e-10
-1.11757e-10
-1.11779e-10
-1.11802e-10
-1.118e-10
-1.11801e-10
-1.11775e-10
-1.1101e-10
-1.11964e-10
-1.11477e-10
-1.1198e-10
-1.11655e-10
-1.11833e-10
-1.11615e-10
-1.11641e-10
-1.11509e-10
-1.1152e-10
-1.11483e-10
-1.11529e-10
-1.11561e-10
-1.11627e-10
-1.11671e-10
-1.11715e-10
-1.11737e-10
-1.11748e-10
-1.11739e-10
-1.11722e-10
-1.11703e-10
-1.1169e-10
-1.1168e-10
-1.11675e-10
-1.11678e-10
-1.11692e-10
-1.11709e-10
-1.11724e-10
-1.11738e-10
-1.11754e-10
-1.11767e-10
-1.1177e-10
-1.1177e-10
-1.11769e-10
-1.11766e-10
-1.11758e-10
-1.1175e-10
-1.11747e-10
-1.11749e-10
-1.11751e-10
-1.11757e-10
-1.11769e-10
-1.11783e-10
-1.11794e-10
-1.11798e-10
-1.11799e-10
-1.11794e-10
-1.11779e-10
-1.11758e-10
-1.11737e-10
-1.11722e-10
-1.11714e-10
-1.11716e-10
-1.11729e-10
-1.11754e-10
-1.11776e-10
-1.11799e-10
-1.11799e-10
-1.11801e-10
-1.11774e-10
-1.11035e-10
-1.11929e-10
-1.11472e-10
-1.11964e-10
-1.11653e-10
-1.11833e-10
-1.11621e-10
-1.11648e-10
-1.11517e-10
-1.11526e-10
-1.11485e-10
-1.11528e-10
-1.11557e-10
-1.1162e-10
-1.11664e-10
-1.11709e-10
-1.11732e-10
-1.11744e-10
-1.11737e-10
-1.11722e-10
-1.11704e-10
-1.11691e-10
-1.11681e-10
-1.11675e-10
-1.11678e-10
-1.11691e-10
-1.11707e-10
-1.11721e-10
-1.11736e-10
-1.11752e-10
-1.11764e-10
-1.11769e-10
-1.11769e-10
-1.11769e-10
-1.11766e-10
-1.11759e-10
-1.11751e-10
-1.11748e-10
-1.11749e-10
-1.11751e-10
-1.11756e-10
-1.11767e-10
-1.11781e-10
-1.11792e-10
-1.11797e-10
-1.11799e-10
-1.11795e-10
-1.11782e-10
-1.11761e-10
-1.1174e-10
-1.11725e-10
-1.11716e-10
-1.11717e-10
-1.11728e-10
-1.11752e-10
-1.11773e-10
-1.11796e-10
-1.11797e-10
-1.118e-10
-1.11774e-10
-1.11059e-10
-1.11895e-10
-1.11467e-10
-1.11948e-10
-1.11651e-10
-1.11831e-10
-1.11627e-10
-1.11654e-10
-1.11525e-10
-1.11531e-10
-1.11489e-10
-1.11528e-10
-1.11553e-10
-1.11615e-10
-1.11657e-10
-1.11702e-10
-1.11727e-10
-1.11741e-10
-1.11735e-10
-1.11722e-10
-1.11705e-10
-1.11692e-10
-1.11682e-10
-1.11676e-10
-1.11678e-10
-1.1169e-10
-1.11705e-10
-1.11719e-10
-1.11733e-10
-1.11749e-10
-1.11762e-10
-1.11767e-10
-1.11768e-10
-1.11768e-10
-1.11766e-10
-1.11759e-10
-1.11751e-10
-1.11748e-10
-1.11749e-10
-1.11751e-10
-1.11755e-10
-1.11766e-10
-1.11779e-10
-1.1179e-10
-1.11796e-10
-1.11798e-10
-1.11795e-10
-1.11783e-10
-1.11764e-10
-1.11744e-10
-1.11728e-10
-1.11718e-10
-1.11717e-10
-1.11727e-10
-1.11749e-10
-1.1177e-10
-1.11793e-10
-1.11795e-10
-1.11799e-10
-1.11774e-10
-1.11082e-10
-1.11862e-10
-1.11462e-10
-1.1193e-10
-1.11648e-10
-1.11828e-10
-1.11632e-10
-1.1166e-10
-1.11533e-10
-1.11537e-10
-1.11492e-10
-1.11528e-10
-1.1155e-10
-1.11609e-10
-1.11651e-10
-1.11696e-10
-1.11721e-10
-1.11737e-10
-1.11733e-10
-1.11722e-10
-1.11706e-10
-1.11693e-10
-1.11683e-10
-1.11676e-10
-1.11678e-10
-1.11689e-10
-1.11703e-10
-1.11717e-10
-1.11731e-10
-1.11747e-10
-1.1176e-10
-1.11765e-10
-1.11767e-10
-1.11768e-10
-1.11766e-10
-1.1176e-10
-1.11752e-10
-1.11749e-10
-1.11749e-10
-1.1175e-10
-1.11754e-10
-1.11764e-10