/*--------------------------------*- C++ -*----------------------------------*\
| =========                 |                                                 |
| \\      /  F ield         | foam-extend: Open Source CFD                    |
|  \\    /   O peration     | Version:     4.0                                |
|   \\  /    A nd           | Web:         http://www.foam-extend.org         |
|    \\/     M anipulation  |                                                 |
\*---------------------------------------------------------------------------*/
FoamFile
{
    version     2.0;
    format      ascii;
    class       volScalarField;
    location    "13";
    object      p;
}
// * * * * * * * * * * * * * * * * * * * * * * * * * * * * * * * * * * * * * //

dimensions      [0 2 -2 0 0 0 0];

internalField   nonuniform List<scalar> 
6960
(
2.61147e-07
3.86528e-07
3.77252e-07
3.8142e-07
3.81793e-07
3.88174e-07
3.9477e-07
4.00426e-07
3.99454e-07
3.96832e-07
3.92233e-07
3.87418e-07
3.83266e-07
3.81279e-07
3.83463e-07
3.87861e-07
3.91805e-07
3.93717e-07
3.93741e-07
3.9263e-07
3.91151e-07
3.89554e-07
3.88059e-07
3.87139e-07
3.87771e-07
3.89706e-07
3.90571e-07
3.89552e-07
3.88195e-07
3.88588e-07
3.89277e-07
3.88737e-07
3.88123e-07
3.89003e-07
3.91256e-07
3.91585e-07
3.909e-07
3.90167e-07
3.89798e-07
3.89304e-07
3.87784e-07
3.88093e-07
3.88302e-07
3.89002e-07
3.89987e-07
3.90865e-07
3.92182e-07
3.90966e-07
3.90475e-07
3.903e-07
3.90151e-07
3.89853e-07
3.88771e-07
3.89522e-07
3.90481e-07
3.90096e-07
3.90642e-07
3.89573e-07
3.90897e-07
3.8935e-07
3.71839e-07
3.86405e-07
3.77184e-07
3.81387e-07
3.81774e-07
3.88176e-07
3.94792e-07
4.00461e-07
3.99484e-07
3.96849e-07
3.92228e-07
3.87397e-07
3.83237e-07
3.81255e-07
3.83453e-07
3.87867e-07
3.91823e-07
3.93738e-07
3.93755e-07
3.92633e-07
3.91143e-07
3.8954e-07
3.88047e-07
3.87133e-07
3.87773e-07
3.89713e-07
3.90579e-07
3.89558e-07
3.88195e-07
3.88584e-07
3.89272e-07
3.88732e-07
3.88119e-07
3.89001e-07
3.91256e-07
3.91586e-07
3.90904e-07
3.9017e-07
3.89801e-07
3.89306e-07
3.87784e-07
3.88093e-07
3.88298e-07
3.89e-07
3.89984e-07
3.90863e-07
3.92183e-07
3.90967e-07
3.90477e-07
3.90301e-07
3.90152e-07
3.89853e-07
3.88768e-07
3.8952e-07
3.90478e-07
3.90094e-07
3.90641e-07
3.89571e-07
3.90895e-07
3.89349e-07
3.89975e-07
3.8627e-07
3.7713e-07
3.81341e-07
3.81717e-07
3.8813e-07
3.94771e-07
4.00474e-07
3.99521e-07
3.96895e-07
3.92259e-07
3.87407e-07
3.83224e-07
3.81227e-07
3.83421e-07
3.87844e-07
3.91817e-07
3.93748e-07
3.93772e-07
3.92647e-07
3.91147e-07
3.89535e-07
3.88038e-07
3.87124e-07
3.87768e-07
3.89713e-07
3.90586e-07
3.89568e-07
3.88201e-07
3.88582e-07
3.89264e-07
3.88723e-07
3.88109e-07
3.88992e-07
3.9125e-07
3.91585e-07
3.9091e-07
3.90177e-07
3.8981e-07
3.89312e-07
3.87787e-07
3.88092e-07
3.8829e-07
3.88993e-07
3.89974e-07
3.90858e-07
3.92182e-07
3.90969e-07
3.90485e-07
3.90303e-07
3.90155e-07
3.89853e-07
3.88766e-07
3.89518e-07
3.90472e-07
3.90091e-07
3.90639e-07
3.89568e-07
3.90893e-07
3.89348e-07
3.81628e-07
3.86164e-07
3.77096e-07
3.81283e-07
3.8163e-07
3.88039e-07
3.94706e-07
4.00459e-07
3.99556e-07
3.96964e-07
3.92326e-07
3.8745e-07
3.83231e-07
3.81201e-07
3.83373e-07
3.87796e-07
3.91786e-07
3.93744e-07
3.93788e-07
3.92669e-07
3.91163e-07
3.89539e-07
3.88033e-07
3.87115e-07
3.8776e-07
3.89708e-07
3.90589e-07
3.89578e-07
3.88211e-07
3.88584e-07
3.89254e-07
3.88712e-07
3.88095e-07
3.8898e-07
3.91238e-07
3.91582e-07
3.90919e-07
3.90188e-07
3.89826e-07
3.89321e-07
3.87794e-07
3.8809e-07
3.88279e-07
3.88982e-07
3.89957e-07
3.90849e-07
3.92177e-07
3.90973e-07
3.90496e-07
3.90309e-07
3.90162e-07
3.89854e-07
3.88765e-07
3.89517e-07
3.90464e-07
3.90089e-07
3.90637e-07
3.89566e-07
3.90892e-07
3.89347e-07
3.78321e-07
3.86097e-07
3.77077e-07
3.81216e-07
3.81514e-07
3.87907e-07
3.94602e-07
4.0042e-07
3.9959e-07
3.97054e-07
3.92423e-07
3.87522e-07
3.83255e-07
3.81176e-07
3.83311e-07
3.87724e-07
3.91733e-07
3.93727e-07
3.93804e-07
3.92699e-07
3.91189e-07
3.89551e-07
3.88031e-07
3.87105e-07
3.87748e-07
3.89699e-07
3.90589e-07
3.89589e-07
3.88225e-07
3.88587e-07
3.89242e-07
3.88696e-07
3.88077e-07
3.88963e-07
3.9122e-07
3.91575e-07
3.90929e-07
3.90203e-07
3.89846e-07
3.89333e-07
3.87803e-07
3.88088e-07
3.88263e-07
3.88967e-07
3.89935e-07
3.90837e-07
3.92169e-07
3.90978e-07
3.90512e-07
3.90316e-07
3.90173e-07
3.89855e-07
3.88765e-07
3.89515e-07
3.90453e-07
3.90086e-07
3.90633e-07
3.89563e-07
3.9089e-07
3.89346e-07
3.78856e-07
3.86063e-07
3.77073e-07
3.81142e-07
3.81372e-07
3.87737e-07
3.9446e-07
4.00355e-07
3.99622e-07
3.97164e-07
3.9255e-07
3.87621e-07
3.83295e-07
3.81152e-07
3.83235e-07
3.8763e-07
3.9166e-07
3.937e-07
3.93819e-07
3.92737e-07
3.91225e-07
3.89569e-07
3.88032e-07
3.87094e-07
3.87733e-07
3.89684e-07
3.90587e-07
3.89603e-07
3.88244e-07
3.88592e-07
3.89228e-07
3.88677e-07
3.88055e-07
3.88941e-07
3.91197e-07
3.91565e-07
3.90941e-07
3.90221e-07
3.89872e-07
3.89349e-07
3.87816e-07
3.88086e-07
3.88243e-07
3.88948e-07
3.89907e-07
3.90822e-07
3.92158e-07
3.90984e-07
3.90532e-07
3.90326e-07
3.90186e-07
3.89856e-07
3.88767e-07
3.89513e-07
3.9044e-07
3.90082e-07
3.90628e-07
3.89561e-07
3.90888e-07
3.89346e-07
3.79623e-07
3.8606e-07
3.77087e-07
3.81063e-07
3.81206e-07
3.87529e-07
3.9428e-07
4.00265e-07
3.99651e-07
3.97292e-07
3.92705e-07
3.87749e-07
3.83352e-07
3.81131e-07
3.83146e-07
3.87514e-07
3.91565e-07
3.9366e-07
3.93834e-07
3.92782e-07
3.91271e-07
3.89593e-07
3.88034e-07
3.87082e-07
3.87715e-07
3.89666e-07
3.90583e-07
3.89618e-07
3.88267e-07
3.886e-07
3.89213e-07
3.88654e-07
3.88028e-07
3.88915e-07
3.91167e-07
3.91552e-07
3.90954e-07
3.90243e-07
3.89904e-07
3.89367e-07
3.87833e-07
3.88083e-07
3.88221e-07
3.88926e-07
3.89872e-07
3.90804e-07
3.92143e-07
3.9099e-07
3.90556e-07
3.90337e-07
3.90203e-07
3.89857e-07
3.8877e-07
3.89511e-07
3.90424e-07
3.90079e-07
3.90622e-07
3.89559e-07
3.90885e-07
3.89345e-07
3.80044e-07
3.86086e-07
3.77121e-07
3.80981e-07
3.81021e-07
3.87286e-07
3.94062e-07
4.00147e-07
3.99673e-07
3.97435e-07
3.92885e-07
3.87903e-07
3.83428e-07
3.81115e-07
3.83047e-07
3.87379e-07
3.9145e-07
3.93608e-07
3.93846e-07
3.92833e-07
3.91325e-07
3.89625e-07
3.8804e-07
3.87069e-07
3.87695e-07
3.89642e-07
3.90575e-07
3.89634e-07
3.88295e-07
3.88611e-07
3.89195e-07
3.88629e-07
3.87997e-07
3.88884e-07
3.91132e-07
3.91536e-07
3.90968e-07
3.90268e-07
3.89939e-07
3.89389e-07
3.87853e-07
3.88081e-07
3.88195e-07
3.889e-07
3.89833e-07
3.90782e-07
3.92125e-07
3.90997e-07
3.90583e-07
3.90351e-07
3.90222e-07
3.8986e-07
3.88774e-07
3.8951e-07
3.90406e-07
3.90075e-07
3.90615e-07
3.89558e-07
3.90883e-07
3.89344e-07
3.80398e-07
3.86143e-07
3.77177e-07
3.80901e-07
3.80819e-07
3.87011e-07
3.93808e-07
4.00001e-07
3.99687e-07
3.9759e-07
3.9309e-07
3.88085e-07
3.83524e-07
3.81105e-07
3.8294e-07
3.87225e-07
3.91314e-07
3.93542e-07
3.93854e-07
3.92888e-07
3.91387e-07
3.89663e-07
3.88049e-07
3.87057e-07
3.87671e-07
3.89614e-07
3.90565e-07
3.89652e-07
3.88327e-07
3.88624e-07
3.89177e-07
3.88601e-07
3.87963e-07
3.8885e-07
3.9109e-07
3.91516e-07
3.90983e-07
3.90295e-07
3.8998e-07
3.89414e-07
3.87877e-07
3.88079e-07
3.88168e-07
3.88871e-07
3.89788e-07
3.90756e-07
3.92102e-07
3.91004e-07
3.90612e-07
3.90367e-07
3.90244e-07
3.89862e-07
3.8878e-07
3.89508e-07
3.90386e-07
3.90071e-07
3.90608e-07
3.89556e-07
3.9088e-07
3.89344e-07
3.80797e-07
3.86229e-07
3.77256e-07
3.80823e-07
3.80604e-07
3.86707e-07
3.93518e-07
3.99825e-07
3.99688e-07
3.97753e-07
3.93317e-07
3.88291e-07
3.83639e-07
3.81104e-07
3.82827e-07
3.87054e-07
3.91158e-07
3.93461e-07
3.93857e-07
3.92947e-07
3.91456e-07
3.89708e-07
3.88063e-07
3.87045e-07
3.87646e-07
3.89582e-07
3.90551e-07
3.8967e-07
3.88362e-07
3.8864e-07
3.89158e-07
3.88572e-07
3.87926e-07
3.88812e-07
3.91043e-07
3.91493e-07
3.90998e-07
3.90325e-07
3.90024e-07
3.89441e-07
3.87904e-07
3.88078e-07
3.88138e-07
3.88839e-07
3.89738e-07
3.90727e-07
3.92076e-07
3.91011e-07
3.90645e-07
3.90385e-07
3.90268e-07
3.89865e-07
3.88787e-07
3.89507e-07
3.90364e-07
3.90066e-07
3.90599e-07
3.89555e-07
3.90876e-07
3.89343e-07
3.81231e-07
3.86343e-07
3.77359e-07
3.80752e-07
3.80379e-07
3.86376e-07
3.93195e-07
3.9962e-07
3.99677e-07
3.97923e-07
3.93563e-07
3.88523e-07
3.83776e-07
3.81114e-07
3.8271e-07
3.86868e-07
3.90984e-07
3.93367e-07
3.93855e-07
3.93008e-07
3.91532e-07
3.89759e-07
3.8808e-07
3.87035e-07
3.87619e-07
3.89546e-07
3.90534e-07
3.89688e-07
3.88402e-07
3.88658e-07
3.89139e-07
3.8854e-07
3.87886e-07
3.8877e-07
3.9099e-07
3.91466e-07
3.91012e-07
3.90357e-07
3.90072e-07
3.89472e-07
3.87935e-07
3.88077e-07
3.88107e-07
3.88804e-07
3.89684e-07
3.90694e-07
3.92045e-07
3.91018e-07
3.90678e-07
3.90404e-07
3.90295e-07
3.8987e-07
3.88797e-07
3.89506e-07
3.90341e-07
3.90061e-07
3.9059e-07
3.89554e-07
3.90873e-07
3.89342e-07
3.81683e-07
3.86486e-07
3.77488e-07
3.80688e-07
3.80147e-07
3.86021e-07
3.92839e-07
3.99384e-07
3.99649e-07
3.98095e-07
3.93825e-07
3.88777e-07
3.83934e-07
3.81135e-07
3.82592e-07
3.86669e-07
3.90791e-07
3.93257e-07
3.93846e-07
3.93071e-07
3.91614e-07
3.89817e-07
3.88102e-07
3.87026e-07
3.8759e-07
3.89505e-07
3.90514e-07
3.89707e-07
3.88444e-07
3.88679e-07
3.8912e-07
3.88508e-07
3.87845e-07
3.88725e-07
3.90932e-07
3.91434e-07
3.91025e-07
3.9039e-07
3.90123e-07
3.89506e-07
3.87971e-07
3.88078e-07
3.88075e-07
3.88767e-07
3.89625e-07
3.90657e-07
3.9201e-07
3.91024e-07
3.90714e-07
3.90425e-07
3.90323e-07
3.89875e-07
3.88808e-07
3.89505e-07
3.90316e-07
3.90056e-07
3.90581e-07
3.89553e-07
3.90869e-07
3.89341e-07
3.8215e-07
3.86655e-07
3.77643e-07
3.80637e-07
3.79914e-07
3.85647e-07
3.92454e-07
3.99118e-07
3.99603e-07
3.98267e-07
3.94101e-07
3.89053e-07
3.84113e-07
3.81171e-07
3.82475e-07
3.86459e-07
3.90581e-07
3.93133e-07
3.93828e-07
3.93133e-07
3.91701e-07
3.89882e-07
3.8813e-07
3.8702e-07
3.87561e-07
3.8946e-07
3.9049e-07
3.89725e-07
3.8849e-07
3.88703e-07
3.89102e-07
3.88475e-07
3.87802e-07
3.88677e-07
3.90868e-07
3.91398e-07
3.91036e-07
3.90424e-07
3.90177e-07
3.89542e-07
3.8801e-07
3.8808e-07
3.88042e-07
3.88727e-07
3.89563e-07
3.90617e-07
3.9197e-07
3.9103e-07
3.9075e-07
3.90448e-07
3.90354e-07
3.8988e-07
3.88821e-07
3.89504e-07
3.9029e-07
3.90051e-07
3.9057e-07
3.89552e-07
3.90865e-07
3.89341e-07
3.82628e-07
3.8685e-07
3.77826e-07
3.80598e-07
3.79682e-07
3.85256e-07
3.92039e-07
3.98822e-07
3.99536e-07
3.98435e-07
3.94388e-07
3.89349e-07
3.84314e-07
3.81221e-07
3.82361e-07
3.8624e-07
3.90355e-07
3.92994e-07
3.93801e-07
3.93193e-07
3.91792e-07
3.89952e-07
3.88162e-07
3.87017e-07
3.87531e-07
3.89412e-07
3.90462e-07
3.89742e-07
3.88539e-07
3.88729e-07
3.89084e-07
3.88441e-07
3.87757e-07
3.88625e-07
3.90798e-07
3.91358e-07
3.91046e-07
3.90459e-07
3.90233e-07
3.89581e-07
3.88053e-07
3.88085e-07
3.8801e-07
3.88686e-07
3.89497e-07
3.90573e-07
3.91925e-07
3.91034e-07
3.90787e-07
3.90472e-07
3.90386e-07
3.89887e-07
3.88836e-07
3.89503e-07
3.90263e-07
3.90045e-07
3.90559e-07
3.89552e-07
3.9086e-07
3.8934e-07
3.83116e-07
3.87069e-07
3.78037e-07
3.80576e-07
3.79455e-07
3.84851e-07
3.91599e-07
3.98495e-07
3.99447e-07
3.98596e-07
3.94683e-07
3.89664e-07
3.84537e-07
3.81288e-07
3.82252e-07
3.86013e-07
3.90115e-07
3.9284e-07
3.93765e-07
3.93251e-07
3.91885e-07
3.90027e-07
3.88199e-07
3.87016e-07
3.87501e-07
3.89361e-07
3.9043e-07
3.89759e-07
3.8859e-07
3.88758e-07
3.89067e-07
3.88408e-07
3.87713e-07
3.88572e-07
3.90723e-07
3.91313e-07
3.91054e-07
3.90494e-07
3.90291e-07
3.89623e-07
3.88101e-07
3.88091e-07
3.87978e-07
3.88643e-07
3.89427e-07
3.90524e-07
3.91876e-07
3.91036e-07
3.90824e-07
3.90497e-07
3.9042e-07
3.89896e-07
3.88853e-07
3.89503e-07
3.90235e-07
3.90038e-07
3.90547e-07
3.89552e-07
3.90855e-07
3.89339e-07
3.8361e-07
3.87311e-07
3.78276e-07
3.80573e-07
3.79237e-07
3.84438e-07
3.91136e-07
3.98137e-07
3.99334e-07
3.98747e-07
3.94981e-07
3.89994e-07
3.84781e-07
3.81373e-07
3.82152e-07
3.85783e-07
3.89861e-07
3.92671e-07
3.93717e-07
3.93305e-07
3.91981e-07
3.90107e-07
3.88242e-07
3.8702e-07
3.87471e-07
3.89306e-07
3.90395e-07
3.89774e-07
3.88643e-07
3.88789e-07
3.89052e-07
3.88376e-07
3.87668e-07
3.88516e-07
3.90642e-07
3.91264e-07
3.91058e-07
3.90529e-07
3.9035e-07
3.89668e-07
3.88152e-07
3.881e-07
3.87948e-07
3.88599e-07
3.89355e-07
3.90472e-07
3.91823e-07
3.91037e-07
3.90861e-07
3.90523e-07
3.90455e-07
3.89905e-07
3.88872e-07
3.89503e-07
3.90207e-07
3.90031e-07
3.90535e-07
3.89553e-07
3.9085e-07
3.89339e-07
3.84107e-07
3.87574e-07
3.78543e-07
3.8059e-07
3.79032e-07
3.84018e-07
3.90653e-07
3.9775e-07
3.99195e-07
3.98884e-07
3.95281e-07
3.90339e-07
3.85046e-07
3.81477e-07
3.82062e-07
3.8555e-07
3.89596e-07
3.92487e-07
3.93657e-07
3.93353e-07
3.92076e-07
3.90192e-07
3.88291e-07
3.87028e-07
3.87443e-07
3.89249e-07
3.90355e-07
3.89788e-07
3.88698e-07
3.88823e-07
3.89039e-07
3.88345e-07
3.87623e-07
3.88458e-07
3.90557e-07
3.91209e-07
3.9106e-07
3.90563e-07
3.9041e-07
3.89714e-07
3.88208e-07
3.88111e-07
3.87919e-07
3.88555e-07
3.89281e-07
3.90416e-07
3.91764e-07
3.91035e-07
3.90897e-07
3.9055e-07
3.90491e-07
3.89915e-07
3.88894e-07
3.89503e-07
3.90178e-07
3.90024e-07
3.90522e-07
3.89553e-07
3.90845e-07
3.89338e-07
3.84603e-07
3.87855e-07
3.78839e-07
3.8063e-07
3.78843e-07
3.83598e-07
3.90152e-07
3.97335e-07
3.99028e-07
3.99005e-07
3.95578e-07
3.90695e-07
3.85332e-07
3.81602e-07
3.81984e-07
3.85317e-07
3.8932e-07
3.9229e-07
3.93585e-07
3.93395e-07
3.92172e-07
3.90281e-07
3.88345e-07
3.87041e-07
3.87416e-07
3.89189e-07
3.90312e-07
3.89801e-07
3.88754e-07
3.88859e-07
3.89028e-07
3.88315e-07
3.87579e-07
3.88399e-07
3.90467e-07
3.9115e-07
3.91057e-07
3.90595e-07
3.9047e-07
3.89763e-07
3.88268e-07
3.88126e-07
3.87892e-07
3.8851e-07
3.89204e-07
3.90357e-07
3.917e-07
3.9103e-07
3.90931e-07
3.90577e-07
3.90528e-07
3.89927e-07
3.88917e-07
3.89504e-07
3.90149e-07
3.90016e-07
3.90509e-07
3.89554e-07
3.90839e-07
3.89337e-07
3.85095e-07
3.88153e-07
3.79162e-07
3.80695e-07
3.78674e-07
3.83179e-07
3.89637e-07
3.96892e-07
3.98833e-07
3.99107e-07
3.95869e-07
3.9106e-07
3.85637e-07
3.81748e-07
3.81922e-07
3.85087e-07
3.89037e-07
3.92079e-07
3.93499e-07
3.93428e-07
3.92265e-07
3.90373e-07
3.88405e-07
3.87058e-07
3.87391e-07
3.89128e-07
3.90266e-07
3.89811e-07
3.88812e-07
3.88897e-07
3.89019e-07
3.88288e-07
3.87537e-07
3.88338e-07
3.90373e-07
3.91086e-07
3.9105e-07
3.90626e-07
3.9053e-07
3.89814e-07
3.88331e-07
3.88144e-07
3.87869e-07
3.88465e-07
3.89127e-07
3.90293e-07
3.91632e-07
3.91023e-07
3.90963e-07
3.90605e-07
3.90565e-07
3.89941e-07
3.88943e-07
3.89506e-07
3.9012e-07
3.90008e-07
3.90495e-07
3.89556e-07
3.90833e-07
3.89337e-07
3.85579e-07
3.88466e-07
3.79513e-07
3.80786e-07
3.78528e-07
3.82768e-07
3.89112e-07
3.96423e-07
3.98609e-07
3.99186e-07
3.96151e-07
3.91431e-07
3.85961e-07
3.81916e-07
3.81876e-07
3.84862e-07
3.88748e-07
3.91855e-07
3.934e-07
3.93452e-07
3.92355e-07
3.90468e-07
3.8847e-07
3.87081e-07
3.87368e-07
3.89065e-07
3.90216e-07
3.89818e-07
3.88869e-07
3.88937e-07
3.89013e-07
3.88263e-07
3.87497e-07
3.88277e-07
3.90275e-07
3.91017e-07
3.91039e-07
3.90655e-07
3.90589e-07
3.89867e-07
3.88399e-07
3.88166e-07
3.87848e-07
3.8842e-07
3.89048e-07
3.90227e-07
3.91559e-07
3.91013e-07
3.90993e-07
3.90632e-07
3.90602e-07
3.89955e-07
3.88971e-07
3.89508e-07
3.90092e-07
3.89999e-07
3.90481e-07
3.89557e-07
3.90827e-07
3.89336e-07
3.86053e-07
3.88791e-07
3.7989e-07
3.80904e-07
3.78409e-07
3.82366e-07
3.88579e-07
3.9593e-07
3.98354e-07
3.9924e-07
3.96419e-07
3.91806e-07
3.86302e-07
3.82106e-07
3.81849e-07
3.84645e-07
3.88454e-07
3.91619e-07
3.93287e-07
3.93465e-07
3.9244e-07
3.90564e-07
3.8854e-07
3.8711e-07
3.87348e-07
3.89001e-07
3.90162e-07
3.89824e-07
3.88927e-07
3.88979e-07
3.8901e-07
3.88242e-07
3.8746e-07
3.88216e-07
3.90173e-07
3.90942e-07
3.91023e-07
3.9068e-07
3.90646e-07
3.8992e-07
3.8847e-07
3.88192e-07
3.87832e-07
3.88377e-07
3.88969e-07
3.90157e-07
3.91481e-07
3.90998e-07
3.9102e-07
3.9066e-07
3.90639e-07
3.89972e-07
3.89001e-07
3.8951e-07
3.90063e-07
3.8999e-07
3.90467e-07
3.89559e-07
3.9082e-07
3.89335e-07
3.86513e-07
3.89125e-07
3.80291e-07
3.81051e-07
3.78319e-07
3.8198e-07
3.88044e-07
3.95414e-07
3.98068e-07
3.99266e-07
3.96671e-07
3.92181e-07
3.86658e-07
3.82319e-07
3.81844e-07
3.84439e-07
3.88159e-07
3.91373e-07
3.93159e-07
3.93467e-07
3.9252e-07
3.90661e-07
3.88616e-07
3.87145e-07
3.87332e-07
3.88936e-07
3.90105e-07
3.89826e-07
3.88984e-07
3.89022e-07
3.89009e-07
3.88223e-07
3.87425e-07
3.88155e-07
3.90068e-07
3.90863e-07
3.91001e-07
3.90703e-07
3.90702e-07
3.89975e-07
3.88545e-07
3.88221e-07
3.8782e-07
3.88335e-07
3.8889e-07
3.90083e-07
3.91398e-07
3.9098e-07
3.91043e-07
3.90686e-07
3.90676e-07
3.89989e-07
3.89033e-07
3.89514e-07
3.90035e-07
3.8998e-07
3.90452e-07
3.89561e-07
3.90813e-07
3.89335e-07
3.86958e-07
3.89466e-07
3.80716e-07
3.81227e-07
3.78261e-07
3.81612e-07
3.8751e-07
3.94879e-07
3.97753e-07
3.99262e-07
3.96903e-07
3.92553e-07
3.87027e-07
3.82555e-07
3.8186e-07
3.84245e-07
3.87865e-07
3.91117e-07
3.93017e-07
3.93457e-07
3.92593e-07
3.90758e-07
3.88696e-07
3.87186e-07
3.8732e-07
3.88872e-07
3.90045e-07
3.89826e-07
3.89041e-07
3.89067e-07
3.89012e-07
3.88209e-07
3.87395e-07
3.88095e-07
3.8996e-07
3.9078e-07
3.90974e-07
3.90721e-07
3.90754e-07
3.90031e-07
3.88623e-07
3.88256e-07
3.87812e-07
3.88296e-07
3.88812e-07
3.90007e-07
3.91311e-07
3.90958e-07
3.91063e-07
3.90711e-07
3.90711e-07
3.90008e-07
3.89067e-07
3.89518e-07
3.90008e-07
3.8997e-07
3.90437e-07
3.89564e-07
3.90806e-07
3.89334e-07
3.87383e-07
3.89811e-07
3.81162e-07
3.81433e-07
3.78237e-07
3.81266e-07
3.86982e-07
3.94327e-07
3.97407e-07
3.99227e-07
3.97112e-07
3.92919e-07
3.87408e-07
3.82812e-07
3.81901e-07
3.84067e-07
3.87574e-07
3.90853e-07
3.9286e-07
3.93433e-07
3.92657e-07
3.90853e-07
3.88781e-07
3.87234e-07
3.87313e-07
3.88808e-07
3.89983e-07
3.89822e-07
3.89096e-07
3.89112e-07
3.89018e-07
3.88198e-07
3.87368e-07
3.88036e-07
3.8985e-07
3.90691e-07
3.90941e-07
3.90735e-07
3.90804e-07
3.90087e-07
3.88704e-07
3.88294e-07
3.8781e-07
3.88259e-07
3.88735e-07
3.89929e-07
3.9122e-07
3.90932e-07
3.91078e-07
3.90735e-07
3.90746e-07
3.90029e-07
3.89103e-07
3.89523e-07
3.89981e-07
3.8996e-07
3.90422e-07
3.89566e-07
3.90798e-07
3.89334e-07
3.87788e-07
3.90158e-07
3.81626e-07
3.81669e-07
3.7825e-07
3.80946e-07
3.86462e-07
3.9376e-07
3.97032e-07
3.99158e-07
3.97294e-07
3.93275e-07
3.87798e-07
3.83092e-07
3.81967e-07
3.83906e-07
3.87288e-07
3.90583e-07
3.9269e-07
3.93394e-07
3.92712e-07
3.90946e-07
3.88869e-07
3.87287e-07
3.8731e-07
3.88745e-07
3.89918e-07
3.89815e-07
3.89149e-07
3.89158e-07
3.89027e-07
3.88192e-07
3.87346e-07
3.87979e-07
3.89739e-07
3.90599e-07
3.90902e-07
3.90744e-07
3.90849e-07
3.90142e-07
3.88787e-07
3.88337e-07
3.87813e-07
3.88225e-07
3.88661e-07
3.89848e-07
3.91125e-07
3.90901e-07
3.91088e-07
3.90758e-07
3.9078e-07
3.9005e-07
3.89142e-07
3.89529e-07
3.89956e-07
3.89949e-07
3.90406e-07
3.89569e-07
3.9079e-07
3.89333e-07
3.88169e-07
3.90502e-07
3.82107e-07
3.81934e-07
3.78301e-07
3.80657e-07
3.85957e-07
3.93181e-07
3.96629e-07
3.99054e-07
3.97447e-07
3.93619e-07
3.88193e-07
3.83391e-07
3.82059e-07
3.83765e-07
3.87011e-07
3.90307e-07
3.92507e-07
3.93341e-07
3.92757e-07
3.91037e-07
3.8896e-07
3.87347e-07
3.87312e-07
3.88684e-07
3.89851e-07
3.89805e-07
3.89201e-07
3.89203e-07
3.89039e-07
3.88191e-07
3.87329e-07
3.87925e-07
3.89626e-07
3.90502e-07
3.90857e-07
3.90748e-07
3.9089e-07
3.90197e-07
3.88873e-07
3.88385e-07
3.87823e-07
3.88195e-07
3.88589e-07
3.89765e-07
3.91026e-07
3.90865e-07
3.91094e-07
3.90778e-07
3.90811e-07
3.90073e-07
3.89182e-07
3.89535e-07
3.89931e-07
3.89938e-07
3.9039e-07
3.89572e-07
3.90782e-07
3.89333e-07
3.88526e-07
3.90841e-07
3.82601e-07
3.82227e-07
3.78391e-07
3.80399e-07
3.8547e-07
3.92596e-07
3.962e-07
3.98915e-07
3.97568e-07
3.93947e-07
3.88593e-07
3.8371e-07
3.82177e-07
3.83646e-07
3.86744e-07
3.9003e-07
3.92311e-07
3.93273e-07
3.92789e-07
3.91122e-07
3.89054e-07
3.87413e-07
3.8732e-07
3.88625e-07
3.89782e-07
3.89792e-07
3.8925e-07
3.89249e-07
3.89054e-07
3.88194e-07
3.87317e-07
3.87873e-07
3.89513e-07
3.90401e-07
3.90805e-07
3.90747e-07
3.90926e-07
3.90251e-07
3.88961e-07
3.88437e-07
3.87838e-07
3.88169e-07
3.88519e-07
3.89682e-07
3.90923e-07
3.90825e-07
3.91094e-07
3.90795e-07
3.90841e-07
3.90097e-07
3.89223e-07
3.89544e-07
3.89908e-07
3.89927e-07
3.90374e-07
3.89576e-07
3.90773e-07
3.89333e-07
3.88857e-07
3.91172e-07
3.83105e-07
3.82549e-07
3.78521e-07
3.80178e-07
3.85004e-07
3.92006e-07
3.95747e-07
3.98739e-07
3.97654e-07
3.94256e-07
3.88992e-07
3.84047e-07
3.82322e-07
3.8355e-07
3.8649e-07
3.89751e-07
3.92104e-07
3.9319e-07
3.92809e-07
3.91202e-07
3.8915e-07
3.87485e-07
3.87334e-07
3.88569e-07
3.89713e-07
3.89776e-07
3.89295e-07
3.89294e-07
3.89072e-07
3.88202e-07
3.87312e-07
3.87825e-07
3.89401e-07
3.90298e-07
3.90748e-07
3.90739e-07
3.90956e-07
3.90303e-07
3.8905e-07
3.88494e-07
3.8786e-07
3.88148e-07
3.88454e-07
3.89597e-07
3.90818e-07
3.9078e-07
3.91089e-07
3.9081e-07
3.90868e-07
3.90121e-07
3.89266e-07
3.89553e-07
3.89887e-07
3.89916e-07
3.90358e-07
3.89579e-07
3.90765e-07
3.89332e-07
3.89161e-07
3.91492e-07
3.83615e-07
3.82896e-07
3.78691e-07
3.79996e-07
3.84566e-07
3.91416e-07
3.95272e-07
3.98528e-07
3.97704e-07
3.94542e-07
3.89389e-07
3.84399e-07
3.82494e-07
3.83479e-07
3.86252e-07
3.89473e-07
3.91886e-07
3.93091e-07
3.92815e-07
3.91276e-07
3.89246e-07
3.87563e-07
3.87353e-07
3.88517e-07
3.89643e-07
3.89756e-07
3.89338e-07
3.89339e-07
3.89093e-07
3.88215e-07
3.87312e-07
3.87781e-07
3.89289e-07
3.90191e-07
3.90684e-07
3.90725e-07
3.9098e-07
3.90353e-07
3.8914e-07
3.88555e-07
3.87889e-07
3.88132e-07
3.88393e-07
3.89512e-07
3.9071e-07
3.90729e-07
3.91077e-07
3.90821e-07
3.90893e-07
3.90146e-07
3.89311e-07
3.89563e-07
3.89867e-07
3.89904e-07
3.90341e-07
3.89583e-07
3.90755e-07
3.89332e-07
3.89437e-07
3.91797e-07
3.84129e-07
3.83268e-07
3.78901e-07
3.79854e-07
3.84157e-07
3.90829e-07
3.94779e-07
3.98281e-07
3.97715e-07
3.94803e-07
3.8978e-07
3.84765e-07
3.82692e-07
3.83434e-07
3.86032e-07
3.89199e-07
3.91659e-07
3.92977e-07
3.92807e-07
3.91342e-07
3.89342e-07
3.87645e-07
3.87379e-07
3.88468e-07
3.89572e-07
3.89733e-07
3.89377e-07
3.89382e-07
3.89117e-07
3.88233e-07
3.87319e-07
3.87741e-07
3.89179e-07
3.90082e-07
3.90614e-07
3.90705e-07
3.90997e-07
3.904e-07
3.8923e-07
3.8862e-07
3.87924e-07
3.88121e-07
3.88337e-07
3.89428e-07
3.906e-07
3.90674e-07
3.9106e-07
3.90829e-07
3.90914e-07
3.90172e-07
3.89357e-07
3.89575e-07
3.89848e-07
3.89892e-07
3.90325e-07
3.89586e-07
3.90746e-07
3.89332e-07
3.89684e-07
3.92085e-07
3.84641e-07
3.83661e-07
3.7915e-07
3.79755e-07
3.83783e-07
3.90251e-07
3.9427e-07
3.97999e-07
3.97687e-07
3.95036e-07
3.90161e-07
3.85143e-07
3.82916e-07
3.83417e-07
3.85831e-07
3.88931e-07
3.91424e-07
3.92849e-07
3.92784e-07
3.914e-07
3.89437e-07
3.87732e-07
3.87411e-07
3.88423e-07
3.89502e-07
3.89708e-07
3.89413e-07
3.89423e-07
3.89142e-07
3.88255e-07
3.87332e-07
3.87707e-07
3.89072e-07
3.89972e-07
3.90539e-07
3.90677e-07
3.91007e-07
3.90443e-07
3.8932e-07
3.88689e-07
3.87966e-07
3.88117e-07
3.88287e-07
3.89345e-07
3.90488e-07
3.90614e-07
3.91036e-07
3.90832e-07
3.90932e-07
3.90198e-07
3.89403e-07
3.89588e-07
3.89832e-07
3.89881e-07
3.90308e-07
3.8959e-07
3.90736e-07
3.89333e-07
3.89902e-07
3.92353e-07
3.85149e-07
3.84073e-07
3.79436e-07
3.797e-07
3.83445e-07
3.89684e-07
3.9375e-07
3.97683e-07
3.97618e-07
3.95238e-07
3.90529e-07
3.85528e-07
3.83164e-07
3.83427e-07
3.85653e-07
3.88671e-07
3.91185e-07
3.92707e-07
3.92747e-07
3.91448e-07
3.8953e-07
3.87823e-07
3.87449e-07
3.88384e-07
3.89432e-07
3.89679e-07
3.89444e-07
3.89462e-07
3.8917e-07
3.88283e-07
3.87352e-07
3.87678e-07
3.88968e-07
3.8986e-07
3.90459e-07
3.90643e-07
3.9101e-07
3.90482e-07
3.89409e-07
3.88761e-07
3.88015e-07
3.88119e-07
3.88243e-07
3.89263e-07
3.90376e-07
3.9055e-07
3.91006e-07
3.90831e-07
3.90946e-07
3.90224e-07
3.89451e-07
3.89602e-07
3.89817e-07
3.89869e-07
3.90291e-07
3.89593e-07
3.90725e-07
3.89333e-07
3.90092e-07
3.92598e-07
3.85649e-07
3.84502e-07
3.79758e-07
3.7969e-07
3.83149e-07
3.89134e-07
3.93221e-07
3.97337e-07
3.97509e-07
3.95408e-07
3.9088e-07
3.85919e-07
3.83434e-07
3.83465e-07
3.85498e-07
3.88421e-07
3.90941e-07
3.92551e-07
3.92694e-07
3.91486e-07
3.8962e-07
3.87917e-07
3.87493e-07
3.88349e-07
3.89364e-07
3.89649e-07
3.89471e-07
3.89499e-07
3.89199e-07
3.88315e-07
3.87379e-07
3.87655e-07
3.88867e-07
3.89748e-07
3.90373e-07
3.90603e-07
3.91005e-07
3.90517e-07
3.89496e-07
3.88837e-07
3.8807e-07
3.88127e-07
3.88205e-07
3.89184e-07
3.90263e-07
3.90481e-07
3.9097e-07
3.90826e-07
3.90956e-07
3.90249e-07
3.89499e-07
3.89618e-07
3.89804e-07
3.89858e-07
3.90275e-07
3.89596e-07
3.90715e-07
3.89333e-07
3.90253e-07
3.92818e-07
3.86135e-07
3.84943e-07
3.80113e-07
3.79725e-07
3.82895e-07
3.88604e-07
3.92689e-07
3.96961e-07
3.97359e-07
3.95542e-07
3.91212e-07
3.86312e-07
3.83725e-07
3.83532e-07
3.85369e-07
3.88183e-07
3.90695e-07
3.92384e-07
3.92625e-07
3.91513e-07
3.89707e-07
3.88014e-07
3.87542e-07
3.8832e-07
3.89298e-07
3.89616e-07
3.89493e-07
3.89533e-07
3.89229e-07
3.88351e-07
3.87413e-07
3.87638e-07
3.88772e-07
3.89637e-07
3.90283e-07
3.90555e-07
3.90991e-07
3.90547e-07
3.8958e-07
3.88914e-07
3.88131e-07
3.88143e-07
3.88175e-07
3.89108e-07
3.90151e-07
3.90409e-07
3.90927e-07
3.90815e-07
3.90961e-07
3.90273e-07
3.89547e-07
3.89635e-07
3.89793e-07
3.89847e-07
3.90258e-07
3.896e-07
3.90703e-07
3.89334e-07
3.90386e-07
3.9301e-07
3.86606e-07
3.85393e-07
3.80498e-07
3.79806e-07
3.82686e-07
3.88097e-07
3.92158e-07
3.96558e-07
3.9717e-07
3.9564e-07
3.91521e-07
3.86705e-07
3.84034e-07
3.83626e-07
3.85266e-07
3.87959e-07
3.9045e-07
3.92206e-07
3.92542e-07
3.91528e-07
3.89788e-07
3.88112e-07
3.87597e-07
3.88296e-07
3.89234e-07
3.89581e-07
3.89512e-07
3.89564e-07
3.8926e-07
3.88392e-07
3.87453e-07
3.87628e-07
3.88682e-07
3.89526e-07
3.9019e-07
3.90501e-07
3.9097e-07
3.9057e-07
3.89661e-07
3.88994e-07
3.88199e-07
3.88166e-07
3.88152e-07
3.89036e-07
3.9004e-07
3.90332e-07
3.90879e-07
3.90799e-07
3.90962e-07
3.90297e-07
3.89594e-07
3.89654e-07
3.89784e-07
3.89837e-07
3.90241e-07
3.89603e-07
3.90692e-07
3.89335e-07
3.9049e-07
3.93173e-07
3.87056e-07
3.85849e-07
3.80909e-07
3.79931e-07
3.82525e-07
3.87619e-07
3.91632e-07
3.96133e-07
3.96942e-07
3.957e-07
3.91803e-07
3.87093e-07
3.84359e-07
3.83746e-07
3.8519e-07
3.87752e-07
3.90207e-07
3.92019e-07
3.92445e-07
3.91532e-07
3.89863e-07
3.88211e-07
3.87657e-07
3.88278e-07
3.89172e-07
3.89545e-07
3.89525e-07
3.89592e-07
3.89291e-07
3.88436e-07
3.875e-07
3.87625e-07
3.88598e-07
3.89418e-07
3.90093e-07
3.9044e-07
3.9094e-07
3.90588e-07
3.89738e-07
3.89075e-07
3.88271e-07
3.88195e-07
3.88137e-07
3.88968e-07
3.89931e-07
3.90253e-07
3.90825e-07
3.90777e-07
3.90958e-07
3.90319e-07
3.89642e-07
3.89673e-07
3.89777e-07
3.89827e-07
3.90225e-07
3.89606e-07
3.9068e-07
3.89336e-07
3.90568e-07
3.93304e-07
3.87483e-07
3.86305e-07
3.81344e-07
3.801e-07
3.82411e-07
3.87172e-07
3.91116e-07
3.95688e-07
3.96678e-07
3.95722e-07
3.92057e-07
3.87473e-07
3.84696e-07
3.83892e-07
3.85143e-07
3.87564e-07
3.8997e-07
3.91824e-07
3.92334e-07
3.91523e-07
3.89931e-07
3.88309e-07
3.87721e-07
3.88265e-07
3.89114e-07
3.89507e-07
3.89535e-07
3.89617e-07
3.89323e-07
3.88483e-07
3.87553e-07
3.87628e-07
3.88521e-07
3.89312e-07
3.89994e-07
3.90374e-07
3.90902e-07
3.90599e-07
3.89811e-07
3.89156e-07
3.88349e-07
3.88232e-07
3.8813e-07
3.88906e-07
3.89825e-07
3.90171e-07
3.90765e-07
3.9075e-07
3.90949e-07
3.90339e-07
3.89688e-07
3.89694e-07
3.89773e-07
3.89818e-07
3.90209e-07
3.89609e-07
3.90667e-07
3.89337e-07
3.9062e-07
3.93403e-07
3.87883e-07
3.8676e-07
3.81797e-07
3.8031e-07
3.82345e-07
3.86759e-07
3.90614e-07
3.95227e-07
3.96379e-07
3.95706e-07
3.9228e-07
3.87843e-07
3.85043e-07
3.84062e-07
3.85123e-07
3.87394e-07
3.89739e-07
3.91623e-07
3.9221e-07
3.91502e-07
3.89992e-07
3.88407e-07
3.87789e-07
3.88259e-07
3.89059e-07
3.89469e-07
3.8954e-07
3.89637e-07
3.89353e-07
3.88533e-07
3.87612e-07
3.8764e-07
3.88452e-07
3.89209e-07
3.89893e-07
3.90302e-07
3.90855e-07
3.90602e-07
3.89878e-07
3.89237e-07
3.88431e-07
3.88276e-07
3.88132e-07
3.8885e-07
3.89722e-07
3.90088e-07
3.907e-07
3.90718e-07
3.90935e-07
3.90356e-07
3.89734e-07
3.89716e-07
3.8977e-07
3.8981e-07
3.90193e-07
3.89612e-07
3.90654e-07
3.89339e-07
3.90647e-07
3.93468e-07
3.88253e-07
3.87207e-07
3.82264e-07
3.80559e-07
3.82328e-07
3.86384e-07
3.90131e-07
3.94754e-07
3.96049e-07
3.95651e-07
3.92469e-07
3.88198e-07
3.85396e-07
3.84253e-07
3.85132e-07
3.87246e-07
3.89517e-07
3.91419e-07
3.92074e-07
3.91468e-07
3.90045e-07
3.88502e-07
3.8786e-07
3.88258e-07
3.89008e-07
3.8943e-07
3.89541e-07
3.89654e-07
3.89383e-07
3.88586e-07
3.87676e-07
3.87658e-07
3.8839e-07
3.89111e-07
3.89791e-07
3.90225e-07
3.90801e-07
3.90598e-07
3.89938e-07
3.89317e-07
3.88516e-07
3.88327e-07
3.88143e-07
3.888e-07
3.89624e-07
3.90003e-07
3.90631e-07
3.90679e-07
3.90915e-07
3.90371e-07
3.89778e-07
3.89739e-07
3.8977e-07
3.89803e-07
3.90177e-07
3.89614e-07
3.90641e-07
3.89341e-07
3.9065e-07
3.93499e-07
3.88591e-07
3.87643e-07
3.8274e-07
3.80845e-07
3.82357e-07
3.86048e-07
3.89671e-07
3.94274e-07
3.95692e-07
3.9556e-07
3.92623e-07
3.88536e-07
3.85752e-07
3.84464e-07
3.85168e-07
3.8712e-07
3.89307e-07
3.91213e-07
3.91928e-07
3.91423e-07
3.90088e-07
3.88594e-07
3.87933e-07
3.88262e-07
3.88961e-07
3.89391e-07
3.89538e-07
3.89667e-07
3.89411e-07
3.8864e-07
3.87746e-07
3.87684e-07
3.88337e-07
3.89018e-07
3.8969e-07
3.90144e-07
3.90739e-07
3.90586e-07
3.89992e-07
3.89395e-07
3.88604e-07
3.88384e-07
3.88162e-07
3.88758e-07
3.89531e-07
3.89918e-07
3.90557e-07
3.90636e-07
3.9089e-07
3.90383e-07
3.89819e-07
3.89763e-07
3.89771e-07
3.89797e-07
3.90162e-07
3.89617e-07
3.90627e-07
3.89343e-07
3.90631e-07
3.93495e-07
3.88894e-07
3.88064e-07
3.8322e-07
3.81163e-07
3.82433e-07
3.85753e-07
3.89239e-07
3.9379e-07
3.9531e-07
3.95432e-07
3.92742e-07
3.88853e-07
3.86106e-07
3.84692e-07
3.85231e-07
3.87017e-07
3.8911e-07
3.91008e-07
3.91773e-07
3.91366e-07
3.90123e-07
3.88683e-07
3.88009e-07
3.88271e-07
3.88919e-07
3.89353e-07
3.89531e-07
3.89676e-07
3.89438e-07
3.88695e-07
3.8782e-07
3.87717e-07
3.88292e-07
3.88931e-07
3.8959e-07
3.90059e-07
3.90669e-07
3.90567e-07
3.90038e-07
3.89469e-07
3.88694e-07
3.88446e-07
3.8819e-07
3.88724e-07
3.89444e-07
3.89834e-07
3.9048e-07
3.90586e-07
3.90859e-07