/*--------------------------------*- C++ -*----------------------------------*\
| =========                 |                                                 |
| \\      /  F ield         | foam-extend: Open Source CFD                    |
|  \\    /   O peration     | Version:     4.0                                |
|   \\  /    A nd           | Web:         http://www.foam-extend.org         |
|    \\/     M anipulation  |                                                 |
\*---------------------------------------------------------------------------*/
FoamFile
{
    version     2.0;
    format      ascii;
    class       surfaceScalarField;
    location    "13";
    object      phi;
}
// * * * * * * * * * * * * * * * * * * * * * * * * * * * * * * * * * * * * * //

dimensions      [0 3 -1 0 0 0 0];

internalField   nonuniform List<scalar> 
13744
(
-2.37605e-25
-3.71109e-22
5.50267e-26
-2.80848e-25
1.00089e-25
-9.21909e-26
7.35677e-26
-4.25592e-27
1.80313e-26
4.85085e-26
-4.29284e-26
8.24972e-26
-8.70222e-26
8.85712e-26
-9.41747e-26
6.07524e-26
-6.15189e-26
1.11502e-26
-8.31463e-28
-3.74881e-26
5.78453e-26
-6.61784e-26
9.4735e-26
-7.05082e-26
1.01106e-25
-4.69922e-26
7.76111e-26
-1.01824e-26
3.42138e-26
3.04637e-26
-1.2023e-26
5.31151e-26
-4.0151e-26
5.19248e-26
-4.08526e-26
3.09978e-26
-1.85548e-26
2.99057e-27
1.20201e-26
-1.91402e-26
3.73176e-26
-2.86601e-26
4.92081e-26
-2.44587e-26
4.80052e-26
-1.27042e-26
3.77017e-26
1.89931e-27
2.31527e-26
1.30552e-26
9.62672e-27
1.68156e-26
3.21159e-27
1.0149e-26
7.03116e-27
-1.83802e-28
1.51333e-26
-6.7583e-27
1.91758e-26
-6.24452e-27
1.58648e-26
-2.01001e-27
1.24131e-26
-6.74439e-29
1.1197e-26
4.46491e-27
9.36589e-27
7.73907e-27
6.41722e-27
1.00027e-26
4.86189e-27
5.45758e-27
9.52452e-27
-6.035e-28
1.21523e-26
-1.85941e-27
1.12922e-26
-5.30259e-27
6.52e-27
-2.82623e-27
6.98108e-29
-4.21908e-27
-4.23488e-27
-2.60018e-28
-1.11284e-26
2.85581e-27
-1.21177e-26
1.65173e-27
-1.16863e-26
6.29574e-27
-9.25194e-27
2.20046e-27
-4.56515e-27
3.36446e-27
-1.51275e-27
-2.17728e-27
4.62395e-27
-4.9398e-27
2.4638e-27
-1.21835e-27
-1.62973e-27
-5.10939e-27
-5.06077e-27
-1.3087e-27
-8.34842e-27
-3.70909e-27
-7.84027e-27
-1.01406e-27
-1.09253e-26
1.70866e-27
-1.04578e-26
-2.51914e-27
-6.40967e-27
-9.80314e-28
-5.76691e-27
-2.2757e-27
-6.66356e-28
-4.63296e-27
-2.74686e-27
-3.69343e-25
-3.70696e-22
1.42128e-25
-7.09873e-25
3.08874e-25
-4.04383e-25
2.35566e-25
-6.81295e-26
8.06203e-26
1.1072e-25
-1.03955e-25
2.50983e-25
-2.44032e-25
3.0004e-25
-2.84086e-25
2.43259e-25
-1.97203e-25
8.55104e-26
-2.3327e-26
-8.32565e-26
1.55016e-25
-2.06391e-25
2.75196e-25
-2.47209e-25
3.05527e-25
-1.85708e-25
2.45308e-25
-6.89967e-26
1.1937e-25
7.37444e-26
-2.0807e-26
1.66434e-25
-1.11608e-25
1.8224e-25
-1.21586e-25
1.24891e-25
-6.03422e-26
3.06086e-26
2.98807e-26
-5.41621e-26
1.08063e-25
-9.85194e-26
1.48083e-25
-9.22745e-26
1.48158e-25
-5.28644e-26
1.19597e-25
-5.49783e-28
7.68022e-26
4.10642e-26
3.4596e-26
5.92318e-26
1.28164e-26
4.26949e-26
2.19226e-26
9.62362e-27
4.58097e-26
-1.90814e-26
5.80514e-26
-2.51186e-26
4.94048e-26
-1.49404e-26
4.09563e-26
-6.59217e-27
3.86741e-26
8.9587e-27
3.49985e-26
1.88529e-26
2.5268e-26
3.02234e-26
2.05156e-26
2.00595e-26
3.26897e-26
6.5909e-27
3.87947e-26
1.81349e-27
3.50298e-26
-9.6307e-27
1.86293e-26
-2.43847e-27
1.35202e-27
-1.24915e-26
-1.22337e-26
-1.38087e-27
-3.13208e-26
2.48229e-27
-3.34788e-26
-5.80954e-28
-3.24232e-26
1.38678e-26
-2.34639e-26
1.9036e-27
-1.22522e-26
1.346e-26
-2.2815e-27
-3.83076e-27
1.47586e-26
-9.18596e-27
8.17923e-27
-1.66326e-27
-2.75668e-27
-1.52329e-26
-1.43857e-26
-2.07856e-27
-2.26319e-26
-1.47078e-26
-2.15056e-26
-5.65673e-27
-3.17112e-26
1.81374e-27
-2.82541e-26
-1.15697e-26
-1.89337e-26
-2.42072e-27
-1.38036e-26
-1.15754e-26
-3.00375e-27
-1.43824e-26
-9.29585e-27
-5.37254e-25
-3.70001e-22
2.42556e-25
-1.29864e-24
5.24541e-25
-9.21875e-25
4.11724e-25
-2.26013e-25
1.63555e-25
1.26955e-25
-1.46732e-25
4.42691e-25
-3.91004e-25
5.87069e-25
-4.76968e-25
5.33583e-25
-3.43734e-25
2.44116e-25
-6.00571e-26
-9.01691e-26
2.41425e-25
-3.72884e-25
4.52536e-25
-4.96994e-25
5.15641e-25
-4.08804e-25
4.26086e-25
-1.92663e-25
2.19878e-25
9.62861e-26
-1.70613e-26
3.03778e-25
-1.76738e-25
3.6604e-25
-2.02129e-25
2.75832e-25
-1.05395e-25
9.30848e-26
4.44398e-26
-8.79794e-26
1.78041e-25
-1.95029e-25
2.49679e-25
-1.97446e-25
2.53996e-25
-1.21983e-25
2.09144e-25
-1.3165e-26
1.38437e-25
7.80033e-26
6.55727e-26
1.22819e-25
2.57379e-26
9.83968e-26
3.86064e-26
3.57186e-26
7.86502e-26
-2.92996e-26
9.9481e-26
-5.40215e-26
8.57282e-26
-4.42448e-26
7.30502e-26
-2.69694e-26
7.09329e-26
5.06564e-27
6.6548e-26
2.64646e-26
4.92312e-26
5.44935e-26
4.0766e-26
4.32302e-26
5.98004e-26
2.97696e-26
6.87975e-26
2.0665e-26
6.12425e-26
-8.14393e-28
3.17417e-26
7.98455e-27
4.03535e-27
-1.99537e-26
-1.95862e-26
-4.09118e-27
-5.06861e-26
-8.88145e-27
-5.3782e-26
-1.26991e-26
-5.19616e-26
1.32896e-26
-3.57045e-26
-4.05458e-27
-1.92262e-26
2.89981e-26
-1.70185e-27
-6.32314e-28
2.61766e-26
-2.46731e-27
1.51062e-26
3.61114e-27
-2.63839e-27
-2.35857e-26
-2.33892e-26
-7.15623e-28
-3.57812e-26
-3.13112e-26
-3.42072e-26
-1.29036e-26
-5.21563e-26
-3.19285e-27
-4.49823e-26
-2.65832e-26
-3.12452e-26
-3.95946e-27
-2.01987e-26
-2.73996e-26
-5.54839e-27
-2.67418e-26
-1.90266e-26
-7.58478e-25
-3.6899e-22
3.37379e-25
-2.09236e-24
7.42269e-25
-1.64695e-24
5.98528e-25
-4.84e-25
2.6189e-25
9.23756e-26
-1.74283e-25
6.55632e-25
-5.29274e-25
9.50513e-25
-6.70045e-25
9.34028e-25
-4.9735e-25
4.90845e-25
-1.06546e-25
-5.38041e-26
3.20046e-25
-5.62987e-25
6.2719e-25
-8.20292e-25
7.30065e-25
-7.19746e-25
6.17432e-25
-3.85377e-25
3.3349e-25
9.47393e-26
-2.07618e-27
4.63439e-25
-2.35483e-25
6.03317e-25
-2.81232e-25
4.85432e-25
-1.51985e-25
1.93009e-25
5.70779e-26
-1.18047e-25
2.4779e-25
-3.16908e-25
3.53613e-25
-3.40676e-25
3.64776e-25
-2.22098e-25
3.05657e-25
-3.75833e-26
2.07502e-25
1.23919e-25
1.0239e-25
2.08597e-25
4.21409e-26
1.78316e-25
5.7619e-26
7.91753e-26
1.142e-25
-3.57671e-26
1.43967e-25
-9.17288e-26
1.24926e-25
-9.03983e-26
1.08239e-25
-6.26682e-26
1.07273e-25
-8.1756e-27
1.02771e-25
3.12482e-26
7.72339e-26
8.38418e-26
6.4401e-26
7.64071e-26
9.01954e-26
7.10557e-26
1.02153e-25
5.71684e-26
9.0264e-26
2.36309e-26
4.68663e-26
2.95642e-26
8.35654e-27
-2.5615e-26
-2.59577e-26
-8.316e-27
-6.95629e-26
-3.17378e-26
-7.38166e-26
-3.49336e-26
-7.10309e-26
4.39106e-27
-4.7368e-26
-1.47403e-26
-2.59824e-26
5.02782e-26
-4.79283e-28
8.40874e-27
3.87074e-26
1.70103e-26
2.32043e-26
1.62097e-26
-1.86706e-27
-2.85693e-26
-3.22446e-26
3.1513e-27
-4.8461e-26
-5.25352e-26
-4.65404e-26
-2.16837e-26
-7.25281e-26
-1.27963e-26
-6.16988e-26
-4.67699e-26
-4.33726e-26
-5.16369e-27
-2.60686e-26
-4.89284e-26
-7.90135e-27
-4.0778e-26
-3.1908e-26
-9.90335e-25
-3.67644e-22
4.19564e-25
-3.08253e-24
9.61059e-25
-2.58635e-24
7.95347e-25
-8.49209e-25
3.75512e-25
-1.56223e-27
-1.86208e-25
8.81976e-25
-6.57968e-25
1.38557e-24
-8.62175e-25
1.44449e-24
-6.57269e-25
8.30135e-25
-1.62628e-25
3.30583e-26
3.90526e-25
-7.70088e-25
7.98611e-25
-1.21358e-24
9.48372e-25
-1.11903e-24
8.1916e-25
-6.51015e-25
4.60416e-25
6.36588e-26
2.47948e-26
6.40616e-25
-2.86959e-25
8.91636e-25
-3.58107e-25
7.54297e-25
-1.99722e-25
3.33172e-25
6.77288e-26
-1.41e-25
3.16997e-25
-4.61883e-25
4.59624e-25
-5.2162e-25
4.80433e-25
-3.54438e-25
4.09188e-25
-7.55742e-26
2.8412e-25
1.77429e-25
1.45342e-25
3.15986e-25
6.24828e-26
2.82899e-25
7.93435e-26
1.41292e-25
1.52581e-25
-3.69441e-26
1.91531e-25
-1.37476e-25
1.67131e-25
-1.53719e-25
1.4669e-25
-1.14612e-25
1.47668e-25
-3.181e-26
1.43433e-25
3.2365e-26
1.09048e-25
1.17558e-25
9.12415e-26
1.1957e-25
1.23707e-25
1.3112e-25
1.38745e-25
1.12443e-25
1.22142e-25
6.50399e-26
6.42294e-26
6.3359e-26
1.45576e-26
-2.84744e-26
-3.11222e-26
-1.37919e-26
-8.78233e-26
-6.63367e-26
-9.36534e-26
-6.78557e-26
-8.99007e-26
-1.3712e-26
-5.88174e-26
-3.0773e-26
-3.2787e-26
7.66851e-26
1.13236e-27
2.34905e-26
5.20741e-26
4.99161e-26
3.22707e-26
3.6836e-26
-5.39625e-28
-2.93976e-26
-4.09839e-26
9.83404e-27
-6.08234e-26
-7.79889e-26
-5.87314e-26
-3.20477e-26
-9.30274e-26
-2.73346e-26
-7.86062e-26
-7.23357e-26
-5.55264e-26
-6.30099e-27
-3.16365e-26
-7.63282e-26
-1.01662e-26
-5.63855e-26
-4.798e-26
-1.22521e-24
-3.65957e-22
4.91649e-25
-4.25658e-24
1.17971e-24
-3.74262e-24
1.00161e-24
-1.32877e-24
5.04697e-25
-1.63788e-25
-1.81483e-25
1.11325e-24
-7.75666e-25
1.88689e-24
-1.05196e-24
2.06445e-24
-8.22739e-25
1.26631e-24
-2.28408e-25
1.77839e-25
4.52095e-25
-9.87159e-25
9.65814e-25
-1.6728e-24
1.16984e-24
-1.60682e-24
1.03107e-24
-9.93468e-25
6.01082e-25
-2.67239e-27
6.45031e-26
8.30145e-25
-3.30039e-25
1.2283e-24
-4.31846e-25
1.08294e-24
-2.48206e-25
5.16451e-25
7.62745e-26
-1.53264e-25
3.85265e-25
-6.27428e-25
5.67352e-25
-7.39743e-25
6.00844e-25
-5.20208e-25
5.19849e-25
-1.29097e-25
3.68569e-25
2.36875e-25
1.94856e-25
4.44232e-25
8.72596e-26
4.12572e-25
1.04163e-25
2.23426e-25
1.93958e-25
-3.12032e-26
2.42238e-25
-1.90325e-25
2.12475e-25
-2.34299e-25
1.8857e-25
-1.8357e-25
1.92192e-25
-6.68917e-26
1.88495e-25
2.88683e-26
1.44636e-25
1.54817e-25
1.21271e-25
1.7254e-25
1.60316e-25
2.10443e-25
1.786e-25
1.87446e-25
1.57008e-25
1.24698e-25
8.40889e-26
1.10486e-25
2.29139e-26
-2.73998e-26
-3.48282e-26
-2.00449e-26
-1.05292e-25
-1.12722e-25
-1.1328e-25
-1.119e-25
-1.08704e-25
-4.1881e-26
-7.02701e-26
-5.27985e-26
-3.98149e-26
1.07548e-25
2.97612e-27
4.46944e-26
6.61095e-26
9.67975e-26
4.22124e-26
6.61347e-26
1.32125e-27
-2.52555e-26
-4.95856e-26
1.96861e-26
-7.29129e-26
-1.07274e-25
-7.08891e-26
-4.40427e-26
-1.13748e-25
-4.71403e-26
-9.5814e-26
-1.03463e-25
-6.7824e-26
-7.67097e-27
-3.70246e-26
-1.09756e-25
-1.2402e-26
-7.35199e-26
-6.73562e-26
-1.46633e-24
-3.63921e-22
5.54018e-25
-5.60615e-24
1.39684e-24
-5.11567e-24
1.2167e-24
-1.92964e-24
6.49847e-25
-4.03609e-25
-1.58811e-25
1.34014e-24
-8.80646e-25
2.4482e-24
-1.23779e-24
2.79261e-24
-9.92945e-25
1.80333e-24
-3.0407e-25
3.88183e-25
5.03798e-25
-1.20651e-24
1.12757e-24
-2.19305e-24
1.39357e-24
-2.18266e-24
1.25289e-24
-1.41643e-24
7.55985e-25
-1.10234e-25
1.1815e-25
1.02631e-24
-3.63438e-25
1.61001e-24
-5.01428e-25
1.47149e-24
-2.96983e-25
7.45661e-25
8.25884e-26
-1.51024e-25
4.52144e-25
-8.10615e-25
6.7637e-25
-9.94138e-25
7.25838e-25
-7.20444e-25
6.37761e-25
-2.00211e-25
4.61197e-25
3.00328e-25
2.51436e-25
5.92317e-25
1.17008e-25
5.6761e-25
1.3248e-25
3.26914e-25
2.38523e-25
-1.68206e-26
2.96178e-25
-2.49138e-25
2.61088e-25
-3.31988e-25
2.34046e-25
-2.70161e-25
2.40965e-25
-1.14461e-25
2.38008e-25
1.97206e-26
1.84045e-25
1.94658e-25
1.54548e-25
2.34979e-25
2.00073e-25
3.0933e-25
2.2181e-25
2.83018e-25
1.95041e-25
2.03866e-25
1.06729e-25
1.72128e-25
3.37309e-26
-2.11176e-26
-3.67964e-26
-2.64248e-26
-1.21758e-25
-1.70758e-25
-1.32638e-25
-1.67407e-25
-1.27508e-25
-8.09722e-26
-8.18805e-26
-8.15139e-26
-4.72048e-26
1.42101e-25
4.93264e-27
7.19967e-26
8.06918e-26
1.58103e-25
5.29853e-26
1.04733e-25
3.72956e-27
-1.52779e-26
-5.7998e-26
3.31194e-26
-8.47202e-26
-1.39941e-25
-8.30661e-26
-5.77012e-26
-1.34735e-25
-7.25392e-26
-1.13391e-25
-1.40331e-25
-8.03439e-26
-9.61193e-27
-4.23122e-26
-1.49365e-25
-1.46496e-26
-9.21767e-26
-9.01929e-26
-1.71495e-24
-3.61526e-22
6.0518e-25
-7.12325e-24
1.61091e-24
-6.70434e-24
1.43986e-24
-2.65844e-24
8.11367e-25
-7.30587e-25
-1.1676e-25
1.55254e-24
-9.70987e-25
3.06227e-24
-1.41786e-24
3.62677e-24
-1.16695e-24
2.44471e-24
-3.89774e-25
6.71851e-25
5.44595e-25
-1.41984e-24
1.2825e-24
-2.76855e-24
1.61846e-24
-2.84535e-24
1.48424e-24
-1.92331e-24
9.25616e-25
-2.65179e-25
1.86914e-25
1.22287e-24
-3.85757e-25
2.0329e-24
-5.65723e-25
1.91966e-24
-3.4553e-25
1.0235e-24
8.65677e-26
-1.30272e-25
5.1716e-25
-1.00815e-24
7.86191e-25
-1.28355e-24
8.55189e-25
-9.56007e-25
7.63027e-25
-2.91043e-25
5.62382e-25
3.65623e-25
3.15636e-25
7.58971e-25
1.52305e-25
7.48131e-25
1.64726e-25
4.53064e-25
2.86498e-25
8.02805e-27
3.53459e-25
-3.12579e-25
3.13101e-25
-4.46414e-25
2.83281e-25
-3.74855e-25
2.94129e-25
-1.7554e-25
2.92066e-25
3.8026e-27
2.27371e-25
2.35979e-25
1.91172e-25
3.06383e-25
2.43068e-25
4.27906e-25
2.68505e-25
3.99882e-25
2.3645e-25
3.03778e-25
1.32459e-25
2.49537e-25
4.7343e-26
-8.20289e-27
-3.67183e-26
-3.21064e-26
-1.36979e-25
-2.40128e-25
-1.51635e-25
-2.34616e-25
-1.46345e-25
-1.31834e-25
-9.3771e-26
-1.17673e-25
-5.50785e-26
1.79455e-25
6.89882e-27
1.05263e-25
9.572e-26
2.34174e-25
6.4571e-26
1.53241e-25
6.72213e-27
1.44883e-27
-6.61479e-26
5.0604e-26
-9.62034e-26
-1.75469e-25
-9.52825e-26
-7.30339e-26
-1.56004e-25
-1.03841e-25
-1.31383e-25
-1.83106e-25
-9.31446e-26
-1.24967e-26
-4.75578e-26
-1.95302e-25
-1.69403e-26
-1.12383e-25
-1.16684e-25
-1.97061e-24
-3.58764e-22
6.43423e-25
-8.79829e-24
1.82024e-24
-8.50639e-24
1.67023e-24
-3.52135e-24
9.89603e-25
-1.15447e-24
-5.38482e-26
1.73952e-24
-1.04462e-24
3.72082e-24
-1.59021e-24
4.5637e-24
-1.34366e-24
3.19336e-24
-4.85609e-25
1.03665e-24
5.73416e-25
-1.61825e-24
1.4291e-24
-3.3926e-24
1.84328e-24
-3.59291e-24
1.72465e-24
-2.51711e-24
1.11042e-24
-4.73777e-25
2.72008e-25
1.41309e-24
-3.95506e-25
2.49247e-24
-6.2349e-25
2.42666e-24
-3.93233e-25
1.35249e-24
8.8151e-26
-8.68303e-26
5.79831e-25
-1.21637e-24
8.96283e-25
-1.60634e-24
9.88614e-25
-1.22756e-24
8.95724e-25
-4.03771e-25
6.72508e-25
4.30367e-25
3.8804e-25
9.42663e-25
1.93766e-25
9.5408e-25
2.0137e-25
6.03148e-25
3.38134e-25
4.52689e-26
4.14206e-25
-3.79114e-25
3.6865e-25
-5.76975e-25
3.36443e-25
-4.97978e-25
3.51838e-25
-2.51123e-25
3.50791e-25
-2.0082e-26
2.74739e-25
2.77531e-25
2.31271e-25
3.86072e-25
2.89415e-25
5.66103e-25
3.18841e-25
5.38635e-25
2.81466e-25
4.25631e-25
1.61611e-25
3.44022e-25
6.4113e-26
1.29257e-26
-3.42543e-26
-3.60854e-26
-1.50679e-25
-3.20317e-25
-1.70147e-25
-3.13664e-25
-1.65218e-25
-1.953e-25
-1.06044e-25
-1.62088e-25
-6.355e-26
2.1859e-25
8.77762e-27
1.44242e-25
1.11103e-25
3.25238e-25
7.69666e-26
2.12248e-25
1.03524e-26
2.58845e-26
-7.39437e-26
7.26702e-26
-1.07296e-25
-2.13257e-25
-1.07536e-25
-9.0023e-26
-1.77555e-25
-1.41332e-25
-1.49825e-25
-2.3195e-25
-1.06274e-25
-1.67304e-26
-5.28087e-26
-2.47707e-25
-1.92999e-26
-1.34194e-25
-1.47058e-25
-2.23277e-24
-3.55629e-22
6.6715e-25
-1.06202e-23
2.02298e-24
-1.05182e-23
1.90675e-24
-4.52396e-24
1.18479e-24
-1.68508e-24
3.14008e-26
1.8894e-24
-1.09938e-24
4.41449e-24
-1.75269e-24
5.59904e-24
-1.52183e-24
4.0515e-24
-5.91546e-25
1.49036e-24
5.89204e-25
-1.79225e-24
1.56576e-24
-4.05758e-24
2.06666e-24
-4.42247e-24
1.97346e-24
-3.2004e-24
1.31076e-24
-7.42353e-25
3.74648e-25
1.58973e-24
-3.9112e-25
2.98352e-24
-6.73377e-25
2.99116e-24
-4.39378e-25
1.73493e-24
8.73348e-26
-1.63847e-26
6.39674e-25
-1.43124e-24
1.00607e-24
-1.96048e-24
1.12578e-24
-1.53553e-24
1.03589e-24
-5.4059e-25
7.91958e-25
4.91952e-25
4.69261e-25
1.14159e-24
2.42043e-25
1.1852e-24
2.42917e-25
7.78373e-25
3.93711e-25
9.69232e-26
4.78561e-25
-4.46999e-25
4.27873e-25
-7.22828e-25
3.93694e-25
-6.39687e-25
4.14252e-25
-3.42165e-25
4.14319e-25
-5.31997e-26
3.26291e-25
3.17911e-25
2.7499e-25
4.73184e-25
3.39244e-25
7.23646e-25
3.7299e-25
6.99738e-25
3.30339e-25
5.7058e-25
1.94539e-25
4.56953e-25
8.44326e-26
4.40087e-26
-2.90321e-26
-3.71712e-26
-1.6255e-25
-4.10604e-25
-1.88022e-25
-4.04566e-25
-1.84106e-25
-2.72178e-25
-1.1879e-25
-2.1563e-25
-7.27297e-26
2.58347e-25
1.04725e-26
1.88553e-25
1.26753e-25
4.31397e-25
9.01779e-26
2.82317e-25
1.46869e-26
5.90306e-26
-8.12769e-26
9.99111e-26
-1.17912e-25
-2.52613e-25
-1.19805e-25
-1.08615e-25
-1.99372e-25
-1.85269e-25
-1.68742e-25
-2.8701e-25
-1.19774e-25
-2.27494e-26
-5.81064e-26
-3.06716e-25
-2.17512e-26
-1.57687e-25
-1.81571e-25
-2.50117e-24
-3.52116e-22
6.74764e-25
-1.25766e-23
2.21715e-24
-1.27346e-23
2.14815e-24
-5.67119e-24
1.39702e-24
-2.33227e-24
1.40412e-25
1.98976e-24
-1.13302e-24
5.13283e-24
-1.90297e-24
6.72719e-24
-1.69999e-24
5.02054e-24
-7.07409e-25
2.04061e-24
5.9095e-25
-1.93186e-24
1.69085e-24
-4.75487e-24
2.28708e-24
-5.3302e-24
2.2299e-24
-3.97514e-24
1.5269e-24
-1.0772e-24
4.96029e-25
1.7451e-24
-3.70973e-25
3.50021e-24
-7.13924e-25
3.61124e-24
-4.83142e-25
2.17283e-24
8.41884e-26
8.54732e-26
6.96221e-25
-1.64837e-24
1.11494e-24
-2.34351e-24
1.26628e-24
-1.88008e-24
1.18351e-24
-7.03685e-25
9.21092e-25
5.47565e-25
5.59922e-25
1.35366e-24
2.97828e-25
1.441e-24
2.89914e-25
9.79863e-25
4.53545e-25
1.65094e-25
5.46684e-25
-5.14287e-25
4.90915e-25
-8.82875e-25
4.552e-25
-7.9996e-25
4.81536e-25
-4.4956e-25
4.82796e-25
-9.68763e-26
3.82185e-25
3.55562e-25
3.22489e-25
5.66657e-25
3.927e-25
9.00037e-25
4.31138e-25
8.83495e-25
3.83335e-25
7.39711e-25
2.31619e-25
5.89744e-25
1.08722e-25
8.69466e-26
-2.06447e-26
-3.39773e-26
-1.72249e-25
-5.10041e-25
-2.05077e-25
-5.07207e-25
-2.02967e-25
-3.63237e-25
-1.32086e-25
-2.79222e-25
-8.27261e-26
2.97418e-25
1.18839e-26
2.37677e-25
1.42581e-25
5.5261e-25
1.04217e-25
3.63974e-25
1.98039e-26
1.01924e-25
-8.80225e-26
1.32986e-25
-1.27948e-25
-2.92748e-25
-1.32053e-25
-1.28714e-25
-2.21431e-25
-2.35874e-25
-1.88154e-25
-3.4842e-25
-1.33683e-25
-3.10198e-26
-6.34902e-26
-3.72457e-25
-2.43153e-26
-1.82968e-25
-2.20509e-25
-2.77561e-24
-3.48222e-22
6.64624e-25
-1.4654e-23
2.40061e-24
-1.51489e-23
2.39298e-24
-6.96711e-24
1.62619e-24
-3.1057e-24
2.74513e-25
2.02748e-24
-1.14325e-24
5.86426e-24
-2.03857e-24
7.94127e-24
-1.87649e-24
6.10092e-24
-8.32844e-25
2.69477e-24
5.77727e-25
-2.02661e-24
1.80266e-24
-5.47486e-24
2.50289e-24
-6.31124e-24
2.493e-24
-4.84263e-24
1.75896e-24
-1.48449e-24
6.37296e-25
1.87108e-24
-3.33399e-25
4.03596e-24
-7.43563e-25
4.28428e-24
-5.23577e-25
2.66781e-24
7.88687e-26
2.23193e-25
7.49036e-25
-1.86302e-24
1.22226e-24
-2.75256e-24
1.40967e-24
-2.26106e-24
1.3385e-24
-8.95188e-25
1.06025e-24
5.9421e-25
6.60658e-25
1.57651e-24
3.61842e-25
1.72075e-24
3.4295e-25
1.20863e-24
5.17985e-25
2.51949e-25
6.18757e-25
-5.78822e-25
5.57927e-25
-1.05575e-24
5.21127e-25
-9.78571e-25
5.53854e-25
-5.74117e-25
5.56377e-25
-1.52484e-25
4.42588e-25
3.88777e-25
3.73939e-25
6.65225e-25
4.49937e-25
1.09453e-24
4.93479e-25
1.09003e-24
4.4073e-25
9.34031e-25
2.73246e-25
7.4385e-25
1.37431e-25
1.43797e-25
-8.64895e-27
-2.49132e-26
-1.79395e-25
-6.1744e-25
-2.21095e-25
-6.21316e-25
-2.21734e-25
-4.69187e-25
-1.46e-25
-3.53839e-25
-9.36463e-26
3.34348e-25
1.29076e-26
2.90944e-25
1.58497e-25
6.88682e-25
1.19097e-25
4.57699e-25
2.57913e-26
1.55628e-25
-9.40396e-26
1.7262e-25
-1.37281e-25
-3.32771e-25
-1.44228e-25
-1.50172e-25
-2.43694e-25
-2.93322e-25
-2.08077e-25
-4.16302e-25
-1.48038e-25
-4.20357e-26
-6.89988e-26
-4.45053e-25
-2.7012e-26
-2.10163e-25
-2.64183e-25
-3.05593e-24
-3.43946e-22
6.35071e-25
-1.68378e-23
2.57111e-24
-1.77526e-23
2.63956e-24
-8.4148e-24
1.87199e-24
-4.01479e-24
4.34896e-25
1.98889e-24
-1.12777e-24
6.59609e-24
-2.15689e-24
9.23295e-24
-2.04946e-24
7.29203e-24
-9.67287e-25
3.45982e-24
5.48723e-25
-2.06569e-24
1.8995e-24
-6.20701e-24
2.71234e-24
-7.35965e-24
2.76164e-24
-5.80339e-24
2.00693e-24
-1.97017e-24
7.99517e-25
1.95918e-24
-2.76708e-25
4.58351e-24
-7.60623e-25
5.007e-24
-5.59613e-25
3.22108e-24
7.16361e-26
4.01207e-25
7.97724e-25
-2.07013e-24
1.32736e-24
-3.18429e-24
1.55543e-24
-2.67799e-24
1.50075e-24
-1.11714e-24
1.20971e-24
6.28731e-25
7.72099e-25
1.80747e-24
4.34839e-25
2.02346e-24
4.02658e-25
1.46553e-24
5.8742e-25
3.59699e-25
6.94988e-25
-6.38248e-25
6.29072e-25
-1.2398e-24
5.91642e-25
-1.17507e-24
6.31372e-25
-7.16543e-25
6.35217e-25
-2.21423e-25
5.07674e-25
4.157e-25
4.29516e-25
7.67408e-25
5.11114e-25
1.30613e-24
5.60211e-25
1.31929e-24
5.02814e-25
1.15444e-24
3.19834e-25
9.20744e-25
1.71037e-25
2.16767e-25
7.43652e-27
-8.1767e-27
-1.83566e-25
-7.31353e-25
-2.3582e-25
-7.4645e-25
-2.40313e-25
-5.90661e-25
-1.60586e-25
-4.40497e-25
-1.05596e-25
3.67533e-25
1.34329e-26
3.47519e-25
1.74404e-25
8.39247e-25
1.34833e-25
5.63908e-25
3.27458e-26
2.21221e-25
-9.91708e-26
2.19609e-25
-1.45774e-25
-3.71684e-25
-1.5626e-25
-1.72781e-25
-2.66114e-25
-3.57735e-25
-2.28519e-25
-4.9076e-25
-1.62873e-25
-5.63171e-26
-7.46717e-26
-5.24626e-25
-2.98605e-26
-2.39425e-25
-3.12928e-25
-3.34194e-24
-3.39287e-22
5.8447e-25
-1.91124e-23
2.72627e-24
-2.05357e-23
2.88597e-24
-1.00162e-23
2.13387e-24
-5.06852e-24
6.2257e-25
1.85981e-24
-1.08431e-24
7.31459e-24
-2.25516e-24
1.05925e-23
-2.21682e-24
8.59201e-24
-1.10994e-24
4.34217e-24
5.03278e-25
-2.03803e-24
1.97968e-24
-6.93981e-24
2.91354e-24
-8.46832e-24
3.0345e-24
-6.85706e-24
2.27058e-24
-2.53984e-24
9.83656e-25
2.00065e-24
-1.99206e-25
5.1349e-24
-7.6334e-25
5.7753e-24
-5.90039e-25
3.83331e-24
6.28694e-26
6.23857e-25
8.41949e-25
-2.26437e-24
1.42958e-24
-3.63489e-24
1.70298e-24
-3.12998e-24
1.67004e-24
-1.37146e-24
1.36973e-24
6.47838e-25
8.94868e-25
2.04359e-24
5.17598e-25
2.3478e-24
4.69713e-25
1.75128e-24
6.62281e-25
4.90571e-25
7.75611e-25
-6.90017e-25
7.04527e-25
-1.43309e-24
6.66915e-25
-1.38874e-24
7.14256e-25
-8.77408e-25
7.19476e-25
-3.05103e-25
5.77625e-25
4.34343e-25
4.89408e-25
8.71504e-25
5.76397e-25
1.53355e-24
6.31539e-25
1.57095e-24
5.6988e-25
1.4017e-24
3.71815e-25
1.1219e-24
2.10045e-25
3.08208e-25
2.81321e-26
1.82528e-26
-1.84297e-25
-8.50056e-25
-2.48956e-25
-8.81971e-25
-2.58583e-25
-7.28192e-25
-1.75885e-25
-5.40242e-25
-1.18677e-25
3.9522e-25
1.33419e-26
4.06392e-25
1.90199e-25
1.00374e-24
1.51438e-25
6.82942e-25
4.07719e-26
2.99783e-25
-1.03243e-25
2.74817e-25
-1.5327e-25
-4.0838e-25
-1.68064e-25
-1.96261e-25
-2.88636e-25
-4.29172e-25
-2.49488e-25
-5.71881e-25
-1.78224e-25
-7.44074e-26
-8.05503e-26
-6.11296e-25
-3.28801e-26
-2.70931e-25
-3.67098e-25
-3.63346e-24
-3.34248e-22
5.11236e-25
-2.14611e-23
2.8636e-24
-2.34864e-23
3.13004e-24
-1.17721e-23
2.41099e-24
-6.27527e-24
8.38316e-25
1.62572e-24
-1.01066e-24
8.005e-24
-2.33053e-24
1.20086e-23
-2.37623e-24
9.99771e-24
-1.25974e-24
5.34755e-24
4.40917e-25
-1.93247e-24
2.04157e-24
-7.66085e-24
3.10452e-24
-9.62897e-24
3.31005e-24
-8.00227e-24
2.54952e-24
-3.19861e-24
1.19054e-24
1.98652e-24
-9.92204e-26
5.68153e-24
-7.49863e-25
6.58433e-24
-6.13507e-25
4.50459e-24
5.30814e-26
8.95324e-25
8.81452e-25
-2.44016e-24
1.52824e-24
-4.10013e-24
1.85169e-24
-3.61576e-24
1.84608e-24
-1.65987e-24
1.5405e-24
6.48148e-25
1.02956e-24
2.28162e-24
6.10916e-25
2.69218e-24
5.44836e-25
2.06633e-24
7.43044e-25
6.46778e-25
8.60894e-25
-7.31402e-25
7.84484e-25
-1.6334e-24
7.47123e-25
-1.61863e-24
8.02668e-25
-1.05712e-24
8.09314e-25
-4.04917e-25
6.52626e-25
4.42589e-25
5.53805e-25
9.75589e-25
6.45953e-25
1.7752e-24
7.07663e-25
1.84449e-24
6.42229e-25
1.67641e-24
4.29633e-25
1.34879e-24
2.54987e-25
4.20595e-25
5.39985e-26
5.66177e-26
-1.81078e-25
-9.7153e-25
-2.60163e-25
-1.02702e-24
-2.76386e-25
-8.82182e-25
-1.91917e-25
-6.54134e-25
-1.32987e-25
4.15517e-25
1.25093e-26
4.66365e-25
2.05772e-25
1.18141e-24
1.68919e-25
8.15044e-25
4.99799e-26
3.92381e-25
-1.06066e-25
3.39175e-25
-1.59598e-25
-4.41638e-25
-1.79538e-25
-2.20253e-25
-3.1119e-25
-5.07619e-25
-2.70983e-25
-6.59728e-25
-1.94124e-25
-9.68697e-26
-8.66786e-26
-7.05181e-25
-3.60898e-26
-3.04889e-25
-4.2707e-25
-3.93031e-24
-3.28832e-22
4.13871e-25
-2.38662e-23
2.98053e-24
-2.65909e-23
3.36936e-24
-1.36816e-23
2.7022e-24
-7.64263e-24
1.08264e-24
1.2719e-24
-9.04737e-25
8.65163e-24
-2.38007e-24
1.34684e-23
-2.52517e-24
1.15045e-23
-1.41534e-24
6.48078e-24
3.61388e-25
-1.73788e-24
2.08363e-24
-8.35694e-24
3.28325e-24
-1.08321e-23
3.5866e-24
-9.23654e-24
2.84311e-24
-3.951e-24
1.42084e-24
1.90777e-24
2.48739e-26
6.21418e-24
-7.18269e-25
7.42839e-24
-6.28525e-25
5.23434e-24
4.29332e-26
1.21954e-24
9.1607e-25
-2.59177e-24
1.6227e-24
-4.57529e-24
2.00088e-24
-4.13357e-24
2.02851e-24
-1.98386e-24
1.72211e-24
6.26218e-25
1.17675e-24
2.51807e-24
7.15605e-25
3.05462e-24
6.28786e-25
2.41095e-24
8.3023e-25
8.30484e-25
9.51141e-25
-7.59518e-25
8.69157e-25
-1.83817e-24
8.32448e-25
-1.86347e-24
8.96776e-25
-1.25589e-24
9.04892e-25
-5.22215e-25
7.32869e-25
4.38223e-25
6.229e-25
1.07752e-24
7.19952e-25
2.0292e-24
7.88783e-25
2.13908e-24
7.20161e-25
1.97898e-24
4.93743e-25
1.60282e-24
3.06419e-25
5.56513e-25
8.56373e-26
1.09383e-25
-1.73349e-25
-1.09345e-24
-2.69047e-25
-1.18048e-24
-2.93526e-25
-1.05287e-24
-2.08682e-25
-7.83232e-25
-1.48618e-25
4.264e-25
1.08022e-26
5.26043e-25
2.21001e-25
1.37125e-24
1.87281e-25
9.60341e-25
6.04853e-26
5.00046e-25
-1.07436e-25
4.13676e-25
-1.64567e-25
-4.70124e-25
-1.90556e-25
-2.44307e-25
-3.33693e-25
-5.92978e-25
-2.92998e-25
-7.5434e-25
-2.10608e-25
-1.24284e-25
-9.31034e-26
-8.06404e-25
-3.95092e-26
-3.41535e-25
-4.93237e-25
-4.23224e-24
-3.23045e-22
2.90994e-25
-2.63095e-23
3.07442e-24
-2.9834e-23
3.60129e-24
-1.57424e-23
3.00604e-24
-9.17722e-24
1.35575e-24
7.83611e-25
-7.64592e-25
9.238e-24
-2.40079e-24
1.49575e-23
-2.66086e-24
1.31061e-23
-1.57509e-24
7.74562e-24
2.64699e-25
-1.44333e-24
2.10443e-24
-9.01413e-24
3.44764e-24
-1.2067e-23
3.86223e-24
-1.05562e-23
3.15047e-24
-4.80077e-24
1.67503e-24
1.7554e-24
1.74626e-25
6.72306e-24
-6.66577e-25
8.30093e-24
-6.33457e-25
6.02122e-24
3.32492e-26
1.60009e-24
9.45752e-25
-2.71332e-24
1.71232e-24
-5.05524e-24
2.14982e-24
-4.68121e-24
2.21687e-24
-2.34466e-24
1.9146e-24
5.78594e-25
1.33697e-24
2.74918e-24
8.32481e-25
3.43284e-24
7.22364e-25
2.78509e-24
9.24411e-25
1.04376e-24
1.0467e-24
-7.71341e-25
9.58783e-25
-2.04457e-24
9.23085e-25
-2.12167e-24
9.96746e-25
-1.47369e-24
1.00637e-24
-6.5827e-25
8.18547e-25
4.18945e-25
6.96893e-25
1.17492e-24
7.98562e-25
2.29334e-24
8.75092e-25
2.4536e-24
8.03973e-25
2.30957e-24
5.64609e-25
1.88533e-24
3.64919e-25
7.18631e-25
1.23691e-25
1.79233e-25
-1.605e-25
-1.21317e-24
-2.7516e-25
-1.34098e-24
-3.09762e-25
-1.24032e-24
-2.26152e-25
-9.28568e-25
-1.65648e-25
4.25726e-25
8.08082e-27
5.83824e-25
2.35758e-25
1.57202e-24
2.06516e-25
1.11882e-24
7.24061e-26
6.23756e-25
-1.07133e-25
4.99374e-25
-1.67967e-25
-4.92393e-25
-2.00976e-25
-2.67868e-25
-3.56052e-25
-6.85051e-25
-3.15521e-25
-8.55726e-25
-2.27707e-25
-1.5724e-25
-9.98748e-26
-9.15092e-25
-4.31582e-26
-3.81136e-25
-5.66009e-25
-4.53896e-24
-3.16892e-22
1.41381e-25
-2.87721e-23
3.14259e-24
-3.31986e-23
3.82294e-24
-1.79506e-23
3.32067e-24
-1.08845e-23
1.65746e-24
1.46318e-25
-5.88488e-25
9.74691e-24
-2.3897e-24
1.64599e-23
-2.78035e-24
1.47946e-23
-1.737e-24
9.14457e-24
1.51154e-25
-1.03832e-24
2.10272e-24
-9.61788e-24
3.59555e-24
-1.33218e-23
4.13485e-24
-1.19563e-23
3.47047e-24
-5.75075e-24
1.95334e-24
1.52057e-24
3.51477e-25
7.19793e-24
-5.92774e-25
9.19455e-24
-6.26524e-25
6.86308e-24
2.50298e-26
2.04014e-24
9.70582e-25
-2.7989e-24
1.79655e-24
-5.53443e-24
2.29773e-24
-5.25596e-24
2.41062e-24
-2.74313e-24
2.11791e-24
5.01864e-25
1.51067e-24
2.97097e-24
9.62353e-25
3.82416e-24
8.26402e-25
3.18839e-24
1.02621e-24
1.28856e-24
1.14795e-24
-7.6374e-25
1.05363e-24
-2.24947e-24
1.01924e-24
-2.39134e-24
1.10275e-24
-1.71025e-24
1.11391e-24
-8.14243e-25
9.09857e-25
3.82405e-25
7.75982e-25
1.26522e-24
8.81949e-25
2.56507e-24
9.66774e-25
2.78659e-24
8.93957e-25
2.6681e-24
6.42694e-25
2.19756e-24
4.31085e-25
9.09672e-25
1.68842e-25
2.69065e-25
-1.41866e-25
-1.32772e-24
-2.77994e-25
-1.50683e-24
-3.248e-25
-1.44434e-24
-2.44265e-25
-1.09112e-24
-1.84145e-25
4.11255e-25
4.19954e-27
6.37897e-25
2.499e-25
1.78223e-24
2.26607e-25
1.2903e-24
8.58609e-26
7.64409e-25
-1.04923e-25
5.9737e-25
-1.69571e-25
-5.06888e-25
-2.10629e-25
-2.90271e-25
-3.78152e-25
-7.83533e-25
-3.38531e-25
-9.63859e-25
-2.45452e-25
-1.96337e-25
-1.07046e-25
-1.03138e-24
-4.70575e-26
-4.23994e-25
-6.45809e-25
-4.85012e-24
-3.10383e-22
-3.59953e-26
-3.12344e-23
3.18237e-24
-3.66659e-23
4.0312e-24
-2.03003e-23
3.6439e-24
-1.27685e-23
1.98719e-24
-6.54118e-25
-3.7495e-25
1.01607e-23
-2.34384e-24
1.79582e-23
-2.88048e-24
1.65604e-23
-1.89876e-24
1.06787e-23
2.13897e-26
-5.12992e-25
2.07745e-24
-1.01532e-23
3.7249e-24
-1.45834e-23
4.40217e-24
-1.34304e-23
3.80168e-24
-6.80273e-24
2.25576e-24
1.19479e-24
5.56724e-25
7.62816e-24
-4.94829e-25
1.0101e-23
-6.05814e-25
7.75689e-24
1.94627e-26
2.54232e-24
9.90799e-25
-2.84267e-24
1.87485e-24
-6.00696e-24
2.44383e-24
-5.85456e-24
2.6091e-24
-3.17977e-24
2.33186e-24
3.9271e-25
1.69826e-24
3.17926e-24
1.10602e-24
4.22556e-24
9.41765e-25
3.62016e-24
1.13629e-24
1.56664e-24
1.25534e-24
-7.33512e-25
1.154e-24
-2.44945e-24
1.12113e-24
-2.6702e-24
1.21495e-24
-1.965e-24
1.22769e-24
-9.91145e-25
1.007e-24
3.26236e-25
8.60369e-25
1.34566e-24
9.70275e-25
2.84151e-24
1.064e-24
3.13624e-24
9.90392e-25
3.05415e-24
7.28461e-25
2.54056e-24
5.05527e-25
1.13238e-24
2.21812e-25
3.81974e-25
-1.16727e-25
-1.43376e-24
-2.76971e-25
-1.67602e-24
-3.3829e-25
-1.66448e-24
-2.62918e-25
-1.27179e-24
-2.04153e-25
3.80668e-25
-9.91606e-28
6.86232e-25
2.63275e-25
2.00009e-24
2.47523e-25
1.47442e-24
1.00966e-25
9.22794e-25
-1.00561e-25
7.08805e-25
-1.69135e-25
-5.1195e-25
-2.19324e-25
-3.10723e-25
-3.99862e-25
-8.87997e-25
-3.61995e-25
-1.07867e-24
-2.63869e-25
-2.42171e-25
-1.14674e-25
-1.1554e-24
-5.12286e-26
-4.70451e-25
-7.33072e-25
-5.16522e-24
-3.03527e-22
-2.41923e-25
-3.36767e-23
3.19111e-24
-4.02156e-23
4.22274e-24
-2.27836e-23
3.97314e-24
-1.48317e-23
2.34391e-24
-1.63117e-24
-1.22815e-25
1.04612e-23
-2.26033e-24
1.94332e-23
-2.95791e-24
1.8392e-23
-2.05769e-24
1.23473e-23
-1.2359e-25
1.41687e-25
2.02783e-24
-1.06047e-23
3.83361e-24
-1.58375e-23
4.66175e-24
-1.49708e-23
4.14242e-24
-7.9573e-24
2.58198e-24
7.70044e-25
7.91486e-25
8.00287e-24
-3.7073e-25
1.10112e-23
-5.69288e-25
8.69865e-24
1.79328e-26
3.10861e-24
1.00682e-24
-2.8389e-24
1.94682e-24
-6.46657e-24
2.58729e-24
-6.47324e-24
2.8116e-24
-3.65461e-24
2.55618e-24
2.47971e-25
1.90006e-24
3.3697e-24
1.26423e-24
4.63365e-24
1.06934e-24
4.0793e-24
1.25539e-24
1.87955e-24
1.36936e-24
-6.7742e-25
1.26024e-24
-2.64082e-24
1.22901e-24
-2.95564e-24
1.33355e-24
-2.237e-24
1.34786e-24
-1.18979e-24
1.11018e-24
2.48093e-25
9.50258e-25
1.41329e-24
1.0637e-24
3.11944e-24
1.16693e-24
3.50038e-24
1.09354e-24
3.46696e-24
8.22366e-25
2.91524e-24
5.88869e-25
1.38947e-24
2.8336e-25
5.21239e-25
-8.43051e-26
-1.52766e-24
-2.71443e-25
-1.84617e-24
-3.49814e-25
-1.89999e-24
-2.81961e-25
-1.47135e-24
-2.25696e-25
3.316e-25
-7.64444e-27
7.2659e-25
2.75717e-25
2.22353e-24
2.69218e-25
1.67058e-24