/*--------------------------------*- C++ -*----------------------------------*\
| =========                 |                                                 |
| \\      /  F ield         | foam-extend: Open Source CFD                    |
|  \\    /   O peration     | Version:     4.0                                |
|   \\  /    A nd           | Web:         http://www.foam-extend.org         |
|    \\/     M anipulation  |                                                 |
\*---------------------------------------------------------------------------*/
FoamFile
{
    version     2.0;
    format      ascii;
    class       surfaceScalarField;
    location    "13";
    object      phi;
}
// * * * * * * * * * * * * * * * * * * * * * * * * * * * * * * * * * * * * * //

dimensions      [0 3 -1 0 0 0 0];

internalField   nonuniform List<scalar> 
13744
(
7.69855e-29
1.07408e-25
1.27835e-29
6.38138e-29
7.65899e-31
1.15772e-29
8.16994e-31
2.77074e-32
-5.30812e-31
1.82967e-30
-1.32711e-30
1.49226e-30
-1.70041e-30
1.09229e-30
-1.57929e-30
4.80887e-31
-1.05613e-30
-1.87927e-31
-3.09576e-31
-7.35104e-31
5.13449e-31
-1.11636e-30
1.15949e-30
-1.15471e-30
1.51382e-30
-9.50457e-31
1.55864e-30
-6.02896e-31
1.37345e-30
-2.43506e-31
1.01661e-30
1.06582e-31
5.78606e-31
3.78981e-31
1.68372e-31
5.14005e-31
-1.18769e-31
4.88235e-31
-2.5071e-31
3.54317e-31
-2.36425e-31
1.76661e-31
-1.16408e-31
1.07045e-32
5.26454e-32
-1.21757e-31
2.27582e-31
-2.2555e-31
3.93237e-31
-2.96676e-31
5.21953e-31
-2.97034e-31
5.64852e-31
-2.16965e-31
5.14378e-31
-1.2037e-31
4.28978e-31
-6.61943e-32
3.52675e-31
-2.35042e-32
2.64716e-31
5.48034e-32
1.52434e-31
1.26657e-31
7.0862e-32
1.24237e-31
7.07961e-32
7.29955e-32
1.24117e-31
4.31549e-32
1.78273e-31
2.90869e-32
2.31053e-31
-1.59191e-32
2.92196e-31
-7.12909e-32
3.24364e-31
-8.18268e-32
2.80625e-31
-5.503e-32
1.6348e-31
-2.96266e-32
5.99933e-34
7.59795e-33
-1.88158e-31
7.43469e-32
-3.67538e-31
1.29431e-31
-4.736e-31
1.28499e-31
-4.67532e-31
1.08467e-31
-3.57315e-31
9.73136e-32
-1.58946e-31
6.33929e-32
1.12145e-31
-3.01588e-32
3.97132e-31
-1.11887e-31
5.90813e-31
-1.32937e-31
6.36686e-31
-1.14246e-31
5.32885e-31
-1.14648e-31
3.35026e-31
-1.07232e-31
6.78317e-32
-6.0145e-32
-1.48009e-31
-3.09945e-32
-2.80657e-31
-1.01168e-32
-2.11426e-31
-5.98229e-32
-1.21036e-31
2.14061e-33
1.91091e-32
1.28058e-28
1.0728e-25
4.27919e-29
1.47644e-28
2.23193e-30
4.98751e-29
3.77627e-30
-2.48244e-30
-1.27274e-30
7.18897e-30
-3.19395e-30
4.69421e-30
-4.98259e-30
4.72482e-30
-4.60984e-30
2.12965e-30
-3.40389e-30
2.53548e-31
-1.16882e-30
-2.05481e-30
1.12138e-30
-3.37688e-30
3.12965e-30
-3.92267e-30
4.29795e-30
-3.40607e-30
4.63841e-30
-2.43782e-30
4.17762e-30
-1.18626e-30
3.18266e-30
3.67948e-32
1.92434e-30
1.06958e-30
7.47408e-31
1.62297e-30
-1.38626e-31
1.66969e-30
-6.15044e-31
1.32016e-30
-6.62203e-31
7.84685e-31
-3.48397e-31
2.14898e-31
1.45971e-31
-2.79196e-31
6.59265e-31
-6.68564e-31
1.12688e-30
-9.16501e-31
1.50063e-30
-9.46325e-31
1.66684e-30
-7.45993e-31
1.57149e-30
-4.70543e-31
1.32652e-30
-2.68167e-31
1.07031e-30
-9.49198e-32
8.03687e-31
1.39449e-31
4.99066e-31
3.37804e-31
2.66185e-31
3.47141e-31
2.42829e-31
2.19902e-31
3.94021e-31
1.1975e-31
5.82007e-31
5.35735e-32
7.62629e-31
-6.53404e-32
9.49507e-31
-1.87789e-31
1.05068e-30
-1.90196e-31
9.17701e-31
-8.73299e-32
5.29256e-31
3.0478e-32
-9.64931e-33
1.69397e-31
-6.00354e-31
3.41486e-31
-1.1579e-30
4.41873e-31
-1.52643e-30
3.77368e-31
-1.54357e-30
2.45121e-31
-1.16518e-30
1.19289e-31
-4.78834e-31
-3.77763e-32
3.90368e-31
-2.85394e-31
1.26289e-30
-4.27518e-31
1.89902e-30
-3.8864e-31
2.08448e-30
-2.18598e-31
1.76608e-30
-1.2898e-31
1.0736e-30
-5.00699e-32
2.12478e-31
7.95557e-33
-4.98138e-31
-3.60013e-32
-8.95617e-31
-1.34481e-31
-7.25335e-31
-3.50222e-31
-4.09174e-31
-1.45027e-31
1.16969e-33
1.86763e-28
1.07095e-25
6.7778e-29
2.64071e-28
4.38565e-30
1.08572e-28
7.65666e-30
-8.66192e-30
-1.62472e-30
1.568e-29
-4.60891e-30
8.7914e-30
-8.18681e-30
1.08729e-29
-7.65089e-30
5.05819e-30
-5.95722e-30
1.92553e-30
-2.24666e-30
-3.28372e-30
1.46907e-30
-5.99149e-30
4.91836e-30
-7.70218e-30
7.00307e-30
-6.96748e-30
7.77588e-30
-5.37989e-30
7.11619e-30
-2.89427e-30
5.52838e-30
-4.41874e-31
3.46641e-30
1.76588e-30
1.52469e-30
3.02454e-30
2.35716e-33
3.32557e-30
-8.81424e-31
2.78764e-30
-1.05091e-30
1.83298e-30
-5.748e-31
7.21243e-31
2.36144e-31
-2.99472e-31
1.08372e-30
-1.12918e-30
1.84742e-30
-1.64881e-30
2.47403e-30
-1.75038e-30
2.79152e-30
-1.44489e-30
2.67902e-30
-9.8528e-31
2.2793e-30
-5.92634e-31
1.83439e-30
-2.29344e-31
1.38944e-30
1.95393e-31
8.99744e-31
5.22409e-31
5.11392e-31
5.47227e-31
4.52729e-31
3.58691e-31
7.01418e-31
1.90425e-31
1.0348e-30
6.33897e-32
1.35143e-30
-1.10107e-31
1.66864e-30
-2.3937e-31
1.84647e-30
-1.6349e-31
1.62309e-30
6.92483e-32
9.39105e-31
3.20741e-31
-8.92199e-33
5.75646e-31
-1.02519e-30
8.05957e-31
-1.98516e-30
8.29862e-31
-2.65288e-30
5.44567e-31
-2.71591e-30
1.46272e-31
-2.04672e-30
-2.13578e-31
-8.22585e-31
-5.42894e-31
6.86882e-31
-8.80258e-31
2.1787e-30
-8.99968e-31
3.30287e-30
-5.62494e-31
3.66166e-30
-5.60602e-33
3.12576e-30
3.18008e-31
1.88698e-30
4.95018e-31
3.86437e-31
4.08264e-31
-8.67355e-31
1.89105e-32
-1.55022e-30
-4.69051e-31
-1.30016e-30
-1.01696e-30
-7.35634e-31
-5.62857e-31
-9.85677e-32
2.59629e-28
1.06837e-25
9.36888e-29
4.26454e-28
7.66957e-30
1.87511e-28
1.21871e-29
-1.80349e-29
-1.53e-30
2.74613e-29
-5.72734e-30
1.38759e-29
-1.12767e-29
1.96677e-29
-1.07251e-29
9.38691e-30
-8.65502e-30
4.94419e-30
-3.51264e-30
-4.34356e-30
1.63887e-30
-8.92121e-30
6.58913e-30
-1.25027e-29
9.67641e-30
-1.16767e-29
1.09732e-29
-9.48938e-30
1.01855e-29
-5.42934e-30
8.04425e-30
-1.38413e-30
5.18749e-30
2.43176e-30
2.46623e-30
4.70874e-30
2.72776e-31
5.4705e-30
-1.06501e-30
4.78407e-30
-1.39983e-30
3.35276e-30
-7.88334e-31
1.5633e-30
3.26657e-31
-1.49568e-31
1.50343e-30
-1.58435e-30
2.56652e-30
-2.4857e-30
3.46133e-30
-2.71032e-30
3.95033e-30
-2.31673e-30
3.83358e-30
-1.67196e-30
3.28387e-30
-1.05453e-30
2.65478e-30
-4.42881e-31
2.03543e-30
2.13365e-31
1.35633e-30
6.75945e-31
8.01609e-31
7.1948e-31
7.01266e-31
4.87963e-31
1.04842e-30
2.64741e-31
1.52777e-30
7.67361e-32
1.97898e-30
-1.30709e-31
2.43035e-30
-2.04629e-31
2.69363e-30
2.58696e-32
2.38219e-30
4.43372e-31
1.39308e-30
8.59742e-31
2.11582e-32
1.23151e-30
-1.43643e-30
1.46363e-30
-2.81989e-30
1.27915e-30
-3.81245e-30
6.01753e-31
-3.93901e-30
-2.26577e-31
-2.97924e-30
-9.35755e-31
-1.20319e-30
-1.4738e-30
9.6861e-31
-1.82091e-30
3.10934e-30
-1.52e-30
4.75572e-30
-6.24317e-31
5.31449e-30
5.6911e-31
4.56868e-30
1.27578e-30
2.77125e-30
1.56572e-30
6.05975e-31
1.16535e-30
-1.22322e-30
1.37293e-31
-2.2216e-30
-1.02355e-30
-1.90863e-30
-2.08666e-30
-1.09195e-30
-1.27461e-30
-3.07025e-31
3.34373e-28
1.06507e-25
1.22646e-28
6.33733e-28
1.21587e-29
2.88532e-28
1.73975e-29
-3.01713e-29
-9.60475e-31
4.25897e-29
-6.52566e-30
1.99502e-29
-1.42298e-29
3.11755e-29
-1.38161e-29
1.52139e-29
-1.14883e-29
9.44081e-30
-4.96608e-30
-5.11173e-30
1.62557e-30
-1.20681e-29
8.13322e-30
-1.82727e-29
1.23084e-29
-1.75273e-29
1.4222e-29
-1.48007e-29
1.33808e-29
-8.85142e-30
1.07304e-29
-2.8596e-30
7.09143e-30
3.00554e-30
3.57751e-30
6.63275e-30
6.78531e-31
8.08438e-30
-1.15992e-30
7.30985e-30
-1.70408e-30
5.36123e-30
-9.8659e-31
2.76911e-30
4.17426e-31
2.01257e-31
1.91752e-30
-2.00814e-30
3.28373e-30
-3.40887e-30
4.46214e-30
-3.81508e-30
5.14286e-30
-3.35788e-30
5.03604e-30
-2.53489e-30
4.34308e-30
-1.66375e-30
3.535e-30
-7.46824e-31
2.74447e-30
1.82542e-31
1.87104e-30
7.87462e-31
1.13869e-30
8.53771e-31
9.887e-31
6.01217e-31
1.43259e-30
3.40553e-31
2.05682e-30
9.39633e-32
2.64126e-30
-1.24772e-31
3.23132e-30
-7.73013e-32
3.58988e-30
3.88268e-31
3.19558e-30
1.0469e-30
1.89638e-30
1.65876e-30
8.98456e-32
2.14773e-30
-1.82308e-30
2.32343e-30
-3.65117e-30
1.79296e-30
-4.99587e-30
5.43679e-31
-5.2079e-30
-8.8638e-31
-3.96467e-30
-2.06538e-30
-1.62966e-30
-2.85204e-30
1.22201e-30
-3.12834e-30
4.04006e-30
-2.30221e-30
6.24468e-30
-5.75859e-31
7.0352e-30
1.51743e-30
6.09477e-30
2.76878e-30
3.73398e-30
3.19331e-30
8.83119e-31
2.31162e-30
-1.55386e-30
3.42572e-31
-2.90141e-30
-1.78935e-30
-2.54796e-30
-3.56902e-30
-1.4795e-30
-2.29924e-30
-6.54989e-31
4.08609e-28
1.06102e-25
1.53549e-28
8.83567e-28
1.79328e-29
4.12303e-28
2.33309e-29
-4.46015e-29
1.26422e-31
6.11188e-29
-6.96721e-30
2.70142e-29
-1.70136e-29
4.54575e-29
-1.69024e-29
2.26394e-29
-1.44472e-29
1.55525e-29
-6.60951e-30
-5.45523e-30
1.41795e-30
-1.5323e-29
9.53478e-30
-2.495e-29
1.48832e-29
-2.45059e-29
1.75099e-29
-2.13454e-29
1.66958e-29
-1.32215e-29
1.35871e-29
-4.94163e-30
9.18434e-30
3.42012e-30
4.86771e-30
8.74791e-30
1.22967e-30
1.11423e-29
-1.15679e-30
1.03627e-29
-1.95644e-30
7.87464e-30
-1.16571e-30
4.36691e-30
5.09053e-31
7.8486e-31
2.32475e-30
-2.3727e-30
3.99728e-30
-4.39806e-30
5.47462e-30
-5.05247e-30
6.36767e-30
-4.56429e-30
6.28638e-30
-3.57807e-30
5.45886e-30
-2.42995e-30
4.47818e-30
-1.15267e-30
3.51981e-30
9.16835e-32
2.44699e-30
8.46057e-31
1.52539e-30
9.40405e-31
1.31644e-30
6.91976e-31
1.85324e-30
4.15021e-31
2.61968e-30
1.1435e-31
3.3357e-30
-9.14369e-32
4.06938e-30
1.46372e-31
4.53418e-30
9.30785e-31
4.06476e-30
1.88872e-30
2.45431e-30
2.72741e-30
2.05809e-31
3.33485e-30
-2.17478e-30
3.39587e-30
-4.46876e-30
2.37835e-30
-6.19472e-30
3.70869e-31
-6.51826e-30
-1.83989e-30
-5.00481e-30
-3.61569e-30
-2.10993e-30
-4.69665e-30
1.4351e-30
-4.82403e-30
4.95774e-30
-3.26498e-30
7.75853e-30
-4.25379e-31
8.81752e-30
2.84411e-30
7.70468e-30
4.81579e-30
4.78254e-30
5.40694e-30
1.22915e-30
3.88095e-30
-1.8482e-30
6.63271e-31
-3.58203e-30
-2.75234e-30
-3.21579e-30
-5.46979e-30
-1.89973e-30
-3.65507e-30
-1.17732e-30
4.83329e-28
1.05625e-25
1.85878e-28
1.17514e-27
2.50743e-29
5.58902e-28
3.00364e-29
-6.08167e-29
1.78093e-30
8.30968e-29
-7.00766e-30
3.50636e-29
-1.95887e-29
6.25664e-29
-1.99575e-29
3.1763e-29
-1.75196e-29
2.34202e-29
-8.44577e-30
-5.23117e-30
1.00251e-30
-1.8565e-29
1.07744e-29
-3.24607e-29
1.7381e-29
-3.25902e-29
2.08211e-29
-2.91501e-29
2.01222e-29
-1.86001e-29
1.66144e-29
-7.7065e-30
1.14728e-29
3.60309e-30
6.34757e-30
1.09994e-29
1.93835e-30
1.46139e-29
-1.04423e-30
1.39364e-29
-2.1481e-30
1.09074e-29
-1.32072e-30
6.38469e-30
6.02777e-31
1.63409e-30
2.72389e-30
-2.64824e-30
4.70482e-30
-5.43086e-30
6.49614e-30
-6.40858e-30
7.62265e-30
-5.93082e-30
7.58401e-30
-4.80471e-30
6.63261e-30
-3.36233e-30
5.48718e-30
-1.67192e-30
4.3649e-30
-7.07424e-32
3.08774e-30
8.40717e-31
1.96492e-30
9.69738e-31
1.68644e-30
7.53527e-31
2.31039e-30
4.8462e-31
3.21486e-30
1.36215e-31
4.06027e-30
-3.11544e-32
4.94281e-30
4.68186e-31
5.52598e-30
1.65805e-30
4.99169e-30
2.97556e-30
3.07236e-30
4.07403e-30
3.77799e-31
4.80338e-30
-2.48103e-30
4.6929e-30
-5.2622e-30
3.0455e-30
-7.40048e-30
8.83476e-32
-7.86578e-30
-3.08913e-30
-6.10131e-30
-5.59625e-30
-2.65166e-30
-7.025e-30
1.5961e-30
-6.93046e-30
5.84942e-30
-4.43041e-30
9.28623e-30
-1.86888e-31
1.06553e-29
4.54777e-30
9.3992e-30
7.43105e-30
5.92436e-30
8.23442e-30
1.65547e-30
5.90924e-30
-2.09498e-30
1.13308e-30
-4.25565e-30
-3.89285e-30
-3.90973e-30
-7.79076e-30
-2.35403e-30
-5.35996e-30
-1.91314e-30
5.58867e-28
1.05074e-25
2.19651e-28
1.50797e-27
3.3667e-29
7.28364e-28
3.75663e-29
-7.82681e-29
4.05834e-30
1.08566e-28
-6.5972e-30
4.40887e-29
-2.19104e-29
8.25444e-29
-2.29505e-29
4.26819e-29
-2.06906e-29
3.31875e-29
-1.04766e-29
-4.2871e-30
3.65e-31
-2.16608e-29
1.18306e-29
-4.07173e-29
1.97795e-29
-4.17473e-29
2.41376e-29
-3.82348e-29
2.36494e-29
-2.5046e-29
1.98107e-29
-1.12328e-29
1.39633e-29
3.47679e-30
8.02847e-30
1.33261e-29
2.81802e-30
1.84626e-29
-8.09401e-31
1.80206e-29
-2.26894e-30
1.44714e-29
-1.44557e-30
8.8497e-30
7.00519e-31
2.78262e-30
3.11389e-30
-2.80302e-30
5.40376e-30
-6.48249e-30
7.52359e-30
-7.86751e-30
8.90516e-30
-7.45083e-30
8.92784e-30
-6.21694e-30
7.86532e-30
-4.4694e-30
6.56461e-30
-2.31596e-30
5.2832e-30
-3.16481e-31
3.79708e-30
7.60254e-31
2.4608e-30
9.31994e-31
2.10103e-30
7.78767e-31
2.80452e-30
5.45078e-31
3.84128e-30
1.56905e-31
4.81321e-30
5.43445e-32
5.85001e-30
8.88123e-31
6.56488e-30
2.57252e-30
5.97848e-30
4.3122e-30
3.75621e-30
5.70588e-30
6.14785e-31
6.56382e-30
-2.73095e-30
6.22779e-30
-6.02047e-30
3.80751e-30
-8.60411e-30
-2.94768e-31
-9.24571e-30
-4.63184e-30
-7.2555e-30
-8.01337e-30
-3.26233e-30
-9.8531e-30
1.69313e-30
-9.47121e-30
6.70174e-30
-5.82431e-30
1.08162e-29
1.20004e-31
1.25422e-29
6.62119e-30
1.11788e-29
1.06244e-29
7.16683e-30
1.17023e-29
2.17373e-30
8.43453e-30
-2.28236e-30
1.79097e-30
-4.91389e-30
-5.18538e-30
-4.62697e-30
-1.05295e-29
-2.84359e-30
-7.43114e-30
-2.90584e-30
6.34962e-28
1.04447e-25
2.54921e-28
1.88126e-27
4.37924e-29
9.2071e-28
4.59744e-29
-9.63687e-29
7.01753e-30
1.37564e-28
-5.68162e-30
5.40728e-29
-2.39288e-29
1.05421e-28
-2.58457e-29
5.54885e-29
-2.39414e-29
4.49991e-29
-1.27017e-29
-2.46148e-30
-5.08595e-31
-2.44642e-29
1.26804e-29
-4.96181e-29
2.2054e-29
-5.19324e-29
2.74382e-29
-4.86114e-29
2.72648e-29
-3.26151e-29
2.31729e-29
-1.56007e-29
1.66613e-29
2.95849e-30
9.92199e-30
1.56598e-29
3.88297e-30
2.26452e-29
-4.38248e-31
2.25992e-29
-2.30757e-30
1.85752e-29
-1.53314e-30
1.1788e-29
8.04959e-31
4.26471e-30
3.49404e-30
-2.80342e-30
6.09142e-30
-7.52579e-30
8.55354e-30
-9.41108e-30
1.02121e-29
-9.11583e-30
1.03163e-29
-7.81543e-30
9.15755e-30
-5.75877e-30
7.71284e-30
-3.09592e-30
6.27818e-30
-6.57408e-31
4.57893e-30
5.93302e-31
3.01674e-30
8.17189e-31
2.56278e-30
7.60118e-31
3.33642e-30
5.91328e-31
4.49809e-30
1.7275e-31
5.59284e-30
1.62005e-31
6.78942e-30
1.40436e-30
7.65047e-30
3.67453e-30
7.02731e-30
5.90156e-30
4.51163e-30
7.62908e-30
9.26023e-31
8.62663e-30
-2.91311e-30
8.01517e-30
-6.73188e-30
4.68033e-30
-9.79585e-30
-7.65337e-31
-1.06526e-29
-6.4615e-30
-8.46824e-30
-1.087e-29
-3.9493e-30
-1.31955e-29
1.71403e-30
-1.2471e-29
7.50072e-30
-7.47629e-30
1.23362e-29
4.69989e-31
1.44707e-29
9.05108e-30
1.30436e-29
1.44013e-29
8.51729e-30
1.58355e-29
2.79597e-30
1.14971e-29
-2.3978e-30
2.68133e-30
-5.54758e-30
-6.59823e-30
-5.36412e-30
-1.3679e-29
-3.36929e-30
-9.88504e-30
-4.20319e-30
7.11295e-28
1.03747e-25
2.91662e-28
2.29394e-27
5.55288e-29
1.13588e-27
5.53154e-29
-1.14495e-28
1.072e-29
1.70121e-28
-4.20304e-30
6.49927e-29
-2.55893e-29
1.31212e-28
-2.86028e-29
7.02692e-29
-2.72493e-29
5.89995e-29
-1.51182e-29
4.15674e-31
-1.63131e-30
-2.68164e-29
1.33005e-29
-5.90463e-29
2.41778e-29
-6.30872e-29
3.06997e-29
-6.02824e-29
3.0953e-29
-4.13593e-29
2.6696e-29
-2.08912e-29
1.95715e-29
1.96071e-30
1.20394e-29
1.79258e-29
5.14801e-30
2.71114e-29
8.42991e-32
2.76507e-29
-2.25144e-30
2.32235e-29
-1.57522e-30
1.5224e-29
9.19623e-31
6.11489e-30
3.8641e-30
-2.61404e-30
6.76519e-30
-8.53108e-30
9.58233e-30
-1.10187e-29
1.15402e-29
-1.09153e-29
1.17475e-29
-9.59925e-30
1.05095e-29
-7.23699e-30
8.93395e-30
-4.02249e-30
7.35318e-30
-1.10541e-30
5.43729e-30
3.28355e-31
3.63666e-30
6.15105e-31
3.07451e-30
6.89477e-31
3.90709e-30
6.17444e-31
5.18461e-30
1.78991e-31
6.39755e-30
2.87373e-31
7.75939e-30
2.01319e-30
8.78226e-30
4.9622e-30
8.1403e-30
7.74459e-30
5.3445e-30
9.84852e-30
1.32106e-30
1.10021e-29
-3.01556e-30
1.00709e-29
-7.38395e-30
5.6828e-30
-1.0965e-29
-1.30613e-30
-1.20804e-29
-8.56728e-30
-9.73983e-30
-1.41658e-29
-4.71976e-30
-1.70653e-29
1.64634e-30
-1.59556e-29
8.23165e-30
-9.4198e-30
1.38328e-29
8.31857e-31
1.64327e-29
1.18178e-29
1.49928e-29
1.87621e-29
9.98286e-30
2.06573e-29
3.53459e-30
1.51391e-29
-2.42795e-30
3.85409e-30
-6.14659e-30
-8.09305e-30
-6.11708e-30
-1.72269e-29
-3.93165e-30
-1.27369e-29
-5.85729e-30
7.87609e-28
1.02971e-25
3.29819e-28
2.74476e-27
6.89494e-29
1.37372e-27
6.56433e-29
-1.31987e-28
1.52291e-29
2.06259e-28
-2.10044e-30
7.68177e-29
-2.68328e-29
1.59917e-28
-3.11764e-29
8.71026e-29
-3.05868e-29
7.53313e-29
-1.77198e-29
4.5218e-30
-3.01454e-30
-2.85457e-29
1.36672e-29
-6.88692e-29
2.61228e-29
-7.51392e-29
3.38962e-29
-7.32396e-29
3.46962e-29
-5.13251e-29
3.03726e-29
-2.71854e-29
2.26967e-29
3.91661e-31
1.43915e-29
2.00426e-29
6.62824e-30
3.18033e-29
7.74178e-31
3.31469e-29
-2.0868e-30
2.84168e-29
-1.56239e-30
1.91799e-29
1.04899e-30
8.36757e-30
4.22441e-30
-2.19791e-30
7.42268e-30
-9.46625e-30
1.06061e-29
-1.2667e-29
1.28854e-29
-1.28362e-29
1.32188e-29
-1.15655e-29
1.19207e-29
-8.90928e-30
1.02297e-29
-5.10573e-30
8.51141e-30
-1.67227e-30
6.37616e-30
-4.61645e-32
4.32459e-30
3.15298e-31
3.63924e-30
5.58188e-31
4.51774e-30
6.16597e-31
5.9003e-30
1.69719e-31
7.22574e-30
4.24506e-31
8.75819e-30
2.70892e-30
9.9596e-30
6.4314e-30
9.31946e-30
9.84016e-30
6.2607e-30
1.23678e-29
1.80967e-30
1.37005e-29
-3.02578e-30
1.24122e-29
-7.96338e-30
6.83665e-30
-1.21e-29
-1.89571e-30
-1.35217e-29
-1.09337e-29
-1.10699e-29
-1.78964e-29
-5.58058e-30
-2.14736e-29
1.47737e-30
-1.99517e-29
8.87907e-30
-1.16922e-29
1.52916e-29
1.16826e-30
1.84188e-29
1.48948e-29
1.7025e-29
2.37018e-29
1.15703e-29
2.61888e-29
4.40227e-30
1.94046e-29
-2.35863e-30
5.36481e-30
-6.6998e-30
-9.62449e-30
-6.8809e-30
-2.11553e-29
-4.53071e-30
-1.60006e-29
-7.92442e-30
8.63652e-28
1.02122e-25
3.69327e-28
3.23228e-27
8.41211e-29
1.63394e-27
7.70109e-29
-1.48155e-28
2.0609e-29
2.45995e-28
6.89706e-31
8.95097e-29
-2.7596e-29
1.91516e-28
-3.35159e-29
1.06057e-28
-3.39215e-29
9.41332e-29
-2.04962e-29
1.00406e-29
-4.66741e-30
-2.94683e-29
1.37572e-29
-7.89379e-29
2.78596e-29
-8.8e-29
3.69995e-29
-8.74623e-29
3.84737e-29
-6.25522e-29
3.41928e-29
-3.45629e-29
2.60381e-29
-1.84412e-30
1.69882e-29
2.19216e-29
8.33876e-30
3.66554e-29
1.64805e-30
3.90527e-29
-1.79879e-30
3.41499e-29
-1.48404e-30
2.36748e-29
1.19858e-30
1.10566e-29
4.57604e-30
-1.51678e-30
8.0618e-30
-1.02968e-29
1.16211e-29
-1.43302e-29
1.42437e-29
-1.48634e-29
1.47276e-29
-1.37092e-29
1.33907e-29
-1.07793e-29
1.16015e-29
-6.35488e-30
9.75585e-30
-2.3695e-30
7.39952e-30
-5.4181e-31
5.08468e-30
-9.2861e-32
4.26018e-30
3.57034e-31
5.16978e-30
5.81019e-31
6.64473e-30
1.37805e-31
8.07579e-30
5.65884e-31
9.78395e-30
3.48379e-30
1.11816e-29
8.07551e-30
1.05666e-29
1.21849e-29
7.26604e-30
1.51889e-29
2.40184e-30
1.67314e-29
-2.93076e-30
1.50573e-29
-8.45602e-30
8.1666e-30
-1.31881e-29
-2.50824e-30
-1.49684e-29
-1.35406e-29
-1.24571e-29
-2.20535e-29
-6.53824e-30
-2.64295e-29
1.19424e-30
-2.44867e-29
9.42675e-30
-1.43347e-29
1.66971e-29
1.43547e-30
2.04183e-29
1.82483e-29
1.91374e-29
2.92095e-29
1.32859e-29
3.2448e-29
5.4119e-30
2.43393e-29
-2.17482e-30
7.27468e-30
-7.19491e-30
-1.11397e-29
-7.64961e-30
-2.54398e-29
-5.16591e-30
-1.96878e-29
-1.04649e-29
9.39159e-28
1.01199e-25
4.10114e-28
3.7549e-27
1.01103e-28
1.91619e-27
8.94685e-29
-1.62277e-28
2.69243e-29
2.89341e-28
4.2329e-30
1.03023e-28
-2.78113e-29
2.25973e-28
-3.55656e-29
1.27188e-28
-3.72154e-29
1.15538e-28
-2.34327e-29
1.71603e-29
-6.59608e-30
-2.93885e-29
1.35482e-29
-8.90865e-29
2.93578e-29
-1.01565e-28
3.99791e-29
-1.02916e-28
4.22621e-29
-7.50722e-29
3.81441e-29
-4.31009e-29
2.95947e-29
-4.84496e-30
1.98378e-29
2.34681e-29
1.02944e-29
4.15939e-29
2.72315e-30
4.53253e-29
-1.37145e-30
4.04121e-29
-1.32827e-30
2.87245e-29
1.37509e-30
1.42146e-29
4.92088e-30
-5.31413e-31
8.68089e-30
-1.09859e-29
1.26235e-29
-1.59797e-29
1.56107e-29
-1.69786e-29
1.62703e-29
-1.60229e-29
1.49181e-29
-1.28488e-29
1.30504e-29
-7.77812e-30
1.10892e-29
-3.20814e-30
8.51125e-30
-1.16998e-30
5.92115e-30
-6.20118e-31
4.94071e-30
7.62606e-32
5.86481e-30
5.01975e-31
7.41761e-30
7.48453e-32
8.94613e-30
7.0232e-31
1.08347e-29
4.32779e-30
1.24472e-29
9.88536e-30
1.18832e-29
1.4773e-29
8.36617e-30
1.83122e-29
3.10764e-30
2.01041e-29
-2.71703e-30
1.80257e-29
-8.84694e-30
9.7003e-30
-1.42155e-29
-3.11336e-30
-1.6411e-29
-1.63624e-29
-1.38991e-29
-2.66245e-29
-7.59861e-30
-3.19396e-29
7.84066e-31
-2.95884e-29
9.85779e-30
-1.73923e-29
1.80323e-29
1.58315e-30
2.24191e-29
2.18369e-29
2.13262e-29
3.52675e-29
1.51353e-29
3.94496e-29
6.57643e-30
2.99895e-29
-1.86069e-30
9.65044e-30
-7.61848e-30
-1.2578e-29
-8.41616e-30
-3.00488e-29
-5.83599e-30
-2.38079e-29
-1.35426e-29
1.01385e-27
1.00203e-25
4.52096e-28
4.3108e-27
1.19946e-28
2.21997e-27
1.03063e-28
-1.73604e-28
3.42386e-29
3.36302e-28
8.59593e-30
1.17306e-28
-2.74077e-29
2.6323e-28
-3.72645e-29
1.50538e-28
-4.04246e-29
1.39669e-28
-2.65091e-29
2.60724e-29
-8.80312e-30
-2.81003e-29
1.30194e-29
-9.91327e-29
3.05865e-29
-1.15711e-28
4.28026e-29
-1.19551e-28
4.60348e-29
-8.89064e-29
4.22105e-29
-5.28729e-29
3.33629e-29
-8.71114e-30
2.29476e-29
2.45813e-29
1.25095e-29
4.65371e-29
4.01709e-30
5.1914e-29
-7.87803e-31
4.71861e-29
-1.08189e-30
3.43403e-29
1.58644e-30
1.78725e-29
5.26183e-30
7.97953e-31
9.27889e-30
-1.14949e-29
1.36096e-29
-1.75841e-29
1.69819e-29
-1.91609e-29
1.78432e-29
-1.84965e-29
1.65012e-29
-1.51175e-29
1.45767e-29
-9.38233e-30
1.25139e-29
-4.19859e-30
9.71506e-30
-1.94179e-30
6.83827e-30
-1.27724e-30
5.68439e-30
-2.9439e-31
6.60464e-30
3.69765e-31
8.21883e-30
-2.88753e-32
9.83519e-30
8.22885e-31
1.19082e-29
5.22857e-30
1.3755e-29
1.1849e-29
1.32705e-29
1.75961e-29
9.5665e-30
2.1736e-29
3.93714e-30
2.3827e-29
-2.37075e-30
2.13376e-29
-9.12035e-30
1.14684e-29
-1.51672e-29
-3.67604e-30
-1.78388e-29
-1.93682e-29
-1.53926e-29
-3.15915e-29
-8.76679e-30
-3.80072e-29
2.34087e-31
-3.52847e-29
1.01547e-29
-2.09137e-29
1.92793e-29
1.55423e-30
2.44074e-29
2.56108e-29
2.3586e-29
4.18507e-29
1.7123e-29
4.72039e-29
7.90869e-30
3.64023e-29
-1.3997e-30
1.25642e-29
-7.9558e-30
-1.38706e-29
-9.17224e-30
-3.49428e-29
-6.53884e-30
-2.83669e-29
-1.72247e-29
1.08744e-27
9.91356e-26
4.95174e-28
4.898e-27
1.40689e-28
2.5447e-27
1.17837e-28
-1.81362e-28
4.2614e-29
3.86878e-28
1.38461e-29
1.323e-28
-2.63108e-29
3.03207e-28
-3.85462e-29
1.76133e-28
-4.34992e-29
1.66639e-28
-2.96997e-29
3.69687e-29
-1.12867e-29
-2.53881e-29
1.21522e-29
-1.08878e-28
3.1515e-29
-1.30298e-28
4.54355e-29
-1.37301e-28
4.97623e-29
-1.04065e-28
4.63732e-29
-6.39468e-29
3.73364e-29
-1.35437e-29
2.63224e-29
2.51549e-29
1.49974e-29
5.13953e-29
5.54765e-30
5.87595e-29
-2.99308e-32
5.44471e-29
-7.30395e-31
4.05288e-29
1.84194e-30
2.20589e-29
5.60289e-30
2.51114e-30
9.85544e-30
-1.1783e-29
1.4576e-29
-1.91094e-29
1.83524e-29
-2.13864e-29
1.94423e-29
-2.11172e-29
1.81377e-29
-1.75829e-29
1.61807e-29
-1.11728e-29
1.40318e-29
-5.35037e-30
1.10145e-29
-2.86787e-30
7.84031e-30
-2.07492e-30
6.49494e-30
-7.65612e-31
7.3913e-30
1.73734e-31
9.04842e-30
-1.84411e-31
1.07415e-29
9.14841e-31
1.30023e-29
6.17136e-30
1.51031e-29
1.39515e-29
1.47292e-29
2.06428e-29
1.08721e-29
2.54567e-29
4.90029e-30
2.79076e-29
-1.87781e-30
2.50141e-29
-9.25978e-30
1.35043e-29
-1.60271e-29
-4.15642e-30
-1.92395e-29
-2.25213e-29
-1.69324e-29
-3.69316e-29
-1.00469e-29
-4.46322e-29
-4.68129e-31
-4.16029e-29
1.02994e-29
-2.49509e-29
2.04187e-29
1.28474e-30
2.63679e-29
2.95113e-29
2.59099e-29
4.89258e-29
1.92526e-29
5.57161e-29
9.42121e-30
4.36244e-29
-7.74663e-31
1.6093e-29
-8.19089e-30
-1.49401e-29
-9.90815e-30
-4.0074e-29
-7.27141e-30
-3.33671e-29
-2.15808e-29
1.15962e-27
9.79981e-26
5.39235e-28
5.51435e-27
1.63359e-28
2.88968e-27
1.33827e-28
-1.84759e-28
5.211e-29
4.41065e-28
2.00505e-29
1.47941e-28
-2.44436e-29
3.45801e-28
-3.93395e-29
2.03979e-28
-4.63827e-29
1.96549e-28
-3.29723e-29
5.00396e-29
-1.404e-29
-2.10287e-29
1.0931e-29
-1.18107e-28
3.21129e-29
-1.45167e-28
4.78419e-29
-1.56082e-28
5.34123e-29
-1.20544e-28
5.06096e-29
-7.63833e-29
4.15054e-29
-1.9443e-29
2.99649e-29
2.5078e-29
1.77703e-29
5.60706e-29
7.33254e-30
6.5794e-29
9.20889e-31
6.21626e-29
-2.57943e-31
4.72904e-29
2.15231e-30
2.67991e-29
5.9493e-30
4.64746e-30
1.0411e-29
-1.18082e-29
1.55198e-29
-2.05189e-29
1.97175e-29
-2.36283e-29
2.10628e-29
-2.38688e-29
1.9825e-29
-2.02397e-29
1.78616e-29
-1.3153e-29
1.56447e-29
-6.67188e-30
1.24129e-29
-3.95819e-30
8.93153e-30
-3.02358e-30
7.37625e-30
-1.34845e-30
8.22706e-30
-9.76823e-32
9.90664e-30
-4.04151e-31
1.16636e-29
9.63609e-31
1.41145e-29
7.13881e-30
1.64896e-29
1.61748e-29
1.62595e-29
2.38988e-29
1.22874e-29
2.9468e-29
6.00678e-30
3.23522e-29
-1.22397e-30
2.90768e-29
-9.24805e-30
1.58443e-29
-1.67779e-29
-4.50981e-30
-2.05993e-29
-2.5779e-29
-1.85122e-29
-4.26158e-29
-1.14417e-29
-5.18105e-29
-1.33446e-30
-4.85694e-29
1.02736e-29
-2.95591e-29
2.143e-29
7.03849e-31
2.82832e-29
3.34709e-29
2.82888e-29
5.64505e-29
2.15261e-29
6.49851e-29
1.1126e-29
5.17012e-29
3.21234e-32
2.03188e-29
-8.30649e-30
-1.57004e-29
-1.06127e-29
-4.53849e-29
-8.02951e-30
-3.88062e-29
-2.66826e-29
1.23011e-27
9.67923e-26
5.84151e-28
6.15752e-27
1.87971e-28
3.2541e-27
1.51064e-28
-1.82984e-28
6.27822e-29
4.98855e-28
2.72747e-29
1.64162e-28
-2.17269e-29
3.90885e-28
-3.95682e-29
2.34062e-28
-4.90119e-29
2.2948e-28
-3.62877e-29
6.5471e-29
-1.70503e-29
-1.47932e-29
9.3439e-30
-1.2659e-28
3.23511e-29
-1.60138e-28
4.99847e-29
-1.75789e-28
5.69495e-29
-1.38326e-28
5.48936e-29
-9.02341e-29
4.58569e-29
-2.65076e-29
3.38751e-29
2.42359e-29
2.0839e-29
6.04578e-29
9.38912e-30
7.29402e-29
2.08404e-30
7.02916e-29
3.52579e-31
5.46191e-29
2.52979e-30
3.21146e-29
6.30769e-30
7.24504e-30
1.09472e-29
-1.15275e-29
1.64383e-29
-2.17739e-29
2.10725e-29
-2.58566e-29
2.27e-29
-2.67322e-29
2.15596e-29
-2.30797e-29
1.96185e-29
-1.53243e-29
1.73534e-29
-8.17012e-30
1.39132e-29
-5.22184e-30
1.01161e-29
-4.13329e-30
8.33235e-30
-2.05418e-30
9.11444e-30
-4.5689e-31
1.0794e-29
-7.01793e-31
1.26001e-29
9.52742e-31
1.52422e-29
8.11097e-30
1.79118e-29
1.84978e-29
1.78611e-29
2.73464e-29
1.38166e-29
3.37608e-29
7.26588e-30
3.71651e-29
-3.94973e-31
3.35473e-29
-9.06739e-30
1.85272e-29
-1.74009e-29
-4.68659e-30
-2.19028e-29
-2.90921e-29
-2.01237e-29
-4.86086e-29
-1.29526e-29
-5.95327e-29
-2.37596e-30
-5.6209e-29
1.00588e-29
-3.4796e-29
2.22915e-29
-2.66069e-31
3.01344e-29
3.74121e-29
3.07117e-29
6.43729e-29
2.39437e-29
7.50027e-29
1.30341e-29
6.06762e-29
1.0387e-30
2.53271e-29
-8.28406e-30
-1.6057e-29
-1.1273e-29
-5.08081e-29
-8.80767e-30
-4.46764e-29
-3.26023e-29
1.29859e-27
9.552e-26
6.29783e-28
6.82502e-27
2.14524e-28
3.63704e-27
1.69569e-28
-1.75213e-28
7.46816e-29
5.60241e-28
3.55824e-29
1.80893e-28
-1.80803e-29
4.38309e-28
-3.91517e-29
2.66347e-28
-5.13169e-29
2.65496e-28
-3.95994e-29
8.34415e-29
-2.02983e-29
-6.44913e-30
7.38335e-30
-1.34084e-28
3.22023e-29
-1.75014e-28
5.18259e-29
-1.96299e-28
6.03359e-29
-1.57375e-28
5.91954e-29
-1.0554e-28
5.03738e-29
-3.4832e-29
3.80497e-29
2.25113e-29
2.4212e-29
6.44445e-29
1.17341e-29
8.01122e-29
3.47936e-30
7.87839e-29
1.11951e-30
6.25014e-29
2.98815e-30
3.8022e-29
6.6862e-30
1.03401e-29
1.14667e-29
-1.08972e-29
1.73298e-29
-2.28333e-29
2.24126e-29
-2.80384e-29
2.43487e-29
-2.96849e-29
2.33377e-29
-2.60917e-29
2.14495e-29
-1.76856e-29
1.91585e-29
-9.85043e-30
1.5518e-29
-6.66677e-30
1.13982e-29
-5.41348e-30
9.36738e-30
-2.89417e-30
1.00562e-29
-9.17036e-31
1.17113e-29
-1.09229e-30
1.355e-29
8.63949e-31
1.63829e-29
9.0652e-30
1.93669e-29
2.08959e-29
1.9533e-29
3.09643e-29
1.54626e-29
3.83229e-29
8.68629e-30
4.2349e-29
6.23261e-31
3.84471e-29
-8.69961e-30
2.1594e-29
-1.78764e-29
-4.63232e-30
-2.31328e-29
-3.24049e-29
-2.17566e-29
-5.48678e-29
-1.45792e-29
-6.77842e-29
-3.60258e-30
-6.45437e-29
9.63653e-30
-4.07211e-29
2.29804e-29
-1.7092e-30
3.19002e-29
4.12479e-29
3.31651e-29
7.26301e-29
2.65037e-29
8.5752e-29
1.51556e-29
7.05892e-29
2.26323e-30
3.12069e-29
-8.10382e-30
-1.59062e-29
-1.18747e-29
-5.62653e-29
-9.59903e-30
-5.09632e-29
-3.94118e-29
1.36477e-27
9.41836e-26
6.75976e-28
7.51421e-27
2.43002e-28
4.03748e-27
1.89357e-28
-1.60616e-28
8.78526e-29
6.25214e-28
4.50334e-29
1.98064e-28
-1.34232e-29
4.87898e-28
-3.80054e-29
3.00773e-28
-5.32211e-29
3.04637e-28
-4.28529e-29
1.04119e-28
-2.37573e-29
4.23643e-30
5.04736e-30
-1.40332e-28
3.16419e-29
-1.89578e-28
5.33278e-29
-2.17466e-28
6.35312e-29
-1.77636e-28
6.34812e-29
-1.22329e-28
5.50351e-29
-4.45052e-29
4.2482e-29
1.9786e-29
2.78957e-29
6.79117e-29
1.4383e-29
8.72146e-29
5.1269e-30
8.75797e-29
2.0623e-30
7.09156e-29
3.54278e-30
4.45321e-29
7.09459e-30
1.39663e-29
1.19734e-29
-9.87386e-30
1.81932e-29
-2.36543e-29
2.37335e-29
-3.01379e-29
2.60035e-29
-3.27008e-29
2.5155e-29
-2.9261e-29
2.33522e-29
-2.0233e-29
2.10599e-29
-1.17162e-29
1.72296e-29
-8.29956e-30
1.27818e-29
-6.87279e-30
1.04856e-29
-3.8797e-30
1.10555e-29
-1.49188e-30
1.26596e-29
-1.59173e-30
1.45123e-29
6.77145e-31
1.75338e-29
9.97621e-30
2.08515e-29
2.33408e-29
2.12733e-29
3.47274e-29
1.72279e-29
4.31389e-29
1.02759e-29
4.79038e-29
1.84445e-30
4.37971e-29
-8.12616e-30
2.5088e-29
-1.81836e-29
-4.28786e-30
-2.42703e-29
-3.56548e-29
-2.33984e-29
-6.13435e-29
-1.63189e-29
-7.65438e-29
-5.02284e-30
-7.35924e-29
8.98883e-30
-4.73953e-29
2.34732e-29
-3.71594e-30
3.35575e-29
4.4881e-29
3.56331e-29
8.11479e-29
2.9202e-29
9.72067e-29
1.7499e-29
8.14757e-29
3.72378e-30
3.80491e-29
-7.74486e-30
-1.51363e-29
-1.24011e-29
-6.1667e-29
-1.03951e-29
-5.76449e-29
-4.71811e-29
1.42834e-27
9.27857e-26
7.22562e-28
8.22232e-27
2.73369e-28
4.45428e-27
2.1043e-28
-1.38359e-28
1.02333e-28
6.93766e-28
5.5683e-29
2.15606e-28
-7.67575e-30
5.39453e-28
-3.60415e-29
3.37252e-28
-5.46411e-29
3.46917e-28
-4.59856e-29
1.27657e-28
-2.73928e-29
1.74941e-29
2.34017e-30
-1.45067e-28
3.06489e-29
-2.03594e-28
5.44527e-29
-2.39123e-28
6.64931e-29
-1.99037e-28
6.77139e-29
-1.40613e-28
5.98154e-29
-5.56084e-29
4.71613e-29
1.59419e-29
3.18934e-29
7.07354e-29
1.73502e-29
9.41434e-29
7.04668e-30
9.66092e-29
3.20141e-30
7.98309e-29
4.21062e-30
5.16493e-29
7.54431e-30
1.81536e-29
1.24728e-29
-8.41474e-30
1.90286e-29
-2.41928e-29
2.50313e-29
-3.21165e-29
2.76589e-29
-3.57503e-29
2.70065e-29
-3.25696e-29
2.53236e-29
-2.29601e-29
2.30567e-29
-1.37687e-29
1.90496e-29
-1.01251e-29
1.42706e-29
-8.5188e-30
1.16915e-29
-5.02175e-30
1.21156e-29
-2.1956e-30
1.36403e-29
-2.21723e-30
1.54862e-29
3.70542e-31
1.86922e-29
1.0816e-29
2.23617e-29
2.5801e-29
2.30795e-29
3.86068e-29
1.91137e-29
4.81892e-29
1.20417e-29
5.38267e-29
3.28175e-30
4.96169e-29
-7.32836e-30
2.90535e-29
-1.83006e-29
-3.5896e-30
-2.52944e-29
-3.87723e-29
-2.50343e-29
-6.7978e-29
-1.81669e-29
-8.5783e-29
-6.64345e-30
-8.33696e-29
8.09825e-30
-5.48796e-29
2.37454e-29
-6.3823e-30
3.50812e-29
4.82039e-29
3.80966e-29
8.98399e-29
3.20315e-29
1.09329e-28
2.00709e-29
9.33645e-29
5.43798e-30
4.59457e-29