/*--------------------------------*- C++ -*----------------------------------*\
| =========                 |                                                 |
| \\      /  F ield         | foam-extend: Open Source CFD                    |
|  \\    /   O peration     | Version:     4.0                                |
|   \\  /    A nd           | Web:         http://www.foam-extend.org         |
|    \\/     M anipulation  |                                                 |
\*---------------------------------------------------------------------------*/
FoamFile
{
    version     2.0;
    format      ascii;
    class       volVectorField;
    location    "13";
    object      U;
}
// * * * * * * * * * * * * * * * * * * * * * * * * * * * * * * * * * * * * * //

dimensions      [0 1 -1 0 0 0 0];

internalField   nonuniform List<vector> 
6960
(
(6.40739e-15 1.71043e-13 0)
(5.17156e-15 1.02171e-16 0)
(-4.26933e-16 1.12492e-17 0)
(4.21823e-16 3.49115e-19 0)
(-1.51715e-16 2.35885e-18 0)
(1.84912e-17 2.81489e-18 0)
(-2.23932e-16 2.06917e-18 0)
(-1.29693e-16 1.47739e-18 0)
(-1.72858e-16 2.99952e-19 0)
(-5.71548e-17 -7.12249e-19 0)
(-1.11387e-17 -1.65188e-18 0)
(8.55742e-17 -1.85701e-18 0)
(1.24113e-16 -1.68545e-18 0)
(1.60813e-16 -1.28442e-18 0)
(1.48982e-16 -8.37901e-19 0)
(1.24828e-16 -2.06847e-19 0)
(7.99238e-17 4.03918e-19 0)
(4.05971e-17 7.61555e-19 0)
(4.46016e-18 7.80357e-19 0)
(-1.7643e-17 6.26779e-19 0)
(-2.7327e-17 4.17544e-19 0)
(-2.0978e-17 1.91909e-19 0)
(-5.31053e-18 -6.3981e-20 0)
(1.39322e-17 -3.47814e-19 0)
(3.06847e-17 -5.92661e-19 0)
(4.43494e-17 -6.61225e-19 0)
(5.33527e-17 -5.3841e-19 0)
(5.54514e-17 -4.03538e-19 0)
(4.95794e-17 -3.60566e-19 0)
(3.93232e-17 -2.45906e-19 0)
(2.87719e-17 6.91836e-20 0)
(1.90787e-17 3.88668e-19 0)
(1.03793e-17 4.76608e-19 0)
(5.47201e-18 4.24194e-19 0)
(7.1252e-18 4.23761e-19 0)
(1.37034e-17 3.88292e-19 0)
(2.14078e-17 1.34924e-19 0)
(2.85843e-17 -2.41085e-19 0)
(3.44762e-17 -5.10345e-19 0)
(3.49193e-17 -6.39279e-19 0)
(2.59499e-17 -6.92783e-19 0)
(8.74535e-18 -5.81708e-19 0)
(-1.12508e-17 -2.41748e-19 0)
(-3.10232e-17 1.91768e-19 0)
(-4.81968e-17 5.46596e-19 0)
(-5.70405e-17 8.59091e-19 0)
(-5.11018e-17 1.07416e-18 0)
(-2.99607e-17 1.00427e-18 0)
(-1.55699e-18 5.35964e-19 0)
(2.94346e-17 -4.25744e-20 0)
(5.51404e-17 -5.30743e-19 0)
(7.32396e-17 -9.03436e-19 0)
(6.96719e-17 -1.18673e-18 0)
(5.27312e-17 -1.15308e-18 0)
(1.89561e-17 -7.11596e-19 0)
(-5.781e-18 -9.67654e-20 0)
(-3.03845e-17 3.64473e-19 0)
(-2.98656e-17 5.29186e-19 0)
(-2.11375e-17 4.14935e-19 0)
(-6.71179e-18 4.06709e-20 0)
(1.36287e-14 3.55964e-13 0)
(1.01444e-14 3.11756e-16 0)
(-1.10645e-15 7.3297e-17 0)
(1.2891e-15 -5.06709e-18 0)
(-3.8759e-16 9.92514e-18 0)
(9.77571e-17 8.53656e-18 0)
(-6.22033e-16 8.33591e-18 0)
(-3.65279e-16 5.50897e-18 0)
(-5.0721e-16 2.30689e-18 0)
(-1.82299e-16 -1.71246e-18 0)
(-5.43104e-17 -4.88177e-18 0)
(2.27042e-16 -6.10256e-18 0)
(3.44526e-16 -5.66092e-18 0)
(4.6037e-16 -4.58587e-18 0)
(4.35638e-16 -3.10776e-18 0)
(3.72708e-16 -1.0093e-18 0)
(2.46436e-16 1.17064e-18 0)
(1.34111e-16 2.47454e-18 0)
(2.8697e-17 2.66236e-18 0)
(-3.89123e-17 2.22778e-18 0)
(-7.21618e-17 1.5879e-18 0)
(-5.78279e-17 8.38318e-19 0)
(-1.44774e-17 -2.69671e-20 0)
(3.973e-17 -9.88748e-19 0)
(8.66151e-17 -1.82531e-18 0)
(1.26093e-16 -2.09457e-18 0)
(1.54203e-16 -1.71054e-18 0)
(1.62287e-16 -1.24904e-18 0)
(1.45708e-16 -1.09085e-18 0)
(1.1632e-16 -7.37681e-19 0)
(8.72961e-17 2.60341e-19 0)
(6.04448e-17 1.29207e-18 0)
(3.46601e-17 1.55295e-18 0)
(1.95787e-17 1.29826e-18 0)
(2.50097e-17 1.19281e-18 0)
(4.50255e-17 1.02881e-18 0)
(6.68784e-17 2.34715e-19 0)
(8.68571e-17 -9.09436e-19 0)
(1.04429e-16 -1.66265e-18 0)
(1.06318e-16 -1.89831e-18 0)
(7.9019e-17 -1.83927e-18 0)
(2.67187e-17 -1.27635e-18 0)
(-3.27103e-17 -8.7551e-20 0)
(-9.09433e-17 1.24221e-18 0)
(-1.42457e-16 2.17671e-18 0)
(-1.69959e-16 2.88575e-18 0)
(-1.52299e-16 3.23309e-18 0)
(-8.86988e-17 2.68869e-18 0)
(-3.71787e-18 9.60365e-19 0)
(8.793e-17 -8.76696e-19 0)
(1.64914e-16 -2.24148e-18 0)
(2.19237e-16 -3.05964e-18 0)
(2.09331e-16 -3.68275e-18 0)
(1.57967e-16 -3.29648e-18 0)
(5.7547e-17 -1.91185e-18 0)
(-1.69173e-17 -9.48669e-20 0)
(-8.99491e-17 9.85015e-19 0)
(-9.01184e-17 1.26546e-18 0)
(-6.42508e-17 9.78453e-19 0)
(-2.08325e-17 9.68018e-20 0)
(2.0222e-14 3.46688e-13 0)
(1.46738e-14 5.80792e-16 0)
(-1.625e-15 2.12666e-16 0)
(2.18635e-15 -2.20239e-17 0)
(-5.65896e-16 2.58084e-17 0)
(2.14286e-16 1.56522e-17 0)
(-9.80252e-16 2.02974e-17 0)
(-5.82056e-16 1.19631e-17 0)
(-8.34176e-16 6.99752e-18 0)
(-3.1753e-16 -2.7123e-18 0)
(-1.1554e-16 -8.96369e-18 0)
(3.44474e-16 -1.2587e-17 0)
(5.43219e-16 -1.18063e-17 0)
(7.43711e-16 -9.98923e-18 0)
(7.1516e-16 -6.73606e-18 0)
(6.21422e-16 -2.4418e-18 0)
(4.20489e-16 2.22482e-18 0)
(2.39311e-16 5.04931e-18 0)
(6.63792e-17 5.70566e-18 0)
(-4.82976e-17 4.94043e-18 0)
(-1.0881e-16 3.66198e-18 0)
(-9.05225e-17 2.05707e-18 0)
(-2.26228e-17 2.60702e-19 0)
(6.37872e-17 -1.67665e-18 0)
(1.38447e-16 -3.3441e-18 0)
(2.02872e-16 -3.94161e-18 0)
(2.51135e-16 -3.23691e-18 0)
(2.66782e-16 -2.28602e-18 0)
(2.4056e-16 -1.89222e-18 0)
(1.93242e-16 -1.23639e-18 0)
(1.47648e-16 5.52587e-19 0)
(1.05128e-16 2.41931e-18 0)
(6.23394e-17 2.84437e-18 0)
(3.66177e-17 2.22348e-18 0)
(4.58725e-17 1.84087e-18 0)
(7.92741e-17 1.46238e-18 0)
(1.1429e-16 1.06525e-19 0)
(1.46029e-16 -1.7623e-18 0)
(1.75354e-16 -2.82186e-18 0)
(1.79332e-16 -2.85444e-18 0)
(1.33767e-16 -2.31696e-18 0)
(4.61915e-17 -9.75439e-19 0)
(-5.21714e-17 1.25309e-18 0)
(-1.48248e-16 3.39704e-18 0)
(-2.34465e-16 4.52923e-18 0)
(-2.81858e-16 5.09472e-18 0)
(-2.5326e-16 5.01187e-18 0)
(-1.47699e-16 3.49231e-18 0)
(-6.65793e-18 1.1881e-19 0)
(1.44757e-16 -2.95012e-18 0)
(2.73355e-16 -4.81167e-18 0)
(3.64654e-16 -5.38199e-18 0)
(3.49838e-16 -5.88635e-18 0)
(2.64425e-16 -4.74922e-18 0)
(9.83539e-17 -2.55755e-18 0)
(-2.61642e-17 1.29152e-19 0)
(-1.47777e-16 1.10136e-18 0)
(-1.50556e-16 1.034e-18 0)
(-1.08557e-16 8.17042e-19 0)
(-3.59278e-17 6.91694e-20 0)
(2.70699e-14 3.21897e-13 0)
(1.964e-14 9.86824e-16 0)
(-1.98555e-15 4.18381e-16 0)
(3.10817e-15 -5.00824e-17 0)
(-6.91611e-16 5.11771e-17 0)
(3.63177e-16 2.45837e-17 0)
(-1.30136e-15 3.91289e-17 0)
(-7.80796e-16 2.15457e-17 0)
(-1.15247e-15 1.51153e-17 0)
(-4.60402e-16 -3.45982e-18 0)
(-1.91815e-16 -1.38523e-17 0)
(4.40746e-16 -2.16869e-17 0)
(7.22355e-16 -2.06789e-17 0)
(1.01174e-15 -1.81487e-17 0)
(9.8722e-16 -1.22594e-17 0)
(8.69878e-16 -4.91595e-18 0)
(6.00645e-16 3.33319e-18 0)
(3.54496e-16 8.42575e-18 0)
(1.15701e-16 1.00124e-17 0)
(-4.7214e-17 8.95194e-18 0)
(-1.37954e-16 6.85935e-18 0)
(-1.19287e-16 4.04685e-18 0)
(-2.99197e-17 9.3427e-19 0)
(8.60926e-17 -2.3471e-18 0)
(1.86618e-16 -5.11113e-18 0)
(2.75322e-16 -6.1825e-18 0)
(3.44481e-16 -5.16845e-18 0)
(3.69015e-16 -3.65442e-18 0)
(3.34381e-16 -2.92677e-18 0)
(2.70442e-16 -1.88858e-18 0)
(2.09805e-16 7.54748e-19 0)
(1.52704e-16 3.49983e-18 0)
(9.30171e-17 4.09584e-18 0)
(5.62275e-17 3.07618e-18 0)
(6.89343e-17 2.37874e-18 0)
(1.15208e-16 1.79067e-18 0)
(1.62451e-16 -3.43396e-20 0)
(2.05183e-16 -2.43841e-18 0)
(2.46347e-16 -3.55748e-18 0)
(2.53124e-16 -3.15945e-18 0)
(1.90002e-16 -1.97346e-18 0)
(6.78757e-17 2.20848e-19 0)
(-6.84562e-17 3.39769e-18 0)
(-2.01668e-16 6.00447e-18 0)
(-3.22846e-16 6.78799e-18 0)
(-3.91381e-16 6.65194e-18 0)
(-3.53363e-16 5.74722e-18 0)
(-2.07502e-16 3.08458e-18 0)
(-1.1919e-17 -1.83083e-18 0)
(1.9796e-16 -5.65779e-18 0)
(3.7827e-16 -7.28283e-18 0)
(5.07492e-16 -6.80897e-18 0)
(4.89877e-16 -6.76558e-18 0)
(3.72054e-16 -4.81301e-18 0)
(1.42299e-16 -2.32804e-18 0)
(-3.20283e-17 4.17083e-19 0)
(-2.02567e-16 4.00066e-19 0)
(-2.10082e-16 -5.26103e-19 0)
(-1.53801e-16 -2.91962e-19 0)
(-5.2064e-17 -1.7216e-19 0)
(3.37342e-14 3.1725e-13 0)
(2.46027e-14 1.54445e-15 0)
(-2.19063e-15 6.86809e-16 0)
(4.05263e-15 -8.72131e-17 0)
(-7.65872e-16 8.64867e-17 0)
(5.43251e-16 3.61585e-17 0)
(-1.58536e-15 6.56756e-17 0)
(-9.60825e-16 3.51258e-17 0)
(-1.46075e-15 2.72871e-17 0)
(-6.09533e-16 -3.62543e-18 0)
(-2.81896e-16 -1.95624e-17 0)
(5.16686e-16 -3.3709e-17 0)
(8.82264e-16 -3.28081e-17 0)
(1.26419e-15 -2.96771e-17 0)
(1.25112e-15 -2.0243e-17 0)
(1.11723e-15 -8.85354e-18 0)
(7.86143e-16 4.25577e-18 0)
(4.78983e-16 1.25474e-17 0)
(1.76072e-16 1.56684e-17 0)
(-3.60148e-17 1.44304e-17 0)
(-1.59634e-16 1.13804e-17 0)
(-1.44026e-16 6.9985e-18 0)
(-3.63426e-17 2.11991e-18 0)
(1.06646e-16 -2.97656e-18 0)
(2.31247e-16 -7.18427e-18 0)
(3.43602e-16 -8.91159e-18 0)
(4.34251e-16 -7.63594e-18 0)
(4.68895e-16 -5.54357e-18 0)
(4.27189e-16 -4.41029e-18 0)
(3.48024e-16 -2.86645e-18 0)
(2.73749e-16 7.57195e-19 0)
(2.03008e-16 4.45408e-18 0)
(1.26553e-16 5.26134e-18 0)
(7.82779e-17 3.89519e-18 0)
(9.38573e-17 2.9419e-18 0)
(1.52252e-16 2.18983e-18 0)
(2.10782e-16 -2.5045e-20 0)
(2.63846e-16 -2.80126e-18 0)
(3.16949e-16 -3.78036e-18 0)
(3.27306e-16 -2.8206e-18 0)
(2.47687e-16 -9.45206e-19 0)
(9.22167e-17 2.06529e-18 0)
(-8.084e-17 6.02924e-18 0)
(-2.50395e-16 8.72728e-18 0)
(-4.06745e-16 8.65957e-18 0)
(-4.97742e-16 7.37303e-18 0)
(-4.5225e-16 5.40282e-18 0)
(-2.68407e-16 1.57632e-18 0)
(-2.03741e-17 -4.63335e-18 0)
(2.46389e-16 -8.6565e-18 0)
(4.78387e-16 -9.27821e-18 0)
(6.46616e-16 -7.04155e-18 0)
(6.28745e-16 -6.0895e-18 0)
(4.80862e-16 -3.37856e-18 0)
(1.89967e-16 -1.13916e-18 0)
(-3.36068e-17 7.93444e-19 0)
(-2.53507e-16 -1.03443e-18 0)
(-2.68072e-16 -3.33688e-18 0)
(-1.99848e-16 -2.30738e-18 0)
(-6.93005e-17 -8.15048e-19 0)
(4.00048e-14 3.18299e-13 0)
(2.93499e-14 2.23589e-15 0)
(-2.2426e-15 1.02197e-15 0)
(5.01871e-15 -1.31784e-16 0)
(-7.88683e-16 1.31859e-16 0)
(7.545e-16 5.05101e-17 0)
(-1.83135e-15 1.00154e-16 0)
(-1.12094e-15 5.30635e-17 0)
(-1.75761e-15 4.38988e-17 0)
(-7.63776e-16 -2.82907e-18 0)
(-3.85032e-16 -2.57972e-17 0)
(5.72521e-16 -4.8481e-17 0)
(1.02271e-15 -4.81767e-17 0)
(1.50042e-15 -4.46689e-17 0)
(1.50601e-15 -3.08395e-17 0)
(1.36267e-15 -1.442e-17 0)
(9.76377e-16 4.84419e-18 0)
(6.12373e-16 1.73185e-17 0)
(2.47272e-16 2.26465e-17 0)
(-1.47167e-17 2.14091e-17 0)
(-1.73671e-16 1.73015e-17 0)
(-1.64518e-16 1.10161e-17 0)
(-4.17768e-17 3.92387e-18 0)
(1.25476e-16 -3.48045e-18 0)
(2.7237e-16 -9.50049e-18 0)
(4.07726e-16 -1.20761e-17 0)
(5.20348e-16 -1.06053e-17 0)
(5.66269e-16 -7.95189e-18 0)
(5.18913e-16 -6.3586e-18 0)
(4.26001e-16 -4.17467e-18 0)
(3.39452e-16 5.64797e-19 0)
(2.55947e-16 5.27365e-18 0)
(1.62883e-16 6.31984e-18 0)
(1.02712e-16 4.66897e-18 0)
(1.20449e-16 3.53032e-18 0)
(1.90056e-16 2.65217e-18 0)
(2.58906e-16 1.15392e-19 0)
(3.21693e-16 -2.86326e-18 0)
(3.86849e-16 -3.48519e-18 0)
(4.01637e-16 -1.81627e-18 0)
(3.06835e-16 8.07471e-19 0)
(1.19565e-16 4.6183e-18 0)
(-8.87539e-17 9.21881e-18 0)
(-2.93774e-16 1.1633e-17 0)
(-4.85479e-16 1.0199e-17 0)
(-6.00334e-16 7.2856e-18 0)
(-5.49642e-16 3.95589e-18 0)
(-3.30619e-16 -1.10997e-18 0)
(-3.26626e-17 -8.39461e-18 0)
(2.89167e-16 -1.20503e-17 0)
(5.72737e-16 -1.08838e-17 0)
(7.81167e-16 -6.12859e-18 0)
(7.65925e-16 -3.84204e-18 0)
(5.90859e-16 -3.5472e-19 0)
(2.41821e-16 1.14256e-18 0)
(-3.01958e-17 1.39493e-18 0)
(-2.99939e-16 -3.11079e-18 0)
(-3.24049e-16 -7.37123e-18 0)
(-2.46585e-16 -5.26688e-18 0)
(-8.76864e-17 -1.97354e-18 0)
(4.58875e-14 3.17863e-13 0)
(3.38855e-14 3.05175e-15 0)
(-2.14402e-15 1.42618e-15 0)
(6.00561e-15 -1.82274e-16 0)
(-7.59648e-16 1.87489e-16 0)
(9.97383e-16 6.76247e-17 0)
(-2.03808e-15 1.42691e-16 0)
(-1.25967e-15 7.55856e-17 0)
(-2.0415e-15 6.52792e-17 0)
(-9.21996e-16 -7.273e-19 0)
(-5.00597e-16 -3.22429e-17 0)
(6.08277e-16 -6.57883e-17 0)
(1.14322e-15 -6.66887e-17 0)
(1.71958e-15 -6.31387e-17 0)
(1.75092e-15 -4.41362e-17 0)
(1.60535e-15 -2.17402e-17 0)
(1.17076e-15 4.97235e-18 0)
(7.54347e-16 2.26414e-17 0)
(3.29209e-16 3.08972e-17 0)
(1.67982e-17 2.98894e-17 0)
(-1.79791e-16 2.46683e-17 0)
(-1.80473e-16 1.61744e-17 0)
(-4.60473e-17 6.43098e-18 0)
(1.42644e-16 -3.77695e-18 0)
(3.1e-16 -1.19833e-17 0)
(4.67653e-16 -1.5608e-17 0)
(6.02635e-16 -1.40266e-17 0)
(6.60955e-16 -1.08522e-17 0)
(6.09438e-16 -8.75736e-18 0)
(5.04336e-16 -5.80311e-18 0)
(4.06869e-16 1.76794e-19 0)
(3.11458e-16 5.9389e-18 0)
(2.01973e-16 7.24051e-18 0)
(1.29502e-16 5.36759e-18 0)
(1.48585e-16 4.11452e-18 0)
(2.28372e-16 3.14441e-18 0)
(3.06544e-16 3.58566e-19 0)
(3.7847e-16 -2.63387e-18 0)
(4.55804e-16 -2.65846e-18 0)
(4.75935e-16 -1.12633e-19 0)
(3.67468e-16 3.33974e-18 0)
(1.5022e-16 7.9536e-18 0)
(-9.17089e-17 1.30448e-17 0)
(-3.3123e-16 1.47861e-17 0)
(-5.58443e-16 1.14448e-17 0)
(-6.98623e-16 6.39114e-18 0)
(-6.45283e-16 1.36137e-18 0)
(-3.94288e-16 -5.06438e-18 0)
(-4.93041e-17 -1.3227e-17 0)
(3.25554e-16 -1.59469e-17 0)
(6.60489e-16 -1.21816e-17 0)
(9.10402e-16 -4.10852e-18 0)
(9.0097e-16 -1.00786e-20 0)
(7.02035e-16 4.32229e-18 0)
(2.98253e-16 4.59449e-18 0)
(-2.11876e-17 2.28765e-18 0)
(-3.4127e-16 -5.81404e-18 0)
(-3.77582e-16 -1.26646e-17 0)
(-2.93892e-16 -9.24191e-18 0)
(-1.07255e-16 -3.71177e-18 0)
(5.14043e-14 3.16241e-13 0)
(3.82287e-14 3.99145e-15 0)
(-1.89806e-15 1.89963e-15 0)
(7.01254e-15 -2.37073e-16 0)
(-6.78277e-16 2.53567e-16 0)
(1.27254e-15 8.74901e-17 0)
(-2.2041e-15 1.93432e-16 0)
(-1.37536e-15 1.02955e-16 0)
(-2.31076e-15 9.18103e-17 0)
(-1.08298e-15 3.07295e-18 0)
(-6.2795e-16 -3.85529e-17 0)
(6.23946e-16 -8.54097e-17 0)
(1.24327e-15 -8.82667e-17 0)
(1.92076e-15 -8.51462e-17 0)
(1.98482e-15 -6.02842e-17 0)
(1.84435e-15 -3.10107e-17 0)
(1.36868e-15 4.44741e-18 0)
(9.04585e-16 2.83646e-17 0)
(4.21831e-16 4.03338e-17 0)
(5.87028e-17 3.98528e-17 0)
(-1.77667e-16 3.35193e-17 0)
(-1.91556e-16 2.25485e-17 0)
(-4.89304e-17 9.7304e-18 0)
(1.58249e-16 -3.78104e-18 0)
(3.44159e-16 -1.45617e-17 0)
(5.23326e-16 -1.94563e-17 0)
(6.80957e-16 -1.78751e-17 0)
(7.52755e-16 -1.42458e-17 0)
(6.9862e-16 -1.16248e-17 0)
(5.82951e-16 -7.7784e-18 0)
(4.75938e-16 -4.40625e-19 0)
(3.69478e-16 6.41007e-18 0)
(2.43798e-16 7.98612e-18 0)
(1.58634e-16 5.965e-18 0)
(1.78173e-16 4.67969e-18 0)
(2.67009e-16 3.65995e-18 0)
(3.53471e-16 7.08057e-19 0)
(4.33962e-16 -2.09673e-18 0)
(5.23604e-16 -1.27486e-18 0)
(5.50049e-16 2.31832e-18 0)
(4.29611e-16 6.68044e-18 0)
(1.84441e-16 1.2099e-17 0)
(-8.9269e-17 1.75277e-17 0)
(-3.62232e-16 1.81926e-17 0)
(-6.25072e-16 1.23886e-17 0)
(-7.9211e-16 4.66526e-18 0)
(-7.38913e-16 -2.42116e-18 0)
(-4.59509e-16 -1.03414e-17 0)
(-7.07348e-17 -1.91841e-17 0)
(3.54892e-16 -2.03863e-17 0)
(7.40888e-16 -1.31845e-17 0)
(1.03363e-15 -9.6443e-19 0)
(1.03345e-15 5.46012e-18 0)
(8.14353e-16 1.07314e-17 0)
(3.59594e-16 9.30521e-18 0)
(-6.03516e-18 3.54033e-18 0)
(-3.76938e-16 -9.11415e-18 0)
(-4.28262e-16 -1.92444e-17 0)
(-3.4163e-16 -1.4293e-17 0)
(-1.2802e-16 -6.13492e-18 0)
(5.65536e-14 3.14356e-13 0)
(4.2375e-14 5.05446e-15 0)
(-1.50867e-15 2.44221e-15 0)
(8.03865e-15 -2.94434e-16 0)
(-5.44133e-16 3.30253e-16 0)
(1.58067e-15 1.10092e-16 0)
(-2.32793e-15 2.52495e-16 0)
(-1.46627e-15 1.35446e-16 0)
(-2.56361e-15 1.23898e-16 0)
(-1.2454e-15 9.00806e-18 0)
(-7.66364e-16 -4.43389e-17 0)
(6.19563e-16 -1.07087e-16 0)
(1.32231e-15 -1.12811e-16 0)
(2.10301e-15 -1.10745e-16 0)
(2.20661e-15 -7.94486e-17 0)
(2.0787e-15 -4.24548e-17 0)
(1.56943e-15 3.04454e-18 0)
(1.06273e-15 3.43071e-17 0)
(5.25075e-16 5.08464e-17 0)
(1.11183e-16 5.12654e-17 0)
(-1.66951e-16 4.38865e-17 0)
(-1.97397e-16 3.02151e-17 0)
(-5.01583e-17 1.3918e-17 0)
(1.72429e-16 -3.40041e-18 0)
(3.74888e-16 -1.71603e-17 0)
(5.7469e-16 -2.35701e-17 0)
(7.55154e-16 -2.21289e-17 0)
(8.41462e-16 -1.81388e-17 0)
(7.86291e-16 -1.49862e-17 0)
(6.61743e-16 -1.01348e-17 0)
(5.46577e-16 -1.32557e-18 0)
(4.2994e-16 6.64813e-18 0)
(2.88335e-16 8.52341e-18 0)
(1.90102e-16 6.44034e-18 0)
(2.09149e-16 5.21713e-18 0)
(3.05817e-16 4.19797e-18 0)
(3.99502e-16 1.1693e-18 0)
(4.87981e-16 -1.2398e-18 0)
(5.90062e-16 6.81675e-19 0)
(6.23837e-16 5.49327e-18 0)
(4.93277e-16 1.08466e-17 0)
(2.22451e-16 1.70732e-17 0)
(-8.10418e-17 2.26864e-17 0)
(-3.86286e-16 2.18678e-17 0)
(-6.84828e-16 1.30384e-17 0)
(-8.80308e-16 2.10489e-18 0)
(-8.30256e-16 -7.41018e-18 0)
(-5.26333e-16 -1.69774e-17 0)
(-9.73229e-17 -2.63117e-17 0)
(3.76588e-16 -2.54136e-17 0)
(8.1323e-16 -1.39194e-17 0)
(1.15019e-15 3.30405e-18 0)
(1.16293e-15 1.26115e-17 0)
(9.27734e-16 1.89533e-17 0)
(4.26126e-16 1.53833e-17 0)
(1.57624e-17 5.25806e-18 0)
(-4.06396e-16 -1.29408e-17 0)
(-4.75673e-16 -2.7107e-17 0)
(-3.89634e-16 -2.04698e-17 0)
(-1.49978e-16 -9.38074e-18 0)
(6.13282e-14 3.12357e-13 0)
(4.63131e-14 6.23813e-15 0)
(-9.80538e-16 3.05387e-15 0)
(9.08288e-15 -3.52484e-16 0)
(-3.56932e-16 4.17688e-16 0)
(1.9224e-15 1.35401e-16 0)
(-2.4081e-15 3.1996e-16 0)
(-1.53057e-15 1.73317e-16 0)
(-2.79817e-15 1.61946e-16 0)
(-1.40777e-15 1.75388e-17 0)
(-9.14979e-16 -4.91775e-17 0)
(5.95267e-16 -1.30518e-16 0)
(1.37985e-15 -1.40186e-16 0)
(2.26538e-15 -1.39963e-16 0)
(2.41518e-15 -1.01783e-16 0)
(2.30734e-15 -5.62974e-17 0)
(1.77226e-15 5.26629e-19 0)
(1.22834e-15 4.02704e-17 0)
(6.38837e-16 6.23061e-17 0)
(1.74414e-16 6.40777e-17 0)
(-1.47282e-16 5.57913e-17 0)
(-1.97599e-16 3.92467e-17 0)
(-4.94225e-17 1.90903e-17 0)
(1.85365e-16 -2.53825e-18 0)
(4.02254e-16 -1.96979e-17 0)
(6.21701e-16 -2.78925e-17 0)
(8.25072e-16 -2.67604e-17 0)
(9.26861e-16 -2.25325e-17 0)
(8.72264e-16 -1.88639e-17 0)
(7.4058e-16 -1.29053e-17 0)
(6.18685e-16 -2.51595e-18 0)
(4.92768e-16 6.61389e-18 0)
(3.35553e-16 8.81799e-18 0)
(2.239e-16 6.77004e-18 0)
(2.41461e-16 5.71428e-18 0)
(3.44675e-16 4.75301e-18 0)
(4.44476e-16 1.74189e-18 0)
(5.4036e-16 -5.82009e-20 0)
(6.55001e-16 3.2202e-18 0)
(6.97162e-16 9.42374e-18 0)
(5.58461e-16 1.58531e-17 0)
(2.64441e-16 2.28963e-17 0)
(-6.66752e-17 2.85456e-17 0)
(-4.02934e-16 2.58371e-17 0)
(-7.37192e-16 1.34151e-17 0)
(-9.62731e-16 -1.2812e-18 0)
(-9.19013e-16 -1.36164e-17 0)
(-5.94756e-16 -2.50072e-17 0)
(-1.29372e-16 -3.46627e-17 0)
(3.90108e-16 -3.10892e-17 0)
(8.76851e-16 -1.44346e-17 0)
(1.25944e-15 8.67723e-18 0)
(1.28896e-15 2.14725e-17 0)
(1.04206e-15 2.9065e-17 0)
(4.98075e-16 2.29443e-17 0)
(4.4664e-17 7.56334e-18 0)
(-4.29109e-16 -1.72063e-17 0)
(-5.19393e-16 -3.62357e-17 0)
(-4.37707e-16 -2.7823e-17 0)
(-1.73102e-16 -1.36014e-17 0)
(6.57235e-14 3.1016e-13 0)
(5.00339e-14 7.53876e-15 0)
(-3.19138e-16 3.73438e-15 0)
(1.01439e-14 -4.09236e-16 0)
(-1.166e-16 5.16004e-16 0)
(2.29826e-15 1.63372e-16 0)
(-2.44318e-15 3.95864e-16 0)
(-1.56639e-15 2.16804e-16 0)
(-3.01245e-15 2.06356e-16 0)
(-1.56846e-15 2.91465e-17 0)
(-1.07277e-15 -5.26109e-17 0)
(5.51328e-16 -1.55361e-16 0)
(1.41547e-15 -1.70213e-16 0)
(2.40694e-15 -1.72795e-16 0)
(2.60933e-15 -1.27424e-16 0)
(2.52917e-15 -7.27621e-17 0)
(1.9763e-15 -3.35364e-18 0)
(1.40091e-15 4.60387e-17 0)
(7.62955e-16 7.45651e-17 0)
(2.48538e-16 7.82231e-17 0)
(-1.18306e-16 6.92432e-17 0)
(-1.91745e-16 4.97094e-17 0)
(-4.63757e-17 2.53437e-17 0)
(1.97281e-16 -1.09371e-18 0)
(4.26362e-16 -2.20867e-17 0)
(6.6434e-16 -3.23593e-17 0)
(8.90565e-16 -3.17351e-17 0)
(1.00874e-15 -2.74224e-17 0)
(9.56339e-16 -2.32758e-17 0)
(8.19309e-16 -1.61205e-17 0)
(6.92139e-16 -4.04879e-18 0)
(5.57871e-16 6.26813e-18 0)
(3.85417e-16 8.83428e-18 0)
(2.60023e-16 6.92758e-18 0)
(2.75072e-16 6.15409e-18 0)
(3.83481e-16 5.31425e-18 0)
(4.8826e-16 2.41913e-18 0)
(5.90947e-16 1.44586e-18 0)
(7.18255e-16 6.34284e-18 0)
(7.69884e-16 1.41162e-17 0)
(6.25141e-16 2.17124e-17 0)
(3.10563e-16 2.95902e-17 0)
(-4.58583e-17 3.51365e-17 0)
(-4.11747e-16 3.01366e-17 0)
(-7.81665e-16 1.35526e-17 0)
(-1.03889e-15 -5.47232e-18 0)
(-1.00485e-15 -2.10425e-17 0)
(-6.64723e-16 -3.44642e-17 0)
(-1.67121e-16 -4.42973e-17 0)
(3.94974e-16 -3.74887e-17 0)
(9.31121e-16 -1.47984e-17 0)
(1.36072e-15 1.51154e-17 0)
(1.41105e-15 3.20568e-17 0)
(1.15715e-15 4.11394e-17 0)
(5.75608e-16 3.21101e-17 0)
(8.10861e-17 1.05957e-17 0)
(-4.44553e-16 -2.18045e-17 0)
(-5.58984e-16 -4.65999e-17 0)
(-4.85619e-16 -3.6402e-17 0)
(-1.97342e-16 -1.89618e-17 0)
(6.97371e-14 3.0773e-13 0)
(5.35302e-14 8.95226e-15 0)
(4.69281e-16 4.48315e-15 0)
(1.12202e-14 -4.62599e-16 0)
(1.76672e-16 6.25319e-16 0)
(2.70861e-15 1.93944e-16 0)
(-2.43187e-15 4.80197e-16 0)
(-1.57187e-15 2.66121e-16 0)
(-3.20435e-15 2.57518e-16 0)
(-1.72565e-15 4.43306e-17 0)
(-1.23854e-15 -5.41474e-17 0)
(4.88187e-16 -1.81227e-16 0)
(1.42887e-15 -2.02675e-16 0)
(2.5268e-15 -2.09205e-16 0)
(2.7879e-15 -1.56491e-16 0)
(2.74298e-15 -9.20692e-17 0)
(2.1806e-15 -8.85316e-18 0)
(1.57984e-15 5.13792e-17 0)
(8.9719e-16 8.74553e-17 0)
(3.33655e-16 9.36171e-17 0)
(-7.96827e-17 8.42382e-17 0)
(-1.79401e-16 6.16622e-17 0)
(-4.06344e-17 3.27731e-17 0)
(2.08446e-16 1.03792e-18 0)
(4.47354e-16 -2.42323e-17 0)
(7.02612e-16 -3.68989e-17 0)
(9.51505e-16 -3.70113e-17 0)
(1.08689e-15 -3.2797e-17 0)
(1.0383e-15 -2.82346e-17 0)
(8.97753e-16 -1.98081e-17 0)
(7.66792e-16 -5.95975e-18 0)
(6.25141e-16 5.57197e-18 0)
(4.37877e-16 8.53599e-18 0)
(2.98463e-16 6.88433e-18 0)
(3.09954e-16 6.51603e-18 0)
(4.22159e-16 5.86642e-18 0)
(5.3074e-16 3.18908e-18 0)
(6.39607e-16 3.26391e-18 0)
(7.79663e-16 1.00452e-17 0)
(8.41855e-16 1.95719e-17 0)
(6.93272e-16 2.84347e-17 0)
(3.60932e-16 3.71775e-17 0)
(-1.83228e-17 4.24949e-17 0)
(-4.12333e-16 3.4812e-17 0)
(-8.17765e-16 1.34968e-17 0)
(-1.1083e-15 -1.04351e-17 0)
(-1.08742e-15 -2.96818e-17 0)
(-7.36121e-16 -4.53781e-17 0)
(-2.1074e-16 -5.52796e-17 0)
(3.90766e-16 -4.47003e-17 0)
(9.75445e-16 -1.50976e-17 0)
(1.4534e-15 2.25594e-17 0)
(1.52871e-15 4.43633e-17 0)
(1.27277e-15 5.52438e-17 0)
(6.5883e-16 4.3009e-17 0)
(1.254e-16 1.45112e-17 0)
(-4.52213e-16 -2.66091e-17 0)
(-5.93992e-16 -5.8153e-17 0)
(-5.33102e-16 -4.6253e-17 0)
(-2.2262e-16 -2.56386e-17 0)
(7.33681e-14 3.05073e-13 0)
(5.67951e-14 1.04741e-14 0)
(1.37768e-15 5.29925e-15 0)
(1.23099e-14 -5.10386e-16 0)
(5.2239e-16 7.45735e-16 0)
(3.15364e-15 2.2704e-16 0)
(-2.37303e-15 5.729e-16 0)
(-1.54513e-15 3.21447e-16 0)
(-3.37172e-15 3.15809e-16 0)
(-1.87738e-15 6.36057e-17 0)
(-1.41088e-15 -5.32624e-17 0)
(4.0647e-16 -2.07682e-16 0)
(1.41988e-15 -2.37308e-16 0)
(2.62414e-15 -2.49119e-16 0)
(2.94967e-15 -1.89083e-16 0)
(2.94754e-15 -1.14433e-16 0)
(2.38409e-15 -1.62373e-17 0)
(1.76439e-15 5.60412e-17 0)
(1.04121e-15 1.00787e-16 0)
(4.29805e-16 1.10155e-16 0)
(-3.10951e-17 1.00757e-16 0)
(-1.6013e-16 7.51553e-17 0)
(-3.17816e-17 4.14713e-17 0)
(2.19173e-16 3.96443e-18 0)
(4.65416e-16 -2.60335e-17 0)
(7.36557e-16 -4.14316e-17 0)
(1.00778e-15 -4.25396e-17 0)
(1.1611e-15 -3.86383e-17 0)
(1.11794e-15 -3.37474e-17 0)
(9.75716e-16 -2.3992e-17 0)
(8.42477e-16 -8.28296e-18 0)
(6.94452e-16 4.48703e-18 0)
(4.92875e-16 7.88642e-18 0)
(3.39207e-16 6.60976e-18 0)
(3.46086e-16 6.77629e-18 0)
(4.60645e-16 6.39012e-18 0)
(5.71823e-16 4.03476e-18 0)
(6.8622e-16 5.3813e-18 0)
(8.39069e-16 1.43162e-17 0)
(9.12921e-16 2.57861e-17 0)
(7.62778e-16 3.60264e-17 0)
(4.15619e-16 4.56805e-17 0)
(1.61526e-17 5.06609e-17 0)
(-4.04336e-16 3.99171e-17 0)
(-8.45026e-16 1.33062e-17 0)
(-1.17046e-15 -1.61232e-17 0)
(-1.16631e-15 -3.95166e-17 0)
(-8.08774e-16 -5.77732e-17 0)
(-2.6033e-16 -6.76764e-17 0)
(3.77128e-16 -5.28234e-17 0)
(1.00927e-15 -1.54371e-17 0)
(1.53684e-15 3.093e-17 0)
(1.64137e-15 5.83749e-17 0)
(1.38863e-15 7.14388e-17 0)
(7.47772e-16 5.57743e-17 0)
(1.77925e-16 1.94831e-17 0)
(-4.51588e-16 -3.14724e-17 0)
(-6.23942e-16 -7.08302e-17 0)
(-5.79843e-16 -5.74166e-17 0)
(-2.4883e-16 -3.38203e-17 0)
(7.66165e-14 3.02198e-13 0)
(5.98224e-14 1.20992e-14 0)
(2.39826e-15 6.18146e-15 0)
(1.34107e-14 -5.50319e-16 0)
(9.19726e-16 8.77345e-16 0)
(3.63325e-15 2.62565e-16 0)
(-2.26566e-15 6.7386e-16 0)
(-1.48438e-15 3.82931e-16 0)
(-3.51233e-15 3.81586e-16 0)
(-2.02151e-15 8.74972e-17 0)
(-1.58818e-15 -4.94006e-17 0)
(3.07015e-16 -2.34247e-16 0)
(1.38849e-15 -2.73801e-16 0)
(2.69825e-15 -2.92422e-16 0)
(3.09348e-15 -2.25272e-16 0)
(3.14151e-15 -1.4006e-16 0)
(2.58563e-15 -2.57781e-17 0)
(1.95376e-15 5.97569e-17 0)
(1.1946e-15 1.14349e-16 0)
(5.36957e-16 1.27712e-16 0)
(2.77381e-17 1.18765e-16 0)
(-1.33488e-16 9.02281e-17 0)
(-1.93706e-17 5.15268e-17 0)
(2.29823e-16 7.79563e-18 0)
(4.8078e-16 -2.73836e-17 0)
(7.66252e-16 -4.58708e-17 0)
(1.05931e-15 -4.82629e-17 0)
(1.23117e-15 -4.49206e-17 0)
(1.195e-15 -3.98156e-17 0)
(1.05298e-15 -2.86927e-17 0)
(9.19005e-16 -1.10505e-17 0)
(7.6566e-16 2.97575e-18 0)
(5.50335e-16 6.84858e-18 0)
(3.8224e-16 6.07159e-18 0)
(3.83454e-16 6.90782e-18 0)
(4.98897e-16 6.86168e-18 0)
(6.11435e-16 4.93387e-18 0)
(7.30677e-16 7.77679e-18 0)
(8.96322e-16 1.91372e-17 0)
(9.82915e-16 3.27476e-17 0)
(8.33559e-16 4.44896e-17 0)
(4.7465e-16 5.51206e-17 0)
(5.77393e-17 5.96778e-17 0)
(-3.87442e-16 4.55147e-17 0)
(-8.6301e-16 1.30516e-17 0)
(-1.22486e-15 -2.24761e-17 0)
(-1.2411e-15 -5.05178e-17 0)
(-8.82441e-16 -7.1668e-17 0)
(-3.1591e-16 -8.15566e-17 0)
(3.53775e-16 -6.19685e-17 0)
(1.03207e-15 -1.59403e-17 0)
(1.61041e-15 4.01266e-17 0)
(1.74846e-15 7.40566e-17 0)
(1.50437e-15 8.97765e-17 0)
(8.42392e-16 7.05439e-17 0)
(2.38926e-16 2.57013e-17 0)
(-4.42195e-16 -3.62233e-17 0)
(-6.48343e-16 -8.45463e-17 0)
(-6.25488e-16 -6.99264e-17 0)
(-2.75833e-16 -4.37064e-17 0)
(7.94833e-14 2.99107e-13 0)
(6.26067e-14 1.38218e-14 0)
(3.52245e-15 7.12822e-15 0)
(1.452e-14 -5.8004e-16 0)
(1.36749e-15 1.02023e-15 0)
(4.1471e-15 3.00417e-16 0)
(-2.10901e-15 7.82909e-16 0)
(-1.38789e-15 4.50678e-16 0)
(-3.62392e-15 4.55181e-16 0)
(-2.15573e-15 1.16536e-16 0)
(-1.76861e-15 -4.19787e-17 0)
(1.90886e-16 -2.60396e-16 0)
(1.33488e-15 -3.11795e-16 0)
(2.7485e-15 -3.38959e-16 0)
(3.21816e-15 -2.65101e-16 0)
(3.32357e-15 -1.69142e-16 0)
(2.78395e-15 -3.77514e-17 0)
(2.14697e-15 6.22429e-17 0)
(1.3568e-15 1.27908e-16 0)
(6.55001e-16 1.46139e-16 0)
(9.70542e-17 1.38206e-16 0)
(-9.90415e-17 1.06907e-16 0)
(-2.92863e-18 6.30226e-17 0)
(2.40799e-16 1.26421e-17 0)
(4.93726e-16 -2.81704e-17 0)
(7.91813e-16 -5.01218e-17 0)
(1.10604e-15 -5.41158e-17 0)
(1.29693e-15 -5.16107e-17 0)
(1.26928e-15 -4.64338e-17 0)
(1.12932e-15 -3.39259e-17 0)
(9.96162e-16 -1.4292e-17 0)
(8.38597e-16 1.00186e-18 0)
(6.10169e-16 5.38553e-18 0)
(4.27537e-16 5.2359e-18 0)
(4.22053e-16 6.8803e-18 0)
(5.36886e-16 7.25298e-18 0)
(6.49523e-16 5.85852e-18 0)
(7.72887e-16 1.04221e-17 0)
(9.51274e-16 2.44821e-17 0)
(1.05166e-15 4.04382e-17 0)
(9.05479e-16 5.38216e-17 0)
(5.38003e-16 6.55176e-17 0)
(1.06554e-16 6.95918e-17 0)
(-3.61384e-16 5.16757e-17 0)
(-8.71299e-16 1.28169e-17 0)
(-1.271e-15 -2.94188e-17 0)
(-1.3113e-15 -6.26434e-17 0)
(-9.5681e-16 -8.70734e-17 0)
(-3.77418e-16 -9.69903e-17 0)
(3.20495e-16 -7.22573e-17 0)
(1.04339e-15 -1.67499e-17 0)
(1.67346e-15 5.00255e-17 0)
(1.84934e-15 9.13535e-17 0)
(1.61954e-15 1.10298e-16 0)
(9.42563e-16 8.74584e-17 0)
(3.08603e-16 3.33727e-17 0)
(-4.23573e-16 -4.06664e-17 0)
(-6.66686e-16 -9.91927e-17 0)
(-6.69638e-16 -8.38071e-17 0)
(-3.0346e-16 -5.55052e-17 0)
(8.19711e-14 2.95803e-13 0)
(6.5143e-14 1.56358e-14 0)
(4.74096e-15 8.13764e-15 0)
(1.5635e-14 -5.97124e-16 0)
(1.8641e-15 1.17446e-15 0)
(4.69454e-15 3.4048e-16 0)
(-1.90259e-15 8.99817e-16 0)
(-1.25404e-15 5.24751e-16 0)
(-3.70419e-15 5.36892e-16 0)
(-2.2776e-15 1.51255e-16 0)
(-1.95012e-15 -3.03895e-17 0)
(5.93869e-17 -2.85559e-16 0)
(1.25942e-15 -3.5088e-16 0)
(2.77443e-15 -3.88526e-16 0)
(3.32262e-15 -3.08582e-16 0)
(3.49231e-15 -2.01856e-16 0)
(2.97771e-15 -5.24339e-17 0)
(2.34298e-15 6.32017e-17 0)
(1.52718e-15 1.41208e-16 0)
(7.83734e-16 1.65265e-16 0)
(1.77035e-16 1.59005e-16 0)
(-5.63701e-17 1.25205e-16 0)
(1.80373e-17 7.60341e-17 0)
(2.52549e-16 1.86139e-17 0)
(5.04582e-16 -2.82773e-17 0)
(8.13402e-16 -5.40833e-17 0)
(1.14794e-15 -6.0025e-17 0)
(1.3582e-15 -5.86668e-17 0)
(1.34052e-15 -5.35892e-17 0)
(1.20449e-15 -3.97019e-17 0)
(1.07372e-15 -1.80336e-17 0)
(9.13078e-16 -1.46905e-18 0)
(6.72271e-16 3.46078e-18 0)
(4.75068e-16 4.06737e-18 0)
(4.61879e-16 6.66016e-18 0)
(5.74603e-16 7.53127e-18 0)
(6.8605e-16 6.77493e-18 0)
(8.12774e-16 1.32816e-17 0)
(1.00378e-15 3.0316e-17 0)
(1.11896e-15 4.88316e-17 0)
(9.7837e-16 6.40141e-17 0)
(6.05605e-16 7.68896e-17 0)
(1.62655e-16 8.04523e-17 0)
(-3.25946e-16 5.84794e-17 0)
(-8.69509e-16 1.26992e-17 0)
(-1.30836e-15 -3.68608e-17 0)
(-1.3764e-15 -7.58376e-17 0)
(-1.0315e-15 -1.03992e-16 0)
(-4.44703e-16 -1.14047e-16 0)
(2.77159e-16 -8.3822e-17 0)
(1.0428e-15 -1.80286e-17 0)
(1.72539e-15 6.04785e-17 0)
(1.94335e-15 1.10189e-16 0)
(1.73364e-15 1.33033e-16 0)
(1.04806e-15 1.0666e-16 0)
(3.87085e-16 4.27204e-17 0)
(-3.95291e-16 -4.45804e-17 0)
(-6.78445e-16 -1.14636e-16 0)
(-7.11845e-16 -9.90721e-17 0)
(-3.31504e-16 -6.94326e-17 0)
(8.40837e-14 2.92291e-13 0)
(6.74275e-14 1.75344e-14 0)
(6.04385e-15 9.2075e-15 0)
(1.67522e-14 -5.9909e-16 0)
(2.40758e-15 1.34009e-15 0)
(5.27458e-15 3.82632e-16 0)
(-1.64619e-15 1.0243e-15 0)
(-1.08138e-15 6.05159e-16 0)
(-3.75088e-15 6.26977e-16 0)
(-2.38456e-15 1.92177e-16 0)
(-2.13046e-15 -1.40065e-17 0)
(-8.59243e-17 -3.09122e-16 0)
(1.16272e-15 -3.90594e-16 0)
(2.77571e-15 -4.40866e-16 0)
(3.40582e-15 -3.55685e-16 0)
(3.64633e-15 -2.38358e-16 0)
(3.16547e-15 -7.00991e-17 0)
(2.54059e-15 6.23239e-17 0)
(1.70495e-15 1.53973e-16 0)
(9.22849e-16 1.84895e-16 0)
(2.67797e-16 1.81066e-16 0)
(-5.07705e-18 1.45117e-16 0)
(4.40346e-17 9.06269e-17 0)
(2.65559e-16 2.58185e-17 0)
(5.13727e-16 -2.75844e-17 0)
(8.3123e-16 -5.7647e-17 0)
(1.18503e-15 -6.59086e-17 0)
(1.41485e-15 -6.60382e-17 0)
(1.4085e-15 -6.12612e-17 0)
(1.27821e-15 -4.6025e-17 0)
(1.15142e-15 -2.22974e-17 0)
(9.88895e-16 -4.46889e-18 0)
(7.36519e-16 1.03879e-18 0)
(5.24796e-16 2.52957e-18 0)
(5.02937e-16 6.21067e-18 0)
(6.1205e-16 7.65913e-18 0)
(7.21005e-16 7.64315e-18 0)
(8.50276e-16 1.63118e-17 0)
(1.05371e-15 3.65953e-17 0)
(1.18462e-15 5.78934e-17 0)
(1.05203e-15 7.50527e-17 0)
(6.77325e-16 8.92517e-17 0)
(2.26037e-16 9.23104e-17 0)
(-2.80966e-16 6.60135e-17 0)
(-8.57286e-16 1.28093e-17 0)
(-1.33643e-15 -4.4695e-17 0)
(-1.43586e-15 -9.00294e-17 0)
(-1.10604e-15 -1.22416e-16 0)
(-5.17518e-16 -1.32797e-16 0)
(2.23727e-16 -9.68046e-17 0)
(1.02994e-15 -1.99592e-17 0)
(1.76557e-15 7.13115e-17 0)
(2.02977e-15 1.30461e-16 0)
(1.84606e-15 1.57993e-16 0)
(1.15858e-15 1.28288e-16 0)
(4.74421e-16 5.39824e-17 0)
(-3.56956e-16 -4.77181e-17 0)
(-6.83085e-16 -1.30714e-16 0)
(-7.51613e-16 -1.15721e-16 0)
(-3.59722e-16 -8.57094e-17 0)