/*--------------------------------*- C++ -*----------------------------------*\
| =========                 |                                                 |
| \\      /  F ield         | foam-extend: Open Source CFD                    |
|  \\    /   O peration     | Version:     4.0                                |
|   \\  /    A nd           | Web:         http://www.foam-extend.org         |
|    \\/     M anipulation  |                                                 |
\*---------------------------------------------------------------------------*/
FoamFile
{
    version     2.0;
    format      ascii;
    class       volVectorField;
    location    "14";
    object      bodyForce;
}
// * * * * * * * * * * * * * * * * * * * * * * * * * * * * * * * * * * * * * //

dimensions      [1 -2 -2 0 0 0 0];

internalField   nonuniform List<vector> 
6960
(
(6.82355e-31 -5.79872e-15 -0)
(6.82355e-31 -5.79872e-15 -0)
(-7.37681e-32 -5.79872e-15 -0)
(-5.16376e-31 -5.79872e-15 -0)
(2.39746e-31 -5.79872e-15 -0)
(4.05724e-31 -5.79872e-15 -0)
(-4.97934e-31 -5.79872e-15 -0)
(-2.02862e-31 -5.79872e-15 -0)
(-1.8442e-32 -5.79872e-15 -0)
(5.34819e-31 -5.79872e-15 -0)
(5.53261e-31 -5.79872e-15 -0)
(-2.39746e-31 -5.79872e-15 -0)
(1.8442e-32 -5.79872e-15 -0)
(1.8442e-32 -5.79872e-15 -0)
(-2.39746e-31 -5.79872e-15 -0)
(-9.22101e-32 -5.79872e-15 -0)
(9.77427e-31 -5.79872e-15 -0)
(1.19873e-30 -5.79872e-15 -0)
(-7.93007e-31 -5.79872e-15 -0)
(-7.37681e-31 -5.79872e-15 -0)
(-3.13514e-31 -5.79872e-15 -0)
(3.13514e-31 -5.79872e-15 -0)
(4.24166e-31 -5.79872e-15 -0)
(-1.8442e-32 -5.79872e-15 -0)
(2.95072e-31 -5.79872e-15 -0)
(-2.7663e-31 -5.79872e-15 -0)
(-2.21304e-31 -5.79872e-15 -0)
(1.65978e-31 -5.79872e-15 -0)
(8.29891e-31 -5.79872e-15 -0)
(-9.22101e-32 -5.79872e-15 -0)
(-6.82355e-31 -5.79872e-15 -0)
(-4.24166e-31 -5.79872e-15 -0)
(2.58188e-31 -5.79872e-15 -0)
(7.74565e-31 -5.79872e-15 -0)
(-3.31956e-31 -5.79872e-15 -0)
(-4.79492e-31 -5.79872e-15 -0)
(2.02862e-31 -5.79872e-15 -0)
(-7.19239e-31 -5.79872e-15 -0)
(-4.79492e-31 -5.79872e-15 -0)
(7.74565e-31 -5.79872e-15 -0)
(3.13514e-31 -5.79872e-15 -0)
(-4.05724e-31 -5.79872e-15 -0)
(5.34819e-31 -5.79872e-15 -0)
(9.22101e-32 -5.79872e-15 -0)
(-1.29094e-31 -5.79872e-15 -0)
(7.74565e-31 -5.79872e-15 -0)
(-2.58188e-31 -5.79872e-15 -0)
(-3.6884e-32 -5.79872e-15 -0)
(-1.8442e-32 -5.79872e-15 -0)
(-5.34819e-31 -5.79872e-15 -0)
(3.87282e-31 -5.79872e-15 -0)
(1.8442e-31 -5.79872e-15 -0)
(-5.53261e-32 -5.79872e-15 -0)
(-2.21304e-31 -5.79872e-15 -0)
(1.8442e-31 -5.79872e-15 -0)
(2.39746e-31 -5.79872e-15 -0)
(-1.06964e-30 -5.79872e-15 -0)
(-9.77427e-31 -5.79872e-15 -0)
(2.95072e-31 -5.79872e-15 -0)
(4.6105e-31 -5.79872e-15 -0)
(2.29178e-30 -5.79872e-15 -0)
(2.07693e-30 -5.79872e-15 -0)
(-3.22282e-31 -5.79872e-15 -0)
(-1.71884e-30 -5.79872e-15 -0)
(7.87801e-31 -5.79872e-15 -0)
(1.28913e-30 -5.79872e-15 -0)
(-1.50398e-30 -5.79872e-15 -0)
(-6.80374e-31 -5.79872e-15 -0)
(-1.07427e-31 -5.79872e-15 -0)
(1.64722e-30 -5.79872e-15 -0)
(1.75465e-30 -5.79872e-15 -0)
(-6.80374e-31 -5.79872e-15 -0)
(-1.07427e-31 -5.79872e-15 -0)
(7.16183e-32 -5.79872e-15 -0)
(-6.80374e-31 -5.79872e-15 -0)
(-2.86473e-31 -5.79872e-15 -0)
(2.97216e-30 -5.79872e-15 -0)
(3.72415e-30 -5.79872e-15 -0)
(-2.47083e-30 -5.79872e-15 -0)
(-2.32759e-30 -5.79872e-15 -0)
(-9.31038e-31 -5.79872e-15 -0)
(9.66847e-31 -5.79872e-15 -0)
(1.32494e-30 -5.79872e-15 -0)
(1.07427e-31 -5.79872e-15 -0)
(9.31038e-31 -5.79872e-15 -0)
(-9.31038e-31 -5.79872e-15 -0)
(-7.51992e-31 -5.79872e-15 -0)
(6.44565e-31 -5.79872e-15 -0)
(2.50664e-30 -5.79872e-15 -0)
(-2.86473e-31 -5.79872e-15 -0)
(-2.22017e-30 -5.79872e-15 -0)
(-1.36075e-30 -5.79872e-15 -0)
(8.95229e-31 -5.79872e-15 -0)
(2.22017e-30 -5.79872e-15 -0)
(-1.14589e-30 -5.79872e-15 -0)
(-1.25332e-30 -5.79872e-15 -0)
(5.37137e-31 -5.79872e-15 -0)
(-2.14855e-30 -5.79872e-15 -0)
(-1.28913e-30 -5.79872e-15 -0)
(2.22017e-30 -5.79872e-15 -0)
(9.31038e-31 -5.79872e-15 -0)
(-1.14589e-30 -5.79872e-15 -0)
(1.46817e-30 -5.79872e-15 -0)
(3.22282e-31 -5.79872e-15 -0)
(-2.50664e-31 -5.79872e-15 -0)
(2.22017e-30 -5.79872e-15 -0)
(-8.2361e-31 -5.79872e-15 -0)
(-0 -5.79872e-15 -0)
(-1.07427e-31 -5.79872e-15 -0)
(-1.5756e-30 -5.79872e-15 -0)
(1.14589e-30 -5.79872e-15 -0)
(5.37137e-31 -5.79872e-15 -0)
(-1.07427e-31 -5.79872e-15 -0)
(-6.80374e-31 -5.79872e-15 -0)
(4.65519e-31 -5.79872e-15 -0)
(8.2361e-31 -5.79872e-15 -0)
(-3.22282e-30 -5.79872e-15 -0)
(-3.00797e-30 -5.79872e-15 -0)
(8.95229e-31 -5.79872e-15 -0)
(1.43237e-30 -5.79872e-15 -0)
(3.68515e-30 -5.79872e-15 -0)
(3.40703e-30 -5.79872e-15 -0)
(-4.86718e-31 -5.79872e-15 -0)
(-2.57265e-30 -5.79872e-15 -0)
(1.1125e-30 -5.79872e-15 -0)
(2.08593e-30 -5.79872e-15 -0)
(-2.57265e-30 -5.79872e-15 -0)
(-9.73436e-31 -5.79872e-15 -0)
(-0 -5.79872e-15 -0)
(2.50312e-30 -5.79872e-15 -0)
(2.85078e-30 -5.79872e-15 -0)
(-9.73436e-31 -5.79872e-15 -0)
(-2.08593e-31 -5.79872e-15 -0)
(6.95311e-32 -5.79872e-15 -0)
(-9.73436e-31 -5.79872e-15 -0)
(-6.2578e-31 -5.79872e-15 -0)
(5.00624e-30 -5.79872e-15 -0)
(6.4664e-30 -5.79872e-15 -0)
(-4.31093e-30 -5.79872e-15 -0)
(-3.82421e-30 -5.79872e-15 -0)
(-1.39062e-30 -5.79872e-15 -0)
(1.59922e-30 -5.79872e-15 -0)
(2.0164e-30 -5.79872e-15 -0)
(3.47656e-31 -5.79872e-15 -0)
(1.1125e-30 -5.79872e-15 -0)
(-1.52969e-30 -5.79872e-15 -0)
(-8.34374e-31 -5.79872e-15 -0)
(8.34374e-31 -5.79872e-15 -0)
(4.10234e-30 -5.79872e-15 -0)
(-3.47656e-31 -5.79872e-15 -0)
(-3.61562e-30 -5.79872e-15 -0)
(-2.08593e-30 -5.79872e-15 -0)
(1.46015e-30 -5.79872e-15 -0)
(3.75468e-30 -5.79872e-15 -0)
(-1.94687e-30 -5.79872e-15 -0)
(-2.15547e-30 -5.79872e-15 -0)
(9.03905e-31 -5.79872e-15 -0)
(-3.75468e-30 -5.79872e-15 -0)
(-2.36406e-30 -5.79872e-15 -0)
(4.10234e-30 -5.79872e-15 -0)
(1.59922e-30 -5.79872e-15 -0)
(-2.15547e-30 -5.79872e-15 -0)
(2.50312e-30 -5.79872e-15 -0)
(4.86718e-31 -5.79872e-15 -0)
(-3.47656e-31 -5.79872e-15 -0)
(4.03281e-30 -5.79872e-15 -0)
(-1.46015e-30 -5.79872e-15 -0)
(-2.08593e-31 -5.79872e-15 -0)
(-1.39062e-31 -5.79872e-15 -0)
(-2.64218e-30 -5.79872e-15 -0)
(1.80781e-30 -5.79872e-15 -0)
(9.73436e-31 -5.79872e-15 -0)
(-1.39062e-31 -5.79872e-15 -0)
(-1.1125e-30 -5.79872e-15 -0)
(6.95311e-31 -5.79872e-15 -0)
(1.32109e-30 -5.79872e-15 -0)
(-5.3539e-30 -5.79872e-15 -0)
(-5.00624e-30 -5.79872e-15 -0)
(1.46015e-30 -5.79872e-15 -0)
(2.36406e-30 -5.79872e-15 -0)
(4.99536e-30 -5.79872e-15 -0)
(4.72534e-30 -5.79872e-15 -0)
(-9.45067e-31 -5.79872e-15 -0)
(-3.78027e-30 -5.79872e-15 -0)
(1.89013e-30 -5.79872e-15 -0)
(2.8352e-30 -5.79872e-15 -0)
(-3.37524e-30 -5.79872e-15 -0)
(-1.3501e-30 -5.79872e-15 -0)
(-0 -5.79872e-15 -0)
(3.37524e-30 -5.79872e-15 -0)
(3.91528e-30 -5.79872e-15 -0)
(-1.3501e-30 -5.79872e-15 -0)
(-4.05029e-31 -5.79872e-15 -0)
(4.05029e-31 -5.79872e-15 -0)
(-1.3501e-30 -5.79872e-15 -0)
(-1.08008e-30 -5.79872e-15 -0)
(7.15551e-30 -5.79872e-15 -0)
(9.04565e-30 -5.79872e-15 -0)
(-6.21044e-30 -5.79872e-15 -0)
(-5.26538e-30 -5.79872e-15 -0)
(-2.16015e-30 -5.79872e-15 -0)
(2.43017e-30 -5.79872e-15 -0)
(2.97021e-30 -5.79872e-15 -0)
(1.3501e-31 -5.79872e-15 -0)
(1.62012e-30 -5.79872e-15 -0)
(-1.89014e-30 -5.79872e-15 -0)
(-1.21509e-30 -5.79872e-15 -0)
(9.45068e-31 -5.79872e-15 -0)
(5.94042e-30 -5.79872e-15 -0)
(-5.40039e-31 -5.79872e-15 -0)
(-4.99536e-30 -5.79872e-15 -0)
(-2.70019e-30 -5.79872e-15 -0)
(2.02514e-30 -5.79872e-15 -0)
(5.26538e-30 -5.79872e-15 -0)
(-2.70019e-30 -5.79872e-15 -0)
(-2.8352e-30 -5.79872e-15 -0)
(1.3501e-30 -5.79872e-15 -0)
(-5.5354e-30 -5.79872e-15 -0)
(-3.24023e-30 -5.79872e-15 -0)
(5.67041e-30 -5.79872e-15 -0)
(2.29516e-30 -5.79872e-15 -0)
(-3.24023e-30 -5.79872e-15 -0)
(3.91528e-30 -5.79872e-15 -0)
(6.75048e-31 -5.79872e-15 -0)
(-9.45068e-31 -5.79872e-15 -0)
(5.67041e-30 -5.79872e-15 -0)
(-2.02514e-30 -5.79872e-15 -0)
(-2.70019e-31 -5.79872e-15 -0)
(-1.3501e-31 -5.79872e-15 -0)
(-3.64526e-30 -5.79872e-15 -0)
(2.97021e-30 -5.79872e-15 -0)
(1.48511e-30 -5.79872e-15 -0)
(-4.05029e-31 -5.79872e-15 -0)
(-1.48511e-30 -5.79872e-15 -0)
(6.75048e-31 -5.79872e-15 -0)
(1.75513e-30 -5.79872e-15 -0)
(-7.69555e-30 -5.79872e-15 -0)
(-6.75048e-30 -5.79872e-15 -0)
(2.02514e-30 -5.79872e-15 -0)
(3.24023e-30 -5.79872e-15 -0)
(6.94698e-30 -5.79872e-15 -0)
(6.02946e-30 -5.79872e-15 -0)
(-1.44183e-30 -5.79872e-15 -0)
(-4.58763e-30 -5.79872e-15 -0)
(1.96613e-30 -5.79872e-15 -0)
(3.6701e-30 -5.79872e-15 -0)
(-4.06333e-30 -5.79872e-15 -0)
(-1.70398e-30 -5.79872e-15 -0)
(-1.31075e-31 -5.79872e-15 -0)
(4.32548e-30 -5.79872e-15 -0)
(5.243e-30 -5.79872e-15 -0)
(-1.70398e-30 -5.79872e-15 -0)
(-1.31075e-31 -5.79872e-15 -0)
(6.55376e-31 -5.79872e-15 -0)
(-1.96613e-30 -5.79872e-15 -0)
(-1.31075e-30 -5.79872e-15 -0)
(9.43741e-30 -5.79872e-15 -0)
(1.16657e-29 -5.79872e-15 -0)
(-7.99558e-30 -5.79872e-15 -0)
(-7.20913e-30 -5.79872e-15 -0)
(-2.6215e-30 -5.79872e-15 -0)
(3.1458e-30 -5.79872e-15 -0)
(4.06333e-30 -5.79872e-15 -0)
(2.6215e-31 -5.79872e-15 -0)
(1.83505e-30 -5.79872e-15 -0)
(-2.35935e-30 -5.79872e-15 -0)
(-1.70398e-30 -5.79872e-15 -0)
(1.5729e-30 -5.79872e-15 -0)
(7.47128e-30 -5.79872e-15 -0)
(-9.17526e-31 -5.79872e-15 -0)
(-6.81591e-30 -5.79872e-15 -0)
(-3.40795e-30 -5.79872e-15 -0)
(2.88365e-30 -5.79872e-15 -0)
(6.94698e-30 -5.79872e-15 -0)
(-3.40795e-30 -5.79872e-15 -0)
(-3.93225e-30 -5.79872e-15 -0)
(1.83505e-30 -5.79872e-15 -0)
(-7.47128e-30 -5.79872e-15 -0)
(-4.06333e-30 -5.79872e-15 -0)
(7.34021e-30 -5.79872e-15 -0)
(2.35935e-30 -5.79872e-15 -0)
(-3.6701e-30 -5.79872e-15 -0)
(5.11193e-30 -5.79872e-15 -0)
(1.17968e-30 -5.79872e-15 -0)
(-1.17968e-30 -5.79872e-15 -0)
(6.94698e-30 -5.79872e-15 -0)
(-2.49043e-30 -5.79872e-15 -0)
(-1.31075e-31 -5.79872e-15 -0)
(-1.31075e-31 -5.79872e-15 -0)
(-4.58763e-30 -5.79872e-15 -0)
(3.6701e-30 -5.79872e-15 -0)
(1.44183e-30 -5.79872e-15 -0)
(-1.31075e-31 -5.79872e-15 -0)
(-1.83505e-30 -5.79872e-15 -0)
(1.0486e-30 -5.79872e-15 -0)
(1.83505e-30 -5.79872e-15 -0)
(-9.69956e-30 -5.79872e-15 -0)
(-9.04418e-30 -5.79872e-15 -0)
(2.35935e-30 -5.79872e-15 -0)
(4.32548e-30 -5.79872e-15 -0)
(8.65336e-30 -5.79872e-15 -0)
(7.50806e-30 -5.79872e-15 -0)
(-2.16334e-30 -5.79872e-15 -0)
(-5.59923e-30 -5.79872e-15 -0)
(3.18138e-30 -5.79872e-15 -0)
(4.70844e-30 -5.79872e-15 -0)
(-5.34472e-30 -5.79872e-15 -0)
(-2.79962e-30 -5.79872e-15 -0)
(-1.27255e-31 -5.79872e-15 -0)
(5.85374e-30 -5.79872e-15 -0)
(6.99904e-30 -5.79872e-15 -0)
(-2.92687e-30 -5.79872e-15 -0)
(-3.81766e-31 -5.79872e-15 -0)
(1.39981e-30 -5.79872e-15 -0)
(-2.29059e-30 -5.79872e-15 -0)
(-1.78157e-30 -5.79872e-15 -0)
(1.10712e-29 -5.79872e-15 -0)
(1.41253e-29 -5.79872e-15 -0)
(-9.41689e-30 -5.79872e-15 -0)
(-8.27159e-30 -5.79872e-15 -0)
(-3.94491e-30 -5.79872e-15 -0)
(4.07217e-30 -5.79872e-15 -0)
(5.72649e-30 -5.79872e-15 -0)
(-0 -5.79872e-15 -0)
(2.29059e-30 -5.79872e-15 -0)
(-2.79962e-30 -5.79872e-15 -0)
(-1.78157e-30 -5.79872e-15 -0)
(1.78157e-30 -5.79872e-15 -0)
(9.16238e-30 -5.79872e-15 -0)
(-1.1453e-30 -5.79872e-15 -0)
(-8.39885e-30 -5.79872e-15 -0)
(-4.58119e-30 -5.79872e-15 -0)
(3.18138e-30 -5.79872e-15 -0)
(8.5261e-30 -5.79872e-15 -0)
(-3.56315e-30 -5.79872e-15 -0)
(-4.45393e-30 -5.79872e-15 -0)
(2.16334e-30 -5.79872e-15 -0)
(-9.6714e-30 -5.79872e-15 -0)
(-5.34472e-30 -5.79872e-15 -0)
(9.16238e-30 -5.79872e-15 -0)
(3.18138e-30 -5.79872e-15 -0)
(-4.8357e-30 -5.79872e-15 -0)
(6.61727e-30 -5.79872e-15 -0)
(1.52706e-30 -5.79872e-15 -0)
(-1.90883e-30 -5.79872e-15 -0)
(8.78061e-30 -5.79872e-15 -0)
(-2.79962e-30 -5.79872e-15 -0)
(2.54511e-31 -5.79872e-15 -0)
(-7.63532e-31 -5.79872e-15 -0)
(-6.49002e-30 -5.79872e-15 -0)
(5.21747e-30 -5.79872e-15 -0)
(2.41785e-30 -5.79872e-15 -0)
(-3.81766e-31 -5.79872e-15 -0)
(-2.29059e-30 -5.79872e-15 -0)
(1.27255e-30 -5.79872e-15 -0)
(1.90883e-30 -5.79872e-15 -0)
(-1.20893e-29 -5.79872e-15 -0)
(-1.13257e-29 -5.79872e-15 -0)
(2.92687e-30 -5.79872e-15 -0)
(5.47198e-30 -5.79872e-15 -0)
(1.03779e-29 -5.79872e-15 -0)
(9.63664e-30 -5.79872e-15 -0)
(-2.96512e-30 -5.79872e-15 -0)
(-7.16571e-30 -5.79872e-15 -0)
(3.7064e-30 -5.79872e-15 -0)
(5.68315e-30 -5.79872e-15 -0)
(-7.16571e-30 -5.79872e-15 -0)
(-3.21221e-30 -5.79872e-15 -0)
(2.47093e-31 -5.79872e-15 -0)
(6.67152e-30 -5.79872e-15 -0)
(8.40118e-30 -5.79872e-15 -0)
(-3.21221e-30 -5.79872e-15 -0)
(-9.88374e-31 -5.79872e-15 -0)
(2.22384e-30 -5.79872e-15 -0)
(-2.22384e-30 -5.79872e-15 -0)
(-2.22384e-30 -5.79872e-15 -0)
(1.28489e-29 -5.79872e-15 -0)
(1.70494e-29 -5.79872e-15 -0)
(-1.18605e-29 -5.79872e-15 -0)
(-9.63664e-30 -5.79872e-15 -0)
(-3.95349e-30 -5.79872e-15 -0)
(4.69478e-30 -5.79872e-15 -0)
(6.67152e-30 -5.79872e-15 -0)
(2.47093e-31 -5.79872e-15 -0)
(2.47093e-30 -5.79872e-15 -0)
(-3.45931e-30 -5.79872e-15 -0)
(-2.22384e-30 -5.79872e-15 -0)
(2.47093e-30 -5.79872e-15 -0)
(1.11192e-29 -5.79872e-15 -0)
(-9.88374e-31 -5.79872e-15 -0)
(-1.01308e-29 -5.79872e-15 -0)
(-5.43606e-30 -5.79872e-15 -0)
(3.45931e-30 -5.79872e-15 -0)
(1.01308e-29 -5.79872e-15 -0)
(-4.20059e-30 -5.79872e-15 -0)
(-5.43606e-30 -5.79872e-15 -0)
(2.71803e-30 -5.79872e-15 -0)
(-1.11192e-29 -5.79872e-15 -0)
(-6.91862e-30 -5.79872e-15 -0)
(1.08721e-29 -5.79872e-15 -0)
(3.7064e-30 -5.79872e-15 -0)
(-5.43606e-30 -5.79872e-15 -0)
(7.6599e-30 -5.79872e-15 -0)
(1.23547e-30 -5.79872e-15 -0)
(-2.22384e-30 -5.79872e-15 -0)
(1.0625e-29 -5.79872e-15 -0)
(-2.96512e-30 -5.79872e-15 -0)
(4.94187e-31 -5.79872e-15 -0)
(-7.4128e-31 -5.79872e-15 -0)
(-7.90699e-30 -5.79872e-15 -0)
(6.17734e-30 -5.79872e-15 -0)
(2.96512e-30 -5.79872e-15 -0)
(-7.4128e-31 -5.79872e-15 -0)
(-2.22384e-30 -5.79872e-15 -0)
(1.23547e-30 -5.79872e-15 -0)
(1.97675e-30 -5.79872e-15 -0)
(-1.40843e-29 -5.79872e-15 -0)
(-1.35901e-29 -5.79872e-15 -0)
(2.96512e-30 -5.79872e-15 -0)
(6.67152e-30 -5.79872e-15 -0)
(1.12749e-29 -5.79872e-15 -0)
(1.10351e-29 -5.79872e-15 -0)
(-2.63882e-30 -5.79872e-15 -0)
(-8.39624e-30 -5.79872e-15 -0)
(4.31806e-30 -5.79872e-15 -0)
(6.71699e-30 -5.79872e-15 -0)
(-9.35581e-30 -5.79872e-15 -0)
(-3.59839e-30 -5.79872e-15 -0)
(4.79785e-31 -5.79872e-15 -0)
(7.67656e-30 -5.79872e-15 -0)
(9.11591e-30 -5.79872e-15 -0)
(-3.83828e-30 -5.79872e-15 -0)
(2.39892e-31 -5.79872e-15 -0)
(1.91914e-30 -5.79872e-15 -0)
(-2.63882e-30 -5.79872e-15 -0)
(-2.15903e-30 -5.79872e-15 -0)
(1.51132e-29 -5.79872e-15 -0)
(1.89515e-29 -5.79872e-15 -0)
(-1.31941e-29 -5.79872e-15 -0)
(-1.17547e-29 -5.79872e-15 -0)
(-5.03774e-30 -5.79872e-15 -0)
(6.2372e-30 -5.79872e-15 -0)
(7.67656e-30 -5.79872e-15 -0)
(-7.19678e-31 -5.79872e-15 -0)
(3.3585e-30 -5.79872e-15 -0)
(-3.3585e-30 -5.79872e-15 -0)
(-3.1186e-30 -5.79872e-15 -0)
(2.39893e-30 -5.79872e-15 -0)
(1.3434e-29 -5.79872e-15 -0)
(-7.19678e-31 -5.79872e-15 -0)
(-1.07952e-29 -5.79872e-15 -0)
(-7.43667e-30 -5.79872e-15 -0)
(3.59839e-30 -5.79872e-15 -0)
(1.31941e-29 -5.79872e-15 -0)
(-5.03774e-30 -5.79872e-15 -0)
(-7.43667e-30 -5.79872e-15 -0)
(3.59839e-30 -5.79872e-15 -0)
(-1.29542e-29 -5.79872e-15 -0)
(-7.91645e-30 -5.79872e-15 -0)
(1.22345e-29 -5.79872e-15 -0)
(4.31807e-30 -5.79872e-15 -0)
(-6.71699e-30 -5.79872e-15 -0)
(9.11592e-30 -5.79872e-15 -0)
(1.43936e-30 -5.79872e-15 -0)
(-3.1186e-30 -5.79872e-15 -0)
(1.3434e-29 -5.79872e-15 -0)
(-3.59839e-30 -5.79872e-15 -0)
(7.19678e-31 -5.79872e-15 -0)
(-1.43936e-30 -5.79872e-15 -0)
(-9.35581e-30 -5.79872e-15 -0)
(7.43667e-30 -5.79872e-15 -0)
(3.59839e-30 -5.79872e-15 -0)
(-4.79785e-31 -5.79872e-15 -0)
(-2.63882e-30 -5.79872e-15 -0)
(9.5957e-31 -5.79872e-15 -0)
(1.43936e-30 -5.79872e-15 -0)
(-1.60728e-29 -5.79872e-15 -0)
(-1.53531e-29 -5.79872e-15 -0)
(2.63882e-30 -5.79872e-15 -0)
(7.19678e-30 -5.79872e-15 -0)
(1.28096e-29 -5.79872e-15 -0)
(1.25767e-29 -5.79872e-15 -0)
(-3.49352e-30 -5.79872e-15 -0)
(-1.00148e-29 -5.79872e-15 -0)
(4.89093e-30 -5.79872e-15 -0)
(6.75414e-30 -5.79872e-15 -0)
(-9.78186e-30 -5.79872e-15 -0)
(-4.42513e-30 -5.79872e-15 -0)
(-4.65803e-31 -5.79872e-15 -0)
(8.61735e-30 -5.79872e-15 -0)
(1.11793e-29 -5.79872e-15 -0)
(-3.95932e-30 -5.79872e-15 -0)
(2.32901e-31 -5.79872e-15 -0)
(2.56192e-30 -5.79872e-15 -0)
(-3.49352e-30 -5.79872e-15 -0)
(-2.09611e-30 -5.79872e-15 -0)
(1.74676e-29 -5.79872e-15 -0)
(2.1194e-29 -5.79872e-15 -0)
(-1.49057e-29 -5.79872e-15 -0)
(-1.21109e-29 -5.79872e-15 -0)
(-6.75414e-30 -5.79872e-15 -0)
(5.82254e-30 -5.79872e-15 -0)
(9.31606e-30 -5.79872e-15 -0)
(4.65803e-31 -5.79872e-15 -0)
(3.72642e-30 -5.79872e-15 -0)
(-4.65803e-30 -5.79872e-15 -0)
(-2.79482e-30 -5.79872e-15 -0)
(3.02772e-30 -5.79872e-15 -0)
(1.44399e-29 -5.79872e-15 -0)
(2.32901e-31 -5.79872e-15 -0)
(-1.1878e-29 -5.79872e-15 -0)
(-8.61735e-30 -5.79872e-15 -0)
(3.95932e-30 -5.79872e-15 -0)
(1.44399e-29 -5.79872e-15 -0)
(-5.58963e-30 -5.79872e-15 -0)
(-8.15155e-30 -5.79872e-15 -0)
(2.79482e-30 -5.79872e-15 -0)
(-1.44399e-29 -5.79872e-15 -0)
(-8.38445e-30 -5.79872e-15 -0)
(1.35083e-29 -5.79872e-15 -0)
(4.89093e-30 -5.79872e-15 -0)
(-7.21994e-30 -5.79872e-15 -0)
(1.00148e-29 -5.79872e-15 -0)
(1.63031e-30 -5.79872e-15 -0)
(-3.02772e-30 -5.79872e-15 -0)
(1.49057e-29 -5.79872e-15 -0)
(-3.26062e-30 -5.79872e-15 -0)
(9.31606e-31 -5.79872e-15 -0)
(-2.09611e-30 -5.79872e-15 -0)
(-1.09464e-29 -5.79872e-15 -0)
(8.61735e-30 -5.79872e-15 -0)
(4.19223e-30 -5.79872e-15 -0)
(-2.32901e-31 -5.79872e-15 -0)
(-3.02772e-30 -5.79872e-15 -0)
(1.16451e-30 -5.79872e-15 -0)
(1.86321e-30 -5.79872e-15 -0)
(-1.83992e-29 -5.79872e-15 -0)
(-1.86321e-29 -5.79872e-15 -0)
(1.86321e-30 -5.79872e-15 -0)
(7.91865e-30 -5.79872e-15 -0)
(1.46974e-29 -5.79872e-15 -0)
(1.3793e-29 -5.79872e-15 -0)
(-4.74839e-30 -5.79872e-15 -0)
(-1.08535e-29 -5.79872e-15 -0)
(6.33119e-30 -5.79872e-15 -0)
(7.00953e-30 -5.79872e-15 -0)
(-1.10796e-29 -5.79872e-15 -0)
(-4.97451e-30 -5.79872e-15 -0)
(-0 -5.79872e-15 -0)
(8.59233e-30 -5.79872e-15 -0)
(1.26624e-29 -5.79872e-15 -0)
(-4.29617e-30 -5.79872e-15 -0)
(-4.52228e-31 -5.79872e-15 -0)
(3.39171e-30 -5.79872e-15 -0)
(-3.84394e-30 -5.79872e-15 -0)
(-2.71337e-30 -5.79872e-15 -0)
(2.03503e-29 -5.79872e-15 -0)
(2.41942e-29 -5.79872e-15 -0)
(-1.71847e-29 -5.79872e-15 -0)
(-1.33407e-29 -5.79872e-15 -0)
(-7.91399e-30 -5.79872e-15 -0)
(5.87897e-30 -5.79872e-15 -0)
(1.08535e-29 -5.79872e-15 -0)
(9.04456e-31 -5.79872e-15 -0)
(4.52228e-30 -5.79872e-15 -0)
(-6.33119e-30 -5.79872e-15 -0)
(-3.1656e-30 -5.79872e-15 -0)
(3.61783e-30 -5.79872e-15 -0)
(1.62802e-29 -5.79872e-15 -0)
(4.52228e-31 -5.79872e-15 -0)
(-1.24363e-29 -5.79872e-15 -0)
(-9.72291e-30 -5.79872e-15 -0)
(3.84394e-30 -5.79872e-15 -0)
(1.5828e-29 -5.79872e-15 -0)
(-5.87897e-30 -5.79872e-15 -0)
(-8.81845e-30 -5.79872e-15 -0)
(3.39171e-30 -5.79872e-15 -0)
(-1.71847e-29 -5.79872e-15 -0)
(-8.59234e-30 -5.79872e-15 -0)
(1.49235e-29 -5.79872e-15 -0)
(4.97451e-30 -5.79872e-15 -0)
(-7.91399e-30 -5.79872e-15 -0)
(1.13057e-29 -5.79872e-15 -0)
(1.5828e-30 -5.79872e-15 -0)
(-3.61783e-30 -5.79872e-15 -0)
(1.74108e-29 -5.79872e-15 -0)
(-3.39171e-30 -5.79872e-15 -0)
(1.35668e-30 -5.79872e-15 -0)
(-2.03503e-30 -5.79872e-15 -0)
(-1.28885e-29 -5.79872e-15 -0)
(9.94902e-30 -5.79872e-15 -0)
(4.07005e-30 -5.79872e-15 -0)
(-6.78342e-31 -5.79872e-15 -0)
(-2.93948e-30 -5.79872e-15 -0)
(1.13057e-30 -5.79872e-15 -0)
(1.80891e-30 -5.79872e-15 -0)
(-1.92197e-29 -5.79872e-15 -0)
(-2.1707e-29 -5.79872e-15 -0)
(9.04456e-31 -5.79872e-15 -0)
(8.59234e-30 -5.79872e-15 -0)
(1.58058e-29 -5.79872e-15 -0)
(1.53667e-29 -5.79872e-15 -0)
(-4.39049e-30 -5.79872e-15 -0)
(-1.14153e-29 -5.79872e-15 -0)
(6.58573e-30 -5.79872e-15 -0)
(7.90288e-30 -5.79872e-15 -0)
(-1.31715e-29 -5.79872e-15 -0)
(-6.58573e-30 -5.79872e-15 -0)
(-0 -5.79872e-15 -0)
(9.22003e-30 -5.79872e-15 -0)
(1.40496e-29 -5.79872e-15 -0)
(-3.51239e-30 -5.79872e-15 -0)
(8.78098e-31 -5.79872e-15 -0)
(3.07334e-30 -5.79872e-15 -0)
(-3.95144e-30 -5.79872e-15 -0)
(-3.51239e-30 -5.79872e-15 -0)
(2.23915e-29 -5.79872e-15 -0)
(2.63429e-29 -5.79872e-15 -0)
(-1.93182e-29 -5.79872e-15 -0)
(-1.27324e-29 -5.79872e-15 -0)
(-8.78098e-30 -5.79872e-15 -0)
(4.82954e-30 -5.79872e-15 -0)
(1.27324e-29 -5.79872e-15 -0)
(1.31715e-30 -5.79872e-15 -0)
(5.26859e-30 -5.79872e-15 -0)
(-7.02479e-30 -5.79872e-15 -0)
(-5.26859e-30 -5.79872e-15 -0)
(4.39049e-30 -5.79872e-15 -0)
(1.93182e-29 -5.79872e-15 -0)
(8.78098e-31 -5.79872e-15 -0)
(-1.44886e-29 -5.79872e-15 -0)
(-1.18543e-29 -5.79872e-15 -0)
(4.82954e-30 -5.79872e-15 -0)
(1.8001e-29 -5.79872e-15 -0)
(-7.02479e-30 -5.79872e-15 -0)
(-9.65908e-30 -5.79872e-15 -0)
(3.07334e-30 -5.79872e-15 -0)
(-1.7562e-29 -5.79872e-15 -0)
(-1.00981e-29 -5.79872e-15 -0)
(1.53667e-29 -5.79872e-15 -0)
(4.39049e-30 -5.79872e-15 -0)
(-9.22003e-30 -5.79872e-15 -0)
(1.44886e-29 -5.79872e-15 -0)
(2.63429e-30 -5.79872e-15 -0)
(-4.82954e-30 -5.79872e-15 -0)
(2.01963e-29 -5.79872e-15 -0)
(-3.95144e-30 -5.79872e-15 -0)
(1.31715e-30 -5.79872e-15 -0)
(-2.19525e-30 -5.79872e-15 -0)
(-1.49277e-29 -5.79872e-15 -0)
(1.14153e-29 -5.79872e-15 -0)
(5.26859e-30 -5.79872e-15 -0)
(-4.39049e-31 -5.79872e-15 -0)
(-4.39049e-30 -5.79872e-15 -0)
(8.78098e-31 -5.79872e-15 -0)
(3.07334e-30 -5.79872e-15 -0)
(-2.10744e-29 -5.79872e-15 -0)
(-2.45867e-29 -5.79872e-15 -0)
(-0 -5.79872e-15 -0)
(8.34193e-30 -5.79872e-15 -0)
(1.74764e-29 -5.79872e-15 -0)
(1.61976e-29 -5.79872e-15 -0)
(-6.39381e-30 -5.79872e-15 -0)
(-1.19351e-29 -5.79872e-15 -0)
(8.52508e-30 -5.79872e-15 -0)
(9.37759e-30 -5.79872e-15 -0)
(-1.53451e-29 -5.79872e-15 -0)
(-7.67257e-30 -5.79872e-15 -0)
(-4.26254e-31 -5.79872e-15 -0)
(9.80384e-30 -5.79872e-15 -0)
(1.57714e-29 -5.79872e-15 -0)
(-3.83629e-30 -5.79872e-15 -0)
(8.52508e-31 -5.79872e-15 -0)
(5.11505e-30 -5.79872e-15 -0)
(-5.11505e-30 -5.79872e-15 -0)
(-5.11505e-30 -5.79872e-15 -0)
(2.5149e-29 -5.79872e-15 -0)
(2.81328e-29 -5.79872e-15 -0)
(-2.00339e-29 -5.79872e-15 -0)
(-1.40664e-29 -5.79872e-15 -0)
(-1.06564e-29 -5.79872e-15 -0)
(6.82006e-30 -5.79872e-15 -0)
(1.44926e-29 -5.79872e-15 -0)
(8.52508e-31 -5.79872e-15 -0)
(5.11505e-30 -5.79872e-15 -0)
(-8.09883e-30 -5.79872e-15 -0)
(-5.96756e-30 -5.79872e-15 -0)
(6.39381e-30 -5.79872e-15 -0)
(2.08864e-29 -5.79872e-15 -0)
(4.26254e-31 -5.79872e-15 -0)
(-1.49189e-29 -5.79872e-15 -0)
(-1.27876e-29 -5.79872e-15 -0)
(4.6888e-30 -5.79872e-15 -0)
(1.96077e-29 -5.79872e-15 -0)
(-7.24632e-30 -5.79872e-15 -0)
(-1.06564e-29 -5.79872e-15 -0)
(2.98378e-30 -5.79872e-15 -0)
(-2.00339e-29 -5.79872e-15 -0)
(-1.15089e-29 -5.79872e-15 -0)
(1.74764e-29 -5.79872e-15 -0)
(5.96756e-30 -5.79872e-15 -0)
(-1.10826e-29 -5.79872e-15 -0)
(1.57714e-29 -5.79872e-15 -0)
(3.83629e-30 -5.79872e-15 -0)
(-4.6888e-30 -5.79872e-15 -0)
(2.25915e-29 -5.79872e-15 -0)
(-4.26254e-30 -5.79872e-15 -0)
(1.27876e-30 -5.79872e-15 -0)
(-2.98378e-30 -5.79872e-15 -0)
(-1.79027e-29 -5.79872e-15 -0)
(1.27876e-29 -5.79872e-15 -0)
(7.24632e-30 -5.79872e-15 -0)
(-8.52508e-31 -5.79872e-15 -0)
(-4.6888e-30 -5.79872e-15 -0)
(8.52508e-31 -5.79872e-15 -0)
(3.41003e-30 -5.79872e-15 -0)
(-2.30177e-29 -5.79872e-15 -0)
(-2.81328e-29 -5.79872e-15 -0)
(-8.52508e-31 -5.79872e-15 -0)
(1.06564e-29 -5.79872e-15 -0)
(1.90363e-29 -5.79872e-15 -0)
(1.77948e-29 -5.79872e-15 -0)
(-6.20748e-30 -5.79872e-15 -0)
(-1.28288e-29 -5.79872e-15 -0)
(9.51813e-30 -5.79872e-15 -0)
(9.51813e-30 -5.79872e-15 -0)
(-1.57256e-29 -5.79872e-15 -0)
(-8.27664e-30 -5.79872e-15 -0)
(-1.2415e-30 -5.79872e-15 -0)
(9.93196e-30 -5.79872e-15 -0)
(1.65533e-29 -5.79872e-15 -0)
(-2.48299e-30 -5.79872e-15 -0)
(2.06916e-30 -5.79872e-15 -0)
(4.96598e-30 -5.79872e-15 -0)
(-5.37981e-30 -5.79872e-15 -0)
(-5.37981e-30 -5.79872e-15 -0)
(2.68991e-29 -5.79872e-15 -0)
(3.06236e-29 -5.79872e-15 -0)
(-2.15193e-29 -5.79872e-15 -0)
(-1.61394e-29 -5.79872e-15 -0)
(-1.2415e-29 -5.79872e-15 -0)
(8.27664e-30 -5.79872e-15 -0)
(1.61394e-29 -5.79872e-15 -0)
(4.13832e-31 -5.79872e-15 -0)
(5.37982e-30 -5.79872e-15 -0)
(-7.86281e-30 -5.79872e-15 -0)
(-6.20748e-30 -5.79872e-15 -0)
(6.62131e-30 -5.79872e-15 -0)
(2.44161e-29 -5.79872e-15 -0)
(-4.13832e-31 -5.79872e-15 -0)
(-1.86224e-29 -5.79872e-15 -0)
(-1.4898e-29 -5.79872e-15 -0)
(5.37982e-30 -5.79872e-15 -0)
(2.23469e-29 -5.79872e-15 -0)
(-8.69047e-30 -5.79872e-15 -0)
(-1.15873e-29 -5.79872e-15 -0)
(3.72449e-30 -5.79872e-15 -0)
(-2.19331e-29 -5.79872e-15 -0)
(-1.36565e-29 -5.79872e-15 -0)
(1.86224e-29 -5.79872e-15 -0)
(6.62131e-30 -5.79872e-15 -0)
(-1.11735e-29 -5.79872e-15 -0)
(1.69671e-29 -5.79872e-15 -0)
(3.72449e-30 -5.79872e-15 -0)
(-2.89682e-30 -5.79872e-15 -0)
(2.60714e-29 -5.79872e-15 -0)
(-5.79365e-30 -5.79872e-15 -0)
(1.2415e-30 -5.79872e-15 -0)
(-3.72449e-30 -5.79872e-15 -0)
(-2.02778e-29 -5.79872e-15 -0)
(1.32426e-29 -5.79872e-15 -0)
(8.27664e-30 -5.79872e-15 -0)
(-0 -5.79872e-15 -0)
(-4.96598e-30 -5.79872e-15 -0)
(4.13832e-31 -5.79872e-15 -0)
(4.13832e-30 -5.79872e-15 -0)
(-2.52437e-29 -5.79872e-15 -0)
(-3.06236e-29 -5.79872e-15 -0)
(-2.48299e-30 -5.79872e-15 -0)
(1.07596e-29 -5.79872e-15 -0)
(2.16957e-29 -5.79872e-15 -0)
(1.96868e-29 -5.79872e-15 -0)
(-8.03543e-30 -5.79872e-15 -0)
(-1.36602e-29 -5.79872e-15 -0)
(1.04461e-29 -5.79872e-15 -0)
(1.12496e-29 -5.79872e-15 -0)
(-1.7678e-29 -5.79872e-15 -0)
(-9.24075e-30 -5.79872e-15 -0)
(-1.20532e-30 -5.79872e-15 -0)
(9.64252e-30 -5.79872e-15 -0)
(1.72762e-29 -5.79872e-15 -0)
(-2.8124e-30 -5.79872e-15 -0)
(2.8124e-30 -5.79872e-15 -0)
(5.6248e-30 -5.79872e-15 -0)
(-5.22303e-30 -5.79872e-15 -0)
(-6.42835e-30 -5.79872e-15 -0)
(2.97311e-29 -5.79872e-15 -0)
(3.29453e-29 -5.79872e-15 -0)
(-2.16957e-29 -5.79872e-15 -0)
(-1.68744e-29 -5.79872e-15 -0)
(-1.60709e-29 -5.79872e-15 -0)
(9.24075e-30 -5.79872e-15 -0)
(1.84815e-29 -5.79872e-15 -0)
(2.00886e-30 -5.79872e-15 -0)
(4.82126e-30 -5.79872e-15 -0)
(-9.64252e-30 -5.79872e-15 -0)
(-7.63366e-30 -5.79872e-15 -0)
(7.63366e-30 -5.79872e-15 -0)
(2.77223e-29 -5.79872e-15 -0)
(-8.03544e-31 -5.79872e-15 -0)
(-2.08921e-29 -5.79872e-15 -0)
(-1.52673e-29 -5.79872e-15 -0)
(8.03544e-30 -5.79872e-15 -0)
(2.24992e-29 -5.79872e-15 -0)
(-9.64252e-30 -5.79872e-15 -0)
(-1.16514e-29 -5.79872e-15 -0)
(3.61595e-30 -5.79872e-15 -0)
(-2.49099e-29 -5.79872e-15 -0)
(-1.32585e-29 -5.79872e-15 -0)
(1.88833e-29 -5.79872e-15 -0)
(6.42835e-30 -5.79872e-15 -0)
(-1.12496e-29 -5.79872e-15 -0)
(1.84815e-29 -5.79872e-15 -0)
(5.62481e-30 -5.79872e-15 -0)
(-3.61595e-30 -5.79872e-15 -0)
(2.65169e-29 -5.79872e-15 -0)
(-4.82126e-30 -5.79872e-15 -0)
(2.00886e-30 -5.79872e-15 -0)
(-4.82126e-30 -5.79872e-15 -0)
(-2.08921e-29 -5.79872e-15 -0)
(1.56691e-29 -5.79872e-15 -0)
(6.42835e-30 -5.79872e-15 -0)
(-8.03544e-31 -5.79872e-15 -0)
(-3.61595e-30 -5.79872e-15 -0)
(-1.20532e-30 -5.79872e-15 -0)
(4.01772e-30 -5.79872e-15 -0)
(-2.53116e-29 -5.79872e-15 -0)
(-3.41506e-29 -5.79872e-15 -0)
(-3.21417e-30 -5.79872e-15 -0)
(1.20532e-29 -5.79872e-15 -0)
(2.4964e-29 -5.79872e-15 -0)
(2.14535e-29 -5.79872e-15 -0)
(-1.05317e-29 -5.79872e-15 -0)
(-1.48224e-29 -5.79872e-15 -0)
(1.13118e-29 -5.79872e-15 -0)
(1.13118e-29 -5.79872e-15 -0)
(-1.67727e-29 -5.79872e-15 -0)
(-9.75158e-30 -5.79872e-15 -0)
(-2.73044e-30 -5.79872e-15 -0)
(1.05317e-29 -5.79872e-15 -0)
(1.63826e-29 -5.79872e-15 -0)
(-1.56025e-30 -5.79872e-15 -0)
(5.46088e-30 -5.79872e-15 -0)
(5.85095e-30 -5.79872e-15 -0)
(-7.4112e-30 -5.79872e-15 -0)
(-7.02114e-30 -5.79872e-15 -0)
(3.19852e-29 -5.79872e-15 -0)
(3.47156e-29 -5.79872e-15 -0)
(-2.37938e-29 -5.79872e-15 -0)
(-1.63827e-29 -5.79872e-15 -0)
(-1.67727e-29 -5.79872e-15 -0)
(1.01416e-29 -5.79872e-15 -0)
(1.95032e-29 -5.79872e-15 -0)
(2.34038e-30 -5.79872e-15 -0)
(6.63107e-30 -5.79872e-15 -0)
(-1.13118e-29 -5.79872e-15 -0)
(-9.75158e-30 -5.79872e-15 -0)
(8.58139e-30 -5.79872e-15 -0)
(3.00349e-29 -5.79872e-15 -0)
(-7.80126e-31 -5.79872e-15 -0)
(-2.10634e-29 -5.79872e-15 -0)
(-1.63827e-29 -5.79872e-15 -0)
(7.4112e-30 -5.79872e-15 -0)
(2.53541e-29 -5.79872e-15 -0)
(-1.09218e-29 -5.79872e-15 -0)
(-1.32621e-29 -5.79872e-15 -0)
(3.90063e-30 -5.79872e-15 -0)
(-2.61342e-29 -5.79872e-15 -0)
(-1.40423e-29 -5.79872e-15 -0)
(1.91131e-29 -5.79872e-15 -0)
(5.07082e-30 -5.79872e-15 -0)
(-1.2092e-29 -5.79872e-15 -0)
(2.18435e-29 -5.79872e-15 -0)
(7.80126e-30 -5.79872e-15 -0)
(-3.90063e-30 -5.79872e-15 -0)
(2.88647e-29 -5.79872e-15 -0)
(-5.85095e-30 -5.79872e-15 -0)
(1.56025e-30 -5.79872e-15 -0)
(-6.63107e-30 -5.79872e-15 -0)
(-2.26237e-29 -5.79872e-15 -0)
(1.71628e-29 -5.79872e-15 -0)
(8.19133e-30 -5.79872e-15 -0)
(-3.90063e-31 -5.79872e-15 -0)
(-3.90063e-30 -5.79872e-15 -0)
(-2.34038e-30 -5.79872e-15 -0)
(4.29069e-30 -5.79872e-15 -0)
(-2.61342e-29 -5.79872e-15 -0)
(-3.82262e-29 -5.79872e-15 -0)
(-3.51057e-30 -5.79872e-15 -0)
(1.2482e-29 -5.79872e-15 -0)
(2.99169e-29 -5.79872e-15 -0)
(2.38578e-29 -5.79872e-15 -0)
(-1.28756e-29 -5.79872e-15 -0)
(-1.43904e-29 -5.79872e-15 -0)
(1.3633e-29 -5.79872e-15 -0)
(1.06035e-29 -5.79872e-15 -0)
(-1.85561e-29 -5.79872e-15 -0)
(-8.3313e-30 -5.79872e-15 -0)
(-3.02956e-30 -5.79872e-15 -0)
(9.84609e-30 -5.79872e-15 -0)
(1.66626e-29 -5.79872e-15 -0)
(-1.89348e-30 -5.79872e-15 -0)
(5.68043e-30 -5.79872e-15 -0)
(7.57391e-30 -5.79872e-15 -0)
(-8.71e-30 -5.79872e-15 -0)
(-8.3313e-30 -5.79872e-15 -0)
(3.44613e-29 -5.79872e-15 -0)
(3.63548e-29 -5.79872e-15 -0)
(-2.27217e-29 -5.79872e-15 -0)
(-1.70413e-29 -5.79872e-15 -0)
(-1.89348e-29 -5.79872e-15 -0)
(1.13609e-29 -5.79872e-15 -0)
(2.19644e-29 -5.79872e-15 -0)
(2.27217e-30 -5.79872e-15 -0)
(5.30174e-30 -5.79872e-15 -0)
(-1.09822e-29 -5.79872e-15 -0)
(-1.02248e-29 -5.79872e-15 -0)
(8.33131e-30 -5.79872e-15 -0)
(3.44613e-29 -5.79872e-15 -0)
(7.57391e-31 -5.79872e-15 -0)
(-2.53726e-29 -5.79872e-15 -0)
(-1.89348e-29 -5.79872e-15 -0)
(9.84609e-30 -5.79872e-15 -0)
(2.57513e-29 -5.79872e-15 -0)
(-1.21183e-29 -5.79872e-15 -0)
(-1.32544e-29 -5.79872e-15 -0)
(1.13609e-30 -5.79872e-15 -0)
(-2.57513e-29 -5.79872e-15 -0)
(-1.17396e-29 -5.79872e-15 -0)
(1.85561e-29 -5.79872e-15 -0)
(4.54435e-30 -5.79872e-15 -0)
(-1.2497e-29 -5.79872e-15 -0)
(2.42365e-29 -5.79872e-15 -0)
(7.95261e-30 -5.79872e-15 -0)
(-3.78696e-30 -5.79872e-15 -0)
(2.87809e-29 -5.79872e-15 -0)
(-6.81652e-30 -5.79872e-15 -0)
(3.40826e-30 -5.79872e-15 -0)
(-8.33131e-30 -5.79872e-15 -0)
(-2.34791e-29 -5.79872e-15 -0)
(1.96922e-29 -5.79872e-15 -0)
(8.33131e-30 -5.79872e-15 -0)
(-7.57391e-31 -5.79872e-15 -0)
(-3.40826e-30 -5.79872e-15 -0)
(-3.40826e-30 -5.79872e-15 -0)
(3.02957e-30 -5.79872e-15 -0)
(-2.80235e-29 -5.79872e-15 -0)
(-3.90057e-29 -5.79872e-15 -0)
(-4.16565e-30 -5.79872e-15 -0)
(1.3633e-29 -5.79872e-15 -0)