/*--------------------------------*- C++ -*----------------------------------*\
| =========                 |                                                 |
| \\      /  F ield         | foam-extend: Open Source CFD                    |
|  \\    /   O peration     | Version:     4.0                                |
|   \\  /    A nd           | Web:         http://www.foam-extend.org         |
|    \\/     M anipulation  |                                                 |
\*---------------------------------------------------------------------------*/
FoamFile
{
    version     2.0;
    format      ascii;
    class       volVectorField;
    location    "14";
    object      bodyForce;
}
// * * * * * * * * * * * * * * * * * * * * * * * * * * * * * * * * * * * * * //

dimensions      [1 -2 -2 0 0 0 0];

internalField   nonuniform List<vector> 
6960
(
(2.02862e-31 -5.79872e-15 -0)
(3.50398e-31 -5.79872e-15 -0)
(7.37681e-32 -5.79872e-15 -0)
(-5.53261e-32 -5.79872e-15 -0)
(-7.37681e-32 -5.79872e-15 -0)
(-1.29094e-31 -5.79872e-15 -0)
(-3.50398e-31 -5.79872e-15 -0)
(-1.29094e-31 -5.79872e-15 -0)
(1.29094e-31 -5.79872e-15 -0)
(-4.42608e-31 -5.79872e-15 -0)
(-9.22101e-32 -5.79872e-15 -0)
(-5.53261e-32 -5.79872e-15 -0)
(-1.8442e-32 -5.79872e-15 -0)
(2.21304e-31 -5.79872e-15 -0)
(-5.90145e-31 -5.79872e-15 -0)
(-3.87282e-31 -5.79872e-15 -0)
(6.45471e-31 -5.79872e-15 -0)
(3.13514e-31 -5.79872e-15 -0)
(-5.16377e-31 -5.79872e-15 -0)
(-5.90145e-31 -5.79872e-15 -0)
(-2.95072e-31 -5.79872e-15 -0)
(-3.31956e-31 -5.79872e-15 -0)
(1.65978e-31 -5.79872e-15 -0)
(4.42608e-31 -5.79872e-15 -0)
(7.37681e-32 -5.79872e-15 -0)
(9.22101e-32 -5.79872e-15 -0)
(-5.16377e-31 -5.79872e-15 -0)
(-4.97934e-31 -5.79872e-15 -0)
(5.53261e-32 -5.79872e-15 -0)
(6.82355e-31 -5.79872e-15 -0)
(6.82355e-31 -5.79872e-15 -0)
(-3.31956e-31 -5.79872e-15 -0)
(-2.21304e-31 -5.79872e-15 -0)
(9.22101e-32 -5.79872e-15 -0)
(5.53261e-32 -5.79872e-15 -0)
(1.29094e-31 -5.79872e-15 -0)
(-0 -5.79872e-15 -0)
(-2.7663e-31 -5.79872e-15 -0)
(-2.58188e-31 -5.79872e-15 -0)
(-0 -5.79872e-15 -0)
(1.65978e-31 -5.79872e-15 -0)
(-2.95072e-31 -5.79872e-15 -0)
(1.65978e-31 -5.79872e-15 -0)
(5.34819e-31 -5.79872e-15 -0)
(1.65978e-31 -5.79872e-15 -0)
(3.31956e-31 -5.79872e-15 -0)
(3.13514e-31 -5.79872e-15 -0)
(2.95072e-31 -5.79872e-15 -0)
(5.90145e-31 -5.79872e-15 -0)
(2.58188e-31 -5.79872e-15 -0)
(5.53261e-32 -5.79872e-15 -0)
(2.21304e-31 -5.79872e-15 -0)
(-2.95072e-31 -5.79872e-15 -0)
(-6.63913e-31 -5.79872e-15 -0)
(-1.10652e-31 -5.79872e-15 -0)
(3.6884e-32 -5.79872e-15 -0)
(-3.31956e-31 -5.79872e-15 -0)
(-1.8442e-32 -5.79872e-15 -0)
(-1.29094e-31 -5.79872e-15 -0)
(-3.13514e-31 -5.79872e-15 -0)
(7.16183e-31 -5.79872e-15 -0)
(1.14589e-30 -5.79872e-15 -0)
(7.16183e-32 -5.79872e-15 -0)
(-3.58091e-31 -5.79872e-15 -0)
(-2.86473e-31 -5.79872e-15 -0)
(-3.58091e-31 -5.79872e-15 -0)
(-1.1817e-30 -5.79872e-15 -0)
(-3.22282e-31 -5.79872e-15 -0)
(5.37137e-31 -5.79872e-15 -0)
(-1.36075e-30 -5.79872e-15 -0)
(-2.86473e-31 -5.79872e-15 -0)
(1.79046e-31 -5.79872e-15 -0)
(3.58091e-32 -5.79872e-15 -0)
(6.44565e-31 -5.79872e-15 -0)
(-2.07693e-30 -5.79872e-15 -0)
(-1.43237e-30 -5.79872e-15 -0)
(2.00531e-30 -5.79872e-15 -0)
(1.07427e-30 -5.79872e-15 -0)
(-1.46817e-30 -5.79872e-15 -0)
(-1.89788e-30 -5.79872e-15 -0)
(-8.95229e-31 -5.79872e-15 -0)
(-9.31038e-31 -5.79872e-15 -0)
(5.01328e-31 -5.79872e-15 -0)
(1.50398e-30 -5.79872e-15 -0)
(2.14855e-31 -5.79872e-15 -0)
(1.07427e-31 -5.79872e-15 -0)
(-1.46817e-30 -5.79872e-15 -0)
(-1.28913e-30 -5.79872e-15 -0)
(1.43237e-31 -5.79872e-15 -0)
(2.14855e-30 -5.79872e-15 -0)
(2.04112e-30 -5.79872e-15 -0)
(-1.21751e-30 -5.79872e-15 -0)
(-7.16183e-31 -5.79872e-15 -0)
(1.07427e-31 -5.79872e-15 -0)
(-7.16183e-32 -5.79872e-15 -0)
(5.72946e-31 -5.79872e-15 -0)
(-1.07427e-31 -5.79872e-15 -0)
(-8.2361e-31 -5.79872e-15 -0)
(-6.08755e-31 -5.79872e-15 -0)
(3.58091e-32 -5.79872e-15 -0)
(5.37137e-31 -5.79872e-15 -0)
(-7.51992e-31 -5.79872e-15 -0)
(2.86473e-31 -5.79872e-15 -0)
(1.39656e-30 -5.79872e-15 -0)
(5.01328e-31 -5.79872e-15 -0)
(1.14589e-30 -5.79872e-15 -0)
(1.00266e-30 -5.79872e-15 -0)
(9.31038e-31 -5.79872e-15 -0)
(1.71884e-30 -5.79872e-15 -0)
(5.72946e-31 -5.79872e-15 -0)
(3.22282e-31 -5.79872e-15 -0)
(7.16183e-31 -5.79872e-15 -0)
(-7.51992e-31 -5.79872e-15 -0)
(-2.04112e-30 -5.79872e-15 -0)
(-4.65519e-31 -5.79872e-15 -0)
(2.50664e-31 -5.79872e-15 -0)
(-1.00266e-30 -5.79872e-15 -0)
(-1.43237e-31 -5.79872e-15 -0)
(-4.65519e-31 -5.79872e-15 -0)
(-8.95229e-31 -5.79872e-15 -0)
(1.04297e-30 -5.79872e-15 -0)
(1.66875e-30 -5.79872e-15 -0)
(2.08593e-31 -5.79872e-15 -0)
(-2.08593e-31 -5.79872e-15 -0)
(-4.86718e-31 -5.79872e-15 -0)
(-7.64843e-31 -5.79872e-15 -0)
(-2.0164e-30 -5.79872e-15 -0)
(-3.47656e-31 -5.79872e-15 -0)
(1.04297e-30 -5.79872e-15 -0)
(-2.36406e-30 -5.79872e-15 -0)
(-6.95311e-31 -5.79872e-15 -0)
(-0 -5.79872e-15 -0)
(-2.08593e-31 -5.79872e-15 -0)
(5.56249e-31 -5.79872e-15 -0)
(-2.92031e-30 -5.79872e-15 -0)
(-2.0164e-30 -5.79872e-15 -0)
(3.33749e-30 -5.79872e-15 -0)
(2.0164e-30 -5.79872e-15 -0)
(-2.64218e-30 -5.79872e-15 -0)
(-3.1289e-30 -5.79872e-15 -0)
(-1.39062e-30 -5.79872e-15 -0)
(-1.87734e-30 -5.79872e-15 -0)
(9.03905e-31 -5.79872e-15 -0)
(2.57265e-30 -5.79872e-15 -0)
(-6.95311e-32 -5.79872e-15 -0)
(2.78125e-31 -5.79872e-15 -0)
(-2.15547e-30 -5.79872e-15 -0)
(-2.64218e-30 -5.79872e-15 -0)
(1.39062e-31 -5.79872e-15 -0)
(3.82421e-30 -5.79872e-15 -0)
(3.33749e-30 -5.79872e-15 -0)
(-1.66875e-30 -5.79872e-15 -0)
(-1.18203e-30 -5.79872e-15 -0)
(3.47656e-31 -5.79872e-15 -0)
(2.08593e-31 -5.79872e-15 -0)
(6.95311e-31 -5.79872e-15 -0)
(-6.95311e-32 -5.79872e-15 -0)
(-1.32109e-30 -5.79872e-15 -0)
(-1.18203e-30 -5.79872e-15 -0)
(1.39062e-31 -5.79872e-15 -0)
(8.34374e-31 -5.79872e-15 -0)
(-1.39062e-30 -5.79872e-15 -0)
(6.2578e-31 -5.79872e-15 -0)
(2.50312e-30 -5.79872e-15 -0)
(8.34374e-31 -5.79872e-15 -0)
(1.80781e-30 -5.79872e-15 -0)
(1.59922e-30 -5.79872e-15 -0)
(1.59922e-30 -5.79872e-15 -0)
(2.85078e-30 -5.79872e-15 -0)
(8.34374e-31 -5.79872e-15 -0)
(2.78125e-31 -5.79872e-15 -0)
(1.32109e-30 -5.79872e-15 -0)
(-1.18203e-30 -5.79872e-15 -0)
(-3.33749e-30 -5.79872e-15 -0)
(-8.34374e-31 -5.79872e-15 -0)
(2.78125e-31 -5.79872e-15 -0)
(-1.66875e-30 -5.79872e-15 -0)
(-6.95311e-32 -5.79872e-15 -0)
(-7.64843e-31 -5.79872e-15 -0)
(-1.52969e-30 -5.79872e-15 -0)
(1.3501e-30 -5.79872e-15 -0)
(2.43017e-30 -5.79872e-15 -0)
(1.3501e-31 -5.79872e-15 -0)
(-4.05029e-31 -5.79872e-15 -0)
(-8.10058e-31 -5.79872e-15 -0)
(-1.08008e-30 -5.79872e-15 -0)
(-2.70019e-30 -5.79872e-15 -0)
(-2.70019e-31 -5.79872e-15 -0)
(1.21509e-30 -5.79872e-15 -0)
(-3.78027e-30 -5.79872e-15 -0)
(-1.3501e-30 -5.79872e-15 -0)
(2.70019e-31 -5.79872e-15 -0)
(-0 -5.79872e-15 -0)
(1.75513e-30 -5.79872e-15 -0)
(-4.32031e-30 -5.79872e-15 -0)
(-3.37524e-30 -5.79872e-15 -0)
(4.86035e-30 -5.79872e-15 -0)
(2.70019e-30 -5.79872e-15 -0)
(-4.05029e-30 -5.79872e-15 -0)
(-4.45532e-30 -5.79872e-15 -0)
(-2.02514e-30 -5.79872e-15 -0)
(-2.56518e-30 -5.79872e-15 -0)
(1.21509e-30 -5.79872e-15 -0)
(3.64526e-30 -5.79872e-15 -0)
(4.05029e-31 -5.79872e-15 -0)
(4.05029e-31 -5.79872e-15 -0)
(-3.24023e-30 -5.79872e-15 -0)
(-3.91528e-30 -5.79872e-15 -0)
(-0 -5.79872e-15 -0)
(5.5354e-30 -5.79872e-15 -0)
(5.13037e-30 -5.79872e-15 -0)
(-2.56518e-30 -5.79872e-15 -0)
(-1.3501e-30 -5.79872e-15 -0)
(5.40039e-31 -5.79872e-15 -0)
(-1.3501e-31 -5.79872e-15 -0)
(1.08008e-30 -5.79872e-15 -0)
(2.70019e-31 -5.79872e-15 -0)
(-2.02514e-30 -5.79872e-15 -0)
(-1.62012e-30 -5.79872e-15 -0)
(2.70019e-31 -5.79872e-15 -0)
(1.08008e-30 -5.79872e-15 -0)
(-2.16015e-30 -5.79872e-15 -0)
(5.40039e-31 -5.79872e-15 -0)
(3.78027e-30 -5.79872e-15 -0)
(1.21509e-30 -5.79872e-15 -0)
(2.43017e-30 -5.79872e-15 -0)
(2.43017e-30 -5.79872e-15 -0)
(2.16015e-30 -5.79872e-15 -0)
(4.1853e-30 -5.79872e-15 -0)
(1.08008e-30 -5.79872e-15 -0)
(9.45068e-31 -5.79872e-15 -0)
(2.29516e-30 -5.79872e-15 -0)
(-2.16015e-30 -5.79872e-15 -0)
(-4.59033e-30 -5.79872e-15 -0)
(-1.08008e-30 -5.79872e-15 -0)
(4.05029e-31 -5.79872e-15 -0)
(-2.56518e-30 -5.79872e-15 -0)
(-1.3501e-31 -5.79872e-15 -0)
(-1.08008e-30 -5.79872e-15 -0)
(-2.02514e-30 -5.79872e-15 -0)
(1.96613e-30 -5.79872e-15 -0)
(3.01473e-30 -5.79872e-15 -0)
(-0 -5.79872e-15 -0)
(-7.86451e-31 -5.79872e-15 -0)
(-9.17526e-31 -5.79872e-15 -0)
(-1.0486e-30 -5.79872e-15 -0)
(-3.1458e-30 -5.79872e-15 -0)
(-5.243e-31 -5.79872e-15 -0)
(1.5729e-30 -5.79872e-15 -0)
(-4.45655e-30 -5.79872e-15 -0)
(-1.5729e-30 -5.79872e-15 -0)
(-0 -5.79872e-15 -0)
(-2.6215e-31 -5.79872e-15 -0)
(1.70398e-30 -5.79872e-15 -0)
(-5.243e-30 -5.79872e-15 -0)
(-4.1944e-30 -5.79872e-15 -0)
(6.29161e-30 -5.79872e-15 -0)
(3.80118e-30 -5.79872e-15 -0)
(-5.243e-30 -5.79872e-15 -0)
(-6.02946e-30 -5.79872e-15 -0)
(-2.49043e-30 -5.79872e-15 -0)
(-3.53903e-30 -5.79872e-15 -0)
(2.22828e-30 -5.79872e-15 -0)
(4.84978e-30 -5.79872e-15 -0)
(-1.31075e-31 -5.79872e-15 -0)
(7.86451e-31 -5.79872e-15 -0)
(-4.45655e-30 -5.79872e-15 -0)
(-4.84978e-30 -5.79872e-15 -0)
(1.31075e-31 -5.79872e-15 -0)
(6.94698e-30 -5.79872e-15 -0)
(6.42268e-30 -5.79872e-15 -0)
(-3.27688e-30 -5.79872e-15 -0)
(-1.70398e-30 -5.79872e-15 -0)
(5.243e-31 -5.79872e-15 -0)
(-0 -5.79872e-15 -0)
(1.44183e-30 -5.79872e-15 -0)
(-1.31075e-31 -5.79872e-15 -0)
(-2.75258e-30 -5.79872e-15 -0)
(-1.70398e-30 -5.79872e-15 -0)
(3.93225e-31 -5.79872e-15 -0)
(9.17526e-31 -5.79872e-15 -0)
(-2.75258e-30 -5.79872e-15 -0)
(1.44183e-30 -5.79872e-15 -0)
(5.11193e-30 -5.79872e-15 -0)
(1.44183e-30 -5.79872e-15 -0)
(2.88365e-30 -5.79872e-15 -0)
(3.27688e-30 -5.79872e-15 -0)
(3.27688e-30 -5.79872e-15 -0)
(5.63623e-30 -5.79872e-15 -0)
(1.83505e-30 -5.79872e-15 -0)
(5.243e-31 -5.79872e-15 -0)
(2.22828e-30 -5.79872e-15 -0)
(-2.49043e-30 -5.79872e-15 -0)
(-6.02946e-30 -5.79872e-15 -0)
(-1.83505e-30 -5.79872e-15 -0)
(2.6215e-31 -5.79872e-15 -0)
(-2.88365e-30 -5.79872e-15 -0)
(-2.6215e-31 -5.79872e-15 -0)
(-1.70398e-30 -5.79872e-15 -0)
(-2.6215e-30 -5.79872e-15 -0)
(3.43589e-30 -5.79872e-15 -0)
(4.32668e-30 -5.79872e-15 -0)
(-3.81766e-31 -5.79872e-15 -0)
(-8.90787e-31 -5.79872e-15 -0)
(-1.01804e-30 -5.79872e-15 -0)
(-1.65432e-30 -5.79872e-15 -0)
(-4.19942e-30 -5.79872e-15 -0)
(-7.63532e-31 -5.79872e-15 -0)
(1.1453e-30 -5.79872e-15 -0)
(-5.34472e-30 -5.79872e-15 -0)
(-1.27255e-30 -5.79872e-15 -0)
(2.54511e-31 -5.79872e-15 -0)
(1.27255e-31 -5.79872e-15 -0)
(2.79962e-30 -5.79872e-15 -0)
(-6.74453e-30 -5.79872e-15 -0)
(-5.59923e-30 -5.79872e-15 -0)
(6.87178e-30 -5.79872e-15 -0)
(4.8357e-30 -5.79872e-15 -0)
(-5.85374e-30 -5.79872e-15 -0)
(-7.3808e-30 -5.79872e-15 -0)
(-3.43589e-30 -5.79872e-15 -0)
(-3.94491e-30 -5.79872e-15 -0)
(2.67236e-30 -5.79872e-15 -0)
(5.85374e-30 -5.79872e-15 -0)
(-0 -5.79872e-15 -0)
(1.01804e-30 -5.79872e-15 -0)
(-4.96296e-30 -5.79872e-15 -0)
(-5.72649e-30 -5.79872e-15 -0)
(-0 -5.79872e-15 -0)
(7.76257e-30 -5.79872e-15 -0)
(7.50806e-30 -5.79872e-15 -0)
(-3.56315e-30 -5.79872e-15 -0)
(-2.54511e-30 -5.79872e-15 -0)
(2.54511e-31 -5.79872e-15 -0)
(3.81766e-31 -5.79872e-15 -0)
(2.54511e-30 -5.79872e-15 -0)
(-6.36276e-31 -5.79872e-15 -0)
(-3.6904e-30 -5.79872e-15 -0)
(-1.90883e-30 -5.79872e-15 -0)
(6.36276e-31 -5.79872e-15 -0)
(1.78157e-30 -5.79872e-15 -0)
(-3.43589e-30 -5.79872e-15 -0)
(7.63532e-31 -5.79872e-15 -0)
(6.23551e-30 -5.79872e-15 -0)
(1.90883e-30 -5.79872e-15 -0)
(4.32668e-30 -5.79872e-15 -0)
(4.45393e-30 -5.79872e-15 -0)
(3.05413e-30 -5.79872e-15 -0)
(5.85374e-30 -5.79872e-15 -0)
(2.54511e-30 -5.79872e-15 -0)
(1.90883e-30 -5.79872e-15 -0)
(3.05413e-30 -5.79872e-15 -0)
(-3.6904e-30 -5.79872e-15 -0)
(-7.76257e-30 -5.79872e-15 -0)
(-2.29059e-30 -5.79872e-15 -0)
(6.36276e-31 -5.79872e-15 -0)
(-3.30864e-30 -5.79872e-15 -0)
(-8.90787e-31 -5.79872e-15 -0)
(-2.41785e-30 -5.79872e-15 -0)
(-3.81766e-30 -5.79872e-15 -0)
(4.20059e-30 -5.79872e-15 -0)
(5.18896e-30 -5.79872e-15 -0)
(-0 -5.79872e-15 -0)
(-1.48256e-30 -5.79872e-15 -0)
(-9.88374e-31 -5.79872e-15 -0)
(-1.72965e-30 -5.79872e-15 -0)
(-6.42443e-30 -5.79872e-15 -0)
(-1.23547e-30 -5.79872e-15 -0)
(2.71803e-30 -5.79872e-15 -0)
(-7.16571e-30 -5.79872e-15 -0)
(-1.97675e-30 -5.79872e-15 -0)
(9.88374e-31 -5.79872e-15 -0)
(-0 -5.79872e-15 -0)
(3.45931e-30 -5.79872e-15 -0)
(-7.4128e-30 -5.79872e-15 -0)
(-7.16571e-30 -5.79872e-15 -0)
(8.89536e-30 -5.79872e-15 -0)
(5.93024e-30 -5.79872e-15 -0)
(-8.15408e-30 -5.79872e-15 -0)
(-8.89536e-30 -5.79872e-15 -0)
(-3.95349e-30 -5.79872e-15 -0)
(-5.18896e-30 -5.79872e-15 -0)
(3.21221e-30 -5.79872e-15 -0)
(7.4128e-30 -5.79872e-15 -0)
(4.94187e-31 -5.79872e-15 -0)
(7.4128e-31 -5.79872e-15 -0)
(-5.93024e-30 -5.79872e-15 -0)
(-7.16571e-30 -5.79872e-15 -0)
(-2.47093e-31 -5.79872e-15 -0)
(9.38955e-30 -5.79872e-15 -0)
(8.89536e-30 -5.79872e-15 -0)
(-3.95349e-30 -5.79872e-15 -0)
(-2.22384e-30 -5.79872e-15 -0)
(2.47093e-31 -5.79872e-15 -0)
(-0 -5.79872e-15 -0)
(2.47093e-30 -5.79872e-15 -0)
(2.47093e-31 -5.79872e-15 -0)
(-4.44768e-30 -5.79872e-15 -0)
(-2.47093e-30 -5.79872e-15 -0)
(1.23547e-30 -5.79872e-15 -0)
(1.23547e-30 -5.79872e-15 -0)
(-4.69478e-30 -5.79872e-15 -0)
(1.72965e-30 -5.79872e-15 -0)
(7.4128e-30 -5.79872e-15 -0)
(2.96512e-30 -5.79872e-15 -0)
(4.69478e-30 -5.79872e-15 -0)
(4.20059e-30 -5.79872e-15 -0)
(4.69478e-30 -5.79872e-15 -0)
(7.90699e-30 -5.79872e-15 -0)
(2.47093e-30 -5.79872e-15 -0)
(1.97675e-30 -5.79872e-15 -0)
(3.95349e-30 -5.79872e-15 -0)
(-4.94187e-30 -5.79872e-15 -0)
(-8.89536e-30 -5.79872e-15 -0)
(-1.72965e-30 -5.79872e-15 -0)
(9.88374e-31 -5.79872e-15 -0)
(-4.20059e-30 -5.79872e-15 -0)
(-1.23547e-30 -5.79872e-15 -0)
(-2.96512e-30 -5.79872e-15 -0)
(-4.69478e-30 -5.79872e-15 -0)
(4.55796e-30 -5.79872e-15 -0)
(5.99731e-30 -5.79872e-15 -0)
(7.19677e-31 -5.79872e-15 -0)
(-1.67925e-30 -5.79872e-15 -0)
(-1.43935e-30 -5.79872e-15 -0)
(-9.5957e-31 -5.79872e-15 -0)
(-6.95688e-30 -5.79872e-15 -0)
(-1.43935e-30 -5.79872e-15 -0)
(3.1186e-30 -5.79872e-15 -0)
(-7.67656e-30 -5.79872e-15 -0)
(-2.39892e-30 -5.79872e-15 -0)
(-0 -5.79872e-15 -0)
(-2.39892e-31 -5.79872e-15 -0)
(3.35849e-30 -5.79872e-15 -0)
(-8.63613e-30 -5.79872e-15 -0)
(-7.43667e-30 -5.79872e-15 -0)
(9.35581e-30 -5.79872e-15 -0)
(6.4771e-30 -5.79872e-15 -0)
(-8.63613e-30 -5.79872e-15 -0)
(-1.10351e-29 -5.79872e-15 -0)
(-4.55796e-30 -5.79872e-15 -0)
(-5.27763e-30 -5.79872e-15 -0)
(3.83828e-30 -5.79872e-15 -0)
(7.67656e-30 -5.79872e-15 -0)
(-0 -5.79872e-15 -0)
(1.67925e-30 -5.79872e-15 -0)
(-8.63613e-30 -5.79872e-15 -0)
(-7.91645e-30 -5.79872e-15 -0)
(1.67925e-30 -5.79872e-15 -0)
(1.07952e-29 -5.79872e-15 -0)
(9.83559e-30 -5.79872e-15 -0)
(-5.51753e-30 -5.79872e-15 -0)
(-2.39892e-30 -5.79872e-15 -0)
(1.67925e-30 -5.79872e-15 -0)
(4.79785e-31 -5.79872e-15 -0)
(2.63882e-30 -5.79872e-15 -0)
(-0 -5.79872e-15 -0)
(-4.79785e-30 -5.79872e-15 -0)
(-3.1186e-30 -5.79872e-15 -0)
(4.79785e-31 -5.79872e-15 -0)
(1.43935e-30 -5.79872e-15 -0)
(-5.27763e-30 -5.79872e-15 -0)
(2.63882e-30 -5.79872e-15 -0)
(8.39624e-30 -5.79872e-15 -0)
(2.87871e-30 -5.79872e-15 -0)
(6.2372e-30 -5.79872e-15 -0)
(4.31806e-30 -5.79872e-15 -0)
(5.75742e-30 -5.79872e-15 -0)
(9.83559e-30 -5.79872e-15 -0)
(3.35849e-30 -5.79872e-15 -0)
(1.91914e-30 -5.79872e-15 -0)
(4.31806e-30 -5.79872e-15 -0)
(-5.03774e-30 -5.79872e-15 -0)
(-1.10351e-29 -5.79872e-15 -0)
(-2.39892e-30 -5.79872e-15 -0)
(-4.79785e-31 -5.79872e-15 -0)
(-5.03774e-30 -5.79872e-15 -0)
(-1.19946e-30 -5.79872e-15 -0)
(-3.83828e-30 -5.79872e-15 -0)
(-5.75742e-30 -5.79872e-15 -0)
(5.12383e-30 -5.79872e-15 -0)
(6.75414e-30 -5.79872e-15 -0)
(-4.65803e-31 -5.79872e-15 -0)
(-1.39741e-30 -5.79872e-15 -0)
(-1.86321e-30 -5.79872e-15 -0)
(-2.32901e-30 -5.79872e-15 -0)
(-6.52124e-30 -5.79872e-15 -0)
(-1.63031e-30 -5.79872e-15 -0)
(2.79482e-30 -5.79872e-15 -0)
(-8.15155e-30 -5.79872e-15 -0)
(-2.56192e-30 -5.79872e-15 -0)
(4.65803e-31 -5.79872e-15 -0)
(-9.31606e-31 -5.79872e-15 -0)
(3.26062e-30 -5.79872e-15 -0)
(-9.31606e-30 -5.79872e-15 -0)
(-8.38445e-30 -5.79872e-15 -0)
(1.11793e-29 -5.79872e-15 -0)
(7.68575e-30 -5.79872e-15 -0)
(-1.00148e-29 -5.79872e-15 -0)
(-1.28096e-29 -5.79872e-15 -0)
(-5.82254e-30 -5.79872e-15 -0)
(-6.28834e-30 -5.79872e-15 -0)
(4.89093e-30 -5.79872e-15 -0)
(9.08315e-30 -5.79872e-15 -0)
(-0 -5.79872e-15 -0)
(1.63031e-30 -5.79872e-15 -0)
(-8.61735e-30 -5.79872e-15 -0)
(-9.08315e-30 -5.79872e-15 -0)
(2.32901e-31 -5.79872e-15 -0)
(1.39741e-29 -5.79872e-15 -0)
(1.21109e-29 -5.79872e-15 -0)
(-6.28834e-30 -5.79872e-15 -0)
(-3.72642e-30 -5.79872e-15 -0)
(6.98704e-31 -5.79872e-15 -0)
(1.16451e-30 -5.79872e-15 -0)
(2.56192e-30 -5.79872e-15 -0)
(-1.16451e-30 -5.79872e-15 -0)
(-4.65803e-30 -5.79872e-15 -0)
(-3.26062e-30 -5.79872e-15 -0)
(4.65803e-31 -5.79872e-15 -0)
(2.09611e-30 -5.79872e-15 -0)
(-6.05544e-30 -5.79872e-15 -0)
(2.56192e-30 -5.79872e-15 -0)
(1.02477e-29 -5.79872e-15 -0)
(3.72642e-30 -5.79872e-15 -0)
(7.21994e-30 -5.79872e-15 -0)
(5.82254e-30 -5.79872e-15 -0)
(6.52124e-30 -5.79872e-15 -0)
(1.04806e-29 -5.79872e-15 -0)
(3.02772e-30 -5.79872e-15 -0)
(2.79482e-30 -5.79872e-15 -0)
(5.12383e-30 -5.79872e-15 -0)
(-5.82254e-30 -5.79872e-15 -0)
(-1.23438e-29 -5.79872e-15 -0)
(-3.26062e-30 -5.79872e-15 -0)
(-2.32901e-31 -5.79872e-15 -0)
(-6.05544e-30 -5.79872e-15 -0)
(-1.16451e-30 -5.79872e-15 -0)
(-4.89093e-30 -5.79872e-15 -0)
(-7.21994e-30 -5.79872e-15 -0)
(6.33119e-30 -5.79872e-15 -0)
(7.91399e-30 -5.79872e-15 -0)
(-1.80891e-30 -5.79872e-15 -0)
(-1.5828e-30 -5.79872e-15 -0)
(-2.93948e-30 -5.79872e-15 -0)
(-4.52228e-30 -5.79872e-15 -0)
(-7.91399e-30 -5.79872e-15 -0)
(-1.35668e-30 -5.79872e-15 -0)
(3.84394e-30 -5.79872e-15 -0)
(-9.27068e-30 -5.79872e-15 -0)
(-1.5828e-30 -5.79872e-15 -0)
(2.48725e-30 -5.79872e-15 -0)
(-4.52228e-31 -5.79872e-15 -0)
(2.93948e-30 -5.79872e-15 -0)
(-1.17579e-29 -5.79872e-15 -0)
(-9.04456e-30 -5.79872e-15 -0)
(1.24363e-29 -5.79872e-15 -0)
(7.91399e-30 -5.79872e-15 -0)
(-9.94902e-30 -5.79872e-15 -0)
(-1.51496e-29 -5.79872e-15 -0)
(-6.55731e-30 -5.79872e-15 -0)
(-6.78342e-30 -5.79872e-15 -0)
(5.42674e-30 -5.79872e-15 -0)
(1.01751e-29 -5.79872e-15 -0)
(-0 -5.79872e-15 -0)
(1.5828e-30 -5.79872e-15 -0)
(-9.94902e-30 -5.79872e-15 -0)
(-9.7229e-30 -5.79872e-15 -0)
(1.35668e-30 -5.79872e-15 -0)
(1.44713e-29 -5.79872e-15 -0)
(1.31146e-29 -5.79872e-15 -0)
(-6.78342e-30 -5.79872e-15 -0)
(-4.07005e-30 -5.79872e-15 -0)
(-9.04456e-31 -5.79872e-15 -0)
(4.52228e-31 -5.79872e-15 -0)
(3.61783e-30 -5.79872e-15 -0)
(-0 -5.79872e-15 -0)
(-5.65285e-30 -5.79872e-15 -0)
(-3.39171e-30 -5.79872e-15 -0)
(9.04456e-31 -5.79872e-15 -0)
(3.1656e-30 -5.79872e-15 -0)
(-7.46176e-30 -5.79872e-15 -0)
(2.93948e-30 -5.79872e-15 -0)
(1.28885e-29 -5.79872e-15 -0)
(2.93948e-30 -5.79872e-15 -0)
(7.00954e-30 -5.79872e-15 -0)
(7.68788e-30 -5.79872e-15 -0)
(8.36622e-30 -5.79872e-15 -0)
(1.10796e-29 -5.79872e-15 -0)
(2.48725e-30 -5.79872e-15 -0)
(2.93948e-30 -5.79872e-15 -0)
(6.78342e-30 -5.79872e-15 -0)
(-7.46176e-30 -5.79872e-15 -0)
(-1.31146e-29 -5.79872e-15 -0)
(-2.71337e-30 -5.79872e-15 -0)
(-4.52228e-31 -5.79872e-15 -0)
(-6.78342e-30 -5.79872e-15 -0)
(-1.5828e-30 -5.79872e-15 -0)
(-7.46176e-30 -5.79872e-15 -0)
(-9.27068e-30 -5.79872e-15 -0)
(7.02478e-30 -5.79872e-15 -0)
(8.78098e-30 -5.79872e-15 -0)
(-4.39049e-31 -5.79872e-15 -0)
(-8.78098e-31 -5.79872e-15 -0)
(-3.07334e-30 -5.79872e-15 -0)
(-4.82954e-30 -5.79872e-15 -0)
(-1.00981e-29 -5.79872e-15 -0)
(-1.7562e-30 -5.79872e-15 -0)
(4.82954e-30 -5.79872e-15 -0)
(-1.14153e-29 -5.79872e-15 -0)
(-2.63429e-30 -5.79872e-15 -0)
(2.63429e-30 -5.79872e-15 -0)
(-4.39049e-31 -5.79872e-15 -0)
(5.70764e-30 -5.79872e-15 -0)
(-1.31715e-29 -5.79872e-15 -0)
(-1.18543e-29 -5.79872e-15 -0)
(1.36105e-29 -5.79872e-15 -0)
(9.65908e-30 -5.79872e-15 -0)
(-1.18543e-29 -5.79872e-15 -0)
(-1.58058e-29 -5.79872e-15 -0)
(-7.02478e-30 -5.79872e-15 -0)
(-8.34193e-30 -5.79872e-15 -0)
(5.70764e-30 -5.79872e-15 -0)
(1.22934e-29 -5.79872e-15 -0)
(-4.39049e-31 -5.79872e-15 -0)
(8.78098e-31 -5.79872e-15 -0)
(-1.18543e-29 -5.79872e-15 -0)
(-1.05372e-29 -5.79872e-15 -0)
(3.07334e-30 -5.79872e-15 -0)
(1.66839e-29 -5.79872e-15 -0)
(1.40496e-29 -5.79872e-15 -0)
(-8.34193e-30 -5.79872e-15 -0)
(-3.51239e-30 -5.79872e-15 -0)
(4.39049e-31 -5.79872e-15 -0)
(-8.78098e-31 -5.79872e-15 -0)
(3.51239e-30 -5.79872e-15 -0)
(-4.39049e-31 -5.79872e-15 -0)
(-6.58574e-30 -5.79872e-15 -0)
(-3.07334e-30 -5.79872e-15 -0)
(4.39049e-31 -5.79872e-15 -0)
(1.7562e-30 -5.79872e-15 -0)
(-8.34193e-30 -5.79872e-15 -0)
(3.95144e-30 -5.79872e-15 -0)
(1.22934e-29 -5.79872e-15 -0)
(4.39049e-30 -5.79872e-15 -0)
(1.14153e-29 -5.79872e-15 -0)
(7.02478e-30 -5.79872e-15 -0)
(6.58574e-30 -5.79872e-15 -0)
(1.27324e-29 -5.79872e-15 -0)
(4.39049e-30 -5.79872e-15 -0)
(4.39049e-30 -5.79872e-15 -0)
(8.78098e-30 -5.79872e-15 -0)
(-7.90288e-30 -5.79872e-15 -0)
(-1.53667e-29 -5.79872e-15 -0)
(-3.07334e-30 -5.79872e-15 -0)
(-4.39049e-31 -5.79872e-15 -0)
(-7.46383e-30 -5.79872e-15 -0)
(-1.7562e-30 -5.79872e-15 -0)
(-9.22003e-30 -5.79872e-15 -0)
(-1.09762e-29 -5.79872e-15 -0)
(7.67257e-30 -5.79872e-15 -0)
(9.37759e-30 -5.79872e-15 -0)
(-4.26254e-31 -5.79872e-15 -0)
(-2.13127e-30 -5.79872e-15 -0)
(-3.41003e-30 -5.79872e-15 -0)
(-5.11505e-30 -5.79872e-15 -0)
(-1.02301e-29 -5.79872e-15 -0)
(-2.55752e-30 -5.79872e-15 -0)
(5.11505e-30 -5.79872e-15 -0)
(-1.27876e-29 -5.79872e-15 -0)
(-3.83629e-30 -5.79872e-15 -0)
(2.98378e-30 -5.79872e-15 -0)
(-1.70502e-30 -5.79872e-15 -0)
(5.96756e-30 -5.79872e-15 -0)
(-1.36401e-29 -5.79872e-15 -0)
(-1.23614e-29 -5.79872e-15 -0)
(1.49189e-29 -5.79872e-15 -0)
(9.80384e-30 -5.79872e-15 -0)
(-1.23614e-29 -5.79872e-15 -0)
(-1.74764e-29 -5.79872e-15 -0)
(-8.09883e-30 -5.79872e-15 -0)
(-7.67257e-30 -5.79872e-15 -0)
(5.96756e-30 -5.79872e-15 -0)
(1.23614e-29 -5.79872e-15 -0)
(-4.26254e-31 -5.79872e-15 -0)
(1.27876e-30 -5.79872e-15 -0)
(-1.23614e-29 -5.79872e-15 -0)
(-1.15089e-29 -5.79872e-15 -0)
(1.70502e-30 -5.79872e-15 -0)
(1.79027e-29 -5.79872e-15 -0)
(1.57714e-29 -5.79872e-15 -0)
(-8.52508e-30 -5.79872e-15 -0)
(-3.83629e-30 -5.79872e-15 -0)
(4.26254e-31 -5.79872e-15 -0)
(-0 -5.79872e-15 -0)
(4.68879e-30 -5.79872e-15 -0)
(-8.52508e-31 -5.79872e-15 -0)
(-7.67257e-30 -5.79872e-15 -0)
(-3.83629e-30 -5.79872e-15 -0)
(8.52508e-31 -5.79872e-15 -0)
(1.27876e-30 -5.79872e-15 -0)
(-1.02301e-29 -5.79872e-15 -0)
(5.11505e-30 -5.79872e-15 -0)
(1.61977e-29 -5.79872e-15 -0)
(5.5413e-30 -5.79872e-15 -0)
(9.37759e-30 -5.79872e-15 -0)
(8.52508e-30 -5.79872e-15 -0)
(8.09883e-30 -5.79872e-15 -0)
(1.40664e-29 -5.79872e-15 -0)
(4.26254e-30 -5.79872e-15 -0)
(5.96756e-30 -5.79872e-15 -0)
(8.95133e-30 -5.79872e-15 -0)
(-9.37759e-30 -5.79872e-15 -0)
(-1.66239e-29 -5.79872e-15 -0)
(-2.55752e-30 -5.79872e-15 -0)
(4.26254e-31 -5.79872e-15 -0)
(-8.95133e-30 -5.79872e-15 -0)
(-2.13127e-30 -5.79872e-15 -0)
(-1.06564e-29 -5.79872e-15 -0)
(-1.32139e-29 -5.79872e-15 -0)
(8.69047e-30 -5.79872e-15 -0)
(1.03458e-29 -5.79872e-15 -0)
(4.13832e-31 -5.79872e-15 -0)
(-4.13832e-31 -5.79872e-15 -0)
(-3.31066e-30 -5.79872e-15 -0)
(-4.13832e-30 -5.79872e-15 -0)
(-1.15873e-29 -5.79872e-15 -0)
(-3.72449e-30 -5.79872e-15 -0)
(5.79365e-30 -5.79872e-15 -0)
(-1.32426e-29 -5.79872e-15 -0)
(-5.37981e-30 -5.79872e-15 -0)
(1.65533e-30 -5.79872e-15 -0)
(-1.2415e-30 -5.79872e-15 -0)
(7.03514e-30 -5.79872e-15 -0)
(-1.44841e-29 -5.79872e-15 -0)
(-1.36565e-29 -5.79872e-15 -0)
(1.65533e-29 -5.79872e-15 -0)
(1.15873e-29 -5.79872e-15 -0)
(-1.40703e-29 -5.79872e-15 -0)
(-1.98639e-29 -5.79872e-15 -0)
(-9.51813e-30 -5.79872e-15 -0)
(-7.44897e-30 -5.79872e-15 -0)
(7.03514e-30 -5.79872e-15 -0)
(1.2415e-29 -5.79872e-15 -0)
(-0 -5.79872e-15 -0)
(2.06916e-30 -5.79872e-15 -0)
(-1.53118e-29 -5.79872e-15 -0)
(-1.48979e-29 -5.79872e-15 -0)
(3.31066e-30 -5.79872e-15 -0)
(1.90363e-29 -5.79872e-15 -0)
(1.57256e-29 -5.79872e-15 -0)
(-8.69047e-30 -5.79872e-15 -0)
(-2.06916e-30 -5.79872e-15 -0)
(1.2415e-30 -5.79872e-15 -0)
(-8.27664e-31 -5.79872e-15 -0)
(5.37981e-30 -5.79872e-15 -0)
(-1.2415e-30 -5.79872e-15 -0)
(-8.69047e-30 -5.79872e-15 -0)
(-5.37981e-30 -5.79872e-15 -0)
(4.13832e-31 -5.79872e-15 -0)
(3.31066e-30 -5.79872e-15 -0)
(-1.07596e-29 -5.79872e-15 -0)
(4.55215e-30 -5.79872e-15 -0)
(1.77948e-29 -5.79872e-15 -0)
(5.79365e-30 -5.79872e-15 -0)
(1.11735e-29 -5.79872e-15 -0)
(9.51813e-30 -5.79872e-15 -0)
(8.69047e-30 -5.79872e-15 -0)
(1.44841e-29 -5.79872e-15 -0)
(4.55215e-30 -5.79872e-15 -0)
(7.03514e-30 -5.79872e-15 -0)
(1.15873e-29 -5.79872e-15 -0)
(-1.03458e-29 -5.79872e-15 -0)
(-1.73809e-29 -5.79872e-15 -0)
(-2.06916e-30 -5.79872e-15 -0)
(-0 -5.79872e-15 -0)
(-1.07596e-29 -5.79872e-15 -0)
(-4.55215e-30 -5.79872e-15 -0)
(-1.2415e-29 -5.79872e-15 -0)
(-1.53118e-29 -5.79872e-15 -0)
(1.08478e-29 -5.79872e-15 -0)
(1.28567e-29 -5.79872e-15 -0)
(-0 -5.79872e-15 -0)
(-2.00886e-30 -5.79872e-15 -0)
(-3.21417e-30 -5.79872e-15 -0)
(-4.41949e-30 -5.79872e-15 -0)
(-1.28567e-29 -5.79872e-15 -0)
(-2.41063e-30 -5.79872e-15 -0)
(6.02658e-30 -5.79872e-15 -0)
(-1.56691e-29 -5.79872e-15 -0)
(-2.8124e-30 -5.79872e-15 -0)
(1.20532e-30 -5.79872e-15 -0)
(-4.82126e-30 -5.79872e-15 -0)
(6.83012e-30 -5.79872e-15 -0)
(-1.4062e-29 -5.79872e-15 -0)
(-1.4062e-29 -5.79872e-15 -0)
(1.7678e-29 -5.79872e-15 -0)
(1.24549e-29 -5.79872e-15 -0)
(-1.4062e-29 -5.79872e-15 -0)
(-2.12939e-29 -5.79872e-15 -0)
(-1.12496e-29 -5.79872e-15 -0)
(-8.43721e-30 -5.79872e-15 -0)
(8.43721e-30 -5.79872e-15 -0)
(1.4062e-29 -5.79872e-15 -0)
(-1.60709e-30 -5.79872e-15 -0)
(8.03544e-31 -5.79872e-15 -0)
(-1.72762e-29 -5.79872e-15 -0)
(-1.36602e-29 -5.79872e-15 -0)
(4.01772e-30 -5.79872e-15 -0)
(1.96868e-29 -5.79872e-15 -0)
(1.60709e-29 -5.79872e-15 -0)
(-1.04461e-29 -5.79872e-15 -0)
(-8.03544e-31 -5.79872e-15 -0)
(1.60709e-30 -5.79872e-15 -0)
(8.03544e-31 -5.79872e-15 -0)
(7.23189e-30 -5.79872e-15 -0)
(-4.01772e-30 -5.79872e-15 -0)
(-1.12496e-29 -5.79872e-15 -0)
(-4.01772e-30 -5.79872e-15 -0)
(-4.01772e-31 -5.79872e-15 -0)
(3.61595e-30 -5.79872e-15 -0)
(-1.04461e-29 -5.79872e-15 -0)
(6.02658e-30 -5.79872e-15 -0)
(2.04904e-29 -5.79872e-15 -0)
(4.41949e-30 -5.79872e-15 -0)
(1.12496e-29 -5.79872e-15 -0)
(1.04461e-29 -5.79872e-15 -0)
(1.12496e-29 -5.79872e-15 -0)
(1.7678e-29 -5.79872e-15 -0)
(4.41949e-30 -5.79872e-15 -0)
(7.63366e-30 -5.79872e-15 -0)
(1.12496e-29 -5.79872e-15 -0)
(-1.08478e-29 -5.79872e-15 -0)
(-1.88833e-29 -5.79872e-15 -0)
(-3.61595e-30 -5.79872e-15 -0)
(-4.01772e-31 -5.79872e-15 -0)
(-1.12496e-29 -5.79872e-15 -0)
(-5.22303e-30 -5.79872e-15 -0)
(-1.28567e-29 -5.79872e-15 -0)
(-1.44638e-29 -5.79872e-15 -0)
(1.13118e-29 -5.79872e-15 -0)
(1.40423e-29 -5.79872e-15 -0)
(-1.56025e-30 -5.79872e-15 -0)
(-1.56025e-30 -5.79872e-15 -0)
(-3.51057e-30 -5.79872e-15 -0)
(-6.24101e-30 -5.79872e-15 -0)
(-1.2092e-29 -5.79872e-15 -0)
(-2.34038e-30 -5.79872e-15 -0)
(6.63107e-30 -5.79872e-15 -0)
(-1.52125e-29 -5.79872e-15 -0)
(-4.29069e-30 -5.79872e-15 -0)
(3.90063e-31 -5.79872e-15 -0)
(-5.46088e-30 -5.79872e-15 -0)
(5.46088e-30 -5.79872e-15 -0)
(-1.59926e-29 -5.79872e-15 -0)
(-1.36522e-29 -5.79872e-15 -0)
(2.02833e-29 -5.79872e-15 -0)
(1.28721e-29 -5.79872e-15 -0)
(-1.59926e-29 -5.79872e-15 -0)
(-2.22336e-29 -5.79872e-15 -0)
(-1.13118e-29 -5.79872e-15 -0)
(-8.19133e-30 -5.79872e-15 -0)
(1.01416e-29 -5.79872e-15 -0)
(1.48224e-29 -5.79872e-15 -0)
(-1.95032e-30 -5.79872e-15 -0)
(-1.56025e-30 -5.79872e-15 -0)
(-2.02833e-29 -5.79872e-15 -0)
(-1.28721e-29 -5.79872e-15 -0)
(6.24101e-30 -5.79872e-15 -0)
(2.18435e-29 -5.79872e-15 -0)
(1.8723e-29 -5.79872e-15 -0)
(-1.28721e-29 -5.79872e-15 -0)
(-3.90063e-30 -5.79872e-15 -0)
(4.29069e-30 -5.79872e-15 -0)
(1.95032e-30 -5.79872e-15 -0)
(5.07082e-30 -5.79872e-15 -0)
(-4.68076e-30 -5.79872e-15 -0)
(-1.2482e-29 -5.79872e-15 -0)
(-4.68076e-30 -5.79872e-15 -0)
(1.56025e-30 -5.79872e-15 -0)
(2.73044e-30 -5.79872e-15 -0)
(-1.13118e-29 -5.79872e-15 -0)
(8.19133e-30 -5.79872e-15 -0)
(2.30137e-29 -5.79872e-15 -0)
(4.29069e-30 -5.79872e-15 -0)
(1.01416e-29 -5.79872e-15 -0)
(1.2482e-29 -5.79872e-15 -0)
(1.36522e-29 -5.79872e-15 -0)
(1.59926e-29 -5.79872e-15 -0)
(4.29069e-30 -5.79872e-15 -0)
(9.36151e-30 -5.79872e-15 -0)
(1.44323e-29 -5.79872e-15 -0)
(-1.05317e-29 -5.79872e-15 -0)
(-1.98932e-29 -5.79872e-15 -0)
(-4.68076e-30 -5.79872e-15 -0)
(-1.56025e-30 -5.79872e-15 -0)
(-1.17019e-29 -5.79872e-15 -0)
(-5.85095e-30 -5.79872e-15 -0)
(-1.52125e-29 -5.79872e-15 -0)
(-1.67727e-29 -5.79872e-15 -0)
(1.32543e-29 -5.79872e-15 -0)
(1.55265e-29 -5.79872e-15 -0)
(-2.27217e-30 -5.79872e-15 -0)
(-1.13609e-30 -5.79872e-15 -0)
(-2.27217e-30 -5.79872e-15 -0)
(-6.81652e-30 -5.79872e-15 -0)
(-1.40117e-29 -5.79872e-15 -0)
(-1.89348e-30 -5.79872e-15 -0)
(4.92304e-30 -5.79872e-15 -0)
(-1.47691e-29 -5.79872e-15 -0)
(-3.02957e-30 -5.79872e-15 -0)
(-7.57391e-31 -5.79872e-15 -0)
(-6.43783e-30 -5.79872e-15 -0)
(7.19522e-30 -5.79872e-15 -0)
(-1.81774e-29 -5.79872e-15 -0)
(-1.59052e-29 -5.79872e-15 -0)
(2.1207e-29 -5.79872e-15 -0)
(1.66626e-29 -5.79872e-15 -0)
(-1.55265e-29 -5.79872e-15 -0)
(-2.613e-29 -5.79872e-15 -0)
(-1.32543e-29 -5.79872e-15 -0)
(-6.43783e-30 -5.79872e-15 -0)
(1.02248e-29 -5.79872e-15 -0)
(1.47691e-29 -5.79872e-15 -0)
(-3.78696e-30 -5.79872e-15 -0)
(-7.57391e-31 -5.79872e-15 -0)
(-2.08283e-29 -5.79872e-15 -0)
(-1.62839e-29 -5.79872e-15 -0)
(8.3313e-30 -5.79872e-15 -0)
(2.46152e-29 -5.79872e-15 -0)
(2.00709e-29 -5.79872e-15 -0)
(-1.40117e-29 -5.79872e-15 -0)
(-3.78696e-30 -5.79872e-15 -0)
(2.65087e-30 -5.79872e-15 -0)
(2.27217e-30 -5.79872e-15 -0)
(6.81652e-30 -5.79872e-15 -0)
(-8.3313e-30 -5.79872e-15 -0)
(-1.28757e-29 -5.79872e-15 -0)
(-1.51478e-30 -5.79872e-15 -0)
(-0 -5.79872e-15 -0)
(4.16565e-30 -5.79872e-15 -0)
(-1.02248e-29 -5.79872e-15 -0)
(7.19522e-30 -5.79872e-15 -0)
(2.34791e-29 -5.79872e-15 -0)
(4.92304e-30 -5.79872e-15 -0)
(1.06035e-29 -5.79872e-15 -0)
(1.40117e-29 -5.79872e-15 -0)
(1.43904e-29 -5.79872e-15 -0)
(1.81774e-29 -5.79872e-15 -0)
(2.27217e-30 -5.79872e-15 -0)
(1.02248e-29 -5.79872e-15 -0)
(1.66626e-29 -5.79872e-15 -0)
(-1.17396e-29 -5.79872e-15 -0)
(-2.15857e-29 -5.79872e-15 -0)
(-5.30174e-30 -5.79872e-15 -0)
(-1.51478e-30 -5.79872e-15 -0)
(-1.21183e-29 -5.79872e-15 -0)
(-5.68043e-30 -5.79872e-15 -0)
(-1.55265e-29 -5.79872e-15 -0)
(-1.742e-29 -5.79872e-15 -0)
(1.39711e-29 -5.79872e-15 -0)
(1.8383e-29 -5.79872e-15 -0)
(-2.20596e-30 -5.79872e-15 -0)
(-2.94128e-30 -5.79872e-15 -0)