/*--------------------------------*- C++ -*----------------------------------*\
| =========                 |                                                 |
| \\      /  F ield         | foam-extend: Open Source CFD                    |
|  \\    /   O peration     | Version:     4.0                                |
|   \\  /    A nd           | Web:         http://www.foam-extend.org         |
|    \\/     M anipulation  |                                                 |
\*---------------------------------------------------------------------------*/
FoamFile
{
    version     2.0;
    format      ascii;
    class       volScalarField;
    location    "14";
    object      p;
}
// * * * * * * * * * * * * * * * * * * * * * * * * * * * * * * * * * * * * * //

dimensions      [0 2 -2 0 0 0 0];

internalField   nonuniform List<scalar> 
6960
(
2.58754e-07
3.65703e-07
3.32643e-07
3.21483e-07
3.32118e-07
3.57225e-07
3.74578e-07
3.95179e-07
4.10951e-07
4.20148e-07
4.14304e-07
3.98108e-07
3.77232e-07
3.59846e-07
3.46682e-07
3.40827e-07
3.42898e-07
3.53597e-07
3.68802e-07
3.8213e-07
3.90271e-07
3.93209e-07
3.92211e-07
3.86956e-07
3.78513e-07
3.71213e-07
3.686e-07
3.70605e-07
3.7348e-07
3.7589e-07
3.78345e-07
3.79862e-07
3.78473e-07
3.73387e-07
3.68771e-07
3.67608e-07
3.69186e-07
3.71394e-07
3.74318e-07
3.77827e-07
3.81868e-07
3.8307e-07
3.8144e-07
3.83008e-07
3.81882e-07
3.86384e-07
3.87156e-07
3.88624e-07
3.92275e-07
3.88498e-07
3.89181e-07
3.83635e-07
3.81594e-07
3.81943e-07
3.79347e-07
3.82277e-07
3.82634e-07
3.85501e-07
3.83567e-07
3.85048e-07
3.69282e-07
3.65503e-07
3.32481e-07
3.21358e-07
3.32027e-07
3.57207e-07
3.74628e-07
3.95297e-07
4.11099e-07
4.20293e-07
4.14415e-07
3.98162e-07
3.77223e-07
3.59787e-07
3.46597e-07
3.40747e-07
3.42845e-07
3.53585e-07
3.68835e-07
3.82196e-07
3.90352e-07
3.93284e-07
3.92264e-07
3.8698e-07
3.78511e-07
3.71193e-07
3.68578e-07
3.70594e-07
3.73488e-07
3.75917e-07
3.78383e-07
3.79898e-07
3.785e-07
3.73396e-07
3.68765e-07
3.67595e-07
3.69178e-07
3.714e-07
3.7434e-07
3.77859e-07
3.81901e-07
3.8309e-07
3.81446e-07
3.82995e-07
3.81854e-07
3.86362e-07
3.87132e-07
3.88617e-07
3.92283e-07
3.88506e-07
3.89205e-07
3.83646e-07
3.81602e-07
3.81939e-07
3.79331e-07
3.82268e-07
3.82616e-07
3.85492e-07
3.83568e-07
3.85059e-07
3.87623e-07
3.65351e-07
3.32395e-07
3.21223e-07
3.31844e-07
3.57038e-07
3.74519e-07
3.9529e-07
4.11184e-07
4.20449e-07
4.14612e-07
3.98355e-07
3.77367e-07
3.59859e-07
3.46594e-07
3.40689e-07
3.4276e-07
3.53504e-07
3.68787e-07
3.82199e-07
3.90405e-07
3.9337e-07
3.92359e-07
3.87063e-07
3.78568e-07
3.71217e-07
3.68573e-07
3.70578e-07
3.73481e-07
3.75934e-07
3.78422e-07
3.79954e-07
3.7856e-07
3.73447e-07
3.68797e-07
3.67603e-07
3.69173e-07
3.714e-07
3.7435e-07
3.77883e-07
3.81934e-07
3.83114e-07
3.81465e-07
3.82982e-07
3.81824e-07
3.8633e-07
3.87089e-07
3.8861e-07
3.92284e-07
3.88526e-07
3.89251e-07
3.83671e-07
3.81628e-07
3.81926e-07
3.79305e-07
3.82244e-07
3.82582e-07
3.85475e-07
3.83565e-07
3.8507e-07
3.79147e-07
3.65263e-07
3.32383e-07
3.21094e-07
3.31598e-07
3.56748e-07
3.74275e-07
3.95171e-07
4.11205e-07
4.20604e-07
4.14873e-07
3.9866e-07
3.77643e-07
3.60051e-07
3.46672e-07
3.40665e-07
3.42662e-07
3.53377e-07
3.68678e-07
3.82149e-07
3.90432e-07
3.93461e-07
3.92487e-07
3.87194e-07
3.78676e-07
3.71281e-07
3.6859e-07
3.70565e-07
3.73466e-07
3.75945e-07
3.78466e-07
3.80029e-07
3.78651e-07
3.73535e-07
3.68863e-07
3.67633e-07
3.69176e-07
3.71397e-07
3.74353e-07
3.77904e-07
3.81969e-07
3.83142e-07
3.81496e-07
3.82969e-07
3.81793e-07
3.86291e-07
3.87028e-07
3.88602e-07
3.9228e-07
3.88556e-07
3.89315e-07
3.83708e-07
3.81672e-07
3.81903e-07
3.79271e-07
3.82209e-07
3.82532e-07
3.85449e-07
3.83557e-07
3.8508e-07
3.75947e-07
3.65262e-07
3.32443e-07
3.20968e-07
3.31279e-07
3.56323e-07
3.73884e-07
3.94931e-07
4.1116e-07
4.20758e-07
4.15203e-07
3.99086e-07
3.78059e-07
3.60367e-07
3.46832e-07
3.4067e-07
3.42544e-07
3.53192e-07
3.68499e-07
3.82039e-07
3.90429e-07
3.93559e-07
3.9265e-07
3.87378e-07
3.78837e-07
3.71387e-07
3.68628e-07
3.7055e-07
3.73438e-07
3.75947e-07
3.78511e-07
3.80121e-07
3.78773e-07
3.73662e-07
3.68965e-07
3.67685e-07
3.69184e-07
3.7139e-07
3.74346e-07
3.77919e-07
3.82004e-07
3.83173e-07
3.81541e-07
3.82956e-07
3.8176e-07
3.86242e-07
3.86949e-07
3.88592e-07
3.92267e-07
3.88596e-07
3.89398e-07
3.8376e-07
3.81736e-07
3.81871e-07
3.7923e-07
3.82162e-07
3.82464e-07
3.85413e-07
3.83544e-07
3.8509e-07
3.76738e-07
3.65349e-07
3.32584e-07
3.20854e-07
3.30896e-07
3.55771e-07
3.73346e-07
3.94567e-07
4.11038e-07
4.20899e-07
4.15592e-07
3.99624e-07
3.7861e-07
3.60808e-07
3.47077e-07
3.40711e-07
3.4241e-07
3.52954e-07
3.68249e-07
3.81866e-07
3.90391e-07
3.93657e-07
3.92844e-07
3.87609e-07
3.79052e-07
3.71535e-07
3.68687e-07
3.70534e-07
3.73398e-07
3.75936e-07
3.78555e-07
3.80226e-07
3.78922e-07
3.73825e-07
3.69102e-07
3.67759e-07
3.69199e-07
3.71378e-07
3.7433e-07
3.77929e-07
3.82037e-07
3.83208e-07
3.81597e-07
3.82944e-07
3.81728e-07
3.86184e-07
3.86853e-07
3.88578e-07
3.92247e-07
3.88645e-07
3.89499e-07
3.83825e-07
3.8182e-07
3.81834e-07
3.79184e-07
3.82104e-07
3.82381e-07
3.85367e-07
3.83525e-07
3.85098e-07
3.77822e-07
3.6552e-07
3.3281e-07
3.20761e-07
3.30461e-07
3.55099e-07
3.72668e-07
3.94078e-07
4.10835e-07
4.21019e-07
4.16028e-07
4.00264e-07
3.79291e-07
3.61371e-07
3.4741e-07
3.40791e-07
3.42266e-07
3.52667e-07
3.67931e-07
3.81631e-07
3.90316e-07
3.93751e-07
3.93063e-07
3.87884e-07
3.79317e-07
3.71724e-07
3.68768e-07
3.7052e-07
3.73346e-07
3.75914e-07
3.78595e-07
3.80342e-07
3.79096e-07
3.74022e-07
3.69274e-07
3.67856e-07
3.69221e-07
3.71363e-07
3.74304e-07
3.77932e-07
3.82068e-07
3.83245e-07
3.81665e-07
3.82933e-07
3.81696e-07
3.86117e-07
3.8674e-07
3.88562e-07
3.92217e-07
3.88703e-07
3.89616e-07
3.83906e-07
3.81924e-07
3.8179e-07
3.79135e-07
3.82036e-07
3.82283e-07
3.85311e-07
3.83501e-07
3.85106e-07
3.78624e-07
3.65775e-07
3.33128e-07
3.20699e-07
3.29985e-07
3.54319e-07
3.71854e-07
3.93464e-07
4.10545e-07
4.21108e-07
4.165e-07
4.00995e-07
3.80092e-07
3.62053e-07
3.47831e-07
3.40917e-07
3.42119e-07
3.52338e-07
3.67549e-07
3.81333e-07
3.902e-07
3.93835e-07
3.93301e-07
3.88199e-07
3.79629e-07
3.71954e-07
3.68872e-07
3.70507e-07
3.73282e-07
3.7588e-07
3.78631e-07
3.80467e-07
3.79291e-07
3.74252e-07
3.69478e-07
3.67976e-07
3.69252e-07
3.71345e-07
3.74269e-07
3.77928e-07
3.82095e-07
3.83282e-07
3.81742e-07
3.82923e-07
3.81665e-07
3.86043e-07
3.86612e-07
3.88542e-07
3.92178e-07
3.88768e-07
3.89747e-07
3.84e-07
3.82048e-07
3.81743e-07
3.79083e-07
3.81959e-07
3.82171e-07
3.85244e-07
3.83471e-07
3.85112e-07
3.79414e-07
3.66115e-07
3.33541e-07
3.20677e-07
3.29479e-07
3.5344e-07
3.70911e-07
3.92726e-07
4.10162e-07
4.21156e-07
4.16996e-07
4.01807e-07
3.81008e-07
3.62852e-07
3.48344e-07
3.41093e-07
3.41977e-07
3.51973e-07
3.67106e-07
3.80973e-07
3.90041e-07
3.93905e-07
3.93552e-07
3.88547e-07
3.79985e-07
3.72225e-07
3.69001e-07
3.70499e-07
3.73209e-07
3.75834e-07
3.7866e-07
3.80596e-07
3.79504e-07
3.7451e-07
3.69715e-07
3.68119e-07
3.69292e-07
3.71325e-07
3.74226e-07
3.77916e-07
3.82117e-07
3.83319e-07
3.81828e-07
3.82915e-07
3.81637e-07
3.85961e-07
3.86469e-07
3.88517e-07
3.92129e-07
3.8884e-07
3.89891e-07
3.8411e-07
3.82191e-07
3.81693e-07
3.7903e-07
3.81874e-07
3.82045e-07
3.85168e-07
3.83435e-07
3.85117e-07
3.80301e-07
3.66541e-07
3.34057e-07
3.20706e-07
3.28955e-07
3.52475e-07
3.69845e-07
3.91865e-07
4.09682e-07
4.21153e-07
4.17504e-07
4.02687e-07
3.8203e-07
3.63763e-07
3.48949e-07
3.41324e-07
3.41845e-07
3.51578e-07
3.66607e-07
3.80551e-07
3.89836e-07
3.93955e-07
3.93812e-07
3.88926e-07
3.80382e-07
3.72535e-07
3.69155e-07
3.70497e-07
3.73128e-07
3.75776e-07
3.78682e-07
3.80728e-07
3.79733e-07
3.74797e-07
3.69983e-07
3.68285e-07
3.69342e-07
3.71305e-07
3.74175e-07
3.77896e-07
3.82132e-07
3.83355e-07
3.81922e-07
3.82908e-07
3.8161e-07
3.85872e-07
3.86314e-07
3.88486e-07
3.92069e-07
3.88917e-07
3.90046e-07
3.84233e-07
3.82353e-07
3.81643e-07
3.78979e-07
3.81783e-07
3.81908e-07
3.85081e-07
3.83394e-07
3.85121e-07
3.81272e-07
3.67054e-07
3.34678e-07
3.20793e-07
3.28426e-07
3.51434e-07
3.68666e-07
3.90883e-07
4.09099e-07
4.21089e-07
4.18013e-07
4.03625e-07
3.8315e-07
3.64785e-07
3.49648e-07
3.41617e-07
3.41731e-07
3.5116e-07
3.66056e-07
3.80068e-07
3.89582e-07
3.93981e-07
3.94075e-07
3.89329e-07
3.80818e-07
3.72884e-07
3.69336e-07
3.70503e-07
3.73041e-07
3.75706e-07
3.78694e-07
3.80861e-07
3.79974e-07
3.75107e-07
3.7028e-07
3.68474e-07
3.69403e-07
3.71286e-07
3.74117e-07
3.77868e-07
3.8214e-07
3.8339e-07
3.82022e-07
3.82903e-07
3.81587e-07
3.85777e-07
3.86147e-07
3.88449e-07
3.91999e-07
3.88998e-07
3.90209e-07
3.8437e-07
3.82533e-07
3.81594e-07
3.7893e-07
3.81685e-07
3.81761e-07
3.84984e-07
3.83347e-07
3.85124e-07
3.82306e-07
3.67652e-07
3.3541e-07
3.2095e-07
3.27904e-07
3.50331e-07
3.67382e-07
3.89784e-07
4.08411e-07
4.20957e-07
4.1851e-07
4.04609e-07
3.84359e-07
3.65911e-07
3.50443e-07
3.41977e-07
3.41644e-07
3.50726e-07
3.65457e-07
3.79527e-07
3.89278e-07
3.93978e-07
3.94334e-07
3.89752e-07
3.81289e-07
3.73271e-07
3.69545e-07
3.70519e-07
3.72949e-07
3.75626e-07
3.78697e-07
3.80992e-07
3.80225e-07
3.75441e-07
3.70605e-07
3.68687e-07
3.69478e-07
3.71268e-07
3.74052e-07
3.77832e-07
3.82141e-07
3.83421e-07
3.82127e-07
3.82899e-07
3.81567e-07
3.85675e-07
3.85969e-07
3.88404e-07
3.91916e-07
3.89081e-07
3.90378e-07
3.8452e-07
3.82731e-07
3.81548e-07
3.78886e-07
3.81583e-07
3.81604e-07
3.84876e-07
3.83294e-07
3.85125e-07
3.83394e-07
3.68334e-07
3.36255e-07
3.21185e-07
3.27403e-07
3.49178e-07
3.66002e-07
3.88571e-07
4.07615e-07
4.20748e-07
4.18984e-07
4.05625e-07
3.85648e-07
3.67139e-07
3.51333e-07
3.42408e-07
3.4159e-07
3.50285e-07
3.64818e-07
3.78928e-07
3.88922e-07
3.93942e-07
3.94584e-07
3.90189e-07
3.81791e-07
3.73695e-07
3.69783e-07
3.70548e-07
3.72856e-07
3.75536e-07
3.7869e-07
3.81118e-07
3.80483e-07
3.75794e-07
3.70957e-07
3.68923e-07
3.69566e-07
3.71254e-07
3.73983e-07
3.77788e-07
3.82132e-07
3.83448e-07
3.82236e-07
3.82898e-07
3.8155e-07
3.85568e-07
3.85782e-07
3.88352e-07
3.91821e-07
3.89164e-07
3.90552e-07
3.84682e-07
3.82945e-07
3.81506e-07
3.78848e-07
3.81479e-07
3.81439e-07
3.84758e-07
3.83235e-07
3.85125e-07
3.84529e-07
3.69099e-07
3.37217e-07
3.21506e-07
3.26936e-07
3.4799e-07
3.64537e-07
3.87249e-07
4.06707e-07
4.20452e-07
4.19423e-07
4.06662e-07
3.87007e-07
3.68461e-07
3.5232e-07
3.42916e-07
3.41576e-07
3.49844e-07
3.64143e-07
3.78276e-07
3.88513e-07
3.93869e-07
3.94819e-07
3.90635e-07
3.82322e-07
3.74154e-07
3.7005e-07
3.70592e-07
3.72762e-07
3.75437e-07
3.78672e-07
3.81238e-07
3.80745e-07
3.76164e-07
3.71334e-07
3.69183e-07
3.69669e-07
3.71245e-07
3.7391e-07
3.77736e-07
3.82114e-07
3.8347e-07
3.82348e-07
3.82899e-07
3.81538e-07
3.85456e-07
3.85587e-07
3.8829e-07
3.91712e-07
3.89246e-07
3.90727e-07
3.84856e-07
3.83174e-07
3.8147e-07
3.78817e-07
3.81372e-07
3.81267e-07
3.8463e-07
3.83171e-07
3.85123e-07
3.85702e-07
3.69945e-07
3.38299e-07
3.21923e-07
3.26515e-07
3.4678e-07
3.62998e-07
3.85824e-07
4.05687e-07
4.20064e-07
4.19815e-07
4.07707e-07
3.88425e-07
3.69873e-07
3.53402e-07
3.43505e-07
3.41612e-07
3.49412e-07
3.63439e-07
3.77572e-07
3.8805e-07
3.93753e-07
3.95034e-07
3.91084e-07
3.82876e-07
3.74647e-07
3.70348e-07
3.70653e-07
3.72671e-07
3.75331e-07
3.78642e-07
3.8135e-07
3.81008e-07
3.76548e-07
3.71734e-07
3.69466e-07
3.69788e-07
3.71242e-07
3.73835e-07
3.77676e-07
3.82086e-07
3.83487e-07
3.82461e-07
3.82903e-07
3.81531e-07
3.8534e-07
3.85385e-07
3.88218e-07
3.9159e-07
3.89325e-07
3.90901e-07
3.8504e-07
3.83419e-07
3.81442e-07
3.78797e-07
3.81266e-07
3.81091e-07
3.84492e-07
3.83101e-07
3.85118e-07
3.86904e-07
3.70867e-07
3.395e-07
3.22443e-07
3.26155e-07
3.45564e-07
3.61397e-07
3.84302e-07
4.04554e-07
4.19576e-07
4.20149e-07
4.08746e-07
3.89891e-07
3.71366e-07
3.54579e-07
3.44179e-07
3.41703e-07
3.48997e-07
3.62715e-07
3.76822e-07
3.87533e-07
3.93593e-07
3.95223e-07
3.91531e-07
3.83449e-07
3.75172e-07
3.70677e-07
3.70733e-07
3.72586e-07
3.7522e-07
3.78602e-07
3.81453e-07
3.8127e-07
3.76945e-07
3.72156e-07
3.69771e-07
3.69924e-07
3.71247e-07
3.73759e-07
3.77609e-07
3.82048e-07
3.83498e-07
3.82575e-07
3.82909e-07
3.81528e-07
3.8522e-07
3.85177e-07
3.88136e-07
3.91453e-07
3.89399e-07
3.91072e-07
3.85234e-07
3.83677e-07
3.81423e-07
3.78787e-07
3.81161e-07
3.80912e-07
3.84344e-07
3.83025e-07
3.85112e-07
3.88123e-07
3.71864e-07
3.40823e-07
3.23074e-07
3.25867e-07
3.44356e-07
3.59748e-07
3.82691e-07
4.03308e-07
4.18982e-07
4.20413e-07
4.09765e-07
3.91393e-07
3.72933e-07
3.55849e-07
3.44941e-07
3.41857e-07
3.48607e-07
3.61976e-07
3.76029e-07
3.86963e-07
3.93385e-07
3.95382e-07
3.9197e-07
3.84037e-07
3.75727e-07
3.71037e-07
3.70834e-07
3.72508e-07
3.75104e-07
3.7855e-07
3.81543e-07
3.81527e-07
3.7735e-07
3.72598e-07
3.701e-07
3.70078e-07
3.71262e-07
3.73683e-07
3.77535e-07
3.81999e-07
3.83502e-07
3.82687e-07
3.82917e-07
3.81531e-07
3.85097e-07
3.84965e-07
3.88042e-07
3.91301e-07
3.89466e-07
3.91237e-07
3.85435e-07
3.83947e-07
3.81416e-07
3.7879e-07
3.8106e-07
3.80731e-07
3.84187e-07
3.82944e-07
3.85104e-07
3.89351e-07
3.72929e-07
3.42266e-07
3.23821e-07
3.25665e-07
3.43171e-07
3.58065e-07
3.80999e-07
4.01952e-07
4.18277e-07
4.20597e-07
4.10753e-07
3.92919e-07
3.74567e-07
3.57208e-07
3.45794e-07
3.42082e-07
3.48253e-07
3.61231e-07
3.75199e-07
3.8634e-07
3.93126e-07
3.95504e-07
3.92395e-07
3.84636e-07
3.76309e-07
3.71428e-07
3.70959e-07
3.72441e-07
3.74986e-07
3.78488e-07
3.81621e-07
3.81778e-07
3.77762e-07
3.73056e-07
3.7045e-07
3.70251e-07
3.71287e-07
3.7361e-07
3.77456e-07
3.81939e-07
3.83499e-07
3.82798e-07
3.82928e-07
3.81539e-07
3.84971e-07
3.84749e-07
3.87937e-07
3.91134e-07
3.89526e-07
3.91394e-07
3.85644e-07
3.84228e-07
3.81421e-07
3.78807e-07
3.80963e-07
3.8055e-07
3.84022e-07
3.82858e-07
3.85094e-07
3.90575e-07
3.74059e-07
3.43828e-07
3.2469e-07
3.25561e-07
3.42026e-07
3.56361e-07
3.79237e-07
4.00487e-07
4.17456e-07
4.20691e-07
4.11695e-07
3.94456e-07
3.76256e-07
3.58653e-07
3.4674e-07
3.42383e-07
3.47941e-07
3.60489e-07
3.74337e-07
3.85667e-07
3.92815e-07
3.95585e-07
3.92801e-07
3.8524e-07
3.76916e-07
3.71851e-07
3.71109e-07
3.72387e-07
3.74868e-07
3.78415e-07
3.81685e-07
3.8202e-07
3.78176e-07
3.7353e-07
3.70821e-07
3.70443e-07
3.71325e-07
3.7354e-07
3.77371e-07
3.81869e-07
3.83488e-07
3.82905e-07
3.82942e-07
3.81553e-07
3.84844e-07
3.84531e-07
3.8782e-07
3.90951e-07
3.89575e-07
3.9154e-07
3.85858e-07
3.84518e-07
3.81439e-07
3.7884e-07
3.80872e-07
3.80372e-07
3.83849e-07
3.82767e-07
3.85081e-07
3.91786e-07
3.75247e-07
3.45506e-07
3.25686e-07
3.25566e-07
3.40934e-07
3.54651e-07
3.77416e-07
3.98918e-07
4.16517e-07
4.20685e-07
4.12578e-07
3.95992e-07
3.77993e-07
3.6018e-07
3.47781e-07
3.42767e-07
3.47681e-07
3.59757e-07
3.7345e-07
3.84946e-07
3.92448e-07
3.9562e-07
3.93182e-07
3.85845e-07
3.77544e-07
3.72303e-07
3.71286e-07
3.72348e-07
3.74752e-07
3.78333e-07
3.81734e-07
3.8225e-07
3.78591e-07
3.74017e-07
3.71213e-07
3.70655e-07
3.71377e-07
3.73476e-07
3.77283e-07
3.81788e-07
3.83468e-07
3.83008e-07
3.82958e-07
3.81572e-07
3.84716e-07
3.84312e-07
3.8769e-07
3.90752e-07
3.89612e-07
3.91673e-07
3.86075e-07
3.84816e-07
3.81472e-07
3.7889e-07
3.80789e-07
3.80198e-07
3.83669e-07
3.82672e-07
3.85066e-07
3.92974e-07
3.76487e-07
3.47296e-07
3.26813e-07
3.25692e-07
3.39911e-07
3.52953e-07
3.75546e-07
3.9725e-07
4.15458e-07
4.2057e-07
4.13389e-07
3.97512e-07
3.79765e-07
3.61784e-07
3.48916e-07
3.43238e-07
3.47482e-07
3.59045e-07
3.72544e-07
3.84179e-07
3.92026e-07
3.95606e-07
3.93532e-07
3.86444e-07
3.78189e-07
3.72785e-07
3.71491e-07
3.72328e-07
3.74641e-07
3.78243e-07
3.81767e-07
3.82467e-07
3.79004e-07
3.74514e-07
3.71623e-07
3.70887e-07
3.71444e-07
3.73418e-07
3.77192e-07
3.81697e-07
3.8344e-07
3.83106e-07
3.82976e-07
3.81598e-07
3.84587e-07
3.84094e-07
3.87548e-07
3.90537e-07
3.89635e-07
3.91791e-07
3.86294e-07
3.85119e-07
3.81521e-07
3.78957e-07
3.80716e-07
3.80029e-07
3.83484e-07
3.82573e-07
3.85048e-07
3.94127e-07
3.77771e-07
3.49193e-07
3.28072e-07
3.25948e-07
3.38971e-07
3.5128e-07
3.73642e-07
3.95489e-07
4.14277e-07
4.20338e-07
4.14116e-07
3.99003e-07
3.81561e-07
3.63457e-07
3.50146e-07
3.43803e-07
3.47351e-07
3.58362e-07
3.71626e-07
3.8337e-07
3.91548e-07
3.95539e-07
3.93847e-07
3.87033e-07
3.78849e-07
3.73295e-07
3.71725e-07
3.72328e-07
3.74536e-07
3.78146e-07
3.81784e-07
3.82668e-07
3.79411e-07
3.75019e-07
3.72052e-07
3.7114e-07
3.71527e-07
3.7337e-07
3.77099e-07
3.81596e-07
3.83403e-07
3.83197e-07
3.82995e-07
3.81629e-07
3.84459e-07
3.83877e-07
3.87393e-07
3.90306e-07
3.89644e-07
3.91892e-07
3.86512e-07
3.85427e-07
3.81587e-07
3.79044e-07
3.80654e-07
3.79869e-07
3.83293e-07
3.82471e-07
3.85028e-07
3.95238e-07
3.79091e-07
3.5119e-07
3.29465e-07
3.26345e-07
3.3813e-07
3.49651e-07
3.71716e-07
3.93643e-07
4.12977e-07
4.19983e-07
4.14747e-07
4.00452e-07
3.83369e-07
3.65192e-07
3.51468e-07
3.44463e-07
3.47297e-07
3.57716e-07
3.70705e-07
3.82525e-07
3.91015e-07
3.95416e-07
3.9412e-07
3.87607e-07
3.79519e-07
3.73832e-07
3.71989e-07
3.72351e-07
3.7444e-07
3.78043e-07
3.81785e-07
3.82851e-07
3.7981e-07
3.75529e-07
3.72496e-07
3.71413e-07
3.71628e-07
3.73332e-07
3.77005e-07
3.81486e-07
3.83357e-07
3.83281e-07
3.83017e-07
3.81665e-07
3.84332e-07
3.83663e-07
3.87225e-07
3.90059e-07
3.89636e-07
3.91972e-07
3.86729e-07
3.85737e-07
3.8167e-07
3.79151e-07
3.80605e-07
3.79719e-07
3.83099e-07
3.82366e-07
3.85005e-07
3.96297e-07
3.80439e-07
3.5328e-07
3.30991e-07
3.26888e-07
3.37401e-07
3.48081e-07
3.69782e-07
3.91721e-07
4.11559e-07
4.19499e-07
4.15271e-07
4.01844e-07
3.85176e-07
3.66982e-07
3.52879e-07
3.45223e-07
3.47326e-07
3.57118e-07
3.69788e-07
3.81648e-07
3.90427e-07
3.95234e-07
3.94347e-07
3.88159e-07
3.80194e-07
3.74392e-07
3.72283e-07
3.72398e-07
3.74356e-07
3.77936e-07
3.8177e-07
3.83016e-07
3.80199e-07
3.76041e-07
3.72954e-07
3.71706e-07
3.71748e-07
3.73307e-07
3.76913e-07
3.81368e-07
3.83302e-07
3.83357e-07
3.8304e-07
3.81707e-07
3.84206e-07
3.83453e-07
3.87046e-07
3.89797e-07
3.8961e-07
3.92031e-07
3.86941e-07
3.86046e-07
3.81771e-07
3.79279e-07
3.80569e-07
3.79581e-07
3.82903e-07
3.82259e-07
3.8498e-07
3.97296e-07
3.81806e-07
3.55453e-07
3.32647e-07
3.27586e-07
3.36796e-07
3.46587e-07
3.67857e-07
3.89733e-07
4.10026e-07
4.18882e-07
4.15677e-07
4.03166e-07
3.8697e-07
3.68816e-07
3.54375e-07
3.46084e-07
3.47444e-07
3.56575e-07
3.68885e-07
3.80744e-07
3.89787e-07
3.94991e-07
3.94524e-07
3.88685e-07
3.8087e-07
3.74974e-07
3.72607e-07
3.72473e-07
3.74285e-07
3.77827e-07
3.81738e-07
3.83161e-07
3.80574e-07
3.76553e-07
3.73426e-07
3.72019e-07
3.71887e-07
3.73295e-07
3.76823e-07
3.81243e-07
3.83239e-07
3.83425e-07
3.83064e-07
3.81754e-07
3.84083e-07
3.83248e-07
3.86855e-07
3.8952e-07
3.89565e-07
3.92067e-07
3.87147e-07
3.86353e-07
3.81889e-07
3.79427e-07
3.80549e-07
3.79457e-07
3.82707e-07
3.82151e-07
3.84952e-07
3.98227e-07
3.83181e-07
3.57698e-07
3.34431e-07
3.28442e-07
3.36326e-07
3.45185e-07
3.65956e-07
3.87692e-07
4.08385e-07
4.18129e-07
4.15956e-07
4.04405e-07
3.88735e-07
3.70684e-07
3.55952e-07
3.47047e-07
3.47659e-07
3.56096e-07
3.68003e-07
3.79821e-07
3.89098e-07
3.94687e-07
3.94647e-07
3.89179e-07
3.81542e-07
3.75575e-07
3.72961e-07
3.72576e-07
3.74231e-07
3.77718e-07
3.81692e-07
3.83285e-07
3.80934e-07
3.77061e-07
3.73907e-07
3.72352e-07
3.72046e-07
3.73298e-07
3.76737e-07
3.81111e-07
3.83166e-07
3.83483e-07
3.83088e-07
3.81806e-07
3.83963e-07
3.8305e-07
3.86653e-07
3.89228e-07
3.895e-07
3.92078e-07
3.87344e-07
3.86655e-07
3.82025e-07
3.79596e-07
3.80546e-07
3.79349e-07
3.82512e-07
3.82042e-07
3.84922e-07
3.99084e-07
3.84555e-07
3.60004e-07
3.36337e-07
3.29461e-07
3.36004e-07
3.43891e-07
3.64095e-07
3.85609e-07
4.06643e-07
4.17239e-07
4.161e-07
4.05549e-07
3.9046e-07
3.72575e-07
3.57602e-07
3.48111e-07
3.47974e-07
3.5569e-07
3.67153e-07
3.78885e-07
3.88362e-07
3.94321e-07
3.94712e-07
3.89636e-07
3.82206e-07
3.76192e-07
3.73345e-07
3.72708e-07
3.74195e-07
3.77611e-07
3.81631e-07
3.83387e-07
3.81276e-07
3.77563e-07
3.74397e-07
3.72702e-07
3.72226e-07
3.73319e-07
3.76656e-07
3.80975e-07
3.83085e-07
3.8353e-07
3.83113e-07
3.81861e-07
3.83847e-07
3.82858e-07
3.86441e-07
3.88923e-07
3.89414e-07
3.92061e-07
3.8753e-07
3.8695e-07
3.82178e-07
3.79787e-07
3.8056e-07
3.79259e-07
3.82319e-07
3.81935e-07
3.84889e-07
3.9986e-07
3.85916e-07
3.62358e-07
3.38359e-07
3.30643e-07
3.35837e-07
3.42721e-07
3.62289e-07
3.83498e-07
4.04807e-07
4.16212e-07
4.16102e-07
4.06584e-07
3.92128e-07
3.74477e-07
3.59319e-07
3.49275e-07
3.48393e-07
3.55365e-07
3.66343e-07
3.77945e-07
3.87585e-07
3.93895e-07
3.94717e-07
3.90051e-07
3.82855e-07
3.7682e-07
3.73756e-07
3.72871e-07
3.7418e-07
3.77508e-07
3.81557e-07
3.83467e-07
3.81598e-07
3.78056e-07
3.74892e-07
3.7307e-07
3.72427e-07
3.73357e-07
3.76583e-07
3.80835e-07
3.82996e-07
3.83568e-07
3.83137e-07
3.81921e-07
3.83735e-07
3.82675e-07
3.86221e-07
3.88606e-07
3.89306e-07
3.92018e-07
3.87703e-07
3.87235e-07
3.82347e-07
3.79997e-07
3.80593e-07
3.79188e-07
3.82132e-07
3.81829e-07
3.84855e-07
4.0055e-07
3.87253e-07
3.64746e-07
3.40487e-07
3.31989e-07
3.35834e-07
3.41689e-07
3.60557e-07
3.81376e-07
4.02889e-07
4.15051e-07
4.15956e-07
4.075e-07
3.93728e-07
3.76377e-07
3.61092e-07
3.50536e-07
3.4892e-07
3.55127e-07
3.65582e-07
3.77008e-07
3.86771e-07
3.93408e-07
3.94659e-07
3.9042e-07
3.83485e-07
3.77456e-07
3.74193e-07
3.73065e-07
3.74188e-07
3.7741e-07
3.81471e-07
3.83524e-07
3.81898e-07
3.78538e-07
3.75391e-07
3.73453e-07
3.72648e-07
3.73414e-07
3.76518e-07
3.80692e-07
3.829e-07
3.83594e-07
3.8316e-07
3.81984e-07
3.83627e-07
3.82501e-07
3.85992e-07
3.88277e-07
3.89176e-07
3.91945e-07
3.8786e-07
3.87508e-07
3.82531e-07
3.80228e-07
3.80645e-07
3.79139e-07
3.81952e-07
3.81727e-07
3.84818e-07
4.0115e-07
3.88556e-07
3.67152e-07
3.42712e-07
3.33495e-07
3.36e-07
3.40809e-07
3.58913e-07
3.79257e-07
4.00899e-07
4.13759e-07
4.15661e-07
4.08286e-07
3.95244e-07
3.78263e-07
3.62913e-07
3.51888e-07
3.49555e-07
3.54983e-07
3.6488e-07
3.76082e-07
3.85928e-07
3.92864e-07
3.94538e-07
3.90739e-07
3.84091e-07
3.78096e-07
3.74653e-07
3.7329e-07
3.7422e-07
3.77322e-07
3.81376e-07
3.8356e-07
3.82175e-07
3.79005e-07
3.7589e-07
3.7385e-07
3.7289e-07
3.73491e-07
3.76463e-07
3.80549e-07
3.82797e-07
3.83609e-07
3.83182e-07
3.8205e-07
3.83525e-07
3.82336e-07
3.85757e-07
3.87939e-07
3.89024e-07
3.91843e-07
3.88e-07
3.87766e-07
3.82729e-07
3.80478e-07
3.80717e-07
3.79112e-07
3.81781e-07
3.81629e-07
3.8478e-07
4.01656e-07
3.89814e-07
3.6956e-07
3.45023e-07
3.35158e-07
3.36339e-07
3.40092e-07
3.57374e-07
3.77158e-07
3.98852e-07
4.12342e-07
4.15212e-07
4.08934e-07
3.96664e-07
3.8012e-07
3.64769e-07
3.53327e-07
3.503e-07
3.54938e-07
3.64244e-07
3.75177e-07
3.8506e-07
3.92266e-07
3.94351e-07
3.91003e-07
3.84667e-07
3.78734e-07
3.75136e-07
3.73545e-07
3.74277e-07
3.77244e-07
3.81272e-07
3.83574e-07
3.82428e-07
3.79455e-07
3.76388e-07
3.74259e-07
3.73152e-07
3.73589e-07
3.7642e-07
3.80406e-07
3.82688e-07
3.83614e-07
3.83202e-07
3.82117e-07
3.83429e-07
3.82183e-07
3.85517e-07
3.87592e-07
3.8885e-07
3.91711e-07
3.88121e-07
3.88007e-07
3.8294e-07
3.80745e-07
3.80809e-07
3.7911e-07
3.81621e-07
3.81537e-07
3.84741e-07
4.02065e-07
3.91014e-07
3.71954e-07
3.47406e-07
3.3697e-07
3.36852e-07
3.39551e-07
3.55954e-07
3.75097e-07
3.96761e-07
4.10808e-07
4.14612e-07
4.09435e-07
3.97976e-07
3.81934e-07
3.6665e-07
3.54845e-07
3.51152e-07
3.54998e-07
3.63684e-07
3.74302e-07
3.84176e-07
3.91617e-07
3.941e-07
3.9121e-07
3.85209e-07
3.79367e-07
3.75636e-07
3.73831e-07
3.74361e-07
3.77179e-07
3.81162e-07
3.83567e-07
3.82655e-07
3.79886e-07
3.7688e-07
3.74678e-07
3.73433e-07
3.73708e-07
3.76389e-07
3.80266e-07
3.82574e-07
3.83607e-07
3.83219e-07
3.82186e-07
3.83338e-07
3.82041e-07
3.85273e-07
3.87239e-07
3.88654e-07
3.91549e-07
3.88219e-07
3.88229e-07
3.83161e-07
3.81028e-07
3.80922e-07
3.79134e-07
3.81474e-07
3.81452e-07
3.84701e-07
4.02375e-07
3.92148e-07
3.74316e-07
3.49847e-07
3.38923e-07
3.37541e-07
3.39193e-07
3.5467e-07
3.73089e-07
3.94643e-07
4.09166e-07
4.1386e-07
4.09783e-07
3.99167e-07
3.83692e-07
3.68541e-07
3.56433e-07
3.52109e-07
3.55165e-07
3.63205e-07
3.73465e-07
3.83284e-07
3.90923e-07
3.93786e-07
3.91357e-07
3.85712e-07
3.79989e-07
3.76151e-07
3.74145e-07
3.74474e-07
3.77129e-07
3.81049e-07
3.83541e-07
3.82856e-07
3.80296e-07
3.77365e-07
3.75105e-07
3.73732e-07
3.73848e-07
3.76373e-07
3.80129e-07
3.82456e-07
3.83589e-07
3.83234e-07
3.82255e-07
3.83254e-07
3.8191e-07
3.85027e-07
3.86881e-07
3.88437e-07
3.91357e-07
3.88295e-07
3.88428e-07
3.8339e-07
3.81325e-07
3.81054e-07
3.79183e-07
3.81343e-07
3.81375e-07
3.84661e-07
4.02583e-07
3.93203e-07
3.76628e-07
3.5233e-07
3.41007e-07
3.38402e-07
3.39027e-07
3.53532e-07
3.71154e-07
3.92514e-07
4.07427e-07
4.12963e-07
4.09975e-07
4.00226e-07
3.85379e-07
3.7043e-07
3.58082e-07
3.53167e-07
3.5544e-07
3.62816e-07
3.72675e-07
3.82392e-07
3.9019e-07
3.9341e-07
3.91443e-07
3.86171e-07
3.80596e-07
3.76678e-07
3.74486e-07
3.74614e-07
3.77096e-07
3.80933e-07
3.83496e-07
3.83031e-07
3.80682e-07
3.7784e-07
3.75537e-07
3.74048e-07
3.7401e-07
3.76371e-07
3.79998e-07
3.82334e-07
3.83561e-07
3.83245e-07
3.82324e-07
3.83177e-07
3.81792e-07
3.84781e-07
3.8652e-07
3.882e-07
3.91135e-07
3.88345e-07
3.88602e-07
3.83624e-07
3.81633e-07
3.81205e-07
3.7926e-07
3.81229e-07
3.81309e-07
3.84622e-07
4.02689e-07
3.94172e-07
3.78874e-07
3.54839e-07
3.43208e-07
3.3943e-07
3.39057e-07
3.52554e-07
3.69308e-07
3.90391e-07
4.05604e-07
4.11925e-07
4.10007e-07
4.01145e-07
3.86983e-07
3.72301e-07
3.5978e-07
3.5432e-07
3.55826e-07
3.62522e-07
3.71941e-07
3.81508e-07
3.89423e-07
3.92976e-07
3.91467e-07
3.86584e-07
3.81183e-07
3.77211e-07
3.74852e-07
3.74782e-07
3.77082e-07
3.80819e-07
3.83435e-07
3.83179e-07
3.81044e-07
3.78301e-07
3.75972e-07
3.74379e-07
3.74192e-07
3.76386e-07
3.79875e-07
3.82211e-07
3.83523e-07
3.83252e-07
3.82392e-07
3.83106e-07
3.81687e-07
3.84537e-07
3.86159e-07
3.87944e-07
3.90885e-07
3.88369e-07
3.8875e-07
3.83861e-07
3.81951e-07
3.81375e-07
3.79364e-07
3.81135e-07
3.81254e-07
3.84583e-07
4.02693e-07
3.95044e-07
3.81035e-07
3.57356e-07
3.45512e-07
3.4062e-07
3.39286e-07
3.51745e-07
3.67567e-07
3.88293e-07
4.03712e-07
4.10755e-07
4.09878e-07
4.01915e-07
3.8849e-07
3.74142e-07
3.61517e-07
3.55562e-07
3.56321e-07
3.62328e-07
3.71271e-07
3.80642e-07
3.88631e-07
3.92488e-07
3.91428e-07
3.86946e-07
3.81744e-07
3.77747e-07
3.75241e-07
3.74979e-07
3.77088e-07
3.80707e-07
3.83359e-07
3.83301e-07
3.81379e-07
3.78748e-07
3.76407e-07
3.74723e-07
3.74394e-07
3.76417e-07
3.7976e-07
3.82087e-07
3.83476e-07
3.83255e-07
3.82459e-07
3.83042e-07
3.81595e-07
3.84295e-07
3.85798e-07
3.8767e-07
3.90607e-07
3.88366e-07
3.88868e-07
3.84099e-07
3.82276e-07
3.81563e-07
3.79495e-07
3.81063e-07
3.81212e-07
3.84546e-07
4.02595e-07
3.95812e-07
3.83094e-07
3.59864e-07
3.47901e-07
3.41961e-07
3.39716e-07
3.51113e-07
3.65948e-07
3.86237e-07
4.01766e-07
4.09462e-07
4.0959e-07
4.0253e-07
3.89888e-07
3.75936e-07
3.63278e-07
3.56883e-07
3.56923e-07
3.62237e-07
3.70672e-07
3.79803e-07
3.8782e-07
3.91949e-07
3.91327e-07
3.87254e-07
3.82276e-07
3.78282e-07
3.75649e-07
3.75202e-07
3.77115e-07
3.80601e-07
3.83271e-07
3.83398e-07
3.81686e-07
3.79176e-07
3.7684e-07
3.75078e-07
3.74616e-07
3.76465e-07
3.79654e-07
3.81964e-07
3.8342e-07
3.83254e-07
3.82523e-07
3.82985e-07
3.81516e-07
3.84058e-07
3.85441e-07
3.8738e-07
3.90303e-07
3.88334e-07
3.88956e-07
3.84333e-07
3.82603e-07
3.81766e-07
3.79653e-07
3.81013e-07
3.81184e-07
3.84512e-07
4.02397e-07
3.9647e-07
3.85036e-07
3.62345e-07
3.50359e-07
3.43442e-07
3.40343e-07
3.50666e-07
3.64465e-07
3.84242e-07
3.99782e-07
4.0806e-07
4.09147e-07
4.02986e-07
3.91167e-07
3.77671e-07
3.6505e-07
3.58274e-07
3.57628e-07
3.62252e-07
3.70151e-07
3.78999e-07
3.87e-07
3.91365e-07
3.91165e-07
3.87507e-07
3.82773e-07
3.7881e-07
3.76073e-07
3.75452e-07
3.77164e-07
3.80503e-07
3.83173e-07
3.8347e-07
3.81966e-07
3.79585e-07
3.77267e-07
3.75442e-07
3.74855e-07
3.76531e-07
3.79561e-07
3.81842e-07
3.83356e-07
3.83248e-07
3.82584e-07
3.82935e-07
3.8145e-07
3.83828e-07
3.85089e-07
3.87077e-07
3.89975e-07
3.88273e-07
3.89012e-07
3.84562e-07
3.82931e-07
3.81983e-07
3.79838e-07
3.80988e-07
3.81171e-07
3.84482e-07
4.021e-07
3.97011e-07
3.86845e-07
3.6478e-07
3.52865e-07
3.4505e-07
3.41165e-07
3.50406e-07
3.63131e-07
3.82326e-07
3.97778e-07
4.06561e-07
4.08553e-07
4.0328e-07
3.92316e-07
3.79331e-07
3.66819e-07
3.59724e-07
3.5843e-07
3.62373e-07
3.69715e-07
3.78239e-07
3.86178e-07
3.90743e-07
3.90946e-07
3.87703e-07
3.83233e-07
3.79327e-07
3.7651e-07
3.75725e-07
3.77236e-07
3.80415e-07
3.83067e-07
3.83518e-07
3.82216e-07
3.79972e-07
3.77687e-07
3.75812e-07
3.75111e-07
3.76614e-07
3.79479e-07
3.81723e-07
3.83285e-07
3.83238e-07
3.82641e-07
3.82891e-07
3.81397e-07
3.83606e-07
3.84745e-07
3.86761e-07
3.89624e-07
3.88183e-07
3.89035e-07
3.84781e-07
3.83255e-07
3.82212e-07
3.80048e-07
3.80988e-07
3.81175e-07
3.84455e-07
4.01708e-07
3.97432e-07
3.88508e-07
3.67152e-07
3.55398e-07
3.4677e-07
3.42173e-07
3.50335e-07
3.6196e-07
3.80505e-07
3.95772e-07
4.0498e-07
4.07816e-07
4.03412e-07
3.93329e-07
3.80903e-07
3.6857e-07
3.6122e-07
3.59323e-07
3.626e-07
3.69367e-07
3.77531e-07
3.85363e-07
3.9009e-07
3.90672e-07
3.87842e-07
3.83652e-07
3.7983e-07
3.76955e-07
3.76021e-07
3.77331e-07
3.80339e-07
3.82955e-07
3.83546e-07
3.82438e-07
3.80335e-07
3.78096e-07
3.76186e-07
3.75382e-07
3.76713e-07
3.7941e-07
3.81609e-07
3.83208e-07
3.83223e-07
3.82694e-07
3.82853e-07
3.81356e-07
3.83393e-07
3.84411e-07
3.86435e-07
3.89253e-07
3.88064e-07
3.89022e-07
3.84987e-07
3.83572e-07
3.82451e-07
3.80281e-07
3.81015e-07
3.81197e-07
3.84434e-07
4.01224e-07
3.97731e-07
3.90011e-07
3.69443e-07
3.57939e-07
3.48585e-07
3.43357e-07
3.50452e-07
3.6096e-07
3.78796e-07
3.93784e-07
4.03335e-07
4.06947e-07
4.03384e-07
3.94197e-07
3.82376e-07
3.7029e-07
3.62749e-07
3.603e-07
3.62932e-07
3.69112e-07
3.76883e-07
3.84565e-07
3.89413e-07
3.90347e-07
3.87923e-07
3.84026e-07
3.80312e-07
3.77405e-07
3.76337e-07
3.77448e-07
3.80276e-07
3.82841e-07
3.83553e-07
3.82631e-07
3.80672e-07
3.78492e-07
3.76562e-07
3.75666e-07
3.76829e-07
3.79356e-07
3.81499e-07
3.83127e-07
3.83203e-07
3.82743e-07
3.82821e-07
3.81329e-07
3.83191e-07
3.84089e-07
3.86103e-07