/*--------------------------------*- C++ -*----------------------------------*\
| =========                 |                                                 |
| \\      /  F ield         | foam-extend: Open Source CFD                    |
|  \\    /   O peration     | Version:     4.0                                |
|   \\  /    A nd           | Web:         http://www.foam-extend.org         |
|    \\/     M anipulation  |                                                 |
\*---------------------------------------------------------------------------*/
FoamFile
{
    version     2.0;
    format      ascii;
    class       volVectorField;
    location    "14";
    object      U;
}
// * * * * * * * * * * * * * * * * * * * * * * * * * * * * * * * * * * * * * //

dimensions      [0 1 -1 0 0 0 0];

internalField   nonuniform List<vector> 
6960
(
(-1.68991e-11 -5.85056e-10 0)
(9.53369e-12 -1.05469e-12 0)
(4.10093e-11 -5.28983e-13 0)
(4.812e-11 -1.15564e-13 0)
(4.13571e-11 3.12089e-13 0)
(1.57696e-11 6.71655e-13 0)
(-1.01189e-11 7.97755e-13 0)
(-3.09755e-11 7.83376e-13 0)
(-4.28699e-11 5.54589e-13 0)
(-4.29846e-11 2.07642e-13 0)
(-3.25688e-11 -1.64292e-13 0)
(-1.24583e-11 -4.6401e-13 0)
(1.0133e-11 -5.98784e-13 0)
(2.89305e-11 -5.69666e-13 0)
(3.96211e-11 -3.80984e-13 0)
(4.01294e-11 -1.09826e-13 0)
(3.20356e-11 1.74444e-13 0)
(1.78995e-11 3.89769e-13 0)
(2.01073e-12 4.82129e-13 0)
(-1.0965e-11 4.40938e-13 0)
(-1.77966e-11 2.97043e-13 0)
(-1.75888e-11 1.05191e-13 0)
(-1.19208e-11 -7.57217e-14 0)
(-3.6107e-12 -1.98728e-13 0)
(4.58133e-12 -2.33135e-13 0)
(1.01656e-11 -1.75442e-13 0)
(1.12765e-11 -6.12605e-14 0)
(8.26541e-12 6.3791e-14 0)
(2.81371e-12 1.50031e-13 0)
(-1.96287e-12 1.75923e-13 0)
(-4.16353e-12 1.39167e-13 0)
(-3.32136e-12 5.0722e-14 0)
(6.77127e-13 -4.45932e-14 0)
(6.03059e-12 -1.12562e-13 0)
(1.10759e-11 -1.16682e-13 0)
(1.32368e-11 -6.05842e-14 0)
(1.13989e-11 2.23342e-14 0)
(6.79448e-12 1.05424e-13 0)
(1.40885e-12 1.53264e-13 0)
(-3.7385e-12 1.46327e-13 0)
(-5.99957e-12 1.04634e-13 0)
(-6.48051e-12 2.90209e-14 0)
(-4.76408e-12 -3.48785e-14 0)
(-1.77403e-13 -4.52926e-14 0)
(1.5225e-13 -6.57051e-14 0)
(3.78661e-12 -1.18726e-14 0)
(2.80078e-12 5.50238e-15 0)
(1.83424e-12 -1.08568e-14 0)
(3.67963e-12 3.35208e-14 0)
(-5.32689e-13 -5.20632e-14 0)
(1.73309e-12 -2.90007e-14 0)
(-7.53848e-13 -2.70568e-14 0)
(-2.55062e-12 -5.98852e-14 0)
(-2.78695e-12 1.21852e-14 0)
(-8.03757e-12 -2.16426e-14 0)
(-5.36861e-12 3.28446e-14 0)
(-4.46596e-12 3.04999e-15 0)
(-2.00838e-12 -3.27871e-14 0)
(4.64847e-13 1.04277e-14 0)
(8.75643e-13 1.7037e-14 0)
(-3.48495e-11 -1.21847e-09 0)
(3.89602e-11 -3.64801e-12 0)
(1.13774e-10 -2.41226e-12 0)
(1.40143e-10 -9.78919e-13 0)
(1.25411e-10 4.92775e-13 0)
(5.28236e-11 1.94464e-12 0)
(-2.20567e-11 2.66906e-12 0)
(-8.44407e-11 2.96891e-12 0)
(-1.21801e-10 2.42543e-12 0)
(-1.26307e-10 1.35694e-12 0)
(-1.0019e-10 5.66919e-14 0)
(-4.43711e-11 -1.1349e-12 0)
(2.07176e-11 -1.85785e-12 0)
(7.66327e-11 -2.02246e-12 0)
(1.10166e-10 -1.57887e-12 0)
(1.14612e-10 -7.37391e-13 0)
(9.40667e-11 2.62894e-13 0)
(5.5098e-11 1.12326e-12 0)
(9.52027e-12 1.62253e-12 0)
(-2.9081e-11 1.66678e-12 0)
(-5.06484e-11 1.30692e-12 0)
(-5.18107e-11 6.93976e-13 0)
(-3.68713e-11 3.54383e-14 0)
(-1.38123e-11 -4.82209e-13 0)
(9.75782e-12 -7.18465e-13 0)
(2.66898e-11 -6.29069e-13 0)
(3.1125e-11 -2.99815e-13 0)
(2.32361e-11 1.36063e-13 0)
(7.61292e-12 4.94472e-13 0)
(-6.434e-12 6.70134e-13 0)
(-1.3291e-11 6.09966e-13 0)
(-1.15178e-11 3.36749e-13 0)
(-6.82377e-13 -4.56495e-15 0)
(1.46365e-11 -2.95534e-13 0)
(2.9913e-11 -3.82739e-13 0)
(3.72173e-11 -2.49201e-13 0)
(3.27405e-11 2.57767e-14 0)
(1.98691e-11 3.52826e-13 0)
(4.36422e-12 5.73915e-13 0)
(-1.07485e-11 6.0131e-13 0)
(-1.78427e-11 4.85107e-13 0)
(-2.01685e-11 1.88857e-13 0)
(-1.51288e-11 -7.41926e-14 0)
(-1.89577e-12 -2.0303e-13 0)
(-6.53538e-14 -3.38735e-13 0)
(1.12377e-11 -1.46127e-13 0)
(8.71114e-12 -1.04954e-13 0)
(6.98325e-12 -6.43738e-14 0)
(1.19362e-11 1.38213e-13 0)
(-1.61708e-13 -1.18937e-13 0)
(5.96967e-12 3.47852e-14 0)
(-1.93297e-12 -2.3608e-14 0)
(-6.93129e-12 -1.41257e-13 0)
(-8.51881e-12 1.9347e-14 0)
(-2.38062e-11 -1.46345e-13 0)
(-1.62036e-11 5.44734e-14 0)
(-1.35241e-11 -7.79859e-14 0)
(-6.42716e-12 -1.4684e-13 0)
(1.02178e-12 3.79594e-14 0)
(2.47294e-12 1.07958e-13 0)
(-5.28071e-11 -1.18914e-09 0)
(6.34627e-11 -7.50991e-12 0)
(1.79554e-10 -6.09214e-12 0)
(2.29479e-10 -3.101e-12 0)
(2.11176e-10 -9.15995e-14 0)
(9.49722e-11 3.26142e-12 0)
(-2.67897e-11 5.26389e-12 0)
(-1.30817e-10 6.50092e-12 0)
(-1.95263e-10 5.82844e-12 0)
(-2.07698e-10 3.85372e-12 0)
(-1.70042e-10 1.13243e-12 0)
(-8.20473e-11 -1.61392e-12 0)
(2.35113e-11 -3.57387e-12 0)
(1.1638e-10 -4.39402e-12 0)
(1.74151e-10 -3.86204e-12 0)
(1.85067e-10 -2.3029e-12 0)
(1.55134e-10 -2.03013e-13 0)
(9.40265e-11 1.79256e-12 0)
(2.03071e-11 3.15968e-12 0)
(-4.38122e-11 3.5996e-12 0)
(-8.11373e-11 3.11968e-12 0)
(-8.52519e-11 1.96243e-12 0)
(-6.27798e-11 5.54227e-13 0)
(-2.6449e-11 -6.8023e-13 0)
(1.17722e-11 -1.38547e-12 0)
(4.02748e-11 -1.4076e-12 0)
(4.89744e-11 -8.57041e-13 0)
(3.71848e-11 3.00823e-14 0)
(1.20301e-11 8.59121e-13 0)
(-1.10625e-11 1.36554e-12 0)
(-2.28251e-11 1.36261e-12 0)
(-2.07709e-11 8.65986e-13 0)
(-4.0276e-12 1.50421e-13 0)
(2.0678e-11 -5.33987e-13 0)
(4.62958e-11 -8.27219e-13 0)
(5.94031e-11 -6.47931e-13 0)
(5.31465e-11 -9.98723e-14 0)
(3.27825e-11 6.39591e-13 0)
(7.66812e-12 1.19243e-12 0)
(-1.72046e-11 1.34314e-12 0)
(-2.94582e-11 1.1534e-12 0)
(-3.43483e-11 4.89636e-13 0)
(-2.61844e-11 -1.16328e-13 0)
(-4.73649e-12 -5.33664e-13 0)
(-8.06241e-13 -9.02094e-13 0)
(1.84497e-11 -4.86326e-13 0)
(1.47577e-11 -4.06169e-13 0)
(1.31286e-11 -1.23057e-13 0)
(2.0779e-11 3.82662e-13 0)
(1.23502e-12 -4.93978e-14 0)
(1.07475e-11 3.71361e-13 0)
(-2.85548e-12 1.22513e-13 0)
(-1.07581e-11 -1.38702e-13 0)
(-1.4335e-11 -2.87182e-15 0)
(-3.93114e-11 -4.37181e-13 0)
(-2.71375e-11 -2.99054e-14 0)
(-2.27489e-11 -3.32106e-13 0)
(-1.12103e-11 -3.64123e-13 0)
(1.20473e-12 8.4151e-14 0)
(3.92736e-12 3.1994e-13 0)
(-7.28992e-11 -1.10619e-09 0)
(8.10047e-11 -1.28384e-11 0)
(2.39272e-10 -1.1479e-11 0)
(3.16163e-10 -6.45633e-12 0)
(2.97818e-10 -1.47106e-12 0)
(1.4136e-10 4.55812e-12 0)
(-2.50671e-11 8.48177e-12 0)
(-1.70534e-10 1.12724e-11 0)
(-2.63284e-10 1.06659e-11 0)
(-2.86598e-10 7.62189e-12 0)
(-2.40964e-10 3.02157e-12 0)
(-1.23992e-10 -1.9097e-12 0)
(1.99784e-11 -5.7315e-12 0)
(1.49392e-10 -7.66012e-12 0)
(2.32424e-10 -7.21553e-12 0)
(2.51963e-10 -4.80993e-12 0)
(2.15309e-10 -1.25106e-12 0)
(1.34468e-10 2.34747e-12 0)
(3.41067e-11 5.02853e-12 0)
(-5.52551e-11 6.17129e-12 0)
(-1.09115e-10 5.6772e-12 0)
(-1.17573e-10 3.86991e-12 0)
(-8.91617e-11 1.45775e-12 0)
(-4.09093e-11 -8.02006e-13 0)
(1.12568e-11 -2.23644e-12 0)
(5.14316e-11 -2.51459e-12 0)
(6.51514e-11 -1.74613e-12 0)
(5.03633e-11 -2.82317e-13 0)
(1.6381e-11 1.20327e-12 0)
(-1.54514e-11 2.21516e-12 0)
(-3.22972e-11 2.35106e-12 0)
(-3.05358e-11 1.59868e-12 0)
(-8.71187e-12 3.90151e-13 0)
(2.48023e-11 -8.46376e-13 0)
(6.0704e-11 -1.46066e-12 0)
(8.00656e-11 -1.26596e-12 0)
(7.27739e-11 -3.68726e-13 0)
(4.5664e-11 9.4482e-13 0)
(1.14696e-11 1.98178e-12 0)
(-2.29256e-11 2.34153e-12 0)
(-4.06145e-11 2.07626e-12 0)
(-4.86298e-11 9.01177e-13 0)
(-3.76676e-11 -1.8613e-13 0)
(-8.48061e-12 -1.05728e-12 0)
(-2.08103e-12 -1.76545e-12 0)
(2.52078e-11 -1.03793e-12 0)
(2.07005e-11 -8.89374e-13 0)
(1.97842e-11 -1.6549e-13 0)
(2.98306e-11 7.946e-13 0)
(3.31059e-12 1.9905e-13 0)
(1.58262e-11 1.01462e-12 0)
(-3.55586e-12 4.42395e-13 0)
(-1.41031e-11 -3.53475e-14 0)
(-2.00938e-11 -5.93506e-14 0)
(-5.4378e-11 -9.06761e-13 0)
(-3.80316e-11 -2.48274e-13 0)
(-3.20633e-11 -7.78558e-13 0)
(-1.62762e-11 -7.02344e-13 0)
(9.96633e-13 1.44323e-13 0)
(5.2237e-12 6.53976e-13 0)
(-9.33016e-11 -1.08997e-09 0)
(9.33152e-11 -1.97161e-11 0)
(2.93137e-10 -1.85604e-11 0)
(4.00012e-10 -1.10386e-11 0)
(3.84839e-10 -3.61115e-12 0)
(1.91603e-10 5.88987e-12 0)
(-1.71044e-11 1.23675e-11 0)
(-2.03586e-10 1.73182e-11 0)
(-3.2564e-10 1.69477e-11 0)
(-3.62555e-10 1.26427e-11 0)
(-3.12316e-10 5.68301e-12 0)
(-1.69522e-10 -2.07836e-12 0)
(1.06828e-11 -8.38519e-12 0)
(1.76049e-10 -1.18638e-11 0)
(2.85172e-10 -1.16636e-11 0)
(3.15336e-10 -8.26073e-12 0)
(2.7451e-10 -2.86513e-12 0)
(1.76293e-10 2.81451e-12 0)
(5.08425e-11 7.25488e-12 0)
(-6.33611e-11 9.39796e-12 0)
(-1.34405e-10 8.98233e-12 0)
(-1.48531e-10 6.4059e-12 0)
(-1.15746e-10 2.725e-12 0)
(-5.69119e-11 -8.73523e-13 0)
(8.46279e-12 -3.2955e-12 0)
(6.03362e-11 -3.96598e-12 0)
(7.97515e-11 -2.97384e-12 0)
(6.28528e-11 -8.01379e-13 0)
(2.08012e-11 1.52938e-12 0)
(-1.94074e-11 3.21989e-12 0)
(-4.14736e-11 3.57203e-12 0)
(-4.05524e-11 2.52395e-12 0)
(-1.44521e-11 6.9751e-13 0)
(2.72677e-11 -1.25153e-12 0)
(7.33033e-11 -2.29872e-12 0)
(9.92752e-11 -2.1123e-12 0)
(9.16566e-11 -7.83762e-13 0)
(5.85598e-11 1.27023e-12 0)
(1.58492e-11 2.94646e-12 0)
(-2.77957e-11 3.59929e-12 0)
(-5.11706e-11 3.25112e-12 0)
(-6.28103e-11 1.41816e-12 0)
(-4.9449e-11 -2.95238e-13 0)
(-1.30449e-11 -1.78099e-12 0)
(-3.91439e-12 -2.93575e-12 0)
(3.13829e-11 -1.80607e-12 0)
(2.64035e-11 -1.55053e-12 0)
(2.67194e-11 -1.94153e-13 0)
(3.89075e-11 1.37992e-12 0)
(5.91956e-12 6.30021e-13 0)
(2.11087e-11 1.96508e-12 0)
(-4.03078e-12 9.46015e-13 0)
(-1.69698e-11 1.69726e-13 0)
(-2.57102e-11 -1.40695e-13 0)
(-6.88947e-11 -1.55141e-12 0)
(-4.88103e-11 -6.02783e-13 0)
(-4.14322e-11 -1.42256e-12 0)
(-2.15979e-11 -1.17839e-12 0)
(3.72632e-13 2.11071e-13 0)
(6.34595e-12 1.10625e-12 0)
(-1.13139e-10 -1.09231e-09 0)
(1.01126e-10 -2.80287e-11 0)
(3.41124e-10 -2.73511e-11 0)
(4.80754e-10 -1.69128e-11 0)
(4.71826e-10 -6.59817e-12 0)
(2.45446e-10 7.16389e-12 0)
(-2.96647e-12 1.68471e-11 0)
(-2.29833e-10 2.46068e-11 0)
(-3.82025e-10 2.46877e-11 0)
(-4.35138e-10 1.89694e-11 0)
(-3.83603e-10 9.19552e-12 0)
(-2.18194e-10 -2.03885e-12 0)
(-4.08663e-12 -1.14713e-11 0)
(1.96469e-10 -1.69752e-11 0)
(3.32363e-10 -1.7216e-11 0)
(3.7507e-10 -1.26977e-11 0)
(3.32591e-10 -5.10698e-12 0)
(2.1938e-10 3.12996e-12 0)
(7.04836e-11 9.78818e-12 0)
(-6.80424e-11 1.32531e-11 0)
(-1.56825e-10 1.30369e-11 0)
(-1.77903e-10 9.59558e-12 0)
(-1.4232e-10 4.39333e-12 0)
(-7.4273e-11 -8.57829e-13 0)
(3.52371e-12 -4.53591e-12 0)
(6.70571e-11 -5.75069e-12 0)
(9.27929e-11 -4.54569e-12 0)
(7.46729e-11 -1.54519e-12 0)
(2.5361e-11 1.81565e-12 0)
(-2.28085e-11 4.36307e-12 0)
(-5.01993e-11 5.01907e-12 0)
(-5.06525e-11 3.64523e-12 0)
(-2.10807e-11 1.08176e-12 0)
(2.82086e-11 -1.73918e-12 0)
(8.41589e-11 -3.33624e-12 0)
(1.17036e-10 -3.19077e-12 0)
(1.09784e-10 -1.35702e-12 0)
(7.14833e-11 1.60051e-12 0)
(2.08605e-11 4.07491e-12 0)
(-3.17235e-11 5.11292e-12 0)
(-6.10149e-11 4.68129e-12 0)
(-7.67461e-11 2.0502e-12 0)
(-6.14402e-11 -4.34756e-13 0)
(-1.83873e-11 -2.70167e-12 0)
(-6.33466e-12 -4.41623e-12 0)
(3.68737e-11 -2.80509e-12 0)
(3.17639e-11 -2.40368e-12 0)
(3.37849e-11 -2.20781e-13 0)
(4.78899e-11 2.13134e-12 0)
(8.98183e-12 1.25146e-12 0)
(2.65458e-11 3.23309e-12 0)
(-4.26315e-12 1.65097e-12 0)
(-1.93392e-11 4.94301e-13 0)
(-3.11167e-11 -2.37067e-13 0)
(-8.27711e-11 -2.36456e-12 0)
(-5.94176e-11 -1.09863e-12 0)
(-5.08328e-11 -2.27429e-12 0)
(-2.71659e-11 -1.80586e-12 0)
(-6.93581e-13 2.7515e-13 0)
(7.27755e-12 1.6744e-12 0)
(-1.32321e-10 -1.08976e-09 0)
(1.04366e-10 -3.76591e-11 0)
(3.83109e-10 -3.78472e-11 0)
(5.58066e-10 -2.41456e-11 0)
(5.58377e-10 -1.0532e-11 0)
(3.02662e-10 8.265e-12 0)
(1.7324e-11 2.18239e-11 0)
(-2.49095e-10 3.30886e-11 0)
(-4.32096e-10 3.3891e-11 0)
(-5.03914e-10 2.66597e-11 0)
(-4.54377e-10 1.36539e-11 0)
(-2.69651e-10 -1.68679e-12 0)
(-2.41433e-11 -1.49013e-11 0)
(2.10664e-10 -2.2944e-11 0)
(3.7387e-10 -2.38705e-11 0)
(4.30975e-10 -1.81606e-11 0)
(3.89358e-10 -8.04521e-12 0)
(2.63595e-10 3.21743e-12 0)
(9.30041e-11 1.2564e-11 0)
(-6.92043e-11 1.76998e-11 0)
(-1.7619e-10 1.78379e-11 0)
(-2.05475e-10 1.34658e-11 0)
(-1.6869e-10 6.50752e-12 0)
(-9.28418e-11 -7.07032e-13 0)
(-3.47075e-12 -5.91969e-12 0)
(7.16201e-11 -7.84919e-12 0)
(1.04259e-10 -6.46291e-12 0)
(8.58122e-11 -2.53126e-12 0)
(3.0096e-11 2.03853e-12 0)
(-2.55697e-11 5.62564e-12 0)
(-5.83567e-11 6.68447e-12 0)
(-6.07077e-11 4.96757e-12 0)
(-2.84782e-11 1.55675e-12 0)
(2.77085e-11 -2.29301e-12 0)
(9.32934e-11 -4.56268e-12 0)
(1.33321e-10 -4.50209e-12 0)
(1.27125e-10 -2.10003e-12 0)
(8.44289e-11 1.9186e-12 0)
(2.65404e-11 5.35267e-12 0)
(-3.46314e-11 6.87677e-12 0)
(-7.00493e-11 6.37051e-12 0)
(-9.03185e-11 2.80998e-12 0)
(-7.35677e-11 -5.90352e-13 0)
(-2.44803e-11 -3.81115e-12 0)
(-9.3702e-12 -6.20601e-12 0)
(4.15925e-11 -4.04785e-12 0)
(3.66929e-11 -3.46456e-12 0)
(4.08658e-11 -2.6017e-13 0)
(5.66862e-11 3.03656e-12 0)
(1.24449e-11 2.06727e-12 0)
(3.21095e-11 4.82605e-12 0)
(-4.22933e-12 2.57301e-12 0)
(-2.11829e-11 9.57105e-13 0)
(-3.62525e-11 -3.37804e-13 0)
(-9.59255e-11 -3.33728e-12 0)
(-6.98048e-11 -1.73845e-12 0)
(-6.02462e-11 -3.34268e-12 0)
(-3.29774e-11 -2.59751e-12 0)
(-2.22802e-12 3.26187e-13 0)
(8.00145e-12 2.35432e-12 0)
(-1.50858e-10 -1.08293e-09 0)
(1.02869e-10 -4.85123e-11 0)
(4.18922e-10 -5.00369e-11 0)
(6.3159e-10 -3.28081e-11 0)
(6.44084e-10 -1.55173e-11 0)
(3.63021e-10 9.07157e-12 0)
(4.37427e-11 2.71967e-11 0)
(-2.61181e-10 4.27124e-11 0)
(-4.75498e-10 4.45635e-11 0)
(-5.68446e-10 3.57761e-11 0)
(-5.24197e-10 1.91594e-11 0)
(-3.2356e-10 -9.1128e-13 0)
(-4.93344e-11 -1.85818e-11 0)
(2.18605e-10 -2.9717e-11 0)
(4.09522e-10 -3.16247e-11 0)
(4.82815e-10 -2.46922e-11 0)
(4.44584e-10 -1.17525e-11 0)
(3.08779e-10 2.99645e-12 0)
(1.18366e-10 1.55152e-11 0)
(-6.67584e-11 2.27e-11 0)
(-1.92319e-10 2.33834e-11 0)
(-2.31036e-10 1.80459e-11 0)
(-1.94662e-10 9.1157e-12 0)
(-1.12476e-10 -3.70019e-13 0)
(-1.24462e-11 -7.40656e-12 0)
(7.40326e-11 -1.02411e-11 0)
(1.14114e-10 -8.72729e-12 0)
(9.62398e-11 -3.77847e-12 0)
(3.50189e-11 2.17298e-12 0)
(-2.76295e-11 6.98762e-12 0)
(-6.58498e-11 8.56056e-12 0)
(-7.06103e-11 6.49716e-12 0)
(-3.65474e-11 2.1381e-12 0)
(2.58278e-11 -2.89501e-12 0)
(1.00711e-10 -5.96662e-12 0)
(1.48091e-10 -6.04734e-12 0)
(1.43631e-10 -3.02555e-12 0)
(9.73773e-11 2.20575e-12 0)
(3.29128e-11 6.76403e-12 0)
(-3.64525e-11 8.8851e-12 0)
(-7.81839e-11 8.32375e-12 0)
(-1.0342e-10 3.71266e-12 0)
(-8.57636e-11 -7.44674e-13 0)
(-3.1301e-11 -5.0989e-12 0)
(-1.30477e-11 -8.3026e-12 0)
(4.546e-11 -5.54731e-12 0)
(4.11088e-11 -4.75043e-12 0)
(4.78638e-11 -3.28914e-13 0)
(6.52192e-11 4.08025e-12 0)
(1.62688e-11 3.07933e-12 0)
(3.77827e-11 6.74998e-12 0)
(-3.9023e-12 3.72687e-12 0)
(-2.24682e-11 1.57829e-12 0)
(-4.10589e-11 -4.30702e-13 0)
(-1.08281e-10 -4.45833e-12 0)
(-7.99255e-11 -2.52322e-12 0)
(-6.96542e-11 -4.63629e-12 0)
(-3.90323e-11 -3.56608e-12 0)
(-4.25545e-12 3.52717e-13 0)
(8.50028e-12 3.1411e-12 0)
(-1.68726e-10 -1.07444e-09 0)
(9.65228e-11 -6.04828e-11 0)
(4.48377e-10 -6.38988e-11 0)
(7.0094e-10 -4.29695e-11 0)
(7.28515e-10 -2.16609e-11 0)
(4.26262e-10 9.45348e-12 0)
(7.62403e-11 3.28535e-11 0)
(-2.65917e-10 5.34164e-11 0)
(-5.11876e-10 5.67039e-11 0)
(-6.28288e-10 4.63785e-11 0)
(-5.92614e-10 2.58162e-11 0)
(-3.79583e-10 4.05913e-13 0)
(-7.9507e-11 -2.24095e-11 0)
(2.20256e-10 -3.72322e-11 0)
(4.39128e-10 -4.04698e-11 0)
(5.30325e-10 -3.23323e-11 0)
(4.98008e-10 -1.63032e-11 0)
(3.54747e-10 2.3816e-12 0)
(1.46509e-10 1.85678e-11 0)
(-6.06309e-11 2.82095e-11 0)
(-2.05038e-10 2.96672e-11 0)
(-2.54369e-10 2.33639e-11 0)
(-2.2004e-10 1.22674e-11 0)
(-1.3303e-10 2.07785e-13 0)
(-2.33291e-11 -8.95203e-12 0)
(7.42967e-11 -1.29026e-11 0)
(1.22315e-10 -1.13384e-11 0)
(1.05912e-10 -5.30543e-12 0)
(4.01246e-11 2.19264e-12 0)
(-2.89445e-11 8.42697e-12 0)
(-7.25978e-11 1.06379e-11 0)
(-8.02641e-11 8.23959e-12 0)
(-4.52013e-11 2.84216e-12 0)
(2.2617e-11 -3.52551e-12 0)
(1.06406e-10 -7.53486e-12 0)
(1.61298e-10 -7.82647e-12 0)
(1.59247e-10 -4.14646e-12 0)
(1.10297e-10 2.44183e-12 0)
(3.99896e-11 8.29136e-12 0)
(-3.71298e-11 1.11306e-11 0)
(-8.53343e-11 1.05456e-11 0)
(-1.15951e-10 4.7746e-12 0)
(-9.79603e-11 -8.78155e-13 0)
(-3.88251e-11 -6.55184e-12 0)
(-1.73908e-11 -1.07014e-11 0)
(4.84029e-11 -7.31615e-12 0)
(4.49337e-11 -6.27946e-12 0)
(5.46884e-11 -4.45852e-13 0)
(7.342e-11 5.24396e-12 0)
(2.04197e-11 4.28738e-12 0)
(4.35541e-11 9.00908e-12 0)
(-3.25333e-12 5.12703e-12 0)
(-2.31608e-11 2.37932e-12 0)
(-4.54784e-11 -5.01472e-13 0)
(-1.19764e-10 -5.71379e-12 0)
(-8.97336e-11 -3.45236e-12 0)
(-7.9037e-11 -6.16296e-12 0)
(-4.53305e-11 -4.72461e-12 0)
(-6.79873e-12 3.41974e-13 0)
(8.7565e-12 4.02836e-12 0)
(-1.85909e-10 -1.06465e-09 0)
(8.52372e-11 -7.34455e-11 0)
(4.71282e-10 -7.93988e-11 0)
(7.65708e-10 -5.46928e-11 0)
(8.11207e-10 -2.90698e-11 0)
(4.92092e-10 9.27275e-12 0)
(1.14728e-10 3.86701e-11 0)
(-2.63152e-10 6.51247e-11 0)
(-5.40883e-10 7.02983e-11 0)
(-6.82988e-10 5.85204e-11 0)
(-6.59162e-10 3.37283e-11 0)
(-4.37361e-10 2.389e-12 0)
(-1.14489e-10 -2.62708e-11 0)
(2.15587e-10 -4.54155e-11 0)
(4.62492e-10 -5.03867e-11 0)
(5.73225e-10 -4.11149e-11 0)
(5.49343e-10 -2.1771e-11 0)
(4.01285e-10 1.28346e-12 0)
(1.77348e-10 2.16407e-11 0)
(-5.0768e-11 3.41757e-11 0)
(-2.14182e-10 3.66759e-11 0)
(-2.75261e-10 2.94435e-11 0)
(-2.44616e-10 1.60116e-11 0)
(-1.54348e-10 1.08356e-12 0)
(-3.60391e-11 -1.05072e-11 0)
(7.24163e-11 -1.58048e-11 0)
(1.28815e-10 -1.42926e-11 0)
(1.14773e-10 -7.12931e-12 0)
(4.53931e-11 2.07053e-12 0)
(-2.94867e-11 9.91965e-12 0)
(-7.85315e-11 1.29049e-11 0)
(-8.958e-11 1.01991e-11 0)
(-5.43569e-11 3.68529e-12 0)
(1.81246e-11 -4.16346e-12 0)
(1.10373e-10 -9.25223e-12 0)
(1.72891e-10 -9.83792e-12 0)
(1.7391e-10 -5.47531e-12 0)
(1.23147e-10 2.60551e-12 0)
(4.77711e-11 9.91492e-12 0)
(-3.66158e-11 1.3604e-11 0)
(-9.14212e-11 1.30394e-11 0)
(-1.27811e-10 6.01273e-12 0)
(-1.10088e-10 -9.69371e-13 0)
(-4.70247e-11 -8.15419e-12 0)
(-2.24194e-11 -1.33951e-11 0)
(5.0354e-11 -9.36624e-12 0)
(4.80924e-11 -8.07019e-12 0)
(6.12528e-11 -6.32016e-13 0)
(8.12246e-11 6.50592e-12 0)
(2.48649e-11 5.68854e-12 0)
(4.94152e-11 1.16051e-11 0)
(-2.25328e-12 6.78746e-12 0)
(-2.32264e-11 3.38272e-12 0)
(-4.94535e-11 -5.33433e-13 0)
(-1.30304e-10 -7.08663e-12 0)
(-9.91816e-11 -4.52339e-12 0)
(-8.83728e-11 -7.92938e-12 0)
(-5.1871e-11 -6.08639e-12 0)
(-9.87815e-12 2.79704e-13 0)
(8.75257e-12 5.0076e-12 0)
(-2.02418e-10 -1.05323e-09 0)
(6.89304e-11 -8.72599e-11 0)
(4.87455e-10 -9.64884e-11 0)
(8.25471e-10 -6.80334e-11 0)
(8.91671e-10 -3.78498e-11 0)
(5.6017e-10 8.38369e-12 0)
(1.59069e-10 4.45092e-11 0)
(-2.52774e-10 7.77466e-11 0)
(-5.62191e-10 8.53192e-11 0)
(-7.32089e-10 7.22468e-11 0)
(-7.23352e-10 4.29987e-11 0)
(-4.96502e-10 5.16795e-12 0)
(-1.54074e-10 -3.0041e-11 0)
(2.04594e-10 -5.41802e-11 0)
(4.79427e-10 -6.13453e-11 0)
(6.11219e-10 -5.10667e-11 0)
(5.98277e-10 -2.8228e-11 0)
(4.48144e-10 -3.91172e-13 0)
(2.10762e-10 2.46453e-11 0)
(-3.71414e-11 4.05374e-11 0)
(-2.196e-10 4.43884e-11 0)
(-2.93495e-10 3.63037e-11 0)
(-2.68175e-10 2.03964e-11 0)
(-1.76259e-10 2.31692e-12 0)
(-5.04832e-11 -1.20184e-11 0)
(6.84024e-11 -1.8914e-11 0)
(1.33565e-10 -1.75818e-11 0)
(1.22761e-10 -9.26552e-12 0)
(5.07911e-11 1.77918e-12 0)
(-2.92421e-11 1.14395e-11 0)
(-8.35922e-11 1.53474e-11 0)
(-9.8474e-11 1.23782e-11 0)
(-6.39314e-11 4.68373e-12 0)
(1.24009e-11 -4.78644e-12 0)
(1.12608e-10 -1.11015e-11 0)
(1.82817e-10 -1.20784e-11 0)
(1.87551e-10 -7.02408e-12 0)
(1.35873e-10 2.67441e-12 0)
(5.62456e-11 1.16128e-11 0)
(-3.48733e-11 1.62936e-11 0)
(-9.63706e-11 1.5807e-11 0)
(-1.38906e-10 7.44434e-12 0)
(-1.22075e-10 -9.95091e-13 0)
(-5.58655e-11 -9.88739e-12 0)
(-2.81485e-11 -1.63737e-11 0)
(5.12515e-11 -1.17085e-11 0)
(5.0512e-11 -1.01414e-11 0)
(6.74718e-11 -9.10714e-13 0)
(8.85716e-11 7.84091e-12 0)
(2.95711e-11 7.27707e-12 0)
(5.53584e-11 1.45371e-11 0)
(-8.73684e-13 8.72146e-12 0)
(-2.2632e-11 4.61206e-12 0)
(-5.29269e-11 -5.07341e-13 0)
(-1.39828e-10 -8.55642e-12 0)
(-1.0822e-10 -5.73177e-12 0)
(-9.76362e-11 -9.94087e-12 0)
(-5.86503e-11 -7.6649e-12 0)
(-1.35109e-11 1.50121e-13 0)
(8.47119e-12 6.06793e-12 0)
(-2.18287e-10 -1.04e-09 0)
(4.75395e-11 -1.01771e-10 0)
(4.96731e-10 -1.15103e-10 0)
(8.79794e-10 -8.30378e-11 0)
(9.69381e-10 -4.81042e-11 0)
(6.30107e-10 6.63327e-12 0)
(2.09067e-10 5.02206e-11 0)
(-2.34716e-10 9.11749e-11 0)
(-5.75495e-10 1.01724e-10 0)
(-7.75135e-10 8.75934e-11 0)
(-7.84671e-10 5.37281e-11 0)
(-5.5658e-10 8.87803e-12 0)
(-1.98017e-10 -3.35843e-11 0)
(1.87306e-10 -6.3426e-11 0)
(4.8976e-10 -7.33026e-11 0)
(6.44008e-10 -6.22061e-11 0)
(6.44472e-10 -3.57438e-11 0)
(4.95042e-10 -2.73892e-12 0)
(2.46597e-10 2.7485e-11 0)
(-1.97516e-11 4.72235e-11 0)
(-2.21158e-10 5.2775e-11 0)
(-3.0886e-10 4.39576e-11 0)
(-2.9049e-10 2.54679e-11 0)
(-1.98577e-10 3.9697e-12 0)
(-6.65525e-11 -1.34273e-11 0)
(6.22768e-11 -2.21911e-11 0)
(1.3652e-10 -2.1194e-11 0)
(1.29809e-10 -1.17272e-11 0)
(5.62729e-11 1.29089e-12 0)
(-2.82103e-11 1.29582e-11 0)
(-8.77311e-11 1.79485e-11 0)
(-1.06866e-10 1.47774e-11 0)
(-7.38401e-11 5.85331e-12 0)
(5.50097e-12 -5.37078e-12 0)
(1.13112e-10 -1.30634e-11 0)
(1.91027e-10 -1.45427e-11 0)
(2.00095e-10 -8.80401e-12 0)
(1.48415e-10 2.62513e-12 0)
(6.53896e-11 1.33609e-11 0)
(-3.1876e-11 1.9185e-11 0)
(-1.00114e-10 1.88485e-11 0)
(-1.49141e-10 9.08692e-12 0)
(-1.33844e-10 -9.30338e-13 0)
(-6.53059e-11 -1.17299e-11 0)
(-3.45871e-11 -1.96242e-11 0)
(5.10402e-11 -1.43525e-11 0)
(5.21218e-11 -1.25121e-11 0)
(7.326e-11 -1.30755e-12 0)
(9.54012e-11 9.22016e-12 0)
(3.45022e-11 9.0441e-12 0)
(6.13752e-11 1.78012e-11 0)
(9.12311e-13 1.09416e-11 0)
(-2.13469e-11 6.09177e-12 0)
(-5.58409e-11 -4.01299e-13 0)
(-1.48271e-10 -1.00992e-11 0)
(-1.16796e-10 -7.07065e-12 0)
(-1.06798e-10 -1.2201e-11 0)
(-6.56617e-11 -9.47362e-12 0)
(-1.77104e-11 -6.40918e-14 0)
(7.89551e-12 7.19581e-12 0)
(-2.33567e-10 -1.02485e-09 0)
(2.10311e-11 -1.1681e-10 0)
(4.98966e-10 -1.35161e-10 0)
(9.28235e-10 -9.97414e-11 0)
(1.04378e-09 -5.99329e-11 0)
(7.01465e-10 3.86207e-12 0)
(2.64464e-10 5.56408e-11 0)
(-2.0896e-10 1.05286e-10 0)
(-5.80522e-10 1.19453e-10 0)
(-8.11674e-10 1.04584e-10 0)
(-8.42585e-10 6.60137e-11 0)
(-6.17127e-10 1.36587e-11 0)
(-2.46024e-10 -3.67538e-11 0)
(1.63791e-10 -7.30384e-11 0)
(4.93341e-10 -8.62022e-11 0)
(6.71296e-10 -7.45419e-11 0)
(6.87573e-10 -4.43848e-11 0)
(5.41663e-10 -5.85893e-12 0)
(2.8466e-10 3.0056e-11 0)
(1.3675e-12 5.41534e-11 0)
(-2.18742e-10 6.17965e-11 0)
(-3.21147e-10 5.2412e-11 0)
(-3.11325e-10 3.12702e-11 0)
(-2.21099e-10 6.10535e-12 0)
(-8.41196e-11 -1.4671e-11 0)
(5.4075e-11 -2.55911e-11 0)
(1.3764e-10 -2.5112e-11 0)
(1.35843e-10 -1.45248e-11 0)
(6.17816e-11 5.78133e-13 0)
(-2.64042e-11 1.44457e-11 0)
(-9.09093e-11 2.06888e-11 0)
(-1.14678e-10 1.73954e-11 0)
(-8.39955e-11 7.20926e-12 0)
(-2.51327e-12 -5.89173e-12 0)
(1.11891e-10 -1.51164e-11 0)
(1.97473e-10 -1.72233e-11 0)
(2.11465e-10 -1.08254e-11 0)
(1.607e-10 2.43351e-12 0)
(7.51668e-11 1.51328e-11 0)
(-2.76092e-11 2.22617e-11 0)
(-1.02589e-10 2.21623e-11 0)
(-1.58421e-10 1.09579e-11 0)
(-1.45314e-10 -7.48508e-13 0)
(-7.52959e-11 -1.36574e-11 0)
(-4.17378e-11 -2.31303e-11 0)
(4.96715e-11 -1.73064e-11 0)
(5.28536e-11 -1.5201e-11 0)
(7.85315e-11 -1.85033e-12 0)
(1.01654e-10 1.06112e-11 0)
(3.96181e-11 1.09773e-11 0)
(6.74552e-11 2.13901e-11 0)
(3.12892e-12 1.34591e-11 0)
(-1.93435e-11 7.84689e-12 0)
(-5.81388e-11 -1.90742e-13 0)
(-1.55564e-10 -1.16874e-11 0)
(-1.24856e-10 -8.53061e-12 0)
(-1.15824e-10 -1.47113e-11 0)
(-7.28945e-11 -1.15258e-11 0)
(-2.24858e-11 -3.81747e-13 0)
(7.00949e-12 8.37484e-12 0)
(-2.4832e-10 -1.0077e-09 0)
(-1.05919e-11 -1.32196e-10 0)
(4.94049e-10 -1.56564e-10 0)
(9.7035e-10 -1.18167e-10 0)
(1.1143e-09 -7.34298e-11 0)
(7.73749e-10 -9.43955e-14 0)
(3.24932e-10 6.05942e-11 0)
(-1.75552e-10 1.19937e-10 0)
(-5.77039e-10 1.3843e-10 0)
(-8.41264e-10 1.23231e-10 0)
(-8.96538e-10 7.99468e-11 0)
(-6.77632e-10 1.96525e-11 0)
(-2.97748e-10 -3.93924e-11 0)
(1.34167e-10 -8.28888e-11 0)
(4.90053e-10 -9.99733e-11 0)
(6.9279e-10 -8.8072e-11 0)
(7.27207e-10 -5.4212e-11 0)
(5.87658e-10 -9.85185e-12 0)
(3.24719e-10 3.22474e-11 0)
(2.61457e-11 6.12364e-11 0)
(-2.12261e-10 7.14037e-11 0)
(-3.30155e-10 6.16659e-11 0)
(-3.30435e-10 3.78437e-11 0)
(-2.43601e-10 8.78831e-12 0)
(-1.03037e-10 -1.56823e-11 0)
(4.38486e-11 -2.90634e-11 0)
(1.3689e-10 -2.93135e-11 0)
(1.40789e-10 -1.76654e-11 0)
(6.72496e-11 -3.86036e-13 0)
(-2.38497e-11 1.58701e-11 0)
(-9.30976e-11 2.35458e-11 0)
(-1.21839e-10 2.02282e-11 0)
(-9.43067e-11 8.76586e-12 0)
(-1.15719e-11 -6.32361e-12 0)
(1.08964e-10 -1.72368e-11 0)
(2.02114e-10 -2.01108e-11 0)
(2.21583e-10 -1.30972e-11 0)
(1.72648e-10 2.07482e-12 0)
(8.55282e-11 1.69002e-11 0)
(-2.20712e-11 2.55038e-11 0)
(-1.0374e-10 2.57443e-11 0)
(-1.66655e-10 1.30744e-11 0)
(-1.56399e-10 -4.21534e-13 0)
(-8.57759e-11 -1.56422e-11 0)
(-4.95954e-11 -2.68725e-11 0)
(4.71049e-11 -2.05764e-11 0)
(5.26423e-11 -1.82265e-11 0)
(8.31994e-11 -2.56894e-12 0)
(1.07271e-10 1.19781e-11 0)
(4.48738e-11 1.30606e-11 0)
(7.35848e-11 2.5293e-11 0)
(5.79675e-12 1.62841e-11 0)
(-1.65984e-11 9.90274e-12 0)
(-5.97642e-11 1.51536e-13 0)
(-1.61644e-10 -1.32897e-11 0)
(-1.3234e-10 -1.00995e-11 0)
(-1.24677e-10 -1.74711e-11 0)
(-8.03335e-11 -1.38342e-11 0)
(-2.78413e-11 -8.23092e-13 0)
(5.79817e-12 9.58547e-12 0)
(-2.62619e-10 -9.88449e-10 0)
(-4.72844e-11 -1.47734e-10 0)
(4.81901e-10 -1.79194e-10 0)
(1.0057e-09 -1.38324e-10 0)
(1.18032e-09 -8.86813e-11 0)
(8.46411e-10 -5.40417e-12 0)
(3.90071e-10 6.48934e-11 0)
(-1.34603e-10 1.34971e-10 0)
(-5.64859e-10 1.58558e-10 0)
(-8.6348e-10 1.43531e-10 0)
(-9.45958e-10 9.56117e-11 0)
(-7.37544e-10 2.70033e-11 0)
(-3.52784e-10 -4.13333e-11 0)
(9.86056e-11 -9.2834e-11 0)
(4.79813e-10 -1.14529e-10 0)
(7.08211e-10 -1.02782e-10 0)
(7.62986e-10 -6.52799e-11 0)
(6.32644e-10 -1.48186e-11 0)
(3.66498e-10 3.3942e-11 0)
(5.44728e-11 6.83717e-11 0)
(-2.01653e-10 8.15367e-11 0)
(-3.35693e-10 7.17099e-11 0)
(-3.47571e-10 4.52244e-11 0)
(-2.65844e-10 1.20832e-11 0)
(-1.23134e-10 -1.63901e-11 0)
(3.16681e-11 -3.25513e-11 0)
(1.34249e-10 -3.37703e-11 0)
(1.4457e-10 -2.11525e-11 0)
(7.26e-11 -1.62742e-12 0)
(-2.05859e-11 1.71982e-11 0)
(-9.42777e-11 2.64948e-11 0)
(-1.28279e-10 2.32693e-11 0)
(-1.04679e-10 1.05363e-11 0)
(-2.15963e-11 -6.64008e-12 0)
(1.04356e-10 -1.93989e-11 0)
(2.04915e-10 -2.31931e-11 0)
(2.30367e-10 -1.56271e-11 0)
(1.84169e-10 1.52403e-12 0)
(9.64114e-11 1.86328e-11 0)
(-1.52734e-11 2.88892e-11 0)
(-1.03521e-10 2.95883e-11 0)
(-1.73754e-10 1.54529e-11 0)
(-1.67008e-10 7.99066e-14 0)
(-9.66766e-11 -1.76539e-11 0)
(-5.8146e-11 -3.08277e-11 0)
(4.33084e-11 -2.41664e-11 0)
(5.14267e-11 -2.1606e-11 0)
(8.71762e-11 -3.49516e-12 0)
(1.12194e-10 1.32813e-11 0)
(5.02184e-11 1.5274e-11 0)
(7.97463e-11 2.94949e-11 0)
(8.93176e-12 1.94247e-11 0)
(-1.30929e-11 1.22845e-11 0)
(-6.06625e-11 6.55297e-13 0)
(-1.66448e-10 -1.48708e-11 0)
(-1.39187e-10 -1.17621e-11 0)
(-1.3331e-10 -2.04768e-11 0)
(-8.79577e-11 -1.64108e-11 0)
(-3.37753e-11 -1.40971e-12 0)
(4.24807e-12 1.08048e-11 0)
(-2.7654e-10 -9.66998e-10 0)
(-8.89543e-11 -1.63219e-10 0)
(4.62489e-10 -2.02915e-10 0)
(1.03386e-09 -1.60203e-10 0)
(1.24122e-09 -1.05764e-10 0)
(9.18853e-10 -1.2237e-11 0)
(4.59404e-10 6.83405e-11 0)
(-8.62941e-11 1.50211e-10 0)
(-5.43852e-10 1.79721e-10 0)
(-8.77921e-10 1.65463e-10 0)
(-9.9026e-10 1.13083e-10 0)
(-7.96269e-10 3.58543e-11 0)
(-4.1067e-10 -4.2401e-11 0)
(5.73371e-11 -1.02717e-10 0)
(4.62587e-10 -1.29767e-10 0)
(7.17302e-10 -1.18642e-10 0)
(7.94516e-10 -7.7635e-11 0)
(6.76209e-10 -2.08587e-11 0)
(4.0968e-10 3.50173e-11 0)
(8.61957e-11 7.54491e-11 0)
(-1.86887e-10 9.21245e-11 0)
(-3.37586e-10 8.25252e-11 0)
(-3.62478e-10 5.3443e-11 0)
(-2.87572e-10 1.60538e-11 0)
(-1.4422e-10 -1.67198e-11 0)
(1.76241e-11 -3.59926e-11 0)
(1.29706e-10 -3.84482e-11 0)
(1.47113e-10 -2.49848e-11 0)
(7.77477e-11 -3.17015e-12 0)
(-1.66642e-11 1.83958e-11 0)
(-9.44417e-11 2.95079e-11 0)
(-1.33933e-10 2.65096e-11 0)
(-1.15014e-10 1.2532e-11 0)
(-3.24983e-11 -6.81442e-12 0)
(9.8106e-11 -2.15752e-11 0)
(2.05847e-10 -2.64555e-11 0)
(2.37736e-10 -1.84207e-11 0)
(1.95166e-10 7.56131e-13 0)
(1.07741e-10 2.02982e-11 0)
(-7.24184e-12 3.23926e-11 0)
(-1.01894e-10 3.36853e-11 0)
(-1.79631e-10 1.8109e-11 0)
(-1.77046e-10 7.86132e-13 0)
(-1.07918e-10 -1.96589e-11 0)
(-6.73668e-11 -3.4969e-11 0)
(3.826e-11 -2.80777e-11 0)
(4.91503e-11 -2.53562e-11 0)
(9.03738e-11 -4.66238e-12 0)
(1.16361e-10 1.44778e-11 0)
(5.55946e-11 1.75929e-11 0)
(8.59171e-11 3.39768e-11 0)
(1.25442e-11 2.28866e-11 0)
(-8.81423e-12 1.5017e-11 0)
(-6.07813e-11 1.35272e-12 0)
(-1.69919e-10 -1.6392e-11 0)
(-1.45332e-10 -1.35001e-11 0)
(-1.41676e-10 -2.37217e-11 0)
(-9.57401e-11 -1.92663e-11 0)
(-4.02802e-11 -2.16439e-12 0)
(2.34762e-12 1.20062e-11 0)
(-2.9016e-10 -9.4326e-10 0)
(-1.35458e-10 -1.78436e-10 0)
(4.35821e-10 -2.27572e-10 0)
(1.05443e-09 -1.8378e-10 0)
(1.29635e-09 -1.24742e-10 0)
(9.90422e-10 -2.07623e-11 0)
(5.32378e-10 7.07285e-11 0)
(-3.08874e-11 1.65462e-10 0)
(-5.13951e-10 2.01782e-10 0)
(-8.84218e-10 1.88989e-10 0)
(-1.02885e-09 1.32422e-10 0)
(-8.53177e-10 4.63465e-11 0)
(-4.70883e-10 -4.24131e-11 0)
(1.06563e-11 -1.12365e-10 0)
(4.38387e-10 -1.45568e-10 0)
(7.19828e-10 -1.3561e-10 0)
(8.21399e-10 -9.13136e-11 0)
(7.17913e-10 -2.80691e-11 0)
(4.53904e-10 3.53463e-11 0)
(1.21116e-10 8.23485e-11 0)
(-1.6797e-10 1.03084e-10 0)
(-3.35677e-10 9.40824e-11 0)
(-3.74901e-10 6.25231e-11 0)
(-3.08512e-10 2.07621e-11 0)
(-1.66079e-10 -1.65942e-11 0)
(1.82918e-12 -3.93194e-11 0)
(1.23262e-10 -4.33069e-11 0)
(1.48346e-10 -2.91565e-11 0)
(8.26e-11 -5.03601e-12 0)
(-1.2149e-11 1.9428e-11 0)
(-9.35934e-11 3.25551e-11 0)
(-1.38743e-10 2.99369e-11 0)
(-1.25211e-10 1.4763e-11 0)
(-4.41804e-11 -6.81987e-12 0)
(9.02624e-11 -2.37361e-11 0)
(2.04892e-10 -2.9881e-11 0)
(2.43612e-10 -2.14817e-11 0)
(2.05533e-10 -2.53546e-13 0)
(1.19428e-10 2.18629e-11 0)
(1.98216e-12 3.59859e-11 0)
(-9.88323e-11 3.80236e-11 0)
(-1.84205e-10 2.10569e-11 0)
(-1.86416e-10 1.72815e-12 0)
(-1.1941e-10 -2.1621e-11 0)
(-7.72242e-11 -3.92659e-11 0)
(3.19481e-11 -3.23084e-11 0)
(4.57622e-11 -2.94918e-11 0)
(9.27045e-11 -6.10535e-12 0)
(1.19713e-10 1.55214e-11 0)
(6.09384e-11 1.99886e-11 0)
(9.20684e-11 3.87148e-11 0)
(1.66376e-11 2.6673e-11 0)