/*--------------------------------*- C++ -*----------------------------------*\
| =========                 |                                                 |
| \\      /  F ield         | foam-extend: Open Source CFD                    |
|  \\    /   O peration     | Version:     4.0                                |
|   \\  /    A nd           | Web:         http://www.foam-extend.org         |
|    \\/     M anipulation  |                                                 |
\*---------------------------------------------------------------------------*/
FoamFile
{
    version     2.0;
    format      ascii;
    class       volScalarField;
    location    "1850";
    object      psiE;
}
// * * * * * * * * * * * * * * * * * * * * * * * * * * * * * * * * * * * * * //

dimensions      [0 0 0 0 0 0 0];

internalField   nonuniform List<scalar> 
6960
(
0.399847
0.399886
0.399896
0.399898
0.399899
0.399898
0.399898
0.399897
0.399897
0.399897
0.399896
0.399896
0.399895
0.399895
0.399895
0.399895
0.399894
0.399894
0.399894
0.399894
0.399894
0.399893
0.399893
0.399893
0.399893
0.399893
0.399893
0.399893
0.399893
0.399893
0.399893
0.399893
0.399893
0.399893
0.399893
0.399893
0.399893
0.399893
0.399893
0.399894
0.399894
0.399894
0.399894
0.399894
0.399895
0.399895
0.399895
0.399895
0.399896
0.399896
0.399897
0.399897
0.399897
0.399898
0.399898
0.399899
0.399898
0.399896
0.399886
0.399847
1.08489
1.08504
1.08508
1.08509
1.08509
1.08509
1.08508
1.08508
1.08508
1.08508
1.08508
1.08508
1.08507
1.08507
1.08507
1.08507
1.08507
1.08507
1.08507
1.08507
1.08507
1.08507
1.08507
1.08506
1.08506
1.08506
1.08506
1.08506
1.08506
1.08506
1.08506
1.08506
1.08506
1.08506
1.08506
1.08506
1.08506
1.08507
1.08507
1.08507
1.08507
1.08507
1.08507
1.08507
1.08507
1.08507
1.08507
1.08507
1.08508
1.08508
1.08508
1.08508
1.08508
1.08508
1.08509
1.08509
1.08509
1.08508
1.08504
1.08489
1.74247
1.74272
1.74279
1.74281
1.74281
1.7428
1.7428
1.7428
1.74279
1.74279
1.74279
1.74278
1.74278
1.74278
1.74278
1.74277
1.74277
1.74277
1.74277
1.74277
1.74277
1.74276
1.74276
1.74276
1.74276
1.74276
1.74276
1.74276
1.74276
1.74276
1.74276
1.74276
1.74276
1.74276
1.74276
1.74276
1.74276
1.74276
1.74276
1.74277
1.74277
1.74277
1.74277
1.74277
1.74277
1.74278
1.74278
1.74278
1.74278
1.74279
1.74279
1.74279
1.7428
1.7428
1.7428
1.74281
1.74281
1.74279
1.74272
1.74247
2.38347
2.38383
2.38392
2.38394
2.38394
2.38394
2.38393
2.38392
2.38392
2.38391
2.38391
2.3839
2.3839
2.3839
2.38389
2.38389
2.38389
2.38388
2.38388
2.38388
2.38388
2.38388
2.38387
2.38387
2.38387
2.38387
2.38387
2.38387
2.38387
2.38387
2.38387
2.38387
2.38387
2.38387
2.38387
2.38387
2.38387
2.38387
2.38388
2.38388
2.38388
2.38388
2.38388
2.38389
2.38389
2.38389
2.3839
2.3839
2.3839
2.38391
2.38391
2.38392
2.38392
2.38393
2.38394
2.38394
2.38394
2.38392
2.38383
2.38347
3.00687
3.00732
3.00743
3.00746
3.00746
3.00745
3.00744
3.00743
3.00743
3.00742
3.00741
3.00741
3.0074
3.00739
3.00739
3.00738
3.00738
3.00738
3.00737
3.00737
3.00737
3.00736
3.00736
3.00736
3.00736
3.00736
3.00736
3.00736
3.00736
3.00736
3.00736
3.00736
3.00736
3.00736
3.00736
3.00736
3.00736
3.00736
3.00736
3.00737
3.00737
3.00737
3.00738
3.00738
3.00738
3.00739
3.00739
3.0074
3.00741
3.00741
3.00742
3.00743
3.00743
3.00744
3.00745
3.00746
3.00746
3.00743
3.00732
3.00687
3.60867
3.60919
3.60932
3.60934
3.60934
3.60933
3.60932
3.60931
3.6093
3.60929
3.60928
3.60927
3.60927
3.60926
3.60925
3.60925
3.60924
3.60924
3.60923
3.60923
3.60922
3.60922
3.60922
3.60922
3.60921
3.60921
3.60921
3.60921
3.60921
3.60921
3.60921
3.60921
3.60921
3.60921
3.60921
3.60921
3.60922
3.60922
3.60922
3.60922
3.60923
3.60923
3.60924
3.60924
3.60925
3.60925
3.60926
3.60927
3.60927
3.60928
3.60929
3.6093
3.60931
3.60932
3.60933
3.60934
3.60934
3.60932
3.60919
3.60867
4.18352
4.18408
4.18422
4.18425
4.18424
4.18423
4.18422
4.1842
4.18419
4.18418
4.18416
4.18415
4.18414
4.18414
4.18413
4.18412
4.18411
4.18411
4.1841
4.1841
4.18409
4.18409
4.18409
4.18408
4.18408
4.18408
4.18408
4.18407
4.18407
4.18407
4.18407
4.18407
4.18407
4.18408
4.18408
4.18408
4.18408
4.18409
4.18409
4.18409
4.1841
4.1841
4.18411
4.18411
4.18412
4.18413
4.18414
4.18414
4.18415
4.18416
4.18418
4.18419
4.1842
4.18422
4.18423
4.18424
4.18425
4.18422
4.18408
4.18352
4.72497
4.72555
4.72569
4.72571
4.72571
4.72569
4.72567
4.72565
4.72564
4.72562
4.72561
4.7256
4.72558
4.72557
4.72556
4.72555
4.72555
4.72554
4.72553
4.72553
4.72552
4.72551
4.72551
4.72551
4.7255
4.7255
4.7255
4.7255
4.7255
4.7255
4.7255
4.7255
4.7255
4.7255
4.7255
4.7255
4.72551
4.72551
4.72551
4.72552
4.72553
4.72553
4.72554
4.72555
4.72555
4.72556
4.72557
4.72558
4.7256
4.72561
4.72562
4.72564
4.72565
4.72567
4.72569
4.72571
4.72571
4.72569
4.72555
4.72497
5.22561
5.22617
5.22631
5.22632
5.22631
5.22629
5.22627
5.22625
5.22623
5.22621
5.22619
5.22617
5.22616
5.22615
5.22614
5.22612
5.22611
5.22611
5.2261
5.22609
5.22608
5.22608
5.22607
5.22607
5.22607
5.22606
5.22606
5.22606
5.22606
5.22606
5.22606
5.22606
5.22606
5.22606
5.22606
5.22607
5.22607
5.22607
5.22608
5.22608
5.22609
5.2261
5.22611
5.22611
5.22612
5.22614
5.22615
5.22616
5.22617
5.22619
5.22621
5.22623
5.22625
5.22627
5.22629
5.22631
5.22632
5.22631
5.22617
5.22561
5.67758
5.67808
5.6782
5.67821
5.67819
5.67816
5.67814
5.67811
5.67809
5.67807
5.67805
5.67803
5.67801
5.678
5.67798
5.67797
5.67796
5.67795
5.67794
5.67793
5.67792
5.67791
5.67791
5.6779
5.6779
5.6779
5.67789
5.67789
5.67789
5.67789
5.67789
5.67789
5.67789
5.67789
5.6779
5.6779
5.6779
5.67791
5.67791
5.67792
5.67793
5.67794
5.67795
5.67796
5.67797
5.67798
5.678
5.67801
5.67803
5.67805
5.67807
5.67809
5.67811
5.67814
5.67816
5.67819
5.67821
5.6782
5.67808
5.67758
6.07389
6.0743
6.0744
6.07439
6.07437
6.07433
6.0743
6.07427
6.07424
6.07422
6.0742
6.07417
6.07415
6.07414
6.07412
6.07411
6.07409
6.07408
6.07407
6.07406
6.07405
6.07404
6.07404
6.07403
6.07403
6.07402
6.07402
6.07402
6.07401
6.07401
6.07401
6.07401
6.07402
6.07402
6.07402
6.07403
6.07403
6.07404
6.07404
6.07405
6.07406
6.07407
6.07408
6.07409
6.07411
6.07412
6.07414
6.07415
6.07417
6.0742
6.07422
6.07424
6.07427
6.0743
6.07433
6.07437
6.07439
6.0744
6.0743
6.07389
6.41053
6.41083
6.41089
6.41088
6.41084
6.4108
6.41077
6.41073
6.4107
6.41067
6.41064
6.41062
6.4106
6.41058
6.41056
6.41054
6.41053
6.41051
6.4105
6.41049
6.41048
6.41047
6.41046
6.41046
6.41045
6.41045
6.41044
6.41044
6.41044
6.41044
6.41044
6.41044
6.41044
6.41044
6.41045
6.41045
6.41046
6.41046
6.41047
6.41048
6.41049
6.4105
6.41051
6.41053
6.41054
6.41056
6.41058
6.4106
6.41062
6.41064
6.41067
6.4107
6.41073
6.41077
6.4108
6.41084
6.41088
6.41089
6.41083
6.41053
6.68845
6.68863
6.68865
6.68862
6.68858
6.68853
6.68849
6.68845
6.68842
6.68839
6.68836
6.68833
6.68831
6.68828
6.68826
6.68824
6.68823
6.68821
6.6882
6.68819
6.68818
6.68817
6.68816
6.68815
6.68814
6.68814
6.68813
6.68813
6.68813
6.68813
6.68813
6.68813
6.68813
6.68813
6.68814
6.68814
6.68815
6.68816
6.68817
6.68818
6.68819
6.6882
6.68821
6.68823
6.68824
6.68826
6.68828
6.68831
6.68833
6.68836
6.68839
6.68842
6.68845
6.68849
6.68853
6.68858
6.68862
6.68865
6.68863
6.68845
6.91388
6.91395
6.91394
6.91389
6.91384
6.91379
6.91375
6.91371
6.91367
6.91363
6.9136
6.91357
6.91355
6.91352
6.9135
6.91348
6.91346
6.91345
6.91343
6.91342
6.91341
6.9134
6.91339
6.91338
6.91337
6.91337
6.91336
6.91336
6.91336
6.91336
6.91336
6.91336
6.91336
6.91336
6.91337
6.91337
6.91338
6.91339
6.9134
6.91341
6.91342
6.91343
6.91345
6.91346
6.91348
6.9135
6.91352
6.91355
6.91357
6.9136
6.91363
6.91367
6.91371
6.91375
6.91379
6.91384
6.91389
6.91394
6.91395
6.91388
7.09659
7.09657
7.09653
7.09647
7.09642
7.09636
7.09632
7.09627
7.09623
7.09619
7.09616
7.09613
7.0961
7.09608
7.09605
7.09603
7.09601
7.096
7.09598
7.09597
7.09595
7.09594
7.09593
7.09593
7.09592
7.09591
7.09591
7.0959
7.0959
7.0959
7.0959
7.0959
7.0959
7.09591
7.09591
7.09592
7.09593
7.09593
7.09594
7.09595
7.09597
7.09598
7.096
7.09601
7.09603
7.09605
7.09608
7.0961
7.09613
7.09616
7.09619
7.09623
7.09627
7.09632
7.09636
7.09642
7.09647
7.09653
7.09657
7.09659
7.24707
7.24698
7.24692
7.24686
7.2468
7.24674
7.24669
7.24665
7.24661
7.24657
7.24653
7.2465
7.24647
7.24645
7.24642
7.2464
7.24638
7.24636
7.24635
7.24633
7.24632
7.24631
7.2463
7.24629
7.24628
7.24628
7.24627
7.24627
7.24627
7.24626
7.24626
7.24627
7.24627
7.24627
7.24628
7.24628
7.24629
7.2463
7.24631
7.24632
7.24633
7.24635
7.24636
7.24638
7.2464
7.24642
7.24645
7.24647
7.2465
7.24653
7.24657
7.24661
7.24665
7.24669
7.24674
7.2468
7.24686
7.24692
7.24698
7.24707
7.37441
7.37428
7.3742
7.37414
7.37407
7.37402
7.37396
7.37392
7.37387
7.37383
7.3738
7.37377
7.37374
7.37371
7.37368
7.37366
7.37364
7.37362
7.37361
7.37359
7.37358
7.37357
7.37356
7.37355
7.37354
7.37354
7.37353
7.37353
7.37353
7.37352
7.37352
7.37353
7.37353
7.37353
7.37354
7.37354
7.37355
7.37356
7.37357
7.37358
7.37359
7.37361
7.37362
7.37364
7.37366
7.37368
7.37371
7.37374
7.37377
7.3738
7.37383
7.37387
7.37392
7.37396
7.37402
7.37407
7.37414
7.3742
7.37428
7.37441
7.48546
7.48529
7.4852
7.48513
7.48507
7.48501
7.48496
7.48491
7.48486
7.48482
7.48479
7.48475
7.48472
7.4847
7.48467
7.48465
7.48463
7.48461
7.48459
7.48458
7.48456
7.48455
7.48454
7.48453
7.48453
7.48452
7.48452
7.48451
7.48451
7.48451
7.48451
7.48451
7.48451
7.48452
7.48452
7.48453
7.48453
7.48454
7.48455
7.48456
7.48458
7.48459
7.48461
7.48463
7.48465
7.48467
7.4847
7.48472
7.48475
7.48479
7.48482
7.48486
7.48491
7.48496
7.48501
7.48507
7.48513
7.4852
7.48529
7.48546
7.58493
7.58475
7.58465
7.58458
7.58451
7.58445
7.5844
7.58435
7.5843
7.58426
7.58423
7.58419
7.58416
7.58414
7.58411
7.58409
7.58407
7.58405
7.58403
7.58402
7.584
7.58399
7.58398
7.58397
7.58396
7.58396
7.58395
7.58395
7.58395
7.58394
7.58394
7.58395
7.58395
7.58395
7.58396
7.58396
7.58397
7.58398
7.58399
7.584
7.58402
7.58403
7.58405
7.58407
7.58409
7.58411
7.58414
7.58416
7.58419
7.58423
7.58426
7.5843
7.58435
7.5844
7.58445
7.58451
7.58458
7.58465
7.58475
7.58493
7.67601
7.67582
7.67572
7.67564
7.67557
7.67551
7.67546
7.67541
7.67536
7.67532
7.67528
7.67525
7.67522
7.67519
7.67517
7.67514
7.67512
7.6751
7.67509
7.67507
7.67506
7.67505
7.67503
7.67503
7.67502
7.67501
7.67501
7.675
7.675
7.675
7.675
7.675
7.675
7.67501
7.67501
7.67502
7.67503
7.67503
7.67505
7.67506
7.67507
7.67509
7.6751
7.67512
7.67514
7.67517
7.67519
7.67522
7.67525
7.67528
7.67532
7.67536
7.67541
7.67546
7.67551
7.67557
7.67564
7.67572
7.67582
7.67601
7.76083
7.76064
7.76052
7.76044
7.76038
7.76032
7.76026
7.76021
7.76017
7.76013
7.76009
7.76005
7.76002
7.75999
7.75997
7.75995
7.75992
7.75991
7.75989
7.75987
7.75986
7.75985
7.75984
7.75983
7.75982
7.75981
7.75981
7.7598
7.7598
7.7598
7.7598
7.7598
7.7598
7.75981
7.75981
7.75982
7.75983
7.75984
7.75985
7.75986
7.75987
7.75989
7.75991
7.75992
7.75995
7.75997
7.75999
7.76002
7.76005
7.76009
7.76013
7.76017
7.76021
7.76026
7.76032
7.76038
7.76044
7.76052
7.76064
7.76083
7.84086
7.84066
7.84055
7.84047
7.8404
7.84034
7.84028
7.84023
7.84019
7.84015
7.84011
7.84008
7.84004
7.84002
7.83999
7.83997
7.83995
7.83993
7.83991
7.83989
7.83988
7.83987
7.83986
7.83985
7.83984
7.83983
7.83983
7.83982
7.83982
7.83982
7.83982
7.83982
7.83982
7.83983
7.83983
7.83984
7.83985
7.83986
7.83987
7.83988
7.83989
7.83991
7.83993
7.83995
7.83997
7.83999
7.84002
7.84004
7.84008
7.84011
7.84015
7.84019
7.84023
7.84028
7.84034
7.8404
7.84047
7.84055
7.84066
7.84086
7.91717
7.91697
7.91685
7.91677
7.9167
7.91664
7.91658
7.91653
7.91649
7.91644
7.91641
7.91637
7.91634
7.91631
7.91629
7.91626
7.91624
7.91622
7.9162
7.91619
7.91618
7.91616
7.91615
7.91614
7.91614
7.91613
7.91612
7.91612
7.91612
7.91612
7.91612
7.91612
7.91612
7.91612
7.91613
7.91614
7.91614
7.91615
7.91616
7.91618
7.91619
7.9162
7.91622
7.91624
7.91626
7.91629
7.91631
7.91634
7.91637
7.91641
7.91644
7.91649
7.91653
7.91658
7.91664
7.9167
7.91677
7.91685
7.91697
7.91717
7.99053
7.99033
7.99021
7.99013
7.99006
7.99
7.98994
7.98989
7.98985
7.98981
7.98977
7.98973
7.9897
7.98967
7.98965
7.98962
7.9896
7.98958
7.98957
7.98955
7.98954
7.98952
7.98951
7.9895
7.9895
7.98949
7.98949
7.98948
7.98948
7.98948
7.98948
7.98948
7.98948
7.98949
7.98949
7.9895
7.9895
7.98951
7.98952
7.98954
7.98955
7.98957
7.98958
7.9896
7.98962
7.98965
7.98967
7.9897
7.98973
7.98977
7.98981
7.98985
7.98989
7.98994
7.99
7.99006
7.99013
7.99021
7.99033
7.99053
8.06157
8.06137
8.06125
8.06117
8.0611
8.06104
8.06098
8.06093
8.06088
8.06084
8.0608
8.06077
8.06074
8.06071
8.06068
8.06066
8.06064
8.06062
8.0606
8.06059
8.06057
8.06056
8.06055
8.06054
8.06053
8.06053
8.06052
8.06052
8.06051
8.06051
8.06051
8.06051
8.06052
8.06052
8.06053
8.06053
8.06054
8.06055
8.06056
8.06057
8.06059
8.0606
8.06062
8.06064
8.06066
8.06068
8.06071
8.06074
8.06077
8.0608
8.06084
8.06088
8.06093
8.06098
8.06104
8.0611
8.06117
8.06125
8.06137
8.06157
8.13076
8.13057
8.13045
8.13036
8.13029
8.13023
8.13017
8.13012
8.13008
8.13004
8.13
8.12996
8.12993
8.1299
8.12988
8.12985
8.12983
8.12981
8.1298
8.12978
8.12977
8.12975
8.12974
8.12973
8.12973
8.12972
8.12971
8.12971
8.12971
8.12971
8.12971
8.12971
8.12971
8.12971
8.12972
8.12973
8.12973
8.12974
8.12975
8.12977
8.12978
8.1298
8.12981
8.12983
8.12985
8.12988
8.1299
8.12993
8.12996
8.13
8.13004
8.13008
8.13012
8.13017
8.13023
8.13029
8.13036
8.13045
8.13057
8.13076
8.19851
8.19832
8.1982
8.19811
8.19804
8.19798
8.19792
8.19787
8.19782
8.19778
8.19774
8.19771
8.19768
8.19765
8.19762
8.1976
8.19758
8.19756
8.19754
8.19753
8.19751
8.1975
8.19749
8.19748
8.19747
8.19746
8.19746
8.19746
8.19745
8.19745
8.19745
8.19745
8.19746
8.19746
8.19746
8.19747
8.19748
8.19749
8.1975
8.19751
8.19753
8.19754
8.19756
8.19758
8.1976
8.19762
8.19765
8.19768
8.19771
8.19774
8.19778
8.19782
8.19787
8.19792
8.19798
8.19804
8.19811
8.1982
8.19832
8.19851
8.26513
8.26494
8.26482
8.26473
8.26466
8.2646
8.26454
8.26449
8.26445
8.2644
8.26437
8.26433
8.2643
8.26427
8.26424
8.26422
8.2642
8.26418
8.26416
8.26415
8.26413
8.26412
8.26411
8.2641
8.26409
8.26409
8.26408
8.26408
8.26407
8.26407
8.26407
8.26407
8.26408
8.26408
8.26409
8.26409
8.2641
8.26411
8.26412
8.26413
8.26415
8.26416
8.26418
8.2642
8.26422
8.26424
8.26427
8.2643
8.26433
8.26437
8.2644
8.26445
8.26449
8.26454
8.2646
8.26466
8.26473
8.26482
8.26494
8.26513
8.33089
8.33071
8.33059
8.3305
8.33043
8.33037
8.33031
8.33026
8.33022
8.33017
8.33014
8.3301
8.33007
8.33004
8.33002
8.32999
8.32997
8.32995
8.32993
8.32992
8.3299
8.32989
8.32988
8.32987
8.32986
8.32986
8.32985
8.32985
8.32985
8.32984
8.32984
8.32985
8.32985
8.32985
8.32986
8.32986
8.32987
8.32988
8.32989
8.3299
8.32992
8.32993
8.32995
8.32997
8.32999
8.33002
8.33004
8.33007
8.3301
8.33014
8.33017
8.33022
8.33026
8.33031
8.33037
8.33043
8.3305
8.33059
8.33071
8.33089
8.39604
8.39587
8.39575
8.39566
8.39559
8.39552
8.39547
8.39542
8.39537
8.39533
8.39529
8.39526
8.39523
8.3952
8.39517
8.39515
8.39513
8.39511
8.39509
8.39507
8.39506
8.39505
8.39504
8.39503
8.39502
8.39501
8.39501
8.395
8.395
8.395
8.395
8.395
8.395
8.39501
8.39501
8.39502
8.39503
8.39504
8.39505
8.39506
8.39507
8.39509
8.39511
8.39513
8.39515
8.39517
8.3952
8.39523
8.39526
8.39529
8.39533
8.39537
8.39542
8.39547
8.39552
8.39559
8.39566
8.39575
8.39587
8.39604
8.46079
8.46062
8.46049
8.4604
8.46033
8.46027
8.46021
8.46016
8.46012
8.46008
8.46004
8.46
8.45997
8.45994
8.45992
8.45989
8.45987
8.45985
8.45984
8.45982
8.45981
8.45979
8.45978
8.45977
8.45977
8.45976
8.45975
8.45975
8.45975
8.45975
8.45975
8.45975
8.45975
8.45975
8.45976
8.45977
8.45977
8.45978
8.45979
8.45981
8.45982
8.45984
8.45985
8.45987
8.45989
8.45992
8.45994
8.45997
8.46
8.46004
8.46008
8.46012
8.46016
8.46021
8.46027
8.46033
8.4604
8.46049
8.46062
8.46079
8.5253
8.52513
8.52501
8.52492
8.52485
8.52479
8.52473
8.52468
8.52464
8.52459
8.52456
8.52452
8.52449
8.52446
8.52443
8.52441
8.52439
8.52437
8.52435
8.52434
8.52432
8.52431
8.5243
8.52429
8.52428
8.52428
8.52427
8.52427
8.52426
8.52426
8.52426
8.52426
8.52427
8.52427
8.52428
8.52428
8.52429
8.5243
8.52431
8.52432
8.52434
8.52435
8.52437
8.52439
8.52441
8.52443
8.52446
8.52449
8.52452
8.52456
8.52459
8.52464
8.52468
8.52473
8.52479
8.52485
8.52492
8.52501
8.52513
8.5253
8.58974
8.58958
8.58946
8.58937
8.5893
8.58923
8.58918
8.58913
8.58908
8.58904
8.589
8.58897
8.58894
8.58891
8.58888
8.58886
8.58884
8.58882
8.5888
8.58878
8.58877
8.58876
8.58875
8.58874
8.58873
8.58872
8.58872
8.58871
8.58871
8.58871
8.58871
8.58871
8.58871
8.58872
8.58872
8.58873
8.58874
8.58875
8.58876
8.58877
8.58878
8.5888
8.58882
8.58884
8.58886
8.58888
8.58891
8.58894
8.58897
8.589
8.58904
8.58908
8.58913
8.58918
8.58923
8.5893
8.58937
8.58946
8.58958
8.58974
8.65425
8.6541
8.65398
8.65389
8.65382
8.65376
8.6537
8.65365
8.65361
8.65356
8.65353
8.65349
8.65346
8.65343
8.6534
8.65338
8.65336
8.65334
8.65332
8.65331
8.65329
8.65328
8.65327
8.65326
8.65325
8.65325
8.65324
8.65324
8.65323
8.65323
8.65323
8.65323
8.65324
8.65324
8.65325
8.65325
8.65326
8.65327
8.65328
8.65329
8.65331
8.65332
8.65334
8.65336
8.65338
8.6534
8.65343
8.65346
8.65349
8.65353
8.65356
8.65361
8.65365
8.6537
8.65376
8.65382
8.65389
8.65398
8.6541
8.65425
8.71898
8.71883
8.71871
8.71862
8.71855
8.71849
8.71843
8.71838
8.71834
8.7183
8.71826
8.71822
8.71819
8.71816
8.71814
8.71811
8.71809
8.71807
8.71805
8.71804
8.71803
8.71801
8.718
8.71799
8.71798
8.71798
8.71797
8.71797
8.71797
8.71797
8.71797
8.71797
8.71797
8.71797
8.71798
8.71798
8.71799
8.718
8.71801
8.71803
8.71804
8.71805
8.71807
8.71809
8.71811
8.71814
8.71816
8.71819
8.71822
8.71826
8.7183
8.71834
8.71838
8.71843
8.71849
8.71855
8.71862
8.71871
8.71883
8.71898
8.78404
8.7839
8.78378
8.78369
8.78361
8.78355
8.7835
8.78345
8.7834
8.78336
8.78332
8.78329
8.78326
8.78323
8.7832
8.78318
8.78316
8.78314
8.78312
8.7831
8.78309
8.78308
8.78307
8.78306
8.78305
8.78304
8.78304
8.78303
8.78303
8.78303
8.78303
8.78303
8.78303
8.78304
8.78304
8.78305
8.78306
8.78307
8.78308
8.78309
8.7831
8.78312
8.78314
8.78316
8.78318
8.7832
8.78323
8.78326
8.78329
8.78332
8.78336
8.7834
8.78345
8.7835
8.78355
8.78361
8.78369
8.78378
8.7839
8.78404
8.84954
8.8494
8.84929
8.8492
8.84912
8.84906
8.84901
8.84896
8.84891
8.84887
8.84883
8.8488
8.84877
8.84874
8.84871
8.84869
8.84867
8.84865
8.84863
8.84861
8.8486
8.84859
8.84858
8.84857
8.84856
8.84855
8.84855
8.84854
8.84854
8.84854
8.84854
8.84854
8.84854
8.84855
8.84855
8.84856
8.84857
8.84858
8.84859
8.8486
8.84861
8.84863
8.84865
8.84867
8.84869
8.84871
8.84874
8.84877
8.8488
8.84883
8.84887
8.84891
8.84896
8.84901
8.84906
8.84912
8.8492
8.84929
8.8494
8.84954
8.9156
8.91546
8.91535
8.91526
8.91519
8.91512
8.91507
8.91502
8.91497
8.91493
8.9149
8.91486
8.91483
8.9148
8.91477
8.91475
8.91473
8.91471
8.91469
8.91468
8.91466
8.91465
8.91464
8.91463
8.91462
8.91462
8.91461
8.91461
8.9146
8.9146
8.9146
8.9146
8.91461
8.91461
8.91462
8.91462
8.91463
8.91464
8.91465
8.91466
8.91468
8.91469
8.91471
8.91473
8.91475
8.91477
8.9148
8.91483
8.91486
8.9149
8.91493
8.91497
8.91502
8.91507
8.91512
8.91519
8.91526
8.91535
8.91546
8.9156
8.98231
8.98218
8.98207
8.98198
8.9819
8.98184
8.98179
8.98174
8.98169
8.98165
8.98161
8.98158
8.98155
8.98152
8.98149
8.98147
8.98145
8.98143
8.98141
8.9814
8.98138
8.98137
8.98136
8.98135
8.98134
8.98133
8.98133
8.98132
8.98132
8.98132
8.98132
8.98132
8.98132
8.98133
8.98133
8.98134
8.98135
8.98136
8.98137
8.98138
8.9814
8.98141
8.98143
8.98145
8.98147
8.98149
8.98152
8.98155
8.98158
8.98161
8.98165
8.98169
8.98174
8.98179
8.98184
8.9819
8.98198
8.98207
8.98218
8.98231
9.04977
9.04965
9.04954
9.04945
9.04937
9.04931
9.04926
9.04921
9.04916
9.04912
9.04908
9.04905
9.04902
9.04899
9.04896
9.04894
9.04892
9.0489
9.04888
9.04887
9.04885
9.04884
9.04883
9.04882
9.04881
9.04881
9.0488
9.0488
9.04879
9.04879
9.04879
9.04879
9.0488
9.0488
9.04881
9.04881
9.04882
9.04883
9.04884
9.04885
9.04887
9.04888
9.0489
9.04892
9.04894
9.04896
9.04899
9.04902
9.04905
9.04908
9.04912
9.04916
9.04921
9.04926
9.04931
9.04937
9.04945
9.04954
9.04965
9.04977
9.11808
9.11796
9.11785
9.11776
9.11769
9.11763
9.11757
9.11753
9.11748
9.11744
9.1174
9.11737
9.11734
9.11731
9.11728
9.11726
9.11724
9.11722
9.1172
9.11718
9.11717
9.11716
9.11715
9.11714
9.11713
9.11712
9.11712
9.11711
9.11711
9.11711
9.11711
9.11711
9.11711
9.11712
9.11712
9.11713
9.11714
9.11715
9.11716
9.11717
9.11718
9.1172
9.11722
9.11724
9.11726
9.11728
9.11731
9.11734
9.11737
9.1174
9.11744
9.11748
9.11753
9.11757
9.11763
9.11769
9.11776
9.11785
9.11796
9.11808
9.18733
9.18721
9.1871
9.18702
9.18694
9.18688
9.18683
9.18678
9.18673
9.18669
9.18666
9.18662
9.18659
9.18656
9.18654
9.18651
9.18649
9.18647
9.18645
9.18644
9.18642
9.18641
9.1864
9.18639
9.18638
9.18638
9.18637
9.18637
9.18637
9.18636
9.18636
9.18637
9.18637
9.18637
9.18638
9.18638
9.18639
9.1864
9.18641
9.18642
9.18644
9.18645
9.18647
9.18649
9.18651
9.18654
9.18656
9.18659
9.18662
9.18666
9.18669
9.18673
9.18678
9.18683
9.18688
9.18694
9.18702
9.1871
9.18721
9.18733
9.2576
9.25749
9.25738
9.2573
9.25722
9.25716
9.25711
9.25706
9.25701
9.25697
9.25694
9.2569
9.25687
9.25684
9.25682
9.25679
9.25677
9.25675
9.25674
9.25672
9.25671
9.25669
9.25668
9.25667
9.25666
9.25666
9.25665
9.25665
9.25665
9.25665
9.25665
9.25665
9.25665
9.25665
9.25666
9.25666
9.25667
9.25668
9.25669
9.25671
9.25672
9.25674
9.25675
9.25677
9.25679
9.25682
9.25684
9.25687
9.2569
9.25694
9.25697
9.25701
9.25706
9.25711
9.25716
9.25722
9.2573
9.25738
9.25749
9.2576
9.32898
9.32888
9.32877
9.32869
9.32862
9.32855
9.3285
9.32845
9.32841
9.32837
9.32833
9.3283
9.32826
9.32824
9.32821
9.32819
9.32817
9.32815
9.32813
9.32811
9.3281
9.32809
9.32808
9.32807
9.32806
9.32805
9.32805
9.32804
9.32804
9.32804
9.32804
9.32804
9.32804
9.32805
9.32805
9.32806
9.32807
9.32808
9.32809
9.3281
9.32811
9.32813
9.32815
9.32817
9.32819
9.32821
9.32824
9.32826
9.3283
9.32833
9.32837
9.32841
9.32845
9.3285
9.32855
9.32862
9.32869
9.32877
9.32888
9.32898
9.40156
9.40147
9.40136
9.40128
9.40121
9.40115
9.40109
9.40104
9.401
9.40096
9.40092
9.40089
9.40086
9.40083
9.4008
9.40078
9.40076
9.40074
9.40072
9.4007
9.40069
9.40068
9.40067
9.40066
9.40065
9.40064
9.40064
9.40063
9.40063
9.40063
9.40063
9.40063
9.40063
9.40064
9.40064
9.40065
9.40066
9.40067
9.40068
9.40069
9.4007
9.40072
9.40074
9.40076
9.40078
9.4008
9.40083
9.40086
9.40089
9.40092
9.40096
9.401
9.40104
9.40109
9.40115
9.40121
9.40128
9.40136
9.40147
9.40156
9.47543
9.47534
9.47523
9.47515
9.47508
9.47502
9.47496
9.47492
9.47487
9.47483
9.47479
9.47476
9.47473
9.4747
9.47468
9.47465
9.47463
9.47461
9.47459
9.47458
9.47456
9.47455
9.47454
9.47453
9.47452
9.47452
9.47451
9.47451
9.47451
9.4745
9.4745
9.47451
9.47451
9.47451
9.47452
9.47452
9.47453
9.47454
9.47455
9.47456
9.47458
9.47459
9.47461
9.47463
9.47465
9.47468
9.4747
9.47473
9.47476
9.47479
9.47483
9.47487
9.47492
9.47496
9.47502
9.47508
9.47515
9.47523
9.47534
9.47543
9.55066
9.55057
9.55047
9.55039
9.55032
9.55026
9.5502
9.55016
9.55011
9.55007
9.55004
9.55
9.54997
9.54994
9.54992
9.54989
9.54987
9.54985
9.54983
9.54982
9.54981
9.54979
9.54978
9.54977
9.54976
9.54976
9.54975
9.54975
9.54975
9.54975
9.54975
9.54975
9.54975
9.54975
9.54976
9.54976
9.54977
9.54978
9.54979
9.54981
9.54982
9.54983
9.54985
9.54987
9.54989
9.54992
9.54994
9.54997
9.55
9.55004
9.55007
9.55011
9.55016
9.5502
9.55026
9.55032
9.55039
9.55047
9.55057
9.55066
9.62734
9.62726
9.62716
9.62708
9.62701
9.62695
9.62689
9.62685
9.6268
9.62676
9.62673
9.62669
9.62666
9.62663
9.62661
9.62658
9.62656
9.62654
9.62653
9.62651
9.6265
9.62648
9.62647
9.62646
9.62646
9.62645
9.62644
9.62644
9.62644
9.62644
9.62644
9.62644
9.62644
9.62644
9.62645
9.62646
9.62646
9.62647
9.62648
9.6265
9.62651
9.62653
9.62654
9.62656
9.62658
9.62661
9.62663
9.62666
9.62669
9.62673
9.62676
9.6268
9.62685
9.62689
9.62695
9.62701
9.62708
9.62716
9.62726
9.62734
9.70556
9.70548
9.70538
9.7053
9.70523
9.70517
9.70512
9.70507
9.70503
9.70499
9.70495
9.70492
9.70489
9.70486
9.70483
9.70481
9.70479
9.70477
9.70475
9.70474
9.70472
9.70471
9.7047
9.70469
9.70468
9.70468
9.70467
9.70467
9.70466
9.70466
9.70466
9.70466
9.70467
9.70467
9.70468
9.70468
9.70469
9.7047
9.70471
9.70472
9.70474
9.70475
9.70477
9.70479
9.70481
9.70483
9.70486
9.70489
9.70492
9.70495
9.70499
9.70503
9.70507
9.70512
9.70517
9.70523
9.7053
9.70538
9.70548
9.70556
9.7854
9.78532
9.78523
9.78514
9.78508
9.78502
9.78496
9.78491
9.78487
9.78483
9.7848
9.78476
9.78473
9.7847
9.78468
9.78465
9.78463
9.78461
9.7846
9.78458
9.78457
9.78455
9.78454
9.78453
9.78453
9.78452
9.78452
9.78451
9.78451
9.78451
9.78451
9.78451
9.78451
9.78452
9.78452
9.78453
9.78453
9.78454
9.78455
9.78457
9.78458
9.7846
9.78461
9.78463
9.78465
9.78468
9.7847
9.78473
9.78476
9.7848
9.78483
9.78487
9.78491
9.78496
9.78502
9.78508
9.78514
9.78523
9.78532
9.7854
9.86693
9.86686
9.86677
9.86669
9.86662
9.86656
9.86651
9.86646
9.86642
9.86638
9.86634
9.86631
9.86628
9.86625
9.86622
9.8662
9.86618
9.86616
9.86614
9.86613
9.86611
9.8661
9.86609
9.86608
9.86607
9.86607
9.86606
9.86606
9.86606
9.86605
9.86605
9.86606
9.86606
9.86606
9.86607
9.86607
9.86608
9.86609
9.8661
9.86611
9.86613
9.86614
9.86616
9.86618
9.8662
9.86622
9.86625
9.86628
9.86631
9.86634
9.86638
9.86642
9.86646
9.86651
9.86656
9.86662
9.86669
9.86677
9.86686
9.86693
9.95026
9.95019
9.9501
9.95002
9.94995
9.94989
9.94984
9.9498
9.94975
9.94971
9.94968
9.94964
9.94961
9.94959
9.94956
9.94954
9.94952
9.9495
9.94948
9.94946
9.94945
9.94944
9.94943
9.94942
9.94941
9.9494
9.9494
9.94939
9.94939
9.94939
9.94939
9.94939
9.94939
9.9494
9.9494
9.94941
9.94942
9.94943
9.94944
9.94945
9.94946
9.94948
9.9495
9.94952
9.94954
9.94956
9.94959
9.94961
9.94964
9.94968
9.94971
9.94975
9.9498
9.94984
9.94989
9.94995
9.95002
9.9501
9.95019
9.95026
10.0355
10.0354
10.0353
10.0352
10.0352
10.0351
10.0351
10.035
10.035
10.0349
10.0349
10.0349
10.0348
10.0348
10.0348
10.0347
10.0347
10.0347
10.0347
10.0347
10.0347
10.0346
10.0346
10.0346
10.0346
10.0346
10.0346
10.0346
10.0346
10.0346
10.0346
10.0346
10.0346
10.0346
10.0346
10.0346
10.0346
10.0346
10.0346
10.0347
10.0347
10.0347
10.0347
10.0347
10.0347
10.0348
10.0348
10.0348
10.0349
10.0349
10.0349
10.035
10.035
10.0351
10.0351
10.0352
10.0352
10.0353
10.0354
10.0355
10.1226
10.1226
10.1225
10.1224
10.1223
10.1223
10.1222
10.1222
10.1221
10.1221
10.1221
10.122
10.122
10.122
10.1219
10.1219
10.1219
10.1219
10.1219
10.1218
10.1218
10.1218
10.1218
10.1218
10.1218
10.1218
10.1218
10.1218
10.1218
10.1218
10.1218
10.1218
10.1218
10.1218
10.1218
10.1218
10.1218
10.1218
10.1218
10.1218
10.1218
10.1219
10.1219
10.1219
10.1219
10.1219
10.122
10.122
10.122
10.1221
10.1221
10.1221
10.1222
10.1222
10.1223
10.1223
10.1224
10.1225
10.1226
10.1226
10.2118
10.2118
10.2117
10.2116
10.2115
10.2115
10.2114
10.2114
10.2113
10.2113
10.2113
10.2112
10.2112
10.2112
10.2112
10.2111
10.2111
10.2111
10.2111
10.2111
10.211
10.211
10.211
10.211
10.211
10.211
10.211
10.211
10.211
10.211
10.211
10.211
10.211
10.211
10.211
10.211
10.211
10.211
10.211
10.211
10.2111
10.2111
10.2111
10.2111
10.2111
10.2112
10.2112
10.2112
10.2112
10.2113
10.2113
10.2113
10.2114
10.2114
10.2115
10.2115
10.2116
10.2117
10.2118
10.2118
10.3032
10.3031
10.303
10.303
10.3029
10.3028
10.3028
10.3027
10.3027
10.3027
10.3026
10.3026
10.3026
10.3025
10.3025
10.3025
10.3025
10.3025
10.3024
10.3024
10.3024
10.3024
10.3024
10.3024
10.3024
10.3024
10.3024
10.3024
10.3023
10.3023
10.3023
10.3023
10.3024
10.3024
10.3024
10.3024
10.3024
10.3024
10.3024
10.3024
10.3024
10.3024
10.3025
10.3025
10.3025
10.3025
10.3025
10.3026
10.3026
10.3026
10.3027
10.3027
10.3027
10.3028
10.3028
10.3029
10.303
10.303
10.3031
10.3032
10.3968
10.3967
10.3966
10.3966
10.3965
10.3964
10.3964
10.3963
10.3963
10.3963
10.3962
10.3962
10.3962
10.3961
10.3961
10.3961
10.3961
10.396
10.396
10.396
10.396
10.396
10.396
10.396
10.396
10.3959
10.3959
10.3959
10.3959
10.3959
10.3959
10.3959
10.3959
10.3959
10.3959
10.396
10.396
10.396
10.396
10.396
10.396
10.396
10.396
10.3961
10.3961
10.3961
10.3961
10.3962
10.3962
10.3962
10.3963
10.3963
10.3963
10.3964
10.3964
10.3965
10.3966
10.3966
10.3967
10.3968
10.4927
10.4926
10.4925
10.4925
10.4924
10.4923
10.4923
10.4922
10.4922
10.4922
10.4921
10.4921
10.4921
10.492
10.492
10.492
10.492
10.492
10.4919
10.4919
10.4919
10.4919
10.4919
10.4919
10.4919
10.4919
10.4919
10.4919
10.4918
10.4918
10.4918
10.4918
10.4919
10.4919
10.4919
10.4919
10.4919
10.4919
10.4919
10.4919
10.4919
10.4919
10.492
10.492
10.492
10.492
10.492
10.4921
10.4921
10.4921
10.4922
10.4922
10.4922
10.4923
10.4923
10.4924
10.4925
10.4925
10.4926
10.4927
10.591
10.5909
10.5908
10.5908
10.5907
10.5907
10.5906
10.5906
10.5905
10.5905
10.5905
10.5904
10.5904
10.5904
10.5903
10.5903
10.5903
10.5903
10.5903
10.5902
10.5902
10.5902
10.5902
10.5902
10.5902
10.5902
10.5902
10.5902
10.5902
10.5902
10.5902
10.5902
10.5902
10.5902
10.5902
10.5902
10.5902
10.5902
10.5902
10.5902
10.5902
10.5903
10.5903
10.5903
10.5903
10.5903
10.5904
10.5904
10.5904
10.5905
10.5905
10.5905
10.5906
10.5906
10.5907
10.5907
10.5908
10.5908
10.5909
10.591
10.6918
10.6917
10.6917
10.6916
10.6916
10.6915
10.6914
10.6914
10.6914
10.6913
10.6913
10.6913
10.6912
10.6912
10.6912
10.6912
10.6911
10.6911
10.6911
10.6911
10.6911
10.6911
10.691
10.691
10.691
10.691
10.691
10.691
10.691
10.691
10.691
10.691
10.691
10.691
10.691
10.691
10.691
10.691
10.6911
10.6911
10.6911
10.6911
10.6911
10.6911
10.6912
10.6912
10.6912
10.6912
10.6913
10.6913
10.6913
10.6914
10.6914
10.6914
10.6915
10.6916
10.6916
10.6917
10.6917
10.6918
10.7952
10.7952
10.7951
10.7951
10.795
10.7949
10.7949
10.7948
10.7948
10.7948
10.7947
10.7947
10.7947
10.7946
10.7946
10.7946
10.7946
10.7946
10.7945
10.7945
10.7945
10.7945
10.7945
10.7945
10.7945
10.7945
10.7945
10.7945
10.7945
10.7945
10.7945
10.7945
10.7945
10.7945
10.7945
10.7945
10.7945
10.7945
10.7945
10.7945
10.7945
10.7945
10.7946
10.7946
10.7946
10.7946
10.7946
10.7947
10.7947
10.7947
10.7948
10.7948
10.7948
10.7949
10.7949
10.795
10.7951
10.7951
10.7952
10.7952
10.9014
10.9013
10.9013
10.9012
10.9011
10.9011
10.901
10.901
10.901
10.9009
10.9009
10.9009
10.9008
10.9008
10.9008
10.9008
10.9007
10.9007
10.9007
10.9007
10.9007
10.9007
10.9007
10.9006
10.9006
10.9006
10.9006
10.9006