/*--------------------------------*- C++ -*----------------------------------*\
| =========                 |                                                 |
| \\      /  F ield         | foam-extend: Open Source CFD                    |
|  \\    /   O peration     | Version:     4.0                                |
|   \\  /    A nd           | Web:         http://www.foam-extend.org         |
|    \\/     M anipulation  |                                                 |
\*---------------------------------------------------------------------------*/
FoamFile
{
    version     2.0;
    format      ascii;
    class       volScalarField;
    location    "1320";
    object      psiE;
}
// * * * * * * * * * * * * * * * * * * * * * * * * * * * * * * * * * * * * * //

dimensions      [0 0 0 0 0 0 0];

internalField   nonuniform List<scalar> 
6960
(
0.329205
0.329208
0.329211
0.329215
0.329219
0.329222
0.329226
0.329229
0.329232
0.329234
0.329237
0.329239
0.329241
0.329244
0.329245
0.329247
0.329249
0.32925
0.329251
0.329252
0.329253
0.329254
0.329255
0.329256
0.329256
0.329257
0.329257
0.329257
0.329257
0.329258
0.329258
0.329257
0.329257
0.329257
0.329257
0.329256
0.329256
0.329255
0.329254
0.329253
0.329252
0.329251
0.32925
0.329249
0.329247
0.329245
0.329244
0.329241
0.329239
0.329237
0.329234
0.329232
0.329229
0.329226
0.329222
0.329219
0.329215
0.329211
0.329208
0.329205
0.812837
0.812848
0.812862
0.812877
0.812891
0.812905
0.812919
0.812931
0.812943
0.812954
0.812964
0.812974
0.812982
0.81299
0.812997
0.813004
0.81301
0.813016
0.81302
0.813025
0.813029
0.813032
0.813035
0.813038
0.81304
0.813042
0.813043
0.813044
0.813045
0.813045
0.813045
0.813045
0.813044
0.813043
0.813042
0.81304
0.813038
0.813035
0.813032
0.813029
0.813025
0.81302
0.813016
0.81301
0.813004
0.812997
0.81299
0.812982
0.812974
0.812964
0.812954
0.812943
0.812931
0.812919
0.812905
0.812891
0.812877
0.812862
0.812848
0.812837
1.24231
1.24233
1.24236
1.24239
1.24242
1.24245
1.24247
1.2425
1.24252
1.24254
1.24256
1.24258
1.2426
1.24261
1.24263
1.24264
1.24265
1.24266
1.24267
1.24268
1.24269
1.2427
1.2427
1.24271
1.24271
1.24272
1.24272
1.24272
1.24272
1.24272
1.24272
1.24272
1.24272
1.24272
1.24272
1.24271
1.24271
1.2427
1.2427
1.24269
1.24268
1.24267
1.24266
1.24265
1.24264
1.24263
1.24261
1.2426
1.24258
1.24256
1.24254
1.24252
1.2425
1.24247
1.24245
1.24242
1.24239
1.24236
1.24233
1.24231
1.65447
1.6545
1.65455
1.65459
1.65464
1.65469
1.65473
1.65477
1.6548
1.65484
1.65487
1.6549
1.65492
1.65495
1.65497
1.65499
1.65501
1.65503
1.65504
1.65506
1.65507
1.65508
1.65509
1.6551
1.6551
1.65511
1.65511
1.65511
1.65512
1.65512
1.65512
1.65512
1.65511
1.65511
1.65511
1.6551
1.6551
1.65509
1.65508
1.65507
1.65506
1.65504
1.65503
1.65501
1.65499
1.65497
1.65495
1.65492
1.6549
1.65487
1.65484
1.6548
1.65477
1.65473
1.65469
1.65464
1.65459
1.65455
1.6545
1.65447
2.06425
2.0643
2.06436
2.06443
2.06449
2.06455
2.06461
2.06467
2.06472
2.06477
2.06481
2.06485
2.06489
2.06492
2.06495
2.06498
2.06501
2.06503
2.06505
2.06507
2.06509
2.0651
2.06512
2.06513
2.06514
2.06514
2.06515
2.06515
2.06516
2.06516
2.06516
2.06516
2.06515
2.06515
2.06514
2.06514
2.06513
2.06512
2.0651
2.06509
2.06507
2.06505
2.06503
2.06501
2.06498
2.06495
2.06492
2.06489
2.06485
2.06481
2.06477
2.06472
2.06467
2.06461
2.06455
2.06449
2.06443
2.06436
2.0643
2.06425
2.47817
2.47824
2.47832
2.4784
2.47849
2.47857
2.47865
2.47872
2.47879
2.47885
2.47891
2.47896
2.47901
2.47905
2.47909
2.47913
2.47917
2.4792
2.47922
2.47925
2.47927
2.47929
2.47931
2.47932
2.47933
2.47934
2.47935
2.47936
2.47936
2.47936
2.47936
2.47936
2.47936
2.47935
2.47934
2.47933
2.47932
2.47931
2.47929
2.47927
2.47925
2.47922
2.4792
2.47917
2.47913
2.47909
2.47905
2.47901
2.47896
2.47891
2.47885
2.47879
2.47872
2.47865
2.47857
2.47849
2.4784
2.47832
2.47824
2.47817
2.89916
2.89924
2.89934
2.89945
2.89955
2.89965
2.89975
2.89984
2.89992
2.9
2.90007
2.90014
2.9002
2.90026
2.90031
2.90035
2.9004
2.90043
2.90047
2.9005
2.90053
2.90055
2.90057
2.90059
2.9006
2.90061
2.90062
2.90063
2.90064
2.90064
2.90064
2.90064
2.90063
2.90062
2.90061
2.9006
2.90059
2.90057
2.90055
2.90053
2.9005
2.90047
2.90043
2.9004
2.90035
2.90031
2.90026
2.9002
2.90014
2.90007
2.9
2.89992
2.89984
2.89975
2.89965
2.89955
2.89945
2.89934
2.89924
2.89916
3.32853
3.32863
3.32875
3.32887
3.329
3.32912
3.32924
3.32934
3.32944
3.32954
3.32962
3.3297
3.32978
3.32984
3.32991
3.32996
3.33001
3.33006
3.3301
3.33013
3.33017
3.3302
3.33022
3.33024
3.33026
3.33027
3.33028
3.33029
3.3303
3.3303
3.3303
3.3303
3.33029
3.33028
3.33027
3.33026
3.33024
3.33022
3.3302
3.33017
3.33013
3.3301
3.33006
3.33001
3.32996
3.32991
3.32984
3.32978
3.3297
3.32962
3.32954
3.32944
3.32934
3.32924
3.32912
3.329
3.32887
3.32875
3.32863
3.32853
3.76688
3.76698
3.76713
3.76728
3.76742
3.76757
3.7677
3.76783
3.76794
3.76805
3.76815
3.76825
3.76833
3.76841
3.76848
3.76855
3.76861
3.76866
3.76871
3.76875
3.76879
3.76882
3.76885
3.76887
3.76889
3.76891
3.76893
3.76894
3.76894
3.76895
3.76895
3.76894
3.76894
3.76893
3.76891
3.76889
3.76887
3.76885
3.76882
3.76879
3.76875
3.76871
3.76866
3.76861
3.76855
3.76848
3.76841
3.76833
3.76825
3.76815
3.76805
3.76794
3.76783
3.7677
3.76757
3.76742
3.76728
3.76713
3.76698
3.76688
4.21446
4.21458
4.21475
4.21492
4.21509
4.21525
4.21541
4.21555
4.21568
4.21581
4.21593
4.21603
4.21613
4.21622
4.2163
4.21638
4.21645
4.21651
4.21656
4.21661
4.21665
4.21669
4.21672
4.21675
4.21678
4.2168
4.21681
4.21682
4.21683
4.21683
4.21683
4.21683
4.21682
4.21681
4.2168
4.21678
4.21675
4.21672
4.21669
4.21665
4.21661
4.21656
4.21651
4.21645
4.21638
4.2163
4.21622
4.21613
4.21603
4.21593
4.21581
4.21568
4.21555
4.21541
4.21525
4.21509
4.21492
4.21475
4.21458
4.21446
4.6714
4.67154
4.67173
4.67192
4.67211
4.6723
4.67247
4.67263
4.67279
4.67293
4.67306
4.67318
4.67329
4.67339
4.67349
4.67357
4.67365
4.67371
4.67378
4.67383
4.67388
4.67392
4.67396
4.67399
4.67402
4.67404
4.67406
4.67407
4.67408
4.67409
4.67409
4.67408
4.67407
4.67406
4.67404
4.67402
4.67399
4.67396
4.67392
4.67388
4.67383
4.67378
4.67371
4.67365
4.67357
4.67349
4.67339
4.67329
4.67318
4.67306
4.67293
4.67279
4.67263
4.67247
4.6723
4.67211
4.67192
4.67173
4.67154
4.6714
5.13775
5.1379
5.13811
5.13832
5.13854
5.13874
5.13894
5.13912
5.13929
5.13945
5.13959
5.13973
5.13985
5.13996
5.14007
5.14016
5.14025
5.14032
5.14039
5.14046
5.14051
5.14056
5.1406
5.14063
5.14066
5.14069
5.14071
5.14072
5.14073
5.14074
5.14074
5.14073
5.14072
5.14071
5.14069
5.14066
5.14063
5.1406
5.14056
5.14051
5.14046
5.14039
5.14032
5.14025
5.14016
5.14007
5.13996
5.13985
5.13973
5.13959
5.13945
5.13929
5.13912
5.13894
5.13874
5.13854
5.13832
5.13811
5.1379
5.13775
5.61348
5.61365
5.61388
5.61412
5.61436
5.61458
5.6148
5.615
5.61519
5.61536
5.61552
5.61567
5.61581
5.61593
5.61605
5.61615
5.61625
5.61633
5.61641
5.61648
5.61654
5.61659
5.61663
5.61667
5.61671
5.61673
5.61676
5.61677
5.61678
5.61679
5.61679
5.61678
5.61677
5.61676
5.61673
5.61671
5.61667
5.61663
5.61659
5.61654
5.61648
5.61641
5.61633
5.61625
5.61615
5.61605
5.61593
5.61581
5.61567
5.61552
5.61536
5.61519
5.615
5.6148
5.61458
5.61436
5.61412
5.61388
5.61365
5.61348
6.09858
6.09877
6.09902
6.09928
6.09954
6.09978
6.10002
6.10024
6.10044
6.10064
6.10081
6.10098
6.10113
6.10126
6.10139
6.1015
6.10161
6.1017
6.10178
6.10186
6.10192
6.10198
6.10203
6.10207
6.10211
6.10214
6.10216
6.10218
6.10219
6.1022
6.1022
6.10219
6.10218
6.10216
6.10214
6.10211
6.10207
6.10203
6.10198
6.10192
6.10186
6.10178
6.1017
6.10161
6.1015
6.10139
6.10126
6.10113
6.10098
6.10081
6.10064
6.10044
6.10024
6.10002
6.09978
6.09954
6.09928
6.09902
6.09877
6.09858
6.59297
6.59317
6.59344
6.59372
6.59401
6.59428
6.59453
6.59477
6.59499
6.5952
6.59539
6.59557
6.59573
6.59588
6.59602
6.59614
6.59626
6.59636
6.59645
6.59653
6.5966
6.59666
6.59672
6.59677
6.59681
6.59684
6.59686
6.59688
6.59689
6.5969
6.5969
6.59689
6.59688
6.59686
6.59684
6.59681
6.59677
6.59672
6.59666
6.5966
6.59653
6.59645
6.59636
6.59626
6.59614
6.59602
6.59588
6.59573
6.59557
6.59539
6.5952
6.59499
6.59477
6.59453
6.59428
6.59401
6.59372
6.59344
6.59317
6.59297
7.09655
7.09677
7.09706
7.09736
7.09767
7.09796
7.09824
7.09849
7.09874
7.09896
7.09917
7.09936
7.09954
7.0997
7.09984
7.09998
7.1001
7.10021
7.10031
7.10039
7.10047
7.10054
7.1006
7.10065
7.10069
7.10073
7.10076
7.10078
7.10079
7.1008
7.1008
7.10079
7.10078
7.10076
7.10073
7.10069
7.10065
7.1006
7.10054
7.10047
7.10039
7.10031
7.10021
7.1001
7.09998
7.09984
7.0997
7.09954
7.09936
7.09917
7.09896
7.09874
7.09849
7.09824
7.09796
7.09767
7.09736
7.09706
7.09677
7.09655
7.60918
7.60942
7.60973
7.61006
7.61039
7.6107
7.611
7.61128
7.61154
7.61178
7.612
7.61221
7.6124
7.61257
7.61273
7.61287
7.613
7.61312
7.61323
7.61332
7.6134
7.61348
7.61354
7.6136
7.61364
7.61368
7.61371
7.61373
7.61374
7.61375
7.61375
7.61374
7.61373
7.61371
7.61368
7.61364
7.6136
7.61354
7.61348
7.6134
7.61332
7.61323
7.61312
7.613
7.61287
7.61273
7.61257
7.6124
7.61221
7.612
7.61178
7.61154
7.61128
7.611
7.6107
7.61039
7.61006
7.60973
7.60942
7.60918
8.13071
8.13097
8.1313
8.13165
8.132
8.13234
8.13265
8.13295
8.13323
8.13349
8.13372
8.13394
8.13415
8.13433
8.1345
8.13466
8.1348
8.13492
8.13503
8.13513
8.13522
8.1353
8.13537
8.13543
8.13548
8.13552
8.13555
8.13557
8.13559
8.1356
8.1356
8.13559
8.13557
8.13555
8.13552
8.13548
8.13543
8.13537
8.1353
8.13522
8.13513
8.13503
8.13492
8.1348
8.13466
8.1345
8.13433
8.13415
8.13394
8.13372
8.13349
8.13323
8.13295
8.13265
8.13234
8.132
8.13165
8.1313
8.13097
8.13071
8.66092
8.66119
8.66154
8.66192
8.66229
8.66265
8.66298
8.6633
8.6636
8.66387
8.66412
8.66436
8.66457
8.66477
8.66495
8.66511
8.66526
8.6654
8.66552
8.66562
8.66572
8.6658
8.66588
8.66594
8.66599
8.66603
8.66607
8.66609
8.66611
8.66612
8.66612
8.66611
8.66609
8.66607
8.66603
8.66599
8.66594
8.66588
8.6658
8.66572
8.66562
8.66552
8.6654
8.66526
8.66511
8.66495
8.66477
8.66457
8.66436
8.66412
8.66387
8.6636
8.6633
8.66298
8.66265
8.66229
8.66192
8.66154
8.66119
8.66092
9.19954
9.19983
9.2002
9.2006
9.201
9.20137
9.20173
9.20207
9.20238
9.20267
9.20294
9.20319
9.20342
9.20363
9.20382
9.20399
9.20415
9.20429
9.20442
9.20453
9.20463
9.20472
9.2048
9.20486
9.20492
9.20496
9.205
9.20503
9.20504
9.20505
9.20505
9.20504
9.20503
9.205
9.20496
9.20492
9.20486
9.2048
9.20472
9.20463
9.20453
9.20442
9.20429
9.20415
9.20399
9.20382
9.20363
9.20342
9.20319
9.20294
9.20267
9.20238
9.20207
9.20173
9.20137
9.201
9.2006
9.2002
9.19983
9.19954
9.74627
9.74657
9.74697
9.74739
9.74781
9.74821
9.74858
9.74894
9.74927
9.74958
9.74986
9.75012
9.75036
9.75058
9.75079
9.75097
9.75114
9.75129
9.75142
9.75154
9.75165
9.75174
9.75182
9.75189
9.75195
9.752
9.75203
9.75206
9.75208
9.75209
9.75209
9.75208
9.75206
9.75203
9.752
9.75195
9.75189
9.75182
9.75174
9.75165
9.75154
9.75142
9.75129
9.75114
9.75097
9.75079
9.75058
9.75036
9.75012
9.74986
9.74958
9.74927
9.74894
9.74858
9.74821
9.74781
9.74739
9.74697
9.74657
9.74627
10.3007
10.3011
10.3015
10.3019
10.3024
10.3028
10.3032
10.3035
10.3039
10.3042
10.3045
10.3048
10.305
10.3053
10.3055
10.3057
10.3059
10.306
10.3062
10.3063
10.3064
10.3065
10.3066
10.3067
10.3067
10.3068
10.3068
10.3068
10.3069
10.3069
10.3069
10.3069
10.3068
10.3068
10.3068
10.3067
10.3067
10.3066
10.3065
10.3064
10.3063
10.3062
10.306
10.3059
10.3057
10.3055
10.3053
10.305
10.3048
10.3045
10.3042
10.3039
10.3035
10.3032
10.3028
10.3024
10.3019
10.3015
10.3011
10.3007
10.8625
10.8628
10.8633
10.8637
10.8642
10.8646
10.8651
10.8654
10.8658
10.8662
10.8665
10.8668
10.867
10.8673
10.8675
10.8677
10.8679
10.868
10.8682
10.8683
10.8684
10.8685
10.8686
10.8687
10.8688
10.8688
10.8689
10.8689
10.8689
10.8689
10.8689
10.8689
10.8689
10.8689
10.8688
10.8688
10.8687
10.8686
10.8685
10.8684
10.8683
10.8682
10.868
10.8679
10.8677
10.8675
10.8673
10.867
10.8668
10.8665
10.8662
10.8658
10.8654
10.8651
10.8646
10.8642
10.8637
10.8633
10.8628
10.8625
11.4311
11.4314
11.4319
11.4324
11.4328
11.4333
11.4337
11.4341
11.4345
11.4349
11.4352
11.4355
11.4358
11.436
11.4363
11.4365
11.4367
11.4368
11.437
11.4371
11.4373
11.4374
11.4375
11.4375
11.4376
11.4377
11.4377
11.4377
11.4378
11.4378
11.4378
11.4378
11.4377
11.4377
11.4377
11.4376
11.4375
11.4375
11.4374
11.4373
11.4371
11.437
11.4368
11.4367
11.4365
11.4363
11.436
11.4358
11.4355
11.4352
11.4349
11.4345
11.4341
11.4337
11.4333
11.4328
11.4324
11.4319
11.4314
11.4311
12.0058
12.0062
12.0067
12.0072
12.0077
12.0081
12.0086
12.009
12.0094
12.0098
12.0101
12.0104
12.0107
12.011
12.0112
12.0115
12.0117
12.0118
12.012
12.0121
12.0123
12.0124
12.0125
12.0126
12.0126
12.0127
12.0127
12.0128
12.0128
12.0128
12.0128
12.0128
12.0128
12.0127
12.0127
12.0126
12.0126
12.0125
12.0124
12.0123
12.0121
12.012
12.0118
12.0117
12.0115
12.0112
12.011
12.0107
12.0104
12.0101
12.0098
12.0094
12.009
12.0086
12.0081
12.0077
12.0072
12.0067
12.0062
12.0058
12.5861
12.5865
12.587
12.5875
12.588
12.5885
12.589
12.5894
12.5898
12.5902
12.5906
12.5909
12.5912
12.5915
12.5917
12.5919
12.5922
12.5923
12.5925
12.5927
12.5928
12.5929
12.593
12.5931
12.5932
12.5932
12.5933
12.5933
12.5933
12.5933
12.5933
12.5933
12.5933
12.5933
12.5932
12.5932
12.5931
12.593
12.5929
12.5928
12.5927
12.5925
12.5923
12.5922
12.5919
12.5917
12.5915
12.5912
12.5909
12.5906
12.5902
12.5898
12.5894
12.589
12.5885
12.588
12.5875
12.587
12.5865
12.5861
13.1711
13.1715
13.172
13.1725
13.1731
13.1736
13.1741
13.1745
13.1749
13.1753
13.1757
13.176
13.1763
13.1766
13.1769
13.1771
13.1773
13.1775
13.1777
13.1779
13.178
13.1781
13.1782
13.1783
13.1784
13.1785
13.1785
13.1785
13.1786
13.1786
13.1786
13.1786
13.1785
13.1785
13.1785
13.1784
13.1783
13.1782
13.1781
13.178
13.1779
13.1777
13.1775
13.1773
13.1771
13.1769
13.1766
13.1763
13.176
13.1757
13.1753
13.1749
13.1745
13.1741
13.1736
13.1731
13.1725
13.172
13.1715
13.1711
13.7599
13.7603
13.7608
13.7613
13.7619
13.7624
13.7629
13.7634
13.7638
13.7642
13.7646
13.765
13.7653
13.7656
13.7659
13.7661
13.7663
13.7665
13.7667
13.7669
13.767
13.7671
13.7672
13.7673
13.7674
13.7675
13.7675
13.7676
13.7676
13.7676
13.7676
13.7676
13.7676
13.7675
13.7675
13.7674
13.7673
13.7672
13.7671
13.767
13.7669
13.7667
13.7665
13.7663
13.7661
13.7659
13.7656
13.7653
13.765
13.7646
13.7642
13.7638
13.7634
13.7629
13.7624
13.7619
13.7613
13.7608
13.7603
13.7599
14.3514
14.3518
14.3523
14.3529
14.3535
14.354
14.3545
14.355
14.3555
14.3559
14.3563
14.3566
14.357
14.3573
14.3576
14.3578
14.358
14.3582
14.3584
14.3586
14.3587
14.3589
14.359
14.3591
14.3592
14.3592
14.3593
14.3593
14.3593
14.3593
14.3593
14.3593
14.3593
14.3593
14.3592
14.3592
14.3591
14.359
14.3589
14.3587
14.3586
14.3584
14.3582
14.358
14.3578
14.3576
14.3573
14.357
14.3566
14.3563
14.3559
14.3555
14.355
14.3545
14.354
14.3535
14.3529
14.3523
14.3518
14.3514
14.9444
14.9449
14.9454
14.946
14.9466
14.9471
14.9477
14.9482
14.9486
14.9491
14.9495
14.9498
14.9502
14.9505
14.9508
14.951
14.9512
14.9515
14.9517
14.9518
14.952
14.9521
14.9522
14.9523
14.9524
14.9525
14.9525
14.9526
14.9526
14.9526
14.9526
14.9526
14.9526
14.9525
14.9525
14.9524
14.9523
14.9522
14.9521
14.952
14.9518
14.9517
14.9515
14.9512
14.951
14.9508
14.9505
14.9502
14.9498
14.9495
14.9491
14.9486
14.9482
14.9477
14.9471
14.9466
14.946
14.9454
14.9449
14.9444
15.5376
15.5381
15.5386
15.5392
15.5398
15.5404
15.5409
15.5414
15.5419
15.5423
15.5427
15.5431
15.5435
15.5438
15.5441
15.5443
15.5446
15.5448
15.545
15.5452
15.5453
15.5454
15.5456
15.5457
15.5458
15.5458
15.5459
15.5459
15.5459
15.546
15.546
15.5459
15.5459
15.5459
15.5458
15.5458
15.5457
15.5456
15.5454
15.5453
15.5452
15.545
15.5448
15.5446
15.5443
15.5441
15.5438
15.5435
15.5431
15.5427
15.5423
15.5419
15.5414
15.5409
15.5404
15.5398
15.5392
15.5386
15.5381
15.5376
16.1293
16.1298
16.1303
16.131
16.1316
16.1321
16.1327
16.1332
16.1337
16.1341
16.1345
16.1349
16.1353
16.1356
16.1359
16.1362
16.1364
16.1366
16.1368
16.137
16.1372
16.1373
16.1374
16.1375
16.1376
16.1377
16.1377
16.1378
16.1378
16.1378
16.1378
16.1378
16.1378
16.1377
16.1377
16.1376
16.1375
16.1374
16.1373
16.1372
16.137
16.1368
16.1366
16.1364
16.1362
16.1359
16.1356
16.1353
16.1349
16.1345
16.1341
16.1337
16.1332
16.1327
16.1321
16.1316
16.131
16.1303
16.1298
16.1293
16.7177
16.7181
16.7187
16.7194
16.72
16.7205
16.7211
16.7216
16.7221
16.7226
16.723
16.7234
16.7237
16.724
16.7243
16.7246
16.7249
16.7251
16.7253
16.7255
16.7256
16.7258
16.7259
16.726
16.7261
16.7261
16.7262
16.7262
16.7263
16.7263
16.7263
16.7263
16.7262
16.7262
16.7261
16.7261
16.726
16.7259
16.7258
16.7256
16.7255
16.7253
16.7251
16.7249
16.7246
16.7243
16.724
16.7237
16.7234
16.723
16.7226
16.7221
16.7216
16.7211
16.7205
16.72
16.7194
16.7187
16.7181
16.7177
17.3006
17.301
17.3016
17.3022
17.3029
17.3034
17.304
17.3045
17.305
17.3055
17.3059
17.3063
17.3066
17.307
17.3073
17.3075
17.3078
17.308
17.3082
17.3084
17.3086
17.3087
17.3088
17.3089
17.309
17.3091
17.3091
17.3092
17.3092
17.3092
17.3092
17.3092
17.3092
17.3091
17.3091
17.309
17.3089
17.3088
17.3087
17.3086
17.3084
17.3082
17.308
17.3078
17.3075
17.3073
17.307
17.3066
17.3063
17.3059
17.3055
17.305
17.3045
17.304
17.3034
17.3029
17.3022
17.3016
17.301
17.3006
17.8755
17.8759
17.8765
17.8771
17.8777
17.8783
17.8789
17.8794
17.8799
17.8804
17.8808
17.8812
17.8815
17.8819
17.8822
17.8824
17.8827
17.8829
17.8831
17.8833
17.8834
17.8836
17.8837
17.8838
17.8839
17.884
17.884
17.8841
17.8841
17.8841
17.8841
17.8841
17.8841
17.884
17.884
17.8839
17.8838
17.8837
17.8836
17.8834
17.8833
17.8831
17.8829
17.8827
17.8824
17.8822
17.8819
17.8815
17.8812
17.8808
17.8804
17.8799
17.8794
17.8789
17.8783
17.8777
17.8771
17.8765
17.8759
17.8755
18.4394
18.4399
18.4405
18.4411
18.4417
18.4423
18.4428
18.4434
18.4438
18.4443
18.4447
18.4451
18.4455
18.4458
18.4461
18.4464
18.4466
18.4468
18.447
18.4472
18.4474
18.4475
18.4476
18.4477
18.4478
18.4479
18.4479
18.448
18.448
18.448
18.448
18.448
18.448
18.4479
18.4479
18.4478
18.4477
18.4476
18.4475
18.4474
18.4472
18.447
18.4468
18.4466
18.4464
18.4461
18.4458
18.4455
18.4451
18.4447
18.4443
18.4438
18.4434
18.4428
18.4423
18.4417
18.4411
18.4405
18.4399
18.4394
18.989
18.9895
18.9901
18.9907
18.9913
18.9918
18.9924
18.9929
18.9934
18.9938
18.9942
18.9946
18.995
18.9953
18.9956
18.9958
18.9961
18.9963
18.9965
18.9967
18.9968
18.997
18.9971
18.9972
18.9973
18.9974
18.9974
18.9975
18.9975
18.9975
18.9975
18.9975
18.9975
18.9974
18.9974
18.9973
18.9972
18.9971
18.997
18.9968
18.9967
18.9965
18.9963
18.9961
18.9958
18.9956
18.9953
18.995
18.9946
18.9942
18.9938
18.9934
18.9929
18.9924
18.9918
18.9913
18.9907
18.9901
18.9895
18.989
19.5202
19.5206
19.5212
19.5218
19.5224
19.5229
19.5235
19.524
19.5244
19.5249
19.5253
19.5256
19.526
19.5263
19.5266
19.5268
19.5271
19.5273
19.5275
19.5277
19.5278
19.528
19.5281
19.5282
19.5283
19.5283
19.5284
19.5284
19.5285
19.5285
19.5285
19.5285
19.5284
19.5284
19.5283
19.5283
19.5282
19.5281
19.528
19.5278
19.5277
19.5275
19.5273
19.5271
19.5268
19.5266
19.5263
19.526
19.5256
19.5253
19.5249
19.5244
19.524
19.5235
19.5229
19.5224
19.5218
19.5212
19.5206
19.5202
20.0281
20.0285
20.0291
20.0296
20.0302
20.0307
20.0312
20.0317
20.0322
20.0326
20.033
20.0333
20.0337
20.034
20.0342
20.0345
20.0347
20.0349
20.0351
20.0353
20.0354
20.0356
20.0357
20.0358
20.0359
20.0359
20.036
20.036
20.0361
20.0361
20.0361
20.0361
20.036
20.036
20.0359
20.0359
20.0358
20.0357
20.0356
20.0354
20.0353
20.0351
20.0349
20.0347
20.0345
20.0342
20.034
20.0337
20.0333
20.033
20.0326
20.0322
20.0317
20.0312
20.0307
20.0302
20.0296
20.0291
20.0285
20.0281
20.5071
20.5075
20.508
20.5085
20.5091
20.5096
20.51
20.5105
20.5109
20.5113
20.5117
20.512
20.5123
20.5126
20.5129
20.5131
20.5133
20.5135
20.5137
20.5139
20.514
20.5141
20.5142
20.5143
20.5144
20.5145
20.5145
20.5146
20.5146
20.5146
20.5146
20.5146
20.5146
20.5145
20.5145
20.5144
20.5143
20.5142
20.5141
20.514
20.5139
20.5137
20.5135
20.5133
20.5131
20.5129
20.5126
20.5123
20.512
20.5117
20.5113
20.5109
20.5105
20.51
20.5096
20.5091
20.5085
20.508
20.5075
20.5071
20.9506
20.951
20.9515
20.952
20.9525
20.9529
20.9534
20.9538
20.9542
20.9545
20.9549
20.9552
20.9555
20.9557
20.956
20.9562
20.9564
20.9566
20.9568
20.9569
20.957
20.9572
20.9573
20.9573
20.9574
20.9575
20.9575
20.9576
20.9576
20.9576
20.9576
20.9576
20.9576
20.9575
20.9575
20.9574
20.9573
20.9573
20.9572
20.957
20.9569
20.9568
20.9566
20.9564
20.9562
20.956
20.9557
20.9555
20.9552
20.9549
20.9545
20.9542
20.9538
20.9534
20.9529
20.9525
20.952
20.9515
20.951
20.9506
21.3519
21.3522
21.3526
21.353
21.3535
21.3539
21.3543
21.3546
21.355
21.3553
21.3556
21.3559
21.3562
21.3564
21.3566
21.3568
21.357
21.3572
21.3573
21.3575
21.3576
21.3577
21.3578
21.3579
21.3579
21.358
21.358
21.3581
21.3581
21.3581
21.3581
21.3581
21.3581
21.358
21.358
21.3579
21.3579
21.3578
21.3577
21.3576
21.3575
21.3573
21.3572
21.357
21.3568
21.3566
21.3564
21.3562
21.3559
21.3556
21.3553
21.355
21.3546
21.3543
21.3539
21.3535
21.353
21.3526
21.3522
21.3519
21.7044
21.7047
21.705
21.7054
21.7058
21.7061
21.7065
21.7068
21.7071
21.7074
21.7076
21.7079
21.7081
21.7083
21.7085
21.7087
21.7089
21.709
21.7091
21.7093
21.7094
21.7094
21.7095
21.7096
21.7097
21.7097
21.7097
21.7098
21.7098
21.7098
21.7098
21.7098
21.7098
21.7097
21.7097
21.7097
21.7096
21.7095
21.7094
21.7094
21.7093
21.7091
21.709
21.7089
21.7087
21.7085
21.7083
21.7081
21.7079
21.7076
21.7074
21.7071
21.7068
21.7065
21.7061
21.7058
21.7054
21.705
21.7047
21.7044
22.0042
22.0045
22.0047
22.005
22.0053
22.0056
22.0059
22.0062
22.0064
22.0067
22.0069
22.0071
22.0073
22.0075
22.0076
22.0078
22.0079
22.008
22.0082
22.0083
22.0083
22.0084
22.0085
22.0086
22.0086
22.0086
22.0087
22.0087
22.0087
22.0087
22.0087
22.0087
22.0087
22.0087
22.0086
22.0086
22.0086
22.0085
22.0084
22.0083
22.0083
22.0082
22.008
22.0079
22.0078
22.0076
22.0075
22.0073
22.0071
22.0069
22.0067
22.0064
22.0062
22.0059
22.0056
22.0053
22.005
22.0047
22.0045
22.0042
22.2512
22.2514
22.2516
22.2518
22.2521
22.2523
22.2525
22.2527
22.2529
22.2531
22.2533
22.2535
22.2536
22.2538
22.2539
22.254
22.2542
22.2543
22.2544
22.2544
22.2545
22.2546
22.2546
22.2547
22.2547
22.2548
22.2548
22.2548
22.2548
22.2548
22.2548
22.2548
22.2548
22.2548
22.2548
22.2547
22.2547
22.2546
22.2546
22.2545
22.2544
22.2544
22.2543
22.2542
22.254
22.2539
22.2538
22.2536
22.2535
22.2533
22.2531
22.2529
22.2527
22.2525
22.2523
22.2521
22.2518
22.2516
22.2514
22.2512
22.4498
22.45
22.4501
22.4503
22.4505
22.4507
22.4508
22.451
22.4511
22.4513
22.4514
22.4516
22.4517
22.4518
22.4519
22.452
22.4521
22.4522
22.4523
22.4524
22.4524
22.4525
22.4525
22.4526
22.4526
22.4526
22.4527
22.4527
22.4527
22.4527
22.4527
22.4527
22.4527
22.4527
22.4526
22.4526
22.4526
22.4525
22.4525
22.4524
22.4524
22.4523
22.4522
22.4521
22.452
22.4519
22.4518
22.4517
22.4516
22.4514
22.4513
22.4511
22.451
22.4508
22.4507
22.4505
22.4503
22.4501
22.45
22.4498
22.608
22.6081
22.6082
22.6084
22.6085
22.6086
22.6088
22.6089
22.609
22.6091
22.6092
22.6094
22.6095
22.6096
22.6096
22.6097
22.6098
22.6099
22.6099
22.61
22.6101
22.6101
22.6101
22.6102
22.6102
22.6102
22.6103
22.6103
22.6103
22.6103
22.6103
22.6103
22.6103
22.6103
22.6102
22.6102
22.6102
22.6101
22.6101
22.6101
22.61
22.6099
22.6099
22.6098
22.6097
22.6096
22.6096
22.6095
22.6094
22.6092
22.6091
22.609
22.6089
22.6088
22.6086
22.6085
22.6084
22.6082
22.6081
22.608
22.735
22.7351
22.7351
22.7352
22.7353
22.7354
22.7355
22.7356
22.7357
22.7358
22.7359
22.736
22.7361
22.7362
22.7362
22.7363
22.7364
22.7364
22.7365
22.7366
22.7366
22.7366
22.7367
22.7367
22.7367
22.7368
22.7368
22.7368
22.7368
22.7368
22.7368
22.7368
22.7368
22.7368
22.7368
22.7367
22.7367
22.7367
22.7366
22.7366
22.7366
22.7365
22.7364
22.7364
22.7363
22.7362
22.7362
22.7361
22.736
22.7359
22.7358
22.7357
22.7356
22.7355
22.7354
22.7353
22.7352
22.7351
22.7351
22.735
22.8391
22.8391
22.8392
22.8392
22.8393
22.8394
22.8395
22.8396
22.8396
22.8397
22.8398
22.8399
22.8399
22.84
22.8401
22.8401
22.8402
22.8403
22.8403
22.8404
22.8404
22.8404
22.8405
22.8405
22.8405
22.8405
22.8406
22.8406
22.8406
22.8406
22.8406
22.8406
22.8406
22.8406
22.8405
22.8405
22.8405
22.8405
22.8404
22.8404
22.8404
22.8403
22.8403
22.8402
22.8401
22.8401
22.84
22.8399
22.8399
22.8398
22.8397
22.8396
22.8396
22.8395
22.8394
22.8393
22.8392
22.8392
22.8391
22.8391
22.9268
22.9268
22.9269
22.9269
22.927
22.927
22.9271
22.9272
22.9272
22.9273
22.9274
22.9274
22.9275
22.9276
22.9276
22.9277
22.9277
22.9278
22.9278
22.9279
22.9279
22.928
22.928
22.928
22.928
22.9281
22.9281
22.9281
22.9281
22.9281
22.9281
22.9281
22.9281
22.9281
22.9281
22.928
22.928
22.928
22.928
22.9279
22.9279
22.9278
22.9278
22.9277
22.9277
22.9276
22.9276
22.9275
22.9274
22.9274
22.9273
22.9272
22.9272
22.9271
22.927
22.927
22.9269
22.9269
22.9268
22.9268
23.0028
23.0028
23.0028
23.0028
23.0029
23.0029
23.003
23.0031
23.0031
23.0032
23.0032
23.0033
23.0034
23.0034
23.0035
23.0035
23.0036
23.0036
23.0037
23.0037
23.0037
23.0038
23.0038
23.0038
23.0039
23.0039
23.0039
23.0039
23.0039
23.0039
23.0039
23.0039
23.0039
23.0039
23.0039
23.0039
23.0038
23.0038
23.0038
23.0037
23.0037
23.0037
23.0036
23.0036
23.0035
23.0035
23.0034
23.0034
23.0033
23.0032
23.0032
23.0031
23.0031
23.003
23.0029
23.0029
23.0028
23.0028
23.0028
23.0028
23.07
23.07
23.07
23.0701
23.0701
23.0702
23.0702
23.0703
23.0703
23.0704
23.0704
23.0705
23.0705
23.0706
23.0706
23.0707
23.0707
23.0708
23.0708
23.0709
23.0709
23.0709
23.071
23.071
23.071
23.071
23.0711
23.0711
23.0711
23.0711
23.0711
23.0711
23.0711
23.0711
23.071
23.071
23.071
23.071
23.0709
23.0709
23.0709
23.0708
23.0708
23.0707
23.0707
23.0706
23.0706
23.0705
23.0705
23.0704
23.0704
23.0703
23.0703
23.0702
23.0702
23.0701
23.0701
23.07
23.07
23.07
23.1306
23.1306
23.1306
23.1307
23.1307
23.1307
23.1308
23.1308
23.1309
23.1309
23.131
23.131
23.1311
23.1311
23.1312
23.1312
23.1313
23.1313
23.1314
23.1314
23.1315
23.1315
23.1315
23.1315
23.1316
23.1316
23.1316
23.1316
23.1316
23.1316
23.1316
23.1316
23.1316
23.1316
23.1316
23.1316
23.1315
23.1315
23.1315
23.1315
23.1314
23.1314
23.1313
23.1313
23.1312
23.1312
23.1311
23.1311
23.131
23.131
23.1309
23.1309
23.1308
23.1308
23.1307
23.1307
23.1307
23.1306
23.1306
23.1306
23.1859
23.1859
23.186
23.186
23.186
23.186
23.1861
23.1861
23.1862
23.1862
23.1863
23.1863
23.1864
23.1864
23.1865
23.1865
23.1866
23.1866
23.1867
23.1867
23.1868
23.1868
23.1868
23.1868
23.1869
23.1869
23.1869
23.1869
23.1869
23.1869
23.1869
23.1869
23.1869
23.1869
23.1869
23.1869
23.1868
23.1868
23.1868
23.1868
23.1867
23.1867
23.1866
23.1866
23.1865
23.1865
23.1864
23.1864
23.1863
23.1863
23.1862
23.1862
23.1861
23.1861
23.186
23.186
23.186
23.186
23.1859
23.1859
23.237
23.237
23.237
23.237
23.237
23.2371
23.2371
23.2372
23.2372
23.2373
23.2373
23.2374
23.2374
23.2375
23.2375
23.2376
23.2376
23.2377
23.2377
23.2377
23.2378
23.2378
23.2378
23.2379
23.2379
23.2379
23.2379
23.2379
23.2379
23.238
23.238
23.2379
23.2379
23.2379
23.2379
23.2379
23.2379
23.2378
23.2378
23.2378
23.2377
23.2377
23.2377
23.2376
23.2376
23.2375
23.2375
23.2374
23.2374
23.2373
23.2373
23.2372
23.2372
23.2371
23.2371
23.237
23.237
23.237
23.237
23.237
23.2845
23.2845
23.2845
23.2845
23.2845
23.2846
23.2846
23.2846
23.2847
23.2847
23.2848
23.2848
23.2849
23.2849
23.285
23.2851
23.2851
23.2851
23.2852
23.2852
23.2853
23.2853
23.2853
23.2854
23.2854
23.2854
23.2854
23.2854
23.2854
23.2854
23.2854
23.2854
23.2854
23.2854
23.2854
23.2854
23.2854
23.2853
23.2853
23.2853
23.2852
23.2852
23.2851
23.2851
23.2851
23.285
23.2849
23.2849
23.2848
23.2848
23.2847
23.2847
23.2846
23.2846
23.2846
23.2845
23.2845
23.2845
23.2845
23.2845
23.3289
23.3289
23.329
23.329
23.329
23.329
23.3291
23.3291
23.3292
23.3292
23.3293
23.3293
23.3294
23.3294
23.3295
23.3295
23.3296
23.3296
23.3297
23.3297
23.3297
23.3298
23.3298
23.3298
23.3299
23.3299
23.3299
23.3299
23.3299
23.3299
23.3299
23.3299
23.3299
23.3299
23.3299
23.3299
23.3298
23.3298
23.3298
23.3297
23.3297
23.3297
23.3296
23.3296
23.3295
23.3295
23.3294
23.3294
23.3293
23.3293
23.3292
23.3292
23.3291
23.3291
23.329
23.329
23.329
23.329
23.3289
23.3289
23.3708
23.3708
23.3708
23.3709
23.3709
23.3709
23.3709
23.371
23.371
23.3711
23.3711
23.3712
23.3713
23.3713
23.3714
23.3714
23.3715
23.3715
23.3716
23.3716
23.3717
23.3717
23.3717
23.3717
23.3718
23.3718
23.3718
23.3718
23.3718
23.3718
23.3718
23.3718
23.3718
23.3718
23.3718
23.3718
23.3717
23.3717
23.3717
23.3717
23.3716
23.3716
23.3715
23.3715
23.3714
23.3714
23.3713
23.3713
23.3712
23.3711
23.3711
23.371
23.371
23.3709
23.3709
23.3709
23.3709
23.3708
23.3708
23.3708
23.4105
23.4105
23.4105
23.4105
23.4105
23.4106
23.4106
23.4106
23.4107
23.4107
23.4108
23.4109
23.4109
23.411
23.411
23.4111
23.4111
23.4112
23.4112
23.4113
23.4113
23.4114
23.4114
23.4114
23.4114
23.4115
23.4115
23.4115
23.4115
23.4115
23.4115
23.4115
23.4115
23.4115
23.4115
23.4114
23.4114
23.4114
23.4114
23.4113
23.4113
23.4112
23.4112
23.4111
23.4111
23.411
23.411
23.4109
23.4109
23.4108
23.4107
23.4107
23.4106
23.4106
23.4106
23.4105
23.4105
23.4105
23.4105
23.4105
23.4482
23.4482
23.4482
23.4482
23.4482
23.4482
23.4483
23.4483
23.4484
23.4484
23.4485
23.4486
23.4486
23.4487
23.4487
23.4488
23.4488
23.4489
23.4489
23.449
23.449
23.4491
23.4491
23.4491
23.4492
23.4492
23.4492
23.4492
23.4492
23.4492
23.4492
23.4492
23.4492
23.4492
23.4492
23.4492
23.4491
23.4491
23.4491
23.449
23.449
23.4489
23.4489
23.4488
23.4488
23.4487
23.4487
23.4486
23.4486
23.4485
23.4484
23.4484
23.4483
23.4483
23.4482
23.4482
23.4482
23.4482
23.4482
23.4482
23.4841
23.4841
23.4841
23.4841
23.4842
23.4842
23.4842
23.4843
23.4843
23.4844
23.4845
23.4845
23.4846
23.4846
23.4847
23.4848
23.4848
23.4849
23.4849
23.485
23.485
23.4851
23.4851
23.4851
23.4851
23.4852
23.4852
23.4852
23.4852
23.4852
23.4852
23.4852
23.4852
23.4852
23.4852
23.4851
23.4851
23.4851
23.4851
23.485
23.485
23.4849
23.4849
23.4848
23.4848
23.4847
23.4846
23.4846
23.4845
23.4845
23.4844
23.4843
23.4843
23.4842
23.4842
23.4842
23.4841
23.4841
23.4841
23.4841
23.5185
23.5185
23.5185
23.5185
23.5186
23.5186
23.5186
23.5187
23.5187
23.5188
23.5189
23.5189
23.519
23.5191
23.5191
23.5192
23.5192
23.5193
23.5194
23.5194
23.5195