/*--------------------------------*- C++ -*----------------------------------*\
| =========                 |                                                 |
| \\      /  F ield         | foam-extend: Open Source CFD                    |
|  \\    /   O peration     | Version:     4.0                                |
|   \\  /    A nd           | Web:         http://www.foam-extend.org         |
|    \\/     M anipulation  |                                                 |
\*---------------------------------------------------------------------------*/
FoamFile
{
    version     2.0;
    format      ascii;
    class       volScalarField;
    location    "910";
    object      cMinus;
}
// * * * * * * * * * * * * * * * * * * * * * * * * * * * * * * * * * * * * * //

dimensions      [0 0 0 0 0 0 0];

internalField   nonuniform List<scalar> 
6960
(
4.33975e-21
4.26029e-21
4.26286e-21
4.26913e-21
4.27504e-21
4.2804e-21
4.28517e-21
4.28936e-21
4.29299e-21
4.29612e-21
4.29877e-21
4.30099e-21
4.30284e-21
4.30435e-21
4.30558e-21
4.30656e-21
4.30734e-21
4.30794e-21
4.30841e-21
4.30876e-21
4.30903e-21
4.30922e-21
4.30936e-21
4.30945e-21
4.30952e-21
4.30956e-21
4.30959e-21
4.30961e-21
4.30962e-21
4.30962e-21
4.30962e-21
4.30962e-21
4.30961e-21
4.30959e-21
4.30956e-21
4.30952e-21
4.30945e-21
4.30936e-21
4.30922e-21
4.30903e-21
4.30876e-21
4.30841e-21
4.30794e-21
4.30734e-21
4.30656e-21
4.30558e-21
4.30435e-21
4.30284e-21
4.30099e-21
4.29877e-21
4.29612e-21
4.29299e-21
4.28936e-21
4.28517e-21
4.2804e-21
4.27504e-21
4.26913e-21
4.26286e-21
4.26029e-21
4.33975e-21
5.43498e-21
5.33639e-21
5.33971e-21
5.34758e-21
5.355e-21
5.36172e-21
5.3677e-21
5.37296e-21
5.37753e-21
5.38145e-21
5.38478e-21
5.38758e-21
5.38991e-21
5.39181e-21
5.39337e-21
5.39461e-21
5.3956e-21
5.39637e-21
5.39696e-21
5.39742e-21
5.39776e-21
5.39801e-21
5.39819e-21
5.39832e-21
5.39841e-21
5.39847e-21
5.39851e-21
5.39853e-21
5.39855e-21
5.39855e-21
5.39855e-21
5.39855e-21
5.39853e-21
5.39851e-21
5.39847e-21
5.39841e-21
5.39832e-21
5.39819e-21
5.39801e-21
5.39776e-21
5.39742e-21
5.39696e-21
5.39637e-21
5.3956e-21
5.39461e-21
5.39337e-21
5.39181e-21
5.38991e-21
5.38758e-21
5.38478e-21
5.38145e-21
5.37753e-21
5.37296e-21
5.3677e-21
5.36172e-21
5.355e-21
5.34758e-21
5.33971e-21
5.33639e-21
5.43498e-21
9.91371e-21
9.73558e-21
9.74181e-21
9.75616e-21
9.76969e-21
9.78193e-21
9.79284e-21
9.80242e-21
9.81075e-21
9.81791e-21
9.82398e-21
9.82909e-21
9.83333e-21
9.83682e-21
9.83965e-21
9.84192e-21
9.84372e-21
9.84513e-21
9.84622e-21
9.84706e-21
9.84768e-21
9.84814e-21
9.84848e-21
9.84871e-21
9.84888e-21
9.84899e-21
9.84906e-21
9.84911e-21
9.84913e-21
9.84915e-21
9.84915e-21
9.84913e-21
9.84911e-21
9.84906e-21
9.84899e-21
9.84888e-21
9.84871e-21
9.84848e-21
9.84814e-21
9.84768e-21
9.84706e-21
9.84622e-21
9.84513e-21
9.84372e-21
9.84192e-21
9.83965e-21
9.83682e-21
9.83333e-21
9.82909e-21
9.82398e-21
9.81791e-21
9.81075e-21
9.80242e-21
9.79284e-21
9.78193e-21
9.76969e-21
9.75616e-21
9.74181e-21
9.73558e-21
9.91371e-21
1.97676e-20
1.94154e-20
1.94281e-20
1.94567e-20
1.94836e-20
1.9508e-20
1.95298e-20
1.95489e-20
1.95654e-20
1.95797e-20
1.95918e-20
1.9602e-20
1.96104e-20
1.96173e-20
1.9623e-20
1.96275e-20
1.96311e-20
1.96339e-20
1.96361e-20
1.96377e-20
1.96389e-20
1.96399e-20
1.96405e-20
1.9641e-20
1.96413e-20
1.96415e-20
1.96417e-20
1.96418e-20
1.96418e-20
1.96418e-20
1.96418e-20
1.96418e-20
1.96418e-20
1.96417e-20
1.96415e-20
1.96413e-20
1.9641e-20
1.96405e-20
1.96399e-20
1.96389e-20
1.96377e-20
1.96361e-20
1.96339e-20
1.96311e-20
1.96275e-20
1.9623e-20
1.96173e-20
1.96104e-20
1.9602e-20
1.95918e-20
1.95797e-20
1.95654e-20
1.95489e-20
1.95298e-20
1.9508e-20
1.94836e-20
1.94567e-20
1.94281e-20
1.94154e-20
1.97676e-20
3.96406e-20
3.89403e-20
3.89662e-20
3.90236e-20
3.90776e-20
3.91265e-20
3.917e-20
3.92083e-20
3.92415e-20
3.927e-20
3.92943e-20
3.93146e-20
3.93315e-20
3.93454e-20
3.93567e-20
3.93657e-20
3.93729e-20
3.93785e-20
3.93828e-20
3.93861e-20
3.93886e-20
3.93904e-20
3.93917e-20
3.93926e-20
3.93933e-20
3.93937e-20
3.9394e-20
3.93941e-20
3.93942e-20
3.93943e-20
3.93943e-20
3.93942e-20
3.93941e-20
3.9394e-20
3.93937e-20
3.93933e-20
3.93926e-20
3.93917e-20
3.93904e-20
3.93886e-20
3.93861e-20
3.93828e-20
3.93785e-20
3.93729e-20
3.93657e-20
3.93567e-20
3.93454e-20
3.93315e-20
3.93146e-20
3.92943e-20
3.927e-20
3.92415e-20
3.92083e-20
3.917e-20
3.91265e-20
3.90776e-20
3.90236e-20
3.89662e-20
3.89403e-20
3.96406e-20
7.89491e-20
7.75668e-20
7.76194e-20
7.77336e-20
7.78411e-20
7.79384e-20
7.80251e-20
7.81012e-20
7.81673e-20
7.82241e-20
7.82723e-20
7.83128e-20
7.83464e-20
7.8374e-20
7.83964e-20
7.84143e-20
7.84286e-20
7.84397e-20
7.84483e-20
7.84548e-20
7.84596e-20
7.84632e-20
7.84658e-20
7.84676e-20
7.84689e-20
7.84697e-20
7.84703e-20
7.84706e-20
7.84708e-20
7.84709e-20
7.84709e-20
7.84708e-20
7.84706e-20
7.84703e-20
7.84697e-20
7.84689e-20
7.84676e-20
7.84658e-20
7.84632e-20
7.84596e-20
7.84548e-20
7.84483e-20
7.84397e-20
7.84286e-20
7.84143e-20
7.83964e-20
7.8374e-20
7.83464e-20
7.83128e-20
7.82723e-20
7.82241e-20
7.81673e-20
7.81012e-20
7.80251e-20
7.79384e-20
7.78411e-20
7.77336e-20
7.76194e-20
7.75668e-20
7.89491e-20
1.56357e-19
1.53647e-19
1.53753e-19
1.53979e-19
1.54192e-19
1.54385e-19
1.54556e-19
1.54707e-19
1.54838e-19
1.5495e-19
1.55045e-19
1.55125e-19
1.55192e-19
1.55246e-19
1.55291e-19
1.55326e-19
1.55354e-19
1.55376e-19
1.55393e-19
1.55406e-19
1.55415e-19
1.55422e-19
1.55428e-19
1.55431e-19
1.55434e-19
1.55435e-19
1.55436e-19
1.55437e-19
1.55437e-19
1.55437e-19
1.55437e-19
1.55437e-19
1.55437e-19
1.55436e-19
1.55435e-19
1.55434e-19
1.55431e-19
1.55428e-19
1.55422e-19
1.55415e-19
1.55406e-19
1.55393e-19
1.55376e-19
1.55354e-19
1.55326e-19
1.55291e-19
1.55246e-19
1.55192e-19
1.55125e-19
1.55045e-19
1.5495e-19
1.54838e-19
1.54707e-19
1.54556e-19
1.54385e-19
1.54192e-19
1.53979e-19
1.53753e-19
1.53647e-19
1.56357e-19
3.08704e-19
3.0341e-19
3.03624e-19
3.04071e-19
3.04491e-19
3.0487e-19
3.05209e-19
3.05506e-19
3.05764e-19
3.05985e-19
3.06173e-19
3.06331e-19
3.06462e-19
3.0657e-19
3.06657e-19
3.06727e-19
3.06782e-19
3.06825e-19
3.06859e-19
3.06884e-19
3.06903e-19
3.06917e-19
3.06926e-19
3.06933e-19
3.06938e-19
3.06941e-19
3.06944e-19
3.06945e-19
3.06945e-19
3.06946e-19
3.06946e-19
3.06945e-19
3.06945e-19
3.06944e-19
3.06941e-19
3.06938e-19
3.06933e-19
3.06926e-19
3.06917e-19
3.06903e-19
3.06884e-19
3.06859e-19
3.06825e-19
3.06782e-19
3.06727e-19
3.06657e-19
3.0657e-19
3.06462e-19
3.06331e-19
3.06173e-19
3.05985e-19
3.05764e-19
3.05506e-19
3.05209e-19
3.0487e-19
3.04491e-19
3.04071e-19
3.03624e-19
3.0341e-19
3.08704e-19
6.08682e-19
5.98368e-19
5.98801e-19
5.99681e-19
6.00507e-19
6.01255e-19
6.01921e-19
6.02507e-19
6.03015e-19
6.03451e-19
6.03821e-19
6.04132e-19
6.0439e-19
6.04601e-19
6.04773e-19
6.0491e-19
6.05019e-19
6.05104e-19
6.05169e-19
6.05219e-19
6.05256e-19
6.05283e-19
6.05303e-19
6.05316e-19
6.05326e-19
6.05332e-19
6.05336e-19
6.05338e-19
6.0534e-19
6.0534e-19
6.0534e-19
6.0534e-19
6.05338e-19
6.05336e-19
6.05332e-19
6.05326e-19
6.05316e-19
6.05303e-19
6.05283e-19
6.05256e-19
6.05219e-19
6.05169e-19
6.05104e-19
6.05019e-19
6.0491e-19
6.04773e-19
6.04601e-19
6.0439e-19
6.04132e-19
6.03821e-19
6.03451e-19
6.03015e-19
6.02507e-19
6.01921e-19
6.01255e-19
6.00507e-19
5.99681e-19
5.98801e-19
5.98368e-19
6.08682e-19
1.1999e-18
1.17984e-18
1.18071e-18
1.18245e-18
1.18407e-18
1.18555e-18
1.18686e-18
1.18801e-18
1.18901e-18
1.18987e-18
1.19059e-18
1.19121e-18
1.19171e-18
1.19213e-18
1.19247e-18
1.19274e-18
1.19295e-18
1.19312e-18
1.19325e-18
1.19334e-18
1.19342e-18
1.19347e-18
1.19351e-18
1.19353e-18
1.19355e-18
1.19356e-18
1.19357e-18
1.19358e-18
1.19358e-18
1.19358e-18
1.19358e-18
1.19358e-18
1.19358e-18
1.19357e-18
1.19356e-18
1.19355e-18
1.19353e-18
1.19351e-18
1.19347e-18
1.19342e-18
1.19334e-18
1.19325e-18
1.19312e-18
1.19295e-18
1.19274e-18
1.19247e-18
1.19213e-18
1.19171e-18
1.19121e-18
1.19059e-18
1.18987e-18
1.18901e-18
1.18801e-18
1.18686e-18
1.18555e-18
1.18407e-18
1.18245e-18
1.18071e-18
1.17984e-18
1.1999e-18
2.36663e-18
2.32765e-18
2.32941e-18
2.33283e-18
2.33603e-18
2.33892e-18
2.3415e-18
2.34377e-18
2.34574e-18
2.34742e-18
2.34886e-18
2.35006e-18
2.35106e-18
2.35188e-18
2.35254e-18
2.35307e-18
2.35349e-18
2.35382e-18
2.35407e-18
2.35427e-18
2.35441e-18
2.35451e-18
2.35459e-18
2.35464e-18
2.35468e-18
2.3547e-18
2.35472e-18
2.35472e-18
2.35473e-18
2.35473e-18
2.35473e-18
2.35473e-18
2.35472e-18
2.35472e-18
2.3547e-18
2.35468e-18
2.35464e-18
2.35459e-18
2.35451e-18
2.35441e-18
2.35427e-18
2.35407e-18
2.35382e-18
2.35349e-18
2.35307e-18
2.35254e-18
2.35188e-18
2.35106e-18
2.35006e-18
2.34886e-18
2.34742e-18
2.34574e-18
2.34377e-18
2.3415e-18
2.33892e-18
2.33603e-18
2.33283e-18
2.32941e-18
2.32765e-18
2.36663e-18
4.67317e-18
4.59752e-18
4.60108e-18
4.6078e-18
4.6141e-18
4.6198e-18
4.62487e-18
4.62933e-18
4.6332e-18
4.63653e-18
4.63935e-18
4.64172e-18
4.64368e-18
4.64529e-18
4.6466e-18
4.64764e-18
4.64847e-18
4.64911e-18
4.64961e-18
4.64999e-18
4.65027e-18
4.65047e-18
4.65062e-18
4.65073e-18
4.6508e-18
4.65084e-18
4.65087e-18
4.65089e-18
4.6509e-18
4.65091e-18
4.65091e-18
4.6509e-18
4.65089e-18
4.65087e-18
4.65084e-18
4.6508e-18
4.65073e-18
4.65062e-18
4.65047e-18
4.65027e-18
4.64999e-18
4.64961e-18
4.64911e-18
4.64847e-18
4.64764e-18
4.6466e-18
4.64529e-18
4.64368e-18
4.64172e-18
4.63935e-18
4.63653e-18
4.6332e-18
4.62933e-18
4.62487e-18
4.6198e-18
4.6141e-18
4.6078e-18
4.60108e-18
4.59752e-18
4.67317e-18
9.24449e-18
9.09778e-18
9.10497e-18
9.11821e-18
9.13061e-18
9.14184e-18
9.15183e-18
9.16061e-18
9.16823e-18
9.17477e-18
9.18032e-18
9.18498e-18
9.18885e-18
9.19202e-18
9.19459e-18
9.19665e-18
9.19828e-18
9.19955e-18
9.20053e-18
9.20127e-18
9.20183e-18
9.20223e-18
9.20252e-18
9.20273e-18
9.20287e-18
9.20296e-18
9.20302e-18
9.20305e-18
9.20307e-18
9.20308e-18
9.20308e-18
9.20307e-18
9.20305e-18
9.20302e-18
9.20296e-18
9.20287e-18
9.20273e-18
9.20252e-18
9.20223e-18
9.20183e-18
9.20127e-18
9.20053e-18
9.19955e-18
9.19828e-18
9.19665e-18
9.19459e-18
9.19202e-18
9.18885e-18
9.18498e-18
9.18032e-18
9.17477e-18
9.16823e-18
9.16061e-18
9.15183e-18
9.14184e-18
9.13061e-18
9.11821e-18
9.10497e-18
9.09778e-18
9.24449e-18
1.8337e-17
1.80527e-17
1.80673e-17
1.80934e-17
1.81178e-17
1.81399e-17
1.81596e-17
1.81769e-17
1.81919e-17
1.82048e-17
1.82157e-17
1.82249e-17
1.82325e-17
1.82388e-17
1.82438e-17
1.82479e-17
1.82511e-17
1.82536e-17
1.82555e-17
1.8257e-17
1.82581e-17
1.82589e-17
1.82595e-17
1.82599e-17
1.82602e-17
1.82603e-17
1.82605e-17
1.82605e-17
1.82606e-17
1.82606e-17
1.82606e-17
1.82606e-17
1.82605e-17
1.82605e-17
1.82603e-17
1.82602e-17
1.82599e-17
1.82595e-17
1.82589e-17
1.82581e-17
1.8257e-17
1.82555e-17
1.82536e-17
1.82511e-17
1.82479e-17
1.82438e-17
1.82388e-17
1.82325e-17
1.82249e-17
1.82157e-17
1.82048e-17
1.81919e-17
1.81769e-17
1.81596e-17
1.81399e-17
1.81178e-17
1.80934e-17
1.80673e-17
1.80527e-17
1.8337e-17
3.65174e-17
3.59672e-17
3.59967e-17
3.60481e-17
3.60963e-17
3.61399e-17
3.61787e-17
3.62128e-17
3.62424e-17
3.62678e-17
3.62894e-17
3.63075e-17
3.63225e-17
3.63348e-17
3.63448e-17
3.63529e-17
3.63592e-17
3.63642e-17
3.6368e-17
3.63709e-17
3.6373e-17
3.63746e-17
3.63758e-17
3.63766e-17
3.63771e-17
3.63775e-17
3.63777e-17
3.63779e-17
3.6378e-17
3.6378e-17
3.6378e-17
3.6378e-17
3.63779e-17
3.63777e-17
3.63775e-17
3.63771e-17
3.63766e-17
3.63758e-17
3.63746e-17
3.6373e-17
3.63709e-17
3.6368e-17
3.63642e-17
3.63592e-17
3.63529e-17
3.63448e-17
3.63348e-17
3.63225e-17
3.63075e-17
3.62894e-17
3.62678e-17
3.62424e-17
3.62128e-17
3.61787e-17
3.61399e-17
3.60963e-17
3.60481e-17
3.59967e-17
3.59672e-17
3.65174e-17
7.31525e-17
7.20887e-17
7.21485e-17
7.22501e-17
7.23451e-17
7.24311e-17
7.25077e-17
7.2575e-17
7.26334e-17
7.26836e-17
7.27262e-17
7.27619e-17
7.27916e-17
7.2816e-17
7.28358e-17
7.28517e-17
7.28642e-17
7.28741e-17
7.28817e-17
7.28874e-17
7.28917e-17
7.28949e-17
7.28972e-17
7.28988e-17
7.28999e-17
7.29007e-17
7.29012e-17
7.29015e-17
7.29017e-17
7.29017e-17
7.29017e-17
7.29017e-17
7.29015e-17
7.29012e-17
7.29007e-17
7.28999e-17
7.28988e-17
7.28972e-17
7.28949e-17
7.28917e-17
7.28874e-17
7.28817e-17
7.28741e-17
7.28642e-17
7.28517e-17
7.28358e-17
7.2816e-17
7.27916e-17
7.27619e-17
7.27262e-17
7.26836e-17
7.26334e-17
7.2575e-17
7.25077e-17
7.24311e-17
7.23451e-17
7.22501e-17
7.21485e-17
7.20887e-17
7.31525e-17
1.47832e-16
1.45778e-16
1.459e-16
1.46101e-16
1.46288e-16
1.46458e-16
1.4661e-16
1.46743e-16
1.46858e-16
1.46957e-16
1.47042e-16
1.47113e-16
1.47171e-16
1.4722e-16
1.47259e-16
1.47291e-16
1.47316e-16
1.47335e-16
1.4735e-16
1.47362e-16
1.47371e-16
1.47377e-16
1.47382e-16
1.47385e-16
1.47387e-16
1.47389e-16
1.4739e-16
1.4739e-16
1.47391e-16
1.47391e-16
1.47391e-16
1.47391e-16
1.4739e-16
1.4739e-16
1.47389e-16
1.47387e-16
1.47385e-16
1.47382e-16
1.47377e-16
1.47371e-16
1.47362e-16
1.4735e-16
1.47335e-16
1.47316e-16
1.47291e-16
1.47259e-16
1.4722e-16
1.47171e-16
1.47113e-16
1.47042e-16
1.46957e-16
1.46858e-16
1.46743e-16
1.4661e-16
1.46458e-16
1.46288e-16
1.46101e-16
1.459e-16
1.45778e-16
1.47832e-16
3.02698e-16
2.98736e-16
2.98984e-16
2.99382e-16
2.99754e-16
3.0009e-16
3.0039e-16
3.00654e-16
3.00883e-16
3.0108e-16
3.01247e-16
3.01388e-16
3.01505e-16
3.01601e-16
3.0168e-16
3.01743e-16
3.01793e-16
3.01832e-16
3.01863e-16
3.01886e-16
3.01904e-16
3.01917e-16
3.01926e-16
3.01933e-16
3.01938e-16
3.01942e-16
3.01944e-16
3.01945e-16
3.01946e-16
3.01946e-16
3.01946e-16
3.01946e-16
3.01945e-16
3.01944e-16
3.01942e-16
3.01938e-16
3.01933e-16
3.01926e-16
3.01917e-16
3.01904e-16
3.01886e-16
3.01863e-16
3.01832e-16
3.01793e-16
3.01743e-16
3.0168e-16
3.01601e-16
3.01505e-16
3.01388e-16
3.01247e-16
3.0108e-16
3.00883e-16
3.00654e-16
3.0039e-16
3.0009e-16
2.99754e-16
2.99382e-16
2.98984e-16
2.98736e-16
3.02698e-16
6.3201e-16
6.2438e-16
6.2489e-16
6.25681e-16
6.26419e-16
6.27088e-16
6.27684e-16
6.28209e-16
6.28665e-16
6.29058e-16
6.29392e-16
6.29673e-16
6.29908e-16
6.30101e-16
6.30259e-16
6.30386e-16
6.30487e-16
6.30567e-16
6.3063e-16
6.30678e-16
6.30714e-16
6.30742e-16
6.30762e-16
6.30777e-16
6.30788e-16
6.30795e-16
6.308e-16
6.30804e-16
6.30806e-16
6.30807e-16
6.30807e-16
6.30806e-16
6.30804e-16
6.308e-16
6.30795e-16
6.30788e-16
6.30777e-16
6.30762e-16
6.30742e-16
6.30714e-16
6.30678e-16
6.3063e-16
6.30567e-16
6.30487e-16
6.30386e-16
6.30259e-16
6.30101e-16
6.29908e-16
6.29673e-16
6.29392e-16
6.29058e-16
6.28665e-16
6.28209e-16
6.27684e-16
6.27088e-16
6.26419e-16
6.25681e-16
6.2489e-16
6.2438e-16
6.3201e-16
1.35773e-15
1.34307e-15
1.34412e-15
1.3457e-15
1.34718e-15
1.34852e-15
1.34971e-15
1.35076e-15
1.35167e-15
1.35246e-15
1.35314e-15
1.3537e-15
1.35418e-15
1.35457e-15
1.35489e-15
1.35515e-15
1.35536e-15
1.35553e-15
1.35566e-15
1.35576e-15
1.35584e-15
1.3559e-15
1.35594e-15
1.35598e-15
1.356e-15
1.35602e-15
1.35603e-15
1.35604e-15
1.35604e-15
1.35605e-15
1.35605e-15
1.35604e-15
1.35604e-15
1.35603e-15
1.35602e-15
1.356e-15
1.35598e-15
1.35594e-15
1.3559e-15
1.35584e-15
1.35576e-15
1.35566e-15
1.35553e-15
1.35536e-15
1.35515e-15
1.35489e-15
1.35457e-15
1.35418e-15
1.3537e-15
1.35314e-15
1.35246e-15
1.35167e-15
1.35076e-15
1.34971e-15
1.34852e-15
1.34718e-15
1.3457e-15
1.34412e-15
1.34307e-15
1.35773e-15
3.03629e-15
3.00819e-15
3.01038e-15
3.01357e-15
3.01654e-15
3.01924e-15
3.02165e-15
3.02377e-15
3.02563e-15
3.02724e-15
3.02861e-15
3.02977e-15
3.03075e-15
3.03156e-15
3.03223e-15
3.03278e-15
3.03322e-15
3.03357e-15
3.03386e-15
3.03408e-15
3.03426e-15
3.03439e-15
3.0345e-15
3.03458e-15
3.03464e-15
3.03469e-15
3.03472e-15
3.03474e-15
3.03476e-15
3.03476e-15
3.03476e-15
3.03476e-15
3.03474e-15
3.03472e-15
3.03469e-15
3.03464e-15
3.03458e-15
3.0345e-15
3.03439e-15
3.03426e-15
3.03408e-15
3.03386e-15
3.03357e-15
3.03322e-15
3.03278e-15
3.03223e-15
3.03156e-15
3.03075e-15
3.02977e-15
3.02861e-15
3.02724e-15
3.02563e-15
3.02377e-15
3.02165e-15
3.01924e-15
3.01654e-15
3.01357e-15
3.01038e-15
3.00819e-15
3.03629e-15
7.16244e-15
7.10878e-15
7.11344e-15
7.11994e-15
7.12601e-15
7.13154e-15
7.1365e-15
7.14088e-15
7.14472e-15
7.14806e-15
7.15093e-15
7.15337e-15
7.15544e-15
7.15717e-15
7.15861e-15
7.1598e-15
7.16078e-15
7.16158e-15
7.16223e-15
7.16275e-15
7.16317e-15
7.1635e-15
7.16377e-15
7.16398e-15
7.16414e-15
7.16426e-15
7.16436e-15
7.16442e-15
7.16446e-15
7.16448e-15
7.16448e-15
7.16446e-15
7.16442e-15
7.16436e-15
7.16426e-15
7.16414e-15
7.16398e-15
7.16377e-15
7.1635e-15
7.16317e-15
7.16275e-15
7.16223e-15
7.16158e-15
7.16078e-15
7.1598e-15
7.15861e-15
7.15717e-15
7.15544e-15
7.15337e-15
7.15093e-15
7.14806e-15
7.14472e-15
7.14088e-15
7.1365e-15
7.13154e-15
7.12601e-15
7.11994e-15
7.11344e-15
7.10878e-15
7.16244e-15
1.80384e-14
1.79365e-14
1.79467e-14
1.79603e-14
1.7973e-14
1.79846e-14
1.79951e-14
1.80044e-14
1.80126e-14
1.80197e-14
1.8026e-14
1.80313e-14
1.80359e-14
1.80397e-14
1.8043e-14
1.80457e-14
1.8048e-14
1.80499e-14
1.80515e-14
1.80528e-14
1.80539e-14
1.80548e-14
1.80555e-14
1.80561e-14
1.80566e-14
1.8057e-14
1.80572e-14
1.80574e-14
1.80576e-14
1.80576e-14
1.80576e-14
1.80576e-14
1.80574e-14
1.80572e-14
1.8057e-14
1.80566e-14
1.80561e-14
1.80555e-14
1.80548e-14
1.80539e-14
1.80528e-14
1.80515e-14
1.80499e-14
1.8048e-14
1.80457e-14
1.8043e-14
1.80397e-14
1.80359e-14
1.80313e-14
1.8026e-14
1.80197e-14
1.80126e-14
1.80044e-14
1.79951e-14
1.79846e-14
1.7973e-14
1.79603e-14
1.79467e-14
1.79365e-14
1.80384e-14
4.8843e-14
4.86511e-14
4.86742e-14
4.87036e-14
4.87313e-14
4.87568e-14
4.87798e-14
4.88005e-14
4.88189e-14
4.88351e-14
4.88493e-14
4.88617e-14
4.88724e-14
4.88816e-14
4.88896e-14
4.88964e-14
4.89022e-14
4.89072e-14
4.89114e-14
4.8915e-14
4.8918e-14
4.89205e-14
4.89227e-14
4.89245e-14
4.89259e-14
4.89271e-14
4.8928e-14
4.89286e-14
4.89291e-14
4.89293e-14
4.89293e-14
4.89291e-14
4.89286e-14
4.8928e-14
4.89271e-14
4.89259e-14
4.89245e-14
4.89227e-14
4.89205e-14
4.8918e-14
4.8915e-14
4.89114e-14
4.89072e-14
4.89022e-14
4.88964e-14
4.88896e-14
4.88816e-14
4.88724e-14
4.88617e-14
4.88493e-14
4.88351e-14
4.88189e-14
4.88005e-14
4.87798e-14
4.87568e-14
4.87313e-14
4.87036e-14
4.86742e-14
4.86511e-14
4.8843e-14
1.42096e-13
1.41741e-13
1.41796e-13
1.41864e-13
1.41928e-13
1.41987e-13
1.42041e-13
1.4209e-13
1.42134e-13
1.42174e-13
1.42209e-13
1.4224e-13
1.42267e-13
1.42291e-13
1.42312e-13
1.42331e-13
1.42347e-13
1.42361e-13
1.42373e-13
1.42384e-13
1.42393e-13
1.42401e-13
1.42408e-13
1.42413e-13
1.42418e-13
1.42422e-13
1.42425e-13
1.42427e-13
1.42429e-13
1.4243e-13
1.4243e-13
1.42429e-13
1.42427e-13
1.42425e-13
1.42422e-13
1.42418e-13
1.42413e-13
1.42408e-13
1.42401e-13
1.42393e-13
1.42384e-13
1.42373e-13
1.42361e-13
1.42347e-13
1.42331e-13
1.42312e-13
1.42291e-13
1.42267e-13
1.4224e-13
1.42209e-13
1.42174e-13
1.42134e-13
1.4209e-13
1.42041e-13
1.41987e-13
1.41928e-13
1.41864e-13
1.41796e-13
1.41741e-13
1.42096e-13
4.40725e-13
4.40084e-13
4.4023e-13
4.40397e-13
4.40557e-13
4.40707e-13
4.40845e-13
4.40972e-13
4.41088e-13
4.41193e-13
4.41288e-13
4.41373e-13
4.4145e-13
4.41518e-13
4.4158e-13
4.41634e-13
4.41683e-13
4.41726e-13
4.41765e-13
4.41799e-13
4.41829e-13
4.41855e-13
4.41877e-13
4.41897e-13
4.41913e-13
4.41926e-13
4.41937e-13
4.41945e-13
4.4195e-13
4.41952e-13
4.41952e-13
4.4195e-13
4.41945e-13
4.41937e-13
4.41926e-13
4.41913e-13
4.41897e-13
4.41877e-13
4.41855e-13
4.41829e-13
4.41799e-13
4.41765e-13
4.41726e-13
4.41683e-13
4.41634e-13
4.4158e-13
4.41518e-13
4.4145e-13
4.41373e-13
4.41288e-13
4.41193e-13
4.41088e-13
4.40972e-13
4.40845e-13
4.40707e-13
4.40557e-13
4.40397e-13
4.4023e-13
4.40084e-13
4.40725e-13
1.44045e-12
1.43937e-12
1.43978e-12
1.44023e-12
1.44068e-12
1.44109e-12
1.44148e-12
1.44184e-12
1.44218e-12
1.44249e-12
1.44277e-12
1.44302e-12
1.44326e-12
1.44347e-12
1.44367e-12
1.44384e-12
1.444e-12
1.44414e-12
1.44427e-12
1.44439e-12
1.44449e-12
1.44458e-12
1.44466e-12
1.44473e-12
1.44479e-12
1.44483e-12
1.44487e-12
1.4449e-12
1.44492e-12
1.44493e-12
1.44493e-12
1.44492e-12
1.4449e-12
1.44487e-12
1.44483e-12
1.44479e-12
1.44473e-12
1.44466e-12
1.44458e-12
1.44449e-12
1.44439e-12
1.44427e-12
1.44414e-12
1.444e-12
1.44384e-12
1.44367e-12
1.44347e-12
1.44326e-12
1.44302e-12
1.44277e-12
1.44249e-12
1.44218e-12
1.44184e-12
1.44148e-12
1.44109e-12
1.44068e-12
1.44023e-12
1.43978e-12
1.43937e-12
1.44045e-12
4.90168e-12
4.9001e-12
4.90138e-12
4.90275e-12
4.90409e-12
4.90536e-12
4.90657e-12
4.9077e-12
4.90875e-12
4.90973e-12
4.91064e-12
4.91148e-12
4.91226e-12
4.91297e-12
4.91363e-12
4.91423e-12
4.91477e-12
4.91527e-12
4.91572e-12
4.91613e-12
4.91649e-12
4.91682e-12
4.9171e-12
4.91735e-12
4.91755e-12
4.91773e-12
4.91786e-12
4.91797e-12
4.91803e-12
4.91807e-12
4.91807e-12
4.91803e-12
4.91797e-12
4.91786e-12
4.91773e-12
4.91755e-12
4.91735e-12
4.9171e-12
4.91682e-12
4.91649e-12
4.91613e-12
4.91572e-12
4.91527e-12
4.91477e-12
4.91423e-12
4.91363e-12
4.91297e-12
4.91226e-12
4.91148e-12
4.91064e-12
4.90973e-12
4.90875e-12
4.9077e-12
4.90657e-12
4.90536e-12
4.90409e-12
4.90275e-12
4.90138e-12
4.9001e-12
4.90168e-12
1.7186e-11
1.71848e-11
1.71891e-11
1.71935e-11
1.71979e-11
1.72022e-11
1.72062e-11
1.721e-11
1.72136e-11
1.72169e-11
1.722e-11
1.7223e-11
1.72257e-11
1.72282e-11
1.72305e-11
1.72326e-11
1.72346e-11
1.72364e-11
1.7238e-11
1.72395e-11
1.72408e-11
1.7242e-11
1.7243e-11
1.72439e-11
1.72447e-11
1.72454e-11
1.72459e-11
1.72462e-11
1.72465e-11
1.72466e-11
1.72466e-11
1.72465e-11
1.72462e-11
1.72459e-11
1.72454e-11
1.72447e-11
1.72439e-11
1.7243e-11
1.7242e-11
1.72408e-11
1.72395e-11
1.7238e-11
1.72364e-11
1.72346e-11
1.72326e-11
1.72305e-11
1.72282e-11
1.72257e-11
1.7223e-11
1.722e-11
1.72169e-11
1.72136e-11
1.721e-11
1.72062e-11
1.72022e-11
1.71979e-11
1.71935e-11
1.71891e-11
1.71848e-11
1.7186e-11
6.15687e-11
6.15731e-11
6.15881e-11
6.16036e-11
6.1619e-11
6.16338e-11
6.1648e-11
6.16614e-11
6.16741e-11
6.16861e-11
6.16973e-11
6.17078e-11
6.17176e-11
6.17267e-11
6.17352e-11
6.1743e-11
6.17502e-11
6.17568e-11
6.17629e-11
6.17684e-11
6.17733e-11
6.17777e-11
6.17816e-11
6.1785e-11
6.17879e-11
6.17902e-11
6.17921e-11
6.17936e-11
6.17945e-11
6.1795e-11
6.1795e-11
6.17945e-11
6.17936e-11
6.17921e-11
6.17902e-11
6.17879e-11
6.1785e-11
6.17816e-11
6.17777e-11
6.17733e-11
6.17684e-11
6.17629e-11
6.17568e-11
6.17502e-11
6.1743e-11
6.17352e-11
6.17267e-11
6.17176e-11
6.17078e-11
6.16973e-11
6.16861e-11
6.16741e-11
6.16614e-11
6.1648e-11
6.16338e-11
6.1619e-11
6.16036e-11
6.15881e-11
6.15731e-11
6.15687e-11
2.23872e-10
2.23906e-10
2.2396e-10
2.24016e-10
2.24072e-10
2.24126e-10
2.24178e-10
2.24227e-10
2.24273e-10
2.24317e-10
2.24359e-10
2.24398e-10
2.24434e-10
2.24468e-10
2.24499e-10
2.24528e-10
2.24555e-10
2.2458e-10
2.24603e-10
2.24623e-10
2.24642e-10
2.24658e-10
2.24673e-10
2.24686e-10
2.24696e-10
2.24705e-10
2.24713e-10
2.24718e-10
2.24721e-10
2.24723e-10
2.24723e-10
2.24721e-10
2.24718e-10
2.24713e-10
2.24705e-10
2.24696e-10
2.24686e-10
2.24673e-10
2.24658e-10
2.24642e-10
2.24623e-10
2.24603e-10
2.2458e-10
2.24555e-10
2.24528e-10
2.24499e-10
2.24468e-10
2.24434e-10
2.24398e-10
2.24359e-10
2.24317e-10
2.24273e-10
2.24227e-10
2.24178e-10
2.24126e-10
2.24072e-10
2.24016e-10
2.2396e-10
2.23906e-10
2.23872e-10
8.21584e-10
8.21741e-10
8.21942e-10
8.2215e-10
8.22357e-10
8.22557e-10
8.22749e-10
8.22932e-10
8.23106e-10
8.23269e-10
8.23424e-10
8.23569e-10
8.23705e-10
8.23832e-10
8.2395e-10
8.2406e-10
8.24161e-10
8.24254e-10
8.24339e-10
8.24417e-10
8.24487e-10
8.24549e-10
8.24604e-10
8.24652e-10
8.24693e-10
8.24727e-10
8.24754e-10
8.24775e-10
8.24788e-10
8.24795e-10
8.24795e-10
8.24788e-10
8.24775e-10
8.24754e-10
8.24727e-10
8.24693e-10
8.24652e-10
8.24604e-10
8.24549e-10
8.24487e-10
8.24417e-10
8.24339e-10
8.24254e-10
8.24161e-10
8.2406e-10
8.2395e-10
8.23832e-10
8.23705e-10
8.23569e-10
8.23424e-10
8.23269e-10
8.23106e-10
8.22932e-10
8.22749e-10
8.22557e-10
8.22357e-10
8.2215e-10
8.21942e-10
8.21741e-10
8.21584e-10
3.0274e-09
3.02805e-09
3.0288e-09
3.02958e-09
3.03035e-09
3.0311e-09
3.03182e-09
3.03251e-09
3.03316e-09
3.03377e-09
3.03435e-09
3.0349e-09
3.03541e-09
3.03588e-09
3.03633e-09
3.03674e-09
3.03712e-09
3.03747e-09
3.0378e-09
3.03809e-09
3.03835e-09
3.03859e-09
3.03879e-09
3.03898e-09
3.03913e-09
3.03926e-09
3.03936e-09
3.03944e-09
3.03949e-09
3.03951e-09
3.03951e-09
3.03949e-09
3.03944e-09
3.03936e-09
3.03926e-09
3.03913e-09
3.03898e-09
3.03879e-09
3.03859e-09
3.03835e-09
3.03809e-09
3.0378e-09
3.03747e-09
3.03712e-09
3.03674e-09
3.03633e-09
3.03588e-09
3.03541e-09
3.0349e-09
3.03435e-09
3.03377e-09
3.03316e-09
3.03251e-09
3.03182e-09
3.0311e-09
3.03035e-09
3.02958e-09
3.0288e-09
3.02805e-09
3.0274e-09
1.11435e-08
1.1146e-08
1.11488e-08
1.11517e-08
1.11546e-08
1.11574e-08
1.11601e-08
1.11627e-08
1.11651e-08
1.11674e-08
1.11696e-08
1.11716e-08
1.11735e-08
1.11753e-08
1.1177e-08
1.11785e-08
1.11799e-08
1.11812e-08
1.11824e-08
1.11835e-08
1.11845e-08
1.11854e-08
1.11862e-08
1.11869e-08
1.11875e-08
1.11879e-08
1.11883e-08
1.11886e-08
1.11888e-08
1.11889e-08
1.11889e-08
1.11888e-08
1.11886e-08
1.11883e-08
1.11879e-08
1.11875e-08
1.11869e-08
1.11862e-08
1.11854e-08
1.11845e-08
1.11835e-08
1.11824e-08
1.11812e-08
1.11799e-08
1.11785e-08
1.1177e-08
1.11753e-08
1.11735e-08
1.11716e-08
1.11696e-08
1.11674e-08
1.11651e-08
1.11627e-08
1.11601e-08
1.11574e-08
1.11546e-08
1.11517e-08
1.11488e-08
1.1146e-08
1.11435e-08
4.07511e-08
4.07607e-08
4.07711e-08
4.07819e-08
4.07926e-08
4.08029e-08
4.08129e-08
4.08224e-08
4.08314e-08
4.08399e-08
4.08479e-08
4.08555e-08
4.08625e-08
4.08692e-08
4.08753e-08
4.08811e-08
4.08863e-08
4.08912e-08
4.08957e-08
4.08997e-08
4.09034e-08
4.09067e-08
4.09096e-08
4.09121e-08
4.09142e-08
4.0916e-08
4.09174e-08
4.09185e-08
4.09192e-08
4.09195e-08
4.09195e-08
4.09192e-08
4.09185e-08
4.09174e-08
4.0916e-08
4.09142e-08
4.09121e-08
4.09096e-08
4.09067e-08
4.09034e-08
4.08997e-08
4.08957e-08
4.08912e-08
4.08863e-08
4.08811e-08
4.08753e-08
4.08692e-08
4.08625e-08
4.08555e-08
4.08479e-08
4.08399e-08
4.08314e-08
4.08224e-08
4.08129e-08
4.08029e-08
4.07926e-08
4.07819e-08
4.07711e-08
4.07607e-08
4.07511e-08
1.47177e-07
1.47213e-07
1.47251e-07
1.4729e-07
1.47329e-07
1.47366e-07
1.47403e-07
1.47437e-07
1.4747e-07
1.47501e-07
1.4753e-07
1.47558e-07
1.47583e-07
1.47607e-07
1.4763e-07
1.47651e-07
1.4767e-07
1.47688e-07
1.47704e-07
1.47719e-07
1.47732e-07
1.47744e-07
1.47754e-07
1.47763e-07
1.47771e-07
1.47778e-07
1.47783e-07
1.47787e-07
1.47789e-07
1.47791e-07
1.47791e-07
1.47789e-07
1.47787e-07
1.47783e-07
1.47778e-07
1.47771e-07
1.47763e-07
1.47754e-07
1.47744e-07
1.47732e-07
1.47719e-07
1.47704e-07
1.47688e-07
1.4767e-07
1.47651e-07
1.4763e-07
1.47607e-07
1.47583e-07
1.47558e-07
1.4753e-07
1.47501e-07
1.4747e-07
1.47437e-07
1.47403e-07
1.47366e-07
1.47329e-07
1.4729e-07
1.47251e-07
1.47213e-07
1.47177e-07
5.21486e-07
5.21612e-07
5.21747e-07
5.21887e-07
5.22024e-07
5.22158e-07
5.22287e-07
5.22409e-07
5.22525e-07
5.22635e-07
5.22739e-07
5.22836e-07
5.22928e-07
5.23013e-07
5.23093e-07
5.23166e-07
5.23235e-07
5.23298e-07
5.23355e-07
5.23407e-07
5.23455e-07
5.23497e-07
5.23534e-07
5.23567e-07
5.23594e-07
5.23617e-07
5.23636e-07
5.23649e-07
5.23658e-07
5.23663e-07
5.23663e-07
5.23658e-07
5.23649e-07
5.23636e-07
5.23617e-07
5.23594e-07
5.23567e-07
5.23534e-07
5.23497e-07
5.23455e-07
5.23407e-07
5.23355e-07
5.23298e-07
5.23235e-07
5.23166e-07
5.23093e-07
5.23013e-07
5.22928e-07
5.22836e-07
5.22739e-07
5.22635e-07
5.22525e-07
5.22409e-07
5.22287e-07
5.22158e-07
5.22024e-07
5.21887e-07
5.21747e-07
5.21612e-07
5.21486e-07
1.79932e-06
1.79976e-06
1.80022e-06
1.8007e-06
1.80117e-06
1.80163e-06
1.80207e-06
1.80249e-06
1.80289e-06
1.80327e-06
1.80362e-06
1.80396e-06
1.80427e-06
1.80456e-06
1.80484e-06
1.80509e-06
1.80532e-06
1.80554e-06
1.80574e-06
1.80592e-06
1.80608e-06
1.80622e-06
1.80635e-06
1.80646e-06
1.80656e-06
1.80663e-06
1.8067e-06
1.80674e-06
1.80678e-06
1.80679e-06
1.80679e-06
1.80678e-06
1.80674e-06
1.8067e-06
1.80663e-06
1.80656e-06
1.80646e-06
1.80635e-06
1.80622e-06
1.80608e-06
1.80592e-06
1.80574e-06
1.80554e-06
1.80532e-06
1.80509e-06
1.80484e-06
1.80456e-06
1.80427e-06
1.80396e-06
1.80362e-06
1.80327e-06
1.80289e-06
1.80249e-06
1.80207e-06
1.80163e-06
1.80117e-06
1.8007e-06
1.80022e-06
1.79976e-06
1.79932e-06
5.99512e-06
5.99656e-06
5.99809e-06
5.99967e-06
6.00122e-06
6.00273e-06
6.00418e-06
6.00556e-06
6.00687e-06
6.0081e-06
6.00927e-06
6.01037e-06
6.01139e-06
6.01235e-06
6.01325e-06
6.01408e-06
6.01485e-06
6.01556e-06
6.0162e-06
6.01679e-06
6.01732e-06
6.0178e-06
6.01822e-06
6.01858e-06
6.01889e-06
6.01915e-06
6.01935e-06
6.01951e-06
6.01961e-06
6.01966e-06
6.01966e-06
6.01961e-06
6.01951e-06
6.01935e-06
6.01915e-06
6.01889e-06
6.01858e-06
6.01822e-06
6.0178e-06
6.01732e-06
6.01679e-06
6.0162e-06
6.01556e-06
6.01485e-06
6.01408e-06
6.01325e-06
6.01235e-06
6.01139e-06
6.01037e-06
6.00927e-06
6.0081e-06
6.00687e-06
6.00556e-06
6.00418e-06
6.00273e-06
6.00122e-06
5.99967e-06
5.99809e-06
5.99656e-06
5.99512e-06
1.91078e-05
1.91123e-05
1.91171e-05
1.9122e-05
1.91269e-05
1.91315e-05
1.9136e-05
1.91403e-05
1.91444e-05
1.91482e-05
1.91519e-05
1.91553e-05
1.91585e-05
1.91615e-05
1.91642e-05
1.91668e-05
1.91692e-05
1.91714e-05
1.91734e-05
1.91752e-05
1.91769e-05
1.91784e-05
1.91797e-05
1.91808e-05
1.91818e-05
1.91826e-05
1.91832e-05
1.91837e-05
1.9184e-05
1.91842e-05
1.91842e-05
1.9184e-05
1.91837e-05
1.91832e-05
1.91826e-05
1.91818e-05
1.91808e-05
1.91797e-05
1.91784e-05
1.91769e-05
1.91752e-05
1.91734e-05
1.91714e-05
1.91692e-05
1.91668e-05
1.91642e-05
1.91615e-05
1.91585e-05
1.91553e-05
1.91519e-05
1.91482e-05
1.91444e-05
1.91403e-05
1.9136e-05
1.91315e-05
1.91269e-05
1.9122e-05
1.91171e-05
1.91123e-05
1.91078e-05
5.76429e-05
5.76561e-05
5.76701e-05
5.76844e-05
5.76985e-05
5.77121e-05
5.77252e-05
5.77377e-05
5.77495e-05
5.77607e-05
5.77712e-05
5.77811e-05
5.77904e-05
5.7799e-05
5.78071e-05
5.78146e-05
5.78215e-05
5.78279e-05
5.78337e-05
5.78391e-05
5.78438e-05
5.78481e-05
5.78519e-05
5.78552e-05
5.7858e-05
5.78603e-05
5.78622e-05
5.78636e-05
5.78645e-05
5.78649e-05
5.78649e-05
5.78645e-05
5.78636e-05
5.78622e-05
5.78603e-05
5.7858e-05
5.78552e-05
5.78519e-05
5.78481e-05
5.78438e-05
5.78391e-05
5.78337e-05
5.78279e-05
5.78215e-05
5.78146e-05
5.78071e-05
5.7799e-05
5.77904e-05
5.77811e-05
5.77712e-05