/*--------------------------------*- C++ -*----------------------------------*\
| =========                 |                                                 |
| \\      /  F ield         | foam-extend: Open Source CFD                    |
|  \\    /   O peration     | Version:     4.0                                |
|   \\  /    A nd           | Web:         http://www.foam-extend.org         |
|    \\/     M anipulation  |                                                 |
\*---------------------------------------------------------------------------*/
FoamFile
{
    version     2.0;
    format      ascii;
    class       volScalarField;
    location    "250";
    object      cPlus;
}
// * * * * * * * * * * * * * * * * * * * * * * * * * * * * * * * * * * * * * //

dimensions      [0 0 0 0 0 0 0];

internalField   nonuniform List<scalar> 
6960
(
0.248074
0.248029
0.248019
0.248018
0.248019
0.248021
0.248023
0.248024
0.248026
0.248027
0.248029
0.24803
0.248031
0.248032
0.248033
0.248034
0.248035
0.248036
0.248037
0.248037
0.248038
0.248039
0.248039
0.24804
0.24804
0.24804
0.248041
0.248041
0.248041
0.248041
0.248041
0.248041
0.248041
0.248041
0.24804
0.24804
0.24804
0.248039
0.248039
0.248038
0.248037
0.248037
0.248036
0.248035
0.248034
0.248033
0.248032
0.248031
0.24803
0.248029
0.248027
0.248026
0.248024
0.248023
0.248021
0.248019
0.248018
0.248019
0.248029
0.248074
0.0918712
0.0918723
0.0918727
0.0918735
0.0918745
0.0918754
0.0918763
0.0918771
0.0918779
0.0918786
0.0918793
0.0918799
0.0918805
0.0918811
0.0918816
0.0918821
0.0918826
0.091883
0.0918834
0.0918837
0.0918841
0.0918844
0.0918846
0.0918849
0.0918851
0.0918852
0.0918853
0.0918854
0.0918855
0.0918855
0.0918855
0.0918855
0.0918854
0.0918853
0.0918852
0.0918851
0.0918849
0.0918846
0.0918844
0.0918841
0.0918837
0.0918834
0.091883
0.0918826
0.0918821
0.0918816
0.0918811
0.0918805
0.0918799
0.0918793
0.0918786
0.0918779
0.0918771
0.0918763
0.0918754
0.0918745
0.0918735
0.0918727
0.0918723
0.0918712
0.0655172
0.0655391
0.0655441
0.0655457
0.0655465
0.0655471
0.0655476
0.0655481
0.0655485
0.0655489
0.0655493
0.0655496
0.06555
0.0655503
0.0655506
0.0655508
0.0655511
0.0655513
0.0655515
0.0655517
0.0655519
0.0655521
0.0655522
0.0655523
0.0655524
0.0655525
0.0655526
0.0655527
0.0655527
0.0655527
0.0655527
0.0655527
0.0655527
0.0655526
0.0655525
0.0655524
0.0655523
0.0655522
0.0655521
0.0655519
0.0655517
0.0655515
0.0655513
0.0655511
0.0655508
0.0655506
0.0655503
0.06555
0.0655496
0.0655493
0.0655489
0.0655485
0.0655481
0.0655476
0.0655471
0.0655465
0.0655457
0.0655441
0.0655391
0.0655172
0.0625419
0.0625723
0.0625793
0.0625812
0.062582
0.0625825
0.062583
0.0625834
0.0625837
0.062584
0.0625843
0.0625846
0.0625849
0.0625851
0.0625853
0.0625855
0.0625857
0.0625859
0.0625861
0.0625862
0.0625864
0.0625865
0.0625866
0.0625867
0.0625868
0.0625868
0.0625869
0.0625869
0.062587
0.062587
0.062587
0.062587
0.0625869
0.0625869
0.0625868
0.0625868
0.0625867
0.0625866
0.0625865
0.0625864
0.0625862
0.0625861
0.0625859
0.0625857
0.0625855
0.0625853
0.0625851
0.0625849
0.0625846
0.0625843
0.062584
0.0625837
0.0625834
0.062583
0.0625825
0.062582
0.0625812
0.0625793
0.0625723
0.0625419
0.0647914
0.064827
0.0648352
0.0648374
0.0648383
0.0648388
0.0648393
0.0648397
0.06484
0.0648404
0.0648407
0.064841
0.0648412
0.0648415
0.0648417
0.0648419
0.0648421
0.0648423
0.0648425
0.0648426
0.0648428
0.0648429
0.064843
0.0648431
0.0648432
0.0648432
0.0648433
0.0648433
0.0648434
0.0648434
0.0648434
0.0648434
0.0648433
0.0648433
0.0648432
0.0648432
0.0648431
0.064843
0.0648429
0.0648428
0.0648426
0.0648425
0.0648423
0.0648421
0.0648419
0.0648417
0.0648415
0.0648412
0.064841
0.0648407
0.0648404
0.06484
0.0648397
0.0648393
0.0648388
0.0648383
0.0648374
0.0648352
0.064827
0.0647914
0.0688318
0.0688723
0.0688816
0.0688842
0.0688852
0.0688858
0.0688864
0.0688868
0.0688872
0.0688876
0.068888
0.0688883
0.0688886
0.0688889
0.0688891
0.0688894
0.0688896
0.0688898
0.06889
0.0688902
0.0688904
0.0688905
0.0688906
0.0688907
0.0688908
0.0688909
0.068891
0.068891
0.0688911
0.0688911
0.0688911
0.0688911
0.068891
0.068891
0.0688909
0.0688908
0.0688907
0.0688906
0.0688905
0.0688904
0.0688902
0.06889
0.0688898
0.0688896
0.0688894
0.0688891
0.0688889
0.0688886
0.0688883
0.068888
0.0688876
0.0688872
0.0688868
0.0688864
0.0688858
0.0688852
0.0688842
0.0688816
0.0688723
0.0688318
0.0741901
0.0742368
0.0742475
0.0742505
0.0742517
0.0742525
0.0742531
0.0742536
0.0742541
0.0742546
0.074255
0.0742554
0.0742558
0.0742561
0.0742565
0.0742568
0.074257
0.0742573
0.0742575
0.0742577
0.0742579
0.0742581
0.0742583
0.0742584
0.0742585
0.0742586
0.0742587
0.0742588
0.0742588
0.0742588
0.0742588
0.0742588
0.0742588
0.0742587
0.0742586
0.0742585
0.0742584
0.0742583
0.0742581
0.0742579
0.0742577
0.0742575
0.0742573
0.074257
0.0742568
0.0742565
0.0742561
0.0742558
0.0742554
0.074255
0.0742546
0.0742541
0.0742536
0.0742531
0.0742525
0.0742517
0.0742505
0.0742475
0.0742368
0.0741901
0.0811244
0.0811793
0.081192
0.0811956
0.081197
0.081198
0.0811988
0.0811994
0.0812001
0.0812006
0.0812012
0.0812017
0.0812021
0.0812026
0.081203
0.0812034
0.0812037
0.081204
0.0812043
0.0812046
0.0812049
0.0812051
0.0812053
0.0812054
0.0812056
0.0812057
0.0812058
0.0812059
0.0812059
0.081206
0.081206
0.0812059
0.0812059
0.0812058
0.0812057
0.0812056
0.0812054
0.0812053
0.0812051
0.0812049
0.0812046
0.0812043
0.081204
0.0812037
0.0812034
0.081203
0.0812026
0.0812021
0.0812017
0.0812012
0.0812006
0.0812001
0.0811994
0.0811988
0.081198
0.081197
0.0811956
0.081192
0.0811793
0.0811244
0.0901886
0.0902548
0.0902702
0.0902746
0.0902764
0.0902776
0.0902786
0.0902795
0.0902803
0.090281
0.0902817
0.0902823
0.0902829
0.0902835
0.090284
0.0902844
0.0902849
0.0902853
0.0902857
0.090286
0.0902864
0.0902866
0.0902869
0.0902871
0.0902873
0.0902875
0.0902876
0.0902877
0.0902877
0.0902878
0.0902878
0.0902877
0.0902877
0.0902876
0.0902875
0.0902873
0.0902871
0.0902869
0.0902866
0.0902864
0.090286
0.0902857
0.0902853
0.0902849
0.0902844
0.090284
0.0902835
0.0902829
0.0902823
0.0902817
0.090281
0.0902803
0.0902795
0.0902786
0.0902776
0.0902764
0.0902746
0.0902702
0.0902548
0.0901886
0.102119
0.1022
0.10222
0.102225
0.102227
0.102229
0.10223
0.102231
0.102232
0.102233
0.102234
0.102235
0.102235
0.102236
0.102237
0.102237
0.102238
0.102239
0.102239
0.102239
0.10224
0.10224
0.102241
0.102241
0.102241
0.102241
0.102241
0.102242
0.102242
0.102242
0.102242
0.102242
0.102242
0.102241
0.102241
0.102241
0.102241
0.102241
0.10224
0.10224
0.102239
0.102239
0.102239
0.102238
0.102237
0.102237
0.102236
0.102235
0.102235
0.102234
0.102233
0.102232
0.102231
0.10223
0.102229
0.102227
0.102225
0.10222
0.1022
0.102119
0.1177
0.117802
0.117826
0.117832
0.117835
0.117837
0.117839
0.11784
0.117841
0.117842
0.117844
0.117845
0.117846
0.117846
0.117847
0.117848
0.117849
0.117849
0.11785
0.117851
0.117851
0.117851
0.117852
0.117852
0.117853
0.117853
0.117853
0.117853
0.117853
0.117853
0.117853
0.117853
0.117853
0.117853
0.117853
0.117853
0.117852
0.117852
0.117851
0.117851
0.117851
0.11785
0.117849
0.117849
0.117848
0.117847
0.117846
0.117846
0.117845
0.117844
0.117842
0.117841
0.11784
0.117839
0.117837
0.117835
0.117832
0.117826
0.117802
0.1177
0.137533
0.137659
0.137689
0.137697
0.137701
0.137703
0.137705
0.137707
0.137708
0.137709
0.137711
0.137712
0.137713
0.137714
0.137715
0.137716
0.137717
0.137718
0.137719
0.137719
0.13772
0.13772
0.137721
0.137721
0.137722
0.137722
0.137722
0.137722
0.137723
0.137723
0.137723
0.137723
0.137722
0.137722
0.137722
0.137722
0.137721
0.137721
0.13772
0.13772
0.137719
0.137719
0.137718
0.137717
0.137716
0.137715
0.137714
0.137713
0.137712
0.137711
0.137709
0.137708
0.137707
0.137705
0.137703
0.137701
0.137697
0.137689
0.137659
0.137533
0.161768
0.16192
0.161957
0.161967
0.161971
0.161974
0.161976
0.161978
0.16198
0.161982
0.161983
0.161985
0.161986
0.161987
0.161988
0.161989
0.16199
0.161991
0.161992
0.161993
0.161994
0.161994
0.161995
0.161995
0.161996
0.161996
0.161996
0.161997
0.161997
0.161997
0.161997
0.161997
0.161997
0.161996
0.161996
0.161996
0.161995
0.161995
0.161994
0.161994
0.161993
0.161992
0.161991
0.16199
0.161989
0.161988
0.161987
0.161986
0.161985
0.161983
0.161982
0.16198
0.161978
0.161976
0.161974
0.161971
0.161967
0.161957
0.16192
0.161768
0.189965
0.190144
0.190188
0.1902
0.190205
0.190208
0.19021
0.190212
0.190214
0.190216
0.190218
0.190219
0.190221
0.190222
0.190223
0.190225
0.190226
0.190227
0.190228
0.190228
0.190229
0.19023
0.19023
0.190231
0.190231
0.190232
0.190232
0.190232
0.190233
0.190233
0.190233
0.190233
0.190232
0.190232
0.190232
0.190231
0.190231
0.19023
0.19023
0.190229
0.190228
0.190228
0.190227
0.190226
0.190225
0.190223
0.190222
0.190221
0.190219
0.190218
0.190216
0.190214
0.190212
0.19021
0.190208
0.190205
0.1902
0.190188
0.190144
0.189965
0.2212
0.221405
0.221455
0.221469
0.221474
0.221477
0.22148
0.221482
0.221484
0.221486
0.221488
0.221489
0.221491
0.221492
0.221493
0.221495
0.221496
0.221497
0.221498
0.221499
0.221499
0.2215
0.221501
0.221501
0.221502
0.221502
0.221503
0.221503
0.221503
0.221503
0.221503
0.221503
0.221503
0.221503
0.221502
0.221502
0.221501
0.221501
0.2215
0.221499
0.221499
0.221498
0.221497
0.221496
0.221495
0.221493
0.221492
0.221491
0.221489
0.221488
0.221486
0.221484
0.221482
0.22148
0.221477
0.221474
0.221469
0.221455
0.221405
0.2212
0.254351
0.254578
0.254635
0.25465
0.254656
0.254659
0.254662
0.254664
0.254666
0.254668
0.25467
0.254671
0.254673
0.254674
0.254676
0.254677
0.254678
0.254679
0.25468
0.254681
0.254682
0.254682
0.254683
0.254683
0.254684
0.254684
0.254685
0.254685
0.254685
0.254685
0.254685
0.254685
0.254685
0.254685
0.254684
0.254684
0.254683
0.254683
0.254682
0.254682
0.254681
0.25468
0.254679
0.254678
0.254677
0.254676
0.254674
0.254673
0.254671
0.25467
0.254668
0.254666
0.254664
0.254662
0.254659
0.254656
0.25465
0.254635
0.254578
0.254351
0.28839
0.288636
0.288699
0.288716
0.288722
0.288725
0.288727
0.28873
0.288732
0.288733
0.288735
0.288737
0.288738
0.288739
0.288741
0.288742
0.288743
0.288744
0.288745
0.288746
0.288746
0.288747
0.288748
0.288748
0.288749
0.288749
0.288749
0.28875
0.28875
0.28875
0.28875
0.28875
0.28875
0.288749
0.288749
0.288749
0.288748
0.288748
0.288747
0.288746
0.288746
0.288745
0.288744
0.288743
0.288742
0.288741
0.288739
0.288738
0.288737
0.288735
0.288733
0.288732
0.28873
0.288727
0.288725
0.288722
0.288716
0.288699
0.288636
0.28839
0.322535
0.322798
0.322866
0.322884
0.32289
0.322893
0.322896
0.322898
0.3229
0.322902
0.322903
0.322905
0.322906
0.322907
0.322909
0.32291
0.322911
0.322912
0.322913
0.322913
0.322914
0.322915
0.322915
0.322916
0.322916
0.322917
0.322917
0.322917
0.322917
0.322917
0.322917
0.322917
0.322917
0.322917
0.322917
0.322916
0.322916
0.322915
0.322915
0.322914
0.322913
0.322913
0.322912
0.322911
0.32291
0.322909
0.322907
0.322906
0.322905
0.322903
0.322902
0.3229
0.322898
0.322896
0.322893
0.32289
0.322884
0.322866
0.322798
0.322535
0.35627
0.356547
0.35662
0.356639
0.356646
0.356649
0.356651
0.356653
0.356655
0.356657
0.356658
0.35666
0.356661
0.356662
0.356663
0.356664
0.356665
0.356666
0.356667
0.356668
0.356669
0.356669
0.35667
0.35667
0.356671
0.356671
0.356671
0.356671
0.356672
0.356672
0.356672
0.356672
0.356671
0.356671
0.356671
0.356671
0.35667
0.35667
0.356669
0.356669
0.356668
0.356667
0.356666
0.356665
0.356664
0.356663
0.356662
0.356661
0.35666
0.356658
0.356657
0.356655
0.356653
0.356651
0.356649
0.356646
0.356639
0.35662
0.356547
0.35627
0.389283
0.389573
0.38965
0.389671
0.389677
0.389681
0.389683
0.389685
0.389686
0.389688
0.389689
0.389691
0.389692
0.389693
0.389694
0.389695
0.389696
0.389697
0.389697
0.389698
0.389699
0.389699
0.3897
0.3897
0.389701
0.389701
0.389701
0.389701
0.389702
0.389702
0.389702
0.389702
0.389701
0.389701
0.389701
0.389701
0.3897
0.3897
0.389699
0.389699
0.389698
0.389697
0.389697
0.389696
0.389695
0.389694
0.389693
0.389692
0.389691
0.389689
0.389688
0.389686
0.389685
0.389683
0.389681
0.389677
0.389671
0.38965
0.389573
0.389283
0.421396
0.421697
0.421779
0.421801
0.421808
0.421811
0.421813
0.421815
0.421817
0.421818
0.421819
0.42182
0.421821
0.421823
0.421824
0.421824
0.421825
0.421826
0.421827
0.421827
0.421828
0.421828
0.421829
0.421829
0.42183
0.42183
0.42183
0.42183
0.421831
0.421831
0.421831
0.421831
0.42183
0.42183
0.42183
0.42183
0.421829
0.421829
0.421828
0.421828
0.421827
0.421827
0.421826
0.421825
0.421824
0.421824
0.421823
0.421821
0.42182
0.421819
0.421818
0.421817
0.421815
0.421813
0.421811
0.421808
0.421801
0.421779
0.421697
0.421396
0.452513
0.452823
0.452909
0.452933
0.45294
0.452943
0.452945
0.452947
0.452948
0.452949
0.45295
0.452952
0.452953
0.452954
0.452954
0.452955
0.452956
0.452957
0.452957
0.452958
0.452958
0.452959
0.452959
0.45296
0.45296
0.45296
0.452961
0.452961
0.452961
0.452961
0.452961
0.452961
0.452961
0.452961
0.45296
0.45296
0.45296
0.452959
0.452959
0.452958
0.452958
0.452957
0.452957
0.452956
0.452955
0.452954
0.452954
0.452953
0.452952
0.45295
0.452949
0.452948
0.452947
0.452945
0.452943
0.45294
0.452933
0.452909
0.452823
0.452513
0.482581
0.482898
0.482989
0.483013
0.483021
0.483024
0.483026
0.483027
0.483028
0.48303
0.483031
0.483032
0.483033
0.483033
0.483034
0.483035
0.483036
0.483036
0.483037
0.483038
0.483038
0.483038
0.483039
0.483039
0.48304
0.48304
0.48304
0.48304
0.48304
0.48304
0.48304
0.48304
0.48304
0.48304
0.48304
0.48304
0.483039
0.483039
0.483038
0.483038
0.483038
0.483037
0.483036
0.483036
0.483035
0.483034
0.483033
0.483033
0.483032
0.483031
0.48303
0.483028
0.483027
0.483026
0.483024
0.483021
0.483013
0.482989
0.482898
0.482581
0.511572
0.511896
0.51199
0.512016
0.512024
0.512027
0.512029
0.51203
0.512031
0.512032
0.512033
0.512034
0.512035
0.512036
0.512037
0.512037
0.512038
0.512039
0.512039
0.51204
0.51204
0.512041
0.512041
0.512041
0.512041
0.512042
0.512042
0.512042
0.512042
0.512042
0.512042
0.512042
0.512042
0.512042
0.512042
0.512041
0.512041
0.512041
0.512041
0.51204
0.51204
0.512039
0.512039
0.512038
0.512037
0.512037
0.512036
0.512035
0.512034
0.512033
0.512032
0.512031
0.51203
0.512029
0.512027
0.512024
0.512016
0.51199
0.511896
0.511572
0.539476
0.539805
0.539903
0.53993
0.539938
0.539941
0.539943
0.539944
0.539945
0.539946
0.539947
0.539948
0.539949
0.53995
0.53995
0.539951
0.539952
0.539952
0.539953
0.539953
0.539954
0.539954
0.539954
0.539954
0.539955
0.539955
0.539955
0.539955
0.539955
0.539955
0.539955
0.539955
0.539955
0.539955
0.539955
0.539955
0.539954
0.539954
0.539954
0.539954
0.539953
0.539953
0.539952
0.539952
0.539951
0.53995
0.53995
0.539949
0.539948
0.539947
0.539946
0.539945
0.539944
0.539943
0.539941
0.539938
0.53993
0.539903
0.539805
0.539476
0.566291
0.566624
0.566726
0.566754
0.566762
0.566765
0.566767
0.566768
0.566769
0.56677
0.566771
0.566772
0.566772
0.566773
0.566774
0.566774
0.566775
0.566775
0.566776
0.566776
0.566777
0.566777
0.566777
0.566777
0.566778
0.566778
0.566778
0.566778
0.566778
0.566778
0.566778
0.566778
0.566778
0.566778
0.566778
0.566778
0.566777
0.566777
0.566777
0.566777
0.566776
0.566776
0.566775
0.566775
0.566774
0.566774
0.566773
0.566772
0.566772
0.566771
0.56677
0.566769
0.566768
0.566767
0.566765
0.566762
0.566754
0.566726
0.566624
0.566291
0.592022
0.592358
0.592463
0.592492
0.592501
0.592504
0.592505
0.592507
0.592508
0.592508
0.592509
0.59251
0.59251
0.592511
0.592512
0.592512
0.592513
0.592513
0.592513
0.592514
0.592514
0.592515
0.592515
0.592515
0.592515
0.592515
0.592516
0.592516
0.592516
0.592516
0.592516
0.592516
0.592516
0.592516
0.592515
0.592515
0.592515
0.592515
0.592515
0.592514
0.592514
0.592513
0.592513
0.592513
0.592512
0.592512
0.592511
0.59251
0.59251
0.592509
0.592508
0.592508
0.592507
0.592505
0.592504
0.592501
0.592492
0.592463
0.592358
0.592022
0.616678
0.617016
0.617123
0.617154
0.617163
0.617166
0.617168
0.617169
0.61717
0.61717
0.617171
0.617172
0.617172
0.617173
0.617173
0.617174
0.617174
0.617175
0.617175
0.617175
0.617176
0.617176
0.617176
0.617176
0.617177
0.617177
0.617177
0.617177
0.617177
0.617177
0.617177
0.617177
0.617177
0.617177
0.617177
0.617177
0.617176
0.617176
0.617176
0.617176
0.617175
0.617175
0.617175
0.617174
0.617174
0.617173
0.617173
0.617172
0.617172
0.617171
0.61717
0.61717
0.617169
0.617168
0.617166
0.617163
0.617154
0.617123
0.617016
0.616678
0.640271
0.64061
0.64072
0.640752
0.640762
0.640765
0.640766
0.640767
0.640768
0.640769
0.640769
0.64077
0.64077
0.640771
0.640771
0.640772
0.640772
0.640773
0.640773
0.640773
0.640773
0.640774
0.640774
0.640774
0.640774
0.640774
0.640775
0.640775
0.640775
0.640775
0.640775
0.640775
0.640775
0.640775
0.640774
0.640774
0.640774
0.640774
0.640774
0.640773
0.640773
0.640773
0.640773
0.640772
0.640772
0.640771
0.640771
0.64077
0.64077
0.640769
0.640769
0.640768
0.640767
0.640766
0.640765
0.640762
0.640752
0.64072
0.64061
0.640271
0.662818
0.663156
0.663269
0.663302
0.663312
0.663315
0.663317
0.663317
0.663318
0.663319
0.663319
0.66332
0.66332
0.663321
0.663321
0.663322
0.663322
0.663322
0.663323
0.663323
0.663323
0.663323
0.663324
0.663324
0.663324
0.663324
0.663324
0.663324
0.663324
0.663324
0.663324
0.663324
0.663324
0.663324
0.663324
0.663324
0.663324
0.663324
0.663323
0.663323
0.663323
0.663323
0.663322
0.663322
0.663322
0.663321
0.663321
0.66332
0.66332
0.663319
0.663319
0.663318
0.663317
0.663317
0.663315
0.663312
0.663302
0.663269
0.663156
0.662818
0.684334
0.684672
0.684787
0.684821
0.684831
0.684835
0.684836
0.684837
0.684838
0.684838
0.684839
0.684839
0.68484
0.68484
0.68484
0.684841
0.684841
0.684841
0.684842
0.684842
0.684842
0.684842
0.684842
0.684843
0.684843
0.684843
0.684843
0.684843
0.684843
0.684843
0.684843
0.684843
0.684843
0.684843
0.684843
0.684843
0.684843
0.684842
0.684842
0.684842
0.684842
0.684842
0.684841
0.684841
0.684841
0.68484
0.68484
0.68484
0.684839
0.684839
0.684838
0.684838
0.684837
0.684836
0.684835
0.684831
0.684821
0.684787
0.684672
0.684334
0.704841
0.705176
0.705293
0.705329
0.705339
0.705343
0.705344
0.705345
0.705345
0.705346
0.705346
0.705347
0.705347
0.705348
0.705348
0.705348
0.705348
0.705349
0.705349
0.705349
0.705349
0.70535
0.70535
0.70535
0.70535
0.70535
0.70535
0.70535
0.70535
0.70535
0.70535
0.70535
0.70535
0.70535
0.70535
0.70535
0.70535
0.70535
0.70535
0.705349
0.705349
0.705349
0.705349
0.705348
0.705348
0.705348
0.705348
0.705347
0.705347
0.705346
0.705346
0.705345
0.705345
0.705344
0.705343
0.705339
0.705329
0.705293
0.705176
0.704841
0.724358
0.72469
0.724808
0.724846
0.724857
0.72486
0.724861
0.724862
0.724863
0.724863
0.724864
0.724864
0.724864
0.724865
0.724865
0.724865
0.724865
0.724866
0.724866
0.724866
0.724866
0.724866
0.724867
0.724867
0.724867
0.724867
0.724867
0.724867
0.724867
0.724867
0.724867
0.724867
0.724867
0.724867
0.724867
0.724867
0.724867
0.724867
0.724866
0.724866
0.724866
0.724866
0.724866
0.724865
0.724865
0.724865
0.724865
0.724864
0.724864
0.724864
0.724863
0.724863
0.724862
0.724861
0.72486
0.724857
0.724846
0.724808
0.72469
0.724358
0.742908
0.743236
0.743356
0.743394
0.743405
0.743409
0.74341
0.743411
0.743412
0.743412
0.743412
0.743413
0.743413
0.743413
0.743414
0.743414
0.743414
0.743414
0.743414
0.743415
0.743415
0.743415
0.743415
0.743415
0.743415
0.743415
0.743415
0.743416
0.743416
0.743416
0.743416
0.743416
0.743416
0.743415
0.743415
0.743415
0.743415
0.743415
0.743415
0.743415
0.743415
0.743414
0.743414
0.743414
0.743414
0.743414
0.743413
0.743413
0.743413
0.743412
0.743412
0.743412
0.743411
0.74341
0.743409
0.743405
0.743394
0.743356
0.743236
0.742908
0.760514
0.760838
0.760958
0.760997
0.761009
0.761013
0.761014
0.761015
0.761016
0.761016
0.761016
0.761017
0.761017
0.761017
0.761017
0.761018
0.761018
0.761018
0.761018
0.761018
0.761019
0.761019
0.761019
0.761019
0.761019
0.761019
0.761019
0.761019
0.761019
0.761019
0.761019
0.761019
0.761019
0.761019
0.761019
0.761019
0.761019
0.761019
0.761019
0.761019
0.761018
0.761018
0.761018
0.761018
0.761018
0.761017
0.761017
0.761017
0.761017
0.761016
0.761016
0.761016
0.761015
0.761014
0.761013
0.761009
0.760997
0.760958
0.760838
0.760514
0.777201
0.77752
0.77764
0.777681
0.777693
0.777697
0.777698
0.777699
0.777699
0.7777
0.7777
0.7777
0.777701
0.777701
0.777701
0.777701
0.777701
0.777702
0.777702
0.777702
0.777702
0.777702
0.777702
0.777702
0.777702
0.777703
0.777703
0.777703
0.777703
0.777703
0.777703
0.777703
0.777703
0.777703
0.777703
0.777702
0.777702
0.777702
0.777702
0.777702
0.777702
0.777702
0.777702
0.777701
0.777701
0.777701
0.777701
0.777701
0.7777
0.7777
0.7777
0.777699
0.777699
0.777698
0.777697
0.777693
0.777681
0.77764
0.77752
0.777201
0.792994
0.793307
0.793428
0.793469
0.793482
0.793486
0.793488
0.793488
0.793489
0.793489
0.793489
0.793489
0.79349
0.79349
0.79349
0.79349
0.79349
0.793491
0.793491
0.793491
0.793491
0.793491
0.793491
0.793491
0.793491
0.793491
0.793491
0.793491
0.793491
0.793492
0.793492
0.793491
0.793491
0.793491
0.793491
0.793491
0.793491
0.793491
0.793491
0.793491
0.793491
0.793491
0.793491
0.79349
0.79349
0.79349
0.79349
0.79349
0.793489
0.793489
0.793489
0.793489
0.793488
0.793488
0.793486
0.793482
0.793469
0.793428
0.793307
0.792994
0.80792
0.808226
0.808348
0.80839
0.808403
0.808407
0.808409
0.808409
0.80841
0.80841
0.80841
0.80841
0.808411
0.808411
0.808411
0.808411
0.808411
0.808411
0.808412
0.808412
0.808412
0.808412
0.808412
0.808412
0.808412
0.808412
0.808412
0.808412
0.808412
0.808412
0.808412
0.808412
0.808412
0.808412
0.808412
0.808412
0.808412
0.808412
0.808412
0.808412
0.808412
0.808412
0.808411
0.808411
0.808411
0.808411
0.808411
0.808411
0.80841
0.80841
0.80841
0.80841
0.808409
0.808409
0.808407
0.808403
0.80839
0.808348
0.808226
0.80792
0.822006
0.822305
0.822426
0.822469
0.822483
0.822487
0.822489
0.822489
0.82249
0.82249
0.82249
0.82249
0.822491
0.822491
0.822491
0.822491
0.822491
0.822491
0.822491
0.822492
0.822492
0.822492
0.822492
0.822492
0.822492
0.822492
0.822492
0.822492
0.822492
0.822492
0.822492
0.822492
0.822492
0.822492
0.822492
0.822492
0.822492
0.822492
0.822492
0.822492
0.822492
0.822491
0.822491
0.822491
0.822491
0.822491
0.822491
0.822491
0.82249
0.82249
0.82249
0.82249
0.822489
0.822489
0.822487
0.822483
0.822469
0.822426
0.822305
0.822006
0.83528
0.835572
0.835692
0.835735
0.83575
0.835754
0.835756
0.835756
0.835757
0.835757
0.835757
0.835757
0.835757
0.835758
0.835758
0.835758
0.835758
0.835758
0.835758
0.835758
0.835758
0.835758
0.835759
0.835759
0.835759
0.835759
0.835759
0.835759
0.835759
0.835759
0.835759
0.835759
0.835759
0.835759
0.835759
0.835759
0.835759
0.835759
0.835758
0.835758
0.835758
0.835758
0.835758
0.835758
0.835758
0.835758
0.835758
0.835757
0.835757
0.835757
0.835757
0.835757
0.835756
0.835756
0.835754
0.83575
0.835735
0.835692
0.835572
0.83528
0.84777
0.848054
0.848173
0.848217
0.848232
0.848236
0.848238
0.848239
0.848239
0.848239
0.848239
0.84824
0.84824
0.84824
0.84824
0.84824
0.84824
0.84824
0.84824
0.84824
0.84824
0.848241
0.848241
0.848241
0.848241
0.848241
0.848241
0.848241
0.848241
0.848241
0.848241
0.848241
0.848241
0.848241
0.848241
0.848241
0.848241
0.848241
0.848241
0.84824
0.84824
0.84824
0.84824
0.84824
0.84824
0.84824
0.84824
0.84824
0.84824
0.848239
0.848239
0.848239
0.848239
0.848238
0.848236
0.848232
0.848217
0.848173
0.848054
0.84777
0.859505
0.85978
0.859898
0.859943
0.859958
0.859963
0.859965
0.859965
0.859965
0.859966
0.859966
0.859966
0.859966
0.859966
0.859966
0.859966
0.859966
0.859967
0.859967
0.859967
0.859967
0.859967
0.859967
0.859967
0.859967
0.859967
0.859967
0.859967
0.859967
0.859967
0.859967
0.859967
0.859967
0.859967
0.859967
0.859967
0.859967
0.859967
0.859967
0.859967
0.859967
0.859967
0.859967
0.859966
0.859966
0.859966
0.859966
0.859966
0.859966
0.859966
0.859966
0.859965
0.859965
0.859965
0.859963
0.859958
0.859943
0.859898
0.85978
0.859505
0.870514
0.87078
0.870897
0.870942
0.870957
0.870962
0.870964
0.870965
0.870965
0.870965
0.870965
0.870966
0.870966
0.870966
0.870966
0.870966
0.870966
0.870966
0.870966
0.870966
0.870966
0.870966
0.870966
0.870966
0.870966
0.870966
0.870966
0.870966
0.870966
0.870966
0.870966
0.870966
0.870966
0.870966
0.870966
0.870966
0.870966
0.870966
0.870966
0.870966
0.870966
0.870966
0.870966
0.870966
0.870966
0.870966
0.870966
0.870966
0.870966
0.870965
0.870965
0.870965
0.870965
0.870964
0.870962
0.870957
0.870942
0.870897
0.87078
0.870514
0.880826
0.881083
0.881198
0.881243
0.881259
0.881265
0.881266
0.881267
0.881267
0.881267
0.881268
0.881268
0.881268
0.881268
0.881268
0.881268
0.881268
0.881268
0.881268
0.881268
0.881268
0.881268
0.881268
0.881268
0.881268
0.881268
0.881269
0.881269
0.881269
0.881269
0.881269
0.881269
0.881269
0.881269
0.881268
0.881268
0.881268
0.881268
0.881268
0.881268
0.881268
0.881268
0.881268
0.881268
0.881268
0.881268
0.881268
0.881268
0.881268
0.881268
0.881267
0.881267
0.881267
0.881266
0.881265
0.881259
0.881243
0.881198
0.881083
0.880826
0.890471
0.890718
0.890831
0.890877
0.890893
0.890899
0.890901
0.890901
0.890902
0.890902
0.890902
0.890902
0.890902
0.890902
0.890902
0.890902
0.890902
0.890902
0.890902
0.890902
0.890902
0.890902
0.890902
0.890902
0.890903
0.890903
0.890903
0.890903
0.890903
0.890903
0.890903
0.890903
0.890903
0.890903
0.890903
0.890903
0.890902
0.890902
0.890902
0.890902
0.890902
0.890902
0.890902
0.890902
0.890902
0.890902
0.890902
0.890902
0.890902
0.890902
0.890902
0.890902
0.890901
0.890901
0.890899
0.890893
0.890877
0.890831
0.890718
0.890471
0.899477
0.899716
0.899826
0.899871
0.899888
0.899894
0.899896
0.899897
0.899897
0.899897
0.899897
0.899897
0.899897
0.899897
0.899898
0.899898
0.899898
0.899898
0.899898
0.899898
0.899898
0.899898
0.899898
0.899898
0.899898
0.899898
0.899898
0.899898
0.899898
0.899898
0.899898
0.899898
0.899898
0.899898
0.899898
0.899898
0.899898
0.899898
0.899898
0.899898
0.899898
0.899898
0.899898
0.899898
0.899898
0.899898
0.899897
0.899897
0.899897
0.899897
0.899897
0.899897
0.899897
0.899896
0.899894
0.899888
0.899871
0.899826
0.899716
0.899477
0.907875
0.908104
0.908212
0.908257
0.908274
0.90828
0.908282
0.908283
0.908283
0.908283
0.908283
0.908284
0.908284
0.908284
0.908284
0.908284
0.908284
0.908284
0.908284
0.908284
0.908284
0.908284
0.908284
0.908284
0.908284
0.908284
0.908284
0.908284
0.908284
0.908284
0.908284
0.908284
0.908284
0.908284
0.908284
0.908284
0.908284
0.908284
0.908284
0.908284
0.908284
0.908284
0.908284
0.908284
0.908284
0.908284
0.908284
0.908284
0.908284
0.908283
0.908283
0.908283
0.908283
0.908282
0.90828
0.908274
0.908257
0.908212
0.908104
0.907875
0.915693
0.915912
0.916018
0.916062
0.91608
0.916086
0.916088
0.916089
0.916089
0.916089
0.916089
0.916089
0.916089
0.916089
0.916089
0.916089
0.91609
0.91609
0.91609
0.91609
0.91609
0.91609
0.91609
0.91609
0.91609
0.91609
0.91609
0.91609
0.91609
0.91609
0.91609
0.91609
0.91609
0.91609
0.91609
0.91609
0.91609
0.91609
0.91609
0.91609
0.91609
0.91609
0.91609
0.91609
0.916089
0.916089
0.916089
0.916089
0.916089
0.916089
0.916089
0.916089
0.916089
0.916088
0.916086
0.91608
0.916062
0.916018
0.915912
0.915693
0.92296
0.923169
0.923272
0.923316
0.923334
0.92334
0.923342
0.923343
0.923343
0.923344
0.923344
0.923344
0.923344
0.923344
0.923344
0.923344
0.923344
0.923344
0.923344
0.923344
0.923344
0.923344
0.923344
0.923344
0.923344
0.923344
0.923344
0.923344
0.923344
0.923344
0.923344
0.923344
0.923344
0.923344
0.923344
0.923344
0.923344
0.923344
0.923344
0.923344
0.923344
0.923344
0.923344
0.923344
0.923344
0.923344
0.923344
0.923344
0.923344
0.923344
0.923344
0.923343
0.923343
0.923342
0.92334
0.923334
0.923316
0.923272
0.923169
0.92296
0.929704
0.929903
0.930003
0.930047
0.930064
0.930071
0.930073
0.930074
0.930074
0.930075
0.930075
0.930075
0.930075
0.930075
0.930075
0.930075
0.930075
0.930075
0.930075
0.930075
0.930075
0.930075
0.930075
0.930075
0.930075
0.930075
0.930075
0.930075
0.930075
0.930075
0.930075
0.930075
0.930075
0.930075
0.930075
0.930075
0.930075
0.930075
0.930075
0.930075
0.930075
0.930075
0.930075
0.930075
0.930075
0.930075
0.930075
0.930075
0.930075
0.930075
0.930075
0.930074
0.930074
0.930073
0.930071
0.930064
0.930047
0.930003
0.929903
0.929704
0.935953
0.936142
0.936239
0.936282
0.9363
0.936307
0.936309
0.93631
0.93631
0.93631
0.93631
0.93631
0.93631
0.93631
0.93631
0.93631
0.93631
0.93631
0.93631
0.93631
0.93631
0.93631
0.93631
0.93631
0.93631
0.93631
0.93631
0.93631
0.93631
0.93631
0.93631
0.93631
0.93631
0.93631
0.93631
0.93631
0.93631
0.93631
0.93631
0.93631
0.93631
0.93631
0.93631
0.93631
0.93631
0.93631
0.93631
0.93631
0.93631
0.93631
0.93631
0.93631
0.93631
0.936309
0.936307
0.9363
0.936282
0.936239
0.936142
0.935953
0.941733
0.941914
0.942007
0.942049
0.942067
0.942074
0.942077
0.942078
0.942078
0.942078
0.942078
0.942078
0.942078
0.942078
0.942078
0.942078
0.942078
0.942078
0.942078
0.942078
0.942078
0.942078
0.942078
0.942078
0.942078
0.942078
0.942078
0.942078
0.942078
0.942078
0.942078
0.942078
0.942078
0.942078
0.942078
0.942078
0.942078
0.942078
0.942078
0.942078
0.942078
0.942078
0.942078
0.942078
0.942078
0.942078
0.942078
0.942078
0.942078
0.942078
0.942078
0.942078
0.942078
0.942077
0.942074
0.942067
0.942049
0.942007
0.941914
0.941733
0.947073
0.947244
0.947333
0.947375
0.947393
0.9474
0.947403
0.947404
0.947404
0.947404
0.947404
0.947404
0.947404
0.947404
0.947404
0.947404
0.947404
0.947404
0.947404
0.947404
0.947404
0.947404
0.947404
0.947404
0.947404
0.947404
0.947404
0.947404
0.947404
0.947404
0.947404
0.947404
0.947404
0.947404
0.947404
0.947404
0.947404
0.947404
0.947404
0.947404
0.947404
0.947404
0.947404
0.947404
0.947404
0.947404
0.947404
0.947404
0.947404
0.947404
0.947404
0.947404
0.947404
0.947403
0.9474
0.947393
0.947375
0.947333
0.947244
0.947073
0.951998
0.952159
0.952245
0.952286
0.952304
0.952311
0.952314
0.952315
0.952315
0.952315
0.952315
0.952315
0.952315
0.952315
0.952315
0.952315
0.952315
0.952315
0.952315
0.952315
0.952315
0.952315
0.952315
0.952315
0.952315
0.952315
0.952315
0.952315
0.952315
0.952315
0.952315
0.952315
0.952315
0.952315
0.952315
0.952315
0.952315
0.952315
0.952315
0.952315
0.952315
0.952315
0.952315
0.952315
0.952315
0.952315
0.952315
0.952315
0.952315
0.952315
0.952315
0.952315