/*--------------------------------*- C++ -*----------------------------------*\
| =========                 |                                                 |
| \\      /  F ield         | foam-extend: Open Source CFD                    |
|  \\    /   O peration     | Version:     4.0                                |
|   \\  /    A nd           | Web:         http://www.foam-extend.org         |
|    \\/     M anipulation  |                                                 |
\*---------------------------------------------------------------------------*/
FoamFile
{
    version     2.0;
    format      ascii;
    class       volScalarField;
    location    "1280";
    object      cMinus;
}
// * * * * * * * * * * * * * * * * * * * * * * * * * * * * * * * * * * * * * //

dimensions      [0 0 0 0 0 0 0];

internalField   nonuniform List<scalar> 
6960
(
4.26452e-23
4.266e-23
4.26442e-23
4.26249e-23
4.26065e-23
4.25902e-23
4.2576e-23
4.25637e-23
4.25533e-23
4.25444e-23
4.25368e-23
4.25305e-23
4.25251e-23
4.25205e-23
4.25166e-23
4.25134e-23
4.25106e-23
4.25083e-23
4.25064e-23
4.25047e-23
4.25034e-23
4.25022e-23
4.25013e-23
4.25005e-23
4.24999e-23
4.24994e-23
4.2499e-23
4.24987e-23
4.24985e-23
4.24984e-23
4.24984e-23
4.24985e-23
4.24987e-23
4.2499e-23
4.24994e-23
4.24999e-23
4.25005e-23
4.25013e-23
4.25022e-23
4.25034e-23
4.25047e-23
4.25064e-23
4.25083e-23
4.25106e-23
4.25134e-23
4.25166e-23
4.25205e-23
4.25251e-23
4.25305e-23
4.25368e-23
4.25444e-23
4.25533e-23
4.25637e-23
4.2576e-23
4.25902e-23
4.26065e-23
4.26249e-23
4.26442e-23
4.266e-23
4.26452e-23
1.47716e-22
1.47783e-22
1.47746e-22
1.47695e-22
1.47646e-22
1.47601e-22
1.47562e-22
1.47528e-22
1.47499e-22
1.47474e-22
1.47453e-22
1.47435e-22
1.47419e-22
1.47406e-22
1.47394e-22
1.47385e-22
1.47377e-22
1.4737e-22
1.47364e-22
1.47359e-22
1.47355e-22
1.47351e-22
1.47349e-22
1.47346e-22
1.47344e-22
1.47343e-22
1.47342e-22
1.47341e-22
1.4734e-22
1.4734e-22
1.4734e-22
1.4734e-22
1.47341e-22
1.47342e-22
1.47343e-22
1.47344e-22
1.47346e-22
1.47349e-22
1.47351e-22
1.47355e-22
1.47359e-22
1.47364e-22
1.4737e-22
1.47377e-22
1.47385e-22
1.47394e-22
1.47406e-22
1.47419e-22
1.47435e-22
1.47453e-22
1.47474e-22
1.47499e-22
1.47528e-22
1.47562e-22
1.47601e-22
1.47646e-22
1.47695e-22
1.47746e-22
1.47783e-22
1.47716e-22
4.65658e-22
4.65931e-22
4.6588e-22
4.65781e-22
4.65679e-22
4.65585e-22
4.655e-22
4.65425e-22
4.65359e-22
4.65302e-22
4.65252e-22
4.65208e-22
4.65171e-22
4.65138e-22
4.6511e-22
4.65086e-22
4.65065e-22
4.65047e-22
4.65031e-22
4.65018e-22
4.65007e-22
4.64998e-22
4.6499e-22
4.64984e-22
4.64978e-22
4.64974e-22
4.64971e-22
4.64968e-22
4.64967e-22
4.64966e-22
4.64966e-22
4.64967e-22
4.64968e-22
4.64971e-22
4.64974e-22
4.64978e-22
4.64984e-22
4.6499e-22
4.64998e-22
4.65007e-22
4.65018e-22
4.65031e-22
4.65047e-22
4.65065e-22
4.65086e-22
4.6511e-22
4.65138e-22
4.65171e-22
4.65208e-22
4.65252e-22
4.65302e-22
4.65359e-22
4.65425e-22
4.655e-22
4.65585e-22
4.65679e-22
4.65781e-22
4.6588e-22
4.65931e-22
4.65658e-22
1.45177e-21
1.45282e-21
1.45289e-21
1.4528e-21
1.45267e-21
1.45253e-21
1.4524e-21
1.45228e-21
1.45216e-21
1.45206e-21
1.45196e-21
1.45187e-21
1.4518e-21
1.45173e-21
1.45166e-21
1.45161e-21
1.45156e-21
1.45152e-21
1.45148e-21
1.45145e-21
1.45142e-21
1.4514e-21
1.45138e-21
1.45136e-21
1.45134e-21
1.45133e-21
1.45132e-21
1.45132e-21
1.45131e-21
1.45131e-21
1.45131e-21
1.45131e-21
1.45132e-21
1.45132e-21
1.45133e-21
1.45134e-21
1.45136e-21
1.45138e-21
1.4514e-21
1.45142e-21
1.45145e-21
1.45148e-21
1.45152e-21
1.45156e-21
1.45161e-21
1.45166e-21
1.45173e-21
1.4518e-21
1.45187e-21
1.45196e-21
1.45206e-21
1.45216e-21
1.45228e-21
1.4524e-21
1.45253e-21
1.45267e-21
1.4528e-21
1.45289e-21
1.45282e-21
1.45177e-21
4.59526e-21
4.59926e-21
4.60025e-21
4.60067e-21
4.60089e-21
4.60099e-21
4.60103e-21
4.60101e-21
4.60095e-21
4.60087e-21
4.60077e-21
4.60066e-21
4.60055e-21
4.60043e-21
4.60032e-21
4.60021e-21
4.60011e-21
4.60002e-21
4.59994e-21
4.59987e-21
4.5998e-21
4.59974e-21
4.59969e-21
4.59965e-21
4.59962e-21
4.59959e-21
4.59957e-21
4.59955e-21
4.59954e-21
4.59953e-21
4.59953e-21
4.59954e-21
4.59955e-21
4.59957e-21
4.59959e-21
4.59962e-21
4.59965e-21
4.59969e-21
4.59974e-21
4.5998e-21
4.59987e-21
4.59994e-21
4.60002e-21
4.60011e-21
4.60021e-21
4.60032e-21
4.60043e-21
4.60055e-21
4.60066e-21
4.60077e-21
4.60087e-21
4.60095e-21
4.60101e-21
4.60103e-21
4.60099e-21
4.60089e-21
4.60067e-21
4.60025e-21
4.59926e-21
4.59526e-21
1.48996e-20
1.49148e-20
1.49206e-20
1.49244e-20
1.49272e-20
1.49294e-20
1.4931e-20
1.49322e-20
1.49331e-20
1.49337e-20
1.4934e-20
1.49342e-20
1.49343e-20
1.49343e-20
1.49342e-20
1.49341e-20
1.4934e-20
1.49338e-20
1.49337e-20
1.49335e-20
1.49334e-20
1.49333e-20
1.49332e-20
1.49331e-20
1.4933e-20
1.49329e-20
1.49329e-20
1.49328e-20
1.49328e-20
1.49328e-20
1.49328e-20
1.49328e-20
1.49328e-20
1.49329e-20
1.49329e-20
1.4933e-20
1.49331e-20
1.49332e-20
1.49333e-20
1.49334e-20
1.49335e-20
1.49337e-20
1.49338e-20
1.4934e-20
1.49341e-20
1.49342e-20
1.49343e-20
1.49343e-20
1.49342e-20
1.4934e-20
1.49337e-20
1.49331e-20
1.49322e-20
1.4931e-20
1.49294e-20
1.49272e-20
1.49244e-20
1.49206e-20
1.49148e-20
1.48996e-20
4.96421e-20
4.97005e-20
4.97287e-20
4.97496e-20
4.97663e-20
4.97796e-20
4.97903e-20
4.97986e-20
4.9805e-20
4.98099e-20
4.98135e-20
4.9816e-20
4.98178e-20
4.9819e-20
4.98198e-20
4.98202e-20
4.98204e-20
4.98205e-20
4.98204e-20
4.98202e-20
4.982e-20
4.98198e-20
4.98196e-20
4.98195e-20
4.98193e-20
4.98191e-20
4.9819e-20
4.98189e-20
4.98189e-20
4.98188e-20
4.98188e-20
4.98189e-20
4.98189e-20
4.9819e-20
4.98191e-20
4.98193e-20
4.98195e-20
4.98196e-20
4.98198e-20
4.982e-20
4.98202e-20
4.98204e-20
4.98205e-20
4.98204e-20
4.98202e-20
4.98198e-20
4.9819e-20
4.98178e-20
4.9816e-20
4.98135e-20
4.98099e-20
4.9805e-20
4.97986e-20
4.97903e-20
4.97796e-20
4.97663e-20
4.97496e-20
4.97287e-20
4.97005e-20
4.96421e-20
1.70149e-19
1.70377e-19
1.70504e-19
1.70605e-19
1.70688e-19
1.70755e-19
1.7081e-19
1.70854e-19
1.70888e-19
1.70915e-19
1.70936e-19
1.70952e-19
1.70963e-19
1.70972e-19
1.70978e-19
1.70982e-19
1.70985e-19
1.70987e-19
1.70988e-19
1.70989e-19
1.70989e-19
1.70989e-19
1.70989e-19
1.70989e-19
1.70989e-19
1.70989e-19
1.70988e-19
1.70988e-19
1.70988e-19
1.70988e-19
1.70988e-19
1.70988e-19
1.70988e-19
1.70988e-19
1.70989e-19
1.70989e-19
1.70989e-19
1.70989e-19
1.70989e-19
1.70989e-19
1.70989e-19
1.70988e-19
1.70987e-19
1.70985e-19
1.70982e-19
1.70978e-19
1.70972e-19
1.70963e-19
1.70952e-19
1.70936e-19
1.70915e-19
1.70888e-19
1.70854e-19
1.7081e-19
1.70755e-19
1.70688e-19
1.70605e-19
1.70504e-19
1.70377e-19
1.70149e-19
6.00207e-19
6.01104e-19
6.01667e-19
6.02127e-19
6.02511e-19
6.02828e-19
6.03088e-19
6.03297e-19
6.03464e-19
6.03596e-19
6.03698e-19
6.03778e-19
6.03839e-19
6.03885e-19
6.03919e-19
6.03945e-19
6.03963e-19
6.03977e-19
6.03987e-19
6.03993e-19
6.03998e-19
6.04001e-19
6.04003e-19
6.04004e-19
6.04005e-19
6.04005e-19
6.04005e-19
6.04005e-19
6.04005e-19
6.04005e-19
6.04005e-19
6.04005e-19
6.04005e-19
6.04005e-19
6.04005e-19
6.04005e-19
6.04004e-19
6.04003e-19
6.04001e-19
6.03998e-19
6.03993e-19
6.03987e-19
6.03977e-19
6.03963e-19
6.03945e-19
6.03919e-19
6.03885e-19
6.03839e-19
6.03778e-19
6.03698e-19
6.03596e-19
6.03464e-19
6.03297e-19
6.03088e-19
6.02828e-19
6.02511e-19
6.02127e-19
6.01667e-19
6.01104e-19
6.00207e-19
2.17928e-18
2.18289e-18
2.18535e-18
2.18741e-18
2.18914e-18
2.19059e-18
2.19177e-18
2.19274e-18
2.19351e-18
2.19413e-18
2.19461e-18
2.19499e-18
2.19528e-18
2.19551e-18
2.19568e-18
2.19581e-18
2.19591e-18
2.19599e-18
2.19604e-18
2.19608e-18
2.19611e-18
2.19613e-18
2.19615e-18
2.19616e-18
2.19617e-18
2.19617e-18
2.19618e-18
2.19618e-18
2.19618e-18
2.19618e-18
2.19618e-18
2.19618e-18
2.19618e-18
2.19618e-18
2.19617e-18
2.19617e-18
2.19616e-18
2.19615e-18
2.19613e-18
2.19611e-18
2.19608e-18
2.19604e-18
2.19599e-18
2.19591e-18
2.19581e-18
2.19568e-18
2.19551e-18
2.19528e-18
2.19499e-18
2.19461e-18
2.19413e-18
2.19351e-18
2.19274e-18
2.19177e-18
2.19059e-18
2.18914e-18
2.18741e-18
2.18535e-18
2.18289e-18
2.17928e-18
8.14395e-18
8.15881e-18
8.16955e-18
8.17872e-18
8.1865e-18
8.19301e-18
8.19837e-18
8.20275e-18
8.20628e-18
8.20911e-18
8.21135e-18
8.21311e-18
8.21449e-18
8.21556e-18
8.21639e-18
8.21702e-18
8.21751e-18
8.21788e-18
8.21817e-18
8.21838e-18
8.21854e-18
8.21866e-18
8.21875e-18
8.21882e-18
8.21887e-18
8.2189e-18
8.21892e-18
8.21894e-18
8.21895e-18
8.21896e-18
8.21896e-18
8.21895e-18
8.21894e-18
8.21892e-18
8.2189e-18
8.21887e-18
8.21882e-18
8.21875e-18
8.21866e-18
8.21854e-18
8.21838e-18
8.21817e-18
8.21788e-18
8.21751e-18
8.21702e-18
8.21639e-18
8.21556e-18
8.21449e-18
8.21311e-18
8.21135e-18
8.20911e-18
8.20628e-18
8.20275e-18
8.19837e-18
8.19301e-18
8.1865e-18
8.17872e-18
8.16955e-18
8.15881e-18
8.14395e-18
3.13159e-17
3.13783e-17
3.14257e-17
3.14667e-17
3.15017e-17
3.1531e-17
3.15553e-17
3.15752e-17
3.15913e-17
3.16042e-17
3.16144e-17
3.16226e-17
3.1629e-17
3.1634e-17
3.16379e-17
3.16409e-17
3.16432e-17
3.16451e-17
3.16464e-17
3.16475e-17
3.16483e-17
3.16489e-17
3.16494e-17
3.16498e-17
3.165e-17
3.16502e-17
3.16504e-17
3.16505e-17
3.16505e-17
3.16505e-17
3.16505e-17
3.16505e-17
3.16505e-17
3.16504e-17
3.16502e-17
3.165e-17
3.16498e-17
3.16494e-17
3.16489e-17
3.16483e-17
3.16475e-17
3.16464e-17
3.16451e-17
3.16432e-17
3.16409e-17
3.16379e-17
3.1634e-17
3.1629e-17
3.16226e-17
3.16144e-17
3.16042e-17
3.15913e-17
3.15752e-17
3.15553e-17
3.1531e-17
3.15017e-17
3.14667e-17
3.14257e-17
3.13783e-17
3.13159e-17
1.23856e-16
1.24124e-16
1.24336e-16
1.24521e-16
1.24679e-16
1.24813e-16
1.24923e-16
1.25014e-16
1.25088e-16
1.25147e-16
1.25194e-16
1.25232e-16
1.25262e-16
1.25285e-16
1.25303e-16
1.25317e-16
1.25329e-16
1.25337e-16
1.25344e-16
1.25349e-16
1.25353e-16
1.25356e-16
1.25359e-16
1.2536e-16
1.25362e-16
1.25363e-16
1.25364e-16
1.25364e-16
1.25364e-16
1.25365e-16
1.25365e-16
1.25364e-16
1.25364e-16
1.25364e-16
1.25363e-16
1.25362e-16
1.2536e-16
1.25359e-16
1.25356e-16
1.25353e-16
1.25349e-16
1.25344e-16
1.25337e-16
1.25329e-16
1.25317e-16
1.25303e-16
1.25285e-16
1.25262e-16
1.25232e-16
1.25194e-16
1.25147e-16
1.25088e-16
1.25014e-16
1.24923e-16
1.24813e-16
1.24679e-16
1.24521e-16
1.24336e-16
1.24124e-16
1.23856e-16
5.03512e-16
5.04687e-16
5.05649e-16
5.06496e-16
5.07224e-16
5.07838e-16
5.08347e-16
5.08766e-16
5.09106e-16
5.0938e-16
5.096e-16
5.09776e-16
5.09914e-16
5.10024e-16
5.1011e-16
5.10178e-16
5.10231e-16
5.10272e-16
5.10304e-16
5.10329e-16
5.10349e-16
5.10364e-16
5.10376e-16
5.10385e-16
5.10391e-16
5.10397e-16
5.104e-16
5.10403e-16
5.10405e-16
5.10405e-16
5.10405e-16
5.10405e-16
5.10403e-16
5.104e-16
5.10397e-16
5.10391e-16
5.10385e-16
5.10376e-16
5.10364e-16
5.10349e-16
5.10329e-16
5.10304e-16
5.10272e-16
5.10231e-16
5.10178e-16
5.1011e-16
5.10024e-16
5.09914e-16
5.09776e-16
5.096e-16
5.0938e-16
5.09106e-16
5.08766e-16
5.08347e-16
5.07838e-16
5.07224e-16
5.06496e-16
5.05649e-16
5.04687e-16
5.03512e-16
2.10211e-15
2.10737e-15
2.11181e-15
2.11575e-15
2.11913e-15
2.12199e-15
2.12437e-15
2.12633e-15
2.12792e-15
2.12921e-15
2.13024e-15
2.13107e-15
2.13172e-15
2.13224e-15
2.13265e-15
2.13297e-15
2.13323e-15
2.13342e-15
2.13358e-15
2.1337e-15
2.1338e-15
2.13387e-15
2.13393e-15
2.13397e-15
2.13401e-15
2.13403e-15
2.13405e-15
2.13407e-15
2.13407e-15
2.13408e-15
2.13408e-15
2.13407e-15
2.13407e-15
2.13405e-15
2.13403e-15
2.13401e-15
2.13397e-15
2.13393e-15
2.13387e-15
2.1338e-15
2.1337e-15
2.13358e-15
2.13342e-15
2.13323e-15
2.13297e-15
2.13265e-15
2.13224e-15
2.13172e-15
2.13107e-15
2.13024e-15
2.12921e-15
2.12792e-15
2.12633e-15
2.12437e-15
2.12199e-15
2.11913e-15
2.11575e-15
2.11181e-15
2.10737e-15
2.10211e-15
9.00189e-15
9.02595e-15
9.04676e-15
9.0653e-15
9.0813e-15
9.09482e-15
9.10608e-15
9.11535e-15
9.12291e-15
9.12904e-15
9.13396e-15
9.13789e-15
9.14102e-15
9.14351e-15
9.14547e-15
9.14702e-15
9.14825e-15
9.14921e-15
9.14996e-15
9.15056e-15
9.15102e-15
9.15139e-15
9.15167e-15
9.15189e-15
9.15206e-15
9.15219e-15
9.15229e-15
9.15235e-15
9.1524e-15
9.15242e-15
9.15242e-15
9.1524e-15
9.15235e-15
9.15229e-15
9.15219e-15
9.15206e-15
9.15189e-15
9.15167e-15
9.15139e-15
9.15102e-15
9.15056e-15
9.14996e-15
9.14921e-15
9.14825e-15
9.14702e-15
9.14547e-15
9.14351e-15
9.14102e-15
9.13789e-15
9.13396e-15
9.12904e-15
9.12291e-15
9.11535e-15
9.10608e-15
9.09482e-15
9.0813e-15
9.0653e-15
9.04676e-15
9.02595e-15
9.00189e-15
3.94795e-14
3.95916e-14
3.96907e-14
3.97794e-14
3.98561e-14
3.9921e-14
3.99751e-14
4.00196e-14
4.0056e-14
4.00855e-14
4.01092e-14
4.01282e-14
4.01434e-14
4.01554e-14
4.0165e-14
4.01725e-14
4.01785e-14
4.01832e-14
4.01869e-14
4.01898e-14
4.01921e-14
4.01939e-14
4.01953e-14
4.01964e-14
4.01973e-14
4.01979e-14
4.01984e-14
4.01987e-14
4.0199e-14
4.01991e-14
4.01991e-14
4.0199e-14
4.01987e-14
4.01984e-14
4.01979e-14
4.01973e-14
4.01964e-14
4.01953e-14
4.01939e-14
4.01921e-14
4.01898e-14
4.01869e-14
4.01832e-14
4.01785e-14
4.01725e-14
4.0165e-14
4.01554e-14
4.01434e-14
4.01282e-14
4.01092e-14
4.00855e-14
4.0056e-14
4.00196e-14
3.99751e-14
3.9921e-14
3.98561e-14
3.97794e-14
3.96907e-14
3.95916e-14
3.94795e-14
1.76979e-13
1.77511e-13
1.7799e-13
1.7842e-13
1.78793e-13
1.79108e-13
1.79371e-13
1.79588e-13
1.79765e-13
1.79909e-13
1.80025e-13
1.80118e-13
1.80192e-13
1.80252e-13
1.80298e-13
1.80336e-13
1.80365e-13
1.80388e-13
1.80407e-13
1.80421e-13
1.80432e-13
1.80441e-13
1.80449e-13
1.80454e-13
1.80458e-13
1.80462e-13
1.80464e-13
1.80466e-13
1.80467e-13
1.80467e-13
1.80467e-13
1.80467e-13
1.80466e-13
1.80464e-13
1.80462e-13
1.80458e-13
1.80454e-13
1.80449e-13
1.80441e-13
1.80432e-13
1.80421e-13
1.80407e-13
1.80388e-13
1.80365e-13
1.80336e-13
1.80298e-13
1.80252e-13
1.80192e-13
1.80118e-13
1.80025e-13
1.79909e-13
1.79765e-13
1.79588e-13
1.79371e-13
1.79108e-13
1.78793e-13
1.7842e-13
1.7799e-13
1.77511e-13
1.76979e-13
8.08971e-13
8.11535e-13
8.1388e-13
8.15992e-13
8.17823e-13
8.19375e-13
8.2067e-13
8.21739e-13
8.22613e-13
8.23323e-13
8.23896e-13
8.24355e-13
8.24723e-13
8.25015e-13
8.25248e-13
8.25433e-13
8.25579e-13
8.25695e-13
8.25786e-13
8.25859e-13
8.25916e-13
8.25961e-13
8.25997e-13
8.26024e-13
8.26046e-13
8.26062e-13
8.26075e-13
8.26083e-13
8.26089e-13
8.26091e-13
8.26091e-13
8.26089e-13
8.26083e-13
8.26075e-13
8.26062e-13
8.26046e-13
8.26024e-13
8.25997e-13
8.25961e-13
8.25916e-13
8.25859e-13
8.25786e-13
8.25695e-13
8.25579e-13
8.25433e-13
8.25248e-13
8.25015e-13
8.24723e-13
8.24355e-13
8.23896e-13
8.23323e-13
8.22613e-13
8.21739e-13
8.2067e-13
8.19375e-13
8.17823e-13
8.15992e-13
8.1388e-13
8.11535e-13
8.08971e-13
3.75948e-12
3.77199e-12
3.78358e-12
3.79406e-12
3.80314e-12
3.81084e-12
3.81728e-12
3.82259e-12
3.82694e-12
3.83047e-12
3.83333e-12
3.83562e-12
3.83745e-12
3.83891e-12
3.84007e-12
3.841e-12
3.84173e-12
3.84231e-12
3.84277e-12
3.84314e-12
3.84343e-12
3.84366e-12
3.84384e-12
3.84398e-12
3.84409e-12
3.84417e-12
3.84423e-12
3.84427e-12
3.8443e-12
3.84432e-12
3.84432e-12
3.8443e-12
3.84427e-12
3.84423e-12
3.84417e-12
3.84409e-12
3.84398e-12
3.84384e-12
3.84366e-12
3.84343e-12
3.84314e-12
3.84277e-12
3.84231e-12
3.84173e-12
3.841e-12
3.84007e-12
3.83891e-12
3.83745e-12
3.83562e-12
3.83333e-12
3.83047e-12
3.82694e-12
3.82259e-12
3.81728e-12
3.81084e-12
3.80314e-12
3.79406e-12
3.78358e-12
3.77199e-12
3.75948e-12
1.76997e-11
1.77613e-11
1.7819e-11
1.78712e-11
1.79166e-11
1.79551e-11
1.79872e-11
1.80138e-11
1.80355e-11
1.80532e-11
1.80675e-11
1.8079e-11
1.80882e-11
1.80955e-11
1.81014e-11
1.8106e-11
1.81097e-11
1.81126e-11
1.8115e-11
1.81168e-11
1.81183e-11
1.81194e-11
1.81203e-11
1.81211e-11
1.81216e-11
1.8122e-11
1.81223e-11
1.81226e-11
1.81227e-11
1.81228e-11
1.81228e-11
1.81227e-11
1.81226e-11
1.81223e-11
1.8122e-11
1.81216e-11
1.81211e-11
1.81203e-11
1.81194e-11
1.81183e-11
1.81168e-11
1.8115e-11
1.81126e-11
1.81097e-11
1.8106e-11
1.81014e-11
1.80955e-11
1.80882e-11
1.8079e-11
1.80675e-11
1.80532e-11
1.80355e-11
1.80138e-11
1.79872e-11
1.79551e-11
1.79166e-11
1.78712e-11
1.7819e-11
1.77613e-11
1.76997e-11
8.4066e-11
8.43702e-11
8.46584e-11
8.49195e-11
8.51463e-11
8.53388e-11
8.54997e-11
8.56328e-11
8.57418e-11
8.58304e-11
8.59021e-11
8.59597e-11
8.60059e-11
8.60427e-11
8.60721e-11
8.60955e-11
8.61141e-11
8.61289e-11
8.61407e-11
8.615e-11
8.61574e-11
8.61632e-11
8.61678e-11
8.61715e-11
8.61743e-11
8.61764e-11
8.61781e-11
8.61792e-11
8.61799e-11
8.61803e-11
8.61803e-11
8.61799e-11
8.61792e-11
8.61781e-11
8.61764e-11
8.61743e-11
8.61715e-11
8.61678e-11
8.61632e-11
8.61574e-11
8.615e-11
8.61407e-11
8.61289e-11
8.61141e-11
8.60955e-11
8.60721e-11
8.60427e-11
8.60059e-11
8.59597e-11
8.59021e-11
8.58304e-11
8.57418e-11
8.56328e-11
8.54997e-11
8.53388e-11
8.51463e-11
8.49195e-11
8.46584e-11
8.43702e-11
8.4066e-11
4.00811e-10
4.02313e-10
4.03748e-10
4.0505e-10
4.06181e-10
4.07141e-10
4.07944e-10
4.08608e-10
4.09152e-10
4.09595e-10
4.09953e-10
4.10241e-10
4.10472e-10
4.10657e-10
4.10804e-10
4.10921e-10
4.11015e-10
4.11089e-10
4.11148e-10
4.11195e-10
4.11232e-10
4.11262e-10
4.11285e-10
4.11303e-10
4.11317e-10
4.11328e-10
4.11337e-10
4.11342e-10
4.11346e-10
4.11348e-10
4.11348e-10
4.11346e-10
4.11342e-10
4.11337e-10
4.11328e-10
4.11317e-10
4.11303e-10
4.11285e-10
4.11262e-10
4.11232e-10
4.11195e-10
4.11148e-10
4.11089e-10
4.11015e-10
4.10921e-10
4.10804e-10
4.10657e-10
4.10472e-10
4.10241e-10
4.09953e-10
4.09595e-10
4.09152e-10
4.08608e-10
4.07944e-10
4.07141e-10
4.06181e-10
4.0505e-10
4.03748e-10
4.02313e-10
4.00811e-10
1.90733e-09
1.9147e-09
1.92178e-09
1.92821e-09
1.9338e-09
1.93855e-09
1.94252e-09
1.9458e-09
1.94849e-09
1.95069e-09
1.95246e-09
1.95389e-09
1.95503e-09
1.95595e-09
1.95668e-09
1.95726e-09
1.95772e-09
1.95809e-09
1.95839e-09
1.95862e-09
1.95881e-09
1.95895e-09
1.95907e-09
1.95916e-09
1.95923e-09
1.95929e-09
1.95933e-09
1.95936e-09
1.95937e-09
1.95938e-09
1.95938e-09
1.95937e-09
1.95936e-09
1.95933e-09
1.95929e-09
1.95923e-09
1.95916e-09
1.95907e-09
1.95895e-09
1.95881e-09
1.95862e-09
1.95839e-09
1.95809e-09
1.95772e-09
1.95726e-09
1.95668e-09
1.95595e-09
1.95503e-09
1.95389e-09
1.95246e-09
1.95069e-09
1.94849e-09
1.9458e-09
1.94252e-09
1.93855e-09
1.9338e-09
1.92821e-09
1.92178e-09
1.9147e-09
1.90733e-09
8.99924e-09
9.03488e-09
9.06932e-09
9.10058e-09
9.12775e-09
9.15084e-09
9.17016e-09
9.18614e-09
9.19925e-09
9.20992e-09
9.21856e-09
9.22551e-09
9.23109e-09
9.23556e-09
9.23912e-09
9.24197e-09
9.24424e-09
9.24604e-09
9.24748e-09
9.24862e-09
9.24953e-09
9.25025e-09
9.25082e-09
9.25127e-09
9.25162e-09
9.25189e-09
9.25209e-09
9.25223e-09
9.25232e-09
9.25236e-09
9.25236e-09
9.25232e-09
9.25223e-09
9.25209e-09
9.25189e-09
9.25162e-09
9.25127e-09
9.25082e-09
9.25025e-09
9.24953e-09
9.24862e-09
9.24748e-09
9.24604e-09
9.24424e-09
9.24197e-09
9.23912e-09
9.23556e-09
9.23109e-09
9.22551e-09
9.21856e-09
9.20992e-09
9.19925e-09
9.18614e-09
9.17016e-09
9.15084e-09
9.12775e-09
9.10058e-09
9.06932e-09
9.03488e-09
8.99924e-09
4.17835e-08
4.19521e-08
4.21156e-08
4.22641e-08
4.23931e-08
4.25027e-08
4.25945e-08
4.26704e-08
4.27327e-08
4.27834e-08
4.28245e-08
4.28576e-08
4.28841e-08
4.29054e-08
4.29224e-08
4.29359e-08
4.29467e-08
4.29553e-08
4.29622e-08
4.29676e-08
4.2972e-08
4.29754e-08
4.29782e-08
4.29803e-08
4.2982e-08
4.29833e-08
4.29842e-08
4.29849e-08
4.29853e-08
4.29856e-08
4.29856e-08
4.29853e-08
4.29849e-08
4.29842e-08
4.29833e-08
4.2982e-08
4.29803e-08
4.29782e-08
4.29754e-08
4.2972e-08
4.29676e-08
4.29622e-08
4.29553e-08
4.29467e-08
4.29359e-08
4.29224e-08
4.29054e-08
4.28841e-08
4.28576e-08
4.28245e-08
4.27834e-08
4.27327e-08
4.26704e-08
4.25945e-08
4.25027e-08
4.23931e-08
4.22641e-08
4.21156e-08
4.19521e-08
4.17835e-08
1.89291e-07
1.90064e-07
1.90816e-07
1.91498e-07
1.92091e-07
1.92594e-07
1.93016e-07
1.93365e-07
1.93651e-07
1.93884e-07
1.94073e-07
1.94225e-07
1.94347e-07
1.94445e-07
1.94523e-07
1.94586e-07
1.94635e-07
1.94675e-07
1.94707e-07
1.94732e-07
1.94752e-07
1.94768e-07
1.94781e-07
1.9479e-07
1.94798e-07
1.94804e-07
1.94809e-07
1.94812e-07
1.94814e-07
1.94815e-07
1.94815e-07
1.94814e-07
1.94812e-07
1.94809e-07
1.94804e-07
1.94798e-07
1.9479e-07
1.94781e-07
1.94768e-07
1.94752e-07
1.94732e-07
1.94707e-07
1.94675e-07
1.94635e-07
1.94586e-07
1.94523e-07
1.94445e-07
1.94347e-07
1.94225e-07
1.94073e-07
1.93884e-07
1.93651e-07
1.93365e-07
1.93016e-07
1.92594e-07
1.92091e-07
1.91498e-07
1.90816e-07
1.90064e-07
1.89291e-07
8.28797e-07
8.322e-07
8.35509e-07
8.3851e-07
8.41117e-07
8.43332e-07
8.45186e-07
8.46721e-07
8.4798e-07
8.49006e-07
8.49837e-07
8.50507e-07
8.51045e-07
8.51476e-07
8.51821e-07
8.52097e-07
8.52316e-07
8.52491e-07
8.52631e-07
8.52742e-07
8.52831e-07
8.52901e-07
8.52957e-07
8.53001e-07
8.53036e-07
8.53062e-07
8.53082e-07
8.53096e-07
8.53105e-07
8.53109e-07
8.53109e-07
8.53105e-07
8.53096e-07
8.53082e-07
8.53062e-07
8.53036e-07
8.53001e-07
8.52957e-07
8.52901e-07
8.52831e-07
8.52742e-07
8.52631e-07
8.52491e-07
8.52316e-07
8.52097e-07
8.51821e-07
8.51476e-07
8.51045e-07
8.50507e-07
8.49837e-07
8.49006e-07
8.4798e-07
8.46721e-07
8.45186e-07
8.43332e-07
8.41117e-07
8.3851e-07
8.35509e-07
8.322e-07
8.28797e-07
3.47033e-06
3.48453e-06
3.49832e-06
3.51081e-06
3.52167e-06
3.53089e-06
3.5386e-06
3.54499e-06
3.55024e-06
3.55451e-06
3.55797e-06
3.56076e-06
3.563e-06
3.5648e-06
3.56624e-06
3.56739e-06
3.5683e-06
3.56903e-06
3.56962e-06
3.57008e-06
3.57045e-06
3.57075e-06
3.57098e-06
3.57116e-06
3.57131e-06
3.57142e-06
3.5715e-06
3.57156e-06
3.5716e-06
3.57162e-06
3.57162e-06
3.5716e-06
3.57156e-06
3.5715e-06
3.57142e-06
3.57131e-06
3.57116e-06
3.57098e-06
3.57075e-06
3.57045e-06
3.57008e-06
3.56962e-06
3.56903e-06
3.5683e-06
3.56739e-06
3.56624e-06
3.5648e-06
3.563e-06
3.56076e-06
3.55797e-06
3.55451e-06
3.55024e-06
3.54499e-06
3.5386e-06
3.53089e-06
3.52167e-06
3.51081e-06
3.49832e-06
3.48453e-06
3.47033e-06
1.37349e-05
1.37902e-05
1.3844e-05
1.38926e-05
1.39348e-05
1.39706e-05
1.40006e-05
1.40254e-05
1.40458e-05
1.40624e-05
1.40759e-05
1.40868e-05
1.40955e-05
1.41025e-05
1.41081e-05
1.41125e-05
1.41161e-05
1.4119e-05
1.41212e-05
1.41231e-05
1.41245e-05
1.41256e-05
1.41266e-05
1.41273e-05
1.41278e-05
1.41283e-05
1.41286e-05
1.41288e-05
1.4129e-05
1.4129e-05
1.4129e-05
1.4129e-05
1.41288e-05
1.41286e-05
1.41283e-05
1.41278e-05
1.41273e-05
1.41266e-05
1.41256e-05
1.41245e-05
1.41231e-05
1.41212e-05
1.4119e-05
1.41161e-05
1.41125e-05
1.41081e-05
1.41025e-05
1.40955e-05
1.40868e-05
1.40759e-05
1.40624e-05
1.40458e-05
1.40254e-05
1.40006e-05
1.39706e-05
1.39348e-05
1.38926e-05
1.3844e-05
1.37902e-05
1.37349e-05
5.07246e-05
5.09239e-05
5.11166e-05
5.12905e-05
5.14415e-05
5.15696e-05
5.16769e-05
5.17657e-05
5.18387e-05
5.18981e-05
5.19462e-05
5.19851e-05
5.20163e-05
5.20414e-05
5.20614e-05
5.20774e-05
5.20902e-05
5.21004e-05
5.21086e-05
5.21151e-05
5.21203e-05
5.21244e-05
5.21277e-05
5.21303e-05
5.21323e-05
5.21339e-05
5.2135e-05
5.21358e-05
5.21364e-05
5.21366e-05
5.21366e-05
5.21364e-05
5.21358e-05
5.2135e-05
5.21339e-05
5.21323e-05
5.21303e-05
5.21277e-05
5.21244e-05
5.21203e-05
5.21151e-05
5.21086e-05
5.21004e-05
5.20902e-05
5.20774e-05
5.20614e-05
5.20414e-05
5.20163e-05
5.19851e-05
5.19462e-05
5.18981e-05
5.18387e-05
5.17657e-05
5.16769e-05
5.15696e-05
5.14415e-05
5.12905e-05
5.11166e-05
5.09239e-05
5.07246e-05
0.000172359
0.000173008
0.000173634
0.000174197
0.000174686
0.0001751
0.000175448
0.000175735
0.000175971
0.000176163
0.000176319
0.000176445
0.000176546
0.000176627
0.000176692
0.000176744
0.000176785
0.000176819
0.000176845
0.000176866
0.000176883
0.000176896
0.000176907
0.000176915
0.000176922
0.000176927
0.000176931
0.000176933
0.000176935
0.000176936
0.000176936
0.000176935
0.000176933
0.000176931
0.000176927
0.000176922
0.000176915
0.000176907
0.000176896
0.000176883
0.000176866
0.000176845
0.000176819
0.000176785
0.000176744
0.000176692
0.000176627
0.000176546
0.000176445
0.000176319
0.000176163
0.000175971
0.000175735
0.000175448
0.0001751
0.000174686
0.000174197
0.000173634
0.000173008
0.000172359
0.000530729
0.000532612
0.000534415
0.000536035
0.000537439
0.000538631
0.000539628
0.000540453
0.000541131
0.000541683
0.000542131
0.000542492
0.000542783
0.000543016
0.000543203
0.000543352
0.000543471
0.000543567
0.000543643
0.000543704
0.000543752
0.000543791
0.000543822
0.000543846
0.000543865
0.00054388
0.00054389
0.000543898
0.000543903
0.000543906
0.000543906
0.000543903
0.000543898
0.00054389
0.00054388
0.000543865
0.000543846
0.000543822
0.000543791
0.000543752
0.000543704
0.000543643
0.000543567
0.000543471
0.000543352
0.000543203
0.000543016
0.000542783
0.000542492
0.000542131
0.000541683
0.000541131
0.000540453
0.000539628
0.000538631
0.000537439
0.000536035
0.000534415
0.000532612
0.000530729
0.00145806
0.00146282
0.00146735
0.0014714
0.00147491
0.00147789
0.00148038
0.00148245
0.00148414
0.00148552
0.00148664
0.00148754
0.00148827
0.00148885
0.00148932
0.00148969
0.00148999
0.00149023
0.00149042
0.00149058
0.0014907
0.00149079
0.00149087
0.00149093
0.00149098
0.00149102
0.00149104
0.00149106
0.00149108
0.00149108
0.00149108
0.00149108
0.00149106
0.00149104
0.00149102
0.00149098
0.00149093
0.00149087
0.00149079
0.0014907
0.00149058
0.00149042
0.00149023
0.00148999
0.00148969
0.00148932
0.00148885
0.00148827
0.00148754
0.00148664
0.00148552
0.00148414
0.00148245
0.00148038
0.00147789
0.00147491
0.0014714
0.00146735
0.00146282
0.00145806
0.00352397
0.00353426
0.00354397
0.00355264
0.00356014
0.0035665
0.00357182
0.00357623
0.00357984
0.00358279
0.00358518
0.00358711
0.00358867
0.00358991
0.00359091
0.00359171
0.00359235
0.00359287
0.00359327
0.0035936
0.00359386
0.00359407
0.00359424
0.00359437
0.00359447
0.00359455
0.00359461
0.00359465
0.00359467
0.00359469
0.00359469
0.00359467
0.00359465
0.00359461
0.00359455
0.00359447
0.00359437
0.00359424
0.00359407
0.00359386
0.0035936
0.00359327
0.00359287
0.00359235
0.00359171
0.00359091
0.00358991
0.00358867
0.00358711
0.00358518
0.00358279
0.00357984
0.00357623
0.00357182
0.0035665
0.00356014
0.00355264
0.00354397
0.00353426
0.00352397
0.00742413
0.00744297
0.00746058
0.00747626
0.00748981
0.00750129
0.00751089
0.00751884
0.00752536
0.00753069
0.007535
0.00753849
0.00754129
0.00754355
0.00754535
0.0075468
0.00754796
0.00754889
0.00754963
0.00755022
0.00755069
0.00755107
0.00755137
0.00755161
0.00755179
0.00755194
0.00755204
0.00755212
0.00755217
0.00755219
0.00755219
0.00755217
0.00755212
0.00755204
0.00755194
0.00755179
0.00755161
0.00755137
0.00755107
0.00755069
0.00755022
0.00754963
0.00754889
0.00754796
0.0075468
0.00754535
0.00754355
0.00754129
0.00753849
0.007535
0.00753069
0.00752536
0.00751884
0.00751089
0.00750129
0.00748981
0.00747626
0.00746058
0.00744297
0.00742413
0.0136297
0.013659
0.0136861
0.0137101
0.0137309
0.0137484
0.0137631
0.0137753
0.0137853
0.0137934
0.0138
0.0138054
0.0138097
0.0138131
0.0138159
0.0138181
0.0138199
0.0138213
0.0138225
0.0138234
0.0138241
0.0138247
0.0138252
0.0138255
0.0138258
0.013826
0.0138262
0.0138263
0.0138264
0.0138264
0.0138264
0.0138264
0.0138263
0.0138262
0.013826
0.0138258
0.0138255
0.0138252
0.0138247
0.0138241
0.0138234
0.0138225
0.0138213
0.0138199
0.0138181
0.0138159
0.0138131
0.0138097
0.0138054
0.0138
0.0137934
0.0137853
0.0137753
0.0137631
0.0137484
0.0137309
0.0137101
0.0136861
0.013659
0.0136297
0.0220419
0.0220815
0.0221176
0.0221496
0.0221772
0.0222005
0.02222
0.0222362
0.0222495
0.0222603
0.0222691
0.0222762
0.0222819
0.0222865
0.0222902
0.0222932
0.0222956
0.0222975
0.022299
0.0223002
0.0223012
0.022302
0.0223026
0.0223031
0.0223034
0.0223037
0.022304
0.0223041
0.0223042
0.0223043
0.0223043
0.0223042
0.0223041
0.022304
0.0223037
0.0223034
0.0223031
0.0223026
0.022302
0.0223012
0.0223002
0.022299
0.0222975
0.0222956
0.0222932
0.0222902
0.0222865
0.0222819
0.0222762
0.0222691
0.0222603
0.0222495
0.0222362
0.02222
0.0222005
0.0221772
0.0221496
0.0221176
0.0220815
0.0220419
0.0320401
0.0320881
0.0321316
0.0321699
0.0322028
0.0322307
0.032254
0.0322734
0.0322892
0.0323022
0.0323127
0.0323212
0.0323281
0.0323336
0.0323381
0.0323416
0.0323445
0.0323468
0.0323486
0.0323501
0.0323513
0.0323522
0.032353
0.0323536
0.032354
0.0323544
0.0323546
0.0323548
0.032355
0.032355
0.032355
0.032355
0.0323548
0.0323546
0.0323544
0.032354
0.0323536
0.032353
0.0323522
0.0323513
0.0323501
0.0323486
0.0323468
0.0323445
0.0323416
0.0323381
0.0323336
0.0323281
0.0323212
0.0323127
0.0323022
0.0322892
0.0322734
0.032254
0.0322307
0.0322028
0.0321699
0.0321316
0.0320881
0.0320401
0.042888
0.0429427
0.0429917
0.0430347
0.0430716
0.0431029
0.043129
0.0431507
0.0431685
0.0431831
0.043195
0.0432045
0.0432123
0.0432185
0.0432235
0.0432275
0.0432308
0.0432334
0.0432354
0.0432371
0.0432384
0.0432395
0.0432403
0.043241
0.0432415
0.043242
0.0432423
0.0432425
0.0432426
0.0432427
0.0432427
0.0432426
0.0432425
0.0432423
0.043242
0.0432415
0.043241
0.0432403
0.0432395
0.0432384
0.0432371
0.0432354
0.0432334
0.0432308
0.0432275
0.0432235
0.0432185
0.0432123
0.0432045
0.043195
0.0431831
0.0431685
0.0431507
0.043129
0.0431029
0.0430716
0.0430347
0.0429917
0.0429427
0.042888
0.0540771
0.0541374
0.0541908
0.0542375
0.0542777
0.0543116
0.0543401
0.0543637
0.0543831
0.054399
0.0544119
0.0544223
0.0544308
0.0544376
0.0544431
0.0544475
0.054451
0.0544539
0.0544562
0.054458
0.0544595
0.0544606
0.0544616
0.0544623
0.0544629
0.0544633
0.0544637
0.0544639
0.0544641
0.0544642
0.0544642
0.0544641
0.0544639
0.0544637
0.0544633
0.0544629
0.0544623
0.0544616
0.0544606
0.0544595
0.054458
0.0544562
0.0544539
0.054451
0.0544475
0.0544431
0.0544376
0.0544308
0.0544223
0.0544119
0.054399
0.0543831
0.0543637
0.0543401
0.0543116
0.0542777
0.0542375
0.0541908
0.0541374
0.0540771
0.0653826
0.0654481
0.0655056
0.0655558
0.0655988
0.0656353
0.0656658
0.0656912
0.0657121
0.0657292
0.0657431
0.0657544
0.0657635
0.0657709
0.0657768
0.0657816
0.0657854
0.0657885
0.065791
0.065793
0.0657946
0.0657959
0.0657969
0.0657977
0.0657983
0.0657988
0.0657992
0.0657995
0.0657996
0.0657997
0.0657997
0.0657996
0.0657995
0.0657992
0.0657988
0.0657983
0.0657977
0.0657969
0.0657959
0.0657946
0.065793
0.065791
0.0657885
0.0657854
0.0657816
0.0657768
0.0657709
0.0657635
0.0657544
0.0657431
0.0657292
0.0657121
0.0656912
0.0656658
0.0656353
0.0655988
0.0655558
0.0655056
0.0654481
0.0653826
0.0767542
0.0768246
0.0768862
0.0769399
0.0769859