/*--------------------------------*- C++ -*----------------------------------*\
| =========                 |                                                 |
| \\      /  F ield         | foam-extend: Open Source CFD                    |
|  \\    /   O peration     | Version:     4.0                                |
|   \\  /    A nd           | Web:         http://www.foam-extend.org         |
|    \\/     M anipulation  |                                                 |
\*---------------------------------------------------------------------------*/
FoamFile
{
    version     2.0;
    format      ascii;
    class       volVectorField;
    location    "9";
    object      bodyForce;
}
// * * * * * * * * * * * * * * * * * * * * * * * * * * * * * * * * * * * * * //

dimensions      [0 -1 0 0 0 0 0];

internalField   nonuniform List<vector> 
6960
(
(3.90859e-05 -1.03519e+09 -0)
(5.71102e-05 -1.03519e+09 -0)
(1.76647e-05 -1.03519e+09 -0)
(2.28859e-08 -1.03519e+09 -0)
(4.90413e-07 -1.03519e+09 -0)
(1.6674e-07 -1.03519e+09 -0)
(7.19272e-08 -1.03519e+09 -0)
(9.80825e-09 -1.03519e+09 -0)
(-1.96165e-08 -1.03519e+09 -0)
(-3.26942e-08 -1.03519e+09 -0)
(-6.21189e-08 -1.03519e+09 -0)
(-7.19272e-08 -1.03519e+09 -0)
(-7.8466e-08 -1.03519e+09 -0)
(-8.17354e-08 -1.03519e+09 -0)
(-8.17354e-08 -1.03519e+09 -0)
(-8.82743e-08 -1.03519e+09 -0)
(-8.17354e-08 -1.03519e+09 -0)
(-8.82743e-08 -1.03519e+09 -0)
(-8.17354e-08 -1.03519e+09 -0)
(-6.86578e-08 -1.03519e+09 -0)
(-7.19272e-08 -1.03519e+09 -0)
(-6.53883e-08 -1.03519e+09 -0)
(-5.55801e-08 -1.03519e+09 -0)
(-5.55801e-08 -1.03519e+09 -0)
(-4.90413e-08 -1.03519e+09 -0)
(-4.25024e-08 -1.03519e+09 -0)
(-2.61553e-08 -1.03519e+09 -0)
(-1.63471e-08 -1.03519e+09 -0)
(-1.30777e-08 -1.03519e+09 -0)
(-6.53883e-09 -1.03519e+09 -0)
(6.53883e-09 -1.03519e+09 -0)
(2.28859e-08 -1.03519e+09 -0)
(1.96165e-08 -1.03519e+09 -0)
(2.28859e-08 -1.03519e+09 -0)
(3.59636e-08 -1.03519e+09 -0)
(4.25024e-08 -1.03519e+09 -0)
(5.55801e-08 -1.03519e+09 -0)
(7.19272e-08 -1.03519e+09 -0)
(7.8466e-08 -1.03519e+09 -0)
(6.86578e-08 -1.03519e+09 -0)
(6.86578e-08 -1.03519e+09 -0)
(8.50048e-08 -1.03519e+09 -0)
(9.48131e-08 -1.03519e+09 -0)
(9.48131e-08 -1.03519e+09 -0)
(8.17354e-08 -1.03519e+09 -0)
(7.51966e-08 -1.03519e+09 -0)
(7.51966e-08 -1.03519e+09 -0)
(7.19272e-08 -1.03519e+09 -0)
(6.86578e-08 -1.03519e+09 -0)
(6.53883e-08 -1.03519e+09 -0)
(4.25024e-08 -1.03519e+09 -0)
(1.30777e-08 -1.03519e+09 -0)
(-1.63471e-08 -1.03519e+09 -0)
(-9.48131e-08 -1.03519e+09 -0)
(-1.7001e-07 -1.03519e+09 -0)
(-4.74065e-07 -1.03519e+09 -0)
(-2.28859e-08 -1.03519e+09 -0)
(-1.76745e-05 -1.03519e+09 -0)
(-5.71232e-05 -1.03519e+09 -0)
(-3.90957e-05 -1.03519e+09 -0)
(0.000124342 -2.19605e+08 -0)
(0.00018053 -2.19605e+08 -0)
(5.4616e-05 -2.19605e+08 -0)
(-3.14533e-07 -2.19605e+08 -0)
(1.55586e-06 -2.19605e+08 -0)
(4.9461e-07 -2.19605e+08 -0)
(2.353e-07 -2.19605e+08 -0)
(3.60153e-08 -2.19605e+08 -0)
(-5.76245e-08 -2.19605e+08 -0)
(-1.34457e-07 -2.19605e+08 -0)
(-1.84878e-07 -2.19605e+08 -0)
(-2.23295e-07 -2.19605e+08 -0)
(-2.66513e-07 -2.19605e+08 -0)
(-2.68914e-07 -2.19605e+08 -0)
(-2.5931e-07 -2.19605e+08 -0)
(-3.00127e-07 -2.19605e+08 -0)
(-2.92924e-07 -2.19605e+08 -0)
(-2.78518e-07 -2.19605e+08 -0)
(-2.73716e-07 -2.19605e+08 -0)
(-2.37701e-07 -2.19605e+08 -0)
(-2.353e-07 -2.19605e+08 -0)
(-2.25696e-07 -2.19605e+08 -0)
(-2.1129e-07 -2.19605e+08 -0)
(-1.94483e-07 -2.19605e+08 -0)
(-1.75274e-07 -2.19605e+08 -0)
(-1.32056e-07 -2.19605e+08 -0)
(-9.60408e-08 -2.19605e+08 -0)
(-5.28224e-08 -2.19605e+08 -0)
(-2.64112e-08 -2.19605e+08 -0)
(-2.88122e-08 -2.19605e+08 -0)
(2.88122e-08 -2.19605e+08 -0)
(5.76245e-08 -2.19605e+08 -0)
(6.24265e-08 -2.19605e+08 -0)
(1.03244e-07 -2.19605e+08 -0)
(1.27254e-07 -2.19605e+08 -0)
(1.53665e-07 -2.19605e+08 -0)
(1.87279e-07 -2.19605e+08 -0)
(2.32899e-07 -2.19605e+08 -0)
(2.44904e-07 -2.19605e+08 -0)
(2.40102e-07 -2.19605e+08 -0)
(2.52107e-07 -2.19605e+08 -0)
(2.85721e-07 -2.19605e+08 -0)
(3.00127e-07 -2.19605e+08 -0)
(2.95325e-07 -2.19605e+08 -0)
(2.90523e-07 -2.19605e+08 -0)
(2.73716e-07 -2.19605e+08 -0)
(2.32899e-07 -2.19605e+08 -0)
(2.25696e-07 -2.19605e+08 -0)
(2.353e-07 -2.19605e+08 -0)
(2.08889e-07 -2.19605e+08 -0)
(1.4166e-07 -2.19605e+08 -0)
(4.56194e-08 -2.19605e+08 -0)
(-6.72285e-08 -2.19605e+08 -0)
(-2.76117e-07 -2.19605e+08 -0)
(-4.99412e-07 -2.19605e+08 -0)
(-1.52705e-06 -2.19605e+08 -0)
(3.14533e-07 -2.19605e+08 -0)
(-5.46496e-05 -2.19605e+08 -0)
(-0.000180564 -2.19605e+08 -0)
(-0.000124356 -2.19605e+08 -0)
(0.000161259 -7.68673e+07 -0)
(0.000229971 -7.68673e+07 -0)
(6.68526e-05 -7.68673e+07 -0)
(-2.22266e-07 -7.68673e+07 -0)
(1.99545e-06 -7.68673e+07 -0)
(6.07527e-07 -7.68673e+07 -0)
(3.06233e-07 -7.68673e+07 -0)
(4.93924e-08 -7.68673e+07 -0)
(-8.39671e-08 -7.68673e+07 -0)
(-1.70404e-07 -7.68673e+07 -0)
(-2.34614e-07 -7.68673e+07 -0)
(-2.88946e-07 -7.68673e+07 -0)
(-3.43277e-07 -7.68673e+07 -0)
(-3.48217e-07 -7.68673e+07 -0)
(-3.35868e-07 -7.68673e+07 -0)
(-3.87731e-07 -7.68673e+07 -0)
(-3.80322e-07 -7.68673e+07 -0)
(-3.63034e-07 -7.68673e+07 -0)
(-3.50686e-07 -7.68673e+07 -0)
(-3.13642e-07 -7.68673e+07 -0)
(-3.06233e-07 -7.68673e+07 -0)
(-2.93885e-07 -7.68673e+07 -0)
(-2.74128e-07 -7.68673e+07 -0)
(-2.54371e-07 -7.68673e+07 -0)
(-2.27205e-07 -7.68673e+07 -0)
(-1.70404e-07 -7.68673e+07 -0)
(-1.2842e-07 -7.68673e+07 -0)
(-7.1619e-08 -7.68673e+07 -0)
(-3.95139e-08 -7.68673e+07 -0)
(-3.21051e-08 -7.68673e+07 -0)
(3.95139e-08 -7.68673e+07 -0)
(7.1619e-08 -7.68673e+07 -0)
(8.64367e-08 -7.68673e+07 -0)
(1.3089e-07 -7.68673e+07 -0)
(1.60525e-07 -7.68673e+07 -0)
(2.00039e-07 -7.68673e+07 -0)
(2.56841e-07 -7.68673e+07 -0)
(2.96355e-07 -7.68673e+07 -0)
(3.11172e-07 -7.68673e+07 -0)
(3.16111e-07 -7.68673e+07 -0)
(3.33399e-07 -7.68673e+07 -0)
(3.67974e-07 -7.68673e+07 -0)
(3.9267e-07 -7.68673e+07 -0)
(3.77852e-07 -7.68673e+07 -0)
(3.80322e-07 -7.68673e+07 -0)
(3.50686e-07 -7.68673e+07 -0)
(3.08703e-07 -7.68673e+07 -0)
(2.93885e-07 -7.68673e+07 -0)
(2.96355e-07 -7.68673e+07 -0)
(2.64249e-07 -7.68673e+07 -0)
(1.82752e-07 -7.68673e+07 -0)
(5.68013e-08 -7.68673e+07 -0)
(-7.90279e-08 -7.68673e+07 -0)
(-3.50686e-07 -7.68673e+07 -0)
(-6.24814e-07 -7.68673e+07 -0)
(-1.96335e-06 -7.68673e+07 -0)
(2.29675e-07 -7.68673e+07 -0)
(-6.68922e-05 -7.68673e+07 -0)
(-0.000230021 -7.68673e+07 -0)
(-0.000161279 -7.68673e+07 -0)
(0.000170484 -3.3122e+07 -0)
(0.000241872 -3.3122e+07 -0)
(6.96739e-05 -3.3122e+07 -0)
(4.54541e-08 -3.3122e+07 -0)
(2.12461e-06 -3.3122e+07 -0)
(6.34892e-07 -3.3122e+07 -0)
(3.26976e-07 -3.3122e+07 -0)
(4.98529e-08 -3.3122e+07 -0)
(-8.50432e-08 -3.3122e+07 -0)
(-1.84749e-07 -3.3122e+07 -0)
(-2.47798e-07 -3.3122e+07 -0)
(-3.04983e-07 -3.3122e+07 -0)
(-3.65099e-07 -3.3122e+07 -0)
(-3.69498e-07 -3.3122e+07 -0)
(-3.57768e-07 -3.3122e+07 -0)
(-4.13486e-07 -3.3122e+07 -0)
(-4.10553e-07 -3.3122e+07 -0)
(-3.8856e-07 -3.3122e+07 -0)
(-3.69498e-07 -3.3122e+07 -0)
(-3.3724e-07 -3.3122e+07 -0)
(-3.31375e-07 -3.3122e+07 -0)
(-3.1378e-07 -3.3122e+07 -0)
(-2.9032e-07 -3.3122e+07 -0)
(-2.71259e-07 -3.3122e+07 -0)
(-2.434e-07 -3.3122e+07 -0)
(-1.84749e-07 -3.3122e+07 -0)
(-1.34896e-07 -3.3122e+07 -0)
(-7.91782e-08 -3.3122e+07 -0)
(-3.95891e-08 -3.3122e+07 -0)
(-3.3724e-08 -3.3122e+07 -0)
(3.95891e-08 -3.3122e+07 -0)
(7.62456e-08 -3.3122e+07 -0)
(9.38408e-08 -3.3122e+07 -0)
(1.37829e-07 -3.3122e+07 -0)
(1.71553e-07 -3.3122e+07 -0)
(2.18473e-07 -3.3122e+07 -0)
(2.77124e-07 -3.3122e+07 -0)
(3.15246e-07 -3.3122e+07 -0)
(3.2551e-07 -3.3122e+07 -0)
(3.38707e-07 -3.3122e+07 -0)
(3.56302e-07 -3.3122e+07 -0)
(3.94425e-07 -3.3122e+07 -0)
(4.19351e-07 -3.3122e+07 -0)
(4.04688e-07 -3.3122e+07 -0)
(4.07621e-07 -3.3122e+07 -0)
(3.75363e-07 -3.3122e+07 -0)
(3.24044e-07 -3.3122e+07 -0)
(3.15246e-07 -3.3122e+07 -0)
(3.12314e-07 -3.3122e+07 -0)
(2.74191e-07 -3.3122e+07 -0)
(1.97945e-07 -3.3122e+07 -0)
(6.1583e-08 -3.3122e+07 -0)
(-8.35769e-08 -3.3122e+07 -0)
(-3.69498e-07 -3.3122e+07 -0)
(-6.52487e-07 -3.3122e+07 -0)
(-2.09529e-06 -3.3122e+07 -0)
(-3.51903e-08 -3.3122e+07 -0)
(-6.9709e-05 -3.3122e+07 -0)
(-0.000241927 -3.3122e+07 -0)
(-0.000170506 -3.3122e+07 -0)
(0.000160683 -1.57637e+07 -0)
(0.000228122 -1.57637e+07 -0)
(6.61594e-05 -1.57637e+07 -0)
(4.19113e-07 -1.57637e+07 -0)
(2.04445e-06 -1.57637e+07 -0)
(6.00326e-07 -1.57637e+07 -0)
(3.11314e-07 -1.57637e+07 -0)
(4.83234e-08 -1.57637e+07 -0)
(-8.17781e-08 -1.57637e+07 -0)
(-1.73779e-07 -1.57637e+07 -0)
(-2.34183e-07 -1.57637e+07 -0)
(-2.92728e-07 -1.57637e+07 -0)
(-3.47557e-07 -1.57637e+07 -0)
(-3.50345e-07 -1.57637e+07 -0)
(-3.42911e-07 -1.57637e+07 -0)
(-3.94951e-07 -1.57637e+07 -0)
(-3.90305e-07 -1.57637e+07 -0)
(-3.6986e-07 -1.57637e+07 -0)
(-3.52203e-07 -1.57637e+07 -0)
(-3.19678e-07 -1.57637e+07 -0)
(-3.1689e-07 -1.57637e+07 -0)
(-2.99234e-07 -1.57637e+07 -0)
(-2.7786e-07 -1.57637e+07 -0)
(-2.58345e-07 -1.57637e+07 -0)
(-2.33253e-07 -1.57637e+07 -0)
(-1.74708e-07 -1.57637e+07 -0)
(-1.29172e-07 -1.57637e+07 -0)
(-7.62023e-08 -1.57637e+07 -0)
(-3.90305e-08 -1.57637e+07 -0)
(-3.15961e-08 -1.57637e+07 -0)
(3.81012e-08 -1.57637e+07 -0)
(7.24851e-08 -1.57637e+07 -0)
(8.82832e-08 -1.57637e+07 -0)
(1.3196e-07 -1.57637e+07 -0)
(1.63556e-07 -1.57637e+07 -0)
(2.12809e-07 -1.57637e+07 -0)
(2.6392e-07 -1.57637e+07 -0)
(2.97375e-07 -1.57637e+07 -0)
(3.10385e-07 -1.57637e+07 -0)
(3.23395e-07 -1.57637e+07 -0)
(3.40123e-07 -1.57637e+07 -0)
(3.76365e-07 -1.57637e+07 -0)
(3.98668e-07 -1.57637e+07 -0)
(3.84729e-07 -1.57637e+07 -0)
(3.87517e-07 -1.57637e+07 -0)
(3.57779e-07 -1.57637e+07 -0)
(3.10385e-07 -1.57637e+07 -0)
(3.02021e-07 -1.57637e+07 -0)
(2.95516e-07 -1.57637e+07 -0)
(2.61132e-07 -1.57637e+07 -0)
(1.87718e-07 -1.57637e+07 -0)
(5.9475e-08 -1.57637e+07 -0)
(-7.89902e-08 -1.57637e+07 -0)
(-3.53133e-07 -1.57637e+07 -0)
(-6.17982e-07 -1.57637e+07 -0)
(-2.0175e-06 -1.57637e+07 -0)
(-4.0982e-07 -1.57637e+07 -0)
(-6.61929e-05 -1.57637e+07 -0)
(-0.000228174 -1.57637e+07 -0)
(-0.000160703 -1.57637e+07 -0)
(0.000139034 -7.90154e+06 -0)
(0.000197984 -7.90154e+06 -0)
(5.8222e-05 -7.90154e+06 -0)
(7.88476e-07 -7.90154e+06 -0)
(1.81961e-06 -7.90154e+06 -0)
(5.27668e-07 -7.90154e+06 -0)
(2.72911e-07 -7.90154e+06 -0)
(4.29638e-08 -7.90154e+06 -0)
(-7.14046e-08 -7.90154e+06 -0)
(-1.50071e-07 -7.90154e+06 -0)
(-2.03927e-07 -7.90154e+06 -0)
(-2.54757e-07 -7.90154e+06 -0)
(-3.03167e-07 -7.90154e+06 -0)
(-3.04982e-07 -7.90154e+06 -0)
(-3.01957e-07 -7.90154e+06 -0)
(-3.46736e-07 -7.90154e+06 -0)
(-3.39474e-07 -7.90154e+06 -0)
(-3.21321e-07 -7.90154e+06 -0)
(-3.06798e-07 -7.90154e+06 -0)
(-2.80172e-07 -7.90154e+06 -0)
(-2.76541e-07 -7.90154e+06 -0)
(-2.60808e-07 -7.90154e+06 -0)
(-2.42654e-07 -7.90154e+06 -0)
(-2.26921e-07 -7.90154e+06 -0)
(-2.05137e-07 -7.90154e+06 -0)
(-1.53701e-07 -7.90154e+06 -0)
(-1.09527e-07 -7.90154e+06 -0)
(-6.65636e-08 -7.90154e+06 -0)
(-3.63074e-08 -7.90154e+06 -0)
(-2.60203e-08 -7.90154e+06 -0)
(3.26767e-08 -7.90154e+06 -0)
(6.3538e-08 -7.90154e+06 -0)
(7.98763e-08 -7.90154e+06 -0)
(1.13763e-07 -7.90154e+06 -0)
(1.41599e-07 -7.90154e+06 -0)
(1.86378e-07 -7.90154e+06 -0)
(2.31157e-07 -7.90154e+06 -0)
(2.60808e-07 -7.90154e+06 -0)
(2.6928e-07 -7.90154e+06 -0)
(2.81382e-07 -7.90154e+06 -0)
(2.98931e-07 -7.90154e+06 -0)
(3.28582e-07 -7.90154e+06 -0)
(3.46131e-07 -7.90154e+06 -0)
(3.36449e-07 -7.90154e+06 -0)
(3.39474e-07 -7.90154e+06 -0)
(3.12244e-07 -7.90154e+06 -0)
(2.717e-07 -7.90154e+06 -0)
(2.65044e-07 -7.90154e+06 -0)
(2.57177e-07 -7.90154e+06 -0)
(2.28132e-07 -7.90154e+06 -0)
(1.62173e-07 -7.90154e+06 -0)
(5.08304e-08 -7.90154e+06 -0)
(-6.83789e-08 -7.90154e+06 -0)
(-3.10428e-07 -7.90154e+06 -0)
(-5.44611e-07 -7.90154e+06 -0)
(-1.79661e-06 -7.90154e+06 -0)
(-7.77584e-07 -7.90154e+06 -0)
(-5.82522e-05 -7.90154e+06 -0)
(-0.000198032 -7.90154e+06 -0)
(-0.000139053 -7.90154e+06 -0)
(0.000112265 -4.09227e+06 -0)
(0.00016052 -4.09227e+06 -0)
(4.80469e-05 -4.09227e+06 -0)
(1.05472e-06 -4.09227e+06 -0)
(1.51929e-06 -4.09227e+06 -0)
(4.40327e-07 -4.09227e+06 -0)
(2.2533e-07 -4.09227e+06 -0)
(3.6164e-08 -4.09227e+06 -0)
(-5.88162e-08 -4.09227e+06 -0)
(-1.22401e-07 -4.09227e+06 -0)
(-1.65321e-07 -4.09227e+06 -0)
(-2.08241e-07 -4.09227e+06 -0)
(-2.47187e-07 -4.09227e+06 -0)
(-2.48379e-07 -4.09227e+06 -0)
(-2.46392e-07 -4.09227e+06 -0)
(-2.80569e-07 -4.09227e+06 -0)
(-2.75403e-07 -4.09227e+06 -0)
(-2.61096e-07 -4.09227e+06 -0)
(-2.49174e-07 -4.09227e+06 -0)
(-2.27317e-07 -4.09227e+06 -0)
(-2.2374e-07 -4.09227e+06 -0)
(-2.12215e-07 -4.09227e+06 -0)
(-1.96716e-07 -4.09227e+06 -0)
(-1.83205e-07 -4.09227e+06 -0)
(-1.66116e-07 -4.09227e+06 -0)
(-1.25581e-07 -4.09227e+06 -0)
(-8.90191e-08 -4.09227e+06 -0)
(-5.32525e-08 -4.09227e+06 -0)
(-2.94081e-08 -4.09227e+06 -0)
(-2.22548e-08 -4.09227e+06 -0)
(2.62288e-08 -4.09227e+06 -0)
(5.16629e-08 -4.09227e+06 -0)
(6.51747e-08 -4.09227e+06 -0)
(9.3788e-08 -4.09227e+06 -0)
(1.15645e-07 -4.09227e+06 -0)
(1.5022e-07 -4.09227e+06 -0)
(1.87576e-07 -4.09227e+06 -0)
(2.11023e-07 -4.09227e+06 -0)
(2.18574e-07 -4.09227e+06 -0)
(2.29304e-07 -4.09227e+06 -0)
(2.42816e-07 -4.09227e+06 -0)
(2.65468e-07 -4.09227e+06 -0)
(2.81761e-07 -4.09227e+06 -0)
(2.73416e-07 -4.09227e+06 -0)
(2.75005e-07 -4.09227e+06 -0)
(2.5434e-07 -4.09227e+06 -0)
(2.22548e-07 -4.09227e+06 -0)
(2.13407e-07 -4.09227e+06 -0)
(2.07844e-07 -4.09227e+06 -0)
(1.83999e-07 -4.09227e+06 -0)
(1.32734e-07 -4.09227e+06 -0)
(4.41121e-08 -4.09227e+06 -0)
(-5.56369e-08 -4.09227e+06 -0)
(-2.5593e-07 -4.09227e+06 -0)
(-4.53441e-07 -4.09227e+06 -0)
(-1.5022e-06 -4.09227e+06 -0)
(-1.04518e-06 -4.09227e+06 -0)
(-4.80683e-05 -4.09227e+06 -0)
(-0.000160561 -4.09227e+06 -0)
(-0.000112281 -4.09227e+06 -0)
(8.57911e-05 -2.1805e+06 -0)
(0.000123259 -2.1805e+06 -0)
(3.76468e-05 -2.1805e+06 -0)
(1.18212e-06 -2.1805e+06 -0)
(1.21061e-06 -2.1805e+06 -0)
(3.5022e-07 -2.1805e+06 -0)
(1.77201e-07 -2.1805e+06 -0)
(2.7704e-08 -2.1805e+06 -0)
(-4.49536e-08 -2.1805e+06 -0)
(-9.38276e-08 -2.1805e+06 -0)
(-1.27543e-07 -2.1805e+06 -0)
(-1.59428e-07 -2.1805e+06 -0)
(-1.90791e-07 -2.1805e+06 -0)
(-1.91053e-07 -2.1805e+06 -0)
(-1.88439e-07 -2.1805e+06 -0)
(-2.16143e-07 -2.1805e+06 -0)
(-2.10916e-07 -2.1805e+06 -0)
(-1.99678e-07 -2.1805e+06 -0)
(-1.91053e-07 -2.1805e+06 -0)
(-1.74326e-07 -2.1805e+06 -0)
(-1.70928e-07 -2.1805e+06 -0)
(-1.62303e-07 -2.1805e+06 -0)
(-1.50804e-07 -2.1805e+06 -0)
(-1.40088e-07 -2.1805e+06 -0)
(-1.26759e-07 -2.1805e+06 -0)
(-9.56571e-08 -2.1805e+06 -0)
(-6.84758e-08 -2.1805e+06 -0)
(-3.99878e-08 -2.1805e+06 -0)
(-2.19541e-08 -2.1805e+06 -0)
(-1.72496e-08 -2.1805e+06 -0)
(2.01246e-08 -2.1805e+06 -0)
(3.94651e-08 -2.1805e+06 -0)
(5.04421e-08 -2.1805e+06 -0)
(7.10894e-08 -2.1805e+06 -0)
(8.7555e-08 -2.1805e+06 -0)
(1.1552e-07 -2.1805e+06 -0)
(1.43747e-07 -2.1805e+06 -0)
(1.61258e-07 -2.1805e+06 -0)
(1.67008e-07 -2.1805e+06 -0)
(1.75371e-07 -2.1805e+06 -0)
(1.86348e-07 -2.1805e+06 -0)
(2.03859e-07 -2.1805e+06 -0)
(2.15098e-07 -2.1805e+06 -0)
(2.10393e-07 -2.1805e+06 -0)
(2.11439e-07 -2.1805e+06 -0)
(1.94973e-07 -2.1805e+06 -0)
(1.70928e-07 -2.1805e+06 -0)
(1.64133e-07 -2.1805e+06 -0)
(1.60213e-07 -2.1805e+06 -0)
(1.42179e-07 -2.1805e+06 -0)
(1.0193e-07 -2.1805e+06 -0)
(3.29311e-08 -2.1805e+06 -0)
(-4.44309e-08 -2.1805e+06 -0)
(-2.002e-07 -2.1805e+06 -0)
(-3.60674e-07 -2.1805e+06 -0)
(-1.19676e-06 -2.1805e+06 -0)
(-1.17454e-06 -2.1805e+06 -0)
(-3.76646e-05 -2.1805e+06 -0)
(-0.000123291 -2.1805e+06 -0)
(-8.58026e-05 -2.1805e+06 -0)
(6.29666e-05 -1.19929e+06 -0)
(9.09589e-05 -1.19929e+06 -0)
(2.84098e-05 -1.19929e+06 -0)
(1.18819e-06 -1.19929e+06 -0)
(9.33886e-07 -1.19929e+06 -0)
(2.70145e-07 -1.19929e+06 -0)
(1.33265e-07 -1.19929e+06 -0)
(2.20386e-08 -1.19929e+06 -0)
(-3.32301e-08 -1.19929e+06 -0)
(-6.93872e-08 -1.19929e+06 -0)
(-9.41807e-08 -1.19929e+06 -0)
(-1.17941e-07 -1.19929e+06 -0)
(-1.40668e-07 -1.19929e+06 -0)
(-1.41185e-07 -1.19929e+06 -0)
(-1.38947e-07 -1.19929e+06 -0)
(-1.58747e-07 -1.19929e+06 -0)
(-1.54787e-07 -1.19929e+06 -0)
(-1.46522e-07 -1.19929e+06 -0)
(-1.39635e-07 -1.19929e+06 -0)
(-1.27239e-07 -1.19929e+06 -0)
(-1.25e-07 -1.19929e+06 -0)
(-1.19146e-07 -1.19929e+06 -0)
(-1.10365e-07 -1.19929e+06 -0)
(-1.02445e-07 -1.19929e+06 -0)
(-9.38363e-08 -1.19929e+06 -0)
(-6.95594e-08 -1.19929e+06 -0)
(-4.95869e-08 -1.19929e+06 -0)
(-2.97866e-08 -1.19929e+06 -0)
(-1.58403e-08 -1.19929e+06 -0)
(-1.30854e-08 -1.19929e+06 -0)
(1.4635e-08 -1.19929e+06 -0)
(2.97866e-08 -1.19929e+06 -0)
(3.71902e-08 -1.19929e+06 -0)
(5.1653e-08 -1.19929e+06 -0)
(6.37054e-08 -1.19929e+06 -0)
(8.50553e-08 -1.19929e+06 -0)
(1.05716e-07 -1.19929e+06 -0)
(1.17941e-07 -1.19929e+06 -0)
(1.2259e-07 -1.19929e+06 -0)
(1.28788e-07 -1.19929e+06 -0)
(1.36708e-07 -1.19929e+06 -0)
(1.49105e-07 -1.19929e+06 -0)
(1.57886e-07 -1.19929e+06 -0)
(1.54615e-07 -1.19929e+06 -0)
(1.5582e-07 -1.19929e+06 -0)
(1.43595e-07 -1.19929e+06 -0)
(1.25861e-07 -1.19929e+06 -0)
(1.20352e-07 -1.19929e+06 -0)
(1.18113e-07 -1.19929e+06 -0)
(1.052e-07 -1.19929e+06 -0)
(7.47247e-08 -1.19929e+06 -0)
(2.44491e-08 -1.19929e+06 -0)
(-3.39188e-08 -1.19929e+06 -0)
(-1.51171e-07 -1.19929e+06 -0)
(-2.7841e-07 -1.19929e+06 -0)
(-9.23039e-07 -1.19929e+06 -0)
(-1.18165e-06 -1.19929e+06 -0)
(-2.84231e-05 -1.19929e+06 -0)
(-9.09833e-05 -1.19929e+06 -0)
(-6.2976e-05 -1.19929e+06 -0)
(4.51136e-05 -685426 -0)
(6.55599e-05 -685426 -0)
(2.09783e-05 -685426 -0)
(1.11422e-06 -685426 -0)
(7.08842e-07 -685426 -0)
(2.05203e-07 -685426 -0)
(9.89454e-08 -685426 -0)
(1.71384e-08 -685426 -0)
(-2.33082e-08 -685426 -0)
(-5.0044e-08 -685426 -0)
(-6.78679e-08 -685426 -0)
(-8.52348e-08 -685426 -0)
(-1.01688e-07 -685426 -0)
(-1.01459e-07 -685426 -0)
(-9.9631e-08 -685426 -0)
(-1.1357e-07 -685426 -0)
(-1.106e-07 -685426 -0)
(-1.04658e-07 -685426 -0)
(-9.98595e-08 -685426 -0)
(-9.04905e-08 -685426 -0)
(-8.86624e-08 -685426 -0)
(-8.50062e-08 -685426 -0)
(-7.9065e-08 -685426 -0)
(-7.31237e-08 -685426 -0)
(-6.64968e-08 -685426 -0)
(-4.9587e-08 -685426 -0)
(-3.49622e-08 -685426 -0)
(-2.07945e-08 -685426 -0)
(-1.16541e-08 -685426 -0)
(-9.36897e-09 -685426 -0)
(1.05115e-08 -685426 -0)
(2.10231e-08 -685426 -0)
(2.65073e-08 -685426 -0)
(3.72474e-08 -685426 -0)
(4.50167e-08 -685426 -0)
(6.05555e-08 -685426 -0)
(7.58658e-08 -685426 -0)
(8.40922e-08 -685426 -0)
(8.75199e-08 -685426 -0)
(9.23186e-08 -685426 -0)
(9.73459e-08 -685426 -0)
(1.06486e-07 -685426 -0)
(1.12885e-07 -685426 -0)
(1.10828e-07 -685426 -0)
(1.11514e-07 -685426 -0)
(1.03059e-07 -685426 -0)
(9.00335e-08 -685426 -0)
(8.61488e-08 -685426 -0)
(8.50063e-08 -685426 -0)
(7.58658e-08 -685426 -0)
(5.39287e-08 -685426 -0)
(1.78239e-08 -685426 -0)
(-2.58218e-08 -685426 -0)
(-1.12199e-07 -685426 -0)
(-2.11602e-07 -685426 -0)
(-7.00616e-07 -685426 -0)
(-1.10965e-06 -685426 -0)
(-2.09881e-05 -685426 -0)
(-6.55775e-05 -685426 -0)
(-4.512e-05 -685426 -0)
(3.21041e-05 -410148 -0)
(4.69574e-05 -410148 -0)
(1.54188e-05 -410148 -0)
(1.00563e-06 -410148 -0)
(5.3912e-07 -410148 -0)
(1.57096e-07 -410148 -0)
(7.32291e-08 -410148 -0)
(1.31042e-08 -410148 -0)
(-1.64958e-08 -410148 -0)
(-3.56125e-08 -410148 -0)
(-4.87166e-08 -410148 -0)
(-6.08958e-08 -410148 -0)
(-7.27666e-08 -410148 -0)
(-7.19958e-08 -410148 -0)
(-7.04541e-08 -410148 -0)
(-8.09374e-08 -410148 -0)
(-7.89333e-08 -410148 -0)
(-7.43083e-08 -410148 -0)
(-7.09166e-08 -410148 -0)
(-6.39791e-08 -410148 -0)
(-6.22833e-08 -410148 -0)
(-6.01249e-08 -410148 -0)
(-5.58083e-08 -410148 -0)
(-5.14916e-08 -410148 -0)
(-4.73291e-08 -410148 -0)
(-3.515e-08 -410148 -0)
(-2.45125e-08 -410148 -0)
(-1.44917e-08 -410148 -0)
(-8.01666e-09 -410148 -0)
(-6.78333e-09 -410148 -0)
(7.24583e-09 -410148 -0)
(1.52625e-08 -410148 -0)
(1.88083e-08 -410148 -0)
(2.62083e-08 -410148 -0)
(3.16041e-08 -410148 -0)
(4.27041e-08 -410148 -0)
(5.41125e-08 -410148 -0)
(5.96624e-08 -410148 -0)
(6.16666e-08 -410148 -0)
(6.50583e-08 -410148 -0)
(6.90666e-08 -410148 -0)
(7.55416e-08 -410148 -0)
(8.01666e-08 -410148 -0)
(7.89333e-08 -410148 -0)
(7.97041e-08 -410148 -0)
(7.30749e-08 -410148 -0)
(6.38249e-08 -410148 -0)
(6.15124e-08 -410148 -0)
(6.02791e-08 -410148 -0)
(5.44208e-08 -410148 -0)
(3.885e-08 -410148 -0)
(1.26417e-08 -410148 -0)
(-1.9425e-08 -410148 -0)
(-8.37124e-08 -410148 -0)
(-1.60796e-07 -410148 -0)
(-5.33416e-07 -410148 -0)
(-1.00239e-06 -410148 -0)
(-1.54254e-05 -410148 -0)
(-4.6971e-05 -410148 -0)
(-3.21097e-05 -410148 -0)
(2.30815e-05 -258683 -0)
(3.3995e-05 -258683 -0)
(1.1469e-05 -258683 -0)
(8.95356e-07 -258683 -0)
(4.18445e-07 -258683 -0)
(1.22167e-07 -258683 -0)
(5.53652e-08 -258683 -0)
(1.03676e-08 -258683 -0)
(-1.20777e-08 -258683 -0)
(-2.56518e-08 -258683 -0)
(-3.49506e-08 -258683 -0)
(-4.40356e-08 -258683 -0)
(-5.26931e-08 -258683 -0)
(-5.18381e-08 -258683 -0)
(-5.07692e-08 -258683 -0)
(-5.80373e-08 -258683 -0)
(-5.65409e-08 -258683 -0)
(-5.32275e-08 -258683 -0)
(-5.07692e-08 -258683 -0)
(-4.54251e-08 -258683 -0)
(-4.41425e-08 -258683 -0)
(-4.27531e-08 -258683 -0)
(-3.99741e-08 -258683 -0)
(-3.68745e-08 -258683 -0)
(-3.38818e-08 -258683 -0)
(-2.50105e-08 -258683 -0)
(-1.71012e-08 -258683 -0)
(-1.04745e-08 -258683 -0)
(-5.87854e-09 -258683 -0)
(-4.70284e-09 -258683 -0)
(5.23725e-09 -258683 -0)
(1.0902e-08 -258683 -0)
(1.3681e-08 -258683 -0)
(1.84907e-08 -258683 -0)
(2.24454e-08 -258683 -0)
(3.05684e-08 -258683 -0)
(3.87984e-08 -258683 -0)
(4.2753e-08 -258683 -0)
(4.38219e-08 -258683 -0)
(4.63871e-08 -258683 -0)
(4.92729e-08 -258683 -0)
(5.38688e-08 -258683 -0)
(5.77166e-08 -258683 -0)
(5.70753e-08 -258683 -0)
(5.69684e-08 -258683 -0)
(5.24794e-08 -258683 -0)
(4.59595e-08 -258683 -0)
(4.39288e-08 -258683 -0)
(4.36081e-08 -258683 -0)
(3.96535e-08 -258683 -0)
(2.80032e-08 -258683 -0)
(9.08502e-09 -258683 -0)
(-1.52842e-08 -258683 -0)
(-6.29539e-08 -258683 -0)
(-1.25373e-07 -258683 -0)
(-4.1417e-07 -258683 -0)
(-8.92684e-07 -258683 -0)
(-1.14739e-05 -258683 -0)
(-3.40049e-05 -258683 -0)
(-2.30855e-05 -258683 -0)
(1.70008e-05 -172654 -0)
(2.52235e-05 -172654 -0)
(8.75316e-06 -172654 -0)
(8.01317e-07 -172654 -0)
(3.3522e-07 -172654 -0)
(9.82145e-08 -172654 -0)
(4.33435e-08 -172654 -0)
(8.60722e-09 -172654 -0)
(-8.60722e-09 -172654 -0)
(-1.88283e-08 -172654 -0)
(-2.60522e-08 -172654 -0)
(-3.2815e-08 -172654 -0)
(-3.88093e-08 -172654 -0)
(-3.81945e-08 -172654 -0)
(-3.75029e-08 -172654 -0)
(-4.28055e-08 -172654 -0)
(-4.14991e-08 -172654 -0)
(-3.88862e-08 -172654 -0)
(-3.73492e-08 -172654 -0)
(-3.31224e-08 -172654 -0)
(-3.19697e-08 -172654 -0)
(-3.13549e-08 -172654 -0)
(-2.93568e-08 -172654 -0)
(-2.68976e-08 -172654 -0)
(-2.48226e-08 -172654 -0)
(-1.82903e-08 -172654 -0)
(-1.24497e-08 -172654 -0)
(-7.37761e-09 -172654 -0)
(-4.14991e-09 -172654 -0)
(-3.61196e-09 -172654 -0)
(3.84251e-09 -172654 -0)
(8.14612e-09 -172654 -0)
(9.91367e-09 -172654 -0)
(1.34488e-08 -172654 -0)
(1.62922e-08 -172654 -0)
(2.21328e-08 -172654 -0)
(2.83577e-08 -172654 -0)
(3.14317e-08 -172654 -0)
(3.19697e-08 -172654 -0)
(3.41983e-08 -172654 -0)
(3.61964e-08 -172654 -0)
(3.92704e-08 -172654 -0)
(4.24213e-08 -172654 -0)
(4.19602e-08 -172654 -0)
(4.2037e-08 -172654 -0)
(3.86556e-08 -172654 -0)
(3.36604e-08 -172654 -0)
(3.24308e-08 -172654 -0)
(3.24308e-08 -172654 -0)
(2.96642e-08 -172654 -0)
(2.04421e-08 -172654 -0)
(6.30171e-09 -172654 -0)
(-1.20655e-08 -172654 -0)
(-4.90304e-08 -172654 -0)
(-1.00751e-07 -172654 -0)
(-3.3207e-07 -172654 -0)
(-7.99318e-07 -172654 -0)
(-8.75684e-06 -172654 -0)
(-2.52308e-05 -172654 -0)
(-1.70039e-05 -172654 -0)
(1.29342e-05 -121884 -0)
(1.93379e-05 -121884 -0)
(6.90834e-06 -121884 -0)
(7.29384e-07 -121884 -0)
(2.79974e-07 -121884 -0)
(8.25588e-08 -121884 -0)
(3.51191e-08 -121884 -0)
(7.31169e-09 -121884 -0)
(-6.27539e-09 -121884 -0)
(-1.41628e-08 -121884 -0)
(-1.98625e-08 -121884 -0)
(-2.51591e-08 -121884 -0)
(-2.99952e-08 -121884 -0)
(-2.92468e-08 -121884 -0)
(-2.83832e-08 -121884 -0)
(-3.25284e-08 -121884 -0)
(-3.13769e-08 -121884 -0)
(-2.96498e-08 -121884 -0)
(-2.82105e-08 -121884 -0)
(-2.51015e-08 -121884 -0)
(-2.40652e-08 -121884 -0)
(-2.36622e-08 -121884 -0)
(-2.21654e-08 -121884 -0)
(-2.02655e-08 -121884 -0)
(-1.8711e-08 -121884 -0)
(-1.37598e-08 -121884 -0)
(-9.44187e-09 -121884 -0)
(-5.64209e-09 -121884 -0)
(-3.05133e-09 -121884 -0)
(-2.7059e-09 -121884 -0)
(2.82105e-09 -121884 -0)
(6.27539e-09 -121884 -0)
(7.59955e-09 -121884 -0)
(9.96002e-09 -121884 -0)
(1.23205e-08 -121884 -0)
(1.68687e-08 -121884 -0)
(2.14745e-08 -121884 -0)
(2.3835e-08 -121884 -0)
(2.41228e-08 -121884 -0)
(2.585e-08 -121884 -0)
(2.7462e-08 -121884 -0)
(2.98225e-08 -121884 -0)
(3.21829e-08 -121884 -0)
(3.18375e-08 -121884 -0)
(3.19527e-08 -121884 -0)
(2.9477e-08 -121884 -0)
(2.57924e-08 -121884 -0)
(2.46985e-08 -121884 -0)
(2.4641e-08 -121884 -0)
(2.25684e-08 -121884 -0)
(1.57173e-08 -121884 -0)
(4.77851e-09 -121884 -0)
(-1.02479e-08 -121884 -0)
(-4.00128e-08 -121884 -0)
(-8.42859e-08 -121884 -0)
(-2.77384e-07 -121884 -0)
(-7.28118e-07 -121884 -0)
(-6.91099e-06 -121884 -0)
(-1.93438e-05 -121884 -0)
(-1.29368e-05 -121884 -0)
(1.01777e-05 -90502 -0)
(1.53386e-05 -90502 -0)
(5.64454e-06 -90502 -0)
(6.78177e-07 -90502 -0)
(2.43489e-07 -90502 -0)
(7.21714e-08 -90502 -0)
(2.99816e-08 -90502 -0)
(6.55287e-09 -90502 -0)
(-4.71268e-09 -90502 -0)
(-1.09963e-08 -90502 -0)
(-1.57538e-08 -90502 -0)
(-2.00177e-08 -90502 -0)
(-2.37429e-08 -90502 -0)
(-2.30697e-08 -90502 -0)
(-2.24413e-08 -90502 -0)
(-2.5628e-08 -90502 -0)
(-2.47752e-08 -90502 -0)
(-2.3339e-08 -90502 -0)
(-2.22618e-08 -90502 -0)
(-1.93893e-08 -90502 -0)
(-1.86712e-08 -90502 -0)
(-1.86263e-08 -90502 -0)
(-1.72798e-08 -90502 -0)
(-1.58436e-08 -90502 -0)
(-1.47215e-08 -90502 -0)
(-1.06821e-08 -90502 -0)
(-7.36076e-09 -90502 -0)
(-4.48827e-09 -90502 -0)
(-2.3339e-09 -90502 -0)
(-2.10949e-09 -90502 -0)
(2.37878e-09 -90502 -0)
(5.02686e-09 -90502 -0)
(5.74498e-09 -90502 -0)
(7.80959e-09 -90502 -0)
(9.69466e-09 -90502 -0)
(1.31057e-08 -90502 -0)
(1.69208e-08 -90502 -0)
(1.86712e-08 -90502 -0)
(1.86712e-08 -90502 -0)
(2.03319e-08 -90502 -0)
(2.16335e-08 -90502 -0)
(2.33839e-08 -90502 -0)
(2.53587e-08 -90502 -0)
(2.51343e-08 -90502 -0)
(2.51792e-08 -90502 -0)
(2.32941e-08 -90502 -0)
(2.0287e-08 -90502 -0)
(1.93444e-08 -90502 -0)
(1.9524e-08 -90502 -0)
(1.79531e-08 -90502 -0)
(1.24325e-08 -90502 -0)
(3.3662e-09 -90502 -0)
(-8.84189e-09 -90502 -0)
(-3.37967e-08 -90502 -0)
(-7.36525e-08 -90502 -0)
(-2.41693e-07 -90502 -0)
(-6.771e-07 -90502 -0)
(-5.64665e-06 -90502 -0)
(-1.53432e-05 -90502 -0)
(-1.01798e-05 -90502 -0)
(8.24865e-06 -70036.5 -0)
(1.25346e-05 -70036.5 -0)
(4.75377e-06 -70036.5 -0)
(6.42458e-07 -70036.5 -0)
(2.19606e-07 -70036.5 -0)
(6.54801e-08 -70036.5 -0)
(2.66771e-08 -70036.5 -0)
(6.26205e-09 -70036.5 -0)
(-3.54729e-09 -70036.5 -0)
(-9.01301e-09 -70036.5 -0)
(-1.27413e-08 -70036.5 -0)
(-1.64696e-08 -70036.5 -0)
(-1.95101e-08 -70036.5 -0)
(-1.86776e-08 -70036.5 -0)
(-1.83156e-08 -70036.5 -0)
(-2.09218e-08 -70036.5 -0)
(-1.99807e-08 -70036.5 -0)
(-1.88948e-08 -70036.5 -0)
(-1.80984e-08 -70036.5 -0)
(-1.5818e-08 -70036.5 -0)
(-1.49131e-08 -70036.5 -0)
(-1.49131e-08 -70036.5 -0)
(-1.40082e-08 -70036.5 -0)
(-1.28861e-08 -70036.5 -0)
(-1.18364e-08 -70036.5 -0)
(-8.57865e-09 -70036.5 -0)
(-5.90009e-09 -70036.5 -0)
(-3.61968e-09 -70036.5 -0)
(-1.88224e-09 -70036.5 -0)
(-1.77365e-09 -70036.5 -0)
(1.91843e-09 -70036.5 -0)
(4.12644e-09 -70036.5 -0)
(4.77798e-09 -70036.5 -0)
(6.18966e-09 -70036.5 -0)
(7.70993e-09 -70036.5 -0)
(1.06419e-08 -70036.5 -0)
(1.37186e-08 -70036.5 -0)
(1.51665e-08 -70036.5 -0)
(1.51303e-08 -70036.5 -0)
(1.64334e-08 -70036.5 -0)
(1.73745e-08 -70036.5 -0)
(1.90395e-08 -70036.5 -0)
(2.06322e-08 -70036.5 -0)
(2.04512e-08 -70036.5 -0)
(2.05598e-08 -70036.5 -0)
(1.89309e-08 -70036.5 -0)
(1.64696e-08 -70036.5 -0)
(1.57094e-08 -70036.5 -0)
(1.59628e-08 -70036.5 -0)
(1.47683e-08 -70036.5 -0)
(9.95413e-09 -70036.5 -0)
(2.56998e-09 -70036.5 -0)
(-8.14429e-09 -70036.5 -0)
(-2.98986e-08 -70036.5 -0)
(-6.66746e-08 -70036.5 -0)
(-2.18158e-07 -70036.5 -0)
(-6.41553e-07 -70036.5 -0)
(-4.75554e-06 -70036.5 -0)
(-1.25385e-05 -70036.5 -0)
(-8.25024e-06 -70036.5 -0)
(6.83885e-06 -55913.2 -0)
(1.04812e-05 -55913.2 -0)
(4.09812e-06 -55913.2 -0)
(6.17062e-07 -55913.2 -0)
(2.0382e-07 -55913.2 -0)
(6.1119e-08 -55913.2 -0)
(2.43877e-08 -55913.2 -0)
(6.14186e-09 -55913.2 -0)
(-2.63651e-09 -55913.2 -0)
(-7.37023e-09 -55913.2 -0)
(-1.06659e-08 -55913.2 -0)
(-1.37218e-08 -55913.2 -0)
(-1.63583e-08 -55913.2 -0)
(-1.56992e-08 -55913.2 -0)
(-1.53397e-08 -55913.2 -0)
(-1.74369e-08 -55913.2 -0)
(-1.66579e-08 -55913.2 -0)
(-1.57591e-08 -55913.2 -0)
(-1.50101e-08 -55913.2 -0)
(-1.30327e-08 -55913.2 -0)
(-1.24036e-08 -55913.2 -0)
(-1.23137e-08 -55913.2 -0)
(-1.15347e-08 -55913.2 -0)
(-1.06359e-08 -55913.2 -0)
(-9.91685e-09 -55913.2 -0)
(-7.04067e-09 -55913.2 -0)
(-4.79365e-09 -55913.2 -0)
(-2.90615e-09 -55913.2 -0)
(-1.46805e-09 -55913.2 -0)
(-1.49801e-09 -55913.2 -0)
(1.43809e-09 -55913.2 -0)
(3.44543e-09 -55913.2 -0)
(3.9248e-09 -55913.2 -0)
(5.15317e-09 -55913.2 -0)
(6.35158e-09 -55913.2 -0)
(8.7484e-09 -55913.2 -0)
(1.14748e-08 -55913.2 -0)
(1.26133e-08 -55913.2 -0)
(1.26133e-08 -55913.2 -0)
(1.3572e-08 -55913.2 -0)
(1.45008e-08 -55913.2 -0)
(1.57591e-08 -55913.2 -0)
(1.71373e-08 -55913.2 -0)
(1.69875e-08 -55913.2 -0)
(1.70474e-08 -55913.2 -0)
(1.5879e-08 -55913.2 -0)
(1.38417e-08 -55913.2 -0)
(1.30926e-08 -55913.2 -0)
(1.31825e-08 -55913.2 -0)
(1.24036e-08 -55913.2 -0)
(8.38888e-09 -55913.2 -0)
(1.82758e-09 -55913.2 -0)
(-7.63987e-09 -55913.2 -0)
(-2.73238e-08 -55913.2 -0)
(-6.22575e-08 -55913.2 -0)
(-2.02412e-07 -55913.2 -0)
(-6.16343e-07 -55913.2 -0)
(-4.09974e-06 -55913.2 -0)
(-1.04845e-05 -55913.2 -0)
(-6.84026e-06 -55913.2 -0)
(5.76061e-06 -45635.9 -0)
(8.90656e-06 -45635.9 -0)
(3.59153e-06 -45635.9 -0)
(5.976e-07 -45635.9 -0)
(1.92885e-07 -45635.9 -0)
(5.82747e-08 -45635.9 -0)
(2.30118e-08 -45635.9 -0)
(6.08765e-09 -45635.9 -0)
(-1.8945e-09 -45635.9 -0)
(-6.16343e-09 -45635.9 -0)
(-9.0178e-09 -45635.9 -0)
(-1.16701e-08 -45635.9 -0)
(-1.39182e-08 -45635.9 -0)
(-1.33373e-08 -45635.9 -0)
(-1.31099e-08 -45635.9 -0)
(-1.48023e-08 -45635.9 -0)
(-1.4095e-08 -45635.9 -0)
(-1.33878e-08 -45635.9 -0)
(-1.2731e-08 -45635.9 -0)
(-1.09628e-08 -45635.9 -0)
(-1.03313e-08 -45635.9 -0)
(-1.03818e-08 -45635.9 -0)
(-9.85138e-09 -45635.9 -0)