/*--------------------------------*- C++ -*----------------------------------*\
| =========                 |                                                 |
| \\      /  F ield         | foam-extend: Open Source CFD                    |
|  \\    /   O peration     | Version:     4.0                                |
|   \\  /    A nd           | Web:         http://www.foam-extend.org         |
|    \\/     M anipulation  |                                                 |
\*---------------------------------------------------------------------------*/
FoamFile
{
    version     2.0;
    format      ascii;
    class       surfaceScalarField;
    location    "9";
    object      phi;
}
// * * * * * * * * * * * * * * * * * * * * * * * * * * * * * * * * * * * * * //

dimensions      [0 3 -1 0 0 0 0];

internalField   nonuniform List<scalar> 
13744
(
-3.79304e-09
3.79384e-09
1.75598e-09
-5.54902e-09
5.95716e-11
1.69641e-09
2.09027e-11
3.86695e-11
8.68944e-12
1.2213e-11
4.89586e-12
3.79408e-12
2.95246e-12
1.94361e-12
1.96028e-12
9.92539e-13
1.35445e-12
6.06737e-13
9.82057e-13
3.72424e-13
7.29357e-13
2.51799e-13
5.57393e-13
1.73195e-13
4.32562e-13
1.25122e-13
3.41282e-13
9.19265e-14
2.72057e-13
6.94445e-14
2.19268e-13
5.15699e-14
1.77297e-13
4.10227e-14
1.44489e-13
3.20854e-14
1.18006e-13
2.67564e-14
9.62331e-14
2.14273e-14
7.85906e-14
1.7486e-14
6.4048e-14
1.54876e-14
5.15015e-14
1.37668e-14
4.12522e-14
1.02141e-14
3.24622e-14
9.49241e-15
2.44666e-14
9.32587e-15
1.77212e-14
6.27276e-15
1.16221e-14
6.77236e-15
5.52379e-15
5.71765e-15
-4.55715e-16
7.04992e-15
-4.38933e-15
2.498e-15
-1.26943e-14
7.88258e-15
-1.77018e-14
5.44009e-15
-2.33351e-14
4.996e-15
-3.35735e-14
9.71445e-15
-4.12344e-14
8.10463e-15
-5.03752e-14
9.21485e-15
-6.51809e-14
1.50435e-14
-7.86024e-14
1.30451e-14
-9.50896e-14
1.60982e-14
-1.19118e-13
2.33702e-14
-1.44496e-13
2.4758e-14
-1.76175e-13
3.15303e-14
-2.2038e-13
4.4631e-14
-2.72052e-13
5.32907e-14
-3.40171e-13
6.71685e-14
-4.33695e-13
9.38138e-14
-5.57389e-13
1.24289e-13
-7.2824e-13
1.71529e-13
-9.83184e-13
2.55185e-13
-1.35445e-12
3.7248e-13
-1.95917e-12
6.04516e-13
-2.95359e-12
9.95204e-13
-4.89586e-12
1.94267e-12
-8.68831e-12
3.79197e-12
-2.09038e-11
1.22174e-11
-5.95717e-11
3.8668e-11
-1.75598e-09
1.69641e-09
3.79304e-09
-5.54902e-09
3.79304e-09
1.60418e-08
-1.22479e-08
2.76638e-09
7.72635e-09
1.81056e-10
4.28173e-09
6.44542e-11
1.55272e-10
2.70046e-11
4.96628e-11
1.5206e-11
1.55904e-11
9.20626e-12
7.94281e-12
6.09199e-12
4.10721e-12
4.22902e-12
2.47025e-12
3.0526e-12
1.54909e-12
2.27862e-12
1.02607e-12
1.73416e-12
7.13984e-13
1.35018e-12
5.09481e-13
1.06321e-12
3.78697e-13
8.49471e-13
2.8344e-13
6.82385e-13
2.20934e-13
5.54208e-13
1.70586e-13
4.50362e-13
1.34781e-13
3.67704e-13
1.09524e-13
3.00759e-13
9.09828e-14
2.45353e-13
7.23865e-14
1.99107e-13
5.92304e-14
1.61482e-13
4.92939e-14
1.28722e-13
4.32432e-14
1.00674e-13
3.80806e-14
7.70516e-14
3.20299e-14
5.5335e-14
2.79776e-14
3.55521e-14
2.41474e-14
1.82057e-14
2.4758e-14
1.80018e-16
2.25375e-14
-2.03174e-14
2.4647e-14
-3.2779e-14
1.95399e-14
-5.52839e-14
2.45914e-14
-7.97173e-14
3.06422e-14
-9.79428e-14
2.95874e-14
-1.28672e-13
3.75255e-14
-1.64161e-13
4.4742e-14
-1.96446e-13
4.55747e-14
-2.45377e-13
6.29496e-14
-3.03401e-13
7.42739e-14
-3.64982e-13
8.84293e-14
-4.50374e-13
1.11078e-13
-5.56896e-13
1.385e-13
-6.79665e-13
1.66034e-13
-8.49465e-13
2.21045e-13
-1.06594e-12
2.83717e-13
-1.34752e-12
3.74756e-13
-1.73416e-12
5.08926e-13
-2.28133e-12
7.16704e-13
-3.04992e-12
1.02274e-12
-4.22902e-12
1.54959e-12
-6.09471e-12
2.47063e-12
-9.2036e-12
4.10194e-12
-1.5206e-11
7.94442e-12
-2.70073e-11
1.55925e-11
-6.44514e-11
4.96587e-11
-1.81056e-10
1.55274e-10
-2.76638e-09
4.28173e-09
-1.60417e-08
7.72635e-09
-1.22487e-08
1.31061e-08
-2.5354e-08
4.52631e-09
1.63061e-08
3.02447e-10
8.50559e-09
1.10437e-10
3.4728e-10
4.68151e-11
1.13286e-10
2.6367e-11
3.60426e-11
1.60008e-11
1.83093e-11
1.0575e-11
9.53052e-12
7.35663e-12
5.68476e-12
5.30248e-12
3.6007e-12
3.96477e-12
2.36311e-12
3.01348e-12
1.66586e-12
2.35009e-12
1.16837e-12
1.84795e-12
8.82905e-13
1.47843e-12
6.52478e-13
1.18698e-12
5.12229e-13
9.64264e-13
3.92075e-13
7.83409e-13
3.17246e-13
6.40363e-13
2.50244e-13
5.2297e-13
2.04919e-13
4.27114e-13
1.68393e-13
3.4685e-13
1.44551e-13
2.8082e-13
1.13909e-13
2.2407e-13
9.93094e-14
1.75623e-13
8.47378e-14
1.33826e-13
7.04437e-14
9.63528e-14
6.78346e-14
6.22309e-14
5.98688e-14
3.11626e-14
5.45675e-14
-2.33394e-16
5.46785e-14
-3.23185e-14
5.64271e-14
-6.03535e-14
4.94327e-14
-9.62732e-14
6.7224e-14
-1.35522e-13
6.9611e-14
-1.73812e-13
6.80844e-14
-2.23988e-13
8.74856e-14
-2.82545e-13
1.02668e-13
-3.45153e-13
1.1291e-13
-4.27148e-13
1.43108e-13
-5.2464e-13
1.72862e-13
-6.38569e-13
1.9873e-13
-7.83423e-13
2.55601e-13
-9.66004e-13
3.21659e-13
-1.18519e-12
3.86718e-13
-1.47842e-12
5.11285e-13
-1.84975e-12
6.58917e-13
-2.34839e-12
8.72913e-13
-3.01347e-12
1.18092e-12
-3.96653e-12
1.67458e-12
-5.30075e-12
2.36058e-12
-7.35663e-12
3.60434e-12
-1.05768e-11
5.69192e-12
-1.59991e-11
9.52696e-12
-2.6367e-11
1.83086e-11
-4.68169e-11
3.60464e-11
-1.10435e-10
1.13276e-10
-3.02447e-10
3.47283e-10
-4.52631e-09
8.50559e-09
-1.31061e-08
1.63061e-08
-2.53548e-08
4.79136e-09
-3.01454e-08
4.14506e-09
1.69524e-08
4.20664e-10
1.223e-08
1.58503e-10
6.09445e-10
6.81704e-11
2.03618e-10
3.84247e-11
6.57845e-11
2.33605e-11
3.33755e-11
1.54359e-11
1.74578e-11
1.07496e-11
1.03727e-11
7.74531e-12
6.60803e-12
5.79544e-12
4.31802e-12
4.40339e-12
3.06057e-12
3.43639e-12
2.14198e-12
2.70082e-12
1.61209e-12
2.16198e-12
1.19485e-12
1.73566e-12
9.35696e-13
1.41002e-12
7.22339e-13
1.14563e-12
5.83263e-13
9.36968e-13
4.60312e-13
7.64654e-13
3.76831e-13
6.24872e-13
3.09086e-13
5.0769e-13
2.54533e-13
4.10636e-13
2.15342e-13
3.27861e-13
1.86219e-13
2.57276e-13
1.56437e-13
1.95586e-13
1.34913e-13
1.41014e-13
1.17274e-13
9.13146e-14
1.14644e-13
4.50544e-14
9.83935e-14
-4.91592e-16
1.01065e-13
-4.49096e-14
1.00739e-13
-9.10429e-14
9.69086e-14
-1.40915e-13
1.11508e-13
-1.95653e-13
1.22367e-13
-2.57045e-13
1.26205e-13
-3.27746e-13
1.55931e-13
-4.10747e-13
1.84776e-13
-5.07624e-13
2.06252e-13
-6.24906e-13
2.62644e-13
-7.647e-13
3.13902e-13
-9.36757e-13
3.70322e-13
-1.14564e-12
4.68188e-13
-1.41015e-12
5.88175e-13
-1.73547e-12
7.09474e-13
-2.16196e-12
9.47277e-13
-2.70105e-12
1.19792e-12
-3.4363e-12
1.61327e-12
-4.40338e-12
2.14007e-12
-5.79559e-12
3.05866e-12
-7.74519e-12
4.302e-12
-1.07496e-11
6.61161e-12
-1.54361e-11
1.03793e-11
-2.33605e-11
1.74509e-11
-3.84247e-11
3.33757e-11
-6.81705e-11
6.57836e-11
-1.58503e-10
2.03612e-10
-4.20664e-10
6.09445e-10
-4.14506e-09
1.223e-08
-4.79136e-09
1.69524e-08
-3.01461e-08
2.86714e-09
-3.30125e-08
3.03706e-09
1.67825e-08
5.38121e-10
1.47289e-08
2.08522e-10
9.39039e-10
9.11123e-11
3.21024e-10
5.14189e-11
1.05481e-10
3.13158e-11
5.348e-11
2.06969e-11
2.80787e-11
1.44242e-11
1.66461e-11
1.0393e-11
1.06399e-11
7.78008e-12
6.9273e-12
5.91109e-12
4.92842e-12
4.6145e-12
3.43674e-12
3.62659e-12
2.60428e-12
2.90377e-12
1.9116e-12
2.33117e-12
1.51336e-12
1.89412e-12
1.15329e-12
1.53899e-12
9.35391e-13
1.25891e-12
7.45147e-13
1.02738e-12
6.06182e-13
8.39712e-13
5.00849e-13
6.82314e-13
4.15799e-13
5.51891e-13
3.44752e-13
4.40677e-13
2.94417e-13
3.4587e-13
2.49321e-13
2.62905e-13
2.21795e-13
1.89588e-13
1.9458e-13
1.22747e-13
1.74485e-13
6.04106e-14
1.64292e-13
-3.65042e-16
1.66096e-13
-6.02854e-14
1.63113e-13
-1.22679e-13
1.59435e-13
-1.89455e-13
1.83679e-13
-2.62792e-13
1.9907e-13
-3.45771e-13
2.09006e-13
-4.40531e-13
2.5896e-13
-5.51836e-13
3.01772e-13
-6.82415e-13
3.385e-13
-8.39753e-13
4.20268e-13
-1.02725e-12
4.92648e-13
-1.25884e-12
6.04787e-13
-1.539e-12
7.41976e-13
-1.89409e-12
9.37299e-13
-2.3311e-12
1.15602e-12
-2.90375e-12
1.50892e-12
-3.62667e-12
1.91602e-12
-4.61461e-12
2.59279e-12
-5.91108e-12
3.43888e-12
-7.78007e-12
4.93491e-12
-1.0393e-11
6.92707e-12
-1.44242e-11
1.06457e-11
-2.0697e-11
1.66479e-11
-3.13159e-11
2.80686e-11
-5.14189e-11
5.34833e-11
-9.11122e-11
1.05489e-10
-2.08522e-10
3.21021e-10
-5.38121e-10
9.39049e-10
-3.03706e-09
1.47289e-08
-2.86714e-09
1.67825e-08
-3.30133e-08
3.6924e-09
-3.67049e-08
2.60016e-09
1.78748e-08
6.56581e-10
1.66725e-08
2.60528e-10
1.3351e-09
1.15678e-10
4.65882e-10
6.53888e-11
1.55765e-10
3.98978e-11
7.89695e-11
2.63807e-11
4.15873e-11
1.83972e-11
2.46288e-11
1.32583e-11
1.57751e-11
9.92829e-12
1.02606e-11
7.54414e-12
7.31279e-12
5.89052e-12
5.08967e-12
4.62989e-12
3.86564e-12
3.70764e-12
2.84059e-12
2.97672e-12
2.23882e-12
2.41901e-12
1.71753e-12
1.96561e-12
1.3918e-12
1.60802e-12
1.09723e-12
1.31247e-12
9.12798e-13
1.07281e-12
7.36921e-13
8.71772e-13
6.15223e-13
7.05249e-13
5.05682e-13
5.63147e-13
4.30534e-13
4.4201e-13
3.73982e-13
3.3605e-13
3.22728e-13
2.4232e-13
2.87194e-13
1.56862e-13
2.64035e-13
7.72099e-14
2.42539e-13
-2.47069e-16
2.37355e-13
-7.73965e-14
2.36849e-13
-1.56537e-13
2.3119e-13
-2.4217e-13
2.67227e-13
-3.36185e-13
2.88502e-13
-4.41609e-13
3.21923e-13
-5.62976e-13
3.72355e-13
-7.05458e-13
4.368e-13
-8.71624e-13
4.97231e-13
-1.07286e-12
6.21617e-13
-1.31255e-12
7.42323e-13
-1.60769e-12
8.96835e-13
-1.96561e-12
1.0984e-12
-2.41921e-12
1.39663e-12
-2.9764e-12
1.70069e-12
-3.7076e-12
2.24303e-12
-4.63025e-12
2.83948e-12
-5.89038e-12
3.8554e-12
-7.54412e-12
5.09189e-12
-9.92853e-12
7.31404e-12
-1.32581e-11
1.02468e-11
-1.83972e-11
1.57781e-11
-2.6381e-11
2.46334e-11
-3.98978e-11
4.15843e-11
-6.53888e-11
7.89736e-11
-1.15678e-10
1.55768e-10
-2.60528e-10
4.65873e-10
-6.56581e-10
1.3351e-09
-2.60015e-09
1.66725e-08
-3.6924e-09
1.78747e-08
-3.67057e-08
3.9508e-09
-4.06557e-08
2.62117e-09
1.92044e-08
7.75295e-10
1.85184e-08
3.146e-10
1.79579e-09
1.41897e-10
6.38577e-10
8.03727e-11
2.17297e-10
4.91381e-11
1.10197e-10
3.25105e-11
5.82204e-11
2.2686e-11
3.44549e-11
1.63546e-11
2.21094e-11
1.22501e-11
1.43546e-11
9.31049e-12
1.02555e-11
7.27077e-12
7.13192e-12
5.7157e-12
5.41256e-12
4.57763e-12
3.97501e-12
3.67572e-12
3.14318e-12
2.9873e-12
2.39901e-12
2.42769e-12
1.95138e-12
1.98622e-12
1.53949e-12
1.62131e-12
1.26538e-12
1.3254e-12
1.02406e-12
1.07714e-12
8.67344e-13
8.71461e-13
7.21465e-13
6.95942e-13
6.17381e-13
5.46272e-13
5.19029e-13
4.15358e-13
4.55469e-13
2.99518e-13
3.99715e-13
1.93894e-13
3.68747e-13
9.54154e-14
3.45397e-13
-2.2973e-16
3.31755e-13
-9.56951e-14
3.31013e-13
-1.93506e-13
3.33792e-13
-2.99352e-13
3.6942e-13
-4.15514e-13
4.0799e-13
-5.45801e-13
4.44488e-13
-6.95731e-13
5.25319e-13
-8.71728e-13
6.17704e-13
-1.07695e-12
7.13235e-13
-1.32546e-12
8.72524e-13
-1.62144e-12
1.03794e-12
-1.98582e-12
1.26054e-12
-2.42768e-12
1.5433e-12
-2.98755e-12
1.95603e-12
-3.67532e-12
2.39763e-12
-4.57759e-12
3.15298e-12
-5.71613e-12
3.97659e-12
-7.27059e-12
5.40789e-12
-9.31045e-12
7.1333e-12
-1.22504e-11
1.02606e-11
-1.63543e-11
1.43539e-11
-2.2686e-11
2.21141e-11
-3.25109e-11
3.4464e-11
-4.9138e-11
5.82167e-11
-8.03727e-11
1.10204e-10
-1.41897e-10
2.17298e-10
-3.146e-10
6.38569e-10
-7.75294e-10
1.7958e-09
-2.62117e-09
1.85184e-08
-3.9508e-09
1.92044e-08
-4.06565e-08
3.64883e-09
-4.43045e-08
2.68131e-09
2.01719e-08
8.93014e-10
2.03067e-08
3.70705e-10
2.3181e-09
1.69792e-10
8.39491e-10
9.64066e-11
2.90675e-10
5.9068e-11
1.4754e-10
3.91102e-11
7.8183e-11
2.73087e-11
4.6258e-11
1.96955e-11
2.97181e-11
1.47563e-11
1.93037e-11
1.12185e-11
1.37933e-11
8.76183e-12
9.5782e-12
6.88932e-12
7.29232e-12
5.51804e-12
5.34391e-12
4.43161e-12
4.22789e-12
3.60188e-12
3.22693e-12
2.92758e-12
2.626e-12
2.3954e-12
2.06897e-12
1.95554e-12
1.71379e-12
1.59881e-12
1.3982e-12
1.29951e-12
1.16046e-12
1.05142e-12
9.63675e-13
8.39731e-13
8.23031e-13
6.59216e-13
7.04796e-13
5.01246e-13
6.16047e-13
3.61487e-13
5.45237e-13
2.34036e-13
4.91735e-13
1.15114e-13
4.53854e-13
-2.41233e-16
4.5095e-13
-1.15374e-13
4.44559e-13
-2.33709e-13
4.56375e-13
-3.61293e-13
4.99611e-13
-5.01323e-13
5.46242e-13
-6.58779e-13
6.0155e-13
-8.39506e-13
7.08397e-13
-1.05161e-12
8.264e-13
-1.29939e-12
9.57531e-13
-1.59885e-12
1.16386e-12
-1.95559e-12
1.39156e-12
-2.39506e-12
1.7021e-12
-2.92755e-12
2.08132e-12
-3.60204e-12
2.62766e-12
-4.43126e-12
3.21978e-12
-5.51801e-12
4.2396e-12
-6.8897e-12
5.34997e-12
-8.76174e-12
7.28761e-12
-1.12184e-11
9.58675e-12
-1.47565e-11
1.37899e-11
-1.96953e-11
1.92888e-11
-2.73087e-11
2.9725e-11
-3.91106e-11
4.6264e-11
-5.9068e-11
7.81635e-11
-9.64066e-11
1.47549e-10
-1.69792e-10
2.90685e-10
-3.70705e-10
8.39484e-10
-8.93014e-10
2.3181e-09
-2.6813e-09
2.03067e-08
-3.64882e-09
2.01719e-08
-4.43053e-08
3.38021e-09
-4.76847e-08
2.69997e-09
2.08522e-08
1.00907e-09
2.19976e-08
4.28711e-10
2.89846e-09
1.99373e-10
1.06883e-09
1.13524e-10
3.76525e-10
6.97188e-11
1.91345e-10
4.62043e-11
1.01695e-10
3.22839e-11
6.01727e-11
2.32954e-11
3.87105e-11
1.74578e-11
2.51381e-11
1.32768e-11
1.79727e-11
1.03706e-11
1.2491e-11
8.15633e-12
9.51284e-12
6.53336e-12
6.97096e-12
5.24806e-12
5.5162e-12
4.26576e-12
4.21625e-12
3.46776e-12
3.42482e-12
2.83761e-12
2.69861e-12
2.31686e-12
2.23148e-12
1.89437e-12
1.80395e-12
1.53998e-12
1.52076e-12
1.24605e-12
1.25914e-12
9.95295e-13
1.07214e-12
7.81406e-13
9.13457e-13
5.94192e-13
7.96181e-13
4.28531e-13
7.11766e-13
2.77469e-13
6.44772e-13
1.3646e-13
6.10109e-13
-2.50894e-16
5.82735e-13
-1.36688e-13
5.89069e-13
-2.77202e-13
5.93312e-13
-4.28331e-13
6.52652e-13
-5.94199e-13
7.20188e-13
-7.8098e-13
7.92385e-13
-9.95046e-13
9.21143e-13
-1.24619e-12
1.08017e-12
-1.53992e-12
1.24727e-12
-1.89441e-12
1.5281e-12
-2.31684e-12
1.81271e-12
-2.8373e-12
2.22449e-12
-3.46773e-12
2.70324e-12
-4.26584e-12
3.42698e-12
-5.24775e-12
4.20822e-12
-6.53333e-12
5.5176e-12
-8.15666e-12
6.97614e-12
-1.03706e-11
9.49231e-12
-1.32767e-11
1.24927e-11
-1.74579e-11
1.79811e-11
-2.32952e-11
2.51311e-11
-3.22839e-11
3.87198e-11
-4.62046e-11
6.01807e-11
-6.97188e-11
1.01687e-10
-1.13524e-10
1.91349e-10
-1.99373e-10
3.76535e-10
-4.28711e-10
1.06882e-09
-1.00907e-09
2.89846e-09
-2.69996e-09
2.19976e-08
-3.38021e-09
2.08521e-08
-4.76855e-08
3.25835e-09
-5.09431e-08
2.72239e-09
2.13881e-08
1.12304e-09
2.35969e-08
4.88452e-10
3.53305e-09
2.30643e-10
1.32665e-09
1.31757e-10
4.75416e-10
8.11213e-11
2.4198e-10
5.38172e-11
1.28991e-10
3.76307e-11
7.63633e-11
2.71691e-11
4.91742e-11
2.03661e-11
3.19432e-11
1.54946e-11
2.28461e-11
1.21044e-11
1.58865e-11
9.52258e-12
1.20841e-11
7.62833e-12
8.86622e-12
6.12897e-12
7.01345e-12
4.98211e-12
5.35746e-12
4.05084e-12
4.34723e-12
3.31499e-12
3.43444e-12
2.70703e-12
2.84013e-12
2.21361e-12
2.30263e-12
1.79975e-12
1.93559e-12
1.45633e-12
1.59331e-12
1.1634e-12
1.37573e-12
9.13453e-13
1.17361e-12
6.94677e-13
1.02229e-12
5.01014e-13
8.96073e-13
3.24448e-13
8.28834e-13
1.59514e-13
7.64845e-13
-2.35942e-16
7.46979e-13
-1.59779e-13
7.43222e-13
-3.24183e-13
7.55166e-13
-5.00795e-13
8.2965e-13
-6.94641e-13
9.06696e-13
-9.1303e-13
1.0112e-12
-1.16313e-12
1.16921e-12
-1.45646e-12
1.37287e-12
-1.79971e-12
1.59549e-12
-2.21364e-12
1.93503e-12
-2.70697e-12
2.31035e-12
-3.31469e-12
2.82551e-12
-4.05079e-12
3.44058e-12
-4.98214e-12
4.35677e-12
-6.12867e-12
5.35222e-12
-7.62829e-12
7.01603e-12
-9.52292e-12
8.87535e-12
-1.21044e-11
1.20793e-11
-1.54945e-11
1.58965e-11
-2.03662e-11
2.28414e-11
-2.71689e-11
3.19344e-11
-3.76306e-11
4.91816e-11
-5.38175e-11
7.63679e-11
-8.11213e-11
1.28989e-10
-1.31757e-10
2.41981e-10
-2.30643e-10
4.75414e-10
-4.88452e-10
1.32663e-09
-1.12304e-09
3.53304e-09
-2.72239e-09
2.35969e-08
-3.25834e-09
2.13881e-08
-5.09439e-08
3.19342e-09
-5.41365e-08
2.76399e-09
2.18176e-08
1.23441e-09
2.51265e-08
5.49742e-10
4.21771e-09
2.6359e-10
1.61279e-09
1.5113e-10
5.87873e-10
9.33055e-11
2.99807e-10
6.19739e-11
1.60339e-10
4.33686e-11
9.49677e-11
3.13319e-11
6.12119e-11
2.34934e-11
3.9775e-11
1.78813e-11
2.84431e-11
1.39708e-11
1.97912e-11
1.09942e-11
1.50695e-11
8.80794e-12
1.10511e-11
7.07839e-12
8.74393e-12
5.75427e-12
6.68935e-12
4.6796e-12
5.43369e-12
3.82982e-12
4.29431e-12
3.12794e-12
3.53936e-12
2.55805e-12
2.87748e-12
2.08008e-12
2.40769e-12
1.68334e-12
2.00408e-12
1.34488e-12
1.69698e-12
1.05603e-12
1.45596e-12
8.03169e-13
1.2779e-12
5.79318e-13
1.13406e-12
3.75161e-13
1.03257e-12
1.84445e-13
9.59836e-13
-2.36858e-16
9.32484e-13
-1.84723e-13
9.19639e-13
-3.74911e-13
9.50114e-13
-5.79072e-13
1.03136e-12
-8.03109e-13
1.12681e-12
-1.0556e-12
1.26301e-12
-1.34459e-12
1.46131e-12
-1.68343e-12
1.70866e-12
-2.08008e-12
1.99522e-12
-2.55805e-12
2.41585e-12
-3.12787e-12
2.87761e-12
-3.82952e-12
3.53512e-12
-4.67952e-12
4.30011e-12
-5.75426e-12
5.43425e-12
-7.0781e-12
6.6722e-12
-8.80788e-12
8.74645e-12
-1.09946e-11
1.10571e-11
-1.39708e-11
1.50523e-11
-1.78813e-11
1.97889e-11
-2.34934e-11
2.84613e-11
-3.13317e-11
3.97716e-11
-4.33686e-11
6.1209e-11
-6.19741e-11
9.49725e-11
-9.33056e-11
1.60324e-10
-1.51131e-10
2.99819e-10
-2.6359e-10
5.87874e-10
-5.49742e-10
1.61279e-09
-1.23441e-09
4.21772e-09
-2.76399e-09
2.51265e-08
-3.19342e-09
2.18175e-08
-5.41373e-08
3.13279e-09
-5.72693e-08
2.81325e-09
2.21371e-08
1.34253e-09
2.65972e-08
6.12367e-10
4.94788e-09
2.98191e-10
1.92697e-09
1.71668e-10
7.14397e-10
1.063e-10
3.65175e-10
7.06991e-11
1.95928e-10
4.95177e-11
1.1615e-10
3.57996e-11
7.49192e-11
2.6852e-11
4.87311e-11
2.04471e-11
3.48661e-11
1.59777e-11
2.42613e-11
1.25777e-11
1.84613e-11
1.00774e-11
1.35435e-11
8.10064e-12
1.07212e-11
6.58578e-12
8.20107e-12
5.35693e-12
6.65895e-12
4.38449e-12
5.25582e-12
3.58159e-12
4.34313e-12
2.92931e-12
3.53047e-12
2.38238e-12
2.95569e-12
1.92808e-12
2.45078e-12
1.54064e-12
2.09681e-12
1.20984e-12
1.78543e-12
9.20242e-13
1.55671e-12
6.6379e-13
1.38004e-12
4.29895e-13
1.25459e-12
2.11346e-13
1.17109e-12
-2.51089e-16
1.14358e-12
-2.11618e-13
1.14585e-12
-4.29667e-13
1.16778e-12
-6.63538e-13
1.26703e-12
-9.20137e-13
1.38843e-12
-1.20939e-12
1.54964e-12
-1.54033e-12
1.78653e-12
-1.92817e-12
2.09401e-12
-2.38238e-12
2.43921e-12
-2.9293e-12
2.96145e-12
-3.58148e-12
3.53063e-12
-4.3842e-12
4.33062e-12
-5.35684e-12
5.2657e-12
-6.58574e-12
6.6708e-12
-8.10035e-12
8.19037e-12
-1.00773e-11
1.07282e-11
-1.25781e-11
1.3552e-11
-1.59778e-11
1.84506e-11
-2.0447e-11
2.42647e-11
-2.6852e-11
3.4866e-11
-3.57994e-11
4.87151e-11
-4.95177e-11
7.49309e-11
-7.06993e-11
1.16156e-10
-1.06301e-10
1.95913e-10
-1.71669e-10
3.65181e-10
-2.98191e-10
7.14407e-10
-6.12366e-10
1.92696e-09
-1.34253e-09
4.94788e-09
-2.81325e-09
2.65972e-08
-3.13278e-09
2.21371e-08
-5.72701e-08
3.06653e-09
-6.03358e-08
2.85851e-09
2.23451e-08
1.44673e-09
2.8009e-08
6.76073e-10
5.71854e-09
3.34406e-10
2.26863e-09
1.93388e-10
8.55408e-10
1.20134e-10
4.38435e-10
8.00175e-11
2.36042e-10
5.60982e-11
1.40071e-10
4.05884e-11
9.0436e-11
3.04548e-11
5.88576e-11
2.3202e-11
4.21126e-11
1.81334e-11
2.93395e-11
1.42798e-11
2.23146e-11
1.14423e-11
1.63909e-11
9.20021e-12
1.29575e-11
7.48034e-12
9.92107e-12
6.0859e-12
8.04476e-12
4.98156e-12
6.37471e-12
4.07007e-12
5.2607e-12
3.32913e-12
4.26353e-12
2.70801e-12
3.58622e-12
2.1918e-12
2.97806e-12
1.75157e-12
2.53443e-12
1.3756e-12
2.16047e-12
1.04644e-12
1.89451e-12
7.5485e-13
1.67441e-12
4.88919e-13
1.52993e-12
2.40367e-13
1.43311e-12
-2.41456e-16
1.38361e-12
-2.40641e-13
1.37873e-12
-4.887e-13
1.416e-12
-7.54597e-13
1.53043e-12
-1.04631e-12
1.68025e-12
-1.37515e-12
1.88346e-12
-1.75126e-12
2.16967e-12
-2.19187e-12
2.54249e-12
-2.70801e-12
2.95784e-12
-3.32911e-12
3.58558e-12
-4.06993e-12
4.27319e-12
-4.98128e-12
5.25302e-12
-6.08577e-12
6.35991e-12
-7.48027e-12
8.05076e-12
-9.19991e-12
9.91313e-12
-1.14422e-11
1.29704e-11
-1.42801e-11
1.63949e-11
-1.81335e-11
2.23072e-11
-2.32019e-11
2.93298e-11
-3.04548e-11
4.21189e-11
-4.05882e-11
5.88483e-11
-5.60981e-11
9.04512e-11
-8.00178e-11
1.40076e-10
-1.20134e-10
2.36041e-10
-1.93388e-10
4.38424e-10
-3.34406e-10
8.55416e-10
-6.76072e-10
2.26863e-09
-1.44673e-09
5.71855e-09
-2.85851e-09
2.8009e-08
-3.06652e-09
2.23451e-08
-6.03366e-08
2.99062e-09
-6.33264e-08
2.89336e-09
2.24424e-08
1.54633e-09
2.9356e-08
7.40573e-10
6.52429e-09
3.72181e-10
2.63702e-09
2.163e-10
1.0113e-09
1.3483e-10
5.19893e-10
8.99535e-11
2.80931e-10
6.31304e-11
1.66896e-10
4.57148e-11
1.07852e-10
3.43151e-11
7.02626e-11
2.6157e-11
5.02709e-11
2.04466e-11
3.50391e-11
1.61074e-11
2.66635e-11
1.29082e-11
1.95889e-11
1.03819e-11
1.5488e-11
8.44184e-12
1.18564e-11
6.86978e-12
9.6272e-12
5.62369e-12
7.60381e-12
4.59555e-12
6.28911e-12
3.75938e-12
5.10589e-12
3.05848e-12
4.27691e-12
2.47566e-12
3.54576e-12
1.97868e-12
3.02874e-12
1.55411e-12
2.5842e-12
1.18236e-12
2.26852e-12
8.52951e-13
2.00595e-12
5.52509e-13
1.82617e-12
2.71607e-13
1.69882e-12
-2.42477e-16
1.65176e-12
-2.71894e-13
1.6479e-12
-5.52304e-13
1.69828e-12
-8.52676e-13
1.83622e-12
-1.18218e-12
2.01301e-12
-1.55364e-12
2.24984e-12
-1.97838e-12
2.59357e-12
-2.47576e-12
3.0382e-12
-3.05849e-12
3.54788e-12
-3.7593e-12
4.28809e-12
-4.59539e-12
5.1022e-12
-5.62344e-12
6.2669e-12
-6.86958e-12
7.61922e-12
-8.44172e-12
9.62744e-12
-1.03815e-11
1.18515e-11
-1.29081e-11
1.54885e-11
-1.61077e-11
1.95866e-11
-2.04467e-11
2.66435e-11
-2.61568e-11
3.5044e-11
-3.4315e-11
5.02763e-11
-4.57145e-11
7.02531e-11
-6.31304e-11
1.07852e-10
-8.99537e-11
1.66899e-10
-1.34831e-10
2.80915e-10
-2.163e-10
5.19909e-10
-3.72181e-10
1.0113e-09
-7.40572e-10
2.63701e-09
-1.54633e-09
6.5243e-09
-2.89335e-09
2.9356e-08
-2.99061e-09
2.24423e-08
-6.33272e-08
2.89821e-09
-6.62247e-08
2.91371e-09
2.24269e-08
1.64064e-09
3.06291e-08
8.05547e-10
7.35938e-09
4.11444e-10
3.03113e-09
2.40409e-10
1.18232e-09
1.50414e-10
6.09897e-10
1.00531e-10
3.30803e-10
7.06351e-11
1.96785e-10
5.11957e-11
1.27292e-10
3.84465e-11
8.30086e-11
2.93229e-11
5.93965e-11
2.29263e-11
4.14384e-11
1.8068e-11
3.15126e-11
1.44812e-11
2.31743e-11
1.16505e-11
1.83259e-11
9.47442e-12
1.40359e-11
7.71186e-12
1.13889e-11
6.31371e-12
9.01919e-12
5.1604e-12
7.43231e-12
4.22191e-12
6.04463e-12
3.43539e-12
5.06353e-12
2.78101e-12
4.19753e-12
2.22302e-12
3.5905e-12
1.74621e-12
3.06668e-12
1.32863e-12
2.67305e-12
9.58526e-13
2.37308e-12
6.20938e-13
2.16644e-12
3.05258e-13
2.01842e-12
-2.4024e-16
1.9613e-12
-3.05522e-13
1.9503e-12
-6.20758e-13
2.00287e-12
-9.58247e-13
2.17678e-12
-1.32844e-12
2.37763e-12
-1.7457e-12
2.67832e-12
-2.22272e-12
3.06676e-12
-2.78108e-12
3.59888e-12
-3.4354e-12
4.19512e-12
-4.22182e-12
5.07225e-12
-5.16023e-12
6.04483e-12
-6.31343e-12
7.42008e-12
-7.71167e-12
9.01679e-12
-9.47423e-12
1.13991e-11
-1.16502e-11
1.40262e-11
-1.44812e-11
1.83313e-11
-1.80683e-11
2.31942e-11
-2.29264e-11
3.1501e-11
-2.93227e-11
4.14354e-11
-3.84464e-11
5.93921e-11
-5.11955e-11
8.29979e-11
-7.0635e-11
1.27298e-10
-1.00531e-10
1.96792e-10
-1.50414e-10
3.30795e-10
-2.40409e-10
6.09904e-10
-4.11444e-10
1.18233e-09
-8.05546e-10
3.03112e-09
-1.64064e-09
7.35939e-09
-2.9137e-09
3.0629e-08
-2.89821e-09
2.24268e-08
-6.62254e-08
2.78324e-09
-6.90079e-08
2.9164e-09
2.22937e-08
1.72896e-09
3.18165e-08
8.70645e-10
8.21771e-09
4.52104e-10
3.44967e-09
2.6571e-10
1.36872e-09
1.66904e-10
7.087e-10
1.11772e-10
3.85941e-10
7.86324e-11
2.29927e-10
5.70484e-11
1.48872e-10
4.28632e-11
9.71894e-11
3.27114e-11
6.95428e-11
2.55818e-11
4.85611e-11
2.01692e-11
3.69312e-11
1.61677e-11
2.71674e-11
1.30113e-11
2.14677e-11
1.05823e-11
1.64644e-11
8.61581e-12
1.33499e-11
7.05449e-12
1.05688e-11
5.76709e-12
8.73158e-12
4.71877e-12
7.09273e-12
3.84039e-12
5.9411e-12
3.10919e-12
4.93757e-12
2.48569e-12
4.20687e-12
1.9527e-12
3.59907e-12
1.48594e-12
3.15138e-12
1.07208e-12
2.79001e-12
6.94543e-13
2.53751e-12
3.4146e-13
2.38095e-12
-2.45835e-16
2.30498e-12
-3.41717e-13
2.29996e-12
-6.94361e-13
2.36238e-12
-1.07181e-12
2.5473e-12
-1.48568e-12
2.78725e-12
-1.95222e-12
3.1293e-12
-2.48537e-12
3.59983e-12
-3.10924e-12
4.21219e-12
-3.84041e-12
4.9252e-12
-4.71867e-12
5.95296e-12
-5.76688e-12
7.09612e-12
-7.05424e-12
8.72008e-12
-8.61555e-12
1.05711e-11
-1.05821e-11
1.33532e-11
-1.3011e-11
1.6458e-11
-1.61676e-11
2.14804e-11
-2.01695e-11
2.71808e-11
-2.55819e-11
3.69181e-11
-3.27112e-11
4.85713e-11
-4.2863e-11
6.95624e-11
-5.70481e-11
9.71916e-11
-7.86323e-11
1.48889e-10
-1.11772e-10
2.29943e-10
-1.66904e-10
3.85936e-10
-2.65711e-10
7.08698e-10
-4.52104e-10
1.36872e-09
-8.70644e-10
3.44965e-09
-1.72895e-09
8.21769e-09
-2.91639e-09
3.18165e-08
-2.78323e-09
2.22937e-08
-6.90086e-08
2.64234e-09
-7.16502e-08
2.89921e-09
2.20369e-08
1.81059e-09
3.29051e-08
9.35488e-10
9.0928e-09
4.94052e-10
3.8911e-09
2.92192e-10
1.57059e-09
1.84318e-10
8.16574e-10
1.23698e-10
4.46563e-10
8.71428e-11
2.66486e-10
6.329e-11
1.72728e-10
4.75793e-11
1.1291e-10
3.63341e-11
8.07971e-11
2.84227e-11
5.64803e-11
2.2419e-11
4.29396e-11
1.79742e-11
3.16291e-11
1.44698e-11
2.49845e-11
1.177e-11
1.91635e-11
9.58531e-12
1.55435e-11
7.84924e-12
1.2307e-11
6.41815e-12
1.01492e-11
5.2521e-12
8.25011e-12
4.27527e-12
6.92331e-12
3.46161e-12
5.7526e-12
2.76786e-12
4.91366e-12
2.17456e-12
4.19261e-12
1.65496e-12
3.66009e-12
1.19408e-12
3.24681e-12
7.7369e-13
2.96715e-12
3.80353e-13
2.76745e-12
-2.39853e-16
2.67549e-12
-3.80621e-13
2.67671e-12
-7.73494e-13
2.75458e-12
-1.19384e-12
2.96722e-12
-1.65467e-12
3.26053e-12
-2.17407e-12
3.65423e-12
-2.76754e-12
4.20235e-12
-3.46165e-12
4.91679e-12
-4.27526e-12
5.74529e-12
-5.25199e-12
6.92202e-12
-6.4179e-12
8.26201e-12
-7.84901e-12
1.01407e-11
-9.58501e-12
1.23112e-11
-1.17697e-11
1.5541e-11
-1.44696e-11
1.91512e-11
-1.7974e-11
2.49938e-11
-2.24193e-11
3.16298e-11
-2.84228e-11
4.29163e-11
-3.63339e-11
5.64783e-11
-4.75791e-11
8.07885e-11
-6.32898e-11
1.12888e-10
-8.71426e-11
1.72741e-10
-1.23698e-10
2.66483e-10
-1.84318e-10
4.46546e-10
-2.92192e-10
8.16578e-10
-4.94052e-10
1.5706e-09
-9.35487e-10
3.89109e-09
-1.81059e-09
9.09281e-09
-2.89921e-09
3.29051e-08
-2.64233e-09
2.20368e-08
-7.1651e-08
2.47456e-09
-7.41248e-08
2.86097e-09
2.16504e-08
1.88486e-09
3.38812e-08
9.9967e-10
9.97799e-09
5.37156e-10
4.35362e-09
3.19832e-10
1.78791e-09
2.02667e-10
9.33741e-10
1.3633e-10
5.12904e-10
9.61858e-11
3.06623e-10
6.9938e-11
1.98968e-10
5.26095e-11
1.30224e-10
4.02033e-11
9.3193e-11
3.1459e-11
6.52329e-11
2.48256e-11
4.9567e-11
1.99074e-11
3.65381e-11
1.60316e-11
2.88521e-11
1.30423e-11
2.21554e-11
1.06243e-11
1.79557e-11
8.70114e-12
1.42332e-11
7.11632e-12
1.17534e-11
5.82418e-12
9.55351e-12
4.74184e-12
8.00818e-12
3.83982e-12
6.65364e-12
3.07071e-12
5.66391e-12
2.41273e-12
4.84684e-12
1.83647e-12
4.23954e-12
1.32514e-12
3.75527e-12
8.58662e-13
3.42456e-12
4.22119e-13
3.20019e-12
-2.13648e-16
3.11163e-12
-4.22395e-13
3.09191e-12
-8.58495e-13
3.19559e-12
-1.32487e-12
3.42738e-12
-1.83615e-12
3.76367e-12
-2.41222e-12
4.23481e-12
-3.07041e-12
4.84145e-12
-3.83984e-12
5.67981e-12
-4.74185e-12
6.65116e-12
-5.82399e-12
8.01218e-12
-7.11605e-12
9.5486e-12
-8.70093e-12
1.17335e-11
-1.06239e-11
1.42398e-11
-1.30419e-11
1.79647e-11
-1.60313e-11
2.21428e-11
-1.99072e-11
2.8858e-11
-2.48259e-11
3.65453e-11
-3.14592e-11
4.95449e-11
-4.02031e-11
6.52135e-11
-5.26092e-11
9.31974e-11
-6.99377e-11
1.30224e-10
-9.61857e-11
1.98974e-10
-1.3633e-10
3.06637e-10
-2.02667e-10
5.12881e-10
-3.19832e-10
9.33742e-10
-5.37156e-10
1.78791e-09
-9.99669e-10
4.35361e-09
-1.88486e-09
9.97799e-09
-2.86097e-09
3.38812e-08
-2.47455e-09
2.16504e-08
-7.41255e-08
2.28067e-09
-7.64055e-08
2.8014e-09
2.11297e-08
1.9511e-09
3.47316e-08
1.06276e-09
1.08663e-08
5.81263e-10
4.83513e-09
3.48595e-10
2.02058e-09
2.21959e-10
1.06037e-09
1.49685e-10
5.85174e-10
1.05781e-10
3.50528e-10
7.70096e-11
2.27748e-10
5.79686e-11
1.49284e-10
4.43313e-11
1.06835e-10
3.4701e-11
7.48568e-11
2.73976e-11
5.68672e-11
2.19744e-11
4.19566e-11
1.77026e-11
3.31295e-11
1.4404e-11
2.54485e-11
1.17368e-11
2.06175e-11
9.61366e-12
1.63498e-11
7.86439e-12
1.34867e-11
6.43731e-12
1.09773e-11
5.24208e-12
9.19757e-12
4.24536e-12
7.64777e-12
3.39558e-12
6.5294e-12
2.66825e-12
5.58552e-12
2.03122e-12
4.89367e-12
1.46577e-12
4.32853e-12
9.4986e-13
3.95201e-12
4.66996e-13
3.68843e-12
-2.37733e-16
3.56554e-12
-4.67205e-13
3.5691e-12
-9.49747e-13
3.67005e-12
-1.46548e-12
3.95694e-12
-2.03084e-12
4.33145e-12
-2.66779e-12
4.86824e-12
-3.39525e-12
5.59022e-12
-4.24537e-12
6.53726e-12
-5.24209e-12
7.63885e-12
-6.4371e-12
9.20608e-12
-7.8641e-12
1.09817e-11
-9.61344e-12
1.34822e-11
-1.17365e-11
1.63572e-11
-1.44036e-11
2.06201e-11
-1.77023e-11
2.54438e-11
-2.19743e-11
3.31201e-11
-2.73978e-11
4.19761e-11
-3.47012e-11
5.68593e-11
-4.4331e-11
7.48626e-11
-5.79682e-11
1.06845e-10
-7.70093e-11
1.49268e-10
-1.05781e-10
2.27753e-10
-1.49685e-10
3.50542e-10
-2.21959e-10
5.85162e-10
-3.48595e-10
1.06039e-09
-5.81263e-10
2.02059e-09
-1.06276e-09
4.83509e-09
-1.9511e-09
1.08663e-08
-2.8014e-09
3.47315e-08
-2.28066e-09
2.11297e-08
-7.64062e-08
2.06271e-09
-7.84682e-08
2.72096e-09
2.04715e-08
2.00869e-09
3.54438e-08
1.12432e-09
1.17507e-08
6.26199e-10
5.33323e-09
3.78436e-10
2.26833e-09
2.42195e-10
1.19662e-09
1.63779e-10
6.6359e-10
1.15946e-10
3.98366e-10
8.45219e-11
2.59174e-10
6.36713e-11
1.70127e-10
4.87307e-11
1.21779e-10
3.81593e-11
8.54204e-11
3.01438e-11
6.48867e-11
2.41828e-11
4.79301e-11
1.9489e-11
3.7819e-11
1.58603e-11
2.90918e-11
1.29272e-11
2.35605e-11
1.05903e-11
1.86894e-11
8.66543e-12
1.542e-11
7.09399e-12
1.25437e-11
5.77801e-12
1.05145e-11
4.68e-12
8.7481e-12
3.74381e-12
7.46083e-12
2.94221e-12
6.37219e-12
2.24001e-12
5.5812e-12
1.6166e-12
4.94752e-12
1.04767e-12
4.51719e-12
5.15087e-13
4.21407e-12
-2.00222e-16
4.08861e-12
-5.15311e-13
4.08953e-12
-1.04756e-12
4.19984e-12
-1.61632e-12
4.51149e-12
-2.23963e-12
4.95418e-12
-2.94171e-12
5.56947e-12
-3.74349e-12
6.37458e-12
-4.67999e-12
7.4639e-12
-5.77802e-12
8.73996e-12
-7.09372e-12
1.0523e-11
-8.66508e-12
1.25388e-11
-1.05901e-11
1.53992e-11
-1.29268e-11
1.87011e-11
-1.58598e-11
2.35548e-11
-1.94887e-11
2.90688e-11
-2.41825e-11
3.78401e-11
-3.0144e-11
4.79235e-11
-3.81595e-11
6.48652e-11
-4.87303e-11
8.54282e-11
-6.36708e-11
1.21782e-10
-8.45216e-11
1.70112e-10
-1.15945e-10
2.59188e-10
-1.63779e-10
3.98375e-10
-2.42196e-10
6.63577e-10
-3.78436e-10
1.19663e-09
-6.26199e-10
2.26835e-09
-1.12432e-09
5.33322e-09
-2.00869e-09
1.17507e-08
-2.72096e-09
3.54438e-08
-2.0627e-09
2.04714e-08
-7.84689e-08
1.82357e-09
-8.02918e-08
2.62063e-09
1.96744e-08
2.05704e-09
3.60074e-08
1.18387e-09
1.26239e-08
6.71764e-10
5.84534e-09
4.09296e-10
2.53081e-09
2.63371e-10
1.34254e-09
1.78625e-10
7.48328e-10
1.26698e-10