/*--------------------------------*- C++ -*----------------------------------*\
| =========                 |                                                 |
| \\      /  F ield         | foam-extend: Open Source CFD                    |
|  \\    /   O peration     | Version:     4.0                                |
|   \\  /    A nd           | Web:         http://www.foam-extend.org         |
|    \\/     M anipulation  |                                                 |
\*---------------------------------------------------------------------------*/
FoamFile
{
    version     2.0;
    format      ascii;
    class       volScalarField;
    location    "150";
    object      epsilon;
}
// * * * * * * * * * * * * * * * * * * * * * * * * * * * * * * * * * * * * * //

dimensions      [0 2 -3 0 0 0 0];

internalField   nonuniform List<scalar> 
12225
(
503.755
432.797
374.117
326.693
289.221
260.181
238.115
221.753
210.045
202.136
197.333
195.069
194.877
196.363
199.198
203.103
207.86
214.781
121.798
151.781
156.126
154.735
153.163
153.136
155.2
159.453
165.806
174.092
184.109
195.64
208.458
222.339
237.075
252.508
268.667
285.395
35.4996
51.6201
60.7964
66.1389
69.5057
71.9363
74.0427
76.1847
78.5701
81.3158
84.4828
88.0963
92.1596
96.6639
101.599
106.971
112.828
119.21
19.4431
24.8818
29.4253
32.9916
35.7684
37.9625
39.758
41.302
42.705
44.0481
45.3896
46.7717
48.2248
49.7719
51.4334
53.2323
55.2006
57.3643
15.8664
17.5797
19.4008
21.1029
22.6164
23.9339
25.0765
26.0757
26.9641
27.7708
28.5212
29.2364
29.9343
30.6302
31.3384
32.0735
32.8516
33.6801
14.9701
15.3927
15.9917
16.6612
17.3373
17.9849
18.588
19.1426
19.6508
20.1179
20.5506
20.9558
21.3403
21.711
22.0746
22.4382
22.8092
23.1884
14.7491
14.7449
14.8383
15.0032
15.2134
15.4479
15.6916
15.9345
16.1712
16.3987
16.6162
16.8241
17.0234
17.2161
17.4042
17.5905
17.7778
17.9649
14.704
14.5892
14.5233
14.5026
14.5194
14.5646
14.6298
14.7081
14.7944
14.885
14.9777
15.0709
15.1639
15.2568
15.3499
15.444
15.54
15.6362
14.6918
14.5418
14.4164
14.317
14.2425
14.1903
14.157
14.1389
14.1329
14.1364
14.1473
14.1638
14.1849
14.2099
14.2384
14.2703
14.3056
14.3429
14.6883
14.5268
14.3792
14.2466
14.1291
14.0264
13.9377
13.8615
13.7967
13.7418
13.6955
13.6567
13.6246
13.5985
13.5777
13.5619
13.5509
13.5438
14.6873
14.5227
14.3685
14.2246
14.0909
13.9674
13.8537
13.7494
13.654
13.5668
13.4874
13.4151
13.3494
13.2899
13.2361
13.1878
13.1446
13.1063
14.687
14.5216
14.3658
14.2188
14.0804
13.9502
13.8278
13.7129
13.6051
13.5042
13.4096
13.3212
13.2386
13.1616
13.0899
13.0232
12.9614
12.9046
14.6868
14.5213
14.365
14.2174
14.0779
13.946
13.8214
13.7034
13.5919
13.4865
13.3868
13.2926
13.2036
13.1196
13.0404
12.9658
12.8957
12.8303
14.6867
14.521
14.3647
14.2169
14.0772
13.945
13.8199
13.7014
13.5891
13.4826
13.3817
13.286
13.1954
13.1094
13.028
12.9509
12.878
12.8097
14.6865
14.5209
14.3645
14.2167
14.0769
13.9447
13.8195
13.7009
13.5886
13.482
13.381
13.2851
13.1942
13.108
13.0262
12.9486
12.8751
12.8061
14.6864
14.5207
14.3643
14.2165
14.0767
13.9445
13.8194
13.7008
13.5885
13.4821
13.3811
13.2854
13.1946
13.1084
13.0266
12.9491
12.8756
12.8065
14.6864
14.5206
14.3642
14.2163
14.0766
13.9444
13.8193
13.7009
13.5887
13.4823
13.3815
13.2859
13.1953
13.1092
13.0276
12.9502
12.8768
12.8078
14.6863
14.5206
14.3641
14.2163
14.0766
13.9444
13.8194
13.7011
13.589
13.4828
13.3821
13.2866
13.1961
13.1102
13.0287
12.9514
12.8781
12.8092
14.6863
14.5205
14.3641
14.2163
14.0766
13.9446
13.8197
13.7014
13.5894
13.4833
13.3828
13.2875
13.1971
13.1113
13.0299
12.9527
12.8795
12.8107
14.6863
14.5205
14.3641
14.2164
14.0768
13.9449
13.82
13.7019
13.5901
13.4842
13.3838
13.2886
13.1984
13.1129
13.0317
12.9547
12.8816
12.813
14.6863
14.5206
14.3642
14.2166
14.0772
13.9455
13.821
13.7032
13.5918
13.4864
13.3866
13.2921
13.2026
13.1179
13.0376
12.9615
12.8894
12.8217
14.6864
14.5208
14.3647
14.2177
14.0791
13.9486
13.8256
13.7099
13.6009
13.4983
13.4017
13.3106
13.2249
13.1441
13.0679
12.996
12.9283
12.865
14.6867
14.5221
14.3682
14.2248
14.0917
13.9685
13.8547
13.7496
13.6526
13.5631
13.4803
13.4038
13.3328
13.2669
13.2055
13.1482
13.0947
13.0452
14.689
14.5321
14.393
14.2721
14.1684
14.0804
14.006
13.9431
13.8898
13.8443
13.805
13.7708
13.7406
13.7135
13.689
13.6666
13.6458
13.6267
14.7079
14.6018
14.544
14.527
14.5407
14.5757
14.6239
14.6792
14.7371
14.7946
14.8499
14.9016
14.9493
14.9926
15.0315
15.0663
15.0971
15.1245
14.8417
15.0098
15.2942
15.6336
15.987
16.3296
16.6477
16.9354
17.1917
17.4176
17.6156
17.7885
17.9396
18.0715
18.1871
18.2886
18.3782
18.4577
15.6831
17.0424
18.4347
19.6851
20.7504
21.6342
22.3581
22.9486
23.431
23.8271
24.155
24.4297
24.6629
24.8644
25.0415
25.2003
25.3452
25.48
20.765
26.5859
30.6856
33.4768
35.377
36.6704
37.5566
38.1745
38.6188
38.9544
39.2262
39.4649
39.6917
39.9209
40.1617
40.4197
40.6972
40.9949
53.6098
70.4751
76.687
78.6805
78.8534
78.2536
77.4089
76.5911
75.9354
75.5037
75.3184
75.3806
75.6795
76.1983
76.9169
77.8134
78.8635
80.051
354.894
307.091
269.265
238.801
214.02
193.724
177.015
163.199
151.734
142.194
134.238
127.597
122.052
117.428
113.58
110.39
107.76
105.608
4.06013
5.77865
11.2727
17.4668
24.3799
32.0708
40.636
49.5127
58.9302
68.9032
79.4219
90.4735
102.045
114.121
126.689
139.735
153.244
167.202
181.596
196.412
211.638
227.262
243.271
259.655
276.403
293.507
310.957
328.745
346.865
365.309
384.072
403.149
422.536
442.229
462.225
482.52
503.113
524.001
545.182
566.653
588.411
610.454
632.777
655.376
678.243
701.371
724.752
748.373
772.221
796.281
820.534
844.961
869.537
894.239
919.039
943.908
968.818
993.739
1018.65
1043.51
1068.33
1093.09
1117.81
1142.53
1167.32
1192.32
1217.72
1242.7
1266.63
1289.33
1310.63
1330.32
1348.2
1364.07
1377.73
1388.97
1397.59
1403.41
1406.25
1405.97
1402.44
1395.57
1385.31
1371.65
1354.61
1334.29
1310.8
1284.32
1255.06
1223.28
1189.27
1153.33
1115.79
1076.99
1037.26
996.932
956.324
915.729
875.418
835.632
796.584
758.451
721.384
685.498
650.889
617.623
585.746
555.299
526.258
498.658
472.616
448.009
423.415
401.103
380.191
360.704
342.574
325.717
310.046
295.473
281.918
269.304
257.565
246.638
236.464
226.991
218.166
209.945
202.283
195.139
188.477
182.261
176.461
171.046
165.989
161.265
156.851
152.725
148.868
145.26
141.885
138.727
135.77
133.002
130.41
127.981
125.705
123.571
121.571
119.695
117.934
116.281
114.73
113.273
111.903
110.616
109.404
108.263
107.188
106.174
105.218
104.313
103.457
102.645
101.874
101.139
100.438
99.7683
99.1305
98.5287
97.9444
97.1266
91.2513
72.1803
61.4321
54.9424
50.8361
48.062
46.0336
44.3614
22.9911
17.2269
21.5337
28.0803
35.5511
43.4496
51.5346
59.6607
67.8103
75.9738
84.1466
92.328
100.52
108.727
116.954
125.207
133.49
141.808
150.167
158.569
167.02
175.52
184.072
192.677
201.336
210.049
218.815
227.633
236.501
245.418
254.382
263.389
272.436
281.521
290.64
299.789
308.964
318.161
327.376
336.603
345.839
355.078
364.316
373.547
382.767
391.97
401.152
410.308
419.433
428.524
437.576
446.588
455.555
464.478
473.356
482.19
490.982
499.736
508.458
517.157
525.844
534.532
543.239
551.987
560.803
569.72
578.777
587.842
596.601
604.971
612.885
620.274
627.065
633.178
638.532
643.042
646.623
649.192
650.666
650.97
650.038
647.811
644.247
639.316
633.007
625.329
616.307
605.989
594.441
581.747
568.008
553.336
537.857
521.7
505.002
487.896
470.515
452.985
435.425
417.944
400.639
383.593
366.878
350.55
334.655
319.223
304.268
289.808
275.8
262.251
249.045
236.839
225.137
214.238
203.966
194.293
185.197
176.649
168.62
161.079
153.999
147.349
141.105
135.239
129.73
124.553
119.688
115.115
110.816
106.772
102.968
99.3887
96.0189
92.8458
89.8567
87.04
84.3848
81.8809
79.5187
77.2893
75.1845
73.1964
71.3178
69.5419
67.8622
66.2728
64.7682
63.343
61.9924
60.7117
59.4966
58.343
57.247
56.2052
55.214
54.2702
53.3709
52.5131
51.6942
50.9117
50.1632
49.4464
48.7592
48.0994
47.4653
46.8547
46.2657
45.6964
45.1447
44.6084
44.0808
43.4972
42.3659
40.1257
37.8433
35.8395
34.196
32.9311
32.1648
32.4389
43.6815
27.945
31.5538
38.1507
45.7598
53.7739
61.8965
69.9812
77.9758
85.867
93.6581
101.361
108.991
116.565
124.1
131.611
139.112
146.616
154.132
161.668
169.23
176.821
184.444
192.098
199.783
207.498
215.238
222.999
230.777
238.566
246.361
254.155
261.94
269.712
277.462
285.184
292.871
300.517
308.115
315.66
323.147
330.57
337.928
345.216
352.433
359.578
366.652
373.656
380.595
387.472
394.294
401.07
407.807
414.518
421.213
427.907
434.614
441.347
448.123
454.955
461.859
468.849
475.935
483.127
490.43
497.846
505.372
512.885
520.291
527.535
534.563
541.316
547.728
553.724
559.226
564.149
568.404
571.901
574.549
576.259
576.947
576.537
574.964
572.175
568.134
562.823
556.242
548.412
539.374
529.19
517.938
505.712
492.62
478.78
464.314
449.35
434.013
418.426
402.704
386.955
371.277
355.753
340.456
325.444
310.757
296.434
282.463
268.905
255.551
242.882
230.857
219.554
208.875
198.819
189.322
180.353
171.89
163.912
156.395
149.316
142.651
136.376
130.469
124.908
119.672
114.741
110.097
105.721
101.597
97.7095
94.0434
90.5849
87.3211
84.2399
81.3297
78.5801
75.981
73.5231
71.1976
68.9965
66.912
64.9371
63.0649
61.2893
59.6042
58.0043
56.4843
55.0394
53.6649
52.3567
51.1107
49.923
48.7901
47.7087
46.6756
45.6877
44.7424
43.8368
42.9685
42.1351
41.3346
40.5646
39.8233
39.1087
38.4191
37.7527
37.1076
36.482
35.8739
35.2808
34.6972
34.1
33.3983
32.504
31.5108
30.515
29.5968
28.8302
28.3495
28.4533
61.2595
36.6655
39.3254
45.6904
53.1298
60.973
68.9273
76.8482
84.6787
92.4066
100.04
107.596
115.096
122.562
130.014
137.47
144.946
152.455
160.006
167.606
175.26
182.969
190.732
198.546
206.408
214.312
222.25
230.215
238.197
246.187
254.174
262.148
270.098
278.013
285.883
293.697
301.444
309.116
316.703
324.198
331.593
338.883
346.063
353.13
360.085
366.928
373.661
380.291
386.825
393.272
399.644
405.957
412.226
418.47
424.708
430.962
437.253
443.603
450.035
456.57
463.226
470.022
476.971
484.082
491.36
498.803
506.402
514.07
521.751
529.398
536.955
544.362
551.546
558.427
564.917
570.92
576.335
581.054
584.969
587.972
589.958
590.829
590.498
588.893
585.956
581.652
575.963
568.897
560.485
550.781
539.861
527.817
514.76
500.814
486.111
470.786
454.978
438.821
422.444
405.967
389.5
373.137
356.953
341.029
325.384
310.108
295.082
280.61
266.746
253.565
241.067
229.256
218.09
207.534
197.548
188.104
179.182
170.761
162.818
155.331
148.276
141.629
135.368
129.471
123.914
118.679
113.745
109.093
104.707
100.57
96.6666
92.9815
89.5016
86.214
83.1067
80.1686
77.389
74.7582
72.2671
69.9069
67.6697
65.548
63.5346
61.6229
59.8068
58.0804
56.4384
54.8755
53.3871
51.9687
50.6158
49.3247
48.0914
46.9126
45.785
44.7052
43.6705
42.6781
41.7252
40.8095
39.9286
39.0804
38.2627
37.4737
36.7113
35.9739
35.2595
34.5665
33.8929
33.2367
32.5942
31.956
31.2996
30.6045
29.8811
29.1572
28.4729
27.8814
27.4724
27.3896
75.275
43.0969
44.6178
50.5678
57.7096
65.2737
72.9657
80.6505
88.2766
95.8365
103.343
110.818
118.285
125.769
133.29
140.869
148.521
156.258
164.089
172.018
180.048
188.179
196.406
204.724
213.126
221.602
230.141
238.731
247.359
256.01
264.67
273.324
281.956
290.55
299.091
307.563
315.952
324.244
332.425
340.484
348.41
356.195
363.831
371.313
378.641
385.813
392.833
399.708
406.448
413.064
419.573
425.993
432.346
438.657
444.952
451.259
457.606
464.025
470.545
477.194
483.998
490.982
498.166
505.563
513.182
521.025
529.082
537.293
545.612
553.991
562.371
570.686
578.857
586.795
594.4
601.563
608.167
614.088
619.198
623.37
626.478
628.403
629.036
628.287
626.081
622.366
617.111
610.313
601.996
592.212
581.036
568.567
554.921
540.23
524.641
508.303
491.367
473.985
456.302
438.448
420.551
402.725
385.022
367.599
350.368
333.616
317.461
301.954
287.125
273.007
259.6
246.894
234.859
223.46
212.662
202.442
192.777
183.647
175.028
166.898
159.233
152.007
145.198
138.781
132.733
127.033
121.659
116.592
111.813
107.304
103.048
99.0295
95.2336
91.6466
88.2553
85.0476
82.0121
79.1382
76.4159
73.8357
71.3891
69.0677
66.864
64.7708
62.7812
60.8892
59.0887
57.3742
55.7405
54.1828
52.6964
51.277
49.9206
48.6235
47.3819
46.1925
45.0521
43.9577
42.9066
41.8959
40.9233
39.9864
39.0829
38.2107
37.3678
36.5523
35.7624
34.9964
34.2525
33.5291
32.8238
32.1328
31.4497
30.7693
30.0938
29.435
28.8155
28.2705
27.8549
27.6367
85.1233
47.3536
47.6815
53.0738
59.8215
67.0406
74.4181
81.823
89.2097
96.5758
103.938
111.323
118.755
126.263
133.868
141.591
149.447
157.449
165.605
173.919
182.392
191.021
199.802
208.727
217.786
226.965
236.252
245.629
255.081
264.588
274.13
283.689
293.243
302.771
312.251
321.664
330.988
340.204
349.293
358.236
367.019
375.626
384.048
392.274
400.3
408.123
415.745
423.171
430.411
437.478
444.392
451.174
457.849
464.449
471.004
477.551
484.126
490.766
497.51
504.394
511.454
518.721
526.223
533.982
542.012
550.318
558.894
567.7
576.695
585.829
595.041
604.255
613.386
622.336
630.992
639.232
646.926
653.932
660.105
665.298
669.365
672.168
673.581
673.493
671.817
668.487
663.461
656.725
648.3
638.234
626.608
613.523
599.101
583.485
566.835
549.315
531.086
512.311
493.167
473.781
454.284
434.874
415.441
396.435
377.916
359.972
342.668
326.058
310.167
295.014
280.601
266.914
253.93
241.615
229.941
218.883
208.418
198.524
189.178
180.355
172.03
164.179
156.775
149.795
143.214
137.008
131.156
125.636
120.428
115.513
110.873
106.491
102.35
98.4361
94.7351
91.2336
87.9194
84.7808
81.807
78.988
76.3141
73.7765
71.367
69.0776
66.9012
64.8309
62.8602
60.9832
59.1942
57.4879
55.8594
54.304
52.8172
51.3949
50.0333
48.7287
47.4776
46.2767
45.1231
44.0138
42.9461
41.9175
40.9254
39.9678
39.0424
38.1471
37.2803
36.4401
35.625
34.8336
34.0645
33.3159
32.5863
31.875
31.1842
30.5212
29.9013
29.3481
28.894
28.5705
90.7372
49.688
48.9022
53.6458
59.9163
66.7309
73.7482
80.8335
87.9433
95.0777
102.257
109.509
116.862
124.346
131.985
139.8
147.808
156.023
164.454
173.104
181.975
191.065
200.368
209.875
219.574
229.451
239.49
249.672
259.976
270.381
280.862
291.395
301.954
312.513
323.044
333.52
343.914
354.199
364.35
374.34
384.148
393.753
403.136
412.282
421.182
429.827
438.216
446.351
454.242
461.901
469.349
476.61
483.714
490.695
497.593
504.449
511.307
518.213
525.214
532.356
539.682
547.235
555.05
563.158
571.578
580.322
589.387
598.75
608.375
618.207
628.181
638.214
648.211
658.063
667.648
676.83
685.462
693.391
700.456
706.491
711.333
714.828
716.834
717.227
715.908
712.802
707.86
701.06
692.417
681.979
669.832
656.084
640.86
624.306
606.594
587.915
568.429
548.28
527.735
506.88
485.779
464.954
444.373
424.225
404.602
385.588
367.244
349.616
332.733
316.61
301.249
286.64
272.762
259.587
247.09
235.244
224.026
213.413
203.38
193.901
184.952
176.505
168.535
161.017
153.924
147.233
140.92
134.963
129.34
124.031
119.017
114.281
109.804
105.571
101.567
97.7784
94.1911
90.793
87.5725
84.5188
81.6217
78.8717
76.2598
73.7777
71.4176
69.172
67.0341
64.9974
63.0559
61.2039
59.4359
57.7471
56.1325
54.5879
53.109
51.6918
50.3326
49.028
47.7747
46.5695
45.4094
44.2919
43.2142
42.174
41.1689
40.197
39.2561
38.3448
37.4615
36.605
35.7743
34.9688
34.1884
33.4339
32.7081
32.0167
31.3706
30.7862
30.2819
29.8711
92.4795
50.4147
48.6892
52.7473
58.4773
64.832
71.442
78.1638
84.9515
91.8051
98.7456
105.802
113.007
120.389
127.975
135.789
143.85
152.173
160.769
169.644
178.8
188.236
197.947
207.925
218.157
228.63
239.326
250.224
261.302
272.535
283.896
295.357
306.887
318.455
330.027
341.569
353.049
364.431
375.682
386.769
397.659
408.325
418.739
428.878
438.725
448.265
457.491
466.402
475.004
483.31
491.34
499.121
506.686
514.077
521.338
528.518
535.669
542.847
550.107
557.504
565.092
572.922
581.04
589.483
598.28
607.446
616.982
626.88
637.105
647.597
658.282
669.067
679.845
690.497
700.885
710.862
720.269
728.936
736.692
743.357
748.755
752.719
755.096
755.755
754.591
751.527
746.51
739.515
730.554
719.675
706.966
692.545
676.549
659.113
640.397
620.67
600.081
578.612
556.865
534.944
512.975
491.197
469.724
448.69
428.194
408.317
389.121
370.652
352.94
336.002
319.842
304.452
289.816
275.91
262.709
250.19
238.327
227.095
216.47
206.425
196.933
187.969
179.504
171.513
163.97
156.849
150.128
143.781
137.788
132.126
126.777
121.722
116.941
112.42
108.141
104.091
100.255
96.6196
93.1737
89.9053
86.8036
83.8586
81.0609
78.4016
75.8724
73.4655
71.1736
68.9898
66.9078
64.9214
63.0249
61.2131
59.4809
57.8236
56.2367
54.7159
53.2575
51.8576
50.5127
49.2195
47.9749
46.7761
45.6201
44.5046
43.427
42.3853
41.3773
40.4016
39.4566
38.5412
37.6548
36.797
35.9683
35.1702
34.4055
33.6792
32.9989
32.376
31.8201
31.3357
90.9452
49.868
47.4291
50.8111
55.9613
61.8098
67.9671
74.2794
80.6953
87.2122
93.8502
100.639
107.61
114.795
122.224
129.921
137.909
146.204
154.821
163.768
173.05
182.668
192.619
202.896
213.489
224.385
235.566
247.012
258.7
270.604
282.695
294.942
307.311
319.767
332.271
344.785
357.268
369.678
381.973
394.111
406.052
417.756
429.187
440.312
451.103
461.538
471.603
481.29
490.601
499.548
508.152
516.442
524.457
532.243
539.855
547.349
554.788
562.236
569.759
577.422
585.289
593.419
601.867
610.681
619.897
629.536
639.595
650.08
660.95
672.135
683.547
695.078
706.605
717.993
729.089
739.731
749.746
758.955
767.177
774.225
779.914
784.071
786.543
787.199
785.935
782.679
777.378
770.017
760.611
749.205
735.87
720.762
704.043
685.814
666.122
645.521
624.128
602.081
579.686
557.123
534.561
512.173
490.096
468.453
447.345
426.853
407.042
387.958
369.634
352.088
335.326
319.344
304.129
289.661
275.918
262.875
250.508
238.791
227.699
217.205
207.281
197.902
189.039
180.665
172.755
165.284
158.226
151.558
145.257
139.302
133.672
128.348
123.312
118.546
114.034
109.761
105.713
101.875
98.2362
94.7832
91.5054
88.3923
85.4341
82.6215
79.9459
77.3991
74.9736
72.6622
70.4581
68.355
66.3469
64.4283
62.5939
60.8387
59.1581
57.5476
56.0031
54.5207
53.0966
51.7275
50.4101
49.1412
47.9181
46.7379
45.5984
44.4971
43.4321
42.4016
41.4044
40.4393
39.5057
38.6035
37.7334
36.8969
36.0968
35.3373
34.6235
33.9633
33.3604
32.8155
86.8205
48.3716
45.4643
48.2153
52.7716
58.0812
63.7474
69.6075
75.6037
81.7285
87.9991
94.4439
101.095
107.985
115.144
122.601
130.378
138.497
146.973
155.819
165.044
174.65
184.639
195.005
205.743
216.84
228.282
240.049
252.12
264.469
277.068
289.884
302.883
316.026
329.272
342.579
355.899
369.185
382.388
395.456
408.34
420.99
433.357
445.398
457.073
468.35
479.204
489.62
499.596
509.139
518.272
527.027
535.45
543.596
551.528
559.317
567.037
574.764
582.576
590.546
598.75
607.256
616.127
625.42
635.179
645.431
656.165
667.39
679.052
691.062
703.306
715.654
727.962
740.072
751.812
763.004
773.463
783.001
791.433
798.572
804.229
808.238
810.461
810.779
809.099
805.353
799.498
791.546
781.531
769.495
755.406
739.585
722.216
703.427
683.384
662.378
640.609
618.266
595.568
572.704
549.846
527.152
504.761
482.793
461.348
440.509
420.34
400.889
382.191
364.266
347.121
330.757
315.161
300.319
286.209
272.809
260.095
248.041
236.621
225.808
215.575
205.895
196.741
188.086
179.905
172.17
164.859
157.947
151.411
145.229
139.382
133.85
128.613
123.655
118.959
114.51
110.292
106.293
102.499
98.8973
95.4775
92.2286
89.1404
86.2035
83.409
80.7486
78.2143
75.7989
73.4953
71.2971
69.1981
67.1925
65.2749
63.4401
61.6833
60
58.3858
56.8367
55.3488
53.9186
52.5426
51.2178
49.941
48.7096
47.5209
46.3727
45.263
44.1898
43.152
42.1483
41.1784
40.242
39.3399
38.4735
37.6454
36.8589
36.1174
35.4258
34.7843
34.192
80.8008
46.2215
43.0856
45.2755
49.2474
54.0028
59.1513
64.5258
70.0617
75.746
81.5918
87.6249
93.8764
100.379
107.163
114.259
121.693
129.487
137.661
146.231
155.208
164.599
174.409
184.638
195.282
206.332
217.777
229.602
241.788
254.311
267.144
280.258
293.617
307.184
320.917
334.77
348.694
362.637
376.544
390.356
404.013
417.457
430.626
443.465
455.92
467.947
479.508
490.579
501.148
511.222
520.82
529.981
538.759
547.22
555.443
563.514
571.523
579.561
587.72
596.086
604.743
613.768
623.232
633.197
643.717
654.822
666.491
678.718
691.422
704.479
717.742
731.047
744.216
757.063
769.395
781.016
791.73
801.344
809.678
816.556
821.786
825.232
826.787
826.363
823.89
819.286
812.546
803.747
792.948
780.221
765.638
749.402
731.679
712.636
692.452
671.339
649.498
627.123
604.406
581.528
558.656
535.941
513.517
491.501
469.991
449.069
428.799
409.23
390.398
372.324
355.018
338.481
322.705
307.678
293.38
279.79
266.886
254.642
243.033
232.033
221.614
211.75
202.414
193.58
185.222
177.315
169.835
162.757
156.061
149.723
143.724
138.044
132.665
127.569
122.74
118.163
113.821
109.703
105.794
102.083
98.557
95.2066
92.021
88.9908
86.1069
83.3607
80.7445
78.2506
75.872
73.6021
71.4346
69.3635
67.3834
65.489
63.6753
61.9377
60.2717
58.6733
57.1384
55.6634
54.2449
52.8795
51.5642
50.2961
49.0727
47.8916
46.7507
45.6483
44.5828
43.5532
42.559
41.6
40.677
39.7911
38.9445
38.1399
37.379
36.6648
35.9952
35.3688
73.852
43.7627
40.557
42.2583
45.6722
49.8747
54.4935
59.3617
64.4097
69.6183
74.9956
80.5636
86.3512
92.3897
98.7104
105.343
112.316
119.654
127.379
135.509
144.059
153.041
162.463
172.328
182.638
193.387
204.571
216.176
228.188
240.589
253.355
266.46
279.871
293.555
307.47
321.572
335.812
350.136
364.485
378.796
393.003
407.037
420.828
434.304
447.401
460.057
472.221
483.856
494.941
505.474
515.476
524.99
534.08
542.828
551.333
559.7
568.042
576.47
585.091
594.006
603.309
613.082
623.4
634.33
645.932
658.233
671.2
684.786
698.862
713.254
727.767
742.188
756.298
769.877
782.706
794.574
805.279
814.633
822.471
828.646
832.966
835.36
835.771
834.162
830.513
824.811
817.095
807.429
795.888
782.567
767.571
751.044
733.141
714.027
693.874
672.862
651.178
629.002
606.511
583.872
561.243
538.766
516.569
494.762
473.441
452.684
432.556
413.104
394.363
376.356
359.096
342.584
326.817
311.781
297.463
283.841
270.895
258.601
246.934
235.868
225.379
215.439
206.024
197.107
188.663
180.668
173.099
165.931
159.144
152.717
146.628
140.86
135.394
130.212
125.299
120.64
116.219
112.022
108.038
104.254
100.658
97.2396
93.9885
90.8953
87.9509
85.1467
82.4749
79.9278
77.4984
75.18
72.9663
70.8513
68.8293
66.8952
65.0439
63.2707
61.5711
59.9408
58.376
56.8729
55.4279
54.0377
52.6992
51.4096
50.1661
48.9665
47.8085
46.6904
45.6107
44.5682
43.5624
42.5931
41.6608
40.7665
39.912
39.0993
38.3288
37.6022
36.9158
36.2685
67.4286
41.4101
38.2002
39.4551
42.3325
45.9891
50.0758
54.4293
58.9757
63.6898
68.5734
73.6438
78.9259
84.4487
90.242
96.3355
102.757
109.534
116.688
124.241
132.211
140.612
149.456
158.752
168.503
178.712
189.376
200.489
212.041
224.019
236.406
249.18
262.315
275.781
289.542
303.557
317.782
332.163
346.643
361.158
375.638
390.007
404.188
418.099
431.66
444.796
457.441
469.54
481.062
491.997
502.362
512.205
521.603
530.657
539.488
548.231
557.024
566.003
575.294
585.014
595.264
606.13
617.68
629.984
643.106
657.053
671.766
687.126
702.934
718.948
734.907
750.541
765.585
779.782
792.893
804.698
815.006
823.655
830.512
835.474
838.469
839.449
838.404
835.347
830.314
823.352
814.524
803.903
791.581
777.66
762.254
745.488
727.498
708.433
688.448
667.701
646.357
624.578
602.523
580.344
558.183
536.173
514.431
493.062
472.155
451.784
432.011
412.883
394.434
376.687
359.656
343.345
327.751
312.865
298.674
285.159
272.302
260.081
248.471
237.45
226.992
217.073
207.668
198.753
190.303
182.296
174.708
167.517
160.703
154.244
148.122
142.318
136.814
131.594
126.641
121.942
117.48
113.244
109.22
105.397
101.762
98.3066
95.0192
91.8908
88.9124
86.0755
83.3723
80.7953
78.3374
75.992
73.7527
71.6136
69.5691
67.6138
65.7429
63.9515
62.2351
60.5896
59.0109
57.4952
56.039
54.639
53.2919
51.995
50.7456
49.5412
48.3796
47.259
46.178
45.1353
44.1302
43.1625
42.2324
41.3408
40.489
39.6783
38.9083
38.1797
37.4879
36.8323
61.1822
39.1578
36.0782
36.9712
39.3626
42.5021
46.0718
49.9171
53.9628
58.1782
62.559
67.1165
71.8707
76.8469
82.0724
87.575
93.3822
99.5201
106.013
112.883
120.151
127.834
135.946
144.499
153.503
162.964
172.884
183.263
194.097
205.379
217.098
229.24
241.786
254.712
267.991
281.588
295.463
309.572
323.86
338.266
352.721
367.15
381.468
395.586
409.415
422.864
435.851
448.309
460.19
471.475
482.182
492.362
502.109
511.547
520.827
530.118
539.588
549.402
559.708
570.631
582.274
594.719
608.028
622.256
637.448
653.569
670.511
688.049
705.897
723.732
741.225
758.051
773.9
788.492
801.578
812.952
822.449
829.952
835.39
838.727
839.961
839.112
836.234
831.401
824.705
816.24
806.102
794.386
781.194
766.63
750.803
733.823
715.808
696.884
677.181
656.835
635.984
614.768
593.326
571.79
550.287
528.935
507.84
487.099
466.792
446.991
427.752
409.12
391.129
373.801
357.152
341.187
325.905
311.299
297.358
284.067
271.408
259.361
247.905
237.018
226.677
216.858
207.539
198.697
190.308
182.351
174.804
167.645
160.856
154.417
148.308
142.512
137.013
131.793
126.839
122.134
117.666
113.422
109.389
105.555
101.91
98.443
95.1441
92.0042
89.0145
86.1667
83.453
80.866
78.3988
76.0448
73.7978
71.6518
69.6014
67.6412
65.7662
63.9718
62.2535
60.607
59.0284
57.514
56.0601
54.6633
53.3207
52.0292
50.7863
49.5893
48.4362
47.3251
46.2543
45.2227
44.2295
43.2742
42.357
41.4783
40.6391
39.8399
39.0799
38.3592
37.6728
37.0203
55.0595
36.9863
34.2087
34.8513
36.8314
39.5048
42.5932
45.9556
49.5189
53.2488
57.1351
61.1831
65.4073
69.828
74.4687
79.3545
84.511
89.9632
95.7353
101.85
108.329
115.191
122.453
130.132
138.238
146.784
155.775
165.219
175.117
185.468
196.269
207.513
219.189
231.283
243.775
256.642
269.854
283.374
297.157
311.15
325.291
339.507
353.715
367.825
381.738
395.355
408.579
421.328
433.541
445.19
456.29
466.903
477.139
487.153
497.134
507.289
517.825
528.936
540.788
553.51
567.197
581.909
597.686
614.556
632.528
651.479
671.187
691.3
711.425
731.159
750.105
767.892
784.188
798.708
811.222
821.561
829.615
835.335
838.725
839.834
838.744
835.559
830.408
823.429
814.765
804.555
792.925
779.988
765.851
750.614
734.371
717.215
699.239
680.542
661.226
641.397
621.167
600.651
579.964
559.216
538.519
517.973
497.674
477.706
458.144
439.051
420.482
402.477
385.071
368.285
352.134
336.626
321.761
307.535
293.939
280.96
268.583
256.79
245.562
234.879
224.72
215.064
205.89
197.176
188.9
181.042
173.583
166.501
159.779
153.398
147.339
141.587
136.126
130.939
126.012
121.332
116.885
112.658
108.64
104.819
101.185
97.7277
94.4374
91.3052
88.3226
85.4814
82.774
80.1932
77.7322
75.3846
73.1442
71.0052
68.9622
67.01
65.1437
63.3585
61.6502
60.0144
58.4474
56.9452
55.5045
54.1219
52.7942
51.5185
50.2922
49.1128
47.9782
46.8862
45.8355
44.8245
43.8525
42.9188
42.0233
41.1663
40.3481
39.5686
38.8271
38.1229
37.4512
36.8119
49.1019
34.8548
32.5631
33.0898
34.758
37.0414
39.7079
42.6353
45.7555
49.033
52.4533
56.0155
59.7284
63.6071
67.6704
71.9398
76.4381
81.1884
86.2136
91.5364
97.1783
103.16
109.5
116.216
123.324
130.839
138.772
147.133
155.931
165.172
174.859
184.993
195.572
206.592
218.044
229.915
242.187
254.837
267.833
281.136
294.694
308.447
322.32
336.225
350.066
363.739
377.138
390.171
402.764
414.885
426.546
437.823
448.853
459.828
470.981
482.565
494.829
507.991
522.225
537.649
554.325
572.268
591.466
611.896
633.478
655.935
678.842
701.713
724.055
745.394
765.294
783.371
799.307
812.857
823.85
832.191
837.86
840.903
841.424
839.569
835.515
829.456
821.594
812.128
801.247
789.121
775.893
761.685
746.598
730.717
714.115
696.858
679.009
660.635
641.807
622.601
603.099
583.389
563.562
543.708
523.919
504.281
484.876
465.779
447.056
428.765
410.955
393.665
376.927
360.763
345.189
330.213
315.837
302.059
288.872
276.267
264.229
252.745
241.798
231.368
221.439
211.99
203.002
194.455
186.331
178.609
171.271
164.298
157.673
151.379
145.399
139.718
134.319
129.188
124.313
119.678
115.272
111.082
107.098
103.308
99.7018
96.2703
93.004
89.8942
86.9326
84.1113
81.423
78.8607
76.4176
74.0876
71.8647
69.7431
67.7176
65.7831
63.9347
62.1679
60.4784
58.862
57.3149
55.8333
54.4139
53.0532
51.7482
50.4961
49.2941
48.1398
47.0309
45.9655
44.942
43.9588
43.015
42.1099
41.243
40.4142
39.6236
38.8703
38.1538
37.4732
36.8239
36.2059
43.3796
32.7165
31.0819
31.6452
33.1281
35.1281
37.4632
40.0326
42.7763
45.6595
48.6648
51.7869
55.0292
58.4018
61.9189
65.5982
69.4592
73.5228
77.8104
82.3436
87.1437
92.2316
97.6276
103.351
109.42
115.851
122.661
129.863
137.472
145.498
153.953
162.843
172.177
181.958
192.189
202.87
213.997
225.56
237.547
249.934
262.691
275.774
289.126
302.676
316.338
330.014
343.601
357.003
370.144
382.99
395.565
407.963
420.357
432.987
446.138
460.111
475.186
491.59
509.476
528.913
549.886
572.321
596.11
621.118
647.071
673.385
699.451
724.674
748.501
770.441
790.079
807.085
821.22
832.338
840.382
845.379
847.433
846.71
843.429
837.84
830.213
820.82
809.924
797.769
784.568
770.502
755.716
740.32
724.393
707.994
691.164
673.935
656.336
638.4
620.163
601.673
582.982
564.153
545.253
526.354
507.53
488.852
470.39
452.211
434.372
416.926
399.918
383.385
367.356
351.855
336.896
322.49
308.64
295.347
282.605
270.407
258.743
247.6
236.963
226.817
217.145
207.93
199.155
190.802
182.852
175.289
168.095
161.253
154.747
148.561
142.678
137.085
131.767
126.71
121.901
117.328
112.977
108.839
104.902
101.156
97.5905
94.1968
90.9657
87.889
84.9587
82.1671
79.5072
76.9722
74.5555
72.2512
70.0534
67.9566
65.9556
64.0454
62.2215
60.4792
58.8144
57.2232
55.7015
54.2459
52.853
51.5194
50.2422
49.0185
47.8456
46.7211
45.6428
44.6086
43.6169
42.666
41.755
40.8828
40.0489
39.2528
38.4942
37.7715
37.0848
36.433
35.812
35.2217
37.8976
30.4036
29.5564
30.3285
31.7945
33.6663
35.809
38.1432
40.6183
43.2026
45.8782
48.6374
51.4807
54.4144
57.4495
60.6005
63.8843
67.3197
70.9266
74.7253
78.7368
82.9819
87.4812
92.2548
97.3225
102.703
108.416
114.478
120.906
127.716
134.924
142.544
150.591
159.078
168.017
177.419
187.297
197.656
208.504
219.84
231.658
243.944
256.669
269.791
283.253
296.98
310.89
324.902
338.953
353.025
367.164
381.503
396.263
411.742
428.277
446.202
465.797
487.244
510.609
535.829
562.738
591.093
620.619
650.95
681.29
710.858
738.957
764.981
788.419
808.873
826.052
839.776
849.966
856.646
859.922
859.981
857.07
851.485
843.552
833.614
822.01
809.062
795.063
780.269
764.889
749.088
732.983
716.652
700.138
683.457
666.613
649.599
632.408