/*--------------------------------*- C++ -*----------------------------------*\
| =========                 |                                                 |
| \\      /  F ield         | foam-extend: Open Source CFD                    |
|  \\    /   O peration     | Version:     4.0                                |
|   \\  /    A nd           | Web:         http://www.foam-extend.org         |
|    \\/     M anipulation  |                                                 |
\*---------------------------------------------------------------------------*/
FoamFile
{
    version     2.0;
    format      ascii;
    class       volScalarField;
    location    "150";
    object      p;
}
// * * * * * * * * * * * * * * * * * * * * * * * * * * * * * * * * * * * * * //

dimensions      [0 2 -2 0 0 0 0];

internalField   nonuniform List<scalar> 
12225
(
-0.986572
-3.44763
-4.37032
-4.6359
-4.78196
-4.90061
-4.98898
-5.04975
-5.09032
-5.11537
-5.12658
-5.12417
-5.10758
-5.07557
-5.02579
-4.9542
-4.85227
-4.68851
-4.30258
-4.81139
-5.04221
-5.03364
-5.02939
-5.05733
-5.08992
-5.1152
-5.13228
-5.14131
-5.1414
-5.13116
-5.10904
-5.07315
-5.02085
-4.94817
-4.85029
-4.73299
-4.6069
-4.51037
-4.69464
-4.78981
-4.85856
-4.93265
-4.99796
-5.04705
-5.08128
-5.10276
-5.11211
-5.10902
-5.09271
-5.06195
-5.01478
-4.94852
-4.86105
-4.75696
-4.51546
-4.44133
-4.66297
-4.81009
-4.89464
-4.96654
-5.02693
-5.07161
-5.10208
-5.12051
-5.12765
-5.12328
-5.1067
-5.07685
-5.03228
-4.97135
-4.89333
-4.80162
-4.49976
-4.5061
-4.70042
-4.83828
-4.91556
-4.97856
-5.03308
-5.07499
-5.10439
-5.12272
-5.1305
-5.1275
-5.11315
-5.08667
-5.04719
-4.99403
-4.9275
-4.85082
-4.55764
-4.59137
-4.73856
-4.85675
-4.92973
-4.98902
-5.04093
-5.08199
-5.11154
-5.13058
-5.13961
-5.13855
-5.12705
-5.10474
-5.07133
-5.02697
-4.97279
-4.91227
-4.62481
-4.65894
-4.76969
-4.8725
-4.94387
-5.00155
-5.0516
-5.0919
-5.12169
-5.14165
-5.1523
-5.15373
-5.14585
-5.12867
-5.10242
-5.06789
-5.02678
-4.98265
-4.67854
-4.70881
-4.79876
-4.89027
-4.95915
-5.01513
-5.06344
-5.10297
-5.13301
-5.15402
-5.16647
-5.17057
-5.16646
-5.15439
-5.13498
-5.10935
-5.07948
-5.04883
-4.72423
-4.75164
-4.82722
-4.90896
-4.97464
-5.0288
-5.07558
-5.11451
-5.14493
-5.16711
-5.18148
-5.18834
-5.18799
-5.1809
-5.16791
-5.15038
-5.13038
-5.11106
-4.77283
-4.79751
-4.86026
-4.93197
-4.99356
-5.04559
-5.09089
-5.12934
-5.16036
-5.18408
-5.20089
-5.21115
-5.21532
-5.21406
-5.20837
-5.19974
-5.19019
-5.18248
-4.82422
-4.84589
-4.89756
-4.95961
-5.01652
-5.06623
-5.11014
-5.14828
-5.18019
-5.20589
-5.2257
-5.24006
-5.24955
-5.25495
-5.25735
-5.25825
-5.2595
-5.26341
-4.87788
-4.89642
-4.9389
-4.99219
-5.04417
-5.09141
-5.13412
-5.17223
-5.20539
-5.23354
-5.25697
-5.27615
-5.29171
-5.30449
-5.31559
-5.32639
-5.3385
-5.35376
-4.93322
-4.94884
-4.98396
-5.02971
-5.07692
-5.12176
-5.16355
-5.20203
-5.23689
-5.26804
-5.29572
-5.32037
-5.34264
-5.36335
-5.38352
-5.40433
-5.42706
-5.45311
-4.98951
-5.00267
-5.03214
-5.07183
-5.11487
-5.15766
-5.19898
-5.23836
-5.27547
-5.31019
-5.3427
-5.37339
-5.40285
-5.43181
-5.46113
-5.49172
-5.52453
-5.5606
-5.04574
-5.05705
-5.08246
-5.11771
-5.15762
-5.19905
-5.24056
-5.2815
-5.32148
-5.36035
-5.3982
-5.43534
-5.47224
-5.50947
-5.54768
-5.58753
-5.62963
-5.6747
-5.10033
-5.11044
-5.13333
-5.16588
-5.20405
-5.24515
-5.28773
-5.33102
-5.37454
-5.41809
-5.46166
-5.50545
-5.54976
-5.59499
-5.64154
-5.68982
-5.74018
-5.79309
-5.15063
-5.1602
-5.18207
-5.21375
-5.25186
-5.29401
-5.33879
-5.38533
-5.43312
-5.48183
-5.53138
-5.58181
-5.63326
-5.68592
-5.74
-5.79569
-5.85312
-5.91257
-5.18908
-5.19882
-5.22121
-5.25396
-5.29385
-5.33855
-5.38663
-5.43717
-5.48959
-5.5435
-5.5987
-5.65511
-5.71273
-5.7716
-5.83179
-5.89331
-5.95617
-6.02051
-5.20987
-5.22031
-5.2444
-5.27976
-5.32289
-5.37122
-5.4232
-5.47791
-5.53474
-5.59326
-5.6532
-5.7144
-5.77677
-5.84028
-5.90488
-5.97053
-6.03711
-6.10474
-5.21491
-5.22632
-5.25289
-5.29198
-5.33938
-5.39197
-5.44805
-5.50679
-5.5676
-5.63004
-5.69382
-5.75874
-5.82468
-5.89154
-5.95926
-6.02773
-6.09682
-6.16656
-5.20766
-5.22006
-5.24976
-5.2938
-5.34649
-5.40376
-5.46399
-5.52655
-5.59097
-5.6568
-5.72374
-5.79161
-5.86028
-5.92966
-5.99965
-6.07012
-6.14091
-6.21207
-5.19099
-5.2039
-5.23732
-5.28789
-5.34694
-5.40916
-5.47342
-5.53958
-5.60726
-5.67599
-5.74552
-5.81573
-5.88651
-5.95778
-6.02942
-6.1013
-6.17326
-6.24529
-5.1675
-5.17964
-5.21747
-5.27665
-5.34298
-5.41014
-5.47831
-5.54791
-5.61851
-5.68971
-5.76137
-5.83345
-5.90589
-5.9786
-6.05148
-6.12439
-6.19715
-6.26975
-5.13919
-5.14802
-5.1926
-5.26306
-5.33644
-5.40773
-5.47953
-5.55243
-5.62566
-5.69891
-5.77225
-5.84576
-5.91944
-5.9932
-6.06695
-6.14053
-6.21374
-6.28648
-5.10721
-5.10504
-5.16447
-5.25184
-5.33122
-5.40486
-5.47948
-5.55513
-5.63051
-5.70544
-5.78019
-5.85492
-5.92964
-6.0043
-6.07879
-6.15295
-6.22656
-6.29947
-5.08017
-5.03624
-5.12255
-5.23701
-5.32433
-5.40059
-5.47748
-5.55466
-5.63085
-5.70634
-5.78163
-5.85691
-5.93217
-6.00737
-6.08238
-6.15702
-6.23096
-6.30367
-5.11401
-4.96244
-5.06868
-5.20914
-5.30998
-5.39725
-5.4823
-5.56407
-5.64252
-5.71907
-5.79481
-5.87017
-5.94531
-6.02028
-6.09507
-6.16953
-6.24336
-6.31612
-5.23913
-4.98481
-5.05589
-5.1522
-5.23506
-5.32555
-5.41925
-5.50938
-5.59538
-5.67875
-5.7605
-5.84106
-5.92064
-5.99943
-6.07753
-6.15496
-6.23155
-6.30624
-5.1155
-5.34687
-5.50645
-5.50307
-5.49892
-5.53156
-5.58246
-5.63924
-5.69953
-5.76325
-5.82986
-5.89862
-5.96894
-6.04039
-6.11269
-6.18566
-6.25922
-6.33308
-1.92173
-3.85671
-4.71447
-4.99355
-5.14948
-5.28655
-5.40631
-5.50948
-5.60225
-5.68946
-5.77348
-5.85535
-5.9357
-6.01496
-6.09342
-6.17141
-6.24947
-6.32913
-4.86445
-4.87114
-4.88481
-4.90949
-4.94847
-5.00346
-5.0752
-5.16394
-5.26971
-5.39236
-5.53149
-5.68655
-5.85682
-6.04152
-6.23978
-6.4507
-6.67334
-6.90678
-7.1501
-7.40242
-7.66288
-7.93068
-8.20508
-8.48537
-8.77092
-9.06113
-9.35545
-9.65338
-9.95445
-10.2583
-10.5644
-10.8725
-11.1823
-11.4934
-11.8055
-12.1182
-12.4313
-12.7443
-13.057
-13.3688
-13.6793
-13.988
-14.2942
-14.5974
-14.8966
-15.1911
-15.4798
-15.7616
-16.0352
-16.2993
-16.5521
-16.7921
-17.0172
-17.2255
-17.4146
-17.5822
-17.7257
-17.8425
-17.9297
-17.9845
-18.0035
-17.984
-17.923
-17.8179
-17.6658
-17.4635
-17.207
-16.8932
-16.5199
-16.0853
-15.5884
-15.0286
-14.406
-13.7213
-12.976
-12.1722
-11.3129
-10.4017
-9.44298
-8.44181
-7.4038
-6.33515
-5.24245
-4.13265
-3.01287
-1.89032
-0.772102
0.334868
1.42403
2.48928
3.52508
4.52651
5.48938
6.41023
7.28634
8.11573
8.89714
9.62996
10.3142
10.9504
11.5396
12.0832
12.583
13.0409
13.4592
13.8401
14.1859
14.4988
14.7811
15.0351
15.263
15.469
15.6581
15.8291
15.9798
16.1122
16.2283
16.33
16.4189
16.4966
16.5643
16.623
16.6739
16.7177
16.7554
16.7876
16.815
16.8381
16.8574
16.8735
16.8867
16.8974
16.906
16.9126
16.9176
16.9212
16.9235
16.9248
16.9253
16.9249
16.9239
16.9224
16.9204
16.9181
16.9154
16.9124
16.9093
16.906
16.9025
16.899
16.8953
16.8915
16.8876
16.8837
16.8797
16.8756
16.8714
16.8671
16.8628
16.8583
16.8538
16.8492
16.8446
16.8399
16.8351
16.8303
16.8256
16.821
16.8166
16.8123
16.8082
16.8051
16.8051
16.8091
16.8165
16.8291
16.8505
16.8875
16.9544
17.0863
-4.8183
-4.83795
-4.85617
-4.87626
-4.90909
-4.95868
-5.02577
-5.11049
-5.2128
-5.33242
-5.46888
-5.62154
-5.78965
-5.97235
-6.16873
-6.37787
-6.59879
-6.83055
-7.07223
-7.32292
-7.58178
-7.84799
-8.12082
-8.39957
-8.6836
-8.97232
-9.2652
-9.56174
-9.86148
-10.164
-10.469
-10.776
-11.0847
-11.3949
-11.7062
-12.0183
-12.3309
-12.6436
-12.9561
-13.268
-13.5789
-13.8881
-14.1953
-14.4996
-14.8005
-15.0969
-15.388
-15.6727
-15.9497
-16.2176
-16.475
-16.7201
-16.951
-17.1657
-17.362
-17.5375
-17.6898
-17.8161
-17.9137
-17.9796
-18.0108
-18.0043
-17.9573
-17.8674
-17.7315
-17.5462
-17.3072
-17.0113
-16.6565
-16.2411
-15.7639
-15.2241
-14.6218
-13.9576
-13.2327
-12.4491
-11.6095
-10.7173
-9.77674
-8.79254
-7.77014
-6.7155
-5.63503
-4.5355
-3.42389
-2.30729
-1.19275
-0.0871511
1.00292
2.07131
3.11236
4.12103
5.09297
6.02451
6.91273
7.75543
8.55113
9.299
9.99885
10.651
11.2564
11.8162
12.332
12.8057
13.2393
13.635
13.9949
14.3214
14.6172
14.8859
15.1293
15.3479
15.5434
15.718
15.8729
16.0099
16.1309
16.2376
16.3316
16.4141
16.4864
16.5496
16.6047
16.6526
16.6941
16.73
16.7608
16.7871
16.8095
16.8285
16.8444
16.8576
16.8685
16.8773
16.8844
16.8899
16.8941
16.8971
16.8991
16.9002
16.9006
16.9004
16.8996
16.8984
16.8968
16.8948
16.8926
16.8902
16.8876
16.8847
16.8818
16.8787
16.8755
16.8721
16.8687
16.8651
16.8614
16.8576
16.8537
16.8497
16.8456
16.8413
16.837
16.8326
16.8282
16.8238
16.8193
16.815
16.8109
16.8071
16.8038
16.8014
16.8002
16.8022
16.8091
16.8221
16.844
16.8809
16.9444
17.0473
-4.76774
-4.80675
-4.85001
-4.88779
-4.93199
-4.98941
-5.06198
-5.1503
-5.25463
-5.37495
-5.51101
-5.66233
-5.8283
-6.00818
-6.20118
-6.40644
-6.62309
-6.85027
-7.08711
-7.33278
-7.5865
-7.84751
-8.11513
-8.38869
-8.66759
-8.95127
-9.23923
-9.53101
-9.82616
-10.1243
-10.4251
-10.7281
-11.0332
-11.34
-11.6481
-11.9573
-12.2674
-12.5779
-12.8886
-13.199
-13.5088
-13.8175
-14.1245
-14.4292
-14.7309
-15.0288
-15.3219
-15.6093
-15.8897
-16.1617
-16.4239
-16.6746
-16.9119
-17.1339
-17.3382
-17.5227
-17.6847
-17.8216
-17.9306
-18.0089
-18.0533
-18.0608
-18.0287
-17.9545
-17.8352
-17.6671
-17.4459
-17.1682
-16.832
-16.4356
-15.9775
-15.4572
-14.8744
-14.2295
-13.5238
-12.759
-11.9377
-11.0631
-10.1392
-9.17054
-8.16239
-7.12054
-6.05126
-4.96116
-3.85711
-2.74613
-1.63521
-0.531219
0.559236
1.62994
2.67518
3.68979
4.66926
5.60979
6.50827
7.36232
8.17028
8.93113
9.6445
10.3106
10.93
11.5038
12.0335
12.5207
12.9672
13.3752
13.7473
14.0861
14.3953
14.677
14.9319
15.162
15.3698
15.5565
15.723
15.8709
16.002
16.1181
16.2206
16.311
16.3906
16.4605
16.5218
16.5755
16.6222
16.6629
16.6982
16.7287
16.7549
16.7774
16.7965
16.8128
16.8265
16.8379
16.8474
16.8551
16.8613
16.8663
16.87
16.8728
16.8748
16.876
16.8766
16.8766
16.8762
16.8753
16.8741
16.8726
16.8709
16.8689
16.8667
16.8643
16.8618
16.8591
16.8562
16.8532
16.85
16.8467
16.8433
16.8397
16.836
16.8322
16.8282
16.8242
16.8201
16.8159
16.8118
16.8078
16.804
16.8005
16.7978
16.7962
16.7959
16.7981
16.8046
16.8167
16.8369
16.8697
16.9225
16.9881
-4.77525
-4.82963
-4.89224
-4.94583
-5.00212
-5.06923
-5.14959
-5.24386
-5.35241
-5.47533
-5.61253
-5.7637
-5.92836
-6.10596
-6.29581
-6.4972
-6.70939
-6.93161
-7.16312
-7.40317
-7.65107
-7.90613
-8.16772
-8.43524
-8.70816
-8.98595
-9.26815
-9.55433
-9.84411
-10.1371
-10.433
-10.7315
-11.0323
-11.3351
-11.6397
-11.9458
-12.2531
-12.5613
-12.8701
-13.1792
-13.4882
-13.7967
-14.104
-14.4098
-14.7132
-15.0135
-15.3098
-15.6011
-15.8862
-16.1638
-16.4323
-16.6902
-16.9356
-17.1664
-17.3804
-17.5753
-17.7484
-17.8972
-18.0187
-18.11
-18.1681
-18.1897
-18.172
-18.1126
-18.0084
-17.8555
-17.6493
-17.3866
-17.065
-16.6828
-16.2386
-15.7316
-15.1617
-14.529
-13.8348
-13.0806
-12.269
-11.4031
-10.4867
-9.52445
-8.52142
-7.4834
-6.41662
-5.3277
-4.22351
-3.11108
-1.99747
-0.88961
0.205812
1.2825
2.33465
3.35698
4.34488
5.29442
6.20242
7.06636
7.88447
8.65568
9.37946
10.0559
10.6855
11.2691
11.8083
12.3047
12.7604
13.1779
13.5609
13.9114
14.2308
14.5213
14.7849
15.0237
15.24
15.4347
15.609
15.7645
15.9027
16.0254
16.1341
16.2302
16.3151
16.39
16.4558
16.5137
16.5644
16.6087
16.6474
16.681
16.7101
16.7353
16.757
16.7756
16.7915
16.805
16.8163
16.8258
16.8337
16.8402
16.8454
16.8495
16.8527
16.8551
16.8568
16.8578
16.8583
16.8583
16.858
16.8573
16.8563
16.855
16.8534
16.8517
16.8497
16.8475
16.8452
16.8426
16.8399
16.837
16.8339
16.8307
16.8274
16.8238
16.8202
16.8164
16.8126
16.8087
16.8048
16.8009
16.7972
16.794
16.7915
16.79
16.7899
16.7921
16.7978
16.8082
16.8253
16.8517
16.8904
16.9241
-4.85749
-4.91923
-4.99132
-5.0541
-5.11842
-5.19264
-5.27923
-5.37875
-5.4914
-5.61721
-5.75606
-5.90767
-6.07167
-6.24755
-6.43477
-6.63272
-6.84077
-7.05826
-7.28455
-7.51902
-7.76103
-8.01001
-8.26538
-8.52663
-8.79328
-9.06487
-9.34099
-9.62125
-9.90531
-10.1928
-10.4836
-10.7772
-11.0734
-11.3721
-11.673
-11.9758
-12.2803
-12.5862
-12.8933
-13.2012
-13.5097
-13.8182
-14.1264
-14.4336
-14.7393
-15.0427
-15.3429
-15.6389
-15.9296
-16.2137
-16.4895
-16.7556
-17.01
-17.2505
-17.4751
-17.6811
-17.8661
-18.0272
-18.1616
-18.2661
-18.3375
-18.3727
-18.3688
-18.323
-18.2324
-18.0928
-17.8996
-17.6492
-17.3392
-16.9678
-16.5336
-16.0358
-15.4741
-14.8487
-14.1607
-13.4116
-12.604
-11.7409
-10.8262
-9.86428
-8.86043
-7.82041
-6.75052
-5.65743
-4.5481
-3.42964
-2.3092
-1.19384
-0.0903755
0.994809
2.05581
3.08724
4.08437
5.04323
5.96056
6.83373
7.66091
8.44102
9.17338
9.858
10.4955
11.0866
11.6335
12.1379
12.6032
13.0316
13.4238
13.7823
14.1089
14.4062
14.676
14.9207
15.1422
15.3418
15.521
15.6812
15.8241
15.9513
16.0644
16.1646
16.2534
16.3319
16.4012
16.4622
16.5159
16.5631
16.6044
16.6406
16.6721
16.6994
16.7232
16.7437
16.7614
16.7765
16.7895
16.8005
16.8097
16.8175
16.824
16.8292
16.8335
16.8369
16.8395
16.8414
16.8427
16.8436
16.8439
16.8439
16.8435
16.8428
16.8419
16.8406
16.8392
16.8375
16.8355
16.8334
16.8311
16.8285
16.8258
16.8229
16.8198
16.8166
16.8132
16.8097
16.806
16.8023
16.7985
16.7947
16.7911
16.7879
16.7853
16.7836
16.7833
16.7848
16.7892
16.7972
16.8102
16.8289
16.8535
16.8621
-5.00013
-5.06313
-5.13771
-5.20465
-5.27326
-5.35142
-5.44152
-5.54399
-5.6589
-5.78618
-5.92562
-6.07693
-6.23972
-6.41353
-6.59789
-6.79225
-6.99608
-7.2088
-7.42987
-7.65874
-7.89488
-8.13777
-8.38693
-8.6419
-8.90227
-9.16765
-9.43767
-9.712
-9.99034
-10.2724
-10.5579
-10.8467
-11.1385
-11.4332
-11.7304
-12.0301
-12.332
-12.6359
-12.9415
-13.2486
-13.5569
-13.866
-14.1756
-14.4849
-14.7936
-15.1008
-15.4058
-15.7075
-16.0047
-16.2962
-16.5805
-16.8558
-17.1203
-17.3717
-17.6079
-17.8261
-18.0238
-18.198
-18.3458
-18.4639
-18.5491
-18.598
-18.6076
-18.575
-18.4972
-18.37
-18.1885
-17.9488
-17.6486
-17.286
-16.8595
-16.3684
-15.8121
-15.1911
-14.5062
-13.7591
-12.9523
-12.0886
-11.1721
-10.2072
-9.19916
-8.1539
-7.07779
-5.9776
-4.8604
-3.73341
-2.60391
-1.47913
-0.366008
0.728965
1.79982
2.84107
3.84781
4.81604
5.7425
6.62438
7.45977
8.24776
8.98753
9.67933
10.3242
10.9229
11.4791
11.994
12.4681
12.9037
13.3026
13.6673
13.9999
14.3027
14.5779
14.8274
15.0532
15.257
15.4402
15.6045
15.7513
15.8824
15.9992
16.103
16.1952
16.277
16.3494
16.4134
16.4699
16.5197
16.5635
16.602
16.6357
16.6651
16.6908
16.7132
16.7326
16.7493
16.7638
16.7762
16.7869
16.7959
16.8035
16.8099
16.8152
16.8196
16.8231
16.8259
16.8281
16.8296
16.8307
16.8314
16.8316
16.8315
16.8311
16.8304
16.8294
16.8282
16.8267
16.8249
16.823
16.8208
16.8184
16.8158
16.813
16.81
16.8068
16.8035
16.8
16.7964
16.7927
16.789
16.7854
16.782
16.7792
16.7771
16.7761
16.7766
16.7792
16.7843
16.7926
16.8034
16.8148
16.8035
-5.18179
-5.24156
-5.31356
-5.38079
-5.45067
-5.53007
-5.62114
-5.72428
-5.83945
-5.9665
-6.10514
-6.25503
-6.41577
-6.58691
-6.76798
-6.95851
-7.158
-7.36595
-7.58187
-7.80528
-8.03572
-8.27274
-8.51593
-8.76489
-9.01925
-9.2787
-9.5429
-9.81159
-10.0845
-10.3614
-10.6421
-10.9263
-11.214
-11.5049
-11.7989
-12.0958
-12.3954
-12.6976
-13.0023
-13.309
-13.6177
-13.928
-14.2394
-14.5516
-14.8639
-15.1757
-15.4862
-15.7943
-16.0991
-16.399
-16.6927
-16.9783
-17.2538
-17.5172
-17.7658
-17.9972
-18.2084
-18.3965
-18.5583
-18.6906
-18.7898
-18.8526
-18.8756
-18.856
-18.7905
-18.6749
-18.5041
-18.2741
-17.9823
-17.627
-17.2066
-16.7203
-16.1677
-15.5491
-14.8654
-14.1182
-13.3099
-12.4436
-11.5232
-10.5533
-9.53912
-8.48673
-7.40264
-6.29376
-5.16728
-4.0305
-2.89086
-1.75577
-0.632364
0.472786
1.55373
2.6048
3.62084
4.59789
5.53282
6.42254
7.26519
8.0606
8.8077
9.50753
10.1621
10.7708
11.3352
11.8569
12.3374
12.779
13.1838
13.554
13.8919
14.1998
14.4798
14.7339
14.9639
15.1718
15.359
15.5271
15.6779
15.8127
15.9332
16.0406
16.1362
16.2212
16.2967
16.3637
16.423
16.4754
16.5218
16.5626
16.5986
16.6301
16.6578
16.6821
16.7032
16.7217
16.7377
16.7516
16.7636
16.774
16.7829
16.7904
16.7968
16.8022
16.8067
16.8104
16.8134
16.8157
16.8176
16.8189
16.8198
16.8203
16.8205
16.8203
16.8199
16.8191
16.818
16.8167
16.8151
16.8133
16.8113
16.809
16.8064
16.8037
16.8007
16.7976
16.7943
16.7908
16.7871
16.7835
16.7798
16.7762
16.773
16.7703
16.7684
16.7676
16.768
16.77
16.7732
16.7762
16.7759
16.7484
-5.37995
-5.43324
-5.49904
-5.5636
-5.6324
-5.71095
-5.80106
-5.90307
-6.01689
-6.14228
-6.27892
-6.42641
-6.58434
-6.75225
-6.9297
-7.1162
-7.3113
-7.51455
-7.72551
-7.94373
-8.16882
-8.40037
-8.63804
-8.88146
-9.13033
-9.38436
-9.64327
-9.90685
-10.1749
-10.4471
-10.7235
-11.0037
-11.2878
-11.5755
-11.8667
-12.1614
-12.4593
-12.7605
-13.0646
-13.3716
-13.6812
-13.9931
-14.3071
-14.6227
-14.9393
-15.2564
-15.5732
-15.8886
-16.2016
-16.5109
-16.8148
-17.1116
-17.3991
-17.6752
-17.9372
-18.1825
-18.408
-18.6105
-18.7869
-18.9336
-19.0471
-19.1238
-19.1602
-19.1533
-19.0996
-18.9949
-18.8338
-18.6122
-18.3277
-17.9784
-17.5627
-17.0799
-16.5296
-15.9119
-15.2279
-14.4792
-13.6682
-12.798
-11.8724
-10.8962
-9.87475
-8.81424
-7.72132
-6.60309
-5.46682
-4.31987
-3.16985
-2.02444
-0.891017
0.223802
1.31425
2.37441
3.39866
4.38348
5.32627
6.2234
7.07339
7.87788
8.63505
9.34375
10.0056
10.621
11.1915
11.719
12.2052
12.6523
13.0624
13.4378
13.7807
14.0935
14.3781
14.6366
14.871
15.0829
15.2742
15.4463
15.601
15.7397
15.8639
15.9749
16.0741
16.1625
16.2412
16.3113
16.3735
16.4288
16.4777
16.5211
16.5594
16.5933
16.6231
16.6493
16.6724
16.6926
16.7103
16.7258
16.7393
16.7511
16.7612
16.77
16.7776
16.7841
16.7896
16.7942
16.7981
16.8014
16.804
16.8061
16.8077
16.8089
16.8097
16.8101
16.8102
16.8099
16.8093
16.8084
16.8073
16.8058
16.8041
16.8022
16.7999
16.7975
16.7947
16.7918
16.7886
16.7852
16.7816
16.7779
16.7741
16.7703
16.7666
16.7632
16.7603
16.7578
16.756
16.7545
16.7526
16.7481
16.7375
16.6968
-5.57282
-5.61763
-5.67495
-5.73483
-5.80091
-5.87718
-5.96503
-6.0647
-6.17605
-6.29882
-6.43263
-6.57706
-6.73169
-6.89604
-7.06968
-7.25214
-7.44298
-7.64177
-7.8481
-8.06158
-8.28182
-8.50849
-8.74125
-8.9798
-9.22386
-9.47319
-9.72755
-9.98675
-10.2506
-10.519
-10.7917
-11.0687
-11.3499
-11.6351
-11.9243
-12.2174
-12.5143
-12.8149
-13.1192
-13.427
-13.7381
-14.0523
-14.3694
-14.689
-15.0106
-15.3336
-15.6573
-15.9807
-16.3027
-16.622
-16.9369
-17.2456
-17.5458
-17.8353
-18.1114
-18.3711
-18.6113
-18.8287
-19.0198
-19.1811
-19.3088
-19.3992
-19.4487
-19.454
-19.4116
-19.3168
-19.1642
-18.9499
-18.6713
-18.3267
-17.9146
-17.434
-16.8848
-16.267
-15.5816
-14.8304
-14.0158
-13.1408
-12.2094
-11.2263
-10.1972
-9.1283
-8.02651
-6.8991
-5.75347
-4.59686
-3.4371
-2.28232
-1.14024
-0.0172755
1.08148
2.1497
3.18093
4.17291
5.12439
6.0309
6.88971
7.70137
8.46482
9.17979
9.84727
10.4682
11.0442
11.5769
12.0683
12.5205
12.9356
13.3159
13.6637
13.9812
14.2704
14.5334
14.7721
14.9883
15.1838
15.3601
15.5189
15.6616
15.7897
15.9046
16.0074
16.0994
16.1816
16.2549
16.3203
16.3785
16.4304
16.4764
16.5173
16.5536
16.5857
16.6141
16.6392
16.6614
16.6809
16.6981
16.7132
16.7265
16.7381
16.7483
16.7571
16.7648
16.7714
16.7771
16.782
16.7862
16.7897
16.7926
16.795
16.7969
16.7984
16.7994
16.8001
16.8004
16.8003
16.7999
16.7992
16.7982
16.7969
16.7952
16.7933
16.7911
16.7886
16.7859
16.7828
16.7795
16.776
16.7722
16.7682
16.7641
16.7599
16.7557
16.7516
16.7474
16.7431
16.738
16.7311
16.7198
16.7
16.6488
-5.74134
-5.77675
-5.82448
-5.87854
-5.94089
-6.01404
-6.09889
-6.19555
-6.30385
-6.42348
-6.55405
-6.69513
-6.84628
-7.00704
-7.17694
-7.35556
-7.54245
-7.7372
-7.93943
-8.14875
-8.36484
-8.58735
-8.816
-9.05051
-9.29062
-9.53613
-9.78683
-10.0426
-10.3032
-10.5686
-10.8386
-11.1132
-11.3923
-11.6758
-11.9637
-12.256
-12.5526
-12.8534
-13.1585
-13.4677
-13.7809
-14.0981
-14.4188
-14.7429
-15.07
-15.3994
-15.7306
-16.0625
-16.394
-16.7239
-17.0503
-17.3714
-17.6848
-17.9882
-18.2786
-18.5529
-18.808
-19.0402
-19.2459
-19.4214
-19.5629
-19.6664
-19.7284
-19.7453
-19.7133
-19.6272
-19.4816
-19.2731
-18.9991
-18.6579
-18.248
-17.7686
-17.2193
-16.6005
-15.913
-15.1586
-14.3399
-13.4599
-12.5224
-11.5324
-10.4956
-9.41882
-8.30897
-7.1736
-6.02014
-4.8553
-3.68725
-2.52488
-1.3762
-0.247223
0.858719
1.93511
2.97444
3.9739
4.93134
5.84345
6.70807
7.52476
8.29298
9.01277
9.68494
10.3106
10.8912
11.4286
11.9247
12.3816
12.8014
13.1865
13.539
13.8611
14.155
14.4225
14.6658
14.8864
15.0863
15.267
15.4301
15.5771
15.7094
15.8283
15.9351
16.031
16.1168
16.1937
16.2625
16.324
16.3789
16.4279
16.4715
16.5104
16.5451
16.5759
16.6032
16.6275
16.649
16.6681
16.685
16.7
16.7132
16.7248
16.735
16.744
16.7519
16.7588
16.7648
16.77
16.7744
16.7782
16.7815
16.7842
16.7864
16.7881
16.7894
16.7903
16.7908
16.791
16.7908
16.7902
16.7893
16.7881
16.7865
16.7846
16.7824
16.7798
16.7769
16.7737
16.7702
16.7663
16.7621
16.7576
16.7529
16.7478
16.7424
16.7364
16.7295
16.721
16.7093
16.6915
16.6638
16.604
-5.87068
-5.89652
-5.93448
-5.98224
-6.04038
-6.11004
-6.1916
-6.28501
-6.39007
-6.50644
-6.63372
-6.77148
-6.91927
-7.07663
-7.24313
-7.41831
-7.60176
-7.79308
-7.99189
-8.19784
-8.41059
-8.62984
-8.8553
-9.08673
-9.3239
-9.56661
-9.81469
-10.068
-10.3264
-10.5898
-10.8581
-11.1312
-11.4092
-11.6919
-11.9794
-12.2717
-12.5687
-12.8705
-13.177
-13.4882
-13.8041
-14.1246
-14.4495
-14.7786
-15.1115
-15.4478
-15.7868
-16.1275
-16.4689
-16.8096
-17.1478
-17.4816
-17.8084
-18.1257
-18.4304
-18.7193
-18.9888
-19.2353
-19.455
-19.644
-19.7982
-19.9138
-19.9871
-20.0144
-19.9916
-19.9126
-19.7723
-19.5678
-19.2968
-18.9574
-18.5485
-18.069
-17.5187
-16.8979
-16.2076
-15.4497
-14.6266
-13.7418
-12.7987
-11.8022
-10.7588
-9.67533
-8.55911
-7.41797
-6.25954
-5.08942
-3.9151
-2.74645
-1.59141
-0.456174
0.654489
1.73479
2.77874
3.78261
4.74361
5.6591
6.52724
7.34725
8.11876
8.84198
9.51768
10.147
10.7315
11.2728
11.7731
12.2342
12.6585
13.0481
13.4053
13.732
14.0306
14.3028
14.5508
14.7761
14.9807
15.166
15.3337
15.4853
15.6221
15.7454
15.8565
15.9564
16.0462
16.127
16.1994
16.2644
16.3227
16.3749
16.4216
16.4634
16.5008
16.5341
16.5639
16.5906
16.6143
16.6354
16.6543
16.6711
16.686
16.6993
16.711
16.7215
16.7307
16.7389
16.7461
16.7524
16.7579
16.7628
16.7669
16.7705
16.7735
16.7761
16.7781
16.7797
16.7808
16.7815
16.7818
16.7818
16.7813
16.7805
16.7793
16.7778
16.7758
16.7735
16.7708
16.7677
16.7642
16.7602
16.7558
16.7509
16.7455
16.7395
16.7327
16.7249
16.7155
16.7035
16.6872
16.6636
16.629
16.5623
-5.95103
-5.96756
-5.99611
-6.03752
-6.09132
-6.1574
-6.23564
-6.32586
-6.42777
-6.54102
-6.66521
-6.79992
-6.9447
-7.09912
-7.26272
-7.43508
-7.61578
-7.80444
-8.00069
-8.20417
-8.41456
-8.63157
-8.85492
-9.08438
-9.31972
-9.56075
-9.80733
-10.0593
-10.3166
-10.5791
-10.8467
-11.1194
-11.3972
-11.6801
-11.968
-12.2611
-12.5593
-12.8626
-13.1712
-13.485
-13.8041
-14.1284
-14.4578
-14.7921
-15.1312
-15.4744
-15.8213
-16.171
-16.5224
-16.874
-17.224
-17.5703
-17.9103
-18.2411
-18.5596
-18.8623
-19.1454
-19.4051
-19.6374
-19.8383
-20.0038
-20.1297
-20.2126
-20.2487
-20.2332
-20.1591
-20.0218
-19.8192
-19.5492
-19.2102
-18.8007
-18.32
-17.7677
-17.1443
-16.4509
-15.6894
-14.8626
-13.9743
-13.028
-12.0277
-10.9798
-9.89177
-8.77094
-7.62507
-6.46194
-5.28848
-4.11179
-2.9405
-1.78247
-0.644346
0.468207
1.54968
2.59492
3.60002
4.562
5.47847
6.34779
7.1691
7.94216
8.66723
9.34511
9.97697
10.5643
11.1089
11.6127
12.0777
12.5061
12.9001
13.2617
13.5932
13.8965
14.1736
14.4265
14.6568
14.8663
15.0566
15.2292
15.3856
15.5272
15.6552
15.7709
15.8753
15.9694
16.0543
16.1307
16.1995
16.2614
16.3171
16.3671
16.4121
16.4524
16.4886
16.5211
16.5503
16.5764
16.5998
16.6208
16.6396
16.6564
16.6715
16.685
16.697
16.7077
16.7173
16.7258
16.7334
16.7401
16.746
16.7512
16.7558
16.7597
16.7631
16.7659
16.7682
16.77
16.7714
16.7723
16.7728
16.7729
16.7725
16.7718
16.7706
16.769
16.7669
16.7644
16.7614
16.7579
16.7538
16.7492
16.7438
16.7378
16.7308
16.7227
16.7131
16.7011
16.6857
16.6652
16.6364
16.5958
16.5235
-5.97718
-5.98521
-6.00522
-6.04061
-6.09015
-6.15271
-6.22775
-6.3149
-6.41384
-6.5242
-6.64557
-6.77756
-6.91973
-7.07166
-7.23293
-7.4031
-7.58177
-7.76856
-7.9631
-8.16504
-8.37406
-8.58985
-8.81215
-9.04072
-9.27534
-9.51583
-9.76202
-10.0138
-10.2711
-10.5337
-10.8017
-11.075
-11.3536
-11.6375
-11.9268
-12.2214
-12.5215
-12.8272
-13.1384
-13.4554
-13.7781
-14.1066
-14.4408
-14.7807
-15.126
-15.4764
-15.8313
-16.1899
-16.551
-16.9132
-17.2746
-17.6329
-17.9853
-18.3287
-18.6598
-18.9748
-19.2697
-19.5407
-19.7835
-19.9941
-20.1684
-20.3025
-20.3929
-20.4357
-20.4253
-20.3539
-20.2176
-20.0154
-19.7453
-19.4057
-18.9951
-18.5128
-17.9585
-17.3327
-16.6365
-15.8719
-15.0418
-14.1501
-13.2008
-12.1986
-11.1487
-10.0586
-8.93573
-7.78789
-6.62296
-5.44853
-4.27213
-3.10171
-1.94475
-0.807972
0.302704
1.38191
2.42489
3.42783
4.38777
5.30245
6.17038
6.99074
7.76335
8.48855
9.16714
9.8003
10.3895
10.9365
11.4433
11.9117
12.3439
12.742
13.1081
13.4442
13.7524
14.0345
14.2925
14.528
14.7428
14.9383
15.1162
15.2778
15.4245
15.5576
15.6781
15.7873
15.886
15.9754
16.0561
16.129
16.1948
16.2543
16.3079
16.3562
16.3998
16.4391
16.4745
16.5065
16.5352
16.5611
16.5844
16.6054
16.6243
16.6413
16.6566
16.6704
16.6828
16.6939
16.7039
16.7128
16.7208
16.7279
16.7343
16.7399
16.7448
16.7491
16.7528
16.7559
16.7585
16.7606
16.7622
16.7633
16.7639
16.7641
16.7638
16.763
16.7617
16.76
16.7577
16.7548
16.7513
16.7472
16.7423
16.7365
16.7298
16.7219
16.7125
16.7009
16.6865
16.668
16.6436
16.61
16.5642
16.4875
-5.94841
-5.94905
-5.96148
-5.99123
-6.03655
-6.09558
-6.1674
-6.25153
-6.34756
-6.45514
-6.57387
-6.70339
-6.84328
-6.99315
-7.15258
-7.32116
-7.49849
-7.68418
-7.87786
-8.07916
-8.28775
-8.50334
-8.72563
-8.95438
-9.18936
-9.43039
-9.67729
-9.92994
-10.1882
-10.4521
-10.7214
-10.9963
-11.2766
-11.5624
-11.8538
-12.1509
-12.4536
-12.7622
-13.0767
-13.3974
-13.7242
-14.0573
-14.3967
-14.7425
-15.0944
-15.4522
-15.8153
-16.183
-16.5541
-16.927
-17.2997
-17.6697
-18.034
-18.3892
-18.7317
-19.0575
-19.3625
-19.6426
-19.8935
-20.1112
-20.2916
-20.4311
-20.5264
-20.5733
-20.5646
-20.4925
-20.3545
-20.1505
-19.8785
-19.5367
-19.1239
-18.6391
-18.0822
-17.4538
-16.7549
-15.9877
-15.1551
-14.2607
-13.3091
-12.3053
-11.255
-10.1653
-9.04354
-7.89748
-6.735
-5.56389
-4.39185
-3.2265
-2.07508
-0.944168
0.160362
1.23331
2.27018
3.26732
4.22188
5.13176
5.99557
6.81258
7.58267
8.30619
8.98396
9.61715
10.2072
10.7558
11.2648
11.7362
12.1719
12.5739
12.9444
13.2852
13.5983
13.8857
14.149
14.3899
14.6102
14.8113
14.9947
15.1618
15.314
15.4524
15.5781
15.6924
15.7961
15.8901
15.9755
16.0528
16.1229
16.1863
16.2438
16.2958
16.3429
16.3855
16.4241
16.459
16.4906
16.5191
16.545
16.5683
16.5895
16.6087
16.626
16.6416
16.6558
16.6686
16.6801
16.6906
16.6999
16.7084
16.716
16.7227
16.7287
16.734
16.7387
16.7427
16.7461
16.749
16.7513
16.7531
16.7544
16.7551
16.7553
16.755
16.7541
16.7527
16.7506
16.7479
16.7445
16.7403
16.7351
16.729
16.7216
16.7128
16.702
16.6886
16.6719
16.6504
16.6224
16.5846
16.5342
16.4541
-5.86951
-5.86389
-5.86967
-5.8941
-5.93514
-5.99043
-6.05882
-6.13972
-6.23274
-6.33751
-6.45368
-6.5809
-6.71881
-6.86702
-7.02513
-7.19274
-7.36944
-7.55482
-7.74849
-7.95008
-8.15922
-8.37559
-8.59889
-8.82885
-9.06522
-9.3078
-9.55641
-9.8109
-10.0712
-10.3371
-10.6087
-10.8859
-11.1687
-11.4571
-11.7513
-12.0513
-12.3572
-12.6692
-12.9874
-13.312
-13.6433
-13.9812
-14.3261
-14.678
-15.0368
-15.4023
-15.774
-16.1512
-16.5325
-16.9164
-17.3006
-17.6823
-18.0582
-18.4246
-18.7774
-19.1124
-19.4253
-19.7118
-19.9679
-20.1894
-20.3725
-20.514
-20.6107
-20.6577
-20.6454
-20.5675
-20.4244
-20.2155
-19.9389
-19.5927
-19.1756
-18.6869
-18.1263
-17.4946
-16.793
-16.0236
-15.1894
-14.2942
-13.3426
-12.3399
-11.2921
-10.2061
-9.08927
-7.94926
-6.79388
-5.6309
-4.46797
-3.31249
-2.17143
-1.05115
0.0426695
1.10504
2.13172
3.11927
4.065
4.96695
5.82387
6.63509
7.40052
8.12055
8.79598
9.42792
10.0178
10.5672
11.0778
11.5516
11.9904
12.3962
12.7709
13.1165
13.4346
13.7273
13.9961
14.2427
14.4688
14.6757
14.8649
15.0379
15.1957
15.3397
15.471
15.5906
15.6996
15.7987
15.8889
15.9709
16.0455
16.1133
16.1749
16.2308
16.2816
16.3278
16.3697
16.4078
16.4424
16.4739
16.5024
16.5284
16.552
16.5734
16.5929
16.6106
16.6267
16.6413
16.6545
16.6666
16.6775
16.6873
16.6962
16.7043
16.7115
16.7179
16.7235
16.7285
16.7329
16.7366
16.7397
16.7422
16.7442
16.7455
16.7463
16.7465
16.746
16.745
16.7432
16.7407
16.7373
16.7331
16.7278
16.7212
16.7132
16.7034
16.6914
16.6763
16.6573
16.6332
16.6018
16.5604
16.506
16.4233
-5.74957
-5.73875
-5.73867
-5.7579
-5.79431
-5.84528
-5.90961
-5.98675
-6.07632
-6.17801
-6.2915
-6.41649
-6.55262
-6.69954
-6.85684
-7.0241
-7.20089
-7.38676
-7.5813
-7.78408
-7.99471
-8.21283
-8.43809
-8.67021
-8.90892
-9.15396
-9.40516
-9.66233
-9.92536
-10.1941
-10.4686
-10.7488
-11.0347
-11.3262
-11.6236
-11.9269
-12.2363
-12.5519
-12.874
-13.2027
-13.5384
-13.8813
-14.2317
-14.5897
-14.9554
-15.3287
-15.7092
-16.096
-16.4879
-16.8829
-17.2786
-17.6718
-18.0585
-18.4347
-18.7959
-19.1375
-19.4551
-19.7444
-20.0014
-20.2222
-20.4035
-20.5426
-20.6362
-20.6776
-20.6557
-20.5673
-20.4154
-20.1986
-19.9148
-19.5621
-19.1392
-18.6454
-18.0807
-17.4457
-16.7419
-15.9715
-15.1374
-14.2437
-13.2951
-12.2968
-11.2553
-10.1771
-9.06961
-7.94042
-6.79717
-5.64752
-4.4989
-3.35845
-2.23284
-1.12814
-0.0497728
0.997562
2.0099
2.98403
3.91745
4.80836
5.65561
6.45862
7.21731
7.93206
8.60363
9.23308
9.82172
10.3711
10.8828
11.3585
11.8002
12.2095
12.5884
12.9386
13.2619
13.5599
13.8344
14.0869
14.3189
14.5319
14.7272
14.9062
15.0701
15.22
15.3571
15.4824
15.5968
15.7012
15.7966
15.8835
15.9629
16.0352
16.1012
16.1613
16.2161
16.266
16.3115
16.353
16.3909
16.4254
16.4568
16.4855
16.5117
16.5356
16.5574
16.5773
16.5954
16.612
16.6271
16.6408
16.6534
16.6648
16.6751
16.6845
16.6929
16.7005
16.7073
16.7134
16.7187
16.7233
16.7273
16.7306
16.7333
16.7354
16.7367
16.7375
16.7375
16.7369
16.7354
16.7331
16.7299
16.7256
16.7202
16.7133
16.7047
16.694
16.6807
16.6641
16.6431
16.6164
16.5821
16.5374
16.4797
16.3949
-5.60111
-5.58597
-5.58034
-5.59392
-5.62465
-5.66999
-5.72896
-5.80118
-5.8864
-5.98437
-6.09484
-6.21751
-6.35204
-6.49803
-6.65506
-6.82264
-7.00029
-7.18751
-7.3838