/*--------------------------------*- C++ -*----------------------------------*\
| =========                 |                                                 |
| \\      /  F ield         | foam-extend: Open Source CFD                    |
|  \\    /   O peration     | Version:     4.0                                |
|   \\  /    A nd           | Web:         http://www.foam-extend.org         |
|    \\/     M anipulation  |                                                 |
\*---------------------------------------------------------------------------*/
FoamFile
{
    version     2.0;
    format      ascii;
    class       surfaceScalarField;
    location    "150";
    object      phi;
}
// * * * * * * * * * * * * * * * * * * * * * * * * * * * * * * * * * * * * * //

dimensions      [0 3 -1 0 0 0 0];

internalField   nonuniform List<scalar> 
24170
(
3.09289e-06
4.10041e-08
3.01957e-06
7.33152e-08
2.96188e-06
5.76938e-08
2.90514e-06
5.67442e-08
2.85051e-06
5.46242e-08
2.79953e-06
5.09901e-08
2.75241e-06
4.7114e-08
2.70896e-06
4.34538e-08
2.66886e-06
4.00968e-08
2.63181e-06
3.70578e-08
2.59746e-06
3.43478e-08
2.56548e-06
3.19773e-08
2.53553e-06
2.99506e-08
2.50725e-06
2.8286e-08
2.48021e-06
2.70359e-08
2.45386e-06
2.63591e-08
2.4266e-06
2.72539e-08
2.91106e-08
2.39749e-06
3.46883e-06
2.86229e-08
3.45712e-06
8.50219e-08
3.44113e-06
7.36873e-08
3.42543e-06
7.24475e-08
3.40882e-06
7.12345e-08
3.39162e-06
6.81884e-08
3.37409e-06
6.46503e-08
3.35632e-06
6.12243e-08
3.33839e-06
5.80287e-08
3.32035e-06
5.50951e-08
3.30225e-06
5.24568e-08
3.28407e-06
5.01567e-08
3.26578e-06
4.82413e-08
3.24729e-06
4.67813e-08
3.22841e-06
4.5913e-08
3.20884e-06
4.59332e-08
3.18861e-06
4.74848e-08
5.05112e-08
3.16721e-06
3.81031e-06
3.05121e-08
3.81792e-06
7.74106e-08
3.81694e-06
7.46659e-08
3.81512e-06
7.4265e-08
3.81188e-06
7.44759e-08
3.80714e-06
7.29332e-08
3.80122e-06
7.05771e-08
3.79434e-06
6.8099e-08
3.78666e-06
6.5706e-08
3.77828e-06
6.3481e-08
3.76924e-06
6.14944e-08
3.75958e-06
5.98229e-08
3.74927e-06
5.85517e-08
3.73826e-06
5.77939e-08
3.72644e-06
5.77327e-08
3.71369e-06
5.86775e-08
3.70009e-06
6.10873e-08
6.51658e-08
3.68544e-06
4.20355e-06
3.15201e-08
4.21286e-06
6.81054e-08
4.21579e-06
7.17336e-08
4.21746e-06
7.25975e-08
4.21817e-06
7.37625e-08
4.21772e-06
7.33923e-08
4.21626e-06
7.20294e-08
4.21399e-06
7.03725e-08
4.21099e-06
6.87065e-08
4.20731e-06
6.71582e-08
4.20298e-06
6.58251e-08
4.198e-06
6.48074e-08
4.19234e-06
6.42151e-08
4.18594e-06
6.41855e-08
4.17876e-06
6.49157e-08
4.17075e-06
6.66864e-08
4.16198e-06
6.98571e-08
7.46205e-08
4.15253e-06
4.63866e-06
3.0171e-08
4.64672e-06
6.00419e-08
4.65084e-06
6.76155e-08
4.65357e-06
6.98662e-08
4.65565e-06
7.16837e-08
4.65688e-06
7.21631e-08
4.6573e-06
7.16094e-08
4.65701e-06
7.06606e-08
4.65607e-06
6.96456e-08
4.65451e-06
6.8723e-08
4.65233e-06
6.80088e-08
4.64952e-06
6.76177e-08
4.64606e-06
6.76729e-08
4.64192e-06
6.832e-08
4.63709e-06
6.97475e-08
4.63158e-06
7.21949e-08
4.6255e-06
7.59349e-08
8.10903e-08
4.61903e-06
5.11713e-06
2.76407e-08
5.12399e-06
5.3174e-08
5.12866e-06
6.29466e-08
5.132e-06
6.65289e-08
5.13476e-06
6.89283e-08
5.13682e-06
7.01044e-08
5.13815e-06
7.02728e-08
5.13883e-06
6.99832e-08
5.13889e-06
6.95839e-08
5.13835e-06
6.92586e-08
5.13722e-06
6.91383e-08
5.1355e-06
6.93455e-08
5.13316e-06
7.00084e-08
5.13021e-06
7.1269e-08
5.12666e-06
7.32933e-08
5.12259e-06
7.62705e-08
5.11814e-06
8.03872e-08
8.56685e-08
5.11356e-06
5.64375e-06
2.48954e-08
5.64979e-06
4.71315e-08
5.65478e-06
5.79591e-08
5.65858e-06
6.27321e-08
5.66177e-06
6.57363e-08
5.66433e-06
6.75442e-08
5.66622e-06
6.83889e-08
5.66746e-06
6.87365e-08
5.66811e-06
6.89372e-08
5.66817e-06
6.91933e-08
5.66766e-06
6.96474e-08
5.66658e-06
7.04251e-08
5.66494e-06
7.16518e-08
5.66275e-06
7.34554e-08
5.66007e-06
7.59713e-08
5.65701e-06
7.93359e-08
5.65374e-06
8.36554e-08
8.88703e-08
5.65054e-06
4.40805e-06
2.29599e-08
4.41192e-06
4.32567e-08
4.41557e-06
5.43072e-08
4.41852e-06
5.97892e-08
4.421e-06
6.32584e-08
4.42304e-06
6.54945e-08
4.42464e-06
6.67949e-08
4.42579e-06
6.75878e-08
4.42651e-06
6.82128e-08
4.42682e-06
6.88786e-08
4.42674e-06
6.9733e-08
4.42626e-06
7.09009e-08
4.42541e-06
7.25011e-08
4.42422e-06
7.46489e-08
4.42273e-06
7.74542e-08
4.42105e-06
8.10161e-08
4.41932e-06
8.53926e-08
9.0466e-08
4.41772e-06
5.14185e-06
2.09697e-08
5.14573e-06
3.93699e-08
5.14962e-06
5.04243e-08
5.1529e-06
5.65011e-08
5.15574e-06
6.04273e-08
5.15813e-06
6.30975e-08
5.16006e-06
6.48656e-08
5.16152e-06
6.61242e-08
5.16254e-06
6.71967e-08
5.16312e-06
6.82944e-08
5.16329e-06
6.9565e-08
5.16306e-06
7.1131e-08
5.16246e-06
7.31003e-08
5.16154e-06
7.55705e-08
5.16037e-06
7.8625e-08
5.15907e-06
8.23251e-08
5.15777e-06
8.66856e-08
9.15532e-08
5.15669e-06
5.99781e-06
1.89504e-08
6.00165e-06
3.55329e-08
6.00569e-06
4.63807e-08
6.00929e-06
5.29045e-08
6.01247e-06
5.72503e-08
6.01522e-06
6.03415e-08
6.01751e-06
6.25743e-08
6.01933e-06
6.43059e-08
6.02069e-06
6.58378e-08
6.02161e-06
6.73771e-08
6.0221e-06
6.90686e-08
6.02221e-06
7.10257e-08
6.02197e-06
7.33431e-08
6.02144e-06
7.6098e-08
6.02072e-06
7.93465e-08
6.01993e-06
8.31152e-08
6.01923e-06
8.73839e-08
9.19806e-08
6.01881e-06
6.99629e-06
1.69311e-08
7.00002e-06
3.17993e-08
7.00417e-06
4.22324e-08
7.00805e-06
4.90275e-08
7.01157e-06
5.37317e-08
7.0147e-06
5.72119e-08
7.01738e-06
5.98865e-08
7.01961e-06
6.20804e-08
7.02138e-06
6.40663e-08
7.02272e-06
6.6039e-08
7.02365e-06
6.81353e-08
7.02423e-06
7.0457e-08
7.02449e-06
7.30816e-08
7.02452e-06
7.6065e-08
7.02443e-06
7.94369e-08
7.02435e-06
8.31964e-08
7.02444e-06
8.72984e-08
9.15662e-08
7.02485e-06
8.161e-06
1.49438e-08
8.16461e-06
2.81869e-08
8.16883e-06
3.80197e-08
8.17297e-06
4.489e-08
8.17684e-06
4.98594e-08
8.18038e-06
5.36739e-08
8.18352e-06
5.67452e-08
8.18624e-06
5.93667e-08
8.18853e-06
6.17767e-08
8.19042e-06
6.41512e-08
8.19195e-06
6.66129e-08
8.19316e-06
6.92488e-08
8.19412e-06
7.21178e-08
8.19493e-06
7.5255e-08
8.1957e-06
7.8669e-08
8.19656e-06
8.23378e-08
8.19765e-06
8.62024e-08
9.00937e-08
8.19913e-06
9.51967e-06
1.30059e-08
9.52317e-06
2.46808e-08
9.52744e-06
3.3754e-08
9.53184e-06
4.04914e-08
9.53611e-06
4.55951e-08
9.54013e-06
4.96576e-08
9.54382e-06
5.30516e-08
9.54715e-06
5.60363e-08
9.55012e-06
5.8812e-08
9.55275e-06
6.15287e-08
9.55507e-06
6.42905e-08
9.55715e-06
6.71671e-08
9.55907e-06
7.01997e-08
9.56092e-06
7.34041e-08
9.56282e-06
7.67719e-08
9.56489e-06
8.02696e-08
9.56726e-06
8.38348e-08
8.73143e-08
9.57004e-06
1.11046e-05
1.11105e-08
1.11081e-05
2.12308e-08
1.11124e-05
2.93988e-08
1.11171e-05
3.57903e-08
1.11219e-05
4.08599e-08
1.11265e-05
4.50447e-08
1.11309e-05
4.86533e-08
1.1135e-05
5.19018e-08
1.11389e-05
5.49515e-08
1.11425e-05
5.79215e-08
1.11459e-05
6.08935e-08
1.11491e-05
6.39177e-08
1.11523e-05
6.70179e-08
1.11555e-05
7.01948e-08
1.11589e-05
7.34295e-08
1.11624e-05
7.66846e-08
1.11664e-05
7.99026e-08
8.29513e-08
1.11707e-05
1.29535e-05
9.21866e-09
1.2957e-05
1.77434e-08
1.29616e-05
2.48523e-08
1.29667e-05
3.06776e-08
1.2972e-05
3.55108e-08
1.29774e-05
3.96499e-08
1.29828e-05
4.33262e-08
1.2988e-05
4.67038e-08
1.2993e-05
4.99028e-08
1.29979e-05
5.30086e-08
1.30027e-05
5.60774e-08
1.30075e-05
5.91395e-08
1.30123e-05
6.22038e-08
1.30173e-05
6.52605e-08
1.30224e-05
6.82854e-08
1.30278e-05
7.12437e-08
1.30337e-05
7.40869e-08
7.67068e-08
1.30399e-05
1.51104e-05
7.25128e-09
1.51141e-05
1.4064e-08
1.5119e-05
1.99258e-08
1.51248e-05
2.4946e-08
1.5131e-05
2.93074e-08
1.51374e-05
3.31939e-08
1.5144e-05
3.67537e-08
1.51506e-05
4.00935e-08
1.51572e-05
4.3289e-08
1.51638e-05
4.63913e-08
1.51705e-05
4.94295e-08
1.51772e-05
5.24146e-08
1.51841e-05
5.53424e-08
1.51911e-05
5.81969e-08
1.51985e-05
6.09542e-08
1.52061e-05
6.35843e-08
1.52142e-05
6.60496e-08
6.82644e-08
1.52226e-05
1.76266e-05
5.07849e-09
1.76307e-05
9.94907e-09
1.76364e-05
1.43057e-08
1.76431e-05
1.82442e-08
1.76505e-05
2.18676e-08
1.76584e-05
2.52641e-08
1.76667e-05
2.84978e-08
1.76752e-05
3.16135e-08
1.76838e-05
3.46393e-08
1.76926e-05
3.75903e-08
1.77016e-05
4.04698e-08
1.77107e-05
4.32705e-08
1.77201e-05
4.59781e-08
1.77297e-05
4.85729e-08
1.77396e-05
5.10326e-08
1.77499e-05
5.33328e-08
1.77605e-05
5.54456e-08
5.73062e-08
1.77714e-05
1.78284e-05
2.8422e-09
1.78327e-05
5.6847e-09
1.78386e-05
8.41674e-09
1.78457e-05
1.11322e-08
1.78537e-05
1.38727e-08
1.78623e-05
1.66393e-08
1.78714e-05
1.94156e-08
1.78808e-05
2.21866e-08
1.78905e-05
2.49368e-08
1.79005e-05
2.76491e-08
1.79106e-05
3.03035e-08
1.7921e-05
3.28781e-08
1.79317e-05
3.53502e-08
1.79425e-05
3.76976e-08
1.79537e-05
3.98988e-08
1.79651e-05
4.19338e-08
1.79767e-05
4.37817e-08
4.53929e-08
1.79886e-05
1.58835e-05
7.06689e-10
1.58876e-05
1.59896e-09
1.58932e-05
2.75229e-09
1.59001e-05
4.27967e-09
1.59078e-05
6.16799e-09
1.59161e-05
8.3209e-09
1.59249e-05
1.06423e-08
1.5934e-05
1.30639e-08
1.59434e-05
1.55351e-08
1.5953e-05
1.80116e-08
1.59629e-05
2.04544e-08
1.59729e-05
2.28297e-08
1.59832e-05
2.51088e-08
1.59936e-05
2.72671e-08
1.60042e-05
2.92835e-08
1.6015e-05
3.11403e-08
1.6026e-05
3.28206e-08
3.42852e-08
1.60371e-05
1.41507e-05
-1.37522e-09
1.41548e-05
-2.41599e-09
1.41603e-05
-2.82504e-09
1.4167e-05
-2.42038e-09
1.41745e-05
-1.29569e-09
1.41825e-05
3.16827e-10
1.41909e-05
2.23676e-09
1.41996e-05
4.35271e-09
1.42086e-05
6.58378e-09
1.42177e-05
8.86142e-09
1.42271e-05
1.11304e-08
1.42365e-05
1.33482e-08
1.42462e-05
1.54818e-08
1.42559e-05
1.7505e-08
1.42658e-05
1.93965e-08
1.42758e-05
2.11397e-08
1.42859e-05
2.272e-08
2.4106e-08
1.42961e-05
1.26071e-05
-3.40286e-09
1.26111e-05
-6.4256e-09
1.26167e-05
-8.41778e-09
1.26233e-05
-9.02773e-09
1.26305e-05
-8.52694e-09
1.26382e-05
-7.35e-09
1.26462e-05
-5.75413e-09
1.26544e-05
-3.87762e-09
1.26628e-05
-1.82993e-09
1.26714e-05
2.97347e-10
1.26801e-05
2.4368e-09
1.26889e-05
4.54051e-09
1.26978e-05
6.57297e-09
1.27068e-05
8.50672e-09
1.27159e-05
1.03203e-08
1.2725e-05
1.19975e-08
1.27342e-05
1.35252e-08
1.48768e-08
1.27434e-05
1.12317e-05
-5.31212e-09
1.12358e-05
-1.04814e-08
1.12415e-05
-1.41212e-08
1.1248e-05
-1.55642e-08
1.1255e-05
-1.55026e-08
1.12623e-05
-1.46487e-08
1.12698e-05
-1.32913e-08
1.12775e-05
-1.15789e-08
1.12853e-05
-9.65229e-09
1.12933e-05
-7.62436e-09
1.13013e-05
-5.5702e-09
1.13094e-05
-3.5402e-09
1.13175e-05
-1.57073e-09
1.13257e-05
3.10632e-10
1.13339e-05
2.0831e-09
1.13422e-05
3.731e-09
1.13505e-05
5.24167e-09
6.59145e-09
1.13588e-05
1.00063e-05
-6.96874e-09
1.00104e-05
-1.46477e-08
1.00163e-05
-2.00167e-08
1.00228e-05
-2.1999e-08
1.00294e-05
-2.21781e-08
1.00363e-05
-2.15437e-08
1.00434e-05
-2.03306e-08
1.00505e-05
-1.87e-08
1.00577e-05
-1.6833e-08
1.00649e-05
-1.48583e-08
1.00722e-05
-1.28518e-08
1.00795e-05
-1.08621e-08
1.00869e-05
-8.9248e-09
1.00943e-05
-7.06622e-09
1.01016e-05
-5.30611e-09
1.0109e-05
-3.66005e-09
1.01164e-05
-2.14171e-09
-7.76999e-10
1.01238e-05
8.91428e-06
-8.14739e-09
8.91871e-06
-1.90819e-08
8.92479e-06
-2.61024e-08
8.93098e-06
-2.81879e-08
8.93727e-06
-2.8468e-08
8.9437e-06
-2.79785e-08
8.95018e-06
-2.6813e-08
8.95667e-06
-2.51838e-08
8.96316e-06
-2.33208e-08
8.96966e-06
-2.13581e-08
8.97617e-06
-1.93658e-08
8.9827e-06
-1.73888e-08
8.98924e-06
-1.546e-08
8.99578e-06
-1.36027e-08
9.00231e-06
-1.18341e-08
9.00882e-06
-1.01679e-08
9.01529e-06
-8.61747e-09
-7.2082e-09
9.02173e-06
7.94075e-06
-8.23222e-09
7.94593e-06
-2.42605e-08
7.95209e-06
-3.22723e-08
7.95781e-06
-3.39025e-08
7.9636e-06
-3.42602e-08
7.96948e-06
-3.3865e-08
7.97533e-06
-3.26578e-08
7.98111e-06
-3.09645e-08
7.98685e-06
-2.90599e-08
7.99257e-06
-2.70719e-08
7.99826e-06
-2.50625e-08
8.00395e-06
-2.30724e-08
8.00962e-06
-2.11306e-08
8.01528e-06
-1.92562e-08
8.02091e-06
-1.7462e-08
8.0265e-06
-1.57585e-08
8.03204e-06
-1.41595e-08
-1.27053e-08
8.03754e-06
7.07144e-06
-5.34533e-09
7.07845e-06
-3.12709e-08
7.08468e-06
-3.84995e-08
7.0899e-06
-3.91192e-08
7.09518e-06
-3.95479e-08
7.10042e-06
-3.91034e-08
7.10549e-06
-3.77259e-08
7.11042e-06
-3.58972e-08
7.11526e-06
-3.39032e-08
7.12004e-06
-3.18503e-08
7.12477e-06
-2.97905e-08
7.12946e-06
-2.77599e-08
7.13412e-06
-2.57828e-08
7.13874e-06
-2.38734e-08
7.14332e-06
-2.20383e-08
7.14784e-06
-2.02797e-08
7.15228e-06
-1.86001e-08
-1.7013e-08
7.15659e-06
6.29435e-06
2.81987e-09
6.30426e-06
-4.11885e-08
6.31036e-06
-4.45976e-08
6.3153e-06
-4.40561e-08
6.32013e-06
-4.43773e-08
6.32451e-06
-4.34832e-08
6.32845e-06
-4.1665e-08
6.3321e-06
-3.95464e-08
6.33556e-06
-3.73647e-08
6.33889e-06
-3.51811e-08
6.34213e-06
-3.3027e-08
6.3453e-06
-3.09273e-08
6.34842e-06
-2.88981e-08
6.35149e-06
-2.69468e-08
6.35453e-06
-2.50728e-08
6.35751e-06
-2.32674e-08
6.36044e-06
-2.15201e-08
-1.98727e-08
6.3633e-06
5.60345e-06
1.42722e-08
5.61452e-06
-5.22605e-08
5.61827e-06
-4.83467e-08
5.62187e-06
-4.76525e-08
5.62515e-06
-4.76567e-08
5.62755e-06
-4.5882e-08
5.62921e-06
-4.33266e-08
5.63037e-06
-4.07008e-08
5.63118e-06
-3.81704e-08
5.63174e-06
-3.5747e-08
5.63215e-06
-3.34325e-08
5.63245e-06
-3.12309e-08
5.6327e-06
-2.91431e-08
5.63292e-06
-2.7165e-08
5.63313e-06
-2.52858e-08
5.63334e-06
-2.34807e-08
5.63352e-06
-2.16939e-08
-1.97963e-08
5.63344e-06
5.01484e-06
1.74542e-09
5.01265e-06
-5.00676e-08
5.00415e-06
-3.98518e-08
4.99731e-06
-4.08035e-08
4.9905e-06
-4.08528e-08
4.98359e-06
-3.89671e-08
4.9767e-06
-3.64306e-08
4.96987e-06
-3.38696e-08
4.96313e-06
-3.14303e-08
4.95651e-06
-2.91328e-08
4.95006e-06
-2.69805e-08
4.9438e-06
-2.49726e-08
4.93776e-06
-2.31048e-08
4.93197e-06
-2.13686e-08
4.92643e-06
-1.97512e-08
4.92118e-06
-1.82272e-08
4.91621e-06
-1.67298e-08
-1.50142e-08
4.91143e-06
4.4583e-06
4.40823e-06
4.36838e-06
4.32758e-06
4.28672e-06
4.24776e-06
4.21133e-06
4.17746e-06
4.14603e-06
4.11689e-06
4.08991e-06
4.06494e-06
4.04184e-06
4.02047e-06
4.00072e-06
3.98249e-06
3.96576e-06
3.95075e-06
2.04786e-08
-2.04769e-08
-2.95669e-08
5.00103e-08
-1.27088e-07
9.75055e-08
-2.47242e-07
1.20147e-07
-3.78464e-07
1.31219e-07
-5.16034e-07
1.37569e-07
-6.57651e-07
1.41616e-07
-8.01904e-07
1.44252e-07
-9.47786e-07
1.45878e-07
-1.09451e-06
1.46715e-07
-1.24142e-06
1.4691e-07
-1.388e-06
1.46575e-07
-1.53381e-06
1.45801e-07
-1.67847e-06
1.44666e-07
-1.82171e-06
1.43235e-07
-1.96327e-06
1.41566e-07
-2.10298e-06
1.39709e-07
-2.24069e-06
1.37708e-07
-2.37629e-06
1.35601e-07
-2.50971e-06
1.3342e-07
-2.64091e-06
1.31196e-07
-2.76986e-06
1.28952e-07
-2.89656e-06
1.2671e-07
-3.02105e-06
1.24486e-07
-3.14334e-06
1.22294e-07
-3.26348e-06
1.20146e-07
-3.38153e-06
1.18051e-07
-3.49755e-06
1.16015e-07
-3.61159e-06
1.14043e-07
-3.72373e-06
1.12136e-07
-3.83402e-06
1.10296e-07
-3.94255e-06
1.08523e-07
-4.04936e-06
1.06814e-07
-4.15452e-06
1.05166e-07
-4.25809e-06
1.03572e-07
-4.36011e-06
1.02027e-07
-4.46063e-06
1.00522e-07
-4.55968e-06
9.9051e-08
-4.65728e-06
9.76029e-08
-4.75345e-06
9.61669e-08
-4.84818e-06
9.47303e-08
-4.94145e-06
9.32795e-08
-5.03325e-06
9.17997e-08
-5.12353e-06
9.02753e-08
-5.21223e-06
8.86897e-08
-5.29926e-06
8.70252e-08
-5.38452e-06
8.52628e-08
-5.46791e-06
8.33817e-08
-5.54927e-06
8.13606e-08
-5.62844e-06
7.91767e-08
-5.70525e-06
7.68073e-08
-5.77948e-06
7.42291e-08
-5.85089e-06
7.1419e-08
-5.91924e-06
6.8354e-08
-5.98425e-06
6.50111e-08
-6.04561e-06
6.13678e-08
-6.10301e-06
5.74025e-08
-6.15611e-06
5.30955e-08
-6.20454e-06
4.84291e-08
-6.24793e-06
4.33883e-08
-6.2859e-06
3.79592e-08
-6.31803e-06
3.21293e-08
-6.34393e-06
2.58872e-08
-6.36316e-06
1.92246e-08
-6.3753e-06
1.21369e-08
-6.37992e-06
4.62371e-09
-6.37658e-06
-3.34273e-09
-6.36483e-06
-1.17467e-08
-6.3443e-06
-2.05271e-08
-6.31464e-06
-2.96553e-08
-6.27555e-06
-3.909e-08
-6.22676e-06
-4.87847e-08
-6.16807e-06
-5.86888e-08
-6.09932e-06
-6.87468e-08
-6.02042e-06
-7.88989e-08
-5.93133e-06
-8.90797e-08
-5.83211e-06
-9.9218e-08
-5.72287e-06
-1.09239e-07
-5.60381e-06
-1.19066e-07
-5.47519e-06
-1.28619e-07
-5.33738e-06
-1.3782e-07
-5.1908e-06
-1.46588e-07
-5.03596e-06
-1.54846e-07
-4.87344e-06
-1.62523e-07
-4.70389e-06
-1.69555e-07
-4.52801e-06
-1.75883e-07
-4.34655e-06
-1.81459e-07
-4.16031e-06
-1.86243e-07
-3.9701e-06
-1.9021e-07
-3.77676e-06
-1.93343e-07
-3.58111e-06
-1.9564e-07
-3.384e-06
-1.9711e-07
-3.18622e-06
-1.97774e-07
-2.98857e-06
-1.9766e-07
-2.79176e-06
-1.96809e-07
-2.5965e-06
-1.95267e-07
-2.40341e-06
-1.93089e-07
-2.21308e-06
-1.90334e-07
-2.02602e-06
-1.87067e-07
-1.84267e-06
-1.83352e-07
-1.66342e-06
-1.79255e-07
-1.48859e-06
-1.74837e-07
-1.31842e-06
-1.70175e-07
-1.15309e-06
-1.6533e-07
-9.92702e-07
-1.60379e-07
-8.37311e-07
-1.55383e-07
-6.86873e-07
-1.50436e-07
-5.41346e-07
-1.45531e-07
-4.00485e-07
-1.40875e-07
-2.63895e-07
-1.36615e-07
-1.31067e-07
-1.32844e-07
-1.88617e-09
-1.29191e-07
1.2233e-07
-1.24224e-07
2.4075e-07
-1.18433e-07
3.53179e-07
-1.12427e-07
4.5996e-07
-1.06779e-07
5.61462e-07
-1.01487e-07
6.5802e-07
-9.653e-08
7.49914e-07
-9.18758e-08
8.37395e-07
-8.74833e-08
9.20693e-07
-8.33194e-08
1.00002e-06
-7.936e-08
1.07559e-06
-7.55888e-08
1.14757e-06
-7.19995e-08
1.21616e-06
-6.85884e-08
1.28151e-06
-6.53472e-08
1.34379e-06
-6.22674e-08
1.40315e-06
-5.93415e-08
1.45973e-06
-5.6561e-08
1.51366e-06
-5.39172e-08
1.56506e-06
-5.14031e-08
1.61408e-06
-4.9011e-08
1.66081e-06
-4.67337e-08
1.70537e-06
-4.45663e-08
1.74786e-06
-4.25049e-08
1.7884e-06
-4.05432e-08
1.82707e-06
-3.86754e-08
1.86397e-06
-3.68981e-08
1.89919e-06
-3.52098e-08
1.93279e-06
-3.36064e-08
1.96487e-06
-3.20814e-08
1.9955e-06
-3.06283e-08
2.02475e-06
-2.92436e-08
2.05269e-06
-2.79254e-08
2.07937e-06
-2.66729e-08
2.10486e-06
-2.54833e-08
2.12921e-06
-2.4351e-08
2.15248e-06
-2.32708e-08
2.17472e-06
-2.22414e-08
2.19598e-06
-2.12614e-08
2.2163e-06
-2.03251e-08
2.23573e-06
-1.94279e-08
2.25431e-06
-1.85703e-08
2.27207e-06
-1.77535e-08
2.28904e-06
-1.69766e-08
2.30528e-06
-1.62338e-08
2.32078e-06
-1.55134e-08
2.3356e-06
-1.48155e-08
2.34974e-06
-1.41432e-08
2.36323e-06
-1.34886e-08
2.3761e-06
-1.286e-08
2.38835e-06
-1.22537e-08
2.4e-06
-1.16452e-08
2.41105e-06
-1.1042e-08
2.4215e-06
-1.04509e-08
2.43135e-06
-9.85405e-09
2.44058e-06
-9.23834e-09
2.4492e-06
-8.61636e-09
2.45721e-06
-8.01801e-09
2.46474e-06
-7.53169e-09
2.4722e-06
-7.457e-09
2.4787e-06
-6.50733e-09
2.48528e-06
-6.58562e-09
2.49196e-06
-6.68302e-09
2.49604e-06
-4.081e-09
2.49635e-06
-3.12568e-10
2.49078e-06
5.56552e-09
2.47444e-06
1.63403e-08
2.43384e-06
4.05965e-08
1.2019e-07
2.31365e-06
-9.64347e-08
7.59116e-08
-2.00076e-07
1.53633e-07
-3.03523e-07
2.00946e-07
-4.14977e-07
2.31601e-07
-5.35034e-07
2.51277e-07
-6.61791e-07
2.64324e-07
-7.93365e-07
2.73191e-07
-9.28261e-07
2.79147e-07
-1.0653e-06
2.82913e-07
-1.20354e-06
2.84957e-07
-1.34224e-06
2.85613e-07
-1.48081e-06
2.85139e-07
-1.61875e-06
2.83742e-07
-1.75567e-06
2.81592e-07
-1.89127e-06
2.78833e-07
-2.02529e-06
2.75589e-07
-2.15754e-06
2.71965e-07
-2.28789e-06
2.68052e-07
-2.41622e-06
2.6393e-07
-2.54246e-06
2.59664e-07
-2.66658e-06
2.55313e-07
-2.78855e-06
2.50925e-07
-2.90838e-06
2.46542e-07
-3.02609e-06
2.42196e-07
-3.14171e-06
2.37915e-07
-3.25528e-06
2.33719e-07
-3.36685e-06
2.29626e-07
-3.47649e-06
2.25647e-07
-3.58424e-06
2.21793e-07
-3.69017e-06
2.18066e-07
-3.79434e-06
2.14468e-07
-3.89681e-06
2.10997e-07
-3.99765e-06
2.07648e-07
-4.0969e-06
2.04414e-07
-4.19461e-06
2.01285e-07
-4.29084e-06
1.98248e-07
-4.38561e-06
1.95289e-07
-4.47895e-06
1.9239e-07
-4.57088e-06
1.89532e-07
-4.6614e-06
1.86693e-07
-4.75052e-06
1.83848e-07
-4.83821e-06
1.8097e-07
-4.92444e-06
1.78031e-07
-5.00916e-06
1.74999e-07
-5.09231e-06
1.7184e-07
-5.1738e-06
1.68518e-07
-5.25353e-06
1.64993e-07
-5.33137e-06
1.61226e-07
-5.40719e-06
1.57173e-07
-5.48081e-06
1.52792e-07
-5.55204e-06
1.48036e-07
-5.62068e-06
1.42862e-07
-5.68649e-06
1.37223e-07
-5.74922e-06
1.31074e-07
-5.80858e-06
1.2437e-07
-5.86428e-06
1.17066e-07
-5.916e-06
1.09121e-07
-5.96341e-06
1.00498e-07
-6.00614e-06
9.11627e-08
-6.04384e-06
8.10843e-08
-6.07611e-06
7.02365e-08
-6.10257e-06
5.85957e-08
-6.12281e-06
4.61409e-08
-6.13643e-06
3.28549e-08
-6.14301e-06
1.87255e-08
-6.14213e-06
3.74681e-09
-6.13342e-06
-1.20556e-08
-6.11653e-06
-2.86369e-08
-6.09111e-06
-4.59497e-08
-6.05685e-06
-6.39306e-08
-6.01344e-06
-8.25018e-08
-5.96066e-06
-1.01576e-07
-5.89831e-06
-1.21054e-07
-5.82623e-06
-1.40829e-07
-5.74435e-06
-1.60782e-07
-5.65265e-06
-1.80785e-07
-5.55117e-06
-2.00703e-07
-5.44001e-06
-2.2039e-07
-5.31938e-06
-2.39695e-07
-5.18953e-06
-2.58463e-07
-5.0508e-06
-2.76538e-07
-4.90362e-06
-2.93766e-07
-4.74846e-06
-3.09998e-07
-4.58588e-06
-3.25095e-07
-4.4165e-06
-3.38926e-07
-4.241e-06
-3.51379e-07
-4.0601e-06
-3.62357e-07
-3.87455e-06
-3.71782e-07
-3.68516e-06
-3.79602e-07
-3.49271e-06
-3.85785e-07
-3.29802e-06
-3.90326e-07
-3.10189e-06
-3.93239e-07
-2.9051e-06
-3.94563e-07
-2.7084e-06
-3.94356e-07
-2.51251e-06
-3.92697e-07
-2.31809e-06
-3.89677e-07
-2.12577e-06
-3.85405e-07
-1.9361e-06
-3.79999e-07
-1.74958e-06
-3.73584e-07
-1.56664e-06
-3.6629e-07
-1.38764e-06
-3.58249e-07
-1.2129e-06
-3.49582e-07
-1.04264e-06
-3.4044e-07
-8.7702e-07
-3.30952e-07
-7.1615e-07
-3.21258e-07
-5.60052e-07
-3.11486e-07
-4.0867e-07
-3.0182e-07
-2.61854e-07
-2.92344e-07
-1.19335e-07
-2.83388e-07
1.90225e-08
-2.74973e-07
1.51946e-07
-2.65771e-07
2.78773e-07
-2.56022e-07
3.99784e-07
-2.45235e-07
5.15147e-07
-2.3381e-07
6.25435e-07
-2.2273e-07
7.30798e-07
-2.12159e-07
8.31414e-07
-2.02128e-07
9.27479e-07
-1.92615e-07
1.01918e-06
-1.83587e-07
1.10672e-06
-1.75007e-07
1.19027e-06
-1.66846e-07
1.27001e-06
-1.59077e-07
1.34612e-06
-1.5168e-07
1.41877e-06
-1.44637e-07
1.48811e-06
-1.37928e-07
1.55429e-06
-1.31538e-07
1.61746e-06
-1.25453e-07
1.67777e-06
-1.19662e-07
1.73535e-06
-1.1415e-07
1.79033e-06
-1.08904e-07
1.84284e-06
-1.03912e-07
1.893e-06
-9.91616e-08
1.94091e-06
-9.46423e-08
1.9867e-06
-9.03433e-08
2.03046e-06
-8.62545e-08
2.07229e-06
-8.23656e-08
2.1123e-06
-7.86668e-08
2.15056e-06
-7.51503e-08
2.18717e-06
-7.18077e-08
2.22219e-06
-6.86282e-08
2.25571e-06
-6.56005e-08
2.2878e-06
-6.27172e-08
2.31853e-06
-5.99736e-08
2.34797e-06
-5.73637e-08
2.37618e-06
-5.48813e-08
2.40321e-06
-5.25195e-08
2.42912e-06
-5.02698e-08
2.45396e-06
-4.81226e-08
2.4778e-06
-4.60735e-08
2.50067e-06
-4.41231e-08
2.52262e-06
-4.22675e-08
2.54369e-06
-4.04963e-08
2.56391e-06
-3.88017e-08
2.58333e-06
-3.7179e-08
2.60198e-06
-3.56238e-08
2.6199e-06
-3.4135e-08
2.63711e-06
-3.27093e-08
2.65364e-06
-3.13387e-08
2.66952e-06
-3.00167e-08
2.68475e-06
-2.87346e-08
2.69937e-06
-2.74868e-08
2.71339e-06
-2.62715e-08
2.72682e-06
-2.50754e-08
2.73966e-06
-2.38862e-08
2.75192e-06
-2.27016e-08
2.76359e-06
-2.15147e-08
2.77466e-06
-2.03063e-08
2.78513e-06
-1.90758e-08
2.79496e-06
-1.78428e-08
2.80407e-06
-1.66415e-08
2.81214e-06
-1.55132e-08
2.81938e-06
-1.37489e-08
2.82517e-06
-1.23704e-08
2.82909e-06
-1.0604e-08
2.8312e-06
-6.19104e-09
2.83004e-06
8.56794e-10
2.82344e-06
1.21581e-08
2.80771e-06
3.2073e-08
2.77594e-06
7.23566e-08
1.6624e-07
2.72987e-06
-1.24473e-07
2.00374e-07
-2.43365e-07
2.72523e-07
-3.58612e-07
3.16193e-07
-4.74334e-07
3.47325e-07
-5.92619e-07
3.69561e-07
-7.13697e-07
3.85402e-07
-8.37093e-07
3.96584e-07
-9.6217e-07
4.04219e-07
-1.08831e-06
4.09048e-07
-1.21496e-06
4.11601e-07
-1.34163e-06
4.12284e-07
-1.46792e-06
4.11426e-07
-1.59347e-06
4.09299e-07
-1.71801e-06
4.06133e-07
-1.84131e-06
4.02128e-07
-1.96317e-06
3.97452e-07
-2.08346e-06
3.92254e-07
-2.20206e-06
3.8666e-07
-2.31892e-06
3.80779e-07
-2.43396e-06
3.74705e-07
-2.54716e-06
3.68518e-07
-2.65852e-06
3.62285e-07
-2.76804e-06
3.56061e-07
-2.87573e-06
3.49894e-07
-2.98164e-06
3.4382e-07
-3.08579e-06
3.3787e-07
-3.18823e-06
3.32065e-07
-3.28901e-06
3.26424e-07
-3.38817e-06
3.20958e-07
-3.48578e-06
3.15673e-07
-3.58187e-06
3.10569e-07
-3.67652e-06
3.05645e-07
-3.76976e-06
3.00891e-07
-3.86164e-06
2.96299e-07
-3.95221e-06
2.91853e-07
-4.04149e-06
2.87537e-07
-4.12953e-06
2.83328e-07
-4.21634e-06
2.79203e-07
-4.30194e-06
2.75132e-07
-4.38633e-06
2.71083e-07
-4.46951e-06
2.67022e-07
-4.55145e-06
2.62909e-07
-4.63212e-06
2.58702e-07
-4.71148e-06
2.54353e-07
-4.78945e-06
2.49813e-07
-4.86597e-06
2.45027e-07
-4.94091e-06
2.39938e-07
-5.01417e-06
2.34484e-07
-5.0856e-06
2.28602e-07
-5.15503e-06
2.22227e-07
-5.22228e-06
2.1529e-07
-5.28714e-06
2.07724e-07
-5.34937e-06
1.9946e-07
-5.40872e-06
1.90427e-07
-5.46491e-06
1.80559e-07
-5.51764e-06
1.69791e-07
-5.56658e-06
1.58061e-07
-5.6114e-06
1.45314e-07
-5.65173e-06
1.31497e-07
-5.68721e-06
1.16565e-07
-5.71746e-06
1.00479e-07
-5.74207e-06
8.32066e-08
-5.76066e-06
6.47222e-08
-5.77281e-06
4.50088e-08
-5.77815e-06
2.40602e-08
-5.77629e-06
1.88249e-09
-5.76685e-06
-2.14929e-08
-5.74947e-06
-4.60117e-08
-5.72381e-06
-7.16061e-08
-5.68955e-06
-9.8182e-08
-5.64642e-06
-1.25626e-07
-5.59418e-06
-1.53809e-07
-5.53265e-06
-1.82588e-07
-5.46167e-06
-2.11804e-07
-5.38117e-06
-2.41283e-07
-5.29112e-06
-2.70836e-07
-5.19156e-06
-3.00262e-07
-5.08261e-06
-3.29346e-07
-4.96444e-06
-3.57866e-07
-4.83731e-06
-3.85593e-07
-4.70155e-06
-4.12297e-07
-4.55757e-06
-4.37751e-07
-4.40584e-06
-4.61733e-07
-4.2469e-06
-4.84037e-07
-4.08135e-06
-5.04475e-07
-3.90985e-06
-5.22877e-07
-3.7331e-06
-5.39101e-07
-3.55185e-06
-5.53031e-07
-3.36687e-06
-5.64589e-07
-3.17892e-06
-5.73731e-07
-2.9888e-06
-5.80446e-07
-2.79729e-06
-5.84758e-07
-2.60513e-06
-5.8672e-07
-2.41307e-06
-5.86423e-07
-2.22178e-06
-5.83982e-07
-2.03193e-06
-5.79531e-07
-1.84411e-06
-5.7323e-07
-1.65885e-06
-5.65261e-07
-1.47663e-06
-5.55805e-07
-1.29786e-06
-5.45053e-07
-1.1229e-06
-5.33213e-07
-9.52033e-07
-5.20448e-07
-7.85479e-07
-5.06996e-07
-6.2338e-07
-4.93054e-07
-4.65842e-07
-4.78802e-07
-3.12866e-07
-4.64469e-07
-1.6446e-07
-4.5023e-07
-2.02716e-08
-4.36528e-07
1.18797e-07
-4.22444e-07
2.51774e-07
-4.07944e-07
3.79099e-07
-3.93099e-07
5.00863e-07
-3.77797e-07
6.17511e-07
-3.61887e-07
7.29428e-07
-3.45723e-07
8.36663e-07
-3.29956e-07
9.39299e-07
-3.14788e-07
1.03745e-06
-3.00278e-07
1.13125e-06
-2.86427e-07
1.22087e-06
-2.73212e-07
1.30647e-06
-2.60608e-07
1.38821e-06
-2.48588e-07
1.46626e-06
-2.37127e-07
1.54078e-06
-2.262e-07
1.61193e-06
-2.15783e-07
1.67986e-06
-2.05856e-07
1.74473e-06
-1.96398e-07
1.80666e-06
-1.87389e-07
1.86582e-06
-1.78812e-07
1.92231e-06
-1.70645e-07
1.97628e-06
-1.62872e-07
2.02784e-06
-1.55474e-07
2.07711e-06
-1.48435e-07
2.12421e-06
-1.41737e-07
2.16923e-06
-1.35364e-07
2.21227e-06
-1.29303e-07
2.25345e-06
-1.23538e-07
2.29284e-06
-1.18056e-07
2.33053e-06
-1.12844e-07
2.36661e-06
-1.07886e-07
2.40115e-06
-1.0317e-07
2.43423e-06
-9.86809e-08
2.46593e-06
-9.4409e-08
2.4963e-06
-9.03446e-08
2.52542e-06
-8.64778e-08
2.55334e-06
-8.27983e-08
2.58012e-06
-7.9296e-08
2.60581e-06
-7.59607e-08
2.63048e-06
-7.27815e-08
2.65415e-06
-6.97497e-08
2.67688e-06
-6.68602e-08
2.69872e-06
-6.41067e-08
2.71971e-06
-6.14801e-08
2.73988e-06
-5.89714e-08
2.75927e-06
-5.6571e-08
2.77791e-06
-5.42697e-08
2.79584e-06
-5.20641e-08
2.81308e-06
-4.99498e-08
2.82966e-06
-4.79166e-08
2.84561e-06
-4.59572e-08
2.86094e-06
-4.40614e-08
2.87567e-06
-4.2216e-08
2.88982e-06
-4.04165e-08
2.90339e-06
-3.86512e-08
2.9164e-06
-3.69004e-08
2.92885e-06
-3.5153e-08
2.94073e-06
-3.33959e-08
2.95203e-06
-3.16088e-08
2.96273e-06
-2.97753e-08
2.97278e-06
-2.7887e-08
2.98205e-06
-2.59193e-08
2.99031e-06
-2.37688e-08
2.99755e-06
-2.09977e-08
3.00311e-06
-1.79348e-08
3.00647e-06
-1.39656e-08
3.00773e-06
-7.4462e-09
3.00604e-06
2.54531e-09
3.00001e-06
1.81897e-08
2.98772e-06
4.43659e-08
2.96803e-06
9.20418e-08
1.83533e-07
2.95074e-06
-1.23787e-07
3.24163e-07
-2.45522e-07
3.94263e-07
-3.6308e-07
4.33749e-07
-4.78463e-07
4.62711e-07
-5.93263e-07
4.8436e-07
-7.08142e-07
5.00282e-07
-8.23228e-07
5.11669e-07
-9.38417e-07
5.19408e-07
-1.05352e-06
5.24152e-07
-1.16833e-06
5.26408e-07
-1.28263e-06
5.26583e-07
-1.39622e-06
5.25018e-07
-1.50892e-06
5.22007e-07
-1.62059e-06
5.17803e-07
-1.73109e-06
5.12628e-07
-1.84032e-06
5.06677e-07
-1.94819e-06
5.00119e-07
-2.05463e-06
4.93101e-07
-2.1596e-06
4.85751e-07
-2.26308e-06
4.78179e-07
-2.36504e-06
4.7048e-07
-2.46548e-06
4.62731e-07
-2.56442e-06
4.55e-07
-2.66187e-06
4.47343e-07
-2.75786e-06
4.39804e-07
-2.85241e-06
4.32419e-07
-2.94556e-06
4.25217e-07
-3.03735e-06
4.18218e-07
-3.12782e-06
4.11434e-07
-3.21703e-06
4.04874e-07
-3.30499e-06
3.98538e-07
-3.39178e-06
3.92425e-07
-3.47741e-06
3.86524e-07
-3.56193e-06
3.80824e-07
-3.64539e-06
3.75306e-07
-3.7278e-06
3.69949e-07
-3.8092e-06
3.64725e-07
-3.8896e-06
3.59604e-07
-3.96902e-06
3.54548e-07
-4.04745e-06
3.49519e-07
-4.1249e-06
3.4447e-07
-4.20134e-06
3.39352e-07
-4.27674e-06
3.34107e-07
-4.35106e-06
3.28674e-07
-4.42424e-06
3.22989e-07
-4.49619e-06
3.16978e-07
-4.56682e-06
3.10566e-07
-4.63601e-06
3.03672e-07
-4.70362e-06
2.96212e-07
-4.76949e-06
2.88096e-07
-4.83344e-06
2.79235e-07
-4.89525e-06
2.69534e-07
-4.95469e-06
2.58901e-07
-5.01151e-06
2.47243e-07
-5.06542e-06
2.34469e-07
-5.11612e-06
2.20492e-07
-5.16328e-06
2.05228e-07
-5.20656e-06
1.886e-07
-5.2456e-06
1.70539e-07
-5.28002e-06
1.50983e-07
-5.30942e-06
1.2988e-07
-5.3334e-06
1.07191e-07
-5.35157e-06
8.28862e-08
-5.36351e-06
5.69501e-08
-5.36884e-06
2.93833e-08
-5.36716e-06
2.05748e-10
-5.3581e-06
-3.05472e-08
-5.34131e-06
-6.28081e-08
-5.31643e-06
-9.64798e-08
-5.28318e-06
-1.31438e-07
-5.24127e-06
-1.67535e-07
-5.19047e-06
-2.04603e-07
-5.13061e-06
-2.42455e-07
-5.06153e-06
-2.80879e-07
-4.98317e-06
-3.1965e-07
-4.89548e-06
-3.58518e-07
-4.79852e-06
-3.9722e-07
-4.69239e-06
-4.35472e-07
-4.57728e-06
-4.72981e-07
-4.45342e-06
-5.09445e-07
-4.32116e-06
-5.44558e-07
-4.18089e-06
-5.7802e-07
-4.03308e-06
-6.09543e-07
-3.87827e-06
-6.38853e-07
-3.71704e-06
-6.65701e-07
-3.55005e-06
-6.89868e-07
-3.37799e-06
-7.11163e-07
-3.20158e-06
-7.29437e-07
-3.02158e-06
-7.44587e-07
-2.83876e-06
-7.56558e-07
-2.65387e-06
-7.65338e-07
-2.46767e-06
-7.70957e-07
-2.28091e-06
-7.73486e-07
-2.09428e-06
-7.7305e-07
-1.90846e-06
-7.69804e-07
-1.72406e-06
-7.63923e-07
-1.54168e-06
-7.55615e-07
-1.36181e-06
-7.45131e-07
-1.1849e-06
-7.3271e-07
-1.01136e-06
-7.18591e-07
-8.41506e-07
-7.03069e-07
-6.7562e-07
-6.86336e-07
-5.13909e-07
-6.68709e-07
-3.5646e-07
-6.50501e-07
-2.03429e-07
-6.3183e-07
-5.46504e-08
-6.13244e-07
8.93394e-08
-5.94219e-07
2.27659e-07
-5.74852e-07
3.60407e-07
-5.55195e-07
4.87694e-07
-5.35232e-07
6.09667e-07
-5.1507e-07
7.26545e-07
-4.94673e-07
8.38703e-07
-4.74042e-07
9.46427e-07
-4.53447e-07