/*--------------------------------*- C++ -*----------------------------------*\
| =========                 |                                                 |
| \\      /  F ield         | foam-extend: Open Source CFD                    |
|  \\    /   O peration     | Version:     4.0                                |
|   \\  /    A nd           | Web:         http://www.foam-extend.org         |
|    \\/     M anipulation  |                                                 |
\*---------------------------------------------------------------------------*/
FoamFile
{
    version     2.0;
    format      ascii;
    class       volScalarField;
    location    "780";
    object      cMinus;
}
// * * * * * * * * * * * * * * * * * * * * * * * * * * * * * * * * * * * * * //

dimensions      [0 0 0 0 0 0 0];

internalField   nonuniform List<scalar> 
6960
(
2.13138e-21
2.10124e-21
2.10655e-21
2.11171e-21
2.11595e-21
2.11928e-21
2.12179e-21
2.12359e-21
2.12479e-21
2.12548e-21
2.12577e-21
2.12574e-21
2.12547e-21
2.12502e-21
2.12444e-21
2.12378e-21
2.12307e-21
2.12235e-21
2.12162e-21
2.12092e-21
2.12025e-21
2.11963e-21
2.11907e-21
2.11856e-21
2.11813e-21
2.11776e-21
2.11746e-21
2.11724e-21
2.11709e-21
2.11701e-21
2.11701e-21
2.11709e-21
2.11724e-21
2.11746e-21
2.11776e-21
2.11813e-21
2.11856e-21
2.11907e-21
2.11963e-21
2.12025e-21
2.12092e-21
2.12162e-21
2.12235e-21
2.12307e-21
2.12378e-21
2.12444e-21
2.12502e-21
2.12547e-21
2.12574e-21
2.12577e-21
2.12548e-21
2.12479e-21
2.12359e-21
2.12179e-21
2.11928e-21
2.11595e-21
2.11171e-21
2.10655e-21
2.10124e-21
2.13138e-21
3.49294e-21
3.4452e-21
3.45384e-21
3.46222e-21
3.46909e-21
3.4745e-21
3.47859e-21
3.48152e-21
3.48347e-21
3.48462e-21
3.48512e-21
3.4851e-21
3.48469e-21
3.48398e-21
3.48307e-21
3.48202e-21
3.4809e-21
3.47974e-21
3.47859e-21
3.47747e-21
3.4764e-21
3.47542e-21
3.47452e-21
3.47371e-21
3.47301e-21
3.47243e-21
3.47195e-21
3.47159e-21
3.47135e-21
3.47123e-21
3.47123e-21
3.47135e-21
3.47159e-21
3.47195e-21
3.47243e-21
3.47301e-21
3.47371e-21
3.47452e-21
3.47542e-21
3.4764e-21
3.47747e-21
3.47859e-21
3.47974e-21
3.4809e-21
3.48202e-21
3.48307e-21
3.48398e-21
3.48469e-21
3.4851e-21
3.48512e-21
3.48462e-21
3.48347e-21
3.48152e-21
3.47859e-21
3.4745e-21
3.46909e-21
3.46222e-21
3.45384e-21
3.4452e-21
3.49294e-21
8.91821e-21
8.7992e-21
8.82118e-21
8.84241e-21
8.85982e-21
8.87351e-21
8.88385e-21
8.89127e-21
8.89622e-21
8.89912e-21
8.90037e-21
8.90032e-21
8.89926e-21
8.89747e-21
8.89515e-21
8.89249e-21
8.88963e-21
8.88669e-21
8.88377e-21
8.88092e-21
8.87823e-21
8.87572e-21
8.87343e-21
8.87139e-21
8.86962e-21
8.86813e-21
8.86693e-21
8.86602e-21
8.86541e-21
8.86511e-21
8.86511e-21
8.86541e-21
8.86602e-21
8.86693e-21
8.86813e-21
8.86962e-21
8.87139e-21
8.87343e-21
8.87572e-21
8.87823e-21
8.88092e-21
8.88377e-21
8.88669e-21
8.88963e-21
8.89249e-21
8.89515e-21
8.89747e-21
8.89926e-21
8.90032e-21
8.90037e-21
8.89912e-21
8.89622e-21
8.89127e-21
8.88385e-21
8.87351e-21
8.85982e-21
8.84241e-21
8.82118e-21
8.7992e-21
8.91821e-21
2.41353e-20
2.38199e-20
2.38793e-20
2.39364e-20
2.39833e-20
2.40201e-20
2.40479e-20
2.40679e-20
2.40812e-20
2.40889e-20
2.40923e-20
2.40921e-20
2.40892e-20
2.40844e-20
2.40781e-20
2.40709e-20
2.40632e-20
2.40553e-20
2.40473e-20
2.40397e-20
2.40324e-20
2.40256e-20
2.40194e-20
2.40139e-20
2.40092e-20
2.40051e-20
2.40019e-20
2.39994e-20
2.39978e-20
2.3997e-20
2.3997e-20
2.39978e-20
2.39994e-20
2.40019e-20
2.40051e-20
2.40092e-20
2.40139e-20
2.40194e-20
2.40256e-20
2.40324e-20
2.40397e-20
2.40473e-20
2.40553e-20
2.40632e-20
2.40709e-20
2.40781e-20
2.40844e-20
2.40892e-20
2.40921e-20
2.40923e-20
2.40889e-20
2.40812e-20
2.40679e-20
2.40479e-20
2.40201e-20
2.39833e-20
2.39364e-20
2.38793e-20
2.38199e-20
2.41353e-20
6.53737e-20
6.45388e-20
6.46993e-20
6.48534e-20
6.49797e-20
6.50791e-20
6.5154e-20
6.52078e-20
6.52436e-20
6.52646e-20
6.52736e-20
6.52731e-20
6.52654e-20
6.52523e-20
6.52353e-20
6.52159e-20
6.51951e-20
6.51737e-20
6.51523e-20
6.51316e-20
6.5112e-20
6.50937e-20
6.50771e-20
6.50622e-20
6.50493e-20
6.50385e-20
6.50297e-20
6.50231e-20
6.50187e-20
6.50165e-20
6.50165e-20
6.50187e-20
6.50231e-20
6.50297e-20
6.50385e-20
6.50493e-20
6.50622e-20
6.50771e-20
6.50937e-20
6.5112e-20
6.51316e-20
6.51523e-20
6.51737e-20
6.51951e-20
6.52159e-20
6.52353e-20
6.52523e-20
6.52654e-20
6.52731e-20
6.52736e-20
6.52646e-20
6.52436e-20
6.52078e-20
6.5154e-20
6.50791e-20
6.49797e-20
6.48534e-20
6.46993e-20
6.45388e-20
6.53737e-20
1.76917e-19
1.74717e-19
1.75151e-19
1.75566e-19
1.75906e-19
1.76174e-19
1.76376e-19
1.76521e-19
1.76617e-19
1.76674e-19
1.76698e-19
1.76697e-19
1.76677e-19
1.76641e-19
1.76596e-19
1.76544e-19
1.76488e-19
1.76431e-19
1.76373e-19
1.76318e-19
1.76265e-19
1.76216e-19
1.76171e-19
1.76131e-19
1.76096e-19
1.76067e-19
1.76044e-19
1.76026e-19
1.76014e-19
1.76008e-19
1.76008e-19
1.76014e-19
1.76026e-19
1.76044e-19
1.76067e-19
1.76096e-19
1.76131e-19
1.76171e-19
1.76216e-19
1.76265e-19
1.76318e-19
1.76373e-19
1.76431e-19
1.76488e-19
1.76544e-19
1.76596e-19
1.76641e-19
1.76677e-19
1.76697e-19
1.76698e-19
1.76674e-19
1.76617e-19
1.76521e-19
1.76376e-19
1.76174e-19
1.75906e-19
1.75566e-19
1.75151e-19
1.74717e-19
1.76917e-19
4.79618e-19
4.73845e-19
4.75018e-19
4.76136e-19
4.77053e-19
4.77775e-19
4.7832e-19
4.78711e-19
4.78972e-19
4.79126e-19
4.79193e-19
4.79191e-19
4.79136e-19
4.79043e-19
4.78922e-19
4.78782e-19
4.78633e-19
4.78478e-19
4.78325e-19
4.78176e-19
4.78034e-19
4.77903e-19
4.77783e-19
4.77676e-19
4.77583e-19
4.77504e-19
4.77441e-19
4.77393e-19
4.77362e-19
4.77346e-19
4.77346e-19
4.77362e-19
4.77393e-19
4.77441e-19
4.77504e-19
4.77583e-19
4.77676e-19
4.77783e-19
4.77903e-19
4.78034e-19
4.78176e-19
4.78325e-19
4.78478e-19
4.78633e-19
4.78782e-19
4.78922e-19
4.79043e-19
4.79136e-19
4.79191e-19
4.79193e-19
4.79126e-19
4.78972e-19
4.78711e-19
4.7832e-19
4.77775e-19
4.77053e-19
4.76136e-19
4.75018e-19
4.73845e-19
4.79618e-19
1.3055e-18
1.29039e-18
1.29357e-18
1.29659e-18
1.29907e-18
1.30102e-18
1.3025e-18
1.30356e-18
1.30427e-18
1.30469e-18
1.30488e-18
1.30488e-18
1.30474e-18
1.30449e-18
1.30417e-18
1.30379e-18
1.30339e-18
1.30298e-18
1.30257e-18
1.30217e-18
1.30179e-18
1.30144e-18
1.30112e-18
1.30083e-18
1.30058e-18
1.30037e-18
1.3002e-18
1.30008e-18
1.29999e-18
1.29995e-18
1.29995e-18
1.29999e-18
1.30008e-18
1.3002e-18
1.30037e-18
1.30058e-18
1.30083e-18
1.30112e-18
1.30144e-18
1.30179e-18
1.30217e-18
1.30257e-18
1.30298e-18
1.30339e-18
1.30379e-18
1.30417e-18
1.30449e-18
1.30474e-18
1.30488e-18
1.30488e-18
1.30469e-18
1.30427e-18
1.30356e-18
1.3025e-18
1.30102e-18
1.29907e-18
1.29659e-18
1.29357e-18
1.29039e-18
1.3055e-18
3.57624e-18
3.53682e-18
3.5455e-18
3.5537e-18
3.56043e-18
3.56573e-18
3.56975e-18
3.57265e-18
3.5746e-18
3.57577e-18
3.57629e-18
3.57632e-18
3.57596e-18
3.57531e-18
3.57446e-18
3.57347e-18
3.57241e-18
3.57131e-18
3.57021e-18
3.56914e-18
3.56813e-18
3.56719e-18
3.56633e-18
3.56556e-18
3.56489e-18
3.56433e-18
3.56388e-18
3.56354e-18
3.56331e-18
3.56319e-18
3.56319e-18
3.56331e-18
3.56354e-18
3.56388e-18
3.56433e-18
3.56489e-18
3.56556e-18
3.56633e-18
3.56719e-18
3.56813e-18
3.56914e-18
3.57021e-18
3.57131e-18
3.57241e-18
3.57347e-18
3.57446e-18
3.57531e-18
3.57596e-18
3.57632e-18
3.57629e-18
3.57577e-18
3.5746e-18
3.57265e-18
3.56975e-18
3.56573e-18
3.56043e-18
3.5537e-18
3.5455e-18
3.53682e-18
3.57624e-18
9.88894e-18
9.78651e-18
9.81034e-18
9.83276e-18
9.85118e-18
9.86574e-18
9.87679e-18
9.88479e-18
9.89021e-18
9.89348e-18
9.89503e-18
9.8952e-18
9.89432e-18
9.89265e-18
9.89042e-18
9.88782e-18
9.885e-18
9.88208e-18
9.87916e-18
9.87632e-18
9.87361e-18
9.8711e-18
9.8688e-18
9.86675e-18
9.86496e-18
9.86346e-18
9.86224e-18
9.86133e-18
9.86072e-18
9.86041e-18
9.86041e-18
9.86072e-18
9.86133e-18
9.86224e-18
9.86346e-18
9.86496e-18
9.86675e-18
9.8688e-18
9.8711e-18
9.87361e-18
9.87632e-18
9.87916e-18
9.88208e-18
9.885e-18
9.88782e-18
9.89042e-18
9.89265e-18
9.89432e-18
9.8952e-18
9.89503e-18
9.89348e-18
9.89021e-18
9.88479e-18
9.87679e-18
9.86574e-18
9.85118e-18
9.83276e-18
9.81034e-18
9.78651e-18
9.88894e-18
2.77185e-17
2.74539e-17
2.75201e-17
2.75821e-17
2.76332e-17
2.76736e-17
2.77044e-17
2.77269e-17
2.77423e-17
2.77518e-17
2.77565e-17
2.77574e-17
2.77554e-17
2.77512e-17
2.77455e-17
2.77387e-17
2.77313e-17
2.77236e-17
2.77158e-17
2.77083e-17
2.77011e-17
2.76944e-17
2.76883e-17
2.76828e-17
2.7678e-17
2.7674e-17
2.76708e-17
2.76683e-17
2.76667e-17
2.76659e-17
2.76659e-17
2.76667e-17
2.76683e-17
2.76708e-17
2.7674e-17
2.7678e-17
2.76828e-17
2.76883e-17
2.76944e-17
2.77011e-17
2.77083e-17
2.77158e-17
2.77236e-17
2.77313e-17
2.77387e-17
2.77455e-17
2.77512e-17
2.77554e-17
2.77574e-17
2.77565e-17
2.77518e-17
2.77423e-17
2.77269e-17
2.77044e-17
2.76736e-17
2.76332e-17
2.75821e-17
2.75201e-17
2.74539e-17
2.77185e-17
7.92221e-17
7.85446e-17
7.87322e-17
7.89068e-17
7.9051e-17
7.91657e-17
7.92537e-17
7.93184e-17
7.93633e-17
7.93918e-17
7.94069e-17
7.94114e-17
7.94077e-17
7.93979e-17
7.93836e-17
7.93662e-17
7.9347e-17
7.93269e-17
7.93066e-17
7.92867e-17
7.92677e-17
7.92499e-17
7.92337e-17
7.92191e-17
7.92064e-17
7.91957e-17
7.91871e-17
7.91806e-17
7.91762e-17
7.9174e-17
7.9174e-17
7.91762e-17
7.91806e-17
7.91871e-17
7.91957e-17
7.92064e-17
7.92191e-17
7.92337e-17
7.92499e-17
7.92677e-17
7.92867e-17
7.93066e-17
7.93269e-17
7.9347e-17
7.93662e-17
7.93836e-17
7.93979e-17
7.94077e-17
7.94114e-17
7.94069e-17
7.93918e-17
7.93633e-17
7.93184e-17
7.92537e-17
7.91657e-17
7.9051e-17
7.89068e-17
7.87322e-17
7.85446e-17
7.92221e-17
2.32724e-16
2.31014e-16
2.31561e-16
2.32066e-16
2.32486e-16
2.32822e-16
2.33082e-16
2.33275e-16
2.33412e-16
2.33502e-16
2.33554e-16
2.33575e-16
2.33573e-16
2.33553e-16
2.33519e-16
2.33476e-16
2.33428e-16
2.33377e-16
2.33324e-16
2.33272e-16
2.33222e-16
2.33176e-16
2.33133e-16
2.33094e-16
2.33061e-16
2.33033e-16
2.3301e-16
2.32992e-16
2.32981e-16
2.32975e-16
2.32975e-16
2.32981e-16
2.32992e-16
2.3301e-16
2.33033e-16
2.33061e-16
2.33094e-16
2.33133e-16
2.33176e-16
2.33222e-16
2.33272e-16
2.33324e-16
2.33377e-16
2.33428e-16
2.33476e-16
2.33519e-16
2.33553e-16
2.33573e-16
2.33575e-16
2.33554e-16
2.33502e-16
2.33412e-16
2.33275e-16
2.33082e-16
2.32822e-16
2.32486e-16
2.32066e-16
2.31561e-16
2.31014e-16
2.32724e-16
7.09735e-16
7.05532e-16
7.07191e-16
7.08717e-16
7.09992e-16
7.11021e-16
7.11827e-16
7.12438e-16
7.12882e-16
7.13186e-16
7.13377e-16
7.13476e-16
7.13503e-16
7.13476e-16
7.13408e-16
7.13312e-16
7.13196e-16
7.1307e-16
7.12938e-16
7.12806e-16
7.12678e-16
7.12558e-16
7.12446e-16
7.12346e-16
7.12258e-16
7.12184e-16
7.12123e-16
7.12078e-16
7.12047e-16
7.12032e-16
7.12032e-16
7.12047e-16
7.12078e-16
7.12123e-16
7.12184e-16
7.12258e-16
7.12346e-16
7.12446e-16
7.12558e-16
7.12678e-16
7.12806e-16
7.12938e-16
7.1307e-16
7.13196e-16
7.13312e-16
7.13408e-16
7.13476e-16
7.13503e-16
7.13476e-16
7.13377e-16
7.13186e-16
7.12882e-16
7.12438e-16
7.11827e-16
7.11021e-16
7.09992e-16
7.08717e-16
7.07191e-16
7.05532e-16
7.09735e-16
2.27216e-15
2.26233e-15
2.26766e-15
2.27254e-15
2.27666e-15
2.28001e-15
2.28268e-15
2.28474e-15
2.28629e-15
2.2874e-15
2.28815e-15
2.28861e-15
2.28884e-15
2.2889e-15
2.28882e-15
2.28864e-15
2.2884e-15
2.28811e-15
2.2878e-15
2.28748e-15
2.28717e-15
2.28686e-15
2.28658e-15
2.28632e-15
2.2861e-15
2.28591e-15
2.28575e-15
2.28563e-15
2.28555e-15
2.28551e-15
2.28551e-15
2.28555e-15
2.28563e-15
2.28575e-15
2.28591e-15
2.2861e-15
2.28632e-15
2.28658e-15
2.28686e-15
2.28717e-15
2.28748e-15
2.2878e-15
2.28811e-15
2.2884e-15
2.28864e-15
2.28882e-15
2.2889e-15
2.28884e-15
2.28861e-15
2.28815e-15
2.2874e-15
2.28629e-15
2.28474e-15
2.28268e-15
2.28001e-15
2.27666e-15
2.27254e-15
2.26766e-15
2.26233e-15
2.27216e-15
7.71338e-15
7.69284e-15
7.71126e-15
7.72808e-15
7.74237e-15
7.75419e-15
7.76373e-15
7.77127e-15
7.77708e-15
7.78143e-15
7.78457e-15
7.78674e-15
7.78811e-15
7.78887e-15
7.78915e-15
7.78907e-15
7.78873e-15
7.78822e-15
7.78758e-15
7.78689e-15
7.78617e-15
7.78546e-15
7.78478e-15
7.78416e-15
7.7836e-15
7.78312e-15
7.78273e-15
7.78243e-15
7.78223e-15
7.78213e-15
7.78213e-15
7.78223e-15
7.78243e-15
7.78273e-15
7.78312e-15
7.7836e-15
7.78416e-15
7.78478e-15
7.78546e-15
7.78617e-15
7.78689e-15
7.78758e-15
7.78822e-15
7.78873e-15
7.78907e-15
7.78915e-15
7.78887e-15
7.78811e-15
7.78674e-15
7.78457e-15
7.78143e-15
7.77708e-15
7.77127e-15
7.76373e-15
7.75419e-15
7.74237e-15
7.72808e-15
7.71126e-15
7.69284e-15
7.71338e-15
2.79375e-14
2.79074e-14
2.79763e-14
2.80392e-14
2.80932e-14
2.81383e-14
2.81754e-14
2.82052e-14
2.82288e-14
2.82471e-14
2.82609e-14
2.82711e-14
2.82784e-14
2.82834e-14
2.82865e-14
2.82882e-14
2.82888e-14
2.82886e-14
2.82879e-14
2.82868e-14
2.82855e-14
2.82841e-14
2.82827e-14
2.82813e-14
2.828e-14
2.82789e-14
2.8278e-14
2.82773e-14
2.82768e-14
2.82766e-14
2.82766e-14
2.82768e-14
2.82773e-14
2.8278e-14
2.82789e-14
2.828e-14
2.82813e-14
2.82827e-14
2.82841e-14
2.82855e-14
2.82868e-14
2.82879e-14
2.82886e-14
2.82888e-14
2.82882e-14
2.82865e-14
2.82834e-14
2.82784e-14
2.82711e-14
2.82609e-14
2.82471e-14
2.82288e-14
2.82052e-14
2.81754e-14
2.81383e-14
2.80932e-14
2.80392e-14
2.79763e-14
2.79074e-14
2.79375e-14
1.07968e-13
1.07999e-13
1.08278e-13
1.08533e-13
1.08753e-13
1.0894e-13
1.09095e-13
1.09221e-13
1.09323e-13
1.09405e-13
1.09468e-13
1.09517e-13
1.09554e-13
1.09582e-13
1.09601e-13
1.09615e-13
1.09624e-13
1.0963e-13
1.09633e-13
1.09633e-13
1.09633e-13
1.09632e-13
1.0963e-13
1.09627e-13
1.09625e-13
1.09623e-13
1.09621e-13
1.0962e-13
1.09619e-13
1.09619e-13
1.09619e-13
1.09619e-13
1.0962e-13
1.09621e-13
1.09623e-13
1.09625e-13
1.09627e-13
1.0963e-13
1.09632e-13
1.09633e-13
1.09633e-13
1.09633e-13
1.0963e-13
1.09624e-13
1.09615e-13
1.09601e-13
1.09582e-13
1.09554e-13
1.09517e-13
1.09468e-13
1.09405e-13
1.09323e-13
1.09221e-13
1.09095e-13
1.0894e-13
1.08753e-13
1.08533e-13
1.08278e-13
1.07999e-13
1.07968e-13
4.42525e-13
4.43127e-13
4.44339e-13
4.45445e-13
4.4641e-13
4.47231e-13
4.47918e-13
4.48487e-13
4.48951e-13
4.49327e-13
4.49627e-13
4.49864e-13
4.50049e-13
4.50193e-13
4.50302e-13
4.50385e-13
4.50446e-13
4.5049e-13
4.50521e-13
4.50542e-13
4.50556e-13
4.50564e-13
4.50568e-13
4.5057e-13
4.50569e-13
4.50568e-13
4.50567e-13
4.50565e-13
4.50564e-13
4.50564e-13
4.50564e-13
4.50564e-13
4.50565e-13
4.50567e-13
4.50568e-13
4.50569e-13
4.5057e-13
4.50568e-13
4.50564e-13
4.50556e-13
4.50542e-13
4.50521e-13
4.5049e-13
4.50446e-13
4.50385e-13
4.50302e-13
4.50193e-13
4.50049e-13
4.49864e-13
4.49627e-13
4.49327e-13
4.48951e-13
4.48487e-13
4.47918e-13
4.47231e-13
4.4641e-13
4.45445e-13
4.44339e-13
4.43127e-13
4.42525e-13
1.90436e-12
1.90845e-12
1.91398e-12
1.91904e-12
1.92348e-12
1.92727e-12
1.93046e-12
1.93312e-12
1.93531e-12
1.9371e-12
1.93854e-12
1.9397e-12
1.94063e-12
1.94136e-12
1.94193e-12
1.94238e-12
1.94272e-12
1.94299e-12
1.94319e-12
1.94334e-12
1.94345e-12
1.94353e-12
1.94359e-12
1.94363e-12
1.94366e-12
1.94368e-12
1.94369e-12
1.9437e-12
1.9437e-12
1.9437e-12
1.9437e-12
1.9437e-12
1.9437e-12
1.94369e-12
1.94368e-12
1.94366e-12
1.94363e-12
1.94359e-12
1.94353e-12
1.94345e-12
1.94334e-12
1.94319e-12
1.94299e-12
1.94272e-12
1.94238e-12
1.94193e-12
1.94136e-12
1.94063e-12
1.9397e-12
1.93854e-12
1.9371e-12
1.93531e-12
1.93312e-12
1.93046e-12
1.92727e-12
1.92348e-12
1.91904e-12
1.91398e-12
1.90845e-12
1.90436e-12
8.5065e-12
8.52954e-12
8.5557e-12
8.57969e-12
8.60075e-12
8.61883e-12
8.63411e-12
8.64689e-12
8.65746e-12
8.66614e-12
8.67322e-12
8.67894e-12
8.68355e-12
8.68723e-12
8.69016e-12
8.69248e-12
8.69431e-12
8.69574e-12
8.69686e-12
8.69773e-12
8.6984e-12
8.69892e-12
8.69931e-12
8.6996e-12
8.69982e-12
8.69999e-12
8.7001e-12
8.70018e-12
8.70023e-12
8.70025e-12
8.70025e-12
8.70023e-12
8.70018e-12
8.7001e-12
8.69999e-12
8.69982e-12
8.6996e-12
8.69931e-12
8.69892e-12
8.6984e-12
8.69773e-12
8.69686e-12
8.69574e-12
8.69431e-12
8.69248e-12
8.69016e-12
8.68723e-12
8.68355e-12
8.67894e-12
8.67322e-12
8.66614e-12
8.65746e-12
8.64689e-12
8.63411e-12
8.61883e-12
8.60075e-12
8.57969e-12
8.5557e-12
8.52954e-12
8.5065e-12
3.90084e-11
3.91291e-11
3.92556e-11
3.93718e-11
3.9474e-11
3.95618e-11
3.96363e-11
3.96986e-11
3.97504e-11
3.9793e-11
3.98279e-11
3.98562e-11
3.98792e-11
3.98976e-11
3.99124e-11
3.99242e-11
3.99337e-11
3.99411e-11
3.9947e-11
3.99517e-11
3.99553e-11
3.99582e-11
3.99604e-11
3.99621e-11
3.99635e-11
3.99644e-11
3.99652e-11
3.99657e-11
3.9966e-11
3.99662e-11
3.99662e-11
3.9966e-11
3.99657e-11
3.99652e-11
3.99644e-11
3.99635e-11
3.99621e-11
3.99604e-11
3.99582e-11
3.99553e-11
3.99517e-11
3.9947e-11
3.99411e-11
3.99337e-11
3.99242e-11
3.99124e-11
3.98976e-11
3.98792e-11
3.98562e-11
3.98279e-11
3.9793e-11
3.97504e-11
3.96986e-11
3.96363e-11
3.95618e-11
3.9474e-11
3.93718e-11
3.92556e-11
3.91291e-11
3.90084e-11
1.81823e-10
1.82435e-10
1.83054e-10
1.83622e-10
1.84122e-10
1.84553e-10
1.84918e-10
1.85224e-10
1.85479e-10
1.85689e-10
1.85862e-10
1.86002e-10
1.86116e-10
1.86208e-10
1.86282e-10
1.86342e-10
1.86389e-10
1.86427e-10
1.86457e-10
1.86481e-10
1.865e-10
1.86515e-10
1.86527e-10
1.86536e-10
1.86543e-10
1.86549e-10
1.86553e-10
1.86556e-10
1.86557e-10
1.86558e-10
1.86558e-10
1.86557e-10
1.86556e-10
1.86553e-10
1.86549e-10
1.86543e-10
1.86536e-10
1.86527e-10
1.86515e-10
1.865e-10
1.86481e-10
1.86457e-10
1.86427e-10
1.86389e-10
1.86342e-10
1.86282e-10
1.86208e-10
1.86116e-10
1.86002e-10
1.85862e-10
1.85689e-10
1.85479e-10
1.85224e-10
1.84918e-10
1.84553e-10
1.84122e-10
1.83622e-10
1.83054e-10
1.82435e-10
1.81823e-10
8.53722e-10
8.56764e-10
8.59788e-10
8.62569e-10
8.65019e-10
8.67128e-10
8.68918e-10
8.70421e-10
8.71672e-10
8.72704e-10
8.73552e-10
8.74243e-10
8.74806e-10
8.7526e-10
8.75627e-10
8.75923e-10
8.7616e-10
8.76349e-10
8.76501e-10
8.76622e-10
8.76718e-10
8.76795e-10
8.76855e-10
8.76902e-10
8.76939e-10
8.76967e-10
8.76988e-10
8.77002e-10
8.77012e-10
8.77016e-10
8.77016e-10
8.77012e-10
8.77002e-10
8.76988e-10
8.76967e-10
8.76939e-10
8.76902e-10
8.76855e-10
8.76795e-10
8.76718e-10
8.76622e-10
8.76501e-10
8.76349e-10
8.7616e-10
8.75923e-10
8.75627e-10
8.7526e-10
8.74806e-10
8.74243e-10
8.73552e-10
8.72704e-10
8.71672e-10
8.70421e-10
8.68918e-10
8.67128e-10
8.65019e-10
8.62569e-10
8.59788e-10
8.56764e-10
8.53722e-10
4.00375e-09
4.0186e-09
4.03327e-09
4.04677e-09
4.05866e-09
4.0689e-09
4.07759e-09
4.08489e-09
4.09097e-09
4.09599e-09
4.10011e-09
4.10348e-09
4.10622e-09
4.10843e-09
4.11023e-09
4.11167e-09
4.11283e-09
4.11376e-09
4.11451e-09
4.11511e-09
4.11558e-09
4.11596e-09
4.11626e-09
4.11649e-09
4.11668e-09
4.11682e-09
4.11692e-09
4.11699e-09
4.11704e-09
4.11706e-09
4.11706e-09
4.11704e-09
4.11699e-09
4.11692e-09
4.11682e-09
4.11668e-09
4.11649e-09
4.11626e-09
4.11596e-09
4.11558e-09
4.11511e-09
4.11451e-09
4.11376e-09
4.11283e-09
4.11167e-09
4.11023e-09
4.10843e-09
4.10622e-09
4.10348e-09
4.10011e-09
4.09599e-09
4.09097e-09
4.08489e-09
4.07759e-09
4.0689e-09
4.05866e-09
4.04677e-09
4.03327e-09
4.0186e-09
4.00375e-09
1.8596e-08
1.8667e-08
1.8737e-08
1.88013e-08
1.88581e-08
1.89069e-08
1.89483e-08
1.89832e-08
1.90122e-08
1.90361e-08
1.90558e-08
1.90719e-08
1.9085e-08
1.90956e-08
1.91041e-08
1.91111e-08
1.91166e-08
1.91211e-08
1.91247e-08
1.91275e-08
1.91298e-08
1.91316e-08
1.91331e-08
1.91342e-08
1.91351e-08
1.91358e-08
1.91363e-08
1.91367e-08
1.91369e-08
1.9137e-08
1.9137e-08
1.91369e-08
1.91367e-08
1.91363e-08
1.91358e-08
1.91351e-08
1.91342e-08
1.91331e-08
1.91316e-08
1.91298e-08
1.91275e-08
1.91247e-08
1.91211e-08
1.91166e-08
1.91111e-08
1.91041e-08
1.90956e-08
1.9085e-08
1.90719e-08
1.90558e-08
1.90361e-08
1.90122e-08
1.89832e-08
1.89483e-08
1.89069e-08
1.88581e-08
1.88013e-08
1.8737e-08
1.8667e-08
1.8596e-08
8.4789e-08
8.51189e-08
8.5444e-08
8.57429e-08
8.60061e-08
8.62329e-08
8.64253e-08
8.6587e-08
8.67216e-08
8.68328e-08
8.69242e-08
8.69989e-08
8.70597e-08
8.7109e-08
8.71488e-08
8.7181e-08
8.72069e-08
8.72277e-08
8.72444e-08
8.72578e-08
8.72684e-08
8.72769e-08
8.72837e-08
8.7289e-08
8.72932e-08
8.72963e-08
8.72987e-08
8.73004e-08
8.73015e-08
8.7302e-08
8.7302e-08
8.73015e-08
8.73004e-08
8.72987e-08
8.72963e-08
8.72932e-08
8.7289e-08
8.72837e-08
8.72769e-08
8.72684e-08
8.72578e-08
8.72444e-08
8.72277e-08
8.72069e-08
8.7181e-08
8.71488e-08
8.7109e-08
8.70597e-08
8.69989e-08
8.69242e-08
8.68328e-08
8.67216e-08
8.6587e-08
8.64253e-08
8.62329e-08
8.60061e-08
8.57429e-08
8.5444e-08
8.51189e-08
8.4789e-08
3.75935e-07
3.77413e-07
3.7887e-07
3.80207e-07
3.81385e-07
3.824e-07
3.8326e-07
3.83984e-07
3.84586e-07
3.85083e-07
3.85492e-07
3.85826e-07
3.86098e-07
3.86319e-07
3.86497e-07
3.86641e-07
3.86757e-07
3.8685e-07
3.86925e-07
3.86985e-07
3.87033e-07
3.87071e-07
3.87102e-07
3.87126e-07
3.87144e-07
3.87159e-07
3.87169e-07
3.87177e-07
3.87182e-07
3.87184e-07
3.87184e-07
3.87182e-07
3.87177e-07
3.87169e-07
3.87159e-07
3.87144e-07
3.87126e-07
3.87102e-07
3.87071e-07
3.87033e-07
3.86985e-07
3.86925e-07
3.8685e-07
3.86757e-07
3.86641e-07
3.86497e-07
3.86319e-07
3.86098e-07
3.85826e-07
3.85492e-07
3.85083e-07
3.84586e-07
3.83984e-07
3.8326e-07
3.824e-07
3.81385e-07
3.80207e-07
3.7887e-07
3.77413e-07
3.75935e-07
1.60425e-06
1.61057e-06
1.61679e-06
1.6225e-06
1.62752e-06
1.63184e-06
1.63551e-06
1.63859e-06
1.64116e-06
1.64328e-06
1.64502e-06
1.64645e-06
1.64761e-06
1.64855e-06
1.64931e-06
1.64992e-06
1.65042e-06
1.65082e-06
1.65113e-06
1.65139e-06
1.6516e-06
1.65176e-06
1.65189e-06
1.65199e-06
1.65207e-06
1.65213e-06
1.65218e-06
1.65221e-06
1.65223e-06
1.65224e-06
1.65224e-06
1.65223e-06
1.65221e-06
1.65218e-06
1.65213e-06
1.65207e-06
1.65199e-06
1.65189e-06
1.65176e-06
1.6516e-06
1.65139e-06
1.65113e-06
1.65082e-06
1.65042e-06
1.64992e-06
1.64931e-06
1.64855e-06
1.64761e-06
1.64645e-06
1.64502e-06
1.64328e-06
1.64116e-06
1.63859e-06
1.63551e-06
1.63184e-06
1.62752e-06
1.6225e-06
1.61679e-06
1.61057e-06
1.60425e-06
6.51527e-06
6.54074e-06
6.56576e-06
6.58868e-06
6.60883e-06
6.62618e-06
6.64091e-06
6.65327e-06
6.66356e-06
6.67206e-06
6.67905e-06
6.68477e-06
6.68942e-06
6.69319e-06
6.69624e-06
6.69871e-06
6.70069e-06
6.70229e-06
6.70357e-06
6.7046e-06
6.70542e-06
6.70608e-06
6.7066e-06
6.70701e-06
6.70733e-06
6.70758e-06
6.70776e-06
6.70789e-06
6.70798e-06
6.70802e-06
6.70802e-06
6.70798e-06
6.70789e-06
6.70776e-06
6.70758e-06
6.70733e-06
6.70701e-06
6.7066e-06
6.70608e-06
6.70542e-06
6.7046e-06
6.70357e-06
6.70229e-06
6.70069e-06
6.69871e-06
6.69624e-06
6.69319e-06
6.68942e-06
6.68477e-06
6.67905e-06
6.67206e-06
6.66356e-06
6.65327e-06
6.64091e-06
6.62618e-06
6.60883e-06
6.58868e-06
6.56576e-06
6.54074e-06
6.51527e-06
2.48742e-05
2.49696e-05
2.5063e-05
2.51484e-05
2.52235e-05
2.52881e-05
2.5343e-05
2.5389e-05
2.54273e-05
2.54589e-05
2.54849e-05
2.55062e-05
2.55235e-05
2.55375e-05
2.55489e-05
2.55581e-05
2.55655e-05
2.55714e-05
2.55762e-05
2.558e-05
2.55831e-05
2.55855e-05
2.55875e-05
2.5589e-05
2.55902e-05
2.55911e-05
2.55918e-05
2.55923e-05
2.55926e-05
2.55928e-05
2.55928e-05
2.55926e-05
2.55923e-05
2.55918e-05
2.55911e-05
2.55902e-05
2.5589e-05
2.55875e-05
2.55855e-05
2.55831e-05
2.558e-05
2.55762e-05
2.55714e-05
2.55655e-05
2.55581e-05
2.55489e-05
2.55375e-05
2.55235e-05
2.55062e-05
2.54849e-05
2.54589e-05
2.54273e-05
2.5389e-05
2.5343e-05
2.52881e-05
2.52235e-05
2.51484e-05
2.5063e-05
2.49696e-05
2.48742e-05
8.80791e-05
8.84059e-05
8.87247e-05
8.90157e-05
8.92712e-05
8.9491e-05
8.96774e-05
8.98338e-05
8.9964e-05
9.00717e-05
9.01601e-05
9.02323e-05
9.02912e-05
9.03389e-05
9.03776e-05
9.04088e-05
9.04339e-05
9.04542e-05
9.04704e-05
9.04835e-05
9.04939e-05
9.05022e-05
9.05089e-05
9.05141e-05
9.05182e-05
9.05213e-05
9.05236e-05
9.05253e-05
9.05264e-05
9.05269e-05
9.05269e-05
9.05264e-05
9.05253e-05
9.05236e-05
9.05213e-05
9.05182e-05
9.05141e-05
9.05089e-05
9.05022e-05
9.04939e-05
9.04835e-05
9.04704e-05
9.04542e-05
9.04339e-05
9.04088e-05
9.03776e-05
9.03389e-05
9.02912e-05
9.02323e-05
9.01601e-05
9.00717e-05
8.9964e-05
8.98338e-05
8.96774e-05
8.9491e-05
8.92712e-05
8.90157e-05
8.87247e-05
8.84059e-05
8.80791e-05
0.000285072
0.000286078
0.000287055
0.000287944
0.000288725
0.000289395
0.000289964
0.000290441
0.000290839
0.000291167
0.000291437
0.000291657
0.000291837
0.000291983
0.0002921
0.000292196
0.000292272
0.000292334
0.000292384
0.000292424
0.000292456
0.000292481
0.000292501
0.000292517
0.00029253
0.000292539
0.000292547
0.000292552
0.000292555
0.000292556
0.000292556
0.000292555
0.000292552
0.000292547
0.000292539
0.00029253
0.000292517
0.000292501
0.000292481
0.000292456
0.000292424
0.000292384
0.000292334
0.000292272
0.000292196
0.0002921
0.000291983
0.000291837
0.000291657
0.000291437
0.000291167
0.000290839
0.000290441
0.000289964
0.000289395
0.000288725
0.000287944
0.000287055
0.000286078
0.000285072
0.000830411
0.000833143
0.000835778
0.00083817
0.000840267
0.000842069
0.000843597
0.000844879
0.000845945
0.000846827
0.000847551
0.000848143
0.000848625
0.000849016
0.000849333
0.000849589
0.000849795
0.000849961
0.000850094
0.000850201
0.000850287
0.000850356
0.00085041
0.000850453
0.000850487
0.000850513
0.000850532
0.000850546
0.000850554
0.000850559
0.000850559
0.000850554
0.000850546
0.000850532
0.000850513
0.000850487
0.000850453
0.00085041
0.000850356
0.000850287
0.000850201
0.000850094
0.000849961
0.000849795
0.000849589
0.000849333
0.000849016
0.000848625
0.000848143
0.000847551
0.000846827
0.000845945
0.000844879
0.000843597
0.000842069
0.000840267
0.00083817
0.000835778
0.000833143
0.000830411
0.00214462
0.00215103
0.00215716
0.00216272
0.00216758
0.00217176
0.0021753
0.00217827
0.00218074
0.00218278
0.00218446
0.00218583
0.00218695
0.00218786
0.00218859
0.00218919
0.00218966
0.00219005
0.00219036
0.00219061
0.00219081
0.00219097
0.00219109
0.00219119
0.00219127
0.00219133
0.00219138
0.00219141
0.00219143
0.00219144
0.00219144
0.00219143
0.00219141
0.00219138
0.00219133
0.00219127
0.00219119
0.00219109
0.00219097
0.00219081
0.00219061
0.00219036
0.00219005
0.00218966
0.00218919
0.00218859
0.00218786
0.00218695
0.00218583
0.00218446
0.00218278
0.00218074
0.00217827
0.0021753
0.00217176
0.00216758
0.00216272
0.00215716
0.00215103
0.00214462
0.00485126
0.00486406
0.00487621
0.00488717
0.00489676
0.00490499
0.00491196
0.00491781
0.00492268
0.0049267
0.00493
0.0049327
0.0049349
0.00493669
0.00493814
0.00493931
0.00494025
0.00494101
0.00494162
0.00494211
0.00494251
0.00494282
0.00494307
0.00494327
0.00494342
0.00494354
0.00494363
0.00494369
0.00494373
0.00494375
0.00494375
0.00494373
0.00494369
0.00494363
0.00494354
0.00494342
0.00494327
0.00494307
0.00494282
0.00494251
0.00494211
0.00494162
0.00494101
0.00494025
0.00493931
0.00493814
0.00493669
0.0049349
0.0049327
0.00493
0.0049267
0.00492268
0.00491781
0.00491196
0.00490499
0.00489676
0.00488717
0.00487621
0.00486406
0.00485126
0.00956025
0.00958192
0.00960226
0.00962056
0.00963654
0.00965025
0.00966187
0.00967161
0.00967971
0.00968641
0.00969191
0.00969642
0.00970009
0.00970307
0.00970548
0.00970743
0.00970901
0.00971028
0.0097113
0.00971212
0.00971278
0.0097133
0.00971372
0.00971405
0.00971431
0.00971451
0.00971466
0.00971476
0.00971483
0.00971486
0.00971486
0.00971483
0.00971476
0.00971466
0.00971451
0.00971431
0.00971405
0.00971372
0.0097133
0.00971278
0.00971212
0.0097113
0.00971028
0.00970901
0.00970743
0.00970548
0.00970307
0.00970009
0.00969642
0.00969191
0.00968641
0.00967971
0.00967161
0.00966187
0.00965025
0.00963654
0.00962056
0.00960226
0.00958192
0.00956025
0.0164926
0.016524
0.0165532
0.0165793
0.0166021
0.0166217
0.0166382
0.0166521
0.0166637
0.0166732
0.0166811
0.0166875
0.0166927
0.016697
0.0167005
0.0167032
0.0167055
0.0167073
0.0167088
0.01671
0.0167109
0.0167116
0.0167122
0.0167127
0.0167131
0.0167134
0.0167136
0.0167137
0.0167138
0.0167139
0.0167139
0.0167138
0.0167137
0.0167136
0.0167134
0.0167131
0.0167127
0.0167122
0.0167116
0.0167109
0.01671
0.0167088
0.0167073
0.0167055
0.0167032
0.0167005
0.016697
0.0166927
0.0166875
0.0166811
0.0166732
0.0166637
0.0166521
0.0166382
0.0166217
0.0166021
0.0165793
0.0165532
0.016524
0.0164926
0.0252954
0.0253356
0.0253725
0.0254054
0.0254341
0.0254587
0.0254795
0.025497
0.0255115
0.0255236
0.0255334
0.0255415
0.0255481
0.0255535
0.0255579
0.0255614
0.0255642
0.0255665
0.0255684
0.0255699
0.0255711
0.025572
0.0255728
0.0255734
0.0255739
0.0255742
0.0255745
0.0255747
0.0255748
0.0255749
0.0255749
0.0255748
0.0255747
0.0255745
0.0255742
0.0255739
0.0255734
0.0255728
0.025572
0.0255711
0.0255699
0.0255684
0.0255665
0.0255642
0.0255614
0.0255579
0.0255535
0.0255481
0.0255415
0.0255334
0.0255236
0.0255115
0.025497
0.0254795
0.0254587
0.0254341
0.0254054
0.0253725
0.0253356
0.0252954
0.0352792
0.0353264
0.0353693
0.0354074
0.0354405
0.0354689
0.035493
0.0355132
0.03553
0.0355439
0.0355553
0.0355647
0.0355724
0.0355786
0.0355836
0.0355877
0.035591
0.0355937
0.0355959
0.0355976
0.035599
0.0356001
0.035601
0.0356017
0.0356023
0.0356027
0.035603
0.0356032
0.0356034
0.0356034
0.0356034
0.0356034
0.0356032
0.035603
0.0356027
0.0356023
0.0356017
0.035601
0.0356001
0.035599
0.0355976
0.0355959
0.0355937
0.035591
0.0355877
0.0355836
0.0355786
0.0355724
0.0355647
0.0355553
0.0355439
0.03553
0.0355132
0.035493
0.0354689
0.0354405
0.0354074
0.0353693
0.0353264
0.0352792
0.0458221
0.0458749
0.0459223
0.0459643
0.0460008
0.0460321
0.0460586
0.0460809
0.0460994
0.0461148
0.0461274
0.0461378
0.0461463
0.0461531
0.0461587
0.0461633
0.046167
0.0461699
0.0461723
0.0461743
0.0461758
0.046177
0.046178
0.0461788
0.0461794
0.0461799
0.0461803
0.0461805
0.0461807
0.0461808
0.0461808
0.0461807
0.0461805
0.0461803
0.0461799
0.0461794
0.0461788
0.046178
0.046177
0.0461758
0.0461743
0.0461723
0.0461699
0.046167
0.0461633
0.0461587
0.0461531
0.0461463
0.0461378
0.0461274
0.0461148
0.0460994
0.0460809
0.0460586
0.0460321
0.0460008
0.0459643
0.0459223
0.0458749
0.0458221
0.0565711
0.0566288
0.0566801
0.0567255
0.0567648
0.0567986
0.0568272
0.0568512
0.0568713
0.0568879
0.0569015
0.0569128
0.056922
0.0569294
0.0569355
0.0569405
0.0569445
0.0569477
0.0569503
0.0569524
0.0569541
0.0569555
0.0569565
0.0569574
0.0569581
0.0569586
0.056959
0.0569593
0.0569595
0.0569595
0.0569595
0.0569595
0.0569593
0.056959
0.0569586
0.0569581
0.0569574
0.0569565
0.0569555
0.0569541
0.0569524
0.0569503
0.0569477
0.0569445
0.0569405
0.0569355
0.0569294
0.056922
0.0569128
0.0569015
0.0568879
0.0568713
0.0568512