/*--------------------------------*- C++ -*----------------------------------*\
| =========                 |                                                 |
| \\      /  F ield         | foam-extend: Open Source CFD                    |
|  \\    /   O peration     | Version:     4.0                                |
|   \\  /    A nd           | Web:         http://www.foam-extend.org         |
|    \\/     M anipulation  |                                                 |
\*---------------------------------------------------------------------------*/
FoamFile
{
    version     2.0;
    format      ascii;
    class       volScalarField;
    location    "1800";
    object      psiE;
}
// * * * * * * * * * * * * * * * * * * * * * * * * * * * * * * * * * * * * * //

dimensions      [0 0 0 0 0 0 0];

internalField   nonuniform List<scalar> 
6960
(
0.324567
0.324568
0.324569
0.32457
0.324571
0.324572
0.324573
0.324574
0.324574
0.324575
0.324576
0.324577
0.324578
0.324578
0.324579
0.32458
0.32458
0.324581
0.324581
0.324582
0.324582
0.324582
0.324583
0.324583
0.324583
0.324583
0.324583
0.324584
0.324584
0.324584
0.324584
0.324584
0.324584
0.324583
0.324583
0.324583
0.324583
0.324583
0.324582
0.324582
0.324582
0.324581
0.324581
0.32458
0.32458
0.324579
0.324578
0.324578
0.324577
0.324576
0.324575
0.324574
0.324574
0.324573
0.324572
0.324571
0.32457
0.324569
0.324568
0.324567
0.793774
0.793777
0.79378
0.793784
0.793788
0.793792
0.793795
0.793799
0.793803
0.793806
0.793809
0.793812
0.793815
0.793818
0.79382
0.793822
0.793825
0.793827
0.793828
0.79383
0.793832
0.793833
0.793834
0.793835
0.793836
0.793837
0.793837
0.793838
0.793838
0.793838
0.793838
0.793838
0.793838
0.793837
0.793837
0.793836
0.793835
0.793834
0.793833
0.793832
0.79383
0.793828
0.793827
0.793825
0.793822
0.79382
0.793818
0.793815
0.793812
0.793809
0.793806
0.793803
0.793799
0.793795
0.793792
0.793788
0.793784
0.79378
0.793777
0.793774
1.20405
1.20406
1.20407
1.20407
1.20408
1.20409
1.2041
1.2041
1.20411
1.20412
1.20412
1.20413
1.20414
1.20414
1.20415
1.20415
1.20415
1.20416
1.20416
1.20416
1.20417
1.20417
1.20417
1.20417
1.20418
1.20418
1.20418
1.20418
1.20418
1.20418
1.20418
1.20418
1.20418
1.20418
1.20418
1.20418
1.20417
1.20417
1.20417
1.20417
1.20416
1.20416
1.20416
1.20415
1.20415
1.20415
1.20414
1.20414
1.20413
1.20412
1.20412
1.20411
1.2041
1.2041
1.20409
1.20408
1.20407
1.20407
1.20406
1.20405
1.59338
1.59339
1.5934
1.59341
1.59343
1.59344
1.59345
1.59346
1.59347
1.59348
1.59349
1.5935
1.59351
1.59352
1.59353
1.59353
1.59354
1.59355
1.59355
1.59356
1.59356
1.59357
1.59357
1.59357
1.59358
1.59358
1.59358
1.59358
1.59358
1.59358
1.59358
1.59358
1.59358
1.59358
1.59358
1.59358
1.59357
1.59357
1.59357
1.59356
1.59356
1.59355
1.59355
1.59354
1.59353
1.59353
1.59352
1.59351
1.5935
1.59349
1.59348
1.59347
1.59346
1.59345
1.59344
1.59343
1.59341
1.5934
1.59339
1.59338
1.97777
1.97778
1.9778
1.97781
1.97783
1.97785
1.97786
1.97788
1.9779
1.97791
1.97792
1.97794
1.97795
1.97796
1.97797
1.97798
1.97799
1.978
1.97801
1.97802
1.97802
1.97803
1.97803
1.97804
1.97804
1.97804
1.97805
1.97805
1.97805
1.97805
1.97805
1.97805
1.97805
1.97805
1.97804
1.97804
1.97804
1.97803
1.97803
1.97802
1.97802
1.97801
1.978
1.97799
1.97798
1.97797
1.97796
1.97795
1.97794
1.97792
1.97791
1.9779
1.97788
1.97786
1.97785
1.97783
1.97781
1.9778
1.97778
1.97777
2.36457
2.36458
2.3646
2.36463
2.36465
2.36467
2.36469
2.36472
2.36474
2.36476
2.36477
2.36479
2.36481
2.36482
2.36484
2.36485
2.36486
2.36487
2.36488
2.36489
2.3649
2.36491
2.36492
2.36492
2.36493
2.36493
2.36493
2.36494
2.36494
2.36494
2.36494
2.36494
2.36494
2.36493
2.36493
2.36493
2.36492
2.36492
2.36491
2.3649
2.36489
2.36488
2.36487
2.36486
2.36485
2.36484
2.36482
2.36481
2.36479
2.36477
2.36476
2.36474
2.36472
2.36469
2.36467
2.36465
2.36463
2.3646
2.36458
2.36457
2.75728
2.7573
2.75733
2.75736
2.75739
2.75741
2.75744
2.75747
2.75749
2.75752
2.75754
2.75756
2.75758
2.7576
2.75762
2.75763
2.75765
2.75766
2.75768
2.75769
2.7577
2.75771
2.75772
2.75772
2.75773
2.75774
2.75774
2.75774
2.75774
2.75775
2.75775
2.75774
2.75774
2.75774
2.75774
2.75773
2.75772
2.75772
2.75771
2.7577
2.75769
2.75768
2.75766
2.75765
2.75763
2.75762
2.7576
2.75758
2.75756
2.75754
2.75752
2.75749
2.75747
2.75744
2.75741
2.75739
2.75736
2.75733
2.7573
2.75728
3.1576
3.15762
3.15765
3.15769
3.15772
3.15775
3.15779
3.15782
3.15785
3.15788
3.15791
3.15793
3.15796
3.15798
3.158
3.15802
3.15804
3.15806
3.15807
3.15808
3.1581
3.15811
3.15812
3.15813
3.15814
3.15814
3.15815
3.15815
3.15815
3.15815
3.15815
3.15815
3.15815
3.15815
3.15814
3.15814
3.15813
3.15812
3.15811
3.1581
3.15808
3.15807
3.15806
3.15804
3.15802
3.158
3.15798
3.15796
3.15793
3.15791
3.15788
3.15785
3.15782
3.15779
3.15775
3.15772
3.15769
3.15765
3.15762
3.1576
3.56633
3.56636
3.56639
3.56643
3.56647
3.56651
3.56655
3.56659
3.56663
3.56666
3.56669
3.56672
3.56675
3.56678
3.5668
3.56683
3.56685
3.56687
3.56689
3.5669
3.56692
3.56693
3.56694
3.56695
3.56696
3.56697
3.56698
3.56698
3.56698
3.56698
3.56698
3.56698
3.56698
3.56698
3.56697
3.56696
3.56695
3.56694
3.56693
3.56692
3.5669
3.56689
3.56687
3.56685
3.56683
3.5668
3.56678
3.56675
3.56672
3.56669
3.56666
3.56663
3.56659
3.56655
3.56651
3.56647
3.56643
3.56639
3.56636
3.56633
3.98389
3.98392
3.98396
3.98401
3.98405
3.9841
3.98415
3.98419
3.98423
3.98427
3.98431
3.98434
3.98437
3.9844
3.98443
3.98446
3.98448
3.98451
3.98453
3.98455
3.98457
3.98458
3.98459
3.98461
3.98462
3.98462
3.98463
3.98464
3.98464
3.98464
3.98464
3.98464
3.98464
3.98463
3.98462
3.98462
3.98461
3.98459
3.98458
3.98457
3.98455
3.98453
3.98451
3.98448
3.98446
3.98443
3.9844
3.98437
3.98434
3.98431
3.98427
3.98423
3.98419
3.98415
3.9841
3.98405
3.98401
3.98396
3.98392
3.98389
4.41048
4.41051
4.41056
4.41061
4.41067
4.41072
4.41077
4.41082
4.41086
4.41091
4.41095
4.41099
4.41103
4.41106
4.4111
4.41113
4.41115
4.41118
4.4112
4.41123
4.41125
4.41126
4.41128
4.41129
4.4113
4.41131
4.41132
4.41133
4.41133
4.41133
4.41133
4.41133
4.41133
4.41132
4.41131
4.4113
4.41129
4.41128
4.41126
4.41125
4.41123
4.4112
4.41118
4.41115
4.41113
4.4111
4.41106
4.41103
4.41099
4.41095
4.41091
4.41086
4.41082
4.41077
4.41072
4.41067
4.41061
4.41056
4.41051
4.41048
4.84621
4.84624
4.8463
4.84636
4.84642
4.84648
4.84653
4.84659
4.84664
4.84669
4.84673
4.84678
4.84682
4.84686
4.8469
4.84693
4.84696
4.84699
4.84702
4.84704
4.84706
4.84708
4.8471
4.84712
4.84713
4.84714
4.84715
4.84715
4.84716
4.84716
4.84716
4.84716
4.84715
4.84715
4.84714
4.84713
4.84712
4.8471
4.84708
4.84706
4.84704
4.84702
4.84699
4.84696
4.84693
4.8469
4.84686
4.84682
4.84678
4.84673
4.84669
4.84664
4.84659
4.84653
4.84648
4.84642
4.84636
4.8463
4.84624
4.84621
5.29112
5.29117
5.29123
5.29129
5.29136
5.29142
5.29149
5.29155
5.2916
5.29166
5.29171
5.29176
5.29181
5.29185
5.29189
5.29193
5.29196
5.29199
5.29202
5.29205
5.29207
5.2921
5.29212
5.29213
5.29215
5.29216
5.29217
5.29217
5.29218
5.29218
5.29218
5.29218
5.29217
5.29217
5.29216
5.29215
5.29213
5.29212
5.2921
5.29207
5.29205
5.29202
5.29199
5.29196
5.29193
5.29189
5.29185
5.29181
5.29176
5.29171
5.29166
5.2916
5.29155
5.29149
5.29142
5.29136
5.29129
5.29123
5.29117
5.29112
5.74525
5.7453
5.74536
5.74543
5.74551
5.74558
5.74565
5.74571
5.74578
5.74584
5.74589
5.74595
5.746
5.74605
5.74609
5.74613
5.74617
5.74621
5.74624
5.74627
5.74629
5.74632
5.74634
5.74636
5.74637
5.74639
5.7464
5.7464
5.74641
5.74641
5.74641
5.74641
5.7464
5.7464
5.74639
5.74637
5.74636
5.74634
5.74632
5.74629
5.74627
5.74624
5.74621
5.74617
5.74613
5.74609
5.74605
5.746
5.74595
5.74589
5.74584
5.74578
5.74571
5.74565
5.74558
5.74551
5.74543
5.74536
5.7453
5.74525
6.20857
6.20863
6.2087
6.20878
6.20885
6.20893
6.20901
6.20908
6.20915
6.20921
6.20927
6.20933
6.20939
6.20944
6.20949
6.20953
6.20958
6.20961
6.20965
6.20968
6.20971
6.20974
6.20976
6.20978
6.2098
6.20981
6.20982
6.20983
6.20984
6.20984
6.20984
6.20984
6.20983
6.20982
6.20981
6.2098
6.20978
6.20976
6.20974
6.20971
6.20968
6.20965
6.20961
6.20958
6.20953
6.20949
6.20944
6.20939
6.20933
6.20927
6.20921
6.20915
6.20908
6.20901
6.20893
6.20885
6.20878
6.2087
6.20863
6.20857
6.68106
6.68112
6.68119
6.68128
6.68136
6.68145
6.68153
6.68161
6.68168
6.68175
6.68182
6.68188
6.68194
6.682
6.68205
6.6821
6.68214
6.68219
6.68222
6.68226
6.68229
6.68232
6.68234
6.68236
6.68238
6.6824
6.68241
6.68242
6.68243
6.68243
6.68243
6.68243
6.68242
6.68241
6.6824
6.68238
6.68236
6.68234
6.68232
6.68229
6.68226
6.68222
6.68219
6.68214
6.6821
6.68205
6.682
6.68194
6.68188
6.68182
6.68175
6.68168
6.68161
6.68153
6.68145
6.68136
6.68128
6.68119
6.68112
6.68106
7.16264
7.1627
7.16279
7.16288
7.16297
7.16306
7.16315
7.16323
7.16331
7.16339
7.16346
7.16353
7.16359
7.16365
7.16371
7.16376
7.16381
7.16386
7.1639
7.16393
7.16397
7.164
7.16403
7.16405
7.16407
7.16408
7.1641
7.16411
7.16411
7.16412
7.16412
7.16411
7.16411
7.1641
7.16408
7.16407
7.16405
7.16403
7.164
7.16397
7.16393
7.1639
7.16386
7.16381
7.16376
7.16371
7.16365
7.16359
7.16353
7.16346
7.16339
7.16331
7.16323
7.16315
7.16306
7.16297
7.16288
7.16279
7.1627
7.16264
7.65323
7.6533
7.65339
7.65348
7.65358
7.65368
7.65377
7.65386
7.65395
7.65403
7.65411
7.65418
7.65425
7.65431
7.65438
7.65443
7.65448
7.65453
7.65458
7.65462
7.65465
7.65469
7.65471
7.65474
7.65476
7.65478
7.65479
7.6548
7.65481
7.65481
7.65481
7.65481
7.6548
7.65479
7.65478
7.65476
7.65474
7.65471
7.65469
7.65465
7.65462
7.65458
7.65453
7.65448
7.65443
7.65438
7.65431
7.65425
7.65418
7.65411
7.65403
7.65395
7.65386
7.65377
7.65368
7.65358
7.65348
7.65339
7.6533
7.65323
8.1527
8.15277
8.15287
8.15297
8.15308
8.15318
8.15328
8.15337
8.15347
8.15355
8.15364
8.15371
8.15379
8.15386
8.15392
8.15398
8.15404
8.15409
8.15414
8.15418
8.15422
8.15425
8.15428
8.15431
8.15433
8.15435
8.15437
8.15438
8.15438
8.15439
8.15439
8.15438
8.15438
8.15437
8.15435
8.15433
8.15431
8.15428
8.15425
8.15422
8.15418
8.15414
8.15409
8.15404
8.15398
8.15392
8.15386
8.15379
8.15371
8.15364
8.15355
8.15347
8.15337
8.15328
8.15318
8.15308
8.15297
8.15287
8.15277
8.1527
8.66089
8.66097
8.66107
8.66118
8.66129
8.6614
8.6615
8.66161
8.6617
8.6618
8.66189
8.66197
8.66205
8.66212
8.66219
8.66225
8.66231
8.66237
8.66242
8.66246
8.6625
8.66254
8.66257
8.6626
8.66262
8.66264
8.66266
8.66267
8.66268
8.66268
8.66268
8.66268
8.66267
8.66266
8.66264
8.66262
8.6626
8.66257
8.66254
8.6625
8.66246
8.66242
8.66237
8.66231
8.66225
8.66219
8.66212
8.66205
8.66197
8.66189
8.6618
8.6617
8.66161
8.6615
8.6614
8.66129
8.66118
8.66107
8.66097
8.66089
9.1776
9.17768
9.17779
9.1779
9.17802
9.17814
9.17825
9.17836
9.17846
9.17856
9.17865
9.17874
9.17882
9.1789
9.17897
9.17904
9.1791
9.17916
9.17922
9.17926
9.17931
9.17935
9.17938
9.17941
9.17944
9.17946
9.17947
9.17949
9.17949
9.1795
9.1795
9.17949
9.17949
9.17947
9.17946
9.17944
9.17941
9.17938
9.17935
9.17931
9.17926
9.17922
9.17916
9.1791
9.17904
9.17897
9.1789
9.17882
9.17874
9.17865
9.17856
9.17846
9.17836
9.17825
9.17814
9.17802
9.1779
9.17779
9.17768
9.1776
9.70259
9.70267
9.70278
9.7029
9.70303
9.70315
9.70327
9.70338
9.70349
9.70359
9.70369
9.70378
9.70387
9.70395
9.70403
9.7041
9.70417
9.70423
9.70429
9.70434
9.70438
9.70442
9.70446
9.70449
9.70452
9.70454
9.70456
9.70457
9.70458
9.70458
9.70458
9.70458
9.70457
9.70456
9.70454
9.70452
9.70449
9.70446
9.70442
9.70438
9.70434
9.70429
9.70423
9.70417
9.7041
9.70403
9.70395
9.70387
9.70378
9.70369
9.70359
9.70349
9.70338
9.70327
9.70315
9.70303
9.7029
9.70278
9.70267
9.70259
10.2355
10.2356
10.2357
10.2359
10.236
10.2361
10.2363
10.2364
10.2365
10.2366
10.2367
10.2368
10.2369
10.237
10.2371
10.2371
10.2372
10.2373
10.2373
10.2374
10.2374
10.2375
10.2375
10.2375
10.2376
10.2376
10.2376
10.2376
10.2376
10.2376
10.2376
10.2376
10.2376
10.2376
10.2376
10.2376
10.2375
10.2375
10.2375
10.2374
10.2374
10.2373
10.2373
10.2372
10.2371
10.2371
10.237
10.2369
10.2368
10.2367
10.2366
10.2365
10.2364
10.2363
10.2361
10.236
10.2359
10.2357
10.2356
10.2355
10.7761
10.7762
10.7763
10.7765
10.7766
10.7767
10.7769
10.777
10.7771
10.7772
10.7773
10.7774
10.7775
10.7776
10.7777
10.7778
10.7779
10.7779
10.778
10.7781
10.7781
10.7781
10.7782
10.7782
10.7783
10.7783
10.7783
10.7783
10.7783
10.7783
10.7783
10.7783
10.7783
10.7783
10.7783
10.7783
10.7782
10.7782
10.7781
10.7781
10.7781
10.778
10.7779
10.7779
10.7778
10.7777
10.7776
10.7775
10.7774
10.7773
10.7772
10.7771
10.777
10.7769
10.7767
10.7766
10.7765
10.7763
10.7762
10.7761
11.3239
11.324
11.3241
11.3243
11.3244
11.3246
11.3247
11.3248
11.3249
11.3251
11.3252
11.3253
11.3254
11.3255
11.3256
11.3257
11.3257
11.3258
11.3259
11.3259
11.326
11.326
11.3261
11.3261
11.3261
11.3262
11.3262
11.3262
11.3262
11.3262
11.3262
11.3262
11.3262
11.3262
11.3262
11.3261
11.3261
11.3261
11.326
11.326
11.3259
11.3259
11.3258
11.3257
11.3257
11.3256
11.3255
11.3254
11.3253
11.3252
11.3251
11.3249
11.3248
11.3247
11.3246
11.3244
11.3243
11.3241
11.324
11.3239
11.8784
11.8785
11.8786
11.8788
11.8789
11.8791
11.8792
11.8794
11.8795
11.8796
11.8797
11.8798
11.8799
11.88
11.8801
11.8802
11.8803
11.8804
11.8804
11.8805
11.8806
11.8806
11.8807
11.8807
11.8807
11.8808
11.8808
11.8808
11.8808
11.8808
11.8808
11.8808
11.8808
11.8808
11.8808
11.8807
11.8807
11.8807
11.8806
11.8806
11.8805
11.8804
11.8804
11.8803
11.8802
11.8801
11.88
11.8799
11.8798
11.8797
11.8796
11.8795
11.8794
11.8792
11.8791
11.8789
11.8788
11.8786
11.8785
11.8784
12.4391
12.4392
12.4393
12.4395
12.4396
12.4398
12.4399
12.44
12.4402
12.4403
12.4404
12.4405
12.4407
12.4408
12.4409
12.4409
12.441
12.4411
12.4412
12.4412
12.4413
12.4413
12.4414
12.4414
12.4415
12.4415
12.4415
12.4415
12.4415
12.4415
12.4415
12.4415
12.4415
12.4415
12.4415
12.4415
12.4414
12.4414
12.4413
12.4413
12.4412
12.4412
12.4411
12.441
12.4409
12.4409
12.4408
12.4407
12.4405
12.4404
12.4403
12.4402
12.44
12.4399
12.4398
12.4396
12.4395
12.4393
12.4392
12.4391
13.0052
13.0053
13.0054
13.0056
13.0058
13.0059
13.0061
13.0062
13.0064
13.0065
13.0066
13.0067
13.0069
13.007
13.0071
13.0072
13.0072
13.0073
13.0074
13.0075
13.0075
13.0076
13.0076
13.0077
13.0077
13.0077
13.0077
13.0078
13.0078
13.0078
13.0078
13.0078
13.0078
13.0077
13.0077
13.0077
13.0077
13.0076
13.0076
13.0075
13.0075
13.0074
13.0073
13.0072
13.0072
13.0071
13.007
13.0069
13.0067
13.0066
13.0065
13.0064
13.0062
13.0061
13.0059
13.0058
13.0056
13.0054
13.0053
13.0052
13.5761
13.5762
13.5763
13.5765
13.5766
13.5768
13.577
13.5771
13.5773
13.5774
13.5775
13.5777
13.5778
13.5779
13.578
13.5781
13.5782
13.5782
13.5783
13.5784
13.5785
13.5785
13.5786
13.5786
13.5786
13.5787
13.5787
13.5787
13.5787
13.5787
13.5787
13.5787
13.5787
13.5787
13.5787
13.5786
13.5786
13.5786
13.5785
13.5785
13.5784
13.5783
13.5782
13.5782
13.5781
13.578
13.5779
13.5778
13.5777
13.5775
13.5774
13.5773
13.5771
13.577
13.5768
13.5766
13.5765
13.5763
13.5762
13.5761
14.1508
14.1509
14.151
14.1512
14.1514
14.1515
14.1517
14.1519
14.152
14.1521
14.1523
14.1524
14.1525
14.1526
14.1527
14.1528
14.1529
14.153
14.1531
14.1532
14.1532
14.1533
14.1533
14.1534
14.1534
14.1535
14.1535
14.1535
14.1535
14.1535
14.1535
14.1535
14.1535
14.1535
14.1535
14.1534
14.1534
14.1533
14.1533
14.1532
14.1532
14.1531
14.153
14.1529
14.1528
14.1527
14.1526
14.1525
14.1524
14.1523
14.1521
14.152
14.1519
14.1517
14.1515
14.1514
14.1512
14.151
14.1509
14.1508
14.7283
14.7284
14.7286
14.7288
14.7289
14.7291
14.7293
14.7294
14.7296
14.7297
14.7299
14.73
14.7301
14.7302
14.7303
14.7304
14.7305
14.7306
14.7307
14.7308
14.7308
14.7309
14.731
14.731
14.731
14.7311
14.7311
14.7311
14.7311
14.7311
14.7311
14.7311
14.7311
14.7311
14.7311
14.731
14.731
14.731
14.7309
14.7308
14.7308
14.7307
14.7306
14.7305
14.7304
14.7303
14.7302
14.7301
14.73
14.7299
14.7297
14.7296
14.7294
14.7293
14.7291
14.7289
14.7288
14.7286
14.7284
14.7283
15.3075
15.3076
15.3078
15.308
15.3082
15.3083
15.3085
15.3087
15.3088
15.309
15.3091
15.3092
15.3094
15.3095
15.3096
15.3097
15.3098
15.3099
15.31
15.31
15.3101
15.3102
15.3102
15.3103
15.3103
15.3103
15.3104
15.3104
15.3104
15.3104
15.3104
15.3104
15.3104
15.3104
15.3103
15.3103
15.3103
15.3102
15.3102
15.3101
15.31
15.31
15.3099
15.3098
15.3097
15.3096
15.3095
15.3094
15.3092
15.3091
15.309
15.3088
15.3087
15.3085
15.3083
15.3082
15.308
15.3078
15.3076
15.3075
15.8871
15.8872
15.8873
15.8875
15.8877
15.8879
15.8881
15.8882
15.8884
15.8885
15.8887
15.8888
15.8889
15.8891
15.8892
15.8893
15.8894
15.8895
15.8896
15.8896
15.8897
15.8898
15.8898
15.8899
15.8899
15.8899
15.89
15.89
15.89
15.89
15.89
15.89
15.89
15.89
15.8899
15.8899
15.8899
15.8898
15.8898
15.8897
15.8896
15.8896
15.8895
15.8894
15.8893
15.8892
15.8891
15.8889
15.8888
15.8887
15.8885
15.8884
15.8882
15.8881
15.8879
15.8877
15.8875
15.8873
15.8872
15.8871
16.4654
16.4655
16.4657
16.4658
16.466
16.4662
16.4664
16.4666
16.4667
16.4669
16.467
16.4672
16.4673
16.4674
16.4675
16.4676
16.4677
16.4678
16.4679
16.468
16.4681
16.4681
16.4682
16.4682
16.4683
16.4683
16.4683
16.4683
16.4684
16.4684
16.4684
16.4684
16.4683
16.4683
16.4683
16.4683
16.4682
16.4682
16.4681
16.4681
16.468
16.4679
16.4678
16.4677
16.4676
16.4675
16.4674
16.4673
16.4672
16.467
16.4669
16.4667
16.4666
16.4664
16.4662
16.466
16.4658
16.4657
16.4655
16.4654
17.0407
17.0408
17.041
17.0411
17.0413
17.0415
17.0417
17.0419
17.042
17.0422
17.0423
17.0425
17.0426
17.0427
17.0429
17.043
17.0431
17.0432
17.0432
17.0433
17.0434
17.0435
17.0435
17.0436
17.0436
17.0436
17.0437
17.0437
17.0437
17.0437
17.0437
17.0437
17.0437
17.0437
17.0436
17.0436
17.0436
17.0435
17.0435
17.0434
17.0433
17.0432
17.0432
17.0431
17.043
17.0429
17.0427
17.0426
17.0425
17.0423
17.0422
17.042
17.0419
17.0417
17.0415
17.0413
17.0411
17.041
17.0408
17.0407
17.6109
17.611
17.6112
17.6114
17.6116
17.6118
17.6119
17.6121
17.6123
17.6124
17.6126
17.6127
17.6129
17.613
17.6131
17.6132
17.6133
17.6134
17.6135
17.6136
17.6136
17.6137
17.6138
17.6138
17.6138
17.6139
17.6139
17.6139
17.6139
17.6139
17.6139
17.6139
17.6139
17.6139
17.6139
17.6138
17.6138
17.6138
17.6137
17.6136
17.6136
17.6135
17.6134
17.6133
17.6132
17.6131
17.613
17.6129
17.6127
17.6126
17.6124
17.6123
17.6121
17.6119
17.6118
17.6116
17.6114
17.6112
17.611
17.6109
18.1736
18.1738
18.1739
18.1741
18.1743
18.1745
18.1747
18.1749
18.175
18.1752
18.1753
18.1755
18.1756
18.1757
18.1758
18.176
18.1761
18.1762
18.1762
18.1763
18.1764
18.1765
18.1765
18.1766
18.1766
18.1766
18.1767
18.1767
18.1767
18.1767
18.1767
18.1767
18.1767
18.1767
18.1766
18.1766
18.1766
18.1765
18.1765
18.1764
18.1763
18.1762
18.1762
18.1761
18.176
18.1758
18.1757
18.1756
18.1755
18.1753
18.1752
18.175
18.1749
18.1747
18.1745
18.1743
18.1741
18.1739
18.1738
18.1736
18.7261
18.7262
18.7264
18.7266
18.7268
18.727
18.7271
18.7273
18.7275
18.7276
18.7278
18.7279
18.728
18.7282
18.7283
18.7284
18.7285
18.7286
18.7287
18.7288
18.7288
18.7289
18.729
18.729
18.729
18.7291
18.7291
18.7291
18.7291
18.7291
18.7291
18.7291
18.7291
18.7291
18.7291
18.729
18.729
18.729
18.7289
18.7288
18.7288
18.7287
18.7286
18.7285
18.7284
18.7283
18.7282
18.728
18.7279
18.7278
18.7276
18.7275
18.7273
18.7271
18.727
18.7268
18.7266
18.7264
18.7262
18.7261
19.265
19.2651
19.2653
19.2655
19.2656
19.2658
19.266
19.2662
19.2663
19.2665
19.2666
19.2668
19.2669
19.267
19.2671
19.2672
19.2673
19.2674
19.2675
19.2676
19.2677
19.2677
19.2678
19.2678
19.2679
19.2679
19.2679
19.268
19.268
19.268
19.268
19.268
19.268
19.2679
19.2679
19.2679
19.2678
19.2678
19.2677
19.2677
19.2676
19.2675
19.2674
19.2673
19.2672
19.2671
19.267
19.2669
19.2668
19.2666
19.2665
19.2663
19.2662
19.266
19.2658
19.2656
19.2655
19.2653
19.2651
19.265
19.7864
19.7865
19.7867
19.7868
19.787
19.7872
19.7874
19.7875
19.7877
19.7878
19.788
19.7881
19.7882
19.7884
19.7885
19.7886
19.7887
19.7888
19.7889
19.7889
19.789
19.7891
19.7891
19.7892
19.7892
19.7892
19.7893
19.7893
19.7893
19.7893
19.7893
19.7893
19.7893
19.7893
19.7892
19.7892
19.7892
19.7891
19.7891
19.789
19.7889
19.7889
19.7888
19.7887
19.7886
19.7885
19.7884
19.7882
19.7881
19.788
19.7878
19.7877
19.7875
19.7874
19.7872
19.787
19.7868
19.7867
19.7865
19.7864
20.2857
20.2858
20.2859
20.2861
20.2863
20.2865
20.2866
20.2868
20.2869
20.2871
20.2872
20.2873
20.2875
20.2876
20.2877
20.2878
20.2879
20.288
20.2881
20.2881
20.2882
20.2883
20.2883
20.2884
20.2884
20.2884
20.2885
20.2885
20.2885
20.2885
20.2885
20.2885
20.2885
20.2885
20.2884
20.2884
20.2884
20.2883
20.2883
20.2882
20.2881
20.2881
20.288
20.2879
20.2878
20.2877
20.2876
20.2875
20.2873
20.2872
20.2871
20.2869
20.2868
20.2866
20.2865
20.2863
20.2861
20.2859
20.2858
20.2857
20.7574
20.7576
20.7577
20.7579
20.758
20.7582
20.7583
20.7585
20.7586
20.7588
20.7589
20.759
20.7592
20.7593
20.7594
20.7595
20.7596
20.7597
20.7597
20.7598
20.7599
20.7599
20.76
20.76
20.7601
20.7601
20.7601
20.7601
20.7601
20.7601
20.7601
20.7601
20.7601
20.7601
20.7601
20.7601
20.76
20.76
20.7599
20.7599
20.7598
20.7597
20.7597
20.7596
20.7595
20.7594
20.7593
20.7592
20.759
20.7589
20.7588
20.7586
20.7585
20.7583
20.7582
20.758
20.7579
20.7577
20.7576
20.7574
21.1955
21.1956
21.1958
21.1959
21.1961
21.1962
21.1963
21.1965
21.1966
21.1968
21.1969
21.197
21.1971
21.1972
21.1973
21.1974
21.1975
21.1976
21.1976
21.1977
21.1978
21.1978
21.1979
21.1979
21.1979
21.198
21.198
21.198
21.198
21.198
21.198
21.198
21.198
21.198
21.198
21.1979
21.1979
21.1979
21.1978
21.1978
21.1977
21.1976
21.1976
21.1975
21.1974
21.1973
21.1972
21.1971
21.197
21.1969
21.1968
21.1966
21.1965
21.1963
21.1962
21.1961
21.1959
21.1958
21.1956
21.1955
21.5932
21.5933
21.5934
21.5936
21.5937
21.5938
21.594
21.5941
21.5942
21.5943
21.5944
21.5946
21.5947
21.5948
21.5948
21.5949
21.595
21.5951
21.5951
21.5952
21.5953
21.5953
21.5954
21.5954
21.5954
21.5955
21.5955
21.5955
21.5955
21.5955
21.5955
21.5955
21.5955
21.5955
21.5955
21.5954
21.5954
21.5954
21.5953
21.5953
21.5952
21.5951
21.5951
21.595
21.5949
21.5948
21.5948
21.5947
21.5946
21.5944
21.5943
21.5942
21.5941
21.594
21.5938
21.5937
21.5936
21.5934
21.5933
21.5932
21.9444
21.9445
21.9446
21.9447
21.9448
21.9449
21.945
21.9451
21.9452
21.9454
21.9455
21.9455
21.9456
21.9457
21.9458
21.9459
21.9459
21.946
21.9461
21.9461
21.9462
21.9462
21.9463
21.9463
21.9463
21.9463
21.9464
21.9464
21.9464
21.9464
21.9464
21.9464
21.9464
21.9464
21.9463
21.9463
21.9463
21.9463
21.9462
21.9462
21.9461
21.9461
21.946
21.9459
21.9459
21.9458
21.9457
21.9456
21.9455
21.9455
21.9454
21.9452
21.9451
21.945
21.9449
21.9448
21.9447
21.9446
21.9445
21.9444
22.2448
22.2449
22.2449
22.245
22.2451
22.2452
22.2453
22.2454
22.2455
22.2456
22.2457
22.2458
22.2458
22.2459
22.246
22.2461
22.2461
22.2462
22.2462
22.2463
22.2463
22.2464
22.2464
22.2464
22.2464
22.2465
22.2465
22.2465
22.2465
22.2465
22.2465
22.2465
22.2465
22.2465
22.2465
22.2464
22.2464
22.2464
22.2464
22.2463
22.2463
22.2462
22.2462
22.2461
22.2461
22.246
22.2459
22.2458
22.2458
22.2457
22.2456
22.2455
22.2454
22.2453
22.2452
22.2451
22.245
22.2449
22.2449
22.2448
22.4938
22.4939
22.4939
22.494
22.4941
22.4942
22.4942
22.4943
22.4944
22.4945
22.4945
22.4946
22.4947
22.4947
22.4948
22.4949
22.4949
22.495
22.495
22.495
22.4951
22.4951
22.4951
22.4952
22.4952
22.4952
22.4952
22.4952
22.4952
22.4952
22.4952
22.4952
22.4952
22.4952
22.4952
22.4952
22.4952
22.4951
22.4951
22.4951
22.495
22.495
22.495
22.4949
22.4949
22.4948
22.4947
22.4947
22.4946
22.4945
22.4945
22.4944
22.4943
22.4942
22.4942
22.4941
22.494
22.4939
22.4939
22.4938
22.6952
22.6952
22.6953
22.6953
22.6954
22.6955
22.6955
22.6956
22.6957
22.6957
22.6958
22.6958
22.6959
22.6959
22.696
22.696
22.6961
22.6961
22.6962
22.6962
22.6962
22.6963
22.6963
22.6963
22.6963
22.6963
22.6964
22.6964
22.6964
22.6964
22.6964
22.6964
22.6964
22.6964
22.6963
22.6963
22.6963
22.6963
22.6963
22.6962
22.6962
22.6962
22.6961
22.6961
22.696
22.696
22.6959
22.6959
22.6958
22.6958
22.6957
22.6957
22.6956
22.6955
22.6955
22.6954
22.6953
22.6953
22.6952
22.6952
22.8562
22.8562
22.8563
22.8563
22.8564
22.8564
22.8565
22.8565
22.8566
22.8566
22.8567
22.8567
22.8568
22.8568
22.8568
22.8569
22.8569
22.857
22.857
22.857
22.8571
22.8571
22.8571
22.8571
22.8571
22.8571
22.8572
22.8572
22.8572
22.8572
22.8572
22.8572
22.8572
22.8572
22.8571
22.8571
22.8571
22.8571
22.8571
22.8571
22.857
22.857
22.857
22.8569
22.8569
22.8568
22.8568
22.8568
22.8567
22.8567
22.8566
22.8566
22.8565
22.8565
22.8564
22.8564
22.8563
22.8563
22.8562
22.8562
22.9856
22.9856
22.9856
22.9857
22.9857
22.9857
22.9858
22.9858
22.9859
22.9859
22.986
22.986
22.986
22.9861
22.9861
22.9862
22.9862
22.9862
22.9862
22.9863
22.9863
22.9863
22.9863
22.9864
22.9864
22.9864
22.9864
22.9864
22.9864
22.9864
22.9864
22.9864
22.9864
22.9864
22.9864
22.9864
22.9864
22.9863
22.9863
22.9863
22.9863
22.9862
22.9862
22.9862
22.9862
22.9861
22.9861
22.986
22.986
22.986
22.9859
22.9859
22.9858
22.9858
22.9857
22.9857
22.9857
22.9856
22.9856
22.9856
23.0916
23.0916
23.0916
23.0916
23.0917
23.0917
23.0917
23.0918
23.0918
23.0919
23.0919
23.0919
23.092
23.092
23.092
23.0921
23.0921
23.0921
23.0922
23.0922
23.0922
23.0922
23.0922
23.0923
23.0923
23.0923
23.0923
23.0923
23.0923
23.0923
23.0923
23.0923
23.0923
23.0923
23.0923
23.0923
23.0923
23.0922
23.0922
23.0922
23.0922
23.0922
23.0921
23.0921
23.0921
23.092
23.092
23.092
23.0919
23.0919
23.0919
23.0918
23.0918
23.0917
23.0917
23.0917
23.0916
23.0916
23.0916
23.0916
23.1808
23.1808
23.1808
23.1808
23.1808
23.1809
23.1809
23.1809
23.1809
23.181
23.181
23.1811
23.1811
23.1811
23.1812
23.1812
23.1812
23.1812
23.1813
23.1813
23.1813
23.1813
23.1813
23.1814
23.1814
23.1814
23.1814
23.1814
23.1814
23.1814
23.1814
23.1814
23.1814
23.1814
23.1814
23.1814
23.1814
23.1813
23.1813
23.1813
23.1813
23.1813
23.1812
23.1812
23.1812
23.1812
23.1811
23.1811
23.1811
23.181
23.181
23.1809
23.1809
23.1809
23.1809
23.1808
23.1808
23.1808
23.1808
23.1808
23.2578
23.2578
23.2578
23.2579
23.2579
23.2579
23.2579
23.258
23.258
23.258
23.2581
23.2581
23.2581
23.2582
23.2582
23.2582
23.2582
23.2583
23.2583
23.2583
23.2583
23.2584
23.2584
23.2584
23.2584
23.2584
23.2584
23.2584
23.2584
23.2584
23.2584
23.2584
23.2584
23.2584
23.2584
23.2584
23.2584
23.2584
23.2584
23.2583
23.2583
23.2583
23.2583
23.2582
23.2582
23.2582
23.2582
23.2581
23.2581
23.2581
23.258
23.258
23.258
23.2579
23.2579
23.2579
23.2579
23.2578
23.2578
23.2578
23.326
23.326
23.326
23.326
23.326
23.326
23.3261
23.3261
23.3261
23.3261
23.3262
23.3262
23.3262
23.3263
23.3263
23.3263
23.3264
23.3264
23.3264
23.3264
23.3265
23.3265
23.3265
23.3265
23.3265
23.3265
23.3265
23.3265
23.3265
23.3265
23.3265
23.3265
23.3265
23.3265
23.3265
23.3265
23.3265
23.3265
23.3265
23.3265
23.3264
23.3264
23.3264
23.3264
23.3263
23.3263
23.3263
23.3262
23.3262
23.3262
23.3261
23.3261
23.3261
23.3261
23.326
23.326
23.326
23.326
23.326
23.326
23.3873
23.3873
23.3873
23.3873
23.3873
23.3874
23.3874
23.3874
23.3874
23.3875
23.3875
23.3875
23.3876
23.3876
23.3876
23.3877
23.3877
23.3877
23.3877
23.3878
23.3878
23.3878
23.3878
23.3878
23.3878
23.3879
23.3879
23.3879
23.3879
23.3879
23.3879
23.3879
23.3879
23.3879
23.3879
23.3878
23.3878
23.3878
23.3878
23.3878
23.3878
23.3877
23.3877
23.3877
23.3877
23.3876
23.3876
23.3876
23.3875
23.3875
23.3875
23.3874
23.3874
23.3874
23.3874
23.3873
23.3873
23.3873
23.3873
23.3873
23.4433
23.4433
23.4433
23.4433
23.4433
23.4433
23.4434
23.4434
23.4434
23.4434
23.4435
23.4435
23.4435
23.4436
23.4436
23.4436
23.4437
23.4437
23.4437
23.4437
23.4438
23.4438
23.4438
23.4438
23.4438
23.4438
23.4438
23.4438
23.4438
23.4439
23.4439
23.4438
23.4438
23.4438
23.4438
23.4438
23.4438
23.4438
23.4438
23.4438
23.4437
23.4437
23.4437
23.4437
23.4436
23.4436
23.4436
23.4435
23.4435
23.4435
23.4434
23.4434
23.4434
23.4434
23.4433
23.4433
23.4433
23.4433
23.4433
23.4433
23.4949
23.4949
23.4949
23.4949
23.4949
23.495
23.495
23.495
23.495
23.4951
23.4951
23.4951
23.4952
23.4952
23.4952
23.4953
23.4953
23.4953
23.4953
23.4954
23.4954
23.4954
23.4954
23.4954
23.4955
23.4955
23.4955
23.4955
23.4955
23.4955
23.4955
23.4955
23.4955
23.4955
23.4955
23.4955
23.4954
23.4954
23.4954
23.4954
23.4954
23.4953
23.4953
23.4953
23.4953
23.4952
23.4952
23.4952
23.4951
23.4951
23.4951
23.495
23.495
23.495
23.495
23.4949
23.4949
23.4949
23.4949
23.4949
23.5429
23.5429
23.5429
23.5429
23.543
23.543
23.543
23.543
23.5431
23.5431
23.5431
23.5432
23.5432
23.5432
23.5433
23.5433
23.5433
23.5433
23.5434
23.5434
23.5434
23.5434
23.5435
23.5435
23.5435
23.5435
23.5435
23.5435
23.5435
23.5435
23.5435
23.5435
23.5435
23.5435
23.5435
23.5435
23.5435
23.5435
23.5434
23.5434
23.5434
23.5434
23.5433
23.5433
23.5433
23.5433
23.5432
23.5432
23.5432
23.5431
23.5431
23.5431
23.543
23.543
23.543
23.543
23.5429
23.5429
23.5429
23.5429
23.5879
23.5879
23.5879
23.5879
23.5879
23.588
23.588
23.588
23.588
23.5881
23.5881
23.5881
23.5882
23.5882
23.5882
23.5883
23.5883
23.5883
23.5884
23.5884
23.5884
23.5884
23.5884
23.5885
23.5885
23.5885
23.5885
23.5885
23.5885
23.5885
23.5885
23.5885
23.5885
23.5885
23.5885
23.5885
23.5885
23.5884
23.5884
23.5884
23.5884
23.5884
23.5883
23.5883
23.5883
23.5882
23.5882
23.5882
23.5881
23.5881
23.5881
23.588
23.588
23.588
23.588
23.5879
23.5879
23.5879
23.5879
23.5879
23.6303
23.6303
23.6303
23.6303
23.6303
23.6303
23.6303
23.6304
23.6304
23.6304
23.6305
23.6305
23.6305
23.6306
23.6306
23.6306
23.6307
23.6307
23.6307
23.6308
23.6308
23.6308
23.6308
23.6308
23.6309
23.6309
23.6309
23.6309
23.6309
23.6309
23.6309
23.6309
23.6309
23.6309
23.6309
23.6309
23.6308
23.6308
23.6308
23.6308
23.6308
23.6307
23.6307
23.6307
23.6306
23.6306
23.6306
23.6305
23.6305
23.6305
23.6304
23.6304
23.6304
23.6303
23.6303
23.6303
23.6303
23.6303
23.6303
23.6303
23.6704
23.6704
23.6704
23.6704
23.6704
23.6704
23.6705
23.6705
23.6705
23.6706
23.6706
23.6706
23.6707
23.6707
23.6707
23.6708
23.6708
23.6708
23.6709
23.6709
23.6709
23.6709
23.671
23.671
23.671
23.671
23.671
23.671
23.671
23.671
23.671
23.671
23.671
23.671
23.671
23.671
23.671
23.671
23.6709
23.6709
23.6709
23.6709
23.6708
23.6708
23.6708
23.6707
23.6707
23.6707
23.6706
23.6706
23.6706
23.6705
23.6705
23.6705
23.6704
23.6704
23.6704
23.6704
23.6704
23.6704
23.7085
23.7085
23.7085
23.7085
23.7085
23.7086
23.7086
23.7086
23.7087
23.7087
23.7087
23.7088
23.7088
23.7088
23.7089
23.7089