/*--------------------------------*- C++ -*----------------------------------*\
| =========                 |                                                 |
| \\      /  F ield         | foam-extend: Open Source CFD                    |
|  \\    /   O peration     | Version:     4.0                                |
|   \\  /    A nd           | Web:         http://www.foam-extend.org         |
|    \\/     M anipulation  |                                                 |
\*---------------------------------------------------------------------------*/
FoamFile
{
    version     2.0;
    format      ascii;
    class       surfaceScalarField;
    location    "22";
    object      phi;
}
// * * * * * * * * * * * * * * * * * * * * * * * * * * * * * * * * * * * * * //

dimensions      [0 3 -1 0 0 0 0];

internalField   nonuniform List<scalar> 
13744
(
-4.35353e-30
6.65882e-30
-3.11996e-30
-1.25951e-30
1.22169e-30
-4.34134e-30
4.27078e-30
-3.04168e-30
5.47138e-30
-1.19798e-30
5.45611e-30
1.57951e-32
4.31622e-30
1.13969e-30
2.44607e-30
1.87595e-30
2.70301e-31
2.17817e-30
-1.74745e-30
2.01686e-30
-3.37075e-30
1.62282e-30
-4.39262e-30
1.02204e-30
-4.75093e-30
3.58644e-31
-4.42965e-30
-3.21374e-31
-3.51634e-30
-9.13551e-31
-2.14484e-30
-1.37145e-30
-5.22449e-31
-1.62229e-30
1.11501e-30
-1.63746e-30
2.51285e-30
-1.39563e-30
3.44905e-30
-9.35133e-31
3.76529e-30
-3.16943e-31
3.40763e-30
3.57516e-31
2.44026e-30
9.67109e-31
1.04347e-30
1.39692e-30
-5.17507e-31
1.56103e-30
-1.94047e-30
1.4228e-30
-2.94598e-30
1.00463e-30
-3.33287e-30
3.86334e-31
-3.01933e-30
-3.13573e-31
-2.05856e-30
-9.60833e-31
-6.27714e-31
-1.43097e-30
1.00882e-30
-1.63613e-30
2.54995e-30
-1.54078e-30
3.71537e-30
-1.16566e-30
4.29189e-30
-5.76584e-31
4.16984e-30
1.22245e-31
3.35193e-30
8.17867e-31
1.95401e-30
1.39795e-30
1.77652e-31
1.77635e-30
-1.70944e-30
1.88707e-30
-3.41847e-30
1.70854e-30
-4.66146e-30
1.24251e-30
-5.20356e-30
5.41233e-31
-4.88345e-30
-3.2085e-31
-3.66758e-30
-1.21578e-30
-1.66159e-30
-2.00567e-30
8.60848e-31
-2.52177e-30
3.48642e-30
-2.62466e-30
5.70707e-30
-2.22087e-30
7.01899e-30
-1.31185e-30
7.04545e-30
-2.727e-32
5.67921e-30
1.36643e-30
3.15508e-30
2.52385e-30
1.40892e-31
3.01464e-30
-2.56412e-30
2.70543e-30
-3.83133e-30
1.26714e-30
-3.74094e-30
-9.06765e-32
-1.4573e-30
-2.28325e-30
9.8452e-31
-2.44182e-30
9.84506e-31
-5.47769e-30
1.21487e-29
-2.9556e-30
-3.81392e-30
3.12982e-30
-1.04288e-29
7.30754e-30
-7.21939e-30
8.75355e-30
-2.64433e-30
8.24814e-30
5.17592e-31
6.16285e-30
3.22485e-30
3.10564e-30
4.93251e-30
-2.5589e-31
5.53972e-30
-3.26008e-30
5.01863e-30
-5.55701e-30
3.92366e-30
-6.87289e-30
2.3318e-30
-7.14116e-30
6.2735e-31
-6.3739e-30
-1.08949e-30
-4.7337e-30
-2.55404e-30
-2.45366e-30
-3.6521e-30
1.30148e-31
-4.20569e-30
2.6466e-30
-4.15383e-30
4.71041e-30
-3.46069e-30
5.99964e-30
-2.22345e-30
6.30344e-30
-6.19616e-31
5.57798e-30
1.08368e-30
3.96206e-30
2.58274e-30
1.76469e-30
3.59497e-30
-5.8872e-31
3.91533e-30
-2.63503e-30
3.47011e-30
-3.96494e-30
2.33484e-30
-4.30452e-30
7.27366e-31
-3.57133e-30
-1.04749e-30
-1.88963e-30
-2.64243e-30
4.35097e-31
-3.75546e-30
2.97889e-30
-4.17941e-30
5.27987e-30
-3.84218e-30
6.92517e-30
-2.81079e-30
7.61849e-30
-1.27015e-30
7.22888e-30
5.12427e-31
5.79862e-30
2.24784e-30
3.53688e-30
3.65982e-30
7.75595e-31
4.53709e-30
-2.06576e-30
4.72897e-30
-4.54605e-30
4.18949e-30
-6.24058e-30
2.93611e-30
-6.81369e-30
1.11665e-30
-6.05637e-30
-1.07762e-30
-3.95662e-30
-3.31581e-30
-7.24577e-31
-5.23777e-30
3.1857e-30
-6.43223e-30
7.10798e-30
-6.54751e-30
1.02699e-29
-5.38189e-30
1.1913e-29
-2.95579e-30
1.15403e-29
3.45765e-31
9.04246e-30
3.8639e-30
4.91781e-30
6.64851e-30
2.00764e-31
7.73171e-30
-3.78788e-30
6.6957e-30
-5.47704e-30
2.95776e-30
-5.06514e-30
-5.02058e-31
-1.50492e-30
-5.84429e-30
1.50853e-30
-5.45533e-30
2.49306e-30
-3.94929e-30
1.60914e-29
-4.87326e-31
-7.27521e-30
4.93857e-30
-1.5852e-29
8.44509e-30
-1.07266e-29
9.3387e-30
-3.53565e-30
8.14783e-30
1.69472e-30
5.56657e-30
5.81305e-30
2.21621e-30
8.28925e-30
-1.20759e-30
8.96394e-30
-4.10656e-30
7.91314e-30
-6.14746e-30
5.96687e-30
-7.11555e-30
3.30178e-30
-6.98525e-30
5.00463e-31
-5.82056e-30
-2.25412e-30
-3.8261e-30
-4.54937e-30
-1.27632e-30
-6.20221e-30
1.46408e-30
-6.94562e-30
4.00771e-30
-6.6967e-30
5.97384e-30
-5.42672e-30
7.0646e-30
-3.31551e-30
7.11306e-30
-6.65911e-31
6.13053e-30
2.06472e-30
4.31437e-30
4.39906e-30
2.02227e-30
5.88744e-30
-2.90628e-31
6.22982e-30
-2.15819e-30
5.33658e-30
-3.19538e-30
3.37099e-30
-3.17559e-30
7.07577e-31
-2.07698e-30
-2.14522e-30
-8.55551e-32
-4.63417e-30
2.44288e-30
-6.28344e-30
5.05483e-30
-6.79147e-30
7.28477e-30
-6.07113e-30
8.74095e-30
-4.26605e-30
9.16841e-30
-1.69595e-30
8.48812e-30
1.19276e-30
6.79685e-30
3.93945e-30
4.35004e-30
6.10634e-30
1.51455e-30
7.37309e-30
-1.2742e-30
7.51714e-30
-3.57416e-30
6.49004e-30
-4.98103e-30
4.34457e-30
-5.19146e-30
1.32723e-30
-4.04866e-30
-2.22029e-30
-1.59716e-30
-5.76727e-30
1.88358e-30
-8.71928e-30
5.88554e-30
-1.04346e-29
9.69221e-30
-1.03532e-29
1.2532e-29
-8.22176e-30
1.36626e-29
-4.08588e-30
1.26941e-29
1.31401e-30
9.60004e-30
6.9584e-30
5.07287e-30
1.11749e-29
1.80922e-31
1.2624e-29
-3.61974e-30
1.04942e-29
-4.95559e-30
4.29199e-30
-4.15305e-30
-1.30473e-30
-4.72262e-31
-9.52486e-30
1.54688e-30
-7.47441e-30
4.03997e-30
-2.26201e-30
1.83455e-29
2.16078e-30
-1.16317e-29
6.88863e-30
-2.05791e-29
9.6932e-30
-1.35095e-29
9.99056e-30
-3.83561e-30
8.06452e-30
3.6343e-30
4.94537e-30
8.93194e-30
1.27248e-30
1.19635e-29
-2.22723e-30
1.24629e-29
-5.01963e-30
1.0708e-29
-6.79041e-30
7.73625e-30
-7.3871e-30
3.89493e-30
-6.82887e-30
-5.79289e-32
-5.23525e-30
-3.84888e-30
-2.85664e-30
-6.92816e-30
-1.2226e-32
-9.04737e-30
2.902e-30
-9.85913e-30
5.48069e-30
-9.273e-30
7.34719e-30
-7.29184e-30
8.22881e-30
-4.19704e-30
8.00518e-30
-4.42957e-31
6.74653e-30
3.32548e-30
4.71307e-30
6.43262e-30
2.3153e-30
8.2854e-30
4.10262e-32
8.50284e-30
-1.63933e-30
7.01703e-30
-2.36578e-30
4.09774e-30
-1.9617e-30
3.0265e-31
-4.69876e-31
-3.63678e-30
1.85731e-30
-6.96147e-30
4.60943e-30
-9.03519e-30
7.30039e-30
-9.48147e-30
9.45974e-30
-8.23007e-30
1.07174e-29
-5.52681e-30
1.08619e-29
-1.84048e-30
9.8699e-30
2.18587e-30
7.89654e-30
5.91276e-30
5.24748e-30
8.75543e-30
2.32764e-30
1.02931e-29
-4.09562e-31
1.02541e-29
-2.52051e-30
8.60237e-30
-3.62203e-30
5.44621e-30
-3.4452e-30
1.14982e-30
-1.88874e-30
-3.77582e-30
9.42031e-31
-8.5981e-30
4.69355e-30
-1.24703e-29
8.79907e-30
-1.45366e-29
1.24883e-29
-1.40428e-29
1.49884e-29
-1.07225e-29
1.55748e-29
-4.67234e-30
1.39683e-29
2.91974e-30
1.02338e-29
1.06926e-29
5.26635e-30
1.61424e-29
1.77333e-31
1.77124e-29
-3.43821e-30
1.41101e-29
-4.40557e-30
5.25812e-30
-3.19505e-30
-2.51492e-30
6.14925e-31
-1.33349e-29
1.6116e-30
-8.47097e-30
5.65167e-30
-5.40748e-31
1.88841e-29
4.93503e-30
-1.7141e-29
8.98373e-30
-2.46268e-29
1.10574e-29
-1.5588e-29
1.07156e-29
-3.49178e-30
8.00466e-30
6.35206e-30
4.30401e-30
1.26332e-29
2.77276e-31
1.59838e-29
-3.31402e-30
1.60541e-29
-6.00003e-30
1.33905e-29
-7.48762e-30
9.22684e-30
-7.68961e-30
4.09842e-30
-6.67379e-30
-1.07738e-30
-4.6189e-30
-5.90277e-30
-1.82507e-30
-9.72348e-30
1.34035e-30
-1.22138e-29
4.44715e-30
-1.29659e-29
7.0702e-30
-1.18965e-29
8.83622e-30
-9.05706e-30
9.4988e-30
-4.85906e-30
8.98669e-30
7.05859e-32
7.43279e-30
4.87917e-30
5.16458e-30
8.70083e-30
2.64953e-30
1.08011e-29
4.11287e-31
1.0742e-29
-1.07401e-30
8.50189e-30
-1.47196e-30
4.49659e-30
-6.58505e-31
-5.09458e-31
1.25487e-30
-5.54978e-30
3.94475e-30
-9.65133e-30
6.94175e-30
-1.20319e-29
9.7239e-30
-1.22626e-29
1.18142e-29
-1.03204e-29
1.28647e-29
-6.57779e-30
1.27099e-29
-1.68661e-30
1.1385e-29
3.51053e-30
9.10796e-30
8.1897e-30
6.23861e-30
1.16248e-29
3.22319e-30
1.33088e-29
5.35304e-31
1.29431e-29
-1.37895e-30
1.05154e-29
-2.15811e-30
6.22628e-30
-1.56963e-30
5.60816e-31
4.29041e-31
-5.77461e-30
3.66756e-30
-1.18365e-29
7.71339e-30
-1.65155e-29
1.19361e-29
-1.87603e-29
1.55077e-29
-1.76121e-29
1.76517e-29
-1.28653e-29
1.76623e-29
-4.6821e-30
1.53752e-29
5.20589e-30
1.09539e-29
1.51134e-29
5.50553e-30
2.15912e-29
1.93735e-31
2.30247e-29
-3.24246e-30
1.75476e-29
-3.82769e-30
5.84386e-30
-2.19208e-30
-4.15148e-30
1.75767e-30
-1.7284e-29
1.7078e-30
-8.42103e-30
7.35948e-30
1.24879e-30
1.76599e-29
7.82821e-30
-2.36705e-29
1.12288e-29
-2.8029e-29
1.25455e-29
-1.68824e-29
1.1521e-29
-2.46546e-30
7.97463e-30
9.90481e-30
3.64638e-30
1.69544e-29
-7.67882e-31
2.04002e-29
-4.46876e-30
1.9756e-29
-7.05014e-30
1.59737e-29
-8.24239e-30
1.04225e-29
-8.0264e-30
3.8835e-30
-6.52265e-30
-2.57707e-30
-3.97292e-30
-8.44961e-30
-7.31064e-31
-1.2963e-29
2.78361e-30
-1.57277e-29
6.10362e-30
-1.62852e-29
8.78197e-30
-1.45761e-29
1.0448e-29
-1.0727e-29
1.08825e-29
-5.29552e-30
1.00657e-29
8.87045e-31
8.19699e-30
6.74862e-30
5.67573e-30
1.12226e-29
3.03073e-30
1.34458e-29
8.24867e-31
1.29482e-29
-4.58276e-31
9.78576e-30
-5.10303e-31
4.54868e-30
7.37858e-31
-1.75814e-30
3.10198e-30
-7.9138e-30
6.18288e-30
-1.27323e-29
9.44753e-30
-1.52968e-29
1.23346e-29
-1.515e-29
1.43589e-29
-1.23447e-29
1.51946e-29
-7.41481e-30
1.4724e-29
-1.21647e-30
1.30448e-29
5.18894e-30
1.04418e-29
1.07927e-29
7.33303e-30
1.47334e-29
4.20955e-30
1.64317e-29
1.56762e-30
1.55842e-29
-1.43155e-31
1.22255e-29
-5.83447e-31
6.66806e-30
4.41057e-31
-4.61911e-31
2.91098e-30
-8.2452e-30
6.58666e-30
-1.55118e-29
1.09516e-29
-2.08817e-29
1.53067e-29
-2.3115e-29
1.87619e-29
-2.10684e-29
2.05347e-29
-1.46377e-29
1.99384e-29
-4.08661e-30
1.69276e-29
8.21741e-30
1.17715e-29
2.02697e-29
5.79941e-30
2.75628e-29
2.35971e-31
2.8588e-29
-3.02983e-30
2.0813e-29
-3.22186e-30
6.03518e-30
-1.14523e-30
-6.22754e-30
2.95549e-30
-2.13856e-29
1.83791e-30
-7.30355e-30
9.19747e-30
3.10883e-30
1.45383e-29
1.08586e-29
-3.14201e-29
1.36284e-29
-3.08028e-29
1.41649e-29
-1.73893e-29
1.24148e-29
-7.15725e-31
7.98178e-30
1.43248e-29
2.97782e-30
2.19622e-29
-1.86022e-30
2.52422e-29
-5.69106e-30
2.35906e-29
-8.17144e-30
1.84584e-29
-9.05743e-30
1.13041e-29
-8.40066e-30
3.22753e-30
-6.37833e-30
-4.60204e-30
-3.29908e-30
-1.15276e-29
4.24974e-31
-1.66866e-29
4.31903e-30
-1.96239e-29
7.87492e-30
-1.98401e-29
1.06213e-29
-1.73236e-29
1.21894e-29
-1.22933e-29
1.23878e-29
-5.49386e-30
1.12506e-29
2.0247e-30
9.04751e-30
8.95093e-30
6.25425e-30
1.40157e-29
3.4656e-30
1.62349e-29
1.28733e-30
1.51251e-29
2.12393e-31
1.08613e-29
5.23168e-31
4.23758e-30
2.2314e-30
-3.46706e-30
5.07615e-30
-1.07584e-29
8.57762e-30
-1.6234e-29
1.21344e-29
-1.88535e-29
1.51419e-29
-1.81582e-29
1.71045e-29
-1.43074e-29
1.77188e-29
-8.02879e-30
1.69168e-29
-4.12775e-31
1.48619e-29
7.24392e-30
1.191e-29
1.37451e-29
8.54153e-30
1.81021e-29
5.29621e-30
1.96765e-29
2.69559e-30
1.81871e-29
1.19395e-30
1.3726e-29
1.1083e-30
6.75313e-30
2.59283e-30
-1.94579e-30
5.56328e-30
-1.12155e-29
9.7063e-30
-1.96546e-29
1.44165e-29
-2.55923e-29
1.89207e-29
-2.76202e-29
2.22623e-29
-2.44089e-29
2.36504e-29
-1.60269e-29
2.2417e-29
-2.85287e-30
1.86394e-29
1.19959e-29
1.26995e-29
2.62095e-29
6.15811e-30
3.41052e-29
3.10881e-31
3.44346e-29
-2.7974e-30
2.39183e-29
-2.58793e-30
5.82584e-30
-5.60802e-32
-8.76138e-30
4.20778e-30
-2.56492e-29
2.0041e-30
-5.09968e-30
1.12016e-29
5.01515e-30
9.50265e-30
1.40203e-29
-4.04216e-29
1.61851e-29
-3.29642e-29
1.59236e-29
-1.71628e-29
1.34055e-29
1.80524e-30
8.03373e-30
1.9701e-29
2.30417e-30
2.76965e-29
-2.99625e-30
3.05457e-29
-6.97994e-30
2.75723e-29
-9.36508e-30
2.08374e-29
-9.93528e-30
1.18737e-29
-8.81555e-30
2.10522e-30
-6.24387e-30
-7.17186e-30
-2.59962e-30
-1.51692e-29
1.64241e-30
-2.09263e-29
5.94786e-30
-2.39293e-29
9.7643e-30
-2.36596e-29
1.25937e-29
-2.01507e-29
1.40677e-29
-1.37678e-29
1.40233e-29
-5.44991e-30
1.25507e-29
3.49644e-30
9.99359e-30
1.15083e-29
6.90867e-30
1.71008e-29
3.96157e-30
1.91817e-29
1.80479e-30
1.72837e-29
9.43093e-31
1.17237e-29
1.63283e-30
3.54691e-30
3.82632e-30
-5.66043e-30
7.18214e-30
-1.41149e-29
1.11349e-29
-2.01869e-29
1.50098e-29
-2.27278e-29
1.8155e-29
-2.13036e-29
2.00622e-29
-1.62159e-29
2.04499e-29
-8.41599e-30
1.93015e-29
7.37391e-31
1.68496e-29
9.69479e-30
1.35253e-29
1.70691e-29
9.87596e-30
2.17514e-29
6.49372e-30
2.30589e-29
3.92831e-30
2.07515e-29
2.64011e-30
1.50154e-29
2.92383e-30
6.46907e-30
4.89184e-30
-3.91506e-30
8.3921e-30
-1.47157e-29
1.30332e-29
-2.42955e-29
1.81159e-29
-3.06754e-29
2.27876e-29
-3.22931e-29
2.60207e-29
-2.76391e-29
2.70121e-29
-1.70183e-29
2.51129e-29
-9.53764e-31
2.05254e-29
1.6582e-29
1.37517e-29
3.29834e-29
6.59301e-30
4.12632e-29
4.26333e-31
4.06022e-29
-2.54157e-30
2.68873e-29
-1.92562e-30
5.20799e-30
1.07356e-30
-1.17589e-29
5.51358e-30
-3.00878e-29
2.20832e-30
-1.79431e-30
1.34099e-29
6.96267e-30
2.52852e-30
1.73014e-29
-5.07822e-29
1.89033e-29
-3.45663e-29
1.78284e-29
-1.60805e-29
1.45008e-29
5.13467e-30
8.13882e-30
2.60983e-29
1.63197e-30
3.42021e-29
-4.17177e-30
3.63411e-29
-8.33409e-30
3.17419e-29
-1.0632e-29
2.31346e-29
-1.08786e-29
1.21186e-29
-9.27442e-30
4.94812e-31
-6.1225e-30
-1.03251e-29
-1.87697e-30
-1.94146e-29
2.92018e-30
-2.57236e-29
7.67103e-30
-2.86811e-29
1.17748e-29
-2.77633e-29
1.47044e-29
-2.30826e-29
1.60901e-29
-1.51522e-29
1.57977e-29
-5.15573e-30
1.39757e-29
5.31927e-30
1.1045e-29
1.44402e-29
7.64836e-30
2.04974e-29
4.52695e-30
2.23032e-29
2.38422e-30
1.94254e-29
1.73944e-30
1.2369e-29
2.82338e-30
2.46262e-30
5.52702e-30
-8.36441e-30
9.42474e-30
-1.80124e-29
1.38607e-29
-2.46227e-29
1.80813e-29
-2.69494e-29
2.13835e-29
-2.46063e-29
2.32433e-29
-1.8075e-29
2.34008e-29
-8.57345e-30
2.18922e-29
2.24631e-30
1.90223e-29
1.25646e-29
1.53016e-29
2.07893e-29
1.13493e-29
2.57038e-29
7.81364e-30
2.65943e-29
5.27585e-30
2.32891e-29
4.20391e-30
1.60858e-29
4.87049e-30
5.80172e-30
7.34465e-30
-6.3887e-30
1.14037e-29
-1.87754e-29
1.65741e-29
-2.94655e-29
2.20578e-29
-3.61595e-29
2.6917e-29
-3.71536e-29
3.00484e-29
-3.07703e-29
3.06334e-29
-1.76033e-29
2.80411e-29
1.63756e-30
2.26016e-29
2.20215e-29
1.49435e-29
4.06412e-29
7.11689e-30
4.909e-29
5.91497e-31
4.71269e-29
-2.25789e-30
2.97363e-29
-1.23437e-30
4.18443e-30
2.24173e-30
-1.52358e-29
6.87159e-30
-3.4718e-29
2.45244e-30
2.62491e-30
1.58624e-29
8.94778e-30
-6.43055e-30
2.06952e-29
-6.25204e-29
2.17838e-29
-3.56548e-29
1.98878e-29
-1.41707e-29
1.57109e-29
9.31216e-30
8.30657e-30
3.34736e-29
9.69441e-31
4.15335e-29
-5.38144e-30
4.26996e-29
-9.7512e-30
3.6112e-29
-1.19724e-29
2.53613e-29
-1.18896e-29
1.20307e-29
-9.78057e-30
-1.61157e-30
-6.0178e-30
-1.40893e-29
-1.13411e-30
-2.42952e-29
4.25678e-30
-3.11127e-29
9.48884e-30
-3.39126e-29
1.39092e-29
-3.21829e-29
1.69583e-29
-2.61301e-29
1.82639e-29
-1.64592e-29
1.77203e-29
-4.61077e-30
1.55357e-29
7.50413e-30
1.22125e-29
1.77622e-29
8.48362e-30
2.42265e-29
5.17106e-30
2.56153e-29
3.03357e-30
2.15628e-29
2.60786e-30
1.2794e-29
4.09997e-30
9.70808e-31
7.33808e-30
-1.1602e-29
1.18088e-29
-2.24822e-29
1.67606e-29
-2.95746e-29
2.13565e-29
-3.15452e-29
2.48368e-29
-2.80853e-29
2.66595e-29
-1.98979e-29
2.65849e-29
-8.49878e-30
2.47034e-29
4.12771e-30
2.13951e-29
1.58728e-29
1.7254e-29
2.49305e-29
1.29756e-29
2.99823e-29
9.26882e-30
3.03006e-29
6.74935e-30
2.58092e-29
5.89481e-30
1.69425e-29
6.95622e-30
4.74014e-30
9.95802e-30
-9.39109e-30
1.46045e-29
-2.34208e-29
2.03354e-29
-3.51966e-29
2.62495e-29
-4.20737e-29
3.13178e-29
-4.22225e-29
3.43569e-29
-3.38098e-29
3.4528e-29
-1.77746e-29
3.12177e-29
4.94614e-30
2.48849e-29
2.83541e-29
1.62915e-29
4.92348e-29
7.74419e-30
5.76367e-29
8.16933e-31
5.40538e-29
-1.94099e-30
3.24947e-29
-5.13443e-31
2.75315e-30
3.44617e-30
-1.91944e-29
8.27987e-30
-3.95515e-29
2.73803e-30
8.16682e-30
1.86005e-29
1.09624e-29
-1.73857e-29
2.41986e-29
-7.58229e-29
2.48282e-29
-3.62806e-29
2.21094e-29
-1.14571e-29
1.70459e-29
1.43742e-29
8.54646e-30
4.19913e-29
3.24647e-31
4.97494e-29
-6.61878e-30
4.9639e-29
-1.12278e-29
4.07222e-29
-1.33856e-29
2.75201e-29
-1.29697e-29
1.1615e-29
-1.03371e-29
-4.24127e-30
-5.93356e-30
-1.84913e-29
-3.74287e-31
-2.98574e-29
5.64996e-30
-3.71389e-29
1.1401e-29
-3.96652e-29
1.61694e-29
-3.69527e-29
1.93602e-29
-2.93202e-29
2.05962e-29
-1.76943e-29
1.98003e-29
-3.81556e-30
1.72418e-29
1.0062e-29
1.35076e-29
2.14963e-29
9.42579e-30
2.83088e-29
5.90421e-30
2.91368e-29
3.76162e-30
2.37054e-29
3.55548e-30
1.30009e-29
5.46831e-30
-9.42823e-31
9.26439e-30
-1.53996e-29
1.4339e-29
-2.75562e-29
1.98405e-29
-3.50763e-29
2.48425e-29
-3.65472e-29
2.85245e-29
-3.17679e-29
3.03226e-29
-2.16957e-29
3.00162e-29
-8.19294e-30
2.77508e-29
6.39431e-30
2.39843e-29
1.96385e-29
1.9399e-29
2.95159e-29
1.47708e-29
3.46107e-29
1.08736e-29
3.41978e-29
8.36135e-30
2.8321e-29
7.72335e-30
1.75795e-29
9.18972e-30
3.27539e-30
1.27391e-29
-1.29412e-29
1.80005e-29
-2.8683e-29
2.43231e-29
-4.15189e-29
3.06977e-29
-4.8449e-29
3.59987e-29
-4.75229e-29
3.89571e-29
-3.67691e-29
3.87096e-29
-1.75272e-29
3.4659e-29
8.99704e-30
2.73934e-29
3.56202e-29
1.78139e-29
5.88142e-29
8.49099e-30
6.69607e-29
1.1148e-30
6.14299e-29
-1.58452e-30
3.51945e-29
2.3825e-31
9.32387e-31
4.68429e-30
-2.36403e-29
9.736e-30
-4.46025e-29
3.06644e-30
1.48363e-29
2.1667e-29
1.29928e-29
-3.03716e-29
2.78001e-29
-9.06509e-29
2.80362e-29
-3.65197e-29
2.44979e-29
-7.94711e-30
1.85137e-29
2.03667e-29
8.87026e-30
5.16503e-29
-2.9156e-31
5.89125e-29
-7.87586e-30
5.72167e-29
-1.27589e-29
4.55994e-29
-1.48702e-29
2.96334e-29
-1.41204e-29
1.08685e-29
-1.09471e-29
-7.41691e-30
-5.87354e-30
-2.35658e-29
3.98664e-31
-3.61275e-29
7.09698e-30
-4.3838e-29
1.34066e-29
-4.59749e-29
1.85569e-29
-4.21025e-29
2.19142e-29
-3.26805e-29
2.30942e-29
-1.88761e-29
2.20471e-29
-2.76772e-30
1.91053e-29
1.30025e-29
1.49429e-29
2.56577e-29
1.04874e-29
3.27641e-29
6.73794e-30
3.2887e-29
4.57835e-30
2.58638e-29
4.5904e-30
1.29886e-29
6.93478e-30
-3.28618e-30
1.13111e-29
-1.97774e-29
1.70203e-29
-3.3265e-29
2.31057e-29
-4.11615e-29
2.85464e-29
-4.19879e-29
3.24558e-29
-3.56769e-29
3.42442e-29
-2.34859e-29
3.37089e-29
-7.65628e-30
3.10504e-29
9.0529e-30
2.68076e-29
2.3883e-29
2.17541e-29
3.45694e-29
1.67517e-29
3.9613e-29
1.26436e-29
3.83055e-29
1.01257e-29
3.08373e-29
9.70117e-30
1.80032e-29
1.15804e-29
1.39662e-30
1.56955e-29
-1.70568e-29
2.15981e-29
-3.4586e-29
2.8543e-29
-4.84643e-29
3.54088e-29
-5.5314e-29
4.09674e-29
-5.30826e-29
4.38596e-29
-3.96648e-29
4.31921e-29
-1.68601e-29
3.8382e-29
1.38081e-29
3.01464e-29
4.38553e-29
1.95309e-29
6.94291e-29
9.37531e-30
7.71155e-29
1.49896e-30
6.9306e-29
-1.18088e-30
3.78746e-29
1.02228e-30
-1.26916e-30
5.95324e-30
-2.85721e-29
1.12371e-29
-4.98854e-29
3.43861e-30
2.26348e-29
2.51057e-29
1.50271e-29
-4.54134e-29
3.1484e-29
-1.07048e-28
3.14055e-29
-3.64399e-29
2.70598e-29
-3.58949e-30
2.0124e-29
2.73013e-29
9.28929e-30
6.247e-29
-8.68057e-31
6.90642e-29
-9.14394e-30
6.54813e-29
-1.43393e-29
5.07938e-29
-1.6424e-29
3.17206e-29
-1.53423e-29
9.78292e-30
-1.16134e-29
-1.11472e-29
-5.84198e-30
-2.93361e-29
1.18045e-30
-4.31492e-29
8.59433e-30
-5.12512e-29
1.55039e-29
-5.28842e-29
2.10725e-29
-4.76721e-29
2.46243e-29
-3.62299e-29
2.57647e-29
-2.00149e-29
2.44708e-29
-1.47238e-30
2.11381e-29
1.63336e-29
1.65315e-29
3.02647e-29
1.16818e-29
3.76142e-29
7.68503e-30
3.68834e-29
5.49491e-30
2.80548e-29
5.7217e-30
1.27627e-29
8.50641e-30
-6.07003e-30
1.34837e-29
-2.47521e-29
1.98575e-29
-3.96395e-29
2.65616e-29
-4.78658e-29
3.2475e-29
-4.79014e-29
3.66397e-29
-3.98418e-29
3.84364e-29
-2.5282e-29
3.76775e-29
-6.89759e-30
3.46193e-29
1.21107e-29
2.98832e-29
2.86194e-29
2.43386e-29
4.0114e-29
1.89373e-29
4.50139e-29
1.45963e-29
4.26465e-29
1.20579e-29
3.33756e-29
1.18412e-29
1.82191e-29
1.41388e-29
-9.00855e-31
1.88353e-29
-2.17541e-29
2.54035e-29
-4.11536e-29
3.30006e-29
-5.60615e-29
4.03886e-29
-6.27015e-29
4.62313e-29
-5.89258e-29
4.90745e-29
-4.25051e-29
4.79889e-29
-1.57753e-29
4.24042e-29
1.93914e-29
3.31641e-29
5.30963e-29
2.14637e-29
8.11301e-29
1.04169e-29
8.8162e-29
1.9851e-30
7.77382e-29
-7.2117e-31
4.05794e-29
1.84086e-30
-3.8333e-30
7.25015e-30
-3.39807e-29
1.27798e-29
-5.54151e-29
3.85512e-30
3.15595e-29
2.8961e-29
1.70565e-29
-6.24644e-29
3.52403e-29
-1.25283e-28
3.49347e-29
-3.61345e-29
2.98005e-29
1.51477e-30
2.1887e-29
3.5214e-29
9.81508e-30
7.45418e-29
-1.39359e-30
8.02765e-29
-1.04129e-29
7.4506e-29
-1.59618e-29
5.63456e-29
-1.80432e-29
3.38042e-29
-1.66353e-29
8.37526e-30
-1.23385e-29
-1.544e-29
-5.84294e-30
-3.58331e-29
1.96642e-30
-5.09601e-29
1.0138e-29
-5.94239e-29
1.76905e-29
-6.04388e-29
2.37162e-29
-5.36975e-29
2.74934e-29
-4.00104e-29
2.86141e-29
-2.11331e-29
2.70809e-29
5.76128e-32
2.33528e-29
2.0061e-29
1.82875e-29
3.53293e-29
1.30239e-29
4.2878e-29
8.75952e-30
4.11481e-29
6.52367e-30
3.02892e-29
6.95953e-30
1.23268e-29
1.0191e-29
-9.3022e-30
1.57882e-29
-3.03493e-29
2.28556e-29
-4.67076e-29
3.02134e-29
-5.52236e-29
3.6635e-29
-5.43235e-29
4.10854e-29
-4.42923e-29
4.2911e-29
-2.71099e-29
4.19371e-29
-5.92295e-30
3.8475e-29
1.55735e-29
3.32308e-29
3.3863e-29
2.71728e-29
4.61715e-29
2.13477e-29
5.08394e-29
1.67509e-29
4.72428e-29
1.41748e-29
3.59516e-29
1.4158e-29
1.82369e-29
1.68763e-29
-3.61899e-30
2.21671e-29
-2.7045e-29
2.94232e-29
-4.84107e-29
3.77008e-29
-6.43387e-29
4.56421e-29
-7.06427e-29
5.17968e-29
-6.50813e-29
5.4611e-29
-4.53222e-29
5.31134e-29
-1.42772e-29
4.67433e-29
2.57609e-29
3.64677e-29
6.33745e-29
2.36356e-29
9.39617e-29
1.16379e-29
1.00161e-28
2.591e-30
8.67851e-29
-1.94794e-31
4.33672e-29
2.69698e-30
-6.72437e-30
8.57203e-30
-3.9855e-29
1.43601e-29
-6.12038e-29
4.31613e-30
4.16036e-29
3.32771e-29
1.90615e-29
-8.14967e-29
3.90536e-29
-1.45306e-28
3.86172e-29
-3.56975e-29
3.27236e-29
7.41449e-30
2.3812e-29
4.41222e-29
1.04604e-29
8.78903e-29
-1.85473e-30
9.25931e-29
-1.1671e-29
8.43199e-29
-1.76182e-29
6.22911e-29
-1.97232e-29
3.591e-29
-1.79983e-29
6.65155e-30
-1.31245e-29
-2.03126e-29
-5.88072e-30
-4.30763e-29
2.75156e-30
-5.95938e-29
1.17234e-29
-6.83982e-29
1.99631e-29
-6.8681e-29
2.64873e-29
-6.0223e-29
3.05242e-29
-4.40448e-29
3.16489e-29
-2.22597e-29
2.98876e-29
1.81956e-30
2.57624e-29
2.41863e-29
2.02261e-29
4.0866e-29
1.45296e-29
4.85745e-29
9.97684e-30
4.57012e-29
7.67842e-30
3.25879e-29
8.31519e-30
1.16892e-29
1.19972e-29
-1.29808e-29
1.82309e-29
-3.65818e-29
2.60198e-29
-5.44952e-29
3.4066e-29
-6.32702e-29
4.10324e-29
-6.12894e-29
4.58011e-29
-4.90614e-29
4.76797e-29
-2.8988e-29
4.65028e-29
-4.74582e-30
4.26357e-29
1.94416e-29
3.6871e-29
3.96294e-29
3.02788e-29
5.27634e-29
2.4005e-29
5.71129e-29
1.91282e-29
5.21185e-29
1.64955e-29
3.85827e-29
1.66674e-29
1.80646e-29
1.98056e-29
-6.75862e-30
2.57003e-29
-3.29382e-29
3.36638e-29
-5.63745e-29
4.26483e-29
-7.33238e-29
5.11735e-29
-7.91677e-29
5.76693e-29
-7.15783e-29
6.04776e-29
-4.81288e-29
5.85784e-29
-1.23778e-29
5.14171e-29
3.29226e-29
4.00794e-29
7.47119e-29
2.60714e-29
1.07969e-28
1.30621e-29
1.13168e-28
3.33663e-30
9.65107e-29
4.10384e-31
4.62921e-29
3.59431e-30
-9.90687e-30
9.91573e-30
-4.61779e-29
1.59735e-29
-6.72605e-29
4.82127e-30
5.27559e-29
3.80985e-29
2.10261e-29
-1.02522e-28
4.29059e-29
-1.67139e-28
4.24462e-29
-3.52397e-29
3.58333e-29
1.39407e-29
2.59093e-29
5.40494e-29
1.12394e-29
1.02544e-28
-2.2358e-30
1.0607e-28
-1.29049e-29
9.49779e-29
-1.92983e-29
6.86869e-29
-2.14578e-29
3.80714e-29
-1.94292e-29
4.62456e-30
-1.39725e-29
-2.57698e-29
-5.95877e-30
-5.10907e-29
3.53066e-30
-6.90834e-29
1.33447e-29
-7.82127e-29
2.23173e-29
-7.76536e-29
2.93841e-29
-6.72882e-29
3.37182e-29
-4.83833e-29
3.48747e-29
-2.34148e-29
3.29005e-29
3.79324e-30
2.83802e-29
2.87079e-29
2.23632e-29
4.68834e-29
1.62159e-29
5.47214e-29
1.1354e-29
5.05631e-29
8.97455e-30
3.49673e-29
9.80153e-30
1.08631e-29
1.3935e-29
-1.71137e-29
2.08191e-29
-4.34652e-29
2.93552e-29
-6.3033e-29
3.81243e-29
-7.20393e-29
4.5673e-29
-6.88381e-29
5.07953e-29
-5.41828e-29
5.27541e-29
-3.09489e-29
5.13898e-29
-3.38077e-30
4.71205e-29
2.37129e-29
4.08256e-29
4.5925e-29
3.368e-29
5.99098e-29
2.69332e-29
6.38603e-29
2.17513e-29
5.73004e-29
1.90406e-29
4.12951e-29
1.9387e-29
1.77204e-29
2.29408e-29
-1.03108e-29
2.94452e-29
-3.9442e-29
3.81321e-29
-6.50606e-29
4.78477e-29
-8.30386e-29
5.69863e-29
-8.83074e-29
6.38533e-29
-7.84467e-29
6.66821e-29
-5.09566e-29
6.43961e-29
-1.00917e-29
5.64435e-29
4.08772e-29
4.40223e-29
8.71331e-29
2.87978e-29
1.23194e-28
1.47158e-29
1.27251e-28
4.2443e-30
1.06983e-28
1.1086e-30
4.94283e-29
4.53795e-30
-1.33379e-29
1.12785e-29
-5.29183e-29
1.76149e-29
-7.35977e-29
5.36972e-30
6.50012e-29
4.34684e-29
2.29335e-29
-1.25472e-28
4.67777e-29
-1.90998e-28
4.64134e-29
-3.48707e-29
3.91279e-29
2.12589e-29
2.81845e-29
6.49937e-29
1.21658e-29
1.18559e-28
-2.52097e-30
1.20753e-28
-1.40995e-29
1.06555e-28
-2.09903e-29
7.55752e-29
-2.32392e-29
4.03191e-29
-2.09244e-29
2.30831e-30
-1.48833e-29
-3.18121e-29
-6.08136e-30
-5.98913e-29
4.29778e-30
-7.94635e-29
1.49959e-29
-8.89075e-29
2.47482e-29
-8.7405e-29
3.24036e-29
-7.49427e-29
3.70765e-29
-5.30553e-29
3.82966e-29
-2.46344e-29
3.61293e-29
5.96084e-30
3.122e-29
3.3616e-29
2.47158e-29
5.33858e-29
1.81016e-29
6.13353e-29
1.29094e-29
5.57553e-29
1.04288e-29
3.74479e-29
1.14325e-29
9.86015e-30
1.6015e-29
-2.16972e-29
2.35603e-29
-5.10096e-29
3.28673e-29
-7.2338e-29
4.23928e-29
-8.15647e-29
5.05624e-29
-7.70076e-29
5.60756e-29
-5.96963e-29
5.81453e-29
-3.30183e-29
5.66134e-29
-1.85119e-30
5.19485e-29
2.83792e-29
4.51172e-29
5.27558e-29
3.74013e-29
6.76251e-29
3.0158e-29
7.11042e-29
2.46453e-29
6.2813e-29
2.18332e-29
4.41077e-29
2.23368e-29
1.72157e-29
2.62974e-29
-1.42712e-29
3.34128e-29
-4.65566e-29
4.28353e-29
-7.44842e-29
5.33028e-29
-9.35066e-29
6.30832e-29
-9.8088e-29
7.03521e-29
-8.57161e-29
7.32305e-29
-5.38324e-29
7.05777e-29
-7.43784e-30
6.18403e-29
4.96147e-29
4.83201e-29
1.00654e-28
3.18426e-29
1.39671e-28
1.66276e-29
1.42465e-28
5.33886e-30
1.1827e-28
1.91611e-30
5.28487e-29
5.53412e-30
-1.69568e-29
1.26579e-29
-6.0042e-29
1.92788e-29
-8.02202e-29
5.9599e-30
7.83203e-29
4.94284e-29
2.47696e-29
-1.50226e-28
5.06461e-29
-2.16872e-28
5.05061e-29
-3.47283e-29
4.26071e-29
2.91444e-29
3.0646e-29
7.69477e-29
1.32536e-29
1.35952e-28
-2.69353e-30
1.36706e-28
-1.52387e-29
1.19095e-28
-2.2681e-29
8.30186e-29
-2.50582e-29
4.2699e-29
-2.24797e-29
-2.69723e-31
-1.58565e-29
-3.84318e-29
-6.25125e-30
-6.949e-29
5.04758e-30
-9.07674e-29
1.66702e-29
-1.00533e-28
2.72496e-29
-9.79833e-29
3.55423e-29
-8.32349e-29
4.05987e-29
-5.81105e-29
4.1919e-29
-2.59536e-29
3.9583e-29
8.29682e-30
3.42957e-29
3.89057e-29
2.73015e-29
6.03808e-29
2.02063e-29
6.84306e-29
1.46632e-29
6.12969e-29
1.206e-29
4.00512e-29
1.32241e-29
8.69607e-30
1.82494e-29
-2.6722e-29
2.64632e-29
-5.92235e-29
3.6562e-29
-8.24373e-29
4.68761e-29
-9.1879e-29
5.57054e-29
-8.5837e-29
6.16492e-29
-6.56404e-29
6.38641e-29
-3.52337e-29
6.21888e-29
-1.75139e-31
5.71395e-29
3.34266e-29
4.97697e-29
6.01254e-29
4.14695e-29
7.59253e-29
3.37072e-29
7.88665e-29
2.78375e-29
6.86834e-29
2.48986e-29
4.70481e-29
2.55383e-29
1.65749e-29
2.98929e-29
-1.86287e-29
3.76158e-29
-5.42805e-29
4.77811e-29
-8.46494e-29
5.90176e-29
-1.04744e-28
6.9466e-29
-1.08538e-28
7.71677e-29
-9.34185e-29
8.01281e-29
-5.67941e-29
7.71337e-29
-4.44367e-30
6.76248e-29
5.91234e-29
5.2997e-29
1.15281e-28
3.52356e-29
1.57432e-28
1.88282e-29
1.58872e-28
6.64777e-30
1.3045e-28
2.85168e-30
5.66441e-29
6.59078e-30
-2.06991e-29
1.40516e-29
-6.75032e-29
2.09592e-29
-8.71282e-29
6.5897e-30
9.269e-29
5.60182e-29
2.65092e-29
-1.76742e-28
5.44868e-29
-2.44833e-28
5.47093e-29
-3.49485e-29
4.62701e-29
3.75797e-29
3.33024e-29
8.99137e-29
1.45162e-29
1.54746e-28
-2.73665e-30
1.53955e-28
-1.63037e-29
1.32661e-28
-2.4354e-29
9.10715e-29
-2.69029e-29
4.52479e-29
-2.40883e-29
-3.08381e-30
-1.68908e-29
-4.56347e-29
-6.47194e-30
-7.9909e-29
5.77362e-30
-1.03012e-28
1.83602e-29
-1.1312e-28
2.98144e-29
-1.09439e-28
3.87948e-29
-9.22127e-29
4.42834e-29
-6.35959e-29
4.5745e-29
-2.74155e-29
4.32705e-29
1.07721e-29
3.76208e-29
4.45566e-29
3.01383e-29
6.78642e-29
2.2551e-29
7.60179e-29
1.66372e-29
6.72098e-29
1.38886e-29
4.27999e-29
1.51938e-29
7.39008e-30
2.06519e-29
-3.21812e-29
2.95374e-29
-6.81089e-29
4.04457e-29
-9.33458e-29
5.15787e-29
-1.03011e-28
6.11067e-29
-9.53647e-29
6.75227e-29
-7.2057e-29
6.99209e-29
-3.76323e-29
6.81312e-29
1.61553e-30
6.27137e-29
3.88446e-29
5.48074e-29
6.80307e-29
4.59122e-29
8.48208e-29
3.76105e-29
8.7168e-29
3.13575e-29
7.4936e-29
2.82644e-29
5.01407e-29
2.90158e-29
1.58232e-29
3.37465e-29
-2.33588e-29
4.20676e-29
-6.26016e-29
5.29776e-29
-9.55606e-29
6.49957e-29
-1.16763e-28
7.61356e-29
-1.19678e-28
8.4301e-29
-1.01582e-28
8.73784e-29
-5.98718e-29
8.4073e-29
-1.13857e-30
7.38138e-29
6.9383e-29
5.80774e-29
1.31018e-28
3.90077e-29
1.76501e-28
2.13507e-29
1.76529e-28
8.20132e-30
1.43599e-28
3.93659e-30
6.09089e-29
7.71752e-30
-2.4479e-29
1.54582e-29
-7.52433e-29
2.26496e-29
-9.43215e-29
7.25647e-30
1.08083e-28
6.32749e-29
2.81372e-29
-2.04861e-28
5.82704e-29
-2.74936e-28
5.90021e-29
-3.56779e-29
5.01094e-29
4.64149e-29
3.61566e-29
1.03863e-28
1.59671e-29
1.74927e-28
-2.63145e-30
1.72553e-28
-1.72747e-29
1.473e-28
-2.59917e-29
9.97876e-29
-2.87604e-29
4.80177e-29
-2.57422e-29
-6.10289e-30
-1.79833e-29
-5.33907e-29
-6.74519e-30
-9.11491e-29
6.47059e-30
-1.16233e-28
2.00583e-29
-1.26713e-28
3.24346e-29
-1.21813e-28
4.21551e-29
-1.01933e-28
4.81281e-29
-6.95687e-29
4.97773e-29
-2.90644e-29
4.71998e-29
1.33508e-29
4.12099e-29
5.05452e-29
3.32455e-29
7.58296e-29
2.5158e-29
8.41059e-29
1.88548e-29
7.35126e-29
1.59371e-29
4.57163e-29
1.73612e-29
5.96453e-30
2.3238e-29
-3.80575e-29
3.27938e-29
-7.76634e-29
4.45251e-29
-1.05078e-28
5.65052e-29
-1.14992e-28
6.67705e-29
-1.0563e-28
7.37022e-29
-7.89879e-29
7.63254e-29
-4.02556e-29
7.44552e-29
3.48499e-30
6.86912e-29
4.46085e-29
6.0256e-29
7.64657e-29
5.0759e-29
9.43175e-29
4.18997e-29
9.60277e-29
3.52373e-29
8.15993e-29
3.1961e-29
5.34179e-29
3.27958e-29
1.49886e-29
3.78794e-29
-2.8443e-29
4.67837e-29
-7.15049e-29
5.84341e-29
-1.07212e-28
7.1241e-29
-1.29568e-28
8.30924e-29
-1.31528e-28
9.17512e-29
-1.10243e-28
9.49831e-29
-6.3103e-29
9.14032e-29
2.44233e-30
8.04231e-29
8.03631e-29
6.35861e-29
1.47855e-28
4.31912e-29
1.96895e-28
2.42305e-29
1.9549e-28
1.00326e-29
1.57798e-28
5.19493e-30
6.57463e-29
8.9262e-30
-2.82083e-29
1.68773e-29
-8.31949e-29
2.43436e-29
-1.01788e-28
7.95683e-30