/*--------------------------------*- C++ -*----------------------------------*\
| =========                 |                                                 |
| \\      /  F ield         | foam-extend: Open Source CFD                    |
|  \\    /   O peration     | Version:     4.0                                |
|   \\  /    A nd           | Web:         http://www.foam-extend.org         |
|    \\/     M anipulation  |                                                 |
\*---------------------------------------------------------------------------*/
FoamFile
{
    version     2.0;
    format      ascii;
    class       volScalarField;
    location    "20";
    object      dC1;
}
// * * * * * * * * * * * * * * * * * * * * * * * * * * * * * * * * * * * * * //

dimensions      [0 -1 0 0 0 0 0];

internalField   nonuniform List<scalar> 
6960
(
1.09196e-12
1.10503e-12
1.08908e-12
1.0965e-12
1.09917e-12
1.09496e-12
1.09414e-12
1.08749e-12
1.09742e-12
1.08639e-12
1.09755e-12
1.09673e-12
1.09149e-12
1.09984e-12
1.08776e-12
1.08287e-12
1.09244e-12
1.09214e-12
1.08648e-12
1.10017e-12
1.09352e-12
1.09159e-12
1.09302e-12
1.09187e-12
1.08401e-12
1.08846e-12
1.10144e-12
1.09696e-12
1.09017e-12
1.091e-12
1.0883e-12
1.09007e-12
1.09236e-12
1.09025e-12
1.09627e-12
1.08745e-12
1.09117e-12
1.09164e-12
1.09347e-12
1.09874e-12
1.09522e-12
1.09913e-12
1.08871e-12
1.09089e-12
1.09088e-12
1.08845e-12
1.08952e-12
1.0885e-12
1.0878e-12
1.08671e-12
1.09453e-12
1.0843e-12
1.09562e-12
1.09278e-12
1.08972e-12
1.09802e-12
1.09254e-12
1.09486e-12
1.0946e-12
1.09069e-12
3.19883e-14
3.25399e-14
3.29181e-14
3.33067e-14
3.32546e-14
3.21791e-14
3.17177e-14
3.32442e-14
3.2814e-14
3.09475e-14
3.28175e-14
3.17558e-14
3.20334e-14
3.23803e-14
3.28973e-14
3.28002e-14
3.22173e-14
3.22867e-14
3.23144e-14
3.1794e-14
3.11799e-14
3.15095e-14
3.25608e-14
3.20542e-14
3.20369e-14
3.28557e-14
3.2592e-14
3.16171e-14
3.34247e-14
3.14922e-14
3.20022e-14
3.26406e-14
3.1572e-14
3.06248e-14
3.07809e-14
3.19952e-14
3.15234e-14
3.13534e-14
3.18148e-14
3.20056e-14
3.15824e-14
3.28557e-14
3.29806e-14
3.11244e-14
3.10654e-14
3.22867e-14
3.14158e-14
3.21097e-14
3.27689e-14
3.26197e-14
3.19363e-14
3.27446e-14
3.23457e-14
3.09301e-14
3.2134e-14
3.21028e-14
3.26267e-14
3.21999e-14
3.29389e-14
3.31922e-14
-2.61641e-13
-2.61659e-13
-2.62203e-13
-2.61544e-13
-2.6219e-13
-2.62172e-13
-2.616e-13
-2.61662e-13
-2.62079e-13
-2.61929e-13
-2.61898e-13
-2.6186e-13
-2.62412e-13
-2.6185e-13
-2.61131e-13
-2.61818e-13
-2.61475e-13
-2.61898e-13
-2.62269e-13
-2.6195e-13
-2.61999e-13
-2.62193e-13
-2.61641e-13
-2.61857e-13
-2.6203e-13
-2.61853e-13
-2.61905e-13
-2.61735e-13
-2.61954e-13
-2.61052e-13
-2.62321e-13
-2.62224e-13
-2.61669e-13
-2.61249e-13
-2.61385e-13
-2.616e-13
-2.61614e-13
-2.61662e-13
-2.61603e-13
-2.6254e-13
-2.61405e-13
-2.62183e-13
-2.62141e-13
-2.62037e-13
-2.61874e-13
-2.61485e-13
-2.61478e-13
-2.61176e-13
-2.62006e-13
-2.6203e-13
-2.61961e-13
-2.6151e-13
-2.61395e-13
-2.61555e-13
-2.61589e-13
-2.62058e-13
-2.61829e-13
-2.61437e-13
-2.61985e-13
-2.61628e-13
-3.73618e-13
-3.73118e-13
-3.73559e-13
-3.73444e-13
-3.73299e-13
-3.7343e-13
-3.73562e-13
-3.73507e-13
-3.73195e-13
-3.73458e-13
-3.73337e-13
-3.73552e-13
-3.73243e-13
-3.73278e-13
-3.736e-13
-3.73212e-13
-3.73635e-13
-3.73444e-13
-3.73205e-13
-3.73358e-13
-3.73604e-13
-3.73212e-13
-3.7351e-13
-3.73375e-13
-3.73264e-13
-3.73087e-13
-3.73167e-13
-3.73101e-13
-3.72979e-13
-3.73476e-13
-3.73094e-13
-3.72827e-13
-3.72924e-13
-3.73344e-13
-3.73306e-13
-3.73274e-13
-3.73403e-13
-3.73149e-13
-3.73212e-13
-3.72719e-13
-3.73295e-13
-3.73399e-13
-3.73344e-13
-3.73243e-13
-3.73229e-13
-3.73701e-13
-3.73139e-13
-3.73486e-13
-3.73365e-13
-3.73434e-13
-3.73195e-13
-3.73396e-13
-3.73316e-13
-3.73656e-13
-3.73486e-13
-3.73028e-13
-3.73031e-13
-3.73198e-13
-3.7309e-13
-3.73264e-13
-3.42389e-13
-3.4249e-13
-3.42216e-13
-3.4223e-13
-3.42556e-13
-3.42507e-13
-3.42337e-13
-3.424e-13
-3.42348e-13
-3.42431e-13
-3.42296e-13
-3.42348e-13
-3.42424e-13
-3.4275e-13
-3.42545e-13
-3.42486e-13
-3.42389e-13
-3.42455e-13
-3.42514e-13
-3.42473e-13
-3.42303e-13
-3.425e-13
-3.42424e-13
-3.42559e-13
-3.42556e-13
-3.42646e-13
-3.42466e-13
-3.42719e-13
-3.42455e-13
-3.42473e-13
-3.42382e-13
-3.4257e-13
-3.4266e-13
-3.42396e-13
-3.42316e-13
-3.424e-13
-3.42362e-13
-3.42386e-13
-3.42296e-13
-3.42552e-13
-3.42421e-13
-3.4249e-13
-3.42476e-13
-3.42424e-13
-3.42504e-13
-3.42538e-13
-3.42417e-13
-3.42591e-13
-3.42257e-13
-3.42431e-13
-3.42695e-13
-3.42334e-13
-3.42559e-13
-3.42434e-13
-3.42552e-13
-3.42303e-13
-3.42514e-13
-3.42511e-13
-3.42486e-13
-3.42431e-13
-2.49831e-13
-2.49658e-13
-2.49516e-13
-2.4954e-13
-2.49602e-13
-2.49606e-13
-2.49682e-13
-2.49682e-13
-2.4971e-13
-2.49731e-13
-2.49883e-13
-2.49856e-13
-2.49807e-13
-2.49377e-13
-2.49547e-13
-2.49755e-13
-2.49554e-13
-2.49654e-13
-2.49811e-13
-2.49779e-13
-2.49582e-13
-2.49627e-13
-2.49634e-13
-2.49654e-13
-2.49755e-13
-2.49675e-13
-2.49585e-13
-2.4954e-13
-2.49776e-13
-2.49599e-13
-2.49752e-13
-2.49543e-13
-2.49682e-13
-2.49748e-13
-2.49713e-13
-2.49745e-13
-2.49932e-13
-2.49675e-13
-2.4979e-13
-2.49627e-13
-2.49776e-13
-2.49394e-13
-2.49474e-13
-2.49602e-13
-2.49682e-13
-2.49696e-13
-2.49648e-13
-2.49575e-13
-2.49731e-13
-2.49665e-13
-2.49519e-13
-2.49738e-13
-2.49582e-13
-2.49707e-13
-2.49523e-13
-2.49748e-13
-2.49745e-13
-2.49675e-13
-2.49745e-13
-2.49689e-13
-1.63394e-13
-1.63324e-13
-1.63411e-13
-1.63237e-13
-1.63439e-13
-1.63276e-13
-1.63373e-13
-1.63328e-13
-1.63276e-13
-1.63276e-13
-1.63279e-13
-1.63328e-13
-1.63099e-13
-1.63345e-13
-1.63258e-13
-1.63376e-13
-1.63248e-13
-1.63421e-13
-1.63002e-13
-1.63519e-13
-1.6321e-13
-1.63272e-13
-1.63335e-13
-1.63352e-13
-1.63199e-13
-1.63279e-13
-1.6321e-13
-1.63237e-13
-1.63321e-13
-1.6339e-13
-1.63276e-13
-1.63272e-13
-1.63369e-13
-1.63241e-13
-1.63109e-13
-1.63199e-13
-1.63165e-13
-1.63303e-13
-1.63255e-13
-1.63317e-13
-1.63185e-13
-1.63508e-13
-1.63529e-13
-1.63349e-13
-1.63359e-13
-1.63376e-13
-1.63394e-13
-1.63244e-13
-1.63224e-13
-1.63494e-13
-1.63251e-13
-1.63265e-13
-1.63362e-13
-1.63276e-13
-1.63293e-13
-1.63248e-13
-1.63175e-13
-1.63192e-13
-1.62894e-13
-1.63317e-13
-1.16233e-13
-1.16344e-13
-1.16233e-13
-1.16476e-13
-1.16237e-13
-1.16098e-13
-1.16136e-13
-1.16206e-13
-1.16334e-13
-1.16393e-13
-1.16258e-13
-1.16334e-13
-1.16351e-13
-1.16376e-13
-1.16233e-13
-1.16327e-13
-1.16043e-13
-1.16351e-13
-1.16691e-13
-1.16025e-13
-1.16487e-13
-1.16396e-13
-1.16337e-13
-1.16303e-13
-1.16188e-13
-1.16157e-13
-1.16362e-13
-1.16306e-13
-1.16424e-13
-1.16213e-13
-1.16383e-13
-1.164e-13
-1.16386e-13
-1.16494e-13
-1.16383e-13
-1.1632e-13
-1.16383e-13
-1.16275e-13
-1.16403e-13
-1.16445e-13
-1.16403e-13
-1.16237e-13
-1.16334e-13
-1.16237e-13
-1.164e-13
-1.16199e-13
-1.16254e-13
-1.16417e-13
-1.16379e-13
-1.16209e-13
-1.16313e-13
-1.16348e-13
-1.16331e-13
-1.16209e-13
-1.16265e-13
-1.1624e-13
-1.1648e-13
-1.1648e-13
-1.16695e-13
-1.16171e-13
-1.16688e-13
-1.164e-13
-1.16653e-13
-1.16317e-13
-1.16535e-13
-1.1682e-13
-1.16605e-13
-1.16539e-13
-1.16771e-13
-1.1682e-13
-1.16601e-13
-1.16667e-13
-1.16511e-13
-1.16605e-13
-1.16671e-13
-1.16678e-13
-1.16664e-13
-1.1657e-13
-1.16244e-13
-1.16563e-13
-1.16424e-13
-1.16504e-13
-1.16497e-13
-1.16657e-13
-1.16705e-13
-1.16691e-13
-1.16452e-13
-1.16636e-13
-1.1639e-13
-1.16691e-13
-1.16407e-13
-1.16553e-13
-1.16455e-13
-1.16362e-13
-1.16639e-13
-1.16383e-13
-1.16469e-13
-1.16494e-13
-1.16459e-13
-1.16386e-13
-1.16435e-13
-1.16601e-13
-1.16584e-13
-1.16487e-13
-1.16372e-13
-1.16629e-13
-1.16695e-13
-1.16435e-13
-1.16549e-13
-1.16657e-13
-1.16507e-13
-1.16636e-13
-1.16317e-13
-1.16681e-13
-1.16386e-13
-1.1682e-13
-1.16442e-13
-1.16282e-13
-1.16462e-13
-1.16587e-13
-1.64885e-13
-1.65166e-13
-1.64951e-13
-1.65246e-13
-1.64983e-13
-1.64955e-13
-1.64976e-13
-1.65184e-13
-1.65066e-13
-1.64865e-13
-1.65111e-13
-1.65038e-13
-1.65354e-13
-1.65021e-13
-1.64986e-13
-1.65139e-13
-1.65094e-13
-1.6508e-13
-1.65163e-13
-1.65222e-13
-1.65271e-13
-1.65336e-13
-1.65201e-13
-1.65302e-13
-1.6491e-13
-1.65038e-13
-1.65156e-13
-1.65111e-13
-1.6516e-13
-1.6499e-13
-1.65298e-13
-1.65229e-13
-1.65177e-13
-1.65295e-13
-1.64924e-13
-1.65166e-13
-1.64993e-13
-1.64986e-13
-1.6516e-13
-1.65163e-13
-1.65104e-13
-1.65212e-13
-1.65114e-13
-1.65239e-13
-1.655e-13
-1.65097e-13
-1.65347e-13
-1.65038e-13
-1.64993e-13
-1.65121e-13
-1.6509e-13
-1.65042e-13
-1.65201e-13
-1.65243e-13
-1.65236e-13
-1.65163e-13
-1.65101e-13
-1.65375e-13
-1.65121e-13
-1.64986e-13
-2.65909e-13
-2.65659e-13
-2.65635e-13
-2.65392e-13
-2.65777e-13
-2.65576e-13
-2.65725e-13
-2.65395e-13
-2.65503e-13
-2.65721e-13
-2.65569e-13
-2.65354e-13
-2.65288e-13
-2.65708e-13
-2.6576e-13
-2.65645e-13
-2.65673e-13
-2.65784e-13
-2.65701e-13
-2.65652e-13
-2.65645e-13
-2.65298e-13
-2.65496e-13
-2.65607e-13
-2.65558e-13
-2.65468e-13
-2.65513e-13
-2.6552e-13
-2.65364e-13
-2.65711e-13
-2.65704e-13
-2.65614e-13
-2.65662e-13
-2.6535e-13
-2.65621e-13
-2.65291e-13
-2.6569e-13
-2.65812e-13
-2.6569e-13
-2.65583e-13
-2.65812e-13
-2.65496e-13
-2.65517e-13
-2.65583e-13
-2.65538e-13
-2.65486e-13
-2.6518e-13
-2.65479e-13
-2.65659e-13
-2.65662e-13
-2.65593e-13
-2.65572e-13
-2.65628e-13
-2.65479e-13
-2.65322e-13
-2.65322e-13
-2.65642e-13
-2.65388e-13
-2.65572e-13
-2.65375e-13
-4.1157e-13
-4.11563e-13
-4.11764e-13
-4.11417e-13
-4.11397e-13
-4.11726e-13
-4.11702e-13
-4.11626e-13
-4.11858e-13
-4.11546e-13
-4.1156e-13
-4.119e-13
-4.11747e-13
-4.11685e-13
-4.11633e-13
-4.11577e-13
-4.11692e-13
-4.11615e-13
-4.11553e-13
-4.11556e-13
-4.11698e-13
-4.1199e-13
-4.1192e-13
-4.11407e-13
-4.11862e-13
-4.1208e-13
-4.1175e-13
-4.11667e-13
-4.12295e-13
-4.11872e-13
-4.11511e-13
-4.11945e-13
-4.11709e-13
-4.1182e-13
-4.11865e-13
-4.1192e-13
-4.11556e-13
-4.11535e-13
-4.11601e-13
-4.11449e-13
-4.11615e-13
-4.11761e-13
-4.11882e-13
-4.11771e-13
-4.11483e-13
-4.11542e-13
-4.12e-13
-4.11764e-13
-4.11629e-13
-4.11868e-13
-4.11681e-13
-4.11754e-13
-4.11671e-13
-4.11591e-13
-4.11803e-13
-4.11726e-13
-4.11414e-13
-4.11862e-13
-4.11837e-13
-4.11674e-13
-5.41938e-13
-5.42042e-13
-5.41917e-13
-5.42087e-13
-5.4215e-13
-5.42073e-13
-5.41987e-13
-5.42191e-13
-5.42007e-13
-5.4216e-13
-5.42167e-13
-5.41806e-13
-5.42111e-13
-5.41955e-13
-5.4207e-13
-5.42049e-13
-5.42125e-13
-5.41709e-13
-5.42191e-13
-5.41914e-13
-5.41761e-13
-5.41678e-13
-5.41709e-13
-5.4216e-13
-5.42101e-13
-5.41851e-13
-5.4234e-13
-5.42285e-13
-5.41459e-13
-5.41504e-13
-5.42e-13
-5.4147e-13
-5.41761e-13
-5.41751e-13
-5.41865e-13
-5.41407e-13
-5.41872e-13
-5.42372e-13
-5.42087e-13
-5.42059e-13
-5.42164e-13
-5.42014e-13
-5.41803e-13
-5.41907e-13
-5.42563e-13
-5.42542e-13
-5.41869e-13
-5.42014e-13
-5.41865e-13
-5.41775e-13
-5.41754e-13
-5.41515e-13
-5.42351e-13
-5.42375e-13
-5.419e-13
-5.42236e-13
-5.42205e-13
-5.41928e-13
-5.41702e-13
-5.41785e-13
-4.79793e-13
-4.79627e-13
-4.79831e-13
-4.79818e-13
-4.79814e-13
-4.79772e-13
-4.79772e-13
-4.79894e-13
-4.79394e-13
-4.79929e-13
-4.79672e-13
-4.79828e-13
-4.79426e-13
-4.79897e-13
-4.79769e-13
-4.80178e-13
-4.79335e-13
-4.7997e-13
-4.79859e-13
-4.79925e-13
-4.80182e-13
-4.79904e-13
-4.80001e-13
-4.80213e-13
-4.79533e-13
-4.79623e-13
-4.79533e-13
-4.7937e-13
-4.80317e-13
-4.8039e-13
-4.80425e-13
-4.80439e-13
-4.80071e-13
-4.79901e-13
-4.79883e-13
-4.8073e-13
-4.79752e-13
-4.79901e-13
-4.7946e-13
-4.79953e-13
-4.79602e-13
-4.79772e-13
-4.7988e-13
-4.79537e-13
-4.79148e-13
-4.7938e-13
-4.79655e-13
-4.79873e-13
-4.80237e-13
-4.79866e-13
-4.79783e-13
-4.80161e-13
-4.7919e-13
-4.79516e-13
-4.80241e-13
-4.7997e-13
-4.79356e-13
-4.79953e-13
-4.80158e-13
-4.79883e-13
1.62544e-14
1.61746e-14
1.64764e-14
1.63133e-14
1.63133e-14
1.64244e-14
1.63654e-14
1.6577e-14
1.60705e-14
1.6636e-14
1.6414e-14
1.63411e-14
1.60531e-14
1.61988e-14
1.6407e-14
1.61884e-14
1.53107e-14
1.63654e-14
1.66048e-14
1.63064e-14
1.66776e-14
1.65284e-14
1.62578e-14
1.67713e-14
1.61711e-14
1.57721e-14
1.65909e-14
1.59872e-14
1.68719e-14
1.62925e-14
1.71113e-14
1.67123e-14
1.62786e-14
1.65111e-14
1.64799e-14
1.71183e-14
1.58588e-14
1.62856e-14
1.59837e-14
1.6237e-14
1.66082e-14
1.63411e-14
1.63931e-14
1.63862e-14
1.63237e-14
1.57548e-14
1.63133e-14
1.66568e-14
1.64278e-14
1.56472e-14
1.62405e-14
1.60844e-14
1.59837e-14
1.65874e-14
1.69517e-14
1.6747e-14
1.57999e-14
1.64278e-14
1.68407e-14
1.59629e-14
8.83883e-13
8.84081e-13
8.84119e-13
8.83561e-13
8.84154e-13
8.84213e-13
8.83987e-13
8.84098e-13
8.84407e-13
8.84268e-13
8.84029e-13
8.84029e-13
8.84213e-13
8.84143e-13
8.84168e-13
8.8414e-13
8.84157e-13
8.843e-13
8.84227e-13
8.83765e-13
8.83803e-13
8.83984e-13
8.84359e-13
8.83769e-13
8.84317e-13
8.84782e-13
8.83949e-13
8.84529e-13
8.83477e-13
8.8431e-13
8.83828e-13
8.84209e-13
8.84074e-13
8.83956e-13
8.83998e-13
8.8371e-13
8.84157e-13
8.83914e-13
8.8415e-13
8.8457e-13
8.83564e-13
8.8423e-13
8.83869e-13
8.83585e-13
8.83474e-13
8.84647e-13
8.84098e-13
8.84244e-13
8.84487e-13
8.84924e-13
8.84581e-13
8.84459e-13
8.84001e-13
8.83647e-13
8.83245e-13
8.83574e-13
8.84487e-13
8.84012e-13
8.84012e-13
8.85028e-13
1.24896e-12
1.24937e-12
1.24905e-12
1.24987e-12
1.24975e-12
1.24908e-12
1.24974e-12
1.2494e-12
1.24913e-12
1.24921e-12
1.2494e-12
1.24968e-12
1.24923e-12
1.24918e-12
1.24901e-12
1.24921e-12
1.24955e-12
1.24915e-12
1.24916e-12
1.24949e-12
1.24951e-12
1.24925e-12
1.24921e-12
1.24948e-12
1.24947e-12
1.24848e-12
1.24878e-12
1.24945e-12
1.24984e-12
1.24929e-12
1.24924e-12
1.24934e-12
1.24911e-12
1.2492e-12
1.24929e-12
1.24944e-12
1.24984e-12
1.24938e-12
1.24936e-12
1.24874e-12
1.24998e-12
1.24908e-12
1.24949e-12
1.25047e-12
1.24959e-12
1.24858e-12
1.24917e-12
1.24944e-12
1.24948e-12
1.24897e-12
1.24957e-12
1.24901e-12
1.24921e-12
1.24935e-12
1.25014e-12
1.24929e-12
1.24895e-12
1.24921e-12
1.24922e-12
1.24845e-12
-1.28404e-13
-1.29216e-13
-1.28536e-13
-1.29074e-13
-1.28706e-13
-1.28009e-13
-1.28998e-13
-1.28269e-13
-1.27787e-13
-1.2846e-13
-1.28248e-13
-1.28755e-13
-1.28494e-13
-1.28092e-13
-1.28744e-13
-1.28342e-13
-1.28435e-13
-1.28255e-13
-1.29553e-13
-1.28755e-13
-1.28442e-13
-1.27998e-13
-1.28418e-13
-1.28512e-13
-1.28512e-13
-1.28002e-13
-1.28418e-13
-1.28994e-13
-1.28661e-13
-1.28623e-13
-1.28429e-13
-1.28526e-13
-1.28782e-13
-1.28501e-13
-1.28484e-13
-1.28605e-13
-1.29147e-13
-1.28449e-13
-1.28418e-13
-1.28519e-13
-1.2915e-13
-1.28376e-13
-1.28359e-13
-1.289e-13
-1.28897e-13
-1.28585e-13
-1.28234e-13
-1.28671e-13
-1.29195e-13
-1.28762e-13
-1.29109e-13
-1.28272e-13
-1.27853e-13
-1.28526e-13
-1.29206e-13
-1.28172e-13
-1.27957e-13
-1.29025e-13
-1.28762e-13
-1.27964e-13
-2.93277e-12
-2.93264e-12
-2.933e-12
-2.9326e-12
-2.9332e-12
-2.93418e-12
-2.93248e-12
-2.93382e-12
-2.9335e-12
-2.93312e-12
-2.93295e-12
-2.93313e-12
-2.93281e-12
-2.93328e-12
-2.93304e-12
-2.93365e-12
-2.93344e-12
-2.93327e-12
-2.93248e-12
-2.93292e-12
-2.93348e-12
-2.93312e-12
-2.93274e-12
-2.93301e-12
-2.93299e-12
-2.93327e-12
-2.93297e-12
-2.93277e-12
-2.93375e-12
-2.93324e-12
-2.93271e-12
-2.93356e-12
-2.93272e-12
-2.93349e-12
-2.93325e-12
-2.93268e-12
-2.93312e-12
-2.93289e-12
-2.93365e-12
-2.93329e-12
-2.93341e-12
-2.93324e-12
-2.9333e-12
-2.93322e-12
-2.93256e-12
-2.93251e-12
-2.93336e-12
-2.93271e-12
-2.93222e-12
-2.93261e-12
-2.93309e-12
-2.933e-12
-2.93421e-12
-2.93334e-12
-2.93196e-12
-2.93375e-12
-2.9337e-12
-2.93277e-12
-2.93299e-12
-2.93332e-12
-4.55194e-12
-4.55239e-12
-4.55153e-12
-4.55292e-12
-4.55258e-12
-4.55203e-12
-4.55298e-12
-4.55216e-12
-4.55211e-12
-4.55296e-12
-4.55209e-12
-4.55304e-12
-4.55283e-12
-4.5521e-12
-4.55276e-12
-4.55219e-12
-4.55281e-12
-4.55249e-12
-4.55255e-12
-4.55232e-12
-4.55258e-12
-4.55339e-12
-4.55371e-12
-4.5525e-12
-4.55267e-12
-4.55299e-12
-4.55258e-12
-4.55179e-12
-4.55122e-12
-4.55259e-12
-4.55266e-12
-4.5522e-12
-4.55214e-12
-4.55222e-12
-4.55276e-12
-4.55284e-12
-4.55212e-12
-4.55212e-12
-4.55238e-12
-4.55199e-12
-4.5521e-12
-4.55187e-12
-4.55249e-12
-4.553e-12
-4.5527e-12
-4.55321e-12
-4.55303e-12
-4.55267e-12
-4.55362e-12
-4.55302e-12
-4.55263e-12
-4.55291e-12
-4.55216e-12
-4.55245e-12
-4.55372e-12
-4.55214e-12
-4.55217e-12
-4.55221e-12
-4.55167e-12
-4.55168e-12
-3.02575e-12
-3.02595e-12
-3.02655e-12
-3.0261e-12
-3.02566e-12
-3.02578e-12
-3.02627e-12
-3.02575e-12
-3.0268e-12
-3.0253e-12
-3.02669e-12
-3.02578e-12
-3.02681e-12
-3.02671e-12
-3.0262e-12
-3.02661e-12
-3.02574e-12
-3.02596e-12
-3.02615e-12
-3.02686e-12
-3.02592e-12
-3.02583e-12
-3.02566e-12
-3.02615e-12
-3.02634e-12
-3.02484e-12
-3.02617e-12
-3.02668e-12
-3.02694e-12
-3.02577e-12
-3.02632e-12
-3.02583e-12
-3.02585e-12
-3.02622e-12
-3.02594e-12
-3.02552e-12
-3.02645e-12
-3.02711e-12
-3.02559e-12
-3.02616e-12
-3.02619e-12
-3.02651e-12
-3.02619e-12
-3.02558e-12
-3.02671e-12
-3.02566e-12
-3.02584e-12
-3.02646e-12
-3.02572e-12
-3.0256e-12
-3.02624e-12
-3.02629e-12
-3.02589e-12
-3.02569e-12
-3.02559e-12
-3.0256e-12
-3.02587e-12
-3.02601e-12
-3.02585e-12
-3.02615e-12
2.814e-13
2.81473e-13
2.80952e-13
2.8175e-13
2.82045e-13
2.80664e-13
2.80855e-13
2.80831e-13
2.81327e-13
2.80762e-13
2.8048e-13
2.80317e-13
2.81743e-13
2.81275e-13
2.81469e-13
2.81049e-13
2.80415e-13
2.80321e-13
2.80703e-13
2.80553e-13
2.81268e-13
2.80647e-13
2.80227e-13
2.80886e-13
2.80137e-13
2.79807e-13
2.81008e-13
2.8165e-13
2.8031e-13
2.81469e-13
2.81775e-13
2.80314e-13
2.80671e-13
2.80744e-13
2.8072e-13
2.80376e-13
2.80522e-13
2.80515e-13
2.80154e-13
2.80165e-13
2.81265e-13
2.80956e-13
2.81407e-13
2.81049e-13
2.81591e-13
2.79859e-13
2.81244e-13
2.80855e-13
2.80675e-13
2.8012e-13
2.80668e-13
2.8131e-13
2.80238e-13
2.80272e-13
2.80959e-13
2.80467e-13
2.81379e-13
2.80675e-13
2.80873e-13
2.80588e-13
2.63636e-12
2.63621e-12
2.63598e-12
2.63575e-12
2.63506e-12
2.63654e-12
2.63633e-12
2.63506e-12
2.63534e-12
2.63596e-12
2.63642e-12
2.63646e-12
2.63554e-12
2.63536e-12
2.63581e-12
2.63535e-12
2.63729e-12
2.63703e-12
2.63647e-12
2.63702e-12
2.63602e-12
2.63625e-12
2.6367e-12
2.63614e-12
2.6372e-12
2.637e-12
2.63555e-12
2.63506e-12
2.63673e-12
2.63563e-12
2.63536e-12
2.6369e-12
2.6362e-12
2.63633e-12
2.63646e-12
2.63779e-12
2.63668e-12
2.63739e-12
2.63556e-12
2.63609e-12
2.63617e-12
2.63662e-12
2.63591e-12
2.63593e-12
2.63547e-12
2.63778e-12
2.63621e-12
2.63597e-12
2.63518e-12
2.6369e-12
2.63595e-12
2.63561e-12
2.6371e-12
2.63618e-12
2.6354e-12
2.63588e-12
2.6356e-12
2.63542e-12
2.63483e-12
2.63652e-12
3.04895e-12
3.05068e-12
3.05064e-12
3.05051e-12
3.05026e-12
3.04995e-12
3.05039e-12
3.0509e-12
3.05072e-12
3.05075e-12
3.05094e-12
3.05016e-12
3.05097e-12
3.05147e-12
3.04975e-12
3.05059e-12
3.04962e-12
3.05077e-12
3.0495e-12
3.04993e-12
3.0506e-12
3.04859e-12
3.05098e-12
3.05163e-12
3.04896e-12
3.04981e-12
3.05081e-12
3.05206e-12
3.04961e-12
3.05136e-12
3.05038e-12
3.04992e-12
3.051e-12
3.05042e-12
3.05029e-12
3.04775e-12
3.04867e-12
3.04957e-12
3.04992e-12
3.05159e-12
3.04912e-12
3.04842e-12
3.04992e-12
3.05055e-12
3.05156e-12
3.04938e-12
3.04941e-12
3.0506e-12
3.04926e-12
3.04981e-12
3.05137e-12
3.05026e-12
3.05033e-12
3.05009e-12
3.05239e-12
3.05085e-12
3.05105e-12
3.04979e-12
3.05116e-12
3.04947e-12
2.31125e-12
2.30984e-12
2.31005e-12
2.31089e-12
2.31196e-12
2.31079e-12
2.31134e-12
2.31244e-12
2.31121e-12
2.30953e-12
2.31014e-12
2.31274e-12
2.31098e-12
2.31024e-12
2.31207e-12
2.31148e-12
2.31157e-12
2.31024e-12
2.31179e-12
2.31085e-12
2.31118e-12
2.31406e-12
2.30933e-12
2.30888e-12
2.31225e-12
2.3103e-12
2.31206e-12
2.30993e-12
2.31107e-12
2.31117e-12
2.31095e-12
2.31139e-12
2.30975e-12
2.31183e-12
2.31152e-12
2.31217e-12
2.31229e-12
2.31219e-12
2.31199e-12
2.31015e-12
2.31266e-12
2.31338e-12
2.3113e-12
2.31034e-12
2.30979e-12
2.31136e-12
2.31127e-12
2.31086e-12
2.31333e-12
2.31224e-12
2.31152e-12
2.31075e-12
2.31019e-12
2.31266e-12
2.30795e-12
2.30986e-12
2.31115e-12
2.31268e-12
2.31054e-12
2.3111e-12
1.40063e-12
1.40117e-12
1.40106e-12
1.40056e-12
1.399e-12
1.40149e-12
1.39939e-12
1.39766e-12
1.39968e-12
1.40077e-12
1.4023e-12
1.39818e-12
1.4027e-12
1.40035e-12
1.40143e-12
1.40126e-12
1.40003e-12
1.40219e-12
1.39968e-12
1.39995e-12
1.39764e-12
1.39792e-12
1.40466e-12
1.40279e-12
1.40032e-12
1.40121e-12
1.40023e-12
1.39859e-12
1.40054e-12
1.4003e-12
1.40242e-12
1.40014e-12
1.40175e-12
1.39994e-12
1.40064e-12
1.39972e-12
1.40032e-12
1.39841e-12
1.39917e-12
1.40055e-12
1.39951e-12
1.4001e-12
1.40198e-12
1.40052e-12
1.402e-12
1.39939e-12
1.40077e-12
1.4004e-12
1.40101e-12
1.39995e-12
1.39822e-12
1.40181e-12
1.40013e-12
1.39889e-12
1.40322e-12
1.40179e-12
1.39969e-12
1.39714e-12
1.40101e-12
1.39903e-12
7.43617e-13
7.43891e-13
7.419e-13
7.41501e-13
7.44724e-13
7.4234e-13
7.42309e-13
7.44595e-13
7.45327e-13
7.42614e-13
7.41466e-13
7.42611e-13
7.40536e-13
7.44155e-13
7.40248e-13
7.42319e-13
7.41521e-13
7.40845e-13
7.4437e-13
7.42847e-13
7.4777e-13
7.43849e-13
7.38375e-13
7.40488e-13
7.43332e-13
7.41521e-13
7.431e-13
7.44883e-13
7.42604e-13
7.41386e-13
7.40207e-13
7.41743e-13
7.40855e-13
7.42753e-13
7.42587e-13
7.42743e-13
7.42521e-13
7.43912e-13
7.43197e-13
7.42396e-13
7.43492e-13
7.42618e-13
7.42087e-13
7.42652e-13
7.41827e-13
7.43055e-13
7.43884e-13
7.45501e-13
7.39509e-13
7.42798e-13
7.45806e-13
7.40377e-13
7.44724e-13
7.42541e-13
7.41174e-13
7.41192e-13
7.44613e-13
7.45196e-13
7.41459e-13
7.4396e-13
3.60521e-13
3.59015e-13
3.60829e-13
3.60316e-13
3.59095e-13
3.5854e-13
3.61076e-13
3.6043e-13
3.5829e-13
3.59626e-13
3.60559e-13
3.60954e-13
3.60711e-13
3.58991e-13
3.6237e-13
3.60184e-13
3.63338e-13
3.61388e-13
3.5745e-13
3.6281e-13
3.57062e-13
3.60521e-13
3.61707e-13
3.62967e-13
3.58543e-13
3.62384e-13
3.58113e-13
3.59924e-13
3.60378e-13
3.6399e-13
3.62609e-13
3.61468e-13
3.64573e-13
3.60732e-13
3.59379e-13
3.6262e-13
3.60025e-13
3.60496e-13
3.61079e-13
3.6143e-13
3.58515e-13
3.58824e-13
3.61655e-13
3.6077e-13
3.60149e-13
3.61811e-13
3.59563e-13
3.57863e-13
3.62644e-13
3.61402e-13
3.583e-13
3.61985e-13
3.58959e-13
3.58952e-13
3.60701e-13
3.62578e-13
3.56732e-13
3.61385e-13
3.61895e-13
3.56659e-13
1.60847e-13
1.64348e-13
1.61364e-13
1.62342e-13
1.62613e-13
1.65912e-13
1.62276e-13
1.60812e-13
1.61589e-13
1.61e-13
1.61485e-13
1.6186e-13
1.61805e-13
1.62155e-13
1.60757e-13
1.61211e-13
1.59782e-13
1.61846e-13
1.66773e-13
1.60268e-13
1.61485e-13
1.60275e-13
1.63584e-13
1.60753e-13
1.63553e-13
1.61073e-13
1.62582e-13
1.61957e-13
1.60184e-13
1.57506e-13
1.59001e-13
1.61232e-13
1.58568e-13
1.60625e-13
1.63512e-13
1.5983e-13
1.62367e-13
1.62505e-13
1.6219e-13
1.61315e-13
1.62467e-13
1.61926e-13
1.61243e-13
1.60802e-13
1.60739e-13
1.59261e-13
1.62939e-13
1.61527e-13
1.61111e-13
1.5981e-13
1.63775e-13
1.59862e-13
1.63401e-13
1.63786e-13
1.62644e-13
1.59647e-13
1.63897e-13
1.58196e-13
1.62134e-13
1.63539e-13
6.39523e-14
6.19851e-14
6.5753e-14
6.44138e-14
6.30607e-14
6.07535e-14
6.33833e-14
6.43721e-14
6.29705e-14
6.37788e-14
6.45178e-14
6.1718e-14
6.34492e-14
6.26686e-14
6.27762e-14
6.21413e-14
6.52811e-14
6.35637e-14
5.95565e-14
6.3366e-14
6.45942e-14
6.63844e-14
6.13745e-14
6.29635e-14
6.16e-14
6.3137e-14
6.41362e-14
6.5066e-14
6.19088e-14
6.34735e-14
6.36088e-14
6.27901e-14
6.63011e-14
6.4157e-14
6.0809e-14
6.29288e-14
6.16313e-14
6.228e-14
6.31231e-14
6.21656e-14
6.52672e-14
6.26478e-14
6.36782e-14
6.36852e-14
6.63324e-14
6.47087e-14
6.12635e-14
6.50972e-14
6.44172e-14
6.31162e-14
6.01082e-14
6.47364e-14
6.19574e-14
5.87412e-14
6.6884e-14
6.53505e-14
6.48058e-14
6.29843e-14
5.89563e-14
6.52985e-14
1.6296e-14
1.65944e-14
1.64556e-14
1.51788e-14
1.75866e-14
1.74687e-14
1.81105e-14
1.86379e-14
1.62474e-14
1.66672e-14
1.56854e-14
2.07889e-14
1.62162e-14
1.73681e-14
1.80064e-14
1.94601e-14
1.32602e-14
1.62856e-14
1.81417e-14
1.60739e-14
1.76421e-14
1.85026e-14
2.16181e-14
1.78711e-14
1.60462e-14
1.88773e-14
1.45994e-14
1.3347e-14
2.18055e-14
1.71911e-14
1.6414e-14
1.80272e-14
1.72605e-14
1.67227e-14
1.92867e-14
1.73923e-14
1.83534e-14
1.94324e-14
1.69621e-14
1.75172e-14
1.4929e-14
1.83985e-14
1.76976e-14
1.7774e-14
1.45925e-14
1.49568e-14
1.57686e-14
1.17857e-14
1.62058e-14
1.57582e-14
2.05669e-14
1.54182e-14
1.7663e-14
2.28186e-14
1.27259e-14
1.39853e-14
1.6244e-14
1.8225e-14
1.96648e-14
1.59768e-14
-3.48679e-15
-7.80626e-16
-3.02536e-15
-1.88391e-15
-3.63251e-15
-3.9968e-15
-3.09475e-15
-4.32293e-15
-4.54498e-16
-3.26822e-15
-2.65413e-15
-4.69416e-15
-2.74433e-15
-3.29251e-15
-2.77556e-16
-2.75127e-15
1.85962e-15
-2.5778e-15
-1.70003e-15
-5.14172e-15
-5.80438e-15
-5.4852e-15
-8.48627e-15
-4.04538e-15
8.91648e-16
-2.18922e-15
-1.22471e-15
1.88044e-15
-7.6085e-15
-4.68722e-15
-1.37737e-15
-4.0315e-15
-5.17641e-15
-1.25941e-15
-5.38805e-15
-2.7478e-15
-3.55965e-15
-7.61197e-15
-2.25167e-15
-2.71658e-15
-6.52256e-16
-4.61783e-15
-3.407e-15
-4.84682e-15
-1.14492e-15
2.13718e-15
3.46945e-16
2.80678e-15
-4.45824e-15
-2.10248e-15
-5.08274e-15
-1.64105e-15
9.61037e-16
-6.12357e-15
-3.00801e-15
-7.14706e-16
-2.00187e-15
-3.25087e-15
-2.25861e-15
-3.94476e-15
-8.30239e-15
-1.28439e-14
-8.37871e-15
-1.23165e-14
-1.04881e-14
-9.21832e-15
-1.08281e-14
-1.3569e-14
-1.30659e-14
-1.14318e-14
-1.0221e-14
-9.10383e-15
-1.22853e-14
-1.04777e-14
-1.34996e-14
-1.113e-14
-1.58623e-14
-7.28931e-15
-9.04832e-15
-6.4844e-15
-9.81853e-15
-8.78464e-15
-7.20257e-15
-8.65974e-15
-1.42941e-14
-1.48007e-14
-1.13382e-14
-1.34753e-14
-7.16094e-15
-9.2773e-15
-1.09877e-14
-1.24588e-14
-1.00475e-14
-1.06859e-14
-1.05298e-14
-1.0672e-14
-1.05194e-14
-3.58394e-15
-1.02175e-14
-1.22888e-14
-9.04485e-15
-1.04708e-14
-9.45771e-15
-8.233e-15
-1.05679e-14
-1.67123e-14
-1.02383e-14
-1.11716e-14
-8.05259e-15
-9.29465e-15
-8.45157e-15
-1.09461e-14
-1.47972e-14
-9.83935e-15
-9.38832e-15
-1.08802e-14
-1.385e-14
-1.04465e-14
-1.21431e-14
-5.93622e-15
-1.49811e-14
-1.23651e-14
-1.80897e-14
-1.32394e-14
-1.27884e-14
-1.17927e-14
-1.18308e-14
-1.04396e-14
-8.2781e-15
-1.49845e-14
-1.44745e-14
-1.48215e-14
-1.09149e-14
-1.42664e-14
-1.28092e-14
-1.4707e-14
-1.23894e-14
-1.71148e-14
-1.38362e-14
-1.72501e-14
-1.32741e-14
-1.34684e-14
-1.27016e-14
-1.66776e-14
-1.32117e-14
-1.1019e-14
-1.47729e-14
-1.21396e-14
-1.49047e-14
-1.54182e-14
-1.03841e-14
-1.30937e-14
-1.61156e-14
-1.51303e-14
-1.40304e-14
-1.66776e-14
-1.3798e-14
-2.08236e-14
-1.61572e-14
-1.31631e-14
-1.46515e-14
-1.68893e-14
-1.11786e-14
-1.58866e-14
-1.52621e-14
-1.13937e-14
-1.39194e-14
-1.58033e-14
-1.67956e-14
-1.70419e-14
-1.47486e-14
-1.51164e-14
-1.72397e-14
-1.51303e-14
-1.62752e-14
-1.56507e-14
-1.29688e-14
-1.52829e-14
-1.6185e-14
-1.65458e-14
-1.31596e-14
-1.53558e-14
-1.41449e-14
-1.35239e-14
-1.37841e-14
-1.82805e-14
-1.43011e-14
-1.5616e-14
-1.94879e-14
-1.13659e-14
-1.32498e-14
-1.16053e-14
-1.86656e-14
-1.51615e-14
-1.52899e-14
-1.51372e-14
-1.34094e-14
-1.66568e-14
-1.6584e-14
-1.28716e-14
-1.72709e-14
-1.72258e-14
-1.54286e-14
-1.25351e-14
-1.56472e-14
-1.49117e-14
-1.28439e-14
-1.55015e-14
-1.44329e-14
-1.48805e-14
-1.77393e-14
-1.21049e-14
-1.06165e-14
-1.65978e-14
-1.22471e-14
-1.10398e-14
-1.32325e-14
-8.25034e-15
-1.22055e-14
-1.38466e-14
-1.52066e-14
-1.12792e-14
-1.75866e-14
-1.47209e-14
-1.35655e-14
-1.18482e-14
-1.59976e-14
-1.39819e-14
-1.17614e-14
-1.25316e-14
-1.37147e-14
-1.36002e-14
-8.22606e-15
-1.4249e-14
-9.27383e-15
-1.53003e-14
-1.21153e-14
-1.41866e-14
-1.21812e-14
-1.37286e-14
-1.50158e-14
-1.56333e-14
-8.59035e-15
-1.29723e-14
-1.2771e-14
-8.86791e-15
-1.3798e-14
-1.28578e-14
-1.04118e-14
-1.68303e-14
-1.57999e-14
-1.5106e-14
-1.04916e-14
-1.18933e-14
-1.00371e-14
-1.04534e-14
-1.18204e-14
-7.99361e-15
-1.07275e-14
-1.17753e-14
-1.05159e-14
-1.19488e-14
-1.25316e-14
-1.39333e-14
-1.06269e-14
-1.42664e-14
-1.46654e-14
-1.09877e-14
-1.32012e-14
-9.61384e-15
-1.15533e-14
-1.66082e-14
-1.27225e-14
-1.06755e-14
-1.15567e-14
-1.39333e-14
-1.44121e-14
-1.79613e-14
-1.36419e-14
-1.53037e-14
-1.18759e-14
-1.56125e-14
-1.25559e-14
-1.16018e-14
-1.47174e-14
-1.41727e-14
-9.40914e-15
-1.33435e-14
-1.59942e-14
-1.3007e-14
-1.4766e-14
-1.06928e-14
-1.82146e-14
-1.24518e-14
-2.02581e-14
-1.09392e-14
-1.5557e-14
-1.4537e-14
-1.15429e-14
-1.25386e-14
-9.70404e-15
-8.63198e-15
-1.42143e-14
-1.23027e-14
-1.35517e-14
-1.47625e-14
-8.41341e-15
-9.31893e-15
-1.43253e-14
-8.08381e-15
-9.24261e-15
-1.05714e-14
-1.09045e-14
-1.13937e-14
-1.26114e-14
-1.21361e-14
-1.66464e-14
-1.5616e-14
-1.46029e-14
-1.52586e-14
-1.45474e-14
-1.08073e-14
-1.43774e-14
-1.44641e-14
-1.42317e-14
-1.31145e-14
-1.09912e-14
-1.40998e-14
-7.67789e-15
-1.58797e-14
-1.15567e-14
-1.14839e-14
-1.68823e-14
-1.56992e-14
-1.40062e-14
-1.36419e-14
-1.01551e-14
-1.13867e-14
-1.42455e-14
-1.0044e-14
-1.17718e-14
-1.27086e-14
-9.98854e-15
-1.38362e-14
-1.27016e-14
-1.23061e-14
-1.66776e-14
-1.38951e-14
-1.20667e-14
-1.34996e-14
-1.32741e-14
-1.17961e-14
-8.45851e-15
-1.33296e-14
-7.21645e-15
-1.61884e-14
-8.09422e-15
-1.02904e-14
-1.58241e-14
-1.19037e-14
-1.2379e-14
-1.232e-14
-1.26808e-14
-1.23686e-14
-1.05922e-14
-1.01238e-14
-1.3288e-14
-1.59837e-14
-6.82093e-15
-1.36696e-14
-1.14492e-14
-6.92849e-15
-1.07171e-14
-1.27919e-14
-1.37841e-14
-1.31041e-14
-7.46972e-15
-9.74568e-15
-8.37524e-15
-7.70564e-15
-8.86444e-15
-1.33157e-14
-7.99708e-15
-8.13932e-15
-1.18169e-14
-1.02279e-14
-1.19037e-14
-7.38645e-15
-1.58103e-14
-7.47666e-15
-1.18759e-14
-9.55139e-15
-6.7446e-15
-6.26235e-15
-1.06859e-14
-9.47853e-15
-1.23825e-14
-9.1871e-15
-1.02904e-14
-1.14388e-14
-1.05575e-14
-8.97893e-15
-1.17059e-14
-8.10463e-15
-1.24206e-14
-1.29202e-14
-1.0273e-14
-9.36751e-15
-1.0561e-14
-1.23512e-14
-1.00128e-14
-1.70489e-14
-1.39264e-14
-9.74915e-15
-1.07449e-14
-1.31666e-14
-1.30278e-14
-1.02349e-14
-6.5746e-15
-1.12549e-14
-1.05367e-14
-9.71792e-15
-8.59382e-15
-1.17302e-14
-9.24261e-15
-1.04743e-14
-9.03097e-15
-5.51295e-15
-1.5047e-14
-3.91354e-15
-1.46549e-14
-1.46688e-14
-1.35135e-14
-1.15914e-14
-6.06806e-15
-9.16975e-15
-9.84282e-15
-8.90954e-15
-1.05367e-14
-1.0162e-14
-1.05263e-14
-9.03791e-15
-1.22194e-14
-9.67282e-15
-6.2346e-15
-1.18863e-14
-1.11057e-14
-1.01932e-14
-7.72993e-15
-1.34025e-14
-7.42115e-15
-1.01828e-14
-1.21778e-14
-1.24796e-14
-1.0849e-14
-1.02453e-14
-8.33361e-15
-1.17163e-14
-7.22686e-15
-8.83668e-15
-9.93997e-15
-9.31893e-15
-1.10051e-14
-8.72913e-15
-6.75154e-15
-9.06566e-15
-8.56953e-15
-9.86364e-15
-1.21257e-14
-6.51562e-15
-8.17055e-15
-4.34722e-15
-8.19136e-15