/*--------------------------------*- C++ -*----------------------------------*\
| =========                 |                                                 |
| \\      /  F ield         | foam-extend: Open Source CFD                    |
|  \\    /   O peration     | Version:     4.0                                |
|   \\  /    A nd           | Web:         http://www.foam-extend.org         |
|    \\/     M anipulation  |                                                 |
\*---------------------------------------------------------------------------*/
FoamFile
{
    version     2.0;
    format      ascii;
    class       volScalarField;
    location    "450";
    object      cPlus;
}
// * * * * * * * * * * * * * * * * * * * * * * * * * * * * * * * * * * * * * //

dimensions      [0 0 0 0 0 0 0];

internalField   nonuniform List<scalar> 
6960
(
0.231472
0.231414
0.231365
0.231331
0.231309
0.231295
0.231286
0.231281
0.231277
0.231275
0.231274
0.231273
0.231272
0.231272
0.231271
0.231271
0.231271
0.231271
0.231271
0.231271
0.23127
0.23127
0.23127
0.23127
0.23127
0.23127
0.23127
0.23127
0.23127
0.23127
0.23127
0.23127
0.23127
0.23127
0.23127
0.23127
0.23127
0.23127
0.23127
0.23127
0.231271
0.231271
0.231271
0.231271
0.231271
0.231271
0.231272
0.231272
0.231273
0.231274
0.231275
0.231277
0.231281
0.231286
0.231295
0.231309
0.231331
0.231365
0.231414
0.231472
0.0566731
0.0566523
0.0566341
0.0566214
0.056613
0.0566076
0.0566042
0.0566021
0.0566008
0.0565999
0.0565994
0.056599
0.0565988
0.0565986
0.0565985
0.0565984
0.0565984
0.0565983
0.0565983
0.0565982
0.0565982
0.0565982
0.0565982
0.0565982
0.0565982
0.0565982
0.0565982
0.0565981
0.0565981
0.0565981
0.0565981
0.0565981
0.0565981
0.0565982
0.0565982
0.0565982
0.0565982
0.0565982
0.0565982
0.0565982
0.0565982
0.0565983
0.0565983
0.0565984
0.0565984
0.0565985
0.0565986
0.0565988
0.056599
0.0565994
0.0565999
0.0566008
0.0566021
0.0566042
0.0566076
0.056613
0.0566214
0.0566341
0.0566523
0.0566731
0.0231602
0.0231583
0.0231556
0.0231536
0.0231522
0.0231513
0.0231507
0.0231503
0.0231501
0.0231499
0.0231498
0.0231498
0.0231497
0.0231497
0.0231497
0.0231497
0.0231497
0.0231497
0.0231497
0.0231497
0.0231497
0.0231497
0.0231497
0.0231497
0.0231497
0.0231497
0.0231497
0.0231497
0.0231497
0.0231497
0.0231497
0.0231497
0.0231497
0.0231497
0.0231497
0.0231497
0.0231497
0.0231497
0.0231497
0.0231497
0.0231497
0.0231497
0.0231497
0.0231497
0.0231497
0.0231497
0.0231497
0.0231497
0.0231498
0.0231498
0.0231499
0.0231501
0.0231503
0.0231507
0.0231513
0.0231522
0.0231536
0.0231556
0.0231583
0.0231602
0.0164391
0.0164439
0.0164468
0.0164486
0.0164497
0.0164504
0.0164508
0.0164511
0.0164512
0.0164513
0.0164514
0.0164514
0.0164515
0.0164515
0.0164515
0.0164515
0.0164515
0.0164515
0.0164515
0.0164515
0.0164516
0.0164516
0.0164516
0.0164516
0.0164516
0.0164516
0.0164516
0.0164516
0.0164516
0.0164516
0.0164516
0.0164516
0.0164516
0.0164516
0.0164516
0.0164516
0.0164516
0.0164516
0.0164516
0.0164516
0.0164515
0.0164515
0.0164515
0.0164515
0.0164515
0.0164515
0.0164515
0.0164515
0.0164514
0.0164514
0.0164513
0.0164512
0.0164511
0.0164508
0.0164504
0.0164497
0.0164486
0.0164468
0.0164439
0.0164391
0.0152395
0.0152464
0.0152509
0.0152539
0.0152558
0.015257
0.0152577
0.0152582
0.0152584
0.0152586
0.0152587
0.0152588
0.0152589
0.0152589
0.0152589
0.0152589
0.015259
0.015259
0.015259
0.015259
0.015259
0.015259
0.015259
0.015259
0.015259
0.015259
0.0152591
0.0152591
0.0152591
0.0152591
0.0152591
0.0152591
0.0152591
0.0152591
0.015259
0.015259
0.015259
0.015259
0.015259
0.015259
0.015259
0.015259
0.015259
0.015259
0.0152589
0.0152589
0.0152589
0.0152589
0.0152588
0.0152587
0.0152586
0.0152584
0.0152582
0.0152577
0.015257
0.0152558
0.0152539
0.0152509
0.0152464
0.0152395
0.0151744
0.015182
0.0151871
0.0151904
0.0151925
0.0151939
0.0151947
0.0151952
0.0151955
0.0151957
0.0151958
0.0151959
0.015196
0.015196
0.015196
0.0151961
0.0151961
0.0151961
0.0151961
0.0151961
0.0151961
0.0151962
0.0151962
0.0151962
0.0151962
0.0151962
0.0151962
0.0151962
0.0151962
0.0151962
0.0151962
0.0151962
0.0151962
0.0151962
0.0151962
0.0151962
0.0151962
0.0151962
0.0151962
0.0151961
0.0151961
0.0151961
0.0151961
0.0151961
0.0151961
0.015196
0.015196
0.015196
0.0151959
0.0151958
0.0151957
0.0151955
0.0151952
0.0151947
0.0151939
0.0151925
0.0151904
0.0151871
0.015182
0.0151744
0.0153464
0.0153543
0.0153596
0.0153631
0.0153653
0.0153667
0.0153676
0.0153681
0.0153685
0.0153687
0.0153688
0.0153689
0.0153689
0.015369
0.015369
0.015369
0.0153691
0.0153691
0.0153691
0.0153691
0.0153691
0.0153691
0.0153691
0.0153692
0.0153692
0.0153692
0.0153692
0.0153692
0.0153692
0.0153692
0.0153692
0.0153692
0.0153692
0.0153692
0.0153692
0.0153692
0.0153692
0.0153691
0.0153691
0.0153691
0.0153691
0.0153691
0.0153691
0.0153691
0.015369
0.015369
0.015369
0.0153689
0.0153689
0.0153688
0.0153687
0.0153685
0.0153681
0.0153676
0.0153667
0.0153653
0.0153631
0.0153596
0.0153543
0.0153464
0.0155789
0.0155871
0.0155925
0.0155961
0.0155984
0.0155999
0.0156007
0.0156013
0.0156016
0.0156018
0.015602
0.0156021
0.0156021
0.0156022
0.0156022
0.0156022
0.0156023
0.0156023
0.0156023
0.0156023
0.0156023
0.0156023
0.0156023
0.0156024
0.0156024
0.0156024
0.0156024
0.0156024
0.0156024
0.0156024
0.0156024
0.0156024
0.0156024
0.0156024
0.0156024
0.0156024
0.0156024
0.0156023
0.0156023
0.0156023
0.0156023
0.0156023
0.0156023
0.0156023
0.0156022
0.0156022
0.0156022
0.0156021
0.0156021
0.015602
0.0156018
0.0156016
0.0156013
0.0156007
0.0155999
0.0155984
0.0155961
0.0155925
0.0155871
0.0155789
0.0158399
0.0158483
0.0158539
0.0158576
0.01586
0.0158615
0.0158624
0.015863
0.0158633
0.0158635
0.0158637
0.0158638
0.0158638
0.0158639
0.0158639
0.0158639
0.015864
0.015864
0.015864
0.015864
0.015864
0.015864
0.015864
0.0158641
0.0158641
0.0158641
0.0158641
0.0158641
0.0158641
0.0158641
0.0158641
0.0158641
0.0158641
0.0158641
0.0158641
0.0158641
0.0158641
0.015864
0.015864
0.015864
0.015864
0.015864
0.015864
0.015864
0.0158639
0.0158639
0.0158639
0.0158638
0.0158638
0.0158637
0.0158635
0.0158633
0.015863
0.0158624
0.0158615
0.01586
0.0158576
0.0158539
0.0158483
0.0158399
0.0161257
0.0161344
0.0161402
0.016144
0.0161464
0.016148
0.0161489
0.0161495
0.0161499
0.0161501
0.0161502
0.0161503
0.0161504
0.0161504
0.0161505
0.0161505
0.0161505
0.0161506
0.0161506
0.0161506
0.0161506
0.0161506
0.0161506
0.0161506
0.0161506
0.0161506
0.0161507
0.0161507
0.0161507
0.0161507
0.0161507
0.0161507
0.0161507
0.0161507
0.0161506
0.0161506
0.0161506
0.0161506
0.0161506
0.0161506
0.0161506
0.0161506
0.0161506
0.0161505
0.0161505
0.0161505
0.0161504
0.0161504
0.0161503
0.0161502
0.0161501
0.0161499
0.0161495
0.0161489
0.016148
0.0161464
0.016144
0.0161402
0.0161344
0.0161257
0.0164384
0.0164473
0.0164533
0.0164572
0.0164598
0.0164613
0.0164623
0.0164629
0.0164633
0.0164635
0.0164637
0.0164638
0.0164639
0.0164639
0.016464
0.016464
0.016464
0.016464
0.016464
0.0164641
0.0164641
0.0164641
0.0164641
0.0164641
0.0164641
0.0164641
0.0164641
0.0164641
0.0164641
0.0164641
0.0164641
0.0164641
0.0164641
0.0164641
0.0164641
0.0164641
0.0164641
0.0164641
0.0164641
0.0164641
0.0164641
0.016464
0.016464
0.016464
0.016464
0.016464
0.0164639
0.0164639
0.0164638
0.0164637
0.0164635
0.0164633
0.0164629
0.0164623
0.0164613
0.0164598
0.0164572
0.0164533
0.0164473
0.0164384
0.0167814
0.0167906
0.0167968
0.0168009
0.0168035
0.0168052
0.0168062
0.0168068
0.0168072
0.0168075
0.0168076
0.0168077
0.0168078
0.0168078
0.0168079
0.0168079
0.0168079
0.016808
0.016808
0.016808
0.016808
0.016808
0.016808
0.016808
0.016808
0.0168081
0.0168081
0.0168081
0.0168081
0.0168081
0.0168081
0.0168081
0.0168081
0.0168081
0.0168081
0.016808
0.016808
0.016808
0.016808
0.016808
0.016808
0.016808
0.016808
0.0168079
0.0168079
0.0168079
0.0168078
0.0168078
0.0168077
0.0168076
0.0168075
0.0168072
0.0168068
0.0168062
0.0168052
0.0168035
0.0168009
0.0167968
0.0167906
0.0167814
0.0171592
0.0171688
0.0171752
0.0171795
0.0171822
0.0171839
0.017185
0.0171856
0.017186
0.0171863
0.0171865
0.0171866
0.0171866
0.0171867
0.0171867
0.0171868
0.0171868
0.0171868
0.0171868
0.0171868
0.0171869
0.0171869
0.0171869
0.0171869
0.0171869
0.0171869
0.0171869
0.0171869
0.0171869
0.0171869
0.0171869
0.0171869
0.0171869
0.0171869
0.0171869
0.0171869
0.0171869
0.0171869
0.0171869
0.0171869
0.0171868
0.0171868
0.0171868
0.0171868
0.0171868
0.0171867
0.0171867
0.0171866
0.0171866
0.0171865
0.0171863
0.017186
0.0171856
0.017185
0.0171839
0.0171822
0.0171795
0.0171752
0.0171688
0.0171592
0.0175773
0.0175873
0.017594
0.0175985
0.0176013
0.0176031
0.0176042
0.0176049
0.0176053
0.0176056
0.0176057
0.0176058
0.0176059
0.017606
0.017606
0.017606
0.0176061
0.0176061
0.0176061
0.0176061
0.0176061
0.0176062
0.0176062
0.0176062
0.0176062
0.0176062
0.0176062
0.0176062
0.0176062
0.0176062
0.0176062
0.0176062
0.0176062
0.0176062
0.0176062
0.0176062
0.0176062
0.0176062
0.0176062
0.0176061
0.0176061
0.0176061
0.0176061
0.0176061
0.017606
0.017606
0.017606
0.0176059
0.0176058
0.0176057
0.0176056
0.0176053
0.0176049
0.0176042
0.0176031
0.0176013
0.0175985
0.017594
0.0175873
0.0175773
0.0180424
0.0180529
0.0180599
0.0180646
0.0180675
0.0180694
0.0180705
0.0180713
0.0180717
0.018072
0.0180722
0.0180723
0.0180724
0.0180724
0.0180725
0.0180725
0.0180725
0.0180726
0.0180726
0.0180726
0.0180726
0.0180726
0.0180726
0.0180727
0.0180727
0.0180727
0.0180727
0.0180727
0.0180727
0.0180727
0.0180727
0.0180727
0.0180727
0.0180727
0.0180727
0.0180727
0.0180727
0.0180726
0.0180726
0.0180726
0.0180726
0.0180726
0.0180726
0.0180725
0.0180725
0.0180725
0.0180724
0.0180724
0.0180723
0.0180722
0.018072
0.0180717
0.0180713
0.0180705
0.0180694
0.0180675
0.0180646
0.0180599
0.0180529
0.0180424
0.0185629
0.0185739
0.0185813
0.0185862
0.0185893
0.0185913
0.0185925
0.0185933
0.0185937
0.018594
0.0185942
0.0185943
0.0185944
0.0185945
0.0185945
0.0185946
0.0185946
0.0185946
0.0185946
0.0185947
0.0185947
0.0185947
0.0185947
0.0185947
0.0185947
0.0185947
0.0185947
0.0185948
0.0185948
0.0185948
0.0185948
0.0185948
0.0185948
0.0185947
0.0185947
0.0185947
0.0185947
0.0185947
0.0185947
0.0185947
0.0185947
0.0185946
0.0185946
0.0185946
0.0185946
0.0185945
0.0185945
0.0185944
0.0185943
0.0185942
0.018594
0.0185937
0.0185933
0.0185925
0.0185913
0.0185893
0.0185862
0.0185813
0.0185739
0.0185629
0.0191493
0.019161
0.0191689
0.019174
0.0191773
0.0191794
0.0191807
0.0191815
0.019182
0.0191823
0.0191825
0.0191826
0.0191827
0.0191828
0.0191828
0.0191829
0.0191829
0.0191829
0.0191829
0.019183
0.019183
0.019183
0.019183
0.019183
0.019183
0.019183
0.0191831
0.0191831
0.0191831
0.0191831
0.0191831
0.0191831
0.0191831
0.0191831
0.019183
0.019183
0.019183
0.019183
0.019183
0.019183
0.019183
0.0191829
0.0191829
0.0191829
0.0191829
0.0191828
0.0191828
0.0191827
0.0191826
0.0191825
0.0191823
0.019182
0.0191815
0.0191807
0.0191794
0.0191773
0.019174
0.0191689
0.019161
0.0191493
0.0198153
0.0198278
0.0198361
0.0198416
0.0198451
0.0198473
0.0198487
0.0198496
0.0198501
0.0198504
0.0198506
0.0198508
0.0198509
0.019851
0.019851
0.019851
0.0198511
0.0198511
0.0198511
0.0198512
0.0198512
0.0198512
0.0198512
0.0198512
0.0198512
0.0198512
0.0198512
0.0198513
0.0198513
0.0198513
0.0198513
0.0198513
0.0198513
0.0198512
0.0198512
0.0198512
0.0198512
0.0198512
0.0198512
0.0198512
0.0198512
0.0198511
0.0198511
0.0198511
0.019851
0.019851
0.019851
0.0198509
0.0198508
0.0198506
0.0198504
0.0198501
0.0198496
0.0198487
0.0198473
0.0198451
0.0198416
0.0198361
0.0198278
0.0198153
0.0205786
0.020592
0.0206009
0.0206068
0.0206106
0.0206129
0.0206144
0.0206153
0.0206159
0.0206163
0.0206165
0.0206166
0.0206167
0.0206168
0.0206169
0.0206169
0.020617
0.020617
0.020617
0.020617
0.0206171
0.0206171
0.0206171
0.0206171
0.0206171
0.0206171
0.0206171
0.0206171
0.0206171
0.0206171
0.0206171
0.0206171
0.0206171
0.0206171
0.0206171
0.0206171
0.0206171
0.0206171
0.0206171
0.0206171
0.020617
0.020617
0.020617
0.020617
0.0206169
0.0206169
0.0206168
0.0206167
0.0206166
0.0206165
0.0206163
0.0206159
0.0206153
0.0206144
0.0206129
0.0206106
0.0206068
0.0206009
0.020592
0.0205786
0.0214628
0.0214772
0.0214869
0.0214932
0.0214973
0.0214999
0.0215015
0.0215025
0.0215031
0.0215035
0.0215037
0.0215039
0.021504
0.0215041
0.0215042
0.0215042
0.0215042
0.0215043
0.0215043
0.0215043
0.0215044
0.0215044
0.0215044
0.0215044
0.0215044
0.0215044
0.0215044
0.0215044
0.0215045
0.0215045
0.0215045
0.0215045
0.0215044
0.0215044
0.0215044
0.0215044
0.0215044
0.0215044
0.0215044
0.0215044
0.0215043
0.0215043
0.0215043
0.0215042
0.0215042
0.0215042
0.0215041
0.021504
0.0215039
0.0215037
0.0215035
0.0215031
0.0215025
0.0215015
0.0214999
0.0214973
0.0214932
0.0214869
0.0214772
0.0214628
0.0225
0.0225157
0.0225263
0.0225333
0.0225377
0.0225405
0.0225423
0.0225434
0.022544
0.0225445
0.0225447
0.0225449
0.0225451
0.0225451
0.0225452
0.0225453
0.0225453
0.0225453
0.0225454
0.0225454
0.0225454
0.0225455
0.0225455
0.0225455
0.0225455
0.0225455
0.0225455
0.0225455
0.0225455
0.0225455
0.0225455
0.0225455
0.0225455
0.0225455
0.0225455
0.0225455
0.0225455
0.0225455
0.0225455
0.0225454
0.0225454
0.0225454
0.0225453
0.0225453
0.0225453
0.0225452
0.0225451
0.0225451
0.0225449
0.0225447
0.0225445
0.022544
0.0225434
0.0225423
0.0225405
0.0225377
0.0225333
0.0225263
0.0225157
0.0225
0.0237352
0.0237527
0.0237644
0.0237721
0.0237771
0.0237802
0.0237821
0.0237833
0.0237841
0.0237846
0.0237849
0.0237851
0.0237852
0.0237853
0.0237854
0.0237854
0.0237855
0.0237855
0.0237856
0.0237856
0.0237856
0.0237856
0.0237857
0.0237857
0.0237857
0.0237857
0.0237857
0.0237857
0.0237857
0.0237857
0.0237857
0.0237857
0.0237857
0.0237857
0.0237857
0.0237857
0.0237857
0.0237857
0.0237856
0.0237856
0.0237856
0.0237856
0.0237855
0.0237855
0.0237854
0.0237854
0.0237853
0.0237852
0.0237851
0.0237849
0.0237846
0.0237841
0.0237833
0.0237821
0.0237802
0.0237771
0.0237721
0.0237644
0.0237527
0.0237352
0.0252335
0.0252532
0.0252664
0.0252751
0.0252807
0.0252842
0.0252864
0.0252878
0.0252886
0.0252891
0.0252895
0.0252897
0.0252899
0.02529
0.0252901
0.0252901
0.0252902
0.0252902
0.0252903
0.0252903
0.0252903
0.0252904
0.0252904
0.0252904
0.0252904
0.0252905
0.0252905
0.0252905
0.0252905
0.0252905
0.0252905
0.0252905
0.0252905
0.0252905
0.0252905
0.0252904
0.0252904
0.0252904
0.0252904
0.0252903
0.0252903
0.0252903
0.0252902
0.0252902
0.0252901
0.0252901
0.02529
0.0252899
0.0252897
0.0252895
0.0252891
0.0252886
0.0252878
0.0252864
0.0252842
0.0252807
0.0252751
0.0252664
0.0252532
0.0252335
0.0270915
0.0271142
0.0271294
0.0271394
0.0271459
0.02715
0.0271525
0.027154
0.027155
0.0271556
0.027156
0.0271563
0.0271565
0.0271566
0.0271567
0.0271568
0.0271569
0.0271569
0.027157
0.027157
0.027157
0.0271571
0.0271571
0.0271571
0.0271571
0.0271572
0.0271572
0.0271572
0.0271572
0.0271572
0.0271572
0.0271572
0.0271572
0.0271572
0.0271572
0.0271571
0.0271571
0.0271571
0.0271571
0.027157
0.027157
0.027157
0.0271569
0.0271569
0.0271568
0.0271567
0.0271566
0.0271565
0.0271563
0.027156
0.0271556
0.027155
0.027154
0.0271525
0.02715
0.0271459
0.0271394
0.0271294
0.0271142
0.0270915
0.0294568
0.0294835
0.0295014
0.0295134
0.029521
0.0295259
0.0295289
0.0295307
0.0295319
0.0295326
0.0295331
0.0295334
0.0295336
0.0295338
0.0295339
0.029534
0.029534
0.0295341
0.0295342
0.0295342
0.0295343
0.0295343
0.0295343
0.0295344
0.0295344
0.0295344
0.0295344
0.0295344
0.0295345
0.0295345
0.0295345
0.0295345
0.0295344
0.0295344
0.0295344
0.0295344
0.0295344
0.0295343
0.0295343
0.0295343
0.0295342
0.0295342
0.0295341
0.029534
0.029534
0.0295339
0.0295338
0.0295336
0.0295334
0.0295331
0.0295326
0.0295319
0.0295307
0.0295289
0.0295259
0.029521
0.0295134
0.0295014
0.0294835
0.0294568
0.0325549
0.0325874
0.0326094
0.032624
0.0326333
0.0326392
0.0326429
0.0326452
0.0326466
0.0326475
0.0326481
0.0326485
0.0326487
0.0326489
0.0326491
0.0326492
0.0326493
0.0326494
0.0326494
0.0326495
0.0326495
0.0326496
0.0326496
0.0326497
0.0326497
0.0326497
0.0326498
0.0326498
0.0326498
0.0326498
0.0326498
0.0326498
0.0326498
0.0326498
0.0326497
0.0326497
0.0326497
0.0326496
0.0326496
0.0326495
0.0326495
0.0326494
0.0326494
0.0326493
0.0326492
0.0326491
0.0326489
0.0326487
0.0326485
0.0326481
0.0326475
0.0326466
0.0326452
0.0326429
0.0326392
0.0326333
0.032624
0.0326094
0.0325874
0.0325549
0.0367202
0.0367609
0.0367886
0.036807
0.0368188
0.0368263
0.0368309
0.0368338
0.0368356
0.0368368
0.0368375
0.036838
0.0368383
0.0368385
0.0368387
0.0368389
0.036839
0.0368391
0.0368392
0.0368392
0.0368393
0.0368394
0.0368394
0.0368395
0.0368395
0.0368396
0.0368396
0.0368396
0.0368396
0.0368396
0.0368396
0.0368396
0.0368396
0.0368396
0.0368396
0.0368395
0.0368395
0.0368394
0.0368394
0.0368393
0.0368392
0.0368392
0.0368391
0.036839
0.0368389
0.0368387
0.0368385
0.0368383
0.036838
0.0368375
0.0368368
0.0368356
0.0368338
0.0368309
0.0368263
0.0368188
0.036807
0.0367886
0.0367609
0.0367202
0.0424026
0.042455
0.0424907
0.0425144
0.0425298
0.0425394
0.0425454
0.0425491
0.0425515
0.0425529
0.0425539
0.0425545
0.0425549
0.0425553
0.0425555
0.0425557
0.0425558
0.042556
0.0425561
0.0425562
0.0425563
0.0425563
0.0425564
0.0425565
0.0425565
0.0425566
0.0425566
0.0425566
0.0425567
0.0425567
0.0425567
0.0425567
0.0425566
0.0425566
0.0425566
0.0425565
0.0425565
0.0425564
0.0425563
0.0425563
0.0425562
0.0425561
0.042556
0.0425558
0.0425557
0.0425555
0.0425553
0.0425549
0.0425545
0.0425539
0.0425529
0.0425515
0.0425491
0.0425454
0.0425394
0.0425298
0.0425144
0.0424907
0.042455
0.0424026
0.0501111
0.0501788
0.0502252
0.050256
0.0502759
0.0502884
0.0502963
0.0503011
0.0503042
0.0503061
0.0503073
0.0503081
0.0503087
0.0503091
0.0503094
0.0503096
0.0503098
0.05031
0.0503101
0.0503103
0.0503104
0.0503105
0.0503106
0.0503107
0.0503107
0.0503108
0.0503108
0.0503109
0.0503109
0.0503109
0.0503109
0.0503109
0.0503109
0.0503108
0.0503108
0.0503107
0.0503107
0.0503106
0.0503105
0.0503104
0.0503103
0.0503101
0.05031
0.0503098
0.0503096
0.0503094
0.0503091
0.0503087
0.0503081
0.0503073
0.0503061
0.0503042
0.0503011
0.0502963
0.0502884
0.0502759
0.050256
0.0502252
0.0501788
0.0501111
0.0602637
0.0603501
0.0604092
0.0604486
0.060474
0.06049
0.0605
0.0605063
0.0605101
0.0605126
0.0605142
0.0605152
0.060516
0.0605165
0.0605169
0.0605172
0.0605174
0.0605176
0.0605178
0.060518
0.0605181
0.0605182
0.0605184
0.0605185
0.0605186
0.0605186
0.0605187
0.0605187
0.0605188
0.0605188
0.0605188
0.0605188
0.0605187
0.0605187
0.0605186
0.0605186
0.0605185
0.0605184
0.0605182
0.0605181
0.060518
0.0605178
0.0605176
0.0605174
0.0605172
0.0605169
0.0605165
0.060516
0.0605152
0.0605142
0.0605126
0.0605101
0.0605063
0.0605
0.06049
0.060474
0.0604486
0.0604092
0.0603501
0.0602637
0.0730018
0.0731084
0.0731814
0.07323
0.0732614
0.0732813
0.0732937
0.0733014
0.0733063
0.0733093
0.0733113
0.0733126
0.0733135
0.0733141
0.0733146
0.073315
0.0733153
0.0733155
0.0733158
0.073316
0.0733161
0.0733163
0.0733164
0.0733166
0.0733167
0.0733168
0.0733168
0.0733169
0.0733169
0.0733169
0.0733169
0.0733169
0.0733169
0.0733168
0.0733168
0.0733167
0.0733166
0.0733164
0.0733163
0.0733161
0.073316
0.0733158
0.0733155
0.0733153
0.073315
0.0733146
0.0733141
0.0733135
0.0733126
0.0733113
0.0733093
0.0733063
0.0733014
0.0732937
0.0732813
0.0732614
0.07323
0.0731814
0.0731084
0.0730018
0.0881011
0.0882276
0.0883142
0.0883719
0.0884092
0.0884329
0.0884477
0.0884569
0.0884627
0.0884664
0.0884687
0.0884703
0.0884714
0.0884721
0.0884727
0.0884731
0.0884735
0.0884738
0.088474
0.0884743
0.0884745
0.0884747
0.0884748
0.088475
0.0884751
0.0884752
0.0884753
0.0884753
0.0884754
0.0884754
0.0884754
0.0884754
0.0884753
0.0884753
0.0884752
0.0884751
0.088475
0.0884748
0.0884747
0.0884745
0.0884743
0.088474
0.0884738
0.0884735
0.0884731
0.0884727
0.0884721
0.0884714
0.0884703
0.0884687
0.0884664
0.0884627
0.0884569
0.0884477
0.0884329
0.0884092
0.0883719
0.0883142
0.0882276
0.0881011
0.105063
0.105208
0.105307
0.105373
0.105416
0.105443
0.10546
0.105471
0.105477
0.105481
0.105484
0.105486
0.105487
0.105488
0.105489
0.105489
0.10549
0.10549
0.10549
0.105491
0.105491
0.105491
0.105491
0.105491
0.105491
0.105492
0.105492
0.105492
0.105492
0.105492
0.105492
0.105492
0.105492
0.105492
0.105492
0.105491
0.105491
0.105491
0.105491
0.105491
0.105491
0.10549
0.10549
0.10549
0.105489
0.105489
0.105488
0.105487
0.105486
0.105484
0.105481
0.105477
0.105471
0.10546
0.105443
0.105416
0.105373
0.105307
0.105208
0.105063
0.123315
0.123476
0.123586
0.123659
0.123707
0.123737
0.123757
0.123768
0.123776
0.123781
0.123784
0.123786
0.123787
0.123788
0.123789
0.12379
0.12379
0.12379
0.123791
0.123791
0.123791
0.123791
0.123792
0.123792
0.123792
0.123792
0.123792
0.123792
0.123792
0.123792
0.123792
0.123792
0.123792
0.123792
0.123792
0.123792
0.123792
0.123792
0.123791
0.123791
0.123791
0.123791
0.12379
0.12379
0.12379
0.123789
0.123788
0.123787
0.123786
0.123784
0.123781
0.123776
0.123768
0.123757
0.123737
0.123707
0.123659
0.123586
0.123476
0.123315
0.142373
0.142548
0.142668
0.142748
0.142801
0.142834
0.142855
0.142868
0.142876
0.142882
0.142885
0.142887
0.142889
0.14289
0.142891
0.142891
0.142892
0.142892
0.142893
0.142893
0.142893
0.142893
0.142894
0.142894
0.142894
0.142894
0.142894
0.142894
0.142894
0.142894
0.142894
0.142894
0.142894
0.142894
0.142894
0.142894
0.142894
0.142894
0.142893
0.142893
0.142893
0.142893
0.142892
0.142892
0.142891
0.142891
0.14289
0.142889
0.142887
0.142885
0.142882
0.142876
0.142868
0.142855
0.142834
0.142801
0.142748
0.142668
0.142548
0.142373
0.1619
0.162089
0.162218
0.162304
0.162361
0.162397
0.16242
0.162434
0.162443
0.162449
0.162453
0.162455
0.162457
0.162458
0.162459
0.16246
0.16246
0.16246
0.162461
0.162461
0.162461
0.162462
0.162462
0.162462
0.162462
0.162462
0.162462
0.162462
0.162463
0.162463
0.162463
0.162463
0.162462
0.162462
0.162462
0.162462
0.162462
0.162462
0.162462
0.162461
0.162461
0.162461
0.16246
0.16246
0.16246
0.162459
0.162458
0.162457
0.162455
0.162453
0.162449
0.162443
0.162434
0.16242
0.162397
0.162361
0.162304
0.162218
0.162089
0.1619
0.181688
0.181889
0.182026
0.182118
0.182179
0.182218
0.182242
0.182258
0.182268
0.182274
0.182278
0.182281
0.182283
0.182284
0.182285
0.182286
0.182286
0.182287
0.182287
0.182287
0.182288
0.182288
0.182288
0.182288
0.182288
0.182288
0.182289
0.182289
0.182289
0.182289
0.182289
0.182289
0.182289
0.182289
0.182288
0.182288
0.182288
0.182288
0.182288
0.182288
0.182287
0.182287
0.182287
0.182286
0.182286
0.182285
0.182284
0.182283
0.182281
0.182278
0.182274
0.182268
0.182258
0.182242
0.182218
0.182179
0.182118
0.182026
0.181889
0.181688
0.201609
0.201821
0.201967
0.202065
0.202129
0.202171
0.202197
0.202214
0.202225
0.202231
0.202236
0.202239
0.202241
0.202242
0.202243
0.202244
0.202244
0.202245
0.202245
0.202246
0.202246
0.202246
0.202246
0.202247
0.202247
0.202247
0.202247
0.202247
0.202247
0.202247
0.202247
0.202247
0.202247
0.202247
0.202247
0.202247
0.202247
0.202246
0.202246
0.202246
0.202246
0.202245
0.202245
0.202244
0.202244
0.202243
0.202242
0.202241
0.202239
0.202236
0.202231
0.202225
0.202214
0.202197
0.202171
0.202129
0.202065
0.201967
0.201821
0.201609
0.221585
0.221807
0.221961
0.222064
0.222133
0.222177
0.222205
0.222223
0.222235
0.222242
0.222247
0.22225
0.222252
0.222254
0.222255
0.222256
0.222256
0.222257
0.222257
0.222257
0.222258
0.222258
0.222258
0.222258
0.222258
0.222259
0.222259
0.222259
0.222259
0.222259
0.222259
0.222259
0.222259
0.222259
0.222259
0.222258
0.222258
0.222258
0.222258
0.222258
0.222257
0.222257
0.222257
0.222256
0.222256
0.222255
0.222254
0.222252
0.22225
0.222247
0.222242
0.222235
0.222223
0.222205
0.222177
0.222133
0.222064
0.221961
0.221807
0.221585
0.241562
0.241794
0.241955
0.242064
0.242136
0.242183
0.242213
0.242232
0.242244
0.242252
0.242258
0.242261
0.242263
0.242265
0.242266
0.242267
0.242267
0.242268
0.242268
0.242269
0.242269
0.242269
0.242269
0.24227
0.24227
0.24227
0.24227
0.24227
0.24227
0.24227
0.24227
0.24227
0.24227
0.24227
0.24227
0.24227
0.24227
0.242269
0.242269
0.242269
0.242269
0.242268
0.242268
0.242267
0.242267
0.242266
0.242265
0.242263
0.242261
0.242258
0.242252
0.242244
0.242232
0.242213
0.242183
0.242136
0.242064
0.241955
0.241794
0.241562
0.261498
0.261739
0.261907
0.262022
0.262098
0.262148
0.26218
0.2622
0.262213
0.262222
0.262228
0.262231
0.262234
0.262235
0.262237
0.262237
0.262238
0.262239
0.262239
0.262239
0.26224
0.26224
0.26224
0.26224
0.26224
0.262241
0.262241
0.262241
0.262241
0.262241
0.262241
0.262241
0.262241
0.262241
0.262241
0.26224
0.26224
0.26224
0.26224
0.26224
0.262239
0.262239
0.262239
0.262238
0.262237
0.262237
0.262235
0.262234
0.262231
0.262228
0.262222
0.262213
0.2622
0.26218
0.262148
0.262098
0.262022
0.261907
0.261739
0.261498
0.281362
0.281612
0.281787
0.281907
0.281987
0.282039
0.282073
0.282095
0.282109
0.282118
0.282124
0.282128
0.282131
0.282133
0.282134
0.282135
0.282135
0.282136
0.282136
0.282137
0.282137
0.282137
0.282137
0.282138
0.282138
0.282138
0.282138
0.282138
0.282138
0.282138
0.282138
0.282138
0.282138
0.282138
0.282138
0.282138
0.282138
0.282137
0.282137
0.282137
0.282137
0.282136
0.282136
0.282135
0.282135
0.282134
0.282133
0.282131
0.282128
0.282124
0.282118
0.282109
0.282095
0.282073
0.282039
0.281987
0.281907
0.281787
0.281612
0.281362
0.301126
0.301384
0.301566
0.30169
0.301774
0.301829
0.301865
0.301888
0.301903
0.301913
0.30192
0.301924
0.301927
0.301929
0.30193
0.301931
0.301932
0.301932
0.301933
0.301933
0.301933
0.301933
0.301934
0.301934
0.301934
0.301934
0.301934
0.301934
0.301934
0.301934
0.301934
0.301934
0.301934
0.301934
0.301934
0.301934
0.301934
0.301934
0.301933
0.301933
0.301933
0.301933
0.301932
0.301932
0.301931
0.30193
0.301929
0.301927
0.301924
0.30192
0.301913
0.301903
0.301888
0.301865
0.301829
0.301774
0.30169
0.301566
0.301384
0.301126
0.320765
0.32103
0.321218
0.321348
0.321435
0.321493
0.321531
0.321556
0.321572
0.321582
0.321589
0.321594
0.321597
0.321599
0.3216
0.321601
0.321602
0.321603
0.321603
0.321603
0.321604
0.321604
0.321604
0.321604
0.321604
0.321605
0.321605
0.321605
0.321605
0.321605
0.321605
0.321605
0.321605
0.321605
0.321605
0.321604
0.321604
0.321604
0.321604
0.321604
0.321603
0.321603
0.321603
0.321602
0.321601
0.3216
0.321599
0.321597
0.321594
0.321589
0.321582
0.321572
0.321556
0.321531
0.321493
0.321435
0.321348
0.321218
0.32103
0.320765
0.340256
0.340529
0.340723
0.340858
0.340949
0.341009
0.341049
0.341075
0.341092
0.341104
0.341111
0.341116
0.341119
0.341121
0.341123
0.341124
0.341125
0.341125
0.341126
0.341126
0.341126
0.341127
0.341127
0.341127
0.341127
0.341127
0.341127
0.341127
0.341127
0.341127
0.341127
0.341127
0.341127
0.341127
0.341127
0.341127
0.341127
0.341127
0.341127
0.341126
0.341126
0.341126
0.341125
0.341125
0.341124
0.341123
0.341121
0.341119
0.341116
0.341111
0.341104
0.341092
0.341075
0.341049
0.341009
0.340949
0.340858
0.340723
0.340529
0.340256
0.359581
0.35986
0.360059
0.360199
0.360294
0.360357
0.360399
0.360426
0.360445
0.360456
0.360464
0.360469
0.360473
0.360475
0.360477
0.360478
0.360479
0.360479
0.36048
0.36048
0.360481
0.360481
0.360481
0.360481
0.360481
0.360481
0.360481
0.360482
0.360482
0.360482
0.360482
0.360482
0.360482
0.360481
0.360481
0.360481
0.360481
0.360481
0.360481
0.360481
0.36048
0.36048
0.360479
0.360479
0.360478
0.360477
0.360475
0.360473
0.360469
0.360464
0.360456
0.360445
0.360426
0.360399
0.360357
0.360294
0.360199
0.360059
0.35986
0.359581
0.378719
0.379004
0.379209
0.379353
0.379451
0.379517
0.379561
0.37959
0.379609
0.379622
0.37963
0.379636
0.37964
0.379642
0.379644
0.379645
0.379646
0.379647
0.379647
0.379648
0.379648
0.379648
0.379648
0.379648
0.379648
0.379649
0.379649
0.379649
0.379649
0.379649
0.379649
0.379649
0.379649
0.379649
0.379649
0.379648
0.379648
0.379648
0.379648
0.379648
0.379648
0.379647
0.379647
0.379646
0.379645
0.379644
0.379642
0.37964
0.379636
0.37963
0.379622
0.379609
0.37959
0.379561
0.379517
0.379451
0.379353
0.379209
0.379004
0.378719
0.397654
0.397944
0.398154
0.398302
0.398404
0.398473
0.398519
0.39855
0.39857
0.398583
0.398592
0.398598
0.398602
0.398605
0.398607
0.398608
0.398609
0.398609
0.39861
0.39861
0.398611
0.398611
0.398611
0.398611
0.398611
0.398611
0.398611
0.398611
0.398611
0.398611
0.398611
0.398611
0.398611
0.398611
0.398611
0.398611
0.398611
0.398611
0.398611
0.398611
0.39861
0.39861
0.398609
0.398609
0.398608
0.398607
0.398605
0.398602
0.398598
0.398592
0.398583
0.39857
0.39855
0.398519
0.398473
0.398404
0.398302
0.398154
0.397944
0.397654
0.416369
0.416663
0.416878
0.417031
0.417136
0.417208
0.417256
0.417288
0.417309
0.417324
0.417333
0.417339
0.417344
0.417347
0.417349
0.41735
0.417351
0.417352
0.417352
0.417352
0.417353
0.417353
0.417353
0.417353
0.417353
0.417353
0.417353
0.417353
0.417353
0.417353
0.417353
0.417353
0.417353
0.417353
0.417353
0.417353
0.417353
0.417353
0.417353
0.417353
0.417352
0.417352
0.417352
0.417351
0.41735
0.417349
0.417347
0.417344
0.417339
0.417333
0.417324
0.417309
0.417288
0.417256
0.417208
0.417136
0.417031
0.416878
0.416663
0.416369
0.43485
0.435148
0.435367
0.435523
0.435632
0.435707
0.435757
0.435791
0.435813
0.435828
0.435838
0.435845
0.43585
0.435853
0.435855
0.435856
0.435857
0.435858
0.435858
0.435859
0.435859
0.435859
0.435859
0.43586
0.43586
0.43586
0.43586
0.43586
0.43586
0.43586
0.43586
0.43586
0.43586
0.43586
0.43586
0.43586
0.43586
0.435859
0.435859
0.435859
0.435859
0.435858
0.435858
0.435857
0.435856
0.435855
0.435853
0.43585
0.435845
0.435838
0.435828
0.435813
0.435791
0.435757
0.435707
0.435632
0.435523
0.435367
0.435148
0.43485
0.453082
0.453384
0.453607
0.453767
0.453879
0.453956
0.454008
0.454044
0.454067
0.454083
0.454094
0.454101
0.454106
0.454109
0.454111
0.454113
0.454114
0.454115
0.454115
0.454116
0.454116
0.454116
0.454116
0.454116
0.454116
0.454116
0.454116
0.454116
0.454116
0.454117
0.454117
0.454116
0.454116
0.454116
0.454116
0.454116
0.454116
0.454116
0.454116
0.454116
0.454116
0.454115
0.454115
0.454114
0.454113
0.454111
0.454109
0.454106
0.454101
0.454094
0.454083
0.454067
0.454044
0.454008
0.453956
0.453879
0.453767
0.453607
0.453384
0.453082
0.471052
0.471357
0.471584
0.471747
0.471862
0.471942
0.471997
0.472034
0.472059
0.472075
0.472087