/*--------------------------------*- C++ -*----------------------------------*\
| =========                 |                                                 |
| \\      /  F ield         | foam-extend: Open Source CFD                    |
|  \\    /   O peration     | Version:     4.0                                |
|   \\  /    A nd           | Web:         http://www.foam-extend.org         |
|    \\/     M anipulation  |                                                 |
\*---------------------------------------------------------------------------*/
FoamFile
{
    version     2.0;
    format      ascii;
    class       volVectorField;
    location    "10";
    object      bodyForce;
}
// * * * * * * * * * * * * * * * * * * * * * * * * * * * * * * * * * * * * * //

dimensions      [1 -2 -2 0 0 0 0];

internalField   nonuniform List<vector> 
6960
(
(2.21295e-31 -4.14176e-15 -0)
(2.58177e-31 -4.14176e-15 -0)
(9.22061e-33 -4.14176e-15 -0)
(-1.65971e-31 -4.14176e-15 -0)
(2.76618e-32 -4.14176e-15 -0)
(3.78045e-31 -4.14176e-15 -0)
(3.13501e-31 -4.14176e-15 -0)
(1.65971e-31 -4.14176e-15 -0)
(-2.85839e-31 -4.14176e-15 -0)
(-4.79472e-31 -4.14176e-15 -0)
(-6.45442e-32 -4.14176e-15 -0)
(1.01427e-31 -4.14176e-15 -0)
(2.12074e-31 -4.14176e-15 -0)
(-0 -4.14176e-15 -0)
(-2.95059e-31 -4.14176e-15 -0)
(-3.0428e-31 -4.14176e-15 -0)
(2.21295e-31 -4.14176e-15 -0)
(6.0856e-31 -4.14176e-15 -0)
(-2.21295e-31 -4.14176e-15 -0)
(-1.01427e-31 -4.14176e-15 -0)
(1.29088e-31 -4.14176e-15 -0)
(-3.13501e-31 -4.14176e-15 -0)
(1.29088e-31 -4.14176e-15 -0)
(3.22721e-31 -4.14176e-15 -0)
(-4.6103e-32 -4.14176e-15 -0)
(-2.48956e-31 -4.14176e-15 -0)
(-1.19868e-31 -4.14176e-15 -0)
(-7.37649e-32 -4.14176e-15 -0)
(1.01427e-31 -4.14176e-15 -0)
(6.73104e-31 -4.14176e-15 -0)
(2.76618e-31 -4.14176e-15 -0)
(-3.41162e-31 -4.14176e-15 -0)
(-3.31942e-31 -4.14176e-15 -0)
(-1.29088e-31 -4.14176e-15 -0)
(-8.29855e-32 -4.14176e-15 -0)
(1.4753e-31 -4.14176e-15 -0)
(-1.38309e-31 -4.14176e-15 -0)
(-2.85839e-31 -4.14176e-15 -0)
(-1.29088e-31 -4.14176e-15 -0)
(1.4753e-31 -4.14176e-15 -0)
(2.21295e-31 -4.14176e-15 -0)
(-1.29088e-31 -4.14176e-15 -0)
(5.34795e-31 -4.14176e-15 -0)
(3.22721e-31 -4.14176e-15 -0)
(-1.65971e-31 -4.14176e-15 -0)
(-8.29855e-32 -4.14176e-15 -0)
(-2.30515e-31 -4.14176e-15 -0)
(2.02853e-31 -4.14176e-15 -0)
(1.75192e-31 -4.14176e-15 -0)
(-4.05707e-31 -4.14176e-15 -0)
(9.22061e-32 -4.14176e-15 -0)
(4.5181e-31 -4.14176e-15 -0)
(-1.65971e-31 -4.14176e-15 -0)
(-4.6103e-31 -4.14176e-15 -0)
(-9.22061e-32 -4.14176e-15 -0)
(-1.84412e-32 -4.14176e-15 -0)
(-6.45442e-32 -4.14176e-15 -0)
(-1.75192e-31 -4.14176e-15 -0)
(-4.14927e-31 -4.14176e-15 -0)
(-2.48956e-31 -4.14176e-15 -0)
(8.23574e-31 -4.14176e-15 -0)
(8.59382e-31 -4.14176e-15 -0)
(-1.07423e-31 -4.14176e-15 -0)
(-5.72921e-31 -4.14176e-15 -0)
(7.16151e-32 -4.14176e-15 -0)
(1.18165e-30 -4.14176e-15 -0)
(1.00261e-30 -4.14176e-15 -0)
(4.29691e-31 -4.14176e-15 -0)
(-8.23574e-31 -4.14176e-15 -0)
(-1.50392e-30 -4.14176e-15 -0)
(-1.79038e-31 -4.14176e-15 -0)
(3.58076e-31 -4.14176e-15 -0)
(6.08729e-31 -4.14176e-15 -0)
(-3.58076e-32 -4.14176e-15 -0)
(-8.95189e-31 -4.14176e-15 -0)
(-9.30997e-31 -4.14176e-15 -0)
(7.16151e-31 -4.14176e-15 -0)
(1.8978e-30 -4.14176e-15 -0)
(-7.16151e-31 -4.14176e-15 -0)
(-4.29691e-31 -4.14176e-15 -0)
(4.65498e-31 -4.14176e-15 -0)
(-9.30997e-31 -4.14176e-15 -0)
(3.93883e-31 -4.14176e-15 -0)
(1.11003e-30 -4.14176e-15 -0)
(-1.07423e-31 -4.14176e-15 -0)
(-8.59382e-31 -4.14176e-15 -0)
(-3.58076e-31 -4.14176e-15 -0)
(-2.14845e-31 -4.14176e-15 -0)
(3.22268e-31 -4.14176e-15 -0)
(2.07684e-30 -4.14176e-15 -0)
(7.51959e-31 -4.14176e-15 -0)
(-1.07423e-30 -4.14176e-15 -0)
(-9.30997e-31 -4.14176e-15 -0)
(-5.01306e-31 -4.14176e-15 -0)
(-2.8646e-31 -4.14176e-15 -0)
(5.72921e-31 -4.14176e-15 -0)
(-4.65498e-31 -4.14176e-15 -0)
(-9.30997e-31 -4.14176e-15 -0)
(-2.86461e-31 -4.14176e-15 -0)
(3.93883e-31 -4.14176e-15 -0)
(6.80344e-31 -4.14176e-15 -0)
(-3.93883e-31 -4.14176e-15 -0)
(1.57553e-30 -4.14176e-15 -0)
(1.00261e-30 -4.14176e-15 -0)
(-4.65498e-31 -4.14176e-15 -0)
(-2.50653e-31 -4.14176e-15 -0)
(-7.87766e-31 -4.14176e-15 -0)
(6.80344e-31 -4.14176e-15 -0)
(5.72921e-31 -4.14176e-15 -0)
(-1.21746e-30 -4.14176e-15 -0)
(2.86461e-31 -4.14176e-15 -0)
(1.36069e-30 -4.14176e-15 -0)
(-5.01306e-31 -4.14176e-15 -0)
(-1.4323e-30 -4.14176e-15 -0)
(-2.86461e-31 -4.14176e-15 -0)
(-3.58076e-32 -4.14176e-15 -0)
(-1.4323e-31 -4.14176e-15 -0)
(-6.08729e-31 -4.14176e-15 -0)
(-1.25326e-30 -4.14176e-15 -0)
(-6.80344e-31 -4.14176e-15 -0)
(1.32103e-30 -4.14176e-15 -0)
(1.2515e-30 -4.14176e-15 -0)
(6.9528e-32 -4.14176e-15 -0)
(-7.64809e-31 -4.14176e-15 -0)
(6.9528e-32 -4.14176e-15 -0)
(1.80773e-30 -4.14176e-15 -0)
(1.52962e-30 -4.14176e-15 -0)
(8.34337e-31 -4.14176e-15 -0)
(-1.18198e-30 -4.14176e-15 -0)
(-2.57254e-30 -4.14176e-15 -0)
(-4.86696e-31 -4.14176e-15 -0)
(7.64809e-31 -4.14176e-15 -0)
(9.73393e-31 -4.14176e-15 -0)
(-6.9528e-32 -4.14176e-15 -0)
(-1.39056e-30 -4.14176e-15 -0)
(-1.66867e-30 -4.14176e-15 -0)
(1.11245e-30 -4.14176e-15 -0)
(3.26782e-30 -4.14176e-15 -0)
(-1.2515e-30 -4.14176e-15 -0)
(-5.56224e-31 -4.14176e-15 -0)
(9.03865e-31 -4.14176e-15 -0)
(-1.7382e-30 -4.14176e-15 -0)
(5.56224e-31 -4.14176e-15 -0)
(1.87726e-30 -4.14176e-15 -0)
(-4.17168e-31 -4.14176e-15 -0)
(-1.32103e-30 -4.14176e-15 -0)
(-3.4764e-31 -4.14176e-15 -0)
(-5.56224e-31 -4.14176e-15 -0)
(5.56224e-31 -4.14176e-15 -0)
(3.54593e-30 -4.14176e-15 -0)
(1.32103e-30 -4.14176e-15 -0)
(-1.7382e-30 -4.14176e-15 -0)
(-1.59915e-30 -4.14176e-15 -0)
(-8.34337e-31 -4.14176e-15 -0)
(-4.86696e-31 -4.14176e-15 -0)
(9.73393e-31 -4.14176e-15 -0)
(-7.64809e-31 -4.14176e-15 -0)
(-1.59915e-30 -4.14176e-15 -0)
(-5.56224e-31 -4.14176e-15 -0)
(7.64809e-31 -4.14176e-15 -0)
(1.18198e-30 -4.14176e-15 -0)
(-6.25752e-31 -4.14176e-15 -0)
(2.57254e-30 -4.14176e-15 -0)
(1.66867e-30 -4.14176e-15 -0)
(-6.9528e-31 -4.14176e-15 -0)
(-4.17168e-31 -4.14176e-15 -0)
(-1.32103e-30 -4.14176e-15 -0)
(9.73393e-31 -4.14176e-15 -0)
(9.73393e-31 -4.14176e-15 -0)
(-2.01631e-30 -4.14176e-15 -0)
(3.4764e-31 -4.14176e-15 -0)
(2.43348e-30 -4.14176e-15 -0)
(-7.64809e-31 -4.14176e-15 -0)
(-2.29443e-30 -4.14176e-15 -0)
(-5.56224e-31 -4.14176e-15 -0)
(-2.08584e-31 -4.14176e-15 -0)
(-3.4764e-31 -4.14176e-15 -0)
(-9.03865e-31 -4.14176e-15 -0)
(-1.94679e-30 -4.14176e-15 -0)
(-1.2515e-30 -4.14176e-15 -0)
(1.82255e-30 -4.14176e-15 -0)
(1.95755e-30 -4.14176e-15 -0)
(6.75018e-32 -4.14176e-15 -0)
(-1.28253e-30 -4.14176e-15 -0)
(6.75018e-32 -4.14176e-15 -0)
(2.76757e-30 -4.14176e-15 -0)
(2.36256e-30 -4.14176e-15 -0)
(1.01253e-30 -4.14176e-15 -0)
(-1.82255e-30 -4.14176e-15 -0)
(-3.7126e-30 -4.14176e-15 -0)
(-6.07516e-31 -4.14176e-15 -0)
(1.14753e-30 -4.14176e-15 -0)
(1.28253e-30 -4.14176e-15 -0)
(-6.75018e-32 -4.14176e-15 -0)
(-1.82255e-30 -4.14176e-15 -0)
(-2.43006e-30 -4.14176e-15 -0)
(1.55254e-30 -4.14176e-15 -0)
(4.45512e-30 -4.14176e-15 -0)
(-1.68754e-30 -4.14176e-15 -0)
(-7.4252e-31 -4.14176e-15 -0)
(1.08003e-30 -4.14176e-15 -0)
(-2.22756e-30 -4.14176e-15 -0)
(8.10021e-31 -4.14176e-15 -0)
(2.49757e-30 -4.14176e-15 -0)
(-5.40014e-31 -4.14176e-15 -0)
(-1.82255e-30 -4.14176e-15 -0)
(-5.40014e-31 -4.14176e-15 -0)
(-8.10021e-31 -4.14176e-15 -0)
(6.75018e-31 -4.14176e-15 -0)
(5.19764e-30 -4.14176e-15 -0)
(2.09256e-30 -4.14176e-15 -0)
(-2.56507e-30 -4.14176e-15 -0)
(-2.36256e-30 -4.14176e-15 -0)
(-1.01253e-30 -4.14176e-15 -0)
(-8.10021e-31 -4.14176e-15 -0)
(1.28253e-30 -4.14176e-15 -0)
(-9.45025e-31 -4.14176e-15 -0)
(-2.36256e-30 -4.14176e-15 -0)
(-6.75018e-31 -4.14176e-15 -0)
(1.21503e-30 -4.14176e-15 -0)
(1.62004e-30 -4.14176e-15 -0)
(-1.08003e-30 -4.14176e-15 -0)
(3.7801e-30 -4.14176e-15 -0)
(2.49757e-30 -4.14176e-15 -0)
(-1.21503e-30 -4.14176e-15 -0)
(-6.07516e-31 -4.14176e-15 -0)
(-1.95755e-30 -4.14176e-15 -0)
(1.48504e-30 -4.14176e-15 -0)
(1.48504e-30 -4.14176e-15 -0)
(-2.83508e-30 -4.14176e-15 -0)
(5.40014e-31 -4.14176e-15 -0)
(3.44259e-30 -4.14176e-15 -0)
(-1.01253e-30 -4.14176e-15 -0)
(-3.37509e-30 -4.14176e-15 -0)
(-9.45025e-31 -4.14176e-15 -0)
(-2.02505e-31 -4.14176e-15 -0)
(-4.72513e-31 -4.14176e-15 -0)
(-1.14753e-30 -4.14176e-15 -0)
(-2.90258e-30 -4.14176e-15 -0)
(-1.75505e-30 -4.14176e-15 -0)
(2.49031e-30 -4.14175e-15 -0)
(2.22818e-30 -4.14175e-15 -0)
(-0 -4.14175e-15 -0)
(-1.44176e-30 -4.14175e-15 -0)
(-1.31069e-31 -4.14175e-15 -0)
(3.53887e-30 -4.14175e-15 -0)
(3.27673e-30 -4.14175e-15 -0)
(1.31069e-30 -4.14175e-15 -0)
(-2.49031e-30 -4.14175e-15 -0)
(-4.58742e-30 -4.14175e-15 -0)
(-7.86415e-31 -4.14175e-15 -0)
(1.31069e-30 -4.14175e-15 -0)
(1.96604e-30 -4.14175e-15 -0)
(-0 -4.14175e-15 -0)
(-2.49031e-30 -4.14175e-15 -0)
(-3.14566e-30 -4.14175e-15 -0)
(1.96604e-30 -4.14175e-15 -0)
(6.02918e-30 -4.14175e-15 -0)
(-2.09711e-30 -4.14175e-15 -0)
(-1.17962e-30 -4.14175e-15 -0)
(1.44176e-30 -4.14175e-15 -0)
(-3.01459e-30 -4.14175e-15 -0)
(1.17962e-30 -4.14175e-15 -0)
(3.14566e-30 -4.14175e-15 -0)
(-7.86415e-31 -4.14175e-15 -0)
(-2.09711e-30 -4.14175e-15 -0)
(-7.86415e-31 -4.14175e-15 -0)
(-9.17484e-31 -4.14175e-15 -0)
(7.86415e-31 -4.14175e-15 -0)
(6.55346e-30 -4.14175e-15 -0)
(2.49031e-30 -4.14175e-15 -0)
(-3.27673e-30 -4.14175e-15 -0)
(-2.75245e-30 -4.14175e-15 -0)
(-1.44176e-30 -4.14175e-15 -0)
(-1.04855e-30 -4.14175e-15 -0)
(1.57283e-30 -4.14175e-15 -0)
(-1.17962e-30 -4.14175e-15 -0)
(-3.27673e-30 -4.14175e-15 -0)
(-6.55346e-31 -4.14175e-15 -0)
(1.7039e-30 -4.14175e-15 -0)
(1.83497e-30 -4.14175e-15 -0)
(-1.57283e-30 -4.14175e-15 -0)
(5.1117e-30 -4.14175e-15 -0)
(3.4078e-30 -4.14175e-15 -0)
(-1.44176e-30 -4.14175e-15 -0)
(-1.04855e-30 -4.14175e-15 -0)
(-2.49031e-30 -4.14175e-15 -0)
(2.09711e-30 -4.14175e-15 -0)
(1.96604e-30 -4.14175e-15 -0)
(-3.66994e-30 -4.14175e-15 -0)
(3.93208e-31 -4.14175e-15 -0)
(4.45635e-30 -4.14175e-15 -0)
(-1.44176e-30 -4.14175e-15 -0)
(-4.32528e-30 -4.14175e-15 -0)
(-9.17484e-31 -4.14175e-15 -0)
(-5.24277e-31 -4.14175e-15 -0)
(-5.24277e-31 -4.14175e-15 -0)
(-1.57283e-30 -4.14175e-15 -0)
(-3.93208e-30 -4.14175e-15 -0)
(-2.09711e-30 -4.14175e-15 -0)
(3.18124e-30 -4.14175e-15 -0)
(3.05399e-30 -4.14175e-15 -0)
(-0 -4.14175e-15 -0)
(-1.78149e-30 -4.14175e-15 -0)
(2.54499e-31 -4.14175e-15 -0)
(4.45373e-30 -4.14175e-15 -0)
(3.94473e-30 -4.14175e-15 -0)
(1.52699e-30 -4.14175e-15 -0)
(-3.43573e-30 -4.14175e-15 -0)
(-5.21723e-30 -4.14175e-15 -0)
(-7.63496e-31 -4.14175e-15 -0)
(1.39974e-30 -4.14175e-15 -0)
(2.29049e-30 -4.14175e-15 -0)
(-0 -4.14175e-15 -0)
(-3.05399e-30 -4.14175e-15 -0)
(-3.81748e-30 -4.14175e-15 -0)
(2.16324e-30 -4.14175e-15 -0)
(7.25322e-30 -4.14175e-15 -0)
(-2.03599e-30 -4.14175e-15 -0)
(-1.27249e-30 -4.14175e-15 -0)
(1.39974e-30 -4.14175e-15 -0)
(-3.56298e-30 -4.14175e-15 -0)
(1.39974e-30 -4.14175e-15 -0)
(3.69023e-30 -4.14175e-15 -0)
(-6.36247e-31 -4.14175e-15 -0)
(-2.67224e-30 -4.14175e-15 -0)
(-7.63496e-31 -4.14175e-15 -0)
(-1.018e-30 -4.14175e-15 -0)
(7.63496e-31 -4.14175e-15 -0)
(7.88946e-30 -4.14175e-15 -0)
(3.05399e-30 -4.14175e-15 -0)
(-4.07198e-30 -4.14175e-15 -0)
(-3.69023e-30 -4.14175e-15 -0)
(-1.39974e-30 -4.14175e-15 -0)
(-1.14524e-30 -4.14175e-15 -0)
(2.16324e-30 -4.14175e-15 -0)
(-2.03599e-30 -4.14175e-15 -0)
(-4.07198e-30 -4.14175e-15 -0)
(-7.63496e-31 -4.14175e-15 -0)
(2.16324e-30 -4.14175e-15 -0)
(2.41774e-30 -4.14175e-15 -0)
(-1.78149e-30 -4.14175e-15 -0)
(6.36247e-30 -4.14175e-15 -0)
(4.32648e-30 -4.14175e-15 -0)
(-2.03599e-30 -4.14175e-15 -0)
(-1.39974e-30 -4.14175e-15 -0)
(-3.05399e-30 -4.14175e-15 -0)
(2.67224e-30 -4.14175e-15 -0)
(2.29049e-30 -4.14175e-15 -0)
(-4.70823e-30 -4.14175e-15 -0)
(7.63497e-31 -4.14175e-15 -0)
(5.59897e-30 -4.14175e-15 -0)
(-1.90874e-30 -4.14175e-15 -0)
(-5.34448e-30 -4.14175e-15 -0)
(-1.39974e-30 -4.14175e-15 -0)
(-5.08998e-31 -4.14175e-15 -0)
(-5.08998e-31 -4.14175e-15 -0)
(-2.29049e-30 -4.14175e-15 -0)
(-4.70823e-30 -4.14175e-15 -0)
(-2.67224e-30 -4.14175e-15 -0)
(3.70623e-30 -4.14175e-15 -0)
(3.95331e-30 -4.14175e-15 -0)
(-2.47082e-31 -4.14175e-15 -0)
(-2.34728e-30 -4.14175e-15 -0)
(-0 -4.14175e-15 -0)
(5.4358e-30 -4.14175e-15 -0)
(4.69456e-30 -4.14175e-15 -0)
(1.48249e-30 -4.14175e-15 -0)
(-3.70623e-30 -4.14175e-15 -0)
(-6.54767e-30 -4.14175e-15 -0)
(-9.88328e-31 -4.14175e-15 -0)
(2.1002e-30 -4.14175e-15 -0)
(2.47082e-30 -4.14175e-15 -0)
(-0 -4.14175e-15 -0)
(-3.21207e-30 -4.14175e-15 -0)
(-4.69456e-30 -4.14175e-15 -0)
(2.59436e-30 -4.14175e-15 -0)
(8.89495e-30 -4.14175e-15 -0)
(-2.96498e-30 -4.14175e-15 -0)
(-1.35895e-30 -4.14175e-15 -0)
(1.97666e-30 -4.14175e-15 -0)
(-4.57102e-30 -4.14175e-15 -0)
(1.60603e-30 -4.14175e-15 -0)
(4.8181e-30 -4.14175e-15 -0)
(-1.11187e-30 -4.14175e-15 -0)
(-2.96498e-30 -4.14175e-15 -0)
(-7.41246e-31 -4.14175e-15 -0)
(-1.48249e-30 -4.14175e-15 -0)
(1.23541e-30 -4.14175e-15 -0)
(9.26557e-30 -4.14175e-15 -0)
(3.45915e-30 -4.14175e-15 -0)
(-4.8181e-30 -4.14175e-15 -0)
(-3.95331e-30 -4.14175e-15 -0)
(-1.97666e-30 -4.14175e-15 -0)
(-1.60603e-30 -4.14175e-15 -0)
(2.59436e-30 -4.14175e-15 -0)
(-2.47082e-30 -4.14175e-15 -0)
(-4.94164e-30 -4.14175e-15 -0)
(-4.94164e-31 -4.14175e-15 -0)
(2.7179e-30 -4.14175e-15 -0)
(2.7179e-30 -4.14175e-15 -0)
(-2.1002e-30 -4.14175e-15 -0)
(7.65954e-30 -4.14175e-15 -0)
(5.06518e-30 -4.14175e-15 -0)
(-2.47082e-30 -4.14175e-15 -0)
(-1.97666e-30 -4.14175e-15 -0)
(-3.70623e-30 -4.14175e-15 -0)
(3.21207e-30 -4.14175e-15 -0)
(3.21207e-30 -4.14175e-15 -0)
(-5.4358e-30 -4.14175e-15 -0)
(6.17705e-31 -4.14175e-15 -0)
(6.67121e-30 -4.14175e-15 -0)
(-2.47082e-30 -4.14175e-15 -0)
(-6.42413e-30 -4.14175e-15 -0)
(-1.35895e-30 -4.14175e-15 -0)
(-7.41246e-31 -4.14175e-15 -0)
(-4.94164e-31 -4.14175e-15 -0)
(-3.08852e-30 -4.14175e-15 -0)
(-5.80643e-30 -4.14175e-15 -0)
(-2.7179e-30 -4.14175e-15 -0)
(4.19792e-30 -4.14175e-15 -0)
(4.55774e-30 -4.14175e-15 -0)
(2.39881e-31 -4.14175e-15 -0)
(-2.99852e-30 -4.14175e-15 -0)
(-1.19941e-31 -4.14175e-15 -0)
(7.0765e-30 -4.14175e-15 -0)
(4.91757e-30 -4.14175e-15 -0)
(1.55923e-30 -4.14175e-15 -0)
(-4.4378e-30 -4.14175e-15 -0)
(-7.43632e-30 -4.14175e-15 -0)
(-1.31935e-30 -4.14175e-15 -0)
(2.75863e-30 -4.14175e-15 -0)
(2.87857e-30 -4.14175e-15 -0)
(-3.59822e-31 -4.14175e-15 -0)
(-4.19792e-30 -4.14175e-15 -0)
(-5.03751e-30 -4.14175e-15 -0)
(3.11846e-30 -4.14175e-15 -0)
(1.0195e-29 -4.14175e-15 -0)
(-3.11846e-30 -4.14175e-15 -0)
(-2.27887e-30 -4.14175e-15 -0)
(2.15893e-30 -4.14175e-15 -0)
(-4.4378e-30 -4.14175e-15 -0)
(2.03899e-30 -4.14175e-15 -0)
(4.79762e-30 -4.14175e-15 -0)
(-1.19941e-30 -4.14175e-15 -0)
(-2.87857e-30 -4.14175e-15 -0)
(-1.55923e-30 -4.14175e-15 -0)
(-1.79911e-30 -4.14175e-15 -0)
(1.79911e-30 -4.14175e-15 -0)
(1.12744e-29 -4.14175e-15 -0)
(4.19792e-30 -4.14175e-15 -0)
(-6.47679e-30 -4.14175e-15 -0)
(-4.79762e-30 -4.14175e-15 -0)
(-1.43929e-30 -4.14175e-15 -0)
(-2.03899e-30 -4.14175e-15 -0)
(2.51875e-30 -4.14175e-15 -0)
(-2.75863e-30 -4.14175e-15 -0)
(-5.63721e-30 -4.14175e-15 -0)
(-5.99703e-31 -4.14175e-15 -0)
(3.35834e-30 -4.14175e-15 -0)
(2.87857e-30 -4.14175e-15 -0)
(-2.75863e-30 -4.14175e-15 -0)
(9.83513e-30 -4.14175e-15 -0)
(5.63721e-30 -4.14175e-15 -0)
(-3.11846e-30 -4.14175e-15 -0)
(-1.91905e-30 -4.14175e-15 -0)
(-4.91757e-30 -4.14175e-15 -0)
(3.95804e-30 -4.14175e-15 -0)
(3.95804e-30 -4.14175e-15 -0)
(-6.47679e-30 -4.14175e-15 -0)
(5.99703e-31 -4.14175e-15 -0)
(7.6762e-30 -4.14175e-15 -0)
(-2.63869e-30 -4.14175e-15 -0)
(-7.55626e-30 -4.14175e-15 -0)
(-1.67917e-30 -4.14175e-15 -0)
(-1.19941e-30 -4.14175e-15 -0)
(-8.39584e-31 -4.14175e-15 -0)
(-3.35834e-30 -4.14175e-15 -0)
(-7.0765e-30 -4.14175e-15 -0)
(-3.11846e-30 -4.14175e-15 -0)
(5.12359e-30 -4.14175e-15 -0)
(5.12359e-30 -4.14175e-15 -0)
(-4.65781e-31 -4.14175e-15 -0)
(-3.02757e-30 -4.14175e-15 -0)
(-2.3289e-31 -4.14175e-15 -0)
(7.2196e-30 -4.14175e-15 -0)
(6.75382e-30 -4.14175e-15 -0)
(9.31561e-31 -4.14175e-15 -0)
(-5.35648e-30 -4.14175e-15 -0)
(-8.15116e-30 -4.14175e-15 -0)
(-6.98671e-31 -4.14175e-15 -0)
(2.79468e-30 -4.14175e-15 -0)
(3.02757e-30 -4.14175e-15 -0)
(-0 -4.14174e-15 -0)
(-4.8907e-30 -4.14174e-15 -0)
(-5.82226e-30 -4.14174e-15 -0)
(3.49336e-30 -4.14174e-15 -0)
(1.16445e-29 -4.14174e-15 -0)
(-3.02757e-30 -4.14174e-15 -0)
(-2.56179e-30 -4.14174e-15 -0)
(1.86312e-30 -4.14174e-15 -0)
(-5.12359e-30 -4.14174e-15 -0)
(2.3289e-30 -4.14174e-15 -0)
(5.82226e-30 -4.14174e-15 -0)
(-1.16445e-30 -4.14174e-15 -0)
(-3.49335e-30 -4.14174e-15 -0)
(-1.63023e-30 -4.14174e-15 -0)
(-1.86312e-30 -4.14174e-15 -0)
(2.3289e-30 -4.14174e-15 -0)
(1.2809e-29 -4.14174e-15 -0)
(4.8907e-30 -4.14174e-15 -0)
(-7.45249e-30 -4.14174e-15 -0)
(-5.35648e-30 -4.14174e-15 -0)
(-2.09601e-30 -4.14174e-15 -0)
(-2.56179e-30 -4.14174e-15 -0)
(3.26046e-30 -4.14174e-15 -0)
(-3.95914e-30 -4.14174e-15 -0)
(-6.28804e-30 -4.14174e-15 -0)
(-2.3289e-31 -4.14174e-15 -0)
(3.95914e-30 -4.14174e-15 -0)
(3.26046e-30 -4.14174e-15 -0)
(-3.02757e-30 -4.14174e-15 -0)
(1.09458e-29 -4.14175e-15 -0)
(6.28804e-30 -4.14175e-15 -0)
(-2.79468e-30 -4.14175e-15 -0)
(-2.56179e-30 -4.14175e-15 -0)
(-5.35648e-30 -4.14175e-15 -0)
(4.42492e-30 -4.14175e-15 -0)
(4.42492e-30 -4.14175e-15 -0)
(-7.2196e-30 -4.14175e-15 -0)
(6.98671e-31 -4.14175e-15 -0)
(8.84983e-30 -4.14175e-15 -0)
(-3.02757e-30 -4.14175e-15 -0)
(-8.84983e-30 -4.14175e-15 -0)
(-1.63023e-30 -4.14175e-15 -0)
(-1.16445e-30 -4.14175e-15 -0)
(-1.63023e-30 -4.14175e-15 -0)
(-4.42492e-30 -4.14175e-15 -0)
(-8.15116e-30 -4.14175e-15 -0)
(-3.72625e-30 -4.14175e-15 -0)
(6.55699e-30 -4.14174e-15 -0)
(5.87868e-30 -4.14174e-15 -0)
(-6.7831e-31 -4.14174e-15 -0)
(-3.16544e-30 -4.14174e-15 -0)
(-0 -4.14174e-15 -0)
(8.13971e-30 -4.14174e-15 -0)
(7.0092e-30 -4.14174e-15 -0)
(1.35662e-30 -4.14174e-15 -0)
(-5.42648e-30 -4.14174e-15 -0)
(-9.49633e-30 -4.14174e-15 -0)
(-1.13052e-30 -4.14174e-15 -0)
(2.93934e-30 -4.14174e-15 -0)
(2.71324e-30 -4.14174e-15 -0)
(4.52206e-31 -4.14174e-15 -0)
(-5.20037e-30 -4.14174e-15 -0)
(-6.7831e-30 -4.14174e-15 -0)
(3.84375e-30 -4.14174e-15 -0)
(1.3114e-29 -4.14174e-15 -0)
(-2.71324e-30 -4.14174e-15 -0)
(-2.93934e-30 -4.14174e-15 -0)
(1.58272e-30 -4.14174e-15 -0)
(-5.87868e-30 -4.14174e-15 -0)
(2.71324e-30 -4.14174e-15 -0)
(6.55699e-30 -4.14174e-15 -0)
(-9.04413e-31 -4.14174e-15 -0)
(-4.29596e-30 -4.14174e-15 -0)
(-2.48713e-30 -4.14174e-15 -0)
(-1.58272e-30 -4.14174e-15 -0)
(2.93934e-30 -4.14174e-15 -0)
(1.44706e-29 -4.14174e-15 -0)
(5.20037e-30 -4.14174e-15 -0)
(-8.13971e-30 -4.14174e-15 -0)
(-6.33089e-30 -4.14174e-15 -0)
(-2.48713e-30 -4.14174e-15 -0)
(-3.16544e-30 -4.14174e-15 -0)
(3.84375e-30 -4.14174e-15 -0)
(-4.29596e-30 -4.14174e-15 -0)
(-7.2353e-30 -4.14174e-15 -0)
(4.52206e-31 -4.14174e-15 -0)
(4.74817e-30 -4.14174e-15 -0)
(2.71324e-30 -4.14174e-15 -0)
(-3.61765e-30 -4.14174e-15 -0)
(1.3114e-29 -4.14174e-15 -0)
(7.4614e-30 -4.14174e-15 -0)
(-3.61765e-30 -4.14174e-15 -0)
(-2.93934e-30 -4.14174e-15 -0)
(-6.10479e-30 -4.14174e-15 -0)
(5.20037e-30 -4.14174e-15 -0)
(5.42648e-30 -4.14174e-15 -0)
(-8.13971e-30 -4.14174e-15 -0)
(2.26103e-31 -4.14174e-15 -0)
(9.72244e-30 -4.14174e-15 -0)
(-3.84375e-30 -4.14174e-15 -0)
(-9.49633e-30 -4.14174e-15 -0)
(-1.35662e-30 -4.14174e-15 -0)
(-1.80883e-30 -4.14174e-15 -0)
(-1.35662e-30 -4.14174e-15 -0)
(-5.65258e-30 -4.14174e-15 -0)
(-9.94854e-30 -4.14174e-15 -0)
(-3.84375e-30 -4.14174e-15 -0)
(7.68298e-30 -4.14174e-15 -0)
(6.80493e-30 -4.14174e-15 -0)
(6.58541e-31 -4.14174e-15 -0)
(-3.29271e-30 -4.14174e-15 -0)
(-8.78055e-31 -4.14174e-15 -0)
(8.56104e-30 -4.14174e-15 -0)
(8.12201e-30 -4.14174e-15 -0)
(1.09757e-30 -4.14174e-15 -0)
(-6.3659e-30 -4.14174e-15 -0)
(-9.87812e-30 -4.14174e-15 -0)
(-1.75611e-30 -4.14174e-15 -0)
(3.51222e-30 -4.14174e-15 -0)
(3.29271e-30 -4.14174e-15 -0)
(6.58541e-31 -4.14174e-15 -0)
(-5.70736e-30 -4.14174e-15 -0)
(-7.68298e-30 -4.14174e-15 -0)
(4.60979e-30 -4.14174e-15 -0)
(1.42684e-29 -4.14174e-15 -0)
(-2.63417e-30 -4.14174e-15 -0)
(-2.19514e-30 -4.14174e-15 -0)
(6.58541e-31 -4.14174e-15 -0)
(-6.80493e-30 -4.14174e-15 -0)
(3.07319e-30 -4.14174e-15 -0)
(7.24396e-30 -4.14174e-15 -0)
(-1.09757e-30 -4.14174e-15 -0)
(-5.26833e-30 -4.14174e-15 -0)
(-2.41465e-30 -4.14174e-15 -0)
(-1.75611e-30 -4.14174e-15 -0)
(4.39028e-30 -4.14174e-15 -0)
(1.60245e-29 -4.14174e-15 -0)
(4.8293e-30 -4.14174e-15 -0)
(-9.87812e-30 -4.14174e-15 -0)
(-6.3659e-30 -4.14174e-15 -0)
(-2.19514e-30 -4.14174e-15 -0)
(-4.39028e-30 -4.14174e-15 -0)
(3.73173e-30 -4.14174e-15 -0)
(-4.60979e-30 -4.14174e-15 -0)
(-7.46347e-30 -4.14174e-15 -0)
(4.39028e-31 -4.14174e-15 -0)
(4.60979e-30 -4.14174e-15 -0)
(2.41465e-30 -4.14174e-15 -0)
(-4.39028e-30 -4.14174e-15 -0)
(1.5805e-29 -4.14174e-15 -0)
(8.78055e-30 -4.14174e-15 -0)
(-4.39028e-30 -4.14174e-15 -0)
(-2.19514e-30 -4.14174e-15 -0)
(-7.24396e-30 -4.14174e-15 -0)
(5.26833e-30 -4.14174e-15 -0)
(6.14639e-30 -4.14174e-15 -0)
(-9.43909e-30 -4.14174e-15 -0)
(2.19514e-31 -4.14174e-15 -0)
(1.11952e-29 -4.14174e-15 -0)
(-4.39028e-30 -4.14174e-15 -0)
(-1.09757e-29 -4.14174e-15 -0)
(-8.78055e-31 -4.14174e-15 -0)
(-1.31708e-30 -4.14174e-15 -0)
(-2.41465e-30 -4.14174e-15 -0)
(-6.14639e-30 -4.14174e-15 -0)
(-1.18537e-29 -4.14174e-15 -0)
(-5.26833e-30 -4.14174e-15 -0)
(8.52466e-30 -4.14174e-15 -0)
(7.67219e-30 -4.14174e-15 -0)
(-0 -4.14174e-15 -0)
(-3.8361e-30 -4.14174e-15 -0)
(-4.26233e-31 -4.14174e-15 -0)
(8.95089e-30 -4.14174e-15 -0)
(8.95089e-30 -4.14174e-15 -0)
(8.52466e-31 -4.14174e-15 -0)
(-7.03284e-30 -4.14174e-15 -0)
(-1.04427e-29 -4.14174e-15 -0)
(-1.2787e-30 -4.14174e-15 -0)
(2.98363e-30 -4.14174e-15 -0)
(2.98363e-30 -4.14174e-15 -0)
(1.70493e-30 -4.14174e-15 -0)
(-6.81973e-30 -4.14174e-15 -0)
(-8.73778e-30 -4.14174e-15 -0)
(5.54103e-30 -4.14174e-15 -0)
(1.49182e-29 -4.14174e-15 -0)
(-1.49182e-30 -4.14174e-15 -0)
(-2.98363e-30 -4.14174e-15 -0)
(2.13116e-31 -4.14174e-15 -0)
(-6.39349e-30 -4.14174e-15 -0)
(3.19675e-30 -4.14174e-15 -0)
(7.67219e-30 -4.14174e-15 -0)
(-1.49182e-30 -4.14174e-15 -0)
(-6.18038e-30 -4.14174e-15 -0)
(-2.5574e-30 -4.14174e-15 -0)
(-1.06558e-30 -4.14174e-15 -0)
(4.68856e-30 -4.14174e-15 -0)
(1.72624e-29 -4.14174e-15 -0)
(5.32791e-30 -4.14174e-15 -0)
(-1.08689e-29 -4.14174e-15 -0)
(-7.03284e-30 -4.14174e-15 -0)
(-2.5574e-30 -4.14174e-15 -0)
(-4.47545e-30 -4.14174e-15 -0)
(4.47545e-30 -4.14174e-15 -0)
(-4.90168e-30 -4.14174e-15 -0)
(-8.73778e-30 -4.14174e-15 -0)
(-0 -4.14174e-15 -0)
(5.32791e-30 -4.14174e-15 -0)
(2.77051e-30 -4.14174e-15 -0)
(-4.26233e-30 -4.14174e-15 -0)
(1.72624e-29 -4.14174e-15 -0)
(1.00165e-29 -4.14174e-15 -0)
(-4.47545e-30 -4.14174e-15 -0)
(-2.77051e-30 -4.14174e-15 -0)
(-7.88531e-30 -4.14174e-15 -0)
(5.54103e-30 -4.14174e-15 -0)
(6.39349e-30 -4.14174e-15 -0)
(-1.06558e-29 -4.14174e-15 -0)
(6.39349e-31 -4.14174e-15 -0)
(1.2787e-29 -4.14174e-15 -0)
(-5.75415e-30 -4.14174e-15 -0)
(-1.19345e-29 -4.14174e-15 -0)
(-0 -4.14174e-15 -0)
(-1.06558e-30 -4.14174e-15 -0)
(-2.98363e-30 -4.14174e-15 -0)
(-7.45908e-30 -4.14174e-15 -0)
(-1.34263e-29 -4.14174e-15 -0)
(-5.75415e-30 -4.14174e-15 -0)
(9.72456e-30 -4.14173e-15 -0)
(8.48313e-30 -4.14173e-15 -0)
(4.13811e-31 -4.14173e-15 -0)
(-3.5174e-30 -4.14173e-15 -0)
(-1.24143e-30 -4.14173e-15 -0)
(9.51766e-30 -4.14173e-15 -0)
(1.01384e-29 -4.14173e-15 -0)
(6.20717e-31 -4.14173e-15 -0)
(-7.65551e-30 -4.14173e-15 -0)
(-1.05522e-29 -4.14173e-15 -0)
(-2.48287e-30 -4.14173e-15 -0)
(3.51739e-30 -4.14173e-15 -0)
(3.10358e-30 -4.14173e-15 -0)
(1.24143e-30 -4.14173e-15 -0)
(-7.2417e-30 -4.14173e-15 -0)
(-9.10385e-30 -4.14173e-15 -0)
(6.00026e-30 -4.14173e-15 -0)
(1.65524e-29 -4.14173e-15 -0)
(-1.03453e-30 -4.14173e-15 -0)
(-3.93121e-30 -4.14173e-15 -0)
(-8.27622e-31 -4.14173e-15 -0)
(-5.37954e-30 -4.14173e-15 -0)
(3.51739e-30 -4.14173e-15 -0)
(7.24169e-30 -4.14173e-15 -0)
(-1.65524e-30 -4.14173e-15 -0)
(-6.20717e-30 -4.14173e-15 -0)
(-2.48287e-30 -4.14173e-15 -0)
(-1.03453e-30 -4.14173e-15 -0)
(5.58645e-30 -4.14173e-15 -0)
(1.80008e-29 -4.14173e-15 -0)
(4.75883e-30 -4.14173e-15 -0)
(-1.24143e-29 -4.14173e-15 -0)
(-7.4486e-30 -4.14173e-15 -0)
(-1.86215e-30 -4.14173e-15 -0)
(-5.37954e-30 -4.14173e-15 -0)
(4.75883e-30 -4.14173e-15 -0)
(-4.96573e-30 -4.14173e-15 -0)
(-1.01384e-29 -4.14173e-15 -0)
(-6.20717e-31 -4.14173e-15 -0)
(5.58645e-30 -4.14173e-15 -0)
(3.10358e-30 -4.14173e-15 -0)
(-3.93121e-30 -4.14173e-15 -0)
(1.92422e-29 -4.14173e-15 -0)
(1.07591e-29 -4.14173e-15 -0)
(-3.5174e-30 -4.14173e-15 -0)
(-2.68977e-30 -4.14173e-15 -0)
(-9.10385e-30 -4.14173e-15 -0)
(5.58645e-30 -4.14173e-15 -0)
(6.41407e-30 -4.14173e-15 -0)
(-1.17936e-29 -4.14173e-15 -0)
(-2.06906e-31 -4.14173e-15 -0)
(1.40696e-29 -4.14173e-15 -0)
(-5.79336e-30 -4.14173e-15 -0)
(-1.30351e-29 -4.14173e-15 -0)
(1.03453e-30 -4.14173e-15 -0)
(-1.03453e-30 -4.14173e-15 -0)
(-3.7243e-30 -4.14173e-15 -0)
(-8.89694e-30 -4.14173e-15 -0)
(-1.55179e-29 -4.14173e-15 -0)
(-6.82788e-30 -4.14173e-15 -0)
(1.08473e-29 -4.14173e-15 -0)
(1.00438e-29 -4.14173e-15 -0)
(1.20525e-30 -4.14173e-15 -0)
(-4.82102e-30 -4.14173e-15 -0)
(-1.20525e-30 -4.14173e-15 -0)
(1.08473e-29 -4.14173e-15 -0)
(1.04455e-29 -4.14173e-15 -0)
(4.01751e-31 -4.14173e-15 -0)
(-8.03503e-30 -4.14173e-15 -0)
(-1.20525e-29 -4.14173e-15 -0)
(-2.41051e-30 -4.14173e-15 -0)
(3.21401e-30 -4.14173e-15 -0)
(2.81226e-30 -4.14173e-15 -0)
(1.60701e-30 -4.14173e-15 -0)
(-7.23152e-30 -4.14173e-15 -0)
(-1.04455e-29 -4.14173e-15 -0)
(6.82977e-30 -4.14173e-15 -0)
(1.92841e-29 -4.14173e-15 -0)
(-0 -4.14173e-15 -0)
(-5.22277e-30 -4.14173e-15 -0)
(-2.41051e-30 -4.14173e-15 -0)
(-6.02627e-30 -4.14173e-15 -0)
(4.41926e-30 -4.14173e-15 -0)
(9.24028e-30 -4.14173e-15 -0)
(-3.21401e-30 -4.14173e-15 -0)
(-7.23152e-30 -4.14173e-15 -0)
(-2.41051e-30 -4.14173e-15 -0)
(-8.03503e-31 -4.14173e-15 -0)
(6.82977e-30 -4.14173e-15 -0)
(1.92841e-29 -4.14173e-15 -0)
(4.01751e-30 -4.14173e-15 -0)
(-1.32578e-29 -4.14173e-15 -0)
(-6.82977e-30 -4.14173e-15 -0)
(-2.41051e-30 -4.14173e-15 -0)
(-6.02627e-30 -4.14173e-15 -0)
(6.02627e-30 -4.14173e-15 -0)
(-6.42802e-30 -4.14173e-15 -0)
(-1.16508e-29 -4.14173e-15 -0)
(4.01751e-31 -4.14173e-15 -0)
(5.62452e-30 -4.14173e-15 -0)
(2.81226e-30 -4.14173e-15 -0)
(-3.21401e-30 -4.14173e-15 -0)
(2.04893e-29 -4.14173e-15 -0)
(1.24543e-29 -4.14173e-15 -0)
(-4.41927e-30 -4.14173e-15 -0)
(-3.21401e-30 -4.14173e-15 -0)
(-8.43678e-30 -4.14173e-15 -0)
(6.42802e-30 -4.14173e-15 -0)
(5.22277e-30 -4.14173e-15 -0)
(-1.2856e-29 -4.14173e-15 -0)
(8.03503e-31 -4.14173e-15 -0)
(1.40613e-29 -4.14173e-15 -0)
(-7.23153e-30 -4.14173e-15 -0)
(-1.24543e-29 -4.14173e-15 -0)
(1.60701e-30 -4.14173e-15 -0)
(-8.03503e-31 -4.14173e-15 -0)
(-3.61576e-30 -4.14173e-15 -0)
(-1.04455e-29 -4.14173e-15 -0)
(-1.76771e-29 -4.14173e-15 -0)
(-7.23152e-30 -4.14173e-15 -0)
(1.09212e-29 -4.14173e-15 -0)
(1.09212e-29 -4.14173e-15 -0)
(1.17013e-30 -4.14173e-15 -0)
(-5.07056e-30 -4.14173e-15 -0)
(-1.17013e-30 -4.14173e-15 -0)
(1.17013e-29 -4.14173e-15 -0)
(1.20913e-29 -4.14173e-15 -0)
(-0 -4.14173e-15 -0)
(-8.97099e-30 -4.14173e-15 -0)
(-1.20913e-29 -4.14173e-15 -0)
(-3.90043e-30 -4.14173e-15 -0)
(3.90043e-30 -4.14173e-15 -0)
(3.51039e-30 -4.14173e-15 -0)
(1.95022e-30 -4.14173e-15 -0)
(-8.97099e-30 -4.14173e-15 -0)
(-1.20913e-29 -4.14173e-15 -0)
(8.1909e-30 -4.14173e-15 -0)
(2.10623e-29 -4.14173e-15 -0)
(-7.80086e-31 -4.14173e-15 -0)
(-5.85064e-30 -4.14173e-15 -0)
(-1.56017e-30 -4.14173e-15 -0)
(-5.4606e-30 -4.14173e-15 -0)
(3.51039e-30 -4.14173e-15 -0)
(9.75107e-30 -4.14173e-15 -0)
(-1.56017e-30 -4.14173e-15 -0)
(-9.36103e-30 -4.14173e-15 -0)
(-3.12034e-30 -4.14173e-15 -0)
(-7.80086e-31 -4.14173e-15 -0)
(7.41082e-30 -4.14173e-15 -0)
(2.02822e-29 -4.14173e-15 -0)
(6.24069e-30 -4.14173e-15 -0)
(-1.44316e-29 -4.14173e-15 -0)
(-8.97099e-30 -4.14173e-15 -0)
(-1.17013e-30 -4.14173e-15 -0)
(-5.85064e-30 -4.14173e-15 -0)
(5.4606e-30 -4.14173e-15 -0)
(-5.85064e-30 -4.14173e-15 -0)
(-1.32615e-29 -4.14173e-15 -0)
(-7.80086e-31 -4.14173e-15 -0)
(5.85065e-30 -4.14173e-15 -0)
(1.95021e-30 -4.14173e-15 -0)
(-2.7303e-30 -4.14173e-15 -0)
(2.34026e-29 -4.14173e-15 -0)
(1.40415e-29 -4.14173e-15 -0)
(-4.68052e-30 -4.14173e-15 -0)
(-4.29047e-30 -4.14173e-15 -0)
(-8.1909e-30 -4.14173e-15 -0)
(6.63073e-30 -4.14173e-15 -0)
(4.68052e-30 -4.14173e-15 -0)
(-1.44316e-29 -4.14173e-15 -0)
(1.17013e-30 -4.14173e-15 -0)
(1.56017e-29 -4.14173e-15 -0)
(-7.41082e-30 -4.14173e-15 -0)
(-1.36515e-29 -4.14173e-15 -0)
(2.34026e-30 -4.14173e-15 -0)
(-7.80086e-31 -4.14173e-15 -0)
(-4.29047e-30 -4.14173e-15 -0)
(-1.17013e-29 -4.14173e-15 -0)
(-1.91121e-29 -4.14173e-15 -0)
(-7.80086e-30 -4.14173e-15 -0)
(1.2875e-29 -4.14173e-15 -0)
(1.1739e-29 -4.14173e-15 -0)
(1.89338e-30 -4.14173e-15 -0)
(-4.16543e-30 -4.14173e-15 -0)
(-7.57352e-31 -4.14173e-15 -0)
(1.1739e-29 -4.14173e-15 -0)
(1.21176e-29 -4.14173e-15 -0)
(7.57352e-31 -4.14173e-15 -0)
(-9.08822e-30 -4.14173e-15 -0)
(-1.2875e-29 -4.14173e-15 -0)
(-4.16543e-30 -4.14172e-15 -0)
(3.02941e-30 -4.14172e-15 -0)
(2.65073e-30 -4.14172e-15 -0)
(2.65073e-30 -4.14172e-15 -0)
(-9.08822e-30 -4.14172e-15 -0)
(-1.24963e-29 -4.14172e-15 -0)
(8.33087e-30 -4.14172e-15 -0)
(2.23419e-29 -4.14172e-15 -0)
(7.57352e-31 -4.14172e-15 -0)
(-6.81617e-30 -4.14172e-15 -0)
(-3.02941e-30 -4.14172e-15 -0)
(-4.92279e-30 -4.14172e-15 -0)
(4.16543e-30 -4.14172e-15 -0)
(1.06029e-29 -4.14172e-15 -0)
(-2.27205e-30 -4.14172e-15 -0)
(-1.06029e-29 -4.14172e-15 -0)
(-3.40808e-30 -4.14172e-15 -0)
(-7.57352e-31 -4.14172e-15 -0)
(1.02242e-29 -4.14172e-15 -0)
(2.23419e-29 -4.14172e-15 -0)
(4.92279e-30 -4.14172e-15 -0)
(-1.62831e-29 -4.14172e-15 -0)
(-8.70954e-30 -4.14172e-15 -0)
(-3.02941e-30 -4.14172e-15 -0)
(-5.68014e-30 -4.14172e-15 -0)
(6.43749e-30 -4.14172e-15 -0)
(-7.95219e-30 -4.14172e-15 -0)
(-1.36323e-29 -4.14172e-15 -0)
(1.13603e-30 -4.14172e-15 -0)
(5.30146e-30 -4.14172e-15 -0)
(3.02941e-30 -4.14172e-15 -0)
(-2.27206e-30 -4.14172e-15 -0)
(2.38566e-29 -4.14172e-15 -0)
(1.43897e-29 -4.14172e-15 -0)
(-4.54411e-30 -4.14172e-15 -0)
(-4.92279e-30 -4.14173e-15 -0)
(-7.95219e-30 -4.14173e-15 -0)
(7.95219e-30 -4.14173e-15 -0)
(3.40808e-30 -4.14173e-15 -0)
(-1.62831e-29 -4.14173e-15 -0)
(1.5147e-30 -4.14173e-15 -0)
(1.70404e-29 -4.14173e-15 -0)
(-8.33087e-30 -4.14173e-15 -0)
(-1.4011e-29 -4.14173e-15 -0)
(3.40808e-30 -4.14173e-15 -0)
(-1.13603e-30 -4.14173e-15 -0)
(-4.16543e-30 -4.14173e-15 -0)
(-1.24963e-29 -4.14173e-15 -0)
(-2.15845e-29 -4.14173e-15 -0)
(-7.95219e-30 -4.14173e-15 -0)