/*--------------------------------*- C++ -*----------------------------------*\
| =========                 |                                                 |
| \\      /  F ield         | foam-extend: Open Source CFD                    |
|  \\    /   O peration     | Version:     4.0                                |
|   \\  /    A nd           | Web:         http://www.foam-extend.org         |
|    \\/     M anipulation  |                                                 |
\*---------------------------------------------------------------------------*/
FoamFile
{
    version     2.0;
    format      ascii;
    class       volScalarField;
    location    "10";
    object      p;
}
// * * * * * * * * * * * * * * * * * * * * * * * * * * * * * * * * * * * * * //

dimensions      [0 2 -2 0 0 0 0];

internalField   nonuniform List<scalar> 
6960
(
3.84196e-11
5.74989e-11
5.65588e-11
5.68237e-11
5.65859e-11
5.67028e-11
5.66133e-11
5.66751e-11
5.6643e-11
5.66771e-11
5.66624e-11
5.66735e-11
5.66604e-11
5.66602e-11
5.66481e-11
5.66419e-11
5.66333e-11
5.66314e-11
5.66289e-11
5.66285e-11
5.66283e-11
5.66298e-11
5.66295e-11
5.66282e-11
5.66267e-11
5.66252e-11
5.66226e-11
5.66195e-11
5.66176e-11
5.66167e-11
5.66153e-11
5.66135e-11
5.66124e-11
5.66121e-11
5.66115e-11
5.66102e-11
5.66093e-11
5.6609e-11
5.66089e-11
5.66089e-11
5.66087e-11
5.66079e-11
5.66066e-11
5.66057e-11
5.66047e-11
5.66023e-11
5.65991e-11
5.6598e-11
5.65988e-11
5.65999e-11
5.66002e-11
5.66027e-11
5.66056e-11
5.66084e-11
5.66072e-11
5.66073e-11
5.66038e-11
5.66051e-11
5.6599e-11
5.6607e-11
5.47761e-11
5.74825e-11
5.65546e-11
5.68241e-11
5.65857e-11
5.67028e-11
5.66132e-11
5.66751e-11
5.6643e-11
5.66771e-11
5.66624e-11
5.66735e-11
5.66605e-11
5.66602e-11
5.66481e-11
5.66419e-11
5.66333e-11
5.66314e-11
5.66289e-11
5.66284e-11
5.66284e-11
5.66298e-11
5.66295e-11
5.66282e-11
5.66267e-11
5.66253e-11
5.66226e-11
5.66195e-11
5.66176e-11
5.66167e-11
5.66153e-11
5.66135e-11
5.66124e-11
5.66121e-11
5.66115e-11
5.66103e-11
5.66093e-11
5.6609e-11
5.66089e-11
5.66089e-11
5.66087e-11
5.66079e-11
5.66066e-11
5.66057e-11
5.66047e-11
5.66023e-11
5.65991e-11
5.6598e-11
5.65988e-11
5.66e-11
5.66002e-11
5.66027e-11
5.66056e-11
5.66084e-11
5.66072e-11
5.66073e-11
5.66038e-11
5.66051e-11
5.6599e-11
5.6607e-11
5.74692e-11
5.74598e-11
5.65513e-11
5.68247e-11
5.65853e-11
5.67029e-11
5.66131e-11
5.66751e-11
5.6643e-11
5.66772e-11
5.66625e-11
5.66736e-11
5.66605e-11
5.66603e-11
5.66482e-11
5.66419e-11
5.66333e-11
5.66314e-11
5.66289e-11
5.66284e-11
5.66284e-11
5.66298e-11
5.66295e-11
5.66282e-11
5.66267e-11
5.66253e-11
5.66226e-11
5.66195e-11
5.66176e-11
5.66168e-11
5.66154e-11
5.66135e-11
5.66124e-11
5.66121e-11
5.66115e-11
5.66103e-11
5.66093e-11
5.6609e-11
5.66089e-11
5.66089e-11
5.66087e-11
5.66079e-11
5.66066e-11
5.66057e-11
5.66047e-11
5.66023e-11
5.65991e-11
5.6598e-11
5.65988e-11
5.65999e-11
5.66002e-11
5.66027e-11
5.66055e-11
5.66084e-11
5.66072e-11
5.66073e-11
5.66038e-11
5.66051e-11
5.65991e-11
5.6607e-11
5.61882e-11
5.74366e-11
5.65487e-11
5.68252e-11
5.65851e-11
5.6703e-11
5.66129e-11
5.66751e-11
5.66428e-11
5.66772e-11
5.66625e-11
5.66737e-11
5.66607e-11
5.66604e-11
5.66483e-11
5.6642e-11
5.66334e-11
5.66315e-11
5.66289e-11
5.66285e-11
5.66284e-11
5.66298e-11
5.66295e-11
5.66282e-11
5.66267e-11
5.66253e-11
5.66226e-11
5.66196e-11
5.66177e-11
5.66168e-11
5.66154e-11
5.66135e-11
5.66124e-11
5.66122e-11
5.66115e-11
5.66103e-11
5.66093e-11
5.6609e-11
5.66089e-11
5.66089e-11
5.66087e-11
5.66079e-11
5.66066e-11
5.66058e-11
5.66047e-11
5.66024e-11
5.65991e-11
5.65981e-11
5.65988e-11
5.65999e-11
5.66002e-11
5.66026e-11
5.66055e-11
5.66084e-11
5.66072e-11
5.66073e-11
5.66039e-11
5.66052e-11
5.65991e-11
5.6607e-11
5.56625e-11
5.74149e-11
5.65462e-11
5.68256e-11
5.65849e-11
5.67031e-11
5.66127e-11
5.6675e-11
5.66427e-11
5.66771e-11
5.66625e-11
5.66738e-11
5.66608e-11
5.66606e-11
5.66484e-11
5.66422e-11
5.66335e-11
5.66315e-11
5.66289e-11
5.66285e-11
5.66284e-11
5.66298e-11
5.66296e-11
5.66283e-11
5.66268e-11
5.66254e-11
5.66227e-11
5.66196e-11
5.66177e-11
5.66168e-11
5.66154e-11
5.66135e-11
5.66124e-11
5.66122e-11
5.66116e-11
5.66103e-11
5.66093e-11
5.6609e-11
5.66089e-11
5.66089e-11
5.66087e-11
5.6608e-11
5.66066e-11
5.66058e-11
5.66048e-11
5.66024e-11
5.65992e-11
5.65981e-11
5.65988e-11
5.65999e-11
5.66001e-11
5.66026e-11
5.66054e-11
5.66084e-11
5.66072e-11
5.66074e-11
5.66039e-11
5.66052e-11
5.65991e-11
5.6607e-11
5.57273e-11
5.73938e-11
5.65438e-11
5.6826e-11
5.65847e-11
5.67031e-11
5.66125e-11
5.66748e-11
5.66425e-11
5.6677e-11
5.66625e-11
5.66739e-11
5.6661e-11
5.66608e-11
5.66487e-11
5.66424e-11
5.66336e-11
5.66316e-11
5.6629e-11
5.66285e-11
5.66284e-11
5.66298e-11
5.66296e-11
5.66284e-11
5.66269e-11
5.66255e-11
5.66228e-11
5.66197e-11
5.66178e-11
5.66169e-11
5.66155e-11
5.66136e-11
5.66125e-11
5.66122e-11
5.66116e-11
5.66103e-11
5.66094e-11
5.6609e-11
5.66089e-11
5.66089e-11
5.66087e-11
5.6608e-11
5.66067e-11
5.66058e-11
5.66048e-11
5.66025e-11
5.65992e-11
5.65981e-11
5.65988e-11
5.65999e-11
5.66e-11
5.66025e-11
5.66054e-11
5.66083e-11
5.66072e-11
5.66074e-11
5.66039e-11
5.66053e-11
5.65991e-11
5.66071e-11
5.58216e-11
5.73728e-11
5.65416e-11
5.68264e-11
5.65846e-11
5.67032e-11
5.66122e-11
5.66746e-11
5.66422e-11
5.66769e-11
5.66624e-11
5.6674e-11
5.66612e-11
5.66611e-11
5.66489e-11
5.66426e-11
5.66338e-11
5.66317e-11
5.6629e-11
5.66285e-11
5.66284e-11
5.66299e-11
5.66297e-11
5.66284e-11
5.6627e-11
5.66256e-11
5.66229e-11
5.66198e-11
5.66179e-11
5.6617e-11
5.66155e-11
5.66137e-11
5.66125e-11
5.66123e-11
5.66117e-11
5.66104e-11
5.66094e-11
5.66091e-11
5.66089e-11
5.66089e-11
5.66087e-11
5.6608e-11
5.66067e-11
5.66059e-11
5.66049e-11
5.66025e-11
5.65993e-11
5.65982e-11
5.65988e-11
5.65998e-11
5.66e-11
5.66024e-11
5.66053e-11
5.66082e-11
5.66071e-11
5.66075e-11
5.6604e-11
5.66054e-11
5.65992e-11
5.66071e-11
5.58555e-11
5.73517e-11
5.65397e-11
5.68267e-11
5.65846e-11
5.67032e-11
5.6612e-11
5.66744e-11
5.66419e-11
5.66767e-11
5.66624e-11
5.66742e-11
5.66614e-11
5.66614e-11
5.66492e-11
5.66429e-11
5.66341e-11
5.66319e-11
5.66291e-11
5.66286e-11
5.66285e-11
5.66299e-11
5.66297e-11
5.66285e-11
5.66271e-11
5.66257e-11
5.6623e-11
5.66199e-11
5.6618e-11
5.6617e-11
5.66156e-11
5.66137e-11
5.66126e-11
5.66123e-11
5.66117e-11
5.66104e-11
5.66094e-11
5.66091e-11
5.6609e-11
5.66089e-11
5.66088e-11
5.6608e-11
5.66068e-11
5.6606e-11
5.6605e-11
5.66026e-11
5.65994e-11
5.65982e-11
5.65988e-11
5.65997e-11
5.65999e-11
5.66023e-11
5.66051e-11
5.66082e-11
5.66071e-11
5.66075e-11
5.6604e-11
5.66054e-11
5.65992e-11
5.66071e-11
5.58745e-11
5.73307e-11
5.6538e-11
5.6827e-11
5.65846e-11
5.67033e-11
5.66117e-11
5.66741e-11
5.66416e-11
5.66765e-11
5.66623e-11
5.66743e-11
5.66617e-11
5.66618e-11
5.66496e-11
5.66433e-11
5.66343e-11
5.66321e-11
5.66292e-11
5.66286e-11
5.66285e-11
5.663e-11
5.66298e-11
5.66286e-11
5.66272e-11
5.66258e-11
5.66232e-11
5.66201e-11
5.66181e-11
5.66171e-11
5.66157e-11
5.66138e-11
5.66127e-11
5.66124e-11
5.66118e-11
5.66105e-11
5.66095e-11
5.66091e-11
5.6609e-11
5.66089e-11
5.66088e-11
5.66081e-11
5.66068e-11
5.66061e-11
5.66051e-11
5.66027e-11
5.65995e-11
5.65983e-11
5.65988e-11
5.65997e-11
5.65998e-11
5.66022e-11
5.6605e-11
5.66081e-11
5.66071e-11
5.66075e-11
5.66041e-11
5.66055e-11
5.65992e-11
5.66071e-11
5.58973e-11
5.73099e-11
5.65366e-11
5.68273e-11
5.65847e-11
5.67034e-11
5.66115e-11
5.66738e-11
5.66412e-11
5.66762e-11
5.66622e-11
5.66744e-11
5.6662e-11
5.66621e-11
5.665e-11
5.66436e-11
5.66347e-11
5.66323e-11
5.66294e-11
5.66287e-11
5.66286e-11
5.663e-11
5.66299e-11
5.66287e-11
5.66274e-11
5.6626e-11
5.66233e-11
5.66203e-11
5.66183e-11
5.66173e-11
5.66158e-11
5.66139e-11
5.66128e-11
5.66125e-11
5.66118e-11
5.66106e-11
5.66096e-11
5.66092e-11
5.6609e-11
5.66089e-11
5.66088e-11
5.66081e-11
5.66069e-11
5.66061e-11
5.66052e-11
5.66028e-11
5.65996e-11
5.65984e-11
5.65988e-11
5.65996e-11
5.65997e-11
5.6602e-11
5.66048e-11
5.6608e-11
5.6607e-11
5.66076e-11
5.66041e-11
5.66056e-11
5.65993e-11
5.66071e-11
5.59224e-11
5.72893e-11
5.65355e-11
5.68275e-11
5.65849e-11
5.67035e-11
5.66112e-11
5.66734e-11
5.66408e-11
5.66759e-11
5.66621e-11
5.66745e-11
5.66623e-11
5.66626e-11
5.66505e-11
5.66441e-11
5.6635e-11
5.66325e-11
5.66295e-11
5.66288e-11
5.66286e-11
5.66301e-11
5.663e-11
5.66289e-11
5.66275e-11
5.66262e-11
5.66235e-11
5.66204e-11
5.66184e-11
5.66174e-11
5.66159e-11
5.6614e-11
5.66129e-11
5.66126e-11
5.66119e-11
5.66107e-11
5.66096e-11
5.66092e-11
5.6609e-11
5.6609e-11
5.66088e-11
5.66082e-11
5.6607e-11
5.66062e-11
5.66053e-11
5.6603e-11
5.65997e-11
5.65985e-11
5.65988e-11
5.65996e-11
5.65995e-11
5.66019e-11
5.66047e-11
5.66079e-11
5.6607e-11
5.66076e-11
5.66042e-11
5.66057e-11
5.65993e-11
5.66071e-11
5.59475e-11
5.72688e-11
5.65346e-11
5.68276e-11
5.65852e-11
5.67036e-11
5.6611e-11
5.66731e-11
5.66403e-11
5.66756e-11
5.66619e-11
5.66746e-11
5.66626e-11
5.6663e-11
5.6651e-11
5.66446e-11
5.66354e-11
5.66328e-11
5.66297e-11
5.66289e-11
5.66287e-11
5.66301e-11
5.663e-11
5.6629e-11
5.66277e-11
5.66264e-11
5.66237e-11
5.66206e-11
5.66186e-11
5.66176e-11
5.66161e-11
5.66142e-11
5.6613e-11
5.66127e-11
5.6612e-11
5.66107e-11
5.66097e-11
5.66093e-11
5.66091e-11
5.6609e-11
5.66088e-11
5.66082e-11
5.66071e-11
5.66064e-11
5.66054e-11
5.66031e-11
5.65999e-11
5.65985e-11
5.65988e-11
5.65995e-11
5.65994e-11
5.66017e-11
5.66045e-11
5.66077e-11
5.66069e-11
5.66077e-11
5.66042e-11
5.66058e-11
5.65994e-11
5.66071e-11
5.59721e-11
5.72485e-11
5.65339e-11
5.68277e-11
5.65856e-11
5.67038e-11
5.66108e-11
5.66727e-11
5.66399e-11
5.66752e-11
5.66617e-11
5.66747e-11
5.66629e-11
5.66635e-11
5.66515e-11
5.66451e-11
5.66359e-11
5.66332e-11
5.66299e-11
5.66291e-11
5.66288e-11
5.66302e-11
5.66301e-11
5.66292e-11
5.66279e-11
5.66266e-11
5.66239e-11
5.66209e-11
5.66188e-11
5.66177e-11
5.66162e-11
5.66143e-11
5.66132e-11
5.66128e-11
5.66121e-11
5.66108e-11
5.66098e-11
5.66094e-11
5.66091e-11
5.6609e-11
5.66089e-11
5.66083e-11
5.66071e-11
5.66065e-11
5.66055e-11
5.66033e-11
5.66e-11
5.65987e-11
5.65988e-11
5.65994e-11
5.65993e-11
5.66016e-11
5.66043e-11
5.66076e-11
5.66068e-11
5.66077e-11
5.66043e-11
5.66059e-11
5.65994e-11
5.66071e-11
5.59966e-11
5.72284e-11
5.65335e-11
5.68277e-11
5.65861e-11
5.67039e-11
5.66107e-11
5.66723e-11
5.66394e-11
5.66748e-11
5.66615e-11
5.66747e-11
5.66632e-11
5.66639e-11
5.66521e-11
5.66457e-11
5.66364e-11
5.66335e-11
5.66302e-11
5.66292e-11
5.66289e-11
5.66303e-11
5.66303e-11
5.66293e-11
5.66281e-11
5.66268e-11
5.66242e-11
5.66211e-11
5.6619e-11
5.66179e-11
5.66164e-11
5.66145e-11
5.66133e-11
5.66129e-11
5.66122e-11
5.6611e-11
5.66099e-11
5.66094e-11
5.66092e-11
5.6609e-11
5.66089e-11
5.66083e-11
5.66072e-11
5.66066e-11
5.66057e-11
5.66034e-11
5.66002e-11
5.65988e-11
5.65988e-11
5.65993e-11
5.65991e-11
5.66014e-11
5.66041e-11
5.66074e-11
5.66067e-11
5.66078e-11
5.66044e-11
5.66061e-11
5.65995e-11
5.66071e-11
5.60209e-11
5.72085e-11
5.65334e-11
5.68276e-11
5.65867e-11
5.67042e-11
5.66106e-11
5.66719e-11
5.66389e-11
5.66743e-11
5.66612e-11
5.66748e-11
5.66635e-11
5.66644e-11
5.66527e-11
5.66463e-11
5.6637e-11
5.66339e-11
5.66304e-11
5.66294e-11
5.6629e-11
5.66304e-11
5.66304e-11
5.66295e-11
5.66283e-11
5.6627e-11
5.66244e-11
5.66214e-11
5.66193e-11
5.66181e-11
5.66166e-11
5.66147e-11
5.66135e-11
5.66131e-11
5.66124e-11
5.66111e-11
5.661e-11
5.66095e-11
5.66092e-11
5.66091e-11
5.66089e-11
5.66084e-11
5.66073e-11
5.66067e-11
5.66058e-11
5.66036e-11
5.66004e-11
5.65989e-11
5.65988e-11
5.65993e-11
5.6599e-11
5.66012e-11
5.66039e-11
5.66073e-11
5.66066e-11
5.66078e-11
5.66044e-11
5.66062e-11
5.65995e-11
5.66072e-11
5.6045e-11
5.71888e-11
5.65335e-11
5.68275e-11
5.65874e-11
5.67044e-11
5.66105e-11
5.66715e-11
5.66384e-11
5.66738e-11
5.66609e-11
5.66748e-11
5.66638e-11
5.66649e-11
5.66533e-11
5.6647e-11
5.66376e-11
5.66344e-11
5.66307e-11
5.66296e-11
5.66292e-11
5.66305e-11
5.66305e-11
5.66297e-11
5.66285e-11
5.66273e-11
5.66247e-11
5.66217e-11
5.66195e-11
5.66183e-11
5.66168e-11
5.66149e-11
5.66137e-11
5.66132e-11
5.66125e-11
5.66112e-11
5.66101e-11
5.66096e-11
5.66093e-11
5.66091e-11
5.6609e-11
5.66084e-11
5.66074e-11
5.66069e-11
5.6606e-11
5.66038e-11
5.66006e-11
5.65991e-11
5.65989e-11
5.65992e-11
5.65989e-11
5.6601e-11
5.66036e-11
5.66071e-11
5.66065e-11
5.66078e-11
5.66045e-11
5.66063e-11
5.65996e-11
5.66072e-11
5.60688e-11
5.71693e-11
5.65339e-11
5.68272e-11
5.65882e-11
5.67047e-11
5.66105e-11
5.66711e-11
5.66378e-11
5.66733e-11
5.66606e-11
5.66748e-11
5.66641e-11
5.66655e-11
5.6654e-11
5.66477e-11
5.66382e-11
5.66349e-11
5.66311e-11
5.66299e-11
5.66293e-11
5.66306e-11
5.66307e-11
5.66299e-11
5.66288e-11
5.66275e-11
5.6625e-11
5.6622e-11
5.66198e-11
5.66186e-11
5.6617e-11
5.66151e-11
5.66139e-11
5.66134e-11
5.66127e-11
5.66113e-11
5.66102e-11
5.66097e-11
5.66094e-11
5.66092e-11
5.6609e-11
5.66085e-11
5.66076e-11
5.6607e-11
5.66061e-11
5.6604e-11
5.66008e-11
5.65992e-11
5.65989e-11
5.65992e-11
5.65987e-11
5.66009e-11
5.66034e-11
5.66069e-11
5.66064e-11
5.66079e-11
5.66045e-11
5.66064e-11
5.65996e-11
5.66072e-11
5.60924e-11
5.71502e-11
5.65345e-11
5.68269e-11
5.65891e-11
5.6705e-11
5.66106e-11
5.66708e-11
5.66373e-11
5.66727e-11
5.66603e-11
5.66747e-11
5.66644e-11
5.6666e-11
5.66546e-11
5.66484e-11
5.66389e-11
5.66354e-11
5.66315e-11
5.66301e-11
5.66295e-11
5.66308e-11
5.66308e-11
5.66301e-11
5.6629e-11
5.66278e-11
5.66253e-11
5.66223e-11
5.66201e-11
5.66188e-11
5.66172e-11
5.66153e-11
5.66141e-11
5.66136e-11
5.66128e-11
5.66115e-11
5.66104e-11
5.66098e-11
5.66094e-11
5.66092e-11
5.66091e-11
5.66086e-11
5.66077e-11
5.66072e-11
5.66063e-11
5.66042e-11
5.6601e-11
5.65994e-11
5.6599e-11
5.65991e-11
5.65986e-11
5.66007e-11
5.66031e-11
5.66067e-11
5.66063e-11
5.66079e-11
5.66046e-11
5.66066e-11
5.65997e-11
5.66072e-11
5.61157e-11
5.71312e-11
5.65353e-11
5.68265e-11
5.65901e-11
5.67054e-11
5.66108e-11
5.66704e-11
5.66368e-11
5.66721e-11
5.66599e-11
5.66746e-11
5.66646e-11
5.66665e-11
5.66553e-11
5.66492e-11
5.66396e-11
5.6636e-11
5.66319e-11
5.66304e-11
5.66297e-11
5.66309e-11
5.6631e-11
5.66303e-11
5.66293e-11
5.66281e-11
5.66256e-11
5.66226e-11
5.66204e-11
5.66191e-11
5.66175e-11
5.66155e-11
5.66143e-11
5.66138e-11
5.6613e-11
5.66117e-11
5.66105e-11
5.66099e-11
5.66095e-11
5.66093e-11
5.66091e-11
5.66086e-11
5.66078e-11
5.66073e-11
5.66065e-11
5.66044e-11
5.66013e-11
5.65996e-11
5.65991e-11
5.65991e-11
5.65985e-11
5.66005e-11
5.66029e-11
5.66065e-11
5.66061e-11
5.66079e-11
5.66046e-11
5.66067e-11
5.65998e-11
5.66072e-11
5.61387e-11
5.71126e-11
5.65364e-11
5.6826e-11
5.65912e-11
5.67058e-11
5.6611e-11
5.66701e-11
5.66363e-11
5.66716e-11
5.66595e-11
5.66745e-11
5.66649e-11
5.6667e-11
5.6656e-11
5.665e-11
5.66403e-11
5.66366e-11
5.66323e-11
5.66308e-11
5.663e-11
5.66311e-11
5.66312e-11
5.66305e-11
5.66295e-11
5.66284e-11
5.66259e-11
5.6623e-11
5.66208e-11
5.66194e-11
5.66177e-11
5.66158e-11
5.66145e-11
5.6614e-11
5.66132e-11
5.66118e-11
5.66107e-11
5.66101e-11
5.66096e-11
5.66094e-11
5.66092e-11
5.66087e-11
5.66079e-11
5.66075e-11
5.66067e-11
5.66047e-11
5.66015e-11
5.65998e-11
5.65992e-11
5.65991e-11
5.65984e-11
5.66003e-11
5.66026e-11
5.66062e-11
5.6606e-11
5.66079e-11
5.66047e-11
5.66068e-11
5.65998e-11
5.66072e-11
5.61613e-11
5.70942e-11
5.65378e-11
5.68254e-11
5.65925e-11
5.67063e-11
5.66113e-11
5.66698e-11
5.66359e-11
5.66709e-11
5.66591e-11
5.66744e-11
5.66651e-11
5.66675e-11
5.66567e-11
5.66508e-11
5.66411e-11
5.66372e-11
5.66328e-11
5.66311e-11
5.66302e-11
5.66313e-11
5.66314e-11
5.66308e-11
5.66298e-11
5.66287e-11
5.66263e-11
5.66233e-11
5.66211e-11
5.66197e-11
5.6618e-11
5.66161e-11
5.66148e-11
5.66142e-11
5.66134e-11
5.6612e-11
5.66109e-11
5.66102e-11
5.66097e-11
5.66095e-11
5.66093e-11
5.66088e-11
5.6608e-11
5.66076e-11
5.66069e-11
5.66049e-11
5.66018e-11
5.66e-11
5.65993e-11
5.65991e-11
5.65983e-11
5.66001e-11
5.66024e-11
5.6606e-11
5.66058e-11
5.66079e-11
5.66047e-11
5.66069e-11
5.65999e-11
5.66073e-11
5.61835e-11
5.70761e-11
5.65393e-11
5.68246e-11
5.65939e-11
5.67068e-11
5.66117e-11
5.66696e-11
5.66354e-11
5.66703e-11
5.66586e-11
5.66742e-11
5.66653e-11
5.66679e-11
5.66574e-11
5.66516e-11
5.66419e-11
5.66379e-11
5.66334e-11
5.66315e-11
5.66305e-11
5.66315e-11
5.66316e-11
5.6631e-11
5.66301e-11
5.6629e-11
5.66266e-11
5.66237e-11
5.66215e-11
5.662e-11
5.66183e-11
5.66163e-11
5.6615e-11
5.66144e-11
5.66136e-11
5.66122e-11
5.6611e-11
5.66103e-11
5.66098e-11
5.66095e-11
5.66093e-11
5.66089e-11
5.66082e-11
5.66078e-11
5.6607e-11
5.66051e-11
5.66021e-11
5.66003e-11
5.65994e-11
5.65991e-11
5.65982e-11
5.66e-11
5.66021e-11
5.66058e-11
5.66056e-11
5.66078e-11
5.66047e-11
5.66071e-11
5.66e-11
5.66073e-11
5.62053e-11
5.70584e-11
5.65411e-11
5.68238e-11
5.65953e-11
5.67073e-11
5.66122e-11
5.66694e-11
5.66351e-11
5.66697e-11
5.66582e-11
5.6674e-11
5.66654e-11
5.66684e-11
5.66581e-11
5.66524e-11
5.66428e-11
5.66387e-11
5.66339e-11
5.6632e-11
5.66309e-11
5.66318e-11
5.66318e-11
5.66313e-11
5.66304e-11
5.66293e-11
5.6627e-11
5.66241e-11
5.66219e-11
5.66204e-11
5.66186e-11
5.66166e-11
5.66153e-11
5.66147e-11
5.66138e-11
5.66124e-11
5.66112e-11
5.66105e-11
5.661e-11
5.66096e-11
5.66094e-11
5.6609e-11
5.66083e-11
5.66079e-11
5.66072e-11
5.66054e-11
5.66023e-11
5.66005e-11
5.65995e-11
5.65991e-11
5.65981e-11
5.65998e-11
5.66018e-11
5.66055e-11
5.66054e-11
5.66078e-11
5.66047e-11
5.66072e-11
5.66001e-11
5.66073e-11
5.62266e-11
5.70409e-11
5.65431e-11
5.68228e-11
5.65969e-11
5.67079e-11
5.66128e-11
5.66693e-11
5.66347e-11
5.66691e-11
5.66577e-11
5.66737e-11
5.66656e-11
5.66688e-11
5.66588e-11
5.66533e-11
5.66437e-11
5.66394e-11
5.66345e-11
5.66324e-11
5.66312e-11
5.6632e-11
5.6632e-11
5.66316e-11
5.66307e-11
5.66297e-11
5.66274e-11
5.66245e-11
5.66223e-11
5.66207e-11
5.66189e-11
5.6617e-11
5.66156e-11
5.66149e-11
5.6614e-11
5.66127e-11
5.66115e-11
5.66107e-11
5.66101e-11
5.66097e-11
5.66095e-11
5.66091e-11
5.66084e-11
5.66081e-11
5.66074e-11
5.66056e-11
5.66026e-11
5.66008e-11
5.65997e-11
5.65992e-11
5.65981e-11
5.65996e-11
5.66016e-11
5.66052e-11
5.66052e-11
5.66077e-11
5.66047e-11
5.66073e-11
5.66001e-11
5.66073e-11
5.62475e-11
5.70238e-11
5.65453e-11
5.68216e-11
5.65986e-11
5.67085e-11
5.66136e-11
5.66692e-11
5.66344e-11
5.66685e-11
5.66572e-11
5.66735e-11
5.66657e-11
5.66692e-11
5.66595e-11
5.66541e-11
5.66446e-11
5.66402e-11
5.66352e-11
5.6633e-11
5.66316e-11
5.66323e-11
5.66323e-11
5.66318e-11
5.6631e-11
5.663e-11
5.66277e-11
5.66249e-11
5.66227e-11
5.66211e-11
5.66193e-11
5.66173e-11
5.66159e-11
5.66152e-11
5.66143e-11
5.66129e-11
5.66117e-11
5.66109e-11
5.66103e-11
5.66098e-11
5.66096e-11
5.66092e-11
5.66085e-11
5.66082e-11
5.66076e-11
5.66059e-11
5.66029e-11
5.66011e-11
5.65999e-11
5.65992e-11
5.6598e-11
5.65995e-11
5.66013e-11
5.6605e-11
5.6605e-11
5.66076e-11
5.66047e-11
5.66074e-11
5.66002e-11
5.66073e-11
5.6268e-11
5.7007e-11
5.65477e-11
5.68204e-11
5.66005e-11
5.67092e-11
5.66144e-11
5.66692e-11
5.66342e-11
5.66679e-11
5.66567e-11
5.66732e-11
5.66657e-11
5.66695e-11
5.66601e-11
5.6655e-11
5.66455e-11
5.6641e-11
5.66359e-11
5.66335e-11
5.6632e-11
5.66326e-11
5.66325e-11
5.66321e-11
5.66314e-11
5.66304e-11
5.66281e-11
5.66254e-11
5.66231e-11
5.66215e-11
5.66197e-11
5.66176e-11
5.66163e-11
5.66155e-11
5.66145e-11
5.66132e-11
5.66119e-11
5.66111e-11
5.66104e-11
5.661e-11
5.66097e-11
5.66093e-11
5.66087e-11
5.66084e-11
5.66078e-11
5.66061e-11
5.66032e-11
5.66014e-11
5.66001e-11
5.65993e-11
5.6598e-11
5.65994e-11
5.6601e-11
5.66047e-11
5.66048e-11
5.66076e-11
5.66047e-11
5.66075e-11
5.66003e-11
5.66073e-11
5.62879e-11
5.69906e-11
5.65502e-11
5.68189e-11
5.66024e-11
5.67099e-11
5.66153e-11
5.66693e-11
5.66341e-11
5.66673e-11
5.66562e-11
5.66728e-11
5.66657e-11
5.66699e-11
5.66608e-11
5.66558e-11
5.66464e-11
5.66419e-11
5.66366e-11
5.66341e-11
5.66324e-11
5.66329e-11
5.66328e-11
5.66325e-11
5.66317e-11
5.66307e-11
5.66286e-11
5.66258e-11
5.66236e-11
5.66219e-11
5.662e-11
5.6618e-11
5.66166e-11
5.66158e-11
5.66148e-11
5.66134e-11
5.66122e-11
5.66113e-11
5.66106e-11
5.66101e-11
5.66098e-11
5.66094e-11
5.66088e-11
5.66086e-11
5.6608e-11
5.66064e-11
5.66036e-11
5.66017e-11
5.66003e-11
5.65994e-11
5.6598e-11
5.65993e-11
5.66008e-11
5.66044e-11
5.66045e-11
5.66075e-11
5.66047e-11
5.66076e-11
5.66003e-11
5.66074e-11
5.63073e-11
5.69746e-11
5.65529e-11
5.68173e-11
5.66044e-11
5.67106e-11
5.66164e-11
5.66694e-11
5.6634e-11
5.66668e-11
5.66557e-11
5.66724e-11
5.66657e-11
5.66701e-11
5.66614e-11
5.66567e-11
5.66474e-11
5.66428e-11
5.66374e-11
5.66347e-11
5.66329e-11
5.66333e-11
5.66331e-11
5.66328e-11
5.66321e-11
5.66311e-11
5.6629e-11
5.66263e-11
5.6624e-11
5.66223e-11
5.66204e-11
5.66184e-11
5.6617e-11
5.66161e-11
5.66151e-11
5.66137e-11
5.66124e-11
5.66115e-11
5.66108e-11
5.66102e-11
5.66099e-11
5.66095e-11
5.66089e-11
5.66087e-11
5.66082e-11
5.66066e-11
5.66039e-11
5.6602e-11
5.66005e-11
5.65996e-11
5.6598e-11
5.65992e-11
5.66006e-11
5.66042e-11
5.66043e-11
5.66073e-11
5.66046e-11
5.66076e-11
5.66004e-11
5.66074e-11
5.63262e-11
5.69589e-11
5.65558e-11
5.68156e-11
5.66065e-11
5.67113e-11
5.66176e-11
5.66696e-11
5.6634e-11
5.66662e-11
5.66552e-11
5.6672e-11
5.66657e-11
5.66704e-11
5.6662e-11
5.66575e-11
5.66483e-11
5.66437e-11
5.66381e-11
5.66353e-11
5.66334e-11
5.66337e-11
5.66335e-11
5.66331e-11
5.66324e-11
5.66315e-11
5.66294e-11
5.66268e-11
5.66245e-11
5.66228e-11
5.66208e-11
5.66188e-11
5.66173e-11
5.66164e-11
5.66154e-11
5.6614e-11
5.66127e-11
5.66117e-11
5.6611e-11
5.66104e-11
5.661e-11
5.66096e-11
5.66091e-11
5.66089e-11
5.66084e-11
5.66069e-11
5.66042e-11
5.66023e-11
5.66007e-11
5.65997e-11
5.65981e-11
5.65991e-11
5.66004e-11
5.66039e-11
5.6604e-11
5.66072e-11
5.66046e-11
5.66077e-11
5.66004e-11
5.66074e-11
5.63446e-11
5.69436e-11
5.65588e-11
5.68137e-11
5.66086e-11
5.6712e-11
5.66189e-11
5.66699e-11
5.66341e-11
5.66658e-11
5.66548e-11
5.66716e-11
5.66656e-11
5.66706e-11
5.66625e-11
5.66583e-11
5.66493e-11
5.66446e-11
5.6639e-11
5.6636e-11
5.6634e-11
5.66341e-11
5.66338e-11
5.66335e-11
5.66328e-11
5.66319e-11
5.66298e-11
5.66273e-11
5.6625e-11
5.66232e-11
5.66213e-11
5.66192e-11
5.66177e-11
5.66168e-11
5.66157e-11
5.66143e-11
5.6613e-11
5.6612e-11
5.66112e-11
5.66106e-11
5.66101e-11
5.66097e-11
5.66092e-11
5.6609e-11
5.66085e-11
5.66071e-11
5.66045e-11
5.66026e-11
5.6601e-11
5.65999e-11
5.65982e-11
5.6599e-11
5.66001e-11
5.66036e-11
5.66038e-11
5.6607e-11
5.66045e-11
5.66078e-11
5.66005e-11
5.66074e-11
5.63623e-11
5.69287e-11
5.65619e-11
5.68116e-11
5.66109e-11
5.67127e-11
5.66203e-11
5.66702e-11
5.66343e-11
5.66653e-11
5.66544e-11
5.66712e-11
5.66655e-11
5.66707e-11
5.6663e-11
5.66591e-11
5.66502e-11
5.66455e-11
5.66398e-11
5.66368e-11
5.66346e-11
5.66345e-11
5.66342e-11
5.66338e-11
5.66332e-11
5.66323e-11
5.66303e-11
5.66277e-11
5.66255e-11
5.66237e-11
5.66217e-11
5.66196e-11
5.66181e-11
5.66171e-11
5.6616e-11
5.66146e-11
5.66133e-11
5.66123e-11
5.66114e-11
5.66107e-11
5.66102e-11
5.66098e-11
5.66093e-11
5.66092e-11
5.66087e-11
5.66073e-11
5.66049e-11
5.6603e-11
5.66013e-11
5.66001e-11
5.65983e-11
5.6599e-11
5.66e-11
5.66033e-11
5.66035e-11
5.66069e-11
5.66044e-11
5.66078e-11
5.66006e-11
5.66074e-11
5.63795e-11
5.69142e-11
5.65651e-11
5.68093e-11
5.66132e-11
5.67134e-11
5.66218e-11
5.66706e-11
5.66346e-11
5.6665e-11
5.6654e-11
5.66708e-11
5.66654e-11
5.66709e-11
5.66635e-11
5.66598e-11
5.66512e-11
5.66464e-11
5.66407e-11
5.66375e-11
5.66352e-11
5.6635e-11
5.66346e-11
5.66342e-11
5.66335e-11
5.66327e-11
5.66307e-11
5.66282e-11
5.6626e-11
5.66242e-11
5.66221e-11
5.66201e-11
5.66185e-11
5.66175e-11
5.66164e-11
5.6615e-11
5.66136e-11
5.66125e-11
5.66116e-11
5.66109e-11
5.66104e-11
5.66099e-11
5.66094e-11
5.66093e-11
5.66089e-11
5.66076e-11
5.66052e-11
5.66033e-11
5.66016e-11
5.66003e-11
5.65984e-11
5.6599e-11
5.65998e-11
5.66031e-11
5.66032e-11
5.66067e-11
5.66043e-11
5.66078e-11
5.66006e-11
5.66074e-11
5.63962e-11
5.69001e-11
5.65684e-11
5.68069e-11
5.66155e-11
5.67141e-11
5.66234e-11
5.66711e-11
5.6635e-11
5.66646e-11
5.66536e-11
5.66703e-11
5.66652e-11
5.66709e-11
5.6664e-11
5.66606e-11
5.66521e-11
5.66474e-11
5.66416e-11
5.66383e-11
5.66358e-11
5.66355e-11
5.6635e-11
5.66346e-11
5.66339e-11
5.66331e-11
5.66312e-11
5.66287e-11
5.66265e-11
5.66246e-11
5.66226e-11
5.66205e-11
5.66189e-11
5.66179e-11
5.66167e-11
5.66153e-11
5.66139e-11
5.66128e-11
5.66119e-11
5.66111e-11
5.66105e-11
5.66101e-11
5.66096e-11
5.66094e-11
5.6609e-11
5.66078e-11
5.66055e-11
5.66037e-11
5.66019e-11
5.66006e-11
5.65986e-11
5.65991e-11
5.65997e-11
5.66028e-11
5.6603e-11
5.66065e-11
5.66042e-11
5.66078e-11
5.66006e-11
5.66074e-11
5.64122e-11
5.68864e-11
5.65718e-11
5.68043e-11
5.66179e-11
5.67147e-11
5.66251e-11
5.66717e-11
5.66355e-11
5.66644e-11
5.66533e-11
5.66699e-11
5.6665e-11
5.6671e-11
5.66644e-11
5.66613e-11
5.6653e-11
5.66483e-11
5.66425e-11
5.66391e-11
5.66365e-11
5.6636e-11
5.66354e-11
5.6635e-11
5.66343e-11
5.66335e-11
5.66316e-11
5.66293e-11
5.6627e-11
5.66251e-11
5.66231e-11
5.6621e-11
5.66194e-11
5.66183e-11
5.66171e-11
5.66156e-11
5.66143e-11
5.66131e-11
5.66121e-11
5.66113e-11
5.66107e-11
5.66102e-11
5.66097e-11
5.66096e-11
5.66092e-11
5.6608e-11
5.66058e-11
5.66041e-11
5.66022e-11
5.66008e-11
5.65988e-11
5.65991e-11
5.65995e-11
5.66026e-11
5.66027e-11
5.66063e-11
5.6604e-11
5.66078e-11
5.66007e-11
5.66074e-11
5.64277e-11
5.68731e-11
5.65752e-11
5.68014e-11
5.66204e-11
5.67153e-11
5.6627e-11
5.66723e-11
5.66361e-11
5.66642e-11
5.6653e-11
5.66694e-11
5.66648e-11
5.6671e-11
5.66647e-11
5.66619e-11
5.66539e-11
5.66493e-11
5.66434e-11
5.66399e-11
5.66372e-11
5.66366e-11
5.66359e-11
5.66354e-11
5.66348e-11
5.66339e-11
5.66321e-11
5.66298e-11
5.66275e-11
5.66256e-11
5.66236e-11
5.66215e-11
5.66198e-11
5.66187e-11
5.66175e-11
5.6616e-11
5.66146e-11
5.66134e-11
5.66124e-11
5.66116e-11
5.66109e-11
5.66104e-11
5.66099e-11
5.66097e-11
5.66093e-11
5.66083e-11
5.66061e-11
5.66044e-11
5.66026e-11
5.66011e-11
5.6599e-11
5.65992e-11
5.65995e-11
5.66024e-11
5.66024e-11
5.66061e-11
5.66039e-11
5.66078e-11
5.66007e-11
5.66074e-11
5.64425e-11
5.68603e-11
5.65787e-11
5.67985e-11
5.66228e-11
5.67158e-11
5.66288e-11
5.6673e-11
5.66368e-11
5.66641e-11
5.66528e-11
5.6669e-11
5.66646e-11
5.66709e-11
5.66651e-11
5.66626e-11
5.66548e-11
5.66502e-11
5.66443e-11
5.66408e-11
5.66379e-11
5.66371e-11
5.66364e-11
5.66359e-11
5.66352e-11
5.66343e-11
5.66326e-11
5.66303e-11
5.66281e-11
5.66262e-11
5.66241e-11
5.6622e-11
5.66203e-11
5.66191e-11
5.66179e-11
5.66164e-11
5.6615e-11
5.66138e-11
5.66127e-11
5.66118e-11
5.66111e-11
5.66105e-11
5.661e-11
5.66098e-11
5.66095e-11
5.66085e-11
5.66064e-11
5.66048e-11
5.66029e-11
5.66014e-11
5.65992e-11
5.65993e-11
5.65994e-11
5.66022e-11
5.66022e-11
5.66058e-11
5.66037e-11
5.66077e-11
5.66007e-11
5.66074e-11
5.64568e-11
5.68479e-11
5.65822e-11
5.67953e-11
5.66252e-11
5.67163e-11
5.66308e-11
5.66737e-11
5.66377e-11
5.6664e-11
5.66527e-11
5.66686e-11
5.66644e-11
5.66708e-11
5.66653e-11
5.66631e-11
5.66556e-11
5.66511e-11
5.66453e-11
5.66417e-11
5.66387e-11
5.66377e-11
5.66369e-11
5.66363e-11
5.66356e-11
5.66348e-11
5.66331e-11
5.66308e-11
5.66286e-11
5.66267e-11
5.66246e-11
5.66225e-11
5.66208e-11
5.66195e-11
5.66183e-11
5.66168e-11
5.66153e-11
5.66141e-11
5.6613e-11
5.66121e-11
5.66113e-11
5.66107e-11
5.66101e-11
5.661e-11
5.66096e-11
5.66087e-11
5.66067e-11
5.66051e-11
5.66033e-11
5.66018e-11
5.65995e-11
5.65995e-11
5.65994e-11
5.6602e-11
5.66019e-11
5.66056e-11
5.66035e-11
5.66076e-11
5.66007e-11
5.66073e-11
5.64705e-11
5.68359e-11
5.65857e-11
5.6792e-11
5.66277e-11
5.67167e-11
5.66328e-11
5.66745e-11
5.66386e-11
5.6664e-11
5.66526e-11
5.66682e-11
5.66642e-11
5.66707e-11
5.66656e-11
5.66637e-11
5.66564e-11
5.66521e-11
5.66462e-11
5.66425e-11
5.66395e-11
5.66384e-11
5.66374e-11
5.66368e-11
5.66361e-11
5.66352e-11
5.66335e-11
5.66313e-11
5.66292e-11
5.66272e-11
5.66251e-11
5.6623e-11
5.66213e-11
5.662e-11
5.66187e-11
5.66172e-11
5.66157e-11
5.66145e-11
5.66133e-11
5.66123e-11
5.66115e-11
5.66108e-11
5.66103e-11
5.66101e-11
5.66097e-11
5.66089e-11
5.6607e-11
5.66055e-11
5.66036e-11
5.66021e-11
5.65998e-11
5.65997e-11
5.65994e-11
5.66019e-11
5.66017e-11
5.66053e-11
5.66033e-11
5.66075e-11
5.66007e-11
5.66073e-11
5.64835e-11
5.68244e-11
5.65893e-11
5.67884e-11
5.66301e-11
5.6717e-11
5.66349e-11
5.66753e-11
5.66396e-11
5.66641e-11
5.66526e-11
5.66678e-11
5.6664e-11
5.66706e-11
5.66658e-11
5.66642e-11
5.66572e-11
5.6653e-11
5.66472e-11
5.66434e-11
5.66403e-11
5.6639e-11
5.6638e-11
5.66373e-11
5.66365e-11
5.66357e-11
5.6634e-11
5.66319e-11
5.66297e-11
5.66277e-11
5.66256e-11
5.66235e-11
5.66217e-11
5.66204e-11
5.66191e-11
5.66176e-11
5.66161e-11
5.66148e-11
5.66136e-11
5.66126e-11
5.66117e-11
5.6611e-11
5.66104e-11
5.66102e-11
5.66099e-11
5.6609e-11
5.66073e-11
5.66058e-11
5.6604e-11
5.66025e-11
5.66001e-11
5.65999e-11
5.65994e-11
5.66017e-11
5.66015e-11
5.66051e-11
5.66031e-11
5.66074e-11
5.66007e-11
5.66073e-11
5.6496e-11
5.68133e-11
5.65928e-11
5.67848e-11
5.66325e-11
5.67171e-11
5.6637e-11
5.66762e-11
5.66407e-11
5.66643e-11
5.66527e-11
5.66675e-11
5.66638e-11
5.66704e-11
5.6666e-11
5.66646e-11
5.6658e-11
5.66538e-11
5.66481e-11
5.66443e-11
5.66411e-11
5.66397e-11
5.66385e-11
5.66378e-11
5.6637e-11
5.66361e-11
5.66345e-11
5.66324e-11
5.66303e-11
5.66283e-11
5.66262e-11
5.6624e-11
5.66223e-11
5.66209e-11
5.66195e-11
5.6618e-11
5.66165e-11
5.66152e-11
5.6614e-11
5.66129e-11
5.6612e-11
5.66112e-11
5.66106e-11
5.66104e-11
5.661e-11
5.66092e-11
5.66076e-11
5.66062e-11
5.66043e-11
5.66028e-11
5.66005e-11
5.66001e-11
5.65995e-11
5.66016e-11
5.66013e-11
5.66049e-11
5.66029e-11
5.66073e-11
5.66007e-11
5.66072e-11
5.65079e-11
5.68027e-11
5.65963e-11
5.6781e-11
5.66349e-11
5.67172e-11
5.66392e-11
5.6677e-11
5.6642e-11
5.66646e-11
5.66529e-11
5.66672e-11
5.66636e-11
5.66703e-11
5.66661e-11
5.6665e-11
5.66587e-11
5.66547e-11
5.6649e-11
5.66452e-11
5.66419e-11
5.66404e-11
5.66391e-11
5.66383e-11
5.66375e-11
5.66366e-11
5.6635e-11
5.66329e-11
5.66308e-11
5.66288e-11
5.66267e-11
5.66246e-11
5.66228e-11
5.66213e-11
5.66199e-11
5.66184e-11
5.66169e-11
5.66156e-11
5.66143e-11
5.66132e-11
5.66122e-11
5.66114e-11
5.66108e-11
5.66105e-11
5.66101e-11
5.66094e-11
5.66078e-11
5.66065e-11
5.66047e-11
5.66032e-11
5.66009e-11
5.66004e-11