/*--------------------------------*- C++ -*----------------------------------*\
| =========                 |                                                 |
| \\      /  F ield         | foam-extend: Open Source CFD                    |
|  \\    /   O peration     | Version:     4.0                                |
|   \\  /    A nd           | Web:         http://www.foam-extend.org         |
|    \\/     M anipulation  |                                                 |
\*---------------------------------------------------------------------------*/
FoamFile
{
    version     2.0;
    format      ascii;
    class       surfaceScalarField;
    location    "10";
    object      phi;
}
// * * * * * * * * * * * * * * * * * * * * * * * * * * * * * * * * * * * * * //

dimensions      [0 3 -1 0 0 0 0];

internalField   nonuniform List<scalar> 
13744
(
-3.83814e-29
-5.45913e-26
-5.29923e-30
-3.30657e-29
6.60976e-31
-6.04795e-30
2.20518e-31
3.33882e-31
3.36716e-31
-2.33617e-31
2.1318e-31
3.09394e-32
8.59217e-32
8.70813e-32
-5.57972e-32
1.50899e-31
-1.97359e-31
1.88519e-31
-2.79878e-31
1.45302e-31
-3.10149e-31
8.78365e-32
-2.85045e-31
1.08775e-32
-2.40005e-31
-3.9796e-32
-1.75391e-31
-9.31315e-32
-1.06246e-31
-1.23983e-31
-5.05768e-32
-1.21965e-31
-3.13278e-32
-8.36632e-32
-3.94437e-32
-4.71161e-32
-5.55813e-32
-2.46033e-32
-7.31281e-32
-4.99679e-33
-9.94576e-32
1.92269e-32
-1.27091e-31
2.79518e-32
-1.37949e-31
1.24898e-32
-1.30052e-31
-7.59383e-33
-1.20838e-31
-1.31659e-32
-1.17562e-31
-1.37513e-32
-1.09265e-31
-2.33321e-32
-9.18279e-32
-3.29601e-32
-7.88099e-32
-2.74073e-32
-7.7642e-32
-1.43259e-32
-7.64905e-32
-1.13713e-32
-6.57438e-32
-1.6173e-32
-5.44051e-32
-1.31084e-32
-5.22461e-32
-2.89237e-33
-5.19229e-32
-4.61579e-34
-4.30974e-32
-6.9322e-33
-3.11798e-32
-7.68931e-33
-2.62989e-32
9.65925e-34
-2.38907e-32
5.4607e-33
-1.22864e-32
-7.33311e-34
7.04643e-33
-6.09831e-33
2.31788e-32
-2.17361e-33
3.42101e-32
2.08764e-33
4.71582e-32
-3.17548e-33
6.09007e-32
-9.80754e-33
6.59424e-32
-6.16308e-33
5.93715e-32
4.51809e-33
4.96117e-32
8.80314e-33
4.27702e-32
9.16457e-33
3.88994e-32
1.36327e-32
3.84895e-32
2.4831e-32
4.68338e-32
2.81863e-32
6.44102e-32
2.70242e-32
8.47096e-32
2.30199e-32
9.93989e-32
2.82339e-32
1.02488e-31
2.74853e-32
9.30838e-32
3.11858e-32
6.60006e-32
3.02736e-32
2.73599e-32
4.53303e-32
2.78992e-32
-6.27112e-29
-5.45285e-26
-1.7918e-29
-7.76371e-29
2.15093e-30
-2.62272e-29
2.29409e-31
2.0323e-30
1.15069e-30
-1.49714e-30
5.156e-31
3.23449e-31
3.66272e-31
3.68928e-33
-1.87349e-31
6.09869e-31
-5.12195e-31
5.543e-31
-8.41393e-31
6.10842e-31
-9.256e-31
3.53301e-31
-9.10765e-31
1.66572e-31
-7.62602e-31
-7.77782e-32
-5.86482e-31
-2.50931e-31
-3.82231e-31
-3.95026e-31
-2.25884e-31
-3.99651e-31
-1.43591e-31
-3.1335e-31
-1.47264e-31
-1.94324e-31
-1.90176e-31
-1.07746e-31
-2.51813e-31
-2.19952e-32
-3.25651e-31
5.99496e-32
-3.98442e-31
9.60242e-32
-4.34574e-31
6.03277e-32
-4.28363e-31
5.29222e-33
-4.07882e-31
-2.18519e-32
-3.90528e-31
-3.6272e-32
-3.61815e-31
-6.93135e-32
-3.17906e-31
-9.85337e-32
-2.82838e-31
-8.82953e-32
-2.69462e-31
-5.5893e-32
-2.57029e-31
-4.46573e-32
-2.29136e-31
-5.13464e-32
-2.01126e-31
-4.0474e-32
-1.89628e-31
-1.31217e-32
-1.82192e-31
-4.46471e-33
-1.61271e-31
-1.79333e-32
-1.34649e-31
-1.98663e-32
-1.17161e-31
-1.21226e-33
-9.99933e-32
6.62809e-33
-6.4267e-32
-1.04088e-32
-1.11958e-32
-2.46383e-32
4.31951e-32
-1.57904e-32
9.25647e-32
-5.35132e-33
1.37734e-31
-1.43374e-32
1.71421e-31
-2.35598e-32
1.81793e-31
-6.99128e-33
1.67769e-31
2.25333e-32
1.37084e-31
3.44521e-32
1.02228e-31
3.38133e-32
7.73774e-32
4.26842e-32
7.96171e-32
6.26864e-32
1.11041e-31
6.71828e-32
1.67923e-31
6.1712e-32
2.29623e-31
6.31576e-32
2.87747e-31
8.3744e-32
3.02302e-31
1.06838e-31
2.8266e-31
1.18219e-31
1.85075e-31
1.45315e-31
9.11904e-32
1.59383e-31
1.02939e-31
-9.09917e-29
-5.44372e-26
-2.79642e-29
-1.4011e-28
3.45984e-30
-5.76431e-29
-3.21588e-33
5.26344e-30
1.9982e-30
-4.02674e-30
7.69493e-31
9.34912e-31
6.95839e-31
-4.19579e-31
-3.21016e-31
1.33888e-30
-7.99281e-31
9.86901e-31
-1.41857e-30
1.38923e-30
-1.56595e-30
7.97767e-31
-1.59326e-30
5.36158e-31
-1.34192e-30
-4.49514e-32
-1.06234e-30
-3.84258e-31
-7.21734e-31
-7.35919e-31
-4.63533e-31
-7.67779e-31
-3.03193e-31
-6.58612e-31
-2.90373e-31
-4.33331e-31
-3.55243e-31
-2.52398e-31
-4.62906e-31
-5.49811e-32
-5.8263e-31
1.13075e-31
-6.98747e-31
1.97237e-31
-7.63595e-31
1.49388e-31
-7.66925e-31
5.84598e-32
-7.38845e-31
-5.17573e-33
-7.05532e-31
-5.14336e-32
-6.55004e-31
-1.21262e-31
-5.86586e-31
-1.7776e-31
-5.29612e-31
-1.70323e-31
-4.99564e-31
-1.23255e-31
-4.71654e-31
-1.01292e-31
-4.26753e-31
-1.029e-31
-3.82807e-31
-8.00941e-32
-3.59253e-31
-3.48886e-32
-3.41714e-31
-1.82254e-32
-3.09829e-31
-3.58252e-32
-2.70781e-31
-4.02796e-32
-2.38687e-31
-1.79974e-32
-2.02118e-31
-1.31812e-32
-1.40715e-31
-4.35703e-32
-5.42314e-32
-6.70915e-32
4.25645e-32
-5.20567e-32
1.3866e-31
-3.11049e-32
2.20485e-31
-3.41253e-32
2.72595e-31
-3.5126e-32
2.87408e-31
3.86943e-33
2.68959e-31
5.4045e-32
2.17069e-31
6.99836e-32
1.48029e-31
5.53874e-32
9.63074e-32
5.63848e-32
1.02731e-31
6.82883e-32
1.60742e-31
6.95119e-32
2.59912e-31
5.64884e-32
3.64818e-31
8.80524e-32
4.73636e-31
1.40937e-31
5.02868e-31
2.35985e-31
4.7622e-31
2.56267e-31
2.99998e-31
3.56809e-31
1.58932e-31
3.24141e-31
2.21565e-31
-1.26338e-28
-5.43105e-26
-3.84172e-29
-2.27151e-28
4.33975e-30
-1.00264e-28
-3.78109e-31
9.75308e-30
2.79878e-30
-7.90945e-30
1.00842e-30
1.83711e-30
1.03311e-30
-1.2072e-30
-4.47094e-31
2.33284e-30
-1.0849e-30
1.48564e-30
-2.01131e-30
2.48972e-30
-2.23872e-30
1.43133e-30
-2.32354e-30
1.13188e-30
-1.97806e-30
6.80349e-32
-1.59942e-30
-4.87821e-31
-1.12096e-30
-1.1479e-30
-7.54872e-31
-1.23196e-30
-5.08105e-31
-1.12794e-30
-4.71685e-31
-7.73974e-31
-5.53544e-31
-4.68709e-31
-7.04393e-31
-1.12417e-31
-8.69494e-31
1.72499e-31
-1.03083e-30
3.27248e-31
-1.12719e-30
2.76364e-31
-1.14238e-30
1.49451e-31
-1.10849e-30
3.43592e-32
-1.06057e-30
-6.30782e-32
-9.88416e-31
-1.84664e-31
-8.94255e-31
-2.77057e-31
-8.13691e-31
-2.80593e-31
-7.65613e-31
-2.24587e-31
-7.20776e-31
-1.90353e-31
-6.56874e-31
-1.7991e-31
-5.94985e-31
-1.4061e-31
-5.57963e-31
-7.68352e-32
-5.29226e-31
-5.07632e-32
-4.85096e-31
-6.98562e-32
-4.3221e-31
-7.82541e-32
-3.84158e-31
-5.88314e-32
-3.26782e-31
-6.34492e-32
-2.38187e-31
-1.09703e-31
-1.16552e-31
-1.42999e-31
2.51183e-32
-1.2007e-31
1.71203e-31
-8.29808e-32
2.92635e-31
-6.92512e-32
3.65078e-31
-5.14531e-32
3.85924e-31
1.88324e-32
3.64894e-31
9.14274e-32
2.92634e-31
1.0768e-31
1.88491e-31
6.44002e-32
1.08551e-31
4.34154e-32
1.19261e-31
2.95846e-32
2.04912e-31
2.4432e-32
3.47722e-31
1.22066e-33
4.97411e-31
8.95065e-32
6.59595e-31
1.92843e-31
7.0551e-31
4.11543e-31
6.72453e-31
4.42098e-31
4.15559e-31
6.63947e-31
2.27687e-31
5.31754e-31
3.83503e-31
-1.62603e-28
-5.41472e-26
-5.0329e-29
-3.38217e-28
4.74467e-30
-1.55053e-28
-9.14337e-31
1.52097e-29
3.53874e-30
-1.32335e-29
1.22484e-30
2.99411e-30
1.37272e-30
-2.39265e-30
-5.68536e-31
3.5741e-30
-1.37093e-30
2.03774e-30
-2.62049e-30
3.91204e-30
-2.94461e-30
2.26e-30
-3.10259e-30
1.96675e-30
-2.67274e-30
2.7521e-31
-2.19999e-30
-5.48707e-31
-1.58259e-30
-1.62254e-30
-1.10287e-30
-1.78832e-30
-7.6143e-31
-1.72235e-30
-6.9408e-31
-1.2207e-30
-7.87559e-31
-7.62885e-31
-9.78393e-31
-2.00167e-31
-1.18806e-30
2.33784e-31
-1.39621e-30
4.8361e-31
-1.52665e-30
4.4086e-31
-1.55598e-30
2.7953e-31
-1.51804e-30
9.87211e-32
-1.45676e-30
-6.93845e-32
-1.36308e-30
-2.58261e-31
-1.24194e-30
-3.95911e-31
-1.13607e-30
-4.19542e-31
-1.06844e-30
-3.61248e-31
-1.00504e-30
-3.13732e-31
-9.20028e-31
-2.84366e-31
-8.38074e-31
-2.23969e-31
-7.8597e-31
-1.4087e-31
-7.44687e-31
-1.0387e-31
-6.86817e-31
-1.2164e-31
-6.18546e-31
-1.35319e-31
-5.53125e-31
-1.25297e-31
-4.73553e-31
-1.459e-31
-3.56278e-31
-2.10744e-31
-1.9775e-31
-2.5444e-31
-8.7791e-33
-2.2175e-31
1.90502e-31
-1.62492e-31
3.54675e-31
-1.2087e-31
4.49884e-31
-7.33886e-32
4.78952e-31
3.7606e-32
4.57588e-31
1.34923e-31
3.66113e-31
1.47775e-31
2.26264e-31
6.03454e-32
1.16825e-31
2.52502e-33
1.31499e-31
-5.54339e-32
2.45189e-31
-7.05737e-32
4.3244e-31
-1.0721e-31
6.28229e-31
6.49842e-32
8.4636e-31
2.37927e-31
9.11259e-31
6.3423e-31
8.72796e-31
6.78039e-31
5.33802e-31
1.07116e-30
2.98782e-31
7.83468e-31
5.90049e-31
-1.98619e-28
-5.39478e-26
-6.31693e-29
-4.72127e-28
4.62737e-30
-2.22393e-28
-1.63388e-30
2.13176e-29
4.20244e-30
-2.0092e-29
1.41052e-30
4.36377e-30
1.70939e-30
-4.01192e-30
-6.87535e-31
5.04154e-30
-1.65829e-30
2.62821e-30
-3.24614e-30
5.65398e-30
-3.68397e-30
3.28904e-30
-3.93153e-30
3.05365e-30
-3.42829e-30
5.91321e-31
-2.86732e-30
-5.52902e-31
-2.11056e-30
-2.15012e-30
-1.5118e-30
-2.43203e-30
-1.06743e-30
-2.4422e-30
-9.61432e-31
-1.77778e-30
-1.0606e-30
-1.14134e-30
-1.28769e-30
-3.24624e-31
-1.5407e-30
2.91864e-31
-1.79694e-30
6.63312e-31
-1.96391e-30
6.42023e-31
-2.00967e-30
4.49631e-31
-1.96948e-30
1.8974e-31
-1.89613e-30
-6.84957e-32
-1.78103e-30
-3.40707e-31
-1.6317e-30
-5.33767e-31
-1.49877e-30
-5.87598e-31
-1.40995e-30
-5.34608e-31
-1.32618e-30
-4.73402e-31
-1.21781e-30
-4.18452e-31
-1.11353e-30
-3.32368e-31
-1.04454e-30
-2.29129e-31
-9.89138e-31
-1.79526e-31
-9.15844e-31
-1.92946e-31
-8.30499e-31
-2.13107e-31
-7.46226e-31
-2.19026e-31
-6.43063e-31
-2.62284e-31
-4.95633e-31
-3.48664e-31
-2.98476e-31
-4.03596e-31
-5.97986e-32
-3.59268e-31
1.95893e-31
-2.71594e-31
4.06138e-31
-1.90682e-31
5.26991e-31
-1.02308e-31
5.66988e-31
5.94202e-32
5.4795e-31
1.84392e-31
4.38757e-31
1.90356e-31
2.6287e-31
4.29008e-32
1.22685e-31
-6.71436e-32
1.40665e-31
-1.88363e-31
2.82273e-31
-2.17749e-31
5.14303e-31
-2.71837e-31
7.57268e-31
1.16997e-32
1.03388e-30
2.74165e-31
1.12035e-30
9.04075e-31
1.07788e-30
9.65947e-31
6.55912e-31
1.58255e-30
3.73065e-31
1.08129e-30
8.43562e-31
-2.34878e-28
-5.3712e-26
-7.66959e-29
-6.28437e-28
3.93854e-30
-3.02377e-28
-2.56098e-30
2.77373e-29
4.77242e-30
-2.85832e-29
1.55622e-30
5.89766e-30
2.03738e-30
-6.10348e-30
-8.06267e-31
6.71049e-30
-1.9476e-30
3.23965e-30
-3.88796e-30
7.71104e-30
-4.4569e-30
4.52262e-30
-4.8114e-30
4.40504e-30
-4.24719e-30
1.03171e-30
-3.60511e-30
-4.85309e-31
-2.70948e-30
-2.71956e-30
-1.98665e-30
-3.15707e-30
-1.43109e-30
-3.28708e-30
-1.27828e-30
-2.44911e-30
-1.37656e-30
-1.61056e-30
-1.63554e-30
-4.92641e-31
-1.93019e-30
3.41066e-31
-2.23547e-30
8.62759e-31
-2.44127e-30
8.7853e-31
-2.50577e-30
6.60369e-31
-2.46527e-30
3.09123e-31
-2.38118e-30
-5.85013e-32
-2.24484e-30
-4.30532e-31
-2.06615e-30
-6.89963e-31
-1.90438e-30
-7.85115e-31
-1.79261e-30
-7.46002e-31
-1.68653e-30
-6.71379e-31
-1.55241e-30
-5.84496e-31
-1.42339e-30
-4.68205e-31
-1.33549e-30
-3.43944e-31
-1.2642e-30
-2.79882e-31
-1.1736e-30
-2.85688e-31
-1.06935e-30
-3.13351e-31
-9.64655e-31
-3.41692e-31
-8.36485e-31
-4.14365e-31
-6.57436e-31
-5.25468e-31
-4.19925e-31
-5.92737e-31
-1.29146e-31
-5.34998e-31
1.862e-31
-4.12578e-31
4.46049e-31
-2.80801e-31
5.95841e-31
-1.40001e-31
6.49974e-31
8.31433e-32
6.36362e-31
2.39447e-31
5.11316e-31
2.35461e-31
2.99329e-31
1.19467e-32
1.27182e-31
-1.66088e-31
1.47509e-31
-3.7042e-31
3.16436e-31
-4.19092e-31
5.93138e-31
-4.95639e-31
8.84105e-31
-7.33785e-32
1.22167e-30
2.99075e-31
1.33261e-30
1.22049e-30
1.28794e-30
1.30728e-30
7.82682e-31
2.20201e-30
4.51173e-31
1.42779e-30
1.14725e-30
-2.71551e-28
-5.34393e-26
-9.0935e-29
-8.06852e-28
2.62719e-30
-3.9507e-28
-3.72196e-30
3.41065e-29
5.22935e-30
-3.88095e-29
1.65148e-30
7.54083e-30
2.35021e-30
-8.70833e-30
-9.27208e-31
8.55248e-30
-2.23952e-30
3.85198e-30
-4.54549e-30
1.00761e-29
-5.26332e-30
5.96353e-30
-5.74318e-30
6.0328e-30
-5.13203e-30
1.61222e-30
-4.41733e-30
-3.29752e-31
-3.38436e-30
-3.31834e-30
-2.53295e-30
-3.95615e-30
-1.85798e-30
-4.25555e-30
-1.64974e-30
-3.23814e-30
-1.73985e-30
-2.17707e-30
-2.02565e-30
-7.11481e-31
-2.35967e-30
3.75124e-31
-2.71455e-30
1.07775e-30
-2.96133e-30
1.14855e-30
-3.0469e-30
9.12011e-31
-3.00812e-30
4.58447e-31
-2.91476e-30
-3.74372e-32
-2.75745e-30
-5.26126e-31
-2.54829e-30
-8.63701e-31
-2.35588e-30
-1.01234e-30
-2.21931e-30
-9.96696e-31
-2.08882e-30
-9.09698e-31
-1.92642e-30
-7.84948e-31
-1.77006e-30
-6.34056e-31
-1.66106e-30
-4.87827e-31
-1.57187e-30
-4.07253e-31
-1.4619e-30
-4.01922e-31
-1.33674e-30
-4.37878e-31
-1.20997e-30
-4.95011e-31
-1.05535e-30
-6.03923e-31
-8.43224e-31
-7.43191e-31
-5.63646e-31
-8.24219e-31
-2.18384e-31
-7.51494e-31
1.59898e-31
-5.88027e-31
4.73092e-31
-3.93718e-31
6.55527e-31
-1.88638e-31
7.27505e-31
1.07316e-31
7.22883e-31
2.99494e-31
5.84253e-31
2.83115e-31
3.36386e-31
-3.24231e-32
1.311e-31
-2.94448e-31
1.52531e-31
-6.0244e-31
3.47714e-31
-6.76341e-31
6.68528e-31
-7.81529e-31
1.00805e-30
-1.93525e-31
1.40901e-30
3.09731e-31
1.54758e-30
1.58226e-30
1.50294e-30
1.70308e-30
9.14684e-31
2.93312e-30
5.33629e-31
1.82599e-30
1.50509e-30
-3.08516e-28
-5.31295e-26
-1.05928e-28
-1.00691e-27
6.41473e-31
-5.00528e-28
-5.14517e-30
4.00411e-29
5.55191e-30
-5.08779e-29
1.68451e-30
9.23162e-30
2.64039e-30
-1.187e-29
-1.05335e-30
1.05351e-29
-2.53488e-30
4.44228e-30
-5.21821e-30
1.27391e-29
-6.10304e-30
7.61289e-30
-6.7277e-30
7.94796e-30
-6.08534e-30
2.34906e-30
-5.30805e-30
-6.90081e-32
-4.14052e-30
-3.93247e-30
-3.15668e-30
-4.82059e-30
-2.35415e-30
-5.3451e-30
-2.08142e-30
-4.14769e-30
-2.15539e-30
-2.84727e-30
-2.46216e-30
-9.88773e-31
-2.83264e-30
3.87175e-31
-3.23727e-30
1.30344e-30
-3.52695e-30
1.44972e-30
-3.63594e-30
1.20444e-30
-3.60102e-30
6.39128e-31
-3.50001e-30
-3.29747e-33
-3.32212e-30
-6.2573e-31
-3.08144e-30
-1.05402e-30
-2.85659e-30
-1.26937e-30
-2.69327e-30
-1.28787e-30
-2.53616e-30
-1.19039e-30
-2.34277e-30
-1.02236e-30
-2.15631e-30
-8.32669e-31
-2.02378e-30
-6.63466e-31
-1.91448e-30
-5.64117e-31
-1.78284e-30
-5.43848e-31
-1.63463e-30
-5.88619e-31
-1.48399e-30
-6.80741e-31
-1.30145e-30
-8.32747e-31
-1.0548e-30
-1.00389e-30
-7.3146e-31
-1.10048e-30
-3.29352e-31
-1.01148e-30
1.15188e-31
-8.00806e-31
4.8567e-31
-5.32281e-31
7.04862e-31
-2.50762e-31
7.9891e-31
1.30155e-31
8.07339e-31
3.63741e-31
6.57827e-31
3.33337e-31
3.74613e-31
-8.9892e-32
1.35069e-31
-4.51994e-31
1.56088e-31
-8.84861e-31
3.75999e-31
-9.90962e-31
7.39889e-31
-1.13235e-30
1.12823e-30
-3.52254e-31
1.59492e-30
3.02745e-31
1.76459e-30
1.98757e-30
1.72267e-30
2.15397e-30
1.05234e-30
3.77921e-30
6.2089e-31
2.2793e-30
1.92173e-30
-3.45625e-28
-5.27825e-26
-1.21682e-28
-1.22801e-27
-2.07067e-30
-6.18759e-28
-6.86091e-30
4.51368e-29
5.71681e-30
-6.48995e-29
1.64201e-30
1.09014e-29
2.89935e-30
-1.56347e-29
-1.18836e-30
1.26218e-29
-2.83487e-30
4.98457e-30
-5.90565e-30
1.56868e-29
-6.97575e-30
9.46994e-30
-7.76564e-30
1.01605e-29
-7.10957e-30
3.25868e-30
-6.28143e-30
3.15135e-31
-4.98351e-30
-4.54637e-30
-3.86415e-30
-5.74014e-30
-2.92614e-30
-6.55191e-30
-2.57947e-30
-5.17983e-30
-2.62857e-30
-3.62739e-30
-2.94965e-30
-1.33246e-30
-3.353e-30
3.69771e-31
-3.80701e-30
1.53434e-30
-4.14128e-30
1.77906e-30
-4.27599e-30
1.53712e-30
-4.24721e-30
8.52388e-31
-4.1403e-30
4.59461e-32
-3.94235e-30
-7.27443e-31
-3.66919e-30
-1.2598e-30
-3.41011e-30
-1.55617e-30
-3.21803e-30
-1.62057e-30
-3.03194e-30
-1.51546e-30
-2.8047e-30
-1.29938e-30
-2.58518e-30
-1.06695e-30
-2.4265e-30
-8.73728e-31
-2.29463e-30
-7.53124e-31
-2.13882e-30
-7.1382e-31
-1.96519e-30
-7.67611e-31
-1.78882e-30
-9.00687e-31
-1.57683e-30
-1.10264e-30
-1.2942e-30
-1.30965e-30
-9.25427e-31
-1.42402e-30
-4.64129e-31
-1.31786e-30
5.00229e-32
-1.05405e-30
4.81941e-31
-6.99702e-31
7.42417e-31
-3.293e-31
8.63286e-31
1.49543e-31
8.89351e-31
4.31194e-31
7.32135e-31
3.86143e-31
4.14452e-31
-1.59914e-31
1.39609e-31
-6.38112e-31
1.5844e-31
-1.21769e-30
4.01077e-31
-1.3641e-30
8.06512e-31
-1.55083e-30
1.24358e-30
-5.53305e-31
1.77826e-30
2.74261e-31
1.98279e-30
2.43391e-30
1.94674e-30
2.66007e-30
1.19593e-30
4.74327e-30
7.13354e-31
2.79148e-30
2.40254e-30
-3.82763e-28
-5.23982e-26
-1.38189e-28
-1.46944e-27
-5.56116e-30
-7.49715e-28
-8.90141e-30
4.89714e-29
5.69865e-30
-8.09889e-29
1.50911e-30
1.24744e-29
3.11722e-30
-2.00509e-29
-1.33675e-30
1.47719e-29
-3.14112e-30
5.4497e-30
-6.60749e-30
1.89025e-29
-7.88105e-30
1.15317e-29
-8.85752e-30
1.2679e-29
-8.20707e-30
4.35756e-30
-7.34159e-30
8.41789e-31
-5.91903e-30
-5.14295e-30
-4.662e-30
-6.703e-30
-3.5809e-30
-7.87079e-30
-3.15052e-30
-6.33576e-30
-3.16532e-30
-4.52334e-30
-3.4932e-30
-1.75071e-30
-3.92503e-30
3.14907e-31
-4.42749e-30
1.76426e-30
-4.80774e-30
2.13297e-30
-4.97043e-30
1.90902e-30
-4.95013e-30
1.09921e-30
-4.83923e-30
1.12317e-31
-4.6219e-30
-8.29225e-31
-4.31541e-30
-1.47972e-30
-4.02034e-30
-1.87249e-30
-3.79741e-30
-1.99573e-30
-3.57986e-30
-1.88688e-30
-3.31577e-30
-1.61872e-30
-3.06004e-30
-1.33995e-30
-2.87233e-30
-1.12165e-30
-2.7152e-30
-9.77096e-31
-2.53248e-30
-9.14351e-31
-2.3309e-30
-9.77007e-31
-2.12675e-30
-1.1567e-30
-1.88374e-30
-1.4154e-30
-1.56368e-30
-1.66258e-30
-1.14782e-30
-1.79745e-30
-6.25023e-31
-1.67368e-30
-3.78776e-32
-1.35118e-30
4.59824e-31
-8.9956e-31
7.66522e-31
-4.27577e-31
9.19508e-31
1.6301e-31
9.68349e-31
5.00642e-31
8.07123e-31
4.41535e-31
4.56234e-31
-2.41711e-31
1.45163e-31
-8.51783e-31
1.59784e-31
-1.60047e-30
4.22665e-31
-1.79657e-30
8.67586e-31
-2.03957e-30
1.35293e-30
-8.00631e-31
1.95771e-30
2.19945e-31
2.20111e-30
2.91807e-30
2.1746e-30
3.22098e-30
1.34566e-30
5.82786e-30
8.11375e-31
3.36655e-30
2.95354e-30
-4.19817e-28
-5.19767e-26
-1.55442e-28
-1.73036e-27
-9.88126e-30
-8.93285e-28
-1.13007e-29
5.11069e-29
5.46992e-30
-9.92643e-29
1.2692e-30
1.38675e-29
3.28269e-30
-2.51697e-29
-1.50399e-30
1.69403e-29
-3.45588e-30
5.8052e-30
-7.3236e-30
2.2366e-29
-8.81852e-30
1.37927e-29
-1.00037e-29
1.55104e-29
-9.37999e-30
5.66202e-30
-8.49263e-30
1.53084e-30
-6.95288e-30
-5.70354e-30
-5.55717e-30
-7.69564e-30
-4.32583e-30
-9.29499e-30
-3.80171e-30
-7.61565e-30
-3.77208e-30
-5.54061e-30
-4.09834e-30
-2.25188e-30
-4.55349e-30
2.14042e-31
-5.10281e-30
1.98632e-30
-5.53005e-30
2.50718e-30
-5.72286e-30
2.31859e-30
-5.71347e-30
1.3803e-30
-5.60064e-30
1.97801e-31
-5.36476e-30
-9.28911e-31
-5.02422e-30
-1.71227e-30
-4.69143e-30
-2.2179e-30
-4.43552e-30
-2.41411e-30
-4.18392e-30
-2.30655e-30
-3.87979e-30
-1.98315e-30
-3.58451e-30
-1.65486e-30
-3.36469e-30
-1.41043e-30
-3.17934e-30
-1.23903e-30
-2.96672e-30
-1.14812e-30
-2.73442e-30
-1.21908e-30
-2.50033e-30
-1.4507e-30
-2.22464e-30
-1.77286e-30
-1.8657e-30
-2.06478e-30
-1.40113e-30
-2.22339e-30
-8.14557e-31
-2.08215e-30
-1.51023e-31
-1.69588e-30
4.16999e-31
-1.13581e-30
7.75272e-31
-5.49329e-31
9.66224e-31
1.67709e-31
1.04357e-30
5.70629e-31
8.82582e-31
4.99489e-31
5.0018e-31
-3.34271e-31
1.52102e-31
-1.09157e-30
1.60262e-31
-2.03224e-30
4.40422e-31
-2.28875e-30
9.22217e-31
-2.60099e-30
1.45497e-30
-1.09837e-30
2.13177e-30
1.34983e-31
2.41833e-30
3.4361e-30
2.40553e-30
3.83568e-30
1.50158e-30
7.03513e-30
9.15256e-31
4.00878e-30
3.5814e-30
-4.56668e-28
-5.15183e-26
-1.73429e-28
-2.00988e-27
-1.50812e-29
-1.0493e-27
-1.40944e-29
5.10917e-29
5.00097e-30
-1.19847e-28
9.03847e-31
1.49903e-29
3.38292e-30
-3.10447e-29
-1.69669e-30
1.90776e-29
-3.7821e-30
6.01518e-30
-8.05418e-30
2.60527e-29
-9.78777e-30
1.62447e-29
-1.12043e-29
1.86597e-29
-1.06303e-29
7.18795e-30
-9.73849e-30
2.40281e-30
-8.09092e-30
-6.20798e-30
-6.5568e-30
-8.7028e-30
-5.16871e-30
-1.08161e-29
-4.54069e-30
-9.01847e-30
-4.45584e-30
-6.6841e-30
-4.77118e-30
-2.84436e-30
-5.24356e-30
5.81569e-32
-5.83745e-30
2.19296e-30
-6.31225e-30
2.89669e-30
-6.53715e-30
2.76368e-30
-6.54114e-30
1.69601e-30
-6.42858e-30
3.04305e-31
-6.17518e-30
-1.02423e-30
-5.79999e-30
-1.95579e-30
-5.42782e-30
-2.59176e-30
-5.13677e-30
-2.87626e-30
-4.84841e-30
-2.77625e-30
-4.50092e-30
-2.39547e-30
-4.16255e-30
-2.01501e-30
-3.90727e-30
-1.74346e-30
-3.69049e-30
-1.5421e-30
-3.44472e-30
-1.41798e-30
-3.17869e-30
-1.49623e-30
-2.91233e-30
-1.78464e-30
-2.60223e-30
-2.17683e-30
-2.20292e-30
-2.51839e-30
-1.68804e-30
-2.70458e-30
-1.03547e-30
-2.54665e-30
-2.92153e-31
-2.09209e-30
3.50902e-31
-1.41278e-30
7.66512e-31
-6.98729e-31
1.00185e-30
1.60389e-31
1.11403e-30
6.39433e-31
9.58136e-31
5.59929e-31
5.46399e-31
-4.36358e-31
1.60728e-31
-1.35559e-30
1.59975e-31
-2.51151e-30
4.53966e-31
-2.84062e-30
9.69443e-31
-3.23727e-30
1.54827e-30
-1.45081e-30
2.2988e-30
1.40797e-32
2.63302e-30
3.98328e-30
2.63864e-30
4.5025e-30
1.66366e-30
8.36663e-30
1.02524e-30
4.72265e-30
4.29347e-30
-4.93192e-28
-5.10233e-26
-1.92135e-28
-2.30694e-27
-2.12094e-29
-1.21752e-27
-1.73198e-29
4.84642e-29
4.25998e-30
-1.4286e-28
3.92698e-31
1.57449e-29
3.40333e-30
-3.77315e-29
-1.92275e-30
2.11299e-29
-4.1236e-30
6.04031e-30
-8.79983e-30
2.99342e-29
-1.07884e-29
1.88763e-29
-1.24594e-29
2.21298e-29
-1.19598e-29
8.95055e-30
-1.1083e-29
3.47863e-30
-9.339e-30
-6.63468e-30
-7.66825e-30
-9.70744e-30
-6.11769e-30
-1.2424e-29
-5.37561e-30
-1.05419e-29
-5.22415e-30
-7.958e-30
-5.51835e-30
-3.53649e-30
-6.00095e-30
-1.62194e-31
-6.63634e-30
2.3759e-30
-7.15873e-30
3.29578e-30
-7.41748e-30
3.24152e-30
-7.43732e-30
2.0463e-30
-7.32736e-30
4.33613e-31
-7.05761e-30
-1.11285e-30
-6.64737e-30
-2.20839e-30
-6.23424e-30
-2.99319e-30
-5.90585e-30
-3.38257e-30
-5.57793e-30
-3.29769e-30
-5.18362e-30
-2.85849e-30
-4.79841e-30
-2.42383e-30
-4.50409e-30
-2.12427e-30
-4.25237e-30
-1.88967e-30
-3.96991e-30
-1.72696e-30
-3.66692e-30
-1.811e-30
-3.36575e-30
-2.16056e-30
-3.01941e-30
-2.62915e-30
-2.57823e-30
-3.02554e-30
-2.01147e-30
-3.24375e-30
-1.29073e-30
-3.07068e-30
-4.64246e-31
-2.54405e-30
2.58718e-31
-1.7352e-30
7.37827e-31
-8.80398e-31
1.02454e-30
1.37366e-31
1.17854e-30
7.05022e-31
1.03323e-30
6.22702e-31
5.94873e-31
-5.4652e-31
1.71273e-31
-1.64152e-30
1.58986e-31
-3.03623e-30
4.6288e-31
-3.45161e-30
1.00824e-30
-3.9503e-30
1.6313e-30
-1.86234e-30
2.457e-30
-1.48526e-31
2.84358e-30
4.55406e-30
2.87284e-30
5.21902e-30
1.83169e-30
9.82333e-30
1.14152e-30
5.51274e-30
5.0977e-30
-5.29262e-28
-5.04921e-26
-2.11538e-28
-2.62044e-27
-2.83122e-29
-1.39765e-27
-2.10155e-29
4.27556e-29
3.21302e-30
-1.68428e-28
-2.86604e-31
1.6026e-29
3.32752e-30
-4.52877e-29
-2.19149e-30
2.30392e-29
-4.48522e-30
5.83773e-30
-9.56169e-30
3.39775e-29
-1.18204e-29
2.1673e-29
-1.37689e-29
2.59207e-29
-1.33699e-29
1.0964e-29
-1.25297e-29
4.77945e-30
-1.07029e-29
-6.96071e-30
-8.89899e-30
-1.06907e-29
-7.18128e-30
-1.41065e-29
-6.3151e-30
-1.2182e-29
-6.08514e-30
-9.36561e-30
-6.34707e-30
-4.33643e-30
-6.83192e-30
-4.56802e-31
-7.50484e-30
2.52622e-30
-8.07427e-30
3.69791e-30
-8.36831e-30
3.74862e-30
-8.40644e-30
2.43067e-30
-8.30151e-30
5.8733e-31
-8.01679e-30
-1.19237e-30
-7.57124e-30
-2.46804e-30
-7.11567e-30
-3.4211e-30
-6.74776e-30
-3.93315e-30
-6.3774e-30
-3.87239e-30
-5.93265e-30
-3.37503e-30
-5.49667e-30
-2.88485e-30
-5.15946e-30
-2.55653e-30
-4.86903e-30
-2.28527e-30
-4.54604e-30
-2.07829e-30
-4.20258e-30
-2.16608e-30
-3.86385e-30
-2.58056e-30
-3.47932e-30
-3.13167e-30
-2.99472e-30
-3.58835e-30
-2.37453e-30
-3.84372e-30
-1.58353e-30
-3.65786e-30
-6.70522e-31
-3.05622e-30
1.37365e-31
-2.1082e-30
6.86528e-31
-1.09943e-30
1.03219e-30
9.44865e-32
1.23563e-30
7.65023e-31
1.1071e-30
6.87538e-31
6.45438e-31
-6.63109e-31
1.83883e-31
-1.94659e-30
1.57316e-31
-3.6037e-30
4.6672e-31
-4.12062e-30
1.03754e-30
-4.74159e-30
1.70245e-30
-2.33743e-30
2.60441e-30
-3.59042e-31
3.04818e-30
5.14207e-30
3.10687e-30
5.98201e-30
2.00537e-30
1.14054e-29
1.2642e-30
6.38372e-30
6.00266e-30
-5.6475e-28
-4.99255e-26
-2.31613e-28
-2.94912e-27
-3.64329e-29
-1.58932e-27
-2.52211e-29
3.34934e-29
1.82406e-30
-1.96677e-28
-1.15849e-30
1.57211e-29
3.13712e-30
-5.37729e-29
-2.51382e-30
2.4743e-29
-4.87297e-30
5.36117e-30
-1.03416e-29
3.81452e-29
-1.28836e-29
2.46163e-29
-1.51326e-29
3.00294e-29
-1.4862e-29
1.3241e-29
-1.4082e-29
6.32631e-30
-1.21884e-29
-7.16193e-30
-1.02566e-29
-1.1632e-29
-8.36827e-30
-1.58496e-29
-7.36828e-30
-1.39333e-29
-7.04751e-30
-1.09091e-29
-7.26518e-30
-5.252e-30
-7.74328e-30
-8.35707e-31
-8.44883e-30
2.63435e-30
-9.06405e-30
4.0958e-30
-9.39446e-30
4.28074e-30
-9.45322e-30
2.84811e-30
-9.35585e-30
7.66828e-31
-9.05769e-30
-1.2604e-30
-8.57677e-30
-2.73254e-30
-8.0774e-30
-3.87414e-30
-7.66779e-30
-4.52789e-30
-7.25205e-30
-4.50174e-30
-6.75313e-30
-3.94785e-30
-6.26226e-30
-3.40167e-30
-5.87805e-30
-3.04409e-30
-5.54482e-30
-2.73264e-30
-5.17718e-30
-2.47539e-30
-4.78943e-30
-2.56433e-30
-4.41018e-30
-3.04682e-30
-3.98536e-30
-3.68624e-30
-3.45574e-30
-4.20894e-30
-2.78058e-30
-4.50731e-30
-1.91728e-30
-4.31197e-30
-9.14458e-31
-3.63335e-30
-1.65124e-32
-2.53727e-30
6.09626e-31
-1.36141e-30
1.02237e-30
2.70988e-32
1.28358e-30
8.16673e-31
1.17874e-30
7.54008e-31
6.97766e-31
-7.84312e-31
1.98609e-31
-2.26756e-30
1.54941e-31
-4.21063e-30
4.65024e-31
-4.84591e-30
1.05625e-30
-5.61224e-30
1.75999e-30
-2.8805e-30
2.7389e-30
-6.24092e-31
3.24481e-30
5.74008e-30
3.33923e-30
6.78737e-30
2.18419e-30
1.31124e-29
1.3933e-30
7.34025e-30
7.01748e-30
-5.99524e-28
-4.93241e-26
-2.52328e-28
-3.29168e-27
-4.56114e-29
-1.7921e-27
-2.99772e-29
2.02057e-29
5.50818e-32
-2.27732e-28
-2.24952e-30
1.47104e-29
2.81168e-30
-6.3248e-29
-2.90242e-30
2.6175e-29
-5.29418e-30
4.56097e-30
-1.11421e-29
4.2395e-29
-1.39785e-29
2.7684e-29
-1.65502e-29
3.44497e-29
-1.6437e-29
1.57928e-29
-1.57429e-29
8.13991e-30
-1.38008e-29
-7.21322e-30
-1.17487e-29
-1.25089e-29
-9.68772e-30
-1.76371e-29
-8.54473e-30
-1.57884e-29
-8.12055e-30
-1.25896e-29
-8.28116e-30
-6.29053e-30
-8.74248e-30
-1.30909e-30
-9.47473e-30
2.69012e-30
-1.01337e-29
4.48134e-30
-1.05011e-29
4.83285e-30
-1.05827e-29
3.29698e-30
-1.04954e-29
9.7318e-31
-1.01855e-29
-1.31458e-30
-9.66939e-30
-2.99957e-30
-9.12502e-30
-4.35072e-30
-8.67157e-30
-5.16639e-30
-8.20746e-30
-5.18688e-30
-7.65052e-30
-4.57965e-30
-7.10045e-30
-3.97796e-30
-6.6649e-30
-3.59091e-30
-6.28447e-30
-3.23567e-30
-5.8677e-30
-2.92188e-30
-5.43155e-30
-3.00875e-30
-5.00855e-30
-3.56164e-30
-4.54116e-30
-4.29475e-30
-3.96484e-30
-4.88945e-30
-3.2332e-30
-5.23735e-30
-2.29564e-30
-5.03683e-30
-1.19979e-30
-4.28039e-30
-2.06563e-31
-3.02833e-30
5.0382e-31
-1.67241e-30
9.92364e-31
-6.99851e-32
1.32034e-30
8.56771e-31
1.24691e-30
8.21473e-31
7.51333e-31
-9.08184e-31
2.15387e-31
-2.60077e-30
1.51791e-31
-4.85302e-30
4.57309e-31
-5.62508e-30
1.06322e-30
-6.56282e-30
1.80217e-30
-3.49591e-30
2.85822e-30
-9.50664e-31
3.43124e-30
6.33998e-30
3.56822e-30
7.63005e-30
2.36748e-30
1.49426e-29
1.52873e-30
8.3869e-30
8.15181e-30
-6.33454e-28
-4.86888e-26
-2.73644e-28
-3.64668e-27
-5.58832e-29
-2.00547e-27
-3.53247e-29
2.4248e-30
-2.1338e-30
-2.61717e-28
-3.5884e-30
1.28675e-29
2.32853e-30
-7.37751e-29
-3.37186e-30
2.72647e-29
-5.75772e-30
3.38421e-30
-1.19669e-29
4.66801e-29
-1.51058e-29
3.08497e-29
-1.80215e-29
3.91716e-29
-1.80957e-29
1.86282e-29
-1.75152e-29
1.02402e-29
-1.55455e-29
-7.08866e-30
-1.33828e-29
-1.32975e-29
-1.11489e-29
-1.94508e-29
-9.85443e-30
-1.77381e-29
-9.31413e-30
-1.44065e-29
-9.40413e-30
-7.45867e-30
-9.83761e-30
-1.88715e-30
-1.05895e-29
2.68286e-30
-1.12894e-29
4.8456e-30
-1.16939e-29
5.39907e-30
-1.18002e-29
3.77502e-30
-1.17256e-29
1.20709e-30
-1.14059e-29
-1.35265e-30
-1.08548e-29
-3.26669e-30
-1.02644e-29
-4.84902e-30
-9.76505e-30
-5.84798e-30
-9.24955e-30
-5.92875e-30
-8.63065e-30
-5.27302e-30
-8.0169e-30
-4.61739e-30
-7.52538e-30
-4.20106e-30
-7.09305e-30
-3.79846e-30
-6.62237e-30
-3.4216e-30
-6.13336e-30
-3.50257e-30
-5.66309e-30
-4.12738e-30
-5.15067e-30
-4.95909e-30
-4.52587e-30
-5.63196e-30
-3.73621e-30
-6.03667e-30
-2.72253e-30
-5.83638e-30
-1.53052e-30
-5.00254e-30
-4.36741e-31
-3.58767e-30
3.65473e-31
-2.03904e-30
9.39069e-31
-2.02523e-31
1.34353e-30
8.81622e-31
1.31003e-30
8.89024e-31
8.05389e-31
-1.0327e-30
2.34018e-31
-2.94212e-30
1.47731e-31
-5.52621e-30
4.43083e-31
-6.45498e-30
1.05733e-30
-7.59328e-30
1.82713e-30
-4.18784e-30
2.95998e-30
-1.34606e-30
3.60502e-30
6.9328e-30
3.79187e-30
8.50397e-30
2.55434e-30
1.68935e-29
1.67027e-30
9.52802e-30
9.41573e-30
-6.66406e-28
-4.80206e-26
-2.9552e-28
-4.01263e-27
-6.72791e-29
-2.22885e-27
-4.13048e-29
-2.03077e-29
-4.78416e-30
-2.98753e-28
-5.20595e-30
1.00591e-29
1.66275e-30
-8.54171e-29
-3.93879e-30
2.79383e-29
-6.27412e-30
1.77496e-30
-1.28206e-29
5.09487e-29
-1.62671e-29
3.40826e-29
-1.95464e-29
4.41808e-29
-1.98387e-29
2.17535e-29
-1.94012e-29
1.2646e-29
-1.74275e-29
-6.76181e-30
-1.51664e-29
-1.3972e-29
-1.27613e-29
-2.12701e-29
-1.13078e-29
-1.97709e-29
-1.06387e-29
-1.63577e-29
-1.06439e-29
-8.76221e-30
-1.10374e-29
-2.57992e-30
-1.18009e-29
2.60143e-30
-1.25377e-29
5.17892e-30
-1.29787e-29
5.97266e-30
-1.31114e-29
4.27922e-30
-1.3052e-29
1.46881e-30
-1.27244e-29
-1.37251e-30
-1.21391e-29
-3.5314e-30
-1.15017e-29
-5.36697e-30
-1.09545e-29
-6.57166e-30
-1.03846e-29
-6.72804e-30
-9.69972e-30
-6.03042e-30
-9.01765e-30
-5.32366e-30
-8.4653e-30
-4.87871e-30
-7.97604e-30
-4.42526e-30
-7.44629e-30
-3.97861e-30
-6.89964e-30
-4.04918e-30
-6.37825e-30
-4.74656e-30
-5.81809e-30
-5.68121e-30
-5.14291e-30
-6.43856e-30
-4.29369e-30
-6.9081e-30
-3.20212e-30
-6.7146e-30
-1.91095e-30
-5.80515e-30
-7.1132e-31
-4.22193e-30
1.90584e-31
-2.46841e-30
8.59015e-31
-3.76876e-31
1.35038e-30
8.86985e-31
1.36622e-30
9.55407e-31
8.58924e-31
-1.15582e-30
2.54135e-31
-3.28713e-30
1.42556e-31
-6.22483e-30
4.21839e-31
-7.33164e-30
1.03742e-30
-8.70287e-30
1.833e-30
-4.96017e-30
3.04165e-30
-1.81779e-30
3.76349e-30
7.50873e-30
4.00797e-30
9.40198e-30
2.74365e-30
1.89613e-29
1.81758e-30
1.07677e-29
1.08197e-29
-6.98252e-28
-4.73206e-26
-3.17905e-28
-4.38794e-27
-7.98242e-29
-2.46161e-27
-4.79584e-29
-4.84369e-29
-7.93909e-30
-3.3896e-28
-7.13512e-30
6.14602e-30
7.87055e-31
-9.82372e-29
-4.62205e-30
2.81182e-29
-6.8558e-30
-3.2549e-31
-1.37093e-29
5.51441e-29
-1.74644e-29
3.73474e-29
-2.11248e-29
4.94586e-29
-2.16662e-29
2.51723e-29
-2.14029e-29
1.53746e-29
-1.94513e-29
-6.20603e-30
-1.71069e-29
-1.45057e-29
-1.45342e-29
-2.30727e-29
-1.29155e-29
-2.18732e-29
-1.21053e-29
-1.84393e-29
-1.20109e-29
-1.02058e-29
-1.23514e-29
-3.39715e-30
-1.31171e-29
2.43439e-30
-1.38859e-29
5.47086e-30
-1.43621e-29
6.54595e-30
-1.45225e-29
4.80579e-30
-1.44807e-29
1.75809e-30
-1.41473e-29
-1.37227e-30
-1.35284e-29
-3.79117e-30
-1.28435e-29
-5.9023e-30
-1.22465e-29
-7.33614e-30
-1.16192e-29
-7.58513e-30
-1.08643e-29