/*--------------------------------*- C++ -*----------------------------------*\
| =========                 |                                                 |
| \\      /  F ield         | foam-extend: Open Source CFD                    |
|  \\    /   O peration     | Version:     4.0                                |
|   \\  /    A nd           | Web:         http://www.foam-extend.org         |
|    \\/     M anipulation  |                                                 |
\*---------------------------------------------------------------------------*/
FoamFile
{
    version     2.0;
    format      ascii;
    class       surfaceScalarField;
    location    "10";
    object      phi;
}
// * * * * * * * * * * * * * * * * * * * * * * * * * * * * * * * * * * * * * //

dimensions      [0 3 -1 0 0 0 0];

internalField   nonuniform List<scalar> 
13744
(
-1.46679e-25
-4.18599e-22
6.95823e-26
-3.56825e-25
1.24866e-25
-3.20594e-26
6.51265e-26
7.07983e-26
-1.22846e-27
8.14441e-26
-4.68327e-26
1.05464e-25
-6.0362e-26
6.28765e-26
-2.88748e-26
1.16199e-26
4.80136e-26
-5.23536e-26
1.14979e-25
-7.72643e-26
1.71951e-25
-9.92544e-26
1.8925e-25
-6.73092e-26
1.56917e-25
-3.0901e-26
1.09758e-25
3.20597e-26
3.30612e-26
8.42833e-26
-2.49146e-26
8.93997e-26
-5.11358e-26
7.65739e-26
-3.54432e-26
2.98066e-26
1.99911e-26
-1.63856e-26
7.81022e-26
-5.82289e-26
1.30528e-25
-7.81583e-26
1.55203e-25
-5.97984e-26
1.45109e-25
-2.71522e-26
1.10235e-25
1.19118e-26
6.38269e-26
4.26956e-26
2.78621e-26
5.90094e-26
6.83195e-27
5.68717e-26
3.85828e-27
3.21521e-26
1.82844e-26
4.50227e-27
3.73407e-26
-1.21349e-26
4.84662e-26
-1.40899e-26
4.34199e-26
-7.78306e-27
3.03066e-26
-1.46563e-27
2.02055e-26
9.42955e-27
1.58238e-26
1.80541e-26
1.81695e-26
1.74675e-26
2.55368e-26
6.74198e-27
3.81428e-26
-6.02665e-27
4.75914e-26
-6.8537e-27
4.13831e-26
-3.12613e-27
1.79014e-26
4.21604e-27
-1.7553e-26
1.33576e-26
-5.17181e-26
2.14795e-26
-7.87317e-26
2.90742e-26
-9.47432e-26
2.45588e-26
-9.25945e-26
1.76617e-26
-7.36163e-26
5.19105e-27
-3.94715e-26
-1.11716e-26
-7.51279e-29
-2.2826e-26
3.53925e-26
-3.12224e-26
5.95963e-26
-3.08623e-26
6.51684e-26
-2.75176e-26
5.3524e-26
-2.11456e-26
2.91254e-26
-5.50144e-27
-4.11894e-27
4.71438e-27
-3.50006e-26
1.03401e-26
-5.47e-26
4.35698e-27
-4.85893e-26
-7.19518e-27
-3.06512e-26
-1.31224e-26
-2.54796e-26
-6.55147e-26
-4.18579e-22
2.21892e-25
-1.06364e-24
3.90414e-25
-1.91759e-25
2.23283e-25
1.97423e-25
3.42335e-26
2.29526e-25
-1.22935e-25
3.66486e-25
-1.79357e-25
2.48337e-25
-1.00966e-25
9.13565e-26
1.13585e-25
-1.04758e-25
3.28432e-25
-2.41105e-25
5.12376e-25
-3.41749e-25
5.67764e-25
-2.55826e-25
4.90263e-25
-1.54748e-25
3.58245e-25
6.92513e-26
1.36885e-25
2.43213e-25
-5.33541e-26
3.02181e-25
-1.52073e-25
2.91735e-25
-1.11042e-25
1.42834e-25
4.55758e-26
-1.17298e-26
2.17511e-25
-1.73911e-25
3.80494e-25
-2.60676e-25
4.72004e-25
-2.28216e-25
4.57145e-25
-1.3568e-25
3.53749e-25
5.36719e-27
2.15293e-25
1.24059e-25
1.07923e-25
1.95901e-25
3.93455e-26
2.01265e-25
1.70686e-26
1.32571e-25
4.93756e-26
4.73143e-26
1.09957e-25
-2.26476e-26
1.51645e-25
-5.15226e-26
1.39138e-25
-4.58651e-26
9.9066e-26
-2.62098e-26
7.28966e-26
1.09883e-26
6.89811e-26
3.66712e-26
7.7375e-26
4.13357e-26
9.24279e-26
2.27329e-26
1.25699e-25
-1.4926e-27
1.54773e-25
2.69044e-27
1.36354e-25
1.45069e-26
5.88772e-26
4.08308e-26
-5.37725e-26
6.75041e-26
-1.57892e-25
8.4651e-26
-2.40623e-25
9.42339e-26
-2.88832e-25
6.45789e-26
-2.80881e-25
3.16391e-26
-2.19704e-25
-1.54736e-26
-1.1489e-25
-6.32828e-26
5.53094e-27
-9.01785e-26
1.17775e-25
-1.05943e-25
1.93088e-25
-9.0764e-26
2.06301e-25
-6.59936e-26
1.66723e-25
-3.46769e-26
9.1993e-26
1.08171e-26
-8.08043e-27
2.93268e-26
-1.03059e-25
2.62752e-26
-1.63144e-25
-6.53906e-27
-1.42687e-25
-5.76653e-26
-9.00943e-26
-6.62446e-26
-8.59876e-26
-2.02276e-26
-4.18565e-22
4.12215e-25
-2.19254e-24
6.74453e-25
-4.79022e-25
4.0939e-25
3.26028e-25
9.87234e-26
3.83252e-25
-1.83647e-25
7.44698e-25
-2.95584e-25
5.3683e-25
-1.82513e-25
2.56241e-25
1.63345e-25
-1.01571e-25
5.35801e-25
-4.42725e-25
8.58052e-25
-6.72466e-25
9.58062e-25
-5.55322e-25
8.4697e-25
-3.84614e-25
6.37102e-25
7.83749e-26
2.72889e-25
4.20984e-25
-6.23723e-26
5.95378e-25
-2.48484e-25
6.17158e-25
-1.88736e-25
3.46255e-25
6.40975e-26
4.33545e-26
3.49901e-25
-3.13142e-25
6.30031e-25
-5.1422e-25
8.01745e-25
-4.91555e-25
7.92878e-25
-3.34118e-25
6.22603e-25
-4.78723e-26
3.91413e-25
2.10115e-25
2.11168e-25
3.86164e-25
8.97612e-26
4.19125e-25
3.85962e-26
3.01496e-25
8.17646e-26
1.41062e-25
1.8575e-25
-1.42999e-26
2.63131e-25
-1.02737e-25
2.4467e-25
-1.23005e-25
1.76787e-25
-9.57703e-26
1.36682e-25
-2.15228e-26
1.38364e-25
3.24506e-26
1.53847e-25
5.55876e-26
1.73133e-25
4.37635e-26
2.25335e-25
2.90493e-26
2.75508e-25
5.78335e-26
2.45116e-25
8.59473e-26
1.08562e-25
1.36455e-25
-8.73945e-26
1.76705e-25
-2.65732e-25
1.92039e-25
-4.08301e-25
1.79982e-25
-4.91609e-25
9.18459e-26
-4.78448e-25
6.76067e-27
-3.72711e-25
-9.61294e-26
-1.94195e-25
-1.79671e-25
1.15692e-26
-2.0985e-25
2.0735e-25
-2.11024e-25
3.38504e-25
-1.48951e-25
3.59474e-25
-7.52225e-26
2.89925e-25
6.02407e-27
1.63221e-25
8.92876e-26
-6.05711e-27
1.0174e-25
-1.69254e-25
5.27328e-26
-2.72955e-25
-3.98e-26
-2.3825e-25
-1.68642e-25
-1.51241e-25
-1.67579e-25
-1.81248e-25
-2.28639e-26
-4.18537e-22
6.09284e-25
-3.79202e-24
9.73902e-25
-8.95653e-25
6.20896e-25
4.54389e-25
1.8651e-25
5.44072e-25
-2.28579e-25
1.24575e-24
-4.05795e-25
9.29105e-25
-2.6846e-25
5.06575e-25
2.05638e-25
-4.57346e-26
7.39795e-25
-6.84296e-25
1.20822e-24
-1.0905e-24
1.36061e-24
-9.70652e-25
1.22383e-24
-7.23883e-25
9.43077e-25
5.8105e-26
4.36345e-25
6.19654e-25
-5.18832e-26
9.71065e-25
-3.35731e-25
1.0521e-24
-2.64775e-25
6.41038e-25
8.01051e-26
1.48921e-25
4.79158e-25
-4.78325e-25
8.81398e-25
-8.42515e-25
1.14275e-24
-8.52658e-25
1.1479e-24
-6.23626e-25
9.14076e-25
-1.49765e-25
5.90388e-25
2.99836e-25
3.35772e-25
6.32376e-25
1.57154e-25
7.15382e-25
7.02965e-26
5.42786e-25
1.19495e-25
2.87025e-25
2.66955e-25
1.4308e-26
3.82457e-25
-1.65241e-25
3.5899e-25
-2.38246e-25
2.62949e-25
-2.12085e-25
2.09944e-25
-9.0414e-26
2.19421e-25
6.41656e-27
2.42399e-25
6.37398e-26
2.64459e-25
7.31973e-26
3.35267e-25
8.93649e-26
4.08158e-25
1.64598e-25
3.66478e-25
2.19242e-25
1.68345e-25
2.9798e-25
-1.15081e-25
3.45552e-25
-3.71968e-25
3.4669e-25
-5.78945e-25
2.87308e-25
-7.01531e-25
1.05402e-25
-6.85552e-25
-5.94912e-26
-5.35265e-25
-2.39755e-25
-2.8129e-25
-3.63621e-25
1.35807e-26
-3.84366e-25
2.98546e-25
-3.45678e-25
4.90554e-25
-2.01162e-25
5.21777e-25
-4.93848e-26
4.22789e-25
1.07921e-25
2.43726e-25
2.38138e-25
3.14103e-27
2.31202e-25
-2.32194e-25
9.71002e-26
-3.8343e-25
-9.05645e-26
-3.36437e-25
-3.38714e-25
-2.15368e-25
-3.16244e-25
-3.16954e-25
-2.80671e-26
-4.18542e-22
8.04501e-25
-5.85826e-24
1.28837e-24
-1.4574e-24
8.58373e-25
5.70786e-25
2.98311e-25
7.04322e-25
-2.56364e-25
1.86709e-24
-5.08462e-25
1.42448e-24
-3.57321e-25
8.47047e-25
2.41482e-25
6.96657e-26
9.40072e-25
-9.59419e-25
1.56197e-24
-1.59066e-24
1.77483e-24
-1.50306e-24
1.62081e-24
-1.17679e-24
1.27664e-24
2.08895e-27
6.28232e-25
8.32374e-25
-2.00001e-26
1.42501e-24
-4.11573e-25
1.59531e-24
-3.37488e-25
1.03065e-24
9.45269e-26
3.10603e-25
6.05608e-25
-6.64282e-25
1.13438e-24
-1.24192e-24
1.49431e-24
-1.31101e-24
1.52162e-24
-1.00681e-24
1.22836e-24
-3.05463e-25
8.12989e-25
3.87966e-25
4.82579e-25
9.31567e-25
2.42347e-25
1.08947e-24
1.13215e-25
8.57904e-25
1.63698e-25
4.88038e-25
3.54251e-25
6.68559e-26
5.09789e-25
-2.35964e-25
4.82238e-25
-3.90756e-25
3.57902e-25
-3.764e-25
2.92787e-25
-1.97856e-25
3.11532e-25
-4.32975e-26
3.41924e-25
6.42684e-26
3.65338e-25
1.10097e-25
4.54581e-25
1.79909e-25
5.51936e-25
3.24883e-25
5.00067e-25
4.17334e-25
2.38726e-25
5.28232e-25
-1.35491e-25
5.76555e-25
-4.74869e-25
5.50538e-25
-7.50864e-25
4.16951e-25
-9.17382e-25
1.05053e-25
-9.01842e-25
-1.68544e-25
-7.08011e-25
-4.48451e-25
-3.77646e-25
-6.17636e-25
9.46364e-27
-6.15948e-25
3.88797e-25
-5.10707e-25
6.46729e-25
-2.47051e-25
6.91439e-25
1.29003e-26
5.64555e-25
2.73439e-25
3.33578e-25
4.60178e-25
2.01435e-26
4.20823e-25
-2.9103e-25
1.61408e-25
-4.93913e-25
-1.58041e-25
-4.37238e-25
-5.6889e-25
-2.82763e-25
-5.1396e-25
-4.96836e-25
-2.82295e-26
-4.1847e-22
1.00059e-24
-8.38416e-24
1.61751e-24
-2.17334e-24
1.12279e-24
6.62393e-25
4.3552e-25
8.56686e-25
-2.6505e-25
2.60612e-24
-6.01767e-25
2.02233e-24
-4.47834e-25
1.28358e-24
2.71317e-25
2.5214e-25
1.1358e-24
-1.26116e-24
1.91797e-24
-2.16794e-24
2.1998e-24
-2.15451e-24
2.0378e-24
-1.74815e-24
1.63856e-24
-9.70038e-26
8.50142e-25
1.05167e-24
3.56227e-26
1.95298e-24
-4.73582e-25
2.24611e-24
-4.05207e-25
1.51956e-24
1.08055e-25
5.34939e-25
7.29117e-25
-8.65058e-25
1.38831e-24
-1.70858e-24
1.85556e-24
-1.86672e-24
1.91356e-24
-1.48731e-24
1.56584e-24
-5.21129e-25
1.06033e-24
4.68618e-25
6.52947e-25
1.28042e-24
3.46682e-25
1.54087e-24
1.6865e-25
1.24891e-24
2.15482e-25
7.47847e-25
4.48298e-25
1.4775e-25
6.45398e-25
-3.11533e-25
6.14675e-25
-5.79577e-25
4.62069e-25
-5.89844e-25
3.85524e-25
-3.46025e-25
4.14574e-25
-1.18935e-25
4.5196e-25
5.50096e-26
4.75263e-25
1.52809e-25
5.82848e-25
3.00357e-25
7.06563e-25
5.39792e-25
6.46013e-25
6.82444e-25
3.20534e-25
8.29874e-25
-1.47148e-25
8.72808e-25
-5.72677e-25
8.0682e-25
-9.22405e-25
5.71497e-25
-1.13801e-24
9.2423e-26
-1.12697e-24
-3.20271e-25
-8.91506e-25
-7.23498e-25
-4.84576e-25
-9.44272e-25
-2.62717e-27
-9.0769e-25
4.75971e-25
-7.08732e-25
8.0506e-25
-2.88442e-25
8.67171e-25
1.11028e-25
7.14818e-25
5.03689e-25
4.3314e-25
7.58062e-25
4.58351e-26
6.74347e-25
-3.44714e-25
2.49126e-25
-6.03595e-25
-2.39984e-25
-5.40459e-25
-8.59221e-25
-3.5359e-25
-7.62512e-25
-7.25903e-25
-2.80546e-26
-4.18366e-22
1.19789e-24
-1.13657e-23
1.96089e-24
-3.05153e-24
1.41522e-24
7.14103e-25
5.99833e-25
9.92798e-25
-2.52344e-25
3.45815e-24
-6.83663e-25
2.72128e-24
-5.38727e-25
1.8219e-24
2.95399e-25
5.1e-25
1.32594e-24
-1.58127e-24
2.27466e-24
-2.81566e-24
2.63435e-24
-2.9255e-24
2.4745e-24
-2.44225e-24
2.02969e-24
-2.471e-25
1.10393e-24
1.26861e-24
1.17603e-25
2.54919e-24
-5.19134e-25
3.00248e-24
-4.66144e-25
2.1117e-24
1.21364e-25
8.28952e-25
8.49378e-25
-1.07334e-24
1.64226e-24
-2.23695e-24
2.22547e-24
-2.5186e-24
2.3232e-24
-2.06813e-24
1.92696e-24
-8.03129e-25
1.33365e-24
5.34852e-25
8.48485e-25
1.67414e-24
4.71789e-25
2.0678e-24
2.38083e-25
1.71737e-24
2.76018e-25
1.07044e-24
5.49793e-25
2.62124e-25
7.89626e-25
-3.87566e-25
7.56628e-25
-8.02714e-25
5.75912e-25
-8.52803e-25
4.88562e-25
-5.36967e-25
5.28642e-25
-2.23138e-25
5.7232e-25
3.32415e-26
5.93968e-25
1.99179e-25
7.19839e-25
4.49963e-25
8.71977e-25
8.10062e-25
8.04671e-25
1.01663e-24
4.14775e-25
1.20567e-24
-1.48452e-25
1.23764e-24
-6.63538e-25
1.11914e-24
-1.09184e-24
7.54032e-25
-1.36218e-24
6.9797e-26
-1.36054e-24
-5.13838e-25
-1.08624e-24
-1.06555e-24
-6.03341e-25
-1.34557e-24
-2.44788e-26
-1.26254e-24
5.58051e-25
-9.42574e-25
9.63732e-25
-3.27604e-25
1.04782e-24
2.43842e-25
8.73294e-25
7.99295e-25
5.42906e-25
1.13403e-24
8.12451e-26
9.95388e-25
-3.92059e-25
3.64013e-25
-7.11539e-25
-3.33736e-25
-6.45781e-25
-1.20924e-24
-4.27935e-25
-1.06347e-24
-1.00927e-24
-2.9861e-26
-4.18222e-22
1.39478e-24
-1.47984e-23
2.31795e-24
-4.09962e-24
1.73672e-24
7.0961e-25
7.93091e-25
1.1036e-24
-2.15712e-25
4.4172e-24
-7.51888e-25
3.51887e-24
-6.28615e-25
2.46757e-24
3.13964e-25
8.51611e-25
1.50932e-24
-1.91078e-24
2.63031e-24
-3.5261e-24
3.07704e-24
-3.81573e-24
2.93046e-24
-3.26285e-24
2.45083e-24
-4.56428e-25
1.39158e-24
1.47356e-24
2.2875e-25
3.20699e-24
-5.45407e-25
3.86155e-24
-5.1834e-25
2.81058e-24
1.35206e-25
1.19976e-24
9.66034e-25
-1.28113e-24
1.89518e-24
-2.8206e-24
2.60285e-24
-3.26467e-24
2.7499e-24
-2.75176e-24
2.31209e-24
-1.15784e-24
1.63424e-24
5.79236e-25
1.07095e-24
2.10712e-24
6.19497e-25
2.66769e-24
3.23161e-25
2.26437e-24
3.46574e-25
1.4597e-24
6.59497e-25
4.15353e-25
9.42877e-25
-4.59155e-25
9.08466e-25
-1.05748e-24
6.99921e-25
-1.16503e-24
6.0236e-25
-7.72377e-25
6.53947e-25
-3.5853e-25
7.0296e-25
-3.99729e-27
7.21309e-25
2.46626e-25
8.65425e-25
6.27407e-25
1.04822e-24
1.13582e-24
9.7652e-25
1.42146e-24
5.22575e-25
1.65813e-24
-1.37681e-25
1.67442e-24
-7.45466e-25
1.49145e-24
-1.2573e-24
9.68224e-25
-1.58856e-24
4.01975e-26
-1.60203e-24
-7.47673e-25
-1.29265e-24
-1.47466e-24
-7.35182e-25
-1.82319e-24
-5.78866e-26
-1.68343e-24
6.3301e-25
-1.21541e-24
1.12093e-24
-3.67422e-25
1.23225e-24
4.09488e-25
1.03971e-24
1.16023e-24
6.63423e-25
1.58992e-24
1.27498e-25
1.38755e-24
-4.31757e-25
5.1028e-25
-8.16684e-25
-4.35993e-25
-7.52776e-25
-1.61783e-24
-5.05819e-25
-1.41823e-24
-1.35245e-24
-3.41413e-26
-4.18038e-22
1.58936e-24
-1.86747e-23
2.68798e-24
-5.32518e-24
2.08828e-24
6.3142e-25
1.01719e-24
1.17933e-24
-1.52429e-25
5.47591e-24
-8.03981e-25
4.41163e-24
-7.1595e-25
3.2258e-24
3.27314e-25
1.28542e-24
1.68475e-24
-2.23994e-24
2.98307e-24
-4.29041e-24
3.52625e-24
-4.82401e-24
3.40502e-24
-4.21311e-24
2.9027e-24
-7.33493e-25
1.71509e-24
1.65608e-24
3.72016e-25
3.9187e-24
-5.49379e-25
4.81936e-24
-5.59631e-25
3.61918e-24
1.50471e-25
1.65453e-24
1.07875e-24
-1.47975e-24
2.14593e-24
-3.45207e-24
2.98638e-24
-4.1021e-24
3.1929e-24
-3.54019e-24
2.72153e-24
-1.59169e-24
1.96336e-24
5.93764e-25
1.32219e-24
2.57287e-24
7.91783e-25
3.3371e-24
4.25681e-25
2.89048e-24
4.28535e-25
1.91941e-24
7.78257e-25
6.13119e-25
1.10562e-24
-5.20814e-25
1.0706e-24
-1.34049e-24
8.34607e-25
-1.52569e-24
7.27415e-25
-1.05367e-24
7.90765e-25
-5.27778e-25
8.43915e-25
-5.99691e-26
8.57204e-25
2.92108e-25
1.01952e-24
8.30805e-25
1.2354e-24
1.51661e-24
1.1621e-24
1.89807e-24
6.45143e-25
2.18958e-24
-1.13006e-25
2.18657e-24
-8.16335e-25
1.92799e-24
-1.41676e-24
1.21831e-24
-1.81564e-24
7.38953e-27
-1.85081e-24
-1.01946e-24
-1.51106e-24
-1.95024e-24
-8.81314e-25
-2.37847e-24
-1.04678e-25
-2.17333e-24
6.98764e-25
-1.53083e-24
1.27478e-24
-4.11451e-25
1.41925e-24
6.05349e-25
1.21377e-24
1.58581e-24
7.9525e-25
2.12718e-24
1.85786e-25
1.85446e-24
-4.62389e-25
6.92617e-25
-9.17846e-25
-5.42779e-25
-8.60904e-25
-2.08316e-24
-5.87197e-25
-1.82801e-24
-1.7614e-24
-4.13551e-26
-4.17808e-22
1.77975e-24
-2.29842e-23
3.0701e-24
-6.73528e-24
2.47071e-24
4.60993e-25
1.27402e-24
1.20955e-24
-5.96146e-26
6.62551e-24
-8.37286e-25
5.39479e-24
-7.98979e-25
4.10138e-24
3.35879e-25
1.81979e-24
1.85105e-24
-2.55829e-24
3.33096e-24
-5.09859e-24
3.98016e-24
-5.94815e-24
3.89732e-24
-5.29546e-24
3.38586e-24
-1.08696e-24
2.07644e-24
1.80504e-24
5.50459e-25
4.67561e-24
-5.27834e-25
5.87088e-24
-5.87626e-25
4.53988e-24
1.68231e-25
2.20039e-24
1.18725e-24
-1.65986e-24
2.39332e-24
-4.12292e-24
3.37463e-24
-5.02712e-24
3.65128e-24
-4.43475e-24
3.15544e-24
-2.11102e-24
2.32226e-24
5.69957e-25
1.60409e-24
3.06402e-24
9.90749e-25
4.07169e-24
5.47591e-25
3.59568e-24
5.23415e-25
2.45315e-24
9.07018e-25
8.61318e-25
1.27837e-24
-5.66514e-25
1.24346e-24
-1.64765e-24
9.80504e-25
-1.93328e-24
8.64248e-25
-1.38187e-24
9.39413e-25
-7.33522e-25
9.9527e-25
-1.38199e-25
1.00161e-24
3.32122e-25
1.18206e-24
1.05767e-24
1.4336e-24
1.95132e-24
1.36199e-24
2.44707e-24
7.83752e-25
2.80205e-24
-7.24901e-26
2.77754e-24
-8.73869e-25
2.43333e-24
-1.56802e-24
1.50908e-24
-2.04174e-24
-2.41139e-26
-2.10608e-24
-1.32612e-24
-1.74173e-24
-2.49111e-24
-1.04293e-24
-3.01237e-24
-1.66719e-25
-2.73523e-24
7.5314e-25
-1.8928e-24
1.42329e-24
-4.63916e-25
1.6075e-24
8.28048e-25
1.39509e-24
2.07465e-24
9.38925e-25
2.74684e-24
2.57344e-25
2.39973e-24
-4.82435e-25
9.16183e-25
-1.01372e-24
-6.4941e-25
-9.69512e-25
-2.60268e-24
-6.71948e-25
-2.29376e-24
-2.24239e-24
-5.22924e-26
-4.17526e-22
1.96397e-24
-2.77139e-23
3.46325e-24
-8.33633e-24
2.88461e-24
1.78842e-25
1.5654e-24
1.18311e-24
6.57313e-26
7.8558e-24
-8.48962e-25
6.46225e-24
-8.75718e-25
5.09853e-24
3.40265e-25
2.46282e-24
2.00708e-24
-2.85472e-24
3.67196e-24
-5.93952e-24
4.43672e-24
-7.18492e-24
4.40622e-24
-6.51143e-24
3.90068e-24
-1.52558e-24
2.47754e-24
1.90867e-24
7.67205e-25
5.46798e-24
-4.7737e-25
7.00989e-24
-5.99695e-25
5.57431e-24
1.89769e-25
2.84427e-24
1.29139e-24
-1.81158e-24
2.63616e-24
-4.82374e-24
3.76604e-24
-6.03501e-24
4.12395e-24
-5.43602e-24
3.61382e-24
-2.72202e-24
2.71205e-24
4.98924e-25
1.91856e-24
3.57236e-24
1.21859e-24
4.86616e-24
6.9098e-25
4.37926e-24
6.32872e-25
3.06422e-24
1.04684e-24
1.166e-24
1.46176e-24
-5.89716e-25
1.42755e-24
-1.97414e-24
1.13817e-24
-2.38559e-24
1.0134e-24
-1.75761e-24
1.10024e-24
-9.78312e-25
1.15714e-24
-2.42435e-25
1.1545e-24
3.62708e-25
1.35299e-24
1.30487e-24
1.64296e-24
2.43814e-24
1.57678e-24
3.06851e-24
9.39719e-25
3.49721e-24
-1.41054e-26
3.45075e-24
-9.15647e-25
3.01232e-24
-1.70869e-24
1.8459e-24
-2.26498e-24
-4.90257e-26
-2.36689e-24
-1.66379e-24
-1.98476e-24
-3.0954e-24
-1.22116e-24
-3.72547e-24
-2.45906e-25
-3.3721e-24
7.93875e-25
-2.30565e-24
1.56434e-24
-5.29732e-25
1.79556e-24
1.0734e-24
1.58317e-24
2.62465e-24
1.09494e-24
3.44941e-24
3.43432e-25
3.0269e-24
-4.90287e-25
1.18659e-24
-1.10286e-24
-7.50455e-25
-1.07782e-24
-3.17303e-24
-7.59874e-25
-2.81616e-24
-2.80209e-24
-6.79029e-26
-4.17186e-22
2.13984e-24
-3.2848e-23
3.86612e-24
-1.01339e-23
3.33035e-24
-2.35347e-25
1.89306e-24
1.08825e-24
2.26697e-25
9.15505e-24
-8.36001e-25
7.60641e-24
-9.43933e-25
6.22078e-24
3.41293e-25
3.22223e-24
2.1518e-24
-3.11752e-24
4.00399e-24
-6.80095e-24
4.89373e-24
-8.53002e-24
4.93036e-24
-7.86159e-24
4.44728e-24
-2.05805e-24
2.92014e-24
1.95466e-24
1.02541e-24
6.28507e-24
-3.94416e-25
8.22896e-24
-5.92954e-25
6.72331e-24
2.16615e-25
3.5928e-24
1.39115e-24
-1.92456e-24
2.87327e-24
-5.54415e-24
4.15892e-24
-7.12001e-24
4.60962e-24
-6.54379e-24
4.0965e-24
-3.4306e-24
3.13375e-24
3.71441e-25
2.26748e-24
4.08885e-24
1.47759e-24
5.71424e-24
8.58075e-25
5.23977e-24
7.58716e-25
3.75553e-24
1.19889e-24
1.53329e-24
1.65645e-24
-5.83395e-25
1.62339e-24
-2.3144e-24
1.30818e-24
-2.87967e-24
1.17544e-24
-2.18097e-24
1.27362e-24
-1.26455e-24
1.32968e-24
-3.76616e-25
1.31587e-24
3.79453e-25
1.53224e-24
1.56862e-24
1.86354e-24
2.9745e-24
1.80703e-24
3.76178e-24
1.11438e-24
4.27638e-24
6.42587e-26
4.20954e-24
-9.391e-25
3.67004e-24
-1.83618e-24
2.2347e-24
-2.48326e-24
-6.1258e-26
-2.63204e-24
-2.02777e-24
-2.24012e-24
-3.76051e-24
-1.41708e-24
-4.51788e-24
-3.44152e-25
-4.08688e-24
8.18608e-25
-2.77409e-24
1.69568e-24
-6.1452e-25
1.98182e-24
1.33639e-24
1.77741e-24
3.23287e-24
1.2637e-24
4.23488e-24
4.45313e-25
3.73943e-24
-4.84252e-25
1.50991e-24
-1.18371e-24
-8.3972e-25
-1.18493e-24
-3.79001e-24
-8.50681e-25
-3.39555e-24
-3.44738e-24
-8.92115e-26
-4.16778e-22
2.30499e-24
-3.83682e-23
4.27718e-24
-1.21326e-23
3.80798e-24
-8.02574e-25
2.25854e-24
9.12658e-25
4.26424e-25
1.051e-23
-7.95241e-25
8.81809e-24
-1.00112e-24
7.47087e-24
3.40032e-25
4.10516e-24
2.28429e-24
-3.33444e-24
4.32499e-24
-7.66949e-24
5.34876e-24
-9.97793e-24
5.46809e-24
-9.34539e-24
5.02553e-24
-2.69292e-24
3.40584e-24
1.93025e-24
1.32824e-24
7.11511e-24
-2.75249e-25
9.51933e-24
-5.6426e-25
7.98673e-24
2.50573e-25
4.45218e-24
1.48674e-24
-1.98804e-24
3.10353e-24
-6.27286e-24
4.5515e-24
-8.27529e-24
5.10684e-24
-7.75689e-24
4.60308e-24
-4.2423e-24
3.58822e-24
1.78029e-25
2.65269e-24
4.60365e-24
1.77008e-24
6.60864e-24
1.05124e-24
6.1749e-24
9.0291e-25
4.52953e-24
1.3645e-24
1.96932e-24
1.86323e-24
-5.40077e-25
1.83157e-24
-2.6621e-24
1.49114e-24
-3.41176e-24
1.35095e-24
-2.65152e-24
1.45995e-24
-1.59441e-24
1.51304e-24
-5.44826e-25
1.48572e-24
3.77497e-25
1.71974e-24
1.84446e-24
2.09542e-24
3.55705e-24
2.0533e-24
4.52559e-24
1.30909e-24
5.1404e-24
1.64779e-25
5.05715e-24
-9.41522e-25
4.41182e-24
-1.9477e-24
2.68199e-24
-2.69422e-24
-5.38972e-26
-2.90013e-24
-2.41247e-24
-2.5076e-24
-4.48307e-24
-1.63165e-24
-5.38923e-24
-4.6337e-25
-4.88238e-24
8.24892e-25
-3.30319e-24
1.81488e-24
-7.24617e-25
2.16451e-24
1.61109e-24
1.97702e-24
3.89552e-24
1.44554e-24
5.10259e-24
5.64229e-25
4.54063e-24
-4.6257e-25
1.89258e-24
-1.25458e-24
-9.10216e-25
-1.28978e-24
-4.44847e-24
-9.43973e-25
-4.03183e-24
-4.18539e-24
-1.17318e-25
-4.16293e-22
2.45686e-24
-4.42534e-23
4.69466e-24
-1.4336e-23
4.31717e-24
-1.54436e-24
2.66317e-24
6.43547e-25
6.68064e-25
1.19058e-23
-7.2339e-25
1.00865e-23
-1.04448e-24
8.85054e-24
3.37834e-25
5.11801e-24
2.40382e-24
-3.49281e-24
4.63291e-24
-8.53073e-24
5.79925e-24
-1.15219e-23
6.01748e-24
-1.0961e-23
5.63498e-24
-3.43846e-24
3.93596e-24
1.82235e-24
1.67878e-24
7.94535e-24
-1.1602e-25
1.08709e-23
-5.10208e-25
9.36339e-24
2.93748e-25
5.42804e-24
1.57855e-24
-1.99097e-24
3.32591e-24
-6.99767e-24
4.94195e-24
-9.49292e-24
5.61394e-24
-9.07313e-24
5.13295e-24
-5.16217e-24
4.07613e-24
-9.09421e-26
3.07593e-24
5.10614e-24
2.09841e-24
7.54104e-24
1.27295e-24
7.18145e-24
1.06758e-24
5.38806e-24
1.54511e-24
2.48015e-24
2.08299e-24
-4.51895e-25
2.05272e-24
-3.01017e-24
1.68771e-24
-3.97723e-24
1.54053e-24
-3.16814e-24
1.65965e-24
-1.96978e-24
1.70741e-24
-7.51234e-25
1.66405e-24
3.51561e-25
1.91539e-24
2.12718e-24
2.3386e-24
4.18158e-24
2.31607e-24
5.35787e-24
1.52518e-24
6.08957e-24
2.8968e-25
5.99663e-24
-9.20079e-25
5.24318e-24
-2.04025e-24
3.19482e-24
-2.89528e-24
-1.91818e-26
-3.16949e-24
-2.81136e-24
-2.78677e-24
-5.25883e-24
-1.86573e-24
-6.33857e-24
-6.05445e-25
-5.76131e-24
8.10204e-25
-3.89832e-24
1.91939e-24
-8.6708e-25
2.34163e-24
1.89069e-24
2.18104e-24
4.60789e-24
1.64062e-24
6.05121e-24
7.01374e-25
5.43356e-24
-4.23429e-25
2.34144e-24
-1.31365e-24
-9.54158e-25
-1.39117e-24
-5.14229e-24
-1.03924e-24
-4.72442e-24
-5.02335e-24
-1.53402e-25
-4.15722e-22
2.59271e-24
-5.04799e-23
5.11652e-24
-1.67463e-23
4.8572e-24
-2.48257e-24
3.10801e-24
2.67807e-25
9.54733e-25
1.33261e-23
-6.17057e-25
1.1399e-23
-1.07096e-24
1.03605e-23
3.36362e-25
6.26624e-24
2.50986e-24
-3.57968e-24
4.92578e-24
-9.36927e-24
6.24248e-24
-1.31541e-23
6.5763e-24
-1.27053e-23
6.27482e-24
-4.3025e-24
4.51157e-24
1.61769e-24
2.08004e-24
8.76213e-24
8.72144e-26
1.22722e-23
-4.27134e-25
1.08509e-23
3.48567e-25
6.52529e-24
1.66727e-24
-1.92214e-24
3.53953e-24
-7.70559e-24
5.32838e-24
-1.07638e-23
6.12908e-24
-1.04892e-23
5.68525e-24
-6.19463e-24
4.59794e-24
-4.45136e-25
3.53883e-24
5.58504e-24
2.46494e-24
8.50206e-24
1.52579e-24
8.25523e-24
1.25501e-24
6.3323e-24
1.74234e-24
3.07163e-24
2.31671e-24
-3.10658e-25
2.28756e-24
-3.35078e-24
1.89857e-24
-4.57059e-24
1.74484e-24
-3.72902e-24
1.87315e-24
-2.39216e-24
1.91301e-24
-1.00003e-24
1.85089e-24
2.95977e-25
2.11908e-24
2.4109e-24
2.59304e-24
4.84296e-24
2.59579e-24
6.25571e-24
1.76394e-24
7.1236e-24
4.41214e-25
7.03078e-24
-8.71822e-25
6.16976e-24
-2.11065e-24
3.7808e-24
-3.08358e-24
5.15134e-26
-3.43817e-24
-3.21694e-24
-3.07695e-24
-6.08265e-24
-2.11997e-24
-7.36431e-24
-7.72203e-25
-6.72613e-24
7.71966e-25
-4.56514e-24
2.00648e-24
-1.04968e-24
2.51103e-24
2.16739e-24
2.38831e-24
5.36424e-24
1.84896e-24
7.07858e-24
8.57868e-25
6.42096e-24
-3.64983e-25
2.86359e-24
-1.35898e-24
-9.62962e-25
-1.48776e-24
-5.86432e-24
-1.13584e-24
-5.47217e-24
-5.96846e-24
-1.98719e-25
-4.15056e-22
2.70966e-24
-5.70211e-23
5.54043e-24
-1.93643e-23
5.42689e-24
-3.63916e-24
3.5938e-24
-2.27867e-25
1.28946e-24
1.47529e-23
-4.72785e-25
1.27412e-23
-1.07717e-24
1.2e-23
3.37614e-25
7.55413e-24
2.60214e-24
-3.58189e-24
5.20174e-24
-1.01688e-23
6.6756e-24
-1.4865e-23
7.14205e-24
-1.45735e-23
6.94388e-24
-5.29229e-24
5.13338e-24
1.30298e-24
2.53486e-24
9.55091e-24
3.38454e-25
1.37105e-23
-3.11126e-25
1.24458e-23
4.17797e-25
7.74794e-24
1.7539e-24
-1.77032e-24
3.74366e-24
-8.38286e-24
5.70886e-24
-1.20778e-23
6.65021e-24
-1.20006e-23
6.25885e-24
-7.34335e-24
5.15384e-24
-8.94118e-25
4.04288e-24
6.0284e-24
2.87201e-24
9.48128e-24
1.81245e-24
9.39099e-24
1.46764e-24
7.36261e-24
1.95795e-24
3.7493e-24
2.56552e-24
-1.0793e-25
2.53688e-24
-3.67539e-24
2.12444e-24
-5.18538e-24
1.96454e-24
-4.33152e-24
2.10094e-24
-2.86259e-24
2.13007e-24
-1.29534e-24
2.04627e-24
2.04739e-25
2.33068e-24
2.68899e-24
2.85864e-24
5.53512e-24
2.89279e-24
7.21527e-24
2.0266e-24
8.24149e-24
6.21634e-25
8.16207e-24
-7.93709e-25
7.19728e-24
-2.1555e-24
4.44804e-24
-3.25597e-24
1.67685e-25
-3.7039e-24
-3.62067e-24
-3.37718e-24
-6.94838e-24
-2.39485e-24
-8.46415e-24
-9.65377e-25
-7.77902e-24
7.07563e-25
-5.30954e-24
2.07331e-24
-1.28089e-24
2.67031e-24
2.43243e-24
2.59743e-24
6.15776e-24
2.0704e-24
8.18168e-24
1.03472e-24
7.50512e-24
-2.85371e-25
3.4664e-24
-1.38852e-24
-9.27259e-25
-1.578e-24
-6.60631e-24
-1.23298e-24
-6.2733e-24
-7.02784e-24
-2.54584e-25
-4.14283e-22
2.80466e-24
-6.3848e-23
5.96379e-24
-2.2189e-23
6.02454e-24
-5.03599e-24
4.12087e-24
-8.56793e-25
1.67513e-24
1.61666e-23
-2.87097e-25
1.40971e-23
-1.05947e-24
1.37672e-23
3.43947e-25
8.98456e-24
2.6807e-24
-3.48629e-24
5.45911e-24
-1.09123e-23
7.09567e-24
-1.66441e-23
7.71191e-24
-1.65594e-23
7.64056e-24
-6.41437e-24
5.80171e-24
8.65071e-25
3.04587e-24
1.02964e-23
6.41708e-25
1.51713e-23
-1.58036e-25
1.41429e-23
5.04567e-25
9.09895e-24
1.83977e-24
-1.5244e-24
3.93781e-24
-9.01514e-24
6.08149e-24
-1.34236e-23
7.17513e-24
-1.36015e-23
6.85231e-24
-8.61112e-24
5.74374e-24
-1.44721e-24
4.58933e-24
6.42378e-24
3.32188e-24
1.04673e-23
2.13568e-24
1.05824e-23
1.70807e-24
8.47844e-24
2.19389e-24
4.51827e-24
2.83067e-24
1.64863e-25
2.80157e-24
-3.97477e-24
2.36614e-24
-5.81423e-24
2.20034e-24
-4.97217e-24
2.34351e-24
-3.38151e-24
2.35886e-24
-1.64113e-24
2.25024e-24
7.15612e-26
2.55002e-24
2.95413e-24
3.13523e-24
6.25104e-24
3.20732e-24
8.23171e-24
2.31431e-24
9.44142e-24
8.33165e-25
9.39252e-24
-6.82621e-25
8.33143e-24
-2.17122e-24
5.20513e-24
-3.40904e-24
3.39701e-25
-3.96408e-24
-4.01294e-24
-3.68618e-24
-7.84882e-24
-2.69059e-24
-9.63495e-24
-1.18657e-24
-8.92177e-24
6.14378e-25
-6.13756e-24
2.11688e-24
-1.56986e-24
2.81684e-24
2.67605e-24
2.80674e-24
6.98049e-24
2.30451e-24
9.35648e-24
1.23281e-24
8.68784e-24
-1.82749e-25
4.15732e-24
-1.40009e-24
-8.36923e-25
-1.66019e-24
-7.35888e-24
-1.32972e-24
-7.12526e-24
-8.20828e-24
-3.22365e-25
-4.13392e-22
2.87452e-24
-7.09289e-23
6.3837e-24
-2.52181e-23
6.64789e-24
-6.69451e-24
4.68913e-24
-1.63211e-24
2.11442e-24
1.75463e-23
-5.65444e-26
1.54488e-23
-1.01393e-24
1.56586e-23
3.58089e-25
1.05588e-23
2.74592e-24
-3.2799e-24
5.69641e-24
-1.15822e-23
7.49969e-24
-1.84796e-23
8.28279e-24
-1.8655e-23
8.36281e-24
-7.67435e-24
6.5164e-24
2.91181e-25
3.61543e-24
1.09827e-23
1.00094e-24
1.66392e-23
3.6494e-26
1.59358e-23
6.1237e-25
1.05801e-23
1.92659e-24
-1.17361e-24
4.12175e-24
-9.58756e-24
6.44443e-24
-1.47888e-23
7.70146e-24
-1.52848e-23
7.46396e-24
-9.99969e-24
6.36723e-24
-2.11332e-24
5.17922e-24
6.75832e-24
3.81672e-24
1.14476e-23
2.49827e-24
1.18218e-23
1.97905e-24
9.6782e-24
2.45226e-24
5.38307e-24
3.11357e-24
5.16318e-25
3.0826e-24
-4.23908e-24
2.62452e-24
-6.44877e-24
2.453e-24
-5.64652e-24
2.60142e-24
-3.94869e-24
2.5997e-24
-2.0411e-24
2.46286e-24
-1.10036e-25
2.77694e-24
3.19832e-24
3.42254e-24
6.98266e-24
3.53949e-24
9.29912e-24
2.6281e-24
1.07207e-23
1.07798e-24
1.07236e-23
-5.35396e-25
9.57783e-24
-2.15407e-24
6.06109e-24
-3.53908e-24
5.78781e-25
-4.21575e-24
-4.38303e-24
-4.0023e-24
-8.7756e-24
-3.00708e-24
-1.08727e-23
-1.43719e-24
-1.01557e-23
4.89824e-25
-7.05532e-24
2.13409e-24
-1.92634e-24
2.9478e-24
2.88746e-24
3.0143e-24
7.82329e-24
2.55063e-24
1.05979e-23
1.45281e-24
9.9702e-24
-5.53164e-26
4.94384e-24
-1.39147e-24
-6.81121e-25
-1.73245e-24
-8.11146e-24
-1.42495e-24
-8.02468e-24
-9.51616e-24
-4.03465e-25
-4.12374e-22
2.91595e-24
-7.82295e-23
6.79697e-24
-2.84469e-23
7.29408e-24
-8.63548e-24
5.29796e-24
-2.56653e-24
2.60972e-24
1.88696e-23
2.22232e-25
1.67764e-23
-9.36374e-25
1.76689e-23
3.83151e-25
1.22762e-23
2.79858e-24
-2.95005e-24
5.91247e-24
-1.21604e-23
7.88463e-24
-2.03581e-23
8.85133e-24
-2.08506e-23
9.10813e-24
-9.07682e-24
7.27681e-24
-4.30899e-25
4.24553e-24
1.15934e-23
1.42003e-24
1.80972e-23
2.77004e-25
1.78165e-23
7.45073e-25
1.21916e-23
2.01649e-24
-7.07621e-25
4.29557e-24
-1.0085e-23
6.79592e-24
-1.61598e-23
8.22672e-24
-1.70418e-23
8.09176e-24
-1.15096e-23
7.02356e-24
-2.9008e-24
5.81332e-24
7.01889e-24
4.35854e-24
1.2409e-23
2.90305e-24
1.31007e-23
2.28344e-24
1.09592e-23
2.73535e-24
6.34752e-24
3.41578e-24
9.5492e-25
3.38108e-24
-4.45794e-24
2.90052e-24
-7.0797e-24
2.72336e-24
-6.34912e-24
2.87528e-24
-4.56312e-24
2.85297e-24
-2.49856e-24
2.68426e-24
-3.46631e-25
3.01123e-24
3.41293e-24
3.72024e-24
7.72092e-24
3.88929e-24
1.04105e-23
2.96884e-24
1.20756e-23
1.35814e-24
1.21562e-23
-3.48859e-25
1.09419e-23
-2.10013e-24
7.02525e-24
-3.64208e-24
8.96976e-25
-4.45555e-24
-4.71909e-24
-4.32347e-24
-9.71918e-24
-3.34389e-24
-1.21723e-23
-1.71843e-24
-1.14815e-23
3.31385e-25
-8.06893e-24
2.12174e-24
-2.36068e-24
3.0601e-24
3.05489e-24
3.21787e-24
8.67572e-24
2.80778e-24
1.18995e-23
1.6952e-24
1.13525e-23
9.86458e-26
5.83333e-24
-1.36031e-24
-4.48381e-25
-1.7927e-24
-8.85234e-24
-1.51736e-24
-8.96729e-24
-1.09572e-23
-4.99305e-25
-4.11216e-22
2.92557e-24
-8.57134e-23
7.20011e-24
-3.18689e-23
7.95959e-24
-1.08787e-23
5.94619e-24
-3.67214e-24
3.16305e-24
2.01127e-23
5.52438e-25
1.80586e-23
-8.22388e-25
1.97913e-23
4.22622e-25
1.41342e-23
2.83988e-24
-2.48466e-24
6.1064e-24
-1.26287e-23
8.2475e-24
-2.22654e-23
9.41392e-24
-2.31344e-23
9.8735e-24
-1.06251e-23
8.08173e-24
-1.31257e-24
4.93778e-24
1.21116e-23
1.90265e-24
1.95272e-23
5.68174e-25
1.97755e-23
9.06907e-25
1.39324e-23
2.11205e-24
-1.1684e-25
4.45973e-24
-1.0492e-23
7.13433e-24
-1.75224e-23
8.7483e-24
-1.88626e-23
8.73343e-24
-1.31403e-23
7.71157e-24
-3.81721e-24
6.49203e-24
7.19221e-24
4.94919e-24
1.33372e-23
3.35281e-24
1.4409e-23
2.62422e-24
1.23173e-23
3.04559e-24
7.41453e-24
3.73902e-24
1.48889e-24
3.69823e-24
-4.62054e-24
3.19518e-24
-7.69677e-24
3.01228e-24
-7.07345e-24
3.16575e-24
-5.22287e-24
3.11908e-24
-3.0163e-24
2.91456e-24
-6.4479e-25
3.2527e-24
3.58879e-24
4.02788e-24
8.45576e-24
4.25653e-24
1.15575e-23
3.33724e-24
1.35014e-23
1.67558e-24
1.36903e-23
-1.19856e-25
1.24286e-23
-2.00538e-24
8.10721e-24
-3.71374e-24
1.30712e-24
-4.67972e-24
-5.00812e-24
-4.64719e-24
-1.06687e-23
-3.70017e-24
-1.35276e-23
-2.03118e-24
-1.28992e-23
1.36667e-25
-9.18437e-24
2.07658e-24
-2.88369e-24
3.15046e-24
3.16559e-24
3.41491e-24
9.52605e-24
3.07464e-24
1.32537e-23
1.96016e-24