/*--------------------------------*- C++ -*----------------------------------*\
| =========                 |                                                 |
| \\      /  F ield         | foam-extend: Open Source CFD                    |
|  \\    /   O peration     | Version:     4.0                                |
|   \\  /    A nd           | Web:         http://www.foam-extend.org         |
|    \\/     M anipulation  |                                                 |
\*---------------------------------------------------------------------------*/
FoamFile
{
    version     2.0;
    format      ascii;
    class       volVectorField;
    location    "5";
    object      U;
}
// * * * * * * * * * * * * * * * * * * * * * * * * * * * * * * * * * * * * * //

dimensions      [0 1 -1 0 0 0 0];

internalField   nonuniform List<vector> 
6960
(
(-2.69652e-27 -4.46399e-26 0)
(-2.43773e-27 -3.28225e-27 0)
(1.69041e-29 -3.00774e-27 0)
(5.80725e-29 -2.79686e-27 0)
(1.93445e-29 -2.70805e-27 0)
(1.22617e-29 -2.65634e-27 0)
(4.89032e-29 -2.61521e-27 0)
(9.07603e-30 -2.56135e-27 0)
(-5.70293e-29 -2.51418e-27 0)
(-5.23281e-29 -2.49448e-27 0)
(4.02135e-29 -2.53065e-27 0)
(9.5346e-29 -2.60808e-27 0)
(5.49581e-29 -2.67403e-27 0)
(-2.67575e-29 -2.70666e-27 0)
(-3.46245e-29 -2.72066e-27 0)
(-6.72939e-30 -2.73142e-27 0)
(-7.76655e-29 -2.7299e-27 0)
(-1.75003e-28 -2.70008e-27 0)
(-1.45558e-28 -2.66244e-27 0)
(-3.24064e-29 -2.65393e-27 0)
(4.1268e-29 -2.69112e-27 0)
(6.02223e-29 -2.76013e-27 0)
(9.13984e-29 -2.82917e-27 0)
(1.25114e-28 -2.86558e-27 0)
(8.19445e-29 -2.83795e-27 0)
(-4.08532e-29 -2.75617e-27 0)
(-1.10809e-28 -2.69224e-27 0)
(-1.05244e-29 -2.71397e-27 0)
(1.3771e-28 -2.80791e-27 0)
(9.5823e-29 -2.87884e-27 0)
(-1.15172e-28 -2.81169e-27 0)
(-1.81072e-28 -2.63364e-27 0)
(-1.03717e-29 -2.51084e-27 0)
(8.25632e-29 -2.52123e-27 0)
(9.51277e-30 -2.59635e-27 0)
(7.17954e-30 -2.66635e-27 0)
(4.93972e-29 -2.72697e-27 0)
(-7.78321e-30 -2.76608e-27 0)
(-5.92364e-29 -2.76645e-27 0)
(-4.49404e-30 -2.76779e-27 0)
(7.85146e-29 -2.8057e-27 0)
(8.90183e-29 -2.84795e-27 0)
(7.83199e-30 -2.85785e-27 0)
(-7.06939e-29 -2.8453e-27 0)
(-7.57997e-30 -2.85409e-27 0)
(1.19486e-28 -2.9047e-27 0)
(8.08473e-29 -2.93745e-27 0)
(-6.65031e-29 -2.88089e-27 0)
(-9.71677e-29 -2.76308e-27 0)
(-4.24557e-29 -2.67687e-27 0)
(-3.72631e-29 -2.64754e-27 0)
(-6.30236e-29 -2.62926e-27 0)
(-5.14429e-29 -2.60908e-27 0)
(-1.41696e-29 -2.61603e-27 0)
(-1.417e-29 -2.64498e-27 0)
(-3.22614e-29 -2.70652e-27 0)
(-1.139e-28 -2.78204e-27 0)
(2.16087e-29 -2.93803e-27 0)
(-4.49164e-29 -3.13666e-27 0)
(1.84482e-28 -3.46301e-27 0)
(-5.88126e-27 -9.67452e-26 0)
(-5.14541e-27 -8.18048e-27 0)
(2.02206e-29 -7.56285e-27 0)
(1.33424e-28 -7.08195e-27 0)
(5.0151e-29 -6.90318e-27 0)
(3.27131e-29 -6.76995e-27 0)
(1.51777e-28 -6.64125e-27 0)
(5.19316e-29 -6.47867e-27 0)
(-1.3181e-28 -6.33111e-27 0)
(-1.25073e-28 -6.25931e-27 0)
(1.30748e-28 -6.34288e-27 0)
(2.76758e-28 -6.5391e-27 0)
(1.52358e-28 -6.71263e-27 0)
(-8.3725e-29 -6.8074e-27 0)
(-1.21342e-28 -6.84914e-27 0)
(-6.02905e-29 -6.86338e-27 0)
(-2.44892e-28 -6.83251e-27 0)
(-4.80164e-28 -6.74067e-27 0)
(-3.79611e-28 -6.6491e-27 0)
(-7.77078e-29 -6.63239e-27 0)
(1.10097e-28 -6.71673e-27 0)
(1.68013e-28 -6.88013e-27 0)
(2.72229e-28 -7.06373e-27 0)
(3.71616e-28 -7.18236e-27 0)
(2.41378e-28 -7.14087e-27 0)
(-1.04197e-28 -6.95481e-27 0)
(-2.8097e-28 -6.80395e-27 0)
(1.30197e-29 -6.86796e-27 0)
(4.0702e-28 -7.11269e-27 0)
(2.55811e-28 -7.2888e-27 0)
(-3.34038e-28 -7.12611e-27 0)
(-4.8998e-28 -6.699e-27 0)
(-1.20987e-29 -6.39952e-27 0)
(2.2148e-28 -6.40806e-27 0)
(6.74514e-30 -6.55859e-27 0)
(4.32581e-30 -6.7045e-27 0)
(1.22773e-28 -6.84521e-27 0)
(-3.6574e-29 -6.93174e-27 0)
(-1.7489e-28 -6.92268e-27 0)
(-2.15483e-29 -6.92241e-27 0)
(2.01978e-28 -7.01043e-27 0)
(2.27831e-28 -7.11244e-27 0)
(7.85427e-30 -7.14175e-27 0)
(-1.97352e-28 -7.11158e-27 0)
(-1.36437e-29 -7.13194e-27 0)
(3.19019e-28 -7.26007e-27 0)
(1.80343e-28 -7.33711e-27 0)
(-2.28922e-28 -7.18655e-27 0)
(-2.87623e-28 -6.89492e-27 0)
(-1.15728e-28 -6.68591e-27 0)
(-9.95523e-29 -6.61597e-27 0)
(-1.71729e-28 -6.58907e-27 0)
(-1.27552e-28 -6.57395e-27 0)
(-7.41316e-30 -6.63104e-27 0)
(4.72207e-30 -6.73919e-27 0)
(-5.32985e-29 -6.9025e-27 0)
(-2.74192e-28 -7.06736e-27 0)
(8.51627e-29 -7.41046e-27 0)
(-1.18677e-28 -7.83783e-27 0)
(5.02996e-28 -8.56847e-27 0)
(-8.17706e-27 -1.0707e-25 0)
(-7.00189e-27 -1.64599e-26 0)
(9.86915e-30 -1.54507e-26 0)
(1.78227e-28 -1.46776e-26 0)
(7.55885e-29 -1.44402e-26 0)
(5.28783e-29 -1.4141e-26 0)
(2.62303e-28 -1.381e-26 0)
(1.21455e-28 -1.344e-26 0)
(-1.65061e-28 -1.30965e-26 0)
(-1.67098e-28 -1.29102e-26 0)
(2.23819e-28 -1.30717e-26 0)
(4.38975e-28 -1.34714e-26 0)
(2.29302e-28 -1.38307e-26 0)
(-1.4884e-28 -1.40501e-26 0)
(-2.22355e-28 -1.4156e-26 0)
(-1.41436e-28 -1.41504e-26 0)
(-4.12128e-28 -1.3999e-26 0)
(-7.39314e-28 -1.37545e-26 0)
(-5.63326e-28 -1.35913e-26 0)
(-1.09039e-28 -1.35941e-26 0)
(1.61984e-28 -1.37434e-26 0)
(2.55898e-28 -1.40374e-26 0)
(4.38914e-28 -1.44397e-26 0)
(6.05364e-28 -1.47622e-26 0)
(3.96982e-28 -1.47436e-26 0)
(-1.44777e-28 -1.43888e-26 0)
(-4.05661e-28 -1.40751e-26 0)
(6.23443e-29 -1.42208e-26 0)
(6.55272e-28 -1.47603e-26 0)
(3.87173e-28 -1.51244e-26 0)
(-5.27416e-28 -1.48041e-26 0)
(-7.35396e-28 -1.39747e-26 0)
(9.66706e-30 -1.33868e-26 0)
(3.37717e-28 -1.33729e-26 0)
(-1.6519e-29 -1.35759e-26 0)
(-1.83635e-29 -1.37958e-26 0)
(1.6911e-28 -1.4091e-26 0)
(-7.60284e-29 -1.4269e-26 0)
(-2.84881e-28 -1.42284e-26 0)
(-4.55072e-29 -1.42129e-26 0)
(2.93954e-28 -1.43657e-26 0)
(3.3121e-28 -1.45679e-26 0)
(-3.78257e-30 -1.46491e-26 0)
(-3.09387e-28 -1.45706e-26 0)
(-1.6257e-29 -1.45691e-26 0)
(4.79191e-28 -1.48234e-26 0)
(2.32694e-28 -1.49812e-26 0)
(-4.00514e-28 -1.46699e-26 0)
(-4.62844e-28 -1.41247e-26 0)
(-1.76409e-28 -1.37591e-26 0)
(-1.52717e-28 -1.36289e-26 0)
(-2.66399e-28 -1.35893e-26 0)
(-1.8263e-28 -1.35905e-26 0)
(2.31828e-29 -1.37503e-26 0)
(5.38722e-29 -1.40386e-26 0)
(-4.58438e-29 -1.43957e-26 0)
(-3.86575e-28 -1.46809e-26 0)
(1.54578e-28 -1.52865e-26 0)
(-1.95047e-28 -1.60131e-26 0)
(7.80178e-28 -1.72948e-26 0)
(-9.88946e-27 -1.13987e-25 0)
(-8.30086e-27 -2.60151e-26 0)
(-5.43209e-30 -2.47292e-26 0)
(2.00757e-28 -2.3711e-26 0)
(9.77573e-29 -2.34539e-26 0)
(7.61038e-29 -2.29819e-26 0)
(3.80548e-28 -2.24049e-26 0)
(2.1587e-28 -2.17527e-26 0)
(-1.58139e-28 -2.11356e-26 0)
(-1.81391e-28 -2.07832e-26 0)
(3.11376e-28 -2.10124e-26 0)
(5.72368e-28 -2.16386e-26 0)
(2.79116e-28 -2.22221e-26 0)
(-2.2454e-28 -2.26062e-26 0)
(-3.3234e-28 -2.28064e-26 0)
(-2.36466e-28 -2.27922e-26 0)
(-5.66725e-28 -2.25073e-26 0)
(-9.50152e-28 -2.20777e-26 0)
(-7.0214e-28 -2.18072e-26 0)
(-1.30702e-28 -2.18049e-26 0)
(1.95395e-28 -2.20138e-26 0)
(3.18951e-28 -2.24538e-26 0)
(5.80596e-28 -2.31071e-26 0)
(8.15455e-28 -2.36746e-26 0)
(5.44688e-28 -2.37211e-26 0)
(-1.62487e-28 -2.32329e-26 0)
(-4.91968e-28 -2.27824e-26 0)
(1.20195e-28 -2.30321e-26 0)
(8.68706e-28 -2.38902e-26 0)
(4.91766e-28 -2.44631e-26 0)
(-6.85269e-28 -2.39967e-26 0)
(-9.13178e-28 -2.27655e-26 0)
(5.44265e-29 -2.18799e-26 0)
(4.34191e-28 -2.18218e-26 0)
(-5.56486e-29 -2.2039e-26 0)
(-5.86652e-29 -2.22855e-26 0)
(1.91078e-28 -2.26907e-26 0)
(-1.20774e-28 -2.29221e-26 0)
(-3.84786e-28 -2.28226e-26 0)
(-7.41033e-29 -2.27809e-26 0)
(3.57744e-28 -2.30019e-26 0)
(4.04066e-28 -2.33151e-26 0)
(-2.25554e-29 -2.34621e-26 0)
(-4.06535e-28 -2.33474e-26 0)
(-2.01749e-29 -2.33321e-26 0)
(6.0145e-28 -2.37152e-26 0)
(2.54229e-28 -2.39421e-26 0)
(-5.6005e-28 -2.3436e-26 0)
(-6.1043e-28 -2.25877e-26 0)
(-2.22017e-28 -2.20196e-26 0)
(-1.98135e-28 -2.18139e-26 0)
(-3.5031e-28 -2.17995e-26 0)
(-2.25365e-28 -2.19019e-26 0)
(6.21679e-29 -2.22606e-26 0)
(1.13224e-28 -2.27956e-26 0)
(-2.5865e-29 -2.33678e-26 0)
(-4.68074e-28 -2.37478e-26 0)
(2.2042e-28 -2.45654e-26 0)
(-2.81074e-28 -2.55006e-26 0)
(1.02253e-27 -2.72493e-26 0)
(-1.11324e-26 -1.22361e-25 0)
(-9.15198e-27 -3.63454e-26 0)
(-2.30298e-29 -3.49347e-26 0)
(2.07635e-28 -3.37278e-26 0)
(1.175e-28 -3.34999e-26 0)
(1.02861e-28 -3.29208e-26 0)
(5.04788e-28 -3.21419e-26 0)
(3.31404e-28 -3.11903e-26 0)
(-1.15532e-28 -3.02503e-26 0)
(-1.71794e-28 -2.96763e-26 0)
(3.89268e-28 -2.99243e-26 0)
(6.73172e-28 -3.07597e-26 0)
(2.99609e-28 -3.15877e-26 0)
(-3.11355e-28 -3.21725e-26 0)
(-4.47366e-28 -3.25023e-26 0)
(-3.36628e-28 -3.2515e-26 0)
(-7.02394e-28 -3.2123e-26 0)
(-1.11407e-27 -3.14941e-26 0)
(-8.01136e-28 -3.10583e-26 0)
(-1.45152e-28 -3.09979e-26 0)
(2.10884e-28 -3.12591e-26 0)
(3.56649e-28 -3.18637e-26 0)
(6.93713e-28 -3.27741e-26 0)
(9.97109e-28 -3.35935e-26 0)
(6.80878e-28 -3.37458e-26 0)
(-1.6117e-28 -3.31932e-26 0)
(-5.47669e-28 -3.26634e-26 0)
(1.76806e-28 -3.30263e-26 0)
(1.04273e-27 -3.41805e-26 0)
(5.72076e-28 -3.49662e-26 0)
(-8.06359e-28 -3.43908e-26 0)
(-1.02881e-27 -3.2804e-26 0)
(1.17933e-28 -3.1646e-26 0)
(5.13438e-28 -3.15309e-26 0)
(-1.05815e-28 -3.1732e-26 0)
(-1.1133e-28 -3.19474e-26 0)
(1.95111e-28 -3.23722e-26 0)
(-1.65533e-28 -3.25872e-26 0)
(-4.72279e-28 -3.23988e-26 0)
(-1.0568e-28 -3.2321e-26 0)
(3.97488e-28 -3.26144e-26 0)
(4.51961e-28 -3.30434e-26 0)
(-4.5392e-29 -3.32646e-26 0)
(-4.90538e-28 -3.31463e-26 0)
(-2.81817e-29 -3.31463e-26 0)
(6.90661e-28 -3.36441e-26 0)
(2.58429e-28 -3.39051e-26 0)
(-6.94196e-28 -3.3172e-26 0)
(-7.23134e-28 -3.19718e-26 0)
(-2.50801e-28 -3.11572e-26 0)
(-2.36978e-28 -3.08828e-26 0)
(-4.27545e-28 -3.09543e-26 0)
(-2.64501e-28 -3.12501e-26 0)
(9.75928e-29 -3.18774e-26 0)
(1.69407e-28 -3.2657e-26 0)
(-3.57028e-30 -3.33979e-26 0)
(-5.30184e-28 -3.38095e-26 0)
(2.79654e-28 -3.47493e-26 0)
(-3.75979e-28 -3.5764e-26 0)
(1.23554e-27 -3.78218e-26 0)
(-1.19984e-26 -1.31431e-25 0)
(-9.64831e-27 -4.72543e-26 0)
(-4.41e-29 -4.58738e-26 0)
(2.02764e-28 -4.4567e-26 0)
(1.3421e-28 -4.44503e-26 0)
(1.32079e-28 -4.38652e-26 0)
(6.3201e-28 -4.29948e-26 0)
(4.62532e-28 -4.18188e-26 0)
(-4.37851e-29 -4.058e-26 0)
(-1.42481e-28 -3.97564e-26 0)
(4.56382e-28 -3.99592e-26 0)
(7.42242e-28 -4.09457e-26 0)
(2.91846e-28 -4.20021e-26 0)
(-4.09104e-28 -4.28128e-26 0)
(-5.6506e-28 -4.33167e-26 0)
(-4.36136e-28 -4.3397e-26 0)
(-8.1613e-28 -4.29144e-26 0)
(-1.23476e-27 -4.20644e-26 0)
(-8.65983e-28 -4.14155e-26 0)
(-1.5415e-28 -4.12562e-26 0)
(2.10456e-28 -4.15568e-26 0)
(3.70912e-28 -4.23292e-26 0)
(7.78431e-28 -4.34961e-26 0)
(1.14949e-27 -4.45722e-26 0)
(8.03906e-28 -4.48628e-26 0)
(-1.44889e-28 -4.42991e-26 0)
(-5.79617e-28 -4.37266e-26 0)
(2.27025e-28 -4.41944e-26 0)
(1.17804e-27 -4.56131e-26 0)
(6.31116e-28 -4.66078e-26 0)
(-8.94023e-28 -4.59646e-26 0)
(-1.09232e-27 -4.40859e-26 0)
(1.94482e-28 -4.27011e-26 0)
(5.77885e-28 -4.25302e-26 0)
(-1.62393e-28 -4.26839e-26 0)
(-1.70908e-28 -4.28135e-26 0)
(1.87515e-28 -4.31906e-26 0)
(-2.06638e-28 -4.33388e-26 0)
(-5.46884e-28 -4.30396e-26 0)
(-1.39168e-28 -4.29187e-26 0)
(4.17315e-28 -4.32821e-26 0)
(4.7982e-28 -4.38271e-26 0)
(-7.04557e-29 -4.41341e-26 0)
(-5.63306e-28 -4.40379e-26 0)
(-4.08901e-29 -4.40645e-26 0)
(7.53275e-28 -4.46525e-26 0)
(2.55418e-28 -4.4914e-26 0)
(-7.96753e-28 -4.39398e-26 0)
(-7.99357e-28 -4.23846e-26 0)
(-2.6275e-28 -4.13235e-26 0)
(-2.6989e-28 -4.09926e-26 0)
(-5.00742e-28 -4.11744e-26 0)
(-3.05642e-28 -4.16838e-26 0)
(1.22729e-28 -4.25622e-26 0)
(2.15439e-28 -4.35149e-26 0)
(1.58944e-29 -4.43333e-26 0)
(-5.80613e-28 -4.46922e-26 0)
(3.31655e-28 -4.5671e-26 0)
(-4.76599e-28 -4.66532e-26 0)
(1.42338e-27 -4.88373e-26 0)
(-1.25722e-26 -1.40516e-25 0)
(-9.87724e-27 -5.84673e-26 0)
(-7.15831e-29 -5.72215e-26 0)
(1.87409e-28 -5.58965e-26 0)
(1.45302e-28 -5.59807e-26 0)
(1.60538e-28 -5.55143e-26 0)
(7.57097e-28 -5.47253e-26 0)
(6.01696e-28 -5.35006e-26 0)
(4.90145e-29 -5.20855e-26 0)
(-9.76476e-29 -5.1045e-26 0)
(5.14056e-28 -5.11502e-26 0)
(7.84127e-28 -5.22002e-26 0)
(2.59491e-28 -5.34241e-26 0)
(-5.17149e-28 -5.44535e-26 0)
(-6.84359e-28 -5.51616e-26 0)
(-5.31264e-28 -5.5344e-26 0)
(-9.06893e-28 -5.47817e-26 0)
(-1.31726e-27 -5.3694e-26 0)
(-9.02732e-28 -5.28032e-26 0)
(-1.58963e-28 -5.25192e-26 0)
(1.97054e-28 -5.28414e-26 0)
(3.64824e-28 -5.37689e-26 0)
(8.36669e-28 -5.518e-26 0)
(1.27412e-27 -5.65075e-26 0)
(9.13999e-28 -5.69521e-26 0)
(-1.16933e-28 -5.64072e-26 0)
(-5.93587e-28 -5.58023e-26 0)
(2.68367e-28 -5.63458e-26 0)
(1.27817e-27 -5.7985e-26 0)
(6.72178e-28 -5.91748e-26 0)
(-9.53744e-28 -5.85049e-26 0)
(-1.11522e-27 -5.6409e-26 0)
(2.78453e-28 -5.48581e-26 0)
(6.30101e-28 -5.46497e-26 0)
(-2.21172e-28 -5.47341e-26 0)
(-2.32778e-28 -5.4739e-26 0)
(1.73232e-28 -5.50322e-26 0)
(-2.42229e-28 -5.50912e-26 0)
(-6.09545e-28 -5.46771e-26 0)
(-1.73976e-28 -5.45153e-26 0)
(4.21087e-28 -5.49425e-26 0)
(4.91745e-28 -5.55955e-26 0)
(-9.68037e-29 -5.59941e-26 0)
(-6.26524e-28 -5.59337e-26 0)
(-5.7481e-29 -5.59844e-26 0)
(7.95984e-28 -5.66391e-26 0)
(2.52e-28 -5.68853e-26 0)
(-8.67282e-28 -5.56893e-26 0)
(-8.42219e-28 -5.38256e-26 0)
(-2.59561e-28 -5.25531e-26 0)
(-2.96902e-28 -5.21624e-26 0)
(-5.702e-28 -5.24136e-26 0)
(-3.49896e-28 -5.30586e-26 0)
(1.36761e-28 -5.40712e-26 0)
(2.50411e-28 -5.50596e-26 0)
(3.19329e-29 -5.58344e-26 0)
(-6.23963e-28 -5.60563e-26 0)
(3.766e-28 -5.70226e-26 0)
(-5.79724e-28 -5.7919e-26 0)
(1.58912e-27 -6.00801e-26 0)
(-1.29209e-26 -1.49439e-25 0)
(-9.9068e-27 -6.9671e-26 0)
(-1.07331e-28 -6.85639e-26 0)
(1.62315e-28 -6.72388e-26 0)
(1.47124e-28 -6.75684e-26 0)
(1.8283e-28 -6.73291e-26 0)
(8.72609e-28 -6.68175e-26 0)
(7.39269e-28 -6.57841e-26 0)
(1.53146e-28 -6.4406e-26 0)
(-4.20795e-29 -6.32658e-26 0)
(5.64756e-28 -6.32703e-26 0)
(8.05555e-28 -6.42996e-26 0)
(2.08166e-28 -6.55973e-26 0)
(-6.33881e-28 -6.67878e-26 0)
(-8.04702e-28 -6.76865e-26 0)
(-6.20057e-28 -6.79868e-26 0)
(-9.75438e-28 -6.73643e-26 0)
(-1.36724e-27 -6.60439e-26 0)
(-9.16983e-28 -6.49023e-26 0)
(-1.60319e-28 -6.44774e-26 0)
(1.73816e-28 -6.48022e-26 0)
(3.41819e-28 -6.58602e-26 0)
(8.71371e-28 -6.74846e-26 0)
(1.37401e-27 -6.90375e-26 0)
(1.01253e-27 -6.96317e-26 0)
(-7.99599e-29 -6.91166e-26 0)
(-5.94305e-28 -6.84685e-26 0)
(3.00288e-28 -6.90352e-26 0)
(1.34828e-27 -7.0831e-26 0)
(6.98524e-28 -7.21911e-26 0)
(-9.91794e-28 -7.15335e-26 0)
(-1.10882e-27 -6.93002e-26 0)
(3.65001e-28 -6.76558e-26 0)
(6.72596e-28 -6.74444e-26 0)
(-2.78707e-28 -6.74579e-26 0)
(-2.93161e-28 -6.73213e-26 0)
(1.56125e-28 -6.75174e-26 0)
(-2.71792e-28 -6.74886e-26 0)
(-6.62226e-28 -6.6977e-26 0)
(-2.10041e-28 -6.67907e-26 0)
(4.12176e-28 -6.72787e-26 0)
(4.91244e-28 -6.80238e-26 0)
(-1.24007e-28 -6.85046e-26 0)
(-6.81982e-28 -6.848e-26 0)
(-7.69153e-29 -6.85494e-26 0)
(8.2455e-28 -6.92621e-26 0)
(2.51876e-28 -6.95107e-26 0)
(-9.09166e-28 -6.8155e-26 0)
(-8.57247e-28 -6.60602e-26 0)
(-2.43366e-28 -6.46104e-26 0)
(-3.16963e-28 -6.41137e-26 0)
(-6.33645e-28 -6.43153e-26 0)
(-3.94158e-28 -6.49314e-26 0)
(1.43899e-28 -6.58973e-26 0)
(2.78092e-28 -6.67587e-26 0)
(4.69057e-29 -6.73803e-26 0)
(-6.63116e-28 -6.74205e-26 0)
(4.1394e-28 -6.83851e-26 0)
(-6.84336e-28 -6.9237e-26 0)
(1.73529e-27 -7.13321e-26 0)
(-1.30966e-26 -1.58234e-25 0)
(-9.7842e-27 -8.06947e-26 0)
(-1.49783e-28 -7.96095e-26 0)
(1.30121e-28 -7.82009e-26 0)
(1.37394e-28 -7.87265e-26 0)
(1.93654e-28 -7.87428e-26 0)
(9.70498e-28 -7.86483e-26 0)
(8.644e-28 -7.80349e-26 0)
(2.57039e-28 -7.6949e-26 0)
(1.75047e-29 -7.59046e-26 0)
(6.09991e-28 -7.58841e-26 0)
(8.13642e-28 -7.68534e-26 0)
(1.44813e-28 -7.81244e-26 0)
(-7.56247e-28 -7.93713e-26 0)
(-9.25199e-28 -8.03932e-26 0)
(-7.01775e-28 -8.07996e-26 0)
(-1.02396e-27 -8.01444e-26 0)
(-1.39063e-27 -7.8622e-26 0)
(-9.1363e-28 -7.7242e-26 0)
(-1.58438e-28 -7.66692e-26 0)
(1.43816e-28 -7.69747e-26 0)
(3.05299e-28 -7.81281e-26 0)
(8.85953e-28 -7.99188e-26 0)
(1.45294e-27 -8.16527e-26 0)
(1.10159e-27 -8.23738e-26 0)
(-3.58564e-29 -8.18811e-26 0)
(-5.85315e-28 -8.11617e-26 0)
(3.23609e-28 -8.16826e-26 0)
(1.39421e-27 -8.35573e-26 0)
(7.13243e-28 -8.50544e-26 0)
(-1.01432e-27 -8.44425e-26 0)
(-1.08325e-27 -8.21493e-26 0)
(4.50262e-28 -8.04871e-26 0)
(7.07577e-28 -8.03186e-26 0)
(-3.32587e-28 -8.02794e-26 0)
(-3.49398e-28 -8.00075e-26 0)
(1.38867e-28 -8.01156e-26 0)
(-2.95902e-28 -8.00224e-26 0)
(-7.07584e-28 -7.94503e-26 0)
(-2.47782e-28 -7.92688e-26 0)
(3.93426e-28 -7.98201e-26 0)
(4.8148e-28 -8.06363e-26 0)
(-1.51657e-28 -8.11741e-26 0)
(-7.31403e-28 -8.11695e-26 0)
(-9.8611e-29 -8.12507e-26 0)
(8.42815e-28 -8.20347e-26 0)
(2.55636e-28 -8.23446e-26 0)
(-9.28154e-28 -8.09289e-26 0)
(-8.50255e-28 -7.8687e-26 0)
(-2.14771e-28 -7.70588e-26 0)
(-3.26557e-28 -7.63445e-26 0)
(-6.85905e-28 -7.63084e-26 0)
(-4.32347e-28 -7.66903e-26 0)
(1.50743e-28 -7.74353e-26 0)
(3.03601e-28 -7.80567e-26 0)
(6.30197e-29 -7.84916e-26 0)
(-7.01742e-28 -7.83912e-26 0)
(4.40457e-28 -7.94563e-26 0)
(-7.93859e-28 -8.04134e-26 0)
(1.86505e-27 -8.25636e-26 0)
(-1.31412e-26 -1.67233e-25 0)
(-9.538e-27 -9.17028e-26 0)
(-1.92446e-28 -9.04207e-26 0)
(9.75441e-29 -8.87359e-26 0)
(1.17932e-28 -8.92896e-26 0)
(1.91032e-28 -8.94595e-26 0)
(1.04516e-27 -8.97916e-26 0)
(9.67374e-28 -8.9725e-26 0)
(3.48435e-28 -8.91427e-26 0)
(7.20393e-29 -8.84123e-26 0)
(6.48587e-28 -8.85094e-26 0)
(8.13927e-28 -8.9448e-26 0)
(7.65058e-29 -9.06236e-26 0)
(-8.79939e-28 -9.18085e-26 0)
(-1.04421e-27 -9.285e-26 0)
(-7.76313e-28 -9.33261e-26 0)
(-1.0556e-27 -9.2666e-26 0)
(-1.39329e-27 -9.09893e-26 0)
(-8.96788e-28 -8.93995e-26 0)
(-1.53075e-28 -8.86781e-26 0)
(1.09987e-28 -8.89403e-26 0)
(2.58452e-28 -9.01473e-26 0)
(8.83929e-28 -9.20485e-26 0)
(1.51504e-27 -9.39084e-26 0)
(1.18381e-27 -9.47209e-26 0)
(1.43908e-29 -9.42302e-26 0)
(-5.68901e-28 -9.34016e-26 0)
(3.40074e-28 -9.38028e-26 0)
(1.42184e-27 -9.56767e-26 0)
(7.1914e-28 -9.7274e-26 0)
(-1.02683e-27 -9.67334e-26 0)
(-1.04705e-27 -9.44473e-26 0)
(5.31345e-28 -9.2837e-26 0)
(7.36773e-28 -9.27601e-26 0)
(-3.81556e-28 -9.26985e-26 0)
(-4.00141e-28 -9.2315e-26 0)
(1.22836e-28 -9.2362e-26 0)
(-3.16001e-28 -9.22436e-26 0)
(-7.48673e-28 -9.16597e-26 0)
(-2.87975e-28 -9.15197e-26 0)
(3.67205e-28 -9.21405e-26 0)
(4.65394e-28 -9.30051e-26 0)
(-1.79147e-28 -9.35673e-26 0)
(-7.7636e-28 -9.35587e-26 0)
(-1.22803e-28 -9.36474e-26 0)
(8.52323e-28 -9.45341e-26 0)
(2.6133e-28 -9.49872e-26 0)
(-9.30713e-28 -9.36168e-26 0)
(-8.25353e-28 -9.12847e-26 0)
(-1.71321e-28 -8.94257e-26 0)
(-3.19232e-28 -8.83346e-26 0)
(-7.20034e-28 -8.78592e-26 0)
(-4.5818e-28 -8.78415e-26 0)
(1.62468e-28 -8.82822e-26 0)
(3.29461e-28 -8.86723e-26 0)
(7.90902e-29 -8.90117e-26 0)
(-7.46687e-28 -8.89227e-26 0)
(4.48893e-28 -9.02865e-26 0)
(-9.17779e-28 -9.1581e-26 0)
(1.98335e-27 -9.40924e-26 0)
(-1.30914e-26 -1.77188e-25 0)
(-9.18113e-27 -1.03329e-25 0)
(-2.23998e-28 -1.01594e-25 0)
(7.63589e-29 -9.93613e-26 0)
(9.64499e-29 -9.96714e-26 0)
(1.79015e-28 -9.97556e-26 0)
(1.09669e-27 -1.00357e-25 0)
(1.04298e-27 -1.00795e-25 0)
(4.17318e-28 -1.00794e-25 0)
(1.11812e-28 -1.00525e-25 0)
(6.76634e-28 -1.00886e-25 0)
(8.08947e-28 -1.01876e-25 0)
(8.62692e-30 -1.02951e-25 0)
(-1.00073e-27 -1.03994e-25 0)
(-1.15979e-27 -1.04962e-25 0)
(-8.43877e-28 -1.05464e-25 0)
(-1.07377e-27 -1.0482e-25 0)
(-1.38054e-27 -1.03035e-25 0)
(-8.69652e-28 -1.01267e-25 0)
(-1.43597e-28 -1.00398e-25 0)
(7.4998e-29 -1.00594e-25 0)
(2.04097e-28 -1.01813e-25 0)
(8.68658e-28 -1.03769e-25 0)
(1.56443e-27 -1.05699e-25 0)
(1.26205e-27 -1.06563e-25 0)
(7.05833e-29 -1.0605e-25 0)
(-5.46249e-28 -1.05077e-25 0)
(3.51929e-28 -1.05293e-25 0)
(1.43664e-27 -1.07097e-25 0)
(7.18669e-28 -1.0876e-25 0)
(-1.03386e-27 -1.08307e-25 0)
(-1.00688e-27 -1.06078e-25 0)
(6.06294e-28 -1.04575e-25 0)
(7.61393e-28 -1.04631e-25 0)
(-4.25439e-28 -1.0458e-25 0)
(-4.4528e-28 -1.04117e-25 0)
(1.08278e-28 -1.04137e-25 0)
(-3.34067e-28 -1.04038e-25 0)
(-7.88598e-28 -1.03492e-25 0)
(-3.31547e-28 -1.03428e-25 0)
(3.35461e-28 -1.04124e-25 0)
(4.45595e-28 -1.05018e-25 0)
(-2.05888e-28 -1.05579e-25 0)
(-8.1849e-28 -1.0555e-25 0)
(-1.50552e-28 -1.05649e-25 0)
(8.53011e-28 -1.06669e-25 0)
(2.66162e-28 -1.07326e-25 0)
(-9.21948e-28 -1.06061e-25 0)
(-7.83669e-28 -1.03642e-25 0)
(-1.07738e-28 -1.0147e-25 0)
(-2.87411e-28 -9.98628e-26 0)
(-7.30335e-28 -9.8826e-26 0)
(-4.68873e-28 -9.83696e-26 0)
(1.79142e-28 -9.85755e-26 0)
(3.52521e-28 -9.88973e-26 0)
(8.84933e-29 -9.93647e-26 0)
(-8.09074e-28 -9.95346e-26 0)
(4.28146e-28 -1.01457e-25 0)
(-1.07162e-27 -1.03335e-25 0)
(2.09797e-27 -1.06663e-25 0)
(-1.29801e-26 -1.89245e-25 0)
(-8.71544e-27 -1.16683e-25 0)
(-2.30492e-28 -1.14297e-25 0)
(8.24241e-29 -1.11237e-25 0)
(8.64357e-29 -1.10986e-25 0)
(1.68619e-28 -1.1065e-25 0)
(1.13279e-27 -1.11219e-25 0)
(1.09353e-27 -1.11939e-25 0)
(4.59758e-28 -1.12404e-25 0)
(1.30134e-28 -1.12587e-25 0)
(6.89649e-28 -1.1327e-25 0)
(7.98207e-28 -1.14393e-25 0)
(-5.68731e-29 -1.15422e-25 0)
(-1.11665e-27 -1.16327e-25 0)
(-1.27107e-27 -1.17187e-25 0)
(-9.05111e-28 -1.17695e-25 0)
(-1.0815e-27 -1.17081e-25 0)
(-1.35648e-27 -1.15218e-25 0)
(-8.34251e-28 -1.1329e-25 0)
(-1.29052e-28 -1.12274e-25 0)
(4.11117e-29 -1.12385e-25 0)
(1.44538e-28 -1.13581e-25 0)
(8.43138e-28 -1.15545e-25 0)
(1.60497e-27 -1.17495e-25 0)
(1.3391e-27 -1.18377e-25 0)
(1.32954e-28 -1.17826e-25 0)
(-5.17855e-28 -1.16686e-25 0)
(3.61458e-28 -1.16674e-25 0)
(1.44328e-27 -1.18358e-25 0)
(7.13875e-28 -1.2006e-25 0)
(-1.03888e-27 -1.19701e-25 0)
(-9.67492e-28 -1.1756e-25 0)
(6.74071e-28 -1.16196e-25 0)
(7.82255e-28 -1.16413e-25 0)
(-4.64838e-28 -1.16398e-25 0)
(-4.85569e-28 -1.15883e-25 0)
(9.47007e-29 -1.15909e-25 0)
(-3.52176e-28 -1.15866e-25 0)
(-8.30128e-28 -1.15396e-25 0)
(-3.79321e-28 -1.15431e-25 0)
(2.99738e-28 -1.16205e-25 0)
(4.24031e-28 -1.1712e-25 0)
(-2.31859e-28 -1.17672e-25 0)
(-8.59806e-28 -1.17628e-25 0)
(-1.83258e-28 -1.17744e-25 0)
(8.44899e-28 -1.18897e-25 0)
(2.68965e-28 -1.19749e-25 0)
(-9.03784e-28 -1.18564e-25 0)
(-7.23599e-28 -1.16012e-25 0)
(-1.84711e-29 -1.13473e-25 0)
(-2.26275e-28 -1.11325e-25 0)
(-7.16356e-28 -1.09772e-25 0)
(-4.68383e-28 -1.09017e-25 0)
(1.93577e-28 -1.09219e-25 0)
(3.62895e-28 -1.09766e-25 0)
(7.91979e-29 -1.10673e-25 0)
(-9.03363e-28 -1.11387e-25 0)
(3.65536e-28 -1.14118e-25 0)
(-1.27458e-27 -1.16745e-25 0)
(2.21982e-27 -1.21398e-25 0)
(-1.28377e-26 -2.04777e-25 0)
(-8.13772e-27 -1.33201e-25 0)
(-1.9928e-28 -1.30118e-25 0)
(1.32724e-28 -1.26027e-25 0)
(1.0481e-28 -1.2494e-25 0)
(1.76365e-28 -1.23839e-25 0)
(1.16842e-27 -1.24003e-25 0)
(1.13e-27 -1.24653e-25 0)
(4.80814e-28 -1.25291e-25 0)
(1.27388e-28 -1.25719e-25 0)
(6.8623e-28 -1.26624e-25 0)
(7.79986e-28 -1.27887e-25 0)
(-1.21895e-28 -1.28947e-25 0)
(-1.22976e-27 -1.29798e-25 0)
(-1.37992e-27 -1.30605e-25 0)
(-9.61774e-28 -1.31147e-25 0)
(-1.08123e-27 -1.30585e-25 0)
(-1.32356e-27 -1.28656e-25 0)
(-7.91224e-28 -1.26569e-25 0)
(-1.08177e-28 -1.25397e-25 0)
(1.00982e-29 -1.25408e-25 0)
(8.14435e-29 -1.26557e-25 0)
(8.09787e-28 -1.28493e-25 0)
(1.63987e-27 -1.30429e-25 0)
(1.41725e-27 -1.31311e-25 0)
(2.01674e-28 -1.30721e-25 0)
(-4.84051e-28 -1.29417e-25 0)
(3.70514e-28 -1.29164e-25 0)
(1.44538e-27 -1.30704e-25 0)
(7.06363e-28 -1.32428e-25 0)
(-1.0442e-27 -1.32161e-25 0)
(-9.31786e-28 -1.30115e-25 0)
(7.34565e-28 -1.28901e-25 0)
(8.00034e-28 -1.29286e-25 0)
(-5.00663e-28 -1.29319e-25 0)
(-5.22074e-28 -1.28767e-25 0)
(8.14368e-29 -1.28816e-25 0)
(-3.72024e-28 -1.2885e-25 0)
(-8.75332e-28 -1.28475e-25 0)
(-4.31832e-28 -1.28617e-25 0)
(2.61091e-28 -1.29466e-25 0)
(4.01594e-28 -1.30408e-25 0)
(-2.58055e-28 -1.30974e-25 0)
(-9.02652e-28 -1.30939e-25 0)
(-2.2158e-28 -1.31068e-25 0)
(8.30155e-28 -1.32296e-25 0)
(2.72231e-28 -1.33237e-25 0)
(-8.74565e-28 -1.32026e-25 0)
(-6.42941e-28 -1.29289e-25 0)
(9.82521e-29 -1.2643e-25 0)
(-1.38072e-28 -1.239e-25 0)
(-6.8592e-28 -1.22076e-25 0)
(-4.68594e-28 -1.21327e-25 0)
(1.91756e-28 -1.21864e-25 0)
(3.45469e-28 -1.22983e-25 0)
(3.6108e-29 -1.24647e-25 0)
(-1.04442e-27 -1.26141e-25 0)
(2.50755e-28 -1.29837e-25 0)
(-1.54504e-27 -1.33204e-25 0)
(2.36232e-27 -1.39618e-25 0)
(-1.26904e-26 -2.25092e-25 0)
(-7.44597e-27 -1.54345e-25 0)
(-1.23451e-28 -1.50731e-25 0)
(2.41174e-28 -1.45556e-25 0)
(1.67836e-28 -1.43492e-25 0)
(2.20603e-28 -1.41368e-25 0)
(1.22276e-27 -1.40791e-25 0)
(1.17029e-27 -1.40989e-25 0)
(4.94685e-28 -1.41409e-25 0)
(1.13193e-28 -1.41722e-25 0)
(6.71421e-28 -1.42583e-25 0)
(7.54514e-28 -1.43868e-25 0)
(-1.90409e-28 -1.44987e-25 0)
(-1.34607e-27 -1.45894e-25 0)
(-1.49189e-27 -1.46767e-25 0)
(-1.01774e-27 -1.47433e-25 0)
(-1.07538e-27 -1.4697e-25 0)
(-1.28273e-27 -1.44986e-25 0)
(-7.39807e-28 -1.42729e-25 0)
(-7.93156e-29 -1.41386e-25 0)
(-1.66861e-29 -1.41284e-25 0)
(1.58306e-29 -1.4237e-25 0)
(7.70278e-28 -1.44258e-25 0)
(1.67143e-27 -1.46164e-25 0)
(1.49785e-27 -1.47046e-25 0)
(2.76384e-28 -1.46438e-25 0)
(-4.45512e-28 -1.44999e-25 0)
(3.80133e-28 -1.44523e-25 0)
(1.44538e-27 -1.45923e-25 0)
(6.97306e-28 -1.47662e-25 0)
(-1.05106e-27 -1.47476e-25 0)
(-9.0093e-28 -1.45515e-25 0)
(7.88544e-28 -1.44438e-25 0)
(8.15505e-28 -1.44982e-25 0)
(-5.33666e-28 -1.45056e-25 0)
(-5.55592e-28 -1.44466e-25 0)
(6.82037e-29 -1.44533e-25 0)
(-3.94494e-28 -1.44641e-25 0)
(-9.2536e-28 -1.44358e-25 0)
(-4.89319e-28 -1.446e-25 0)
(2.1989e-28 -1.45524e-25 0)
(3.77889e-28 -1.46515e-25 0)
(-2.86393e-28 -1.47137e-25 0)
(-9.48931e-28 -1.47134e-25 0)
(-2.64066e-28 -1.47237e-25 0)
(8.14395e-28 -1.48412e-25 0)
(2.82236e-28 -1.49268e-25 0)
(-8.30893e-28 -1.47899e-25 0)
(-5.42349e-28 -1.44989e-25 0)
(2.3673e-28 -1.42009e-25 0)
(-3.44894e-29 -1.39439e-25 0)
(-6.55357e-28 -1.37749e-25 0)
(-4.87542e-28 -1.37395e-25 0)
(1.55948e-28 -1.38611e-25 0)
(2.83672e-28 -1.40598e-25 0)
(-5.48379e-29 -1.43242e-25 0)
(-1.24339e-27 -1.45615e-25 0)
(8.02182e-29 -1.50269e-25 0)
(-1.89521e-27 -1.54139e-25 0)
(2.5397e-27 -1.62552e-25 0)
(-1.25583e-26 -2.51113e-25 0)
(-6.64445e-27 -1.81251e-25 0)
(-5.15708e-30 -1.77475e-25 0)
(4.14525e-28 -1.71352e-25 0)
(2.86462e-28 -1.6836e-25 0)
(3.16667e-28 -1.65127e-25 0)
(1.31438e-27 -1.63612e-25 0)
(1.23472e-27 -1.63064e-25 0)
(5.21382e-28 -1.62897e-25 0)
(1.0509e-28 -1.62694e-25 0)
(6.57873e-28 -1.6315e-25 0)
(7.27109e-28 -1.64215e-25 0)
(-2.64771e-28 -1.65308e-25 0)
(-1.47293e-27 -1.6632e-25 0)
(-1.61545e-27 -1.67376e-25 0)
(-1.07961e-27 -1.6829e-25 0)
(-1.06753e-27 -1.68017e-25 0)
(-1.23446e-27 -1.66017e-25 0)
(-6.78293e-28 -1.63587e-25 0)
(-4.03804e-29 -1.62056e-25 0)
(-3.80661e-29 -1.61826e-25 0)
(-5.17959e-29 -1.62837e-25 0)
(7.25472e-28 -1.6467e-25 0)
(1.70081e-27 -1.66547e-25 0)
(1.58114e-27 -1.67447e-25 0)
(3.55916e-28 -1.66863e-25 0)
(-4.03549e-28 -1.65339e-25 0)
(3.90378e-28 -1.64685e-25 0)
(1.44456e-27 -1.65968e-25 0)
(6.87526e-28 -1.67722e-25 0)
(-1.05968e-27 -1.67598e-25 0)
(-8.74653e-28 -1.65697e-25 0)
(8.37497e-28 -1.64733e-25 0)
(8.29667e-28 -1.6541e-25 0)
(-5.64118e-28 -1.65507e-25 0)
(-5.86245e-28 -1.64858e-25 0)
(5.55004e-29 -1.64919e-25 0)
(-4.19435e-28 -1.65076e-25 0)
(-9.80454e-28 -1.64864e-25 0)
(-5.51939e-28 -1.65189e-25 0)
(1.7564e-28 -1.66194e-25 0)
(3.51447e-28 -1.67269e-25 0)
(-3.18814e-28 -1.67984e-25 0)
(-9.98754e-28 -1.68009e-25 0)
(-3.06207e-28 -1.67994e-25 0)
(8.06167e-28 -1.68948e-25 0)
(3.0657e-28 -1.69545e-25 0)
(-7.71335e-28 -1.67953e-25 0)
(-4.28619e-28 -1.65003e-25 0)
(3.82482e-28 -1.6224e-25 0)
(6.45751e-29 -1.60087e-25 0)
(-6.46195e-28 -1.58972e-25 0)
(-5.44913e-28 -1.5936e-25 0)
(6.96627e-29 -1.61493e-25 0)
(1.64392e-28 -1.64492e-25 0)
(-2.02051e-28 -1.68162e-25 0)
(-1.50375e-27 -1.71323e-25 0)
(-1.39802e-28 -1.76734e-25 0)
(-2.32679e-27 -1.8066e-25 0)
(2.76443e-27 -1.91031e-25 0)
(-1.24527e-26 -2.83116e-25 0)
(-5.74614e-27 -2.14414e-25 0)
(1.43469e-28 -2.10977e-25 0)
(6.4982e-28 -2.04211e-25 0)
(4.6259e-28 -2.00546e-25 0)
(4.72322e-28 -1.96328e-25 0)
(1.45596e-27 -1.93879e-25 0)
(1.34027e-27 -1.92475e-25 0)
(5.80812e-28 -1.91502e-25 0)
(1.23796e-28 -1.90476e-25 0)
(6.63806e-28 -1.90185e-25 0)
(7.09556e-28 -1.90723e-25 0)
(-3.41821e-28 -1.91581e-25 0)
(-1.6147e-27 -1.92611e-25 0)
(-1.75908e-27 -1.9388e-25 0)
(-1.15607e-27 -1.95143e-25 0)
(-1.06342e-27 -1.9518e-25 0)
(-1.18025e-27 -1.93249e-25 0)
(-6.05048e-28 -1.90679e-25 0)
(1.08969e-29 -1.88958e-25 0)
(-5.28091e-29 -1.88588e-25 0)
(-1.21138e-28 -1.8951e-25 0)
(6.75581e-28 -1.91281e-25 0)
(1.72811e-27 -1.93141e-25 0)
(1.66622e-27 -1.94094e-25 0)
(4.38284e-28 -1.93585e-25 0)
(-3.60108e-28 -1.92042e-25 0)
(4.00454e-28 -1.91268e-25 0)
(1.44325e-27 -1.92468e-25 0)
(6.77649e-28 -1.94238e-25 0)
(-1.06948e-27 -1.94152e-25 0)
(-8.51647e-28 -1.92277e-25 0)
(8.83321e-28 -1.91394e-25 0)
(8.43674e-28 -1.92177e-25 0)
(-5.91738e-28 -1.9227e-25 0)
(-6.13341e-28 -1.91532e-25 0)
(4.4692e-29 -1.91548e-25 0)
(-4.45749e-28 -1.91716e-25 0)
(-1.04023e-27 -1.91544e-25 0)
(-6.20032e-28 -1.91936e-25 0)
(1.27079e-28 -1.93032e-25 0)
(3.20534e-28 -1.94224e-25 0)
(-3.55886e-28 -1.95041e-25 0)
(-1.04931e-27 -1.95036e-25 0)
(-3.40825e-28 -1.94775e-25 0)
(8.1432e-28 -1.95356e-25 0)
(3.49886e-28 -1.95607e-25 0)
(-7.00313e-28 -1.93865e-25 0)
(-3.16015e-28 -1.91142e-25 0)
(5.14376e-28 -1.89007e-25 0)
(1.35826e-28 -1.87706e-25 0)
(-6.79217e-28 -1.87507e-25 0)
(-6.56187e-28 -1.88823e-25 0)
(-7.70704e-29 -1.91912e-25 0)
(-1.74851e-29 -1.95854e-25 0)
(-4.04692e-28 -2.0039e-25 0)
(-1.81906e-27 -2.04046e-25 0)
(-3.92595e-28 -2.09851e-25 0)
(-2.82895e-27 -2.13254e-25 0)
(3.04436e-27 -2.25244e-25 0)
(-1.23743e-26 -3.20595e-25 0)
(-4.77244e-27 -2.53514e-25 0)
(3.02221e-28 -2.50948e-25 0)
(9.34391e-28 -2.43948e-25 0)
(6.87612e-28 -2.40019e-25 0)
(6.8496e-28 -2.35131e-25 0)
(1.65028e-27 -2.31971e-25 0)
(1.4952e-27 -2.29826e-25 0)
(6.864e-28 -2.28052e-25 0)
(1.86811e-28 -2.26096e-25 0)
(7.0832e-28 -2.24854e-25 0)
(7.1863e-28 -2.24592e-25 0)
(-4.10914e-28 -2.24925e-25 0)
(-1.76867e-27 -2.2574e-25 0)
(-1.9273e-27 -2.271e-25 0)
(-1.25563e-27 -2.28726e-25 0)
(-1.07083e-27 -2.29177e-25 0)
(-1.12387e-27 -2.27439e-25 0)
(-5.19896e-28 -2.24814e-25 0)
(7.626e-29 -2.22937e-25 0)
(-5.95991e-29 -2.22423e-25 0)
(-1.91727e-28 -2.23238e-25 0)
(6.20548e-28 -2.24937e-25 0)
(1.75263e-27 -2.26793e-25 0)
(1.75133e-27 -2.27837e-25 0)
(5.20958e-28 -2.27458e-25 0)
(-3.17451e-28 -2.25958e-25 0)
(4.09122e-28 -2.25122e-25 0)
(1.44134e-27 -2.26271e-25 0)
(6.68318e-28 -2.28052e-25 0)
(-1.07922e-27 -2.27973e-25 0)
(-8.30063e-28 -2.26093e-25 0)
(9.27878e-28 -2.25266e-25 0)
(8.58571e-28 -2.26132e-25 0)
(-6.1587e-28 -2.26198e-25 0)