/*--------------------------------*- C++ -*----------------------------------*\
| =========                 |                                                 |
| \\      /  F ield         | foam-extend: Open Source CFD                    |
|  \\    /   O peration     | Version:     4.0                                |
|   \\  /    A nd           | Web:         http://www.foam-extend.org         |
|    \\/     M anipulation  |                                                 |
\*---------------------------------------------------------------------------*/
FoamFile
{
    version     2.0;
    format      ascii;
    class       volScalarField;
    location    "1880";
    object      cMinus;
}
// * * * * * * * * * * * * * * * * * * * * * * * * * * * * * * * * * * * * * //

dimensions      [0 0 0 0 0 0 0];

internalField   nonuniform List<scalar> 
6960
(
1.34066e-17
1.33893e-17
1.33699e-17
1.336e-17
1.33556e-17
1.33539e-17
1.33535e-17
1.33537e-17
1.33542e-17
1.33548e-17
1.33555e-17
1.33562e-17
1.33569e-17
1.33576e-17
1.33583e-17
1.33589e-17
1.33595e-17
1.336e-17
1.33605e-17
1.3361e-17
1.33614e-17
1.33618e-17
1.33621e-17
1.33624e-17
1.33626e-17
1.33629e-17
1.3363e-17
1.33631e-17
1.33632e-17
1.33633e-17
1.33633e-17
1.33632e-17
1.33631e-17
1.3363e-17
1.33629e-17
1.33626e-17
1.33624e-17
1.33621e-17
1.33618e-17
1.33614e-17
1.3361e-17
1.33605e-17
1.336e-17
1.33595e-17
1.33589e-17
1.33583e-17
1.33576e-17
1.33569e-17
1.33562e-17
1.33555e-17
1.33548e-17
1.33542e-17
1.33537e-17
1.33535e-17
1.33539e-17
1.33556e-17
1.336e-17
1.33699e-17
1.33893e-17
1.34066e-17
8.70607e-17
8.7003e-17
8.69078e-17
8.68585e-17
8.68366e-17
8.68286e-17
8.68274e-17
8.68296e-17
8.68333e-17
8.68376e-17
8.68423e-17
8.6847e-17
8.68516e-17
8.6856e-17
8.68602e-17
8.68642e-17
8.6868e-17
8.68714e-17
8.68747e-17
8.68776e-17
8.68803e-17
8.68828e-17
8.68849e-17
8.68868e-17
8.68884e-17
8.68898e-17
8.68908e-17
8.68916e-17
8.68922e-17
8.68924e-17
8.68924e-17
8.68922e-17
8.68916e-17
8.68908e-17
8.68898e-17
8.68884e-17
8.68868e-17
8.68849e-17
8.68828e-17
8.68803e-17
8.68776e-17
8.68747e-17
8.68714e-17
8.6868e-17
8.68642e-17
8.68602e-17
8.6856e-17
8.68516e-17
8.6847e-17
8.68423e-17
8.68376e-17
8.68333e-17
8.68296e-17
8.68274e-17
8.68286e-17
8.68366e-17
8.68585e-17
8.69078e-17
8.7003e-17
8.70607e-17
5.44466e-16
5.44476e-16
5.44091e-16
5.43884e-16
5.43793e-16
5.43765e-16
5.43768e-16
5.43786e-16
5.43811e-16
5.4384e-16
5.43869e-16
5.43899e-16
5.43927e-16
5.43955e-16
5.43981e-16
5.44006e-16
5.4403e-16
5.44051e-16
5.44071e-16
5.4409e-16
5.44106e-16
5.44122e-16
5.44135e-16
5.44147e-16
5.44157e-16
5.44165e-16
5.44172e-16
5.44176e-16
5.4418e-16
5.44181e-16
5.44181e-16
5.4418e-16
5.44176e-16
5.44172e-16
5.44165e-16
5.44157e-16
5.44147e-16
5.44135e-16
5.44122e-16
5.44106e-16
5.4409e-16
5.44071e-16
5.44051e-16
5.4403e-16
5.44006e-16
5.43981e-16
5.43955e-16
5.43927e-16
5.43899e-16
5.43869e-16
5.4384e-16
5.43811e-16
5.43786e-16
5.43768e-16
5.43765e-16
5.43793e-16
5.43884e-16
5.44091e-16
5.44476e-16
5.44466e-16
3.47388e-15
3.47636e-15
3.4753e-15
3.47464e-15
3.47437e-15
3.47433e-15
3.47442e-15
3.47456e-15
3.47474e-15
3.47493e-15
3.47512e-15
3.47531e-15
3.47549e-15
3.47567e-15
3.47584e-15
3.476e-15
3.47614e-15
3.47628e-15
3.47641e-15
3.47652e-15
3.47663e-15
3.47672e-15
3.47681e-15
3.47688e-15
3.47694e-15
3.477e-15
3.47704e-15
3.47707e-15
3.47709e-15
3.4771e-15
3.4771e-15
3.47709e-15
3.47707e-15
3.47704e-15
3.477e-15
3.47694e-15
3.47688e-15
3.47681e-15
3.47672e-15
3.47663e-15
3.47652e-15
3.47641e-15
3.47628e-15
3.47614e-15
3.476e-15
3.47584e-15
3.47567e-15
3.47549e-15
3.47531e-15
3.47512e-15
3.47493e-15
3.47474e-15
3.47456e-15
3.47442e-15
3.47433e-15
3.47437e-15
3.47464e-15
3.4753e-15
3.47636e-15
3.47388e-15
2.27503e-14
2.27824e-14
2.27846e-14
2.27847e-14
2.2785e-14
2.27857e-14
2.27867e-14
2.27879e-14
2.27891e-14
2.27904e-14
2.27917e-14
2.27929e-14
2.27941e-14
2.27953e-14
2.27963e-14
2.27974e-14
2.27983e-14
2.27992e-14
2.28e-14
2.28008e-14
2.28015e-14
2.28021e-14
2.28026e-14
2.28031e-14
2.28035e-14
2.28038e-14
2.28041e-14
2.28043e-14
2.28044e-14
2.28045e-14
2.28045e-14
2.28044e-14
2.28043e-14
2.28041e-14
2.28038e-14
2.28035e-14
2.28031e-14
2.28026e-14
2.28021e-14
2.28015e-14
2.28008e-14
2.28e-14
2.27992e-14
2.27983e-14
2.27974e-14
2.27963e-14
2.27953e-14
2.27941e-14
2.27929e-14
2.27917e-14
2.27904e-14
2.27891e-14
2.27879e-14
2.27867e-14
2.27857e-14
2.2785e-14
2.27847e-14
2.27846e-14
2.27824e-14
2.27503e-14
1.52481e-13
1.52801e-13
1.52877e-13
1.52907e-13
1.52923e-13
1.52934e-13
1.52943e-13
1.52952e-13
1.52961e-13
1.5297e-13
1.52979e-13
1.52987e-13
1.52995e-13
1.53003e-13
1.5301e-13
1.53017e-13
1.53023e-13
1.53029e-13
1.53034e-13
1.53039e-13
1.53044e-13
1.53048e-13
1.53051e-13
1.53055e-13
1.53057e-13
1.53059e-13
1.53061e-13
1.53063e-13
1.53063e-13
1.53064e-13
1.53064e-13
1.53063e-13
1.53063e-13
1.53061e-13
1.53059e-13
1.53057e-13
1.53055e-13
1.53051e-13
1.53048e-13
1.53044e-13
1.53039e-13
1.53034e-13
1.53029e-13
1.53023e-13
1.53017e-13
1.5301e-13
1.53003e-13
1.52995e-13
1.52987e-13
1.52979e-13
1.5297e-13
1.52961e-13
1.52952e-13
1.52943e-13
1.52934e-13
1.52923e-13
1.52907e-13
1.52877e-13
1.52801e-13
1.52481e-13
1.04043e-12
1.04331e-12
1.04424e-12
1.04464e-12
1.04484e-12
1.04496e-12
1.04504e-12
1.04511e-12
1.04518e-12
1.04524e-12
1.0453e-12
1.04536e-12
1.04541e-12
1.04546e-12
1.04551e-12
1.04556e-12
1.0456e-12
1.04564e-12
1.04568e-12
1.04571e-12
1.04574e-12
1.04577e-12
1.04579e-12
1.04581e-12
1.04583e-12
1.04584e-12
1.04586e-12
1.04587e-12
1.04587e-12
1.04587e-12
1.04587e-12
1.04587e-12
1.04587e-12
1.04586e-12
1.04584e-12
1.04583e-12
1.04581e-12
1.04579e-12
1.04577e-12
1.04574e-12
1.04571e-12
1.04568e-12
1.04564e-12
1.0456e-12
1.04556e-12
1.04551e-12
1.04546e-12
1.04541e-12
1.04536e-12
1.0453e-12
1.04524e-12
1.04518e-12
1.04511e-12
1.04504e-12
1.04496e-12
1.04484e-12
1.04464e-12
1.04424e-12
1.04331e-12
1.04043e-12
7.17976e-12
7.20431e-12
7.21348e-12
7.2176e-12
7.21958e-12
7.22066e-12
7.22137e-12
7.22192e-12
7.2224e-12
7.22284e-12
7.22325e-12
7.22364e-12
7.22401e-12
7.22436e-12
7.22469e-12
7.225e-12
7.22529e-12
7.22556e-12
7.2258e-12
7.22603e-12
7.22623e-12
7.22641e-12
7.22658e-12
7.22672e-12
7.22684e-12
7.22694e-12
7.22702e-12
7.22708e-12
7.22712e-12
7.22714e-12
7.22714e-12
7.22712e-12
7.22708e-12
7.22702e-12
7.22694e-12
7.22684e-12
7.22672e-12
7.22658e-12
7.22641e-12
7.22623e-12
7.22603e-12
7.2258e-12
7.22556e-12
7.22529e-12
7.225e-12
7.22469e-12
7.22436e-12
7.22401e-12
7.22364e-12
7.22325e-12
7.22284e-12
7.2224e-12
7.22192e-12
7.22137e-12
7.22066e-12
7.21958e-12
7.2176e-12
7.21348e-12
7.20431e-12
7.17976e-12
4.97172e-11
4.99177e-11
4.99992e-11
5.00365e-11
5.00543e-11
5.00637e-11
5.00694e-11
5.00736e-11
5.00771e-11
5.00802e-11
5.0083e-11
5.00857e-11
5.00883e-11
5.00906e-11
5.00929e-11
5.0095e-11
5.00969e-11
5.00987e-11
5.01004e-11
5.01019e-11
5.01033e-11
5.01045e-11
5.01056e-11
5.01065e-11
5.01074e-11
5.0108e-11
5.01086e-11
5.0109e-11
5.01092e-11
5.01094e-11
5.01094e-11
5.01092e-11
5.0109e-11
5.01086e-11
5.0108e-11
5.01074e-11
5.01065e-11
5.01056e-11
5.01045e-11
5.01033e-11
5.01019e-11
5.01004e-11
5.00987e-11
5.00969e-11
5.0095e-11
5.00929e-11
5.00906e-11
5.00883e-11
5.00857e-11
5.0083e-11
5.00802e-11
5.00771e-11
5.00736e-11
5.00694e-11
5.00637e-11
5.00543e-11
5.00365e-11
4.99992e-11
4.99177e-11
4.97172e-11
3.42334e-10
3.43909e-10
3.44586e-10
3.44899e-10
3.45048e-10
3.45124e-10
3.45169e-10
3.452e-10
3.45225e-10
3.45246e-10
3.45266e-10
3.45284e-10
3.45301e-10
3.45318e-10
3.45333e-10
3.45347e-10
3.4536e-10
3.45372e-10
3.45383e-10
3.45393e-10
3.45402e-10
3.4541e-10
3.45418e-10
3.45424e-10
3.45429e-10
3.45434e-10
3.45438e-10
3.4544e-10
3.45442e-10
3.45443e-10
3.45443e-10
3.45442e-10
3.4544e-10
3.45438e-10
3.45434e-10
3.45429e-10
3.45424e-10
3.45418e-10
3.4541e-10
3.45402e-10
3.45393e-10
3.45383e-10
3.45372e-10
3.4536e-10
3.45347e-10
3.45333e-10
3.45318e-10
3.45301e-10
3.45284e-10
3.45266e-10
3.45246e-10
3.45225e-10
3.452e-10
3.45169e-10
3.45124e-10
3.45048e-10
3.44899e-10
3.44586e-10
3.43909e-10
3.42334e-10
2.31978e-09
2.33163e-09
2.33693e-09
2.3394e-09
2.34056e-09
2.34115e-09
2.34149e-09
2.34171e-09
2.34189e-09
2.34203e-09
2.34217e-09
2.34229e-09
2.3424e-09
2.34251e-09
2.34261e-09
2.3427e-09
2.34278e-09
2.34286e-09
2.34294e-09
2.343e-09
2.34306e-09
2.34312e-09
2.34316e-09
2.3432e-09
2.34324e-09
2.34327e-09
2.34329e-09
2.34331e-09
2.34332e-09
2.34333e-09
2.34333e-09
2.34332e-09
2.34331e-09
2.34329e-09
2.34327e-09
2.34324e-09
2.3432e-09
2.34316e-09
2.34312e-09
2.34306e-09
2.343e-09
2.34294e-09
2.34286e-09
2.34278e-09
2.3427e-09
2.34261e-09
2.34251e-09
2.3424e-09
2.34229e-09
2.34217e-09
2.34203e-09
2.34189e-09
2.34171e-09
2.34149e-09
2.34115e-09
2.34056e-09
2.3394e-09
2.33693e-09
2.33163e-09
2.31978e-09
1.52926e-08
1.53774e-08
1.54165e-08
1.54347e-08
1.54433e-08
1.54476e-08
1.545e-08
1.54515e-08
1.54527e-08
1.54537e-08
1.54545e-08
1.54553e-08
1.5456e-08
1.54567e-08
1.54573e-08
1.54579e-08
1.54585e-08
1.5459e-08
1.54594e-08
1.54598e-08
1.54602e-08
1.54606e-08
1.54609e-08
1.54611e-08
1.54613e-08
1.54615e-08
1.54617e-08
1.54618e-08
1.54619e-08
1.54619e-08
1.54619e-08
1.54619e-08
1.54618e-08
1.54617e-08
1.54615e-08
1.54613e-08
1.54611e-08
1.54609e-08
1.54606e-08
1.54602e-08
1.54598e-08
1.54594e-08
1.5459e-08
1.54585e-08
1.54579e-08
1.54573e-08
1.54567e-08
1.5456e-08
1.54553e-08
1.54545e-08
1.54537e-08
1.54527e-08
1.54515e-08
1.545e-08
1.54476e-08
1.54433e-08
1.54347e-08
1.54165e-08
1.53774e-08
1.52926e-08
9.68406e-08
9.74128e-08
9.76812e-08
9.78069e-08
9.78662e-08
9.78956e-08
9.79117e-08
9.79219e-08
9.79293e-08
9.79353e-08
9.79406e-08
9.79454e-08
9.79498e-08
9.79539e-08
9.79578e-08
9.79613e-08
9.79646e-08
9.79676e-08
9.79704e-08
9.79729e-08
9.79752e-08
9.79773e-08
9.79791e-08
9.79806e-08
9.7982e-08
9.79831e-08
9.7984e-08
9.79847e-08
9.79851e-08
9.79853e-08
9.79853e-08
9.79851e-08
9.79847e-08
9.7984e-08
9.79831e-08
9.7982e-08
9.79806e-08
9.79791e-08
9.79773e-08
9.79752e-08
9.79729e-08
9.79704e-08
9.79676e-08
9.79646e-08
9.79613e-08
9.79578e-08
9.79539e-08
9.79498e-08
9.79454e-08
9.79406e-08
9.79353e-08
9.79293e-08
9.79219e-08
9.79117e-08
9.78956e-08
9.78662e-08
9.78069e-08
9.76812e-08
9.74128e-08
9.68406e-08
5.81109e-07
5.84698e-07
5.86406e-07
5.87207e-07
5.87585e-07
5.87771e-07
5.87871e-07
5.87933e-07
5.87978e-07
5.88013e-07
5.88044e-07
5.88072e-07
5.88097e-07
5.8812e-07
5.88142e-07
5.88163e-07
5.88181e-07
5.88198e-07
5.88214e-07
5.88229e-07
5.88241e-07
5.88253e-07
5.88263e-07
5.88272e-07
5.8828e-07
5.88286e-07
5.88291e-07
5.88295e-07
5.88298e-07
5.88299e-07
5.88299e-07
5.88298e-07
5.88295e-07
5.88291e-07
5.88286e-07
5.8828e-07
5.88272e-07
5.88263e-07
5.88253e-07
5.88241e-07
5.88229e-07
5.88214e-07
5.88198e-07
5.88181e-07
5.88163e-07
5.88142e-07
5.8812e-07
5.88097e-07
5.88072e-07
5.88044e-07
5.88013e-07
5.87978e-07
5.87933e-07
5.87871e-07
5.87771e-07
5.87585e-07
5.87207e-07
5.86406e-07
5.84698e-07
5.81109e-07
3.2568e-06
3.27745e-06
3.28737e-06
3.29204e-06
3.29423e-06
3.29531e-06
3.29588e-06
3.29623e-06
3.29648e-06
3.29667e-06
3.29684e-06
3.29698e-06
3.29712e-06
3.29724e-06
3.29736e-06
3.29746e-06
3.29756e-06
3.29765e-06
3.29774e-06
3.29781e-06
3.29788e-06
3.29794e-06
3.29799e-06
3.29804e-06
3.29808e-06
3.29811e-06
3.29814e-06
3.29816e-06
3.29817e-06
3.29818e-06
3.29818e-06
3.29817e-06
3.29816e-06
3.29814e-06
3.29811e-06
3.29808e-06
3.29804e-06
3.29799e-06
3.29794e-06
3.29788e-06
3.29781e-06
3.29774e-06
3.29765e-06
3.29756e-06
3.29746e-06
3.29736e-06
3.29724e-06
3.29712e-06
3.29698e-06
3.29684e-06
3.29667e-06
3.29648e-06
3.29623e-06
3.29588e-06
3.29531e-06
3.29423e-06
3.29204e-06
3.28737e-06
3.27745e-06
3.2568e-06
1.67894e-05
1.68966e-05
1.69486e-05
1.6973e-05
1.69845e-05
1.69901e-05
1.69931e-05
1.69948e-05
1.69961e-05
1.6997e-05
1.69978e-05
1.69985e-05
1.69992e-05
1.69998e-05
1.70003e-05
1.70008e-05
1.70013e-05
1.70017e-05
1.70021e-05
1.70025e-05
1.70028e-05
1.70031e-05
1.70034e-05
1.70036e-05
1.70038e-05
1.70039e-05
1.70041e-05
1.70042e-05
1.70042e-05
1.70043e-05
1.70043e-05
1.70042e-05
1.70042e-05
1.70041e-05
1.70039e-05
1.70038e-05
1.70036e-05
1.70034e-05
1.70031e-05
1.70028e-05
1.70025e-05
1.70021e-05
1.70017e-05
1.70013e-05
1.70008e-05
1.70003e-05
1.69998e-05
1.69992e-05
1.69985e-05
1.69978e-05
1.6997e-05
1.69961e-05
1.69948e-05
1.69931e-05
1.69901e-05
1.69845e-05
1.6973e-05
1.69486e-05
1.68966e-05
1.67894e-05
7.83491e-05
7.88439e-05
7.90843e-05
7.91976e-05
7.92508e-05
7.92767e-05
7.92903e-05
7.92983e-05
7.93038e-05
7.93079e-05
7.93115e-05
7.93146e-05
7.93174e-05
7.93199e-05
7.93223e-05
7.93245e-05
7.93265e-05
7.93284e-05
7.93301e-05
7.93316e-05
7.9333e-05
7.93342e-05
7.93353e-05
7.93363e-05
7.93371e-05
7.93378e-05
7.93383e-05
7.93387e-05
7.9339e-05
7.93391e-05
7.93391e-05
7.9339e-05
7.93387e-05
7.93383e-05
7.93378e-05
7.93371e-05
7.93363e-05
7.93353e-05
7.93342e-05
7.9333e-05
7.93316e-05
7.93301e-05
7.93284e-05
7.93265e-05
7.93245e-05
7.93223e-05
7.93199e-05
7.93174e-05
7.93146e-05
7.93115e-05
7.93079e-05
7.93038e-05
7.92983e-05
7.92903e-05
7.92767e-05
7.92508e-05
7.91976e-05
7.90843e-05
7.88439e-05
7.83491e-05
0.000325454
0.000327442
0.000328411
0.000328867
0.000329081
0.000329185
0.000329239
0.000329271
0.000329292
0.000329308
0.000329322
0.000329333
0.000329344
0.000329354
0.000329363
0.000329371
0.000329378
0.000329385
0.000329392
0.000329397
0.000329402
0.000329407
0.000329411
0.000329415
0.000329418
0.00032942
0.000329422
0.000329424
0.000329425
0.000329425
0.000329425
0.000329425
0.000329424
0.000329422
0.00032942
0.000329418
0.000329415
0.000329411
0.000329407
0.000329402
0.000329397
0.000329392
0.000329385
0.000329378
0.000329371
0.000329363
0.000329354
0.000329344
0.000329333
0.000329322
0.000329308
0.000329292
0.000329271
0.000329239
0.000329185
0.000329081
0.000328867
0.000328411
0.000327442
0.000325454
0.0011825
0.00118932
0.00119263
0.0011942
0.00119493
0.00119529
0.00119547
0.00119558
0.00119565
0.0011957
0.00119575
0.00119578
0.00119582
0.00119585
0.00119588
0.0011959
0.00119593
0.00119595
0.00119597
0.00119599
0.00119601
0.00119602
0.00119603
0.00119605
0.00119606
0.00119606
0.00119607
0.00119607
0.00119608
0.00119608
0.00119608
0.00119608
0.00119607
0.00119607
0.00119606
0.00119606
0.00119605
0.00119603
0.00119602
0.00119601
0.00119599
0.00119597
0.00119595
0.00119593
0.0011959
0.00119588
0.00119585
0.00119582
0.00119578
0.00119575
0.0011957
0.00119565
0.00119558
0.00119547
0.00119529
0.00119493
0.0011942
0.00119263
0.00118932
0.0011825
0.00369334
0.00371284
0.00372232
0.00372678
0.00372888
0.00372989
0.00373041
0.00373071
0.00373091
0.00373106
0.00373118
0.00373128
0.00373137
0.00373146
0.00373153
0.0037316
0.00373167
0.00373173
0.00373178
0.00373183
0.00373188
0.00373192
0.00373195
0.00373198
0.00373201
0.00373203
0.00373204
0.00373206
0.00373207
0.00373207
0.00373207
0.00373207
0.00373206
0.00373204
0.00373203
0.00373201
0.00373198
0.00373195
0.00373192
0.00373188
0.00373183
0.00373178
0.00373173
0.00373167
0.0037316
0.00373153
0.00373146
0.00373137
0.00373128
0.00373118
0.00373106
0.00373091
0.00373071
0.00373041
0.00372989
0.00372888
0.00372678
0.00372232
0.00371284
0.00369334
0.00977103
0.00981666
0.0098388
0.00984923
0.00985412
0.00985648
0.00985769
0.00985838
0.00985883
0.00985916
0.00985943
0.00985966
0.00985986
0.00986005
0.00986022
0.00986037
0.00986051
0.00986064
0.00986076
0.00986087
0.00986097
0.00986105
0.00986113
0.0098612
0.00986125
0.0098613
0.00986134
0.00986137
0.00986138
0.00986139
0.00986139
0.00986138
0.00986137
0.00986134
0.0098613
0.00986125
0.0098612
0.00986113
0.00986105
0.00986097
0.00986087
0.00986076
0.00986064
0.00986051
0.00986037
0.00986022
0.00986005
0.00985986
0.00985966
0.00985943
0.00985916
0.00985883
0.00985838
0.00985769
0.00985648
0.00985412
0.00984923
0.0098388
0.00981666
0.00977103
0.0217347
0.0218214
0.0218633
0.0218831
0.0218923
0.0218968
0.0218991
0.0219004
0.0219012
0.0219018
0.0219023
0.0219027
0.0219031
0.0219034
0.0219037
0.021904
0.0219042
0.0219044
0.0219047
0.0219048
0.021905
0.0219052
0.0219053
0.0219054
0.0219055
0.0219056
0.0219057
0.0219057
0.0219058
0.0219058
0.0219058
0.0219058
0.0219057
0.0219057
0.0219056
0.0219055
0.0219054
0.0219053
0.0219052
0.021905
0.0219048
0.0219047
0.0219044
0.0219042
0.021904
0.0219037
0.0219034
0.0219031
0.0219027
0.0219023
0.0219018
0.0219012
0.0219004
0.0218991
0.0218968
0.0218923
0.0218831
0.0218633
0.0218214
0.0217347
0.040864
0.0409992
0.0410643
0.041095
0.0411094
0.0411164
0.0411199
0.0411219
0.0411231
0.041124
0.0411248
0.0411254
0.0411259
0.0411264
0.0411268
0.0411272
0.0411276
0.0411279
0.0411282
0.0411285
0.0411288
0.041129
0.0411292
0.0411294
0.0411295
0.0411296
0.0411297
0.0411298
0.0411298
0.0411299
0.0411299
0.0411298
0.0411298
0.0411297
0.0411296
0.0411295
0.0411294
0.0411292
0.041129
0.0411288
0.0411285
0.0411282
0.0411279
0.0411276
0.0411272
0.0411268
0.0411264
0.0411259
0.0411254
0.0411248
0.041124
0.0411231
0.0411219
0.0411199
0.0411164
0.0411094
0.041095
0.0410643
0.0409992
0.040864
0.0662289
0.0664083
0.0664943
0.0665349
0.066554
0.0665631
0.0665678
0.0665704
0.066572
0.0665732
0.0665741
0.0665748
0.0665755
0.0665761
0.0665767
0.0665772
0.0665776
0.066578
0.0665784
0.0665787
0.066579
0.0665793
0.0665795
0.0665797
0.0665799
0.0665801
0.0665802
0.0665803
0.0665803
0.0665804
0.0665804
0.0665803
0.0665803
0.0665802
0.0665801
0.0665799
0.0665797
0.0665795
0.0665793
0.066579
0.0665787
0.0665784
0.066578
0.0665776
0.0665772
0.0665767
0.0665761
0.0665755
0.0665748
0.0665741
0.0665732
0.066572
0.0665704
0.0665678
0.0665631
0.066554
0.0665349
0.0664943
0.0664083
0.0662289
0.0953167
0.0955294
0.0956312
0.0956792
0.0957018
0.0957127
0.0957182
0.0957213
0.0957232
0.0957245
0.0957255
0.0957263
0.0957271
0.0957277
0.0957283
0.0957289
0.0957294
0.0957298
0.0957302
0.0957306
0.0957309
0.0957312
0.0957315
0.0957317
0.0957319
0.0957321
0.0957322
0.0957323
0.0957324
0.0957324
0.0957324
0.0957324
0.0957323
0.0957322
0.0957321
0.0957319
0.0957317
0.0957315
0.0957312
0.0957309
0.0957306
0.0957302
0.0957298
0.0957294
0.0957289
0.0957283
0.0957277
0.0957271
0.0957263
0.0957255
0.0957245
0.0957232
0.0957213
0.0957182
0.0957127
0.0957018
0.0956792
0.0956312
0.0955294
0.0953167
0.125715
0.125952
0.126065
0.126119
0.126144
0.126156
0.126162
0.126166
0.126168
0.126169
0.12617
0.126171
0.126172
0.126173
0.126173
0.126174
0.126174
0.126175
0.126175
0.126176
0.126176
0.126176
0.126176
0.126177
0.126177
0.126177
0.126177
0.126177
0.126177
0.126177
0.126177
0.126177
0.126177
0.126177
0.126177
0.126177
0.126177
0.126176
0.126176
0.126176
0.126176
0.126175
0.126175
0.126174
0.126174
0.126173
0.126173
0.126172
0.126171
0.12617
0.126169
0.126168
0.126166
0.126162
0.126156
0.126144
0.126119
0.126065
0.125952
0.125715
0.156046
0.156301
0.156424
0.156482
0.156509
0.156523
0.156529
0.156533
0.156535
0.156537
0.156538
0.156539
0.156539
0.15654
0.156541
0.156541
0.156542
0.156542
0.156543
0.156543
0.156543
0.156544
0.156544
0.156544
0.156544
0.156545
0.156545
0.156545
0.156545
0.156545
0.156545
0.156545
0.156545
0.156545
0.156545
0.156544
0.156544
0.156544
0.156544
0.156543
0.156543
0.156543
0.156542
0.156542
0.156541
0.156541
0.15654
0.156539
0.156539
0.156538
0.156537
0.156535
0.156533
0.156529
0.156523
0.156509
0.156482
0.156424
0.156301
0.156046
0.185818
0.18609
0.186221
0.186283
0.186313
0.186327
0.186334
0.186338
0.18634
0.186342
0.186343
0.186344
0.186345
0.186345
0.186346
0.186347
0.186347
0.186348
0.186348
0.186348
0.186349
0.186349
0.186349
0.186349
0.18635
0.18635
0.18635
0.18635
0.18635
0.18635
0.18635
0.18635
0.18635
0.18635
0.18635
0.18635
0.186349
0.186349
0.186349
0.186349
0.186348
0.186348
0.186348
0.186347
0.186347
0.186346
0.186345
0.186345
0.186344
0.186343
0.186342
0.18634
0.186338
0.186334
0.186327
0.186313
0.186283
0.186221
0.18609
0.185818
0.214958
0.215246
0.215385
0.215451
0.215483
0.215499
0.215506
0.21551
0.215513
0.215515
0.215516
0.215517
0.215518
0.215518
0.215519
0.215519
0.21552
0.21552
0.215521
0.215521
0.215521
0.215522
0.215522
0.215522
0.215522
0.215523
0.215523
0.215523
0.215523
0.215523
0.215523
0.215523
0.215523
0.215523
0.215523
0.215522
0.215522
0.215522
0.215522
0.215521
0.215521
0.215521
0.21552
0.21552
0.215519
0.215519
0.215518
0.215518
0.215517
0.215516
0.215515
0.215513
0.21551
0.215506
0.215499
0.215483
0.215451
0.215385
0.215246
0.214958
0.243504
0.243806
0.243953
0.244024
0.244058
0.244075
0.244083
0.244088
0.24409
0.244092
0.244093
0.244094
0.244095
0.244096
0.244096
0.244097
0.244097
0.244098
0.244098
0.244099
0.244099
0.244099
0.244099
0.2441
0.2441
0.2441
0.2441
0.2441
0.2441
0.2441
0.2441
0.2441
0.2441
0.2441
0.2441
0.2441
0.2441
0.244099
0.244099
0.244099
0.244099
0.244098
0.244098
0.244097
0.244097
0.244096
0.244096
0.244095
0.244094
0.244093
0.244092
0.24409
0.244088
0.244083
0.244075
0.244058
0.244024
0.243953
0.243806
0.243504
0.271489
0.271805
0.271959
0.272035
0.272071
0.272089
0.272098
0.272102
0.272105
0.272107
0.272108
0.272109
0.27211
0.272111
0.272111
0.272112
0.272112
0.272113
0.272113
0.272114
0.272114
0.272114
0.272114
0.272115
0.272115
0.272115
0.272115
0.272115
0.272115
0.272115
0.272115
0.272115
0.272115
0.272115
0.272115
0.272115
0.272115
0.272114
0.272114
0.272114
0.272114
0.272113
0.272113
0.272112
0.272112
0.272111
0.272111
0.27211
0.272109
0.272108
0.272107
0.272105
0.272102
0.272098
0.272089
0.272071
0.272035
0.271959
0.271805
0.271489
0.298924
0.299251
0.299414
0.299493
0.299532
0.299551
0.29956
0.299565
0.299568
0.29957
0.299571
0.299572
0.299573
0.299574
0.299575
0.299575
0.299576
0.299576
0.299576
0.299577
0.299577
0.299577
0.299578
0.299578
0.299578
0.299578
0.299578
0.299578
0.299578
0.299578
0.299578
0.299578
0.299578
0.299578
0.299578
0.299578
0.299578
0.299578
0.299577
0.299577
0.299577
0.299576
0.299576
0.299576
0.299575
0.299575
0.299574
0.299573
0.299572
0.299571
0.29957
0.299568
0.299565
0.29956
0.299551
0.299532
0.299493
0.299414
0.299251
0.298924
0.325803
0.326141
0.326311
0.326395
0.326436
0.326456
0.326466
0.326472
0.326475
0.326477
0.326478
0.326479
0.32648
0.326481
0.326481
0.326482
0.326482
0.326483
0.326483
0.326484
0.326484
0.326484
0.326484
0.326485
0.326485
0.326485
0.326485
0.326485
0.326485
0.326485
0.326485
0.326485
0.326485
0.326485
0.326485
0.326485
0.326485
0.326484
0.326484
0.326484
0.326484
0.326483
0.326483
0.326482
0.326482
0.326481
0.326481
0.32648
0.326479
0.326478
0.326477
0.326475
0.326472
0.326466
0.326456
0.326436
0.326395
0.326311
0.326141
0.325803
0.352116
0.352464
0.35264
0.352728
0.352772
0.352793
0.352804
0.35281
0.352813
0.352815
0.352817
0.352818
0.352819
0.352819
0.35282
0.35282
0.352821
0.352821
0.352822
0.352822
0.352822
0.352823
0.352823
0.352823
0.352823
0.352823
0.352823
0.352824
0.352824
0.352824
0.352824
0.352824
0.352824
0.352823
0.352823
0.352823
0.352823
0.352823
0.352823
0.352822
0.352822
0.352822
0.352821
0.352821
0.35282
0.35282
0.352819
0.352819
0.352818
0.352817
0.352815
0.352813
0.35281
0.352804
0.352793
0.352772
0.352728
0.35264
0.352464
0.352116
0.377847
0.378204
0.378387
0.378479
0.378525
0.378548
0.378559
0.378566
0.378569
0.378571
0.378573
0.378574
0.378575
0.378575
0.378576
0.378576
0.378577
0.378577
0.378578
0.378578
0.378578
0.378579
0.378579
0.378579
0.378579
0.378579
0.378579
0.378579
0.378579
0.37858
0.37858
0.378579
0.378579
0.378579
0.378579
0.378579
0.378579
0.378579
0.378579
0.378578
0.378578
0.378578
0.378577
0.378577
0.378576
0.378576
0.378575
0.378575
0.378574
0.378573
0.378571
0.378569
0.378566
0.378559
0.378548
0.378525
0.378479
0.378387
0.378204
0.377847
0.402984
0.403348
0.403537
0.403633
0.403681
0.403705
0.403718
0.403724
0.403728
0.40373
0.403732
0.403733
0.403734
0.403735
0.403735
0.403736
0.403736
0.403737
0.403737
0.403737
0.403738
0.403738
0.403738
0.403738
0.403738
0.403739
0.403739
0.403739
0.403739
0.403739
0.403739
0.403739
0.403739
0.403739
0.403739
0.403738
0.403738
0.403738
0.403738
0.403738
0.403737
0.403737
0.403737
0.403736
0.403736
0.403735
0.403735
0.403734
0.403733
0.403732
0.40373
0.403728
0.403724
0.403718
0.403705
0.403681
0.403633
0.403537
0.403348
0.402984
0.427512
0.427882
0.428078
0.428177
0.428228
0.428253
0.428267
0.428274
0.428278
0.42828
0.428282
0.428283
0.428284
0.428284
0.428285
0.428285
0.428286
0.428286
0.428287
0.428287
0.428287
0.428287
0.428288
0.428288
0.428288
0.428288
0.428288
0.428288
0.428288
0.428288
0.428288
0.428288
0.428288
0.428288
0.428288
0.428288
0.428288
0.428288
0.428287
0.428287
0.428287
0.428287
0.428286
0.428286
0.428285
0.428285
0.428284
0.428284
0.428283
0.428282
0.42828
0.428278
0.428274
0.428267
0.428253
0.428228
0.428177
0.428078
0.427882
0.427512
0.451422
0.451796
0.451997
0.452101
0.452153
0.45218
0.452194
0.452202
0.452206
0.452209
0.45221
0.452211
0.452212
0.452213
0.452213
0.452214
0.452214
0.452215
0.452215
0.452215
0.452216
0.452216
0.452216
0.452216
0.452216
0.452217
0.452217
0.452217
0.452217
0.452217
0.452217
0.452217
0.452217
0.452217
0.452217
0.452216
0.452216
0.452216
0.452216
0.452216
0.452215
0.452215
0.452215
0.452214
0.452214
0.452213
0.452213
0.452212
0.452211
0.45221
0.452209
0.452206
0.452202
0.452194
0.45218
0.452153
0.452101
0.451997
0.451796
0.451422
0.474702
0.47508
0.475286
0.475393
0.475448
0.475477
0.475491
0.475499
0.475504
0.475506
0.475508
0.475509
0.47551
0.475511
0.475511
0.475512
0.475512
0.475513
0.475513
0.475513
0.475514
0.475514
0.475514
0.475514
0.475514
0.475515
0.475515
0.475515
0.475515
0.475515
0.475515
0.475515
0.475515
0.475515
0.475515
0.475514
0.475514
0.475514
0.475514
0.475514
0.475513
0.475513
0.475513
0.475512
0.475512
0.475511
0.475511
0.47551
0.475509
0.475508
0.475506
0.475504
0.475499
0.475491
0.475477
0.475448
0.475393
0.475286
0.47508
0.474702
0.497345
0.497727
0.497936
0.498047
0.498105
0.498135
0.49815
0.498159
0.498164
0.498166
0.498168
0.498169
0.49817
0.498171
0.498172
0.498172
0.498172
0.498173
0.498173
0.498173
0.498174
0.498174
0.498174
0.498174
0.498174
0.498174
0.498175
0.498175
0.498175
0.498175
0.498175
0.498175
0.498175
0.498175
0.498174
0.498174
0.498174
0.498174
0.498174
0.498174
0.498173
0.498173
0.498173
0.498172
0.498172
0.498172
0.498171
0.49817
0.498169
0.498168
0.498166
0.498164
0.498159
0.49815
0.498135
0.498105
0.498047
0.497936
0.497727
0.497345
0.519347
0.51973
0.519944
0.520058
0.520118
0.520149
0.520166
0.520175
0.52018
0.520183
0.520185
0.520186
0.520187
0.520188
0.520188
0.520189
0.520189
0.520189
0.52019
0.52019
0.52019
0.52019
0.520191
0.520191
0.520191
0.520191
0.520191
0.520191
0.520191
0.520191
0.520191
0.520191
0.520191
0.520191
0.520191
0.520191
0.520191
0.520191
0.52019
0.52019
0.52019
0.52019
0.520189
0.520189
0.520189
0.520188
0.520188
0.520187
0.520186
0.520185
0.520183
0.52018
0.520175
0.520166
0.520149
0.520118
0.520058
0.519944
0.51973
0.519347
0.540704
0.541088
0.541304
0.541422
0.541484
0.541517
0.541534
0.541544
0.541549
0.541552
0.541554
0.541555
0.541556
0.541557
0.541557
0.541558
0.541558
0.541559
0.541559
0.541559
0.54156
0.54156
0.54156
0.54156
0.54156
0.54156
0.54156
0.54156
0.54156
0.54156
0.54156
0.54156
0.54156
0.54156
0.54156
0.54156
0.54156
0.54156
0.54156
0.54156
0.541559
0.541559
0.541559
0.541558
0.541558
0.541557
0.541557
0.541556
0.541555
0.541554
0.541552
0.541549
0.541544
0.541534
0.541517
0.541484
0.541422
0.541304
0.541088
0.540704
0.561412
0.561796
0.562016
0.562136
0.562201
0.562235
0.562254
0.562264
0.562269
0.562272
0.562275
0.562276
0.562277
0.562278
0.562278
0.562279
0.562279
0.562279
0.56228
0.56228
0.56228
0.56228
0.56228
0.562281
0.562281
0.562281
0.562281
0.562281
0.562281
0.562281
0.562281
0.562281
0.562281
0.562281
0.562281
0.562281
0.562281
0.56228
0.56228
0.56228
0.56228
0.56228
0.562279
0.562279
0.562279
0.562278
0.562278
0.562277
0.562276
0.562275
0.562272
0.562269
0.562264
0.562254
0.562235
0.562201
0.562136
0.562016
0.561796
0.561412
0.581474
0.581857
0.582079
0.582202
0.582269
0.582305
0.582324
0.582335
0.582341
0.582344
0.582346
0.582348
0.582349
0.582349
0.58235
0.58235
0.582351
0.582351
0.582351
0.582352
0.582352
0.582352
0.582352
0.582352
0.582352
0.582352
0.582353
0.582353
0.582353
0.582353
0.582353
0.582353
0.582353
0.582353
0.582352
0.582352
0.582352
0.582352
0.582352
0.582352
0.582352
0.582351
0.582351
0.582351
0.58235
0.58235
0.582349
0.582349
0.582348
0.582346
0.582344
0.582341
0.582335
0.582324
0.582305
0.582269
0.582202
0.582079
0.581857
0.581474
0.60089
0.601271
0.601495
0.601621
0.60169
0.601727
0.601747
0.601758
0.601765
0.601768
0.601771
0.601772
0.601773
0.601774
0.601775
0.601775
0.601775
0.601776
0.601776
0.601776
0.601776
0.601777
0.601777
0.601777
0.601777
0.601777
0.601777
0.601777
0.601777
0.601777
0.601777
0.601777
0.601777
0.601777
0.601777
0.601777
0.601777
0.601777
0.601777
0.601776
0.601776
0.601776
0.601776
0.601775
0.601775
0.601775
0.601774
0.601773
0.601772
0.601771
0.601768
0.601765
0.601758
0.601747
0.601727
0.60169
0.601621
0.601495
0.601271
0.60089
0.619664
0.620042
0.620267
0.620395
0.620466
0.620505
0.620527
0.620538
0.620545
0.620549
0.620551
0.620553
0.620554
0.620555
0.620555
0.620556
0.620556
0.620556
0.620557
0.620557
0.620557
0.620557
0.620557
0.620557
0.620558
0.620558
0.620558
0.620558
0.620558
0.620558
0.620558
0.620558
0.620558
0.620558
0.620558
0.620558
0.620557
0.620557
0.620557
0.620557
0.620557
0.620557
0.620556
0.620556
0.620556
0.620555
0.620555
0.620554
0.620553
0.620551
0.620549
0.620545
0.620538
0.620527
0.620505
0.620466
0.620395
0.620267
0.620042
0.619664
0.637799
0.638174
0.6384
0.638531
0.638604
0.638644
0.638666
0.638679
0.638686
0.63869
0.638693
0.638694
0.638695
0.638696
0.638697
0.638697
0.638697
0.638698
0.638698
0.638698
0.638698
0.638699
0.638699
0.638699
0.638699
0.638699
0.638699
0.638699
0.638699
0.638699
0.638699
0.638699
0.638699
0.638699
0.638699
0.638699
0.638699
0.638699
0.638699
0.638698
0.638698
0.638698
0.638698
0.638697
0.638697
0.638697
0.638696
0.638695
0.638694
0.638693
0.63869
0.638686
0.638679
0.638666
0.638644
0.638604
0.638531
0.6384
0.638174
0.637799
0.655303
0.655674
0.655901
0.656033
0.656108
0.65615
0.656173
0.656186
0.656194
0.656198
0.656201
0.656202
0.656203
0.656204
0.656205
0.656205
0.656206
0.656206
0.656206
0.656206
0.656206
0.656207
0.656207
0.656207
0.656207