/*--------------------------------*- C++ -*----------------------------------*\
| =========                 |                                                 |
| \\      /  F ield         | foam-extend: Open Source CFD                    |
|  \\    /   O peration     | Version:     4.0                                |
|   \\  /    A nd           | Web:         http://www.foam-extend.org         |
|    \\/     M anipulation  |                                                 |
\*---------------------------------------------------------------------------*/
FoamFile
{
    version     2.0;
    format      ascii;
    class       surfaceScalarField;
    location    "6";
    object      phi;
}
// * * * * * * * * * * * * * * * * * * * * * * * * * * * * * * * * * * * * * //

dimensions      [0 3 -1 0 0 0 0];

internalField   nonuniform List<scalar> 
13744
(
-3.0042e-25
-4.57169e-22
4.25627e-26
-3.74785e-25
1.22537e-25
-1.61015e-25
1.26776e-25
-5.73268e-26
9.3985e-26
-8.61212e-27
4.38504e-26
3.28257e-26
-4.10146e-27
6.6772e-26
-3.84443e-26
8.33099e-26
-6.82334e-26
8.12556e-26
-8.95834e-26
6.62918e-26
-9.55017e-26
4.09652e-26
-8.69185e-26
4.82284e-27
-6.32199e-26
-2.71818e-26
-2.228e-26
-4.88751e-26
2.48956e-26
-6.43774e-26
6.43417e-26
-6.49711e-26
8.79024e-26
-5.0212e-26
9.1782e-26
-3.1681e-26
7.3608e-26
-9.93896e-27
4.12945e-26
1.36506e-26
6.03756e-27
3.24342e-26
-2.75195e-26
4.14006e-26
-5.23349e-26
4.30399e-26
-6.13856e-26
3.58378e-26
-5.47521e-26
1.86337e-26
-3.5381e-26
-1.90282e-29
-6.45119e-27
-1.60429e-26
2.40726e-26
-2.86033e-26
4.67324e-26
-3.30208e-26
5.80324e-26
-2.87495e-26
5.69673e-26
-2.05554e-26
4.35418e-26
-9.52484e-27
2.29371e-26
3.80862e-27
1.10876e-27
1.43544e-26
-1.94654e-26
2.06807e-26
-3.4959e-26
2.37718e-26
-4.12886e-26
2.14611e-26
-3.84198e-26
1.3365e-26
-2.65812e-26
3.49102e-27
-6.59137e-27
-6.61402e-27
1.7256e-26
-1.67456e-26
3.86208e-26
-2.19067e-26
5.33167e-26
-2.19086e-26
5.76389e-26
-1.71851e-26
4.84054e-26
-8.91352e-27
2.9603e-26
1.28285e-27
4.85493e-27
1.14453e-26
-1.87559e-26
1.48043e-26
-3.60557e-26
1.81416e-26
-4.43699e-26
1.48711e-26
-3.9252e-26
9.29481e-27
-2.94958e-26
5.6134e-27
-1.16071e-26
-2.1796e-27
7.15889e-27
-1.91336e-27
1.92948e-26
-6.03507e-27
2.82496e-26
-2.85536e-27
2.44015e-26
1.7993e-27
1.46982e-26
2.76795e-27
5.34467e-27
5.16628e-27
2.61395e-28
-4.77074e-25
-4.56454e-22
7.69752e-26
-9.2462e-25
3.58667e-25
-5.98721e-25
3.90012e-25
-2.22652e-25
3.03408e-25
-9.01129e-26
1.46694e-25
6.16222e-26
9.9597e-27
1.8183e-25
-9.80989e-26
2.61901e-25
-1.95373e-25
2.74087e-25
-2.60113e-25
2.35018e-25
-2.81832e-25
1.55789e-25
-2.7145e-25
4.32806e-26
-2.0806e-25
-6.36225e-26
-8.76204e-26
-1.40038e-25
5.13693e-26
-1.96832e-25
1.7542e-25
-2.07576e-25
2.61069e-25
-1.72754e-25
2.8044e-25
-1.1823e-25
2.269e-25
-4.60742e-26
1.33063e-25
3.19024e-26
2.56606e-26
9.69367e-26
-8.01707e-26
1.30125e-25
-1.54764e-25
1.3484e-25
-1.81807e-25
1.10307e-25
-1.65644e-25
5.63672e-26
-1.08975e-25
-1.34747e-27
-2.13627e-26
-5.01497e-26
6.85537e-26
-8.56003e-26
1.36946e-25
-9.644e-26
1.74098e-25
-8.25943e-26
1.70405e-25
-5.57237e-26
1.28572e-25
-2.10386e-26
6.7816e-26
1.78079e-26
1.69026e-27
4.75751e-26
-6.12439e-26
6.34086e-26
-1.05472e-25
6.72309e-26
-1.23041e-25
5.56392e-26
-1.15306e-25
2.89722e-26
-7.89677e-26
-1.47575e-27
-1.78619e-26
-3.05923e-26
5.26589e-26
-5.64324e-26
1.16706e-25
-6.63075e-26
1.62613e-25
-6.13437e-26
1.74591e-25
-4.09337e-26
1.45954e-25
-1.27505e-26
8.91643e-26
1.92583e-26
1.31092e-26
4.72199e-26
-5.94757e-26
5.19211e-26
-1.12797e-25
5.4879e-26
-1.34834e-25
3.34397e-26
-1.19936e-25
1.28945e-26
-8.85513e-26
-2.3231e-27
-3.15093e-26
-2.24216e-26
2.24225e-26
-1.11879e-26
6.01341e-26
-1.7263e-26
8.58622e-26
2.27891e-27
7.35855e-26
1.68961e-26
4.38589e-26
1.83288e-26
1.56235e-26
1.88969e-26
-4.10432e-27
-6.99811e-25
-4.55108e-22
1.12253e-25
-1.65526e-24
5.89614e-25
-1.25479e-24
6.6413e-25
-4.81944e-25
5.3132e-25
-2.63259e-25
2.65272e-25
5.21725e-26
4.11376e-26
3.06201e-25
-1.45501e-25
5.03136e-25
-3.17395e-25
5.52757e-25
-4.29109e-25
4.93898e-25
-4.71545e-25
3.41597e-25
-4.68862e-25
1.1855e-25
-3.70493e-25
-9.79657e-26
-1.70832e-25
-2.55129e-25
6.12112e-26
-3.75149e-25
2.76159e-25
-4.02279e-25
4.34848e-25
-3.42814e-25
4.76344e-25
-2.40895e-25
3.8924e-25
-9.93123e-26
2.34924e-25
5.44959e-26
5.28195e-26
1.8288e-25
-1.30364e-25
2.46384e-25
-2.57569e-25
2.51696e-25
-3.04668e-25
1.99682e-25
-2.81835e-25
9.36861e-26
-1.88395e-25
-1.38966e-26
-4.03378e-26
-1.00391e-25
1.1034e-25
-1.58581e-25
2.26976e-25
-1.69707e-25
2.93376e-25
-1.37175e-25
2.87778e-25
-8.32822e-26
2.16665e-25
-1.83617e-26
1.15178e-25
5.01037e-26
2.80717e-27
9.80823e-26
-1.04903e-25
1.17357e-25
-1.78443e-25
1.13277e-25
-2.0768e-25
8.16906e-26
-1.95893e-25
2.57961e-26
-1.34245e-25
-3.11911e-26
-3.02503e-26
-8.05487e-26
8.8265e-26
-1.17846e-25
1.97026e-25
-1.22331e-25
2.76843e-25
-9.89009e-26
2.97213e-25
-4.82239e-26
2.48875e-25
1.02608e-26
1.52985e-25
7.15688e-26
2.29564e-26
1.14376e-25
-1.01802e-25
1.10018e-25
-1.93892e-25
9.76133e-26
-2.29832e-25
3.63701e-26
-2.05781e-25
-1.09461e-26
-1.51247e-25
-4.78944e-26
-5.21686e-26
-7.43121e-26
3.76238e-26
-3.63227e-26
1.0301e-25
-3.12831e-26
1.4619e-25
2.58047e-26
1.25366e-25
5.38009e-26
7.48137e-26
5.54596e-26
2.6746e-26
4.2629e-26
-1.30448e-26
-9.90054e-25
-4.53786e-22
1.31289e-25
-2.63214e-24
8.13209e-25
-2.1403e-24
9.44623e-25
-8.42587e-25
7.71891e-25
-5.28416e-25
3.97936e-25
7.57972e-27
8.6216e-26
4.46213e-25
-1.82259e-25
8.1542e-25
-4.342e-25
9.25138e-25
-5.97641e-25
8.51067e-25
-6.66144e-25
6.04874e-25
-6.77283e-25
2.32076e-25
-5.47628e-25
-1.33477e-25
-2.69173e-25
-4.0085e-25
5.78208e-26
-6.08743e-25
3.687e-25
-6.58028e-25
6.07757e-25
-5.65456e-25
6.77118e-25
-4.00894e-25
5.5954e-25
-1.68335e-25
3.45933e-25
8.49922e-26
8.76221e-26
2.94461e-25
-1.7648e-25
3.93293e-25
-3.59917e-25
3.9594e-25
-4.30333e-25
3.05315e-25
-4.03636e-25
1.30076e-25
-2.74384e-25
-3.95353e-26
-6.48008e-26
-1.69199e-25
1.48697e-25
-2.50413e-25
3.16554e-25
-2.552e-25
4.15371e-25
-1.93381e-25
4.09617e-25
-1.03123e-25
3.09526e-25
-8.67112e-28
1.66705e-25
1.01942e-25
6.33347e-27
1.67053e-25
-1.48488e-25
1.83088e-25
-2.53198e-25
1.62255e-25
-2.95613e-25
9.94923e-26
-2.80878e-25
2.74112e-27
-1.93821e-25
-8.73369e-26
-4.5732e-26
-1.58369e-25
1.22534e-25
-2.0298e-25
2.78465e-25
-1.91478e-25
3.9492e-25
-1.34675e-25
4.25503e-25
-3.80253e-26
3.58161e-25
6.20842e-26
2.22592e-25
1.60959e-25
3.6589e-26
2.15343e-25
-1.43369e-25
1.90752e-25
-2.77151e-25
1.46497e-25
-3.28923e-25
2.28851e-26
-2.96875e-25
-6.4238e-26
-2.18707e-25
-1.34031e-25
-7.59026e-26
-1.6012e-25
5.15463e-26
-7.95791e-26
1.46742e-25
-4.91526e-26
2.08925e-25
6.82905e-26
1.80105e-25
1.13805e-25
1.08299e-25
1.16473e-25
3.93647e-26
7.81192e-26
-2.43544e-26
-1.29622e-24
-4.52081e-22
1.25818e-25
-3.84258e-24
1.02797e-24
-3.25947e-24
1.22981e-24
-1.30848e-24
1.02405e-24
-8.92535e-25
5.44531e-25
-8.04878e-26
1.45593e-25
5.94322e-25
-2.07466e-25
1.19334e-24
-5.44665e-25
1.38904e-24
-7.64969e-25
1.30813e-24
-8.65265e-25
9.49477e-25
-8.96498e-25
3.88576e-25
-7.39577e-25
-1.65482e-25
-3.8307e-25
-5.73669e-25
4.06031e-26
-8.9584e-25
4.52137e-25
-9.74303e-25
7.78574e-25
-8.41257e-25
8.81726e-25
-5.99924e-25
7.37347e-25
-2.55421e-25
4.6627e-25
1.21085e-25
1.30932e-25
4.29523e-25
-2.17219e-25
5.69173e-25
-4.60638e-25
5.6669e-25
-5.58082e-25
4.26879e-25
-5.30867e-25
1.65531e-25
-3.6738e-25
-7.78761e-26
-9.5664e-26
-2.55996e-25
1.8257e-25
-3.6045e-25
4.04675e-25
-3.52053e-25
5.393e-25
-2.50274e-25
5.35636e-25
-1.14495e-25
4.0742e-25
3.19915e-26
2.23084e-25
1.73617e-25
1.32868e-26
2.54367e-25
-1.90875e-25
2.60165e-25
-3.28824e-25
2.13572e-25
-3.86278e-25
1.0821e-25
-3.70105e-25
-4.11563e-26
-2.58026e-25
-1.70791e-25
-6.50599e-26
-2.64798e-25
1.54486e-25
-3.12341e-25
3.59964e-25
-2.73816e-25
5.15893e-25
-1.68202e-25
5.58908e-25
-9.5164e-27
4.73786e-25
1.43939e-25
2.98503e-25
2.88848e-25
5.50068e-26
3.51391e-25
-1.8291e-25
2.95126e-25
-3.61363e-25
2.019e-25
-4.31278e-25
-7.22043e-27
-3.92851e-25
-1.48098e-25
-2.91084e-25
-2.62438e-25
-1.03288e-25
-2.81642e-25
6.35133e-26
-1.42798e-25
1.90692e-25
-7.17168e-26
2.73621e-25
1.29774e-25
2.37667e-25
1.97737e-25
1.44431e-25
2.028e-25
5.36661e-26
1.2645e-25
-3.68488e-26
-1.60976e-24
-4.49978e-22
9.88036e-26
-5.27014e-24
1.23186e-24
-4.61216e-24
1.51786e-24
-1.88399e-24
1.28678e-24
-1.36237e-24
7.0507e-25
-2.19945e-25
2.19977e-25
7.43518e-25
-2.19894e-25
1.63205e-24
-6.47378e-25
1.94262e-24
-9.29987e-25
1.86681e-24
-1.06824e-24
1.37933e-24
-1.12622e-24
5.92758e-25
-9.46597e-25
-1.89457e-25
-5.13289e-25
-7.70317e-25
8.46061e-27
-1.23503e-24
5.251e-25
-1.35115e-24
9.45829e-25
-1.17144e-24
1.08904e-24
-8.40135e-25
9.22192e-25
-3.63027e-25
5.96169e-25
1.60645e-25
1.83641e-25
5.86487e-25
-2.51306e-25
7.73119e-25
-5.58558e-25
7.6381e-25
-6.87161e-25
5.64628e-25
-6.63335e-25
2.00321e-25
-4.67803e-25
-1.28657e-25
-1.3382e-25
-3.60658e-25
2.10886e-25
-4.8872e-25
4.90308e-25
-4.60216e-25
6.6438e-25
-3.07685e-25
6.65518e-25
-1.17189e-25
5.10535e-25
8.04921e-26
2.84908e-25
2.65483e-25
2.45542e-26
3.60303e-25
-2.3109e-25
3.48774e-25
-4.04519e-25
2.67353e-25
-4.79182e-25
1.07726e-25
-4.63462e-25
-1.0631e-25
-3.27188e-25
-2.82195e-25
-8.89438e-26
-4.00702e-25
1.83193e-25
-4.46914e-25
4.40537e-25
-3.70203e-25
6.38912e-25
-1.99941e-25
6.96953e-25
3.72766e-26
5.95775e-25
2.56429e-25
3.81241e-25
4.56408e-25
7.91525e-26
5.2397e-25
-2.19288e-25
4.2469e-25
-4.45475e-25
2.64929e-25
-5.36198e-25
-5.33783e-26
-4.93458e-25
-2.63015e-25
-3.68585e-25
-4.34497e-25
-1.34888e-25
-4.40679e-25
7.28692e-26
-2.2816e-25
2.34265e-25
-1.0034e-25
3.39876e-25
2.09726e-25
2.97945e-25
3.06085e-25
1.83336e-25
3.15794e-25
6.98346e-26
1.88912e-25
-4.88931e-26
-1.93509e-24
-4.47448e-22
5.04713e-26
-6.90209e-24
1.42248e-24
-6.19478e-24
1.80673e-24
-2.57366e-24
1.55898e-24
-1.94577e-24
8.7955e-25
-4.20486e-25
3.1017e-25
8.84855e-25
-2.18165e-25
2.12498e-24
-7.40745e-25
2.58291e-24
-1.09135e-24
2.52838e-24
-1.27416e-24
1.89874e-24
-1.36606e-24
8.50361e-25
-1.16896e-24
-1.99547e-25
-6.60732e-25
-9.86184e-25
-3.99554e-26
-1.62382e-24
5.85947e-25
-1.78806e-24
1.10785e-24
-1.55725e-24
1.29778e-24
-1.12412e-24
1.11352e-24
-4.94345e-25
7.35841e-25
2.00712e-25
2.46647e-25
7.63075e-25
-2.77449e-25
1.00377e-24
-6.52456e-25
9.86989e-25
-8.16756e-25
7.18936e-25
-8.00798e-25
2.35062e-25
-5.76048e-25
-1.91195e-25
-1.80163e-25
-4.82666e-25
2.32527e-25
-6.34956e-25
5.72365e-25
-5.79534e-25
7.89776e-25
-3.655e-25
7.98888e-25
-1.11152e-25
6.19008e-25
1.44701e-25
3.52733e-25
3.77693e-25
4.09848e-26
4.85021e-25
-2.68193e-25
4.49073e-25
-4.79491e-25
3.23786e-25
-5.7383e-25
9.8078e-26
-5.60837e-25
-1.92921e-25
-4.01634e-25
-4.21991e-25
-1.1809e-25
-5.66803e-25
2.07717e-25
-6.07643e-25
5.19187e-25
-4.816e-25
7.63119e-25
-2.30592e-25
8.39158e-25
1.02016e-25
7.24148e-25
3.99841e-25
4.71332e-25
6.64561e-25
1.09969e-25
7.34437e-25
-2.51376e-25
5.8107e-25
-5.28453e-25
3.36914e-25
-6.42997e-25
-1.14687e-25
-5.98471e-25
-4.0915e-25
-4.51428e-25
-6.51341e-25
-1.71277e-25
-6.38967e-25
7.89385e-26
-3.37952e-25
2.76855e-25
-1.36614e-25
4.07274e-25
3.07328e-25
3.60822e-25
4.39158e-25
2.25137e-25
4.56751e-25
8.80563e-26
2.66872e-25
-5.86863e-26
-2.2742e-24
-4.44472e-22
-2.12537e-26
-8.72562e-24
1.59716e-24
-8.00208e-24
2.09415e-24
-3.38135e-24
1.83935e-24
-2.65044e-24
1.06786e-24
-6.92332e-25
4.1697e-25
1.00844e-24
-2.00828e-25
2.66438e-24
-8.23039e-25
3.30584e-24
-1.24752e-24
3.29335e-24
-1.48196e-24
2.51175e-24
-1.61548e-24
1.16738e-24
-1.40688e-24
-1.89273e-25
-8.26347e-25
-1.21588e-24
-1.06142e-25
-2.05897e-24
6.32838e-25
-2.28402e-24
1.26277e-24
-1.99976e-24
1.50651e-24
-1.45455e-24
1.31066e-24
-6.52849e-25
8.85437e-25
2.37951e-25
3.20838e-25
9.56685e-25
-2.94321e-25
1.25956e-24
-7.41041e-25
1.23582e-24
-9.45964e-25
8.90201e-25
-9.4295e-25
2.70484e-25
-6.92475e-25
-2.64678e-25
-2.35597e-25
-6.2141e-25
2.46323e-25
-7.98855e-25
6.49682e-25
-7.09893e-25
9.14574e-25
-4.23719e-25
9.35302e-25
-9.64513e-26
7.32921e-25
2.24568e-25
4.27084e-25
5.10314e-25
6.34212e-26
6.28661e-25
-3.01231e-25
5.61272e-25
-5.5292e-25
3.83168e-25
-6.69694e-25
7.94752e-26
-6.62093e-25
-3.00985e-25
-4.81675e-25
-5.90448e-25
-1.53213e-25
-7.6372e-25
2.27089e-25
-7.95479e-25
5.94869e-25
-6.09116e-25
8.87613e-25
-2.61121e-25
9.85001e-25
1.84042e-25
8.58901e-25
5.74156e-25
5.69298e-25
9.14006e-25
1.48414e-25
9.84094e-25
-2.78022e-25
7.66015e-25
-6.09226e-25
4.19446e-25
-7.50954e-25
-1.89886e-25
-7.07641e-25
-5.86336e-25
-5.39827e-25
-9.13861e-25
-2.13039e-25
-8.78187e-25
8.10108e-26
-4.74595e-25
3.17813e-25
-1.82377e-25
4.75363e-25
4.21448e-25
4.26159e-25
5.97056e-25
2.6995e-25
6.26897e-25
1.0852e-25
3.61792e-25
-6.41789e-26
-2.62697e-24
-4.41039e-22
-1.18728e-25
-1.07257e-23
1.753e-24
-1.00274e-23
2.37756e-24
-4.31029e-24
2.12636e-24
-3.48394e-24
1.26973e-24
-1.04612e-24
5.4111e-25
1.10359e-24
-1.66407e-25
3.24146e-24
-8.92427e-25
4.10635e-24
-1.3968e-24
4.16146e-24
-1.69032e-24
3.22211e-24
-1.87379e-24
1.55002e-24
-1.66046e-24
-1.51634e-25
-1.01107e-24
-1.45336e-24
-1.91688e-25
-2.53661e-24
6.63769e-25
-2.83761e-24
1.40854e-24
-2.49994e-24
1.71363e-24
-1.8342e-24
1.51279e-24
-8.42255e-25
1.04501e-24
2.68712e-25
4.07072e-25
1.16445e-24
-3.0057e-25
1.53876e-24
-8.22945e-25
1.50985e-24
-1.07379e-24
1.07887e-24
-1.0894e-24
3.07434e-25
-8.17397e-25
-3.48199e-25
-3.01024e-25
-7.76241e-25
2.51057e-25
-9.80139e-25
7.21016e-25
-8.51293e-25
1.03777e-24
-4.82493e-25
1.07423e-24
-7.32978e-26
8.52297e-25
3.19934e-25
5.08463e-25
6.63356e-25
9.27089e-26
7.91388e-25
-3.29226e-25
6.85677e-25
-6.23939e-25
4.45946e-25
-7.66195e-25
5.23231e-26
-7.67053e-25
-4.30292e-25
-5.67604e-25
-7.87677e-25
-1.95032e-25
-9.91999e-25
2.40302e-25
-1.01142e-24
6.66479e-25
-7.54045e-25
1.01142e-24
-2.92788e-25
1.13389e-24
2.82356e-25
9.9998e-25
7.79051e-25
6.75644e-25
1.20524e-24
1.95467e-25
1.27422e-24
-2.98022e-25
9.81425e-25
-6.86661e-25
5.14417e-25
-8.5928e-25
-2.77325e-25
-8.20679e-25
-7.94058e-25
-6.33978e-25
-1.22269e-24
-2.60776e-25
-1.15998e-24
7.83347e-26
-6.40668e-25
3.56442e-25
-2.3975e-25
5.43639e-25
5.50604e-25
4.93782e-25
7.79648e-25
3.17878e-25
8.27386e-25
1.31413e-25
4.75237e-25
-6.30348e-26
-2.99318e-24
-4.37136e-22
-2.44163e-25
-1.28852e-23
1.88688e-24
-1.22622e-23
2.65415e-24
-5.36287e-24
2.4182e-24
-4.45344e-24
1.48466e-24
-1.49279e-24
6.83205e-25
1.15879e-24
-1.13445e-25
3.8463e-24
-9.47003e-25
4.97824e-24
-1.5373e-24
5.13161e-24
-1.89779e-24
4.03318e-24
-2.1401e-24
2.00458e-24
-1.92971e-24
-7.91383e-26
-1.2158e-24
-1.69191e-24
-2.98232e-25
-3.05218e-24
6.76607e-25
-3.44693e-24
1.54292e-24
-3.05851e-24
1.9173e-24
-2.26584e-24
1.7189e-24
-1.06648e-24
1.21451e-24
2.89053e-25
5.06158e-25
1.38325e-24
-2.94823e-25
1.83945e-24
-8.96724e-25
1.80854e-24
-1.19913e-24
1.28542e-24
-1.23967e-24
3.46837e-25
-9.51069e-25
-4.40773e-25
-3.77341e-25
-9.46487e-25
2.45462e-25
-1.17856e-24
7.85038e-25
-1.00383e-24
1.15828e-24
-5.42116e-25
1.21507e-24
-4.2032e-26
9.7709e-25
4.30538e-25
5.97337e-25
8.3678e-25
1.29698e-25
9.73387e-25
-3.51162e-25
8.22688e-25
-6.91626e-25
5.12713e-25
-8.62692e-25
1.72146e-26
-8.75487e-25
-5.80427e-25
-6.59685e-25
-1.01363e-24
-2.44271e-25
-1.25212e-24
2.46311e-25
-1.2565e-24
7.32847e-25
-9.17862e-25
1.13348e-24
-3.27148e-25
1.28515e-24
3.95613e-25
1.14727e-24
1.01389e-24
7.90852e-25
1.53854e-24
2.52123e-25
1.60606e-24
-3.10121e-25
1.22936e-24
-7.59545e-25
6.24018e-25
-9.67108e-25
-3.74946e-25
-9.3723e-25
-1.03143e-24
-7.34048e-25
-1.57821e-24
-3.15093e-25
-1.48593e-24
7.01169e-26
-8.38918e-25
3.91984e-25
-3.11142e-25
6.11538e-25
6.92943e-25
5.63475e-25
9.86552e-25
3.69003e-25
1.05928e-24
1.56924e-25
6.08872e-25
-5.26167e-26
-3.37288e-24
-4.32753e-22
-3.99751e-25
-1.51852e-23
1.99552e-24
-1.4696e-23
2.92079e-24
-6.54046e-24
2.71279e-24
-5.56563e-24
1.71193e-24
-2.0435e-24
8.43707e-25
1.16183e-24
-4.05368e-26
4.46785e-24
-9.84809e-25
5.91414e-24
-1.66705e-24
6.20168e-24
-2.10268e-24
4.9478e-24
-2.41334e-24
2.53738e-24
-2.21443e-24
3.61462e-26
-1.44134e-24
-1.92415e-24
-4.27432e-25
-3.60044e-24
6.69105e-25
-4.1095e-24
1.6635e-24
-3.67595e-24
2.1155e-24
-2.75222e-24
1.9278e-24
-1.32959e-24
1.39371e-24
2.94757e-25
6.18831e-25
1.60965e-24
-2.75699e-25
2.15951e-24
-9.60861e-25
2.13125e-24
-1.32077e-24
1.5103e-24
-1.39315e-24
3.89689e-25
-1.09367e-24
-5.41347e-25
-4.65424e-25
-1.13146e-24
2.28234e-25
-1.39392e-24
8.40335e-25
-1.16771e-24
1.27487e-24
-6.03029e-25
1.35707e-24
-3.12598e-27
1.10718e-24
5.56024e-25
6.94134e-25
1.03051e-24
1.75238e-25
1.17488e-24
-3.6599e-25
9.72806e-25
-7.54995e-25
5.84218e-25
-9.58476e-25
-2.50618e-26
-9.87106e-25
-7.5077e-25
-7.5814e-25
-1.2681e-24
-3.01649e-25
-1.54447e-24
2.44036e-25
-1.53182e-24
7.9273e-25
-1.10223e-24
1.25264e-24
-3.66057e-25
1.43801e-24
5.22112e-25
1.30058e-24
1.27772e-24
9.15363e-25
1.91396e-24
3.19383e-25
1.98081e-24
-3.13011e-25
1.51202e-24
-8.26582e-25
7.50757e-25
-1.07348e-24
-4.8026e-25
-1.05687e-24
-1.29719e-24
-8.4016e-25
-1.98047e-24
-3.76599e-25
-1.85754e-24
5.55231e-26
-1.07224e-24
4.23615e-25
-3.99259e-25
6.78431e-25
8.46222e-25
6.34966e-25
1.2171e-24
4.23383e-25
1.32352e-24
1.85234e-25
7.64459e-25
-2.99727e-26
-3.76619e-24
-4.27882e-22
-5.87705e-25
-1.76051e-23
2.07545e-24
-1.73163e-23
3.17408e-24
-7.84328e-24
3.00767e-24
-6.82654e-24
1.95048e-24
-2.70946e-24
1.02286e-24
1.09979e-24
5.36224e-26
5.09388e-24
-1.00387e-24
6.9054e-24
-1.78389e-24
7.3685e-24
-2.30313e-24
5.96818e-24
-2.69221e-24
3.1547e-24
-2.51427e-24
2.02543e-25
-1.68839e-24
-2.14205e-24
-5.80929e-25
-4.17539e-24
6.3893e-25
-4.8223e-24
1.76768e-24
-4.3524e-24
2.30597e-24
-3.29598e-24
2.13807e-24
-1.63579e-24
1.58224e-24
2.81349e-25
7.45729e-25
1.84e-24
-2.4183e-25
2.49663e-24
-1.01377e-24
2.47723e-24
-1.4374e-24
1.75397e-24
-1.54916e-24
4.37041e-25
-1.24529e-24
-6.48811e-25
-5.66116e-25
-1.33046e-24
1.98038e-25
-1.62605e-24
8.85415e-25
-1.34324e-24
1.38624e-24
-6.65825e-25
1.49942e-24
4.28105e-26
1.24234e-24
6.95938e-25
7.99228e-25
1.24441e-24
2.3017e-25
1.3961e-24
-3.72626e-25
1.13664e-24
-8.13e-25
6.61368e-25
-1.05276e-24
-7.35152e-26
-1.10155e-24
-9.40481e-25
-8.63144e-25
-1.55071e-24
-3.67869e-25
-1.86936e-24
2.3237e-25
-1.83848e-24
8.44821e-25
-1.30898e-24
1.36766e-24
-4.11683e-25
1.59161e-24
6.59777e-25
1.45963e-24
1.56922e-24
1.04957e-24
2.3313e-24
3.9825e-25
2.39961e-24
-3.05332e-25
1.83176e-24
-8.86387e-25
8.97464e-25
-1.17732e-24
-5.90332e-25
-1.17906e-24
-1.58962e-24
-9.52385e-25
-2.42922e-24
-4.45895e-25
-2.27623e-24
3.36814e-26
-1.34368e-24
4.50448e-25
-5.07115e-25
7.4361e-25
1.00778e-24
7.07927e-25
1.47033e-24
4.81045e-25
1.62089e-24
2.16519e-25
9.43845e-25
8.175e-27
-4.17316e-24
-4.22516e-22
-8.10207e-25
-2.01229e-23
2.12309e-24
-2.01084e-23
3.41032e-24
-9.27021e-24
3.30008e-24
-8.24137e-24
2.19895e-24
-3.50184e-24
1.22065e-24
9.59193e-25
1.702e-25
5.71103e-24
-1.00221e-24
7.94205e-24
-1.88562e-24
8.62768e-24
-2.49709e-24
7.09579e-24
-2.97518e-24
3.86261e-24
-2.82862e-24
4.28702e-25
-1.95747e-24
-2.33695e-24
-7.60314e-25
-4.7703e-24
5.83682e-25
-5.58162e-24
1.85272e-24
-5.08763e-24
2.48624e-24
-3.89965e-24
2.34804e-24
-1.98936e-24
1.77951e-24
2.44114e-25
8.87363e-25
2.07034e-24
-1.91879e-25
2.84827e-24
-1.05382e-24
2.84562e-24
-1.54758e-24
2.01685e-24
-1.70684e-24
4.89996e-25
-1.40592e-24
-7.62004e-25
-6.80213e-25
-1.5428e-24
1.53523e-25
-1.87485e-24
9.18706e-25
-1.53088e-24
1.49095e-24
-7.31264e-25
1.64115e-24
9.50201e-26
1.38227e-24
8.49721e-25
9.1293e-25
1.47833e-24
2.95316e-25
1.63736e-24
-3.6996e-25
1.31491e-24
-8.6453e-25
7.45243e-25
-1.14467e-24
-1.26942e-25
-1.21836e-24
-1.14849e-24
-9.74809e-25
-1.86088e-24
-4.43611e-25
-2.22702e-24
2.10186e-25
-2.17765e-24
8.87748e-25
-1.54015e-24
1.4772e-24
-4.66513e-25
1.74494e-24
8.06136e-25
1.62404e-24
1.88671e-24
1.19378e-24
2.79006e-24
4.89707e-25
2.86351e-24
-2.85683e-25
2.19107e-24
-9.37483e-25
1.0673e-24
-1.27746e-24
-7.01752e-25
-1.3032e-24
-1.90656e-24
-1.07072e-24
-2.92381e-24
-5.23564e-25
-2.74329e-24
3.68733e-27
-1.65641e-24
4.71524e-25
-6.38031e-25
8.0629e-25
1.17453e-24
7.81959e-25
1.74491e-24
5.41974e-25
1.95202e-24
2.50939e-25
1.14895e-24
6.54381e-26
-4.59383e-24
-4.16651e-22
-1.06936e-24
-2.27151e-23
2.13476e-24
-2.30554e-23
3.62551e-24
-1.08186e-23
3.58684e-24
-9.81428e-24
2.45561e-24
-4.43157e-24
1.43678e-24
7.26049e-25
3.10175e-25
6.30483e-24
-9.77918e-25
9.01277e-24
-1.96993e-24
9.97356e-24
-2.68232e-24
8.33121e-24
-3.26048e-24
4.66691e-24
-3.15665e-24
7.23525e-25
-2.24893e-24
-2.49961e-24
-9.67091e-25
-5.37768e-24
5.00926e-25
-6.38312e-24
1.91569e-24
-5.88095e-24
2.65357e-24
-4.56552e-24
2.55581e-24
-2.39462e-24
1.98469e-24
1.78124e-25
1.04409e-24
2.29648e-24
-1.24565e-25
3.21169e-24
-1.07934e-24
3.23541e-24
-1.64977e-24
2.29933e-24
-1.86522e-24
5.497e-25
-1.57542e-24
-8.79718e-25
-8.08441e-25
-1.7678e-24
9.33311e-26
-2.1403e-24
9.3857e-25
-1.73123e-24
1.58746e-24
-8.0029e-25
1.78117e-24
1.52585e-25
1.52652e-24
1.0167e-24
1.03546e-24
1.73205e-24
3.71467e-25
1.89897e-24
-3.56862e-25
1.50846e-24
-9.08416e-25
8.37099e-25
-1.23326e-24
-1.83915e-25
-1.33703e-24
-1.3735e-24
-1.09317e-24
-2.19786e-24
-5.29511e-25
-2.61754e-24
1.76352e-25
-2.55049e-24
9.20081e-25
-1.79795e-24
1.57981e-24
-5.33362e-25
1.89691e-24
9.58304e-25
1.79328e-24
2.22809e-24
1.34823e-24
3.28946e-24
5.94705e-25
3.37346e-24
-2.52627e-25
2.59255e-24
-9.78307e-25
1.26376e-24
-1.37261e-24
-8.10616e-25
-1.42853e-24
-2.24537e-24
-1.19509e-24
-3.46321e-24
-6.10159e-25
-3.25983e-24
-3.53883e-26
-2.01368e-24
4.85818e-25
-7.95637e-25
8.656e-25
1.34291e-24
8.56588e-25
2.03915e-24
6.0611e-25
2.31728e-24
2.88637e-25
1.38173e-24
1.45767e-25
-5.02814e-24
-4.10281e-22
-1.36712e-24
-2.53568e-23
2.10671e-24
-2.61383e-23
3.81537e-24
-1.24843e-23
3.86442e-24
-1.15483e-23
2.7183e-24
-5.50916e-24
1.67059e-24
3.86035e-25
4.74294e-25
6.85973e-24
-9.29175e-25
1.01048e-23
-2.03445e-24
1.13991e-23
-2.85642e-24
9.67402e-24
-3.54608e-24
5.573e-24
-3.49725e-24
1.09607e-24
-2.56289e-24
-2.62021e-24
-1.20264e-24
-5.98927e-24
3.88223e-25
-7.22171e-24
1.95354e-24
-6.73119e-24
2.80503e-24
-5.29567e-24
2.75917e-24
-2.85589e-24
2.19672e-24
7.82651e-26
1.21606e-24
2.51394e-24
-3.86961e-26
3.58392e-24
-1.08861e-24
3.64549e-24
-1.74233e-24
2.60176e-24
-2.02318e-24
6.17336e-25
-1.75352e-24
-1.00071e-24
-9.5144e-25
-2.00479e-24
1.61208e-26
-2.42246e-24
9.43304e-25
-1.94502e-24
1.67409e-24
-8.74046e-25
1.91824e-24
2.14409e-25
1.67453e-24
1.19609e-24
1.16696e-24
2.00532e-24
4.59366e-25
2.1813e-24
-3.32194e-25
1.71827e-24
-9.43431e-25
9.38385e-25
-1.31749e-24
-2.42772e-25
-1.45689e-24
-1.61393e-24
-1.21817e-24
-2.56066e-24
-6.26152e-25
-3.04091e-24
1.29742e-25
-2.95819e-24
9.4034e-25
-2.08475e-24
1.67394e-24
-6.1538e-25
2.04625e-24
1.11296e-24
1.96673e-24
2.59083e-24
1.51305e-24
3.82833e-24
7.14147e-25
3.93025e-24
-2.04711e-25
3.0389e-24
-1.00721e-24
1.49067e-24
-1.46133e-24
-9.12508e-25
-1.55419e-24
-2.60284e-24
-1.32532e-24
-4.04588e-24
-7.06187e-25
-3.82675e-24
-8.44908e-26
-2.41884e-24
4.92241e-25
-9.83871e-25
9.20577e-25
1.50888e-24
9.31255e-25
2.35091e-24
6.73334e-25
2.71679e-24
3.29732e-25
1.64422e-24
2.53449e-25
-5.47593e-24
-4.03406e-22
-1.70529e-24
-2.80219e-23
2.03517e-24
-2.93359e-23
3.97538e-24
-1.42613e-23
4.1289e-24
-1.34449e-23
2.98444e-24
-6.74448e-24
1.92103e-24
-7.53558e-26
6.63012e-25
7.3592e-24
-8.54299e-25
1.12041e-23
-2.07681e-24
1.28956e-23
-3.01682e-24
1.11227e-23
-3.82969e-24
6.5857e-24
-3.849e-24
1.55545e-24
-2.89921e-24
-2.68847e-24
-1.46818e-24
-6.59606e-24
2.43165e-25
-8.09154e-24
1.96311e-24
-7.63663e-24
2.93741e-24
-6.09185e-24
2.95562e-24
-3.37744e-24
2.4142e-24
-6.07335e-26
1.40323e-24
2.71805e-24
6.68047e-26
3.96176e-24
-1.07994e-24
4.07458e-24
-1.82349e-24
2.92445e-24
-2.17943e-24
6.94124e-25
-1.93977e-24
-1.12368e-24
-1.10974e-24
-2.25314e-24
-7.942e-26
-2.72148e-24
9.31157e-25
-2.17319e-24
1.74907e-24
-9.53894e-25
2.05097e-24
2.79202e-25
1.82556e-24
1.38695e-24
1.30744e-24
2.29782e-24
5.5969e-25
2.48476e-24
-2.94825e-25
1.94544e-24
-9.68298e-25
1.05075e-24
-1.39622e-24
-3.01606e-25
-1.57722e-24
-1.86796e-24
-1.34966e-24
-2.9481e-24
-7.34044e-25
-3.49696e-24
6.92512e-26
-3.40193e-24
9.47008e-25
-2.40311e-24
1.75795e-24
-7.16056e-25
2.19158e-24
1.26634e-24
2.14358e-24
2.97194e-24
1.68823e-24
4.40514e-24
8.48858e-25
4.53449e-24
-1.40475e-25
3.53291e-24
-1.02247e-24
1.7522e-24
-1.5421e-24
-1.00248e-24
-1.67916e-24
-2.97521e-24
-1.46109e-24
-4.6698e-24
-8.12093e-25
-4.44472e-24
-1.4457e-25
-2.87525e-24
4.89638e-25
-1.20696e-24
9.70168e-25
1.66794e-24
1.00531e-24
2.67764e-24
7.43463e-25
3.15037e-24
3.74311e-25
1.93841e-24
3.93107e-25
-5.93692e-24
-3.96025e-22
-2.08541e-24
-3.06834e-23
1.91637e-24
-3.26248e-23
4.10078e-24
-1.61415e-23
4.37592e-24
-1.55042e-23
3.25099e-24
-8.14657e-24
2.18659e-24
-6.72631e-25
8.76438e-25
7.78584e-24
-7.51803e-25
1.22952e-23
-2.09468e-24
1.44531e-23
-3.16083e-24
1.26743e-23
-4.10877e-24
7.70913e-24
-4.21017e-24
2.11069e-24
-3.25744e-24
-2.69365e-24
-1.76471e-24
-7.18826e-24
6.34119e-26
-8.986e-24
1.94114e-24
-8.59494e-24
3.04729e-24
-6.95542e-24
3.14237e-24
-3.96345e-24
2.63545e-24
-2.44259e-25
1.60525e-24
2.90389e-24
1.92858e-25
4.34184e-24
-1.05166e-24
4.52127e-24
-1.89142e-24
3.26765e-24
-2.33254e-24
7.81317e-25
-2.13358e-24
-1.24733e-24
-1.28375e-24
-2.51224e-24
-1.9455e-25
-3.0376e-24
9.00342e-25
-2.41686e-24
1.81048e-24
-1.04144e-24
2.17783e-24
3.45454e-25
1.97875e-24
1.5882e-24
1.45676e-24
2.60917e-24
6.73032e-25
2.8098e-24
-2.43641e-25
2.19121e-24
-9.81701e-25
1.17603e-24
-1.46824e-24
-3.58247e-25
-1.69716e-24
-2.13347e-24
-1.48736e-24
-3.3587e-24
-8.53605e-25
-3.98537e-24
-6.18246e-27
-3.88284e-24
9.38541e-25
-2.75573e-24
1.8301e-24
-8.39213e-25
2.33138e-24
1.41421e-24
2.32288e-24
3.36791e-24
1.87363e-24
5.01792e-24
9.99572e-25
5.18656e-24
-5.84759e-26
4.07736e-24
-1.02228e-24
2.05282e-24
-1.61322e-24
-1.07505e-24
-1.80226e-24
-3.3581e-24
-1.60199e-24
-5.33237e-24
-9.28242e-25
-5.11406e-24
-2.16565e-25
-3.38626e-24
4.76801e-25
-1.46942e-24
1.01322e-24
1.81505e-24
1.07799e-24
3.01625e-24
8.16234e-25
3.61746e-24
4.22423e-25
2.26631e-24
5.69682e-25
-6.41067e-24
-3.8814e-22
-2.50875e-24
-3.33137e-23
1.74666e-24
-3.59797e-23
4.18661e-24
-1.8115e-23
4.60078e-24
-1.77242e-23
3.51439e-24
-9.72334e-24
2.46531e-24
-1.42008e-24
1.11428e-24
8.1215e-24
-6.20452e-25
1.33611e-23
-2.08578e-24
1.60598e-23
-3.28563e-24
1.43247e-23
-4.38052e-24
8.94656e-24
-4.57869e-24
2.77063e-24
-3.63677e-24
-2.62472e-24
-2.09297e-24
-7.75541e-24
-1.53256e-25
-9.89764e-24
1.88431e-24
-9.60313e-24
3.13105e-24
-7.88732e-24
3.3163e-24
-4.61792e-24
2.85841e-24
-4.7778e-25
1.82151e-24
3.06635e-24
3.4019e-25
4.72052e-24
-1.00212e-24
4.98404e-24
-1.94421e-24
3.63157e-24
-2.48091e-24
8.80204e-25
-2.33414e-24
-1.37028e-24
-1.4737e-24
-2.78152e-24
-3.30453e-25
-3.37121e-24
8.49049e-25
-2.67737e-24
1.85633e-24
-1.13855e-24
2.29711e-24
4.11413e-25
2.13303e-24
1.79858e-24
1.61465e-24
2.93891e-24
7.99878e-25
3.15689e-24
-1.7757e-25
2.45697e-24
-9.82291e-25
1.31631e-24
-1.53224e-24
-4.10261e-25
-1.8157e-24
-2.40805e-24
-1.63087e-24
-3.79075e-24
-9.85144e-25
-4.50563e-24
-9.75618e-26
-4.40203e-24
9.13387e-25
-3.14544e-24
1.88857e-24
-9.89007e-25
2.46395e-24
1.55185e-24
2.50347e-24
3.77472e-24
2.0689e-24
5.6642e-24
1.1669e-24
5.88659e-24
4.26912e-26
4.67508e-24
-1.00481e-24
2.3973e-24
-1.6729e-24
-1.12419e-24
-1.92216e-24
-3.74647e-24
-1.74743e-24
-6.03037e-24
-1.0549e-24
-5.83475e-24
-3.01391e-25
-3.95513e-24
4.52473e-25
-1.776e-24
1.04849e-24
1.94468e-24
1.14843e-24
3.36315e-24
8.91297e-25
4.11708e-24
4.74067e-25
2.62984e-24
7.88418e-25
-6.89652e-24
-3.79753e-22
-2.97621e-24
-3.58842e-23
1.5225e-24
-3.9373e-23
4.22777e-24
-2.01696e-23
4.79838e-24
-2.01011e-23
3.7706e-24
-1.14813e-23
2.75466e-24
-2.33154e-24
1.37578e-24
8.34746e-24
-4.59332e-25
1.43837e-23
-2.04796e-24
1.77023e-23
-3.38837e-24
1.60679e-23
-4.6419e-24
1.03002e-23
-4.95211e-24
3.54374e-24
-4.03606e-24
-2.47039e-24
-2.45341e-24
-8.28635e-24
-4.08893e-25
-1.08182e-23
1.78927e-24
-1.06575e-23
3.18483e-24
-8.88796e-24
3.47394e-24
-5.34462e-24
3.08066e-24
-7.66795e-25
2.05101e-24
3.20015e-24
5.09291e-25
5.09402e-24
-9.29814e-25
5.46118e-24
-1.97988e-24
4.01636e-24
-2.62277e-24
9.92114e-25
-2.54045e-24
-1.49112e-24
-1.67967e-24
-3.06043e-24
-4.88208e-25
-3.72277e-24
7.75471e-25
-2.95625e-24
1.88451e-24
-1.24737e-24
2.40692e-24
4.75054e-25
2.28713e-24
2.01661e-24
1.78065e-24
3.28647e-24
9.40582e-25
3.52653e-24
-9.55981e-26
2.74422e-24
-9.68702e-25
1.47385e-24
-1.58682e-24
-4.54929e-25
-1.93175e-24
-2.68895e-24
-1.77961e-24
-4.24225e-24
-1.12884e-24
-5.05701e-24
-2.05806e-25
-4.96051e-24
8.70002e-25
-3.57519e-24
1.93146e-24
-1.16992e-24
2.58746e-24
1.67406e-24
2.68401e-24
4.18777e-24
2.27353e-24
6.341e-24
1.35128e-24
6.63433e-24
1.64369e-25
5.3288e-24
-9.68168e-25
2.7907e-24
-1.71921e-24
-1.14332e-24
-2.03734e-24
-4.13459e-24
-1.89666e-24
-6.75987e-24
-1.1922e-24
-6.6063e-24
-3.99918e-25
-4.58498e-24
4.15358e-25
-2.13169e-24
1.07464e-24
2.0508e-24
1.21565e-24
3.71415e-24
9.68202e-25
4.64776e-24
5.29186e-25
3.03083e-24
1.05483e-24
-7.39358e-24
-3.70869e-22
-3.48828e-24
-3.83666e-23
1.24056e-24
-4.27753e-23
4.21905e-24
-2.2291e-23
4.96326e-24
-2.26289e-23
4.01503e-24
-1.34255e-23
3.05155e-24
-3.42011e-24
1.65965e-24
8.44463e-24
-2.67908e-25
1.53437e-23
-1.97928e-24
1.93652e-23
-3.46613e-24
1.78965e-23
-4.88964e-24
1.1771e-23
-5.32764e-24
4.43793e-24
-4.4537e-24
-2.21929e-24
-2.8461e-24
-8.76928e-24
-7.05332e-25
-1.17386e-23
1.65271e-24
-1.17536e-23
3.20464e-24
-9.95717e-24
3.61153e-24
-6.14707e-24
3.29937e-24
-1.1168e-24
2.29239e-24
3.29983e-24
7.00364e-25
5.45832e-24
-8.33314e-25
5.95088e-24
-1.99643e-24
4.42212e-24
-2.75618e-24
1.11842e-24
-2.75127e-24
-1.60841e-24
-1.9015e-24
-3.34845e-24
-6.68767e-25
-4.0929e-24
6.77819e-25
-3.25532e-24
1.89281e-24
-1.37038e-24
2.50521e-24
5.34052e-25
2.43958e-24
2.24061e-24
1.95409e-24
3.65116e-24
1.09535e-24
3.91921e-24
3.20808e-27
3.05463e-24
-9.39568e-25
1.65117e-24
-1.63052e-24
-4.89247e-25
-2.04403e-24
-2.97312e-24
-1.93288e-24
-4.71085e-24
-1.28471e-24
-5.63854e-24
-3.31728e-25
-5.55918e-24
8.06874e-25
-4.04799e-24
1.95679e-24
-1.38672e-24
2.69993e-24
1.77515e-24
2.86294e-24
4.60185e-24
2.48676e-24
7.04475e-24