/*--------------------------------*- C++ -*----------------------------------*\
| =========                 |                                                 |
| \\      /  F ield         | foam-extend: Open Source CFD                    |
|  \\    /   O peration     | Version:     4.0                                |
|   \\  /    A nd           | Web:         http://www.foam-extend.org         |
|    \\/     M anipulation  |                                                 |
\*---------------------------------------------------------------------------*/
FoamFile
{
    version     2.0;
    format      ascii;
    class       volVectorField;
    location    "6";
    object      U;
}
// * * * * * * * * * * * * * * * * * * * * * * * * * * * * * * * * * * * * * //

dimensions      [0 1 -1 0 0 0 0];

internalField   nonuniform List<vector> 
6960
(
(-2.87744e-11 -7.20074e-10 0)
(-1.52907e-11 -6.57132e-13 0)
(1.23632e-11 -3.03735e-13 0)
(1.28575e-11 -1.7749e-13 0)
(1.34976e-11 -7.85071e-14 0)
(6.87487e-12 8.7377e-15 0)
(2.12899e-12 9.56204e-14 0)
(-1.91729e-12 1.51767e-13 0)
(-5.08893e-12 1.70712e-13 0)
(-8.35784e-12 1.54635e-13 0)
(-9.08181e-12 1.07349e-13 0)
(-9.43263e-12 3.25402e-14 0)
(-8.5184e-12 -3.57449e-14 0)
(-5.03258e-12 -8.58325e-14 0)
(-2.55273e-13 -1.23173e-13 0)
(4.17159e-12 -1.29242e-13 0)
(7.88305e-12 -1.065e-13 0)
(9.8997e-12 -7.38335e-14 0)
(8.90249e-12 -2.99684e-14 0)
(5.92491e-12 2.03517e-14 0)
(2.63453e-12 6.21827e-14 0)
(-1.15633e-12 8.4597e-14 0)
(-4.36801e-12 9.00312e-14 0)
(-5.83695e-12 7.42691e-14 0)
(-5.90408e-12 3.73955e-14 0)
(-4.76209e-12 -2.17796e-15 0)
(-2.16593e-12 -3.63845e-14 0)
(1.04156e-12 -6.20971e-14 0)
(3.5908e-12 -6.94918e-14 0)
(5.36975e-12 -5.88506e-14 0)
(5.99933e-12 -3.90353e-14 0)
(5.00071e-12 -1.21957e-14 0)
(3.15009e-12 1.83924e-14 0)
(1.13289e-12 4.16647e-14 0)
(-1.06366e-12 5.41032e-14 0)
(-2.91026e-12 5.67204e-14 0)
(-3.76232e-12 4.54911e-14 0)
(-3.92868e-12 2.18726e-14 0)
(-3.28592e-12 -4.54363e-15 0)
(-1.56829e-12 -2.9997e-14 0)
(6.73093e-13 -5.1417e-14 0)
(2.87581e-12 -5.93216e-14 0)
(4.67866e-12 -5.36018e-14 0)
(5.79678e-12 -3.62822e-14 0)
(5.29872e-12 -1.1232e-14 0)
(3.8358e-12 1.72061e-14 0)
(1.64656e-12 4.06296e-14 0)
(-1.05096e-12 4.93555e-14 0)
(-2.90336e-12 5.07585e-14 0)
(-4.40062e-12 3.58007e-14 0)
(-4.046e-12 1.61483e-14 0)
(-3.39709e-12 -4.24397e-15 0)
(-2.01664e-12 -2.06181e-14 0)
(3.69653e-13 -2.39079e-14 0)
(1.20527e-12 -2.44604e-14 0)
(2.74614e-12 -9.86384e-15 0)
(2.72942e-12 3.95477e-15 0)
(1.87024e-12 9.88562e-15 0)
(7.91798e-13 1.29165e-14 0)
(9.25729e-14 1.53452e-15 0)
(-6.31993e-11 -1.50055e-09 0)
(-2.58766e-11 -2.01433e-12 0)
(3.36128e-11 -1.2425e-12 0)
(3.70383e-11 -6.8612e-13 0)
(4.01343e-11 -4.18435e-13 0)
(2.11667e-11 -9.91273e-14 0)
(7.63794e-12 2.44241e-13 0)
(-4.07547e-12 5.0397e-13 0)
(-1.38608e-11 6.18144e-13 0)
(-2.36938e-11 5.96561e-13 0)
(-2.5974e-11 4.36242e-13 0)
(-2.77319e-11 1.65709e-13 0)
(-2.57806e-11 -8.20374e-14 0)
(-1.59789e-11 -2.67685e-13 0)
(-2.31546e-12 -4.12439e-13 0)
(1.05985e-11 -4.42202e-13 0)
(2.2122e-11 -3.76541e-13 0)
(2.88025e-11 -2.77802e-13 0)
(2.62602e-11 -1.29947e-13 0)
(1.78874e-11 4.91362e-14 0)
(8.37857e-12 2.00038e-13 0)
(-2.9778e-12 2.82502e-13 0)
(-1.25945e-11 3.04419e-13 0)
(-1.69905e-11 2.4735e-13 0)
(-1.74034e-11 1.16168e-13 0)
(-1.42546e-11 -1.71377e-14 0)
(-6.63368e-12 -1.28425e-13 0)
(2.75536e-12 -2.09072e-13 0)
(1.02456e-11 -2.24539e-13 0)
(1.56899e-11 -1.81508e-13 0)
(1.76808e-11 -1.11988e-13 0)
(1.47277e-11 -1.97932e-14 0)
(9.31327e-12 8.28929e-14 0)
(3.35096e-12 1.5574e-13 0)
(-3.26394e-12 1.88672e-13 0)
(-8.73439e-12 1.86746e-13 0)
(-1.12053e-11 1.35267e-13 0)
(-1.17491e-11 4.42224e-14 0)
(-9.85954e-12 -4.86382e-14 0)
(-4.71726e-12 -1.32824e-13 0)
(1.92323e-12 -1.95938e-13 0)
(8.43824e-12 -2.07005e-13 0)
(1.39151e-11 -1.69864e-13 0)
(1.73076e-11 -9.56392e-14 0)
(1.58506e-11 -5.30679e-16 0)
(1.15762e-11 1.0161e-13 0)
(5.01366e-12 1.73014e-13 0)
(-3.06622e-12 1.90837e-13 0)
(-8.7833e-12 1.75754e-13 0)
(-1.32273e-11 1.01589e-13 0)
(-1.22326e-11 2.01339e-14 0)
(-1.03713e-11 -6.25471e-14 0)
(-6.02463e-12 -1.07544e-13 0)
(9.83741e-13 -1.05163e-13 0)
(3.59003e-12 -8.46178e-14 0)
(8.21347e-12 -1.15468e-14 0)
(8.15378e-12 3.9107e-14 0)
(5.66544e-12 5.96506e-14 0)
(2.39569e-12 5.45061e-14 0)
(3.39302e-13 -1.5825e-15 0)
(-9.51969e-11 -1.46789e-09 0)
(-3.66687e-11 -3.71343e-12 0)
(5.20519e-11 -2.87442e-12 0)
(6.0006e-11 -1.47933e-12 0)
(6.65379e-11 -1.06719e-12 0)
(3.60137e-11 -3.83186e-13 0)
(1.42677e-11 3.69664e-13 0)
(-4.794e-12 1.001e-12 0)
(-2.14169e-11 1.29994e-12 0)
(-3.79281e-11 1.31142e-12 0)
(-4.19682e-11 9.9556e-13 0)
(-4.57287e-11 4.26714e-13 0)
(-4.33891e-11 -1.0347e-13 0)
(-2.77953e-11 -5.07162e-13 0)
(-5.71651e-12 -8.32758e-13 0)
(1.54562e-11 -9.08504e-13 0)
(3.5118e-11 -7.86323e-13 0)
(4.69919e-11 -5.95209e-13 0)
(4.33271e-11 -2.95835e-13 0)
(3.00437e-11 7.37665e-14 0)
(1.46339e-11 3.82731e-13 0)
(-4.24992e-12 5.4589e-13 0)
(-2.02986e-11 5.86675e-13 0)
(-2.76982e-11 4.66589e-13 0)
(-2.86969e-11 1.99167e-13 0)
(-2.38238e-11 -5.76836e-14 0)
(-1.13528e-11 -2.61374e-13 0)
(4.04709e-12 -4.02406e-13 0)
(1.63996e-11 -4.1222e-13 0)
(2.56378e-11 -3.12353e-13 0)
(2.91326e-11 -1.72491e-13 0)
(2.43239e-11 3.86391e-15 0)
(1.54856e-11 1.95013e-13 0)
(5.66281e-12 3.18647e-13 0)
(-5.39098e-12 3.59101e-13 0)
(-1.44713e-11 3.33571e-13 0)
(-1.85515e-11 2.12154e-13 0)
(-1.95551e-11 1.9872e-14 0)
(-1.64966e-11 -1.60172e-13 0)
(-7.97436e-12 -3.11661e-13 0)
(2.99491e-12 -4.10317e-13 0)
(1.37686e-11 -3.98404e-13 0)
(2.29997e-11 -2.90175e-13 0)
(2.87462e-11 -1.16963e-13 0)
(2.64202e-11 8.20237e-14 0)
(1.94647e-11 2.84057e-13 0)
(8.56733e-12 3.99038e-13 0)
(-4.88105e-12 4.00907e-13 0)
(-1.46055e-11 3.27717e-13 0)
(-2.20135e-11 1.37926e-13 0)
(-2.04918e-11 -4.4115e-14 0)
(-1.75244e-11 -2.21137e-13 0)
(-1.0101e-11 -2.80266e-13 0)
(1.42275e-12 -2.39752e-13 0)
(5.89731e-12 -1.56622e-13 0)
(1.36336e-11 3.096e-14 0)
(1.35652e-11 1.33858e-13 0)
(9.53897e-12 1.70004e-13 0)
(4.06017e-12 1.26447e-13 0)
(6.56186e-13 -1.74164e-14 0)
(-1.28217e-10 -1.3686e-09 0)
(-5.0934e-11 -6.06698e-12 0)
(6.79536e-11 -5.14843e-12 0)
(8.16933e-11 -2.53483e-12 0)
(9.24456e-11 -2.00146e-12 0)
(5.12268e-11 -8.15497e-13 0)
(2.18327e-11 4.86731e-13 0)
(-4.2392e-12 1.65169e-12 0)
(-2.77915e-11 2.21411e-12 0)
(-5.10808e-11 2.29323e-12 0)
(-5.71475e-11 1.77717e-12 0)
(-6.33998e-11 8.07089e-13 0)
(-6.1219e-11 -1.09438e-13 0)
(-4.03342e-11 -8.11907e-13 0)
(-1.02639e-11 -1.3895e-12 0)
(1.8942e-11 -1.52804e-12 0)
(4.69125e-11 -1.32833e-12 0)
(6.43645e-11 -1.01115e-12 0)
(6.00016e-11 -5.09379e-13 0)
(4.23049e-11 1.10262e-13 0)
(2.13605e-11 6.19984e-13 0)
(-4.89147e-12 8.74637e-13 0)
(-2.73533e-11 9.27543e-13 0)
(-3.7871e-11 7.1723e-13 0)
(-3.97194e-11 2.70315e-13 0)
(-3.34402e-11 -1.36454e-13 0)
(-1.63691e-11 -4.40945e-13 0)
(4.84139e-12 -6.39215e-13 0)
(2.19802e-11 -6.21799e-13 0)
(3.51134e-11 -4.35253e-13 0)
(4.02743e-11 -2.02843e-13 0)
(3.3786e-11 7.32245e-14 0)
(2.1716e-11 3.6243e-13 0)
(8.16669e-12 5.29578e-13 0)
(-7.28459e-12 5.56134e-13 0)
(-1.99621e-11 4.81823e-13 0)
(-2.56881e-11 2.58317e-13 0)
(-2.72645e-11 -6.78871e-14 0)
(-2.3168e-11 -3.51422e-13 0)
(-1.13868e-11 -5.71809e-13 0)
(3.79346e-12 -6.91704e-13 0)
(1.87496e-11 -6.23174e-13 0)
(3.17797e-11 -3.98279e-13 0)
(3.99691e-11 -8.09713e-14 0)
(3.69257e-11 2.54168e-13 0)
(2.7474e-11 5.77759e-13 0)
(1.23686e-11 7.23557e-13 0)
(-6.36183e-12 6.74951e-13 0)
(-2.01737e-11 4.93434e-13 0)
(-3.05823e-11 1.24527e-13 0)
(-2.86978e-11 -1.97549e-13 0)
(-2.47686e-11 -4.98913e-13 0)
(-1.428e-11 -5.51256e-13 0)
(1.62808e-12 -4.29578e-13 0)
(8.04622e-12 -2.3825e-13 0)
(1.89127e-11 1.2757e-13 0)
(1.89103e-11 2.95951e-13 0)
(1.34632e-11 3.48726e-13 0)
(5.80074e-12 2.31059e-13 0)
(1.04891e-12 -4.36518e-14 0)
(-1.6045e-10 -1.34802e-09 0)
(-6.68232e-11 -9.16013e-12 0)
(8.13817e-11 -8.07398e-12 0)
(1.01999e-10 -3.87369e-12 0)
(1.17684e-10 -3.22083e-12 0)
(6.66934e-11 -1.38327e-12 0)
(3.02493e-11 6.12364e-13 0)
(-2.46279e-12 2.47518e-12 0)
(-3.2962e-11 3.3786e-12 0)
(-6.31142e-11 3.55643e-12 0)
(-7.1504e-11 2.7902e-12 0)
(-8.06989e-11 1.30962e-12 0)
(-7.91953e-11 -1.04541e-13 0)
(-5.35323e-11 -1.19227e-12 0)
(-1.58951e-11 -2.09745e-12 0)
(2.1103e-11 -2.31601e-12 0)
(5.74755e-11 -2.01494e-12 0)
(8.08289e-11 -1.53233e-12 0)
(7.62055e-11 -7.6978e-13 0)
(5.46176e-11 1.65696e-13 0)
(2.85455e-11 9.2362e-13 0)
(-4.84579e-12 1.28192e-12 0)
(-3.36735e-11 1.33829e-12 0)
(-4.74416e-11 1.00623e-12 0)
(-5.04226e-11 3.308e-13 0)
(-4.30846e-11 -2.57507e-13 0)
(-2.17115e-11 -6.75031e-13 0)
(5.08455e-12 -9.28544e-13 0)
(2.69288e-11 -8.60853e-13 0)
(4.40462e-11 -5.54638e-13 0)
(5.10502e-11 -2.03324e-13 0)
(4.31026e-11 1.91715e-13 0)
(2.80271e-11 5.90961e-13 0)
(1.09167e-11 7.95197e-13 0)
(-8.85698e-12 7.85799e-13 0)
(-2.51174e-11 6.35614e-13 0)
(-3.25488e-11 2.75271e-13 0)
(-3.48311e-11 -2.20339e-13 0)
(-2.98596e-11 -6.26348e-13 0)
(-1.49843e-11 -9.19235e-13 0)
(4.25926e-12 -1.04702e-12 0)
(2.33061e-11 -8.87695e-13 0)
(4.01633e-11 -4.98761e-13 0)
(5.08922e-11 1.11027e-14 0)
(4.73205e-11 5.18259e-13 0)
(3.55932e-11 9.8843e-13 0)
(1.64573e-11 1.15443e-12 0)
(-7.42747e-12 1.02015e-12 0)
(-2.53772e-11 6.78558e-13 0)
(-3.8834e-11 6.2053e-14 0)
(-3.67833e-11 -4.43213e-13 0)
(-3.20632e-11 -9.02451e-13 0)
(-1.85831e-11 -9.29668e-13 0)
(1.55873e-12 -6.81049e-13 0)
(9.98614e-12 -3.35648e-13 0)
(2.3995e-11 2.77589e-13 0)
(2.41565e-11 5.27092e-13 0)
(1.74243e-11 6.00072e-13 0)
(7.62617e-12 3.72122e-13 0)
(1.52296e-12 -7.60691e-14 0)
(-1.91032e-10 -1.34953e-09 0)
(-8.34785e-11 -1.29109e-11 0)
(9.23343e-11 -1.16624e-11 0)
(1.20811e-10 -5.50741e-12 0)
(1.42103e-10 -4.73683e-12 0)
(8.23183e-11 -2.09889e-12 0)
(3.94597e-11 7.36321e-13 0)
(5.14929e-13 3.46502e-12 0)
(-3.68909e-11 4.79198e-12 0)
(-7.3972e-11 5.10539e-12 0)
(-8.49975e-11 4.04276e-12 0)
(-9.75683e-11 1.94336e-12 0)
(-9.72543e-11 -8.0655e-14 0)
(-6.73492e-11 -1.64295e-12 0)
(-2.25867e-11 -2.95552e-12 0)
(2.19392e-11 -3.27451e-12 0)
(6.6754e-11 -2.85065e-12 0)
(9.62956e-11 -2.16447e-12 0)
(9.18653e-11 -1.08229e-12 0)
(6.69358e-11 2.36673e-13 0)
(3.61805e-11 1.29258e-12 0)
(-4.06754e-12 1.76852e-12 0)
(-3.91894e-11 1.82094e-12 0)
(-5.63499e-11 1.33551e-12 0)
(-6.07624e-11 3.81261e-13 0)
(-5.27389e-11 -4.21461e-13 0)
(-2.74004e-11 -9.65379e-13 0)
(4.732e-12 -1.27261e-12 0)
(3.11927e-11 -1.13106e-12 0)
(5.23756e-11 -6.71154e-13 0)
(6.14119e-11 -1.73482e-13 0)
(5.22582e-11 3.60723e-13 0)
(3.44312e-11 8.82595e-13 0)
(1.39507e-11 1.11743e-12 0)
(-1.00453e-11 1.04954e-12 0)
(-2.98713e-11 7.95739e-13 0)
(-3.90825e-11 2.62817e-13 0)
(-4.22191e-11 -4.3871e-13 0)
(-3.6561e-11 -9.86962e-13 0)
(-1.87894e-11 -1.35657e-12 0)
(4.34553e-12 -1.47916e-12 0)
(2.73771e-11 -1.19453e-12 0)
(4.80785e-11 -5.93156e-13 0)
(6.14503e-11 1.59121e-13 0)
(5.75674e-11 8.75952e-13 0)
(4.3815e-11 1.51955e-12 0)
(2.08645e-11 1.69613e-12 0)
(-8.01524e-12 1.44118e-12 0)
(-3.01339e-11 8.86665e-13 0)
(-4.66932e-11 -4.81449e-14 0)
(-4.46982e-11 -7.82556e-13 0)
(-3.93811e-11 -1.43605e-12 0)
(-2.30269e-11 -1.4211e-12 0)
(1.18013e-12 -9.99947e-13 0)
(1.1676e-11 -4.52796e-13 0)
(2.88363e-11 4.80047e-13 0)
(2.92769e-11 8.28961e-13 0)
(2.14116e-11 9.28143e-13 0)
(9.54247e-12 5.53419e-13 0)
(2.08356e-12 -1.10098e-13 0)
(-2.19946e-10 -1.34546e-09 0)
(-1.00899e-10 -1.72609e-11 0)
(1.00784e-10 -1.59149e-11 0)
(1.3801e-10 -7.44828e-12 0)
(1.6556e-10 -6.56659e-12 0)
(9.80085e-11 -2.98214e-12 0)
(4.94114e-11 8.41082e-13 0)
(4.68213e-12 4.60928e-12 0)
(-3.95378e-11 6.44984e-12 0)
(-8.35915e-11 6.94463e-12 0)
(-9.7573e-11 5.5455e-12 0)
(-1.13942e-10 2.7213e-12 0)
(-1.15334e-10 -2.53846e-14 0)
(-8.17502e-11 -2.15507e-12 0)
(-3.03292e-11 -3.96029e-12 0)
(2.14319e-11 -4.40491e-12 0)
(7.46857e-11 -3.84063e-12 0)
(1.10675e-10 -2.91507e-12 0)
(1.06906e-10 -1.45463e-12 0)
(7.92133e-11 3.17311e-13 0)
(4.4256e-11 1.72378e-12 0)
(-2.51941e-12 2.33396e-12 0)
(-4.38399e-11 2.37724e-12 0)
(-6.45388e-11 1.70757e-12 0)
(-7.06948e-11 4.23454e-13 0)
(-6.23832e-11 -6.27713e-13 0)
(-3.34503e-11 -1.31275e-12 0)
(3.74509e-12 -1.67319e-12 0)
(3.47225e-11 -1.43434e-12 0)
(6.00452e-11 -7.86216e-13 0)
(7.13128e-11 -1.13943e-13 0)
(6.12334e-11 5.80554e-13 0)
(4.09342e-11 1.23861e-12 0)
(1.72978e-11 1.49808e-12 0)
(-1.0799e-11 1.34926e-12 0)
(-3.41687e-11 9.63998e-13 0)
(-4.52442e-11 2.2203e-13 0)
(-4.9397e-11 -7.23044e-13 0)
(-4.32618e-11 -1.43451e-12 0)
(-2.28199e-11 -1.88631e-12 0)
(4.01238e-12 -1.99161e-12 0)
(3.0909e-11 -1.54747e-12 0)
(5.54622e-11 -6.84524e-13 0)
(7.15862e-11 3.61336e-13 0)
(6.76327e-11 1.32766e-12 0)
(5.21318e-11 2.1739e-12 0)
(2.56161e-11 2.35324e-12 0)
(-8.07182e-12 1.94368e-12 0)
(-3.43747e-11 1.12273e-12 0)
(-5.40954e-11 -2.0268e-13 0)
(-5.23997e-11 -1.21537e-12 0)
(-4.67002e-11 -2.10276e-12 0)
(-2.76247e-11 -2.03062e-12 0)
(4.61317e-13 -1.39285e-12 0)
(1.30791e-11 -5.94556e-13 0)
(3.33974e-11 7.32551e-13 0)
(3.42465e-11 1.20256e-12 0)
(2.54154e-11 1.33702e-12 0)
(1.1554e-11 7.79358e-13 0)
(2.73553e-12 -1.40182e-13 0)
(-2.47248e-10 -1.33661e-09 0)
(-1.19162e-10 -2.21783e-11 0)
(1.06697e-10 -2.08182e-11 0)
(1.53475e-10 -9.70673e-12 0)
(1.87916e-10 -8.72964e-12 0)
(1.13666e-10 -4.05849e-12 0)
(6.00484e-11 9.01975e-13 0)
(1.0026e-11 5.8888e-12 0)
(-4.08645e-11 8.34218e-12 0)
(-9.19081e-11 9.07567e-12 0)
(-1.09167e-10 7.30903e-12 0)
(-1.29749e-10 3.65902e-12 0)
(-1.33368e-10 7.7881e-14 0)
(-9.66991e-11 -2.71497e-12 0)
(-3.91166e-11 -5.104e-12 0)
(1.95556e-11 -5.70551e-12 0)
(8.12043e-11 -4.98874e-12 0)
(1.23878e-10 -3.79191e-12 0)
(1.21252e-10 -1.89623e-12 0)
(9.14004e-11 3.99138e-13 0)
(5.27578e-11 2.21132e-12 0)
(-1.71475e-13 2.97535e-12 0)
(-4.75705e-11 3.00733e-12 0)
(-7.19533e-11 2.12434e-12 0)
(-8.01753e-11 4.59572e-13 0)
(-7.19947e-11 -8.74527e-13 0)
(-3.98703e-11 -1.71645e-12 0)
(2.09026e-12 -2.13067e-12 0)
(3.74718e-11 -1.77162e-12 0)
(6.7001e-11 -9.00733e-13 0)
(8.07072e-11 -2.532e-14 0)
(7.00059e-11 8.51101e-13 0)
(4.7537e-11 1.65964e-12 0)
(2.09807e-11 1.93825e-12 0)
(-1.10751e-11 1.68634e-12 0)
(-3.79607e-11 1.14192e-12 0)
(-5.09925e-11 1.54047e-13 0)
(-5.63345e-11 -1.07302e-12 0)
(-4.9951e-11 -1.96973e-12 0)
(-2.70896e-11 -2.51042e-12 0)
(3.22499e-12 -2.58751e-12 0)
(3.3853e-11 -1.95027e-12 0)
(6.22566e-11 -7.76288e-13 0)
(8.1246e-11 6.15334e-13 0)
(7.74828e-11 1.87299e-12 0)
(6.05345e-11 2.9535e-12 0)
(3.07331e-11 3.12984e-12 0)
(-7.55027e-12 2.53318e-12 0)
(-3.80376e-11 1.39199e-12 0)
(-6.0981e-11 -3.97427e-13 0)
(-5.98469e-11 -1.74072e-12 0)
(-5.39996e-11 -2.90492e-12 0)
(-3.23868e-11 -2.7631e-12 0)
(-6.25893e-13 -1.86673e-12 0)
(1.41607e-11 -7.66457e-13 0)
(3.76412e-11 1.03169e-12 0)
(3.90405e-11 1.64817e-12 0)
(2.94257e-11 1.83035e-12 0)
(1.36634e-11 1.05428e-12 0)
(3.48324e-12 -1.60396e-13 0)
(-2.72922e-10 -1.32622e-09 0)
(-1.38262e-10 -2.76272e-11 0)
(1.10038e-10 -2.63527e-11 0)
(1.67081e-10 -1.22908e-11 0)
(2.09026e-10 -1.12452e-11 0)
(1.29186e-10 -5.3554e-12 0)
(7.13075e-11 8.90904e-13 0)
(1.65279e-11 7.28014e-12 0)
(-4.08384e-11 1.04551e-11 0)
(-9.88587e-11 1.14973e-11 0)
(-1.1971e-10 9.34304e-12 0)
(-1.4491e-10 4.77292e-12 0)
(-1.51286e-10 2.47851e-13 0)
(-1.12155e-10 -3.30641e-12 0)
(-4.89411e-11 -6.37633e-12 0)
(1.62834e-11 -7.17281e-12 0)
(8.62428e-11 -6.29803e-12 0)
(1.35812e-10 -4.80287e-12 0)
(1.34822e-10 -2.41734e-12 0)
(1.03442e-10 4.72425e-13 0)
(6.16656e-11 2.74803e-12 0)
(2.99879e-12 3.6888e-12 0)
(-5.03321e-11 3.71075e-12 0)
(-7.854e-11 2.5876e-12 0)
(-8.9158e-11 4.92077e-13 0)
(-8.1547e-11 -1.15973e-12 0)
(-4.66637e-11 -2.17536e-12 0)
(-2.6108e-13 -2.6451e-12 0)
(3.93973e-11 -2.14371e-12 0)
(7.31908e-11 -1.01577e-12 0)
(8.95485e-11 9.14979e-14 0)
(7.85499e-11 1.17192e-12 0)
(5.42355e-11 2.14598e-12 0)
(2.50169e-11 2.43888e-12 0)
(-1.08367e-11 2.06217e-12 0)
(-4.1203e-11 1.33126e-12 0)
(-5.62877e-11 6.04272e-14 0)
(-6.30013e-11 -1.48777e-12 0)
(-5.66153e-11 -2.59285e-12 0)
(-3.16088e-11 -3.23054e-12 0)
(1.95293e-12 -3.26998e-12 0)
(3.61641e-11 -2.40707e-12 0)
(6.8407e-11 -8.72593e-13 0)
(9.03775e-11 9.1776e-13 0)
(8.70834e-11 2.51066e-12 0)
(6.90112e-11 3.85962e-12 0)
(3.6232e-11 4.02974e-12 0)
(-6.40887e-12 3.21545e-12 0)
(-4.10656e-11 1.70037e-12 0)
(-6.72939e-11 -6.27237e-13 0)
(-6.69998e-11 -2.35676e-12 0)
(-6.12577e-11 -3.84413e-12 0)
(-3.73205e-11 -3.62325e-12 0)
(-2.10708e-12 -2.42897e-12 0)
(1.48876e-11 -9.74805e-13 0)
(4.15316e-11 1.37298e-12 0)
(4.36335e-11 2.16529e-12 0)
(3.34312e-11 2.41137e-12 0)
(1.58724e-11 1.38267e-12 0)
(4.33048e-12 -1.64118e-13 0)
(-2.96941e-10 -1.3148e-09 0)
(-1.5817e-10 -3.35605e-11 0)
(1.10779e-10 -3.24947e-11 0)
(1.78706e-10 -1.52062e-11 0)
(2.28746e-10 -1.41315e-11 0)
(1.44456e-10 -6.90156e-12 0)
(8.31151e-11 7.77227e-13 0)
(2.41599e-11 8.75646e-12 0)
(-3.94346e-11 1.27713e-11 0)
(-1.04384e-10 1.42058e-11 0)
(-1.29133e-10 1.16562e-11 0)
(-1.59343e-10 6.07998e-12 0)
(-1.69011e-10 5.04886e-13 0)
(-1.28071e-10 -3.911e-12 0)
(-5.97898e-11 -7.76492e-12 0)
(1.1591e-11 -8.80187e-12 0)
(8.97358e-11 -7.77102e-12 0)
(1.46388e-10 -5.95598e-12 0)
(1.47533e-10 -3.0289e-12 0)
(1.15278e-10 5.26463e-13 0)
(7.0952e-11 3.32588e-12 0)
(7.006e-12 4.46983e-12 0)
(-5.20818e-11 4.4868e-12 0)
(-8.42472e-11 3.09927e-12 0)
(-9.75952e-11 5.2377e-13 0)
(-9.10094e-11 -1.48078e-12 0)
(-5.38283e-11 -2.68819e-12 0)
(-3.33229e-12 -3.21654e-12 0)
(4.0459e-11 -2.55169e-12 0)
(7.85639e-11 -1.1328e-12 0)
(9.77897e-11 2.35192e-13 0)
(8.68362e-11 1.54219e-12 0)
(6.10212e-11 2.69773e-12 0)
(2.94188e-11 3.00092e-12 0)
(-1.00518e-11 2.4784e-12 0)
(-4.38548e-11 1.5342e-12 0)
(-6.10915e-11 -5.66875e-14 0)
(-6.93668e-11 -1.96577e-12 0)
(-6.32393e-11 -3.30357e-12 0)
(-3.63835e-11 -4.04805e-12 0)
(1.70109e-13 -4.04221e-12 0)
(3.7801e-11 -2.92252e-12 0)
(7.38613e-11 -9.78459e-13 0)
(9.89296e-11 1.26422e-12 0)
(9.6398e-11 3.23838e-12 0)
(7.75464e-11 4.89284e-12 0)
(4.21249e-11 5.05659e-12 0)
(-4.61084e-12 3.99668e-12 0)
(-4.34059e-11 2.05466e-12 0)
(-7.29798e-11 -8.85743e-13 0)
(-7.38177e-11 -3.06051e-12 0)
(-6.84512e-11 -4.9211e-12 0)
(-4.24302e-11 -4.61555e-12 0)
(-4.0051e-12 -3.08739e-12 0)
(1.5228e-11 -1.22673e-12 0)
(4.50332e-11 1.75084e-12 0)
(4.79993e-11 2.75267e-12 0)
(3.74193e-11 3.083e-12 0)
(1.81806e-11 1.76926e-12 0)
(5.2804e-12 -1.43892e-13 0)
(-3.1929e-10 -1.30206e-09 0)
(-1.78856e-10 -3.99243e-11 0)
(1.08898e-10 -3.92147e-11 0)
(1.88229e-10 -1.84558e-11 0)
(2.46929e-10 -1.74058e-11 0)
(1.5935e-10 -8.72628e-12 0)
(9.5386e-11 5.28164e-13 0)
(3.28829e-11 1.02876e-11 0)
(-3.66377e-11 1.52703e-11 0)
(-1.08428e-10 1.7195e-11 0)
(-1.37361e-10 1.4256e-11 0)
(-1.72961e-10 7.59736e-12 0)
(-1.8646e-10 8.70719e-13 0)
(-1.4439e-10 -4.50844e-12 0)
(-7.16425e-11 -9.25542e-12 0)
(5.45906e-12 -1.05863e-11 0)
(9.16208e-11 -9.40952e-12 0)
(1.55513e-10 -7.25928e-12 0)
(1.59296e-10 -3.74242e-12 0)
(1.26839e-10 5.49693e-13 0)
(8.05813e-11 3.93599e-12 0)
(1.18563e-11 5.3134e-12 0)
(-5.27826e-11 5.33458e-12 0)
(-8.90254e-11 3.66131e-12 0)
(-1.05438e-10 5.57744e-13 0)
(-1.00347e-10 -1.83491e-12 0)
(-6.13556e-11 -3.25353e-12 0)
(-7.14114e-12 -3.84519e-12 0)
(4.06205e-11 -2.99699e-12 0)
(8.30713e-11 -1.2538e-12 0)
(1.05383e-10 4.03996e-13 0)
(9.48323e-11 1.96078e-12 0)
(6.78808e-11 3.3148e-12 0)
(3.41935e-11 3.62537e-12 0)
(-8.69331e-12 2.93694e-12 0)
(-4.58788e-11 1.75338e-12 0)
(-6.53665e-11 -1.94544e-13 0)
(-7.53993e-11 -2.50483e-12 0)
(-6.98046e-11 -4.10105e-12 0)
(-4.14154e-11 -4.96403e-12 0)
(-2.14506e-12 -4.9075e-12 0)
(3.87262e-11 -3.50181e-12 0)
(7.85702e-11 -1.09981e-12 0)
(1.06851e-10 1.64921e-12 0)
(1.05388e-10 4.05289e-12 0)
(8.61209e-11 6.053e-12 0)
(4.84185e-11 6.21389e-12 0)
(-2.12448e-12 4.88345e-12 0)
(-4.50088e-11 2.46258e-12 0)
(-7.79856e-11 -1.16529e-12 0)
(-8.02585e-11 -3.84779e-12 0)
(-7.55543e-11 -6.1356e-12 0)
(-4.77165e-11 -5.74421e-12 0)
(-6.33981e-12 -3.85019e-12 0)
(1.51512e-11 -1.53022e-12 0)
(4.81108e-11 2.15855e-12 0)
(5.21104e-11 3.40823e-12 0)
(4.13755e-11 3.84784e-12 0)
(2.05866e-11 2.21907e-12 0)
(6.33533e-12 -9.13575e-14 0)
(-3.3997e-10 -1.28784e-09 0)
(-2.00291e-10 -4.66602e-11 0)
(1.04387e-10 -4.64773e-11 0)
(1.95533e-10 -2.20391e-11 0)
(2.63425e-10 -2.10833e-11 0)
(1.73737e-10 -1.08591e-11 0)
(1.08022e-10 1.09097e-13 0)
(4.26447e-11 1.18403e-11 0)
(-3.24438e-11 1.7928e-11 0)
(-1.10945e-10 2.04553e-11 0)
(-1.44326e-10 1.7148e-11 0)
(-1.85673e-10 9.34212e-12 0)
(-2.03543e-10 1.36823e-12 0)
(-1.61046e-10 -5.0766e-12 0)
(-8.44702e-11 -1.08314e-11 0)
(-2.12485e-12 -1.2518e-11 0)
(9.18399e-11 -1.12146e-11 0)
(1.63099e-10 -8.72063e-12 0)
(1.70021e-10 -4.56982e-12 0)
(1.38051e-10 5.29785e-13 0)
(9.05088e-11 4.56876e-12 0)
(1.75464e-11 6.21397e-12 0)
(-5.24045e-11 6.25294e-12 0)
(-9.28274e-11 4.27577e-12 0)
(-1.12636e-10 5.9735e-13 0)
(-1.09521e-10 -2.21907e-12 0)
(-6.92309e-11 -3.86996e-12 0)
(-1.16993e-11 -4.53137e-12 0)
(3.98498e-11 -3.48142e-12 0)
(8.66658e-11 -1.38126e-12 0)
(1.12279e-10 5.95666e-13 0)
(1.02502e-10 2.42619e-12 0)
(7.47958e-11 3.99696e-12 0)
(3.93428e-11 4.31333e-12 0)
(-6.73926e-12 3.44006e-12 0)
(-4.72407e-11 1.99196e-12 0)
(-6.90765e-11 -3.4975e-13 0)
(-8.1066e-11 -3.10208e-12 0)
(-7.62899e-11 -4.98392e-12 0)
(-4.67021e-11 -5.97928e-12 0)
(-5.00933e-12 -5.86924e-12 0)
(3.89063e-11 -4.15066e-12 0)
(8.24864e-11 -1.24351e-12 0)
(1.14092e-10 2.0661e-12 0)
(1.14013e-10 4.94981e-12 0)
(9.47109e-11 7.33915e-12 0)
(5.5114e-11 7.50488e-12 0)
(1.07652e-12 5.88277e-12 0)
(-4.58285e-11 2.93279e-12 0)
(-8.22599e-11 -1.45688e-12 0)
(-8.62786e-11 -4.71314e-12 0)
(-8.25385e-11 -7.48637e-12 0)
(-5.31767e-11 -7.01312e-12 0)
(-9.12771e-12 -4.72599e-12 0)
(1.46277e-11 -1.89413e-12 0)
(5.07293e-11 2.58819e-12 0)
(5.59381e-11 4.12897e-12 0)
(4.52834e-11 4.70799e-12 0)
(2.30868e-11 2.73736e-12 0)
(7.49675e-12 2.79054e-15 0)
(-3.58992e-10 -1.27214e-09 0)
(-2.22432e-10 -5.37059e-11 0)
(9.72491e-11 -5.42412e-11 0)
(2.00507e-10 -2.59522e-11 0)
(2.78083e-10 -2.51766e-11 0)
(1.87473e-10 -1.33291e-11 0)
(1.20912e-10 -5.1617e-13 0)
(5.33788e-11 1.33781e-11 0)
(-2.68618e-11 2.07167e-11 0)
(-1.11895e-10 2.39743e-11 0)
(-1.49957e-10 2.03358e-11 0)
(-1.97386e-10 1.13309e-11 0)
(-2.20163e-10 2.02127e-12 0)
(-1.77964e-10 -5.59156e-12 0)
(-9.82336e-11 -1.24745e-11 0)
(-1.11644e-11 -1.45874e-11 0)
(9.03415e-11 -1.31862e-11 0)
(1.69056e-10 -1.03476e-11 0)
(1.79612e-10 -5.52333e-12 0)
(1.48832e-10 4.5369e-13 0)
(1.0068e-10 5.21383e-12 0)
(2.40634e-11 7.16541e-12 0)
(-5.09251e-11 7.24049e-12 0)
(-9.56092e-11 4.94474e-12 0)
(-1.19137e-10 6.46189e-13 0)
(-1.18486e-10 -2.63002e-12 0)
(-7.74326e-11 -4.53603e-12 0)
(-1.70121e-11 -5.27564e-12 0)
(3.81195e-11 -4.00724e-12 0)
(8.93025e-11 -1.51822e-12 0)
(1.18428e-10 8.07448e-13 0)
(1.09806e-10 2.93654e-12 0)
(8.17429e-11 4.74379e-12 0)
(4.4863e-11 5.06597e-12 0)
(-4.17279e-12 3.99036e-12 0)
(-4.79099e-11 2.25362e-12 0)
(-7.21861e-11 -5.18242e-13 0)
(-8.6333e-11 -3.75393e-12 0)
(-8.26705e-11 -5.95019e-12 0)
(-5.22361e-11 -7.09431e-12 0)
(-8.43424e-12 -6.9309e-12 0)
(3.83122e-11 -4.87534e-12 0)
(8.55659e-11 -1.41738e-12 0)
(1.20602e-10 2.50704e-12 0)
(1.22229e-10 5.92363e-12 0)
(1.03288e-10 8.74946e-12 0)
(6.22068e-11 8.93255e-12 0)
(5.01267e-12 7.00202e-12 0)
(-4.58231e-11 3.47494e-12 0)
(-8.57526e-11 -1.7501e-12 0)
(-9.1833e-11 -5.64972e-12 0)
(-8.93716e-11 -8.97102e-12 0)
(-5.88035e-11 -8.42575e-12 0)
(-1.23815e-11 -5.72374e-12 0)
(1.363e-11 -2.3282e-12 0)
(5.28541e-11 3.03055e-12 0)
(5.94522e-11 4.91088e-12 0)
(4.91243e-11 5.66507e-12 0)
(2.56758e-11 3.32959e-12 0)
(8.76509e-12 1.48838e-13 0)
(-3.76374e-10 -1.25496e-09 0)
(-2.4523e-10 -6.09946e-11 0)
(8.75026e-11 -6.24588e-11 0)
(2.03045e-10 -3.01868e-11 0)
(2.90753e-10 -2.9696e-11 0)
(2.00407e-10 -1.6165e-11 0)
(1.33931e-10 -1.38511e-12 0)
(6.5003e-11 1.48615e-11 0)
(-1.9915e-11 2.36051e-11 0)
(-1.1125e-10 2.77357e-11 0)
(-1.5419e-10 2.38207e-11 0)
(-2.08005e-10 1.35796e-11 0)
(-2.36215e-10 2.85447e-12 0)
(-1.95059e-10 -6.0277e-12 0)
(-1.12882e-10 -1.41641e-11 0)
(-2.16529e-11 -1.67827e-11 0)
(8.70811e-11 -1.53233e-11 0)
(1.73301e-10 -1.21474e-11 0)
(1.87973e-10 -6.61545e-12 0)
(1.59091e-10 3.07686e-13 0)
(1.11031e-10 5.86008e-12 0)
(3.13834e-11 8.16107e-12 0)
(-4.83302e-11 8.2956e-12 0)
(-9.73306e-11 5.67031e-12 0)
(-1.2489e-10 7.08103e-13 0)
(-1.27194e-10 -3.06431e-12 0)
(-8.59322e-11 -5.25029e-12 0)
(-2.30774e-11 -6.07873e-12 0)
(3.54075e-11 -4.57716e-12 0)
(9.0939e-11 -1.66836e-12 0)
(1.23781e-10 1.03603e-12 0)
(1.167e-10 3.48957e-12 0)
(8.86932e-11 5.5547e-12 0)
(5.07442e-11 5.88458e-12 0)
(-9.82594e-13 4.59081e-12 0)
(-4.78597e-11 2.54261e-12 0)
(-7.46615e-11 -6.95256e-13 0)
(-9.11654e-11 -4.45601e-12 0)
(-8.89185e-11 -6.99726e-12 0)
(-5.80046e-11 -8.30922e-12 0)
(-1.24257e-11 -8.09597e-12 0)
(3.69199e-11 -5.68265e-12 0)
(8.77675e-11 -1.63025e-12 0)
(1.26331e-10 2.96294e-12 0)
(1.29989e-10 6.96757e-12 0)
(1.11818e-10 1.02811e-11 0)
(6.96857e-11 1.04995e-11 0)
(9.69809e-12 8.24889e-12 0)
(-4.49546e-11 4.09964e-12 0)
(-8.84151e-11 -2.03304e-12 0)
(-9.68744e-11 -6.64917e-12 0)
(-9.60179e-11 -1.05859e-11 0)
(-6.45853e-11 -9.98502e-12 0)
(-1.61098e-11 -6.85263e-12 0)
(1.21323e-11 -2.84306e-12 0)
(5.4451e-11 3.4751e-12 0)
(6.26212e-11 5.74884e-12 0)
(5.2877e-11 6.72e-12 0)
(2.8346e-11 4.00137e-12 0)
(1.01396e-11 3.58068e-13 0)
(-3.92139e-10 -1.2363e-09 0)
(-2.68619e-10 -6.84557e-11 0)
(7.51828e-11 -7.10765e-11 0)
(2.03052e-10 -3.47305e-11 0)
(3.01287e-10 -3.46482e-11 0)
(2.12378e-10 -1.93941e-11 0)
(1.46939e-10 -2.53611e-12 0)
(7.74187e-11 1.62482e-11 0)
(-1.16423e-11 2.65577e-11 0)
(-1.08994e-10 3.17195e-11 0)
(-1.56967e-10 2.76013e-11 0)
(-2.17435e-10 1.6103e-11 0)
(-2.51591e-10 3.89296e-12 0)
(-2.12232e-10 -6.35782e-12 0)
(-1.28352e-10 -1.58773e-11 0)
(-3.35722e-11 -1.90906e-11 0)
(8.20234e-11 -1.76236e-11 0)
(1.75751e-10 -1.41265e-11 0)
(1.95004e-10 -7.85875e-12 0)
(1.68732e-10 7.74383e-14 0)
(1.21486e-10 6.49566e-12 0)
(3.9471e-11 9.19368e-12 0)
(-4.46148e-11 9.41633e-12 0)
(-9.7956e-11 6.4546e-12 0)
(-1.29842e-10 7.87185e-13 0)
(-1.35592e-10 -3.51824e-12 0)
(-9.46939e-11 -6.01129e-12 0)
(-2.9886e-11 -6.94163e-12 0)
(3.16974e-11 -5.19441e-12 0)
(9.15361e-11 -1.836e-12 0)
(1.28287e-10 1.2775e-12 0)
(1.23139e-10 4.08255e-12 0)
(9.56123e-11 6.42889e-12 0)
(5.69703e-11 6.77052e-12 0)
(2.83667e-12 5.24475e-12 0)
(-4.70675e-11 2.86375e-12 0)
(-7.64704e-11 -8.75291e-13 0)
(-9.55271e-11 -5.20316e-12 0)
(-9.50023e-11 -8.12185e-12 0)
(-6.39898e-11 -9.62373e-12 0)
(-1.69836e-11 -9.36793e-12 0)
(3.47107e-11 -6.57989e-12 0)
(8.90535e-11 -1.89193e-12 0)
(1.3123e-10 3.42337e-12 0)
(1.37245e-10 8.07351e-12 0)
(1.20262e-10 1.19301e-11 0)
(7.75326e-11 1.22077e-11 0)
(1.514e-11 9.63133e-12 0)
(-4.31901e-11 4.81849e-12 0)
(-9.0201e-11 -2.29229e-12 0)
(-1.01354e-10 -7.70152e-12 0)
(-1.02438e-10 -1.23259e-11 0)
(-7.05056e-11 -1.16932e-11 0)
(-2.03164e-11 -8.12202e-12 0)
(1.01112e-11 -3.4502e-12 0)
(5.54866e-11 3.90992e-12 0)
(6.54122e-11 6.63651e-12 0)
(5.6518e-11 7.87296e-12 0)
(3.10875e-11 4.75844e-12 0)
(1.16184e-11 6.42764e-13 0)
(-4.06319e-10 -1.21614e-09 0)
(-2.92523e-10 -7.60155e-11 0)
(6.03425e-11 -8.00346e-11 0)
(2.00447e-10 -3.95658e-11 0)
(3.09539e-10 -4.0036e-11 0)
(2.23217e-10 -2.3042e-11 0)
(1.59783e-10 -4.00802e-12 0)
(9.05103e-11 1.7493e-11 0)
(-2.09975e-12 2.95358e-11 0)
(-1.05124e-10 3.59017e-11 0)
(-1.58235e-10 3.16729e-11 0)
(-2.25583e-10 1.89147e-11 0)
(-2.66176e-10 5.16216e-12 0)
(-2.29376e-10 -6.55328e-12 0)
(-1.44567e-10 -1.75895e-11 0)
(-4.68911e-11 -2.14953e-11 0)
(7.51431e-11 -2.00833e-11 0)
(1.76331e-10 -1.62908e-11 0)
(2.00604e-10 -9.26582e-12 0)
(1.77649e-10 -2.5193e-13 0)
(1.31959e-10 7.10803e-12 0)
(4.82789e-11 1.02554e-11 0)
(-3.97842e-11 1.06004e-11 0)
(-9.74552e-11 7.29973e-12 0)
(-1.33939e-10 8.87779e-13 0)
(-1.43621e-10 -3.9879e-12 0)
(-1.03674e-10 -6.81758e-12 0)
(-3.74204e-11 -7.8656e-12 0)
(2.69797e-11 -5.86277e-12 0)
(9.10582e-11 -2.0262e-12 0)
(1.31895e-10 1.52726e-12 0)
(1.29072e-10 4.7123e-12 0)
(1.0246e-10 7.36533e-12 0)
(6.35185e-11 7.72523e-12 0)
(7.28398e-12 5.95592e-12 0)
(-4.55153e-11 3.22246e-12 0)
(-7.75826e-11 -1.05208e-12 0)
(-9.93814e-11 -5.98937e-12 0)
(-1.00887e-10 -9.31993e-12 0)
(-7.01679e-11 -1.10371e-11 0)
(-2.21013e-11 -1.07502e-11 0)
(3.16719e-11 -7.57483e-12 0)
(8.93902e-11 -2.21323e-12 0)
(1.3525e-10 3.87657e-12 0)
(1.43943e-10 9.2319e-12 0)
(1.28575e-10 1.36915e-11 0)
(8.57219e-11 1.40589e-11 0)
(2.1338e-11 1.11575e-11 0)
(-4.05018e-11 5.64402e-12 0)
(-9.10661e-11 -2.51289e-12 0)
(-1.05222e-10 -8.7951e-12 0)
(-1.08588e-10 -1.41845e-11 0)
(-7.65425e-11 -1.35518e-11 0)
(-2.49999e-11 -9.54132e-12 0)
(7.54645e-12 -4.16195e-12 0)
(5.59283e-11 4.3217e-12 0)
(6.77913e-11 7.56619e-12 0)
(6.00211e-11 9.12321e-12 0)
(3.38876e-11 5.60653e-12 0)
(1.3198e-11 1.01621e-12 0)
(-4.18949e-10 -1.19449e-09 0)
(-3.16848e-10 -8.35973e-11 0)
(4.30537e-11 -8.92674e-11 0)
(1.95157e-10 -4.467e-11 0)
(3.15369e-10 -4.5858e-11 0)
(2.32752e-10 -2.7132e-11 0)
(1.72298e-10 -5.83967e-12 0)
(1.04145e-10 1.85487e-11 0)
(8.63847e-12 3.24963e-11 0)
(-9.96511e-11 4.02538e-11 0)
(-1.57953e-10 3.60276e-11 0)
(-2.32356e-10 2.20261e-11 0)
(-2.7985e-10 6.68737e-12 0)
(-2.46372e-10 -6.5842e-12 0)
(-1.61438e-10 -1.92736e-11 0)
(-6.15643e-11 -2.39792e-11 0)
(6.64269e-11 -2.26971e-11 0)
(1.7497e-10 -1.86452e-11 0)
(2.04674e-10 -1.08491e-11 0)
(1.85731e-10 -6.95761e-13 0)
(1.42354e-10 7.68392e-12 0)
(5.77467e-11 1.13379e-11 0)
(-3.38543e-11 1.18454e-11 0)
(-9.58042e-11 8.20781e-12 0)
(-1.37132e-10 1.01449e-12 0)
(-1.5122e-10 -4.4691e-12 0)
(-1.12823e-10 -7.66769e-12 0)
(-4.56546e-11 -8.85213e-12 0)
(2.12515e-11 -6.58662e-12 0)
(8.94739e-11 -2.24478e-12 0)
(1.34556e-10 1.78001e-12 0)
(1.34446e-10 5.37504e-12 0)
(1.09191e-10 8.36271e-12 0)
(7.03593e-11 8.75021e-12 0)
(1.23515e-11 6.72842e-12 0)
(-4.31901e-11 3.62478e-12 0)
(-7.79702e-11 -1.21857e-12 0)
(-1.02691e-10 -6.80772e-12 0)
(-1.06533e-10 -1.05867e-11 0)
(-7.65095e-11 -1.25479e-11 0)
(-2.77654e-11 -1.22461e-11 0)
(2.77971e-11 -8.67567e-12 0)
(8.87488e-11 -2.60595e-12 0)
(1.38346e-10 4.30935e-12 0)
(1.50031e-10 1.04317e-11 0)
(1.36708e-10 1.55586e-11 0)
(9.42204e-11 1.60536e-11 0)
(2.82836e-11 1.28355e-11 0)
(-3.68679e-11 6.58966e-12 0)
(-9.09691e-11 -2.67824e-12 0)
(-1.08426e-10 -9.91638e-12 0)
(-1.1442e-10 -1.61534e-11 0)
(-8.26687e-11 -1.55612e-11 0)