/*--------------------------------*- C++ -*----------------------------------*\
| =========                 |                                                 |
| \\      /  F ield         | foam-extend: Open Source CFD                    |
|  \\    /   O peration     | Version:     4.0                                |
|   \\  /    A nd           | Web:         http://www.foam-extend.org         |
|    \\/     M anipulation  |                                                 |
\*---------------------------------------------------------------------------*/
FoamFile
{
    version     2.0;
    format      ascii;
    class       surfaceScalarField;
    location    "4";
    object      phi;
}
// * * * * * * * * * * * * * * * * * * * * * * * * * * * * * * * * * * * * * //

dimensions      [0 3 -1 0 0 0 0];

internalField   nonuniform List<scalar> 
13744
(
-6.45236e-09
6.45228e-09
3.72199e-09
-1.01744e-08
6.6578e-11
3.65541e-09
2.26041e-11
4.39737e-11
7.50945e-12
1.50945e-11
4.24435e-12
3.265e-12
2.41577e-12
1.82848e-12
1.5868e-12
8.29059e-13
1.06968e-12
5.16254e-13
7.62501e-13
3.07421e-13
5.57133e-13
2.06557e-13
4.1756e-13
1.39055e-13
3.19563e-13
9.80882e-14
2.46725e-13
7.25531e-14
1.93796e-13
5.29576e-14
1.53047e-13
4.08562e-14
1.21437e-13
3.18634e-14
9.6966e-14
2.5091e-14
7.79013e-14
1.88183e-14
6.18692e-14
1.52656e-14
4.97123e-14
1.17684e-14
3.9812e-14
9.49241e-15
3.11406e-14
7.93809e-15
2.45635e-14
6.88338e-15
1.91706e-14
5.82867e-15
1.39684e-14
5.44009e-15
1.0101e-14
3.44169e-15
6.74522e-15
3.66374e-15
2.99781e-15
4.88498e-15
-9.0057e-16
4.88498e-15
-8.17223e-16
1.33227e-15
-8.71513e-15
8.43769e-15
-1.01108e-14
1.55431e-15
-1.19061e-14
2.38698e-15
-2.1243e-14
1.02696e-14
-2.45795e-14
4.05231e-15
-2.90955e-14
4.32987e-15
-4.18704e-14
1.14353e-14
-4.97051e-14
6.99441e-15
-5.98147e-14
1.04361e-14
-7.99577e-14
1.93734e-14
-9.69532e-14
1.74305e-14
-1.19359e-13
2.25375e-14
-1.55093e-13
3.53606e-14
-1.93801e-13
3.82472e-14
-2.44672e-13
5.11813e-14
-3.2162e-13
7.59948e-14
-4.17567e-13
9.50906e-14
-5.55073e-13
1.37057e-13
-7.64592e-13
2.09666e-13
-1.06973e-12
3.04978e-13
-1.58477e-12
5.14033e-13
-2.41783e-12
8.33056e-13
-4.24437e-12
1.82637e-12
-7.50743e-12
3.26283e-12
-2.26062e-11
1.50995e-11
-6.65781e-11
4.39715e-11
-3.72199e-09
3.65541e-09
6.45236e-09
-1.01743e-08
6.45236e-09
3.43077e-08
-2.78555e-08
5.19682e-09
1.89366e-08
2.04584e-10
8.64765e-09
7.01052e-11
1.78454e-10
2.3306e-11
6.18948e-11
1.33315e-11
1.32379e-11
7.49525e-12
7.66276e-12
4.98065e-12
3.34416e-12
3.32249e-12
2.17337e-12
2.38958e-12
1.24034e-12
1.73391e-12
8.5737e-13
1.30874e-12
5.66547e-13
9.93824e-13
4.15501e-13
7.74581e-13
2.91378e-13
6.04524e-13
2.25264e-13
4.78446e-13
1.69531e-13
3.80862e-13
1.27953e-13
3.04244e-13
9.85878e-14
2.42571e-13
8.06577e-14
1.95802e-13
6.59472e-14
1.56037e-13
5.41789e-14
1.23952e-13
3.9635e-14
9.93735e-14
3.5083e-14
7.75114e-14
2.93654e-14
5.91129e-14
2.41474e-14
4.55126e-14
1.93179e-14
3.19246e-14
1.68199e-14
1.99021e-14
1.41553e-14
1.13284e-14
8.49321e-15
5.22064e-16
1.09357e-14
-1.59181e-14
1.5099e-14
-1.3877e-14
4.88498e-15
-3.19342e-14
1.89848e-14
-5.14106e-14
2.0095e-14
-5.32303e-14
1.08247e-14
-7.75357e-14
2.84217e-14
-1.05288e-13
2.95319e-14
-1.18045e-13
2.87548e-14
-1.56018e-13
4.7129e-14
-2.01706e-13
5.45675e-14
-2.36671e-13
5.70655e-14
-3.04227e-13
8.43769e-14
-3.86732e-13
1.06137e-13
-4.72526e-13
1.22291e-13
-6.0453e-13
1.73861e-13
-7.80494e-13
2.27152e-13
-9.87924e-13
2.8294e-13
-1.30875e-12
4.18998e-13
-1.73982e-12
5.68656e-13
-2.38373e-12
8.52818e-13
-3.32258e-12
1.24301e-12
-4.9866e-12
2.17892e-12
-7.48937e-12
3.33522e-12
-1.33316e-11
7.66565e-12
-2.33119e-11
1.32419e-11
-7.00992e-11
6.18852e-11
-2.04584e-10
1.78455e-10
-5.19683e-09
8.64765e-09
-3.43077e-08
1.89365e-08
-2.78554e-08
2.12069e-08
-4.90624e-08
8.10334e-09
3.20401e-08
3.40321e-10
1.64107e-08
1.20309e-10
3.98464e-10
4.05041e-11
1.41697e-10
2.32411e-11
3.05068e-11
1.30219e-11
1.78846e-11
8.68464e-12
7.68035e-12
5.77335e-12
5.08941e-12
4.1676e-12
2.84742e-12
3.0135e-12
2.01538e-12
2.28194e-12
1.29324e-12
1.72961e-12
9.64978e-13
1.34982e-12
6.7376e-13
1.05235e-12
5.21756e-13
8.35352e-13
3.81355e-13
6.62697e-13
3.04243e-13
5.30917e-13
2.32678e-13
4.23871e-13
1.83572e-13
3.41091e-13
1.43295e-13
2.72407e-13
1.19203e-13
2.1751e-13
9.86919e-14
1.72844e-13
7.53807e-14
1.35638e-13
6.32758e-14
1.04301e-13
5.43073e-14
7.8849e-14
4.36561e-14
5.59128e-14
4.11199e-14
3.57261e-14
3.5881e-14
1.84347e-14
3.06803e-14
-4.87372e-16
3.55896e-14
-1.99331e-14
3.50102e-14
-3.2863e-14
1.82077e-14
-5.59199e-14
4.38295e-14
-8.1509e-14
4.44957e-14
-1.0165e-13
3.03438e-14
-1.35664e-13
6.12461e-14
-1.75516e-13
7.33025e-14
-2.1483e-13
6.54025e-14
-2.72389e-13
1.04639e-13
-3.43758e-13
1.26156e-13
-4.21212e-13
1.32366e-13
-5.30896e-13
1.9372e-13
-6.65333e-13
2.38098e-13
-8.32667e-13
2.86972e-13
-1.05235e-12
3.89695e-13
-1.3525e-12
5.25954e-13
-1.72695e-12
6.61571e-13
-2.28195e-12
9.72153e-13
-3.01617e-12
1.30304e-12
-4.165e-12
2.0018e-12
-5.77345e-12
2.85234e-12
-8.68738e-12
5.09386e-12
-1.30193e-11
7.66751e-12
-2.32412e-11
1.78946e-11
-4.05069e-11
3.05105e-11
-1.20307e-10
1.41687e-10
-3.40321e-10
3.98472e-10
-8.10335e-09
1.64107e-08
-2.12069e-08
3.20401e-08
-4.90623e-08
6.03292e-09
-5.50953e-08
6.47372e-09
3.15993e-08
4.69259e-10
2.24151e-08
1.7226e-10
6.95463e-10
5.92276e-11
2.54732e-10
3.39729e-11
5.57534e-11
1.90399e-11
3.28192e-11
1.27085e-11
1.40125e-11
8.44167e-12
9.35137e-12
6.1009e-12
5.18389e-12
4.40674e-12
3.70851e-12
3.34075e-12
2.3638e-12
2.53076e-12
1.77406e-12
1.97603e-12
1.22442e-12
1.54012e-12
9.52934e-13
1.22393e-12
7.01045e-13
9.69873e-13
5.55106e-13
7.77876e-13
4.2809e-13
6.2142e-13
3.47149e-13
4.99575e-13
2.71148e-13
3.9935e-13
2.21266e-13
3.1948e-13
1.79792e-13
2.53125e-13
1.45862e-13
1.99098e-13
1.21445e-13
1.53566e-13
1.02673e-13
1.15355e-13
8.06889e-14
8.21232e-14
7.46452e-14
5.28685e-14
6.6485e-14
2.60902e-14
5.71401e-14
-7.92115e-16
6.13554e-14
-2.54154e-14
5.99798e-14
-5.27868e-14
4.52693e-14
-8.21294e-14
6.84539e-14
-1.15272e-13
8.04877e-14
-1.53648e-13
6.90559e-14
-1.99116e-13
1.06708e-13
-2.53056e-13
1.30311e-13
-3.19532e-13
1.31079e-13
-3.99322e-13
1.82389e-13
-4.99502e-13
2.25427e-13
-6.21504e-13
2.5315e-13
-7.77863e-13
3.49925e-13
-9.69778e-13
4.30602e-13
-1.22397e-12
5.42618e-13
-1.54013e-12
7.05208e-13
-1.97596e-12
9.658e-13
-2.53083e-12
1.21332e-12
-3.34076e-12
1.7811e-12
-4.40669e-12
2.36589e-12
-6.10104e-12
3.69653e-12
-8.44178e-12
5.19539e-12
-1.27086e-11
9.36212e-12
-1.90401e-11
1.3999e-11
-3.3973e-11
3.28226e-11
-5.92277e-11
5.57625e-11
-1.7226e-10
2.54718e-10
-4.69259e-10
6.9547e-10
-6.47372e-09
2.24151e-08
-6.03292e-09
3.15993e-08
-5.50952e-08
5.36956e-09
-6.04648e-08
4.70111e-09
3.22678e-08
5.9763e-10
2.65186e-08
2.2578e-10
1.06731e-09
7.95286e-11
4.0098e-10
4.5566e-11
8.97214e-11
2.55788e-11
5.28038e-11
1.70724e-11
2.25176e-11
1.13417e-11
1.50871e-11
8.19941e-12
8.32946e-12
5.92156e-12
5.99149e-12
4.49089e-12
3.79325e-12
3.4014e-12
2.86615e-12
2.6569e-12
1.97433e-12
2.07055e-12
1.54022e-12
1.64601e-12
1.12696e-12
1.30437e-12
8.96707e-13
1.04648e-12
6.83594e-13
8.36025e-13
5.56545e-13
6.72377e-13
4.31736e-13
5.37539e-13
3.57549e-13
4.30137e-13
2.80438e-13
3.40912e-13
2.36385e-13
2.68217e-13
1.9271e-13
2.06883e-13
1.57536e-13
1.55496e-13
1.39648e-13
1.10695e-13
1.18446e-13
7.11956e-14
1.03667e-13
3.50067e-14
9.42467e-14
-4.84483e-16
9.448e-14
-3.47452e-14
9.37054e-14
-7.09392e-14
8.4167e-14
-1.10691e-13
1.17424e-13
-1.55635e-13
1.245e-13
-2.06734e-13
1.19616e-13
-2.68224e-13
1.70017e-13
-3.41076e-13
1.97848e-13
-4.29952e-13
2.20732e-13
-5.37499e-13
2.91291e-13
-6.72539e-13
3.65251e-13
-8.35882e-13
4.18462e-13
-1.04647e-12
5.64014e-13
-1.3045e-12
6.90075e-13
-1.64583e-12
8.8207e-13
-2.07054e-12
1.13103e-12
-2.65707e-12
1.54838e-12
-3.40125e-12
1.95554e-12
-4.49091e-12
2.86965e-12
-5.92174e-12
3.80026e-12
-8.19931e-12
5.97531e-12
-1.13418e-11
8.3374e-12
-1.70727e-11
1.50933e-11
-2.55787e-11
2.25067e-11
-4.55661e-11
5.28142e-11
-7.95289e-11
8.97275e-11
-2.2578e-10
4.00968e-10
-5.9763e-10
1.06732e-09
-4.70111e-09
2.65186e-08
-5.36956e-09
3.22678e-08
-6.04648e-08
7.31468e-09
-6.77795e-08
4.31001e-09
3.52724e-08
7.27674e-10
3.01009e-08
2.81021e-10
1.51397e-09
1.01453e-10
5.80553e-10
5.8059e-11
1.33112e-10
3.2669e-11
7.8197e-11
2.17964e-11
3.33934e-11
1.44882e-11
2.23894e-11
1.04741e-11
1.2345e-11
7.56568e-12
8.89536e-12
5.73845e-12
5.61992e-12
4.34657e-12
4.25862e-12
3.39581e-12
2.92037e-12
2.64655e-12
2.29437e-12
2.10424e-12
1.66003e-12
1.66774e-12
1.33234e-12
1.33824e-12
1.01227e-12
1.0692e-12
8.23547e-13
8.60193e-13
6.38804e-13
6.87761e-13
5.26717e-13
5.50434e-13
4.22379e-13
4.36422e-13
3.41912e-13
3.43398e-13
2.86757e-13
2.64892e-13
2.44703e-13
1.99194e-13
1.99886e-13
1.41795e-13
1.7789e-13
9.11463e-14
1.56331e-13
4.4837e-14
1.40673e-13
-3.09878e-16
1.42695e-13
-4.50555e-14
1.39963e-13
-9.0419e-14
1.23431e-13
-1.41792e-13
1.61685e-13
-1.99815e-13
1.83578e-13
-2.64245e-13
1.85235e-13
-3.43409e-13
2.48933e-13
-4.37059e-13
2.94364e-13
-5.49753e-13
3.3302e-13
-6.87713e-13
4.27767e-13
-8.60833e-13
5.35536e-13
-1.06859e-12
6.24999e-13
-1.33823e-12
8.28778e-13
-1.66836e-12
1.02121e-12
-2.10357e-12
1.32509e-12
-2.64654e-12
1.6718e-12
-3.39647e-12
2.29815e-12
-4.34593e-12
2.90694e-12
-5.73846e-12
4.26599e-12
-7.56634e-12
5.62717e-12
-1.04735e-11
8.87918e-12
-1.44883e-11
1.23462e-11
-2.17971e-11
2.23977e-11
-3.26684e-11
3.33773e-11
-5.80591e-11
7.82011e-11
-1.01454e-10
1.33123e-10
-2.81021e-10
5.80532e-10
-7.27674e-10
1.51397e-09
-4.31001e-09
3.0101e-08
-7.31468e-09
3.52724e-08
-6.77794e-08
7.47115e-09
-7.52507e-08
4.35741e-09
3.83862e-08
8.57555e-10
3.36008e-08
3.38092e-10
2.03343e-09
1.2504e-10
7.93603e-10
7.14895e-11
1.86664e-10
4.03413e-11
1.09344e-10
2.69015e-11
4.68344e-11
1.78966e-11
3.13968e-11
1.29362e-11
1.72977e-11
9.34746e-12
1.24855e-11
7.08982e-12
7.87635e-12
5.3713e-12
5.97303e-12
4.19659e-12
4.09639e-12
3.2712e-12
3.21427e-12
2.60115e-12
2.34057e-12
2.06189e-12
1.87618e-12
1.65472e-12
1.42071e-12
1.32231e-12
1.15653e-12
1.06397e-12
9.00341e-13
8.50873e-13
7.46248e-13
6.81095e-13
5.9085e-13
5.40121e-13
4.90409e-13
4.25083e-13
4.01952e-13
3.27971e-13
3.36784e-13
2.46642e-13
2.76252e-13
1.75606e-13
2.43936e-13
1.12896e-13
2.18144e-13
5.54671e-14
1.93827e-13
-2.87985e-16
1.94658e-13
-5.57326e-14
1.94307e-13
-1.12138e-13
1.81076e-13
-1.75596e-13
2.27765e-13
-2.47283e-13
2.53294e-13
-3.27292e-13
2.65061e-13
-4.25084e-13
3.48157e-13
-5.40775e-13
4.09584e-13
-6.80389e-13
4.71794e-13
-8.50811e-13
6.00795e-13
-1.06464e-12
7.48605e-13
-1.32168e-12
8.80211e-13
-1.65472e-12
1.16455e-12
-2.06253e-12
1.42748e-12
-2.60046e-12
1.85109e-12
-3.2712e-12
2.34447e-12
-4.19727e-12
3.22882e-12
-5.37064e-12
4.08191e-12
-7.08983e-12
5.98059e-12
-9.34816e-12
7.88557e-12
-1.29356e-11
1.24716e-11
-1.78967e-11
1.73131e-11
-2.69023e-11
3.14036e-11
-4.03408e-11
4.68141e-11
-7.14896e-11
1.09346e-10
-1.25041e-10
1.8667e-10
-3.38092e-10
7.93592e-10
-8.57555e-10
2.03344e-09
-4.35741e-09
3.36008e-08
-7.47115e-09
3.83862e-08
-7.52506e-08
6.88964e-09
-8.21403e-08
4.32286e-09
4.0953e-08
9.85631e-10
3.6938e-08
3.96883e-10
2.62218e-09
1.50321e-10
1.04017e-09
8.58937e-11
2.51092e-10
4.8627e-11
1.46605e-10
3.24095e-11
6.30488e-11
2.1583e-11
4.22216e-11
1.55974e-11
2.32921e-11
1.12758e-11
1.68062e-11
8.55174e-12
1.06034e-11
6.48084e-12
8.04325e-12
5.06335e-12
5.51676e-12
3.94779e-12
4.33231e-12
3.13929e-12
3.14225e-12
2.48894e-12
2.5257e-12
1.99763e-12
1.90746e-12
1.5967e-12
1.55763e-12
1.28486e-12
1.21214e-12
1.02775e-12
9.99335e-13
8.22834e-13
7.96625e-13
6.52609e-13
6.57664e-13
5.13713e-13
5.40403e-13
3.96451e-13
4.54157e-13
2.98137e-13
3.81854e-13
2.12325e-13
3.36402e-13
1.36521e-13
2.8805e-13
6.69867e-14
2.6514e-13
-2.7946e-16
2.65125e-13
-6.71865e-14
2.63478e-13
-1.35873e-13
2.55021e-13
-2.12308e-13
3.03977e-13
-2.98663e-13
3.43745e-13
-3.95877e-13
3.65619e-13
-5.13713e-13
4.60285e-13
-6.53156e-13
5.46923e-13
-8.22215e-13
6.43796e-13
-1.02769e-12
8.05864e-13
-1.28542e-12
1.01162e-12
-1.59617e-12
1.19599e-12
-1.99763e-12
1.56629e-12
-2.48949e-12
1.91551e-12
-3.1387e-12
2.5071e-12
-3.94777e-12
3.15567e-12
-5.06394e-12
4.33962e-12
-6.48028e-12
5.49484e-12
-8.55175e-12
8.05402e-12
-1.12764e-11
1.06106e-11
-1.55969e-11
1.67885e-11
-2.15832e-11
2.32978e-11
-3.24102e-11
4.22338e-11
-4.86266e-11
6.30388e-11
-8.58939e-11
1.46615e-10
-1.50321e-10
2.51099e-10
-3.96882e-10
1.04014e-09
-9.85631e-10
2.62219e-09
-4.32286e-09
3.6938e-08
-6.88964e-09
4.0953e-08
-8.21402e-08
6.37973e-09
-8.852e-08
4.21966e-09
4.3113e-08
1.11125e-09
4.00464e-08
4.57211e-10
3.27622e-09
1.77317e-10
1.32006e-09
1.01306e-10
3.27105e-10
5.75572e-11
1.90361e-10
3.83427e-11
8.22613e-11
2.55641e-11
5.50097e-11
1.847e-11
3.03822e-11
1.33601e-11
2.1911e-11
1.01313e-11
1.38302e-11
7.68069e-12
1.05007e-11
6.00047e-12
7.19446e-12
4.67975e-12
5.65773e-12
3.72142e-12
4.10528e-12
2.95112e-12
3.29356e-12
2.36876e-12
2.49448e-12
1.89378e-12
2.03338e-12
1.52404e-12
1.5787e-12
1.21936e-12
1.30034e-12
9.7638e-13
1.03794e-12
7.74522e-13
8.62066e-13
6.09784e-13
7.02689e-13
4.70709e-13
5.92093e-13
3.53983e-13
4.95148e-13
2.52132e-13
4.29584e-13
1.62157e-13
3.83399e-13
7.94903e-14
3.51811e-13
-2.56906e-16
3.3922e-13
-7.96501e-14
3.36567e-13
-1.61588e-13
3.33546e-13
-2.52122e-13
3.88511e-13
-3.54418e-13
4.42596e-13
-4.70211e-13
4.75146e-13
-6.09772e-13
6.07116e-13
-7.74987e-13
7.1406e-13
-9.75831e-13
8.39838e-13
-1.21928e-12
1.04921e-12
-1.52453e-12
1.3122e-12
-1.89334e-12
1.55865e-12
-2.36876e-12
2.03772e-12
-2.9516e-12
2.50268e-12
-3.7209e-12
3.27731e-12
-4.67973e-12
4.10853e-12
-6.00098e-12
5.66214e-12
-7.6802e-12
7.17587e-12
-1.01313e-11
1.05064e-11
-1.33606e-11
1.38409e-11
-1.84696e-11
2.18977e-11
-2.55642e-11
3.03893e-11
-3.83434e-11
5.50123e-11
-5.75569e-11
8.22405e-11
-1.01306e-10
1.90367e-10
-1.77318e-10
3.27113e-10
-4.57211e-10
1.32004e-09
-1.11125e-09
3.27622e-09
-4.21966e-09
4.00464e-08
-6.37973e-09
4.3113e-08
-8.85199e-08
5.96329e-09
-9.44833e-08
4.10568e-09
4.49707e-08
1.23394e-09
4.29182e-08
5.18887e-10
3.99127e-09
2.0604e-10
1.6329e-09
1.17758e-10
4.15382e-10
6.71633e-11
2.40951e-10
4.4724e-11
1.04705e-10
2.9857e-11
6.98647e-11
2.15665e-11
3.86706e-11
1.56099e-11
2.78707e-11
1.18359e-11
1.76043e-11
8.97667e-12
1.33573e-11
7.01253e-12
9.16084e-12
5.47073e-12
7.18982e-12
4.35044e-12
5.222e-12
3.45081e-12
4.19769e-12
2.76999e-12
3.17642e-12
2.2151e-12
2.58703e-12
1.78276e-12
2.01602e-12
1.4267e-12
1.66197e-12
1.14256e-12
1.32346e-12
9.06513e-13
1.09568e-12
7.13811e-13
9.00235e-13
5.51131e-13
7.56833e-13
4.14476e-13
6.3642e-13
2.95289e-13
5.54812e-13
1.89931e-13
4.89662e-13
9.30296e-14
4.48709e-13
-2.27779e-16
4.34899e-13
-9.31792e-14
4.35297e-13
-1.89424e-13
4.26932e-13
-2.95262e-13
5.02247e-13
-4.14857e-13
5.59087e-13
-5.50677e-13
6.16936e-13
-7.13795e-13
7.68257e-13
-9.06926e-13
9.01433e-13
-1.14205e-12
1.08247e-12
-1.42661e-12
1.33234e-12
-1.7832e-12
1.66647e-12
-2.21473e-12
1.99414e-12
-2.76999e-12
2.60105e-12
-3.45124e-12
3.18761e-12
-4.34997e-12
4.17718e-12
-5.47071e-12
5.23299e-12
-7.01298e-12
7.20704e-12
-8.97624e-12
9.13842e-12
-1.18359e-11
1.33625e-11
-1.56104e-11
1.76138e-11
-2.15662e-11
2.78562e-11
-2.98572e-11
3.86843e-11
-4.47246e-11
6.98776e-11
-6.71631e-11
1.04687e-10
-1.17758e-10
2.40965e-10
-2.06041e-10
4.15392e-10
-5.18886e-10
1.63289e-09
-1.23394e-09
3.99128e-09
-4.10568e-09
4.29182e-08
-5.96329e-09
4.49706e-08
-9.44832e-08
5.55784e-09
-1.00041e-07
3.99103e-09
4.65375e-08
1.35309e-09
4.55561e-08
5.81708e-10
4.76265e-09
2.3649e-10
1.97812e-09
1.35278e-10
5.16599e-10
7.74762e-11
2.98752e-10
5.15763e-11
1.30606e-10
3.44796e-11
8.69679e-11
2.49004e-11
4.82524e-11
1.80356e-11
3.47422e-11
1.36735e-11
2.19686e-11
1.03749e-11
1.66531e-11
8.10431e-12
1.14285e-11
6.32459e-12
8.97615e-12
5.02944e-12
6.5191e-12
3.99048e-12
5.22986e-12
3.20333e-12
3.96059e-12
2.56231e-12
3.22503e-12
2.06235e-12
2.5116e-12
1.65085e-12
2.07144e-12
1.32224e-12
1.65314e-12
1.04928e-12
1.36877e-12
8.26339e-13
1.11795e-12
6.38166e-13
9.49533e-13
4.79946e-13
7.89944e-13
3.42e-13
6.89757e-13
2.19995e-13
6.12604e-13
1.07698e-13
5.51249e-13
-1.96594e-16
5.49959e-13
-1.07849e-13
5.38655e-13
-2.19538e-13
5.44113e-13
-3.41974e-13
6.20168e-13
-4.8026e-13
7.04787e-13
-6.37755e-13
7.70617e-13
-8.26331e-13
9.55507e-13
-1.04962e-12
1.12853e-12
-1.32177e-12
1.3489e-12
-1.65075e-12
1.66079e-12
-2.06273e-12
2.0812e-12
-2.56198e-12
2.48953e-12
-3.20333e-12
3.23603e-12
-3.99086e-12
3.9667e-12
-5.02902e-12
5.21426e-12
-6.32457e-12
6.53187e-12
-8.10472e-12
8.98894e-12
-1.03745e-11
1.14114e-11
-1.36735e-11
1.66612e-11
-1.8036e-11
2.19848e-11
-2.49001e-11
3.47159e-11
-3.44798e-11
4.82639e-11
-5.1577e-11
8.69793e-11
-7.74761e-11
1.30582e-10
-1.35279e-10
2.98762e-10
-2.36491e-10
5.16604e-10
-5.81708e-10
1.9781e-09
-1.35309e-09
4.76266e-09
-3.99103e-09
4.55561e-08
-5.55784e-09
4.65374e-08
-1.00041e-07
5.14153e-09
-1.05183e-07
3.87135e-09
4.78076e-08
1.46804e-09
4.79594e-08
6.45449e-10
5.58525e-09
2.68654e-10
2.35492e-09
1.53892e-10
6.31358e-10
8.85264e-11
3.6412e-10
5.89232e-11
1.60205e-10
3.94502e-11
1.06441e-10
2.84852e-11
5.9218e-11
2.06476e-11
4.25688e-11
1.5652e-11
2.69589e-11
1.18819e-11
2.04241e-11
9.28091e-12
1.40324e-11
7.24538e-12
1.10098e-11
5.76164e-12
8.00515e-12
4.57275e-12
6.42063e-12
3.67091e-12
4.86667e-12
2.93711e-12
3.96686e-12
2.3642e-12
3.08648e-12
1.89294e-12
2.5446e-12
1.51632e-12
2.0294e-12
1.20355e-12
1.68046e-12
9.47977e-13
1.37499e-12
7.32244e-13
1.15433e-12
5.5074e-13
9.73276e-13
3.92528e-13
8.51636e-13
2.52495e-13
7.48925e-13
1.23598e-13
6.91761e-13
-1.82835e-16
6.66871e-13
-1.23697e-13
6.63717e-13
-2.52124e-13
6.68244e-13
-3.92481e-13
7.64164e-13
-5.51002e-13
8.56819e-13
-7.3189e-13
9.49185e-13
-9.47951e-13
1.17573e-12
-1.20383e-12
1.38564e-12
-1.5159e-12
1.66276e-12
-1.89282e-12
2.04117e-12
-2.36452e-12
2.5524e-12
-2.93683e-12
3.06796e-12
-3.67093e-12
3.97133e-12
-4.57308e-12
4.87446e-12
-5.76128e-12
6.39999e-12
-7.24537e-12
8.00829e-12
-9.28128e-12
1.10202e-11
-1.18816e-11
1.40102e-11
-1.5652e-11
2.0434e-11
-2.0648e-11
2.69713e-11
-2.8485e-11
4.25561e-11
-3.94504e-11
5.92244e-11
-5.89238e-11
1.06451e-10
-8.85264e-11
1.60186e-10
-1.53892e-10
3.64131e-10
-2.68655e-10
6.31373e-10
-6.45449e-10
2.3549e-09
-1.46804e-09
5.58526e-09
-3.87135e-09
4.79594e-08
-5.14153e-09
4.78076e-08
-1.05183e-07
4.71726e-09
-1.099e-07
3.74401e-09
4.87809e-08
1.5781e-09
5.01253e-08
7.09857e-10
6.45349e-09
3.02505e-10
2.76227e-09
1.73619e-10
7.60243e-10
1.00343e-10
4.37398e-10
6.67879e-11
1.93771e-10
4.47874e-11
1.28439e-10
3.23352e-11
7.16672e-11
2.34571e-11
5.14504e-11
1.77802e-11
3.26451e-11
1.35043e-11
2.47028e-11
1.05476e-11
1.69886e-11
8.23738e-12
1.33201e-11
6.55049e-12
9.68295e-12
5.20041e-12
7.77212e-12
4.17498e-12
5.88553e-12
3.34132e-12
4.79721e-12
2.68978e-12
3.7394e-12
2.15418e-12
3.07851e-12
1.72579e-12
2.45653e-12
1.37012e-12
2.03581e-12
1.07931e-12
1.66915e-12
8.33885e-13
1.40617e-12
6.27234e-13
1.17999e-12
4.47113e-13
1.0308e-12
2.87645e-13
9.09286e-13
1.40751e-13
8.32853e-13
-1.57192e-16
8.10555e-13
-1.40844e-13
8.08821e-13
-2.87318e-13
8.17703e-13
-4.47074e-13
9.19325e-13
-6.27426e-13
1.03965e-12
-8.33562e-13
1.16099e-12
-1.07929e-12
1.41655e-12
-1.37033e-12
1.67778e-12
-1.72541e-12
2.02115e-12
-2.15405e-12
2.46594e-12
-2.69005e-12
3.09333e-12
-3.34112e-12
3.71632e-12
-4.175e-12
4.80479e-12
-5.20068e-12
5.89751e-12
-6.55019e-12
7.7527e-12
-8.23735e-12
9.69914e-12
-1.0548e-11
1.33322e-11
-1.3504e-11
1.69631e-11
-1.77802e-11
2.47133e-11
-2.34575e-11
3.26519e-11
-3.2335e-11
5.1439e-11
-4.47876e-11
7.16843e-11
-6.67885e-11
1.28447e-10
-1.00343e-10
1.93737e-10
-1.73619e-10
4.37405e-10
-3.02506e-10
7.60255e-10
-7.09857e-10
2.76226e-09
-1.5781e-09
6.4535e-09
-3.74401e-09
5.01253e-08
-4.71726e-09
4.87809e-08
-1.099e-07
4.28882e-09
-1.14189e-07
3.60836e-09
4.94613e-08
1.6826e-09
5.20511e-08
7.74655e-10
7.36143e-09
3.38001e-10
3.19892e-09
1.94475e-10
9.03773e-10
1.12955e-10
5.18914e-10
7.51939e-11
2.3152e-10
5.05103e-11
1.53123e-10
3.64649e-11
8.57119e-11
2.64755e-11
6.14421e-11
2.00668e-11
3.90443e-11
1.52492e-11
2.95206e-11
1.19101e-11
2.03241e-11
9.30506e-12
1.59257e-11
7.39962e-12
1.15931e-11
5.87636e-12
9.29756e-12
4.71791e-12
7.04767e-12
3.77689e-12
5.73464e-12
3.04068e-12
4.4724e-12
2.43583e-12
3.68448e-12
1.95168e-12
2.9373e-12
1.5498e-12
2.44072e-12
1.22101e-12
1.99542e-12
9.43577e-13
1.67767e-12
7.09802e-13
1.41116e-12
5.06053e-13
1.23686e-12
3.2559e-13
1.09246e-12
1.59292e-13
1.00016e-12
-1.26363e-16
9.69789e-13
-1.59366e-13
9.64187e-13
-3.25336e-13
9.8251e-13
-5.0601e-13
1.10441e-12
-7.09927e-13
1.2419e-12
-9.43308e-13
1.39061e-12
-1.22098e-12
1.69992e-12
-1.54995e-12
2.00608e-12
-1.95135e-12
2.41401e-12
-2.43569e-12
2.95418e-12
-3.04089e-12
3.6918e-12
-3.77676e-12
4.45488e-12
-4.71792e-12
5.74975e-12
-5.87658e-12
7.06131e-12
-7.39936e-12
9.27382e-12
-9.30504e-12
1.16093e-11
-1.19104e-11
1.59404e-11
-1.5249e-11
2.03076e-11
-2.00668e-11
2.95255e-11
-2.64758e-11
3.90599e-11
-3.64648e-11
6.14185e-11
-5.05105e-11
8.57241e-11
-7.51945e-11
1.53134e-10
-1.12955e-10
2.31504e-10
-1.94475e-10
5.18931e-10
-3.38002e-10
9.03778e-10
-7.74655e-10
3.1989e-09
-1.6826e-09
7.36144e-09
-3.60836e-09
5.20511e-08
-4.28882e-09
4.94613e-08
-1.14189e-07
3.85832e-09
-1.18047e-07
3.46446e-09
4.98552e-08
1.78087e-09
5.37347e-08
8.39541e-10
8.30277e-09
3.75082e-10
3.66338e-09
2.16468e-10
1.06239e-09
1.26387e-10
6.08999e-10
8.41643e-11
2.73751e-10
5.66382e-11
1.80653e-10
4.08893e-11
1.01466e-10
2.97146e-11
7.26174e-11
2.25212e-11
4.62414e-11
1.7124e-11
3.49131e-11
1.33742e-11
2.40776e-11
1.04531e-11
1.88481e-11
8.31279e-12
1.37377e-11
6.6037e-12
1.10042e-11
5.30218e-12
8.34787e-12
4.24586e-12
6.79882e-12
3.41855e-12
5.3018e-12
2.73925e-12
4.36097e-12
2.19509e-12
3.49155e-12
1.74348e-12
2.89268e-12
1.37378e-12
2.36365e-12
1.06188e-12
1.99797e-12
7.98875e-13
1.68032e-12
5.69645e-13
1.46129e-12
3.66531e-13
1.28963e-12
1.79304e-13
1.1923e-12
-1.03002e-16
1.14719e-12
-1.79354e-13
1.14301e-12
-3.66339e-13
1.16586e-12
-5.69604e-13
1.30751e-12
-7.98926e-13
1.47582e-12
-1.06164e-12
1.65601e-12
-1.37376e-12
2.00603e-12
-1.74358e-12
2.37142e-12
-2.19478e-12
2.86563e-12
-2.73911e-12
3.49853e-12
-3.41869e-12
4.37665e-12
-4.24579e-12
5.28241e-12
-5.3022e-12
6.80897e-12
-6.60388e-12
8.35914e-12
-8.31256e-12
1.09866e-11
-1.04531e-11
1.37416e-11
-1.33744e-11
1.88611e-11
-1.71238e-11
2.4052e-11
-2.25212e-11
3.49275e-11
-2.97149e-11
4.62515e-11
-4.08893e-11
7.25968e-11
-5.66385e-11
1.0148e-10
-8.41648e-11
1.8066e-10
-1.26388e-10
2.7372e-10
-2.16468e-10
6.0901e-10
-3.75082e-10
1.0624e-09
-8.39541e-10
3.66336e-09
-1.78087e-09
8.30278e-09
-3.46446e-09
5.37347e-08
-3.85832e-09
4.98552e-08
-1.18047e-07
3.42725e-09
-1.21474e-07
3.3125e-09
4.99699e-08
1.87225e-09
5.51749e-08
9.04189e-10
9.27083e-09
4.13669e-10
4.15391e-09
2.39601e-10
1.23645e-09
1.40665e-10
7.07923e-10
9.37216e-11
3.2069e-10
6.31906e-11
2.11179e-10
4.56238e-11
1.19024e-10
3.31867e-11
8.50536e-11
2.5153e-11
5.42759e-11
1.91363e-11
4.09305e-11
1.49459e-11
2.82688e-11
1.16866e-11
2.2108e-11
9.29398e-12
1.61336e-11
7.38566e-12
1.291e-11
5.93046e-12
9.80271e-12
4.75037e-12
7.97065e-12
3.82513e-12
6.23111e-12
3.06589e-12
5.13004e-12
2.45714e-12
4.09366e-12
1.95209e-12
3.39257e-12
1.53839e-12
2.78138e-12
1.18936e-12
2.34414e-12
8.94857e-13
1.97108e-12
6.38199e-13
1.72003e-12
4.1069e-13
1.52864e-12
2.00869e-13
1.39519e-12
-7.5995e-17
1.34755e-12
-2.00915e-13
1.33811e-12
-4.10533e-13
1.3831e-12
-6.3816e-13
1.53327e-12
-8.94863e-13
1.73095e-12
-1.18918e-12
1.94764e-12
-1.53835e-12
2.36078e-12
-1.95214e-12
2.78971e-12
-2.45686e-12
3.38066e-12
-3.06572e-12
4.10287e-12
-3.82522e-12
5.12841e-12
-4.75036e-12
6.19757e-12
-5.93048e-12
7.97741e-12
-7.3858e-12
9.81649e-12
-9.29383e-12
1.28906e-11
-1.16866e-11
1.61396e-11
-1.49461e-11
2.21208e-11
-1.91362e-11
2.82416e-11
-2.5153e-11
4.09401e-11
-3.31869e-11
5.42869e-11
-4.56238e-11
8.50311e-11
-6.31909e-11
1.19039e-10
-9.37221e-11
2.11191e-10
-1.40665e-10
3.2067e-10
-2.39601e-10
7.07942e-10
-4.1367e-10
1.23646e-09
-9.04189e-10
4.15388e-09
-1.87225e-09
9.27084e-09
-3.3125e-09
5.51749e-08
-3.42725e-09
4.99699e-08
-1.21474e-07
2.99706e-09
-1.24471e-07
3.15274e-09
4.98143e-08
1.95609e-09
5.63716e-08
9.68251e-10
1.02587e-08
4.53667e-10
4.66849e-09
2.63867e-10
1.42626e-09
1.55809e-10
8.15997e-10
1.03888e-10
3.72615e-10
7.01869e-11
2.44879e-10
5.06839e-11
1.3854e-10
3.69044e-11
9.88337e-11
2.79721e-11
6.32091e-11
2.12942e-11
4.76112e-11
1.66318e-11
3.29305e-11
1.30106e-11
2.57311e-11
1.03474e-11
1.87887e-11
8.22568e-12
1.50359e-11
6.60549e-12
1.14225e-11
5.29271e-12
9.28557e-12
4.2623e-12
7.25219e-12
3.4172e-12
5.96455e-12
2.73908e-12
4.77728e-12
2.17663e-12
3.96102e-12
1.71557e-12
3.24045e-12
1.32665e-12
2.73036e-12
9.98254e-13
2.29513e-12
7.12076e-13
2.00435e-12
4.5823e-13
1.77344e-12
2.24129e-13
1.63599e-12
-6.19887e-17
1.57292e-12
-2.24121e-13
1.57141e-12
-4.58165e-13
1.60996e-12
-7.12015e-13
1.79128e-12
-9.98201e-13
2.01226e-12
-1.32649e-12
2.27865e-12
-1.71553e-12
2.74672e-12
-2.17659e-12
3.24945e-12
-2.73886e-12
3.93169e-12
-3.41704e-12
4.78727e-12
-4.26232e-12
5.98484e-12
-5.29275e-12
7.23215e-12
-6.6055e-12
9.3013e-12
-8.22577e-12
1.14292e-11
-1.03473e-11
1.50122e-11
-1.30106e-11
1.88046e-11
-1.6632e-11
2.57385e-11
-2.12942e-11
3.29063e-11
-2.79721e-11
4.7618e-11
-3.69045e-11
6.32237e-11
-5.0684e-11
9.88178e-11
-7.01872e-11
1.38552e-10
-1.03888e-10
2.44894e-10
-1.55809e-10
3.7259e-10
-2.63867e-10
8.16e-10
-4.53668e-10
1.42627e-09
-9.68252e-10
4.66846e-09
-1.95609e-09
1.02587e-08
-3.15274e-09
5.63716e-08
-2.99706e-09
4.98143e-08
-1.24471e-07
2.56922e-09
-1.27041e-07
2.98548e-09
4.9398e-08
2.03175e-09
5.73253e-08
1.03136e-09
1.12591e-08
4.94958e-10
5.20489e-09
2.89251e-10
1.63196e-09
1.71836e-10
9.33403e-10
1.14683e-10
4.29763e-10
7.76466e-11
2.81917e-10
5.60855e-11
1.60088e-10
4.08805e-11
1.14036e-10
3.09888e-11
7.31013e-11
2.3606e-11
5.49966e-11
1.84385e-11
3.80993e-11
1.44305e-11
2.97337e-11
1.14774e-11
2.17405e-11
9.12731e-12
1.73832e-11
7.33021e-12
1.32262e-11
5.87523e-12
1.07414e-11
4.73197e-12
8.40557e-12
3.79484e-12
6.90554e-12
3.0422e-12
5.52953e-12
2.41811e-12
4.57637e-12
1.90618e-12
3.75097e-12
1.47436e-12
3.16615e-12
1.10955e-12
2.66544e-12
7.91594e-13
2.32444e-12
5.09453e-13
2.05642e-12
2.49162e-13
1.89513e-12
-2.97658e-17
1.82038e-12
-2.49159e-13
1.81677e-12
-5.09418e-13
1.86674e-12
-7.91547e-13
2.06185e-12
-1.10941e-12
2.33489e-12
-1.47427e-12
2.64168e-12
-1.90613e-12
3.17848e-12
-2.41803e-12
3.76137e-12
-3.042e-12
4.56269e-12
-3.79464e-12
5.54397e-12
-4.73195e-12
6.91307e-12
-5.87532e-12
8.37878e-12
-7.33024e-12
1.07502e-11
-9.12736e-12
1.32354e-11
-1.14774e-11
1.73632e-11
-1.44305e-11
2.17537e-11
-1.84386e-11
2.97492e-11
-2.3606e-11
3.80727e-11
-3.09888e-11
5.50042e-11
-4.08806e-11
7.31104e-11
-5.60856e-11
1.14016e-10
-7.76469e-11
1.6011e-10
-1.14683e-10
2.81928e-10
-1.71837e-10
4.2974e-10
-2.89252e-10
9.33418e-10
-4.94958e-10
1.63197e-09
-1.03136e-09
5.20486e-09
-2.03175e-09
1.12591e-08
-2.98548e-09
5.73253e-08
-2.56922e-09
4.9398e-08
-1.27041e-07
2.14522e-09
-1.29186e-07
2.8111e-09
4.87321e-08
2.09864e-09
5.80378e-08
1.09312e-09
1.22646e-08
5.37401e-10
5.7606e-09
3.15729e-10
1.85364e-09
1.88761e-10
1.06037e-09
1.26127e-10
4.92405e-10
8.55885e-11
3.22461e-10
6.18443e-11
1.83836e-10
4.51283e-11
1.30751e-10
3.42137e-11
8.40102e-11
2.60803e-11
6.31224e-11
2.03729e-11
4.38072e-11
1.59521e-11
3.41532e-11
1.26887e-11
2.50104e-11
1.00943e-11
1.99793e-11
8.10767e-12
1.52105e-11
6.50049e-12
1.23516e-11
5.23621e-12
9.66715e-12
4.20045e-12
7.94061e-12
3.36783e-12
6.35669e-12
2.67766e-12
5.27571e-12
2.1111e-12
4.32326e-12
1.63323e-12
3.64653e-12
1.22924e-12
3.06752e-12
8.77138e-13
2.67695e-12
5.64567e-13
2.37294e-12
2.76101e-13
2.17496e-12
5.43881e-19
2.09707e-12
-2.761e-13
2.0895e-12
-5.6458e-13
2.16644e-12
-8.77078e-13
2.38734e-12
-1.22905e-12
2.68985e-12
-1.63318e-12
3.04166e-12
-2.11104e-12
3.66071e-12
-2.6775e-12
4.32761e-12
-3.36768e-12
5.25029e-12
-4.20026e-12
6.36361e-12
-5.23614e-12
7.95323e-12
-6.50064e-12
9.63639e-12
-8.10771e-12
1.23633e-11
-1.00944e-11
1.5217e-11
-1.26887e-11
1.99599e-11
-1.59521e-11
2.50184e-11
-2.03729e-11
3.41669e-11
-2.60803e-11
4.37864e-11
-3.42137e-11
6.31382e-11
-4.51284e-11
8.4028e-11
-6.18445e-11
1.30731e-10
-8.55889e-11
1.83846e-10
-1.26127e-10
3.22462e-10
-1.88762e-10
4.92378e-10
-3.1573e-10
1.06038e-09
-5.37402e-10
1.85364e-09
-1.09312e-09
5.76058e-09
-2.09864e-09
1.22646e-08
-2.8111e-09
5.80378e-08
-2.14522e-09
4.87321e-08
-1.29186e-07
1.72658e-09
-1.30912e-07
2.63002e-09
4.78287e-08
2.15617e-09
5.85116e-08
1.15312e-09
1.32676e-08
5.80837e-10
6.33288e-09
3.43265e-10
2.0912e-09
2.06593e-10
1.19704e-09
1.38236e-10
5.60756e-10
9.40313e-11
3.66664e-10
6.79764e-11
2.09892e-10
4.96612e-11
1.4907e-10
3.76578e-11
9.60216e-11
2.8726e-11
7.20583e-11
2.24422e-11
5.00845e-11
1.75812e-11
3.90219e-11
1.3986e-11
2.86038e-11
1.11307e-11
2.28291e-11
8.94113e-12
1.73917e-11
7.1711e-12
1.41203e-11
5.77719e-12
1.10602e-11
4.63578e-12
9.08595e-12
3.71747e-12
7.27101e-12
2.95644e-12
6.03886e-12
2.33125e-12
4.94147e-12
1.80395e-12
4.16867e-12
1.35792e-12
3.51925e-12
9.69122e-13
3.06489e-12
6.23794e-13
2.71097e-12
3.05102e-13
2.5071e-12
1.60449e-17
2.40578e-12
-3.05043e-13
2.4012e-12
-6.2388e-13
2.48215e-12
-9.69067e-13
2.72655e-12
-1.35769e-12
3.07422e-12
-1.80392e-12
3.49492e-12
-2.33119e-12
4.18293e-12
-2.95622e-12
4.95183e-12
-3.71737e-12
6.01207e-12
-4.63556e-12
7.28657e-12
-5.77708e-12
9.09529e-12
-7.17127e-12
1.10387e-11
-8.94117e-12
1.41284e-11
-1.11306e-11
1.74091e-11
-1.3986e-11
2.28156e-11
-1.75811e-11
2.86159e-11
-2.24422e-11
3.90378e-11
-2.87261e-11
5.00582e-11
-3.76577e-11
7.20692e-11
-4.96612e-11
9.60269e-11
-6.79767e-11
1.4905e-10
-9.40317e-11
2.0991e-10
-1.38237e-10
3.66684e-10
-2.06593e-10
5.60727e-10
-3.43265e-10
1.19705e-09
-5.80838e-10
2.09122e-09
-1.15312e-09
6.33286e-09
-2.15617e-09
1.32677e-08
-2.63002e-09
5.85116e-08
-1.72658e-09
4.78287e-08
-1.30912e-07
1.31481e-09
-1.32227e-07
2.44271e-09
4.67008e-08
2.20382e-09
5.87505e-08
1.21094e-09
1.42605e-08
6.2508e-10
6.91874e-09
3.71811e-10
2.34447e-09
2.25334e-10
1.34353e-09
1.51028e-10
6.35065e-10