/*--------------------------------*- C++ -*----------------------------------*\
| =========                 |                                                 |
| \\      /  F ield         | foam-extend: Open Source CFD                    |
|  \\    /   O peration     | Version:     4.0                                |
|   \\  /    A nd           | Web:         http://www.foam-extend.org         |
|    \\/     M anipulation  |                                                 |
\*---------------------------------------------------------------------------*/
FoamFile
{
    version     2.0;
    format      ascii;
    class       volScalarField;
    location    "1990";
    object      psiE;
}
// * * * * * * * * * * * * * * * * * * * * * * * * * * * * * * * * * * * * * //

dimensions      [0 0 0 0 0 0 0];

internalField   nonuniform List<scalar> 
6960
(
0.323941
0.323941
0.323942
0.323942
0.323943
0.323943
0.323944
0.323944
0.323945
0.323945
0.323946
0.323946
0.323947
0.323947
0.323948
0.323948
0.323948
0.323949
0.323949
0.323949
0.32395
0.32395
0.32395
0.32395
0.32395
0.32395
0.32395
0.323951
0.323951
0.323951
0.323951
0.323951
0.323951
0.32395
0.32395
0.32395
0.32395
0.32395
0.32395
0.32395
0.323949
0.323949
0.323949
0.323948
0.323948
0.323948
0.323947
0.323947
0.323946
0.323946
0.323945
0.323945
0.323944
0.323944
0.323943
0.323943
0.323942
0.323942
0.323941
0.323941
0.79119
0.791192
0.791194
0.791196
0.791198
0.7912
0.791202
0.791205
0.791207
0.791209
0.791211
0.791212
0.791214
0.791216
0.791217
0.791219
0.79122
0.791221
0.791222
0.791223
0.791224
0.791225
0.791226
0.791227
0.791227
0.791228
0.791228
0.791228
0.791229
0.791229
0.791229
0.791229
0.791228
0.791228
0.791228
0.791227
0.791227
0.791226
0.791225
0.791224
0.791223
0.791222
0.791221
0.79122
0.791219
0.791217
0.791216
0.791214
0.791212
0.791211
0.791209
0.791207
0.791205
0.791202
0.7912
0.791198
0.791196
0.791194
0.791192
0.79119
1.19884
1.19885
1.19885
1.19886
1.19886
1.19886
1.19887
1.19887
1.19888
1.19888
1.19888
1.19889
1.19889
1.19889
1.1989
1.1989
1.1989
1.19891
1.19891
1.19891
1.19891
1.19891
1.19891
1.19892
1.19892
1.19892
1.19892
1.19892
1.19892
1.19892
1.19892
1.19892
1.19892
1.19892
1.19892
1.19892
1.19892
1.19891
1.19891
1.19891
1.19891
1.19891
1.19891
1.1989
1.1989
1.1989
1.19889
1.19889
1.19889
1.19888
1.19888
1.19888
1.19887
1.19887
1.19886
1.19886
1.19886
1.19885
1.19885
1.19884
1.58502
1.58503
1.58503
1.58504
1.58505
1.58505
1.58506
1.58507
1.58507
1.58508
1.58508
1.58509
1.5851
1.5851
1.58511
1.58511
1.58511
1.58512
1.58512
1.58512
1.58513
1.58513
1.58513
1.58513
1.58514
1.58514
1.58514
1.58514
1.58514
1.58514
1.58514
1.58514
1.58514
1.58514
1.58514
1.58514
1.58513
1.58513
1.58513
1.58513
1.58512
1.58512
1.58512
1.58511
1.58511
1.58511
1.5851
1.5851
1.58509
1.58508
1.58508
1.58507
1.58507
1.58506
1.58505
1.58505
1.58504
1.58503
1.58503
1.58502
1.96587
1.96588
1.96589
1.9659
1.96591
1.96592
1.96593
1.96594
1.96595
1.96595
1.96596
1.96597
1.96598
1.96598
1.96599
1.966
1.966
1.96601
1.96601
1.96602
1.96602
1.96603
1.96603
1.96603
1.96603
1.96604
1.96604
1.96604
1.96604
1.96604
1.96604
1.96604
1.96604
1.96604
1.96604
1.96603
1.96603
1.96603
1.96603
1.96602
1.96602
1.96601
1.96601
1.966
1.966
1.96599
1.96598
1.96598
1.96597
1.96596
1.96595
1.96595
1.96594
1.96593
1.96592
1.96591
1.9659
1.96589
1.96588
1.96587
2.34887
2.34888
2.34889
2.34891
2.34892
2.34893
2.34894
2.34896
2.34897
2.34898
2.34899
2.349
2.34901
2.34902
2.34903
2.34904
2.34904
2.34905
2.34906
2.34906
2.34907
2.34907
2.34908
2.34908
2.34908
2.34909
2.34909
2.34909
2.34909
2.34909
2.34909
2.34909
2.34909
2.34909
2.34909
2.34908
2.34908
2.34908
2.34907
2.34907
2.34906
2.34906
2.34905
2.34904
2.34904
2.34903
2.34902
2.34901
2.349
2.34899
2.34898
2.34897
2.34896
2.34894
2.34893
2.34892
2.34891
2.34889
2.34888
2.34887
2.7376
2.73761
2.73763
2.73765
2.73766
2.73768
2.73769
2.73771
2.73772
2.73774
2.73775
2.73777
2.73778
2.73779
2.7378
2.73781
2.73782
2.73783
2.73784
2.73784
2.73785
2.73786
2.73786
2.73787
2.73787
2.73787
2.73788
2.73788
2.73788
2.73788
2.73788
2.73788
2.73788
2.73788
2.73787
2.73787
2.73787
2.73786
2.73786
2.73785
2.73784
2.73784
2.73783
2.73782
2.73781
2.7378
2.73779
2.73778
2.73777
2.73775
2.73774
2.73772
2.73771
2.73769
2.73768
2.73766
2.73765
2.73763
2.73761
2.7376
3.13381
3.13382
3.13384
3.13386
3.13388
3.1339
3.13392
3.13394
3.13395
3.13397
3.13399
3.134
3.13402
3.13403
3.13405
3.13406
3.13407
3.13408
3.13409
3.1341
3.13411
3.13411
3.13412
3.13412
3.13413
3.13413
3.13414
3.13414
3.13414
3.13414
3.13414
3.13414
3.13414
3.13414
3.13413
3.13413
3.13412
3.13412
3.13411
3.13411
3.1341
3.13409
3.13408
3.13407
3.13406
3.13405
3.13403
3.13402
3.134
3.13399
3.13397
3.13395
3.13394
3.13392
3.1339
3.13388
3.13386
3.13384
3.13382
3.13381
3.53834
3.53836
3.53838
3.5384
3.53843
3.53845
3.53847
3.53849
3.53851
3.53853
3.53855
3.53857
3.53859
3.53861
3.53862
3.53864
3.53865
3.53866
3.53867
3.53868
3.53869
3.5387
3.53871
3.53871
3.53872
3.53872
3.53873
3.53873
3.53873
3.53873
3.53873
3.53873
3.53873
3.53873
3.53872
3.53872
3.53871
3.53871
3.5387
3.53869
3.53868
3.53867
3.53866
3.53865
3.53864
3.53862
3.53861
3.53859
3.53857
3.53855
3.53853
3.53851
3.53849
3.53847
3.53845
3.53843
3.5384
3.53838
3.53836
3.53834
3.95164
3.95165
3.95168
3.9517
3.95173
3.95176
3.95178
3.95181
3.95183
3.95186
3.95188
3.9519
3.95192
3.95194
3.95195
3.95197
3.95199
3.952
3.95201
3.95203
3.95204
3.95205
3.95205
3.95206
3.95207
3.95207
3.95208
3.95208
3.95208
3.95208
3.95208
3.95208
3.95208
3.95208
3.95207
3.95207
3.95206
3.95205
3.95205
3.95204
3.95203
3.95201
3.952
3.95199
3.95197
3.95195
3.95194
3.95192
3.9519
3.95188
3.95186
3.95183
3.95181
3.95178
3.95176
3.95173
3.9517
3.95168
3.95165
3.95164
4.3739
4.37392
4.37395
4.37398
4.37401
4.37404
4.37407
4.3741
4.37413
4.37415
4.37418
4.3742
4.37423
4.37425
4.37427
4.37428
4.3743
4.37432
4.37433
4.37435
4.37436
4.37437
4.37438
4.37439
4.37439
4.3744
4.37441
4.37441
4.37441
4.37441
4.37441
4.37441
4.37441
4.37441
4.3744
4.37439
4.37439
4.37438
4.37437
4.37436
4.37435
4.37433
4.37432
4.3743
4.37428
4.37427
4.37425
4.37423
4.3742
4.37418
4.37415
4.37413
4.3741
4.37407
4.37404
4.37401
4.37398
4.37395
4.37392
4.3739
4.80527
4.80529
4.80532
4.80535
4.80539
4.80542
4.80546
4.80549
4.80552
4.80555
4.80558
4.8056
4.80563
4.80565
4.80567
4.80569
4.80571
4.80573
4.80575
4.80576
4.80578
4.80579
4.8058
4.80581
4.80582
4.80582
4.80583
4.80583
4.80583
4.80584
4.80584
4.80583
4.80583
4.80583
4.80582
4.80582
4.80581
4.8058
4.80579
4.80578
4.80576
4.80575
4.80573
4.80571
4.80569
4.80567
4.80565
4.80563
4.8056
4.80558
4.80555
4.80552
4.80549
4.80546
4.80542
4.80539
4.80535
4.80532
4.80529
4.80527
5.24578
5.24581
5.24584
5.24588
5.24592
5.24596
5.24599
5.24603
5.24606
5.24609
5.24613
5.24615
5.24618
5.24621
5.24623
5.24626
5.24628
5.2463
5.24632
5.24633
5.24635
5.24636
5.24637
5.24638
5.24639
5.2464
5.24641
5.24641
5.24641
5.24641
5.24641
5.24641
5.24641
5.24641
5.2464
5.24639
5.24638
5.24637
5.24636
5.24635
5.24633
5.24632
5.2463
5.24628
5.24626
5.24623
5.24621
5.24618
5.24615
5.24613
5.24609
5.24606
5.24603
5.24599
5.24596
5.24592
5.24588
5.24584
5.24581
5.24578
5.69548
5.69551
5.69555
5.69559
5.69563
5.69567
5.69571
5.69575
5.69579
5.69582
5.69585
5.69589
5.69592
5.69595
5.69597
5.696
5.69602
5.69604
5.69606
5.69608
5.6961
5.69611
5.69613
5.69614
5.69615
5.69616
5.69616
5.69617
5.69617
5.69617
5.69617
5.69617
5.69617
5.69616
5.69616
5.69615
5.69614
5.69613
5.69611
5.6961
5.69608
5.69606
5.69604
5.69602
5.696
5.69597
5.69595
5.69592
5.69589
5.69585
5.69582
5.69579
5.69575
5.69571
5.69567
5.69563
5.69559
5.69555
5.69551
5.69548
6.15435
6.15438
6.15442
6.15447
6.15451
6.15456
6.1546
6.15464
6.15468
6.15472
6.15476
6.1548
6.15483
6.15486
6.15489
6.15492
6.15494
6.15497
6.15499
6.15501
6.15503
6.15504
6.15506
6.15507
6.15508
6.15509
6.1551
6.1551
6.1551
6.15511
6.15511
6.1551
6.1551
6.1551
6.15509
6.15508
6.15507
6.15506
6.15504
6.15503
6.15501
6.15499
6.15497
6.15494
6.15492
6.15489
6.15486
6.15483
6.1548
6.15476
6.15472
6.15468
6.15464
6.1546
6.15456
6.15451
6.15447
6.15442
6.15438
6.15435
6.62237
6.62241
6.62245
6.6225
6.62255
6.6226
6.62264
6.62269
6.62273
6.62277
6.62281
6.62285
6.62289
6.62292
6.62295
6.62298
6.62301
6.62304
6.62306
6.62308
6.6231
6.62312
6.62314
6.62315
6.62316
6.62317
6.62318
6.62318
6.62319
6.62319
6.62319
6.62319
6.62318
6.62318
6.62317
6.62316
6.62315
6.62314
6.62312
6.6231
6.62308
6.62306
6.62304
6.62301
6.62298
6.62295
6.62292
6.62289
6.62285
6.62281
6.62277
6.62273
6.62269
6.62264
6.6226
6.62255
6.6225
6.62245
6.62241
6.62237
7.09949
7.09952
7.09957
7.09962
7.09967
7.09973
7.09978
7.09983
7.09987
7.09992
7.09996
7.1
7.10004
7.10008
7.10011
7.10015
7.10018
7.1002
7.10023
7.10025
7.10027
7.10029
7.10031
7.10032
7.10034
7.10035
7.10035
7.10036
7.10036
7.10037
7.10037
7.10036
7.10036
7.10035
7.10035
7.10034
7.10032
7.10031
7.10029
7.10027
7.10025
7.10023
7.1002
7.10018
7.10015
7.10011
7.10008
7.10004
7.1
7.09996
7.09992
7.09987
7.09983
7.09978
7.09973
7.09967
7.09962
7.09957
7.09952
7.09949
7.58561
7.58565
7.5857
7.58576
7.58581
7.58587
7.58592
7.58598
7.58603
7.58608
7.58612
7.58617
7.58621
7.58625
7.58628
7.58632
7.58635
7.58638
7.58641
7.58643
7.58645
7.58647
7.58649
7.58651
7.58652
7.58653
7.58654
7.58655
7.58655
7.58655
7.58655
7.58655
7.58655
7.58654
7.58653
7.58652
7.58651
7.58649
7.58647
7.58645
7.58643
7.58641
7.58638
7.58635
7.58632
7.58628
7.58625
7.58621
7.58617
7.58612
7.58608
7.58603
7.58598
7.58592
7.58587
7.58581
7.58576
7.5857
7.58565
7.58561
8.08064
8.08068
8.08073
8.08079
8.08085
8.08091
8.08097
8.08102
8.08108
8.08113
8.08118
8.08123
8.08127
8.08131
8.08135
8.08139
8.08142
8.08145
8.08148
8.08151
8.08153
8.08156
8.08157
8.08159
8.08161
8.08162
8.08163
8.08163
8.08164
8.08164
8.08164
8.08164
8.08163
8.08163
8.08162
8.08161
8.08159
8.08157
8.08156
8.08153
8.08151
8.08148
8.08145
8.08142
8.08139
8.08135
8.08131
8.08127
8.08123
8.08118
8.08113
8.08108
8.08102
8.08097
8.08091
8.08085
8.08079
8.08073
8.08068
8.08064
8.58441
8.58445
8.58451
8.58457
8.58463
8.5847
8.58476
8.58482
8.58488
8.58493
8.58498
8.58503
8.58508
8.58513
8.58517
8.58521
8.58524
8.58528
8.58531
8.58534
8.58536
8.58538
8.58541
8.58542
8.58544
8.58545
8.58546
8.58547
8.58547
8.58548
8.58548
8.58547
8.58547
8.58546
8.58545
8.58544
8.58542
8.58541
8.58538
8.58536
8.58534
8.58531
8.58528
8.58524
8.58521
8.58517
8.58513
8.58508
8.58503
8.58498
8.58493
8.58488
8.58482
8.58476
8.5847
8.58463
8.58457
8.58451
8.58445
8.58441
9.09674
9.09679
9.09685
9.09691
9.09698
9.09705
9.09711
9.09718
9.09724
9.0973
9.09735
9.0974
9.09745
9.0975
9.09755
9.09759
9.09763
9.09766
9.09769
9.09772
9.09775
9.09778
9.0978
9.09782
9.09783
9.09785
9.09786
9.09786
9.09787
9.09787
9.09787
9.09787
9.09786
9.09786
9.09785
9.09783
9.09782
9.0978
9.09778
9.09775
9.09772
9.09769
9.09766
9.09763
9.09759
9.09755
9.0975
9.09745
9.0974
9.09735
9.0973
9.09724
9.09718
9.09711
9.09705
9.09698
9.09691
9.09685
9.09679
9.09674
9.61741
9.61745
9.61752
9.61759
9.61766
9.61773
9.6178
9.61787
9.61793
9.61799
9.61805
9.61811
9.61816
9.61821
9.61826
9.6183
9.61834
9.61838
9.61841
9.61844
9.61847
9.6185
9.61852
9.61854
9.61856
9.61857
9.61858
9.61859
9.6186
9.6186
9.6186
9.6186
9.61859
9.61858
9.61857
9.61856
9.61854
9.61852
9.6185
9.61847
9.61844
9.61841
9.61838
9.61834
9.6183
9.61826
9.61821
9.61816
9.61811
9.61805
9.61799
9.61793
9.61787
9.6178
9.61773
9.61766
9.61759
9.61752
9.61745
9.61741
10.1461
10.1462
10.1462
10.1463
10.1464
10.1465
10.1465
10.1466
10.1467
10.1467
10.1468
10.1469
10.1469
10.147
10.147
10.1471
10.1471
10.1471
10.1472
10.1472
10.1472
10.1473
10.1473
10.1473
10.1473
10.1473
10.1474
10.1474
10.1474
10.1474
10.1474
10.1474
10.1474
10.1474
10.1473
10.1473
10.1473
10.1473
10.1473
10.1472
10.1472
10.1472
10.1471
10.1471
10.1471
10.147
10.147
10.1469
10.1469
10.1468
10.1467
10.1467
10.1466
10.1465
10.1465
10.1464
10.1463
10.1462
10.1462
10.1461
10.6826
10.6826
10.6827
10.6828
10.6828
10.6829
10.683
10.6831
10.6831
10.6832
10.6833
10.6833
10.6834
10.6834
10.6835
10.6835
10.6836
10.6836
10.6837
10.6837
10.6837
10.6838
10.6838
10.6838
10.6838
10.6838
10.6839
10.6839
10.6839
10.6839
10.6839
10.6839
10.6839
10.6839
10.6838
10.6838
10.6838
10.6838
10.6838
10.6837
10.6837
10.6837
10.6836
10.6836
10.6835
10.6835
10.6834
10.6834
10.6833
10.6833
10.6832
10.6831
10.6831
10.683
10.6829
10.6828
10.6828
10.6827
10.6826
10.6826
11.2263
11.2264
11.2264
11.2265
11.2266
11.2267
11.2268
11.2268
11.2269
11.227
11.2271
11.2271
11.2272
11.2272
11.2273
11.2273
11.2274
11.2274
11.2275
11.2275
11.2275
11.2276
11.2276
11.2276
11.2276
11.2277
11.2277
11.2277
11.2277
11.2277
11.2277
11.2277
11.2277
11.2277
11.2277
11.2276
11.2276
11.2276
11.2276
11.2275
11.2275
11.2275
11.2274
11.2274
11.2273
11.2273
11.2272
11.2272
11.2271
11.2271
11.227
11.2269
11.2268
11.2268
11.2267
11.2266
11.2265
11.2264
11.2264
11.2263
11.7769
11.777
11.7771
11.7771
11.7772
11.7773
11.7774
11.7775
11.7776
11.7776
11.7777
11.7778
11.7778
11.7779
11.778
11.778
11.7781
11.7781
11.7781
11.7782
11.7782
11.7782
11.7783
11.7783
11.7783
11.7783
11.7783
11.7784
11.7784
11.7784
11.7784
11.7784
11.7784
11.7783
11.7783
11.7783
11.7783
11.7783
11.7782
11.7782
11.7782
11.7781
11.7781
11.7781
11.778
11.778
11.7779
11.7778
11.7778
11.7777
11.7776
11.7776
11.7775
11.7774
11.7773
11.7772
11.7771
11.7771
11.777
11.7769
12.3339
12.3339
12.334
12.3341
12.3342
12.3343
12.3344
12.3344
12.3345
12.3346
12.3347
12.3347
12.3348
12.3349
12.3349
12.335
12.335
12.3351
12.3351
12.3352
12.3352
12.3352
12.3353
12.3353
12.3353
12.3353
12.3353
12.3353
12.3354
12.3354
12.3354
12.3354
12.3353
12.3353
12.3353
12.3353
12.3353
12.3353
12.3352
12.3352
12.3352
12.3351
12.3351
12.335
12.335
12.3349
12.3349
12.3348
12.3347
12.3347
12.3346
12.3345
12.3344
12.3344
12.3343
12.3342
12.3341
12.334
12.3339
12.3339
12.8965
12.8966
12.8966
12.8967
12.8968
12.8969
12.897
12.8971
12.8972
12.8973
12.8973
12.8974
12.8975
12.8975
12.8976
12.8977
12.8977
12.8978
12.8978
12.8978
12.8979
12.8979
12.8979
12.898
12.898
12.898
12.898
12.898
12.898
12.898
12.898
12.898
12.898
12.898
12.898
12.898
12.898
12.8979
12.8979
12.8979
12.8978
12.8978
12.8978
12.8977
12.8977
12.8976
12.8975
12.8975
12.8974
12.8973
12.8973
12.8972
12.8971
12.897
12.8969
12.8968
12.8967
12.8966
12.8966
12.8965
13.4641
13.4642
13.4642
13.4643
13.4644
13.4645
13.4646
13.4647
13.4648
13.4649
13.465
13.465
13.4651
13.4652
13.4652
13.4653
13.4653
13.4654
13.4654
13.4655
13.4655
13.4656
13.4656
13.4656
13.4656
13.4657
13.4657
13.4657
13.4657
13.4657
13.4657
13.4657
13.4657
13.4657
13.4657
13.4656
13.4656
13.4656
13.4656
13.4655
13.4655
13.4654
13.4654
13.4653
13.4653
13.4652
13.4652
13.4651
13.465
13.465
13.4649
13.4648
13.4647
13.4646
13.4645
13.4644
13.4643
13.4642
13.4642
13.4641
14.0358
14.0359
14.036
14.0361
14.0362
14.0363
14.0364
14.0364
14.0365
14.0366
14.0367
14.0368
14.0369
14.0369
14.037
14.037
14.0371
14.0372
14.0372
14.0372
14.0373
14.0373
14.0374
14.0374
14.0374
14.0374
14.0374
14.0375
14.0375
14.0375
14.0375
14.0375
14.0375
14.0374
14.0374
14.0374
14.0374
14.0374
14.0373
14.0373
14.0372
14.0372
14.0372
14.0371
14.037
14.037
14.0369
14.0369
14.0368
14.0367
14.0366
14.0365
14.0364
14.0364
14.0363
14.0362
14.0361
14.036
14.0359
14.0358
14.6107
14.6108
14.6109
14.611
14.6111
14.6112
14.6113
14.6113
14.6114
14.6115
14.6116
14.6117
14.6118
14.6118
14.6119
14.612
14.612
14.6121
14.6121
14.6122
14.6122
14.6122
14.6123
14.6123
14.6123
14.6124
14.6124
14.6124
14.6124
14.6124
14.6124
14.6124
14.6124
14.6124
14.6124
14.6123
14.6123
14.6123
14.6122
14.6122
14.6122
14.6121
14.6121
14.612
14.612
14.6119
14.6118
14.6118
14.6117
14.6116
14.6115
14.6114
14.6113
14.6113
14.6112
14.6111
14.611
14.6109
14.6108
14.6107
15.1876
15.1877
15.1878
15.1879
15.188
15.1881
15.1882
15.1883
15.1884
15.1885
15.1886
15.1886
15.1887
15.1888
15.1889
15.1889
15.189
15.189
15.1891
15.1891
15.1892
15.1892
15.1893
15.1893
15.1893
15.1893
15.1893
15.1894
15.1894
15.1894
15.1894
15.1894
15.1894
15.1893
15.1893
15.1893
15.1893
15.1893
15.1892
15.1892
15.1891
15.1891
15.189
15.189
15.1889
15.1889
15.1888
15.1887
15.1886
15.1886
15.1885
15.1884
15.1883
15.1882
15.1881
15.188
15.1879
15.1878
15.1877
15.1876
15.7653
15.7654
15.7655
15.7656
15.7657
15.7658
15.7659
15.766
15.7661
15.7662
15.7663
15.7664
15.7665
15.7665
15.7666
15.7667
15.7667
15.7668
15.7668
15.7669
15.7669
15.767
15.767
15.767
15.767
15.7671
15.7671
15.7671
15.7671
15.7671
15.7671
15.7671
15.7671
15.7671
15.7671
15.767
15.767
15.767
15.767
15.7669
15.7669
15.7668
15.7668
15.7667
15.7667
15.7666
15.7665
15.7665
15.7664
15.7663
15.7662
15.7661
15.766
15.7659
15.7658
15.7657
15.7656
15.7655
15.7654
15.7653
16.3423
16.3424
16.3425
16.3426
16.3427
16.3428
16.3429
16.343
16.3431
16.3432
16.3433
16.3434
16.3435
16.3435
16.3436
16.3437
16.3437
16.3438
16.3439
16.3439
16.3439
16.344
16.344
16.3441
16.3441
16.3441
16.3441
16.3441
16.3441
16.3441
16.3441
16.3441
16.3441
16.3441
16.3441
16.3441
16.3441
16.344
16.344
16.3439
16.3439
16.3439
16.3438
16.3437
16.3437
16.3436
16.3435
16.3435
16.3434
16.3433
16.3432
16.3431
16.343
16.3429
16.3428
16.3427
16.3426
16.3425
16.3424
16.3423
16.9169
16.917
16.9171
16.9172
16.9173
16.9174
16.9175
16.9176
16.9177
16.9178
16.9179
16.918
16.9181
16.9182
16.9182
16.9183
16.9184
16.9184
16.9185
16.9185
16.9186
16.9186
16.9186
16.9187
16.9187
16.9187
16.9187
16.9188
16.9188
16.9188
16.9188
16.9188
16.9188
16.9187
16.9187
16.9187
16.9187
16.9186
16.9186
16.9186
16.9185
16.9185
16.9184
16.9184
16.9183
16.9182
16.9182
16.9181
16.918
16.9179
16.9178
16.9177
16.9176
16.9175
16.9174
16.9173
16.9172
16.9171
16.917
16.9169
17.4872
17.4872
17.4873
17.4874
17.4875
17.4877
17.4878
17.4879
17.488
17.4881
17.4881
17.4882
17.4883
17.4884
17.4885
17.4885
17.4886
17.4887
17.4887
17.4888
17.4888
17.4888
17.4889
17.4889
17.4889
17.489
17.489
17.489
17.489
17.489
17.489
17.489
17.489
17.489
17.489
17.4889
17.4889
17.4889
17.4888
17.4888
17.4888
17.4887
17.4887
17.4886
17.4885
17.4885
17.4884
17.4883
17.4882
17.4881
17.4881
17.488
17.4879
17.4878
17.4877
17.4875
17.4874
17.4873
17.4872
17.4872
18.0507
18.0508
18.0509
18.051
18.0511
18.0512
18.0513
18.0514
18.0515
18.0516
18.0517
18.0518
18.0519
18.052
18.052
18.0521
18.0522
18.0522
18.0523
18.0523
18.0524
18.0524
18.0525
18.0525
18.0525
18.0525
18.0526
18.0526
18.0526
18.0526
18.0526
18.0526
18.0526
18.0526
18.0525
18.0525
18.0525
18.0525
18.0524
18.0524
18.0523
18.0523
18.0522
18.0522
18.0521
18.052
18.052
18.0519
18.0518
18.0517
18.0516
18.0515
18.0514
18.0513
18.0512
18.0511
18.051
18.0509
18.0508
18.0507
18.605
18.605
18.6051
18.6052
18.6054
18.6055
18.6056
18.6057
18.6058
18.6059
18.606
18.606
18.6061
18.6062
18.6063
18.6063
18.6064
18.6065
18.6065
18.6066
18.6066
18.6067
18.6067
18.6067
18.6068
18.6068
18.6068
18.6068
18.6068
18.6068
18.6068
18.6068
18.6068
18.6068
18.6068
18.6068
18.6067
18.6067
18.6067
18.6066
18.6066
18.6065
18.6065
18.6064
18.6063
18.6063
18.6062
18.6061
18.606
18.606
18.6059
18.6058
18.6057
18.6056
18.6055
18.6054
18.6052
18.6051
18.605
18.605
19.1468
19.1468
19.1469
19.147
19.1471
19.1473
19.1474
19.1475
19.1476
19.1477
19.1477
19.1478
19.1479
19.148
19.1481
19.1481
19.1482
19.1483
19.1483
19.1484
19.1484
19.1484
19.1485
19.1485
19.1485
19.1486
19.1486
19.1486
19.1486
19.1486
19.1486
19.1486
19.1486
19.1486
19.1486
19.1485
19.1485
19.1485
19.1484
19.1484
19.1484
19.1483
19.1483
19.1482
19.1481
19.1481
19.148
19.1479
19.1478
19.1477
19.1477
19.1476
19.1475
19.1474
19.1473
19.1471
19.147
19.1469
19.1468
19.1468
19.6724
19.6725
19.6726
19.6727
19.6728
19.6729
19.673
19.6731
19.6732
19.6733
19.6734
19.6735
19.6736
19.6736
19.6737
19.6738
19.6738
19.6739
19.674
19.674
19.674
19.6741
19.6741
19.6742
19.6742
19.6742
19.6742
19.6742
19.6742
19.6742
19.6742
19.6742
19.6742
19.6742
19.6742
19.6742
19.6742
19.6741
19.6741
19.674
19.674
19.674
19.6739
19.6738
19.6738
19.6737
19.6736
19.6736
19.6735
19.6734
19.6733
19.6732
19.6731
19.673
19.6729
19.6728
19.6727
19.6726
19.6725
19.6724
20.1776
20.1777
20.1778
20.1779
20.178
20.1781
20.1782
20.1783
20.1784
20.1785
20.1786
20.1786
20.1787
20.1788
20.1789
20.1789
20.179
20.179
20.1791
20.1791
20.1792
20.1792
20.1793
20.1793
20.1793
20.1793
20.1794
20.1794
20.1794
20.1794
20.1794
20.1794
20.1794
20.1794
20.1793
20.1793
20.1793
20.1793
20.1792
20.1792
20.1791
20.1791
20.179
20.179
20.1789
20.1789
20.1788
20.1787
20.1786
20.1786
20.1785
20.1784
20.1783
20.1782
20.1781
20.178
20.1779
20.1778
20.1777
20.1776
20.6572
20.6572
20.6573
20.6574
20.6575
20.6576
20.6577
20.6578
20.6579
20.658
20.6581
20.6581
20.6582
20.6583
20.6584
20.6584
20.6585
20.6585
20.6586
20.6586
20.6587
20.6587
20.6587
20.6588
20.6588
20.6588
20.6588
20.6589
20.6589
20.6589
20.6589
20.6589
20.6589
20.6588
20.6588
20.6588
20.6588
20.6587
20.6587
20.6587
20.6586
20.6586
20.6585
20.6585
20.6584
20.6584
20.6583
20.6582
20.6581
20.6581
20.658
20.6579
20.6578
20.6577
20.6576
20.6575
20.6574
20.6573
20.6572
20.6572
21.1052
21.1052
21.1053
21.1054
21.1055
21.1056
21.1057
21.1058
21.1058
21.1059
21.106
21.1061
21.1061
21.1062
21.1063
21.1063
21.1064
21.1064
21.1065
21.1065
21.1066
21.1066
21.1066
21.1067
21.1067
21.1067
21.1067
21.1067
21.1067
21.1067
21.1067
21.1067
21.1067
21.1067
21.1067
21.1067
21.1067
21.1066
21.1066
21.1066
21.1065
21.1065
21.1064
21.1064
21.1063
21.1063
21.1062
21.1061
21.1061
21.106
21.1059
21.1058
21.1058
21.1057
21.1056
21.1055
21.1054
21.1053
21.1052
21.1052
21.515
21.5151
21.5152
21.5152
21.5153
21.5154
21.5155
21.5156
21.5156
21.5157
21.5158
21.5159
21.5159
21.516
21.516
21.5161
21.5162
21.5162
21.5162
21.5163
21.5163
21.5164
21.5164
21.5164
21.5164
21.5165
21.5165
21.5165
21.5165
21.5165
21.5165
21.5165
21.5165
21.5165
21.5165
21.5164
21.5164
21.5164
21.5164
21.5163
21.5163
21.5162
21.5162
21.5162
21.5161
21.516
21.516
21.5159
21.5159
21.5158
21.5157
21.5156
21.5156
21.5155
21.5154
21.5153
21.5152
21.5152
21.5151
21.515
21.8804
21.8804
21.8805
21.8805
21.8806
21.8807
21.8808
21.8808
21.8809
21.881
21.881
21.8811
21.8812
21.8812
21.8813
21.8813
21.8814
21.8814
21.8814
21.8815
21.8815
21.8815
21.8816
21.8816
21.8816
21.8816
21.8816
21.8817
21.8817
21.8817
21.8817
21.8817
21.8817
21.8816
21.8816
21.8816
21.8816
21.8816
21.8815
21.8815
21.8815
21.8814
21.8814
21.8814
21.8813
21.8813
21.8812
21.8812
21.8811
21.881
21.881
21.8809
21.8808
21.8808
21.8807
21.8806
21.8805
21.8805
21.8804
21.8804
22.1962
22.1962
22.1962
22.1963
22.1964
22.1964
22.1965
22.1966
22.1966
22.1967
22.1967
22.1968
22.1968
22.1969
22.1969
22.197
22.197
22.1971
22.1971
22.1971
22.1972
22.1972
22.1972
22.1972
22.1972
22.1973
22.1973
22.1973
22.1973
22.1973
22.1973
22.1973
22.1973
22.1973
22.1973
22.1972
22.1972
22.1972
22.1972
22.1972
22.1971
22.1971
22.1971
22.197
22.197
22.1969
22.1969
22.1968
22.1968
22.1967
22.1967
22.1966
22.1966
22.1965
22.1964
22.1964
22.1963
22.1962
22.1962
22.1962
22.4605
22.4606
22.4606
22.4607
22.4607
22.4608
22.4608
22.4609
22.4609
22.461
22.461
22.4611
22.4611
22.4612
22.4612
22.4612
22.4613
22.4613
22.4613
22.4614
22.4614
22.4614
22.4614
22.4615
22.4615
22.4615
22.4615
22.4615
22.4615
22.4615
22.4615
22.4615
22.4615
22.4615
22.4615
22.4615
22.4615
22.4614
22.4614
22.4614
22.4614
22.4613
22.4613
22.4613
22.4612
22.4612
22.4612
22.4611
22.4611
22.461
22.461
22.4609
22.4609
22.4608
22.4608
22.4607
22.4607
22.4606
22.4606
22.4605
22.6759
22.6759
22.6759
22.676
22.676
22.676
22.6761
22.6761
22.6762
22.6762
22.6763
22.6763
22.6763
22.6764
22.6764
22.6764
22.6765
22.6765
22.6765
22.6766
22.6766
22.6766
22.6766
22.6766
22.6766
22.6767
22.6767
22.6767
22.6767
22.6767
22.6767
22.6767
22.6767
22.6767
22.6767
22.6766
22.6766
22.6766
22.6766
22.6766
22.6766
22.6765
22.6765
22.6765
22.6764
22.6764
22.6764
22.6763
22.6763
22.6763
22.6762
22.6762
22.6761
22.6761
22.676
22.676
22.676
22.6759
22.6759
22.6759
22.8484
22.8485
22.8485
22.8485
22.8485
22.8486
22.8486
22.8486
22.8487
22.8487
22.8488
22.8488
22.8488
22.8489
22.8489
22.8489
22.8489
22.849
22.849
22.849
22.849
22.8491
22.8491
22.8491
22.8491
22.8491
22.8491
22.8491
22.8491
22.8491
22.8491
22.8491
22.8491
22.8491
22.8491
22.8491
22.8491
22.8491
22.8491
22.849
22.849
22.849
22.849
22.8489
22.8489
22.8489
22.8489
22.8488
22.8488
22.8488
22.8487
22.8487
22.8486
22.8486
22.8486
22.8485
22.8485
22.8485
22.8485
22.8484
22.9867
22.9867
22.9867
22.9868
22.9868
22.9868
22.9868
22.9869
22.9869
22.9869
22.987
22.987
22.987
22.9871
22.9871
22.9871
22.9871
22.9872
22.9872
22.9872
22.9872
22.9872
22.9873
22.9873
22.9873
22.9873
22.9873
22.9873
22.9873
22.9873
22.9873
22.9873
22.9873
22.9873
22.9873
22.9873
22.9873
22.9873
22.9872
22.9872
22.9872
22.9872
22.9872
22.9871
22.9871
22.9871
22.9871
22.987
22.987
22.987
22.9869
22.9869
22.9869
22.9868
22.9868
22.9868
22.9868
22.9867
22.9867
22.9867
23.0992
23.0992
23.0992
23.0993
23.0993
23.0993
23.0993
23.0994
23.0994
23.0994
23.0994
23.0995
23.0995
23.0995
23.0995
23.0996
23.0996
23.0996
23.0996
23.0996
23.0997
23.0997
23.0997
23.0997
23.0997
23.0997
23.0997
23.0997
23.0997
23.0997
23.0997
23.0997
23.0997
23.0997
23.0997
23.0997
23.0997
23.0997
23.0997
23.0997
23.0996
23.0996
23.0996
23.0996
23.0996
23.0995
23.0995
23.0995
23.0995
23.0994
23.0994
23.0994
23.0994
23.0993
23.0993
23.0993
23.0993
23.0992
23.0992
23.0992
23.1931
23.1931
23.1931
23.1931
23.1931
23.1931
23.1932
23.1932
23.1932
23.1932
23.1933
23.1933
23.1933
23.1933
23.1934
23.1934
23.1934
23.1934
23.1935
23.1935
23.1935
23.1935
23.1935
23.1935
23.1935
23.1935
23.1936
23.1936
23.1936
23.1936
23.1936
23.1936
23.1936
23.1936
23.1935
23.1935
23.1935
23.1935
23.1935
23.1935
23.1935
23.1935
23.1934
23.1934
23.1934
23.1934
23.1933
23.1933
23.1933
23.1933
23.1932
23.1932
23.1932
23.1932
23.1931
23.1931
23.1931
23.1931
23.1931
23.1931
23.2736
23.2736
23.2736
23.2736
23.2736
23.2736
23.2736
23.2737
23.2737
23.2737
23.2737
23.2738
23.2738
23.2738
23.2738
23.2739
23.2739
23.2739
23.2739
23.2739
23.2739
23.274
23.274
23.274
23.274
23.274
23.274
23.274
23.274
23.274
23.274
23.274
23.274
23.274
23.274
23.274
23.274
23.274
23.274
23.2739
23.2739
23.2739
23.2739
23.2739
23.2739
23.2738
23.2738
23.2738
23.2738
23.2737
23.2737
23.2737
23.2737
23.2736
23.2736
23.2736
23.2736
23.2736
23.2736
23.2736
23.3443
23.3443
23.3443
23.3443
23.3443
23.3443
23.3443
23.3444
23.3444
23.3444
23.3444
23.3445
23.3445
23.3445
23.3445
23.3445
23.3446
23.3446
23.3446
23.3446
23.3446
23.3447
23.3447
23.3447
23.3447
23.3447
23.3447
23.3447
23.3447
23.3447
23.3447
23.3447
23.3447
23.3447
23.3447
23.3447
23.3447
23.3447
23.3447
23.3446
23.3446
23.3446
23.3446
23.3446
23.3445
23.3445
23.3445
23.3445
23.3445
23.3444
23.3444
23.3444
23.3444
23.3443
23.3443
23.3443
23.3443
23.3443
23.3443
23.3443
23.4076
23.4076
23.4076
23.4076
23.4076
23.4076
23.4077
23.4077
23.4077
23.4077
23.4078
23.4078
23.4078
23.4078
23.4079
23.4079
23.4079
23.4079
23.4079
23.408
23.408
23.408
23.408
23.408
23.408
23.408
23.408
23.408
23.408
23.408
23.408
23.408
23.408
23.408
23.408
23.408
23.408
23.408
23.408
23.408
23.408
23.4079
23.4079
23.4079
23.4079
23.4079
23.4078
23.4078
23.4078
23.4078
23.4077
23.4077
23.4077
23.4077
23.4076
23.4076
23.4076
23.4076
23.4076
23.4076
23.4652
23.4652
23.4652
23.4652
23.4652
23.4652
23.4652
23.4653
23.4653
23.4653
23.4653
23.4654
23.4654
23.4654
23.4654
23.4655
23.4655
23.4655
23.4655
23.4655
23.4656
23.4656
23.4656
23.4656
23.4656
23.4656
23.4656
23.4656
23.4656
23.4656
23.4656
23.4656
23.4656
23.4656
23.4656
23.4656
23.4656
23.4656
23.4656
23.4656
23.4655
23.4655
23.4655
23.4655
23.4655
23.4654
23.4654
23.4654
23.4654
23.4653
23.4653
23.4653
23.4653
23.4652
23.4652
23.4652
23.4652
23.4652
23.4652
23.4652
23.5181
23.5181
23.5182
23.5182
23.5182
23.5182
23.5182
23.5182
23.5183
23.5183
23.5183
23.5183
23.5184
23.5184
23.5184
23.5184
23.5184
23.5185
23.5185
23.5185
23.5185
23.5185
23.5186
23.5186
23.5186
23.5186
23.5186
23.5186
23.5186
23.5186
23.5186
23.5186
23.5186
23.5186
23.5186
23.5186
23.5186
23.5186
23.5185
23.5185
23.5185
23.5185
23.5185
23.5184
23.5184
23.5184
23.5184
23.5184
23.5183
23.5183
23.5183
23.5183
23.5182
23.5182
23.5182
23.5182
23.5182
23.5182
23.5181
23.5181
23.5673
23.5673
23.5673
23.5673
23.5673
23.5673
23.5674
23.5674
23.5674
23.5674
23.5675
23.5675
23.5675
23.5675
23.5676
23.5676
23.5676
23.5676
23.5676
23.5677
23.5677
23.5677
23.5677
23.5677
23.5677
23.5677
23.5678
23.5678
23.5678
23.5678
23.5678
23.5678
23.5678
23.5678
23.5677
23.5677
23.5677
23.5677
23.5677
23.5677
23.5677
23.5676
23.5676
23.5676
23.5676
23.5676
23.5675
23.5675
23.5675
23.5675
23.5674
23.5674
23.5674
23.5674
23.5673
23.5673
23.5673
23.5673
23.5673
23.5673
23.6132
23.6132
23.6133
23.6133
23.6133
23.6133
23.6133
23.6133
23.6134
23.6134
23.6134
23.6134
23.6135
23.6135
23.6135
23.6135
23.6136
23.6136
23.6136
23.6136
23.6136
23.6137
23.6137
23.6137
23.6137
23.6137
23.6137
23.6137
23.6137
23.6137
23.6137
23.6137
23.6137
23.6137
23.6137
23.6137
23.6137
23.6137
23.6137
23.6136
23.6136
23.6136
23.6136
23.6136
23.6135
23.6135
23.6135
23.6135
23.6134
23.6134
23.6134
23.6134
23.6133
23.6133
23.6133
23.6133
23.6133
23.6133
23.6132
23.6132
23.6565
23.6565
23.6565
23.6565
23.6565
23.6565
23.6565
23.6566
23.6566
23.6566
23.6566
23.6567
23.6567
23.6567
23.6567
23.6568
23.6568
23.6568
23.6568
23.6569
23.6569
23.6569
23.6569
23.6569
23.6569
23.6569
23.6569
23.657
23.657
23.657
23.657
23.657
23.657
23.6569
23.6569
23.6569
23.6569
23.6569
23.6569
23.6569
23.6569
23.6568
23.6568
23.6568
23.6568
23.6567
23.6567
23.6567
23.6567
23.6566
23.6566
23.6566
23.6566
23.6565
23.6565
23.6565
23.6565
23.6565
23.6565
23.6565
23.6973
23.6973
23.6973
23.6973
23.6974
23.6974
23.6974
23.6974
23.6974
23.6975
23.6975
23.6975
23.6976
23.6976
23.6976
23.6976
23.6977
23.6977
23.6977
23.6977
23.6978
23.6978
23.6978
23.6978
23.6978
23.6978
23.6978
23.6978
23.6978
23.6978
23.6978
23.6978
23.6978
23.6978
23.6978
23.6978
23.6978
23.6978
23.6978
23.6978
23.6977
23.6977
23.6977
23.6977
23.6976
23.6976
23.6976
23.6976
23.6975
23.6975
23.6975
23.6974
23.6974
23.6974
23.6974
23.6974
23.6973
23.6973
23.6973
23.6973
23.7361
23.7361
23.7361
23.7362
23.7362
23.7362
23.7362
23.7362
23.7363
23.7363
23.7363