/*--------------------------------*- C++ -*----------------------------------*\
| =========                 |                                                 |
| \\      /  F ield         | foam-extend: Open Source CFD                    |
|  \\    /   O peration     | Version:     4.0                                |
|   \\  /    A nd           | Web:         http://www.foam-extend.org         |
|    \\/     M anipulation  |                                                 |
\*---------------------------------------------------------------------------*/
FoamFile
{
    version     2.0;
    format      ascii;
    class       volScalarField;
    location    "1460";
    object      cMinus;
}
// * * * * * * * * * * * * * * * * * * * * * * * * * * * * * * * * * * * * * //

dimensions      [0 0 0 0 0 0 0];

internalField   nonuniform List<scalar> 
6960
(
1.72546e-23
1.72638e-23
1.72622e-23
1.72588e-23
1.72552e-23
1.72518e-23
1.72487e-23
1.72459e-23
1.72435e-23
1.72414e-23
1.72396e-23
1.7238e-23
1.72366e-23
1.72354e-23
1.72344e-23
1.72335e-23
1.72328e-23
1.72322e-23
1.72316e-23
1.72312e-23
1.72308e-23
1.72305e-23
1.72302e-23
1.723e-23
1.72299e-23
1.72297e-23
1.72296e-23
1.72295e-23
1.72295e-23
1.72295e-23
1.72295e-23
1.72295e-23
1.72295e-23
1.72296e-23
1.72297e-23
1.72299e-23
1.723e-23
1.72302e-23
1.72305e-23
1.72308e-23
1.72312e-23
1.72316e-23
1.72322e-23
1.72328e-23
1.72335e-23
1.72344e-23
1.72354e-23
1.72366e-23
1.7238e-23
1.72396e-23
1.72414e-23
1.72435e-23
1.72459e-23
1.72487e-23
1.72518e-23
1.72552e-23
1.72588e-23
1.72622e-23
1.72638e-23
1.72546e-23
7.30292e-23
7.30735e-23
7.30728e-23
7.30641e-23
7.30542e-23
7.30446e-23
7.30357e-23
7.30278e-23
7.30209e-23
7.30147e-23
7.30093e-23
7.30047e-23
7.30006e-23
7.29971e-23
7.29941e-23
7.29914e-23
7.29892e-23
7.29873e-23
7.29857e-23
7.29843e-23
7.29832e-23
7.29823e-23
7.29815e-23
7.29808e-23
7.29803e-23
7.29799e-23
7.29796e-23
7.29794e-23
7.29792e-23
7.29791e-23
7.29791e-23
7.29792e-23
7.29794e-23
7.29796e-23
7.29799e-23
7.29803e-23
7.29808e-23
7.29815e-23
7.29823e-23
7.29832e-23
7.29843e-23
7.29857e-23
7.29873e-23
7.29892e-23
7.29914e-23
7.29941e-23
7.29971e-23
7.30006e-23
7.30047e-23
7.30093e-23
7.30147e-23
7.30209e-23
7.30278e-23
7.30357e-23
7.30446e-23
7.30542e-23
7.30641e-23
7.30728e-23
7.30735e-23
7.30292e-23
2.26264e-22
2.26419e-22
2.26438e-22
2.26432e-22
2.2642e-22
2.26407e-22
2.26395e-22
2.26384e-22
2.26374e-22
2.26365e-22
2.26356e-22
2.26349e-22
2.26343e-22
2.26337e-22
2.26332e-22
2.26328e-22
2.26324e-22
2.26321e-22
2.26318e-22
2.26316e-22
2.26314e-22
2.26312e-22
2.26311e-22
2.2631e-22
2.26309e-22
2.26308e-22
2.26308e-22
2.26307e-22
2.26307e-22
2.26307e-22
2.26307e-22
2.26307e-22
2.26307e-22
2.26308e-22
2.26308e-22
2.26309e-22
2.2631e-22
2.26311e-22
2.26312e-22
2.26314e-22
2.26316e-22
2.26318e-22
2.26321e-22
2.26324e-22
2.26328e-22
2.26332e-22
2.26337e-22
2.26343e-22
2.26349e-22
2.26356e-22
2.26365e-22
2.26374e-22
2.26384e-22
2.26395e-22
2.26407e-22
2.2642e-22
2.26432e-22
2.26438e-22
2.26419e-22
2.26264e-22
6.51645e-22
6.5215e-22
6.52274e-22
6.52325e-22
6.52354e-22
6.52374e-22
6.52389e-22
6.524e-22
6.52409e-22
6.52416e-22
6.52421e-22
6.52425e-22
6.52427e-22
6.52429e-22
6.52429e-22
6.5243e-22
6.5243e-22
6.52429e-22
6.52429e-22
6.52428e-22
6.52428e-22
6.52427e-22
6.52427e-22
6.52427e-22
6.52427e-22
6.52426e-22
6.52426e-22
6.52426e-22
6.52426e-22
6.52426e-22
6.52426e-22
6.52426e-22
6.52426e-22
6.52426e-22
6.52426e-22
6.52427e-22
6.52427e-22
6.52427e-22
6.52427e-22
6.52428e-22
6.52428e-22
6.52429e-22
6.52429e-22
6.5243e-22
6.5243e-22
6.52429e-22
6.52429e-22
6.52427e-22
6.52425e-22
6.52421e-22
6.52416e-22
6.52409e-22
6.524e-22
6.52389e-22
6.52374e-22
6.52354e-22
6.52325e-22
6.52274e-22
6.5215e-22
6.51645e-22
1.85994e-21
1.86157e-21
1.86214e-21
1.8625e-21
1.86278e-21
1.86302e-21
1.86322e-21
1.86339e-21
1.86353e-21
1.86366e-21
1.86376e-21
1.86385e-21
1.86392e-21
1.86398e-21
1.86403e-21
1.86407e-21
1.8641e-21
1.86413e-21
1.86415e-21
1.86417e-21
1.86418e-21
1.8642e-21
1.86421e-21
1.86421e-21
1.86422e-21
1.86423e-21
1.86423e-21
1.86423e-21
1.86424e-21
1.86424e-21
1.86424e-21
1.86424e-21
1.86423e-21
1.86423e-21
1.86423e-21
1.86422e-21
1.86421e-21
1.86421e-21
1.8642e-21
1.86418e-21
1.86417e-21
1.86415e-21
1.86413e-21
1.8641e-21
1.86407e-21
1.86403e-21
1.86398e-21
1.86392e-21
1.86385e-21
1.86376e-21
1.86366e-21
1.86353e-21
1.86339e-21
1.86322e-21
1.86302e-21
1.86278e-21
1.8625e-21
1.86214e-21
1.86157e-21
1.85994e-21
5.37934e-21
5.38459e-21
5.38692e-21
5.38862e-21
5.39005e-21
5.39128e-21
5.39234e-21
5.39326e-21
5.39405e-21
5.39472e-21
5.3953e-21
5.39578e-21
5.39619e-21
5.39653e-21
5.39682e-21
5.39706e-21
5.39726e-21
5.39742e-21
5.39756e-21
5.39767e-21
5.39777e-21
5.39784e-21
5.39791e-21
5.39796e-21
5.398e-21
5.39803e-21
5.39806e-21
5.39808e-21
5.39809e-21
5.3981e-21
5.3981e-21
5.39809e-21
5.39808e-21
5.39806e-21
5.39803e-21
5.398e-21
5.39796e-21
5.39791e-21
5.39784e-21
5.39777e-21
5.39767e-21
5.39756e-21
5.39742e-21
5.39726e-21
5.39706e-21
5.39682e-21
5.39653e-21
5.39619e-21
5.39578e-21
5.3953e-21
5.39472e-21
5.39405e-21
5.39326e-21
5.39234e-21
5.39128e-21
5.39005e-21
5.38862e-21
5.38692e-21
5.38459e-21
5.37934e-21
1.58969e-20
1.59141e-20
1.5923e-20
1.59301e-20
1.59361e-20
1.59415e-20
1.59461e-20
1.59501e-20
1.59536e-20
1.59565e-20
1.59591e-20
1.59612e-20
1.59631e-20
1.59646e-20
1.59659e-20
1.5967e-20
1.59679e-20
1.59686e-20
1.59693e-20
1.59698e-20
1.59702e-20
1.59706e-20
1.59709e-20
1.59711e-20
1.59713e-20
1.59715e-20
1.59716e-20
1.59717e-20
1.59717e-20
1.59717e-20
1.59717e-20
1.59717e-20
1.59717e-20
1.59716e-20
1.59715e-20
1.59713e-20
1.59711e-20
1.59709e-20
1.59706e-20
1.59702e-20
1.59698e-20
1.59693e-20
1.59686e-20
1.59679e-20
1.5967e-20
1.59659e-20
1.59646e-20
1.59631e-20
1.59612e-20
1.59591e-20
1.59565e-20
1.59536e-20
1.59501e-20
1.59461e-20
1.59415e-20
1.59361e-20
1.59301e-20
1.5923e-20
1.59141e-20
1.58969e-20
4.81557e-20
4.82132e-20
4.82466e-20
4.82743e-20
4.82986e-20
4.832e-20
4.83386e-20
4.83549e-20
4.83689e-20
4.8381e-20
4.83913e-20
4.84001e-20
4.84076e-20
4.84139e-20
4.84192e-20
4.84236e-20
4.84274e-20
4.84305e-20
4.84331e-20
4.84353e-20
4.8437e-20
4.84385e-20
4.84398e-20
4.84408e-20
4.84416e-20
4.84422e-20
4.84427e-20
4.8443e-20
4.84433e-20
4.84434e-20
4.84434e-20
4.84433e-20
4.8443e-20
4.84427e-20
4.84422e-20
4.84416e-20
4.84408e-20
4.84398e-20
4.84385e-20
4.8437e-20
4.84353e-20
4.84331e-20
4.84305e-20
4.84274e-20
4.84236e-20
4.84192e-20
4.84139e-20
4.84076e-20
4.84001e-20
4.83913e-20
4.8381e-20
4.83689e-20
4.83549e-20
4.83386e-20
4.832e-20
4.82986e-20
4.82743e-20
4.82466e-20
4.82132e-20
4.81557e-20
1.49731e-19
1.49926e-19
1.5005e-19
1.50157e-19
1.50251e-19
1.50334e-19
1.50407e-19
1.5047e-19
1.50525e-19
1.50573e-19
1.50613e-19
1.50648e-19
1.50677e-19
1.50702e-19
1.50723e-19
1.5074e-19
1.50755e-19
1.50767e-19
1.50778e-19
1.50786e-19
1.50793e-19
1.50799e-19
1.50804e-19
1.50808e-19
1.50811e-19
1.50814e-19
1.50816e-19
1.50817e-19
1.50818e-19
1.50819e-19
1.50819e-19
1.50818e-19
1.50817e-19
1.50816e-19
1.50814e-19
1.50811e-19
1.50808e-19
1.50804e-19
1.50799e-19
1.50793e-19
1.50786e-19
1.50778e-19
1.50767e-19
1.50755e-19
1.5074e-19
1.50723e-19
1.50702e-19
1.50677e-19
1.50648e-19
1.50613e-19
1.50573e-19
1.50525e-19
1.5047e-19
1.50407e-19
1.50334e-19
1.50251e-19
1.50157e-19
1.5005e-19
1.49926e-19
1.49731e-19
4.78131e-19
4.78808e-19
4.79272e-19
4.79677e-19
4.80039e-19
4.80358e-19
4.80639e-19
4.80885e-19
4.81097e-19
4.8128e-19
4.81437e-19
4.81571e-19
4.81685e-19
4.81781e-19
4.81863e-19
4.81931e-19
4.81989e-19
4.82037e-19
4.82077e-19
4.82111e-19
4.82138e-19
4.82161e-19
4.8218e-19
4.82196e-19
4.82208e-19
4.82218e-19
4.82226e-19
4.82231e-19
4.82235e-19
4.82237e-19
4.82237e-19
4.82235e-19
4.82231e-19
4.82226e-19
4.82218e-19
4.82208e-19
4.82196e-19
4.8218e-19
4.82161e-19
4.82138e-19
4.82111e-19
4.82077e-19
4.82037e-19
4.81989e-19
4.81931e-19
4.81863e-19
4.81781e-19
4.81685e-19
4.81571e-19
4.81437e-19
4.8128e-19
4.81097e-19
4.80885e-19
4.80639e-19
4.80358e-19
4.80039e-19
4.79677e-19
4.79272e-19
4.78808e-19
4.78131e-19
1.56843e-18
1.57083e-18
1.57257e-18
1.57412e-18
1.57551e-18
1.57674e-18
1.57783e-18
1.57877e-18
1.57959e-18
1.5803e-18
1.58091e-18
1.58143e-18
1.58187e-18
1.58224e-18
1.58256e-18
1.58282e-18
1.58304e-18
1.58323e-18
1.58339e-18
1.58352e-18
1.58363e-18
1.58372e-18
1.58379e-18
1.58385e-18
1.5839e-18
1.58394e-18
1.58397e-18
1.58399e-18
1.584e-18
1.58401e-18
1.58401e-18
1.584e-18
1.58399e-18
1.58397e-18
1.58394e-18
1.5839e-18
1.58385e-18
1.58379e-18
1.58372e-18
1.58363e-18
1.58352e-18
1.58339e-18
1.58323e-18
1.58304e-18
1.58282e-18
1.58256e-18
1.58224e-18
1.58187e-18
1.58143e-18
1.58091e-18
1.5803e-18
1.57959e-18
1.57877e-18
1.57783e-18
1.57674e-18
1.57551e-18
1.57412e-18
1.57257e-18
1.57083e-18
1.56843e-18
5.28563e-18
5.29433e-18
5.30096e-18
5.30693e-18
5.31231e-18
5.31708e-18
5.32129e-18
5.32497e-18
5.32816e-18
5.33091e-18
5.33327e-18
5.33529e-18
5.33701e-18
5.33846e-18
5.33969e-18
5.34073e-18
5.3416e-18
5.34233e-18
5.34294e-18
5.34345e-18
5.34387e-18
5.34422e-18
5.34451e-18
5.34475e-18
5.34494e-18
5.34509e-18
5.3452e-18
5.34529e-18
5.34534e-18
5.34537e-18
5.34537e-18
5.34534e-18
5.34529e-18
5.3452e-18
5.34509e-18
5.34494e-18
5.34475e-18
5.34451e-18
5.34422e-18
5.34387e-18
5.34345e-18
5.34294e-18
5.34233e-18
5.3416e-18
5.34073e-18
5.33969e-18
5.33846e-18
5.33701e-18
5.33529e-18
5.33327e-18
5.33091e-18
5.32816e-18
5.32497e-18
5.32129e-18
5.31708e-18
5.31231e-18
5.30693e-18
5.30096e-18
5.29433e-18
5.28563e-18
1.82984e-17
1.83307e-17
1.83563e-17
1.83796e-17
1.84007e-17
1.84194e-17
1.84359e-17
1.84503e-17
1.84629e-17
1.84737e-17
1.8483e-17
1.84909e-17
1.84977e-17
1.85034e-17
1.85083e-17
1.85123e-17
1.85158e-17
1.85187e-17
1.85211e-17
1.85231e-17
1.85248e-17
1.85261e-17
1.85273e-17
1.85282e-17
1.8529e-17
1.85296e-17
1.853e-17
1.85303e-17
1.85306e-17
1.85307e-17
1.85307e-17
1.85306e-17
1.85303e-17
1.853e-17
1.85296e-17
1.8529e-17
1.85282e-17
1.85273e-17
1.85261e-17
1.85248e-17
1.85231e-17
1.85211e-17
1.85187e-17
1.85158e-17
1.85123e-17
1.85083e-17
1.85034e-17
1.84977e-17
1.84909e-17
1.8483e-17
1.84737e-17
1.84629e-17
1.84503e-17
1.84359e-17
1.84194e-17
1.84007e-17
1.83796e-17
1.83563e-17
1.83307e-17
1.82984e-17
6.50618e-17
6.51842e-17
6.52848e-17
6.53772e-17
6.54609e-17
6.55354e-17
6.56012e-17
6.56587e-17
6.57086e-17
6.57518e-17
6.57888e-17
6.58205e-17
6.58475e-17
6.58703e-17
6.58897e-17
6.5906e-17
6.59197e-17
6.59312e-17
6.59409e-17
6.59489e-17
6.59556e-17
6.59611e-17
6.59657e-17
6.59694e-17
6.59724e-17
6.59748e-17
6.59766e-17
6.59779e-17
6.59788e-17
6.59792e-17
6.59792e-17
6.59788e-17
6.59779e-17
6.59766e-17
6.59748e-17
6.59724e-17
6.59694e-17
6.59657e-17
6.59611e-17
6.59556e-17
6.59489e-17
6.59409e-17
6.59312e-17
6.59197e-17
6.5906e-17
6.58897e-17
6.58703e-17
6.58475e-17
6.58205e-17
6.57888e-17
6.57518e-17
6.57086e-17
6.56587e-17
6.56012e-17
6.55354e-17
6.54609e-17
6.53772e-17
6.52848e-17
6.51842e-17
6.50618e-17
2.37507e-16
2.37982e-16
2.38385e-16
2.38757e-16
2.39095e-16
2.39397e-16
2.39662e-16
2.39895e-16
2.40097e-16
2.40272e-16
2.40422e-16
2.4055e-16
2.4066e-16
2.40752e-16
2.40831e-16
2.40897e-16
2.40953e-16
2.40999e-16
2.41038e-16
2.41071e-16
2.41098e-16
2.41121e-16
2.41139e-16
2.41155e-16
2.41167e-16
2.41176e-16
2.41184e-16
2.41189e-16
2.41193e-16
2.41194e-16
2.41194e-16
2.41193e-16
2.41189e-16
2.41184e-16
2.41176e-16
2.41167e-16
2.41155e-16
2.41139e-16
2.41121e-16
2.41098e-16
2.41071e-16
2.41038e-16
2.40999e-16
2.40953e-16
2.40897e-16
2.40831e-16
2.40752e-16
2.4066e-16
2.4055e-16
2.40422e-16
2.40272e-16
2.40097e-16
2.39895e-16
2.39662e-16
2.39397e-16
2.39095e-16
2.38757e-16
2.38385e-16
2.37982e-16
2.37507e-16
8.8967e-16
8.91555e-16
8.93196e-16
8.94724e-16
8.96112e-16
8.97352e-16
8.98446e-16
8.99403e-16
9.00235e-16
9.00954e-16
9.01572e-16
9.02101e-16
9.02551e-16
9.02933e-16
9.03257e-16
9.0353e-16
9.03759e-16
9.03952e-16
9.04113e-16
9.04248e-16
9.0436e-16
9.04453e-16
9.0453e-16
9.04592e-16
9.04643e-16
9.04683e-16
9.04713e-16
9.04735e-16
9.0475e-16
9.04757e-16
9.04757e-16
9.0475e-16
9.04735e-16
9.04713e-16
9.04683e-16
9.04643e-16
9.04592e-16
9.0453e-16
9.04453e-16
9.0436e-16
9.04248e-16
9.04113e-16
9.03952e-16
9.03759e-16
9.0353e-16
9.03257e-16
9.02933e-16
9.02551e-16
9.02101e-16
9.01572e-16
9.00954e-16
9.00235e-16
8.99403e-16
8.98446e-16
8.97352e-16
8.96112e-16
8.94724e-16
8.93196e-16
8.91555e-16
8.8967e-16
3.41706e-15
3.42471e-15
3.43153e-15
3.4379e-15
3.44371e-15
3.44889e-15
3.45347e-15
3.45748e-15
3.46097e-15
3.46398e-15
3.46657e-15
3.46878e-15
3.47067e-15
3.47227e-15
3.47363e-15
3.47477e-15
3.47573e-15
3.47654e-15
3.47722e-15
3.47779e-15
3.47826e-15
3.47865e-15
3.47897e-15
3.47923e-15
3.47944e-15
3.47961e-15
3.47974e-15
3.47983e-15
3.47989e-15
3.47992e-15
3.47992e-15
3.47989e-15
3.47983e-15
3.47974e-15
3.47961e-15
3.47944e-15
3.47923e-15
3.47897e-15
3.47865e-15
3.47826e-15
3.47779e-15
3.47722e-15
3.47654e-15
3.47573e-15
3.47477e-15
3.47363e-15
3.47227e-15
3.47067e-15
3.46878e-15
3.46657e-15
3.46398e-15
3.46097e-15
3.45748e-15
3.45347e-15
3.44889e-15
3.44371e-15
3.4379e-15
3.43153e-15
3.42471e-15
3.41706e-15
1.34435e-14
1.34751e-14
1.3504e-14
1.35311e-14
1.35557e-14
1.35778e-14
1.35973e-14
1.36144e-14
1.36292e-14
1.36421e-14
1.36531e-14
1.36625e-14
1.36706e-14
1.36774e-14
1.36832e-14
1.36881e-14
1.36922e-14
1.36956e-14
1.36985e-14
1.37009e-14
1.37029e-14
1.37046e-14
1.3706e-14
1.37071e-14
1.3708e-14
1.37087e-14
1.37093e-14
1.37097e-14
1.37099e-14
1.371e-14
1.371e-14
1.37099e-14
1.37097e-14
1.37093e-14
1.37087e-14
1.3708e-14
1.37071e-14
1.3706e-14
1.37046e-14
1.37029e-14
1.37009e-14
1.36985e-14
1.36956e-14
1.36922e-14
1.36881e-14
1.36832e-14
1.36774e-14
1.36706e-14
1.36625e-14
1.36531e-14
1.36421e-14
1.36292e-14
1.36144e-14
1.35973e-14
1.35778e-14
1.35557e-14
1.35311e-14
1.3504e-14
1.34751e-14
1.34435e-14
5.41052e-14
5.42391e-14
5.43632e-14
5.44802e-14
5.4587e-14
5.46825e-14
5.47668e-14
5.48407e-14
5.4905e-14
5.49606e-14
5.50084e-14
5.50492e-14
5.50841e-14
5.51137e-14
5.51388e-14
5.51599e-14
5.51777e-14
5.51927e-14
5.52052e-14
5.52157e-14
5.52244e-14
5.52316e-14
5.52376e-14
5.52425e-14
5.52464e-14
5.52495e-14
5.52518e-14
5.52536e-14
5.52547e-14
5.52552e-14
5.52552e-14
5.52547e-14
5.52536e-14
5.52518e-14
5.52495e-14
5.52464e-14
5.52425e-14
5.52376e-14
5.52316e-14
5.52244e-14
5.52157e-14
5.52052e-14
5.51927e-14
5.51777e-14
5.51599e-14
5.51388e-14
5.51137e-14
5.50841e-14
5.50492e-14
5.50084e-14
5.49606e-14
5.4905e-14
5.48407e-14
5.47668e-14
5.46825e-14
5.4587e-14
5.44802e-14
5.43632e-14
5.42391e-14
5.41052e-14
2.22397e-13
2.22973e-13
2.23516e-13
2.24029e-13
2.24498e-13
2.24917e-13
2.25288e-13
2.25613e-13
2.25896e-13
2.2614e-13
2.2635e-13
2.2653e-13
2.26683e-13
2.26813e-13
2.26924e-13
2.27017e-13
2.27095e-13
2.27161e-13
2.27216e-13
2.27262e-13
2.273e-13
2.27332e-13
2.27359e-13
2.2738e-13
2.27397e-13
2.27411e-13
2.27421e-13
2.27429e-13
2.27434e-13
2.27436e-13
2.27436e-13
2.27434e-13
2.27429e-13
2.27421e-13
2.27411e-13
2.27397e-13
2.2738e-13
2.27359e-13
2.27332e-13
2.273e-13
2.27262e-13
2.27216e-13
2.27161e-13
2.27095e-13
2.27017e-13
2.26924e-13
2.26813e-13
2.26683e-13
2.2653e-13
2.2635e-13
2.2614e-13
2.25896e-13
2.25613e-13
2.25288e-13
2.24917e-13
2.24498e-13
2.24029e-13
2.23516e-13
2.22973e-13
2.22397e-13
9.31759e-13
9.34279e-13
9.36687e-13
9.3897e-13
9.41056e-13
9.42924e-13
9.44575e-13
9.46022e-13
9.4728e-13
9.48369e-13
9.49305e-13
9.50107e-13
9.5079e-13
9.51371e-13
9.51862e-13
9.52277e-13
9.52627e-13
9.52921e-13
9.53167e-13
9.53372e-13
9.53543e-13
9.53685e-13
9.53802e-13
9.53898e-13
9.53975e-13
9.54036e-13
9.54082e-13
9.54116e-13
9.54138e-13
9.54148e-13
9.54148e-13
9.54138e-13
9.54116e-13
9.54082e-13
9.54036e-13
9.53975e-13
9.53898e-13
9.53802e-13
9.53685e-13
9.53543e-13
9.53372e-13
9.53167e-13
9.52921e-13
9.52627e-13
9.52277e-13
9.51862e-13
9.51371e-13
9.5079e-13
9.50107e-13
9.49305e-13
9.48369e-13
9.4728e-13
9.46022e-13
9.44575e-13
9.42924e-13
9.41056e-13
9.3897e-13
9.36687e-13
9.34279e-13
9.31759e-13
3.96913e-12
3.98031e-12
3.99112e-12
4.00139e-12
4.01078e-12
4.01919e-12
4.02662e-12
4.03314e-12
4.03881e-12
4.04372e-12
4.04794e-12
4.05155e-12
4.05463e-12
4.05724e-12
4.05946e-12
4.06133e-12
4.06291e-12
4.06423e-12
4.06534e-12
4.06627e-12
4.06704e-12
4.06768e-12
4.06821e-12
4.06864e-12
4.06899e-12
4.06926e-12
4.06947e-12
4.06962e-12
4.06972e-12
4.06977e-12
4.06977e-12
4.06972e-12
4.06962e-12
4.06947e-12
4.06926e-12
4.06899e-12
4.06864e-12
4.06821e-12
4.06768e-12
4.06704e-12
4.06627e-12
4.06534e-12
4.06423e-12
4.06291e-12
4.06133e-12
4.05946e-12
4.05724e-12
4.05463e-12
4.05155e-12
4.04794e-12
4.04372e-12
4.03881e-12
4.03314e-12
4.02662e-12
4.01919e-12
4.01078e-12
4.00139e-12
3.99112e-12
3.98031e-12
3.96913e-12
1.71404e-11
1.71905e-11
1.72395e-11
1.72861e-11
1.73287e-11
1.73669e-11
1.74006e-11
1.74302e-11
1.7456e-11
1.74783e-11
1.74974e-11
1.75139e-11
1.75278e-11
1.75397e-11
1.75498e-11
1.75583e-11
1.75655e-11
1.75715e-11
1.75766e-11
1.75808e-11
1.75843e-11
1.75872e-11
1.75896e-11
1.75915e-11
1.75931e-11
1.75944e-11
1.75953e-11
1.7596e-11
1.75965e-11
1.75967e-11
1.75967e-11
1.75965e-11
1.7596e-11
1.75953e-11
1.75944e-11
1.75931e-11
1.75915e-11
1.75896e-11
1.75872e-11
1.75843e-11
1.75808e-11
1.75766e-11
1.75715e-11
1.75655e-11
1.75583e-11
1.75498e-11
1.75397e-11
1.75278e-11
1.75139e-11
1.74974e-11
1.74783e-11
1.7456e-11
1.74302e-11
1.74006e-11
1.73669e-11
1.73287e-11
1.72861e-11
1.72395e-11
1.71905e-11
1.71404e-11
7.47747e-11
7.50005e-11
7.52235e-11
7.5436e-11
7.56304e-11
7.58046e-11
7.59586e-11
7.60937e-11
7.62113e-11
7.63129e-11
7.64004e-11
7.64753e-11
7.65392e-11
7.65935e-11
7.66395e-11
7.66783e-11
7.67111e-11
7.67386e-11
7.67616e-11
7.67809e-11
7.67969e-11
7.68102e-11
7.68211e-11
7.68301e-11
7.68373e-11
7.6843e-11
7.68473e-11
7.68505e-11
7.68525e-11
7.68536e-11
7.68536e-11
7.68525e-11
7.68505e-11
7.68473e-11
7.6843e-11
7.68373e-11
7.68301e-11
7.68211e-11
7.68102e-11
7.67969e-11
7.67809e-11
7.67616e-11
7.67386e-11
7.67111e-11
7.66783e-11
7.66395e-11
7.65935e-11
7.65392e-11
7.64753e-11
7.64004e-11
7.63129e-11
7.62113e-11
7.60937e-11
7.59586e-11
7.58046e-11
7.56304e-11
7.5436e-11
7.52235e-11
7.50005e-11
7.47747e-11
3.28168e-10
3.29189e-10
3.30205e-10
3.31174e-10
3.32062e-10
3.32857e-10
3.3356e-10
3.34176e-10
3.34713e-10
3.35177e-10
3.35577e-10
3.35919e-10
3.3621e-10
3.36458e-10
3.36668e-10
3.36846e-10
3.36995e-10
3.37121e-10
3.37226e-10
3.37314e-10
3.37387e-10
3.37448e-10
3.37498e-10
3.37539e-10
3.37572e-10
3.37598e-10
3.37618e-10
3.37632e-10
3.37642e-10
3.37646e-10
3.37646e-10
3.37642e-10
3.37632e-10
3.37618e-10
3.37598e-10
3.37572e-10
3.37539e-10
3.37498e-10
3.37448e-10
3.37387e-10
3.37314e-10
3.37226e-10
3.37121e-10
3.36995e-10
3.36846e-10
3.36668e-10
3.36458e-10
3.3621e-10
3.35919e-10
3.35577e-10
3.35177e-10
3.34713e-10
3.34176e-10
3.3356e-10
3.32857e-10
3.32062e-10
3.31174e-10
3.30205e-10
3.29189e-10
3.28168e-10
1.44194e-09
1.44654e-09
1.45116e-09
1.45556e-09
1.45959e-09
1.4632e-09
1.4664e-09
1.4692e-09
1.47164e-09
1.47375e-09
1.47556e-09
1.47711e-09
1.47844e-09
1.47957e-09
1.48052e-09
1.48133e-09
1.48201e-09
1.48258e-09
1.48306e-09
1.48346e-09
1.48379e-09
1.48407e-09
1.48429e-09
1.48448e-09
1.48463e-09
1.48475e-09
1.48484e-09
1.4849e-09
1.48495e-09
1.48497e-09
1.48497e-09
1.48495e-09
1.4849e-09
1.48484e-09
1.48475e-09
1.48463e-09
1.48448e-09
1.48429e-09
1.48407e-09
1.48379e-09
1.48346e-09
1.48306e-09
1.48258e-09
1.48201e-09
1.48133e-09
1.48052e-09
1.47957e-09
1.47844e-09
1.47711e-09
1.47556e-09
1.47375e-09
1.47164e-09
1.4692e-09
1.4664e-09
1.4632e-09
1.45959e-09
1.45556e-09
1.45116e-09
1.44654e-09
1.44194e-09
6.30787e-09
6.32846e-09
6.3492e-09
6.36898e-09
6.3871e-09
6.40333e-09
6.41769e-09
6.43028e-09
6.44125e-09
6.45073e-09
6.45889e-09
6.46588e-09
6.47184e-09
6.47691e-09
6.4812e-09
6.48483e-09
6.48788e-09
6.49045e-09
6.4926e-09
6.4944e-09
6.4959e-09
6.49714e-09
6.49816e-09
6.499e-09
6.49967e-09
6.5002e-09
6.50061e-09
6.5009e-09
6.5011e-09
6.50119e-09
6.50119e-09
6.5011e-09
6.5009e-09
6.50061e-09
6.5002e-09
6.49967e-09
6.499e-09
6.49816e-09
6.49714e-09
6.4959e-09
6.4944e-09
6.4926e-09
6.49045e-09
6.48788e-09
6.48483e-09
6.4812e-09
6.47691e-09
6.47184e-09
6.46588e-09
6.45889e-09
6.45073e-09
6.44125e-09
6.43028e-09
6.41769e-09
6.40333e-09
6.3871e-09
6.36898e-09
6.3492e-09
6.32846e-09
6.30787e-09
2.72976e-08
2.73882e-08
2.74798e-08
2.75673e-08
2.76473e-08
2.7719e-08
2.77824e-08
2.7838e-08
2.78865e-08
2.79283e-08
2.79644e-08
2.79953e-08
2.80216e-08
2.8044e-08
2.8063e-08
2.8079e-08
2.80925e-08
2.81038e-08
2.81133e-08
2.81213e-08
2.81279e-08
2.81334e-08
2.81379e-08
2.81416e-08
2.81446e-08
2.81469e-08
2.81487e-08
2.815e-08
2.81509e-08
2.81513e-08
2.81513e-08
2.81509e-08
2.815e-08
2.81487e-08
2.81469e-08
2.81446e-08
2.81416e-08
2.81379e-08
2.81334e-08
2.81279e-08
2.81213e-08
2.81133e-08
2.81038e-08
2.80925e-08
2.8079e-08
2.8063e-08
2.8044e-08
2.80216e-08
2.79953e-08
2.79644e-08
2.79283e-08
2.78865e-08
2.7838e-08
2.77824e-08
2.7719e-08
2.76473e-08
2.75673e-08
2.74798e-08
2.73882e-08
2.72976e-08
1.16014e-07
1.16404e-07
1.16799e-07
1.17176e-07
1.1752e-07
1.17829e-07
1.18102e-07
1.18342e-07
1.1855e-07
1.18731e-07
1.18886e-07
1.19019e-07
1.19132e-07
1.19229e-07
1.1931e-07
1.19379e-07
1.19438e-07
1.19486e-07
1.19527e-07
1.19562e-07
1.1959e-07
1.19614e-07
1.19633e-07
1.19649e-07
1.19662e-07
1.19672e-07
1.1968e-07
1.19685e-07
1.19689e-07
1.19691e-07
1.19691e-07
1.19689e-07
1.19685e-07
1.1968e-07
1.19672e-07
1.19662e-07
1.19649e-07
1.19633e-07
1.19614e-07
1.1959e-07
1.19562e-07
1.19527e-07
1.19486e-07
1.19438e-07
1.19379e-07
1.1931e-07
1.19229e-07
1.19132e-07
1.19019e-07
1.18886e-07
1.18731e-07
1.1855e-07
1.18342e-07
1.18102e-07
1.17829e-07
1.1752e-07
1.17176e-07
1.16799e-07
1.16404e-07
1.16014e-07
4.80264e-07
4.81886e-07
4.83531e-07
4.85099e-07
4.86534e-07
4.87818e-07
4.88955e-07
4.89952e-07
4.9082e-07
4.9157e-07
4.92216e-07
4.9277e-07
4.93242e-07
4.93643e-07
4.93983e-07
4.9427e-07
4.94512e-07
4.94716e-07
4.94886e-07
4.95029e-07
4.95147e-07
4.95246e-07
4.95327e-07
4.95393e-07
4.95446e-07
4.95488e-07
4.95521e-07
4.95544e-07
4.95559e-07
4.95567e-07
4.95567e-07
4.95559e-07
4.95544e-07
4.95521e-07
4.95488e-07
4.95446e-07
4.95393e-07
4.95327e-07
4.95246e-07
4.95147e-07
4.95029e-07
4.94886e-07
4.94716e-07
4.94512e-07
4.9427e-07
4.93983e-07
4.93643e-07
4.93242e-07
4.9277e-07
4.92216e-07
4.9157e-07
4.9082e-07
4.89952e-07
4.88955e-07
4.87818e-07
4.86534e-07
4.85099e-07
4.83531e-07
4.81886e-07
4.80264e-07
1.91881e-06
1.92528e-06
1.93184e-06
1.93808e-06
1.94379e-06
1.94891e-06
1.95343e-06
1.9574e-06
1.96085e-06
1.96384e-06
1.96641e-06
1.96861e-06
1.97049e-06
1.97208e-06
1.97344e-06
1.97458e-06
1.97554e-06
1.97635e-06
1.97703e-06
1.9776e-06
1.97807e-06
1.97846e-06
1.97879e-06
1.97905e-06
1.97926e-06
1.97943e-06
1.97956e-06
1.97965e-06
1.97971e-06
1.97974e-06
1.97974e-06
1.97971e-06
1.97965e-06
1.97956e-06
1.97943e-06
1.97926e-06
1.97905e-06
1.97879e-06
1.97846e-06
1.97807e-06
1.9776e-06
1.97703e-06
1.97635e-06
1.97554e-06
1.97458e-06
1.97344e-06
1.97208e-06
1.97049e-06
1.96861e-06
1.96641e-06
1.96384e-06
1.96085e-06
1.9574e-06
1.95343e-06
1.94891e-06
1.94379e-06
1.93808e-06
1.93184e-06
1.92528e-06
1.91881e-06
7.32329e-06
7.34771e-06
7.37246e-06
7.39598e-06
7.41747e-06
7.43671e-06
7.45374e-06
7.46866e-06
7.48165e-06
7.49288e-06
7.50255e-06
7.51084e-06
7.5179e-06
7.52391e-06
7.529e-06
7.5333e-06
7.53692e-06
7.53997e-06
7.54252e-06
7.54465e-06
7.54643e-06
7.5479e-06
7.54912e-06
7.55011e-06
7.55091e-06
7.55154e-06
7.55202e-06
7.55237e-06
7.5526e-06
7.55271e-06
7.55271e-06
7.5526e-06
7.55237e-06
7.55202e-06
7.55154e-06
7.55091e-06
7.55011e-06
7.54912e-06
7.5479e-06
7.54643e-06
7.54465e-06
7.54252e-06
7.53997e-06
7.53692e-06
7.5333e-06
7.529e-06
7.52391e-06
7.5179e-06
7.51084e-06
7.50255e-06
7.49288e-06
7.48165e-06
7.46866e-06
7.45374e-06
7.43671e-06
7.41747e-06
7.39598e-06
7.37246e-06
7.34771e-06
7.32329e-06
2.63963e-05
2.64825e-05
2.65696e-05
2.66523e-05
2.67278e-05
2.67954e-05
2.68551e-05
2.69075e-05
2.69531e-05
2.69925e-05
2.70264e-05
2.70555e-05
2.70803e-05
2.71014e-05
2.71193e-05
2.71343e-05
2.71471e-05
2.71577e-05
2.71667e-05
2.71742e-05
2.71804e-05
2.71856e-05
2.71899e-05
2.71933e-05
2.71962e-05
2.71984e-05
2.72001e-05
2.72013e-05
2.72021e-05
2.72025e-05
2.72025e-05
2.72021e-05
2.72013e-05
2.72001e-05
2.71984e-05
2.71962e-05
2.71933e-05
2.71899e-05
2.71856e-05
2.71804e-05
2.71742e-05
2.71667e-05
2.71577e-05
2.71471e-05
2.71343e-05
2.71193e-05
2.71014e-05
2.70803e-05
2.70555e-05
2.70264e-05
2.69925e-05
2.69531e-05
2.69075e-05
2.68551e-05
2.67954e-05
2.67278e-05
2.66523e-05
2.65696e-05
2.64825e-05
2.63963e-05
8.87255e-05
8.90058e-05
8.92879e-05
8.9555e-05
8.97987e-05
9.00167e-05
9.02095e-05
9.03785e-05
9.05255e-05
9.06527e-05
9.07622e-05
9.08559e-05
9.09359e-05
9.10039e-05
9.10615e-05
9.11102e-05
9.11512e-05
9.11857e-05
9.12146e-05
9.12387e-05
9.12588e-05
9.12755e-05
9.12893e-05
9.13005e-05
9.13095e-05
9.13167e-05
9.13222e-05
9.13261e-05
9.13287e-05
9.133e-05
9.133e-05
9.13287e-05
9.13261e-05
9.13222e-05
9.13167e-05
9.13095e-05
9.13005e-05
9.12893e-05
9.12755e-05
9.12588e-05
9.12387e-05
9.12146e-05
9.11857e-05
9.11512e-05
9.11102e-05
9.10615e-05
9.10039e-05
9.09359e-05
9.08559e-05
9.07622e-05
9.06527e-05
9.05255e-05
9.03785e-05
9.02095e-05
9.00167e-05
8.97987e-05
8.9555e-05
8.92879e-05
8.90058e-05
8.87255e-05
0.000274285
0.00027511
0.000275936
0.000276716
0.000277427
0.000278062
0.000278624
0.000279117
0.000279545
0.000279916
0.000280235
0.000280508
0.000280741
0.000280939
0.000281107
0.000281249
0.000281369
0.000281469
0.000281553
0.000281624
0.000281682
0.000281731
0.000281771
0.000281804
0.00028183
0.000281851
0.000281867
0.000281878
0.000281886
0.00028189
0.00028189
0.000281886
0.000281878
0.000281867
0.000281851
0.00028183
0.000281804
0.000281771
0.000281731
0.000281682
0.000281624
0.000281553
0.000281469
0.000281369
0.000281249
0.000281107
0.000280939
0.000280741
0.000280508
0.000280235
0.000279916
0.000279545
0.000279117
0.000278624
0.000278062
0.000277427
0.000276716
0.000275936
0.00027511
0.000274285
0.000768433
0.000770589
0.000772734
0.000774753
0.000776593
0.000778237
0.00077969
0.000780963
0.00078207
0.000783028
0.000783852
0.000784558
0.00078516
0.000785672
0.000786105
0.000786472
0.000786781
0.00078704
0.000787258
0.00078744
0.000787591
0.000787717
0.000787821
0.000787905
0.000787973
0.000788027
0.000788069
0.000788098
0.000788118
0.000788127
0.000788127
0.000788118
0.000788098
0.000788069
0.000788027
0.000787973
0.000787905
0.000787821
0.000787717
0.000787591
0.00078744
0.000787258
0.00078704
0.000786781
0.000786472
0.000786105
0.000785672
0.00078516
0.000784558
0.000783852
0.000783028
0.00078207
0.000780963
0.00077969
0.000778237
0.000776593
0.000774753
0.000772734
0.000770589
0.000768433
0.00192296
0.00192787
0.00193272
0.00193727
0.00194141
0.00194511
0.00194838
0.00195125
0.00195374
0.00195589
0.00195774
0.00195933
0.00196068
0.00196183
0.00196281
0.00196363
0.00196433
0.00196491
0.0019654
0.00196581
0.00196615
0.00196643
0.00196667
0.00196686
0.00196701
0.00196713
0.00196723
0.00196729
0.00196734
0.00196736
0.00196736
0.00196734
0.00196729
0.00196723
0.00196713
0.00196701
0.00196686
0.00196667
0.00196643
0.00196615
0.00196581
0.0019654
0.00196491
0.00196433
0.00196363
0.00196281
0.00196183
0.00196068
0.00195933
0.00195774
0.00195589
0.00195374
0.00195125
0.00194838
0.00194511
0.00194141
0.00193727
0.00193272
0.00192787
0.00192296
0.00424769
0.00425731
0.00426672
0.00427552
0.00428351
0.00429065
0.00429695
0.00430247
0.00430728
0.00431143
0.004315
0.00431806
0.00432067
0.00432288
0.00432476
0.00432635
0.00432769
0.00432882
0.00432976
0.00433055
0.00433121
0.00433175
0.0043322
0.00433257
0.00433287
0.0043331
0.00433328
0.00433341
0.00433349
0.00433353
0.00433353
0.00433349
0.00433341
0.00433328
0.0043331
0.00433287
0.00433257
0.0043322
0.00433175
0.00433121
0.00433055
0.00432976
0.00432882
0.00432769
0.00432635
0.00432476
0.00432288
0.00432067
0.00431806
0.004315
0.00431143
0.00430728
0.00430247
0.00429695
0.00429065
0.00428351
0.00427552
0.00426672
0.00425731
0.00424769
0.00823584
0.00825192
0.00826749
0.00828201
0.00829517
0.00830691
0.00831728
0.00832636
0.00833425
0.00834107
0.00834694
0.00835197
0.00835626
0.00835991
0.008363
0.00836561
0.00836782
0.00836967
0.00837122
0.00837252
0.0083736
0.0083745
0.00837524
0.00837584
0.00837633
0.00837671
0.00837701
0.00837722
0.00837736
0.00837743
0.00837743
0.00837736
0.00837722
0.00837701
0.00837671
0.00837633
0.00837584
0.00837524
0.0083745
0.0083736
0.00837252
0.00837122
0.00836967
0.00836782
0.00836561
0.008363
0.00835991
0.00835626
0.00835197
0.00834694
0.00834107
0.00833425
0.00832636
0.00831728
0.00830691
0.00829517
0.00828201
0.00826749
0.00825192
0.00823584
0.0140697
0.0140929
0.0141152
0.0141358
0.0141545
0.0141711
0.0141858
0.0141987
0.0142099
0.0142195
0.0142278
0.014235
0.0142411
0.0142462
0.0142506
0.0142543
0.0142574
0.0142601
0.0142623
0.0142641
0.0142656
0.0142669
0.014268
0.0142688
0.0142695
0.0142701
0.0142705
0.0142708
0.014271
0.0142711
0.0142711
0.014271
0.0142708
0.0142705
0.0142701
0.0142695
0.0142688
0.014268
0.0142669
0.0142656
0.0142641
0.0142623
0.0142601
0.0142574
0.0142543
0.0142506
0.0142462
0.0142411
0.014235
0.0142278
0.0142195
0.0142099
0.0141987
0.0141858
0.0141711
0.0141545
0.0141358
0.0141152
0.0140929
0.0140697
0.0214733
0.021503
0.0215311
0.0215571
0.0215805
0.0216014
0.0216199
0.021636
0.0216501
0.0216622
0.0216727
0.0216816
0.0216893
0.0216958
0.0217013
0.0217059
0.0217098
0.0217132
0.0217159
0.0217182
0.0217202
0.0217218
0.0217231
0.0217242
0.0217251
0.0217257
0.0217263
0.0217267
0.0217269
0.021727
0.021727
0.0217269
0.0217267
0.0217263
0.0217257
0.0217251
0.0217242
0.0217231
0.0217218
0.0217202
0.0217182
0.0217159
0.0217132
0.0217098
0.0217059
0.0217013
0.0216958
0.0216893
0.0216816
0.0216727
0.0216622
0.0216501
0.021636
0.0216199
0.0216014
0.0215805
0.0215571
0.0215311
0.021503
0.0214733
0.0298922
0.0299271
0.0299598
0.0299898
0.030017
0.0300411
0.0300624
0.0300811
0.0300973
0.0301113
0.0301234
0.0301337
0.0301426
0.0301501
0.0301565
0.0301618
0.0301664
0.0301702
0.0301734
0.0301761
0.0301784
0.0301802
0.0301818
0.030183
0.030184
0.0301848
0.0301854
0.0301859
0.0301862
0.0301863
0.0301863