/*--------------------------------*- C++ -*----------------------------------*\
| =========                 |                                                 |
| \\      /  F ield         | foam-extend: Open Source CFD                    |
|  \\    /   O peration     | Version:     4.0                                |
|   \\  /    A nd           | Web:         http://www.foam-extend.org         |
|    \\/     M anipulation  |                                                 |
\*---------------------------------------------------------------------------*/
FoamFile
{
    version     2.0;
    format      ascii;
    class       volScalarField;
    location    "1460";
    object      psiE;
}
// * * * * * * * * * * * * * * * * * * * * * * * * * * * * * * * * * * * * * //

dimensions      [0 0 0 0 0 0 0];

internalField   nonuniform List<scalar> 
6960
(
0.343572
0.34358
0.34359
0.3436
0.343609
0.343617
0.343624
0.34363
0.343636
0.343641
0.343645
0.343648
0.343651
0.343654
0.343656
0.343658
0.343659
0.343661
0.343662
0.343663
0.343664
0.343664
0.343665
0.343665
0.343666
0.343666
0.343666
0.343666
0.343666
0.343666
0.343666
0.343666
0.343666
0.343666
0.343666
0.343666
0.343665
0.343665
0.343664
0.343664
0.343663
0.343662
0.343661
0.343659
0.343658
0.343656
0.343654
0.343651
0.343648
0.343645
0.343641
0.343636
0.34363
0.343624
0.343617
0.343609
0.3436
0.34359
0.34358
0.343572
0.871029
0.871063
0.871103
0.871143
0.871179
0.871212
0.871241
0.871267
0.871289
0.871308
0.871324
0.871339
0.871351
0.871361
0.87137
0.871377
0.871384
0.871389
0.871393
0.871397
0.8714
0.871403
0.871405
0.871407
0.871408
0.87141
0.87141
0.871411
0.871412
0.871412
0.871412
0.871412
0.871411
0.87141
0.87141
0.871408
0.871407
0.871405
0.871403
0.8714
0.871397
0.871393
0.871389
0.871384
0.871377
0.87137
0.871361
0.871351
0.871339
0.871324
0.871308
0.871289
0.871267
0.871241
0.871212
0.871179
0.871143
0.871103
0.871063
0.871029
1.35713
1.3572
1.35728
1.35735
1.35743
1.35749
1.35755
1.3576
1.35764
1.35768
1.35771
1.35774
1.35776
1.35778
1.3578
1.35781
1.35783
1.35784
1.35784
1.35785
1.35786
1.35786
1.35787
1.35787
1.35787
1.35788
1.35788
1.35788
1.35788
1.35788
1.35788
1.35788
1.35788
1.35788
1.35788
1.35787
1.35787
1.35787
1.35786
1.35786
1.35785
1.35784
1.35784
1.35783
1.35781
1.3578
1.35778
1.35776
1.35774
1.35771
1.35768
1.35764
1.3576
1.35755
1.35749
1.35743
1.35735
1.35728
1.3572
1.35713
1.83473
1.83484
1.83496
1.83508
1.83519
1.83529
1.83538
1.83546
1.83553
1.83558
1.83563
1.83568
1.83572
1.83575
1.83577
1.8358
1.83582
1.83583
1.83584
1.83586
1.83587
1.83587
1.83588
1.83589
1.83589
1.83589
1.8359
1.8359
1.8359
1.8359
1.8359
1.8359
1.8359
1.8359
1.83589
1.83589
1.83589
1.83588
1.83587
1.83587
1.83586
1.83584
1.83583
1.83582
1.8358
1.83577
1.83575
1.83572
1.83568
1.83563
1.83558
1.83553
1.83546
1.83538
1.83529
1.83519
1.83508
1.83496
1.83484
1.83473
2.31555
2.31569
2.31586
2.31603
2.31618
2.31632
2.31645
2.31655
2.31665
2.31673
2.3168
2.31686
2.31691
2.31695
2.31699
2.31702
2.31704
2.31707
2.31709
2.3171
2.31711
2.31713
2.31713
2.31714
2.31715
2.31715
2.31716
2.31716
2.31716
2.31716
2.31716
2.31716
2.31716
2.31716
2.31715
2.31715
2.31714
2.31713
2.31713
2.31711
2.3171
2.31709
2.31707
2.31704
2.31702
2.31699
2.31695
2.31691
2.31686
2.3168
2.31673
2.31665
2.31655
2.31645
2.31632
2.31618
2.31603
2.31586
2.31569
2.31555
2.80393
2.80411
2.80433
2.80455
2.80474
2.80492
2.80508
2.80522
2.80534
2.80544
2.80553
2.80561
2.80567
2.80573
2.80578
2.80582
2.80585
2.80588
2.8059
2.80592
2.80594
2.80596
2.80597
2.80598
2.80598
2.80599
2.80599
2.806
2.806
2.806
2.806
2.806
2.806
2.80599
2.80599
2.80598
2.80598
2.80597
2.80596
2.80594
2.80592
2.8059
2.80588
2.80585
2.80582
2.80578
2.80573
2.80567
2.80561
2.80553
2.80544
2.80534
2.80522
2.80508
2.80492
2.80474
2.80455
2.80433
2.80411
2.80393
3.30147
3.3017
3.30196
3.30223
3.30247
3.30269
3.30288
3.30305
3.3032
3.30333
3.30344
3.30353
3.30361
3.30368
3.30374
3.30379
3.30383
3.30387
3.3039
3.30392
3.30394
3.30396
3.30397
3.30398
3.30399
3.304
3.30401
3.30401
3.30401
3.30401
3.30401
3.30401
3.30401
3.30401
3.304
3.30399
3.30398
3.30397
3.30396
3.30394
3.30392
3.3039
3.30387
3.30383
3.30379
3.30374
3.30368
3.30361
3.30353
3.30344
3.30333
3.3032
3.30305
3.30288
3.30269
3.30247
3.30223
3.30196
3.3017
3.30147
3.80874
3.80901
3.80933
3.80964
3.80993
3.81019
3.81042
3.81062
3.81079
3.81094
3.81107
3.81119
3.81128
3.81136
3.81143
3.81149
3.81154
3.81158
3.81162
3.81165
3.81167
3.81169
3.81171
3.81172
3.81174
3.81174
3.81175
3.81176
3.81176
3.81176
3.81176
3.81176
3.81176
3.81175
3.81174
3.81174
3.81172
3.81171
3.81169
3.81167
3.81165
3.81162
3.81158
3.81154
3.81149
3.81143
3.81136
3.81128
3.81119
3.81107
3.81094
3.81079
3.81062
3.81042
3.81019
3.80993
3.80964
3.80933
3.80901
3.80874
4.3259
4.32621
4.32658
4.32694
4.32727
4.32757
4.32784
4.32807
4.32828
4.32845
4.3286
4.32873
4.32885
4.32894
4.32902
4.32909
4.32915
4.32919
4.32924
4.32927
4.3293
4.32932
4.32934
4.32936
4.32937
4.32938
4.32939
4.32939
4.3294
4.3294
4.3294
4.3294
4.32939
4.32939
4.32938
4.32937
4.32936
4.32934
4.32932
4.3293
4.32927
4.32924
4.32919
4.32915
4.32909
4.32902
4.32894
4.32885
4.32873
4.3286
4.32845
4.32828
4.32807
4.32784
4.32757
4.32727
4.32694
4.32658
4.32621
4.3259
4.85295
4.8533
4.85372
4.85413
4.85451
4.85485
4.85516
4.85542
4.85565
4.85585
4.85603
4.85617
4.8563
4.85641
4.8565
4.85658
4.85664
4.8567
4.85674
4.85678
4.85682
4.85684
4.85687
4.85688
4.8569
4.85691
4.85692
4.85693
4.85693
4.85693
4.85693
4.85693
4.85693
4.85692
4.85691
4.8569
4.85688
4.85687
4.85684
4.85682
4.85678
4.85674
4.8567
4.85664
4.85658
4.8565
4.85641
4.8563
4.85617
4.85603
4.85585
4.85565
4.85542
4.85516
4.85485
4.85451
4.85413
4.85372
4.8533
4.85295
5.38981
5.3902
5.39067
5.39113
5.39156
5.39194
5.39228
5.39258
5.39284
5.39307
5.39326
5.39342
5.39357
5.39369
5.39379
5.39388
5.39395
5.39401
5.39407
5.39411
5.39415
5.39418
5.3942
5.39422
5.39424
5.39425
5.39426
5.39427
5.39427
5.39428
5.39428
5.39427
5.39427
5.39426
5.39425
5.39424
5.39422
5.3942
5.39418
5.39415
5.39411
5.39407
5.39401
5.39395
5.39388
5.39379
5.39369
5.39357
5.39342
5.39326
5.39307
5.39284
5.39258
5.39228
5.39194
5.39156
5.39113
5.39067
5.3902
5.38981
5.93635
5.93678
5.9373
5.93781
5.93829
5.93871
5.93909
5.93942
5.93971
5.93996
5.94017
5.94036
5.94052
5.94065
5.94076
5.94086
5.94094
5.94101
5.94107
5.94112
5.94116
5.94119
5.94122
5.94124
5.94126
5.94128
5.94129
5.94129
5.9413
5.9413
5.9413
5.9413
5.94129
5.94129
5.94128
5.94126
5.94124
5.94122
5.94119
5.94116
5.94112
5.94107
5.94101
5.94094
5.94086
5.94076
5.94065
5.94052
5.94036
5.94017
5.93996
5.93971
5.93942
5.93909
5.93871
5.93829
5.93781
5.9373
5.93678
5.93635
6.49239
6.49287
6.49344
6.494
6.49452
6.49499
6.49541
6.49577
6.49608
6.49636
6.49659
6.4968
6.49697
6.49712
6.49724
6.49735
6.49744
6.49751
6.49758
6.49763
6.49768
6.49771
6.49774
6.49777
6.49779
6.49781
6.49782
6.49783
6.49783
6.49784
6.49784
6.49783
6.49783
6.49782
6.49781
6.49779
6.49777
6.49774
6.49771
6.49768
6.49763
6.49758
6.49751
6.49744
6.49735
6.49724
6.49712
6.49697
6.4968
6.49659
6.49636
6.49608
6.49577
6.49541
6.49499
6.49452
6.494
6.49344
6.49287
6.49239
7.05773
7.05824
7.05887
7.05948
7.06005
7.06056
7.06101
7.0614
7.06175
7.06204
7.0623
7.06252
7.06271
7.06287
7.06301
7.06312
7.06322
7.0633
7.06337
7.06343
7.06348
7.06352
7.06355
7.06358
7.0636
7.06362
7.06363
7.06364
7.06365
7.06365
7.06365
7.06365
7.06364
7.06363
7.06362
7.0636
7.06358
7.06355
7.06352
7.06348
7.06343
7.06337
7.0633
7.06322
7.06312
7.06301
7.06287
7.06271
7.06252
7.0623
7.06204
7.06175
7.0614
7.06101
7.06056
7.06005
7.05948
7.05887
7.05824
7.05773
7.63208
7.63263
7.63331
7.63397
7.63458
7.63513
7.63562
7.63605
7.63642
7.63675
7.63702
7.63726
7.63747
7.63764
7.63779
7.63791
7.63802
7.63811
7.63818
7.63824
7.6383
7.63834
7.63838
7.63841
7.63843
7.63845
7.63846
7.63847
7.63848
7.63849
7.63849
7.63848
7.63847
7.63846
7.63845
7.63843
7.63841
7.63838
7.63834
7.6383
7.63824
7.63818
7.63811
7.63802
7.63791
7.63779
7.63764
7.63747
7.63726
7.63702
7.63675
7.63642
7.63605
7.63562
7.63513
7.63458
7.63397
7.63331
7.63263
7.63208
8.21512
8.21572
8.21644
8.21715
8.21781
8.2184
8.21893
8.21939
8.21979
8.22013
8.22043
8.22069
8.22091
8.2211
8.22125
8.22139
8.2215
8.2216
8.22168
8.22175
8.2218
8.22185
8.22189
8.22192
8.22195
8.22197
8.22198
8.22199
8.222
8.22201
8.22201
8.222
8.22199
8.22198
8.22197
8.22195
8.22192
8.22189
8.22185
8.2218
8.22175
8.22168
8.2216
8.2215
8.22139
8.22125
8.2211
8.22091
8.22069
8.22043
8.22013
8.21979
8.21939
8.21893
8.2184
8.21781
8.21715
8.21644
8.21572
8.21512
8.80647
8.8071
8.80788
8.80864
8.80934
8.80998
8.81054
8.81103
8.81146
8.81183
8.81215
8.81242
8.81265
8.81285
8.81302
8.81317
8.81329
8.81339
8.81348
8.81355
8.81361
8.81366
8.8137
8.81374
8.81376
8.81378
8.8138
8.81381
8.81382
8.81383
8.81383
8.81382
8.81381
8.8138
8.81378
8.81376
8.81374
8.8137
8.81366
8.81361
8.81355
8.81348
8.81339
8.81329
8.81317
8.81302
8.81285
8.81265
8.81242
8.81215
8.81183
8.81146
8.81103
8.81054
8.80998
8.80934
8.80864
8.80788
8.8071
8.80647
9.40567
9.40634
9.40717
9.40798
9.40872
9.4094
9.40999
9.41051
9.41097
9.41136
9.4117
9.41199
9.41224
9.41245
9.41263
9.41279
9.41292
9.41302
9.41312
9.41319
9.41326
9.41331
9.41336
9.41339
9.41342
9.41344
9.41346
9.41347
9.41348
9.41349
9.41349
9.41348
9.41347
9.41346
9.41344
9.41342
9.41339
9.41336
9.41331
9.41326
9.41319
9.41312
9.41302
9.41292
9.41279
9.41263
9.41245
9.41224
9.41199
9.4117
9.41136
9.41097
9.41051
9.40999
9.4094
9.40872
9.40798
9.40717
9.40634
9.40567
10.0122
10.0129
10.0138
10.0146
10.0154
10.0161
10.0168
10.0173
10.0178
10.0182
10.0186
10.0189
10.0191
10.0194
10.0196
10.0197
10.0199
10.02
10.0201
10.0201
10.0202
10.0203
10.0203
10.0204
10.0204
10.0204
10.0204
10.0204
10.0205
10.0205
10.0205
10.0205
10.0204
10.0204
10.0204
10.0204
10.0204
10.0203
10.0203
10.0202
10.0201
10.0201
10.02
10.0199
10.0197
10.0196
10.0194
10.0191
10.0189
10.0186
10.0182
10.0178
10.0173
10.0168
10.0161
10.0154
10.0146
10.0138
10.0129
10.0122
10.6254
10.6261
10.6271
10.628
10.6288
10.6295
10.6302
10.6308
10.6313
10.6317
10.6321
10.6324
10.6327
10.633
10.6332
10.6333
10.6335
10.6336
10.6337
10.6338
10.6339
10.6339
10.634
10.634
10.634
10.6341
10.6341
10.6341
10.6341
10.6341
10.6341
10.6341
10.6341
10.6341
10.6341
10.634
10.634
10.634
10.6339
10.6339
10.6338
10.6337
10.6336
10.6335
10.6333
10.6332
10.633
10.6327
10.6324
10.6321
10.6317
10.6313
10.6308
10.6302
10.6295
10.6288
10.628
10.6271
10.6261
10.6254
11.2446
11.2454
11.2463
11.2473
11.2482
11.2489
11.2496
11.2502
11.2508
11.2512
11.2516
11.252
11.2523
11.2525
11.2527
11.2529
11.253
11.2532
11.2533
11.2534
11.2535
11.2535
11.2536
11.2536
11.2536
11.2537
11.2537
11.2537
11.2537
11.2537
11.2537
11.2537
11.2537
11.2537
11.2537
11.2536
11.2536
11.2536
11.2535
11.2535
11.2534
11.2533
11.2532
11.253
11.2529
11.2527
11.2525
11.2523
11.252
11.2516
11.2512
11.2508
11.2502
11.2496
11.2489
11.2482
11.2473
11.2463
11.2454
11.2446
11.8689
11.8697
11.8707
11.8717
11.8726
11.8735
11.8742
11.8748
11.8754
11.8759
11.8763
11.8766
11.8769
11.8772
11.8774
11.8776
11.8778
11.8779
11.878
11.8781
11.8782
11.8782
11.8783
11.8783
11.8784
11.8784
11.8784
11.8784
11.8785
11.8785
11.8785
11.8785
11.8784
11.8784
11.8784
11.8784
11.8783
11.8783
11.8782
11.8782
11.8781
11.878
11.8779
11.8778
11.8776
11.8774
11.8772
11.8769
11.8766
11.8763
11.8759
11.8754
11.8748
11.8742
11.8735
11.8726
11.8717
11.8707
11.8697
11.8689
12.4974
12.4983
12.4993
12.5004
12.5013
12.5022
12.5029
12.5036
12.5042
12.5047
12.5051
12.5055
12.5058
12.506
12.5063
12.5065
12.5066
12.5068
12.5069
12.507
12.5071
12.5071
12.5072
12.5072
12.5073
12.5073
12.5073
12.5073
12.5074
12.5074
12.5074
12.5074
12.5073
12.5073
12.5073
12.5073
12.5072
12.5072
12.5071
12.5071
12.507
12.5069
12.5068
12.5066
12.5065
12.5063
12.506
12.5058
12.5055
12.5051
12.5047
12.5042
12.5036
12.5029
12.5022
12.5013
12.5004
12.4993
12.4983
12.4974
13.129
13.1299
13.131
13.1321
13.133
13.1339
13.1347
13.1354
13.136
13.1365
13.137
13.1373
13.1377
13.1379
13.1382
13.1384
13.1386
13.1387
13.1388
13.1389
13.139
13.1391
13.1391
13.1392
13.1392
13.1392
13.1393
13.1393
13.1393
13.1393
13.1393
13.1393
13.1393
13.1393
13.1392
13.1392
13.1392
13.1391
13.1391
13.139
13.1389
13.1388
13.1387
13.1386
13.1384
13.1382
13.1379
13.1377
13.1373
13.137
13.1365
13.136
13.1354
13.1347
13.1339
13.133
13.1321
13.131
13.1299
13.129
13.7624
13.7633
13.7645
13.7656
13.7666
13.7675
13.7683
13.769
13.7696
13.7701
13.7706
13.771
13.7713
13.7716
13.7719
13.7721
13.7723
13.7724
13.7725
13.7726
13.7727
13.7728
13.7729
13.7729
13.7729
13.773
13.773
13.773
13.773
13.773
13.773
13.773
13.773
13.773
13.773
13.7729
13.7729
13.7729
13.7728
13.7727
13.7726
13.7725
13.7724
13.7723
13.7721
13.7719
13.7716
13.7713
13.771
13.7706
13.7701
13.7696
13.769
13.7683
13.7675
13.7666
13.7656
13.7645
13.7633
13.7624
14.3962
14.3971
14.3983
14.3994
14.4004
14.4014
14.4022
14.4029
14.4036
14.4041
14.4046
14.405
14.4053
14.4056
14.4059
14.4061
14.4063
14.4064
14.4066
14.4067
14.4068
14.4068
14.4069
14.4069
14.407
14.407
14.407
14.4071
14.4071
14.4071
14.4071
14.4071
14.4071
14.407
14.407
14.407
14.4069
14.4069
14.4068
14.4068
14.4067
14.4066
14.4064
14.4063
14.4061
14.4059
14.4056
14.4053
14.405
14.4046
14.4041
14.4036
14.4029
14.4022
14.4014
14.4004
14.3994
14.3983
14.3971
14.3962
15.0286
15.0295
15.0307
15.0319
15.0329
15.0339
15.0347
15.0355
15.0361
15.0367
15.0372
15.0376
15.0379
15.0382
15.0385
15.0387
15.0389
15.0391
15.0392
15.0393
15.0394
15.0395
15.0395
15.0396
15.0396
15.0397
15.0397
15.0397
15.0397
15.0397
15.0397
15.0397
15.0397
15.0397
15.0397
15.0396
15.0396
15.0395
15.0395
15.0394
15.0393
15.0392
15.0391
15.0389
15.0387
15.0385
15.0382
15.0379
15.0376
15.0372
15.0367
15.0361
15.0355
15.0347
15.0339
15.0329
15.0319
15.0307
15.0295
15.0286
15.6577
15.6587
15.6599
15.6611
15.6621
15.6631
15.664
15.6647
15.6654
15.6659
15.6664
15.6669
15.6672
15.6675
15.6678
15.668
15.6682
15.6684
15.6685
15.6686
15.6687
15.6688
15.6688
15.6689
15.6689
15.669
15.669
15.669
15.669
15.669
15.669
15.669
15.669
15.669
15.669
15.6689
15.6689
15.6688
15.6688
15.6687
15.6686
15.6685
15.6684
15.6682
15.668
15.6678
15.6675
15.6672
15.6669
15.6664
15.6659
15.6654
15.6647
15.664
15.6631
15.6621
15.6611
15.6599
15.6587
15.6577
16.2813
16.2823
16.2835
16.2847
16.2858
16.2867
16.2876
16.2884
16.289
16.2896
16.2901
16.2906
16.2909
16.2912
16.2915
16.2917
16.2919
16.2921
16.2922
16.2923
16.2924
16.2925
16.2926
16.2926
16.2927
16.2927
16.2927
16.2927
16.2928
16.2928
16.2928
16.2928
16.2927
16.2927
16.2927
16.2927
16.2926
16.2926
16.2925
16.2924
16.2923
16.2922
16.2921
16.2919
16.2917
16.2915
16.2912
16.2909
16.2906
16.2901
16.2896
16.289
16.2884
16.2876
16.2867
16.2858
16.2847
16.2835
16.2823
16.2813
16.8967
16.8977
16.8989
16.9001
16.9012
16.9022
16.9031
16.9038
16.9045
16.9051
16.9056
16.906
16.9064
16.9067
16.907
16.9072
16.9074
16.9075
16.9077
16.9078
16.9079
16.908
16.908
16.9081
16.9081
16.9082
16.9082
16.9082
16.9082
16.9082
16.9082
16.9082
16.9082
16.9082
16.9082
16.9081
16.9081
16.908
16.908
16.9079
16.9078
16.9077
16.9075
16.9074
16.9072
16.907
16.9067
16.9064
16.906
16.9056
16.9051
16.9045
16.9038
16.9031
16.9022
16.9012
16.9001
16.8989
16.8977
16.8967
17.5009
17.5019
17.5031
17.5043
17.5054
17.5064
17.5073
17.508
17.5087
17.5093
17.5098
17.5102
17.5106
17.5109
17.5111
17.5114
17.5116
17.5117
17.5119
17.512
17.5121
17.5122
17.5122
17.5123
17.5123
17.5124
17.5124
17.5124
17.5124
17.5124
17.5124
17.5124
17.5124
17.5124
17.5124
17.5123
17.5123
17.5122
17.5122
17.5121
17.512
17.5119
17.5117
17.5116
17.5114
17.5111
17.5109
17.5106
17.5102
17.5098
17.5093
17.5087
17.508
17.5073
17.5064
17.5054
17.5043
17.5031
17.5019
17.5009
18.0903
18.0913
18.0925
18.0937
18.0947
18.0957
18.0966
18.0973
18.098
18.0986
18.0991
18.0995
18.0998
18.1002
18.1004
18.1006
18.1008
18.101
18.1011
18.1012
18.1013
18.1014
18.1015
18.1015
18.1016
18.1016
18.1016
18.1017
18.1017
18.1017
18.1017
18.1017
18.1017
18.1016
18.1016
18.1016
18.1015
18.1015
18.1014
18.1013
18.1012
18.1011
18.101
18.1008
18.1006
18.1004
18.1002
18.0998
18.0995
18.0991
18.0986
18.098
18.0973
18.0966
18.0957
18.0947
18.0937
18.0925
18.0913
18.0903
18.6606
18.6616
18.6627
18.6639
18.665
18.6659
18.6667
18.6675
18.6681
18.6687
18.6692
18.6696
18.6699
18.6702
18.6705
18.6707
18.6709
18.6711
18.6712
18.6713
18.6714
18.6715
18.6715
18.6716
18.6716
18.6717
18.6717
18.6717
18.6717
18.6717
18.6717
18.6717
18.6717
18.6717
18.6717
18.6716
18.6716
18.6715
18.6715
18.6714
18.6713
18.6712
18.6711
18.6709
18.6707
18.6705
18.6702
18.6699
18.6696
18.6692
18.6687
18.6681
18.6675
18.6667
18.6659
18.665
18.6639
18.6627
18.6616
18.6606
19.2067
19.2077
19.2088
19.2099
19.2109
19.2119
19.2127
19.2134
19.214
19.2145
19.215
19.2154
19.2158
19.216
19.2163
19.2165
19.2167
19.2168
19.217
19.2171
19.2172
19.2172
19.2173
19.2174
19.2174
19.2174
19.2175
19.2175
19.2175
19.2175
19.2175
19.2175
19.2175
19.2175
19.2174
19.2174
19.2174
19.2173
19.2172
19.2172
19.2171
19.217
19.2168
19.2167
19.2165
19.2163
19.216
19.2158
19.2154
19.215
19.2145
19.214
19.2134
19.2127
19.2119
19.2109
19.2099
19.2088
19.2077
19.2067
19.7227
19.7236
19.7247
19.7257
19.7267
19.7276
19.7283
19.729
19.7296
19.7301
19.7306
19.7309
19.7313
19.7315
19.7318
19.732
19.7321
19.7323
19.7324
19.7325
19.7326
19.7327
19.7327
19.7328
19.7328
19.7329
19.7329
19.7329
19.7329
19.7329
19.7329
19.7329
19.7329
19.7329
19.7329
19.7328
19.7328
19.7327
19.7327
19.7326
19.7325
19.7324
19.7323
19.7321
19.732
19.7318
19.7315
19.7313
19.7309
19.7306
19.7301
19.7296
19.729
19.7283
19.7276
19.7267
19.7257
19.7247
19.7236
19.7227
20.2015
20.2024
20.2034
20.2043
20.2052
20.206
20.2067
20.2073
20.2079
20.2083
20.2088
20.2091
20.2094
20.2097
20.2099
20.2101
20.2102
20.2104
20.2105
20.2106
20.2107
20.2107
20.2108
20.2108
20.2109
20.2109
20.2109
20.2109
20.2109
20.2109
20.2109
20.2109
20.2109
20.2109
20.2109
20.2109
20.2108
20.2108
20.2107
20.2107
20.2106
20.2105
20.2104
20.2102
20.2101
20.2099
20.2097
20.2094
20.2091
20.2088
20.2083
20.2079
20.2073
20.2067
20.206
20.2052
20.2043
20.2034
20.2024
20.2015
20.6355
20.6362
20.6371
20.638
20.6388
20.6395
20.6401
20.6407
20.6412
20.6416
20.642
20.6423
20.6425
20.6428
20.643
20.6431
20.6433
20.6434
20.6435
20.6436
20.6437
20.6437
20.6438
20.6438
20.6439
20.6439
20.6439
20.6439
20.6439
20.6439
20.6439
20.6439
20.6439
20.6439
20.6439
20.6439
20.6438
20.6438
20.6437
20.6437
20.6436
20.6435
20.6434
20.6433
20.6431
20.643
20.6428
20.6425
20.6423
20.642
20.6416
20.6412
20.6407
20.6401
20.6395
20.6388
20.638
20.6371
20.6362
20.6355
21.0173
21.018
21.0187
21.0195
21.0201
21.0208
21.0213
21.0218
21.0222
21.0226
21.0229
21.0231
21.0234
21.0236
21.0237
21.0239
21.024
21.0241
21.0242
21.0243
21.0243
21.0244
21.0244
21.0245
21.0245
21.0245
21.0246
21.0246
21.0246
21.0246
21.0246
21.0246
21.0246
21.0246
21.0245
21.0245
21.0245
21.0244
21.0244
21.0243
21.0243
21.0242
21.0241
21.024
21.0239
21.0237
21.0236
21.0234
21.0231
21.0229
21.0226
21.0222
21.0218
21.0213
21.0208
21.0201
21.0195
21.0187
21.018
21.0173
21.342
21.3425
21.3431
21.3437
21.3443
21.3448
21.3452
21.3456
21.3459
21.3462
21.3465
21.3467
21.3469
21.3471
21.3472
21.3473
21.3475
21.3475
21.3476
21.3477
21.3477
21.3478
21.3478
21.3478
21.3479
21.3479
21.3479
21.3479
21.3479
21.3479
21.3479
21.3479
21.3479
21.3479
21.3479
21.3479
21.3478
21.3478
21.3478
21.3477
21.3477
21.3476
21.3475
21.3475
21.3473
21.3472
21.3471
21.3469
21.3467
21.3465
21.3462
21.3459
21.3456
21.3452
21.3448
21.3443
21.3437
21.3431
21.3425
21.342
21.6088
21.6092
21.6096
21.6101
21.6105
21.6109
21.6113
21.6116
21.6118
21.6121
21.6123
21.6125
21.6126
21.6127
21.6129
21.613
21.613
21.6131
21.6132
21.6132
21.6133
21.6133
21.6133
21.6134
21.6134
21.6134
21.6134
21.6134
21.6134
21.6134
21.6134
21.6134
21.6134
21.6134
21.6134
21.6134
21.6134
21.6133
21.6133
21.6133
21.6132
21.6132
21.6131
21.613
21.613
21.6129
21.6127
21.6126
21.6125
21.6123
21.6121
21.6118
21.6116
21.6113
21.6109
21.6105
21.6101
21.6096
21.6092
21.6088
21.8224
21.8227
21.823
21.8234
21.8237
21.824
21.8242
21.8245
21.8247
21.8248
21.825
21.8251
21.8252
21.8253
21.8254
21.8255
21.8256
21.8256
21.8257
21.8257
21.8257
21.8258
21.8258
21.8258
21.8258
21.8259
21.8259
21.8259
21.8259
21.8259
21.8259
21.8259
21.8259
21.8259
21.8259
21.8258
21.8258
21.8258
21.8258
21.8257
21.8257
21.8257
21.8256
21.8256
21.8255
21.8254
21.8253
21.8252
21.8251
21.825
21.8248
21.8247
21.8245
21.8242
21.824
21.8237
21.8234
21.823
21.8227
21.8224
21.9917
21.9919
21.9921
21.9923
21.9926
21.9928
21.993
21.9931
21.9933
21.9934
21.9935
21.9936
21.9937
21.9938
21.9939
21.9939
21.994
21.994
21.9941
21.9941
21.9941
21.9941
21.9942
21.9942
21.9942
21.9942
21.9942
21.9942
21.9942
21.9942
21.9942
21.9942
21.9942
21.9942
21.9942
21.9942
21.9942
21.9942
21.9941
21.9941
21.9941
21.9941
21.994
21.994
21.9939
21.9939
21.9938
21.9937
21.9936
21.9935
21.9934
21.9933
21.9931
21.993
21.9928
21.9926
21.9923
21.9921
21.9919
21.9917
22.127
22.1271
22.1273
22.1274
22.1276
22.1278
22.1279
22.128
22.1281
22.1282
22.1283
22.1284
22.1284
22.1285
22.1286
22.1286
22.1286
22.1287
22.1287
22.1287
22.1288
22.1288
22.1288
22.1288
22.1288
22.1288
22.1288
22.1288
22.1288
22.1288
22.1288
22.1288
22.1288
22.1288
22.1288
22.1288
22.1288
22.1288
22.1288
22.1288
22.1287
22.1287
22.1287
22.1286
22.1286
22.1286
22.1285
22.1284
22.1284
22.1283
22.1282
22.1281
22.128
22.1279
22.1278
22.1276
22.1274
22.1273
22.1271
22.127
22.2377
22.2378
22.2379
22.238
22.2382
22.2383
22.2384
22.2385
22.2385
22.2386
22.2387
22.2387
22.2388
22.2388
22.2389
22.2389
22.2389
22.239
22.239
22.239
22.239
22.2391
22.2391
22.2391
22.2391
22.2391
22.2391
22.2391
22.2391
22.2391
22.2391
22.2391
22.2391
22.2391
22.2391
22.2391
22.2391
22.2391
22.2391
22.239
22.239
22.239
22.239
22.2389
22.2389
22.2389
22.2388
22.2388
22.2387
22.2387
22.2386
22.2385
22.2385
22.2384
22.2383
22.2382
22.238
22.2379
22.2378
22.2377
22.3312
22.3312
22.3313
22.3314
22.3315
22.3315
22.3316
22.3317
22.3318
22.3318
22.3319
22.3319
22.3319
22.332
22.332
22.332
22.3321
22.3321
22.3321
22.3321
22.3322
22.3322
22.3322
22.3322
22.3322
22.3322
22.3322
22.3322
22.3322
22.3322
22.3322
22.3322
22.3322
22.3322
22.3322
22.3322
22.3322
22.3322
22.3322
22.3322
22.3321
22.3321
22.3321
22.3321
22.332
22.332
22.332
22.3319
22.3319
22.3319
22.3318
22.3318
22.3317
22.3316
22.3315
22.3315
22.3314
22.3313
22.3312
22.3312
22.4123
22.4123
22.4124
22.4125
22.4125
22.4126
22.4126
22.4127
22.4127
22.4128
22.4128
22.4129
22.4129
22.4129
22.4129
22.413
22.413
22.413
22.413
22.4131
22.4131
22.4131
22.4131
22.4131
22.4131
22.4131
22.4131
22.4131
22.4131
22.4131
22.4131
22.4131
22.4131
22.4131
22.4131
22.4131
22.4131
22.4131
22.4131
22.4131
22.4131
22.413
22.413
22.413
22.413
22.4129
22.4129
22.4129
22.4129
22.4128
22.4128
22.4127
22.4127
22.4126
22.4126
22.4125
22.4125
22.4124
22.4123
22.4123
22.4845
22.4845
22.4845
22.4846
22.4846
22.4847
22.4847
22.4847
22.4848
22.4848
22.4848
22.4849
22.4849
22.4849
22.485
22.485
22.485
22.485
22.485
22.485
22.4851
22.4851
22.4851
22.4851
22.4851
22.4851
22.4851
22.4851
22.4851
22.4851
22.4851
22.4851
22.4851
22.4851
22.4851
22.4851
22.4851
22.4851
22.4851
22.4851
22.485
22.485
22.485
22.485
22.485
22.485
22.4849
22.4849
22.4849
22.4848
22.4848
22.4848
22.4847
22.4847
22.4847
22.4846
22.4846
22.4845
22.4845
22.4845
22.5498
22.5498
22.5499
22.5499
22.5499
22.5499
22.55
22.55
22.55
22.5501
22.5501
22.5501
22.5501
22.5502
22.5502
22.5502
22.5502
22.5502
22.5503
22.5503
22.5503
22.5503
22.5503
22.5503
22.5503
22.5503
22.5503
22.5503
22.5503
22.5503
22.5503
22.5503
22.5503
22.5503
22.5503
22.5503
22.5503
22.5503
22.5503
22.5503
22.5503
22.5503
22.5502
22.5502
22.5502
22.5502
22.5502
22.5501
22.5501
22.5501
22.5501
22.55
22.55
22.55
22.5499
22.5499
22.5499
22.5499
22.5498
22.5498
22.6098
22.6098
22.6099
22.6099
22.6099
22.6099
22.6099
22.61
22.61
22.61
22.61
22.6101
22.6101
22.6101
22.6101
22.6101
22.6101
22.6102
22.6102
22.6102
22.6102
22.6102
22.6102
22.6102
22.6102
22.6102
22.6103
22.6103
22.6103
22.6103
22.6103
22.6103
22.6103
22.6103
22.6102
22.6102
22.6102
22.6102
22.6102
22.6102
22.6102
22.6102
22.6102
22.6101
22.6101
22.6101
22.6101
22.6101
22.6101
22.61
22.61
22.61
22.61
22.6099
22.6099
22.6099
22.6099
22.6099
22.6098
22.6098
22.6656
22.6656
22.6656
22.6656
22.6656
22.6656
22.6656
22.6656
22.6657
22.6657
22.6657
22.6657
22.6657
22.6657
22.6658
22.6658
22.6658
22.6658
22.6658
22.6658
22.6658
22.6659
22.6659
22.6659
22.6659
22.6659
22.6659
22.6659
22.6659
22.6659
22.6659
22.6659
22.6659
22.6659
22.6659
22.6659
22.6659
22.6659
22.6659
22.6658
22.6658
22.6658
22.6658
22.6658
22.6658
22.6658
22.6657
22.6657
22.6657
22.6657
22.6657
22.6657
22.6656
22.6656
22.6656
22.6656
22.6656
22.6656
22.6656
22.6656
22.7177
22.7177
22.7177
22.7177
22.7177
22.7178
22.7178
22.7178
22.7178
22.7178
22.7178
22.7178
22.7179
22.7179
22.7179
22.7179
22.7179
22.7179
22.7179
22.718
22.718
22.718
22.718
22.718
22.718
22.718
22.718
22.718
22.718
22.718
22.718
22.718
22.718
22.718
22.718
22.718
22.718
22.718
22.718
22.718
22.718
22.7179
22.7179
22.7179
22.7179
22.7179
22.7179
22.7179
22.7178
22.7178
22.7178
22.7178
22.7178
22.7178
22.7178
22.7177
22.7177
22.7177
22.7177
22.7177
22.767
22.767
22.7669
22.7669
22.7669
22.7669
22.767
22.767
22.767
22.767
22.767
22.767
22.767
22.767
22.7671
22.7671
22.7671
22.7671
22.7671
22.7671
22.7671
22.7671
22.7672
22.7672
22.7672
22.7672
22.7672
22.7672
22.7672
22.7672
22.7672
22.7672
22.7672
22.7672
22.7672
22.7672
22.7672
22.7672
22.7671
22.7671
22.7671
22.7671
22.7671
22.7671
22.7671
22.7671
22.767
22.767
22.767
22.767
22.767
22.767
22.767
22.767
22.7669
22.7669
22.7669
22.7669
22.767
22.767
22.8137
22.8137
22.8137
22.8136
22.8136
22.8136
22.8136
22.8137
22.8137
22.8137
22.8137
22.8137
22.8137
22.8137
22.8137
22.8138
22.8138
22.8138
22.8138
22.8138
22.8138
22.8138
22.8138
22.8138
22.8138
22.8139
22.8139
22.8139
22.8139
22.8139
22.8139
22.8139
22.8139
22.8139
22.8139
22.8138
22.8138
22.8138
22.8138
22.8138
22.8138
22.8138
22.8138
22.8138
22.8138
22.8137
22.8137
22.8137
22.8137
22.8137
22.8137
22.8137
22.8137
22.8136
22.8136
22.8136
22.8136
22.8137
22.8137
22.8137
22.8582
22.8582
22.8582
22.8582
22.8582
22.8582
22.8582
22.8582
22.8582
22.8582
22.8582
22.8582
22.8582
22.8583
22.8583
22.8583
22.8583
22.8583
22.8583
22.8583
22.8583
22.8584
22.8584
22.8584
22.8584
22.8584
22.8584
22.8584
22.8584
22.8584
22.8584
22.8584
22.8584
22.8584
22.8584
22.8584
22.8584
22.8584
22.8584
22.8583
22.8583
22.8583
22.8583
22.8583
22.8583
22.8583
22.8583
22.8582
22.8582
22.8582
22.8582
22.8582
22.8582
22.8582
22.8582
22.8582
22.8582
22.8582
22.8582
22.8582
22.901
22.9009
22.9009
22.9009
22.9009
22.9009
22.9009
22.9009
22.9009
22.9009
22.9009
22.9009
22.9009
22.901
22.901
22.901
22.901
22.901
22.901
22.901
22.901
22.901
22.9011
22.9011
22.9011
22.9011
22.9011
22.9011
22.9011
22.9011
22.9011
22.9011
22.9011
22.9011
22.9011
22.9011
22.9011
22.9011
22.901
22.901
22.901
22.901
22.901
22.901
22.901
22.901
22.901
22.9009
22.9009
22.9009
22.9009
22.9009
22.9009
22.9009
22.9009
22.9009
22.9009
22.9009
22.9009
22.901
22.9421
22.942
22.942
22.942
22.942
22.942
22.942
22.942
22.942
22.942
22.942
22.942
22.942
22.942
22.942
22.9421
22.9421
22.9421
22.9421
22.9421
22.9421
22.9421
22.9421
22.9421
22.9422
22.9422
22.9422
22.9422
22.9422
22.9422
22.9422
22.9422
22.9422
22.9422
22.9422
22.9422
22.9421
22.9421
22.9421
22.9421
22.9421
22.9421
22.9421
22.9421
22.9421
22.942
22.942
22.942
22.942
22.942
22.942
22.942
22.942
22.942
22.942
22.942
22.942
22.942
22.942
22.9421
22.9817
22.9817
22.9817
22.9817
22.9817
22.9817
22.9817
22.9817
22.9817
22.9817
22.9817
22.9817
22.9817
22.9817
22.9817
22.9817
22.9817
22.9818
22.9818
22.9818
22.9818
22.9818
22.9818
22.9818
22.9818
22.9818
22.9818
22.9818
22.9818
22.9818
22.9818
22.9818
22.9818
22.9818
22.9818
22.9818
22.9818
22.9818
22.9818
22.9818
22.9818
22.9818
22.9818
22.9817
22.9817
22.9817
22.9817
22.9817
22.9817
22.9817
22.9817
22.9817
22.9817
22.9817
22.9817
22.9817
22.9817
22.9817
22.9817
22.9817
23.0202
23.0202
23.0202
23.0201
23.0201
23.0201
23.0201
23.0201
23.0201
23.0201
23.0201
23.0201
23.0201
23.0202
23.0202
23.0202
23.0202
23.0202
23.0202
23.0202
23.0202
23.0202
23.0203
23.0203
23.0203
23.0203
23.0203
23.0203
23.0203
23.0203
23.0203
23.0203
23.0203
23.0203
23.0203
23.0203
23.0203
23.0203
23.0202
23.0202
23.0202
23.0202
23.0202
23.0202
23.0202
23.0202
23.0202
23.0201
23.0201
23.0201
23.0201
23.0201
23.0201
23.0201
23.0201
23.0201
23.0201
23.0202
23.0202
23.0202
23.0575
23.0575
23.0575
23.0575
23.0575
23.0575
23.0575
23.0575
23.0575
23.0575
23.0575
23.0575
23.0575
23.0575
23.0575
23.0575
23.0575
23.0576
23.0576
23.0576
23.0576
23.0576
23.0576
23.0576
23.0576
23.0576
23.0576
23.0576
23.0576
23.0576
23.0576
23.0576
23.0576
23.0576
23.0576
23.0576
23.0576
23.0576
23.0576
23.0576
23.0576
23.0576
23.0576
23.0575
23.0575
23.0575
23.0575
23.0575
23.0575
23.0575
23.0575
23.0575
23.0575
23.0575
23.0575
23.0575
23.0575
23.0575
23.0575
23.0575
23.0939
23.0939
23.0939
23.0939
23.0939
23.0939
23.0939
23.0938
23.0938
23.0939
23.0939
23.0939
23.0939
23.0939
23.0939
23.0939
23.0939
23.0939
23.094
23.094
23.094
23.094
23.094
23.094
23.094
23.094
23.094
23.094
23.094
23.094
23.094
23.094
23.094
23.094
23.094
23.094
23.094
23.094
23.094
23.094
23.094
23.094
23.0939
23.0939
23.0939
23.0939
23.0939
23.0939
23.0939
23.0939
23.0939
23.0938
23.0938
23.0939
23.0939
23.0939
23.0939
23.0939
23.0939
23.0939
23.1295
23.1295
23.1294
23.1294
23.1294
23.1294
23.1294
23.1294
23.1294
23.1294
23.1294
23.1294
23.1294
23.1294
23.1294
23.1294
23.1295
23.1295
23.1295
23.1295
23.1295
23.1295
23.1295
23.1295
23.1295
23.1296
23.1296
23.1296
23.1296
23.1296
23.1296
23.1296
23.1296
23.1296
23.1296
23.1295
23.1295
23.1295
23.1295
23.1295
23.1295
23.1295
23.1295
23.1295
23.1294
23.1294
23.1294
23.1294
23.1294
23.1294
23.1294
23.1294
23.1294
23.1294
23.1294
23.1294
23.1294
23.1294
23.1295
23.1295
23.1642
23.1642
23.1642
23.1642
23.1642
23.1642
23.1642
23.1642
23.1642
23.1642
23.1642
23.1642
23.1642
23.1642
23.1642
23.1642
23.1642
23.1642
23.1643
23.1643
23.1643
23.1643
23.1643
23.1643