/*--------------------------------*- C++ -*----------------------------------*\
| =========                 |                                                 |
| \\      /  F ield         | foam-extend: Open Source CFD                    |
|  \\    /   O peration     | Version:     4.0                                |
|   \\  /    A nd           | Web:         http://www.foam-extend.org         |
|    \\/     M anipulation  |                                                 |
\*---------------------------------------------------------------------------*/
FoamFile
{
    version     2.0;
    format      ascii;
    class       volScalarField;
    location    "1900";
    object      psiE;
}
// * * * * * * * * * * * * * * * * * * * * * * * * * * * * * * * * * * * * * //

dimensions      [0 0 0 0 0 0 0];

internalField   nonuniform List<scalar> 
6960
(
0.403464
0.403505
0.403516
0.403519
0.40352
0.403519
0.403519
0.403519
0.403518
0.403518
0.403518
0.403517
0.403517
0.403517
0.403516
0.403516
0.403516
0.403516
0.403515
0.403515
0.403515
0.403515
0.403515
0.403515
0.403515
0.403515
0.403514
0.403514
0.403514
0.403514
0.403514
0.403514
0.403514
0.403514
0.403515
0.403515
0.403515
0.403515
0.403515
0.403515
0.403515
0.403515
0.403516
0.403516
0.403516
0.403516
0.403517
0.403517
0.403517
0.403518
0.403518
0.403518
0.403519
0.403519
0.403519
0.40352
0.403519
0.403516
0.403505
0.403464
1.1003
1.10046
1.1005
1.10051
1.10051
1.10051
1.10051
1.10051
1.10051
1.10051
1.10051
1.1005
1.1005
1.1005
1.1005
1.1005
1.1005
1.1005
1.1005
1.1005
1.1005
1.10049
1.10049
1.10049
1.10049
1.10049
1.10049
1.10049
1.10049
1.10049
1.10049
1.10049
1.10049
1.10049
1.10049
1.10049
1.10049
1.10049
1.10049
1.1005
1.1005
1.1005
1.1005
1.1005
1.1005
1.1005
1.1005
1.1005
1.1005
1.10051
1.10051
1.10051
1.10051
1.10051
1.10051
1.10051
1.10051
1.1005
1.10046
1.1003
1.77279
1.77306
1.77314
1.77316
1.77316
1.77316
1.77316
1.77315
1.77315
1.77315
1.77314
1.77314
1.77314
1.77314
1.77313
1.77313
1.77313
1.77313
1.77313
1.77313
1.77312
1.77312
1.77312
1.77312
1.77312
1.77312
1.77312
1.77312
1.77312
1.77312
1.77312
1.77312
1.77312
1.77312
1.77312
1.77312
1.77312
1.77312
1.77312
1.77312
1.77313
1.77313
1.77313
1.77313
1.77313
1.77313
1.77314
1.77314
1.77314
1.77314
1.77315
1.77315
1.77315
1.77316
1.77316
1.77316
1.77316
1.77314
1.77306
1.77279
2.43121
2.43159
2.4317
2.43172
2.43173
2.43172
2.43172
2.43171
2.43171
2.4317
2.4317
2.4317
2.43169
2.43169
2.43168
2.43168
2.43168
2.43168
2.43167
2.43167
2.43167
2.43167
2.43167
2.43167
2.43166
2.43166
2.43166
2.43166
2.43166
2.43166
2.43166
2.43166
2.43166
2.43166
2.43166
2.43166
2.43167
2.43167
2.43167
2.43167
2.43167
2.43167
2.43168
2.43168
2.43168
2.43168
2.43169
2.43169
2.4317
2.4317
2.4317
2.43171
2.43171
2.43172
2.43172
2.43173
2.43172
2.4317
2.43159
2.43121
3.07455
3.07504
3.07517
3.0752
3.0752
3.0752
3.07519
3.07518
3.07518
3.07517
3.07516
3.07516
3.07515
3.07515
3.07514
3.07514
3.07513
3.07513
3.07513
3.07513
3.07512
3.07512
3.07512
3.07512
3.07512
3.07511
3.07511
3.07511
3.07511
3.07511
3.07511
3.07511
3.07511
3.07511
3.07511
3.07512
3.07512
3.07512
3.07512
3.07512
3.07513
3.07513
3.07513
3.07513
3.07514
3.07514
3.07515
3.07515
3.07516
3.07516
3.07517
3.07518
3.07518
3.07519
3.0752
3.0752
3.0752
3.07517
3.07504
3.07455
3.69914
3.6997
3.69985
3.69989
3.69989
3.69988
3.69987
3.69986
3.69985
3.69984
3.69984
3.69983
3.69982
3.69981
3.69981
3.6998
3.6998
3.69979
3.69979
3.69979
3.69978
3.69978
3.69978
3.69977
3.69977
3.69977
3.69977
3.69977
3.69977
3.69977
3.69977
3.69977
3.69977
3.69977
3.69977
3.69977
3.69977
3.69978
3.69978
3.69978
3.69979
3.69979
3.69979
3.6998
3.6998
3.69981
3.69981
3.69982
3.69983
3.69984
3.69984
3.69985
3.69986
3.69987
3.69988
3.69989
3.69989
3.69985
3.6997
3.69914
4.30007
4.30069
4.30086
4.30089
4.30089
4.30088
4.30087
4.30086
4.30085
4.30084
4.30082
4.30082
4.30081
4.3008
4.30079
4.30078
4.30078
4.30077
4.30077
4.30076
4.30076
4.30075
4.30075
4.30075
4.30075
4.30074
4.30074
4.30074
4.30074
4.30074
4.30074
4.30074
4.30074
4.30074
4.30074
4.30075
4.30075
4.30075
4.30075
4.30076
4.30076
4.30077
4.30077
4.30078
4.30078
4.30079
4.3008
4.30081
4.30082
4.30082
4.30084
4.30085
4.30086
4.30087
4.30088
4.30089
4.30089
4.30086
4.30069
4.30007
4.87144
4.87209
4.87226
4.8723
4.8723
4.87228
4.87227
4.87225
4.87224
4.87222
4.87221
4.8722
4.87219
4.87218
4.87217
4.87216
4.87215
4.87215
4.87214
4.87213
4.87213
4.87213
4.87212
4.87212
4.87212
4.87211
4.87211
4.87211
4.87211
4.87211
4.87211
4.87211
4.87211
4.87211
4.87211
4.87212
4.87212
4.87212
4.87213
4.87213
4.87213
4.87214
4.87215
4.87215
4.87216
4.87217
4.87218
4.87219
4.8722
4.87221
4.87222
4.87224
4.87225
4.87227
4.87228
4.8723
4.8723
4.87226
4.87209
4.87144
5.40627
5.40692
5.4071
5.40713
5.40712
5.4071
5.40708
5.40707
5.40705
5.40703
5.40702
5.407
5.40699
5.40698
5.40697
5.40696
5.40695
5.40694
5.40693
5.40692
5.40692
5.40691
5.40691
5.4069
5.4069
5.4069
5.40689
5.40689
5.40689
5.40689
5.40689
5.40689
5.40689
5.40689
5.4069
5.4069
5.4069
5.40691
5.40691
5.40692
5.40692
5.40693
5.40694
5.40695
5.40696
5.40697
5.40698
5.40699
5.407
5.40702
5.40703
5.40705
5.40707
5.40708
5.4071
5.40712
5.40713
5.4071
5.40692
5.40627
5.89671
5.89732
5.89748
5.89751
5.89749
5.89747
5.89745
5.89743
5.89741
5.89739
5.89737
5.89735
5.89733
5.89732
5.89731
5.8973
5.89728
5.89727
5.89727
5.89726
5.89725
5.89724
5.89724
5.89723
5.89723
5.89723
5.89722
5.89722
5.89722
5.89722
5.89722
5.89722
5.89722
5.89722
5.89723
5.89723
5.89723
5.89724
5.89724
5.89725
5.89726
5.89727
5.89727
5.89728
5.8973
5.89731
5.89732
5.89733
5.89735
5.89737
5.89739
5.89741
5.89743
5.89745
5.89747
5.89749
5.89751
5.89748
5.89732
5.89671
6.33477
6.3353
6.33544
6.33545
6.33543
6.3354
6.33538
6.33535
6.33532
6.3353
6.33528
6.33526
6.33524
6.33522
6.33521
6.3352
6.33518
6.33517
6.33516
6.33515
6.33514
6.33514
6.33513
6.33512
6.33512
6.33512
6.33511
6.33511
6.33511
6.33511
6.33511
6.33511
6.33511
6.33511
6.33512
6.33512
6.33512
6.33513
6.33514
6.33514
6.33515
6.33516
6.33517
6.33518
6.3352
6.33521
6.33522
6.33524
6.33526
6.33528
6.3353
6.33532
6.33535
6.33538
6.3354
6.33543
6.33545
6.33544
6.3353
6.33477
6.71403
6.71446
6.71456
6.71456
6.71453
6.7145
6.71446
6.71443
6.7144
6.71438
6.71435
6.71433
6.71431
6.71429
6.71427
6.71426
6.71424
6.71423
6.71422
6.71421
6.7142
6.71419
6.71418
6.71417
6.71417
6.71417
6.71416
6.71416
6.71416
6.71416
6.71416
6.71416
6.71416
6.71416
6.71417
6.71417
6.71417
6.71418
6.71419
6.7142
6.71421
6.71422
6.71423
6.71424
6.71426
6.71427
6.71429
6.71431
6.71433
6.71435
6.71438
6.7144
6.71443
6.71446
6.7145
6.71453
6.71456
6.71456
6.71446
6.71403
7.032
7.03229
7.03235
7.03234
7.0323
7.03226
7.03223
7.03219
7.03216
7.03213
7.0321
7.03207
7.03205
7.03203
7.03201
7.03199
7.03197
7.03196
7.03195
7.03193
7.03192
7.03191
7.03191
7.0319
7.03189
7.03189
7.03188
7.03188
7.03188
7.03188
7.03188
7.03188
7.03188
7.03188
7.03189
7.03189
7.0319
7.03191
7.03191
7.03192
7.03193
7.03195
7.03196
7.03197
7.03199
7.03201
7.03203
7.03205
7.03207
7.0321
7.03213
7.03216
7.03219
7.03223
7.03226
7.0323
7.03234
7.03235
7.03229
7.032
7.29169
7.29185
7.29187
7.29184
7.2918
7.29176
7.29171
7.29167
7.29164
7.29161
7.29157
7.29155
7.29152
7.2915
7.29148
7.29146
7.29144
7.29142
7.29141
7.2914
7.29138
7.29137
7.29137
7.29136
7.29135
7.29135
7.29134
7.29134
7.29134
7.29133
7.29133
7.29134
7.29134
7.29134
7.29135
7.29135
7.29136
7.29137
7.29137
7.29138
7.2914
7.29141
7.29142
7.29144
7.29146
7.29148
7.2915
7.29152
7.29155
7.29157
7.29161
7.29164
7.29167
7.29171
7.29176
7.2918
7.29184
7.29187
7.29185
7.29169
7.50121
7.50126
7.50124
7.5012
7.50115
7.5011
7.50106
7.50101
7.50098
7.50094
7.50091
7.50088
7.50085
7.50082
7.5008
7.50078
7.50076
7.50075
7.50073
7.50072
7.5007
7.50069
7.50068
7.50067
7.50067
7.50066
7.50066
7.50065
7.50065
7.50065
7.50065
7.50065
7.50065
7.50066
7.50066
7.50067
7.50067
7.50068
7.50069
7.5007
7.50072
7.50073
7.50075
7.50076
7.50078
7.5008
7.50082
7.50085
7.50088
7.50091
7.50094
7.50098
7.50101
7.50106
7.5011
7.50115
7.5012
7.50124
7.50126
7.50121
7.67125
7.67122
7.67117
7.67112
7.67106
7.67101
7.67096
7.67092
7.67088
7.67084
7.67081
7.67078
7.67075
7.67072
7.6707
7.67068
7.67066
7.67064
7.67062
7.67061
7.67059
7.67058
7.67057
7.67056
7.67056
7.67055
7.67055
7.67054
7.67054
7.67054
7.67054
7.67054
7.67054
7.67055
7.67055
7.67056
7.67056
7.67057
7.67058
7.67059
7.67061
7.67062
7.67064
7.67066
7.67068
7.6707
7.67072
7.67075
7.67078
7.67081
7.67084
7.67088
7.67092
7.67096
7.67101
7.67106
7.67112
7.67117
7.67122
7.67125
7.81228
7.81218
7.81212
7.81206
7.812
7.81195
7.81189
7.81185
7.81181
7.81177
7.81173
7.8117
7.81167
7.81164
7.81162
7.8116
7.81158
7.81156
7.81154
7.81153
7.81151
7.8115
7.81149
7.81148
7.81147
7.81147
7.81146
7.81146
7.81146
7.81146
7.81146
7.81146
7.81146
7.81146
7.81147
7.81147
7.81148
7.81149
7.8115
7.81151
7.81153
7.81154
7.81156
7.81158
7.8116
7.81162
7.81164
7.81167
7.8117
7.81173
7.81177
7.81181
7.81185
7.81189
7.81195
7.812
7.81206
7.81212
7.81218
7.81228
7.93278
7.93264
7.93256
7.93249
7.93243
7.93237
7.93232
7.93227
7.93223
7.93219
7.93216
7.93212
7.93209
7.93206
7.93204
7.93202
7.932
7.93198
7.93196
7.93195
7.93193
7.93192
7.93191
7.9319
7.93189
7.93189
7.93188
7.93188
7.93188
7.93187
7.93187
7.93188
7.93188
7.93188
7.93189
7.93189
7.9319
7.93191
7.93192
7.93193
7.93195
7.93196
7.93198
7.932
7.93202
7.93204
7.93206
7.93209
7.93212
7.93216
7.93219
7.93223
7.93227
7.93232
7.93237
7.93243
7.93249
7.93256
7.93264
7.93278
8.03885
8.03869
8.03859
8.03852
8.03846
8.0384
8.03835
8.0383
8.03826
8.03822
8.03818
8.03815
8.03812
8.03809
8.03806
8.03804
8.03802
8.038
8.03798
8.03797
8.03795
8.03794
8.03793
8.03792
8.03791
8.03791
8.0379
8.0379
8.0379
8.0379
8.0379
8.0379
8.0379
8.0379
8.03791
8.03791
8.03792
8.03793
8.03794
8.03795
8.03797
8.03798
8.038
8.03802
8.03804
8.03806
8.03809
8.03812
8.03815
8.03818
8.03822
8.03826
8.0383
8.03835
8.0384
8.03846
8.03852
8.03859
8.03869
8.03885
8.13464
8.13446
8.13436
8.13428
8.13422
8.13416
8.13411
8.13406
8.13402
8.13398
8.13394
8.1339
8.13387
8.13385
8.13382
8.1338
8.13378
8.13376
8.13374
8.13372
8.13371
8.1337
8.13369
8.13368
8.13367
8.13366
8.13366
8.13365
8.13365
8.13365
8.13365
8.13365
8.13365
8.13366
8.13366
8.13367
8.13368
8.13369
8.1337
8.13371
8.13372
8.13374
8.13376
8.13378
8.1338
8.13382
8.13385
8.13387
8.1339
8.13394
8.13398
8.13402
8.13406
8.13411
8.13416
8.13422
8.13428
8.13436
8.13446
8.13464
8.2229
8.22271
8.2226
8.22252
8.22246
8.2224
8.22234
8.2223
8.22225
8.22221
8.22217
8.22214
8.22211
8.22208
8.22205
8.22203
8.22201
8.22199
8.22197
8.22196
8.22194
8.22193
8.22192
8.22191
8.2219
8.2219
8.22189
8.22189
8.22188
8.22188
8.22188
8.22188
8.22189
8.22189
8.2219
8.2219
8.22191
8.22192
8.22193
8.22194
8.22196
8.22197
8.22199
8.22201
8.22203
8.22205
8.22208
8.22211
8.22214
8.22217
8.22221
8.22225
8.2223
8.22234
8.2224
8.22246
8.22252
8.2226
8.22271
8.2229
8.30548
8.30528
8.30517
8.30509
8.30503
8.30497
8.30491
8.30486
8.30482
8.30478
8.30474
8.30471
8.30468
8.30465
8.30462
8.3046
8.30458
8.30456
8.30454
8.30452
8.30451
8.3045
8.30449
8.30448
8.30447
8.30446
8.30446
8.30445
8.30445
8.30445
8.30445
8.30445
8.30445
8.30446
8.30446
8.30447
8.30448
8.30449
8.3045
8.30451
8.30452
8.30454
8.30456
8.30458
8.3046
8.30462
8.30465
8.30468
8.30471
8.30474
8.30478
8.30482
8.30486
8.30491
8.30497
8.30503
8.30509
8.30517
8.30528
8.30548
8.38369
8.38349
8.38338
8.3833
8.38323
8.38317
8.38312
8.38307
8.38302
8.38298
8.38294
8.38291
8.38288
8.38285
8.38282
8.3828
8.38278
8.38276
8.38274
8.38272
8.38271
8.3827
8.38269
8.38268
8.38267
8.38266
8.38266
8.38265
8.38265
8.38265
8.38265
8.38265
8.38265
8.38266
8.38266
8.38267
8.38268
8.38269
8.3827
8.38271
8.38272
8.38274
8.38276
8.38278
8.3828
8.38282
8.38285
8.38288
8.38291
8.38294
8.38298
8.38302
8.38307
8.38312
8.38317
8.38323
8.3833
8.38338
8.38349
8.38369
8.45848
8.45828
8.45816
8.45808
8.45801
8.45795
8.4579
8.45785
8.4578
8.45776
8.45773
8.45769
8.45766
8.45763
8.4576
8.45758
8.45756
8.45754
8.45752
8.45751
8.45749
8.45748
8.45747
8.45746
8.45745
8.45744
8.45744
8.45744
8.45743
8.45743
8.45743
8.45743
8.45744
8.45744
8.45744
8.45745
8.45746
8.45747
8.45748
8.45749
8.45751
8.45752
8.45754
8.45756
8.45758
8.4576
8.45763
8.45766
8.45769
8.45773
8.45776
8.4578
8.45785
8.4579
8.45795
8.45801
8.45808
8.45816
8.45828
8.45848
8.53056
8.53037
8.53025
8.53016
8.53009
8.53003
8.52998
8.52993
8.52989
8.52984
8.52981
8.52977
8.52974
8.52971
8.52968
8.52966
8.52964
8.52962
8.5296
8.52959
8.52957
8.52956
8.52955
8.52954
8.52953
8.52952
8.52952
8.52952
8.52951
8.52951
8.52951
8.52951
8.52952
8.52952
8.52952
8.52953
8.52954
8.52955
8.52956
8.52957
8.52959
8.5296
8.52962
8.52964
8.52966
8.52968
8.52971
8.52974
8.52977
8.52981
8.52984
8.52989
8.52993
8.52998
8.53003
8.53009
8.53016
8.53025
8.53037
8.53056
8.6005
8.60031
8.60019
8.6001
8.60003
8.59997
8.59992
8.59987
8.59982
8.59978
8.59974
8.59971
8.59968
8.59965
8.59962
8.5996
8.59958
8.59956
8.59954
8.59952
8.59951
8.5995
8.59948
8.59947
8.59947
8.59946
8.59945
8.59945
8.59945
8.59945
8.59945
8.59945
8.59945
8.59945
8.59946
8.59947
8.59947
8.59948
8.5995
8.59951
8.59952
8.59954
8.59956
8.59958
8.5996
8.59962
8.59965
8.59968
8.59971
8.59974
8.59978
8.59982
8.59987
8.59992
8.59997
8.60003
8.6001
8.60019
8.60031
8.6005
8.66874
8.66855
8.66843
8.66834
8.66827
8.66821
8.66816
8.66811
8.66806
8.66802
8.66798
8.66795
8.66791
8.66789
8.66786
8.66784
8.66781
8.66779
8.66778
8.66776
8.66775
8.66773
8.66772
8.66771
8.6677
8.6677
8.66769
8.66769
8.66769
8.66769
8.66769
8.66769
8.66769
8.66769
8.6677
8.6677
8.66771
8.66772
8.66773
8.66775
8.66776
8.66778
8.66779
8.66781
8.66784
8.66786
8.66789
8.66791
8.66795
8.66798
8.66802
8.66806
8.66811
8.66816
8.66821
8.66827
8.66834
8.66843
8.66855
8.66874
8.73564
8.73546
8.73533
8.73525
8.73518
8.73512
8.73506
8.73501
8.73497
8.73493
8.73489
8.73485
8.73482
8.73479
8.73477
8.73474
8.73472
8.7347
8.73468
8.73467
8.73465
8.73464
8.73463
8.73462
8.73461
8.73461
8.7346
8.7346
8.73459
8.73459
8.73459
8.73459
8.7346
8.7346
8.73461
8.73461
8.73462
8.73463
8.73464
8.73465
8.73467
8.73468
8.7347
8.73472
8.73474
8.73477
8.73479
8.73482
8.73485
8.73489
8.73493
8.73497
8.73501
8.73506
8.73512
8.73518
8.73525
8.73533
8.73546
8.73564
8.80152
8.80134
8.80122
8.80113
8.80106
8.801
8.80094
8.80089
8.80085
8.80081
8.80077
8.80073
8.8007
8.80067
8.80065
8.80062
8.8006
8.80058
8.80056
8.80055
8.80053
8.80052
8.80051
8.8005
8.80049
8.80049
8.80048
8.80048
8.80047
8.80047
8.80047
8.80047
8.80048
8.80048
8.80049
8.80049
8.8005
8.80051
8.80052
8.80053
8.80055
8.80056
8.80058
8.8006
8.80062
8.80065
8.80067
8.8007
8.80073
8.80077
8.80081
8.80085
8.80089
8.80094
8.801
8.80106
8.80113
8.80122
8.80134
8.80152
8.86663
8.86645
8.86633
8.86624
8.86617
8.86611
8.86606
8.86601
8.86596
8.86592
8.86588
8.86585
8.86581
8.86579
8.86576
8.86573
8.86571
8.86569
8.86568
8.86566
8.86564
8.86563
8.86562
8.86561
8.8656
8.8656
8.86559
8.86559
8.86559
8.86558
8.86558
8.86559
8.86559
8.86559
8.8656
8.8656
8.86561
8.86562
8.86563
8.86564
8.86566
8.86568
8.86569
8.86571
8.86573
8.86576
8.86579
8.86581
8.86585
8.86588
8.86592
8.86596
8.86601
8.86606
8.86611
8.86617
8.86624
8.86633
8.86645
8.86663
8.93119
8.93102
8.9309
8.93081
8.93074
8.93068
8.93062
8.93057
8.93053
8.93048
8.93045
8.93041
8.93038
8.93035
8.93032
8.9303
8.93028
8.93026
8.93024
8.93023
8.93021
8.9302
8.93019
8.93018
8.93017
8.93016
8.93016
8.93015
8.93015
8.93015
8.93015
8.93015
8.93015
8.93016
8.93016
8.93017
8.93018
8.93019
8.9302
8.93021
8.93023
8.93024
8.93026
8.93028
8.9303
8.93032
8.93035
8.93038
8.93041
8.93045
8.93048
8.93053
8.93057
8.93062
8.93068
8.93074
8.93081
8.9309
8.93102
8.93119
8.9954
8.99524
8.99511
8.99502
8.99495
8.99489
8.99484
8.99479
8.99474
8.9947
8.99466
8.99463
8.9946
8.99457
8.99454
8.99452
8.99449
8.99447
8.99446
8.99444
8.99443
8.99441
8.9944
8.99439
8.99438
8.99438
8.99437
8.99437
8.99437
8.99436
8.99436
8.99437
8.99437
8.99437
8.99438
8.99438
8.99439
8.9944
8.99441
8.99443
8.99444
8.99446
8.99447
8.99449
8.99452
8.99454
8.99457
8.9946
8.99463
8.99466
8.9947
8.99474
8.99479
8.99484
8.99489
8.99495
8.99502
8.99511
8.99524
8.9954
9.05943
9.05927
9.05915
9.05906
9.05899
9.05893
9.05887
9.05882
9.05878
9.05874
9.0587
9.05866
9.05863
9.0586
9.05858
9.05855
9.05853
9.05851
9.05849
9.05848
9.05846
9.05845
9.05844
9.05843
9.05842
9.05841
9.05841
9.0584
9.0584
9.0584
9.0584
9.0584
9.0584
9.05841
9.05841
9.05842
9.05843
9.05844
9.05845
9.05846
9.05848
9.05849
9.05851
9.05853
9.05855
9.05858
9.0586
9.05863
9.05866
9.0587
9.05874
9.05878
9.05882
9.05887
9.05893
9.05899
9.05906
9.05915
9.05927
9.05943
9.12344
9.12328
9.12316
9.12307
9.123
9.12294
9.12288
9.12283
9.12279
9.12275
9.12271
9.12267
9.12264
9.12261
9.12259
9.12256
9.12254
9.12252
9.1225
9.12249
9.12247
9.12246
9.12245
9.12244
9.12243
9.12243
9.12242
9.12242
9.12241
9.12241
9.12241
9.12241
9.12242
9.12242
9.12243
9.12243
9.12244
9.12245
9.12246
9.12247
9.12249
9.1225
9.12252
9.12254
9.12256
9.12259
9.12261
9.12264
9.12267
9.12271
9.12275
9.12279
9.12283
9.12288
9.12294
9.123
9.12307
9.12316
9.12328
9.12344
9.18756
9.18741
9.18729
9.1872
9.18712
9.18706
9.18701
9.18696
9.18691
9.18687
9.18684
9.1868
9.18677
9.18674
9.18671
9.18669
9.18667
9.18665
9.18663
9.18661
9.1866
9.18659
9.18658
9.18657
9.18656
9.18655
9.18655
9.18654
9.18654
9.18654
9.18654
9.18654
9.18654
9.18655
9.18655
9.18656
9.18657
9.18658
9.18659
9.1866
9.18661
9.18663
9.18665
9.18667
9.18669
9.18671
9.18674
9.18677
9.1868
9.18684
9.18687
9.18691
9.18696
9.18701
9.18706
9.18712
9.1872
9.18729
9.18741
9.18756
9.25192
9.25177
9.25165
9.25157
9.25149
9.25143
9.25138
9.25133
9.25128
9.25124
9.2512
9.25117
9.25114
9.25111
9.25108
9.25106
9.25104
9.25102
9.251
9.25098
9.25097
9.25096
9.25095
9.25094
9.25093
9.25092
9.25092
9.25091
9.25091
9.25091
9.25091
9.25091
9.25091
9.25092
9.25092
9.25093
9.25094
9.25095
9.25096
9.25097
9.25098
9.251
9.25102
9.25104
9.25106
9.25108
9.25111
9.25114
9.25117
9.2512
9.25124
9.25128
9.25133
9.25138
9.25143
9.25149
9.25157
9.25165
9.25177
9.25192
9.31664
9.3165
9.31639
9.3163
9.31622
9.31616
9.31611
9.31606
9.31602
9.31597
9.31594
9.3159
9.31587
9.31584
9.31582
9.31579
9.31577
9.31575
9.31573
9.31572
9.3157
9.31569
9.31568
9.31567
9.31566
9.31565
9.31565
9.31564
9.31564
9.31564
9.31564
9.31564
9.31564
9.31565
9.31565
9.31566
9.31567
9.31568
9.31569
9.3157
9.31572
9.31573
9.31575
9.31577
9.31579
9.31582
9.31584
9.31587
9.3159
9.31594
9.31597
9.31602
9.31606
9.31611
9.31616
9.31622
9.3163
9.31639
9.3165
9.31664
9.38184
9.38171
9.38159
9.3815
9.38143
9.38137
9.38131
9.38126
9.38122
9.38118
9.38114
9.38111
9.38107
9.38105
9.38102
9.381
9.38097
9.38095
9.38094
9.38092
9.38091
9.38089
9.38088
9.38087
9.38086
9.38086
9.38085
9.38085
9.38085
9.38084
9.38084
9.38085
9.38085
9.38085
9.38086
9.38086
9.38087
9.38088
9.38089
9.38091
9.38092
9.38094
9.38095
9.38097
9.381
9.38102
9.38105
9.38107
9.38111
9.38114
9.38118
9.38122
9.38126
9.38131
9.38137
9.38143
9.3815
9.38159
9.38171
9.38184
9.44761
9.44749
9.44737
9.44728
9.44721
9.44715
9.4471
9.44705
9.447
9.44696
9.44692
9.44689
9.44686
9.44683
9.4468
9.44678
9.44676
9.44674
9.44672
9.4467
9.44669
9.44668
9.44666
9.44665
9.44665
9.44664
9.44663
9.44663
9.44663
9.44663
9.44663
9.44663
9.44663
9.44663
9.44664
9.44665
9.44665
9.44666
9.44668
9.44669
9.4467
9.44672
9.44674
9.44676
9.44678
9.4468
9.44683
9.44686
9.44689
9.44692
9.44696
9.447
9.44705
9.4471
9.44715
9.44721
9.44728
9.44737
9.44749
9.44761
9.51406
9.51394
9.51383
9.51374
9.51367
9.51361
9.51355
9.5135
9.51346
9.51342
9.51338
9.51335
9.51332
9.51329
9.51326
9.51324
9.51321
9.5132
9.51318
9.51316
9.51315
9.51313
9.51312
9.51311
9.51311
9.5131
9.51309
9.51309
9.51309
9.51309
9.51309
9.51309
9.51309
9.51309
9.5131
9.51311
9.51311
9.51312
9.51313
9.51315
9.51316
9.51318
9.5132
9.51321
9.51324
9.51326
9.51329
9.51332
9.51335
9.51338
9.51342
9.51346
9.5135
9.51355
9.51361
9.51367
9.51374
9.51383
9.51394
9.51406
9.58129
9.58117
9.58106
9.58097
9.5809
9.58084
9.58078
9.58073
9.58069
9.58065
9.58061
9.58058
9.58055
9.58052
9.58049
9.58047
9.58045
9.58043
9.58041
9.58039
9.58038
9.58037
9.58035
9.58034
9.58034
9.58033
9.58032
9.58032
9.58032
9.58032
9.58032
9.58032
9.58032
9.58032
9.58033
9.58034
9.58034
9.58035
9.58037
9.58038
9.58039
9.58041
9.58043
9.58045
9.58047
9.58049
9.58052
9.58055
9.58058
9.58061
9.58065
9.58069
9.58073
9.58078
9.58084
9.5809
9.58097
9.58106
9.58117
9.58129
9.64937
9.64926
9.64915
9.64906
9.64899
9.64893
9.64888
9.64883
9.64878
9.64874
9.64871
9.64867
9.64864
9.64861
9.64859
9.64856
9.64854
9.64852
9.6485
9.64849
9.64847
9.64846
9.64845
9.64844
9.64843
9.64842
9.64842
9.64842
9.64841
9.64841
9.64841
9.64841
9.64842
9.64842
9.64842
9.64843
9.64844
9.64845
9.64846
9.64847
9.64849
9.6485
9.64852
9.64854
9.64856
9.64859
9.64861
9.64864
9.64867
9.64871
9.64874
9.64878
9.64883
9.64888
9.64893
9.64899
9.64906
9.64915
9.64926
9.64937
9.71841
9.7183
9.7182
9.71811
9.71804
9.71798
9.71792
9.71788
9.71783
9.71779
9.71775
9.71772
9.71769
9.71766
9.71763
9.71761
9.71759
9.71757
9.71755
9.71753
9.71752
9.71751
9.7175
9.71749
9.71748
9.71747
9.71747
9.71746
9.71746
9.71746
9.71746
9.71746
9.71746
9.71747
9.71747
9.71748
9.71749
9.7175
9.71751
9.71752
9.71753
9.71755
9.71757
9.71759
9.71761
9.71763
9.71766
9.71769
9.71772
9.71775
9.71779
9.71783
9.71788
9.71792
9.71798
9.71804
9.71811
9.7182
9.7183
9.71841
9.78849
9.78839
9.78828
9.7882
9.78813
9.78806
9.78801
9.78796
9.78792
9.78788
9.78784
9.78781
9.78778
9.78775
9.78772
9.7877
9.78768
9.78766
9.78764
9.78762
9.78761
9.7876
9.78758
9.78757
9.78757
9.78756
9.78755
9.78755
9.78755
9.78755
9.78755
9.78755
9.78755
9.78755
9.78756
9.78757
9.78757
9.78758
9.7876
9.78761
9.78762
9.78764
9.78766
9.78768
9.7877
9.78772
9.78775
9.78778
9.78781
9.78784
9.78788
9.78792
9.78796
9.78801
9.78806
9.78813
9.7882
9.78828
9.78839
9.78849
9.8597
9.8596
9.85949
9.85941
9.85934
9.85928
9.85922
9.85917
9.85913
9.85909
9.85905
9.85902
9.85899
9.85896
9.85893
9.85891
9.85889
9.85887
9.85885
9.85883
9.85882
9.85881
9.8588
9.85879
9.85878
9.85877
9.85877
9.85876
9.85876
9.85876
9.85876
9.85876
9.85876
9.85877
9.85877
9.85878
9.85879
9.8588
9.85881
9.85882
9.85883
9.85885
9.85887
9.85889
9.85891
9.85893
9.85896
9.85899
9.85902
9.85905
9.85909
9.85913
9.85917
9.85922
9.85928
9.85934
9.85941
9.85949
9.8596
9.8597
9.93211
9.93201
9.93191
9.93183
9.93176
9.9317
9.93164
9.9316
9.93155
9.93151
9.93148
9.93144
9.93141
9.93138
9.93136
9.93133
9.93131
9.93129
9.93127
9.93126
9.93124
9.93123
9.93122
9.93121
9.9312
9.93119
9.93119
9.93119
9.93118
9.93118
9.93118
9.93118
9.93119
9.93119
9.93119
9.9312
9.93121
9.93122
9.93123
9.93124
9.93126
9.93127
9.93129
9.93131
9.93133
9.93136
9.93138
9.93141
9.93144
9.93148
9.93151
9.93155
9.9316
9.93164
9.9317
9.93176
9.93183
9.93191
9.93201
9.93211
10.0058
10.0057
10.0056
10.0055
10.0055
10.0054
10.0054
10.0053
10.0053
10.0052
10.0052
10.0052
10.0051
10.0051
10.0051
10.005
10.005
10.005
10.005
10.005
10.005
10.0049
10.0049
10.0049
10.0049
10.0049
10.0049
10.0049
10.0049
10.0049
10.0049
10.0049
10.0049
10.0049
10.0049
10.0049
10.0049
10.0049
10.0049
10.005
10.005
10.005
10.005
10.005
10.005
10.0051
10.0051
10.0051
10.0052
10.0052
10.0052
10.0053
10.0053
10.0054
10.0054
10.0055
10.0055
10.0056
10.0057
10.0058
10.0809
10.0808
10.0807
10.0806
10.0806
10.0805
10.0804
10.0804
10.0804
10.0803
10.0803
10.0802
10.0802
10.0802
10.0802
10.0801
10.0801
10.0801
10.0801
10.0801
10.08
10.08
10.08
10.08
10.08
10.08
10.08
10.08
10.08
10.08
10.08
10.08
10.08
10.08
10.08
10.08
10.08
10.08
10.08
10.08
10.0801
10.0801
10.0801
10.0801
10.0801
10.0802
10.0802
10.0802
10.0802
10.0803
10.0803
10.0804
10.0804
10.0804
10.0805
10.0806
10.0806
10.0807
10.0808
10.0809
10.1574
10.1574
10.1573
10.1572
10.1571
10.157
10.157
10.1569
10.1569
10.1569
10.1568
10.1568
10.1568
10.1567
10.1567
10.1567
10.1567
10.1566
10.1566
10.1566
10.1566
10.1566
10.1566
10.1566
10.1566
10.1566
10.1565
10.1565
10.1565
10.1565
10.1565
10.1565
10.1565
10.1565
10.1566
10.1566
10.1566
10.1566
10.1566
10.1566
10.1566
10.1566
10.1566
10.1567
10.1567
10.1567
10.1567
10.1568
10.1568
10.1568
10.1569
10.1569
10.1569
10.157
10.157
10.1571
10.1572
10.1573
10.1574
10.1574
10.2355
10.2354
10.2353
10.2353
10.2352
10.2351
10.2351
10.235
10.235
10.235
10.2349
10.2349
10.2349
10.2348
10.2348
10.2348
10.2348
10.2347
10.2347
10.2347
10.2347
10.2347
10.2347
10.2347
10.2346
10.2346
10.2346
10.2346
10.2346
10.2346
10.2346
10.2346
10.2346
10.2346
10.2346
10.2346
10.2347
10.2347
10.2347
10.2347
10.2347
10.2347
10.2347
10.2348
10.2348
10.2348
10.2348
10.2349
10.2349
10.2349
10.235
10.235
10.235
10.2351
10.2351
10.2352
10.2353
10.2353
10.2354
10.2355
10.3152
10.3152
10.3151
10.315
10.3149
10.3149
10.3148
10.3148
10.3147
10.3147
10.3146
10.3146
10.3146
10.3145
10.3145
10.3145
10.3145
10.3145
10.3144
10.3144
10.3144
10.3144
10.3144
10.3144
10.3144
10.3144
10.3144
10.3143
10.3143
10.3143
10.3143
10.3143
10.3143
10.3144
10.3144
10.3144
10.3144
10.3144
10.3144
10.3144
10.3144
10.3144
10.3145
10.3145
10.3145
10.3145
10.3145
10.3146
10.3146
10.3146
10.3147
10.3147
10.3148
10.3148
10.3149
10.3149
10.315
10.3151
10.3152
10.3152
10.3966
10.3966
10.3965
10.3964
10.3963
10.3963
10.3962
10.3962
10.3961
10.3961
10.3961
10.396
10.396
10.396
10.3959
10.3959
10.3959
10.3959
10.3959
10.3958
10.3958
10.3958
10.3958
10.3958
10.3958
10.3958
10.3958
10.3958
10.3958
10.3958
10.3958
10.3958
10.3958
10.3958
10.3958
10.3958
10.3958
10.3958
10.3958
10.3958
10.3958
10.3959
10.3959
10.3959
10.3959
10.3959
10.396
10.396
10.396
10.3961
10.3961
10.3961
10.3962
10.3962
10.3963
10.3963
10.3964
10.3965
10.3966
10.3966
10.4798
10.4798
10.4797
10.4796
10.4795
10.4795
10.4794
10.4794
10.4793
10.4793
10.4793
10.4792
10.4792
10.4792
10.4792
10.4791
10.4791
10.4791
10.4791
10.4791
10.479
10.479
10.479
10.479
10.479
10.479
10.479
10.479
10.479
10.479
10.479
10.479
10.479
10.479
10.479
10.479
10.479
10.479
10.479
10.479
10.4791
10.4791
10.4791
10.4791
10.4791
10.4792
10.4792
10.4792
10.4792
10.4793
10.4793
10.4793
10.4794
10.4794
10.4795
10.4795
10.4796
10.4797
10.4798
10.4798
10.5649
10.5649
10.5648
10.5647
10.5646
10.5646
10.5645
10.5645
10.5644
10.5644
10.5644
10.5643
10.5643
10.5643
10.5643
10.5642
10.5642
10.5642
10.5642
10.5642
10.5641
10.5641
10.5641
10.5641
10.5641
10.5641
10.5641
10.5641
10.5641
10.5641
10.5641
10.5641
10.5641
10.5641
10.5641
10.5641
10.5641
10.5641
10.5641
10.5641
10.5642
10.5642
10.5642
10.5642
10.5642
10.5643
10.5643
10.5643
10.5643
10.5644
10.5644
10.5644
10.5645
10.5645
10.5646
10.5646
10.5647
10.5648
10.5649
10.5649
10.652
10.6519
10.6518
10.6518
10.6517
10.6516
10.6516
10.6515
10.6515
10.6515
10.6514
10.6514
10.6514
10.6513
10.6513
10.6513
10.6513
10.6512
10.6512
10.6512
10.6512
10.6512
10.6512
10.6512
10.6512
10.6512
10.6511
10.6511
10.6511
10.6511
10.6511
10.6511
10.6511
10.6511
10.6512
10.6512
10.6512
10.6512
10.6512
10.6512
10.6512
10.6512
10.6512
10.6513
10.6513
10.6513
10.6513
10.6514
10.6514
10.6514
10.6515
10.6515
10.6515
10.6516
10.6516
10.6517
10.6518
10.6518
10.6519
10.652
10.7411
10.741
10.7409
10.7409
10.7408
10.7407
10.7407
10.7407
10.7406
10.7406
10.7405
10.7405
10.7405
10.7404
10.7404
10.7404
10.7404
10.7404
10.7403
10.7403
10.7403
10.7403
10.7403
10.7403
10.7403
10.7403
10.7403
10.7403
10.7403
10.7403
10.7403
10.7403
10.7403
10.7403
10.7403
10.7403
10.7403
10.7403
10.7403
10.7403
10.7403
10.7403
10.7404
10.7404
10.7404
10.7404
10.7404
10.7405
10.7405
10.7405
10.7406
10.7406
10.7407
10.7407
10.7407
10.7408
10.7409
10.7409
10.741
10.7411
10.8323
10.8323
10.8322
10.8321
10.8321
10.832
10.8319
10.8319
10.8319
10.8318
10.8318
10.8318
10.8317
10.8317
10.8317
10.8316
10.8316
10.8316
10.8316
10.8316
10.8316
10.8315
10.8315
10.8315
10.8315
10.8315
10.8315
10.8315
10.8315
10.8315
10.8315
10.8315
10.8315
10.8315
10.8315
10.8315
10.8315
10.8315
10.8315
10.8316
10.8316
10.8316
10.8316
10.8316
10.8316
10.8317
10.8317
10.8317
10.8318
10.8318
10.8318
10.8319
10.8319
10.8319
10.832
10.8321
10.8321
10.8322
10.8323
10.8323
10.9258
10.9257
10.9257
10.9256
10.9255
10.9255
10.9254
10.9254
10.9253
10.9253
10.9253
10.9252
10.9252
10.9252
10.9252
10.9251
10.9251
10.9251
10.9251
10.9251
10.925
10.925
10.925
10.925
10.925
10.925
10.925
10.925
10.925
10.925
10.925
10.925
10.925
10.925
10.925
10.925
10.925
10.925
10.925
10.925
10.9251
10.9251
10.9251
10.9251
10.9251
10.9252
10.9252
10.9252
10.9252
10.9253
10.9253
10.9253
10.9254
10.9254
10.9255
10.9255
10.9256
10.9257
10.9257
10.9258
11.0216
11.0215
11.0215
11.0214
11.0213
11.0213
11.0212
11.0212
11.0211
11.0211
11.0211
11.021
11.021
11.021
11.021
11.0209
11.0209
11.0209
11.0209
11.0209
11.0208
11.0208
11.0208
11.0208
11.0208
11.0208
11.0208
11.0208
11.0208
11.0208
11.0208
11.0208
11.0208
11.0208
11.0208
11.0208
11.0208
11.0208
11.0208
11.0208
11.0209
11.0209
11.0209
11.0209
11.0209
11.021
11.021
11.021
11.021
11.0211
11.0211
11.0211
11.0212
11.0212
11.0213
11.0213
11.0214
11.0215
11.0215
11.0216
11.1198
11.1198
11.1197
11.1196
11.1196
11.1195
11.1194
11.1194
11.1194
11.1193
11.1193
11.1193
11.1192
11.1192
11.1192
11.1192
11.1191
11.1191
11.1191
11.1191
11.1191
11.1191
11.119
11.119
11.119
11.119
11.119
11.119
11.119
11.119
11.119
11.119
11.119
11.119
11.119
11.119
11.119
11.119
11.1191
11.1191
11.1191
11.1191
11.1191
11.1191
11.1192
11.1192
11.1192
11.1192
11.1193
11.1193
11.1193
11.1194
11.1194
11.1194
11.1195
11.1196
11.1196
11.1197
11.1198
11.1198
11.2205
11.2205
11.2204
11.2203
11.2203
11.2202
11.2202
11.2201
11.2201
11.2201
11.22
11.22
11.22
11.2199
11.2199
11.2199
11.2199
11.2198
11.2198
11.2198
11.2198
11.2198
11.2198
11.2198
11.2198
11.2198
11.2198
11.2197
11.2197
11.2197
11.2197
11.2197
11.2197
11.2198
11.2198
11.2198
11.2198
11.2198
11.2198
11.2198
11.2198
11.2198
11.2198
11.2199
11.2199
11.2199
11.2199
11.22
11.22
11.22
11.2201
11.2201
11.2201
11.2202
11.2202
11.2203
11.2203
11.2204
11.2205
11.2205
11.3239
11.3238
11.3237
11.3237
11.3236
11.3236
11.3235
11.3235
11.3234
11.3234
11.3234
11.3233
11.3233
11.3233
11.3233
11.3232
11.3232
11.3232
11.3232
11.3232
11.3231
11.3231
11.3231
11.3231
11.3231
11.3231
11.3231
11.3231
11.3231
11.3231
11.3231
11.3231
11.3231