/*--------------------------------*- C++ -*----------------------------------*\
| =========                 |                                                 |
| \\      /  F ield         | foam-extend: Open Source CFD                    |
|  \\    /   O peration     | Version:     4.0                                |
|   \\  /    A nd           | Web:         http://www.foam-extend.org         |
|    \\/     M anipulation  |                                                 |
\*---------------------------------------------------------------------------*/
FoamFile
{
    version     2.0;
    format      ascii;
    class       volScalarField;
    location    "23";
    object      p;
}
// * * * * * * * * * * * * * * * * * * * * * * * * * * * * * * * * * * * * * //

dimensions      [0 2 -2 0 0 0 0];

internalField   nonuniform List<scalar> 
6960
(
5.12246e-23
7.83149e-23
7.77605e-23
8.18952e-23
8.33242e-23
8.34559e-23
8.25751e-23
8.11148e-23
8.04501e-23
8.0683e-23
8.09726e-23
8.0946e-23
8.04086e-23
7.97266e-23
7.92207e-23
7.90548e-23
7.90883e-23
7.91784e-23
7.92345e-23
7.92752e-23
7.93145e-23
7.93275e-23
7.92743e-23
7.91568e-23
7.90291e-23
7.89569e-23
7.89742e-23
7.9077e-23
7.92346e-23
7.93968e-23
7.95039e-23
7.95247e-23
7.95029e-23
7.95442e-23
7.97212e-23
7.99876e-23
8.02117e-23
8.0303e-23
8.02917e-23
8.02744e-23
8.02885e-23
8.02616e-23
8.00855e-23
7.97461e-23
7.93604e-23
7.91057e-23
7.90775e-23
7.92364e-23
7.94745e-23
7.96893e-23
7.98965e-23
8.00741e-23
8.03302e-23
8.05982e-23
8.09733e-23
8.13296e-23
8.15332e-23
8.17377e-23
8.16168e-23
8.16116e-23
7.2706e-23
7.8226e-23
7.76318e-23
8.17907e-23
8.3271e-23
8.34233e-23
8.25787e-23
8.11675e-23
8.05195e-23
8.07054e-23
8.09014e-23
8.08201e-23
8.03359e-23
7.97889e-23
7.93969e-23
7.92445e-23
7.92042e-23
7.92053e-23
7.92099e-23
7.92412e-23
7.92976e-23
7.93524e-23
7.93752e-23
7.93642e-23
7.93428e-23
7.93382e-23
7.93676e-23
7.94379e-23
7.95419e-23
7.96581e-23
7.97618e-23
7.98461e-23
7.99242e-23
8.00114e-23
8.01107e-23
8.02115e-23
8.02963e-23
8.03523e-23
8.03814e-23
8.03905e-23
8.037e-23
8.0289e-23
8.01176e-23
7.98645e-23
7.95754e-23
7.9325e-23
7.91832e-23
7.91984e-23
7.93788e-23
7.96544e-23
7.99734e-23
8.02244e-23
8.04652e-23
8.06329e-23
8.08773e-23
8.11553e-23
8.13931e-23
8.17153e-23
8.16905e-23
8.17283e-23
7.61892e-23
7.80979e-23
7.75681e-23
8.18017e-23
8.33264e-23
8.34896e-23
8.26754e-23
8.13284e-23
8.07224e-23
8.08801e-23
8.09994e-23
8.08741e-23
8.04416e-23
8.00258e-23
7.97607e-23
7.96483e-23
7.95391e-23
7.94053e-23
7.92788e-23
7.92376e-23
7.93052e-23
7.9448e-23
7.96015e-23
7.97117e-23
7.97571e-23
7.97548e-23
7.97474e-23
7.97711e-23
7.98358e-23
7.99313e-23
8.0048e-23
8.01827e-23
8.0322e-23
8.04328e-23
8.04865e-23
8.04901e-23
8.04777e-23
8.04767e-23
8.04877e-23
8.04945e-23
8.04801e-23
8.04307e-23
8.03273e-23
8.0158e-23
7.99292e-23
7.96894e-23
7.95122e-23
7.94712e-23
7.96006e-23
7.98436e-23
8.01489e-23
8.04021e-23
8.0651e-23
8.0805e-23
8.09869e-23
8.11611e-23
8.1306e-23
8.15977e-23
8.16022e-23
8.17082e-23
7.46359e-23
7.79353e-23
7.74779e-23
8.17749e-23
8.3334e-23
8.35147e-23
8.27469e-23
8.14747e-23
8.09121e-23
8.10586e-23
8.11511e-23
8.10359e-23
8.06646e-23
8.03346e-23
8.0138e-23
8.00398e-23
7.98737e-23
7.96318e-23
7.93979e-23
7.93034e-23
7.93922e-23
7.9614e-23
7.98634e-23
8.00481e-23
8.0131e-23
8.01397e-23
8.01319e-23
8.01507e-23
8.0207e-23
8.02995e-23
8.04247e-23
8.05681e-23
8.06991e-23
8.07844e-23
8.08069e-23
8.07726e-23
8.07075e-23
8.06437e-23
8.0604e-23
8.05942e-23
8.06051e-23
8.0615e-23
8.05861e-23
8.04832e-23
8.03005e-23
8.00921e-23
7.9936e-23
7.98886e-23
7.99634e-23
8.01149e-23
8.03334e-23
8.05373e-23
8.07732e-23
8.09229e-23
8.10687e-23
8.11498e-23
8.11667e-23
8.13623e-23
8.13561e-23
8.15177e-23
7.40194e-23
7.78862e-23
7.74759e-23
8.17745e-23
8.33386e-23
8.35485e-23
8.28509e-23
8.16629e-23
8.11518e-23
8.13292e-23
8.14711e-23
8.14238e-23
8.10973e-23
8.07588e-23
8.05148e-23
8.03658e-23
8.01636e-23
7.98967e-23
7.96469e-23
7.95527e-23
7.9662e-23
7.99107e-23
8.01773e-23
8.03717e-23
8.04779e-23
8.05333e-23
8.05819e-23
8.06466e-23
8.07319e-23
8.08348e-23
8.09443e-23
8.10393e-23
8.11005e-23
8.11256e-23
8.11213e-23
8.10862e-23
8.10132e-23
8.09136e-23
8.08261e-23
8.0792e-23
8.08182e-23
8.08691e-23
8.0886e-23
8.08318e-23
8.07119e-23
8.05811e-23
8.04939e-23
8.04706e-23
8.05021e-23
8.05553e-23
8.06599e-23
8.07692e-23
8.09402e-23
8.10451e-23
8.11491e-23
8.11708e-23
8.10996e-23
8.11968e-23
8.11259e-23
8.12592e-23
7.41035e-23
7.79813e-23
7.76092e-23
8.18675e-23
8.34067e-23
8.36346e-23
8.3012e-23
8.19289e-23
8.15033e-23
8.17535e-23
8.19794e-23
8.20079e-23
8.16943e-23
8.12787e-23
8.09061e-23
8.06549e-23
8.04291e-23
8.02081e-23
8.00245e-23
7.99729e-23
8.00854e-23
8.03055e-23
8.05344e-23
8.07141e-23
8.08505e-23
8.09752e-23
8.11042e-23
8.12367e-23
8.13651e-23
8.14748e-23
8.15455e-23
8.15662e-23
8.15467e-23
8.15098e-23
8.14726e-23
8.14313e-23
8.13662e-23
8.12705e-23
8.11739e-23
8.11228e-23
8.11339e-23
8.11764e-23
8.12025e-23
8.11972e-23
8.11752e-23
8.11624e-23
8.11631e-23
8.11681e-23
8.1173e-23
8.11607e-23
8.11721e-23
8.11697e-23
8.12243e-23
8.12269e-23
8.12621e-23
8.12529e-23
8.11592e-23
8.12002e-23
8.10319e-23
8.10522e-23
7.41796e-23
7.80736e-23
7.77655e-23
8.20063e-23
8.35115e-23
8.37189e-23
8.31503e-23
8.21977e-23
8.18995e-23
8.22303e-23
8.25005e-23
8.25502e-23
8.22195e-23
8.17292e-23
8.12443e-23
8.09026e-23
8.06603e-23
8.04958e-23
8.03886e-23
8.03742e-23
8.04641e-23
8.0631e-23
8.08235e-23
8.101e-23
8.11898e-23
8.1374e-23
8.15642e-23
8.17494e-23
8.19073e-23
8.20123e-23
8.20467e-23
8.20153e-23
8.19428e-23
8.18568e-23
8.17746e-23
8.17006e-23
8.16307e-23
8.15616e-23
8.14994e-23
8.14566e-23
8.14379e-23
8.14385e-23
8.14562e-23
8.15049e-23
8.15879e-23
8.16868e-23
8.17625e-23
8.17938e-23
8.17921e-23
8.17527e-23
8.17069e-23
8.16056e-23
8.15291e-23
8.14054e-23
8.13582e-23
8.13232e-23
8.12305e-23
8.12481e-23
8.10005e-23
8.09145e-23
7.4172e-23
7.8081e-23
7.78687e-23
8.21399e-23
8.36243e-23
8.37859e-23
8.32506e-23
8.24366e-23
8.22729e-23
8.26478e-23
8.28807e-23
8.28746e-23
8.251e-23
8.20031e-23
8.15012e-23
8.1141e-23
8.08904e-23
8.07303e-23
8.06239e-23
8.05868e-23
8.06359e-23
8.07773e-23
8.09877e-23
8.1226e-23
8.14558e-23
8.16672e-23
8.18693e-23
8.20613e-23
8.22193e-23
8.23155e-23
8.23393e-23
8.22993e-23
8.22126e-23
8.20976e-23
8.19711e-23
8.18502e-23
8.17541e-23
8.16958e-23
8.16694e-23
8.16517e-23
8.1627e-23
8.1611e-23
8.16388e-23
8.17356e-23
8.18834e-23
8.20404e-23
8.21608e-23
8.2225e-23
8.22418e-23
8.21984e-23
8.21159e-23
8.19414e-23
8.17702e-23
8.15589e-23
8.14494e-23
8.13715e-23
8.12432e-23
8.12307e-23
8.0951e-23
8.08587e-23
7.42131e-23
7.80716e-23
7.79449e-23
8.22476e-23
8.37302e-23
8.38686e-23
8.33728e-23
8.26738e-23
8.25905e-23
8.2938e-23
8.30658e-23
8.29652e-23
8.25808e-23
8.21276e-23
8.17053e-23
8.13967e-23
8.11384e-23
8.09118e-23
8.07074e-23
8.0583e-23
8.05945e-23
8.07638e-23
8.10486e-23
8.1365e-23
8.1639e-23
8.185e-23
8.20206e-23
8.21733e-23
8.23033e-23
8.2392e-23
8.24273e-23
8.24073e-23
8.23352e-23
8.22177e-23
8.20695e-23
8.19143e-23
8.17827e-23
8.16996e-23
8.16677e-23
8.16659e-23
8.16749e-23
8.17043e-23
8.17783e-23
8.19069e-23
8.20651e-23
8.22238e-23
8.23595e-23
8.24561e-23
8.25011e-23
8.24574e-23
8.23452e-23
8.21342e-23
8.19403e-23
8.17191e-23
8.15847e-23
8.14443e-23
8.12344e-23
8.11743e-23
8.09005e-23
8.09077e-23
7.43708e-23
7.81529e-23
7.8052e-23
8.23185e-23
8.3801e-23
8.39648e-23
8.35329e-23
8.29068e-23
8.28174e-23
8.30648e-23
8.30657e-23
8.28955e-23
8.2538e-23
8.21824e-23
8.18664e-23
8.16135e-23
8.13295e-23
8.10039e-23
8.06735e-23
8.0458e-23
8.04523e-23
8.06686e-23
8.10227e-23
8.13938e-23
8.16942e-23
8.19009e-23
8.20382e-23
8.21425e-23
8.2234e-23
8.23093e-23
8.23529e-23
8.23531e-23
8.23043e-23
8.22058e-23
8.20656e-23
8.19047e-23
8.17509e-23
8.16303e-23
8.15628e-23
8.15582e-23
8.16127e-23
8.17144e-23
8.1846e-23
8.1994e-23
8.2143e-23
8.2288e-23
8.24203e-23
8.25225e-23
8.25686e-23
8.25141e-23
8.2392e-23
8.21978e-23
8.20521e-23
8.18772e-23
8.17427e-23
8.1545e-23
8.12623e-23
8.11704e-23
8.09132e-23
8.10529e-23
7.46366e-23
7.83726e-23
7.82401e-23
8.23861e-23
8.38349e-23
8.40326e-23
8.36651e-23
8.30784e-23
8.29344e-23
8.30583e-23
8.29565e-23
8.27723e-23
8.2485e-23
8.2222e-23
8.19597e-23
8.17003e-23
8.13651e-23
8.09737e-23
8.05905e-23
8.03505e-23
8.03438e-23
8.05646e-23
8.09158e-23
8.12818e-23
8.15858e-23
8.18025e-23
8.19408e-23
8.20279e-23
8.20898e-23
8.21379e-23
8.21671e-23
8.21682e-23
8.21335e-23
8.20584e-23
8.19451e-23
8.18071e-23
8.16638e-23
8.15372e-23
8.1454e-23
8.14408e-23
8.15065e-23
8.16334e-23
8.17899e-23
8.19572e-23
8.21236e-23
8.2279e-23
8.23999e-23
8.2464e-23
8.24649e-23
8.23906e-23
8.22966e-23
8.21731e-23
8.21069e-23
8.19828e-23
8.18576e-23
8.16495e-23
8.13683e-23
8.12974e-23
8.1048e-23
8.12814e-23
7.49777e-23
7.86972e-23
7.85401e-23
8.25283e-23
8.38809e-23
8.40407e-23
8.3684e-23
8.31266e-23
8.29607e-23
8.30153e-23
8.28611e-23
8.26915e-23
8.24667e-23
8.22452e-23
8.19574e-23
8.16273e-23
8.12399e-23
8.08585e-23
8.05344e-23
8.03459e-23
8.03342e-23
8.04906e-23
8.07585e-23
8.10668e-23
8.1357e-23
8.15939e-23
8.17626e-23
8.18646e-23
8.19131e-23
8.19277e-23
8.19241e-23
8.19061e-23
8.18686e-23
8.18075e-23
8.17256e-23
8.16316e-23
8.15387e-23
8.14617e-23
8.14128e-23
8.13993e-23
8.14249e-23
8.14969e-23
8.16238e-23
8.18085e-23
8.20219e-23
8.22113e-23
8.2318e-23
8.23219e-23
8.22601e-23
8.2175e-23
8.2137e-23
8.20987e-23
8.20952e-23
8.2001e-23
8.1907e-23
8.17637e-23
8.15732e-23
8.15761e-23
8.13242e-23
8.16033e-23
7.53718e-23
7.90581e-23
7.89428e-23
8.27926e-23
8.39901e-23
8.40036e-23
8.35761e-23
8.30522e-23
8.29473e-23
8.30306e-23
8.28714e-23
8.2693e-23
8.24646e-23
8.2217e-23
8.18638e-23
8.14639e-23
8.10659e-23
8.07599e-23
8.05506e-23
8.04316e-23
8.03935e-23
8.04504e-23
8.06102e-23
8.08504e-23
8.112e-23
8.13663e-23
8.15535e-23
8.1666e-23
8.17074e-23
8.16988e-23
8.1666e-23
8.16235e-23
8.15741e-23
8.15202e-23
8.14696e-23
8.14329e-23
8.14188e-23
8.14283e-23
8.14448e-23
8.14401e-23
8.14071e-23
8.13886e-23
8.1451e-23
8.16261e-23
8.18646e-23
8.20717e-23
8.21652e-23
8.21355e-23
8.20522e-23
8.19823e-23
8.19892e-23
8.19942e-23
8.2016e-23
8.19547e-23
8.19397e-23
8.19237e-23
8.18679e-23
8.19633e-23
8.17074e-23
8.20209e-23
7.58124e-23
7.94097e-23
7.93918e-23
8.3132e-23
8.41586e-23
8.39778e-23
8.34366e-23
8.2948e-23
8.29559e-23
8.31297e-23
8.29818e-23
8.27471e-23
8.24425e-23
8.21315e-23
8.17398e-23
8.13391e-23
8.09904e-23
8.077e-23
8.06366e-23
8.05375e-23
8.04557e-23
8.04381e-23
8.05328e-23
8.07352e-23
8.09853e-23
8.12116e-23
8.13694e-23
8.14515e-23
8.1473e-23
8.14545e-23
8.1413e-23
8.13618e-23
8.13123e-23
8.12748e-23
8.12622e-23
8.12871e-23
8.13522e-23
8.14392e-23
8.15081e-23
8.15164e-23
8.14588e-23
8.13912e-23
8.13947e-23
8.15108e-23
8.16961e-23
8.18646e-23
8.19483e-23
8.19457e-23
8.1912e-23
8.18804e-23
8.18911e-23
8.18808e-23
8.19117e-23
8.19207e-23
8.20309e-23
8.21549e-23
8.22148e-23
8.23862e-23
8.21297e-23
8.24959e-23
7.62926e-23
7.97398e-23
7.98041e-23
8.34291e-23
8.43287e-23
8.40219e-23
8.34087e-23
8.29479e-23
8.30342e-23
8.32656e-23
8.31035e-23
8.27887e-23
8.23969e-23
8.20485e-23
8.16863e-23
8.13586e-23
8.10842e-23
8.09014e-23
8.07568e-23
8.06169e-23
8.0497e-23
8.04625e-23
8.05575e-23
8.07602e-23
8.0992e-23
8.117e-23
8.12558e-23
8.12662e-23
8.12417e-23
8.12092e-23
8.11754e-23
8.1144e-23
8.11241e-23
8.11276e-23
8.11659e-23
8.12466e-23
8.13623e-23
8.14827e-23
8.15679e-23
8.15939e-23
8.15679e-23
8.15243e-23
8.15009e-23
8.15217e-23
8.15793e-23
8.16544e-23
8.17278e-23
8.17921e-23
8.18442e-23
8.18524e-23
8.18432e-23
8.1807e-23
8.18704e-23
8.19818e-23
8.22173e-23
8.24394e-23
8.25624e-23
8.27802e-23
8.25243e-23
8.29616e-23
7.67839e-23
8.00337e-23
8.01087e-23
8.35888e-23
8.44401e-23
8.41498e-23
8.3564e-23
8.31215e-23
8.31902e-23
8.33749e-23
8.31505e-23
8.27783e-23
8.23668e-23
8.20572e-23
8.17789e-23
8.15351e-23
8.1296e-23
8.10843e-23
8.08755e-23
8.06849e-23
8.05556e-23
8.05454e-23
8.06695e-23
8.08809e-23
8.10896e-23
8.12148e-23
8.1228e-23
8.1161e-23
8.10713e-23
8.1004e-23
8.09753e-23
8.09824e-23
8.10194e-23
8.10855e-23
8.1182e-23
8.13043e-23
8.14351e-23
8.15493e-23
8.16305e-23
8.16821e-23
8.17151e-23
8.17276e-23
8.17031e-23
8.16416e-23
8.15723e-23
8.15481e-23
8.15977e-23
8.17008e-23
8.18023e-23
8.18347e-23
8.18355e-23
8.18324e-23
8.19675e-23
8.21671e-23
8.24683e-23
8.27215e-23
8.28606e-23
8.31015e-23
8.28442e-23
8.33553e-23
7.72305e-23
8.02452e-23
8.02792e-23
8.36043e-23
8.44729e-23
8.4308e-23
8.3829e-23
8.3401e-23
8.33764e-23
8.34312e-23
8.31193e-23
8.27402e-23
8.23978e-23
8.21924e-23
8.19979e-23
8.17779e-23
8.15019e-23
8.12283e-23
8.0978e-23
8.07856e-23
8.06802e-23
8.06907e-23
8.08145e-23
8.10046e-23
8.11831e-23
8.1279e-23
8.12615e-23
8.11506e-23
8.10043e-23
8.08894e-23
8.08482e-23
8.08843e-23
8.09765e-23
8.1103e-23
8.12486e-23
8.13971e-23
8.15298e-23
8.16371e-23
8.17242e-23
8.18017e-23
8.1868e-23
8.19038e-23
8.1881e-23
8.17966e-23
8.16857e-23
8.16134e-23
8.16162e-23
8.16754e-23
8.17473e-23
8.17929e-23
8.18667e-23
8.19712e-23
8.21926e-23
8.24229e-23
8.27088e-23
8.2937e-23
8.30677e-23
8.33195e-23
8.30585e-23
8.3629e-23
7.7565e-23
8.03125e-23
8.03306e-23
8.35324e-23
8.44332e-23
8.43953e-23
8.40224e-23
8.3611e-23
8.35011e-23
8.34459e-23
8.30817e-23
8.27384e-23
8.24944e-23
8.23829e-23
8.22159e-23
8.19466e-23
8.1595e-23
8.12847e-23
8.10611e-23
8.09272e-23
8.08584e-23
8.08536e-23
8.09211e-23
8.10503e-23
8.11964e-23
8.12958e-23
8.12971e-23
8.11924e-23
8.10277e-23
8.08801e-23
8.08126e-23
8.08441e-23
8.0954e-23
8.11082e-23
8.12787e-23
8.14458e-23
8.15974e-23
8.17306e-23
8.18452e-23
8.19322e-23
8.19778e-23
8.19805e-23
8.19514e-23
8.19072e-23
8.18544e-23
8.18001e-23
8.17455e-23
8.16988e-23
8.16925e-23
8.1753e-23
8.19302e-23
8.2154e-23
8.24307e-23
8.2635e-23
8.28564e-23
8.30355e-23
8.31494e-23
8.34049e-23
8.31374e-23
8.37329e-23
7.77304e-23
8.01974e-23
8.02781e-23
8.34028e-23
8.4302e-23
8.43074e-23
8.39734e-23
8.35812e-23
8.34669e-23
8.34191e-23
8.30914e-23
8.27986e-23
8.2594e-23
8.24841e-23
8.22695e-23
8.19287e-23
8.15351e-23
8.12496e-23
8.11036e-23
8.10448e-23
8.09957e-23
8.09427e-23
8.09252e-23
8.09825e-23
8.11027e-23
8.12217e-23
8.12654e-23
8.12034e-23
8.10663e-23
8.09214e-23
8.08311e-23
8.08267e-23
8.09052e-23
8.10414e-23
8.12098e-23
8.13954e-23
8.15896e-23
8.17754e-23
8.19215e-23
8.19948e-23
8.19881e-23
8.19389e-23
8.19055e-23
8.19214e-23
8.19558e-23
8.19472e-23
8.18599e-23
8.17357e-23
8.16787e-23
8.17542e-23
8.1987e-23
8.22526e-23
8.25229e-23
8.26803e-23
8.28426e-23
8.2979e-23
8.30733e-23
8.33219e-23
8.30395e-23
8.36074e-23
7.76979e-23
7.98996e-23
8.00939e-23
8.31545e-23
8.40067e-23
8.39771e-23
8.36202e-23
8.32493e-23
8.32119e-23
8.32939e-23
8.30902e-23
8.28414e-23
8.25833e-23
8.23672e-23
8.20604e-23
8.16868e-23
8.13272e-23
8.11158e-23
8.10427e-23
8.10213e-23
8.09613e-23
8.08598e-23
8.07836e-23
8.07982e-23
8.09035e-23
8.10339e-23
8.11111e-23
8.10988e-23
8.10135e-23
8.09002e-23
8.08049e-23
8.07613e-23
8.07848e-23
8.08754e-23
8.10254e-23
8.12259e-23
8.1458e-23
8.16796e-23
8.18344e-23
8.18867e-23
8.18507e-23
8.17884e-23
8.17658e-23
8.18075e-23
8.18695e-23
8.18835e-23
8.1819e-23
8.17245e-23
8.16951e-23
8.17702e-23
8.19583e-23
8.2152e-23
8.23572e-23
8.24757e-23
8.26143e-23
8.27301e-23
8.28015e-23
8.30247e-23
8.27163e-23
8.32081e-23
7.74632e-23
7.94318e-23
7.97052e-23
8.26658e-23
8.34536e-23
8.33907e-23
8.30164e-23
8.26704e-23
8.27231e-23
8.29628e-23
8.2908e-23
8.26963e-23
8.2345e-23
8.19884e-23
8.16007e-23
8.12474e-23
8.09688e-23
8.08296e-23
8.07821e-23
8.07471e-23
8.06631e-23
8.05492e-23
8.04737e-23
8.04901e-23
8.05896e-23
8.07142e-23
8.08014e-23
8.0821e-23
8.07781e-23
8.06999e-23
8.06179e-23
8.05599e-23
8.05489e-23
8.06036e-23
8.07338e-23
8.09293e-23
8.11545e-23
8.13559e-23
8.1487e-23
8.1536e-23
8.15304e-23
8.15152e-23
8.15153e-23
8.15289e-23
8.15372e-23
8.15381e-23
8.15442e-23
8.15715e-23
8.16263e-23
8.16803e-23
8.17519e-23
8.18056e-23
8.19148e-23
8.20003e-23
8.21365e-23
8.22457e-23
8.22886e-23
8.24678e-23
8.21339e-23
8.2532e-23
7.70299e-23
7.87887e-23
7.90446e-23
8.18513e-23
8.25973e-23
8.25777e-23
8.22536e-23
8.19356e-23
8.20138e-23
8.23261e-23
8.23692e-23
8.22022e-23
8.18107e-23
8.13814e-23
8.09648e-23
8.06465e-23
8.04223e-23
8.03043e-23
8.02367e-23
8.01741e-23
8.00916e-23
8.0014e-23
7.99846e-23
8.00265e-23
8.0124e-23
8.02357e-23
8.03183e-23
8.03461e-23
8.03192e-23
8.02601e-23
8.01982e-23
8.01574e-23
8.0156e-23
8.02102e-23
8.03258e-23
8.0484e-23
8.06445e-23
8.07724e-23
8.08618e-23
8.09312e-23
8.09979e-23
8.10565e-23
8.10765e-23
8.10408e-23
8.09774e-23
8.09599e-23
8.10356e-23
8.11747e-23
8.12978e-23
8.13265e-23
8.12969e-23
8.12309e-23
8.12485e-23
8.1286e-23
8.14008e-23
8.14912e-23
8.14985e-23
8.16308e-23
8.1294e-23
8.16127e-23
7.64017e-23
7.79479e-23
7.81092e-23
8.07393e-23
8.14837e-23
8.15877e-23
8.13782e-23
8.10814e-23
8.1095e-23
8.13561e-23
8.14206e-23
8.1319e-23
8.09886e-23
8.05968e-23
8.01992e-23
7.98825e-23
7.96372e-23
7.94816e-23
7.9386e-23
7.93328e-23
7.93014e-23
7.92911e-23
7.93106e-23
7.93692e-23
7.94629e-23
7.95686e-23
7.96496e-23
7.96777e-23
7.96516e-23
7.95982e-23
7.95532e-23
7.95436e-23
7.95797e-23
7.96573e-23
7.97586e-23
7.98552e-23
7.99239e-23
7.99685e-23
8.00207e-23
8.01101e-23
8.02293e-23
8.0331e-23
8.03613e-23
8.0314e-23
8.02438e-23
8.02368e-23
8.03293e-23
8.0476e-23
8.05947e-23
8.06129e-23
8.05651e-23
8.04638e-23
8.0422e-23
8.03879e-23
8.04332e-23
8.04697e-23
8.04357e-23
8.05389e-23
8.02349e-23
8.04977e-23
7.55946e-23
7.69088e-23
7.6978e-23
7.94618e-23
8.02288e-23
8.04701e-23
8.03748e-23
8.00754e-23
7.99734e-23
8.01221e-23
8.01741e-23
8.01592e-23
7.99528e-23
7.96534e-23
7.92781e-23
7.89159e-23
7.85954e-23
7.83866e-23
7.82961e-23
7.83062e-23
7.83604e-23
7.84135e-23
7.84543e-23
7.85063e-23
7.85917e-23
7.87012e-23
7.87955e-23
7.8839e-23
7.88261e-23
7.87836e-23
7.8752e-23
7.8763e-23
7.88229e-23
7.89095e-23
7.89854e-23
7.90227e-23
7.90239e-23
7.90201e-23
7.90489e-23
7.91245e-23
7.92247e-23
7.93082e-23
7.9348e-23
7.93573e-23
7.93668e-23
7.93996e-23
7.94503e-23
7.95028e-23
7.95508e-23
7.95713e-23
7.95782e-23
7.95213e-23
7.94638e-23
7.93527e-23
7.92929e-23
7.92442e-23
7.91677e-23
7.9263e-23
7.90164e-23
7.92344e-23
7.46579e-23
7.57302e-23
7.57748e-23
7.81697e-23
7.89509e-23
7.92669e-23
7.92175e-23
7.88843e-23
7.86824e-23
7.87592e-23
7.88327e-23
7.8911e-23
7.88024e-23
7.85475e-23
7.81487e-23
7.77216e-23
7.73436e-23
7.71265e-23
7.70883e-23
7.71843e-23
7.73132e-23
7.74001e-23
7.74368e-23
7.74703e-23
7.7545e-23
7.76624e-23
7.77847e-23
7.78701e-23
7.79009e-23
7.78913e-23
7.78755e-23
7.7884e-23
7.79243e-23
7.79762e-23
7.80097e-23
7.80117e-23
7.79958e-23
7.7987e-23
7.79962e-23
7.80148e-23
7.8032e-23
7.80572e-23
7.8114e-23
7.82163e-23
7.83329e-23
7.84085e-23
7.84076e-23
7.8357e-23
7.83275e-23
7.8344e-23
7.84068e-23
7.84124e-23
7.83699e-23
7.82096e-23
7.80587e-23
7.79282e-23
7.78112e-23
7.78988e-23
7.77081e-23
7.78827e-23
7.36758e-23
7.45293e-23
7.46098e-23
7.69502e-23
7.77133e-23
7.80201e-23
7.7938e-23
7.75546e-23
7.73109e-23
7.74074e-23
7.7563e-23
7.77183e-23
7.76188e-23
7.73018e-23
7.6821e-23
7.6349e-23
7.59875e-23
7.58344e-23
7.58743e-23
7.60303e-23
7.61869e-23
7.62765e-23
7.63054e-23
7.63294e-23
7.63981e-23
7.65236e-23
7.668e-23
7.68248e-23
7.69239e-23
7.69692e-23
7.69757e-23
7.69649e-23
7.69491e-23
7.69306e-23
7.69111e-23
7.68962e-23
7.68907e-23
7.68877e-23
7.68669e-23
7.68138e-23
7.67477e-23
7.67259e-23
7.67976e-23
7.69562e-23
7.71267e-23
7.72272e-23
7.72242e-23
7.71563e-23
7.71032e-23
7.70998e-23
7.71577e-23
7.71759e-23
7.71482e-23
7.69872e-23
7.68095e-23
7.66403e-23
7.64869e-23
7.65444e-23
7.63892e-23
7.6527e-23
7.2738e-23
7.34316e-23
7.35462e-23
7.58119e-23
7.65243e-23
7.6782e-23
7.66432e-23
7.62242e-23
7.59891e-23
7.61605e-23
7.6419e-23
7.66161e-23
7.64498e-23
7.59991e-23
7.54148e-23
7.49366e-23
7.46565e-23
7.46071e-23
7.47121e-23
7.48793e-23
7.502e-23
7.50989e-23
7.51318e-23
7.51638e-23
7.52377e-23
7.53738e-23
7.55612e-23
7.57621e-23
7.5931e-23
7.60364e-23
7.60699e-23
7.60408e-23
7.59688e-23
7.58824e-23
7.58114e-23
7.57714e-23
7.57522e-23
7.57245e-23
7.56627e-23
7.55693e-23
7.54831e-23
7.54593e-23
7.55242e-23
7.56553e-23
7.57957e-23
7.59034e-23
7.59621e-23
7.59772e-23
7.59703e-23
7.59466e-23
7.59401e-23
7.59024e-23
7.58647e-23
7.57397e-23
7.56065e-23
7.54542e-23
7.5277e-23
7.52883e-23
7.515e-23
7.5262e-23
7.19043e-23
7.25092e-23
7.2604e-23
7.47393e-23
7.53858e-23
7.56185e-23
7.54666e-23
7.505e-23
7.48331e-23
7.50519e-23
7.53644e-23
7.55643e-23
7.53241e-23
7.47641e-23
7.41133e-23
7.36557e-23
7.34576e-23
7.34845e-23
7.36142e-23
7.37622e-23
7.38781e-23
7.39523e-23
7.39981e-23
7.40466e-23
7.41338e-23
7.42844e-23
7.4495e-23
7.47335e-23
7.49507e-23
7.5102e-23
7.51625e-23
7.51337e-23
7.50405e-23
7.49207e-23
7.48074e-23
7.47123e-23
7.46252e-23
7.45311e-23
7.44328e-23
7.43537e-23
7.43175e-23
7.43262e-23
7.43591e-23
7.44041e-23
7.44691e-23
7.45748e-23
7.47143e-23
7.48445e-23
7.49183e-23
7.48978e-23
7.4826e-23
7.47102e-23
7.46406e-23
7.45523e-23
7.44884e-23
7.43871e-23
7.42153e-23
7.41981e-23
7.40725e-23
7.41665e-23
7.11909e-23
7.17558e-23
7.17836e-23
7.37518e-23
7.43397e-23
7.45963e-23
7.44936e-23
7.41127e-23
7.38874e-23
7.40731e-23
7.43563e-23
7.45348e-23
7.42777e-23
7.37059e-23
7.30581e-23
7.26206e-23
7.24452e-23
7.24781e-23
7.25952e-23
7.27283e-23
7.28406e-23
7.29216e-23
7.29758e-23
7.30316e-23
7.31276e-23
7.32898e-23
7.35145e-23
7.37697e-23
7.40073e-23
7.41824e-23
7.42682e-23
7.42645e-23
7.41914e-23
7.40732e-23
7.39247e-23
7.37514e-23
7.35649e-23
7.33946e-23
7.32811e-23
7.32488e-23
7.32788e-23
7.33164e-23
7.3316e-23
7.32914e-23
7.33008e-23
7.33972e-23
7.35727e-23
7.37636e-23
7.38962e-23
7.39085e-23
7.38315e-23
7.36861e-23
7.35922e-23
7.35112e-23
7.34844e-23
7.34335e-23
7.3305e-23
7.33058e-23
7.32018e-23
7.32835e-23
7.05839e-23
7.11194e-23
7.10869e-23
7.29077e-23
7.34595e-23
7.37601e-23
7.37229e-23
7.33785e-23
7.31137e-23
7.32062e-23
7.3408e-23
7.35674e-23
7.33601e-23
7.28657e-23
7.2271e-23
7.18347e-23
7.162e-23
7.16073e-23
7.17033e-23
7.18437e-23
7.1973e-23
7.20608e-23
7.21074e-23
7.21495e-23
7.22352e-23
7.23944e-23
7.26204e-23
7.28768e-23
7.31162e-23
7.3301e-23
7.34128e-23
7.345e-23
7.34158e-23
7.33095e-23
7.31293e-23
7.28884e-23
7.26305e-23
7.24221e-23
7.23167e-23
7.23159e-23
7.23666e-23
7.24033e-23
7.23957e-23
7.23707e-23
7.23786e-23
7.24561e-23
7.25954e-23
7.27549e-23
7.28888e-23
7.29445e-23
7.29331e-23
7.28398e-23
7.27591e-23
7.26632e-23
7.26272e-23
7.26062e-23
7.25424e-23
7.26004e-23
7.25305e-23
7.26126e-23
7.00653e-23
7.05592e-23
7.05205e-23
7.22554e-23
7.27934e-23
7.31099e-23
7.30893e-23
7.27472e-23
7.24356e-23
7.24451e-23
7.25827e-23
7.27445e-23
7.26097e-23
7.2207e-23
7.16628e-23
7.12134e-23
7.09514e-23
7.09046e-23
7.1002e-23
7.11636e-23
7.13054e-23
7.1383e-23
7.14012e-23
7.1408e-23
7.14604e-23
7.15931e-23
7.18008e-23
7.20455e-23
7.22809e-23
7.24755e-23
7.26157e-23
7.26916e-23
7.2686e-23
7.25817e-23
7.2381e-23
7.212e-23
7.18639e-23
7.16788e-23
7.1592e-23
7.15789e-23
7.15912e-23
7.16014e-23
7.1612e-23
7.16374e-23
7.16781e-23
7.17302e-23
7.17895e-23
7.18577e-23
7.19427e-23
7.20248e-23
7.21024e-23
7.21098e-23
7.20868e-23
7.19957e-23
7.19455e-23
7.19379e-23
7.19264e-23
7.20433e-23
7.20117e-23
7.21152e-23
6.9627e-23
7.00771e-23
7.00853e-23
7.17828e-23
7.23146e-23
7.25976e-23
7.2521e-23
7.21403e-23
7.18041e-23
7.17975e-23
7.19337e-23
7.21154e-23
7.20189e-23
7.16505e-23
7.11182e-23
7.06646e-23
7.04074e-23
7.0387e-23
7.05191e-23
7.06983e-23
7.08283e-23
7.08709e-23
7.08433e-23
7.08007e-23
7.08023e-23
7.08853e-23
7.10503e-23
7.12678e-23
7.14972e-23
7.17065e-23
7.1873e-23
7.19719e-23
7.19747e-23
7.18686e-23
7.16771e-23
7.14573e-23
7.12711e-23
7.11494e-23
7.10792e-23
7.10285e-23
7.09839e-23
7.09631e-23
7.0985e-23
7.1043e-23
7.11e-23
7.11259e-23
7.11175e-23
7.11036e-23
7.11303e-23
7.12061e-23
7.13323e-23
7.1422e-23
7.14818e-23
7.14522e-23
7.14353e-23
7.14449e-23
7.14525e-23
7.15966e-23
7.15908e-23
7.17299e-23
6.92698e-23
6.96978e-23
6.97624e-23
7.14193e-23
7.1931e-23
7.21502e-23
7.19828e-23
7.15544e-23
7.12306e-23
7.12723e-23
7.14524e-23
7.16443e-23
7.15273e-23
7.1127e-23
7.0581e-23
7.01557e-23
6.99686e-23
7.0029e-23
7.0214e-23
7.04e-23
7.04994e-23
7.04936e-23
7.04134e-23
7.03165e-23
7.02582e-23
7.02749e-23
7.03766e-23
7.05499e-23
7.07647e-23
7.09833e-23
7.11651e-23
7.12715e-23
7.12784e-23
7.11917e-23
7.10527e-23
7.09171e-23
7.08211e-23
7.07597e-23
7.07034e-23
7.06345e-23
7.05655e-23
7.0523e-23
7.05172e-23
7.05373e-23
7.05559e-23
7.05528e-23
7.05234e-23
7.04886e-23
7.04879e-23
7.05328e-23
7.06412e-23
7.07541e-23
7.08902e-23
7.09693e-23
7.10431e-23
7.10934e-23
7.1102e-23
7.12387e-23
7.12312e-23
7.14018e-23
6.89898e-23
6.94247e-23
6.95122e-23
7.10837e-23
7.15512e-23
7.1711e-23
7.14806e-23
7.10417e-23
7.07627e-23
7.08652e-23
7.10715e-23
7.12334e-23
7.10572e-23
7.06136e-23
7.00762e-23
6.97167e-23
6.96249e-23
6.9768e-23
6.99953e-23
7.01824e-23
7.02569e-23
7.02145e-23
7.00914e-23
6.9943e-23
6.98214e-23
6.97653e-23
6.97954e-23
6.99129e-23
7.00964e-23
7.03038e-23
7.04834e-23
7.05946e-23
7.06254e-23
7.05962e-23
7.0544e-23
7.04983e-23
7.04656e-23
7.04353e-23
7.03976e-23
7.03532e-23
7.03055e-23
7.02506e-23
7.01802e-23
7.01005e-23
7.00292e-23
6.99854e-23
6.99698e-23
6.99711e-23
6.99848e-23
7.00014e-23
7.00597e-23
7.01517e-23
7.03317e-23
7.0511e-23
7.06916e-23
7.08091e-23
7.08344e-23
7.09552e-23
7.09201e-23
7.11064e-23
6.87656e-23
6.92184e-23
6.92887e-23
7.07362e-23
7.11465e-23
7.12725e-23
7.10379e-23
7.06456e-23
7.04272e-23
7.05519e-23
7.07182e-23
7.08022e-23
7.05706e-23
7.01342e-23
6.96627e-23
6.93886e-23
6.93631e-23
6.95387e-23
6.97751e-23
6.99632e-23
7.00378e-23
6.99906e-23
6.98483e-23
6.966e-23
6.94798e-23
6.93565e-23
6.93216e-23
6.93826e-23
6.95195e-23
6.96922e-23
6.98559e-23
6.9981e-23
7.00632e-23
7.0117e-23
7.0154e-23
7.01715e-23
7.01645e-23
7.01437e-23
7.01307e-23
7.01317e-23
7.01207e-23
7.00576e-23
6.99219e-23
6.97399e-23
6.957e-23
6.94724e-23
6.94624e-23
6.95048e-23
6.95531e-23
6.9573e-23
6.96101e-23
6.96824e-23
6.98657e-23
7.00838e-23
7.03313e-23
7.05217e-23
7.05952e-23
7.07218e-23
7.06555e-23
7.08447e-23
6.85591e-23
6.90165e-23
6.9061e-23
7.03899e-23
7.07567e-23
7.0874e-23
7.06723e-23
7.03556e-23
7.0193e-23
7.02962e-23
7.03688e-23
7.03542e-23
7.00991e-23
6.97316e-23
6.93689e-23
6.91713e-23
6.9159e-23
6.93063e-23
6.95151e-23
6.97013e-23
6.9797e-23
6.97743e-23
6.96397e-23
6.94333e-23
6.92144e-23
6.90444e-23
6.89634e-23
6.89781e-23
6.90669e-23
6.91977e-23
6.93442e-23
6.94912e-23
6.96316e-23
6.97566e-23
6.98501e-23
6.98958e-23
6.98981e-23
6.98876e-23
6.98953e-23
6.99195e-23
6.99208e-23
6.9851e-23
6.96889e-23
6.94628e-23
6.9238e-23
6.90882e-23
6.90449e-23
6.90823e-23
6.91532e-23
6.92134e-23
6.92879e-23
6.93718e-23
6.95335e-23
6.97239e-23
6.99734e-23
7.02072e-23
7.03386e-23
7.05008e-23
7.04237e-23
7.06124e-23
6.83327e-23
6.8775e-23
6.88227e-23
7.00789e-23
7.04392e-23
7.05618e-23
7.03831e-23
7.01183e-23
6.99912e-23
7.00675e-23
7.00586e-23
6.99706e-23
6.97195e-23
6.94348e-23
6.91707e-23
6.90192e-23
6.89837e-23
6.90716e-23
6.92312e-23
6.94036e-23
6.95174e-23
6.95254e-23
6.94158e-23
6.92203e-23
6.89989e-23
6.8817e-23
6.87167e-23
6.87052e-23
6.87634e-23
6.88688e-23
6.90077e-23
6.91704e-23
6.93396e-23
6.94883e-23
6.95913e-23
6.96426e-23
6.96598e-23
6.96679e-23
6.96791e-23
6.96843e-23
6.96613e-23
6.95874e-23
6.94489e-23
6.92568e-23
6.90469e-23
6.88712e-23
6.87684e-23
6.87517e-23
6.88152e-23
6.89225e-23
6.90622e-23
6.91816e-23
6.93256e-23
6.94649e-23
6.96685e-23
6.98921e-23
7.00508e-23
7.02547e-23
7.01879e-23
7.03788e-23
6.80703e-23
6.84922e-23
6.85826e-23
6.98168e-23
7.02091e-23
7.03414e-23
7.01493e-23
6.98844e-23
6.97725e-23
6.98594e-23
6.98416e-23
6.97361e-23
6.94914e-23
6.92429e-23
6.90192e-23
6.88794e-23
6.88165e-23
6.88522e-23
6.89604e-23
6.91005e-23
6.92065e-23
6.92277e-23
6.91467e-23
6.89883e-23
6.88038e-23
6.86487e-23
6.8561e-23
6.8552e-23
6.86112e-23
6.87197e-23
6.88601e-23
6.90146e-23
6.9161e-23
6.92771e-23
6.93549e-23
6.94045e-23
6.94402e-23
6.94617e-23
6.94568e-23
6.94197e-23
6.93593e-23
6.92878e-23
6.92029e-23
6.9094e-23
6.89533e-23
6.87953e-23
6.86556e-23
6.85823e-23
6.86131e-23
6.87277e-23
6.88983e-23
6.90459e-23
6.91936e-23
6.93047e-23
6.94528e-23
6.96189e-23
6.97491e-23
6.9961e-23
6.99006e-23
7.00984e-23
6.77785e-23
6.81968e-23
6.83468e-23
6.95782e-23
7.00183e-23
7.01608e-23
6.99351e-23
6.96425e-23
6.95455e-23
6.96907e-23
6.97378e-23
6.96605e-23
6.94042e-23
6.91273e-23
6.88825e-23
6.87317e-23
6.86549e-23
6.86603e-23
6.87219e-23
6.88121e-23
6.88824e-23
6.88957e-23
6.8839e-23
6.87299e-23
6.86044e-23
6.8503e-23
6.8458e-23
6.84848e-23
6.85767e-23
6.87089e-23
6.88477e-23
6.89643e-23
6.90453e-23
6.9097e-23
6.9138e-23
6.91814e-23
6.9221e-23
6.92348e-23
6.92054e-23
6.91388e-23
6.90628e-23
6.9007e-23
6.89763e-23
6.89488e-23
6.8891e-23
6.87935e-23
6.86803e-23
6.85978e-23
6.85896e-23
6.86528e-23
6.87842e-23
6.89231e-23
6.90829e-23
6.91955e-23
6.93057e-23
6.93989e-23
6.9453e-23
6.96165e-23
6.95335e-23
6.97424e-23
6.74642e-23
6.79113e-23
6.81068e-23
6.93136e-23
6.97859e-23
6.9939e-23
6.96997e-23
6.94084e-23
6.93535e-23
6.95802e-23
6.9709e-23
6.96619e-23
6.93754e-23
6.90413e-23
6.87556e-23
6.85917e-23
6.85098e-23
6.84916e-23
6.8504e-23
6.85345e-23
6.85598e-23
6.85608e-23
6.85256e-23
6.84606e-23
6.83887e-23
6.83443e-23
6.83589e-23
6.84454e-23
6.85876e-23
6.87441e-23
6.8867e-23
6.8928e-23
6.8936e-23
6.89282e-23
6.89368e-23
6.89628e-23
6.89811e-23
6.89681e-23
6.89215e-23
6.88591e-23
6.88066e-23
6.87845e-23
6.87924e-23
6.88115e-23
6.88167e-23
6.8801e-23
6.877e-23
6.87318e-23
6.87004e-23
6.86848e-23
6.87283e-23
6.88131e-23
6.89567e-23
6.90668e-23
6.91542e-23
6.91879e-23
6.91535e-23
6.92309e-23
6.90963e-23
6.931e-23
6.71086e-23
6.76203e-23
6.78367e-23
6.89778e-23
6.94485e-23
6.96146e-23
6.94089e-23
6.91836e-23
6.92099e-23
6.95074e-23
6.96743e-23
6.96187e-23
6.92962e-23
6.8929e-23
6.86332e-23
6.84734e-23
6.83839e-23
6.83277e-23
6.8278e-23
6.82482e-23
6.82403e-23
6.82426e-23
6.82311e-23
6.81958e-23
6.81547e-23
6.81489e-23
6.82156e-23
6.83597e-23
6.85446e-23
6.87103e-23
6.88055e-23
6.88182e-23
6.87805e-23
6.8741e-23
6.87255e-23
6.87223e-23
6.87053e-23
6.86658e-23
6.8619e-23
6.85883e-23
6.85864e-23
6.86099e-23
6.8644e-23
6.86802e-23
6.87209e-23
6.8774e-23
6.88272e-23
6.88487e-23
6.88226e-23
6.87582e-23
6.87213e-23