/*--------------------------------*- C++ -*----------------------------------*\
| =========                 |                                                 |
| \\      /  F ield         | foam-extend: Open Source CFD                    |
|  \\    /   O peration     | Version:     4.0                                |
|   \\  /    A nd           | Web:         http://www.foam-extend.org         |
|    \\/     M anipulation  |                                                 |
\*---------------------------------------------------------------------------*/
FoamFile
{
    version     2.0;
    format      ascii;
    class       volScalarField;
    location    "1480";
    object      cMinus;
}
// * * * * * * * * * * * * * * * * * * * * * * * * * * * * * * * * * * * * * //

dimensions      [0 0 0 0 0 0 0];

internalField   nonuniform List<scalar> 
6960
(
9.17955e-24
9.18144e-24
9.18219e-24
9.18252e-24
9.18275e-24
9.18295e-24
9.18314e-24
9.18334e-24
9.18355e-24
9.18377e-24
9.18399e-24
9.18421e-24
9.18443e-24
9.18464e-24
9.18485e-24
9.18505e-24
9.18525e-24
9.18543e-24
9.1856e-24
9.18576e-24
9.18591e-24
9.18605e-24
9.18617e-24
9.18627e-24
9.18636e-24
9.18644e-24
9.1865e-24
9.18655e-24
9.18658e-24
9.18659e-24
9.18659e-24
9.18658e-24
9.18655e-24
9.1865e-24
9.18644e-24
9.18636e-24
9.18627e-24
9.18617e-24
9.18605e-24
9.18591e-24
9.18576e-24
9.1856e-24
9.18543e-24
9.18525e-24
9.18505e-24
9.18485e-24
9.18464e-24
9.18443e-24
9.18421e-24
9.18399e-24
9.18377e-24
9.18355e-24
9.18334e-24
9.18314e-24
9.18295e-24
9.18275e-24
9.18252e-24
9.18219e-24
9.18144e-24
9.17955e-24
2.56595e-23
2.56661e-23
2.56686e-23
2.567e-23
2.5671e-23
2.5672e-23
2.5673e-23
2.56739e-23
2.56749e-23
2.56758e-23
2.56768e-23
2.56777e-23
2.56787e-23
2.56795e-23
2.56804e-23
2.56812e-23
2.5682e-23
2.56827e-23
2.56834e-23
2.5684e-23
2.56846e-23
2.56851e-23
2.56856e-23
2.5686e-23
2.56863e-23
2.56866e-23
2.56868e-23
2.5687e-23
2.56871e-23
2.56872e-23
2.56872e-23
2.56871e-23
2.5687e-23
2.56868e-23
2.56866e-23
2.56863e-23
2.5686e-23
2.56856e-23
2.56851e-23
2.56846e-23
2.5684e-23
2.56834e-23
2.56827e-23
2.5682e-23
2.56812e-23
2.56804e-23
2.56795e-23
2.56787e-23
2.56777e-23
2.56768e-23
2.56758e-23
2.56749e-23
2.56739e-23
2.5673e-23
2.5672e-23
2.5671e-23
2.567e-23
2.56686e-23
2.56661e-23
2.56595e-23
6.24972e-23
6.25142e-23
6.25217e-23
6.25264e-23
6.25304e-23
6.25341e-23
6.25377e-23
6.25412e-23
6.25447e-23
6.25481e-23
6.25514e-23
6.25546e-23
6.25577e-23
6.25606e-23
6.25634e-23
6.2566e-23
6.25685e-23
6.25708e-23
6.25729e-23
6.25749e-23
6.25767e-23
6.25783e-23
6.25797e-23
6.25809e-23
6.2582e-23
6.25829e-23
6.25836e-23
6.25841e-23
6.25845e-23
6.25846e-23
6.25846e-23
6.25845e-23
6.25841e-23
6.25836e-23
6.25829e-23
6.2582e-23
6.25809e-23
6.25797e-23
6.25783e-23
6.25767e-23
6.25749e-23
6.25729e-23
6.25708e-23
6.25685e-23
6.2566e-23
6.25634e-23
6.25606e-23
6.25577e-23
6.25546e-23
6.25514e-23
6.25481e-23
6.25447e-23
6.25412e-23
6.25377e-23
6.25341e-23
6.25304e-23
6.25264e-23
6.25217e-23
6.25142e-23
6.24972e-23
1.4552e-22
1.45561e-22
1.45582e-22
1.45597e-22
1.4561e-22
1.45622e-22
1.45634e-22
1.45646e-22
1.45657e-22
1.45667e-22
1.45678e-22
1.45688e-22
1.45697e-22
1.45706e-22
1.45714e-22
1.45722e-22
1.4573e-22
1.45736e-22
1.45743e-22
1.45748e-22
1.45753e-22
1.45758e-22
1.45762e-22
1.45766e-22
1.45769e-22
1.45771e-22
1.45773e-22
1.45775e-22
1.45776e-22
1.45776e-22
1.45776e-22
1.45776e-22
1.45775e-22
1.45773e-22
1.45771e-22
1.45769e-22
1.45766e-22
1.45762e-22
1.45758e-22
1.45753e-22
1.45748e-22
1.45743e-22
1.45736e-22
1.4573e-22
1.45722e-22
1.45714e-22
1.45706e-22
1.45697e-22
1.45688e-22
1.45678e-22
1.45667e-22
1.45657e-22
1.45646e-22
1.45634e-22
1.45622e-22
1.4561e-22
1.45597e-22
1.45582e-22
1.45561e-22
1.4552e-22
3.36008e-22
3.36106e-22
3.36164e-22
3.36208e-22
3.36248e-22
3.36286e-22
3.36322e-22
3.36357e-22
3.3639e-22
3.36422e-22
3.36453e-22
3.36482e-22
3.3651e-22
3.36535e-22
3.3656e-22
3.36582e-22
3.36603e-22
3.36622e-22
3.3664e-22
3.36656e-22
3.36671e-22
3.36684e-22
3.36695e-22
3.36705e-22
3.36713e-22
3.36721e-22
3.36726e-22
3.3673e-22
3.36733e-22
3.36734e-22
3.36734e-22
3.36733e-22
3.3673e-22
3.36726e-22
3.36721e-22
3.36713e-22
3.36705e-22
3.36695e-22
3.36684e-22
3.36671e-22
3.36656e-22
3.3664e-22
3.36622e-22
3.36603e-22
3.36582e-22
3.3656e-22
3.36535e-22
3.3651e-22
3.36482e-22
3.36453e-22
3.36422e-22
3.3639e-22
3.36357e-22
3.36322e-22
3.36286e-22
3.36248e-22
3.36208e-22
3.36164e-22
3.36106e-22
3.36008e-22
7.81979e-22
7.82218e-22
7.82374e-22
7.82502e-22
7.82619e-22
7.8273e-22
7.82837e-22
7.82939e-22
7.83037e-22
7.8313e-22
7.83218e-22
7.83301e-22
7.83379e-22
7.83452e-22
7.83521e-22
7.83584e-22
7.83643e-22
7.83697e-22
7.83746e-22
7.83791e-22
7.83831e-22
7.83867e-22
7.83899e-22
7.83926e-22
7.83949e-22
7.83969e-22
7.83984e-22
7.83996e-22
7.84003e-22
7.84007e-22
7.84007e-22
7.84003e-22
7.83996e-22
7.83984e-22
7.83969e-22
7.83949e-22
7.83926e-22
7.83899e-22
7.83867e-22
7.83831e-22
7.83791e-22
7.83746e-22
7.83697e-22
7.83643e-22
7.83584e-22
7.83521e-22
7.83452e-22
7.83379e-22
7.83301e-22
7.83218e-22
7.8313e-22
7.83037e-22
7.82939e-22
7.82837e-22
7.8273e-22
7.82619e-22
7.82502e-22
7.82374e-22
7.82218e-22
7.81979e-22
1.84818e-21
1.84876e-21
1.84919e-21
1.84955e-21
1.84989e-21
1.85021e-21
1.85052e-21
1.85081e-21
1.85109e-21
1.85135e-21
1.8516e-21
1.85184e-21
1.85206e-21
1.85226e-21
1.85246e-21
1.85263e-21
1.8528e-21
1.85295e-21
1.85308e-21
1.85321e-21
1.85332e-21
1.85342e-21
1.8535e-21
1.85358e-21
1.85364e-21
1.8537e-21
1.85374e-21
1.85377e-21
1.85379e-21
1.8538e-21
1.8538e-21
1.85379e-21
1.85377e-21
1.85374e-21
1.8537e-21
1.85364e-21
1.85358e-21
1.8535e-21
1.85342e-21
1.85332e-21
1.85321e-21
1.85308e-21
1.85295e-21
1.8528e-21
1.85263e-21
1.85246e-21
1.85226e-21
1.85206e-21
1.85184e-21
1.8516e-21
1.85135e-21
1.85109e-21
1.85081e-21
1.85052e-21
1.85021e-21
1.84989e-21
1.84955e-21
1.84919e-21
1.84876e-21
1.84818e-21
4.45213e-21
4.45361e-21
4.45477e-21
4.4558e-21
4.45676e-21
4.45768e-21
4.45855e-21
4.45939e-21
4.46018e-21
4.46093e-21
4.46163e-21
4.4623e-21
4.46292e-21
4.46349e-21
4.46403e-21
4.46453e-21
4.46498e-21
4.4654e-21
4.46578e-21
4.46612e-21
4.46643e-21
4.46671e-21
4.46695e-21
4.46716e-21
4.46733e-21
4.46748e-21
4.4676e-21
4.46768e-21
4.46774e-21
4.46777e-21
4.46777e-21
4.46774e-21
4.46768e-21
4.4676e-21
4.46748e-21
4.46733e-21
4.46716e-21
4.46695e-21
4.46671e-21
4.46643e-21
4.46612e-21
4.46578e-21
4.4654e-21
4.46498e-21
4.46453e-21
4.46403e-21
4.46349e-21
4.46292e-21
4.4623e-21
4.46163e-21
4.46093e-21
4.46018e-21
4.45939e-21
4.45855e-21
4.45768e-21
4.45676e-21
4.4558e-21
4.45477e-21
4.45361e-21
4.45213e-21
1.0951e-20
1.09548e-20
1.0958e-20
1.09609e-20
1.09637e-20
1.09663e-20
1.09688e-20
1.09712e-20
1.09734e-20
1.09756e-20
1.09776e-20
1.09794e-20
1.09812e-20
1.09828e-20
1.09843e-20
1.09857e-20
1.0987e-20
1.09882e-20
1.09892e-20
1.09902e-20
1.0991e-20
1.09918e-20
1.09925e-20
1.09931e-20
1.09936e-20
1.0994e-20
1.09943e-20
1.09945e-20
1.09947e-20
1.09948e-20
1.09948e-20
1.09947e-20
1.09945e-20
1.09943e-20
1.0994e-20
1.09936e-20
1.09931e-20
1.09925e-20
1.09918e-20
1.0991e-20
1.09902e-20
1.09892e-20
1.09882e-20
1.0987e-20
1.09857e-20
1.09843e-20
1.09828e-20
1.09812e-20
1.09794e-20
1.09776e-20
1.09756e-20
1.09734e-20
1.09712e-20
1.09688e-20
1.09663e-20
1.09637e-20
1.09609e-20
1.0958e-20
1.09548e-20
1.0951e-20
2.7531e-20
2.75411e-20
2.75501e-20
2.75584e-20
2.75662e-20
2.75738e-20
2.7581e-20
2.75878e-20
2.75942e-20
2.76003e-20
2.7606e-20
2.76113e-20
2.76163e-20
2.7621e-20
2.76252e-20
2.76292e-20
2.76328e-20
2.76361e-20
2.76391e-20
2.76418e-20
2.76443e-20
2.76464e-20
2.76483e-20
2.765e-20
2.76514e-20
2.76525e-20
2.76534e-20
2.76541e-20
2.76546e-20
2.76548e-20
2.76548e-20
2.76546e-20
2.76541e-20
2.76534e-20
2.76525e-20
2.76514e-20
2.765e-20
2.76483e-20
2.76464e-20
2.76443e-20
2.76418e-20
2.76391e-20
2.76361e-20
2.76328e-20
2.76292e-20
2.76252e-20
2.7621e-20
2.76163e-20
2.76113e-20
2.7606e-20
2.76003e-20
2.75942e-20
2.75878e-20
2.7581e-20
2.75738e-20
2.75662e-20
2.75584e-20
2.75501e-20
2.75411e-20
2.7531e-20
7.07821e-20
7.08096e-20
7.08352e-20
7.0859e-20
7.08818e-20
7.09037e-20
7.09245e-20
7.09442e-20
7.09628e-20
7.09804e-20
7.09969e-20
7.10122e-20
7.10266e-20
7.10399e-20
7.10522e-20
7.10636e-20
7.1074e-20
7.10835e-20
7.10921e-20
7.10999e-20
7.11068e-20
7.1113e-20
7.11184e-20
7.11231e-20
7.11271e-20
7.11304e-20
7.1133e-20
7.11349e-20
7.11362e-20
7.11368e-20
7.11368e-20
7.11362e-20
7.11349e-20
7.1133e-20
7.11304e-20
7.11271e-20
7.11231e-20
7.11184e-20
7.1113e-20
7.11068e-20
7.10999e-20
7.10921e-20
7.10835e-20
7.1074e-20
7.10636e-20
7.10522e-20
7.10399e-20
7.10266e-20
7.10122e-20
7.09969e-20
7.09804e-20
7.09628e-20
7.09442e-20
7.09245e-20
7.09037e-20
7.08818e-20
7.0859e-20
7.08352e-20
7.08096e-20
7.07821e-20
1.86178e-19
1.86256e-19
1.86329e-19
1.86399e-19
1.86466e-19
1.8653e-19
1.86591e-19
1.86648e-19
1.86703e-19
1.86754e-19
1.86802e-19
1.86847e-19
1.86889e-19
1.86928e-19
1.86964e-19
1.86997e-19
1.87027e-19
1.87055e-19
1.8708e-19
1.87103e-19
1.87123e-19
1.87141e-19
1.87157e-19
1.8717e-19
1.87182e-19
1.87191e-19
1.87199e-19
1.87204e-19
1.87208e-19
1.8721e-19
1.8721e-19
1.87208e-19
1.87204e-19
1.87199e-19
1.87191e-19
1.87182e-19
1.8717e-19
1.87157e-19
1.87141e-19
1.87123e-19
1.87103e-19
1.8708e-19
1.87055e-19
1.87027e-19
1.86997e-19
1.86964e-19
1.86928e-19
1.86889e-19
1.86847e-19
1.86802e-19
1.86754e-19
1.86703e-19
1.86648e-19
1.86591e-19
1.8653e-19
1.86466e-19
1.86399e-19
1.86329e-19
1.86256e-19
1.86178e-19
5.0115e-19
5.01372e-19
5.01587e-19
5.01793e-19
5.01992e-19
5.02182e-19
5.02364e-19
5.02535e-19
5.02698e-19
5.0285e-19
5.02993e-19
5.03127e-19
5.03251e-19
5.03366e-19
5.03472e-19
5.0357e-19
5.0366e-19
5.03741e-19
5.03815e-19
5.03882e-19
5.03942e-19
5.03995e-19
5.04042e-19
5.04082e-19
5.04116e-19
5.04144e-19
5.04166e-19
5.04183e-19
5.04194e-19
5.04199e-19
5.04199e-19
5.04194e-19
5.04183e-19
5.04166e-19
5.04144e-19
5.04116e-19
5.04082e-19
5.04042e-19
5.03995e-19
5.03942e-19
5.03882e-19
5.03815e-19
5.03741e-19
5.0366e-19
5.0357e-19
5.03472e-19
5.03366e-19
5.03251e-19
5.03127e-19
5.02993e-19
5.0285e-19
5.02698e-19
5.02535e-19
5.02364e-19
5.02182e-19
5.01992e-19
5.01793e-19
5.01587e-19
5.01372e-19
5.0115e-19
1.38082e-18
1.38148e-18
1.38212e-18
1.38274e-18
1.38334e-18
1.38391e-18
1.38446e-18
1.38498e-18
1.38547e-18
1.38593e-18
1.38636e-18
1.38677e-18
1.38714e-18
1.38749e-18
1.38781e-18
1.3881e-18
1.38837e-18
1.38862e-18
1.38884e-18
1.38904e-18
1.38922e-18
1.38938e-18
1.38952e-18
1.38964e-18
1.38974e-18
1.38983e-18
1.3899e-18
1.38995e-18
1.38998e-18
1.39e-18
1.39e-18
1.38998e-18
1.38995e-18
1.3899e-18
1.38983e-18
1.38974e-18
1.38964e-18
1.38952e-18
1.38938e-18
1.38922e-18
1.38904e-18
1.38884e-18
1.38862e-18
1.38837e-18
1.3881e-18
1.38781e-18
1.38749e-18
1.38714e-18
1.38677e-18
1.38636e-18
1.38593e-18
1.38547e-18
1.38498e-18
1.38446e-18
1.38391e-18
1.38334e-18
1.38274e-18
1.38212e-18
1.38148e-18
1.38082e-18
3.89508e-18
3.89706e-18
3.89902e-18
3.90091e-18
3.90276e-18
3.90453e-18
3.90621e-18
3.90781e-18
3.90931e-18
3.91073e-18
3.91205e-18
3.91329e-18
3.91444e-18
3.9155e-18
3.91648e-18
3.91739e-18
3.91822e-18
3.91897e-18
3.91965e-18
3.92027e-18
3.92082e-18
3.92131e-18
3.92174e-18
3.92211e-18
3.92242e-18
3.92268e-18
3.92288e-18
3.92304e-18
3.92314e-18
3.92319e-18
3.92319e-18
3.92314e-18
3.92304e-18
3.92288e-18
3.92268e-18
3.92242e-18
3.92211e-18
3.92174e-18
3.92131e-18
3.92082e-18
3.92027e-18
3.91965e-18
3.91897e-18
3.91822e-18
3.91739e-18
3.91648e-18
3.9155e-18
3.91444e-18
3.91329e-18
3.91205e-18
3.91073e-18
3.90931e-18
3.90781e-18
3.90621e-18
3.90453e-18
3.90276e-18
3.90091e-18
3.89902e-18
3.89706e-18
3.89508e-18
1.12501e-17
1.12562e-17
1.12623e-17
1.12682e-17
1.12739e-17
1.12795e-17
1.12848e-17
1.12898e-17
1.12945e-17
1.12989e-17
1.1303e-17
1.13069e-17
1.13105e-17
1.13138e-17
1.13169e-17
1.13197e-17
1.13223e-17
1.13247e-17
1.13268e-17
1.13287e-17
1.13304e-17
1.1332e-17
1.13333e-17
1.13345e-17
1.13354e-17
1.13362e-17
1.13369e-17
1.13374e-17
1.13377e-17
1.13378e-17
1.13378e-17
1.13377e-17
1.13374e-17
1.13369e-17
1.13362e-17
1.13354e-17
1.13345e-17
1.13333e-17
1.1332e-17
1.13304e-17
1.13287e-17
1.13268e-17
1.13247e-17
1.13223e-17
1.13197e-17
1.13169e-17
1.13138e-17
1.13105e-17
1.13069e-17
1.1303e-17
1.12989e-17
1.12945e-17
1.12898e-17
1.12848e-17
1.12795e-17
1.12739e-17
1.12682e-17
1.12623e-17
1.12562e-17
1.12501e-17
3.32718e-17
3.32912e-17
3.33103e-17
3.33291e-17
3.33475e-17
3.33652e-17
3.3382e-17
3.33979e-17
3.3413e-17
3.34271e-17
3.34403e-17
3.34526e-17
3.3464e-17
3.34747e-17
3.34844e-17
3.34934e-17
3.35017e-17
3.35092e-17
3.3516e-17
3.35221e-17
3.35276e-17
3.35324e-17
3.35367e-17
3.35404e-17
3.35435e-17
3.3546e-17
3.35481e-17
3.35496e-17
3.35506e-17
3.35511e-17
3.35511e-17
3.35506e-17
3.35496e-17
3.35481e-17
3.3546e-17
3.35435e-17
3.35404e-17
3.35367e-17
3.35324e-17
3.35276e-17
3.35221e-17
3.3516e-17
3.35092e-17
3.35017e-17
3.34934e-17
3.34844e-17
3.34747e-17
3.3464e-17
3.34526e-17
3.34403e-17
3.34271e-17
3.3413e-17
3.33979e-17
3.3382e-17
3.33652e-17
3.33475e-17
3.33291e-17
3.33103e-17
3.32912e-17
3.32718e-17
1.00754e-16
1.00817e-16
1.00879e-16
1.0094e-16
1.01e-16
1.01057e-16
1.01112e-16
1.01163e-16
1.01212e-16
1.01258e-16
1.01301e-16
1.01341e-16
1.01378e-16
1.01413e-16
1.01445e-16
1.01474e-16
1.01501e-16
1.01525e-16
1.01547e-16
1.01567e-16
1.01585e-16
1.016e-16
1.01614e-16
1.01626e-16
1.01636e-16
1.01645e-16
1.01651e-16
1.01656e-16
1.01659e-16
1.01661e-16
1.01661e-16
1.01659e-16
1.01656e-16
1.01651e-16
1.01645e-16
1.01636e-16
1.01626e-16
1.01614e-16
1.016e-16
1.01585e-16
1.01567e-16
1.01547e-16
1.01525e-16
1.01501e-16
1.01474e-16
1.01445e-16
1.01413e-16
1.01378e-16
1.01341e-16
1.01301e-16
1.01258e-16
1.01212e-16
1.01163e-16
1.01112e-16
1.01057e-16
1.01e-16
1.0094e-16
1.00879e-16
1.00817e-16
1.00754e-16
3.12365e-16
3.12571e-16
3.12774e-16
3.12977e-16
3.13174e-16
3.13365e-16
3.13546e-16
3.13718e-16
3.1388e-16
3.14032e-16
3.14174e-16
3.14307e-16
3.1443e-16
3.14544e-16
3.14649e-16
3.14746e-16
3.14835e-16
3.14916e-16
3.14989e-16
3.15055e-16
3.15114e-16
3.15166e-16
3.15211e-16
3.15251e-16
3.15284e-16
3.15312e-16
3.15334e-16
3.1535e-16
3.15361e-16
3.15366e-16
3.15366e-16
3.15361e-16
3.1535e-16
3.15334e-16
3.15312e-16
3.15284e-16
3.15251e-16
3.15211e-16
3.15166e-16
3.15114e-16
3.15055e-16
3.14989e-16
3.14916e-16
3.14835e-16
3.14746e-16
3.14649e-16
3.14544e-16
3.1443e-16
3.14307e-16
3.14174e-16
3.14032e-16
3.1388e-16
3.13718e-16
3.13546e-16
3.13365e-16
3.13174e-16
3.12977e-16
3.12774e-16
3.12571e-16
3.12365e-16
9.91202e-16
9.91894e-16
9.92576e-16
9.93259e-16
9.93927e-16
9.9457e-16
9.95183e-16
9.95764e-16
9.96311e-16
9.96825e-16
9.97306e-16
9.97754e-16
9.98171e-16
9.98556e-16
9.98912e-16
9.99239e-16
9.99539e-16
9.99811e-16
1.00006e-15
1.00028e-15
1.00048e-15
1.00066e-15
1.00081e-15
1.00094e-15
1.00106e-15
1.00115e-15
1.00122e-15
1.00128e-15
1.00131e-15
1.00133e-15
1.00133e-15
1.00131e-15
1.00128e-15
1.00122e-15
1.00115e-15
1.00106e-15
1.00094e-15
1.00081e-15
1.00066e-15
1.00048e-15
1.00028e-15
1.00006e-15
9.99811e-16
9.99539e-16
9.99239e-16
9.98912e-16
9.98556e-16
9.98171e-16
9.97754e-16
9.97306e-16
9.96825e-16
9.96311e-16
9.95764e-16
9.95183e-16
9.9457e-16
9.93927e-16
9.93259e-16
9.92576e-16
9.91894e-16
9.91202e-16
3.21805e-15
3.22042e-15
3.22276e-15
3.22511e-15
3.22741e-15
3.22963e-15
3.23174e-15
3.23374e-15
3.23563e-15
3.2374e-15
3.23905e-15
3.2406e-15
3.24203e-15
3.24336e-15
3.24459e-15
3.24571e-15
3.24674e-15
3.24768e-15
3.24853e-15
3.2493e-15
3.24998e-15
3.25059e-15
3.25112e-15
3.25158e-15
3.25197e-15
3.25229e-15
3.25254e-15
3.25273e-15
3.25286e-15
3.25292e-15
3.25292e-15
3.25286e-15
3.25273e-15
3.25254e-15
3.25229e-15
3.25197e-15
3.25158e-15
3.25112e-15
3.25059e-15
3.24998e-15
3.2493e-15
3.24853e-15
3.24768e-15
3.24674e-15
3.24571e-15
3.24459e-15
3.24336e-15
3.24203e-15
3.2406e-15
3.23905e-15
3.2374e-15
3.23563e-15
3.23374e-15
3.23174e-15
3.22963e-15
3.22741e-15
3.22511e-15
3.22276e-15
3.22042e-15
3.21805e-15
1.06835e-14
1.06918e-14
1.07e-14
1.07082e-14
1.07163e-14
1.07241e-14
1.07315e-14
1.07385e-14
1.07451e-14
1.07513e-14
1.07572e-14
1.07626e-14
1.07676e-14
1.07723e-14
1.07766e-14
1.07805e-14
1.07842e-14
1.07875e-14
1.07904e-14
1.07931e-14
1.07955e-14
1.07977e-14
1.07995e-14
1.08011e-14
1.08025e-14
1.08036e-14
1.08045e-14
1.08052e-14
1.08056e-14
1.08058e-14
1.08058e-14
1.08056e-14
1.08052e-14
1.08045e-14
1.08036e-14
1.08025e-14
1.08011e-14
1.07995e-14
1.07977e-14
1.07955e-14
1.07931e-14
1.07904e-14
1.07875e-14
1.07842e-14
1.07805e-14
1.07766e-14
1.07723e-14
1.07676e-14
1.07626e-14
1.07572e-14
1.07513e-14
1.07451e-14
1.07385e-14
1.07315e-14
1.07241e-14
1.07163e-14
1.07082e-14
1.07e-14
1.06918e-14
1.06835e-14
3.62413e-14
3.62706e-14
3.62997e-14
3.63291e-14
3.6358e-14
3.63859e-14
3.64124e-14
3.64376e-14
3.64613e-14
3.64835e-14
3.65043e-14
3.65237e-14
3.65417e-14
3.65584e-14
3.65737e-14
3.65879e-14
3.66008e-14
3.66126e-14
3.66232e-14
3.66329e-14
3.66414e-14
3.6649e-14
3.66557e-14
3.66614e-14
3.66663e-14
3.66703e-14
3.66735e-14
3.66759e-14
3.66774e-14
3.66782e-14
3.66782e-14
3.66774e-14
3.66759e-14
3.66735e-14
3.66703e-14
3.66663e-14
3.66614e-14
3.66557e-14
3.6649e-14
3.66414e-14
3.66329e-14
3.66232e-14
3.66126e-14
3.66008e-14
3.65879e-14
3.65737e-14
3.65584e-14
3.65417e-14
3.65237e-14
3.65043e-14
3.64835e-14
3.64613e-14
3.64376e-14
3.64124e-14
3.63859e-14
3.6358e-14
3.63291e-14
3.62997e-14
3.62706e-14
3.62413e-14
1.255e-13
1.25605e-13
1.25711e-13
1.25818e-13
1.25923e-13
1.26025e-13
1.26121e-13
1.26213e-13
1.26299e-13
1.2638e-13
1.26456e-13
1.26526e-13
1.26592e-13
1.26652e-13
1.26708e-13
1.2676e-13
1.26807e-13
1.26849e-13
1.26888e-13
1.26923e-13
1.26954e-13
1.26982e-13
1.27006e-13
1.27027e-13
1.27045e-13
1.27059e-13
1.27071e-13
1.2708e-13
1.27085e-13
1.27088e-13
1.27088e-13
1.27085e-13
1.2708e-13
1.27071e-13
1.27059e-13
1.27045e-13
1.27027e-13
1.27006e-13
1.26982e-13
1.26954e-13
1.26923e-13
1.26888e-13
1.26849e-13
1.26807e-13
1.2676e-13
1.26708e-13
1.26652e-13
1.26592e-13
1.26526e-13
1.26456e-13
1.2638e-13
1.26299e-13
1.26213e-13
1.26121e-13
1.26025e-13
1.25923e-13
1.25818e-13
1.25711e-13
1.25605e-13
1.255e-13
4.43106e-13
4.43493e-13
4.43882e-13
4.44278e-13
4.44667e-13
4.45042e-13
4.454e-13
4.45738e-13
4.46057e-13
4.46357e-13
4.46636e-13
4.46897e-13
4.47139e-13
4.47364e-13
4.4757e-13
4.4776e-13
4.47934e-13
4.48092e-13
4.48236e-13
4.48365e-13
4.4848e-13
4.48582e-13
4.48671e-13
4.48748e-13
4.48814e-13
4.48868e-13
4.4891e-13
4.48942e-13
4.48963e-13
4.48974e-13
4.48974e-13
4.48963e-13
4.48942e-13
4.4891e-13
4.48868e-13
4.48814e-13
4.48748e-13
4.48671e-13
4.48582e-13
4.4848e-13
4.48365e-13
4.48236e-13
4.48092e-13
4.47934e-13
4.4776e-13
4.4757e-13
4.47364e-13
4.47139e-13
4.46897e-13
4.46636e-13
4.46357e-13
4.46057e-13
4.45738e-13
4.454e-13
4.45042e-13
4.44667e-13
4.44278e-13
4.43882e-13
4.43493e-13
4.43106e-13
1.59276e-12
1.59419e-12
1.59565e-12
1.59714e-12
1.5986e-12
1.60001e-12
1.60135e-12
1.60262e-12
1.60382e-12
1.60494e-12
1.60599e-12
1.60697e-12
1.60788e-12
1.60872e-12
1.60949e-12
1.61021e-12
1.61086e-12
1.61145e-12
1.61199e-12
1.61247e-12
1.6129e-12
1.61329e-12
1.61362e-12
1.61391e-12
1.61415e-12
1.61436e-12
1.61452e-12
1.61464e-12
1.61471e-12
1.61475e-12
1.61475e-12
1.61471e-12
1.61464e-12
1.61452e-12
1.61436e-12
1.61415e-12
1.61391e-12
1.61362e-12
1.61329e-12
1.6129e-12
1.61247e-12
1.61199e-12
1.61145e-12
1.61086e-12
1.61021e-12
1.60949e-12
1.60872e-12
1.60788e-12
1.60697e-12
1.60599e-12
1.60494e-12
1.60382e-12
1.60262e-12
1.60135e-12
1.60001e-12
1.5986e-12
1.59714e-12
1.59565e-12
1.59419e-12
1.59276e-12
5.81807e-12
5.82349e-12
5.82902e-12
5.83467e-12
5.84022e-12
5.84558e-12
5.85068e-12
5.85551e-12
5.86007e-12
5.86434e-12
5.86833e-12
5.87205e-12
5.8755e-12
5.8787e-12
5.88164e-12
5.88435e-12
5.88682e-12
5.88908e-12
5.89112e-12
5.89295e-12
5.89459e-12
5.89605e-12
5.89732e-12
5.89841e-12
5.89934e-12
5.90011e-12
5.90072e-12
5.90117e-12
5.90147e-12
5.90162e-12
5.90162e-12
5.90147e-12
5.90117e-12
5.90072e-12
5.90011e-12
5.89934e-12
5.89841e-12
5.89732e-12
5.89605e-12
5.89459e-12
5.89295e-12
5.89112e-12
5.88908e-12
5.88682e-12
5.88435e-12
5.88164e-12
5.8787e-12
5.8755e-12
5.87205e-12
5.86833e-12
5.86434e-12
5.86007e-12
5.85551e-12
5.85068e-12
5.84558e-12
5.84022e-12
5.83467e-12
5.82902e-12
5.82349e-12
5.81807e-12
2.15502e-11
2.15708e-11
2.15921e-11
2.16138e-11
2.16351e-11
2.16557e-11
2.16753e-11
2.16939e-11
2.17114e-11
2.17278e-11
2.17431e-11
2.17574e-11
2.17706e-11
2.17829e-11
2.17942e-11
2.18046e-11
2.18141e-11
2.18228e-11
2.18306e-11
2.18376e-11
2.18439e-11
2.18495e-11
2.18544e-11
2.18586e-11
2.18622e-11
2.18651e-11
2.18674e-11
2.18692e-11
2.18703e-11
2.18709e-11
2.18709e-11
2.18703e-11
2.18692e-11
2.18674e-11
2.18651e-11
2.18622e-11
2.18586e-11
2.18544e-11
2.18495e-11
2.18439e-11
2.18376e-11
2.18306e-11
2.18228e-11
2.18141e-11
2.18046e-11
2.17942e-11
2.17829e-11
2.17706e-11
2.17574e-11
2.17431e-11
2.17278e-11
2.17114e-11
2.16939e-11
2.16753e-11
2.16557e-11
2.16351e-11
2.16138e-11
2.15921e-11
2.15708e-11
2.15502e-11
8.07312e-11
8.08105e-11
8.08926e-11
8.09767e-11
8.10594e-11
8.11391e-11
8.12151e-11
8.1287e-11
8.13547e-11
8.14182e-11
8.14775e-11
8.15328e-11
8.15841e-11
8.16316e-11
8.16753e-11
8.17155e-11
8.17523e-11
8.17857e-11
8.1816e-11
8.18433e-11
8.18676e-11
8.18891e-11
8.1908e-11
8.19243e-11
8.19381e-11
8.19494e-11
8.19584e-11
8.19651e-11
8.19696e-11
8.19718e-11
8.19718e-11
8.19696e-11
8.19651e-11
8.19584e-11
8.19494e-11
8.19381e-11
8.19243e-11
8.1908e-11
8.18891e-11
8.18676e-11
8.18433e-11
8.1816e-11
8.17857e-11
8.17523e-11
8.17155e-11
8.16753e-11
8.16316e-11
8.15841e-11
8.15328e-11
8.14775e-11
8.14182e-11
8.13547e-11
8.1287e-11
8.12151e-11
8.11391e-11
8.10594e-11
8.09767e-11
8.08926e-11
8.08105e-11
8.07312e-11
3.04947e-10
3.05253e-10
3.05572e-10
3.05899e-10
3.06221e-10
3.06531e-10
3.06827e-10
3.07106e-10
3.0737e-10
3.07617e-10
3.07847e-10
3.08062e-10
3.08262e-10
3.08446e-10
3.08616e-10
3.08773e-10
3.08915e-10
3.09045e-10
3.09163e-10
3.09269e-10
3.09363e-10
3.09447e-10
3.0952e-10
3.09584e-10
3.09637e-10
3.09681e-10
3.09716e-10
3.09742e-10
3.09759e-10
3.09768e-10
3.09768e-10
3.09759e-10
3.09742e-10
3.09716e-10
3.09681e-10
3.09637e-10
3.09584e-10
3.0952e-10
3.09447e-10
3.09363e-10
3.09269e-10
3.09163e-10
3.09045e-10
3.08915e-10
3.08773e-10
3.08616e-10
3.08446e-10
3.08262e-10
3.08062e-10
3.07847e-10
3.07617e-10
3.0737e-10
3.07106e-10
3.06827e-10
3.06531e-10
3.06221e-10
3.05899e-10
3.05572e-10
3.05253e-10
3.04947e-10
1.15731e-09
1.15849e-09
1.15974e-09
1.16101e-09
1.16226e-09
1.16347e-09
1.16462e-09
1.16571e-09
1.16673e-09
1.16769e-09
1.16859e-09
1.16943e-09
1.1702e-09
1.17092e-09
1.17158e-09
1.17219e-09
1.17275e-09
1.17325e-09
1.17371e-09
1.17412e-09
1.17449e-09
1.17481e-09
1.1751e-09
1.17534e-09
1.17555e-09
1.17572e-09
1.17586e-09
1.17596e-09
1.17603e-09
1.17606e-09
1.17606e-09
1.17603e-09
1.17596e-09
1.17586e-09
1.17572e-09
1.17555e-09
1.17534e-09
1.1751e-09
1.17481e-09
1.17449e-09
1.17412e-09
1.17371e-09
1.17325e-09
1.17275e-09
1.17219e-09
1.17158e-09
1.17092e-09
1.1702e-09
1.16943e-09
1.16859e-09
1.16769e-09
1.16673e-09
1.16571e-09
1.16462e-09
1.16347e-09
1.16226e-09
1.16101e-09
1.15974e-09
1.15849e-09
1.15731e-09
4.39457e-09
4.39915e-09
4.40397e-09
4.40891e-09
4.41377e-09
4.41846e-09
4.42292e-09
4.42714e-09
4.43111e-09
4.43483e-09
4.43831e-09
4.44155e-09
4.44456e-09
4.44734e-09
4.4499e-09
4.45225e-09
4.4544e-09
4.45636e-09
4.45813e-09
4.45972e-09
4.46115e-09
4.46241e-09
4.46351e-09
4.46446e-09
4.46526e-09
4.46593e-09
4.46645e-09
4.46684e-09
4.4671e-09
4.46723e-09
4.46723e-09
4.4671e-09
4.46684e-09
4.46645e-09
4.46593e-09
4.46526e-09
4.46446e-09
4.46351e-09
4.46241e-09
4.46115e-09
4.45972e-09
4.45813e-09
4.45636e-09
4.4544e-09
4.45225e-09
4.4499e-09
4.44734e-09
4.44456e-09
4.44155e-09
4.43831e-09
4.43483e-09
4.43111e-09
4.42714e-09
4.42292e-09
4.41846e-09
4.41377e-09
4.40891e-09
4.40397e-09
4.39915e-09
4.39457e-09
1.6617e-08
1.66345e-08
1.66531e-08
1.66721e-08
1.66907e-08
1.67087e-08
1.67259e-08
1.67421e-08
1.67573e-08
1.67717e-08
1.6785e-08
1.67975e-08
1.6809e-08
1.68197e-08
1.68295e-08
1.68385e-08
1.68468e-08
1.68543e-08
1.68611e-08
1.68672e-08
1.68727e-08
1.68775e-08
1.68817e-08
1.68854e-08
1.68885e-08
1.6891e-08
1.6893e-08
1.68945e-08
1.68955e-08
1.6896e-08
1.6896e-08
1.68955e-08
1.68945e-08
1.6893e-08
1.6891e-08
1.68885e-08
1.68854e-08
1.68817e-08
1.68775e-08
1.68727e-08
1.68672e-08
1.68611e-08
1.68543e-08
1.68468e-08
1.68385e-08
1.68295e-08
1.68197e-08
1.6809e-08
1.67975e-08
1.6785e-08
1.67717e-08
1.67573e-08
1.67421e-08
1.67259e-08
1.67087e-08
1.66907e-08
1.66721e-08
1.66531e-08
1.66345e-08
1.6617e-08
6.22264e-08
6.22926e-08
6.23629e-08
6.24349e-08
6.25057e-08
6.25738e-08
6.26387e-08
6.27e-08
6.27578e-08
6.28119e-08
6.28624e-08
6.29095e-08
6.29531e-08
6.29935e-08
6.30307e-08
6.30648e-08
6.3096e-08
6.31244e-08
6.31501e-08
6.31732e-08
6.31938e-08
6.32121e-08
6.32281e-08
6.32418e-08
6.32535e-08
6.32631e-08
6.32708e-08
6.32764e-08
6.32802e-08
6.32821e-08
6.32821e-08
6.32802e-08
6.32764e-08
6.32708e-08
6.32631e-08
6.32535e-08
6.32418e-08
6.32281e-08
6.32121e-08
6.31938e-08
6.31732e-08
6.31501e-08
6.31244e-08
6.3096e-08
6.30648e-08
6.30307e-08
6.29935e-08
6.29531e-08
6.29095e-08
6.28624e-08
6.28119e-08
6.27578e-08
6.27e-08
6.26387e-08
6.25738e-08
6.25057e-08
6.24349e-08
6.23629e-08
6.22926e-08
6.22264e-08
2.29335e-07
2.2958e-07
2.29841e-07
2.30108e-07
2.3037e-07
2.30622e-07
2.30863e-07
2.3109e-07
2.31303e-07
2.31504e-07
2.31691e-07
2.31865e-07
2.32026e-07
2.32176e-07
2.32313e-07
2.32439e-07
2.32555e-07
2.3266e-07
2.32755e-07
2.3284e-07
2.32916e-07
2.32984e-07
2.33043e-07
2.33094e-07
2.33137e-07
2.33172e-07
2.33201e-07
2.33222e-07
2.33236e-07
2.33243e-07
2.33243e-07
2.33236e-07
2.33222e-07
2.33201e-07
2.33172e-07
2.33137e-07
2.33094e-07
2.33043e-07
2.32984e-07
2.32916e-07
2.3284e-07
2.32755e-07
2.3266e-07
2.32555e-07
2.32439e-07
2.32313e-07
2.32176e-07
2.32026e-07
2.31865e-07
2.31691e-07
2.31504e-07
2.31303e-07
2.3109e-07
2.30863e-07
2.30622e-07
2.3037e-07
2.30108e-07
2.29841e-07
2.2958e-07
2.29335e-07
8.25959e-07
8.26841e-07
8.27781e-07
8.28741e-07
8.29684e-07
8.30591e-07
8.31454e-07
8.32269e-07
8.33037e-07
8.33756e-07
8.34428e-07
8.35053e-07
8.35633e-07
8.36169e-07
8.36662e-07
8.37116e-07
8.3753e-07
8.37906e-07
8.38247e-07
8.38554e-07
8.38827e-07
8.39069e-07
8.39281e-07
8.39464e-07
8.39619e-07
8.39746e-07
8.39847e-07
8.39922e-07
8.39972e-07
8.39997e-07
8.39997e-07
8.39972e-07
8.39922e-07
8.39847e-07
8.39746e-07
8.39619e-07
8.39464e-07
8.39281e-07
8.39069e-07
8.38827e-07
8.38554e-07
8.38247e-07
8.37906e-07
8.3753e-07
8.37116e-07
8.36662e-07
8.36169e-07
8.35633e-07
8.35053e-07
8.34428e-07
8.33756e-07
8.33037e-07
8.32269e-07
8.31454e-07
8.30591e-07
8.29684e-07
8.28741e-07
8.27781e-07
8.26841e-07
8.25959e-07
2.88373e-06
2.88679e-06
2.89005e-06
2.89338e-06
2.89663e-06
2.89977e-06
2.90275e-06
2.90557e-06
2.90822e-06
2.9107e-06
2.91302e-06
2.91518e-06
2.91718e-06
2.91903e-06
2.92074e-06
2.9223e-06
2.92373e-06
2.92503e-06
2.92621e-06
2.92726e-06
2.92821e-06
2.92904e-06
2.92977e-06
2.9304e-06
2.93094e-06
2.93138e-06
2.93173e-06
2.93199e-06
2.93216e-06
2.93224e-06
2.93224e-06
2.93216e-06
2.93199e-06
2.93173e-06
2.93138e-06
2.93094e-06
2.9304e-06
2.92977e-06
2.92904e-06
2.92821e-06
2.92726e-06
2.92621e-06
2.92503e-06
2.92373e-06
2.9223e-06
2.92074e-06
2.91903e-06
2.91718e-06
2.91518e-06
2.91302e-06
2.9107e-06
2.90822e-06
2.90557e-06
2.90275e-06
2.89977e-06
2.89663e-06
2.89338e-06
2.89005e-06
2.88679e-06
2.88373e-06
9.67238e-06
9.68249e-06
9.69325e-06
9.70419e-06
9.71491e-06
9.72522e-06
9.73503e-06
9.7443e-06
9.75301e-06
9.76117e-06
9.7688e-06
9.77589e-06
9.78247e-06
9.78854e-06
9.79414e-06
9.79928e-06
9.80397e-06
9.80824e-06
9.81211e-06
9.81558e-06
9.81868e-06
9.82142e-06
9.82382e-06
9.82589e-06
9.82764e-06
9.82908e-06
9.83023e-06
9.83108e-06
9.83165e-06
9.83193e-06
9.83193e-06
9.83165e-06
9.83108e-06
9.83023e-06
9.82908e-06
9.82764e-06
9.82589e-06
9.82382e-06
9.82142e-06
9.81868e-06
9.81558e-06
9.81211e-06
9.80824e-06
9.80397e-06
9.79928e-06
9.79414e-06
9.78854e-06
9.78247e-06
9.77589e-06
9.7688e-06
9.76117e-06
9.75301e-06
9.7443e-06
9.73503e-06
9.72522e-06
9.71491e-06
9.70419e-06
9.69325e-06
9.68249e-06
9.67238e-06
3.08515e-05
3.08829e-05
3.09164e-05
3.09503e-05
3.09835e-05
3.10153e-05
3.10457e-05
3.10743e-05
3.11012e-05
3.11265e-05
3.115e-05
3.11719e-05
3.11923e-05
3.1211e-05
3.12283e-05
3.12442e-05
3.12587e-05
3.12719e-05
3.12838e-05
3.12945e-05
3.13041e-05
3.13126e-05
3.132e-05
3.13264e-05
3.13318e-05
3.13362e-05
3.13398e-05
3.13424e-05
3.13441e-05
3.1345e-05
3.1345e-05
3.13441e-05
3.13424e-05
3.13398e-05
3.13362e-05
3.13318e-05
3.13264e-05
3.132e-05
3.13126e-05
3.13041e-05
3.12945e-05
3.12838e-05
3.12719e-05
3.12587e-05
3.12442e-05
3.12283e-05
3.1211e-05
3.11923e-05
3.11719e-05
3.115e-05
3.11265e-05
3.11012e-05
3.10743e-05
3.10457e-05
3.10153e-05
3.09835e-05
3.09503e-05
3.09164e-05
3.08829e-05
3.08515e-05
9.25221e-05
9.26131e-05
9.27094e-05
9.28069e-05
9.29021e-05
9.29936e-05
9.30805e-05
9.31627e-05
9.32399e-05
9.33122e-05
9.33797e-05
9.34425e-05
9.35007e-05
9.35545e-05
9.36041e-05
9.36495e-05
9.3691e-05
9.37288e-05
9.37629e-05
9.37936e-05
9.3821e-05
9.38453e-05
9.38665e-05
9.38848e-05
9.39003e-05
9.3913e-05
9.39231e-05
9.39307e-05
9.39356e-05
9.39381e-05
9.39381e-05
9.39356e-05
9.39307e-05
9.39231e-05
9.3913e-05
9.39003e-05
9.38848e-05
9.38665e-05
9.38453e-05
9.3821e-05
9.37936e-05
9.37629e-05
9.37288e-05
9.3691e-05
9.36495e-05
9.36041e-05
9.35545e-05
9.35007e-05
9.34425e-05
9.33797e-05
9.33122e-05
9.32399e-05
9.31627e-05
9.30805e-05
9.29936e-05
9.29021e-05
9.28069e-05
9.27094e-05
9.26131e-05
9.25221e-05
0.000257635
0.000257876
0.000258129
0.000258385
0.000258634
0.000258874
0.000259102
0.000259317
0.000259519
0.000259708
0.000259885
0.000260049
0.000260201
0.000260342
0.000260471
0.00026059
0.000260699
0.000260798
0.000260887
0.000260967
0.000261039
0.000261102
0.000261157
0.000261205
0.000261246
0.000261279
0.000261305
0.000261325
0.000261338
0.000261345
0.000261345
0.000261338
0.000261325
0.000261305
0.000261279
0.000261246
0.000261205
0.000261157
0.000261102
0.000261039
0.000260967
0.000260887
0.000260798
0.000260699
0.00026059
0.000260471
0.000260342
0.000260201
0.000260049
0.000259885
0.000259708
0.000259519