/*--------------------------------*- C++ -*----------------------------------*\
| =========                 |                                                 |
| \\      /  F ield         | foam-extend: Open Source CFD                    |
|  \\    /   O peration     | Version:     4.0                                |
|   \\  /    A nd           | Web:         http://www.foam-extend.org         |
|    \\/     M anipulation  |                                                 |
\*---------------------------------------------------------------------------*/
FoamFile
{
    version     2.0;
    format      ascii;
    class       volScalarField;
    location    "1570";
    object      cMinus;
}
// * * * * * * * * * * * * * * * * * * * * * * * * * * * * * * * * * * * * * //

dimensions      [0 0 0 0 0 0 0];

internalField   nonuniform List<scalar> 
6960
(
1.81128e-20
1.8092e-20
1.80614e-20
1.80407e-20
1.80278e-20
1.80201e-20
1.80156e-20
1.8013e-20
1.80115e-20
1.80106e-20
1.80102e-20
1.80101e-20
1.80101e-20
1.80102e-20
1.80104e-20
1.80106e-20
1.80109e-20
1.80111e-20
1.80114e-20
1.80116e-20
1.80119e-20
1.80121e-20
1.80123e-20
1.80125e-20
1.80126e-20
1.80128e-20
1.80129e-20
1.8013e-20
1.8013e-20
1.8013e-20
1.8013e-20
1.8013e-20
1.8013e-20
1.80129e-20
1.80128e-20
1.80126e-20
1.80125e-20
1.80123e-20
1.80121e-20
1.80119e-20
1.80116e-20
1.80114e-20
1.80111e-20
1.80109e-20
1.80106e-20
1.80104e-20
1.80102e-20
1.80101e-20
1.80101e-20
1.80102e-20
1.80106e-20
1.80115e-20
1.8013e-20
1.80156e-20
1.80201e-20
1.80278e-20
1.80407e-20
1.80614e-20
1.8092e-20
1.81128e-20
9.82733e-20
9.8203e-20
9.80687e-20
9.79757e-20
9.79175e-20
9.78823e-20
9.78615e-20
9.78493e-20
9.78424e-20
9.78387e-20
9.7837e-20
9.78365e-20
9.78368e-20
9.78376e-20
9.78387e-20
9.78399e-20
9.78413e-20
9.78428e-20
9.78442e-20
9.78456e-20
9.78469e-20
9.78481e-20
9.78493e-20
9.78503e-20
9.78512e-20
9.78519e-20
9.78525e-20
9.7853e-20
9.78533e-20
9.78534e-20
9.78534e-20
9.78533e-20
9.7853e-20
9.78525e-20
9.78519e-20
9.78512e-20
9.78503e-20
9.78493e-20
9.78481e-20
9.78469e-20
9.78456e-20
9.78442e-20
9.78428e-20
9.78413e-20
9.78399e-20
9.78387e-20
9.78376e-20
9.78368e-20
9.78365e-20
9.7837e-20
9.78387e-20
9.78424e-20
9.78493e-20
9.78615e-20
9.78823e-20
9.79175e-20
9.79757e-20
9.80687e-20
9.8203e-20
9.82733e-20
5.12616e-19
5.12498e-19
5.11983e-19
5.11613e-19
5.11376e-19
5.11231e-19
5.11144e-19
5.11093e-19
5.11064e-19
5.11049e-19
5.11043e-19
5.11042e-19
5.11045e-19
5.1105e-19
5.11056e-19
5.11063e-19
5.11071e-19
5.11078e-19
5.11086e-19
5.11093e-19
5.111e-19
5.11107e-19
5.11113e-19
5.11118e-19
5.11123e-19
5.11127e-19
5.1113e-19
5.11133e-19
5.11134e-19
5.11135e-19
5.11135e-19
5.11134e-19
5.11133e-19
5.1113e-19
5.11127e-19
5.11123e-19
5.11118e-19
5.11113e-19
5.11107e-19
5.111e-19
5.11093e-19
5.11086e-19
5.11078e-19
5.11071e-19
5.11063e-19
5.11056e-19
5.1105e-19
5.11045e-19
5.11042e-19
5.11043e-19
5.11049e-19
5.11064e-19
5.11093e-19
5.11144e-19
5.11231e-19
5.11376e-19
5.11613e-19
5.11983e-19
5.12498e-19
5.12616e-19
2.73427e-18
2.73502e-18
2.73332e-18
2.73199e-18
2.73111e-18
2.73055e-18
2.73021e-18
2.73001e-18
2.7299e-18
2.72984e-18
2.72982e-18
2.72983e-18
2.72985e-18
2.72988e-18
2.72992e-18
2.72996e-18
2.73e-18
2.73004e-18
2.73008e-18
2.73012e-18
2.73016e-18
2.7302e-18
2.73023e-18
2.73026e-18
2.73029e-18
2.73031e-18
2.73032e-18
2.73034e-18
2.73035e-18
2.73035e-18
2.73035e-18
2.73035e-18
2.73034e-18
2.73032e-18
2.73031e-18
2.73029e-18
2.73026e-18
2.73023e-18
2.7302e-18
2.73016e-18
2.73012e-18
2.73008e-18
2.73004e-18
2.73e-18
2.72996e-18
2.72992e-18
2.72988e-18
2.72985e-18
2.72983e-18
2.72982e-18
2.72984e-18
2.7299e-18
2.73001e-18
2.73021e-18
2.73055e-18
2.73111e-18
2.73199e-18
2.73332e-18
2.73502e-18
2.73427e-18
1.50781e-17
1.509e-17
1.50866e-17
1.50829e-17
1.50802e-17
1.50784e-17
1.50772e-17
1.50765e-17
1.50761e-17
1.50759e-17
1.50759e-17
1.5076e-17
1.50762e-17
1.50763e-17
1.50766e-17
1.50768e-17
1.5077e-17
1.50773e-17
1.50775e-17
1.50778e-17
1.5078e-17
1.50782e-17
1.50784e-17
1.50785e-17
1.50787e-17
1.50788e-17
1.50789e-17
1.5079e-17
1.5079e-17
1.5079e-17
1.5079e-17
1.5079e-17
1.5079e-17
1.50789e-17
1.50788e-17
1.50787e-17
1.50785e-17
1.50784e-17
1.50782e-17
1.5078e-17
1.50778e-17
1.50775e-17
1.50773e-17
1.5077e-17
1.50768e-17
1.50766e-17
1.50763e-17
1.50762e-17
1.5076e-17
1.50759e-17
1.50759e-17
1.50761e-17
1.50765e-17
1.50772e-17
1.50784e-17
1.50802e-17
1.50829e-17
1.50866e-17
1.509e-17
1.50781e-17
8.60435e-17
8.61568e-17
8.61717e-17
8.61724e-17
8.61694e-17
8.61661e-17
8.61635e-17
8.61618e-17
8.6161e-17
8.61608e-17
8.61612e-17
8.6162e-17
8.6163e-17
8.61643e-17
8.61656e-17
8.61671e-17
8.61685e-17
8.61699e-17
8.61713e-17
8.61727e-17
8.61739e-17
8.61751e-17
8.61761e-17
8.61771e-17
8.61779e-17
8.61786e-17
8.61792e-17
8.61796e-17
8.61799e-17
8.618e-17
8.618e-17
8.61799e-17
8.61796e-17
8.61792e-17
8.61786e-17
8.61779e-17
8.61771e-17
8.61761e-17
8.61751e-17
8.61739e-17
8.61727e-17
8.61713e-17
8.61699e-17
8.61685e-17
8.61671e-17
8.61656e-17
8.61643e-17
8.6163e-17
8.6162e-17
8.61612e-17
8.61608e-17
8.6161e-17
8.61618e-17
8.61635e-17
8.61661e-17
8.61694e-17
8.61724e-17
8.61717e-17
8.61568e-17
8.60435e-17
5.07389e-16
5.08325e-16
5.08618e-16
5.08751e-16
5.08809e-16
5.08832e-16
5.08841e-16
5.08845e-16
5.08849e-16
5.08853e-16
5.08858e-16
5.08864e-16
5.08872e-16
5.0888e-16
5.08889e-16
5.08898e-16
5.08906e-16
5.08915e-16
5.08924e-16
5.08932e-16
5.08939e-16
5.08946e-16
5.08952e-16
5.08958e-16
5.08963e-16
5.08967e-16
5.0897e-16
5.08973e-16
5.08975e-16
5.08975e-16
5.08975e-16
5.08975e-16
5.08973e-16
5.0897e-16
5.08967e-16
5.08963e-16
5.08958e-16
5.08952e-16
5.08946e-16
5.08939e-16
5.08932e-16
5.08924e-16
5.08915e-16
5.08906e-16
5.08898e-16
5.08889e-16
5.0888e-16
5.08872e-16
5.08864e-16
5.08858e-16
5.08853e-16
5.08849e-16
5.08845e-16
5.08841e-16
5.08832e-16
5.08809e-16
5.08751e-16
5.08618e-16
5.08325e-16
5.07389e-16
3.08447e-15
3.09179e-15
3.09483e-15
3.09642e-15
3.09724e-15
3.09765e-15
3.09785e-15
3.09796e-15
3.09803e-15
3.09809e-15
3.09814e-15
3.09819e-15
3.09824e-15
3.0983e-15
3.09835e-15
3.09841e-15
3.09846e-15
3.09852e-15
3.09857e-15
3.09862e-15
3.09867e-15
3.09871e-15
3.09875e-15
3.09878e-15
3.09881e-15
3.09884e-15
3.09886e-15
3.09888e-15
3.09889e-15
3.09889e-15
3.09889e-15
3.09889e-15
3.09888e-15
3.09886e-15
3.09884e-15
3.09881e-15
3.09878e-15
3.09875e-15
3.09871e-15
3.09867e-15
3.09862e-15
3.09857e-15
3.09852e-15
3.09846e-15
3.09841e-15
3.09835e-15
3.0983e-15
3.09824e-15
3.09819e-15
3.09814e-15
3.09809e-15
3.09803e-15
3.09796e-15
3.09785e-15
3.09765e-15
3.09724e-15
3.09642e-15
3.09483e-15
3.09179e-15
3.08447e-15
1.92694e-14
1.93252e-14
1.9352e-14
1.93669e-14
1.93748e-14
1.9379e-14
1.93813e-14
1.93825e-14
1.93833e-14
1.93838e-14
1.93842e-14
1.93846e-14
1.9385e-14
1.93854e-14
1.93857e-14
1.93861e-14
1.93865e-14
1.93868e-14
1.93871e-14
1.93875e-14
1.93878e-14
1.9388e-14
1.93883e-14
1.93885e-14
1.93887e-14
1.93888e-14
1.9389e-14
1.93891e-14
1.93891e-14
1.93892e-14
1.93892e-14
1.93891e-14
1.93891e-14
1.9389e-14
1.93888e-14
1.93887e-14
1.93885e-14
1.93883e-14
1.9388e-14
1.93878e-14
1.93875e-14
1.93871e-14
1.93868e-14
1.93865e-14
1.93861e-14
1.93857e-14
1.93854e-14
1.9385e-14
1.93846e-14
1.93842e-14
1.93838e-14
1.93833e-14
1.93825e-14
1.93813e-14
1.9379e-14
1.93748e-14
1.93669e-14
1.9352e-14
1.93252e-14
1.92694e-14
1.23216e-13
1.23637e-13
1.23858e-13
1.23984e-13
1.24053e-13
1.2409e-13
1.2411e-13
1.24122e-13
1.24129e-13
1.24133e-13
1.24137e-13
1.2414e-13
1.24142e-13
1.24145e-13
1.24147e-13
1.2415e-13
1.24152e-13
1.24155e-13
1.24157e-13
1.24159e-13
1.24161e-13
1.24162e-13
1.24164e-13
1.24165e-13
1.24167e-13
1.24168e-13
1.24169e-13
1.24169e-13
1.2417e-13
1.2417e-13
1.2417e-13
1.2417e-13
1.24169e-13
1.24169e-13
1.24168e-13
1.24167e-13
1.24165e-13
1.24164e-13
1.24162e-13
1.24161e-13
1.24159e-13
1.24157e-13
1.24155e-13
1.24152e-13
1.2415e-13
1.24147e-13
1.24145e-13
1.24142e-13
1.2414e-13
1.24137e-13
1.24133e-13
1.24129e-13
1.24122e-13
1.2411e-13
1.2409e-13
1.24053e-13
1.23984e-13
1.23858e-13
1.23637e-13
1.23216e-13
8.02491e-13
8.05636e-13
8.07392e-13
8.08409e-13
8.08976e-13
8.09286e-13
8.09456e-13
8.09551e-13
8.09608e-13
8.09646e-13
8.09673e-13
8.09695e-13
8.09715e-13
8.09733e-13
8.0975e-13
8.09767e-13
8.09783e-13
8.09798e-13
8.09812e-13
8.09826e-13
8.09839e-13
8.0985e-13
8.0986e-13
8.0987e-13
8.09878e-13
8.09884e-13
8.0989e-13
8.09894e-13
8.09896e-13
8.09898e-13
8.09898e-13
8.09896e-13
8.09894e-13
8.0989e-13
8.09884e-13
8.09878e-13
8.0987e-13
8.0986e-13
8.0985e-13
8.09839e-13
8.09826e-13
8.09812e-13
8.09798e-13
8.09783e-13
8.09767e-13
8.0975e-13
8.09733e-13
8.09715e-13
8.09695e-13
8.09673e-13
8.09646e-13
8.09608e-13
8.09551e-13
8.09456e-13
8.09286e-13
8.08976e-13
8.08409e-13
8.07392e-13
8.05636e-13
8.02491e-13
5.29175e-12
5.31504e-12
5.32863e-12
5.33658e-12
5.34106e-12
5.34353e-12
5.34489e-12
5.34566e-12
5.34612e-12
5.34641e-12
5.34662e-12
5.34679e-12
5.34693e-12
5.34705e-12
5.34717e-12
5.34729e-12
5.34739e-12
5.3475e-12
5.34759e-12
5.34768e-12
5.34777e-12
5.34784e-12
5.34791e-12
5.34797e-12
5.34802e-12
5.34807e-12
5.3481e-12
5.34813e-12
5.34815e-12
5.34816e-12
5.34816e-12
5.34815e-12
5.34813e-12
5.3481e-12
5.34807e-12
5.34802e-12
5.34797e-12
5.34791e-12
5.34784e-12
5.34777e-12
5.34768e-12
5.34759e-12
5.3475e-12
5.34739e-12
5.34729e-12
5.34717e-12
5.34705e-12
5.34693e-12
5.34679e-12
5.34662e-12
5.34641e-12
5.34612e-12
5.34566e-12
5.34489e-12
5.34353e-12
5.34106e-12
5.33658e-12
5.32863e-12
5.31504e-12
5.29175e-12
3.50805e-11
3.52509e-11
3.53535e-11
3.5414e-11
3.54484e-11
3.54674e-11
3.5478e-11
3.54839e-11
3.54875e-11
3.54897e-11
3.54913e-11
3.54925e-11
3.54935e-11
3.54944e-11
3.54952e-11
3.5496e-11
3.54967e-11
3.54974e-11
3.5498e-11
3.54986e-11
3.54992e-11
3.54997e-11
3.55002e-11
3.55006e-11
3.55009e-11
3.55012e-11
3.55014e-11
3.55016e-11
3.55017e-11
3.55018e-11
3.55018e-11
3.55017e-11
3.55016e-11
3.55014e-11
3.55012e-11
3.55009e-11
3.55006e-11
3.55002e-11
3.54997e-11
3.54992e-11
3.54986e-11
3.5498e-11
3.54974e-11
3.54967e-11
3.5496e-11
3.54952e-11
3.54944e-11
3.54935e-11
3.54925e-11
3.54913e-11
3.54897e-11
3.54875e-11
3.54839e-11
3.5478e-11
3.54674e-11
3.54484e-11
3.5414e-11
3.53535e-11
3.52509e-11
3.50805e-11
2.31871e-10
2.33095e-10
2.33849e-10
2.34297e-10
2.34552e-10
2.34694e-10
2.34773e-10
2.34818e-10
2.34845e-10
2.34862e-10
2.34873e-10
2.34882e-10
2.34889e-10
2.34895e-10
2.34901e-10
2.34906e-10
2.34911e-10
2.34915e-10
2.34919e-10
2.34923e-10
2.34927e-10
2.3493e-10
2.34933e-10
2.34936e-10
2.34938e-10
2.3494e-10
2.34942e-10
2.34943e-10
2.34944e-10
2.34944e-10
2.34944e-10
2.34944e-10
2.34943e-10
2.34942e-10
2.3494e-10
2.34938e-10
2.34936e-10
2.34933e-10
2.3493e-10
2.34927e-10
2.34923e-10
2.34919e-10
2.34915e-10
2.34911e-10
2.34906e-10
2.34901e-10
2.34895e-10
2.34889e-10
2.34882e-10
2.34873e-10
2.34862e-10
2.34845e-10
2.34818e-10
2.34773e-10
2.34694e-10
2.34552e-10
2.34297e-10
2.33849e-10
2.33095e-10
2.31871e-10
1.51363e-09
1.52219e-09
1.52756e-09
1.53077e-09
1.53259e-09
1.53362e-09
1.53419e-09
1.53451e-09
1.5347e-09
1.53482e-09
1.53491e-09
1.53497e-09
1.53501e-09
1.53506e-09
1.53509e-09
1.53513e-09
1.53516e-09
1.53519e-09
1.53522e-09
1.53524e-09
1.53527e-09
1.53529e-09
1.53531e-09
1.53532e-09
1.53534e-09
1.53535e-09
1.53536e-09
1.53537e-09
1.53537e-09
1.53538e-09
1.53538e-09
1.53537e-09
1.53537e-09
1.53536e-09
1.53535e-09
1.53534e-09
1.53532e-09
1.53531e-09
1.53529e-09
1.53527e-09
1.53524e-09
1.53522e-09
1.53519e-09
1.53516e-09
1.53513e-09
1.53509e-09
1.53506e-09
1.53501e-09
1.53497e-09
1.53491e-09
1.53482e-09
1.5347e-09
1.53451e-09
1.53419e-09
1.53362e-09
1.53259e-09
1.53077e-09
1.52756e-09
1.52219e-09
1.51363e-09
9.65496e-09
9.71264e-09
9.7493e-09
9.77126e-09
9.78384e-09
9.79088e-09
9.79483e-09
9.79707e-09
9.79839e-09
9.79921e-09
9.79976e-09
9.80017e-09
9.80049e-09
9.80077e-09
9.80101e-09
9.80123e-09
9.80143e-09
9.80162e-09
9.80179e-09
9.80196e-09
9.8021e-09
9.80224e-09
9.80236e-09
9.80247e-09
9.80256e-09
9.80263e-09
9.8027e-09
9.80274e-09
9.80277e-09
9.80279e-09
9.80279e-09
9.80277e-09
9.80274e-09
9.8027e-09
9.80263e-09
9.80256e-09
9.80247e-09
9.80236e-09
9.80224e-09
9.8021e-09
9.80196e-09
9.80179e-09
9.80162e-09
9.80143e-09
9.80123e-09
9.80101e-09
9.80077e-09
9.80049e-09
9.80017e-09
9.79976e-09
9.79921e-09
9.79839e-09
9.79707e-09
9.79483e-09
9.79088e-09
9.78384e-09
9.77126e-09
9.7493e-09
9.71264e-09
9.65496e-09
5.94701e-08
5.98405e-08
6.00783e-08
6.0221e-08
6.03029e-08
6.03489e-08
6.03747e-08
6.03893e-08
6.0398e-08
6.04033e-08
6.04069e-08
6.04095e-08
6.04115e-08
6.04132e-08
6.04147e-08
6.04161e-08
6.04173e-08
6.04185e-08
6.04195e-08
6.04205e-08
6.04214e-08
6.04222e-08
6.04229e-08
6.04236e-08
6.04241e-08
6.04246e-08
6.0425e-08
6.04252e-08
6.04254e-08
6.04255e-08
6.04255e-08
6.04254e-08
6.04252e-08
6.0425e-08
6.04246e-08
6.04241e-08
6.04236e-08
6.04229e-08
6.04222e-08
6.04214e-08
6.04205e-08
6.04195e-08
6.04185e-08
6.04173e-08
6.04161e-08
6.04147e-08
6.04132e-08
6.04115e-08
6.04095e-08
6.04069e-08
6.04033e-08
6.0398e-08
6.03893e-08
6.03747e-08
6.03489e-08
6.03029e-08
6.0221e-08
6.00783e-08
5.98405e-08
5.94701e-08
3.49198e-07
3.51435e-07
3.52881e-07
3.53751e-07
3.5425e-07
3.54531e-07
3.54689e-07
3.54779e-07
3.54831e-07
3.54864e-07
3.54886e-07
3.54901e-07
3.54914e-07
3.54924e-07
3.54932e-07
3.5494e-07
3.54947e-07
3.54954e-07
3.5496e-07
3.54966e-07
3.54971e-07
3.54975e-07
3.54979e-07
3.54983e-07
3.54986e-07
3.54989e-07
3.54991e-07
3.54992e-07
3.54993e-07
3.54994e-07
3.54994e-07
3.54993e-07
3.54992e-07
3.54991e-07
3.54989e-07
3.54986e-07
3.54983e-07
3.54979e-07
3.54975e-07
3.54971e-07
3.54966e-07
3.5496e-07
3.54954e-07
3.54947e-07
3.5494e-07
3.54932e-07
3.54924e-07
3.54914e-07
3.54901e-07
3.54886e-07
3.54864e-07
3.54831e-07
3.54779e-07
3.54689e-07
3.54531e-07
3.5425e-07
3.53751e-07
3.52881e-07
3.51435e-07
3.49198e-07
1.92779e-06
1.94032e-06
1.94845e-06
1.95335e-06
1.95616e-06
1.95775e-06
1.95864e-06
1.95915e-06
1.95944e-06
1.95963e-06
1.95975e-06
1.95984e-06
1.9599e-06
1.95996e-06
1.96001e-06
1.96005e-06
1.96009e-06
1.96012e-06
1.96015e-06
1.96018e-06
1.96021e-06
1.96024e-06
1.96026e-06
1.96028e-06
1.96029e-06
1.96031e-06
1.96032e-06
1.96033e-06
1.96033e-06
1.96033e-06
1.96033e-06
1.96033e-06
1.96033e-06
1.96032e-06
1.96031e-06
1.96029e-06
1.96028e-06
1.96026e-06
1.96024e-06
1.96021e-06
1.96018e-06
1.96015e-06
1.96012e-06
1.96009e-06
1.96005e-06
1.96001e-06
1.95996e-06
1.9599e-06
1.95984e-06
1.95975e-06
1.95963e-06
1.95944e-06
1.95915e-06
1.95864e-06
1.95775e-06
1.95616e-06
1.95335e-06
1.94845e-06
1.94032e-06
1.92779e-06
9.85977e-06
9.92384e-06
9.9655e-06
9.99059e-06
1.0005e-05
1.00132e-05
1.00178e-05
1.00204e-05
1.00219e-05
1.00229e-05
1.00235e-05
1.00239e-05
1.00243e-05
1.00245e-05
1.00248e-05
1.0025e-05
1.00252e-05
1.00253e-05
1.00255e-05
1.00256e-05
1.00258e-05
1.00259e-05
1.0026e-05
1.00261e-05
1.00262e-05
1.00262e-05
1.00263e-05
1.00263e-05
1.00264e-05
1.00264e-05
1.00264e-05
1.00264e-05
1.00263e-05
1.00263e-05
1.00262e-05
1.00262e-05
1.00261e-05
1.0026e-05
1.00259e-05
1.00258e-05
1.00256e-05
1.00255e-05
1.00253e-05
1.00252e-05
1.0025e-05
1.00248e-05
1.00245e-05
1.00243e-05
1.00239e-05
1.00235e-05
1.00229e-05
1.00219e-05
1.00204e-05
1.00178e-05
1.00132e-05
1.0005e-05
9.99059e-06
9.9655e-06
9.92384e-06
9.85977e-06
4.59965e-05
4.62905e-05
4.64816e-05
4.65968e-05
4.66631e-05
4.67006e-05
4.67217e-05
4.67337e-05
4.67408e-05
4.67451e-05
4.67479e-05
4.675e-05
4.67515e-05
4.67527e-05
4.67538e-05
4.67547e-05
4.67555e-05
4.67563e-05
4.6757e-05
4.67576e-05
4.67582e-05
4.67587e-05
4.67592e-05
4.67596e-05
4.67599e-05
4.67602e-05
4.67604e-05
4.67606e-05
4.67607e-05
4.67608e-05
4.67608e-05
4.67607e-05
4.67606e-05
4.67604e-05
4.67602e-05
4.67599e-05
4.67596e-05
4.67592e-05
4.67587e-05
4.67582e-05
4.67576e-05
4.6757e-05
4.67563e-05
4.67555e-05
4.67547e-05
4.67538e-05
4.67527e-05
4.67515e-05
4.675e-05
4.67479e-05
4.67451e-05
4.67408e-05
4.67337e-05
4.67217e-05
4.67006e-05
4.66631e-05
4.65968e-05
4.64816e-05
4.62905e-05
4.59965e-05
0.000192518
0.000193706
0.000194477
0.000194941
0.000195209
0.00019536
0.000195446
0.000195494
0.000195523
0.00019554
0.000195552
0.00019556
0.000195566
0.000195571
0.000195575
0.000195579
0.000195582
0.000195585
0.000195587
0.00019559
0.000195592
0.000195594
0.000195596
0.000195597
0.000195599
0.0001956
0.000195601
0.000195601
0.000195602
0.000195602
0.000195602
0.000195602
0.000195601
0.000195601
0.0001956
0.000195599
0.000195597
0.000195596
0.000195594
0.000195592
0.00019559
0.000195587
0.000195585
0.000195582
0.000195579
0.000195575
0.000195571
0.000195566
0.00019556
0.000195552
0.00019554
0.000195523
0.000195494
0.000195446
0.00019536
0.000195209
0.000194941
0.000194477
0.000193706
0.000192518
0.000710523
0.00071466
0.000717338
0.00071895
0.000719879
0.000720405
0.000720701
0.00072087
0.00072097
0.000721031
0.00072107
0.000721098
0.000721119
0.000721136
0.00072115
0.000721162
0.000721173
0.000721183
0.000721192
0.0007212
0.000721207
0.000721214
0.00072122
0.000721225
0.000721229
0.000721233
0.000721236
0.000721238
0.00072124
0.00072124
0.00072124
0.00072124
0.000721238
0.000721236
0.000721233
0.000721229
0.000721225
0.00072122
0.000721214
0.000721207
0.0007212
0.000721192
0.000721183
0.000721173
0.000721162
0.00072115
0.000721136
0.000721119
0.000721098
0.00072107
0.000721031
0.00072097
0.00072087
0.000720701
0.000720405
0.000719879
0.00071895
0.000717338
0.00071466
0.000710523
0.00227195
0.0022841
0.00229193
0.00229664
0.00229936
0.00230089
0.00230176
0.00230226
0.00230255
0.00230273
0.00230284
0.00230292
0.00230298
0.00230303
0.00230307
0.00230311
0.00230314
0.00230317
0.00230319
0.00230321
0.00230323
0.00230325
0.00230327
0.00230328
0.0023033
0.00230331
0.00230332
0.00230332
0.00230333
0.00230333
0.00230333
0.00230333
0.00230332
0.00230332
0.00230331
0.0023033
0.00230328
0.00230327
0.00230325
0.00230323
0.00230321
0.00230319
0.00230317
0.00230314
0.00230311
0.00230307
0.00230303
0.00230298
0.00230292
0.00230284
0.00230273
0.00230255
0.00230226
0.00230176
0.00230089
0.00229936
0.00229664
0.00229193
0.0022841
0.00227195
0.00619519
0.00622465
0.00624355
0.0062549
0.00626145
0.00626516
0.00626725
0.00626845
0.00626915
0.00626958
0.00626986
0.00627006
0.0062702
0.00627031
0.00627041
0.00627049
0.00627056
0.00627063
0.00627069
0.00627074
0.00627079
0.00627083
0.00627087
0.0062709
0.00627093
0.00627096
0.00627098
0.00627099
0.006271
0.006271
0.006271
0.006271
0.00627099
0.00627098
0.00627096
0.00627093
0.0062709
0.00627087
0.00627083
0.00627079
0.00627074
0.00627069
0.00627063
0.00627056
0.00627049
0.00627041
0.00627031
0.0062702
0.00627006
0.00626986
0.00626958
0.00626915
0.00626845
0.00626725
0.00626516
0.00626145
0.0062549
0.00624355
0.00622465
0.00619519
0.0142645
0.0143228
0.0143599
0.0143822
0.0143951
0.0144024
0.0144065
0.0144089
0.0144103
0.0144111
0.0144117
0.014412
0.0144123
0.0144125
0.0144127
0.0144129
0.014413
0.0144131
0.0144132
0.0144133
0.0144134
0.0144135
0.0144136
0.0144137
0.0144137
0.0144137
0.0144138
0.0144138
0.0144138
0.0144138
0.0144138
0.0144138
0.0144138
0.0144138
0.0144137
0.0144137
0.0144137
0.0144136
0.0144135
0.0144134
0.0144133
0.0144132
0.0144131
0.014413
0.0144129
0.0144127
0.0144125
0.0144123
0.014412
0.0144117
0.0144111
0.0144103
0.0144089
0.0144065
0.0144024
0.0143951
0.0143822
0.0143599
0.0143228
0.0142645
0.0277748
0.0278694
0.0279292
0.0279651
0.0279858
0.0279975
0.0280042
0.028008
0.0280103
0.0280116
0.0280125
0.0280131
0.0280136
0.0280139
0.0280142
0.0280144
0.0280147
0.0280149
0.028015
0.0280152
0.0280153
0.0280155
0.0280156
0.0280157
0.0280157
0.0280158
0.0280159
0.0280159
0.0280159
0.028016
0.028016
0.0280159
0.0280159
0.0280159
0.0280158
0.0280157
0.0280157
0.0280156
0.0280155
0.0280153
0.0280152
0.028015
0.0280149
0.0280147
0.0280144
0.0280142
0.0280139
0.0280136
0.0280131
0.0280125
0.0280116
0.0280103
0.028008
0.0280042
0.0279975
0.0279858
0.0279651
0.0279292
0.0278694
0.0277748
0.0464641
0.0465936
0.046675
0.0467237
0.0467519
0.0467679
0.046777
0.0467822
0.0467853
0.0467872
0.0467884
0.0467892
0.0467898
0.0467903
0.0467907
0.046791
0.0467913
0.0467915
0.0467917
0.046792
0.0467921
0.0467923
0.0467924
0.0467926
0.0467927
0.0467928
0.0467928
0.0467929
0.0467929
0.0467929
0.0467929
0.0467929
0.0467929
0.0467928
0.0467928
0.0467927
0.0467926
0.0467924
0.0467923
0.0467921
0.046792
0.0467917
0.0467915
0.0467913
0.046791
0.0467907
0.0467903
0.0467898
0.0467892
0.0467884
0.0467872
0.0467853
0.0467822
0.046777
0.0467679
0.0467519
0.0467237
0.046675
0.0465936
0.0464641
0.0686337
0.0687909
0.068889
0.0689477
0.0689816
0.069001
0.069012
0.0690183
0.069022
0.0690243
0.0690258
0.0690268
0.0690275
0.069028
0.0690285
0.0690289
0.0690292
0.0690295
0.0690298
0.06903
0.0690302
0.0690304
0.0690306
0.0690307
0.0690308
0.0690309
0.069031
0.0690311
0.0690311
0.0690311
0.0690311
0.0690311
0.0690311
0.069031
0.0690309
0.0690308
0.0690307
0.0690306
0.0690304
0.0690302
0.06903
0.0690298
0.0690295
0.0690292
0.0690289
0.0690285
0.069028
0.0690275
0.0690268
0.0690258
0.0690243
0.069022
0.0690183
0.069012
0.069001
0.0689816
0.0689477
0.068889
0.0687909
0.0686337
0.092361
0.0925385
0.0926486
0.0927145
0.0927528
0.0927746
0.092787
0.0927942
0.0927984
0.092801
0.0928026
0.0928037
0.0928046
0.0928052
0.0928057
0.0928061
0.0928064
0.0928068
0.092807
0.0928073
0.0928075
0.0928077
0.0928079
0.092808
0.0928082
0.0928083
0.0928084
0.0928084
0.0928085
0.0928085
0.0928085
0.0928085
0.0928084
0.0928084
0.0928083
0.0928082
0.092808
0.0928079
0.0928077
0.0928075
0.0928073
0.092807
0.0928068
0.0928064
0.0928061
0.0928057
0.0928052
0.0928046
0.0928037
0.0928026
0.092801
0.0927984
0.0927942
0.092787
0.0927746
0.0927528
0.0927145
0.0926486
0.0925385
0.092361
0.116417
0.116611
0.116731
0.116802
0.116844
0.116868
0.116881
0.116889
0.116894
0.116897
0.116899
0.1169
0.116901
0.116901
0.116902
0.116902
0.116903
0.116903
0.116903
0.116904
0.116904
0.116904
0.116904
0.116904
0.116905
0.116905
0.116905
0.116905
0.116905
0.116905
0.116905
0.116905
0.116905
0.116905
0.116905
0.116905
0.116904
0.116904
0.116904
0.116904
0.116904
0.116903
0.116903
0.116903
0.116902
0.116902
0.116901
0.116901
0.1169
0.116899
0.116897
0.116894
0.116889
0.116881
0.116868
0.116844
0.116802
0.116731
0.116611
0.116417
0.140315
0.140523
0.140651
0.140728
0.140773
0.140799
0.140814
0.140822
0.140827
0.14083
0.140832
0.140834
0.140834
0.140835
0.140836
0.140836
0.140837
0.140837
0.140837
0.140838
0.140838
0.140838
0.140838
0.140838
0.140838
0.140839
0.140839
0.140839
0.140839
0.140839
0.140839
0.140839
0.140839
0.140839
0.140839
0.140838
0.140838
0.140838
0.140838
0.140838
0.140838
0.140837
0.140837
0.140837
0.140836
0.140836
0.140835
0.140834
0.140834
0.140832
0.14083
0.140827
0.140822
0.140814
0.140799
0.140773
0.140728
0.140651
0.140523
0.140315
0.16396
0.164181
0.164318
0.1644
0.164448
0.164476
0.164492
0.164501
0.164507
0.16451
0.164512
0.164513
0.164514
0.164515
0.164516
0.164516
0.164517
0.164517
0.164517
0.164518
0.164518
0.164518
0.164518
0.164518
0.164519
0.164519
0.164519
0.164519
0.164519
0.164519
0.164519
0.164519
0.164519
0.164519
0.164519
0.164519
0.164518
0.164518
0.164518
0.164518
0.164518
0.164517
0.164517
0.164517
0.164516
0.164516
0.164515
0.164514
0.164513
0.164512
0.16451
0.164507
0.164501
0.164492
0.164476
0.164448
0.1644
0.164318
0.164181
0.16396
0.187375
0.18761
0.187755
0.187843
0.187894
0.187924
0.187941
0.187951
0.187957
0.187961
0.187963
0.187964
0.187966
0.187966
0.187967
0.187967
0.187968
0.187968
0.187969
0.187969
0.187969
0.187969
0.18797
0.18797
0.18797
0.18797
0.18797
0.18797
0.18797
0.18797
0.18797
0.18797
0.18797
0.18797
0.18797
0.18797
0.18797
0.18797
0.187969
0.187969
0.187969
0.187969
0.187968
0.187968
0.187967
0.187967
0.187966
0.187966
0.187964
0.187963
0.187961
0.187957
0.187951
0.187941
0.187924
0.187894
0.187843
0.187755
0.18761
0.187375
0.210591
0.210838
0.210991
0.211084
0.211139
0.211171
0.211189
0.2112
0.211207
0.211211
0.211213
0.211215
0.211216
0.211217
0.211217
0.211218
0.211218
0.211219
0.211219
0.211219
0.21122
0.21122
0.21122
0.21122
0.21122
0.211221
0.211221
0.211221
0.211221
0.211221
0.211221
0.211221
0.211221
0.211221
0.211221
0.21122
0.21122
0.21122
0.21122
0.21122
0.211219
0.211219
0.211219
0.211218
0.211218
0.211217
0.211217
0.211216
0.211215
0.211213
0.211211
0.211207
0.2112
0.211189
0.211171
0.211139
0.211084
0.210991
0.210838
0.210591
0.233614
0.233874
0.234035
0.234134
0.234192
0.234226
0.234246
0.234257
0.234264
0.234268
0.234271
0.234273
0.234274
0.234275
0.234276
0.234276
0.234277
0.234277
0.234277
0.234278
0.234278
0.234278
0.234278
0.234279
0.234279
0.234279
0.234279
0.234279
0.234279
0.234279
0.234279
0.234279
0.234279
0.234279
0.234279
0.234279
0.234279
0.234278
0.234278
0.234278
0.234278
0.234277
0.234277
0.234277
0.234276
0.234276
0.234275
0.234274
0.234273
0.234271
0.234268
0.234264
0.234257
0.234246
0.234226
0.234192
0.234134
0.234035
0.233874
0.233614
0.25644
0.25671
0.25688
0.256983
0.257045
0.257081
0.257102
0.257115
0.257122
0.257127
0.25713
0.257132
0.257133
0.257134
0.257135
0.257135
0.257136
0.257136
0.257137
0.257137
0.257137
0.257137
0.257138
0.257138
0.257138
0.257138
0.257138
0.257138
0.257138
0.257138
0.257138
0.257138
0.257138
0.257138
0.257138
0.257138
0.257138
0.257138
0.257137
0.257137
0.257137
0.257137
0.257136
0.257136
0.257135
0.257135
0.257134
0.257133
0.257132
0.25713
0.257127
0.257122
0.257115
0.257102
0.257081
0.257045
0.256983
0.25688
0.25671
0.25644
0.279052
0.279333
0.27951
0.279619
0.279684
0.279722
0.279745
0.279758
0.279766
0.279771
0.279774
0.279776
0.279778
0.279779
0.27978
0.27978
0.279781
0.279781
0.279782
0.279782
0.279782
0.279782
0.279783
0.279783
0.279783
0.279783
0.279783
0.279783
0.279783
0.279783
0.279783
0.279783
0.279783
0.279783
0.279783
0.279783
0.279783
0.279783
0.279782
0.279782
0.279782
0.279782
0.279781
0.279781
0.27978
0.27978
0.279779
0.279778
0.279776
0.279774
0.279771
0.279766
0.279758
0.279745
0.279722
0.279684
0.279619
0.27951
0.279333
0.279052
0.301432
0.301723
0.301907
0.302021
0.30209
0.30213
0.302154
0.302169
0.302177
0.302183
0.302186
0.302188
0.30219
0.302191
0.302191
0.302192
0.302193
0.302193
0.302193
0.302194
0.302194
0.302194
0.302194
0.302195
0.302195
0.302195
0.302195
0.302195
0.302195
0.302195
0.302195
0.302195
0.302195
0.302195
0.302195
0.302195
0.302195
0.302194
0.302194
0.302194
0.302194
0.302193
0.302193
0.302193
0.302192
0.302191
0.302191
0.30219
0.302188
0.302186
0.302183
0.302177
0.302169
0.302154
0.30213
0.30209
0.302021
0.301907
0.301723
0.301432
0.32356
0.32386
0.324051
0.32417
0.324242
0.324285
0.324311
0.324326
0.324335
0.324341
0.324344
0.324347
0.324348
0.324349
0.32435
0.324351
0.324352
0.324352
0.324352
0.324353
0.324353
0.324353
0.324353
0.324354
0.324354
0.324354
0.324354
0.324354
0.324354
0.324354
0.324354
0.324354
0.324354
0.324354
0.324354
0.324354
0.324354
0.324353
0.324353
0.324353
0.324353
0.324352
0.324352
0.324352
0.324351
0.32435
0.324349
0.324348
0.324347
0.324344
0.324341
0.324335
0.324326
0.324311
0.324285
0.324242
0.32417
0.324051
0.32386
0.32356
0.345416
0.345724
0.345922
0.346046
0.346121
0.346167
0.346194
0.34621
0.34622
0.346226
0.34623
0.346232
0.346234
0.346235
0.346236
0.346237
0.346237
0.346238
0.346238
0.346239
0.346239
0.346239
0.346239
0.34624
0.34624
0.34624
0.34624
0.34624
0.34624
0.34624
0.34624
0.34624
0.34624
0.34624
0.34624
0.34624
0.34624
0.346239
0.346239
0.346239
0.346239
0.346238
0.346238
0.346237
0.346237
0.346236
0.346235
0.346234
0.346232
0.34623
0.346226
0.34622
0.34621
0.346194
0.346167
0.346121
0.346046
0.345922
0.345724
0.345416
0.366981
0.367296
0.367501
0.367629
0.367708
0.367756
0.367784
0.367802
0.367812
0.367819
0.367823
0.367826
0.367827
0.367829
0.36783
0.36783
0.367831
0.367831
0.367832
0.367832
0.367832
0.367833
0.367833
0.367833
0.367833
0.367833
0.367833
0.367834
0.367834
0.367834
0.367834
0.367834
0.367834
0.367833
0.367833
0.367833
0.367833
0.367833
0.367833
0.367832
0.367832
0.367832
0.367831
0.367831
0.36783
0.36783
0.367829
0.367827
0.367826
0.367823
0.367819
0.367812
0.367802
0.367784
0.367756
0.367708
0.367629
0.367501
0.367296
0.366981
0.388236
0.388558
0.388768
0.388901
0.388984
0.389034
0.389064
0.389082
0.389094
0.389101
0.389105
0.389108
0.38911
0.389111
0.389112
0.389113
0.389114
0.389114
0.389114
0.389115
0.389115
0.389115
0.389116
0.389116
0.389116
0.389116
0.389116
0.389116
0.389116
0.389116
0.389116
0.389116
0.389116
0.389116
0.389116
0.389116
0.389116
0.389116
0.389115
0.389115
0.389115
0.389114
0.389114
0.389114
0.389113
0.389112
0.389111
0.38911
0.389108
0.389105
0.389101
0.389094
0.389082
0.389064
0.389034
0.388984
0.388901
0.388768
0.388558
0.388236
0.409164
0.409492
0.409708
0.409845
0.409931
0.409983
0.410015
0.410035
0.410047
0.410054
0.410059
0.410062
0.410064
0.410065
0.410066
0.410067
0.410068
0.410068
0.410069
0.410069
0.410069
0.41007
0.41007
0.41007
0.41007
0.41007
0.41007
0.41007
0.41007
0.410071
0.410071
0.41007
0.41007
0.41007
0.41007
0.41007
0.41007
0.41007
0.41007
0.410069
0.410069
0.410069
0.410068
0.410068
0.410067
0.410066
0.410065
0.410064
0.410062
0.410059
0.410054
0.410047
0.410035
0.410015
0.409983
0.409931
0.409845
0.409708
0.409492
0.409164
0.429749
0.430081
0.430302
0.430444
0.430533
0.430588
0.430621
0.430642
0.430655
0.430663
0.430668
0.430671
0.430673
0.430675
0.430676
0.430677
0.430677
0.430678
0.430678
0.430679
0.430679
0.430679
0.430679
0.43068
0.43068
0.43068
0.43068
0.43068
0.43068
0.43068
0.43068
0.43068
0.43068
0.43068
0.43068
0.43068
0.43068
0.430679
0.430679
0.430679
0.430679
0.430678
0.430678
0.430677
0.430677
0.430676
0.430675
0.430673
0.430671
0.430668
0.430663
0.430655
0.430642
0.430621
0.430588
0.430533
0.430444
0.430302
0.430081
0.429749
0.449975
0.450312
0.450537
0.450683
0.450776
0.450833
0.450868
0.45089
0.450903
0.450912
0.450917
0.450921
0.450923
0.450925
0.450926
0.450927
0.450927
0.450928
0.450928
0.450929
0.450929
0.450929
0.450929
0.45093
0.45093
0.45093
0.45093
0.45093
0.45093
0.45093
0.45093
0.45093
0.45093
0.45093
0.45093
0.45093
0.45093
0.450929
0.450929
0.450929
0.450929
0.450928
0.450928
0.450927
0.450927
0.450926
0.450925
0.450923
0.450921
0.450917
0.450912
0.450903
0.45089
0.450868
0.450833
0.450776
0.450683
0.450537
0.450312
0.449975
0.46983