/*--------------------------------*- C++ -*----------------------------------*\
| =========                 |                                                 |
| \\      /  F ield         | foam-extend: Open Source CFD                    |
|  \\    /   O peration     | Version:     4.0                                |
|   \\  /    A nd           | Web:         http://www.foam-extend.org         |
|    \\/     M anipulation  |                                                 |
\*---------------------------------------------------------------------------*/
FoamFile
{
    version     2.0;
    format      ascii;
    class       volVectorField;
    location    "20";
    object      bodyForce;
}
// * * * * * * * * * * * * * * * * * * * * * * * * * * * * * * * * * * * * * //

dimensions      [0 -1 0 0 0 0 0];

internalField   nonuniform List<vector> 
6960
(
(-2.65754e-05 -9.53547e+08 -0)
(-5.15461e-05 -9.53547e+08 -0)
(-3.86693e-05 -9.53547e+08 -0)
(-1.96567e-05 -9.53547e+08 -0)
(-9.22866e-06 -9.53547e+08 -0)
(-5.08909e-06 -9.53547e+08 -0)
(-2.94573e-06 -9.53547e+08 -0)
(-1.79076e-06 -9.53547e+08 -0)
(-1.0689e-06 -9.53547e+08 -0)
(-6.19131e-07 -9.53547e+08 -0)
(-3.02625e-07 -9.53547e+08 -0)
(-7.77384e-08 -9.53547e+08 -0)
(9.16203e-08 -9.53547e+08 -0)
(2.11004e-07 -9.53547e+08 -0)
(2.91519e-07 -9.53547e+08 -0)
(3.60928e-07 -9.53547e+08 -0)
(3.99798e-07 -9.53547e+08 -0)
(4.24785e-07 -9.53547e+08 -0)
(4.33114e-07 -9.53547e+08 -0)
(4.4422e-07 -9.53547e+08 -0)
(4.30338e-07 -9.53547e+08 -0)
(4.13679e-07 -9.53547e+08 -0)
(3.91469e-07 -9.53547e+08 -0)
(3.52599e-07 -9.53547e+08 -0)
(2.94295e-07 -9.53547e+08 -0)
(2.47097e-07 -9.53547e+08 -0)
(2.05452e-07 -9.53547e+08 -0)
(1.38819e-07 -9.53547e+08 -0)
(7.49621e-08 -9.53547e+08 -0)
(2.49874e-08 -9.53547e+08 -0)
(-2.49874e-08 -9.53547e+08 -0)
(-8.60675e-08 -9.53547e+08 -0)
(-1.55477e-07 -9.53547e+08 -0)
(-1.9157e-07 -9.53547e+08 -0)
(-2.44321e-07 -9.53547e+08 -0)
(-2.99848e-07 -9.53547e+08 -0)
(-3.4427e-07 -9.53547e+08 -0)
(-3.85916e-07 -9.53547e+08 -0)
(-4.13679e-07 -9.53547e+08 -0)
(-4.24785e-07 -9.53547e+08 -0)
(-4.4422e-07 -9.53547e+08 -0)
(-4.30338e-07 -9.53547e+08 -0)
(-4.16456e-07 -9.53547e+08 -0)
(-4.10903e-07 -9.53547e+08 -0)
(-3.72034e-07 -9.53547e+08 -0)
(-3.02625e-07 -9.53547e+08 -0)
(-2.05452e-07 -9.53547e+08 -0)
(-8.60675e-08 -9.53547e+08 -0)
(6.94093e-08 -9.53547e+08 -0)
(2.94295e-07 -9.53547e+08 -0)
(6.16355e-07 -9.53547e+08 -0)
(1.08279e-06 -9.53547e+08 -0)
(1.79909e-06 -9.53547e+08 -0)
(2.94573e-06 -9.53547e+08 -0)
(5.08354e-06 -9.53547e+08 -0)
(9.22311e-06 -9.53547e+08 -0)
(1.96623e-05 -9.53547e+08 -0)
(3.86887e-05 -9.53547e+08 -0)
(5.15517e-05 -9.53547e+08 -0)
(2.65643e-05 -9.53547e+08 -0)
(-6.52575e-05 -1.9982e+08 -0)
(-0.000127022 -1.9982e+08 -0)
(-9.58762e-05 -1.9982e+08 -0)
(-4.89507e-05 -1.9982e+08 -0)
(-2.29779e-05 -1.9982e+08 -0)
(-1.26559e-05 -1.9982e+08 -0)
(-7.3254e-06 -1.9982e+08 -0)
(-4.46806e-06 -1.9982e+08 -0)
(-2.66439e-06 -1.9982e+08 -0)
(-1.54193e-06 -1.9982e+08 -0)
(-7.56701e-07 -1.9982e+08 -0)
(-1.9295e-07 -1.9982e+08 -0)
(2.19796e-07 -1.9982e+08 -0)
(5.15094e-07 -1.9982e+08 -0)
(7.29856e-07 -1.9982e+08 -0)
(8.8925e-07 -1.9982e+08 -0)
(1.00334e-06 -1.9982e+08 -0)
(1.05871e-06 -1.9982e+08 -0)
(1.08052e-06 -1.9982e+08 -0)
(1.10233e-06 -1.9982e+08 -0)
(1.07884e-06 -1.9982e+08 -0)
(1.01341e-06 -1.9982e+08 -0)
(9.6643e-07 -1.9982e+08 -0)
(8.67438e-07 -1.9982e+08 -0)
(7.33212e-07 -1.9982e+08 -0)
(6.22475e-07 -1.9982e+08 -0)
(5.06705e-07 -1.9982e+08 -0)
(3.54022e-07 -1.9982e+08 -0)
(1.9295e-07 -1.9982e+08 -0)
(5.8724e-08 -1.9982e+08 -0)
(-6.37575e-08 -1.9982e+08 -0)
(-2.21474e-07 -1.9982e+08 -0)
(-3.708e-07 -1.9982e+08 -0)
(-4.79859e-07 -1.9982e+08 -0)
(-6.05697e-07 -1.9982e+08 -0)
(-7.44956e-07 -1.9982e+08 -0)
(-8.59049e-07 -1.9982e+08 -0)
(-9.56363e-07 -1.9982e+08 -0)
(-1.0218e-06 -1.9982e+08 -0)
(-1.06878e-06 -1.9982e+08 -0)
(-1.0973e-06 -1.9982e+08 -0)
(-1.06542e-06 -1.9982e+08 -0)
(-1.04864e-06 -1.9982e+08 -0)
(-1.01844e-06 -1.9982e+08 -0)
(-9.07706e-07 -1.9982e+08 -0)
(-7.58379e-07 -1.9982e+08 -0)
(-5.21805e-07 -1.9982e+08 -0)
(-2.1644e-07 -1.9982e+08 -0)
(1.82883e-07 -1.9982e+08 -0)
(7.31534e-07 -1.9982e+08 -0)
(1.54193e-06 -1.9982e+08 -0)
(2.69627e-06 -1.9982e+08 -0)
(4.47309e-06 -1.9982e+08 -0)
(7.33547e-06 -1.9982e+08 -0)
(1.26575e-05 -1.9982e+08 -0)
(2.29678e-05 -1.9982e+08 -0)
(4.89624e-05 -1.9982e+08 -0)
(9.59047e-05 -1.9982e+08 -0)
(0.000127037 -1.9982e+08 -0)
(6.52592e-05 -1.9982e+08 -0)
(-6.29101e-05 -7.12459e+07 -0)
(-0.000124684 -7.12459e+07 -0)
(-9.53692e-05 -7.12459e+07 -0)
(-4.82968e-05 -7.12459e+07 -0)
(-2.27603e-05 -7.12459e+07 -0)
(-1.25395e-05 -7.12459e+07 -0)
(-7.26118e-06 -7.12459e+07 -0)
(-4.43171e-06 -7.12459e+07 -0)
(-2.64195e-06 -7.12459e+07 -0)
(-1.52808e-06 -7.12459e+07 -0)
(-7.52845e-07 -7.12459e+07 -0)
(-1.9171e-07 -7.12459e+07 -0)
(2.18297e-07 -7.12459e+07 -0)
(5.10759e-07 -7.12459e+07 -0)
(7.2206e-07 -7.12459e+07 -0)
(8.80185e-07 -7.12459e+07 -0)
(9.93532e-07 -7.12459e+07 -0)
(1.04811e-06 -7.12459e+07 -0)
(1.0691e-06 -7.12459e+07 -0)
(1.08869e-06 -7.12459e+07 -0)
(1.0677e-06 -7.12459e+07 -0)
(1.00752e-06 -7.12459e+07 -0)
(9.57149e-07 -7.12459e+07 -0)
(8.53598e-07 -7.12459e+07 -0)
(7.27657e-07 -7.12459e+07 -0)
(6.19908e-07 -7.12459e+07 -0)
(5.00964e-07 -7.12459e+07 -0)
(3.47036e-07 -7.12459e+07 -0)
(1.9031e-07 -7.12459e+07 -0)
(5.87723e-08 -7.12459e+07 -0)
(-6.43697e-08 -7.12459e+07 -0)
(-2.21096e-07 -7.12459e+07 -0)
(-3.62429e-07 -7.12459e+07 -0)
(-4.70178e-07 -7.12459e+07 -0)
(-6.07314e-07 -7.12459e+07 -0)
(-7.37452e-07 -7.12459e+07 -0)
(-8.494e-07 -7.12459e+07 -0)
(-9.45954e-07 -7.12459e+07 -0)
(-1.01452e-06 -7.12459e+07 -0)
(-1.0593e-06 -7.12459e+07 -0)
(-1.08309e-06 -7.12459e+07 -0)
(-1.0551e-06 -7.12459e+07 -0)
(-1.03831e-06 -7.12459e+07 -0)
(-1.00333e-06 -7.12459e+07 -0)
(-8.96977e-07 -7.12459e+07 -0)
(-7.52845e-07 -7.12459e+07 -0)
(-5.16357e-07 -7.12459e+07 -0)
(-2.113e-07 -7.12459e+07 -0)
(1.81914e-07 -7.12459e+07 -0)
(7.19261e-07 -7.12459e+07 -0)
(1.53088e-06 -7.12459e+07 -0)
(2.67834e-06 -7.12459e+07 -0)
(4.43311e-06 -7.12459e+07 -0)
(7.26817e-06 -7.12459e+07 -0)
(1.25381e-05 -7.12459e+07 -0)
(2.27519e-05 -7.12459e+07 -0)
(4.83122e-05 -7.12459e+07 -0)
(9.53986e-05 -7.12459e+07 -0)
(0.000124697 -7.12459e+07 -0)
(6.29101e-05 -7.12459e+07 -0)
(-5.51711e-05 -3.37297e+07 -0)
(-0.000109829 -3.37297e+07 -0)
(-8.42131e-05 -3.37297e+07 -0)
(-4.25594e-05 -3.37297e+07 -0)
(-2.01376e-05 -3.37297e+07 -0)
(-1.10966e-05 -3.37297e+07 -0)
(-6.42798e-06 -3.37297e+07 -0)
(-3.92386e-06 -3.37297e+07 -0)
(-2.34036e-06 -3.37297e+07 -0)
(-1.35281e-06 -3.37297e+07 -0)
(-6.68572e-07 -3.37297e+07 -0)
(-1.71593e-07 -3.37297e+07 -0)
(1.91529e-07 -3.37297e+07 -0)
(4.50699e-07 -3.37297e+07 -0)
(6.36532e-07 -3.37297e+07 -0)
(7.78933e-07 -3.37297e+07 -0)
(8.80038e-07 -3.37297e+07 -0)
(9.24182e-07 -3.37297e+07 -0)
(9.46254e-07 -3.37297e+07 -0)
(9.63342e-07 -3.37297e+07 -0)
(9.42694e-07 -3.37297e+07 -0)
(8.92142e-07 -3.37297e+07 -0)
(8.4515e-07 -3.37297e+07 -0)
(7.54725e-07 -3.37297e+07 -0)
(6.465e-07 -3.37297e+07 -0)
(5.47532e-07 -3.37297e+07 -0)
(4.40731e-07 -3.37297e+07 -0)
(3.0901e-07 -3.37297e+07 -0)
(1.68033e-07 -3.37297e+07 -0)
(5.34003e-08 -3.37297e+07 -0)
(-5.69604e-08 -3.37297e+07 -0)
(-1.95801e-07 -3.37297e+07 -0)
(-3.21826e-07 -3.37297e+07 -0)
(-4.17235e-07 -3.37297e+07 -0)
(-5.36852e-07 -3.37297e+07 -0)
(-6.52908e-07 -3.37297e+07 -0)
(-7.47605e-07 -3.37297e+07 -0)
(-8.35893e-07 -3.37297e+07 -0)
(-8.99974e-07 -3.37297e+07 -0)
(-9.38422e-07 -3.37297e+07 -0)
(-9.5907e-07 -3.37297e+07 -0)
(-9.33438e-07 -3.37297e+07 -0)
(-9.14926e-07 -3.37297e+07 -0)
(-8.87158e-07 -3.37297e+07 -0)
(-7.91037e-07 -3.37297e+07 -0)
(-6.62876e-07 -3.37297e+07 -0)
(-4.57819e-07 -3.37297e+07 -0)
(-1.88681e-07 -3.37297e+07 -0)
(1.61625e-07 -3.37297e+07 -0)
(6.38668e-07 -3.37297e+07 -0)
(1.3585e-06 -3.37297e+07 -0)
(2.3724e-06 -3.37297e+07 -0)
(3.92457e-06 -3.37297e+07 -0)
(6.43367e-06 -3.37297e+07 -0)
(1.10952e-05 -3.37297e+07 -0)
(2.01305e-05 -3.37297e+07 -0)
(4.25729e-05 -3.37297e+07 -0)
(8.42408e-05 -3.37297e+07 -0)
(0.00010984 -3.37297e+07 -0)
(5.51704e-05 -3.37297e+07 -0)
(-5.04711e-05 -2.00323e+07 -0)
(-0.000100387 -2.00323e+07 -0)
(-7.68555e-05 -2.00323e+07 -0)
(-3.88606e-05 -2.00323e+07 -0)
(-1.84591e-05 -2.00323e+07 -0)
(-1.01732e-05 -2.00323e+07 -0)
(-5.8989e-06 -2.00323e+07 -0)
(-3.60114e-06 -2.00323e+07 -0)
(-2.1472e-06 -2.00323e+07 -0)
(-1.24385e-06 -2.00323e+07 -0)
(-6.15362e-07 -2.00323e+07 -0)
(-1.60187e-07 -2.00323e+07 -0)
(1.75068e-07 -2.00323e+07 -0)
(4.13159e-07 -2.00323e+07 -0)
(5.82975e-07 -2.00323e+07 -0)
(7.12525e-07 -2.00323e+07 -0)
(8.06186e-07 -2.00323e+07 -0)
(8.48202e-07 -2.00323e+07 -0)
(8.66584e-07 -2.00323e+07 -0)
(8.84091e-07 -2.00323e+07 -0)
(8.63083e-07 -2.00323e+07 -0)
(8.17565e-07 -2.00323e+07 -0)
(7.74674e-07 -2.00323e+07 -0)
(6.89766e-07 -2.00323e+07 -0)
(5.93479e-07 -2.00323e+07 -0)
(5.02444e-07 -2.00323e+07 -0)
(4.04406e-07 -2.00323e+07 -0)
(2.83609e-07 -2.00323e+07 -0)
(1.54935e-07 -2.00323e+07 -0)
(4.90189e-08 -2.00323e+07 -0)
(-5.33956e-08 -2.00323e+07 -0)
(-1.78569e-07 -2.00323e+07 -0)
(-2.94113e-07 -2.00323e+07 -0)
(-3.84273e-07 -2.00323e+07 -0)
(-4.92815e-07 -2.00323e+07 -0)
(-5.97856e-07 -2.00323e+07 -0)
(-6.85389e-07 -2.00323e+07 -0)
(-7.67671e-07 -2.00323e+07 -0)
(-8.22817e-07 -2.00323e+07 -0)
(-8.57831e-07 -2.00323e+07 -0)
(-8.79714e-07 -2.00323e+07 -0)
(-8.5608e-07 -2.00323e+07 -0)
(-8.37698e-07 -2.00323e+07 -0)
(-8.13189e-07 -2.00323e+07 -0)
(-7.25655e-07 -2.00323e+07 -0)
(-6.06609e-07 -2.00323e+07 -0)
(-4.17536e-07 -2.00323e+07 -0)
(-1.72441e-07 -2.00323e+07 -0)
(1.50558e-07 -2.00323e+07 -0)
(5.86476e-07 -2.00323e+07 -0)
(1.24648e-06 -2.00323e+07 -0)
(2.17609e-06 -2.00323e+07 -0)
(3.60289e-06 -2.00323e+07 -0)
(5.90328e-06 -2.00323e+07 -0)
(1.01758e-05 -2.00323e+07 -0)
(1.84521e-05 -2.00323e+07 -0)
(3.88694e-05 -2.00323e+07 -0)
(7.688e-05 -2.00323e+07 -0)
(0.000100398 -2.00323e+07 -0)
(5.04702e-05 -2.00323e+07 -0)
(-5.04396e-05 -1.44818e+07 -0)
(-0.00010013 -1.44818e+07 -0)
(-7.64886e-05 -1.44818e+07 -0)
(-3.8724e-05 -1.44818e+07 -0)
(-1.84664e-05 -1.44818e+07 -0)
(-1.01829e-05 -1.44818e+07 -0)
(-5.90743e-06 -1.44818e+07 -0)
(-3.60605e-06 -1.44818e+07 -0)
(-2.15062e-06 -1.44818e+07 -0)
(-1.24862e-06 -1.44818e+07 -0)
(-6.18511e-07 -1.44818e+07 -0)
(-1.60426e-07 -1.44818e+07 -0)
(1.73312e-07 -1.44818e+07 -0)
(4.11052e-07 -1.44818e+07 -0)
(5.83076e-07 -1.44818e+07 -0)
(7.10644e-07 -1.44818e+07 -0)
(8.05353e-07 -1.44818e+07 -0)
(8.49165e-07 -1.44818e+07 -0)
(8.68493e-07 -1.44818e+07 -0)
(8.846e-07 -1.44818e+07 -0)
(8.63339e-07 -1.44818e+07 -0)
(8.18239e-07 -1.44818e+07 -0)
(7.75072e-07 -1.44818e+07 -0)
(6.88094e-07 -1.44818e+07 -0)
(5.9274e-07 -1.44818e+07 -0)
(5.04473e-07 -1.44818e+07 -0)
(4.03965e-07 -1.44818e+07 -0)
(2.83484e-07 -1.44818e+07 -0)
(1.55916e-07 -1.44818e+07 -0)
(4.96098e-08 -1.44818e+07 -0)
(-5.34755e-08 -1.44818e+07 -0)
(-1.78466e-07 -1.44818e+07 -0)
(-2.94437e-07 -1.44818e+07 -0)
(-3.84637e-07 -1.44818e+07 -0)
(-4.90943e-07 -1.44818e+07 -0)
(-5.98539e-07 -1.44818e+07 -0)
(-6.86161e-07 -1.44818e+07 -0)
(-7.67341e-07 -1.44818e+07 -0)
(-8.24038e-07 -1.44818e+07 -0)
(-8.59473e-07 -1.44818e+07 -0)
(-8.78802e-07 -1.44818e+07 -0)
(-8.54963e-07 -1.44818e+07 -0)
(-8.40145e-07 -1.44818e+07 -0)
(-8.13729e-07 -1.44818e+07 -0)
(-7.23529e-07 -1.44818e+07 -0)
(-6.07559e-07 -1.44818e+07 -0)
(-4.16851e-07 -1.44818e+07 -0)
(-1.69446e-07 -1.44818e+07 -0)
(1.51406e-07 -1.44818e+07 -0)
(5.8823e-07 -1.44818e+07 -0)
(1.25055e-06 -1.44818e+07 -0)
(2.18025e-06 -1.44818e+07 -0)
(3.60863e-06 -1.44818e+07 -0)
(5.91194e-06 -1.44818e+07 -0)
(1.01842e-05 -1.44818e+07 -0)
(1.84606e-05 -1.44818e+07 -0)
(3.87362e-05 -1.44818e+07 -0)
(7.65099e-05 -1.44818e+07 -0)
(0.00010014 -1.44818e+07 -0)
(5.04415e-05 -1.44818e+07 -0)
(-5.44043e-05 -1.211e+07 -0)
(-0.000107799 -1.211e+07 -0)
(-8.21976e-05 -1.211e+07 -0)
(-4.16862e-05 -1.211e+07 -0)
(-1.9954e-05 -1.211e+07 -0)
(-1.10095e-05 -1.211e+07 -0)
(-6.39309e-06 -1.211e+07 -0)
(-3.90226e-06 -1.211e+07 -0)
(-2.32838e-06 -1.211e+07 -0)
(-1.35309e-06 -1.211e+07 -0)
(-6.72183e-07 -1.211e+07 -0)
(-1.75542e-07 -1.211e+07 -0)
(1.859e-07 -1.211e+07 -0)
(4.43215e-07 -1.211e+07 -0)
(6.28025e-07 -1.211e+07 -0)
(7.68676e-07 -1.211e+07 -0)
(8.71166e-07 -1.211e+07 -0)
(9.14779e-07 -1.211e+07 -0)
(9.38221e-07 -1.211e+07 -0)
(9.56756e-07 -1.211e+07 -0)
(9.32224e-07 -1.211e+07 -0)
(8.84795e-07 -1.211e+07 -0)
(8.37911e-07 -1.211e+07 -0)
(7.44144e-07 -1.211e+07 -0)
(6.39473e-07 -1.211e+07 -0)
(5.45705e-07 -1.211e+07 -0)
(4.36128e-07 -1.211e+07 -0)
(3.06925e-07 -1.211e+07 -0)
(1.69545e-07 -1.211e+07 -0)
(5.39709e-08 -1.211e+07 -0)
(-5.61515e-08 -1.211e+07 -0)
(-1.92987e-07 -1.211e+07 -0)
(-3.18919e-07 -1.211e+07 -0)
(-4.15957e-07 -1.211e+07 -0)
(-5.32076e-07 -1.211e+07 -0)
(-6.4656e-07 -1.211e+07 -0)
(-7.41418e-07 -1.211e+07 -0)
(-8.28643e-07 -1.211e+07 -0)
(-8.91882e-07 -1.211e+07 -0)
(-9.27318e-07 -1.211e+07 -0)
(-9.50214e-07 -1.211e+07 -0)
(-9.26227e-07 -1.211e+07 -0)
(-9.06056e-07 -1.211e+07 -0)
(-8.77708e-07 -1.211e+07 -0)
(-7.83395e-07 -1.211e+07 -0)
(-6.54737e-07 -1.211e+07 -0)
(-4.50302e-07 -1.211e+07 -0)
(-1.81538e-07 -1.211e+07 -0)
(1.66274e-07 -1.211e+07 -0)
(6.37292e-07 -1.211e+07 -0)
(1.35472e-06 -1.211e+07 -0)
(2.36218e-06 -1.211e+07 -0)
(3.90553e-06 -1.211e+07 -0)
(6.39527e-06 -1.211e+07 -0)
(1.10128e-05 -1.211e+07 -0)
(1.99496e-05 -1.211e+07 -0)
(4.16988e-05 -1.211e+07 -0)
(8.22211e-05 -1.211e+07 -0)
(0.000107811 -1.211e+07 -0)
(5.44059e-05 -1.211e+07 -0)
(-6.11002e-05 -1.10555e+07 -0)
(-0.000120893 -1.10555e+07 -0)
(-9.20686e-05 -1.10555e+07 -0)
(-4.67879e-05 -1.10555e+07 -0)
(-2.24819e-05 -1.10555e+07 -0)
(-1.24131e-05 -1.10555e+07 -0)
(-7.21173e-06 -1.10555e+07 -0)
(-4.40552e-06 -1.10555e+07 -0)
(-2.62963e-06 -1.10555e+07 -0)
(-1.53039e-06 -1.10555e+07 -0)
(-7.61671e-07 -1.10555e+07 -0)
(-2.00228e-07 -1.10555e+07 -0)
(2.08277e-07 -1.10555e+07 -0)
(4.98558e-07 -1.10555e+07 -0)
(7.05829e-07 -1.10555e+07 -0)
(8.63798e-07 -1.10555e+07 -0)
(9.81519e-07 -1.10555e+07 -0)
(1.03132e-06 -1.10555e+07 -0)
(1.05749e-06 -1.10555e+07 -0)
(1.07912e-06 -1.10555e+07 -0)
(1.05095e-06 -1.10555e+07 -0)
(9.946e-07 -1.10555e+07 -0)
(9.42782e-07 -1.10555e+07 -0)
(8.38643e-07 -1.10555e+07 -0)
(7.2394e-07 -1.10555e+07 -0)
(6.1477e-07 -1.10555e+07 -0)
(4.92521e-07 -1.10555e+07 -0)
(3.4411e-07 -1.10555e+07 -0)
(1.91676e-07 -1.10555e+07 -0)
(6.08733e-08 -1.10555e+07 -0)
(-6.33888e-08 -1.10555e+07 -0)
(-2.1683e-07 -1.10555e+07 -0)
(-3.59203e-07 -1.10555e+07 -0)
(-4.68372e-07 -1.10555e+07 -0)
(-6.00181e-07 -1.10555e+07 -0)
(-7.28468e-07 -1.10555e+07 -0)
(-8.35122e-07 -1.10555e+07 -0)
(-9.35236e-07 -1.10555e+07 -0)
(-1.00416e-06 -1.10555e+07 -0)
(-1.0434e-06 -1.10555e+07 -0)
(-1.07157e-06 -1.10555e+07 -0)
(-1.04642e-06 -1.10555e+07 -0)
(-1.02026e-06 -1.10555e+07 -0)
(-9.88563e-07 -1.10555e+07 -0)
(-8.81909e-07 -1.10555e+07 -0)
(-7.36517e-07 -1.10555e+07 -0)
(-5.05601e-07 -1.10555e+07 -0)
(-2.02743e-07 -1.10555e+07 -0)
(1.90669e-07 -1.10555e+07 -0)
(7.22431e-07 -1.10555e+07 -0)
(1.52938e-06 -1.10555e+07 -0)
(2.66686e-06 -1.10555e+07 -0)
(4.40904e-06 -1.10555e+07 -0)
(7.21475e-06 -1.10555e+07 -0)
(1.24161e-05 -1.10555e+07 -0)
(2.24779e-05 -1.10555e+07 -0)
(4.68035e-05 -1.10555e+07 -0)
(9.20923e-05 -1.10555e+07 -0)
(0.000120906 -1.10555e+07 -0)
(6.11047e-05 -1.10555e+07 -0)
(-6.93688e-05 -1.05564e+07 -0)
(-0.0001371 -1.05564e+07 -0)
(-0.000104339 -1.05564e+07 -0)
(-5.31544e-05 -1.05564e+07 -0)
(-2.56413e-05 -1.05564e+07 -0)
(-1.41684e-05 -1.05564e+07 -0)
(-8.23852e-06 -1.05564e+07 -0)
(-5.03671e-06 -1.05564e+07 -0)
(-3.00918e-06 -1.05564e+07 -0)
(-1.75074e-06 -1.05564e+07 -0)
(-8.71719e-07 -1.05564e+07 -0)
(-2.33983e-07 -1.05564e+07 -0)
(2.33496e-07 -1.05564e+07 -0)
(5.66228e-07 -1.05564e+07 -0)
(8.03616e-07 -1.05564e+07 -0)
(9.87008e-07 -1.05564e+07 -0)
(1.11738e-06 -1.05564e+07 -0)
(1.17575e-06 -1.05564e+07 -0)
(1.20688e-06 -1.05564e+07 -0)
(1.22975e-06 -1.05564e+07 -0)
(1.20056e-06 -1.05564e+07 -0)
(1.13538e-06 -1.05564e+07 -0)
(1.07457e-06 -1.05564e+07 -0)
(9.5928e-07 -1.05564e+07 -0)
(8.25506e-07 -1.05564e+07 -0)
(7.00489e-07 -1.05564e+07 -0)
(5.60877e-07 -1.05564e+07 -0)
(3.94025e-07 -1.05564e+07 -0)
(2.18903e-07 -1.05564e+07 -0)
(7.15082e-08 -1.05564e+07 -0)
(-7.15082e-08 -1.05564e+07 -0)
(-2.47117e-07 -1.05564e+07 -0)
(-4.11051e-07 -1.05564e+07 -0)
(-5.35095e-07 -1.05564e+07 -0)
(-6.83463e-07 -1.05564e+07 -0)
(-8.3183e-07 -1.05564e+07 -0)
(-9.54416e-07 -1.05564e+07 -0)
(-1.06922e-06 -1.05564e+07 -0)
(-1.14364e-06 -1.05564e+07 -0)
(-1.18888e-06 -1.05564e+07 -0)
(-1.22488e-06 -1.05564e+07 -0)
(-1.19229e-06 -1.05564e+07 -0)
(-1.1631e-06 -1.05564e+07 -0)
(-1.12613e-06 -1.05564e+07 -0)
(-1.00647e-06 -1.05564e+07 -0)
(-8.39613e-07 -1.05564e+07 -0)
(-5.76444e-07 -1.05564e+07 -0)
(-2.28632e-07 -1.05564e+07 -0)
(2.20848e-07 -1.05564e+07 -0)
(8.28425e-07 -1.05564e+07 -0)
(1.75171e-06 -1.05564e+07 -0)
(3.05053e-06 -1.05564e+07 -0)
(5.03768e-06 -1.05564e+07 -0)
(8.24242e-06 -1.05564e+07 -0)
(1.41742e-05 -1.05564e+07 -0)
(2.56389e-05 -1.05564e+07 -0)
(5.31715e-05 -1.05564e+07 -0)
(0.000104365 -1.05564e+07 -0)
(0.000137116 -1.05564e+07 -0)
(6.93732e-05 -1.05564e+07 -0)
(-7.82975e-05 -1.02843e+07 -0)
(-0.000154626 -1.02843e+07 -0)
(-0.000117656 -1.02843e+07 -0)
(-6.01124e-05 -1.02843e+07 -0)
(-2.9117e-05 -1.02843e+07 -0)
(-1.61065e-05 -1.02843e+07 -0)
(-9.37625e-06 -1.02843e+07 -0)
(-5.73517e-06 -1.02843e+07 -0)
(-3.42916e-06 -1.02843e+07 -0)
(-1.99585e-06 -1.02843e+07 -0)
(-9.95997e-07 -1.02843e+07 -0)
(-2.70672e-07 -1.02843e+07 -0)
(2.62003e-07 -1.02843e+07 -0)
(6.39596e-07 -1.02843e+07 -0)
(9.10268e-07 -1.02843e+07 -0)
(1.12122e-06 -1.02843e+07 -0)
(1.26956e-06 -1.02843e+07 -0)
(1.3341e-06 -1.02843e+07 -0)
(1.36877e-06 -1.02843e+07 -0)
(1.39767e-06 -1.02843e+07 -0)
(1.36781e-06 -1.02843e+07 -0)
(1.29171e-06 -1.02843e+07 -0)
(1.21947e-06 -1.02843e+07 -0)
(1.08654e-06 -1.02843e+07 -0)
(9.40129e-07 -1.02843e+07 -0)
(7.95642e-07 -1.02843e+07 -0)
(6.35743e-07 -1.02843e+07 -0)
(4.508e-07 -1.02843e+07 -0)
(2.49481e-07 -1.02843e+07 -0)
(8.09127e-08 -1.02843e+07 -0)
(-8.28392e-08 -1.02843e+07 -0)
(-2.80305e-07 -1.02843e+07 -0)
(-4.66211e-07 -1.02843e+07 -0)
(-6.08772e-07 -1.02843e+07 -0)
(-7.7734e-07 -1.02843e+07 -0)
(-9.44945e-07 -1.02843e+07 -0)
(-1.08558e-06 -1.02843e+07 -0)
(-1.21369e-06 -1.02843e+07 -0)
(-1.29942e-06 -1.02843e+07 -0)
(-1.35047e-06 -1.02843e+07 -0)
(-1.39189e-06 -1.02843e+07 -0)
(-1.35721e-06 -1.02843e+07 -0)
(-1.32157e-06 -1.02843e+07 -0)
(-1.2763e-06 -1.02843e+07 -0)
(-1.14241e-06 -1.02843e+07 -0)
(-9.53614e-07 -1.02843e+07 -0)
(-6.53081e-07 -1.02843e+07 -0)
(-2.57187e-07 -1.02843e+07 -0)
(2.56224e-07 -1.02843e+07 -0)
(9.48798e-07 -1.02843e+07 -0)
(1.99874e-06 -1.02843e+07 -0)
(3.47539e-06 -1.02843e+07 -0)
(5.73421e-06 -1.02843e+07 -0)
(9.37914e-06 -1.02843e+07 -0)
(1.6117e-05 -1.02843e+07 -0)
(2.91161e-05 -1.02843e+07 -0)
(6.01307e-05 -1.02843e+07 -0)
(0.000117684 -1.02843e+07 -0)
(0.000154645 -1.02843e+07 -0)
(7.83062e-05 -1.02843e+07 -0)
(-8.71735e-05 -1.00892e+07 -0)
(-0.000172055 -1.00892e+07 -0)
(-0.000130949 -1.00892e+07 -0)
(-6.71338e-05 -1.00892e+07 -0)
(-3.26659e-05 -1.00892e+07 -0)
(-1.80987e-05 -1.00892e+07 -0)
(-1.05483e-05 -1.00892e+07 -0)
(-6.45694e-06 -1.00892e+07 -0)
(-3.86548e-06 -1.00892e+07 -0)
(-2.24979e-06 -1.00892e+07 -0)
(-1.12731e-06 -1.00892e+07 -0)
(-3.09817e-07 -1.00892e+07 -0)
(2.88584e-07 -1.00892e+07 -0)
(7.1422e-07 -1.00892e+07 -0)
(1.01825e-06 -1.00892e+07 -0)
(1.25954e-06 -1.00892e+07 -0)
(1.42265e-06 -1.00892e+07 -0)
(1.49697e-06 -1.00892e+07 -0)
(1.53943e-06 -1.00892e+07 -0)
(1.57128e-06 -1.00892e+07 -0)
(1.53364e-06 -1.00892e+07 -0)
(1.44871e-06 -1.00892e+07 -0)
(1.3715e-06 -1.00892e+07 -0)
(1.22286e-06 -1.00892e+07 -0)
(1.05589e-06 -1.00892e+07 -0)
(8.93741e-07 -1.00892e+07 -0)
(7.1422e-07 -1.00892e+07 -0)
(5.0285e-07 -1.00892e+07 -0)
(2.82793e-07 -1.00892e+07 -0)
(9.16905e-08 -1.00892e+07 -0)
(-9.16905e-08 -1.00892e+07 -0)
(-3.15608e-07 -1.00892e+07 -0)
(-5.23118e-07 -1.00892e+07 -0)
(-6.83335e-07 -1.00892e+07 -0)
(-8.73472e-07 -1.00892e+07 -0)
(-1.06071e-06 -1.00892e+07 -0)
(-1.219e-06 -1.00892e+07 -0)
(-1.36764e-06 -1.00892e+07 -0)
(-1.4574e-06 -1.00892e+07 -0)
(-1.51531e-06 -1.00892e+07 -0)
(-1.56453e-06 -1.00892e+07 -0)
(-1.52882e-06 -1.00892e+07 -0)
(-1.47959e-06 -1.00892e+07 -0)
(-1.4323e-06 -1.00892e+07 -0)
(-1.2827e-06 -1.00892e+07 -0)
(-1.06747e-06 -1.00892e+07 -0)
(-7.29663e-07 -1.00892e+07 -0)
(-2.85688e-07 -1.00892e+07 -0)
(2.93409e-07 -1.00892e+07 -0)
(1.07616e-06 -1.00892e+07 -0)
(2.25366e-06 -1.00892e+07 -0)
(3.91567e-06 -1.00892e+07 -0)
(6.45694e-06 -1.00892e+07 -0)
(1.05502e-05 -1.00892e+07 -0)
(1.81093e-05 -1.00892e+07 -0)
(3.26698e-05 -1.00892e+07 -0)
(6.71531e-05 -1.00892e+07 -0)
(0.000130976 -1.00892e+07 -0)
(0.000172077 -1.00892e+07 -0)
(8.71832e-05 -1.00892e+07 -0)
(-9.53224e-05 -9.89376e+06 -0)
(-0.000188075 -9.89376e+06 -0)
(-0.000143239 -9.89376e+06 -0)
(-7.37378e-05 -9.89376e+06 -0)
(-3.60741e-05 -9.89376e+06 -0)
(-2.00212e-05 -9.89376e+06 -0)
(-1.16887e-05 -9.89376e+06 -0)
(-7.16015e-06 -9.89376e+06 -0)
(-4.29025e-06 -9.89376e+06 -0)
(-2.50021e-06 -9.89376e+06 -0)
(-1.25692e-06 -9.89376e+06 -0)
(-3.53143e-07 -9.89376e+06 -0)
(3.15202e-07 -9.89376e+06 -0)
(7.83141e-07 -9.89376e+06 -0)
(1.12266e-06 -9.89376e+06 -0)
(1.38728e-06 -9.89376e+06 -0)
(1.57212e-06 -9.89376e+06 -0)
(1.65384e-06 -9.89376e+06 -0)
(1.70248e-06 -9.89376e+06 -0)
(1.73848e-06 -9.89376e+06 -0)
(1.6947e-06 -9.89376e+06 -0)
(1.60228e-06 -9.89376e+06 -0)
(1.51861e-06 -9.89376e+06 -0)
(1.35226e-06 -9.89376e+06 -0)
(1.16644e-06 -9.89376e+06 -0)
(9.90357e-07 -9.89376e+06 -0)
(7.89951e-07 -9.89376e+06 -0)
(5.55495e-07 -9.89376e+06 -0)
(3.13256e-07 -9.89376e+06 -0)
(1.03122e-07 -9.89376e+06 -0)
(-1.03122e-07 -9.89376e+06 -0)
(-3.47306e-07 -9.89376e+06 -0)
(-5.76898e-07 -9.89376e+06 -0)
(-7.55901e-07 -9.89376e+06 -0)
(-9.67009e-07 -9.89376e+06 -0)
(-1.1752e-06 -9.89376e+06 -0)
(-1.35226e-06 -9.89376e+06 -0)
(-1.50986e-06 -9.89376e+06 -0)
(-1.61006e-06 -9.89376e+06 -0)
(-1.6733e-06 -9.89376e+06 -0)
(-1.73167e-06 -9.89376e+06 -0)
(-1.69081e-06 -9.89376e+06 -0)
(-1.63633e-06 -9.89376e+06 -0)
(-1.58185e-06 -9.89376e+06 -0)
(-1.41452e-06 -9.89376e+06 -0)
(-1.17812e-06 -9.89376e+06 -0)
(-8.03571e-07 -9.89376e+06 -0)
(-3.11311e-07 -9.89376e+06 -0)
(3.30768e-07 -9.89376e+06 -0)
(1.20438e-06 -9.89376e+06 -0)
(2.50411e-06 -9.89376e+06 -0)
(4.3457e-06 -9.89376e+06 -0)
(7.1582e-06 -9.89376e+06 -0)
(1.16868e-05 -9.89376e+06 -0)
(2.00367e-05 -9.89376e+06 -0)
(3.60819e-05 -9.89376e+06 -0)
(7.37573e-05 -9.89376e+06 -0)
(0.00014327 -9.89376e+06 -0)
(0.000188099 -9.89376e+06 -0)
(9.53331e-05 -9.89376e+06 -0)
(-0.000101992 -9.64601e+06 -0)
(-0.000201202 -9.64601e+06 -0)
(-0.000153422 -9.64601e+06 -0)
(-7.93867e-05 -9.64601e+06 -0)
(-3.90846e-05 -9.64601e+06 -0)
(-2.17395e-05 -9.64601e+06 -0)
(-1.2717e-05 -9.64601e+06 -0)
(-7.79708e-06 -9.64601e+06 -0)
(-4.68218e-06 -9.64601e+06 -0)
(-2.73266e-06 -9.64601e+06 -0)
(-1.37763e-06 -9.64601e+06 -0)
(-3.95013e-07 -9.64601e+06 -0)
(3.32125e-07 -9.64601e+06 -0)
(8.44069e-07 -9.64601e+06 -0)
(1.21353e-06 -9.64601e+06 -0)
(1.50242e-06 -9.64601e+06 -0)
(1.70484e-06 -9.64601e+06 -0)
(1.79328e-06 -9.64601e+06 -0)
(1.84438e-06 -9.64601e+06 -0)
(1.88565e-06 -9.64601e+06 -0)
(1.84044e-06 -9.64601e+06 -0)
(1.73923e-06 -9.64601e+06 -0)
(1.64982e-06 -9.64601e+06 -0)
(1.46901e-06 -9.64601e+06 -0)
(1.27053e-06 -9.64601e+06 -0)
(1.07498e-06 -9.64601e+06 -0)
(8.56843e-07 -9.64601e+06 -0)
(6.02345e-07 -9.64601e+06 -0)
(3.41951e-07 -9.64601e+06 -0)
(1.12019e-07 -9.64601e+06 -0)
(-1.12019e-07 -9.64601e+06 -0)
(-3.74378e-07 -9.64601e+06 -0)
(-6.24945e-07 -9.64601e+06 -0)
(-8.19504e-07 -9.64601e+06 -0)
(-1.05435e-06 -9.64601e+06 -0)
(-1.2774e-06 -9.64601e+06 -0)
(-1.47e-06 -9.64601e+06 -0)
(-1.63704e-06 -9.64601e+06 -0)
(-1.74513e-06 -9.64601e+06 -0)
(-1.81784e-06 -9.64601e+06 -0)
(-1.87778e-06 -9.64601e+06 -0)
(-1.83848e-06 -9.64601e+06 -0)
(-1.77756e-06 -9.64601e+06 -0)
(-1.71074e-06 -9.64601e+06 -0)
(-1.53387e-06 -9.64601e+06 -0)
(-1.27446e-06 -9.64601e+06 -0)
(-8.67652e-07 -9.64601e+06 -0)
(-3.3016e-07 -9.64601e+06 -0)
(3.68482e-07 -9.64601e+06 -0)
(1.3226e-06 -9.64601e+06 -0)
(2.73856e-06 -9.64601e+06 -0)
(4.73524e-06 -9.64601e+06 -0)
(7.79708e-06 -9.64601e+06 -0)
(1.27151e-05 -9.64601e+06 -0)
(2.17591e-05 -9.64601e+06 -0)
(3.90964e-05 -9.64601e+06 -0)
(7.94054e-05 -9.64601e+06 -0)
(0.000153456 -9.64601e+06 -0)
(0.000201232 -9.64601e+06 -0)
(0.000102006 -9.64601e+06 -0)
(-0.000106239 -9.29922e+06 -0)
(-0.000209595 -9.29922e+06 -0)
(-0.000160124 -9.29922e+06 -0)
(-8.33874e-05 -9.29922e+06 -0)
(-4.13791e-05 -9.29922e+06 -0)
(-2.3082e-05 -9.29922e+06 -0)
(-1.35311e-05 -9.29922e+06 -0)
(-8.31228e-06 -9.29922e+06 -0)
(-4.99787e-06 -9.29922e+06 -0)
(-2.92203e-06 -9.29922e+06 -0)
(-1.48331e-06 -9.29922e+06 -0)
(-4.33004e-07 -9.29922e+06 -0)
(3.44817e-07 -9.29922e+06 -0)
(8.83843e-07 -9.29922e+06 -0)
(1.27721e-06 -9.29922e+06 -0)
(1.59131e-06 -9.29922e+06 -0)
(1.80831e-06 -9.29922e+06 -0)
(1.90145e-06 -9.29922e+06 -0)
(1.95793e-06 -9.29922e+06 -0)
(2.00252e-06 -9.29922e+06 -0)
(1.95e-06 -9.29922e+06 -0)
(1.84398e-06 -9.29922e+06 -0)
(1.75183e-06 -9.29922e+06 -0)
(1.56159e-06 -9.29922e+06 -0)
(1.35054e-06 -9.29922e+06 -0)
(1.1375e-06 -9.29922e+06 -0)
(9.06632e-07 -9.29922e+06 -0)
(6.39101e-07 -9.29922e+06 -0)
(3.65625e-07 -9.29922e+06 -0)
(1.21875e-07 -9.29922e+06 -0)
(-1.12957e-07 -9.29922e+06 -0)
(-3.91388e-07 -9.29922e+06 -0)
(-6.63873e-07 -9.29922e+06 -0)
(-8.76907e-07 -9.29922e+06 -0)
(-1.11669e-06 -9.29922e+06 -0)
(-1.35549e-06 -9.29922e+06 -0)
(-1.56258e-06 -9.29922e+06 -0)
(-1.73994e-06 -9.29922e+06 -0)
(-1.84794e-06 -9.29922e+06 -0)
(-1.9282e-06 -9.29922e+06 -0)
(-1.99955e-06 -9.29922e+06 -0)
(-1.95099e-06 -9.29922e+06 -0)
(-1.88461e-06 -9.29922e+06 -0)
(-1.81227e-06 -9.29922e+06 -0)
(-1.62104e-06 -9.29922e+06 -0)
(-1.34756e-06 -9.29922e+06 -0)
(-9.16541e-07 -9.29922e+06 -0)
(-3.42836e-07 -9.29922e+06 -0)
(4.08232e-07 -9.29922e+06 -0)
(1.42485e-06 -9.29922e+06 -0)
(2.92798e-06 -9.29922e+06 -0)
(5.05435e-06 -9.29922e+06 -0)
(8.30237e-06 -9.29922e+06 -0)
(1.35321e-05 -9.29922e+06 -0)
(2.31067e-05 -9.29922e+06 -0)
(4.13949e-05 -9.29922e+06 -0)
(8.34121e-05 -9.29922e+06 -0)
(0.000160153 -9.29922e+06 -0)
(0.000209625 -9.29922e+06 -0)
(0.00010625 -9.29922e+06 -0)
(-0.000106908 -8.80601e+06 -0)
(-0.000211006 -8.80601e+06 -0)
(-0.000161661 -8.80601e+06 -0)
(-8.48992e-05 -8.80601e+06 -0)
(-4.25454e-05 -8.80601e+06 -0)
(-2.38125e-05 -8.80601e+06 -0)
(-1.40037e-05 -8.80601e+06 -0)
(-8.62128e-06 -8.80601e+06 -0)
(-5.1958e-06 -8.80601e+06 -0)
(-3.04222e-06 -8.80601e+06 -0)
(-1.55685e-06 -8.80601e+06 -0)
(-4.70631e-07 -8.80601e+06 -0)
(3.40562e-07 -8.80601e+06 -0)
(9.04524e-07 -8.80601e+06 -0)
(1.30962e-06 -8.80601e+06 -0)
(1.6343e-06 -8.80601e+06 -0)
(1.85969e-06 -8.80601e+06 -0)
(1.95898e-06 -8.80601e+06 -0)
(2.02053e-06 -8.80601e+06 -0)
(2.06422e-06 -8.80601e+06 -0)
(2.01259e-06 -8.80601e+06 -0)
(1.90238e-06 -8.80601e+06 -0)
(1.80508e-06 -8.80601e+06 -0)
(1.61444e-06 -8.80601e+06 -0)
(1.39303e-06 -8.80601e+06 -0)
(1.17558e-06 -8.80601e+06 -0)
(9.3729e-07 -8.80601e+06 -0)
(6.5928e-07 -8.80601e+06 -0)
(3.82263e-07 -8.80601e+06 -0)
(1.2709e-07 -8.80601e+06 -0)
(-1.16168e-07 -8.80601e+06 -0)
(-3.99142e-07 -8.80601e+06 -0)
(-6.84102e-07 -8.80601e+06 -0)
(-9.05517e-07 -8.80601e+06 -0)
(-1.15473e-06 -8.80601e+06 -0)
(-1.40296e-06 -8.80601e+06 -0)
(-1.61444e-06 -8.80601e+06 -0)
(-1.79515e-06 -8.80601e+06 -0)
(-1.90734e-06 -8.80601e+06 -0)
(-1.98777e-06 -8.80601e+06 -0)
(-2.06323e-06 -8.80601e+06 -0)
(-2.01458e-06 -8.80601e+06 -0)
(-1.94011e-06 -8.80601e+06 -0)
(-1.86266e-06 -8.80601e+06 -0)
(-1.67004e-06 -8.80601e+06 -0)
(-1.38608e-06 -8.80601e+06 -0)
(-9.34311e-07 -8.80601e+06 -0)
(-3.37583e-07 -8.80601e+06 -0)
(4.38858e-07 -8.80601e+06 -0)
(1.49132e-06 -8.80601e+06 -0)
(3.04718e-06 -8.80601e+06 -0)
(5.24743e-06 -8.80601e+06 -0)
(8.61036e-06 -8.80601e+06 -0)
(1.40087e-05 -8.80601e+06 -0)
(2.38483e-05 -8.80601e+06 -0)
(4.25633e-05 -8.80601e+06 -0)
(8.4925e-05 -8.80601e+06 -0)
(0.000161692 -8.80601e+06 -0)
(0.000211041 -8.80601e+06 -0)
(0.000106923 -8.80601e+06 -0)
(-0.000102832 -8.12425e+06 -0)
(-0.000203145 -8.12425e+06 -0)
(-0.000156292 -8.12425e+06 -0)
(-8.30044e-05 -8.12425e+06 -0)
(-4.21203e-05 -8.12425e+06 -0)
(-2.36869e-05 -8.12425e+06 -0)
(-1.39867e-05 -8.12425e+06 -0)
(-8.63004e-06 -8.12425e+06 -0)
(-5.21517e-06 -8.12425e+06 -0)
(-3.06405e-06 -8.12425e+06 -0)
(-1.58411e-06 -8.12425e+06 -0)
(-4.94296e-07 -8.12425e+06 -0)
(3.2429e-07 -8.12425e+06 -0)
(8.81479e-07 -8.12425e+06 -0)
(1.2893e-06 -8.12425e+06 -0)
(1.61948e-06 -8.12425e+06 -0)
(1.84256e-06 -8.12425e+06 -0)
(1.94574e-06 -8.12425e+06 -0)
(2.0106e-06 -8.12425e+06 -0)
(2.0499e-06 -8.12425e+06 -0)
(1.9988e-06 -8.12425e+06 -0)
(1.89366e-06 -8.12425e+06 -0)
(1.80128e-06 -8.12425e+06 -0)
(1.60474e-06 -8.12425e+06 -0)
(1.38658e-06 -8.12425e+06 -0)
(1.16744e-06 -8.12425e+06 -0)
(9.30613e-07 -8.12425e+06 -0)
(6.61355e-07 -8.12425e+06 -0)
(3.83252e-07 -8.12425e+06 -0)
(1.29716e-07 -8.12425e+06 -0)
(-1.10062e-07 -8.12425e+06 -0)
(-3.95044e-07 -8.12425e+06 -0)
(-6.81991e-07 -8.12425e+06 -0)
(-9.04081e-07 -8.12425e+06 -0)
(-1.14975e-06 -8.12425e+06 -0)
(-1.39248e-06 -8.12425e+06 -0)
(-1.61162e-06 -8.12425e+06 -0)
(-1.78949e-06 -8.12425e+06 -0)
(-1.89759e-06 -8.12425e+06 -0)
(-1.97718e-06 -8.12425e+06 -0)
(-2.05285e-06 -8.12425e+06 -0)
(-2.00372e-06 -8.12425e+06 -0)
(-1.92608e-06 -8.12425e+06 -0)
(-1.84845e-06 -8.12425e+06 -0)
(-1.65486e-06 -8.12425e+06 -0)
(-1.37184e-06 -8.12425e+06 -0)
(-9.16856e-07 -8.12425e+06 -0)
(-3.12497e-07 -8.12425e+06 -0)
(4.60885e-07 -8.12425e+06 -0)
(1.51335e-06 -8.12425e+06 -0)
(3.06601e-06 -8.12425e+06 -0)
(5.26627e-06 -8.12425e+06 -0)
(8.61825e-06 -8.12425e+06 -0)
(1.39877e-05 -8.12425e+06 -0)
(2.37252e-05 -8.12425e+06 -0)
(4.21469e-05 -8.12425e+06 -0)
(8.3031e-05 -8.12425e+06 -0)
(0.00015632 -8.12425e+06 -0)
(0.000203175 -8.12425e+06 -0)
(0.00010285 -8.12425e+06 -0)
(-9.32179e-05 -7.23338e+06 -0)
(-0.000184456 -7.23338e+06 -0)
(-0.000142825 -7.23338e+06 -0)
(-7.70218e-05 -7.23338e+06 -0)