/*--------------------------------*- C++ -*----------------------------------*\
| =========                 |                                                 |
| \\      /  F ield         | foam-extend: Open Source CFD                    |
|  \\    /   O peration     | Version:     4.0                                |
|   \\  /    A nd           | Web:         http://www.foam-extend.org         |
|    \\/     M anipulation  |                                                 |
\*---------------------------------------------------------------------------*/
FoamFile
{
    version     2.0;
    format      ascii;
    class       volVectorField;
    location    "20";
    object      U;
}
// * * * * * * * * * * * * * * * * * * * * * * * * * * * * * * * * * * * * * //

dimensions      [0 1 -1 0 0 0 0];

internalField   nonuniform List<vector> 
6960
(
(-3.52801e-06 -99.3683 0)
(-2.56472e-06 -99.3647 0)
(6.57116e-07 -99.3647 0)
(-1.84766e-08 -99.3647 0)
(2.10099e-07 -99.3647 0)
(3.81523e-08 -99.3647 0)
(9.57591e-08 -99.3647 0)
(3.21468e-08 -99.3647 0)
(4.72783e-08 -99.3647 0)
(2.07499e-08 -99.3647 0)
(2.55103e-08 -99.3647 0)
(1.33065e-08 -99.3647 0)
(1.47601e-08 -99.3647 0)
(8.76337e-09 -99.3647 0)
(9.01128e-09 -99.3647 0)
(5.8882e-09 -99.3647 0)
(5.719e-09 -99.3647 0)
(4.01448e-09 -99.3647 0)
(3.72523e-09 -99.3647 0)
(2.73841e-09 -99.3647 0)
(2.44991e-09 -99.3647 0)
(1.85745e-09 -99.3647 0)
(1.60828e-09 -99.3647 0)
(1.22485e-09 -99.3647 0)
(1.01227e-09 -99.3647 0)
(7.47505e-10 -99.3647 0)
(5.7334e-10 -99.3647 0)
(3.84112e-10 -99.3647 0)
(2.44155e-10 -99.3647 0)
(8.36381e-11 -99.3647 0)
(-6.38554e-11 -99.3647 0)
(-2.35559e-10 -99.3647 0)
(-3.87441e-10 -99.3647 0)
(-5.83861e-10 -99.3647 0)
(-7.54513e-10 -99.3647 0)
(-1.01223e-09 -99.3647 0)
(-1.21949e-09 -99.3647 0)
(-1.59573e-09 -99.3647 0)
(-1.84099e-09 -99.3647 0)
(-2.43663e-09 -99.3647 0)
(-2.72504e-09 -99.3647 0)
(-3.723e-09 -99.3647 0)
(-4.02475e-09 -99.3647 0)
(-5.71638e-09 -99.3647 0)
(-5.88592e-09 -99.3647 0)
(-9.00726e-09 -99.3647 0)
(-8.76066e-09 -99.3647 0)
(-1.47648e-08 -99.3647 0)
(-1.3317e-08 -99.3647 0)
(-2.55118e-08 -99.3647 0)
(-2.07503e-08 -99.3647 0)
(-4.72864e-08 -99.3647 0)
(-3.21516e-08 -99.3647 0)
(-9.57672e-08 -99.3647 0)
(-3.81529e-08 -99.3647 0)
(-2.10085e-07 -99.3647 0)
(1.84973e-08 -99.3647 0)
(-6.5709e-07 -99.3647 0)
(2.56473e-06 -99.3647 0)
(3.52801e-06 -99.3683 0)
(9.84599e-05 -2.6118 0)
(0.000101254 -2.60802 0)
(1.89631e-06 -2.60802 0)
(-5.86188e-08 -2.60802 0)
(6.17363e-07 -2.60802 0)
(1.18041e-07 -2.60802 0)
(2.84442e-07 -2.60802 0)
(9.8354e-08 -2.60802 0)
(1.41291e-07 -2.60802 0)
(6.33043e-08 -2.60802 0)
(7.651e-08 -2.60802 0)
(4.05273e-08 -2.60802 0)
(4.43776e-08 -2.60802 0)
(2.66476e-08 -2.60802 0)
(2.71479e-08 -2.60802 0)
(1.7882e-08 -2.60802 0)
(1.72525e-08 -2.60802 0)
(1.2184e-08 -2.60802 0)
(1.12468e-08 -2.60802 0)
(8.30477e-09 -2.60802 0)
(7.40687e-09 -2.60802 0)
(5.62749e-09 -2.60802 0)
(4.86265e-09 -2.60802 0)
(3.71403e-09 -2.60802 0)
(3.06024e-09 -2.60802 0)
(2.26571e-09 -2.60802 0)
(1.73811e-09 -2.60802 0)
(1.16213e-09 -2.60802 0)
(7.39495e-10 -2.60802 0)
(2.60683e-10 -2.60802 0)
(-2.13127e-10 -2.60802 0)
(-7.11218e-10 -2.60802 0)
(-1.14938e-09 -2.60802 0)
(-1.79069e-09 -2.60802 0)
(-2.28603e-09 -2.60802 0)
(-3.03766e-09 -2.60802 0)
(-3.71974e-09 -2.60802 0)
(-4.82557e-09 -2.60802 0)
(-5.557e-09 -2.60802 0)
(-7.3892e-09 -2.60802 0)
(-8.26528e-09 -2.60802 0)
(-1.12183e-08 -2.60802 0)
(-1.22352e-08 -2.60802 0)
(-1.72446e-08 -2.60802 0)
(-1.78531e-08 -2.60802 0)
(-2.71582e-08 -2.60802 0)
(-2.66401e-08 -2.60802 0)
(-4.43693e-08 -2.60802 0)
(-4.05798e-08 -2.60802 0)
(-7.65151e-08 -2.60802 0)
(-6.32842e-08 -2.60802 0)
(-1.41337e-07 -2.60802 0)
(-9.83688e-08 -2.60802 0)
(-2.84444e-07 -2.60802 0)
(-1.18065e-07 -2.60802 0)
(-6.17324e-07 -2.60802 0)
(5.87016e-08 -2.60802 0)
(-1.89626e-06 -2.60802 0)
(-0.000101254 -2.60802 0)
(-9.84599e-05 -2.6118 0)
(9.20178e-05 17.6979 0)
(9.64448e-05 17.6966 0)
(2.94364e-06 17.6966 0)
(-1.09114e-07 17.6966 0)
(1.01704e-06 17.6966 0)
(2.02515e-07 17.6966 0)
(4.72937e-07 17.6966 0)
(1.67411e-07 17.6966 0)
(2.36103e-07 17.6966 0)
(1.07539e-07 17.6966 0)
(1.28233e-07 17.6966 0)
(6.87541e-08 17.6966 0)
(7.4534e-08 17.6966 0)
(4.51564e-08 17.6966 0)
(4.56633e-08 17.6966 0)
(3.02779e-08 17.6966 0)
(2.90536e-08 17.6966 0)
(2.06117e-08 17.6966 0)
(1.8957e-08 17.6966 0)
(1.40443e-08 17.6966 0)
(1.24904e-08 17.6966 0)
(9.51431e-09 17.6966 0)
(8.20361e-09 17.6966 0)
(6.27515e-09 17.6966 0)
(5.16733e-09 17.6966 0)
(3.83004e-09 17.6966 0)
(2.93367e-09 17.6966 0)
(1.96657e-09 17.6966 0)
(1.24631e-09 17.6966 0)
(4.3336e-10 17.6966 0)
(-3.48897e-10 17.6966 0)
(-1.2016e-09 17.6966 0)
(-1.95909e-09 17.6966 0)
(-3.00543e-09 17.6966 0)
(-3.86303e-09 17.6966 0)
(-5.14369e-09 17.6966 0)
(-6.26961e-09 17.6966 0)
(-8.14231e-09 17.6966 0)
(-9.41229e-09 17.6966 0)
(-1.24462e-08 17.6966 0)
(-1.39791e-08 17.6966 0)
(-1.89242e-08 17.6966 0)
(-2.06806e-08 17.6966 0)
(-2.90404e-08 17.6966 0)
(-3.02444e-08 17.6966 0)
(-4.5666e-08 17.6966 0)
(-4.51448e-08 17.6966 0)
(-7.45346e-08 17.6966 0)
(-6.88257e-08 17.6966 0)
(-1.28242e-07 17.6966 0)
(-1.07521e-07 17.6966 0)
(-2.36166e-07 17.6966 0)
(-1.67436e-07 17.6966 0)
(-4.72954e-07 17.6966 0)
(-2.02541e-07 17.6966 0)
(-1.01698e-06 17.6966 0)
(1.09235e-07 17.6966 0)
(-2.94354e-06 17.6966 0)
(-9.64447e-05 17.6966 0)
(-9.20177e-05 17.6979 0)
(4.05619e-05 6.49742 0)
(4.64589e-05 6.49551 0)
(3.82568e-06 6.49551 0)
(-1.79319e-07 6.49551 0)
(1.40834e-06 6.49551 0)
(2.91451e-07 6.49551 0)
(6.61079e-07 6.49551 0)
(2.39306e-07 6.49551 0)
(3.31684e-07 6.49551 0)
(1.53464e-07 6.49551 0)
(1.80679e-07 6.49551 0)
(9.80022e-08 6.49551 0)
(1.05234e-07 6.49551 0)
(6.43007e-08 6.49551 0)
(6.45654e-08 6.49551 0)
(4.30827e-08 6.49551 0)
(4.11276e-08 6.49551 0)
(2.93049e-08 6.49551 0)
(2.68584e-08 6.49551 0)
(1.9961e-08 6.49551 0)
(1.77049e-08 6.49551 0)
(1.35192e-08 6.49551 0)
(1.16332e-08 6.49551 0)
(8.91139e-09 6.49551 0)
(7.33348e-09 6.49551 0)
(5.44166e-09 6.49551 0)
(4.16231e-09 6.49551 0)
(2.7966e-09 6.49551 0)
(1.76575e-09 6.49551 0)
(6.06551e-10 6.49551 0)
(-4.822e-10 6.49551 0)
(-1.70621e-09 6.49551 0)
(-2.80286e-09 6.49551 0)
(-4.24312e-09 6.49551 0)
(-5.4866e-09 6.49551 0)
(-7.31743e-09 6.49551 0)
(-8.8851e-09 6.49551 0)
(-1.1548e-08 6.49551 0)
(-1.33953e-08 6.49551 0)
(-1.76249e-08 6.49551 0)
(-1.98706e-08 6.49551 0)
(-2.68305e-08 6.49551 0)
(-2.93806e-08 6.49551 0)
(-4.11091e-08 6.49551 0)
(-4.30535e-08 6.49551 0)
(-6.45515e-08 6.49551 0)
(-6.42857e-08 6.49551 0)
(-1.05253e-07 6.49551 0)
(-9.80829e-08 6.49551 0)
(-1.80693e-07 6.49551 0)
(-1.53458e-07 6.49551 0)
(-3.31754e-07 6.49551 0)
(-2.39343e-07 6.49551 0)
(-6.61119e-07 6.49551 0)
(-2.9147e-07 6.49551 0)
(-1.40825e-06 6.49551 0)
(1.79467e-07 6.49551 0)
(-3.82553e-06 6.49551 0)
(-4.64588e-05 6.49551 0)
(-4.05618e-05 6.49742 0)
(1.43507e-05 0.556145 0)
(2.16163e-05 0.555605 0)
(4.60484e-06 0.555604 0)
(-2.69053e-07 0.555601 0)
(1.79047e-06 0.5556 0)
(3.84708e-07 0.5556 0)
(8.48695e-07 0.5556 0)
(3.1402e-07 0.5556 0)
(4.27999e-07 0.5556 0)
(2.01087e-07 0.5556 0)
(2.33845e-07 0.5556 0)
(1.28285e-07 0.5556 0)
(1.36482e-07 0.5556 0)
(8.40911e-08 0.5556 0)
(8.38622e-08 0.5556 0)
(5.63026e-08 0.5556 0)
(5.348e-08 0.5556 0)
(3.82705e-08 0.5556 0)
(3.49534e-08 0.5556 0)
(2.60587e-08 0.5556 0)
(2.30549e-08 0.5556 0)
(1.76432e-08 0.5556 0)
(1.51535e-08 0.5556 0)
(1.16261e-08 0.5556 0)
(9.55852e-09 0.5556 0)
(7.10175e-09 0.5556 0)
(5.42646e-09 0.5556 0)
(3.65125e-09 0.5556 0)
(2.29909e-09 0.5556 0)
(7.85658e-10 0.5556 0)
(-6.25217e-10 0.5556 0)
(-2.22442e-09 0.5556 0)
(-3.66549e-09 0.5556 0)
(-5.52033e-09 0.5556 0)
(-7.15784e-09 0.5556 0)
(-9.54446e-09 0.5556 0)
(-1.15838e-08 0.5556 0)
(-1.50448e-08 0.5556 0)
(-1.74932e-08 0.5556 0)
(-2.29442e-08 0.5556 0)
(-2.59437e-08 0.5556 0)
(-3.49255e-08 0.5556 0)
(-3.83565e-08 0.5556 0)
(-5.34561e-08 0.5556 0)
(-5.62726e-08 0.5556 0)
(-8.3837e-08 0.5556 0)
(-8.40733e-08 0.5556 0)
(-1.36513e-07 0.5556 0)
(-1.28379e-07 0.5556 0)
(-2.33864e-07 0.5556 0)
(-2.01088e-07 0.5556 0)
(-4.28081e-07 0.5556 0)
(-3.14068e-07 0.5556 0)
(-8.48754e-07 0.5556 0)
(-3.84724e-07 0.5556 0)
(-1.79037e-06 0.5556 0)
(2.69231e-07 0.555601 0)
(-4.60464e-06 0.555604 0)
(-2.16161e-05 0.555605 0)
(-1.43506e-05 0.556145 0)
(7.30349e-06 0.0824717 0)
(1.58321e-05 0.0825421 0)
(5.28365e-06 0.0825419 0)
(-3.72644e-07 0.0825379 0)
(2.16267e-06 0.0825377 0)
(4.8212e-07 0.0825378 0)
(1.03561e-06 0.0825378 0)
(3.91522e-07 0.0825378 0)
(5.25007e-07 0.0825378 0)
(2.50411e-07 0.0825378 0)
(2.87727e-07 0.0825378 0)
(1.59614e-07 0.0825378 0)
(1.68283e-07 0.0825378 0)
(1.04537e-07 0.0825378 0)
(1.0356e-07 0.0825378 0)
(6.99453e-08 0.0825378 0)
(6.61161e-08 0.0825378 0)
(4.75139e-08 0.0825378 0)
(4.32464e-08 0.0825378 0)
(3.23414e-08 0.0825378 0)
(2.85434e-08 0.0825378 0)
(2.18893e-08 0.0825378 0)
(1.87666e-08 0.0825378 0)
(1.4421e-08 0.0825378 0)
(1.18441e-08 0.0825378 0)
(8.81151e-09 0.0825378 0)
(6.72689e-09 0.0825378 0)
(4.53125e-09 0.0825378 0)
(2.84654e-09 0.0825378 0)
(9.70274e-10 0.0825378 0)
(-7.77077e-10 0.0825378 0)
(-2.75667e-09 0.0825378 0)
(-4.54895e-09 0.0825378 0)
(-6.83653e-09 0.0825378 0)
(-8.87787e-09 0.0825378 0)
(-1.18276e-08 0.0825378 0)
(-1.43662e-08 0.0825378 0)
(-1.86348e-08 0.0825378 0)
(-2.17099e-08 0.0825378 0)
(-2.84059e-08 0.0825378 0)
(-3.22024e-08 0.0825378 0)
(-4.32146e-08 0.0825378 0)
(-4.76125e-08 0.0825378 0)
(-6.60867e-08 0.0825378 0)
(-6.99105e-08 0.0825378 0)
(-1.03527e-07 0.0825378 0)
(-1.04517e-07 0.0825378 0)
(-1.68323e-07 0.0825378 0)
(-1.59724e-07 0.0825378 0)
(-2.87752e-07 0.0825378 0)
(-2.50417e-07 0.0825378 0)
(-5.25105e-07 0.0825378 0)
(-3.91582e-07 0.0825378 0)
(-1.03568e-06 0.0825378 0)
(-4.82139e-07 0.0825378 0)
(-2.16255e-06 0.0825377 0)
(3.72854e-07 0.0825379 0)
(-5.28342e-06 0.0825419 0)
(-1.5832e-05 0.0825421 0)
(-7.30344e-06 0.0824717 0)
(1.337e-06 0.394045 0)
(1.10028e-05 0.39407 0)
(5.8452e-06 0.39407 0)
(-4.87359e-07 0.394066 0)
(2.52415e-06 0.394066 0)
(5.83504e-07 0.394066 0)
(1.22163e-06 0.394066 0)
(4.7177e-07 0.394066 0)
(6.22663e-07 0.394066 0)
(3.01435e-07 0.394066 0)
(3.42321e-07 0.394066 0)
(1.91996e-07 0.394066 0)
(2.00643e-07 0.394066 0)
(1.25648e-07 0.394066 0)
(1.23664e-07 0.394066 0)
(8.40185e-08 0.394066 0)
(7.90414e-08 0.394066 0)
(5.70402e-08 0.394066 0)
(5.17418e-08 0.394066 0)
(3.8813e-08 0.394066 0)
(3.41731e-08 0.394066 0)
(2.62606e-08 0.394066 0)
(2.24746e-08 0.394066 0)
(1.72974e-08 0.394066 0)
(1.4192e-08 0.394066 0)
(1.05721e-08 0.394066 0)
(8.06412e-09 0.394066 0)
(5.43767e-09 0.394066 0)
(3.40815e-09 0.394066 0)
(1.15908e-09 0.394066 0)
(-9.34827e-10 0.394066 0)
(-3.30354e-09 0.394066 0)
(-5.45793e-09 0.394066 0)
(-8.18849e-09 0.394066 0)
(-1.06479e-08 0.394066 0)
(-1.41722e-08 0.394066 0)
(-1.723e-08 0.394066 0)
(-2.23203e-08 0.394066 0)
(-2.60525e-08 0.394066 0)
(-3.40089e-08 0.394066 0)
(-3.86507e-08 0.394066 0)
(-5.17061e-08 0.394066 0)
(-5.71498e-08 0.394066 0)
(-7.90063e-08 0.394066 0)
(-8.39787e-08 0.394066 0)
(-1.23625e-07 0.394066 0)
(-1.25627e-07 0.394066 0)
(-2.00691e-07 0.394066 0)
(-1.92122e-07 0.394066 0)
(-3.42353e-07 0.394066 0)
(-3.01447e-07 0.394066 0)
(-6.22778e-07 0.394066 0)
(-4.71842e-07 0.394066 0)
(-1.22171e-06 0.394066 0)
(-5.83526e-07 0.394066 0)
(-2.52401e-06 0.394066 0)
(4.876e-07 0.394066 0)
(-5.84492e-06 0.39407 0)
(-1.10026e-05 0.39407 0)
(-1.33694e-06 0.394045 0)
(-7.11582e-06 0.363284 0)
(3.55765e-06 0.363222 0)
(6.28632e-06 0.363222 0)
(-6.13585e-07 0.363218 0)
(2.87411e-06 0.363218 0)
(6.88659e-07 0.363218 0)
(1.40655e-06 0.363218 0)
(5.54709e-07 0.363218 0)
(7.20919e-07 0.363218 0)
(3.54154e-07 0.363218 0)
(3.9762e-07 0.363218 0)
(2.25439e-07 0.363218 0)
(2.33565e-07 0.363218 0)
(1.47431e-07 0.363218 0)
(1.44181e-07 0.363218 0)
(9.85291e-08 0.363218 0)
(9.2261e-08 0.363218 0)
(6.68545e-08 0.363218 0)
(6.04439e-08 0.363218 0)
(4.54773e-08 0.363218 0)
(3.99469e-08 0.363218 0)
(3.07598e-08 0.363218 0)
(2.62797e-08 0.363218 0)
(2.02573e-08 0.363218 0)
(1.66038e-08 0.363218 0)
(1.23848e-08 0.363218 0)
(9.439e-09 0.363218 0)
(6.37122e-09 0.363218 0)
(3.9842e-09 0.363218 0)
(1.35186e-09 0.363218 0)
(-1.09803e-09 0.363218 0)
(-3.86544e-09 0.363218 0)
(-6.39384e-09 0.363218 0)
(-9.57627e-09 0.363218 0)
(-1.2469e-08 0.363218 0)
(-1.65808e-08 0.363218 0)
(-2.01762e-08 0.363218 0)
(-2.61034e-08 0.363218 0)
(-3.05244e-08 0.363218 0)
(-3.97557e-08 0.363218 0)
(-4.52925e-08 0.363218 0)
(-6.04048e-08 0.363218 0)
(-6.69726e-08 0.363218 0)
(-9.22201e-08 0.363218 0)
(-9.84847e-08 0.363218 0)
(-1.44134e-07 0.363218 0)
(-1.47409e-07 0.363218 0)
(-2.33621e-07 0.363218 0)
(-2.25578e-07 0.363218 0)
(-3.97659e-07 0.363218 0)
(-3.54172e-07 0.363218 0)
(-7.21049e-07 0.363218 0)
(-5.54794e-07 0.363218 0)
(-1.40665e-06 0.363218 0)
(-6.88683e-07 0.363218 0)
(-2.87396e-06 0.363218 0)
(6.13852e-07 0.363218 0)
(-6.28601e-06 0.363222 0)
(-3.55745e-06 0.363222 0)
(7.11589e-06 0.363284 0)
(-1.5836e-05 0.233476 0)
(-4.27921e-06 0.233419 0)
(6.61234e-06 0.233419 0)
(-7.51843e-07 0.233415 0)
(3.21178e-06 0.233414 0)
(7.97362e-07 0.233415 0)
(1.59017e-06 0.233415 0)
(6.40272e-07 0.233415 0)
(8.19719e-07 0.233415 0)
(4.08556e-07 0.233415 0)
(4.53613e-07 0.233415 0)
(2.59945e-07 0.233415 0)
(2.67052e-07 0.233415 0)
(1.69894e-07 0.233415 0)
(1.65115e-07 0.233415 0)
(1.13484e-07 0.233415 0)
(1.0578e-07 0.233415 0)
(7.69618e-08 0.233415 0)
(6.93568e-08 0.233415 0)
(5.23382e-08 0.233415 0)
(4.58681e-08 0.233415 0)
(3.53896e-08 0.233415 0)
(3.0184e-08 0.233415 0)
(2.33024e-08 0.233415 0)
(1.9081e-08 0.233415 0)
(1.42508e-08 0.233415 0)
(1.08525e-08 0.233415 0)
(7.33249e-09 0.233415 0)
(4.57505e-09 0.233415 0)
(1.54886e-09 0.233415 0)
(-1.26723e-09 0.233415 0)
(-4.44268e-09 0.233415 0)
(-7.35677e-09 0.233415 0)
(-1.10013e-08 0.233415 0)
(-1.43424e-08 0.233415 0)
(-1.90541e-08 0.233415 0)
(-2.32073e-08 0.233415 0)
(-2.99864e-08 0.233415 0)
(-3.51281e-08 0.233415 0)
(-4.56498e-08 0.233415 0)
(-5.21316e-08 0.233415 0)
(-6.93145e-08 0.233415 0)
(-7.70867e-08 0.233415 0)
(-1.05733e-07 0.233415 0)
(-1.13434e-07 0.233415 0)
(-1.65061e-07 0.233415 0)
(-1.69873e-07 0.233415 0)
(-2.67117e-07 0.233415 0)
(-2.60096e-07 0.233415 0)
(-4.5366e-07 0.233415 0)
(-4.08582e-07 0.233415 0)
(-8.19865e-07 0.233415 0)
(-6.4037e-07 0.233415 0)
(-1.59028e-06 0.233415 0)
(-7.97389e-07 0.233415 0)
(-3.21161e-06 0.233414 0)
(7.52134e-07 0.233415 0)
(-6.612e-06 0.233419 0)
(4.27943e-06 0.233419 0)
(1.5836e-05 0.233476 0)
(-2.3811e-05 0.152931 0)
(-1.14919e-05 0.1529 0)
(6.82785e-06 0.152901 0)
(-9.0179e-07 0.152896 0)
(3.53637e-06 0.152896 0)
(9.09377e-07 0.152896 0)
(1.77226e-06 0.152896 0)
(7.28379e-07 0.152896 0)
(9.19002e-07 0.152896 0)
(4.64623e-07 0.152896 0)
(5.10291e-07 0.152896 0)
(2.95517e-07 0.152896 0)
(3.01106e-07 0.152896 0)
(1.93043e-07 0.152896 0)
(1.86473e-07 0.152896 0)
(1.28888e-07 0.152896 0)
(1.19604e-07 0.152896 0)
(8.73671e-08 0.152896 0)
(7.84844e-08 0.152896 0)
(5.93994e-08 0.152896 0)
(5.19397e-08 0.152896 0)
(4.01527e-08 0.152896 0)
(3.41898e-08 0.152896 0)
(2.64347e-08 0.152896 0)
(2.16251e-08 0.152896 0)
(1.61714e-08 0.152896 0)
(1.23056e-08 0.152896 0)
(8.3221e-09 0.152896 0)
(5.18105e-09 0.152896 0)
(1.75024e-09 0.152896 0)
(-1.44275e-09 0.152896 0)
(-5.03563e-09 0.152896 0)
(-8.34715e-09 0.152896 0)
(-1.24646e-08 0.152896 0)
(-1.62694e-08 0.152896 0)
(-2.15936e-08 0.152896 0)
(-2.63253e-08 0.152896 0)
(-3.39714e-08 0.152896 0)
(-3.98661e-08 0.152896 0)
(-5.16947e-08 0.152896 0)
(-5.91717e-08 0.152896 0)
(-7.84388e-08 0.152896 0)
(-8.74969e-08 0.152896 0)
(-1.19551e-07 0.152896 0)
(-1.28834e-07 0.152896 0)
(-1.86412e-07 0.152896 0)
(-1.93022e-07 0.152896 0)
(-3.0118e-07 0.152896 0)
(-2.95679e-07 0.152896 0)
(-5.10347e-07 0.152896 0)
(-4.64657e-07 0.152896 0)
(-9.19165e-07 0.152896 0)
(-7.28491e-07 0.152896 0)
(-1.77238e-06 0.152896 0)
(-9.09408e-07 0.152896 0)
(-3.53619e-06 0.152896 0)
(9.02103e-07 0.152896 0)
(-6.82747e-06 0.152901 0)
(1.14921e-05 0.1529 0)
(2.3811e-05 0.152931 0)
(-3.12426e-05 0.110258 0)
(-1.82804e-05 0.110239 0)
(6.93601e-06 0.110241 0)
(-1.06263e-06 0.110237 0)
(3.84714e-06 0.110237 0)
(1.02445e-06 0.110237 0)
(1.95258e-06 0.110237 0)
(8.18938e-07 0.110237 0)
(1.0187e-06 0.110237 0)
(5.22332e-07 0.110237 0)
(5.67639e-07 0.110237 0)
(3.32152e-07 0.110237 0)
(3.35729e-07 0.110237 0)
(2.16881e-07 0.110237 0)
(2.08258e-07 0.110237 0)
(1.44747e-07 0.110237 0)
(1.33736e-07 0.110237 0)
(9.80751e-08 0.110237 0)
(8.78307e-08 0.110237 0)
(6.66645e-08 0.110237 0)
(5.81647e-08 0.110237 0)
(4.50518e-08 0.110237 0)
(3.82993e-08 0.110237 0)
(2.9656e-08 0.110237 0)
(2.42375e-08 0.110237 0)
(1.81478e-08 0.110237 0)
(1.37991e-08 0.110237 0)
(9.34072e-09 0.110237 0)
(5.80253e-09 0.110237 0)
(1.95604e-09 0.110237 0)
(-1.6247e-09 0.110237 0)
(-5.64468e-09 0.110237 0)
(-9.36568e-09 0.110237 0)
(-1.3967e-08 0.110237 0)
(-1.82511e-08 0.110237 0)
(-2.42007e-08 0.110237 0)
(-2.9532e-08 0.110237 0)
(-3.80609e-08 0.110237 0)
(-4.4741e-08 0.110237 0)
(-5.78935e-08 0.110237 0)
(-6.64167e-08 0.110237 0)
(-8.77819e-08 0.110237 0)
(-9.82079e-08 0.110237 0)
(-1.33677e-07 0.110237 0)
(-1.44688e-07 0.110237 0)
(-2.0819e-07 0.110237 0)
(-2.16862e-07 0.110237 0)
(-3.35811e-07 0.110237 0)
(-3.32326e-07 0.110237 0)
(-5.67703e-07 0.110237 0)
(-5.22375e-07 0.110237 0)
(-1.01888e-06 0.110237 0)
(-8.19063e-07 0.110237 0)
(-1.95272e-06 0.110237 0)
(-1.02449e-06 0.110237 0)
(-3.84696e-06 0.110237 0)
(1.06296e-06 0.110237 0)
(-6.93561e-06 0.110241 0)
(1.82806e-05 0.110239 0)
(3.12427e-05 0.110258 0)
(-3.83808e-05 0.0798796 0)
(-2.48926e-05 0.0798654 0)
(6.94051e-06 0.0798674 0)
(-1.23342e-06 0.0798641 0)
(4.14336e-06 0.0798634 0)
(1.14232e-06 0.0798638 0)
(2.1309e-06 0.0798636 0)
(9.11839e-07 0.0798637 0)
(1.11875e-06 0.0798636 0)
(5.81652e-07 0.0798637 0)
(6.25639e-07 0.0798636 0)
(3.69849e-07 0.0798636 0)
(3.7092e-07 0.0798636 0)
(2.41413e-07 0.0798636 0)
(2.30475e-07 0.0798636 0)
(1.61066e-07 0.0798636 0)
(1.48183e-07 0.0798636 0)
(1.0909e-07 0.0798636 0)
(9.73997e-08 0.0798636 0)
(7.41369e-08 0.0798636 0)
(6.45461e-08 0.0798636 0)
(5.00895e-08 0.0798636 0)
(4.25146e-08 0.0798636 0)
(3.29681e-08 0.0798636 0)
(2.692e-08 0.0798636 0)
(2.01811e-08 0.0798636 0)
(1.53342e-08 0.0798636 0)
(1.0389e-08 0.0798636 0)
(6.43981e-09 0.0798636 0)
(2.16637e-09 0.0798636 0)
(-1.81321e-09 0.0798636 0)
(-6.27022e-09 0.0798636 0)
(-1.0413e-08 0.0798636 0)
(-1.55095e-08 0.0798636 0)
(-2.02887e-08 0.0798636 0)
(-2.68771e-08 0.0798636 0)
(-3.28292e-08 0.0798636 0)
(-4.22569e-08 0.0798636 0)
(-4.97558e-08 0.0798636 0)
(-6.42491e-08 0.0798636 0)
(-7.38699e-08 0.0798636 0)
(-9.73477e-08 0.0798636 0)
(-1.09224e-07 0.0798636 0)
(-1.48117e-07 0.0798636 0)
(-1.61002e-07 0.0798636 0)
(-2.30401e-07 0.0798636 0)
(-2.41397e-07 0.0798636 0)
(-3.71009e-07 0.0798636 0)
(-3.70031e-07 0.0798636 0)
(-6.25713e-07 0.0798636 0)
(-5.81706e-07 0.0798637 0)
(-1.11894e-06 0.0798636 0)
(-9.11979e-07 0.0798637 0)
(-2.13105e-06 0.0798636 0)
(-1.14236e-06 0.0798638 0)
(-4.14317e-06 0.0798634 0)
(1.23376e-06 0.0798641 0)
(-6.94009e-06 0.0798674 0)
(2.48929e-05 0.0798654 0)
(3.83809e-05 0.0798796 0)
(-4.52782e-05 0.0545982 0)
(-3.13781e-05 0.054587 0)
(6.84616e-06 0.0545895 0)
(-1.41298e-06 0.0545868 0)
(4.42433e-06 0.054586 0)
(1.2627e-06 0.0545865 0)
(2.30694e-06 0.0545863 0)
(1.00696e-06 0.0545864 0)
(1.21906e-06 0.0545863 0)
(6.42546e-07 0.0545863 0)
(6.84271e-07 0.0545863 0)
(4.08597e-07 0.0545863 0)
(4.06678e-07 0.0545863 0)
(2.66641e-07 0.0545863 0)
(2.53127e-07 0.0545863 0)
(1.7785e-07 0.0545863 0)
(1.62947e-07 0.0545863 0)
(1.20416e-07 0.0545863 0)
(1.07195e-07 0.0545863 0)
(8.18202e-08 0.0545863 0)
(7.1087e-08 0.0545863 0)
(5.52682e-08 0.0545863 0)
(4.68379e-08 0.0545863 0)
(3.63729e-08 0.0545863 0)
(2.96738e-08 0.0545863 0)
(2.22727e-08 0.0545863 0)
(1.69118e-08 0.0545863 0)
(1.14676e-08 0.0545863 0)
(7.09323e-09 0.0545863 0)
(2.3813e-09 0.0545863 0)
(-2.00843e-09 0.0545863 0)
(-6.91263e-09 0.0545863 0)
(-1.14898e-08 0.0545863 0)
(-1.70928e-08 0.0545863 0)
(-2.23834e-08 0.0545863 0)
(-2.96242e-08 0.0545863 0)
(-3.62187e-08 0.0545863 0)
(-4.65617e-08 0.0545863 0)
(-5.4913e-08 0.0545863 0)
(-7.07645e-08 0.0545863 0)
(-8.15349e-08 0.0545863 0)
(-1.0714e-07 0.0545863 0)
(-1.20549e-07 0.0545863 0)
(-1.62875e-07 0.0545863 0)
(-1.7778e-07 0.0545863 0)
(-2.53046e-07 0.0545863 0)
(-2.66628e-07 0.0545863 0)
(-4.06774e-07 0.0545863 0)
(-4.08788e-07 0.0545863 0)
(-6.84356e-07 0.0545863 0)
(-6.42611e-07 0.0545863 0)
(-1.21927e-06 0.0545863 0)
(-1.00712e-06 0.0545864 0)
(-2.3071e-06 0.0545863 0)
(-1.26274e-06 0.0545865 0)
(-4.42414e-06 0.054586 0)
(1.41334e-06 0.0545868 0)
(-6.84572e-06 0.0545895 0)
(3.13784e-05 0.054587 0)
(4.52783e-05 0.0545982 0)
(-5.19293e-05 0.0338607 0)
(-3.77279e-05 0.033852 0)
(6.65865e-06 0.033855 0)
(-1.59981e-06 0.0338531 0)
(4.6894e-06 0.0338522 0)
(1.38531e-06 0.0338528 0)
(2.48044e-06 0.0338526 0)
(1.10417e-06 0.0338527 0)
(1.31954e-06 0.0338526 0)
(7.0497e-07 0.0338526 0)
(7.43512e-07 0.0338526 0)
(4.48388e-07 0.0338526 0)
(4.42998e-07 0.0338525 0)
(2.92565e-07 0.0338525 0)
(2.76217e-07 0.0338525 0)
(1.95101e-07 0.0338525 0)
(1.78033e-07 0.0338525 0)
(1.32057e-07 0.0338525 0)
(1.1722e-07 0.0338525 0)
(8.97173e-08 0.0338525 0)
(7.77901e-08 0.0338525 0)
(6.05907e-08 0.0338525 0)
(5.12714e-08 0.0338525 0)
(3.98723e-08 0.0338525 0)
(3.25006e-08 0.0338525 0)
(2.44237e-08 0.0338525 0)
(1.85327e-08 0.0338525 0)
(1.25771e-08 0.0338525 0)
(7.76313e-09 0.0338525 0)
(2.60093e-09 0.0338525 0)
(-2.21049e-09 0.0338525 0)
(-7.57228e-09 0.0338525 0)
(-1.25967e-08 0.0338525 0)
(-1.8718e-08 0.0338525 0)
(-2.45365e-08 0.0338525 0)
(-3.24437e-08 0.0338525 0)
(-3.97024e-08 0.0338525 0)
(-5.09775e-08 0.0338525 0)
(-6.02153e-08 0.0338525 0)
(-7.74429e-08 0.0338525 0)
(-8.94149e-08 0.0338525 0)
(-1.17162e-07 0.0338525 0)
(-1.32187e-07 0.0338525 0)
(-1.77954e-07 0.0338525 0)
(-1.95026e-07 0.0338525 0)
(-2.7613e-07 0.0338525 0)
(-2.92556e-07 0.0338525 0)
(-4.43101e-07 0.0338525 0)
(-4.48586e-07 0.0338526 0)
(-7.43608e-07 0.0338526 0)
(-7.05046e-07 0.0338526 0)
(-1.31977e-06 0.0338526 0)
(-1.10434e-06 0.0338527 0)
(-2.48061e-06 0.0338526 0)
(-1.38536e-06 0.0338528 0)
(-4.68921e-06 0.0338522 0)
(1.60018e-06 0.0338531 0)
(-6.6582e-06 0.033855 0)
(3.77282e-05 0.033852 0)
(5.19294e-05 0.0338607 0)
(-5.83433e-05 0.0169907 0)
(-4.3947e-05 0.0169837 0)
(6.38445e-06 0.0169872 0)
(-1.792e-06 0.0169862 0)
(4.93795e-06 0.0169852 0)
(1.50986e-06 0.0169859 0)
(2.6511e-06 0.0169856 0)
(1.20331e-06 0.0169857 0)
(1.42011e-06 0.0169856 0)
(7.6887e-07 0.0169856 0)
(8.03332e-07 0.0169856 0)
(4.89207e-07 0.0169856 0)
(4.79876e-07 0.0169856 0)
(3.19184e-07 0.0169856 0)
(2.99746e-07 0.0169856 0)
(2.12823e-07 0.0169856 0)
(1.93444e-07 0.0169856 0)
(1.44016e-07 0.0169856 0)
(1.27479e-07 0.0169856 0)
(9.78315e-08 0.0169856 0)
(8.46584e-08 0.0169856 0)
(6.60592e-08 0.0169856 0)
(5.58171e-08 0.0169856 0)
(4.34679e-08 0.0169856 0)
(3.54018e-08 0.0169856 0)
(2.66354e-08 0.0169856 0)
(2.01981e-08 0.0169856 0)
(1.37181e-08 0.0169856 0)
(8.44984e-09 0.0169856 0)
(2.82538e-09 0.0169856 0)
(-2.41953e-09 0.0169856 0)
(-8.24956e-09 0.0169856 0)
(-1.37343e-08 0.0169856 0)
(-2.03857e-08 0.0169856 0)
(-2.6749e-08 0.0169856 0)
(-3.53369e-08 0.0169856 0)
(-4.32821e-08 0.0169856 0)
(-5.55064e-08 0.0169856 0)
(-6.56651e-08 0.0169856 0)
(-8.42869e-08 0.0169856 0)
(-9.7513e-08 0.0169856 0)
(-1.27417e-07 0.0169856 0)
(-1.44141e-07 0.0169856 0)
(-1.93359e-07 0.0169856 0)
(-2.12742e-07 0.0169856 0)
(-2.99653e-07 0.0169856 0)
(-3.19179e-07 0.0169856 0)
(-4.79986e-07 0.0169856 0)
(-4.89411e-07 0.0169856 0)
(-8.0344e-07 0.0169856 0)
(-7.68959e-07 0.0169856 0)
(-1.42035e-06 0.0169856 0)
(-1.20349e-06 0.0169857 0)
(-2.65128e-06 0.0169856 0)
(-1.50991e-06 0.0169859 0)
(-4.93776e-06 0.0169852 0)
(1.79237e-06 0.0169862 0)
(-6.38398e-06 0.0169872 0)
(4.39473e-05 0.0169837 0)
(5.83434e-05 0.0169907 0)
(-6.45388e-05 0.00284007 0)
(-5.00496e-05 0.00283373 0)
(6.03081e-06 0.00283785 0)
(-1.98718e-06 0.00283785 0)
(5.16944e-06 0.00283679 0)
(1.63605e-06 0.00283763 0)
(2.81863e-06 0.00283729 0)
(1.30421e-06 0.00283743 0)
(1.52064e-06 0.0028373 0)
(8.34185e-07 0.00283733 0)
(8.637e-07 0.00283728 0)
(5.31035e-07 0.00283728 0)
(5.17304e-07 0.00283726 0)
(3.46494e-07 0.00283726 0)
(3.23716e-07 0.00283725 0)
(2.31016e-07 0.00283725 0)
(2.09184e-07 0.00283724 0)
(1.56296e-07 0.00283724 0)
(1.37974e-07 0.00283724 0)
(1.06165e-07 0.00283724 0)
(9.16944e-08 0.00283723 0)
(7.16762e-08 0.00283723 0)
(6.04773e-08 0.00283723 0)
(4.71614e-08 0.00283723 0)
(3.83788e-08 0.00283723 0)
(2.89089e-08 0.00283723 0)
(2.19087e-08 0.00283723 0)
(1.48913e-08 0.00283723 0)
(9.15371e-09 0.00283723 0)
(3.05475e-09 0.00283723 0)
(-2.63567e-09 0.00283723 0)
(-8.94487e-09 0.00283723 0)
(-1.49033e-08 0.00283723 0)
(-2.2097e-08 0.00283723 0)
(-2.90223e-08 0.00283723 0)
(-3.83055e-08 0.00283723 0)
(-4.69594e-08 0.00283723 0)
(-6.01507e-08 0.00283723 0)
(-7.12648e-08 0.00283723 0)
(-9.12995e-08 0.00283723 0)
(-1.05832e-07 0.00283724 0)
(-1.37909e-07 0.00283724 0)
(-1.56414e-07 0.00283724 0)
(-2.09091e-07 0.00283724 0)
(-2.3093e-07 0.00283725 0)
(-3.23618e-07 0.00283725 0)
(-3.46495e-07 0.00283726 0)
(-5.17421e-07 0.00283726 0)
(-5.31244e-07 0.00283728 0)
(-8.6382e-07 0.00283728 0)
(-8.34288e-07 0.00283733 0)
(-1.52089e-06 0.0028373 0)
(-1.3044e-06 0.00283743 0)
(-2.81882e-06 0.00283729 0)
(-1.63611e-06 0.00283763 0)
(-5.16926e-06 0.00283679 0)
(1.98756e-06 0.00283785 0)
(-6.03034e-06 0.00283785 0)
(5.00499e-05 0.00283373 0)
(6.45389e-05 0.00284007 0)
(-7.05314e-05 -0.00968316 0)
(-5.60465e-05 -0.00968944 0)
(5.60589e-06 -0.00968471 0)
(-2.18248e-06 -0.00968352 0)
(5.38338e-06 -0.00968467 0)
(1.76358e-06 -0.00968369 0)
(2.98272e-06 -0.00968408 0)
(1.40668e-06 -0.00968392 0)
(1.62103e-06 -0.00968406 0)
(9.00846e-07 -0.00968404 0)
(9.24578e-07 -0.0096841 0)
(5.73849e-07 -0.00968409 0)
(5.55273e-07 -0.00968412 0)
(3.7449e-07 -0.00968412 0)
(3.48125e-07 -0.00968413 0)
(2.49682e-07 -0.00968413 0)
(2.25254e-07 -0.00968414 0)
(1.68899e-07 -0.00968414 0)
(1.48708e-07 -0.00968414 0)
(1.14722e-07 -0.00968414 0)
(9.89007e-08 -0.00968415 0)
(7.74437e-08 -0.00968415 0)
(6.52538e-08 -0.00968415 0)
(5.09547e-08 -0.00968415 0)
(4.14332e-08 -0.00968415 0)
(3.12455e-08 -0.00968415 0)
(2.36656e-08 -0.00968415 0)
(1.60972e-08 -0.00968415 0)
(9.87508e-09 -0.00968415 0)
(3.28916e-09 -0.00968415 0)
(-2.85903e-09 -0.00968415 0)
(-9.65864e-09 -0.00968415 0)
(-1.61042e-08 -0.00968415 0)
(-2.38527e-08 -0.00968415 0)
(-3.13574e-08 -0.00968415 0)
(-4.13509e-08 -0.00968415 0)
(-5.07361e-08 -0.00968415 0)
(-6.49122e-08 -0.00968415 0)
(-7.70167e-08 -0.00968415 0)
(-9.84833e-08 -0.00968414 0)
(-1.14375e-07 -0.00968414 0)
(-1.4864e-07 -0.00968414 0)
(-1.69008e-07 -0.00968414 0)
(-2.25154e-07 -0.00968414 0)
(-2.4959e-07 -0.00968413 0)
(-3.48022e-07 -0.00968413 0)
(-3.74497e-07 -0.00968412 0)
(-5.55396e-07 -0.00968412 0)
(-5.74062e-07 -0.00968409 0)
(-9.24711e-07 -0.0096841 0)
(-9.00963e-07 -0.00968404 0)
(-1.6213e-06 -0.00968406 0)
(-1.40689e-06 -0.00968392 0)
(-2.98292e-06 -0.00968408 0)
(-1.76364e-06 -0.00968369 0)
(-5.38321e-06 -0.00968467 0)
(2.18285e-06 -0.00968352 0)
(-5.60542e-06 -0.00968471 0)
(5.60468e-05 -0.00968944 0)
(7.05315e-05 -0.00968316 0)
(-7.63302e-05 -0.0215723 0)
(-6.19414e-05 -0.0215788 0)
(5.11873e-06 -0.0215735 0)
(-2.37444e-06 -0.021571 0)
(5.57937e-06 -0.0215722 0)
(1.89215e-06 -0.021571 0)
(3.14303e-06 -0.0215715 0)
(1.51053e-06 -0.0215713 0)
(1.72114e-06 -0.0215715 0)
(9.68773e-07 -0.0215714 0)
(9.85922e-07 -0.0215715 0)
(6.17622e-07 -0.0215715 0)
(5.93771e-07 -0.0215715 0)
(4.03166e-07 -0.0215715 0)
(3.72973e-07 -0.0215715 0)
(2.68821e-07 -0.0215715 0)
(2.41656e-07 -0.0215715 0)
(1.81828e-07 -0.0215716 0)
(1.59685e-07 -0.0215716 0)
(1.23503e-07 -0.0215716 0)
(1.0628e-07 -0.0215716 0)
(8.33639e-08 -0.0215716 0)
(7.01487e-08 -0.0215716 0)
(5.48492e-08 -0.0215716 0)
(4.45662e-08 -0.0215716 0)
(3.36462e-08 -0.0215716 0)
(2.54697e-08 -0.0215716 0)
(1.73366e-08 -0.0215716 0)
(1.06143e-08 -0.0215716 0)
(3.52868e-09 -0.0215716 0)
(-3.08973e-09 -0.0215716 0)
(-1.03912e-08 -0.0215716 0)
(-1.73378e-08 -0.0215716 0)
(-2.56534e-08 -0.0215716 0)
(-3.37556e-08 -0.0215716 0)
(-4.44745e-08 -0.0215716 0)
(-5.46138e-08 -0.0215716 0)
(-6.97932e-08 -0.0215716 0)
(-8.2923e-08 -0.0215716 0)
(-1.05841e-07 -0.0215716 0)
(-1.23143e-07 -0.0215716 0)
(-1.59614e-07 -0.0215716 0)
(-1.81926e-07 -0.0215716 0)
(-2.41548e-07 -0.0215715 0)
(-2.68723e-07 -0.0215715 0)
(-3.72865e-07 -0.0215715 0)
(-4.0318e-07 -0.0215715 0)
(-5.93899e-07 -0.0215715 0)
(-6.17839e-07 -0.0215715 0)
(-9.86069e-07 -0.0215715 0)
(-9.68905e-07 -0.0215714 0)
(-1.72143e-06 -0.0215715 0)
(-1.51076e-06 -0.0215713 0)
(-3.14324e-06 -0.0215715 0)
(-1.89223e-06 -0.021571 0)
(-5.5792e-06 -0.0215722 0)
(2.37481e-06 -0.021571 0)
(-5.11827e-06 -0.0215735 0)
(6.19417e-05 -0.0215788 0)
(7.63303e-05 -0.0215723 0)
(-8.19364e-05 -0.0338503 0)
(-6.77299e-05 -0.0338569 0)
(4.57935e-06 -0.0338509 0)
(-2.55899e-06 -0.0338469 0)
(5.75706e-06 -0.0338482 0)
(2.02149e-06 -0.0338469 0)
(3.29924e-06 -0.0338474 0)
(1.61553e-06 -0.0338472 0)
(1.82085e-06 -0.0338474 0)
(1.03788e-06 -0.0338473 0)
(1.04769e-06 -0.0338474 0)
(6.62324e-07 -0.0338474 0)
(6.32781e-07 -0.0338474 0)
(4.32511e-07 -0.0338474 0)
(3.98256e-07 -0.0338474 0)
(2.8843e-07 -0.0338474 0)
(2.58392e-07 -0.0338475 0)
(1.95084e-07 -0.0338475 0)
(1.70906e-07 -0.0338475 0)
(1.32511e-07 -0.0338475 0)
(1.13834e-07 -0.0338475 0)
(8.94388e-08 -0.0338475 0)
(7.51638e-08 -0.0338475 0)
(5.88467e-08 -0.0338475 0)
(4.77792e-08 -0.0338475 0)
(3.61121e-08 -0.0338475 0)
(2.7322e-08 -0.0338475 0)
(1.86098e-08 -0.0338475 0)
(1.13715e-08 -0.0338475 0)
(3.77338e-09 -0.0338475 0)
(-3.32787e-09 -0.0338475 0)
(-1.11429e-08 -0.0338475 0)
(-1.86046e-08 -0.0338475 0)
(-2.75002e-08 -0.0338475 0)
(-3.62179e-08 -0.0338475 0)
(-4.76779e-08 -0.0338475 0)
(-5.85942e-08 -0.0338475 0)
(-7.47954e-08 -0.0338475 0)
(-8.89858e-08 -0.0338475 0)
(-1.13374e-07 -0.0338475 0)
(-1.3214e-07 -0.0338475 0)
(-1.70831e-07 -0.0338475 0)
(-1.95168e-07 -0.0338475 0)
(-2.58276e-07 -0.0338475 0)
(-2.88327e-07 -0.0338474 0)