/*--------------------------------*- C++ -*----------------------------------*\
| =========                 |                                                 |
| \\      /  F ield         | foam-extend: Open Source CFD                    |
|  \\    /   O peration     | Version:     4.0                                |
|   \\  /    A nd           | Web:         http://www.foam-extend.org         |
|    \\/     M anipulation  |                                                 |
\*---------------------------------------------------------------------------*/
FoamFile
{
    version     2.0;
    format      ascii;
    class       volScalarField;
    location    "180";
    object      cMinus;
}
// * * * * * * * * * * * * * * * * * * * * * * * * * * * * * * * * * * * * * //

dimensions      [0 0 0 0 0 0 0];

internalField   nonuniform List<scalar> 
6960
(
0.000339777
0.000340184
0.00034029
0.000340351
0.000340398
0.000340436
0.00034047
0.000340499
0.000340525
0.000340549
0.000340571
0.000340591
0.000340609
0.000340627
0.000340643
0.000340658
0.000340672
0.000340685
0.000340696
0.000340707
0.000340717
0.000340726
0.000340733
0.00034074
0.000340746
0.000340751
0.000340755
0.000340757
0.000340759
0.00034076
0.00034076
0.000340759
0.000340757
0.000340755
0.000340751
0.000340746
0.00034074
0.000340733
0.000340726
0.000340717
0.000340707
0.000340696
0.000340685
0.000340672
0.000340658
0.000340643
0.000340627
0.000340609
0.000340591
0.000340571
0.000340549
0.000340525
0.000340499
0.00034047
0.000340436
0.000340398
0.000340351
0.00034029
0.000340184
0.000339777
0.00157393
0.00157596
0.00157645
0.00157671
0.0015769
0.00157706
0.0015772
0.00157732
0.00157743
0.00157752
0.00157761
0.00157769
0.00157777
0.00157784
0.0015779
0.00157796
0.00157802
0.00157807
0.00157812
0.00157816
0.0015782
0.00157824
0.00157827
0.0015783
0.00157832
0.00157834
0.00157836
0.00157837
0.00157838
0.00157838
0.00157838
0.00157838
0.00157837
0.00157836
0.00157834
0.00157832
0.0015783
0.00157827
0.00157824
0.0015782
0.00157816
0.00157812
0.00157807
0.00157802
0.00157796
0.0015779
0.00157784
0.00157777
0.00157769
0.00157761
0.00157752
0.00157743
0.00157732
0.0015772
0.00157706
0.0015769
0.00157671
0.00157645
0.00157596
0.00157393
0.00466325
0.00466947
0.00467091
0.00467161
0.00467212
0.00467254
0.0046729
0.00467321
0.00467348
0.00467373
0.00467396
0.00467417
0.00467437
0.00467455
0.00467472
0.00467488
0.00467502
0.00467516
0.00467528
0.00467539
0.0046755
0.00467559
0.00467567
0.00467574
0.0046758
0.00467585
0.00467589
0.00467592
0.00467594
0.00467595
0.00467595
0.00467594
0.00467592
0.00467589
0.00467585
0.0046758
0.00467574
0.00467567
0.00467559
0.0046755
0.00467539
0.00467528
0.00467516
0.00467502
0.00467488
0.00467472
0.00467455
0.00467437
0.00467417
0.00467396
0.00467373
0.00467348
0.00467321
0.0046729
0.00467254
0.00467212
0.00467161
0.00467091
0.00466947
0.00466325
0.0113716
0.0113869
0.0113902
0.0113918
0.0113928
0.0113937
0.0113944
0.0113951
0.0113957
0.0113962
0.0113967
0.0113971
0.0113975
0.0113979
0.0113982
0.0113986
0.0113989
0.0113991
0.0113994
0.0113996
0.0113998
0.0114
0.0114002
0.0114003
0.0114005
0.0114006
0.0114006
0.0114007
0.0114008
0.0114008
0.0114008
0.0114008
0.0114007
0.0114006
0.0114006
0.0114005
0.0114003
0.0114002
0.0114
0.0113998
0.0113996
0.0113994
0.0113991
0.0113989
0.0113986
0.0113982
0.0113979
0.0113975
0.0113971
0.0113967
0.0113962
0.0113957
0.0113951
0.0113944
0.0113937
0.0113928
0.0113918
0.0113902
0.0113869
0.0113716
0.0240379
0.0240693
0.0240759
0.0240787
0.0240806
0.0240821
0.0240834
0.0240845
0.0240855
0.0240864
0.0240873
0.024088
0.0240887
0.0240894
0.02409
0.0240905
0.0240911
0.0240915
0.024092
0.0240924
0.0240928
0.0240931
0.0240934
0.0240936
0.0240939
0.024094
0.0240942
0.0240943
0.0240944
0.0240944
0.0240944
0.0240944
0.0240943
0.0240942
0.024094
0.0240939
0.0240936
0.0240934
0.0240931
0.0240928
0.0240924
0.024092
0.0240915
0.0240911
0.0240905
0.02409
0.0240894
0.0240887
0.024088
0.0240873
0.0240864
0.0240855
0.0240845
0.0240834
0.0240821
0.0240806
0.0240787
0.0240759
0.0240693
0.0240379
0.0447494
0.0448044
0.0448157
0.04482
0.0448229
0.0448252
0.0448271
0.0448287
0.0448302
0.0448315
0.0448327
0.0448339
0.0448349
0.0448359
0.0448368
0.0448376
0.0448384
0.0448391
0.0448397
0.0448403
0.0448409
0.0448413
0.0448418
0.0448421
0.0448425
0.0448427
0.0448429
0.0448431
0.0448432
0.0448433
0.0448433
0.0448432
0.0448431
0.0448429
0.0448427
0.0448425
0.0448421
0.0448418
0.0448413
0.0448409
0.0448403
0.0448397
0.0448391
0.0448384
0.0448376
0.0448368
0.0448359
0.0448349
0.0448339
0.0448327
0.0448315
0.0448302
0.0448287
0.0448271
0.0448252
0.0448229
0.04482
0.0448157
0.0448044
0.0447494
0.0741467
0.0742304
0.0742471
0.074253
0.0742568
0.0742597
0.0742621
0.0742642
0.0742661
0.0742678
0.0742693
0.0742708
0.0742721
0.0742733
0.0742744
0.0742755
0.0742765
0.0742774
0.0742782
0.074279
0.0742796
0.0742803
0.0742808
0.0742813
0.0742817
0.074282
0.0742823
0.0742825
0.0742826
0.0742827
0.0742827
0.0742826
0.0742825
0.0742823
0.074282
0.0742817
0.0742813
0.0742808
0.0742803
0.0742796
0.074279
0.0742782
0.0742774
0.0742765
0.0742755
0.0742744
0.0742733
0.0742721
0.0742708
0.0742693
0.0742678
0.0742661
0.0742642
0.0742621
0.0742597
0.0742568
0.074253
0.0742471
0.0742304
0.0741467
0.110844
0.110957
0.110979
0.110986
0.110991
0.110994
0.110997
0.110999
0.111001
0.111003
0.111005
0.111006
0.111008
0.111009
0.111011
0.111012
0.111013
0.111014
0.111015
0.111016
0.111016
0.111017
0.111018
0.111018
0.111019
0.111019
0.111019
0.11102
0.11102
0.11102
0.11102
0.11102
0.11102
0.111019
0.111019
0.111019
0.111018
0.111018
0.111017
0.111016
0.111016
0.111015
0.111014
0.111013
0.111012
0.111011
0.111009
0.111008
0.111006
0.111005
0.111003
0.111001
0.110999
0.110997
0.110994
0.110991
0.110986
0.110979
0.110957
0.110844
0.152099
0.152239
0.152265
0.152273
0.152278
0.152281
0.152284
0.152287
0.152289
0.152291
0.152292
0.152294
0.152296
0.152297
0.152298
0.152299
0.152301
0.152302
0.152303
0.152303
0.152304
0.152305
0.152305
0.152306
0.152306
0.152307
0.152307
0.152307
0.152308
0.152308
0.152308
0.152308
0.152307
0.152307
0.152307
0.152306
0.152306
0.152305
0.152305
0.152304
0.152303
0.152303
0.152302
0.152301
0.152299
0.152298
0.152297
0.152296
0.152294
0.152292
0.152291
0.152289
0.152287
0.152284
0.152281
0.152278
0.152273
0.152265
0.152239
0.152099
0.195129
0.195291
0.195322
0.19533
0.195335
0.195338
0.195341
0.195343
0.195345
0.195347
0.195349
0.19535
0.195352
0.195353
0.195354
0.195355
0.195356
0.195357
0.195358
0.195359
0.19536
0.19536
0.195361
0.195362
0.195362
0.195362
0.195363
0.195363
0.195363
0.195363
0.195363
0.195363
0.195363
0.195363
0.195362
0.195362
0.195362
0.195361
0.19536
0.19536
0.195359
0.195358
0.195357
0.195356
0.195355
0.195354
0.195353
0.195352
0.19535
0.195349
0.195347
0.195345
0.195343
0.195341
0.195338
0.195335
0.19533
0.195322
0.195291
0.195129
0.238002
0.238184
0.238218
0.238227
0.238231
0.238234
0.238237
0.238239
0.238241
0.238242
0.238244
0.238245
0.238247
0.238248
0.238249
0.23825
0.238251
0.238252
0.238253
0.238253
0.238254
0.238255
0.238255
0.238256
0.238256
0.238256
0.238257
0.238257
0.238257
0.238257
0.238257
0.238257
0.238257
0.238257
0.238256
0.238256
0.238256
0.238255
0.238255
0.238254
0.238253
0.238253
0.238252
0.238251
0.23825
0.238249
0.238248
0.238247
0.238245
0.238244
0.238242
0.238241
0.238239
0.238237
0.238234
0.238231
0.238227
0.238218
0.238184
0.238002
0.279749
0.279947
0.279985
0.279994
0.279998
0.28
0.280003
0.280005
0.280006
0.280008
0.280009
0.28001
0.280012
0.280013
0.280014
0.280015
0.280016
0.280016
0.280017
0.280018
0.280018
0.280019
0.280019
0.28002
0.28002
0.28002
0.280021
0.280021
0.280021
0.280021
0.280021
0.280021
0.280021
0.280021
0.28002
0.28002
0.28002
0.280019
0.280019
0.280018
0.280018
0.280017
0.280016
0.280016
0.280015
0.280014
0.280013
0.280012
0.28001
0.280009
0.280008
0.280006
0.280005
0.280003
0.28
0.279998
0.279994
0.279985
0.279947
0.279749
0.320035
0.320249
0.320289
0.320298
0.320302
0.320305
0.320307
0.320309
0.32031
0.320312
0.320313
0.320314
0.320315
0.320316
0.320317
0.320318
0.320318
0.320319
0.32032
0.32032
0.320321
0.320321
0.320322
0.320322
0.320322
0.320323
0.320323
0.320323
0.320323
0.320323
0.320323
0.320323
0.320323
0.320323
0.320323
0.320322
0.320322
0.320322
0.320321
0.320321
0.32032
0.32032
0.320319
0.320318
0.320318
0.320317
0.320316
0.320315
0.320314
0.320313
0.320312
0.32031
0.320309
0.320307
0.320305
0.320302
0.320298
0.320289
0.320249
0.320035
0.358823
0.359051
0.359094
0.359103
0.359107
0.359109
0.359111
0.359113
0.359114
0.359115
0.359116
0.359117
0.359118
0.359119
0.35912
0.359121
0.359121
0.359122
0.359122
0.359123
0.359124
0.359124
0.359124
0.359125
0.359125
0.359125
0.359125
0.359126
0.359126
0.359126
0.359126
0.359126
0.359126
0.359125
0.359125
0.359125
0.359125
0.359124
0.359124
0.359124
0.359123
0.359122
0.359122
0.359121
0.359121
0.35912
0.359119
0.359118
0.359117
0.359116
0.359115
0.359114
0.359113
0.359111
0.359109
0.359107
0.359103
0.359094
0.359051
0.358823
0.39616
0.396401
0.396447
0.396457
0.39646
0.396462
0.396464
0.396465
0.396467
0.396468
0.396469
0.39647
0.39647
0.396471
0.396472
0.396472
0.396473
0.396474
0.396474
0.396475
0.396475
0.396475
0.396476
0.396476
0.396476
0.396477
0.396477
0.396477
0.396477
0.396477
0.396477
0.396477
0.396477
0.396477
0.396477
0.396476
0.396476
0.396476
0.396475
0.396475
0.396475
0.396474
0.396474
0.396473
0.396472
0.396472
0.396471
0.39647
0.39647
0.396469
0.396468
0.396467
0.396465
0.396464
0.396462
0.39646
0.396457
0.396447
0.396401
0.39616
0.4321
0.432352
0.4324
0.432411
0.432414
0.432416
0.432417
0.432419
0.43242
0.432421
0.432422
0.432422
0.432423
0.432424
0.432424
0.432425
0.432425
0.432426
0.432426
0.432427
0.432427
0.432428
0.432428
0.432428
0.432428
0.432429
0.432429
0.432429
0.432429
0.432429
0.432429
0.432429
0.432429
0.432429
0.432429
0.432428
0.432428
0.432428
0.432428
0.432427
0.432427
0.432426
0.432426
0.432425
0.432425
0.432424
0.432424
0.432423
0.432422
0.432422
0.432421
0.43242
0.432419
0.432417
0.432416
0.432414
0.432411
0.4324
0.432352
0.4321
0.466675
0.466937
0.466989
0.466999
0.467002
0.467004
0.467005
0.467007
0.467008
0.467008
0.467009
0.46701
0.467011
0.467011
0.467012
0.467012
0.467013
0.467013
0.467014
0.467014
0.467014
0.467015
0.467015
0.467015
0.467015
0.467015
0.467016
0.467016
0.467016
0.467016
0.467016
0.467016
0.467016
0.467016
0.467015
0.467015
0.467015
0.467015
0.467015
0.467014
0.467014
0.467014
0.467013
0.467013
0.467012
0.467012
0.467011
0.467011
0.46701
0.467009
0.467008
0.467008
0.467007
0.467005
0.467004
0.467002
0.466999
0.466989
0.466937
0.466675
0.499905
0.500176
0.50023
0.500241
0.500244
0.500246
0.500247
0.500248
0.500249
0.50025
0.500251
0.500251
0.500252
0.500252
0.500253
0.500253
0.500254
0.500254
0.500255
0.500255
0.500255
0.500255
0.500256
0.500256
0.500256
0.500256
0.500256
0.500256
0.500256
0.500257
0.500257
0.500256
0.500256
0.500256
0.500256
0.500256
0.500256
0.500256
0.500255
0.500255
0.500255
0.500255
0.500254
0.500254
0.500253
0.500253
0.500252
0.500252
0.500251
0.500251
0.50025
0.500249
0.500248
0.500247
0.500246
0.500244
0.500241
0.50023
0.500176
0.499905
0.5318
0.532079
0.532136
0.532147
0.53215
0.532152
0.532153
0.532154
0.532155
0.532155
0.532156
0.532157
0.532157
0.532158
0.532158
0.532158
0.532159
0.532159
0.532159
0.53216
0.53216
0.53216
0.53216
0.532161
0.532161
0.532161
0.532161
0.532161
0.532161
0.532161
0.532161
0.532161
0.532161
0.532161
0.532161
0.532161
0.532161
0.53216
0.53216
0.53216
0.53216
0.532159
0.532159
0.532159
0.532158
0.532158
0.532158
0.532157
0.532157
0.532156
0.532155
0.532155
0.532154
0.532153
0.532152
0.53215
0.532147
0.532136
0.532079
0.5318
0.562367
0.562652
0.562712
0.562724
0.562727
0.562728
0.562729
0.56273
0.562731
0.562731
0.562732
0.562732
0.562733
0.562733
0.562733
0.562734
0.562734
0.562735
0.562735
0.562735
0.562735
0.562736
0.562736
0.562736
0.562736
0.562736
0.562736
0.562736
0.562736
0.562736
0.562736
0.562736
0.562736
0.562736
0.562736
0.562736
0.562736
0.562736
0.562736
0.562735
0.562735
0.562735
0.562735
0.562734
0.562734
0.562733
0.562733
0.562733
0.562732
0.562732
0.562731
0.562731
0.56273
0.562729
0.562728
0.562727
0.562724
0.562712
0.562652
0.562367
0.591611
0.591902
0.591964
0.591976
0.591979
0.59198
0.591981
0.591982
0.591983
0.591983
0.591984
0.591984
0.591984
0.591985
0.591985
0.591986
0.591986
0.591986
0.591986
0.591987
0.591987
0.591987
0.591987
0.591987
0.591987
0.591988
0.591988
0.591988
0.591988
0.591988
0.591988
0.591988
0.591988
0.591988
0.591988
0.591987
0.591987
0.591987
0.591987
0.591987
0.591987
0.591986
0.591986
0.591986
0.591986
0.591985
0.591985
0.591984
0.591984
0.591984
0.591983
0.591983
0.591982
0.591981
0.59198
0.591979
0.591976
0.591964
0.591902
0.591611
0.61954
0.619835
0.619899
0.619912
0.619915
0.619916
0.619917
0.619917
0.619918
0.619918
0.619919
0.619919
0.61992
0.61992
0.61992
0.619921
0.619921
0.619921
0.619921
0.619921
0.619922
0.619922
0.619922
0.619922
0.619922
0.619922
0.619922
0.619922
0.619922
0.619923
0.619923
0.619922
0.619922
0.619922
0.619922
0.619922
0.619922
0.619922
0.619922
0.619922
0.619921
0.619921
0.619921
0.619921
0.619921
0.61992
0.61992
0.61992
0.619919
0.619919
0.619918
0.619918
0.619917
0.619917
0.619916
0.619915
0.619912
0.619899
0.619835
0.61954
0.646163
0.646461
0.646527
0.64654
0.646543
0.646544
0.646545
0.646545
0.646546
0.646546
0.646547
0.646547
0.646547
0.646548
0.646548
0.646548
0.646548
0.646549
0.646549
0.646549
0.646549
0.646549
0.64655
0.64655
0.64655
0.64655
0.64655
0.64655
0.64655
0.64655
0.64655
0.64655
0.64655
0.64655
0.64655
0.64655
0.64655
0.64655
0.646549
0.646549
0.646549
0.646549
0.646549
0.646548
0.646548
0.646548
0.646548
0.646547
0.646547
0.646547
0.646546
0.646546
0.646545
0.646545
0.646544
0.646543
0.64654
0.646527
0.646461
0.646163
0.671492
0.671792
0.671859
0.671873
0.671876
0.671877
0.671878
0.671878
0.671879
0.671879
0.671879
0.67188
0.67188
0.67188
0.671881
0.671881
0.671881
0.671881
0.671881
0.671881
0.671882
0.671882
0.671882
0.671882
0.671882
0.671882
0.671882
0.671882
0.671882
0.671882
0.671882
0.671882
0.671882
0.671882
0.671882
0.671882
0.671882
0.671882
0.671882
0.671882
0.671881
0.671881
0.671881
0.671881
0.671881
0.671881
0.67188
0.67188
0.67188
0.671879
0.671879
0.671879
0.671878
0.671878
0.671877
0.671876
0.671873
0.671859
0.671792
0.671492
0.695542
0.695843
0.695912
0.695926
0.695929
0.69593
0.695931
0.695931
0.695932
0.695932
0.695932
0.695933
0.695933
0.695933
0.695933
0.695933
0.695934
0.695934
0.695934
0.695934
0.695934
0.695934
0.695934
0.695935
0.695935
0.695935
0.695935
0.695935
0.695935
0.695935
0.695935
0.695935
0.695935
0.695935
0.695935
0.695935
0.695935
0.695934
0.695934
0.695934
0.695934
0.695934
0.695934
0.695934
0.695933
0.695933
0.695933
0.695933
0.695933
0.695932
0.695932
0.695932
0.695931
0.695931
0.69593
0.695929
0.695926
0.695912
0.695843
0.695542
0.718332
0.718632
0.718703
0.718718
0.718721
0.718722
0.718722
0.718723
0.718723
0.718723
0.718724
0.718724
0.718724
0.718724
0.718725
0.718725
0.718725
0.718725
0.718725
0.718725
0.718725
0.718726
0.718726
0.718726
0.718726
0.718726
0.718726
0.718726
0.718726
0.718726
0.718726
0.718726
0.718726
0.718726
0.718726
0.718726
0.718726
0.718726
0.718726
0.718725
0.718725
0.718725
0.718725
0.718725
0.718725
0.718725
0.718724
0.718724
0.718724
0.718724
0.718723
0.718723
0.718723
0.718722
0.718722
0.718721
0.718718
0.718703
0.718632
0.718332
0.739884
0.740183
0.740255
0.74027
0.740273
0.740274
0.740275
0.740275
0.740275
0.740275
0.740276
0.740276
0.740276
0.740276
0.740276
0.740277
0.740277
0.740277
0.740277
0.740277
0.740277
0.740277
0.740277
0.740277
0.740277
0.740278
0.740278
0.740278
0.740278
0.740278
0.740278
0.740278
0.740278
0.740278
0.740278
0.740277
0.740277
0.740277
0.740277
0.740277
0.740277
0.740277
0.740277
0.740277
0.740277
0.740276
0.740276
0.740276
0.740276
0.740276
0.740275
0.740275
0.740275
0.740275
0.740274
0.740273
0.74027
0.740255
0.740183
0.739884
0.760223
0.760519
0.760592
0.760607
0.760611
0.760612
0.760612
0.760612
0.760613
0.760613
0.760613
0.760613
0.760613
0.760614
0.760614
0.760614
0.760614
0.760614
0.760614
0.760614
0.760614
0.760614
0.760615
0.760615
0.760615
0.760615
0.760615
0.760615
0.760615
0.760615
0.760615
0.760615
0.760615
0.760615
0.760615
0.760615
0.760615
0.760615
0.760614
0.760614
0.760614
0.760614
0.760614
0.760614
0.760614
0.760614
0.760614
0.760613
0.760613
0.760613
0.760613
0.760613
0.760612
0.760612
0.760612
0.760611
0.760607
0.760592
0.760519
0.760223
0.779376
0.779668
0.779742
0.779758
0.779762
0.779762
0.779763
0.779763
0.779763
0.779764
0.779764
0.779764
0.779764
0.779764
0.779764
0.779764
0.779765
0.779765
0.779765
0.779765
0.779765
0.779765
0.779765
0.779765
0.779765
0.779765
0.779765
0.779765
0.779765
0.779765
0.779765
0.779765
0.779765
0.779765
0.779765
0.779765
0.779765
0.779765
0.779765
0.779765
0.779765
0.779765
0.779765
0.779765
0.779764
0.779764
0.779764
0.779764
0.779764
0.779764
0.779764
0.779763
0.779763
0.779763
0.779762
0.779762
0.779758
0.779742
0.779668
0.779376
0.797374
0.797662
0.797737
0.797753
0.797757
0.797757
0.797758
0.797758
0.797758
0.797759
0.797759
0.797759
0.797759
0.797759
0.797759
0.797759
0.797759
0.797759
0.79776
0.79776
0.79776
0.79776
0.79776
0.79776
0.79776
0.79776
0.79776
0.79776
0.79776
0.79776
0.79776
0.79776
0.79776
0.79776
0.79776
0.79776
0.79776
0.79776
0.79776
0.79776
0.79776
0.79776
0.797759
0.797759
0.797759
0.797759
0.797759
0.797759
0.797759
0.797759
0.797759
0.797758
0.797758
0.797758
0.797757
0.797757
0.797753
0.797737
0.797662
0.797374
0.814251
0.814534
0.814609
0.814626
0.814629
0.81463
0.81463
0.814631
0.814631
0.814631
0.814631
0.814631
0.814631
0.814632
0.814632
0.814632
0.814632
0.814632
0.814632
0.814632
0.814632
0.814632
0.814632
0.814632
0.814632
0.814632
0.814632
0.814632
0.814632
0.814632
0.814632
0.814632
0.814632
0.814632
0.814632
0.814632
0.814632
0.814632
0.814632
0.814632
0.814632
0.814632
0.814632
0.814632
0.814632
0.814632
0.814632
0.814631
0.814631
0.814631
0.814631
0.814631
0.814631
0.81463
0.81463
0.814629
0.814626
0.814609
0.814534
0.814251
0.830043
0.830319
0.830394
0.830411
0.830415
0.830416
0.830416
0.830417
0.830417
0.830417
0.830417
0.830417
0.830417
0.830417
0.830417
0.830417
0.830418
0.830418
0.830418
0.830418
0.830418
0.830418
0.830418
0.830418
0.830418
0.830418
0.830418
0.830418
0.830418
0.830418
0.830418
0.830418
0.830418
0.830418
0.830418
0.830418
0.830418
0.830418
0.830418
0.830418
0.830418
0.830418
0.830418
0.830418
0.830417
0.830417
0.830417
0.830417
0.830417
0.830417
0.830417
0.830417
0.830417
0.830416
0.830416
0.830415
0.830411
0.830394
0.830319
0.830043
0.844786
0.845055
0.845131
0.845148
0.845152
0.845153
0.845153
0.845153
0.845154
0.845154
0.845154
0.845154
0.845154
0.845154
0.845154
0.845154
0.845154
0.845154
0.845154
0.845154
0.845154
0.845155
0.845155
0.845155
0.845155
0.845155
0.845155
0.845155
0.845155
0.845155
0.845155
0.845155
0.845155
0.845155
0.845155
0.845155
0.845155
0.845155
0.845155
0.845154
0.845154
0.845154
0.845154
0.845154
0.845154
0.845154
0.845154
0.845154
0.845154
0.845154
0.845154
0.845154
0.845153
0.845153
0.845153
0.845152
0.845148
0.845131
0.845055
0.844786
0.858521
0.858783
0.858858
0.858876
0.858879
0.85888
0.858881
0.858881
0.858881
0.858881
0.858881
0.858881
0.858881
0.858881
0.858881
0.858881
0.858882
0.858882
0.858882
0.858882
0.858882
0.858882
0.858882
0.858882
0.858882
0.858882
0.858882
0.858882
0.858882
0.858882
0.858882
0.858882
0.858882
0.858882
0.858882
0.858882
0.858882
0.858882
0.858882
0.858882
0.858882
0.858882
0.858882
0.858882
0.858881
0.858881
0.858881
0.858881
0.858881
0.858881
0.858881
0.858881
0.858881
0.858881
0.85888
0.858879
0.858876
0.858858
0.858783
0.858521
0.871288
0.871542
0.871616
0.871634
0.871638
0.871639
0.871639
0.87164
0.87164
0.87164
0.87164
0.87164
0.87164
0.87164
0.87164
0.87164
0.87164
0.87164
0.87164
0.87164
0.87164
0.87164
0.87164
0.87164
0.871641
0.871641
0.871641
0.871641
0.871641
0.871641
0.871641
0.871641
0.871641
0.871641
0.871641
0.871641
0.87164
0.87164
0.87164
0.87164
0.87164
0.87164
0.87164
0.87164
0.87164
0.87164
0.87164
0.87164
0.87164
0.87164
0.87164
0.87164
0.87164
0.871639
0.871639
0.871638
0.871634
0.871616
0.871542
0.871288
0.883129
0.883374
0.883448
0.883466
0.88347
0.883471
0.883472
0.883472
0.883472
0.883472
0.883472
0.883472
0.883472
0.883472
0.883472
0.883472
0.883472
0.883472
0.883473
0.883473
0.883473
0.883473
0.883473
0.883473
0.883473
0.883473
0.883473
0.883473
0.883473
0.883473
0.883473
0.883473
0.883473
0.883473
0.883473
0.883473
0.883473
0.883473
0.883473
0.883473
0.883473
0.883473
0.883472
0.883472
0.883472
0.883472
0.883472
0.883472
0.883472
0.883472
0.883472
0.883472
0.883472
0.883472
0.883471
0.88347
0.883466
0.883448
0.883374
0.883129
0.894088
0.894324
0.894396
0.894415
0.894419
0.89442
0.89442
0.89442
0.894421
0.894421
0.894421
0.894421
0.894421
0.894421
0.894421
0.894421
0.894421
0.894421
0.894421
0.894421
0.894421
0.894421
0.894421
0.894421
0.894421
0.894421
0.894421
0.894421
0.894421
0.894421
0.894421
0.894421
0.894421
0.894421
0.894421
0.894421
0.894421
0.894421
0.894421
0.894421
0.894421
0.894421
0.894421
0.894421
0.894421
0.894421
0.894421
0.894421
0.894421
0.894421
0.894421
0.894421
0.89442
0.89442
0.89442
0.894419
0.894415
0.894396
0.894324
0.894088
0.904206
0.904433
0.904504
0.904523
0.904527
0.904528
0.904528
0.904529
0.904529
0.904529
0.904529
0.904529
0.904529
0.904529
0.904529
0.904529
0.904529
0.904529
0.904529
0.904529
0.904529
0.904529
0.904529
0.904529
0.904529
0.904529
0.904529
0.904529
0.904529
0.904529
0.904529
0.904529
0.904529
0.904529
0.904529
0.904529
0.904529
0.904529
0.904529
0.904529
0.904529
0.904529
0.904529
0.904529
0.904529
0.904529
0.904529
0.904529
0.904529
0.904529
0.904529
0.904529
0.904529
0.904528
0.904528
0.904527
0.904523
0.904504
0.904433
0.904206
0.913528
0.913745
0.913815
0.913834
0.913838
0.91384
0.91384
0.91384
0.91384
0.91384
0.91384
0.91384
0.91384
0.91384
0.91384
0.91384
0.91384
0.91384
0.91384
0.91384
0.91384
0.91384
0.91384
0.91384
0.91384
0.91384
0.91384
0.91384
0.91384
0.91384
0.91384
0.91384
0.91384
0.91384
0.91384
0.91384
0.91384
0.91384
0.91384
0.91384
0.91384
0.91384
0.91384
0.91384
0.91384
0.91384
0.91384
0.91384
0.91384
0.91384
0.91384
0.91384
0.91384
0.91384
0.91384
0.913838
0.913834
0.913815
0.913745
0.913528
0.922098
0.922305
0.922373
0.922392
0.922396
0.922398
0.922398
0.922398
0.922398
0.922398
0.922398
0.922398
0.922398
0.922398
0.922398
0.922398
0.922398
0.922398
0.922398
0.922398
0.922398
0.922398
0.922398
0.922398
0.922398
0.922398
0.922398
0.922398
0.922398
0.922398
0.922398
0.922398
0.922398
0.922398
0.922398
0.922398
0.922398
0.922398
0.922398
0.922398
0.922398
0.922398
0.922398
0.922398
0.922398
0.922398
0.922398
0.922398
0.922398
0.922398
0.922398
0.922398
0.922398
0.922398
0.922398
0.922396
0.922392
0.922373
0.922305
0.922098
0.929957
0.930154
0.930221
0.93024
0.930244
0.930245
0.930246
0.930246
0.930246
0.930246
0.930246
0.930246
0.930246
0.930246
0.930246
0.930246
0.930246
0.930246
0.930246
0.930246
0.930246
0.930246
0.930246
0.930246
0.930246
0.930246
0.930246
0.930246
0.930246
0.930246
0.930246
0.930246
0.930246
0.930246
0.930246
0.930246
0.930246
0.930246
0.930246
0.930246
0.930246
0.930246
0.930246
0.930246
0.930246
0.930246
0.930246
0.930246
0.930246
0.930246
0.930246
0.930246
0.930246
0.930246
0.930245
0.930244
0.93024
0.930221
0.930154
0.929957
0.93715
0.937336
0.937401
0.93742
0.937425
0.937426
0.937426
0.937426
0.937426
0.937426
0.937426
0.937426
0.937426
0.937427
0.937427
0.937427
0.937427
0.937427
0.937427
0.937427
0.937427
0.937427
0.937427
0.937427
0.937427
0.937427
0.937427
0.937427
0.937427
0.937427
0.937427
0.937427
0.937427
0.937427
0.937427
0.937427
0.937427
0.937427
0.937427
0.937427
0.937427
0.937427
0.937427
0.937427
0.937427
0.937427
0.937427
0.937426
0.937426
0.937426
0.937426
0.937426
0.937426
0.937426
0.937426
0.937425
0.93742
0.937401
0.937336
0.93715
0.943717
0.943893
0.943956
0.943975
0.94398
0.943981
0.943981
0.943981
0.943981
0.943981
0.943981
0.943981
0.943981
0.943981
0.943981
0.943981
0.943981
0.943981
0.943981
0.943981
0.943981
0.943981
0.943981
0.943981
0.943981
0.943981
0.943981
0.943981
0.943981
0.943981
0.943981
0.943981
0.943981
0.943981
0.943981
0.943981
0.943981
0.943981
0.943981
0.943981
0.943981
0.943981
0.943981
0.943981
0.943981
0.943981
0.943981
0.943981
0.943981
0.943981
0.943981
0.943981
0.943981
0.943981
0.943981
0.94398
0.943975
0.943956
0.943893
0.943717
0.949699
0.949866
0.949926
0.949945
0.94995
0.949951
0.949951
0.949951
0.949951
0.949951
0.949951
0.949951
0.949951
0.949951
0.949951
0.949952
0.949952
0.949952
0.949952
0.949952
0.949952
0.949952
0.949952
0.949952
0.949952
0.949952
0.949952
0.949952
0.949952
0.949952
0.949952
0.949952
0.949952
0.949952
0.949952
0.949952
0.949952
0.949952
0.949952
0.949952
0.949952
0.949952
0.949952
0.949952
0.949952
0.949951
0.949951
0.949951
0.949951
0.949951
0.949951
0.949951
0.949951
0.949951
0.949951
0.94995
0.949945
0.949926
0.949866
0.949699
0.955137
0.955293
0.955352
0.95537
0.955375
0.955376
0.955376
0.955377
0.955377
0.955377
0.955377
0.955377
0.955377
0.955377
0.955377
0.955377
0.955377
0.955377
0.955377
0.955377
0.955377
0.955377
0.955377
0.955377
0.955377
0.955377
0.955377
0.955377
0.955377
0.955377
0.955377
0.955377
0.955377
0.955377
0.955377
0.955377
0.955377
0.955377
0.955377
0.955377
0.955377
0.955377
0.955377
0.955377
0.955377
0.955377
0.955377
0.955377
0.955377
0.955377
0.955377
0.955377
0.955377
0.955376
0.955376
0.955375
0.95537
0.955352
0.955293
0.955137
0.960068
0.960215
0.960271
0.960289
0.960294
0.960295
0.960295
0.960295
0.960295
0.960295
0.960296
0.960296
0.960296
0.960296
0.960296
0.960296
0.960296
0.960296
0.960296
0.960296
0.960296
0.960296
0.960296
0.960296
0.960296
0.960296
0.960296
0.960296
0.960296
0.960296
0.960296
0.960296
0.960296
0.960296
0.960296
0.960296
0.960296
0.960296
0.960296
0.960296
0.960296
0.960296
0.960296
0.960296
0.960296
0.960296
0.960296
0.960296
0.960296
0.960296
0.960295
0.960295
0.960295
0.960295
0.960295
0.960294
0.960289
0.960271
0.960215
0.960068
0.96453
0.964667
0.964721
0.964738
0.964743
0.964745
0.964745
0.964745
0.964745
0.964745
0.964745
0.964745
0.964745
0.964745
0.964745
0.964745
0.964745
0.964745
0.964745
0.964745
0.964745
0.964745
0.964745
0.964745
0.964745
0.964745
0.964745
0.964745
0.964745
0.964745
0.964745
0.964745
0.964745
0.964745
0.964745
0.964745
0.964745
0.964745
0.964745
0.964745
0.964745
0.964745
0.964745
0.964745
0.964745
0.964745
0.964745
0.964745
0.964745
0.964745
0.964745
0.964745
0.964745
0.964745
0.964745
0.964743
0.964738
0.964721
0.964667
0.96453
0.968558
0.968686
0.968737
0.968754
0.968759
0.96876
0.968761
0.968761
0.968761
0.968761
0.968761
0.968761
0.968761
0.968761
0.968761
0.968761
0.968761
0.968761
0.968761
0.968761
0.968761
0.968761
0.968761
0.968761
0.968761
0.968761
0.968761
0.968761
0.968761
0.968761
0.968761
0.968761
0.968761
0.968761
0.968761
0.968761
0.968761
0.968761
0.968761
0.968761
0.968761
0.968761
0.968761
0.968761
0.968761
0.968761
0.968761
0.968761
0.968761
0.968761
0.968761
0.968761
0.968761
0.968761
0.96876
0.968759
0.968754
0.968737
0.968686
0.968558
0.972186
0.972305
0.972353
0.97237
0.972375
0.972376
0.972377
0.972377
0.972377
0.972377
0.972377
0.972377
0.972377
0.972377
0.972377
0.972377
0.972377
0.972377
0.972377
0.972377
0.972377
0.972377
0.972377
0.972377
0.972377
0.972377
0.972377
0.972377
0.972377
0.972377
0.972377
0.972377
0.972377
0.972377
0.972377
0.972377
0.972377
0.972377
0.972377
0.972377
0.972377
0.972377
0.972377
0.972377
0.972377
0.972377
0.972377
0.972377
0.972377
0.972377
0.972377
0.972377
0.972377
0.972377
0.972376
0.972375
0.97237
0.972353
0.972305
0.972186
0.975446
0.975556
0.975602
0.975619
0.975624
0.975625
0.975625
0.975625
0.975626
0.975626
0.975626
0.975626
0.975626
0.975626
0.975626
0.975626
0.975626
0.975626
0.975626
0.975626
0.975626
0.975626
0.975626
0.975626
0.975626
0.975626
0.975626
0.975626
0.975626
0.975626
0.975626
0.975626
0.975626
0.975626
0.975626
0.975626
0.975626
0.975626
0.975626
0.975626
0.975626
0.975626
0.975626
0.975626
0.975626
0.975626
0.975626
0.975626
0.975626
0.975626
0.975626
0.975626
0.975625
0.975625
0.975625
0.975624
0.975619
0.975602
0.975556
0.975446
0.97837
0.978471
0.978515
0.97853
0.978535
0.978537
0.978537
0.978537
0.978537
0.978537
0.978537
0.978537
0.978537
0.978537
0.978537
0.978537
0.978537
0.978537
0.978537
0.978537
0.978537
0.978537
0.978537
0.978537
0.978537
0.978537
0.978537
0.978537
0.978537
0.978537
0.978537
0.978537
0.978537
0.978537
0.978537
0.978537
0.978537
0.978537
0.978537
0.978537
0.978537
0.978537
0.978537
0.978537
0.978537
0.978537
0.978537
0.978537
0.978537
0.978537
0.978537
0.978537
0.978537
0.978537
0.978537
0.978535
0.97853
0.978515
0.978471
0.97837
0.980985
0.981079
0.98112
0.981135
0.98114
0.981141
0.981141
0.981142
0.981142
0.981142
0.981142
0.981142
0.981142
0.981142
0.981142
0.981142
0.981142
0.981142
0.981142
0.981142
0.981142
0.981142
0.981142
0.981142
0.981142
0.981142
0.981142
0.981142
0.981142
0.981142
0.981142
0.981142
0.981142
0.981142
0.981142
0.981142
0.981142
0.981142
0.981142
0.981142
0.981142
0.981142
0.981142
0.981142
0.981142
0.981142
0.981142
0.981142
0.981142
0.981142
0.981142
0.981142
0.981142
0.981141
0.981141
0.98114
0.981135
0.98112
0.981079
0.980985
0.983319
0.983405
0.983444
0.983458
0.983463
0.983464
0.983465
0.983465
0.983465
0.983465
0.983465
0.983465
0.983465
0.983465
0.983465
0.983465
0.983465
0.983465
0.983465
0.983465
0.983465
0.983465
0.983465
0.983465
0.983465
0.983465
0.983465
0.983465
0.983465
0.983465
0.983465
0.983465
0.983465
0.983465
0.983465
0.983465
0.983465
0.983465
0.983465
0.983465
0.983465
0.983465
0.983465
0.983465
0.983465
0.983465
0.983465
0.983465
0.983465
0.983465
0.983465
0.983465
0.983465
0.983465
0.983464
0.983463
0.983458
0.983444
0.983405
0.983319
0.985398
0.985477
0.985513
0.985527
0.985531
0.985533
0.985533
0.985533
0.985533
0.985533
0.985533
0.985533
0.985533
0.985533
0.985533
0.985533
0.985533
0.985533
0.985533