/*--------------------------------*- C++ -*----------------------------------*\
| =========                 |                                                 |
| \\      /  F ield         | foam-extend: Open Source CFD                    |
|  \\    /   O peration     | Version:     4.0                                |
|   \\  /    A nd           | Web:         http://www.foam-extend.org         |
|    \\/     M anipulation  |                                                 |
\*---------------------------------------------------------------------------*/
FoamFile
{
    version     2.0;
    format      ascii;
    class       volScalarField;
    location    "180";
    object      psiE;
}
// * * * * * * * * * * * * * * * * * * * * * * * * * * * * * * * * * * * * * //

dimensions      [0 0 0 0 0 0 0];

internalField   nonuniform List<scalar> 
6960
(
0.35057
0.350586
0.350588
0.350587
0.350586
0.350585
0.350585
0.350585
0.350585
0.350586
0.350586
0.350587
0.350587
0.350588
0.350589
0.350589
0.35059
0.350591
0.350591
0.350592
0.350592
0.350593
0.350593
0.350593
0.350594
0.350594
0.350594
0.350594
0.350595
0.350595
0.350595
0.350595
0.350594
0.350594
0.350594
0.350594
0.350593
0.350593
0.350593
0.350592
0.350592
0.350591
0.350591
0.35059
0.350589
0.350589
0.350588
0.350587
0.350587
0.350586
0.350586
0.350585
0.350585
0.350585
0.350585
0.350586
0.350587
0.350588
0.350586
0.35057
0.88366
0.883712
0.883715
0.883711
0.883707
0.883705
0.883703
0.883702
0.883702
0.883702
0.883703
0.883703
0.883705
0.883706
0.883707
0.883709
0.88371
0.883712
0.883713
0.883714
0.883715
0.883717
0.883718
0.883718
0.883719
0.88372
0.88372
0.883721
0.883721
0.883721
0.883721
0.883721
0.883721
0.88372
0.88372
0.883719
0.883718
0.883718
0.883717
0.883715
0.883714
0.883713
0.883712
0.88371
0.883709
0.883707
0.883706
0.883705
0.883703
0.883703
0.883702
0.883702
0.883702
0.883703
0.883705
0.883707
0.883711
0.883715
0.883712
0.88366
1.3469
1.34698
1.34698
1.34697
1.34696
1.34696
1.34695
1.34695
1.34695
1.34695
1.34695
1.34695
1.34695
1.34695
1.34695
1.34696
1.34696
1.34696
1.34696
1.34696
1.34697
1.34697
1.34697
1.34697
1.34697
1.34697
1.34697
1.34697
1.34697
1.34697
1.34697
1.34697
1.34697
1.34697
1.34697
1.34697
1.34697
1.34697
1.34697
1.34697
1.34696
1.34696
1.34696
1.34696
1.34696
1.34695
1.34695
1.34695
1.34695
1.34695
1.34695
1.34695
1.34695
1.34695
1.34696
1.34696
1.34697
1.34698
1.34698
1.3469
1.75882
1.75892
1.75892
1.7589
1.75889
1.75888
1.75887
1.75887
1.75886
1.75886
1.75886
1.75886
1.75886
1.75887
1.75887
1.75887
1.75887
1.75887
1.75888
1.75888
1.75888
1.75888
1.75888
1.75889
1.75889
1.75889
1.75889
1.75889
1.75889
1.75889
1.75889
1.75889
1.75889
1.75889
1.75889
1.75889
1.75889
1.75888
1.75888
1.75888
1.75888
1.75888
1.75887
1.75887
1.75887
1.75887
1.75887
1.75886
1.75886
1.75886
1.75886
1.75886
1.75887
1.75887
1.75888
1.75889
1.7589
1.75892
1.75892
1.75882
2.12155
2.12164
2.12163
2.12161
2.12159
2.12158
2.12157
2.12156
2.12156
2.12156
2.12155
2.12155
2.12156
2.12156
2.12156
2.12156
2.12156
2.12157
2.12157
2.12157
2.12157
2.12158
2.12158
2.12158
2.12158
2.12158
2.12158
2.12159
2.12159
2.12159
2.12159
2.12159
2.12159
2.12158
2.12158
2.12158
2.12158
2.12158
2.12158
2.12157
2.12157
2.12157
2.12157
2.12156
2.12156
2.12156
2.12156
2.12156
2.12155
2.12155
2.12156
2.12156
2.12156
2.12157
2.12158
2.12159
2.12161
2.12163
2.12164
2.12155
2.43383
2.4339
2.43388
2.43385
2.43383
2.43381
2.43379
2.43379
2.43378
2.43378
2.43377
2.43377
2.43377
2.43378
2.43378
2.43378
2.43378
2.43379
2.43379
2.43379
2.4338
2.4338
2.4338
2.4338
2.43381
2.43381
2.43381
2.43381
2.43381
2.43381
2.43381
2.43381
2.43381
2.43381
2.43381
2.43381
2.4338
2.4338
2.4338
2.4338
2.43379
2.43379
2.43379
2.43378
2.43378
2.43378
2.43378
2.43377
2.43377
2.43377
2.43378
2.43378
2.43379
2.43379
2.43381
2.43383
2.43385
2.43388
2.4339
2.43383
2.69584
2.69587
2.69583
2.6958
2.69577
2.69575
2.69573
2.69572
2.69571
2.69571
2.69571
2.69571
2.69571
2.69571
2.69571
2.69572
2.69572
2.69572
2.69573
2.69573
2.69573
2.69574
2.69574
2.69574
2.69574
2.69575
2.69575
2.69575
2.69575
2.69575
2.69575
2.69575
2.69575
2.69575
2.69575
2.69574
2.69574
2.69574
2.69574
2.69573
2.69573
2.69573
2.69572
2.69572
2.69572
2.69571
2.69571
2.69571
2.69571
2.69571
2.69571
2.69571
2.69572
2.69573
2.69575
2.69577
2.6958
2.69583
2.69587
2.69584
2.91098
2.91096
2.91092
2.91088
2.91084
2.91082
2.9108
2.91079
2.91078
2.91077
2.91077
2.91077
2.91078
2.91078
2.91078
2.91079
2.91079
2.9108
2.9108
2.91081
2.91081
2.91081
2.91082
2.91082
2.91082
2.91082
2.91083
2.91083
2.91083
2.91083
2.91083
2.91083
2.91083
2.91083
2.91082
2.91082
2.91082
2.91082
2.91081
2.91081
2.91081
2.9108
2.9108
2.91079
2.91079
2.91078
2.91078
2.91078
2.91077
2.91077
2.91077
2.91078
2.91079
2.9108
2.91082
2.91084
2.91088
2.91092
2.91096
2.91098
3.08569
3.08563
3.08558
3.08553
3.08549
3.08547
3.08545
3.08543
3.08543
3.08542
3.08542
3.08542
3.08543
3.08543
3.08544
3.08544
3.08545
3.08545
3.08546
3.08547
3.08547
3.08548
3.08548
3.08548
3.08549
3.08549
3.08549
3.08549
3.0855
3.0855
3.0855
3.0855
3.08549
3.08549
3.08549
3.08549
3.08548
3.08548
3.08548
3.08547
3.08547
3.08546
3.08545
3.08545
3.08544
3.08544
3.08543
3.08543
3.08542
3.08542
3.08542
3.08543
3.08543
3.08545
3.08547
3.08549
3.08553
3.08558
3.08563
3.08569
3.22793
3.22785
3.22778
3.22773
3.22769
3.22766
3.22764
3.22763
3.22763
3.22762
3.22762
3.22763
3.22763
3.22764
3.22764
3.22765
3.22766
3.22767
3.22768
3.22768
3.22769
3.2277
3.2277
3.22771
3.22771
3.22771
3.22772
3.22772
3.22772
3.22772
3.22772
3.22772
3.22772
3.22772
3.22771
3.22771
3.22771
3.2277
3.2277
3.22769
3.22768
3.22768
3.22767
3.22766
3.22765
3.22764
3.22764
3.22763
3.22763
3.22762
3.22762
3.22763
3.22763
3.22764
3.22766
3.22769
3.22773
3.22778
3.22785
3.22793
3.34551
3.3454
3.34533
3.34527
3.34523
3.34521
3.34519
3.34518
3.34517
3.34517
3.34517
3.34518
3.34518
3.34519
3.3452
3.34521
3.34522
3.34523
3.34524
3.34525
3.34526
3.34527
3.34527
3.34528
3.34529
3.34529
3.34529
3.3453
3.3453
3.3453
3.3453
3.3453
3.3453
3.34529
3.34529
3.34529
3.34528
3.34527
3.34527
3.34526
3.34525
3.34524
3.34523
3.34522
3.34521
3.3452
3.34519
3.34518
3.34518
3.34517
3.34517
3.34517
3.34518
3.34519
3.34521
3.34523
3.34527
3.34533
3.3454
3.34551
3.44494
3.44481
3.44473
3.44468
3.44464
3.44461
3.44459
3.44458
3.44458
3.44458
3.44458
3.44459
3.4446
3.44461
3.44463
3.44464
3.44465
3.44466
3.44467
3.44468
3.4447
3.4447
3.44471
3.44472
3.44473
3.44473
3.44474
3.44474
3.44474
3.44474
3.44474
3.44474
3.44474
3.44474
3.44473
3.44473
3.44472
3.44471
3.4447
3.4447
3.44468
3.44467
3.44466
3.44465
3.44464
3.44463
3.44461
3.4446
3.44459
3.44458
3.44458
3.44458
3.44458
3.44459
3.44461
3.44464
3.44468
3.44473
3.44481
3.44494
3.53113
3.53098
3.5309
3.53085
3.53081
3.53078
3.53076
3.53076
3.53075
3.53076
3.53077
3.53078
3.53079
3.5308
3.53082
3.53083
3.53085
3.53086
3.53088
3.53089
3.5309
3.53091
3.53092
3.53093
3.53094
3.53095
3.53095
3.53096
3.53096
3.53096
3.53096
3.53096
3.53096
3.53095
3.53095
3.53094
3.53093
3.53092
3.53091
3.5309
3.53089
3.53088
3.53086
3.53085
3.53083
3.53082
3.5308
3.53079
3.53078
3.53077
3.53076
3.53075
3.53076
3.53076
3.53078
3.53081
3.53085
3.5309
3.53098
3.53113
3.60754
3.60739
3.60731
3.60725
3.60721
3.60719
3.60717
3.60717
3.60717
3.60717
3.60718
3.6072
3.60721
3.60723
3.60725
3.60727
3.60729
3.6073
3.60732
3.60734
3.60735
3.60736
3.60738
3.60739
3.60739
3.6074
3.60741
3.60741
3.60742
3.60742
3.60742
3.60742
3.60741
3.60741
3.6074
3.60739
3.60739
3.60738
3.60736
3.60735
3.60734
3.60732
3.6073
3.60729
3.60727
3.60725
3.60723
3.60721
3.6072
3.60718
3.60717
3.60717
3.60717
3.60717
3.60719
3.60721
3.60725
3.60731
3.60739
3.60754
3.67658
3.67643
3.67634
3.67628
3.67624
3.67622
3.67621
3.67621
3.67621
3.67622
3.67623
3.67625
3.67627
3.67629
3.67631
3.67633
3.67635
3.67637
3.67639
3.67641
3.67643
3.67644
3.67646
3.67647
3.67648
3.67649
3.6765
3.6765
3.6765
3.67651
3.67651
3.6765
3.6765
3.6765
3.67649
3.67648
3.67647
3.67646
3.67644
3.67643
3.67641
3.67639
3.67637
3.67635
3.67633
3.67631
3.67629
3.67627
3.67625
3.67623
3.67622
3.67621
3.67621
3.67621
3.67622
3.67624
3.67628
3.67634
3.67643
3.67658
3.7399
3.73974
3.73966
3.7396
3.73956
3.73954
3.73953
3.73953
3.73954
3.73955
3.73957
3.73959
3.73961
3.73964
3.73966
3.73969
3.73971
3.73973
3.73976
3.73978
3.7398
3.73981
3.73983
3.73984
3.73986
3.73987
3.73987
3.73988
3.73988
3.73989
3.73989
3.73988
3.73988
3.73987
3.73987
3.73986
3.73984
3.73983
3.73981
3.7398
3.73978
3.73976
3.73973
3.73971
3.73969
3.73966
3.73964
3.73961
3.73959
3.73957
3.73955
3.73954
3.73953
3.73953
3.73954
3.73956
3.7396
3.73966
3.73974
3.7399
3.79868
3.79853
3.79844
3.79838
3.79835
3.79833
3.79832
3.79832
3.79833
3.79835
3.79837
3.79839
3.79842
3.79845
3.79847
3.7985
3.79853
3.79856
3.79858
3.79861
3.79863
3.79865
3.79867
3.79868
3.79869
3.79871
3.79872
3.79872
3.79873
3.79873
3.79873
3.79873
3.79872
3.79872
3.79871
3.79869
3.79868
3.79867
3.79865
3.79863
3.79861
3.79858
3.79856
3.79853
3.7985
3.79847
3.79845
3.79842
3.79839
3.79837
3.79835
3.79833
3.79832
3.79832
3.79833
3.79835
3.79838
3.79844
3.79853
3.79868
3.85379
3.85363
3.85354
3.85349
3.85345
3.85344
3.85343
3.85344
3.85345
3.85347
3.85349
3.85352
3.85355
3.85358
3.85361
3.85365
3.85368
3.85371
3.85374
3.85376
3.85379
3.85381
3.85383
3.85385
3.85386
3.85387
3.85388
3.85389
3.8539
3.8539
3.8539
3.8539
3.85389
3.85388
3.85387
3.85386
3.85385
3.85383
3.85381
3.85379
3.85376
3.85374
3.85371
3.85368
3.85365
3.85361
3.85358
3.85355
3.85352
3.85349
3.85347
3.85345
3.85344
3.85343
3.85344
3.85345
3.85349
3.85354
3.85363
3.85379
3.90587
3.90571
3.90562
3.90557
3.90554
3.90552
3.90552
3.90553
3.90555
3.90557
3.9056
3.90563
3.90566
3.9057
3.90573
3.90577
3.90581
3.90584
3.90587
3.9059
3.90593
3.90595
3.90597
3.90599
3.90601
3.90602
3.90604
3.90604
3.90605
3.90605
3.90605
3.90605
3.90604
3.90604
3.90602
3.90601
3.90599
3.90597
3.90595
3.90593
3.9059
3.90587
3.90584
3.90581
3.90577
3.90573
3.9057
3.90566
3.90563
3.9056
3.90557
3.90555
3.90553
3.90552
3.90552
3.90554
3.90557
3.90562
3.90571
3.90587
3.95544
3.95529
3.9552
3.95514
3.95511
3.9551
3.9551
3.95511
3.95513
3.95516
3.95519
3.95523
3.95527
3.95531
3.95535
3.95539
3.95542
3.95546
3.9555
3.95553
3.95556
3.95559
3.95561
3.95563
3.95565
3.95567
3.95568
3.95569
3.95569
3.9557
3.9557
3.95569
3.95569
3.95568
3.95567
3.95565
3.95563
3.95561
3.95559
3.95556
3.95553
3.9555
3.95546
3.95542
3.95539
3.95535
3.95531
3.95527
3.95523
3.95519
3.95516
3.95513
3.95511
3.9551
3.9551
3.95511
3.95514
3.9552
3.95529
3.95544
4.00291
4.00276
4.00267
4.00262
4.00259
4.00258
4.00258
4.0026
4.00262
4.00265
4.00269
4.00273
4.00277
4.00281
4.00286
4.0029
4.00294
4.00298
4.00302
4.00306
4.00309
4.00312
4.00315
4.00317
4.00319
4.00321
4.00322
4.00323
4.00324
4.00324
4.00324
4.00324
4.00323
4.00322
4.00321
4.00319
4.00317
4.00315
4.00312
4.00309
4.00306
4.00302
4.00298
4.00294
4.0029
4.00286
4.00281
4.00277
4.00273
4.00269
4.00265
4.00262
4.0026
4.00258
4.00258
4.00259
4.00262
4.00267
4.00276
4.00291
4.04861
4.04846
4.04837
4.04832
4.04829
4.04829
4.04829
4.04831
4.04834
4.04838
4.04842
4.04846
4.04851
4.04856
4.0486
4.04865
4.0487
4.04874
4.04878
4.04882
4.04886
4.04889
4.04892
4.04895
4.04897
4.04899
4.049
4.04901
4.04902
4.04902
4.04902
4.04902
4.04901
4.049
4.04899
4.04897
4.04895
4.04892
4.04889
4.04886
4.04882
4.04878
4.04874
4.0487
4.04865
4.0486
4.04856
4.04851
4.04846
4.04842
4.04838
4.04834
4.04831
4.04829
4.04829
4.04829
4.04832
4.04837
4.04846
4.04861
4.09282
4.09268
4.09259
4.09254
4.09251
4.09251
4.09252
4.09254
4.09257
4.09261
4.09266
4.09271
4.09276
4.09281
4.09287
4.09292
4.09297
4.09302
4.09306
4.0931
4.09314
4.09318
4.09321
4.09324
4.09326
4.09328
4.0933
4.09331
4.09332
4.09332
4.09332
4.09332
4.09331
4.0933
4.09328
4.09326
4.09324
4.09321
4.09318
4.09314
4.0931
4.09306
4.09302
4.09297
4.09292
4.09287
4.09281
4.09276
4.09271
4.09266
4.09261
4.09257
4.09254
4.09252
4.09251
4.09251
4.09254
4.09259
4.09268
4.09282
4.13578
4.13564
4.13555
4.13551
4.13548
4.13548
4.1355
4.13552
4.13556
4.1356
4.13565
4.13571
4.13576
4.13582
4.13588
4.13593
4.13599
4.13604
4.13609
4.13613
4.13618
4.13622
4.13625
4.13628
4.13631
4.13633
4.13634
4.13636
4.13637
4.13637
4.13637
4.13637
4.13636
4.13634
4.13633
4.13631
4.13628
4.13625
4.13622
4.13618
4.13613
4.13609
4.13604
4.13599
4.13593
4.13588
4.13582
4.13576
4.13571
4.13565
4.1356
4.13556
4.13552
4.1355
4.13548
4.13548
4.13551
4.13555
4.13564
4.13578
4.1777
4.17755
4.17747
4.17742
4.1774
4.17741
4.17742
4.17745
4.17749
4.17754
4.1776
4.17765
4.17772
4.17778
4.17784
4.1779
4.17796
4.17802
4.17807
4.17812
4.17816
4.17821
4.17824
4.17828
4.1783
4.17833
4.17835
4.17836
4.17837
4.17837
4.17837
4.17837
4.17836
4.17835
4.17833
4.1783
4.17828
4.17824
4.17821
4.17816
4.17812
4.17807
4.17802
4.17796
4.1779
4.17784
4.17778
4.17772
4.17765
4.1776
4.17754
4.17749
4.17745
4.17742
4.17741
4.1774
4.17742
4.17747
4.17755
4.1777
4.21874
4.2186
4.21851
4.21847
4.21845
4.21846
4.21848
4.21851
4.21856
4.21861
4.21867
4.21873
4.2188
4.21887
4.21893
4.219
4.21906
4.21912
4.21918
4.21923
4.21928
4.21933
4.21937
4.2194
4.21943
4.21946
4.21948
4.21949
4.2195
4.21951
4.21951
4.2195
4.21949
4.21948
4.21946
4.21943
4.2194
4.21937
4.21933
4.21928
4.21923
4.21918
4.21912
4.21906
4.219
4.21893
4.21887
4.2188
4.21873
4.21867
4.21861
4.21856
4.21851
4.21848
4.21846
4.21845
4.21847
4.21851
4.2186
4.21874
4.25906
4.25892
4.25884
4.2588
4.25879
4.25879
4.25882
4.25886
4.25891
4.25896
4.25903
4.2591
4.25917
4.25924
4.25931
4.25938
4.25945
4.25952
4.25958
4.25963
4.25969
4.25974
4.25978
4.25982
4.25985
4.25987
4.2599
4.25991
4.25992
4.25993
4.25993
4.25992
4.25991
4.2599
4.25987
4.25985
4.25982
4.25978
4.25974
4.25969
4.25963
4.25958
4.25952
4.25945
4.25938
4.25931
4.25924
4.25917
4.2591
4.25903
4.25896
4.25891
4.25886
4.25882
4.25879
4.25879
4.2588
4.25884
4.25892
4.25906
4.2988
4.29867
4.29859
4.29855
4.29854
4.29855
4.29858
4.29862
4.29868
4.29874
4.29881
4.29888
4.29896
4.29904
4.29911
4.29919
4.29926
4.29933
4.2994
4.29946
4.29952
4.29957
4.29961
4.29965
4.29969
4.29972
4.29974
4.29976
4.29977
4.29977
4.29977
4.29977
4.29976
4.29974
4.29972
4.29969
4.29965
4.29961
4.29957
4.29952
4.29946
4.2994
4.29933
4.29926
4.29919
4.29911
4.29904
4.29896
4.29888
4.29881
4.29874
4.29868
4.29862
4.29858
4.29855
4.29854
4.29855
4.29859
4.29867
4.2988
4.3381
4.33797
4.33789
4.33785
4.33784
4.33785
4.33789
4.33794
4.33799
4.33806
4.33814
4.33822
4.3383
4.33838
4.33847
4.33855
4.33862
4.3387
4.33877
4.33883
4.33889
4.33895
4.339
4.33904
4.33908
4.33911
4.33913
4.33915
4.33916
4.33917
4.33917
4.33916
4.33915
4.33913
4.33911
4.33908
4.33904
4.339
4.33895
4.33889
4.33883
4.33877
4.3387
4.33862
4.33855
4.33847
4.33838
4.3383
4.33822
4.33814
4.33806
4.33799
4.33794
4.33789
4.33785
4.33784
4.33785
4.33789
4.33797
4.3381
4.37705
4.37692
4.37684
4.37681
4.3768
4.37682
4.37686
4.37691
4.37697
4.37705
4.37713
4.37721
4.3773
4.37739
4.37748
4.37756
4.37765
4.37773
4.3778
4.37787
4.37794
4.37799
4.37805
4.37809
4.37813
4.37816
4.37819
4.37821
4.37822
4.37823
4.37823
4.37822
4.37821
4.37819
4.37816
4.37813
4.37809
4.37805
4.37799
4.37794
4.37787
4.3778
4.37773
4.37765
4.37756
4.37748
4.37739
4.3773
4.37721
4.37713
4.37705
4.37697
4.37691
4.37686
4.37682
4.3768
4.37681
4.37684
4.37692
4.37705
4.41576
4.41564
4.41556
4.41553
4.41553
4.41555
4.41559
4.41565
4.41572
4.4158
4.41588
4.41597
4.41607
4.41616
4.41626
4.41635
4.41644
4.41652
4.4166
4.41668
4.41674
4.4168
4.41686
4.41691
4.41695
4.41698
4.41701
4.41703
4.41705
4.41705
4.41705
4.41705
4.41703
4.41701
4.41698
4.41695
4.41691
4.41686
4.4168
4.41674
4.41668
4.4166
4.41652
4.41644
4.41635
4.41626
4.41616
4.41607
4.41597
4.41588
4.4158
4.41572
4.41565
4.41559
4.41555
4.41553
4.41553
4.41556
4.41564
4.41576
4.45433
4.45422
4.45414
4.45411
4.45411
4.45414
4.45418
4.45425
4.45432
4.45441
4.4545
4.4546
4.4547
4.4548
4.4549
4.455
4.45509
4.45518
4.45526
4.45534
4.45541
4.45548
4.45554
4.45559
4.45563
4.45567
4.4557
4.45572
4.45574
4.45574
4.45574
4.45574
4.45572
4.4557
4.45567
4.45563
4.45559
4.45554
4.45548
4.45541
4.45534
4.45526
4.45518
4.45509
4.455
4.4549
4.4548
4.4547
4.4546
4.4545
4.45441
4.45432
4.45425
4.45418
4.45414
4.45411
4.45411
4.45414
4.45422
4.45433
4.49286
4.49274
4.49267
4.49264
4.49265
4.49268
4.49273
4.4928
4.49288
4.49297
4.49307
4.49317
4.49328
4.49338
4.49349
4.49359
4.49369
4.49379
4.49388
4.49396
4.49404
4.49411
4.49417
4.49422
4.49427
4.49431
4.49434
4.49436
4.49438
4.49439
4.49439
4.49438
4.49436
4.49434
4.49431
4.49427
4.49422
4.49417
4.49411
4.49404
4.49396
4.49388
4.49379
4.49369
4.49359
4.49349
4.49338
4.49328
4.49317
4.49307
4.49297
4.49288
4.4928
4.49273
4.49268
4.49265
4.49264
4.49267
4.49274
4.49286
4.53141
4.5313
4.53124
4.53121
4.53122
4.53125
4.53131
4.53138
4.53147
4.53156
4.53167
4.53178
4.53189
4.53201
4.53212
4.53223
4.53233
4.53243
4.53253
4.53262
4.5327
4.53277
4.53284
4.53289
4.53294
4.53298
4.53302
4.53304
4.53306
4.53307
4.53307
4.53306
4.53304
4.53302
4.53298
4.53294
4.53289
4.53284
4.53277
4.5327
4.53262
4.53253
4.53243
4.53233
4.53223
4.53212
4.53201
4.53189
4.53178
4.53167
4.53156
4.53147
4.53138
4.53131
4.53125
4.53122
4.53121
4.53124
4.5313
4.53141
4.57009
4.56998
4.56991
4.56989
4.5699
4.56994
4.57
4.57008
4.57017
4.57028
4.57039
4.5705
4.57062
4.57074
4.57086
4.57098
4.57109
4.5712
4.5713
4.57139
4.57148
4.57155
4.57162
4.57168
4.57173
4.57178
4.57181
4.57184
4.57186
4.57186
4.57186
4.57186
4.57184
4.57181
4.57178
4.57173
4.57168
4.57162
4.57155
4.57148
4.57139
4.5713
4.5712
4.57109
4.57098
4.57086
4.57074
4.57062
4.5705
4.57039
4.57028
4.57017
4.57008
4.57
4.56994
4.5699
4.56989
4.56991
4.56998
4.57009
4.60894
4.60884
4.60878
4.60876
4.60878
4.60882
4.60888
4.60897
4.60907
4.60918
4.6093
4.60942
4.60955
4.60967
4.6098
4.60992
4.61004
4.61015
4.61026
4.61036
4.61045
4.61053
4.6106
4.61066
4.61072
4.61076
4.6108
4.61083
4.61085
4.61086
4.61086
4.61085
4.61083
4.6108
4.61076
4.61072
4.61066
4.6106
4.61053
4.61045
4.61036
4.61026
4.61015
4.61004
4.60992
4.6098
4.60967
4.60955
4.60942
4.6093
4.60918
4.60907
4.60897
4.60888
4.60882
4.60878
4.60876
4.60878
4.60884
4.60894
4.64807
4.64797
4.64791
4.64789
4.64791
4.64796
4.64803
4.64812
4.64823
4.64834
4.64847
4.6486
4.64873
4.64887
4.649
4.64913
4.64925
4.64937
4.64948
4.64959
4.64968
4.64977
4.64984
4.64991
4.64997
4.65002
4.65006
4.65008
4.6501
4.65011
4.65011
4.6501
4.65008
4.65006
4.65002
4.64997
4.64991
4.64984
4.64977
4.64968
4.64959
4.64948
4.64937
4.64925
4.64913
4.649
4.64887
4.64873
4.6486
4.64847
4.64834
4.64823
4.64812
4.64803
4.64796
4.64791
4.64789
4.64791
4.64797
4.64807
4.68752
4.68743
4.68737
4.68736
4.68738
4.68743
4.68751
4.68761
4.68772
4.68784
4.68797
4.68811
4.68825
4.6884
4.68854
4.68867
4.6888
4.68893
4.68904
4.68915
4.68925
4.68934
4.68942
4.68949
4.68956
4.68961
4.68965
4.68968
4.6897
4.68971
4.68971
4.6897
4.68968
4.68965
4.68961
4.68956
4.68949
4.68942
4.68934
4.68925
4.68915
4.68904
4.68893
4.6888
4.68867
4.68854
4.6884
4.68825
4.68811
4.68797
4.68784
4.68772
4.68761
4.68751
4.68743
4.68738
4.68736
4.68737
4.68743
4.68752
4.72737
4.72728
4.72723
4.72722
4.72725
4.7273
4.72739
4.72749
4.72761
4.72774
4.72788
4.72803
4.72818
4.72833
4.72847
4.72862
4.72875
4.72888
4.72901
4.72912
4.72923
4.72932
4.72941
4.72948
4.72955
4.7296
4.72964
4.72967
4.72969
4.7297
4.7297
4.72969
4.72967
4.72964
4.7296
4.72955
4.72948
4.72941
4.72932
4.72923
4.72912
4.72901
4.72888
4.72875
4.72862
4.72847
4.72833
4.72818
4.72803
4.72788
4.72774
4.72761
4.72749
4.72739
4.7273
4.72725
4.72722
4.72723
4.72728
4.72737
4.76769
4.7676
4.76755
4.76755
4.76758
4.76764
4.76773
4.76784
4.76797
4.76811
4.76825
4.76841
4.76857
4.76872
4.76888
4.76903
4.76917
4.76931
4.76944
4.76956
4.76967
4.76977
4.76986
4.76994
4.77
4.77006
4.7701
4.77014
4.77016
4.77017
4.77017
4.77016
4.77014
4.7701
4.77006
4.77
4.76994
4.76986
4.76977
4.76967
4.76956
4.76944
4.76931
4.76917
4.76903
4.76888
4.76872
4.76857
4.76841
4.76825
4.76811
4.76797
4.76784
4.76773
4.76764
4.76758
4.76755
4.76755
4.7676
4.76769
4.80853
4.80845
4.80841
4.8084
4.80844
4.80851
4.8086
4.80872
4.80885
4.809
4.80916
4.80932
4.80949
4.80965
4.80981
4.80997
4.81012
4.81027
4.8104
4.81053
4.81065
4.81075
4.81084
4.81093
4.811
4.81106
4.8111
4.81114
4.81116
4.81117
4.81117
4.81116
4.81114
4.8111
4.81106
4.811
4.81093
4.81084
4.81075
4.81065
4.81053
4.8104
4.81027
4.81012
4.80997
4.80981
4.80965
4.80949
4.80932
4.80916
4.809
4.80885
4.80872
4.8086
4.80851
4.80844
4.8084
4.80841
4.80845
4.80853
4.84997
4.84989
4.84985
4.84985
4.84989
4.84997
4.85007
4.85019
4.85034
4.85049
4.85066
4.85083
4.851
4.85117
4.85134
4.85151
4.85167
4.85182
4.85196
4.8521
4.85222
4.85233
4.85243
4.85251
4.85259
4.85265
4.8527
4.85273
4.85276
4.85277
4.85277
4.85276
4.85273
4.8527
4.85265
4.85259
4.85251
4.85243
4.85233
4.85222
4.8521
4.85196
4.85182
4.85167
4.85151
4.85134
4.85117
4.851
4.85083
4.85066
4.85049
4.85034
4.85019
4.85007
4.84997
4.84989
4.84985
4.84985
4.84989
4.84997
4.89206
4.89199
4.89195
4.89195
4.892
4.89208
4.89219
4.89232
4.89247
4.89263
4.89281
4.89299
4.89317
4.89335
4.89353
4.89371
4.89387
4.89403
4.89418
4.89432
4.89445
4.89456
4.89466
4.89475
4.89483
4.8949
4.89495
4.89499
4.89501
4.89503
4.89503
4.89501
4.89499
4.89495
4.8949
4.89483
4.89475
4.89466
4.89456
4.89445
4.89432
4.89418
4.89403
4.89387
4.89371
4.89353
4.89335
4.89317
4.89299
4.89281
4.89263
4.89247
4.89232
4.89219
4.89208
4.892
4.89195
4.89195
4.89199
4.89206
4.93486
4.93479
4.93476
4.93477
4.93482
4.93491
4.93502
4.93516
4.93532
4.93549
4.93567
4.93586
4.93605
4.93625
4.93643
4.93662
4.93679
4.93696
4.93712
4.93726
4.93739
4.93751
4.93762
4.93772
4.9378
4.93786
4.93792
4.93796
4.93799
4.938
4.938
4.93799
4.93796
4.93792
4.93786
4.9378
4.93772
4.93762
4.93751
4.93739
4.93726
4.93712
4.93696
4.93679
4.93662
4.93643
4.93625
4.93605
4.93586
4.93567
4.93549
4.93532
4.93516
4.93502
4.93491
4.93482
4.93477
4.93476
4.93479
4.93486
4.97843
4.97837
4.97834
4.97836
4.97842
4.97851
4.97863
4.97878
4.97894
4.97913
4.97932
4.97951
4.97972
4.97992
4.98011
4.98031
4.98049
4.98066
4.98083
4.98098
4.98112
4.98125
4.98136
4.98146
4.98154
4.98161
4.98167
4.98171
4.98174
4.98175
4.98175
4.98174
4.98171
4.98167
4.98161
4.98154
4.98146
4.98136
4.98125
4.98112
4.98098
4.98083
4.98066
4.98049
4.98031
4.98011
4.97992
4.97972
4.97951
4.97932
4.97913
4.97894
4.97878
4.97863
4.97851
4.97842
4.97836
4.97834
4.97837
4.97843
5.02284
5.02278
5.02276
5.02278
5.02284
5.02294
5.02307
5.02323
5.0234
5.02359
5.02379
5.024
5.02421
5.02442
5.02463
5.02483
5.02502
5.02521
5.02538
5.02554
5.02568
5.02581
5.02593
5.02603
5.02612
5.0262
5.02625
5.0263
5.02633
5.02634
5.02634
5.02633
5.0263
5.02625
5.0262
5.02612
5.02603
5.02593
5.02581
5.02568
5.02554
5.02538
5.02521
5.02502
5.02483
5.02463
5.02442
5.02421
5.024
5.02379
5.02359
5.0234
5.02323
5.02307
5.02294
5.02284
5.02278
5.02276
5.02278
5.02284
5.06814
5.06808
5.06806
5.06809
5.06816
5.06827
5.06841
5.06857
5.06875
5.06895
5.06916
5.06938
5.0696
5.06982
5.07004
5.07025
5.07045
5.07064
5.07082
5.07099
5.07114
5.07128
5.0714
5.07151
5.0716
5.07168
5.07174
5.07179
5.07182
5.07183
5.07183
5.07182
5.07179
5.07174
5.07168
5.0716
5.07151
5.0714
5.07128
5.07114
5.07099
5.07082
5.07064
5.07045
5.07025
5.07004
5.06982
5.0696
5.06938
5.06916
5.06895
5.06875
5.06857
5.06841
5.06827
5.06816
5.06809
5.06806
5.06808
5.06814
5.11438
5.11434
5.11432
5.11435
5.11443
5.11454
5.11469
5.11486
5.11506
5.11527
5.11549
5.11572
5.11595
5.11618
5.1164
5.11662
5.11683
5.11703
5.11722
5.1174
5.11755
5.1177
5.11783
5.11794
5.11804
5.11812
5.11818
5.11823
5.11826
5.11828
5.11828
5.11826
5.11823
5.11818
5.11812
5.11804
5.11794
5.11783
5.1177
5.11755
5.1174
5.11722
5.11703
5.11683
5.11662
5.1164
5.11618
5.11595
5.11572
5.11549
5.11527
5.11506
5.11486
5.11469
5.11454
5.11443
5.11435
5.11432
5.11434
5.11438
5.16164
5.1616
5.16159
5.16162
5.16171
5.16183
5.16198
5.16216
5.16237
5.16259
5.16282
5.16306
5.1633
5.16354
5.16378
5.16401
5.16423
5.16444
5.16463
5.16482
5.16498
5.16513
5.16527
5.16538
5.16548
5.16557
5.16563
5.16568
5.16572
5.16573
5.16573
5.16572
5.16568
5.16563
5.16557
5.16548
5.16538
5.16527
5.16513
5.16498
5.16482
5.16463
5.16444
5.16423
5.16401
5.16378
5.16354
5.1633
5.16306
5.16282
5.16259
5.16237
5.16216
5.16198
5.16183
5.16171
5.16162
5.16159
5.1616
5.16164
5.20996
5.20992
5.20992
5.20996
5.21005
5.21018
5.21034
5.21053
5.21075
5.21098
5.21122
5.21147
5.21173
5.21198
5.21223
5.21247
5.2127
5.21291
5.21312
5.21331
5.21348
5.21364
5.21378
5.2139
5.214
5.21409
5.21416
5.21421
5.21425
5.21427
5.21427
5.21425
5.21421
5.21416
5.21409
5.214
5.2139
5.21378
5.21364
5.21348
5.21331
5.21312
5.21291
5.2127
5.21247
5.21223
5.21198
5.21173
5.21147
5.21122
5.21098
5.21075
5.21053
5.21034
5.21018
5.21005
5.20996
5.20992
5.20992
5.20996
5.2594
5.25937
5.25937
5.25942
5.25952
5.25966
5.25983
5.26003
5.26025
5.2605
5.26075
5.26101
5.26128
5.26154
5.2618
5.26205
5.26229
5.26252
5.26273
5.26293
5.26311
5.26327
5.26342
5.26355
5.26366
5.26375
5.26382
5.26388
5.26391
5.26393
5.26393
5.26391
5.26388
5.26382
5.26375
5.26366
5.26355
5.26342
5.26327
5.26311
5.26293
5.26273
5.26252
5.26229
5.26205
5.2618
5.26154
5.26128
5.26101
5.26075
5.2605
5.26025
5.26003
5.25983
5.25966
5.25952
5.25942
5.25937
5.25937
5.2594
5.31003
5.31
5.31001
5.31007
5.31017
5.31032
5.3105
5.31071
5.31095
5.3112
5.31147
5.31174
5.31202
5.31229
5.31256
5.31283
5.31308
5.31331
5.31354
5.31374
5.31393
5.3141
5.31425
5.31439
5.3145
5.31459
5.31467
5.31473
5.31477
5.31478
5.31478
5.31477
5.31473
5.31467
5.31459
5.3145
5.31439
5.31425
5.3141
5.31393
5.31374
5.31354
5.31331
5.31308
5.31283
5.31256
5.31229
5.31202
5.31174
5.31147
5.3112
5.31095
5.31071
5.3105
5.31032
5.31017
5.31007
5.31001
5.31
5.31003
5.3619
5.36187
5.36189
5.36195
5.36206
5.36222
5.36241
5.36263
5.36288
5.36315
5.36343
5.36371
5.364
5.36429
5.36457
5.36485
5.36511
5.36536
5.36559
5.3658
5.366
5.36618
5.36633
5.36647
5.36659
5.36669
5.36677
5.36683
5.36687
5.36689
5.36689
5.36687
5.36683
5.36677
5.36669
5.36659
5.36647
5.36633
5.36618
5.366
5.3658
5.36559
5.36536
5.36511
5.36485
5.36457
5.36429
5.364
5.36371
5.36343
5.36315
5.36288
5.36263
5.36241
5.36222
5.36206
5.36195
5.36189
5.36187
5.3619
5.41506
5.41505
5.41507
5.41514
5.41526
5.41542
5.41562
5.41586
5.41612
5.4164
5.41669
5.41699
5.41729
5.41759
5.41789
5.41817
5.41844
5.4187
5.41894
5.41917
5.41937
5.41956
5.41972
5.41987
5.41999
5.42009
5.42018
5.42024
5.42028
5.4203
5.4203
5.42028
5.42024
5.42018
5.42009
5.41999
5.41987
5.41972
5.41956
5.41937
5.41917
5.41894
5.4187
5.41844
5.41817
5.41789
5.41759
5.41729
5.41699
5.41669
5.4164
5.41612
5.41586
5.41562
5.41542
5.41526
5.41514
5.41507
5.41505
5.41506
5.46959
5.46958
5.4696
5.46968
5.46981
5.46999
5.4702
5.47045
5.47072
5.47101
5.47132
5.47163
5.47195
5.47226
5.47257
5.47286
5.47315
5.47342
5.47367
5.4739
5.47411
5.47431
5.47448
5.47463
5.47476
5.47486
5.47495
5.47501
5.47506
5.47508
5.47508
5.47506
5.47501
5.47495
5.47486
5.47476
5.47463
5.47448
5.47431
5.47411
5.4739
5.47367
5.47342
5.47315
5.47286
5.47257
5.47226
5.47195
5.47163
5.47132
5.47101
5.47072
5.47045
5.4702
5.46999
5.46981
5.46968
5.4696
5.46958
5.46959
5.52554
5.52553
5.52556
5.52565
5.52579
5.52597
5.5262
5.52645
5.52674
5.52705
5.52737
5.52769
5.52802
5.52835
5.52867
5.52898
5.52928
5.52956
5.52982
5.53006
5.53028
5.53048
5.53066
5.53082
5.53095
5.53106
5.53115
5.53122
5.53126
5.53129
5.53129
5.53126
5.53122
5.53115
5.53106
5.53095
5.53082
5.53066
5.53048
5.53028
5.53006
5.52982
5.52956
5.52928
5.52898
5.52867
5.52835
5.52802
5.52769
5.52737
5.52705
5.52674
5.52645
5.5262
5.52597
5.52579
5.52565
5.52556
5.52553
5.52554
5.58296
5.58296
5.583
5.58309
5.58324
5.58344
5.58367
5.58394
5.58424
5.58456
5.5849
5.58524
5.58558
5.58593
5.58626
5.58658
5.58689
5.58718
5.58746
5.58771
5.58794
5.58815
5.58833
5.5885
5.58864
5.58875
5.58885
5.58891
5.58896
5.58898
5.58898
5.58896
5.58891
5.58885
5.58875
5.58864
5.5885
5.58833
5.58815
5.58794
5.58771
5.58746
5.58718
5.58689
5.58658
5.58626
5.58593
5.58558
5.58524
5.5849
5.58456
5.58424
5.58394
5.58367
5.58344
5.58324
5.58309
5.583
5.58296
5.58296
5.64193
5.64193
5.64198
5.64208
5.64224
5.64244
5.64269
5.64298
5.64329
5.64363
5.64398
5.64433
5.64469
5.64505
5.6454
5.64573
5.64606
5.64636
5.64664
5.64691
5.64715
5.64736
5.64756
5.64773
5.64787
5.64799
5.64809
5.64816
5.64821
5.64823
5.64823
5.64821
5.64816
5.64809
5.64799
5.64787
5.64773
5.64756
5.64736
5.64715
5.64691
5.64664
5.64636
5.64606
5.64573
5.6454
5.64505
5.64469
5.64433
5.64398
5.64363
5.64329
5.64298
5.64269
5.64244
5.64224
5.64208
5.64198
5.64193
5.64193
5.70249
5.7025
5.70256
5.70267
5.70284
5.70305
5.70332
5.70361
5.70394
5.70429
5.70466
5.70503
5.70541
5.70578
5.70614
5.70649
5.70683
5.70714
5.70744
5.70771
5.70796
5.70819
5.70839
5.70857
5.70872
5.70884
5.70894
5.70902
5.70907
5.70909
5.70909
5.70907
5.70902
5.70894
5.70884
5.70872
5.70857
5.70839
5.70819
5.70796
5.70771
5.70744
5.70714
5.70683
5.70649
5.70614
5.70578
5.70541
5.70503
5.70466
5.70429
5.70394
5.70361
5.70332
5.70305
5.70284
5.70267
5.70256
5.7025
5.70249
5.76473
5.76474
5.7648
5.76492
5.7651
5.76533
5.76561
5.76592
5.76626
5.76663
5.76701
5.7674
5.76779
5.76818
5.76856
5.76893
5.76927
5.7696
5.76991
5.7702
5.77046
5.77069
5.7709
5.77108
5.77124
5.77137
5.77147
5.77155
5.7716
5.77163
5.77163
5.7716
5.77155
5.77147
5.77137
5.77124
5.77108
5.7709
5.77069
5.77046
5.7702
5.76991
5.7696
5.76927
5.76893
5.76856
5.76818
5.76779
5.7674
5.76701
5.76663
5.76626
5.76592
5.76561
5.76533
5.7651
5.76492
5.7648
5.76474
5.76473
5.82868
5.8287
5.82877
5.8289
5.82909
5.82934
5.82963
5.82996
5.83032
5.8307
5.8311
5.83151
5.83191
5.83232
5.83271
5.83309
5.83346
5.8338
5.83412
5.83441
5.83468
5.83493
5.83515
5.83534
5.8355
5.83563
5.83574
5.83582
5.83588
5.8359
5.8359
5.83588
5.83582
5.83574
5.83563
5.8355
5.83534
5.83515
5.83493
5.83468
5.83441
5.83412
5.8338
5.83346
5.83309
5.83271
5.83232
5.83191
5.83151
5.8311
5.8307
5.83032
5.82996
5.82963
5.82934
5.82909
5.8289
5.82877
5.8287
5.82868
5.89443
5.89446
5.89454
5.89468
5.89488
5.89513
5.89544
5.89579
5.89616
5.89656
5.89698
5.89741
5.89783
5.89825
5.89866
5.89906
5.89944
5.8998
5.90013