/*--------------------------------*- C++ -*----------------------------------*\
| =========                 |                                                 |
| \\      /  F ield         | foam-extend: Open Source CFD                    |
|  \\    /   O peration     | Version:     4.0                                |
|   \\  /    A nd           | Web:         http://www.foam-extend.org         |
|    \\/     M anipulation  |                                                 |
\*---------------------------------------------------------------------------*/
FoamFile
{
    version     2.0;
    format      ascii;
    class       volScalarField;
    location    "120";
    object      cMinus;
}
// * * * * * * * * * * * * * * * * * * * * * * * * * * * * * * * * * * * * * //

dimensions      [0 0 0 0 0 0 0];

internalField   nonuniform List<scalar> 
6960
(
0.0189919
0.0190089
0.0190136
0.0190161
0.0190178
0.0190192
0.0190203
0.0190213
0.0190221
0.0190229
0.0190236
0.0190242
0.0190248
0.0190254
0.0190259
0.0190264
0.0190268
0.0190273
0.0190276
0.019028
0.0190283
0.0190286
0.0190288
0.019029
0.0190292
0.0190294
0.0190295
0.0190296
0.0190296
0.0190297
0.0190297
0.0190296
0.0190296
0.0190295
0.0190294
0.0190292
0.019029
0.0190288
0.0190286
0.0190283
0.019028
0.0190276
0.0190273
0.0190268
0.0190264
0.0190259
0.0190254
0.0190248
0.0190242
0.0190236
0.0190229
0.0190221
0.0190213
0.0190203
0.0190192
0.0190178
0.0190161
0.0190136
0.0190089
0.0189919
0.0443429
0.0443803
0.0443901
0.0443951
0.0443986
0.0444012
0.0444034
0.0444053
0.0444069
0.0444084
0.0444098
0.044411
0.0444122
0.0444132
0.0444142
0.0444152
0.044416
0.0444168
0.0444175
0.0444182
0.0444188
0.0444193
0.0444198
0.0444202
0.0444206
0.0444209
0.0444211
0.0444213
0.0444214
0.0444215
0.0444215
0.0444214
0.0444213
0.0444211
0.0444209
0.0444206
0.0444202
0.0444198
0.0444193
0.0444188
0.0444182
0.0444175
0.0444168
0.044416
0.0444152
0.0444142
0.0444132
0.0444122
0.044411
0.0444098
0.0444084
0.0444069
0.0444053
0.0444034
0.0444012
0.0443986
0.0443951
0.0443901
0.0443803
0.0443429
0.0791915
0.0792536
0.0792692
0.0792766
0.0792816
0.0792855
0.0792886
0.0792913
0.0792937
0.0792958
0.0792977
0.0792995
0.0793012
0.0793027
0.0793041
0.0793055
0.0793067
0.0793078
0.0793089
0.0793098
0.0793107
0.0793114
0.0793121
0.0793127
0.0793132
0.0793136
0.079314
0.0793142
0.0793144
0.0793145
0.0793145
0.0793144
0.0793142
0.079314
0.0793136
0.0793132
0.0793127
0.0793121
0.0793114
0.0793107
0.0793098
0.0793089
0.0793078
0.0793067
0.0793055
0.0793041
0.0793027
0.0793012
0.0792995
0.0792977
0.0792958
0.0792937
0.0792913
0.0792886
0.0792855
0.0792816
0.0792766
0.0792692
0.0792536
0.0791915
0.120524
0.120611
0.120632
0.120641
0.120647
0.120652
0.120655
0.120659
0.120662
0.120664
0.120666
0.120668
0.12067
0.120672
0.120674
0.120675
0.120677
0.120678
0.12068
0.120681
0.120682
0.120683
0.120683
0.120684
0.120685
0.120685
0.120686
0.120686
0.120686
0.120686
0.120686
0.120686
0.120686
0.120686
0.120685
0.120685
0.120684
0.120683
0.120683
0.120682
0.120681
0.12068
0.120678
0.120677
0.120675
0.120674
0.120672
0.12067
0.120668
0.120666
0.120664
0.120662
0.120659
0.120655
0.120652
0.120647
0.120641
0.120632
0.120611
0.120524
0.164785
0.164894
0.164919
0.164929
0.164936
0.164941
0.164945
0.164948
0.164951
0.164954
0.164956
0.164958
0.16496
0.164962
0.164964
0.164966
0.164967
0.164969
0.16497
0.164971
0.164972
0.164973
0.164974
0.164975
0.164975
0.164976
0.164976
0.164977
0.164977
0.164977
0.164977
0.164977
0.164977
0.164976
0.164976
0.164975
0.164975
0.164974
0.164973
0.164972
0.164971
0.16497
0.164969
0.164967
0.164966
0.164964
0.164962
0.16496
0.164958
0.164956
0.164954
0.164951
0.164948
0.164945
0.164941
0.164936
0.164929
0.164919
0.164894
0.164785
0.20923
0.209358
0.209385
0.209396
0.209403
0.209408
0.209411
0.209415
0.209418
0.20942
0.209423
0.209425
0.209427
0.209429
0.20943
0.209432
0.209433
0.209435
0.209436
0.209437
0.209438
0.209439
0.20944
0.209441
0.209441
0.209442
0.209442
0.209443
0.209443
0.209443
0.209443
0.209443
0.209443
0.209442
0.209442
0.209441
0.209441
0.20944
0.209439
0.209438
0.209437
0.209436
0.209435
0.209433
0.209432
0.20943
0.209429
0.209427
0.209425
0.209423
0.20942
0.209418
0.209415
0.209411
0.209408
0.209403
0.209396
0.209385
0.209358
0.20923
0.252363
0.252507
0.252537
0.252548
0.252555
0.252559
0.252563
0.252566
0.252569
0.252571
0.252573
0.252575
0.252577
0.252579
0.252581
0.252582
0.252583
0.252585
0.252586
0.252587
0.252588
0.252589
0.25259
0.25259
0.252591
0.252591
0.252592
0.252592
0.252592
0.252592
0.252592
0.252592
0.252592
0.252592
0.252591
0.252591
0.25259
0.25259
0.252589
0.252588
0.252587
0.252586
0.252585
0.252583
0.252582
0.252581
0.252579
0.252577
0.252575
0.252573
0.252571
0.252569
0.252566
0.252563
0.252559
0.252555
0.252548
0.252537
0.252507
0.252363
0.293656
0.293814
0.293846
0.293857
0.293863
0.293867
0.293871
0.293874
0.293876
0.293878
0.29388
0.293882
0.293884
0.293885
0.293887
0.293888
0.293889
0.293891
0.293892
0.293893
0.293894
0.293894
0.293895
0.293896
0.293896
0.293897
0.293897
0.293897
0.293897
0.293897
0.293897
0.293897
0.293897
0.293897
0.293897
0.293896
0.293896
0.293895
0.293894
0.293894
0.293893
0.293892
0.293891
0.293889
0.293888
0.293887
0.293885
0.293884
0.293882
0.29388
0.293878
0.293876
0.293874
0.293871
0.293867
0.293863
0.293857
0.293846
0.293814
0.293656
0.333075
0.333246
0.33328
0.333291
0.333297
0.333301
0.333304
0.333306
0.333309
0.333311
0.333313
0.333314
0.333316
0.333317
0.333318
0.33332
0.333321
0.333322
0.333323
0.333324
0.333324
0.333325
0.333326
0.333326
0.333327
0.333327
0.333328
0.333328
0.333328
0.333328
0.333328
0.333328
0.333328
0.333328
0.333327
0.333327
0.333326
0.333326
0.333325
0.333324
0.333324
0.333323
0.333322
0.333321
0.33332
0.333318
0.333317
0.333316
0.333314
0.333313
0.333311
0.333309
0.333306
0.333304
0.333301
0.333297
0.333291
0.33328
0.333246
0.333075
0.370755
0.370938
0.370974
0.370984
0.37099
0.370993
0.370996
0.370999
0.371001
0.371002
0.371004
0.371006
0.371007
0.371008
0.371009
0.371011
0.371012
0.371013
0.371013
0.371014
0.371015
0.371016
0.371016
0.371017
0.371017
0.371017
0.371018
0.371018
0.371018
0.371018
0.371018
0.371018
0.371018
0.371018
0.371017
0.371017
0.371017
0.371016
0.371016
0.371015
0.371014
0.371013
0.371013
0.371012
0.371011
0.371009
0.371008
0.371007
0.371006
0.371004
0.371002
0.371001
0.370999
0.370996
0.370993
0.37099
0.370984
0.370974
0.370938
0.370755
0.406837
0.40703
0.407068
0.407079
0.407084
0.407088
0.40709
0.407092
0.407094
0.407096
0.407097
0.407099
0.4071
0.407101
0.407102
0.407103
0.407104
0.407105
0.407106
0.407106
0.407107
0.407108
0.407108
0.407109
0.407109
0.407109
0.407109
0.40711
0.40711
0.40711
0.40711
0.40711
0.40711
0.407109
0.407109
0.407109
0.407109
0.407108
0.407108
0.407107
0.407106
0.407106
0.407105
0.407104
0.407103
0.407102
0.407101
0.4071
0.407099
0.407097
0.407096
0.407094
0.407092
0.40709
0.407088
0.407084
0.407079
0.407068
0.40703
0.406837
0.441427
0.44163
0.44167
0.44168
0.441685
0.441688
0.441691
0.441692
0.441694
0.441696
0.441697
0.441698
0.441699
0.4417
0.441701
0.441702
0.441703
0.441704
0.441705
0.441705
0.441706
0.441706
0.441707
0.441707
0.441707
0.441708
0.441708
0.441708
0.441708
0.441708
0.441708
0.441708
0.441708
0.441708
0.441708
0.441707
0.441707
0.441707
0.441706
0.441706
0.441705
0.441705
0.441704
0.441703
0.441702
0.441701
0.4417
0.441699
0.441698
0.441697
0.441696
0.441694
0.441692
0.441691
0.441688
0.441685
0.44168
0.44167
0.44163
0.441427
0.474592
0.474803
0.474845
0.474856
0.47486
0.474863
0.474866
0.474867
0.474869
0.47487
0.474871
0.474872
0.474873
0.474874
0.474875
0.474876
0.474877
0.474877
0.474878
0.474879
0.474879
0.47488
0.47488
0.47488
0.474881
0.474881
0.474881
0.474881
0.474881
0.474882
0.474882
0.474881
0.474881
0.474881
0.474881
0.474881
0.47488
0.47488
0.47488
0.474879
0.474879
0.474878
0.474877
0.474877
0.474876
0.474875
0.474874
0.474873
0.474872
0.474871
0.47487
0.474869
0.474867
0.474866
0.474863
0.47486
0.474856
0.474845
0.474803
0.474592
0.506377
0.506596
0.506639
0.50665
0.506654
0.506657
0.506659
0.506661
0.506662
0.506663
0.506664
0.506665
0.506666
0.506667
0.506668
0.506669
0.506669
0.50667
0.506671
0.506671
0.506672
0.506672
0.506672
0.506673
0.506673
0.506673
0.506673
0.506673
0.506674
0.506674
0.506674
0.506674
0.506673
0.506673
0.506673
0.506673
0.506673
0.506672
0.506672
0.506672
0.506671
0.506671
0.50667
0.506669
0.506669
0.506668
0.506667
0.506666
0.506665
0.506664
0.506663
0.506662
0.506661
0.506659
0.506657
0.506654
0.50665
0.506639
0.506596
0.506377
0.536812
0.537038
0.537083
0.537094
0.537098
0.5371
0.537102
0.537104
0.537105
0.537106
0.537107
0.537108
0.537109
0.537109
0.53711
0.537111
0.537111
0.537112
0.537113
0.537113
0.537113
0.537114
0.537114
0.537114
0.537115
0.537115
0.537115
0.537115
0.537115
0.537115
0.537115
0.537115
0.537115
0.537115
0.537115
0.537115
0.537114
0.537114
0.537114
0.537113
0.537113
0.537113
0.537112
0.537111
0.537111
0.53711
0.537109
0.537109
0.537108
0.537107
0.537106
0.537105
0.537104
0.537102
0.5371
0.537098
0.537094
0.537083
0.537038
0.536812
0.565922
0.566154
0.5662
0.566211
0.566215
0.566218
0.566219
0.566221
0.566222
0.566223
0.566224
0.566225
0.566225
0.566226
0.566227
0.566227
0.566228
0.566228
0.566229
0.566229
0.566229
0.56623
0.56623
0.56623
0.566231
0.566231
0.566231
0.566231
0.566231
0.566231
0.566231
0.566231
0.566231
0.566231
0.566231
0.566231
0.56623
0.56623
0.56623
0.566229
0.566229
0.566229
0.566228
0.566228
0.566227
0.566227
0.566226
0.566225
0.566225
0.566224
0.566223
0.566222
0.566221
0.566219
0.566218
0.566215
0.566211
0.5662
0.566154
0.565922
0.59373
0.593966
0.594014
0.594025
0.594029
0.594031
0.594033
0.594034
0.594035
0.594036
0.594037
0.594038
0.594038
0.594039
0.594039
0.59404
0.59404
0.594041
0.594041
0.594042
0.594042
0.594042
0.594043
0.594043
0.594043
0.594043
0.594043
0.594043
0.594043
0.594043
0.594043
0.594043
0.594043
0.594043
0.594043
0.594043
0.594043
0.594043
0.594042
0.594042
0.594042
0.594041
0.594041
0.59404
0.59404
0.594039
0.594039
0.594038
0.594038
0.594037
0.594036
0.594035
0.594034
0.594033
0.594031
0.594029
0.594025
0.594014
0.593966
0.59373
0.620257
0.620497
0.620546
0.620558
0.620561
0.620563
0.620565
0.620566
0.620567
0.620568
0.620568
0.620569
0.62057
0.62057
0.620571
0.620571
0.620572
0.620572
0.620572
0.620573
0.620573
0.620573
0.620573
0.620574
0.620574
0.620574
0.620574
0.620574
0.620574
0.620574
0.620574
0.620574
0.620574
0.620574
0.620574
0.620574
0.620574
0.620573
0.620573
0.620573
0.620573
0.620572
0.620572
0.620572
0.620571
0.620571
0.62057
0.62057
0.620569
0.620568
0.620568
0.620567
0.620566
0.620565
0.620563
0.620561
0.620558
0.620546
0.620497
0.620257
0.645526
0.645769
0.64582
0.645831
0.645835
0.645837
0.645838
0.645839
0.64584
0.64584
0.645841
0.645842
0.645842
0.645843
0.645843
0.645844
0.645844
0.645844
0.645845
0.645845
0.645845
0.645845
0.645846
0.645846
0.645846
0.645846
0.645846
0.645846
0.645846
0.645846
0.645846
0.645846
0.645846
0.645846
0.645846
0.645846
0.645846
0.645846
0.645845
0.645845
0.645845
0.645845
0.645844
0.645844
0.645844
0.645843
0.645843
0.645842
0.645842
0.645841
0.64584
0.64584
0.645839
0.645838
0.645837
0.645835
0.645831
0.64582
0.645769
0.645526
0.669562
0.669806
0.669858
0.66987
0.669874
0.669875
0.669876
0.669877
0.669878
0.669879
0.669879
0.66988
0.66988
0.669881
0.669881
0.669882
0.669882
0.669882
0.669883
0.669883
0.669883
0.669883
0.669883
0.669884
0.669884
0.669884
0.669884
0.669884
0.669884
0.669884
0.669884
0.669884
0.669884
0.669884
0.669884
0.669884
0.669884
0.669883
0.669883
0.669883
0.669883
0.669883
0.669882
0.669882
0.669882
0.669881
0.669881
0.66988
0.66988
0.669879
0.669879
0.669878
0.669877
0.669876
0.669875
0.669874
0.66987
0.669858
0.669806
0.669562
0.692389
0.692634
0.692688
0.6927
0.692704
0.692705
0.692706
0.692707
0.692708
0.692708
0.692709
0.692709
0.69271
0.69271
0.69271
0.692711
0.692711
0.692711
0.692712
0.692712
0.692712
0.692712
0.692712
0.692713
0.692713
0.692713
0.692713
0.692713
0.692713
0.692713
0.692713
0.692713
0.692713
0.692713
0.692713
0.692713
0.692713
0.692712
0.692712
0.692712
0.692712
0.692712
0.692711
0.692711
0.692711
0.69271
0.69271
0.69271
0.692709
0.692709
0.692708
0.692708
0.692707
0.692706
0.692705
0.692704
0.6927
0.692688
0.692634
0.692389
0.714036
0.714281
0.714336
0.714348
0.714352
0.714353
0.714354
0.714355
0.714356
0.714356
0.714357
0.714357
0.714357
0.714358
0.714358
0.714358
0.714359
0.714359
0.714359
0.714359
0.71436
0.71436
0.71436
0.71436
0.71436
0.71436
0.71436
0.71436
0.71436
0.71436
0.71436
0.71436
0.71436
0.71436
0.71436
0.71436
0.71436
0.71436
0.71436
0.71436
0.714359
0.714359
0.714359
0.714359
0.714358
0.714358
0.714358
0.714357
0.714357
0.714357
0.714356
0.714356
0.714355
0.714354
0.714353
0.714352
0.714348
0.714336
0.714281
0.714036
0.734532
0.734776
0.734832
0.734844
0.734848
0.734849
0.73485
0.734851
0.734851
0.734852
0.734852
0.734852
0.734853
0.734853
0.734853
0.734854
0.734854
0.734854
0.734854
0.734854
0.734855
0.734855
0.734855
0.734855
0.734855
0.734855
0.734855
0.734855
0.734855
0.734855
0.734855
0.734855
0.734855
0.734855
0.734855
0.734855
0.734855
0.734855
0.734855
0.734855
0.734854
0.734854
0.734854
0.734854
0.734854
0.734853
0.734853
0.734853
0.734852
0.734852
0.734852
0.734851
0.734851
0.73485
0.734849
0.734848
0.734844
0.734832
0.734776
0.734532
0.753906
0.754149
0.754206
0.754218
0.754222
0.754223
0.754224
0.754224
0.754225
0.754225
0.754226
0.754226
0.754226
0.754227
0.754227
0.754227
0.754227
0.754227
0.754228
0.754228
0.754228
0.754228
0.754228
0.754228
0.754228
0.754228
0.754228
0.754229
0.754229
0.754229
0.754229
0.754229
0.754229
0.754228
0.754228
0.754228
0.754228
0.754228
0.754228
0.754228
0.754228
0.754228
0.754227
0.754227
0.754227
0.754227
0.754227
0.754226
0.754226
0.754226
0.754225
0.754225
0.754224
0.754224
0.754223
0.754222
0.754218
0.754206
0.754149
0.753906
0.772191
0.772432
0.77249
0.772502
0.772506
0.772507
0.772508
0.772508
0.772509
0.772509
0.772509
0.77251
0.77251
0.77251
0.77251
0.772511
0.772511
0.772511
0.772511
0.772511
0.772511
0.772511
0.772512
0.772512
0.772512
0.772512
0.772512
0.772512
0.772512
0.772512
0.772512
0.772512
0.772512
0.772512
0.772512
0.772512
0.772512
0.772512
0.772511
0.772511
0.772511
0.772511
0.772511
0.772511
0.772511
0.77251
0.77251
0.77251
0.77251
0.772509
0.772509
0.772509
0.772508
0.772508
0.772507
0.772506
0.772502
0.77249
0.772432
0.772191
0.78942
0.789659
0.789717
0.78973
0.789733
0.789734
0.789735
0.789736
0.789736
0.789736
0.789737
0.789737
0.789737
0.789737
0.789737
0.789738
0.789738
0.789738
0.789738
0.789738
0.789738
0.789738
0.789739
0.789739
0.789739
0.789739
0.789739
0.789739
0.789739
0.789739
0.789739
0.789739
0.789739
0.789739
0.789739
0.789739
0.789739
0.789739
0.789738
0.789738
0.789738
0.789738
0.789738
0.789738
0.789738
0.789737
0.789737
0.789737
0.789737
0.789737
0.789736
0.789736
0.789736
0.789735
0.789734
0.789733
0.78973
0.789717
0.789659
0.78942
0.805629
0.805863
0.805922
0.805935
0.805939
0.80594
0.805941
0.805941
0.805941
0.805942
0.805942
0.805942
0.805942
0.805942
0.805943
0.805943
0.805943
0.805943
0.805943
0.805943
0.805943
0.805944
0.805944
0.805944
0.805944
0.805944
0.805944
0.805944
0.805944
0.805944
0.805944
0.805944
0.805944
0.805944
0.805944
0.805944
0.805944
0.805944
0.805944
0.805943
0.805943
0.805943
0.805943
0.805943
0.805943
0.805943
0.805942
0.805942
0.805942
0.805942
0.805942
0.805941
0.805941
0.805941
0.80594
0.805939
0.805935
0.805922
0.805863
0.805629
0.820851
0.821082
0.821141
0.821155
0.821158
0.821159
0.82116
0.82116
0.82116
0.82116
0.821161
0.821161
0.821161
0.821161
0.821161
0.821162
0.821162
0.821162
0.821162
0.821162
0.821162
0.821162
0.821162
0.821162
0.821162
0.821162
0.821162
0.821163
0.821163
0.821163
0.821163
0.821163
0.821163
0.821162
0.821162
0.821162
0.821162
0.821162
0.821162
0.821162
0.821162
0.821162
0.821162
0.821162
0.821162
0.821161
0.821161
0.821161
0.821161
0.821161
0.82116
0.82116
0.82116
0.82116
0.821159
0.821158
0.821155
0.821141
0.821082
0.820851
0.835124
0.83535
0.83541
0.835423
0.835427
0.835428
0.835428
0.835429
0.835429
0.835429
0.835429
0.83543
0.83543
0.83543
0.83543
0.83543
0.83543
0.83543
0.835431
0.835431
0.835431
0.835431
0.835431
0.835431
0.835431
0.835431
0.835431
0.835431
0.835431
0.835431
0.835431
0.835431
0.835431
0.835431
0.835431
0.835431
0.835431
0.835431
0.835431
0.835431
0.835431
0.835431
0.83543
0.83543
0.83543
0.83543
0.83543
0.83543
0.83543
0.835429
0.835429
0.835429
0.835429
0.835428
0.835428
0.835427
0.835423
0.83541
0.83535
0.835124
0.848485
0.848706
0.848765
0.848779
0.848783
0.848784
0.848784
0.848784
0.848785
0.848785
0.848785
0.848785
0.848785
0.848786
0.848786
0.848786
0.848786
0.848786
0.848786
0.848786
0.848786
0.848786
0.848786
0.848786
0.848786
0.848786
0.848786
0.848786
0.848786
0.848786
0.848786
0.848786
0.848786
0.848786
0.848786
0.848786
0.848786
0.848786
0.848786
0.848786
0.848786
0.848786
0.848786
0.848786
0.848786
0.848786
0.848786
0.848785
0.848785
0.848785
0.848785
0.848785
0.848784
0.848784
0.848784
0.848783
0.848779
0.848765
0.848706
0.848485
0.86097
0.861185
0.861245
0.861259
0.861263
0.861264
0.861264
0.861264
0.861265
0.861265
0.861265
0.861265
0.861265
0.861265
0.861265
0.861266
0.861266
0.861266
0.861266
0.861266
0.861266
0.861266
0.861266
0.861266
0.861266
0.861266
0.861266
0.861266
0.861266
0.861266
0.861266
0.861266
0.861266
0.861266
0.861266
0.861266
0.861266
0.861266
0.861266
0.861266
0.861266
0.861266
0.861266
0.861266
0.861266
0.861265
0.861265
0.861265
0.861265
0.861265
0.861265
0.861265
0.861264
0.861264
0.861264
0.861263
0.861259
0.861245
0.861185
0.86097
0.872618
0.872827
0.872887
0.872901
0.872905
0.872906
0.872906
0.872906
0.872907
0.872907
0.872907
0.872907
0.872907
0.872907
0.872907
0.872907
0.872908
0.872908
0.872908
0.872908
0.872908
0.872908
0.872908
0.872908
0.872908
0.872908
0.872908
0.872908
0.872908
0.872908
0.872908
0.872908
0.872908
0.872908
0.872908
0.872908
0.872908
0.872908
0.872908
0.872908
0.872908
0.872908
0.872908
0.872908
0.872907
0.872907
0.872907
0.872907
0.872907
0.872907
0.872907
0.872907
0.872906
0.872906
0.872906
0.872905
0.872901
0.872887
0.872827
0.872618
0.883467
0.883669
0.883728
0.883743
0.883747
0.883748
0.883748
0.883748
0.883748
0.883749
0.883749
0.883749
0.883749
0.883749
0.883749
0.883749
0.883749
0.883749
0.883749
0.883749
0.883749
0.883749
0.88375
0.88375
0.88375
0.88375
0.88375
0.88375
0.88375
0.88375
0.88375
0.88375
0.88375
0.88375
0.88375
0.88375
0.88375
0.88375
0.883749
0.883749
0.883749
0.883749
0.883749
0.883749
0.883749
0.883749
0.883749
0.883749
0.883749
0.883749
0.883749
0.883748
0.883748
0.883748
0.883748
0.883747
0.883743
0.883728
0.883669
0.883467
0.893553
0.893749
0.893808
0.893822
0.893826
0.893827
0.893828
0.893828
0.893828
0.893828
0.893828
0.893828
0.893828
0.893828
0.893828
0.893829
0.893829
0.893829
0.893829
0.893829
0.893829
0.893829
0.893829
0.893829
0.893829
0.893829
0.893829
0.893829
0.893829
0.893829
0.893829
0.893829
0.893829
0.893829
0.893829
0.893829
0.893829
0.893829
0.893829
0.893829
0.893829
0.893829
0.893829
0.893829
0.893829
0.893828
0.893828
0.893828
0.893828
0.893828
0.893828
0.893828
0.893828
0.893828
0.893827
0.893826
0.893822
0.893808
0.893749
0.893553
0.902915
0.903104
0.903162
0.903177
0.903181
0.903182
0.903182
0.903182
0.903182
0.903183
0.903183
0.903183
0.903183
0.903183
0.903183
0.903183
0.903183
0.903183
0.903183
0.903183
0.903183
0.903183
0.903183
0.903183
0.903183
0.903183
0.903183
0.903183
0.903183
0.903183
0.903183
0.903183
0.903183
0.903183
0.903183
0.903183
0.903183
0.903183
0.903183
0.903183
0.903183
0.903183
0.903183
0.903183
0.903183
0.903183
0.903183
0.903183
0.903183
0.903183
0.903183
0.903182
0.903182
0.903182
0.903182
0.903181
0.903177
0.903162
0.903104
0.902915
0.91159
0.911772
0.911829
0.911844
0.911848
0.911849
0.911849
0.911849
0.911849
0.911849
0.91185
0.91185
0.91185
0.91185
0.91185
0.91185
0.91185
0.91185
0.91185
0.91185
0.91185
0.91185
0.91185
0.91185
0.91185
0.91185
0.91185
0.91185
0.91185
0.91185
0.91185
0.91185
0.91185
0.91185
0.91185
0.91185
0.91185
0.91185
0.91185
0.91185
0.91185
0.91185
0.91185
0.91185
0.91185
0.91185
0.91185
0.91185
0.91185
0.91185
0.911849
0.911849
0.911849
0.911849
0.911849
0.911848
0.911844
0.911829
0.911772
0.91159
0.919614
0.919788
0.919844
0.91986
0.919864
0.919865
0.919865
0.919865
0.919865
0.919865
0.919865
0.919866
0.919866
0.919866
0.919866
0.919866
0.919866
0.919866
0.919866
0.919866
0.919866
0.919866
0.919866
0.919866
0.919866
0.919866
0.919866
0.919866
0.919866
0.919866
0.919866
0.919866
0.919866
0.919866
0.919866
0.919866
0.919866
0.919866
0.919866
0.919866
0.919866
0.919866
0.919866
0.919866
0.919866
0.919866
0.919866
0.919866
0.919866
0.919865
0.919865
0.919865
0.919865
0.919865
0.919865
0.919864
0.91986
0.919844
0.919788
0.919614
0.927023
0.92719
0.927245
0.927261
0.927265
0.927266
0.927266
0.927266
0.927266
0.927266
0.927266
0.927266
0.927267
0.927267
0.927267
0.927267
0.927267
0.927267
0.927267
0.927267
0.927267
0.927267
0.927267
0.927267
0.927267
0.927267
0.927267
0.927267
0.927267
0.927267
0.927267
0.927267
0.927267
0.927267
0.927267
0.927267
0.927267
0.927267
0.927267
0.927267
0.927267
0.927267
0.927267
0.927267
0.927267
0.927267
0.927267
0.927267
0.927266
0.927266
0.927266
0.927266
0.927266
0.927266
0.927266
0.927265
0.927261
0.927245
0.92719
0.927023
0.933853
0.934013
0.934066
0.934082
0.934086
0.934087
0.934087
0.934088
0.934088
0.934088
0.934088
0.934088
0.934088
0.934088
0.934088
0.934088
0.934088
0.934088
0.934088
0.934088
0.934088
0.934088
0.934088
0.934088
0.934088
0.934088
0.934088
0.934088
0.934088
0.934088
0.934088
0.934088
0.934088
0.934088
0.934088
0.934088
0.934088
0.934088
0.934088
0.934088
0.934088
0.934088
0.934088
0.934088
0.934088
0.934088
0.934088
0.934088
0.934088
0.934088
0.934088
0.934088
0.934088
0.934087
0.934087
0.934086
0.934082
0.934066
0.934013
0.933853
0.940137
0.94029
0.940342
0.940358
0.940362
0.940363
0.940363
0.940364
0.940364
0.940364
0.940364
0.940364
0.940364
0.940364
0.940364
0.940364
0.940364
0.940364
0.940364
0.940364
0.940364
0.940364
0.940364
0.940364
0.940364
0.940364
0.940364
0.940364
0.940364
0.940364
0.940364
0.940364
0.940364
0.940364
0.940364
0.940364
0.940364
0.940364
0.940364
0.940364
0.940364
0.940364
0.940364
0.940364
0.940364
0.940364
0.940364
0.940364
0.940364
0.940364
0.940364
0.940364
0.940364
0.940363
0.940363
0.940362
0.940358
0.940342
0.94029
0.940137
0.945911
0.946055
0.946107
0.946122
0.946126
0.946127
0.946128
0.946128
0.946128
0.946128
0.946128
0.946128
0.946128
0.946128
0.946128
0.946128
0.946128
0.946128
0.946128
0.946128
0.946128
0.946128
0.946128
0.946128
0.946128
0.946128
0.946128
0.946128
0.946128
0.946128
0.946128
0.946128
0.946128
0.946128
0.946128
0.946128
0.946128
0.946128
0.946128
0.946128
0.946128
0.946128
0.946128
0.946128
0.946128
0.946128
0.946128
0.946128
0.946128
0.946128
0.946128
0.946128
0.946128
0.946128
0.946127
0.946126
0.946122
0.946107
0.946055
0.945911
0.951204
0.951342
0.951392
0.951407
0.951411
0.951412
0.951413
0.951413
0.951413
0.951413
0.951413
0.951413
0.951413
0.951413
0.951413
0.951413
0.951413
0.951413
0.951413
0.951413
0.951413
0.951413
0.951413
0.951413
0.951413
0.951413
0.951413
0.951413
0.951413
0.951413
0.951413
0.951413
0.951413
0.951413
0.951413
0.951413
0.951413
0.951413
0.951413
0.951413
0.951413
0.951413
0.951413
0.951413
0.951413
0.951413
0.951413
0.951413
0.951413
0.951413
0.951413
0.951413
0.951413
0.951413
0.951412
0.951411
0.951407
0.951392
0.951342
0.951204
0.95605
0.95618
0.956228
0.956244
0.956248
0.956249
0.95625
0.95625
0.95625
0.95625
0.95625
0.95625
0.95625
0.95625
0.95625
0.95625
0.95625
0.95625
0.95625
0.95625
0.95625
0.95625
0.95625
0.95625
0.95625
0.95625
0.95625
0.95625
0.95625
0.95625
0.95625
0.95625
0.95625
0.95625
0.95625
0.95625
0.95625
0.95625
0.95625
0.95625
0.95625
0.95625
0.95625
0.95625
0.95625
0.95625
0.95625
0.95625
0.95625
0.95625
0.95625
0.95625
0.95625
0.95625
0.956249
0.956248
0.956244
0.956228
0.95618
0.95605
0.960478
0.960601
0.960648
0.960663
0.960667
0.960668
0.960669
0.960669
0.960669
0.960669
0.960669
0.960669
0.960669
0.960669
0.960669
0.960669
0.960669
0.960669
0.960669
0.960669
0.960669
0.960669
0.960669
0.960669
0.960669
0.960669
0.960669
0.960669
0.960669
0.960669
0.960669
0.960669
0.960669
0.960669
0.960669
0.960669
0.960669
0.960669
0.960669
0.960669
0.960669
0.960669
0.960669
0.960669
0.960669
0.960669
0.960669
0.960669
0.960669
0.960669
0.960669
0.960669
0.960669
0.960669
0.960668
0.960667
0.960663
0.960648
0.960601
0.960478
0.964517
0.964633
0.964678
0.964693
0.964697
0.964698
0.964699
0.964699
0.964699
0.964699
0.964699
0.964699
0.964699
0.964699
0.964699
0.964699
0.964699
0.964699
0.964699
0.964699
0.964699
0.964699
0.964699
0.964699
0.964699
0.964699
0.964699
0.964699
0.964699
0.964699
0.964699
0.964699
0.964699
0.964699
0.964699
0.964699
0.964699
0.964699
0.964699
0.964699
0.964699
0.964699
0.964699
0.964699
0.964699
0.964699
0.964699
0.964699
0.964699
0.964699
0.964699
0.964699
0.964699
0.964699
0.964698
0.964697
0.964693
0.964678
0.964633
0.964517
0.968195
0.968304
0.968347
0.968362
0.968366
0.968367
0.968368
0.968368
0.968368
0.968368
0.968368
0.968368
0.968368
0.968368
0.968368
0.968368
0.968368
0.968368
0.968368
0.968368
0.968368
0.968368
0.968368
0.968368
0.968368
0.968368
0.968368
0.968368
0.968368
0.968368
0.968368
0.968368
0.968368
0.968368
0.968368
0.968368
0.968368
0.968368
0.968368
0.968368
0.968368
0.968368
0.968368
0.968368
0.968368
0.968368
0.968368
0.968368
0.968368
0.968368
0.968368
0.968368
0.968368
0.968368
0.968367
0.968366
0.968362
0.968347
0.968304
0.968195
0.971538
0.97164
0.971681
0.971696
0.9717
0.971702
0.971702
0.971702
0.971702
0.971702
0.971702
0.971702
0.971702
0.971702
0.971702
0.971702
0.971702
0.971702
0.971702
0.971702
0.971702
0.971702
0.971702
0.971702
0.971702
0.971702
0.971702
0.971702
0.971702
0.971702
0.971702
0.971702
0.971702
0.971702
0.971702
0.971702
0.971702
0.971702
0.971702
0.971702
0.971702
0.971702
0.971702
0.971702
0.971702
0.971702
0.971702
0.971702
0.971702
0.971702
0.971702
0.971702
0.971702
0.971702
0.971702
0.9717
0.971696
0.971681
0.97164
0.971538
0.974571
0.974666
0.974706
0.97472
0.974725
0.974726
0.974726
0.974727
0.974727
0.974727
0.974727
0.974727
0.974727
0.974727
0.974727
0.974727
0.974727
0.974727
0.974727
0.974727
0.974727
0.974727
0.974727
0.974727
0.974727
0.974727
0.974727
0.974727
0.974727
0.974727
0.974727
0.974727
0.974727
0.974727
0.974727
0.974727
0.974727
0.974727
0.974727
0.974727
0.974727
0.974727
0.974727
0.974727
0.974727
0.974727
0.974727
0.974727
0.974727
0.974727
0.974727
0.974727
0.974727
0.974726
0.974726
0.974725
0.97472
0.974706
0.974666
0.974571
0.977319
0.977407
0.977445
0.977459
0.977463
0.977465
0.977465
0.977465
0.977465
0.977465
0.977465
0.977465
0.977465
0.977465
0.977465
0.977465
0.977465
0.977465
0.977465
0.977465
0.977465
0.977465
0.977465
0.977465
0.977465
0.977465
0.977465
0.977465
0.977465
0.977465
0.977465
0.977465
0.977465
0.977465
0.977465
0.977465
0.977465
0.977465
0.977465
0.977465
0.977465
0.977465
0.977465
0.977465
0.977465
0.977465
0.977465
0.977465
0.977465
0.977465
0.977465
0.977465
0.977465
0.977465
0.977465
0.977463
0.977459
0.977445
0.977407
0.977319
0.979803
0.979885
0.979921
0.979934
0.979939
0.97994
0.979941
0.979941
0.979941
0.979941
0.979941
0.979941
0.979941
0.979941
0.979941
0.979941
0.979941
0.979941
0.979941
0.979941
0.979941
0.979941
0.979941
0.979941
0.979941
0.979941
0.979941
0.979941
0.979941
0.979941
0.979941
0.979941
0.979941
0.979941
0.979941
0.979941
0.979941
0.979941
0.979941
0.979941
0.979941
0.979941
0.979941
0.979941
0.979941
0.979941
0.979941
0.979941
0.979941
0.979941
0.979941
0.979941
0.979941
0.979941
0.97994
0.979939
0.979934
0.979921
0.979885
0.979803
0.982044
0.982121
0.982155
0.982168
0.982172
0.982174
0.982174
0.982174
0.982174
0.982174
0.982174
0.982174
0.982174
0.982174
0.982174
0.982174
0.982174
0.982174
0.982174
0.982174
0.982174
0.982174
0.982174
0.982174
0.982174
0.982174
0.982174
0.982174
0.982174
0.982174
0.982174
0.982174
0.982174
0.982174
0.982174
0.982174
0.982174
0.982174
0.982174
0.982174
0.982174
0.982174
0.982174
0.982174
0.982174
0.982174
0.982174
0.982174
0.982174
0.982174
0.982174
0.982174
0.982174
0.982174
0.982174
0.982172
0.982168
0.982155
0.982121
0.982044
0.984064
0.984135
0.984167
0.98418
0.984184
0.984185
0.984186
0.984186
0.984186
0.984186
0.984186
0.984186
0.984186
0.984186
0.984186
0.984186
0.984186
0.984186
0.984186
0.984186
0.984186
0.984186
0.984186
0.984186
0.984186
0.984186
0.984186
0.984186
0.984186
0.984186
0.984186
0.984186
0.984186
0.984186
0.984186
0.984186
0.984186
0.984186
0.984186
0.984186
0.984186
0.984186
0.984186
0.984186
0.984186
0.984186
0.984186
0.984186
0.984186
0.984186
0.984186
0.984186
0.984186
0.984186
0.984185
0.984184
0.98418
0.984167
0.984135
0.984064
0.98588
0.985946
0.985976
0.985988
0.985993
0.985994
0.985995
0.985995
0.985995
0.985995
0.985995
0.985995
0.985995
0.985995
0.985995
0.985995
0.985995
0.985995
0.985995
0.985995
0.985995
0.985995
0.985995
0.985995
0.985995
0.985995
0.985995
0.985995
0.985995
0.985995
0.985995
0.985995
0.985995
0.985995
0.985995
0.985995
0.985995
0.985995
0.985995
0.985995
0.985995
0.985995
0.985995
0.985995
0.985995
0.985995
0.985995
0.985995
0.985995
0.985995
0.985995
0.985995
0.985995
0.985995
0.985994
0.985993
0.985988
0.985976
0.985946
0.98588
0.987511
0.987571
0.9876
0.987611
0.987616
0.987617
0.987618
0.987618
0.987618
0.987618
0.987618
0.987618
0.987618
0.987618
0.987618
0.987618
0.987618
0.987618
0.987618
0.987618
0.987618
0.987618
0.987618
0.987618
0.987618
0.987618
0.987618
0.987618
0.987618
0.987618
0.987618
0.987618
0.987618
0.987618
0.987618
0.987618
0.987618
0.987618
0.987618
0.987618
0.987618
0.987618
0.987618
0.987618
0.987618
0.987618
0.987618
0.987618
0.987618
0.987618
0.987618
0.987618
0.987618
0.987618
0.987617
0.987616
0.987611
0.9876
0.987571
0.987511
0.988973
0.989028
0.989054
0.989066
0.98907
0.989071
0.989072
0.989072
0.989072
0.989072
0.989072
0.989072
0.989072
0.989072