/*--------------------------------*- C++ -*----------------------------------*\
| =========                 |                                                 |
| \\      /  F ield         | foam-extend: Open Source CFD                    |
|  \\    /   O peration     | Version:     4.0                                |
|   \\  /    A nd           | Web:         http://www.foam-extend.org         |
|    \\/     M anipulation  |                                                 |
\*---------------------------------------------------------------------------*/
FoamFile
{
    version     2.0;
    format      ascii;
    class       volScalarField;
    location    "800";
    object      cMinus;
}
// * * * * * * * * * * * * * * * * * * * * * * * * * * * * * * * * * * * * * //

dimensions      [0 0 0 0 0 0 0];

internalField   nonuniform List<scalar> 
6960
(
8.76831e-22
8.71335e-22
8.73213e-22
8.74393e-22
8.74964e-22
8.75078e-22
8.74864e-22
8.74421e-22
8.73821e-22
8.73117e-22
8.72346e-22
8.71537e-22
8.7071e-22
8.69884e-22
8.6907e-22
8.6828e-22
8.67522e-22
8.66803e-22
8.66128e-22
8.65502e-22
8.64928e-22
8.64407e-22
8.63943e-22
8.63535e-22
8.63185e-22
8.62894e-22
8.6266e-22
8.62485e-22
8.62368e-22
8.6231e-22
8.6231e-22
8.62368e-22
8.62485e-22
8.6266e-22
8.62894e-22
8.63185e-22
8.63535e-22
8.63943e-22
8.64407e-22
8.64928e-22
8.65502e-22
8.66128e-22
8.66803e-22
8.67522e-22
8.6828e-22
8.6907e-22
8.69884e-22
8.7071e-22
8.71537e-22
8.72346e-22
8.73117e-22
8.73821e-22
8.74421e-22
8.74864e-22
8.75078e-22
8.74964e-22
8.74393e-22
8.73213e-22
8.71335e-22
8.76831e-22
2.37755e-21
2.36925e-21
2.37133e-21
2.37241e-21
2.37272e-21
2.37245e-21
2.37179e-21
2.37085e-21
2.36973e-21
2.36849e-21
2.36717e-21
2.36582e-21
2.36446e-21
2.36312e-21
2.3618e-21
2.36053e-21
2.35931e-21
2.35816e-21
2.35709e-21
2.35609e-21
2.35518e-21
2.35436e-21
2.35362e-21
2.35298e-21
2.35242e-21
2.35196e-21
2.35159e-21
2.35132e-21
2.35113e-21
2.35104e-21
2.35104e-21
2.35113e-21
2.35132e-21
2.35159e-21
2.35196e-21
2.35242e-21
2.35298e-21
2.35362e-21
2.35436e-21
2.35518e-21
2.35609e-21
2.35709e-21
2.35816e-21
2.35931e-21
2.36053e-21
2.3618e-21
2.36312e-21
2.36446e-21
2.36582e-21
2.36717e-21
2.36849e-21
2.36973e-21
2.37085e-21
2.37179e-21
2.37245e-21
2.37272e-21
2.37241e-21
2.37133e-21
2.36925e-21
2.37755e-21
9.28704e-21
9.26274e-21
9.26934e-21
9.27259e-21
9.27333e-21
9.27227e-21
9.26996e-21
9.26679e-21
9.26304e-21
9.25894e-21
9.25461e-21
9.25019e-21
9.24575e-21
9.24136e-21
9.23708e-21
9.23295e-21
9.22901e-21
9.22529e-21
9.22181e-21
9.21859e-21
9.21565e-21
9.21298e-21
9.21061e-21
9.20853e-21
9.20675e-21
9.20526e-21
9.20408e-21
9.20319e-21
9.20259e-21
9.2023e-21
9.2023e-21
9.20259e-21
9.20319e-21
9.20408e-21
9.20526e-21
9.20675e-21
9.20853e-21
9.21061e-21
9.21298e-21
9.21565e-21
9.21859e-21
9.22181e-21
9.22529e-21
9.22901e-21
9.23295e-21
9.23708e-21
9.24136e-21
9.24575e-21
9.25019e-21
9.25461e-21
9.25894e-21
9.26304e-21
9.26679e-21
9.26996e-21
9.27227e-21
9.27333e-21
9.27259e-21
9.26934e-21
9.26274e-21
9.28704e-21
3.72198e-20
3.71462e-20
3.7173e-20
3.71868e-20
3.71909e-20
3.71882e-20
3.71806e-20
3.71698e-20
3.71568e-20
3.71425e-20
3.71273e-20
3.71118e-20
3.70962e-20
3.70808e-20
3.70657e-20
3.70512e-20
3.70374e-20
3.70244e-20
3.70122e-20
3.70009e-20
3.69905e-20
3.69812e-20
3.69729e-20
3.69656e-20
3.69594e-20
3.69542e-20
3.695e-20
3.69469e-20
3.69448e-20
3.69438e-20
3.69438e-20
3.69448e-20
3.69469e-20
3.695e-20
3.69542e-20
3.69594e-20
3.69656e-20
3.69729e-20
3.69812e-20
3.69905e-20
3.70009e-20
3.70122e-20
3.70244e-20
3.70374e-20
3.70512e-20
3.70657e-20
3.70808e-20
3.70962e-20
3.71118e-20
3.71273e-20
3.71425e-20
3.71568e-20
3.71698e-20
3.71806e-20
3.71882e-20
3.71909e-20
3.71868e-20
3.7173e-20
3.71462e-20
3.72198e-20
1.52782e-19
1.52579e-19
1.52697e-19
1.52761e-19
1.52787e-19
1.52784e-19
1.52762e-19
1.52726e-19
1.52682e-19
1.52632e-19
1.52579e-19
1.52525e-19
1.5247e-19
1.52415e-19
1.52362e-19
1.52311e-19
1.52262e-19
1.52216e-19
1.52173e-19
1.52134e-19
1.52097e-19
1.52064e-19
1.52035e-19
1.5201e-19
1.51988e-19
1.5197e-19
1.51955e-19
1.51944e-19
1.51937e-19
1.51933e-19
1.51933e-19
1.51937e-19
1.51944e-19
1.51955e-19
1.5197e-19
1.51988e-19
1.5201e-19
1.52035e-19
1.52064e-19
1.52097e-19
1.52134e-19
1.52173e-19
1.52216e-19
1.52262e-19
1.52311e-19
1.52362e-19
1.52415e-19
1.5247e-19
1.52525e-19
1.52579e-19
1.52632e-19
1.52682e-19
1.52726e-19
1.52762e-19
1.52784e-19
1.52787e-19
1.52761e-19
1.52697e-19
1.52579e-19
1.52782e-19
6.48487e-19
6.48063e-19
6.48616e-19
6.48938e-19
6.49092e-19
6.49125e-19
6.49075e-19
6.48966e-19
6.4882e-19
6.4865e-19
6.48466e-19
6.48275e-19
6.48081e-19
6.4789e-19
6.47702e-19
6.47522e-19
6.4735e-19
6.47188e-19
6.47037e-19
6.46897e-19
6.46769e-19
6.46654e-19
6.46551e-19
6.46461e-19
6.46384e-19
6.4632e-19
6.46269e-19
6.4623e-19
6.46205e-19
6.46192e-19
6.46192e-19
6.46205e-19
6.4623e-19
6.46269e-19
6.4632e-19
6.46384e-19
6.46461e-19
6.46551e-19
6.46654e-19
6.46769e-19
6.46897e-19
6.47037e-19
6.47188e-19
6.4735e-19
6.47522e-19
6.47702e-19
6.4789e-19
6.48081e-19
6.48275e-19
6.48466e-19
6.4865e-19
6.4882e-19
6.48966e-19
6.49075e-19
6.49125e-19
6.49092e-19
6.48938e-19
6.48616e-19
6.48063e-19
6.48487e-19
2.86041e-18
2.86047e-18
2.86325e-18
2.86497e-18
2.86592e-18
2.86631e-18
2.8663e-18
2.86603e-18
2.86558e-18
2.86501e-18
2.86438e-18
2.86372e-18
2.86304e-18
2.86237e-18
2.86171e-18
2.86107e-18
2.86046e-18
2.85989e-18
2.85936e-18
2.85886e-18
2.85841e-18
2.85801e-18
2.85764e-18
2.85733e-18
2.85706e-18
2.85683e-18
2.85665e-18
2.85652e-18
2.85643e-18
2.85638e-18
2.85638e-18
2.85643e-18
2.85652e-18
2.85665e-18
2.85683e-18
2.85706e-18
2.85733e-18
2.85764e-18
2.85801e-18
2.85841e-18
2.85886e-18
2.85936e-18
2.85989e-18
2.86046e-18
2.86107e-18
2.86171e-18
2.86237e-18
2.86304e-18
2.86372e-18
2.86438e-18
2.86501e-18
2.86558e-18
2.86603e-18
2.8663e-18
2.86631e-18
2.86592e-18
2.86497e-18
2.86325e-18
2.86047e-18
2.86041e-18
1.31434e-17
1.31523e-17
1.31672e-17
1.31769e-17
1.31828e-17
1.31859e-17
1.31869e-17
1.31867e-17
1.31855e-17
1.31838e-17
1.31817e-17
1.31794e-17
1.3177e-17
1.31747e-17
1.31723e-17
1.31701e-17
1.31679e-17
1.31659e-17
1.3164e-17
1.31623e-17
1.31607e-17
1.31593e-17
1.3158e-17
1.31569e-17
1.31559e-17
1.31551e-17
1.31545e-17
1.3154e-17
1.31537e-17
1.31536e-17
1.31536e-17
1.31537e-17
1.3154e-17
1.31545e-17
1.31551e-17
1.31559e-17
1.31569e-17
1.3158e-17
1.31593e-17
1.31607e-17
1.31623e-17
1.3164e-17
1.31659e-17
1.31679e-17
1.31701e-17
1.31723e-17
1.31747e-17
1.3177e-17
1.31794e-17
1.31817e-17
1.31838e-17
1.31855e-17
1.31867e-17
1.31869e-17
1.31859e-17
1.31828e-17
1.31769e-17
1.31672e-17
1.31523e-17
1.31434e-17
6.29523e-17
6.30335e-17
6.31179e-17
6.31753e-17
6.3212e-17
6.32336e-17
6.32445e-17
6.3248e-17
6.32467e-17
6.32422e-17
6.32359e-17
6.32284e-17
6.32203e-17
6.32121e-17
6.32039e-17
6.3196e-17
6.31884e-17
6.31812e-17
6.31745e-17
6.31684e-17
6.31627e-17
6.31577e-17
6.31532e-17
6.31493e-17
6.31459e-17
6.31432e-17
6.31409e-17
6.31393e-17
6.31382e-17
6.31376e-17
6.31376e-17
6.31382e-17
6.31393e-17
6.31409e-17
6.31432e-17
6.31459e-17
6.31493e-17
6.31532e-17
6.31577e-17
6.31627e-17
6.31684e-17
6.31745e-17
6.31812e-17
6.31884e-17
6.3196e-17
6.32039e-17
6.32121e-17
6.32203e-17
6.32284e-17
6.32359e-17
6.32422e-17
6.32467e-17
6.3248e-17
6.32445e-17
6.32336e-17
6.3212e-17
6.31753e-17
6.31179e-17
6.30335e-17
6.29523e-17
3.13998e-16
3.14582e-16
3.1508e-16
3.15428e-16
3.1566e-16
3.15806e-16
3.1589e-16
3.15932e-16
3.15945e-16
3.15941e-16
3.15925e-16
3.15902e-16
3.15876e-16
3.15848e-16
3.1582e-16
3.15792e-16
3.15765e-16
3.15739e-16
3.15716e-16
3.15694e-16
3.15674e-16
3.15656e-16
3.1564e-16
3.15627e-16
3.15615e-16
3.15605e-16
3.15597e-16
3.15591e-16
3.15588e-16
3.15586e-16
3.15586e-16
3.15588e-16
3.15591e-16
3.15597e-16
3.15605e-16
3.15615e-16
3.15627e-16
3.1564e-16
3.15656e-16
3.15674e-16
3.15694e-16
3.15716e-16
3.15739e-16
3.15765e-16
3.15792e-16
3.1582e-16
3.15848e-16
3.15876e-16
3.15902e-16
3.15925e-16
3.15941e-16
3.15945e-16
3.15932e-16
3.1589e-16
3.15806e-16
3.1566e-16
3.15428e-16
3.1508e-16
3.14582e-16
3.13998e-16
1.62724e-15
1.63111e-15
1.63414e-15
1.63631e-15
1.63778e-15
1.63875e-15
1.63934e-15
1.63968e-15
1.63985e-15
1.63991e-15
1.6399e-15
1.63984e-15
1.63977e-15
1.63967e-15
1.63958e-15
1.63948e-15
1.63939e-15
1.6393e-15
1.63921e-15
1.63914e-15
1.63907e-15
1.639e-15
1.63895e-15
1.6389e-15
1.63886e-15
1.63882e-15
1.6388e-15
1.63878e-15
1.63876e-15
1.63876e-15
1.63876e-15
1.63876e-15
1.63878e-15
1.6388e-15
1.63882e-15
1.63886e-15
1.6389e-15
1.63895e-15
1.639e-15
1.63907e-15
1.63914e-15
1.63921e-15
1.6393e-15
1.63939e-15
1.63948e-15
1.63958e-15
1.63967e-15
1.63977e-15
1.63984e-15
1.6399e-15
1.63991e-15
1.63985e-15
1.63968e-15
1.63934e-15
1.63875e-15
1.63778e-15
1.63631e-15
1.63414e-15
1.63111e-15
1.62724e-15
8.73203e-15
8.75688e-15
8.77576e-15
8.78945e-15
8.79894e-15
8.80524e-15
8.80927e-15
8.81173e-15
8.81313e-15
8.81384e-15
8.81411e-15
8.81411e-15
8.81395e-15
8.81369e-15
8.81339e-15
8.81306e-15
8.81274e-15
8.81243e-15
8.81213e-15
8.81186e-15
8.81161e-15
8.81139e-15
8.8112e-15
8.81103e-15
8.81088e-15
8.81076e-15
8.81067e-15
8.8106e-15
8.81055e-15
8.81053e-15
8.81053e-15
8.81055e-15
8.8106e-15
8.81067e-15
8.81076e-15
8.81088e-15
8.81103e-15
8.8112e-15
8.81139e-15
8.81161e-15
8.81186e-15
8.81213e-15
8.81243e-15
8.81274e-15
8.81306e-15
8.81339e-15
8.81369e-15
8.81395e-15
8.81411e-15
8.81411e-15
8.81384e-15
8.81313e-15
8.81173e-15
8.80927e-15
8.80524e-15
8.79894e-15
8.78945e-15
8.77576e-15
8.75688e-15
8.73203e-15
4.83161e-14
4.84742e-14
4.85938e-14
4.86814e-14
4.87427e-14
4.87839e-14
4.88108e-14
4.88278e-14
4.88381e-14
4.88439e-14
4.8847e-14
4.88483e-14
4.88485e-14
4.88481e-14
4.88472e-14
4.88463e-14
4.88452e-14
4.88441e-14
4.88431e-14
4.88422e-14
4.88413e-14
4.88405e-14
4.88399e-14
4.88393e-14
4.88388e-14
4.88384e-14
4.8838e-14
4.88378e-14
4.88377e-14
4.88376e-14
4.88376e-14
4.88377e-14
4.88378e-14
4.8838e-14
4.88384e-14
4.88388e-14
4.88393e-14
4.88399e-14
4.88405e-14
4.88413e-14
4.88422e-14
4.88431e-14
4.88441e-14
4.88452e-14
4.88463e-14
4.88472e-14
4.88481e-14
4.88485e-14
4.88483e-14
4.8847e-14
4.88439e-14
4.88381e-14
4.88278e-14
4.88108e-14
4.87839e-14
4.87427e-14
4.86814e-14
4.85938e-14
4.84742e-14
4.83161e-14
2.74332e-13
2.75339e-13
2.76104e-13
2.76669e-13
2.77067e-13
2.77337e-13
2.77515e-13
2.7763e-13
2.77701e-13
2.77744e-13
2.77769e-13
2.77783e-13
2.77789e-13
2.77791e-13
2.7779e-13
2.77787e-13
2.77784e-13
2.77781e-13
2.77778e-13
2.77775e-13
2.77772e-13
2.77769e-13
2.77767e-13
2.77765e-13
2.77763e-13
2.77762e-13
2.77761e-13
2.7776e-13
2.77759e-13
2.77759e-13
2.77759e-13
2.77759e-13
2.7776e-13
2.77761e-13
2.77762e-13
2.77763e-13
2.77765e-13
2.77767e-13
2.77769e-13
2.77772e-13
2.77775e-13
2.77778e-13
2.77781e-13
2.77784e-13
2.77787e-13
2.7779e-13
2.77791e-13
2.77789e-13
2.77783e-13
2.77769e-13
2.77744e-13
2.77701e-13
2.7763e-13
2.77515e-13
2.77337e-13
2.77067e-13
2.76669e-13
2.76104e-13
2.75339e-13
2.74332e-13
1.5897e-12
1.59611e-12
1.60104e-12
1.6047e-12
1.60728e-12
1.60905e-12
1.61023e-12
1.61099e-12
1.61147e-12
1.61177e-12
1.61196e-12
1.61206e-12
1.61212e-12
1.61215e-12
1.61216e-12
1.61216e-12
1.61216e-12
1.61215e-12
1.61214e-12
1.61213e-12
1.61212e-12
1.61212e-12
1.61211e-12
1.6121e-12
1.6121e-12
1.61209e-12
1.61209e-12
1.61209e-12
1.61209e-12
1.61209e-12
1.61209e-12
1.61209e-12
1.61209e-12
1.61209e-12
1.61209e-12
1.6121e-12
1.6121e-12
1.61211e-12
1.61212e-12
1.61212e-12
1.61213e-12
1.61214e-12
1.61215e-12
1.61216e-12
1.61216e-12
1.61216e-12
1.61215e-12
1.61212e-12
1.61206e-12
1.61196e-12
1.61177e-12
1.61147e-12
1.61099e-12
1.61023e-12
1.60905e-12
1.60728e-12
1.6047e-12
1.60104e-12
1.59611e-12
1.5897e-12
9.34485e-12
9.38566e-12
9.41747e-12
9.44117e-12
9.45796e-12
9.46947e-12
9.47716e-12
9.48219e-12
9.48542e-12
9.48747e-12
9.48874e-12
9.48952e-12
9.48998e-12
9.49024e-12
9.49038e-12
9.49045e-12
9.49047e-12
9.49047e-12
9.49045e-12
9.49043e-12
9.49041e-12
9.49039e-12
9.49037e-12
9.49035e-12
9.49034e-12
9.49033e-12
9.49032e-12
9.49032e-12
9.49032e-12
9.49031e-12
9.49031e-12
9.49032e-12
9.49032e-12
9.49032e-12
9.49033e-12
9.49034e-12
9.49035e-12
9.49037e-12
9.49039e-12
9.49041e-12
9.49043e-12
9.49045e-12
9.49047e-12
9.49047e-12
9.49045e-12
9.49038e-12
9.49024e-12
9.48998e-12
9.48952e-12
9.48874e-12
9.48747e-12
9.48542e-12
9.48219e-12
9.47716e-12
9.46947e-12
9.45796e-12
9.44117e-12
9.41747e-12
9.38566e-12
9.34485e-12
5.5348e-11
5.56068e-11
5.58109e-11
5.59633e-11
5.60716e-11
5.6146e-11
5.61958e-11
5.62286e-11
5.62499e-11
5.62634e-11
5.6272e-11
5.62774e-11
5.62807e-11
5.62827e-11
5.62838e-11
5.62845e-11
5.62849e-11
5.62851e-11
5.62851e-11
5.62852e-11
5.62852e-11
5.62852e-11
5.62851e-11
5.62851e-11
5.62851e-11
5.62851e-11
5.62851e-11
5.62851e-11
5.62851e-11
5.62851e-11
5.62851e-11
5.62851e-11
5.62851e-11
5.62851e-11
5.62851e-11
5.62851e-11
5.62851e-11
5.62851e-11
5.62852e-11
5.62852e-11
5.62852e-11
5.62851e-11
5.62851e-11
5.62849e-11
5.62845e-11
5.62838e-11
5.62827e-11
5.62807e-11
5.62774e-11
5.6272e-11
5.62634e-11
5.62499e-11
5.62286e-11
5.61958e-11
5.6146e-11
5.60716e-11
5.59633e-11
5.58109e-11
5.56068e-11
5.5348e-11
3.27782e-10
3.29406e-10
3.307e-10
3.31668e-10
3.32357e-10
3.3283e-10
3.33149e-10
3.33359e-10
3.33496e-10
3.33584e-10
3.3364e-10
3.33676e-10
3.33698e-10
3.33712e-10
3.33721e-10
3.33726e-10
3.33729e-10
3.33731e-10
3.33732e-10
3.33733e-10
3.33734e-10
3.33734e-10
3.33734e-10
3.33735e-10
3.33735e-10
3.33735e-10
3.33735e-10
3.33735e-10
3.33736e-10
3.33736e-10
3.33736e-10
3.33736e-10
3.33735e-10
3.33735e-10
3.33735e-10
3.33735e-10
3.33735e-10
3.33734e-10
3.33734e-10
3.33734e-10
3.33733e-10
3.33732e-10
3.33731e-10
3.33729e-10
3.33726e-10
3.33721e-10
3.33712e-10
3.33698e-10
3.33676e-10
3.3364e-10
3.33584e-10
3.33496e-10
3.33359e-10
3.33149e-10
3.3283e-10
3.32357e-10
3.31668e-10
3.307e-10
3.29406e-10
3.27782e-10
1.92438e-09
1.93438e-09
1.94241e-09
1.94844e-09
1.95272e-09
1.95568e-09
1.95766e-09
1.95898e-09
1.95984e-09
1.9604e-09
1.96075e-09
1.96098e-09
1.96113e-09
1.96122e-09
1.96128e-09
1.96132e-09
1.96134e-09
1.96136e-09
1.96137e-09
1.96137e-09
1.96138e-09
1.96138e-09
1.96139e-09
1.96139e-09
1.96139e-09
1.96139e-09
1.9614e-09
1.9614e-09
1.9614e-09
1.9614e-09
1.9614e-09
1.9614e-09
1.9614e-09
1.9614e-09
1.96139e-09
1.96139e-09
1.96139e-09
1.96139e-09
1.96138e-09
1.96138e-09
1.96137e-09
1.96137e-09
1.96136e-09
1.96134e-09
1.96132e-09
1.96128e-09
1.96122e-09
1.96113e-09
1.96098e-09
1.96075e-09
1.9604e-09
1.95984e-09
1.95898e-09
1.95766e-09
1.95568e-09
1.95272e-09
1.94844e-09
1.94241e-09
1.93438e-09
1.92438e-09
1.10928e-08
1.11527e-08
1.12011e-08
1.12374e-08
1.12633e-08
1.12812e-08
1.12932e-08
1.13012e-08
1.13064e-08
1.13098e-08
1.1312e-08
1.13134e-08
1.13143e-08
1.13149e-08
1.13153e-08
1.13155e-08
1.13157e-08
1.13158e-08
1.13159e-08
1.13159e-08
1.1316e-08
1.1316e-08
1.1316e-08
1.1316e-08
1.13161e-08
1.13161e-08
1.13161e-08
1.13161e-08
1.13161e-08
1.13161e-08
1.13161e-08
1.13161e-08
1.13161e-08
1.13161e-08
1.13161e-08
1.13161e-08
1.1316e-08
1.1316e-08
1.1316e-08
1.1316e-08
1.13159e-08
1.13159e-08
1.13158e-08
1.13157e-08
1.13155e-08
1.13153e-08
1.13149e-08
1.13143e-08
1.13134e-08
1.1312e-08
1.13098e-08
1.13064e-08
1.13012e-08
1.12932e-08
1.12812e-08
1.12633e-08
1.12374e-08
1.12011e-08
1.11527e-08
1.10928e-08
6.2116e-08
6.24612e-08
6.27415e-08
6.29517e-08
6.31016e-08
6.3205e-08
6.32748e-08
6.33212e-08
6.33516e-08
6.33714e-08
6.33843e-08
6.33926e-08
6.3398e-08
6.34015e-08
6.34038e-08
6.34053e-08
6.34063e-08
6.3407e-08
6.34075e-08
6.34079e-08
6.34082e-08
6.34084e-08
6.34086e-08
6.34087e-08
6.34088e-08
6.34089e-08
6.3409e-08
6.34091e-08
6.34091e-08
6.34091e-08
6.34091e-08
6.34091e-08
6.34091e-08
6.3409e-08
6.34089e-08
6.34088e-08
6.34087e-08
6.34086e-08
6.34084e-08
6.34082e-08
6.34079e-08
6.34075e-08
6.3407e-08
6.34063e-08
6.34053e-08
6.34038e-08
6.34015e-08
6.3398e-08
6.33926e-08
6.33843e-08
6.33714e-08
6.33516e-08
6.33212e-08
6.32748e-08
6.3205e-08
6.31016e-08
6.29517e-08
6.27415e-08
6.24612e-08
6.2116e-08
3.33961e-07
3.35851e-07
3.3739e-07
3.38544e-07
3.39366e-07
3.39934e-07
3.40318e-07
3.40573e-07
3.40741e-07
3.40851e-07
3.40922e-07
3.40968e-07
3.40999e-07
3.41018e-07
3.41031e-07
3.4104e-07
3.41046e-07
3.4105e-07
3.41053e-07
3.41055e-07
3.41057e-07
3.41058e-07
3.41059e-07
3.4106e-07
3.41061e-07
3.41062e-07
3.41062e-07
3.41062e-07
3.41063e-07
3.41063e-07
3.41063e-07
3.41063e-07
3.41062e-07
3.41062e-07
3.41062e-07
3.41061e-07
3.4106e-07
3.41059e-07
3.41058e-07
3.41057e-07
3.41055e-07
3.41053e-07
3.4105e-07
3.41046e-07
3.4104e-07
3.41031e-07
3.41018e-07
3.40999e-07
3.40968e-07
3.40922e-07
3.40851e-07
3.40741e-07
3.40573e-07
3.40318e-07
3.39934e-07
3.39366e-07
3.38544e-07
3.3739e-07
3.35851e-07
3.33961e-07
1.70214e-06
1.71184e-06
1.71974e-06
1.72567e-06
1.72989e-06
1.73281e-06
1.73479e-06
1.7361e-06
1.73696e-06
1.73753e-06
1.7379e-06
1.73814e-06
1.7383e-06
1.7384e-06
1.73847e-06
1.73852e-06
1.73855e-06
1.73857e-06
1.73859e-06
1.7386e-06
1.73861e-06
1.73861e-06
1.73862e-06
1.73862e-06
1.73863e-06
1.73863e-06
1.73863e-06
1.73864e-06
1.73864e-06
1.73864e-06
1.73864e-06
1.73864e-06
1.73864e-06
1.73863e-06
1.73863e-06
1.73863e-06
1.73862e-06
1.73862e-06
1.73861e-06
1.73861e-06
1.7386e-06
1.73859e-06
1.73857e-06
1.73855e-06
1.73852e-06
1.73847e-06
1.7384e-06
1.7383e-06
1.73814e-06
1.7379e-06
1.73753e-06
1.73696e-06
1.7361e-06
1.73479e-06
1.73281e-06
1.72989e-06
1.72567e-06
1.71974e-06
1.71184e-06
1.70214e-06
8.11244e-06
8.15843e-06
8.19586e-06
8.22391e-06
8.2439e-06
8.25772e-06
8.26707e-06
8.27329e-06
8.2774e-06
8.28009e-06
8.28185e-06
8.283e-06
8.28376e-06
8.28426e-06
8.28459e-06
8.28482e-06
8.28497e-06
8.28508e-06
8.28516e-06
8.28522e-06
8.28527e-06
8.2853e-06
8.28533e-06
8.28535e-06
8.28537e-06
8.28539e-06
8.2854e-06
8.28541e-06
8.28542e-06
8.28542e-06
8.28542e-06
8.28542e-06
8.28541e-06
8.2854e-06
8.28539e-06
8.28537e-06
8.28535e-06
8.28533e-06
8.2853e-06
8.28527e-06
8.28522e-06
8.28516e-06
8.28508e-06
8.28497e-06
8.28482e-06
8.28459e-06
8.28426e-06
8.28376e-06
8.283e-06
8.28185e-06
8.28009e-06
8.2774e-06
8.27329e-06
8.26707e-06
8.25772e-06
8.2439e-06
8.22391e-06
8.19586e-06
8.15843e-06
8.11244e-06
3.56275e-05
3.58256e-05
3.59864e-05
3.61068e-05
3.61926e-05
3.62519e-05
3.62921e-05
3.63188e-05
3.63365e-05
3.63481e-05
3.63557e-05
3.63607e-05
3.6364e-05
3.63662e-05
3.63676e-05
3.63686e-05
3.63693e-05
3.63698e-05
3.63702e-05
3.63704e-05
3.63706e-05
3.63708e-05
3.63709e-05
3.6371e-05
3.63711e-05
3.63712e-05
3.63712e-05
3.63713e-05
3.63713e-05
3.63713e-05
3.63713e-05
3.63713e-05
3.63713e-05
3.63712e-05
3.63712e-05
3.63711e-05
3.6371e-05
3.63709e-05
3.63708e-05
3.63706e-05
3.63704e-05
3.63702e-05
3.63698e-05
3.63693e-05
3.63686e-05
3.63676e-05
3.63662e-05
3.6364e-05
3.63607e-05
3.63557e-05
3.63481e-05
3.63365e-05
3.63188e-05
3.62921e-05
3.62519e-05
3.61926e-05
3.61068e-05
3.59864e-05
3.58256e-05
3.56275e-05
0.00014193
0.000142691
0.000143307
0.000143767
0.000144095
0.000144322
0.000144475
0.000144578
0.000144645
0.00014469
0.000144719
0.000144738
0.000144751
0.00014476
0.000144765
0.000144769
0.000144772
0.000144774
0.000144775
0.000144776
0.000144777
0.000144778
0.000144778
0.000144778
0.000144779
0.000144779
0.000144779
0.000144779
0.00014478
0.00014478
0.00014478
0.00014478
0.000144779
0.000144779
0.000144779
0.000144779
0.000144778
0.000144778
0.000144778
0.000144777
0.000144776
0.000144775
0.000144774
0.000144772
0.000144769
0.000144765
0.00014476
0.000144751
0.000144738
0.000144719
0.00014469
0.000144645
0.000144578
0.000144475
0.000144322
0.000144095
0.000143767
0.000143307
0.000142691
0.00014193
0.000504402
0.000506957
0.000509016
0.000510552
0.000511646
0.000512402
0.000512914
0.000513257
0.000513483
0.000513632
0.00051373
0.000513795
0.000513837
0.000513866
0.000513885
0.000513899
0.000513908
0.000513914
0.000513919
0.000513923
0.000513925
0.000513927
0.000513929
0.000513931
0.000513932
0.000513933
0.000513933
0.000513934
0.000513934
0.000513934
0.000513934
0.000513934
0.000513934
0.000513933
0.000513933
0.000513932
0.000513931
0.000513929
0.000513927
0.000513925
0.000513923
0.000513919
0.000513914
0.000513908
0.000513899
0.000513885
0.000513866
0.000513837
0.000513795
0.00051373
0.000513632
0.000513483
0.000513257
0.000512914
0.000512402
0.000511646
0.000510552
0.000509016
0.000506957
0.000504402
0.00157202
0.00157936
0.00158524
0.00158962
0.00159273
0.00159489
0.00159635
0.00159733
0.00159797
0.0015984
0.00159868
0.00159887
0.00159899
0.00159907
0.00159913
0.00159917
0.00159919
0.00159921
0.00159922
0.00159924
0.00159924
0.00159925
0.00159925
0.00159926
0.00159926
0.00159926
0.00159927
0.00159927
0.00159927
0.00159927
0.00159927
0.00159927
0.00159927
0.00159927
0.00159926
0.00159926
0.00159926
0.00159925
0.00159925
0.00159924
0.00159924
0.00159922
0.00159921
0.00159919
0.00159917
0.00159913
0.00159907
0.00159899
0.00159887
0.00159868
0.0015984
0.00159797
0.00159733
0.00159635
0.00159489
0.00159273
0.00158962
0.00158524
0.00157936
0.00157202
0.00422911
0.00424677
0.00426081
0.00427126
0.00427869
0.00428382
0.00428731
0.00428964
0.00429118
0.00429221
0.00429288
0.00429332
0.00429362
0.00429382
0.00429395
0.00429405
0.00429411
0.00429416
0.00429419
0.00429422
0.00429424
0.00429425
0.00429426
0.00429427
0.00429428
0.00429429
0.00429429
0.0042943
0.0042943
0.0042943
0.0042943
0.0042943
0.0042943
0.00429429
0.00429429
0.00429428
0.00429427
0.00429426
0.00429425
0.00429424
0.00429422
0.00429419
0.00429416
0.00429411
0.00429405
0.00429395
0.00429382
0.00429362
0.00429332
0.00429288
0.00429221
0.00429118
0.00428964
0.00428731
0.00428382
0.00427869
0.00427126
0.00426081
0.00424677
0.00422911
0.00971462
0.00974974
0.00977745
0.009798
0.00981262
0.00982273
0.0098296
0.00983419
0.00983724
0.00983926
0.00984059
0.00984147
0.00984206
0.00984246
0.00984273
0.00984292
0.00984305
0.00984314
0.00984321
0.00984326
0.0098433
0.00984333
0.00984335
0.00984337
0.00984339
0.0098434
0.00984341
0.00984342
0.00984342
0.00984343
0.00984343
0.00984342
0.00984342
0.00984341
0.0098434
0.00984339
0.00984337
0.00984335
0.00984333
0.0098433
0.00984326
0.00984321
0.00984314
0.00984305
0.00984292
0.00984273
0.00984246
0.00984206
0.00984147
0.00984059
0.00983926
0.00983724
0.00983419
0.0098296
0.00982273
0.00981262
0.009798
0.00977745
0.00974974
0.00971462
0.0190354
0.0190932
0.0191384
0.0191719
0.0191957
0.0192121
0.0192233
0.0192308
0.0192358
0.0192391
0.0192413
0.0192427
0.0192437
0.0192444
0.0192448
0.0192451
0.0192453
0.0192455
0.0192456
0.0192457
0.0192457
0.0192458
0.0192458
0.0192459
0.0192459
0.0192459
0.0192459
0.0192459
0.0192459
0.019246
0.019246
0.0192459
0.0192459
0.0192459
0.0192459
0.0192459
0.0192459
0.0192458
0.0192458
0.0192457
0.0192457
0.0192456
0.0192455
0.0192453
0.0192451
0.0192448
0.0192444
0.0192437
0.0192427
0.0192413
0.0192391
0.0192358
0.0192308
0.0192233
0.0192121
0.0191957
0.0191719
0.0191384
0.0190932
0.0190354
0.0322069
0.0322876
0.0323501
0.0323963
0.0324291
0.0324518
0.0324673
0.0324776
0.0324845
0.0324891
0.0324922
0.0324942
0.0324956
0.0324965
0.0324971
0.0324975
0.0324978
0.0324981
0.0324982
0.0324983
0.0324984
0.0324985
0.0324986
0.0324986
0.0324986
0.0324987
0.0324987
0.0324987
0.0324987
0.0324987
0.0324987
0.0324987
0.0324987
0.0324987
0.0324987
0.0324986
0.0324986
0.0324986
0.0324985
0.0324984
0.0324983
0.0324982
0.0324981
0.0324978
0.0324975
0.0324971
0.0324965
0.0324956
0.0324942
0.0324922
0.0324891
0.0324845
0.0324776
0.0324673
0.0324518
0.0324291
0.0323963
0.0323501
0.0322876
0.0322069
0.0481832
0.0482828
0.0483591
0.0484154
0.0484554
0.0484832
0.048502
0.0485147
0.0485232
0.0485289
0.0485326
0.0485351
0.0485368
0.0485379
0.0485387
0.0485393
0.0485396
0.0485399
0.0485401
0.0485403
0.0485404
0.0485405
0.0485405
0.0485406
0.0485406
0.0485407
0.0485407
0.0485407
0.0485407
0.0485407
0.0485407
0.0485407
0.0485407
0.0485407
0.0485407
0.0485406
0.0485406
0.0485405
0.0485405
0.0485404
0.0485403
0.0485401
0.0485399
0.0485396
0.0485393
0.0485387
0.0485379
0.0485368
0.0485351
0.0485326
0.0485289
0.0485232
0.0485147
0.048502
0.0484832
0.0484554
0.0484154
0.0483591
0.0482828
0.0481832
0.0656052
0.065719
0.0658056
0.0658692
0.0659145
0.0659459
0.0659674
0.0659818
0.0659915
0.0659979
0.0660022
0.0660051
0.066007
0.0660084
0.0660093
0.0660099
0.0660103
0.0660107
0.0660109
0.0660111
0.0660112
0.0660113
0.0660114
0.0660114
0.0660115
0.0660115
0.0660116
0.0660116
0.0660116
0.0660116
0.0660116
0.0660116
0.0660116
0.0660116
0.0660115
0.0660115
0.0660114
0.0660114
0.0660113
0.0660112
0.0660111
0.0660109
0.0660107
0.0660103
0.0660099
0.0660093
0.0660084
0.066007
0.0660051
0.0660022
0.0659979
0.0659915
0.0659818
0.0659674
0.0659459
0.0659145
0.0658692
0.0658056
0.065719
0.0656052
0.0835132
0.0836384
0.0837329
0.0838023
0.0838518
0.0838861
0.0839096
0.0839255
0.0839361
0.0839432
0.083948
0.0839512
0.0839534
0.0839548
0.0839558
0.0839565
0.083957
0.0839574
0.0839577
0.0839579
0.083958
0.0839581
0.0839582
0.0839583
0.0839583
0.0839584
0.0839584
0.0839584
0.0839584
0.0839585
0.0839585
0.0839584
0.0839584
0.0839584
0.0839584
0.0839583
0.0839583
0.0839582
0.0839581
0.083958
0.0839579
0.0839577
0.0839574
0.083957
0.0839565
0.0839558
0.0839548
0.0839534
0.0839512
0.083948
0.0839432
0.0839361
0.0839255
0.0839096
0.0838861
0.0838518
0.0838023
0.0837329
0.0836384
0.0835132
0.101483
0.101619
0.10172
0.101795
0.101848
0.101885
0.101911
0.101928
0.10194
0.101947
0.101952
0.101956
0.101958
0.10196
0.101961
0.101962
0.101962
0.101963
0.101963
0.101963
0.101963
0.101964
0.101964
0.101964
0.101964
0.101964
0.101964
0.101964
0.101964
0.101964
0.101964
0.101964
0.101964
0.101964
0.101964
0.101964
0.101964
0.101964
0.101964
0.101963
0.101963
0.101963
0.101963
0.101962
0.101962
0.101961
0.10196
0.101958
0.101956
0.101952
0.101947
0.10194
0.101928
0.101911
0.101885
0.101848
0.101795
0.10172
0.101619
0.101483
0.119417
0.119562
0.119671
0.119751
0.119808
0.119847
0.119875
0.119893
0.119906
0.119914
0.11992
0.119924
0.119926
0.119928
0.119929
0.11993
0.119931
0.119931
0.119931
0.119932
0.119932
0.119932
0.119932
0.119932
0.119932
0.119932
0.119932
0.119932
0.119932
0.119932
0.119932
0.119932
0.119932
0.119932
0.119932
0.119932
0.119932
0.119932
0.119932
0.119932
0.119932
0.119931
0.119931
0.119931
0.11993
0.119929
0.119928
0.119926
0.119924
0.11992
0.119914
0.119906
0.119893
0.119875
0.119847
0.119808
0.119751
0.119671
0.119562
0.119417
0.137329
0.137484
0.1376
0.137685
0.137745
0.137788
0.137817
0.137837
0.137851
0.13786
0.137866
0.13787
0.137873
0.137875
0.137876
0.137877
0.137878
0.137878
0.137879
0.137879
0.137879
0.137879
0.137879
0.13788
0.13788
0.13788
0.13788
0.13788
0.13788
0.13788
0.13788
0.13788
0.13788
0.13788
0.13788
0.13788
0.13788
0.137879
0.137879
0.137879
0.137879
0.137879
0.137878
0.137878
0.137877
0.137876
0.137875
0.137873
0.13787
0.137866
0.13786
0.137851
0.137837
0.137817
0.137788
0.137745
0.137685
0.1376
0.137484
0.137329
0.155247
0.155412
0.155535
0.155625
0.15569
0.155735
0.155767
0.155788
0.155803
0.155812
0.155819
0.155824
0.155827
0.155829
0.15583
0.155831
0.155832
0.155833
0.155833
0.155833
0.155833
0.155834
0.155834
0.155834
0.155834
0.155834
0.155834
0.155834
0.155834
0.155834
0.155834
0.155834
0.155834
0.155834
0.155834
0.155834
0.155834
0.155834
0.155834
0.155833
0.155833
0.155833
0.155833
0.155832
0.155831
0.15583
0.155829
0.155827
0.155824
0.155819
0.155812
0.155803
0.155788
0.155767
0.155735
0.15569
0.155625
0.155535
0.155412
0.155247
0.173186
0.17336
0.17349
0.173586
0.173654
0.173703
0.173736
0.173759
0.173775
0.173785
0.173793
0.173798
0.173801
0.173803
0.173805
0.173806
0.173807
0.173807
0.173808
0.173808
0.173808
0.173809
0.173809
0.173809
0.173809
0.173809
0.173809
0.173809
0.173809
0.173809
0.173809
0.173809
0.173809
0.173809
0.173809
0.173809
0.173809
0.173809
0.173809
0.173808
0.173808
0.173808
0.173807
0.173807
0.173806
0.173805
0.173803
0.173801
0.173798
0.173793
0.173785
0.173775
0.173759
0.173736
0.173703
0.173654
0.173586
0.17349
0.17336
0.173186
0.191146
0.191329
0.191466
0.191567
0.19164
0.191691
0.191727
0.191751
0.191768
0.191779
0.191787
0.191792
0.191796
0.191799
0.1918
0.191802
0.191802
0.191803
0.191804
0.191804
0.191804
0.191804
0.191804
0.191805
0.191805
0.191805
0.191805
0.191805
0.191805
0.191805
0.191805
0.191805
0.191805
0.191805
0.191805
0.191805
0.191805
0.191804
0.191804
0.191804
0.191804
0.191804
0.191803
0.191802
0.191802
0.1918
0.191799
0.191796
0.191792
0.191787
0.191779
0.191768
0.191751
0.191727
0.191691
0.19164
0.191567
0.191466
0.191329
0.191146
0.209119
0.20931
0.209454
0.209561
0.209637
0.209692
0.20973
0.209756
0.209774
0.209786
0.209794
0.2098
0.209804
0.209807
0.209809
0.20981
0.209811
0.209812
0.209812
0.209813
0.209813
0.209813
0.209813
0.209813
0.209813
0.209814
0.209814
0.209814
0.209814
0.209814
0.209814
0.209814
0.209814
0.209814
0.209814
0.209813
0.209813
0.209813
0.209813
0.209813
0.209813
0.209812
0.209812
0.209811
0.20981
0.209809
0.209807
0.209804
0.2098
0.209794
0.209786
0.209774
0.209756
0.20973
0.209692
0.209637
0.209561
0.209454
0.20931
0.209119
0.227093
0.227293
0.227444
0.227555
0.227636
0.227694
0.227734
0.227762
0.227781
0.227794
0.227803
0.227809
0.227813
0.227816
0.227818
0.22782
0.227821
0.227822
0.227822
0.227822
0.227823
0.227823
0.227823
0.227823
0.227823
0.227823
0.227823
0.227824
0.227824
0.227824
0.227824
0.227824
0.227824
0.227823
0.227823
0.227823
0.227823
0.227823
0.227823
0.227823
0.227822
0.227822
0.227822
0.227821
0.22782
0.227818
0.227816
0.227813
0.227809
0.227803
0.227794
0.227781
0.227762
0.227734
0.227694
0.227636
0.227555
0.227444
0.227293
0.227093
0.245055
0.245263
0.24542
0.245537
0.245622
0.245682
0.245725
0.245754
0.245775
0.245789
0.245798
0.245805
0.245809
0.245813
0.245815
0.245817
0.245818
0.245818
0.245819
0.245819
0.24582
0.24582
0.24582
0.24582
0.24582
0.245821
0.245821
0.245821
0.245821
0.245821
0.245821
0.245821
0.245821
0.245821
0.245821
0.24582
0.24582
0.24582
0.24582
0.24582
0.245819
0.245819
0.245818
0.245818
0.245817
0.245815
0.245813
0.245809
0.245805
0.245798
0.245789
0.245775
0.245754
0.245725
0.245682
0.245622
0.245537
0.24542
0.245263
0.245055
0.26299
0.263205
0.263369
0.26349
0.263579
0.263643
0.263688
0.263719
0.26374
0.263755
0.263766
0.263773
0.263778
0.263781
0.263784
0.263786
0.263787