/*--------------------------------*- C++ -*----------------------------------*\
| =========                 |                                                 |
| \\      /  F ield         | foam-extend: Open Source CFD                    |
|  \\    /   O peration     | Version:     4.0                                |
|   \\  /    A nd           | Web:         http://www.foam-extend.org         |
|    \\/     M anipulation  |                                                 |
\*---------------------------------------------------------------------------*/
FoamFile
{
    version     2.0;
    format      ascii;
    class       volScalarField;
    location    "800";
    object      psiE;
}
// * * * * * * * * * * * * * * * * * * * * * * * * * * * * * * * * * * * * * //

dimensions      [0 0 0 0 0 0 0];

internalField   nonuniform List<scalar> 
6960
(
0.378613
0.378639
0.378663
0.378681
0.378694
0.378704
0.37871
0.378715
0.378718
0.378721
0.378722
0.378724
0.378725
0.378725
0.378726
0.378727
0.378727
0.378728
0.378728
0.378728
0.378729
0.378729
0.378729
0.378729
0.37873
0.37873
0.37873
0.37873
0.37873
0.37873
0.37873
0.37873
0.37873
0.37873
0.37873
0.37873
0.378729
0.378729
0.378729
0.378729
0.378728
0.378728
0.378728
0.378727
0.378727
0.378726
0.378725
0.378725
0.378724
0.378722
0.378721
0.378718
0.378715
0.37871
0.378704
0.378694
0.378681
0.378663
0.378639
0.378613
1.01295
1.01306
1.01315
1.01323
1.01328
1.01332
1.01334
1.01336
1.01338
1.01338
1.01339
1.0134
1.0134
1.0134
1.0134
1.01341
1.01341
1.01341
1.01341
1.01341
1.01341
1.01341
1.01342
1.01342
1.01342
1.01342
1.01342
1.01342
1.01342
1.01342
1.01342
1.01342
1.01342
1.01342
1.01342
1.01342
1.01342
1.01342
1.01341
1.01341
1.01341
1.01341
1.01341
1.01341
1.01341
1.0134
1.0134
1.0134
1.0134
1.01339
1.01338
1.01338
1.01336
1.01334
1.01332
1.01328
1.01323
1.01315
1.01306
1.01295
1.63007
1.63026
1.63044
1.63058
1.63068
1.63075
1.6308
1.63084
1.63086
1.63088
1.63089
1.6309
1.63091
1.63091
1.63092
1.63092
1.63092
1.63093
1.63093
1.63093
1.63093
1.63093
1.63093
1.63094
1.63094
1.63094
1.63094
1.63094
1.63094
1.63094
1.63094
1.63094
1.63094
1.63094
1.63094
1.63094
1.63094
1.63093
1.63093
1.63093
1.63093
1.63093
1.63093
1.63092
1.63092
1.63092
1.63091
1.63091
1.6309
1.63089
1.63088
1.63086
1.63084
1.6308
1.63075
1.63068
1.63058
1.63044
1.63026
1.63007
2.25112
2.25141
2.25168
2.25189
2.25204
2.25215
2.25222
2.25227
2.25231
2.25234
2.25235
2.25237
2.25238
2.25238
2.25239
2.2524
2.2524
2.2524
2.25241
2.25241
2.25241
2.25241
2.25242
2.25242
2.25242
2.25242
2.25242
2.25242
2.25242
2.25242
2.25242
2.25242
2.25242
2.25242
2.25242
2.25242
2.25242
2.25242
2.25241
2.25241
2.25241
2.25241
2.2524
2.2524
2.2524
2.25239
2.25238
2.25238
2.25237
2.25235
2.25234
2.25231
2.25227
2.25222
2.25215
2.25204
2.25189
2.25168
2.25141
2.25112
2.8811
2.88149
2.88185
2.88213
2.88234
2.88248
2.88258
2.88265
2.8827
2.88273
2.88275
2.88277
2.88279
2.8828
2.8828
2.88281
2.88282
2.88282
2.88283
2.88283
2.88283
2.88284
2.88284
2.88284
2.88284
2.88284
2.88285
2.88285
2.88285
2.88285
2.88285
2.88285
2.88285
2.88285
2.88284
2.88284
2.88284
2.88284
2.88284
2.88283
2.88283
2.88283
2.88282
2.88282
2.88281
2.8828
2.8828
2.88279
2.88277
2.88275
2.88273
2.8827
2.88265
2.88258
2.88248
2.88234
2.88213
2.88185
2.88149
2.8811
3.521
3.52149
3.52195
3.5223
3.52256
3.52274
3.52286
3.52295
3.52301
3.52305
3.52308
3.5231
3.52312
3.52313
3.52314
3.52315
3.52316
3.52317
3.52317
3.52318
3.52318
3.52318
3.52319
3.52319
3.52319
3.52319
3.5232
3.5232
3.5232
3.5232
3.5232
3.5232
3.5232
3.5232
3.52319
3.52319
3.52319
3.52319
3.52318
3.52318
3.52318
3.52317
3.52317
3.52316
3.52315
3.52314
3.52313
3.52312
3.5231
3.52308
3.52305
3.52301
3.52295
3.52286
3.52274
3.52256
3.5223
3.52195
3.52149
3.521
4.1708
4.17139
4.17194
4.17236
4.17267
4.17289
4.17304
4.17314
4.17321
4.17326
4.1733
4.17333
4.17335
4.17336
4.17338
4.17339
4.1734
4.1734
4.17341
4.17341
4.17342
4.17342
4.17343
4.17343
4.17343
4.17344
4.17344
4.17344
4.17344
4.17344
4.17344
4.17344
4.17344
4.17344
4.17344
4.17343
4.17343
4.17343
4.17342
4.17342
4.17341
4.17341
4.1734
4.1734
4.17339
4.17338
4.17336
4.17335
4.17333
4.1733
4.17326
4.17321
4.17314
4.17304
4.17289
4.17267
4.17236
4.17194
4.17139
4.1708
4.83017
4.83086
4.8315
4.83199
4.83235
4.8326
4.83278
4.8329
4.83299
4.83305
4.83309
4.83312
4.83314
4.83316
4.83318
4.83319
4.8332
4.83321
4.83321
4.83322
4.83323
4.83323
4.83324
4.83324
4.83324
4.83325
4.83325
4.83325
4.83325
4.83325
4.83325
4.83325
4.83325
4.83325
4.83325
4.83324
4.83324
4.83324
4.83323
4.83323
4.83322
4.83321
4.83321
4.8332
4.83319
4.83318
4.83316
4.83314
4.83312
4.83309
4.83305
4.83299
4.8329
4.83278
4.8326
4.83235
4.83199
4.8315
4.83086
4.83017
5.49865
5.49944
5.50017
5.50074
5.50115
5.50144
5.50164
5.50178
5.50188
5.50194
5.50199
5.50203
5.50205
5.50208
5.50209
5.50211
5.50212
5.50213
5.50214
5.50215
5.50215
5.50216
5.50216
5.50217
5.50217
5.50217
5.50218
5.50218
5.50218
5.50218
5.50218
5.50218
5.50218
5.50218
5.50217
5.50217
5.50217
5.50216
5.50216
5.50215
5.50215
5.50214
5.50213
5.50212
5.50211
5.50209
5.50208
5.50205
5.50203
5.50199
5.50194
5.50188
5.50178
5.50164
5.50144
5.50115
5.50074
5.50017
5.49944
5.49865
6.17572
6.1766
6.17742
6.17806
6.17852
6.17885
6.17907
6.17923
6.17934
6.17942
6.17947
6.17951
6.17954
6.17957
6.17958
6.1796
6.17961
6.17963
6.17964
6.17964
6.17965
6.17966
6.17966
6.17967
6.17967
6.17968
6.17968
6.17968
6.17968
6.17968
6.17968
6.17968
6.17968
6.17968
6.17968
6.17967
6.17967
6.17966
6.17966
6.17965
6.17964
6.17964
6.17963
6.17961
6.1796
6.17958
6.17957
6.17954
6.17951
6.17947
6.17942
6.17934
6.17923
6.17907
6.17885
6.17852
6.17806
6.17742
6.1766
6.17572
6.86073
6.86171
6.86262
6.86332
6.86383
6.8642
6.86445
6.86462
6.86474
6.86483
6.86489
6.86493
6.86497
6.86499
6.86501
6.86503
6.86505
6.86506
6.86507
6.86508
6.86509
6.8651
6.8651
6.86511
6.86511
6.86512
6.86512
6.86512
6.86512
6.86513
6.86513
6.86512
6.86512
6.86512
6.86512
6.86511
6.86511
6.8651
6.8651
6.86509
6.86508
6.86507
6.86506
6.86505
6.86503
6.86501
6.86499
6.86497
6.86493
6.86489
6.86483
6.86474
6.86462
6.86445
6.8642
6.86383
6.86332
6.86262
6.86171
6.86073
7.55295
7.55402
7.55501
7.55579
7.55635
7.55674
7.55702
7.55721
7.55734
7.55744
7.5575
7.55755
7.55759
7.55762
7.55764
7.55766
7.55768
7.55769
7.5577
7.55772
7.55772
7.55773
7.55774
7.55775
7.55775
7.55776
7.55776
7.55776
7.55776
7.55777
7.55777
7.55776
7.55776
7.55776
7.55776
7.55775
7.55775
7.55774
7.55773
7.55772
7.55772
7.5577
7.55769
7.55768
7.55766
7.55764
7.55762
7.55759
7.55755
7.5575
7.55744
7.55734
7.55721
7.55702
7.55674
7.55635
7.55579
7.55501
7.55402
7.55295
8.25152
8.25267
8.25376
8.25459
8.2552
8.25563
8.25593
8.25614
8.25628
8.25638
8.25646
8.25651
8.25655
8.25658
8.25661
8.25663
8.25665
8.25667
8.25668
8.25669
8.2567
8.25671
8.25672
8.25673
8.25673
8.25674
8.25674
8.25674
8.25674
8.25675
8.25675
8.25674
8.25674
8.25674
8.25674
8.25673
8.25673
8.25672
8.25671
8.2567
8.25669
8.25668
8.25667
8.25665
8.25663
8.25661
8.25658
8.25655
8.25651
8.25646
8.25638
8.25628
8.25614
8.25593
8.25563
8.2552
8.25459
8.25376
8.25267
8.25152
8.95545
8.95669
8.95786
8.95876
8.95941
8.95987
8.9602
8.96042
8.96058
8.96069
8.96077
8.96082
8.96087
8.9609
8.96093
8.96095
8.96097
8.96099
8.96101
8.96102
8.96103
8.96104
8.96105
8.96106
8.96106
8.96107
8.96107
8.96108
8.96108
8.96108
8.96108
8.96108
8.96108
8.96107
8.96107
8.96106
8.96106
8.96105
8.96104
8.96103
8.96102
8.96101
8.96099
8.96097
8.96095
8.96093
8.9609
8.96087
8.96082
8.96077
8.96069
8.96058
8.96042
8.9602
8.95987
8.95941
8.95876
8.95786
8.95669
8.95545
9.66361
9.66494
9.66618
9.66714
9.66784
9.66833
9.66868
9.66892
9.66908
9.6692
9.66929
9.66935
9.6694
9.66943
9.66946
9.66949
9.66951
9.66953
9.66955
9.66956
9.66957
9.66958
9.66959
9.6696
9.66961
9.66961
9.66962
9.66962
9.66962
9.66962
9.66962
9.66962
9.66962
9.66962
9.66961
9.66961
9.6696
9.66959
9.66958
9.66957
9.66956
9.66955
9.66953
9.66951
9.66949
9.66946
9.66943
9.6694
9.66935
9.66929
9.6692
9.66908
9.66892
9.66868
9.66833
9.66784
9.66714
9.66618
9.66494
9.66361
10.3747
10.3761
10.3774
10.3784
10.3792
10.3797
10.3801
10.3803
10.3805
10.3806
10.3807
10.3808
10.3808
10.3809
10.3809
10.3809
10.3809
10.381
10.381
10.381
10.381
10.381
10.381
10.381
10.3811
10.3811
10.3811
10.3811
10.3811
10.3811
10.3811
10.3811
10.3811
10.3811
10.3811
10.3811
10.381
10.381
10.381
10.381
10.381
10.381
10.381
10.3809
10.3809
10.3809
10.3809
10.3808
10.3808
10.3807
10.3806
10.3805
10.3803
10.3801
10.3797
10.3792
10.3784
10.3774
10.3761
10.3747
11.0872
11.0887
11.0901
11.0911
11.0919
11.0925
11.0928
11.0931
11.0933
11.0934
11.0935
11.0936
11.0936
11.0937
11.0937
11.0938
11.0938
11.0938
11.0938
11.0938
11.0939
11.0939
11.0939
11.0939
11.0939
11.0939
11.0939
11.0939
11.0939
11.0939
11.0939
11.0939
11.0939
11.0939
11.0939
11.0939
11.0939
11.0939
11.0939
11.0939
11.0938
11.0938
11.0938
11.0938
11.0938
11.0937
11.0937
11.0936
11.0936
11.0935
11.0934
11.0933
11.0931
11.0928
11.0925
11.0919
11.0911
11.0901
11.0887
11.0872
11.7994
11.8009
11.8024
11.8035
11.8043
11.8049
11.8053
11.8056
11.8058
11.8059
11.806
11.8061
11.8061
11.8062
11.8062
11.8062
11.8063
11.8063
11.8063
11.8063
11.8063
11.8064
11.8064
11.8064
11.8064
11.8064
11.8064
11.8064
11.8064
11.8064
11.8064
11.8064
11.8064
11.8064
11.8064
11.8064
11.8064
11.8064
11.8064
11.8063
11.8063
11.8063
11.8063
11.8063
11.8062
11.8062
11.8062
11.8061
11.8061
11.806
11.8059
11.8058
11.8056
11.8053
11.8049
11.8043
11.8035
11.8024
11.8009
11.7994
12.5092
12.5108
12.5123
12.5135
12.5144
12.515
12.5154
12.5157
12.5159
12.516
12.5161
12.5162
12.5163
12.5163
12.5163
12.5164
12.5164
12.5164
12.5165
12.5165
12.5165
12.5165
12.5165
12.5165
12.5165
12.5165
12.5166
12.5166
12.5166
12.5166
12.5166
12.5166
12.5166
12.5166
12.5165
12.5165
12.5165
12.5165
12.5165
12.5165
12.5165
12.5165
12.5164
12.5164
12.5164
12.5163
12.5163
12.5163
12.5162
12.5161
12.516
12.5159
12.5157
12.5154
12.515
12.5144
12.5135
12.5123
12.5108
12.5092
13.2145
13.2161
13.2177
13.2189
13.2198
13.2204
13.2208
13.2211
13.2213
13.2215
13.2216
13.2217
13.2217
13.2218
13.2218
13.2219
13.2219
13.2219
13.2219
13.222
13.222
13.222
13.222
13.222
13.222
13.222
13.222
13.222
13.222
13.222
13.222
13.222
13.222
13.222
13.222
13.222
13.222
13.222
13.222
13.222
13.222
13.2219
13.2219
13.2219
13.2219
13.2218
13.2218
13.2217
13.2217
13.2216
13.2215
13.2213
13.2211
13.2208
13.2204
13.2198
13.2189
13.2177
13.2161
13.2145
13.9124
13.9141
13.9157
13.9169
13.9178
13.9185
13.9189
13.9192
13.9194
13.9196
13.9197
13.9198
13.9199
13.9199
13.92
13.92
13.92
13.92
13.9201
13.9201
13.9201
13.9201
13.9201
13.9202
13.9202
13.9202
13.9202
13.9202
13.9202
13.9202
13.9202
13.9202
13.9202
13.9202
13.9202
13.9202
13.9202
13.9201
13.9201
13.9201
13.9201
13.9201
13.92
13.92
13.92
13.92
13.9199
13.9199
13.9198
13.9197
13.9196
13.9194
13.9192
13.9189
13.9185
13.9178
13.9169
13.9157
13.9141
13.9124
14.5999
14.6017
14.6033
14.6045
14.6054
14.6061
14.6065
14.6069
14.6071
14.6072
14.6074
14.6074
14.6075
14.6076
14.6076
14.6077
14.6077
14.6077
14.6077
14.6078
14.6078
14.6078
14.6078
14.6078
14.6078
14.6079
14.6079
14.6079
14.6079
14.6079
14.6079
14.6079
14.6079
14.6079
14.6079
14.6078
14.6078
14.6078
14.6078
14.6078
14.6078
14.6077
14.6077
14.6077
14.6077
14.6076
14.6076
14.6075
14.6074
14.6074
14.6072
14.6071
14.6069
14.6065
14.6061
14.6054
14.6045
14.6033
14.6017
14.5999
15.2734
15.2752
15.2768
15.278
15.2789
15.2796
15.28
15.2804
15.2806
15.2808
15.2809
15.281
15.281
15.2811
15.2811
15.2812
15.2812
15.2812
15.2813
15.2813
15.2813
15.2813
15.2814
15.2814
15.2814
15.2814
15.2814
15.2814
15.2814
15.2814
15.2814
15.2814
15.2814
15.2814
15.2814
15.2814
15.2814
15.2814
15.2813
15.2813
15.2813
15.2813
15.2812
15.2812
15.2812
15.2811
15.2811
15.281
15.281
15.2809
15.2808
15.2806
15.2804
15.28
15.2796
15.2789
15.278
15.2768
15.2752
15.2734
15.9285
15.9302
15.9318
15.9331
15.934
15.9346
15.9351
15.9354
15.9357
15.9358
15.9359
15.936
15.9361
15.9362
15.9362
15.9363
15.9363
15.9363
15.9363
15.9364
15.9364
15.9364
15.9364
15.9364
15.9365
15.9365
15.9365
15.9365
15.9365
15.9365
15.9365
15.9365
15.9365
15.9365
15.9365
15.9365
15.9364
15.9364
15.9364
15.9364
15.9364
15.9363
15.9363
15.9363
15.9363
15.9362
15.9362
15.9361
15.936
15.9359
15.9358
15.9357
15.9354
15.9351
15.9346
15.934
15.9331
15.9318
15.9302
15.9285
16.56
16.5618
16.5633
16.5646
16.5655
16.5661
16.5666
16.5669
16.5671
16.5673
16.5674
16.5675
16.5676
16.5676
16.5677
16.5677
16.5678
16.5678
16.5678
16.5678
16.5679
16.5679
16.5679
16.5679
16.5679
16.5679
16.568
16.568
16.568
16.568
16.568
16.568
16.568
16.568
16.5679
16.5679
16.5679
16.5679
16.5679
16.5679
16.5678
16.5678
16.5678
16.5678
16.5677
16.5677
16.5676
16.5676
16.5675
16.5674
16.5673
16.5671
16.5669
16.5666
16.5661
16.5655
16.5646
16.5633
16.5618
16.56
17.1619
17.1636
17.1651
17.1663
17.1672
17.1678
17.1682
17.1685
17.1688
17.1689
17.1691
17.1691
17.1692
17.1693
17.1693
17.1694
17.1694
17.1695
17.1695
17.1695
17.1695
17.1696
17.1696
17.1696
17.1696
17.1696
17.1696
17.1696
17.1696
17.1696
17.1696
17.1696
17.1696
17.1696
17.1696
17.1696
17.1696
17.1696
17.1696
17.1695
17.1695
17.1695
17.1695
17.1694
17.1694
17.1693
17.1693
17.1692
17.1691
17.1691
17.1689
17.1688
17.1685
17.1682
17.1678
17.1672
17.1663
17.1651
17.1636
17.1619
17.7267
17.7283
17.7298
17.7309
17.7317
17.7323
17.7327
17.733
17.7332
17.7334
17.7335
17.7336
17.7337
17.7337
17.7338
17.7338
17.7339
17.7339
17.7339
17.734
17.734
17.734
17.734
17.7341
17.7341
17.7341
17.7341
17.7341
17.7341
17.7341
17.7341
17.7341
17.7341
17.7341
17.7341
17.7341
17.7341
17.734
17.734
17.734
17.734
17.7339
17.7339
17.7339
17.7338
17.7338
17.7337
17.7337
17.7336
17.7335
17.7334
17.7332
17.733
17.7327
17.7323
17.7317
17.7309
17.7298
17.7283
17.7267
18.2458
18.2473
18.2486
18.2496
18.2504
18.2509
18.2513
18.2516
18.2518
18.2519
18.2521
18.2522
18.2522
18.2523
18.2523
18.2524
18.2524
18.2525
18.2525
18.2525
18.2526
18.2526
18.2526
18.2526
18.2526
18.2526
18.2527
18.2527
18.2527
18.2527
18.2527
18.2527
18.2527
18.2527
18.2526
18.2526
18.2526
18.2526
18.2526
18.2526
18.2525
18.2525
18.2525
18.2524
18.2524
18.2523
18.2523
18.2522
18.2522
18.2521
18.2519
18.2518
18.2516
18.2513
18.2509
18.2504
18.2496
18.2486
18.2473
18.2458
18.7097
18.711
18.7122
18.7131
18.7137
18.7142
18.7146
18.7148
18.715
18.7152
18.7153
18.7154
18.7154
18.7155
18.7155
18.7156
18.7156
18.7157
18.7157
18.7157
18.7158
18.7158
18.7158
18.7158
18.7158
18.7159
18.7159
18.7159
18.7159
18.7159
18.7159
18.7159
18.7159
18.7159
18.7159
18.7158
18.7158
18.7158
18.7158
18.7158
18.7157
18.7157
18.7157
18.7156
18.7156
18.7155
18.7155
18.7154
18.7154
18.7153
18.7152
18.715
18.7148
18.7146
18.7142
18.7137
18.7131
18.7122
18.711
18.7097
19.1099
19.111
19.1119
19.1127
19.1133
19.1137
19.114
19.1142
19.1144
19.1145
19.1146
19.1147
19.1148
19.1148
19.1149
19.1149
19.115
19.115
19.1151
19.1151
19.1151
19.1151
19.1152
19.1152
19.1152
19.1152
19.1152
19.1152
19.1152
19.1152
19.1152
19.1152
19.1152
19.1152
19.1152
19.1152
19.1152
19.1152
19.1151
19.1151
19.1151
19.1151
19.115
19.115
19.1149
19.1149
19.1148
19.1148
19.1147
19.1146
19.1145
19.1144
19.1142
19.114
19.1137
19.1133
19.1127
19.1119
19.111
19.1099
19.4417
19.4425
19.4433
19.4439
19.4443
19.4447
19.4449
19.4451
19.4453
19.4454
19.4455
19.4455
19.4456
19.4457
19.4457
19.4458
19.4458
19.4459
19.4459
19.4459
19.446
19.446
19.446
19.446
19.446
19.4461
19.4461
19.4461
19.4461
19.4461
19.4461
19.4461
19.4461
19.4461
19.4461
19.446
19.446
19.446
19.446
19.446
19.4459
19.4459
19.4459
19.4458
19.4458
19.4457
19.4457
19.4456
19.4455
19.4455
19.4454
19.4453
19.4451
19.4449
19.4447
19.4443
19.4439
19.4433
19.4425
19.4417
19.7069
19.7074
19.708
19.7085
19.7088
19.7091
19.7093
19.7095
19.7096
19.7097
19.7098
19.7098
19.7099
19.71
19.71
19.7101
19.7101
19.7102
19.7102
19.7102
19.7103
19.7103
19.7103
19.7103
19.7103
19.7104
19.7104
19.7104
19.7104
19.7104
19.7104
19.7104
19.7104
19.7104
19.7104
19.7103
19.7103
19.7103
19.7103
19.7103
19.7102
19.7102
19.7102
19.7101
19.7101
19.71
19.71
19.7099
19.7098
19.7098
19.7097
19.7096
19.7095
19.7093
19.7091
19.7088
19.7085
19.708
19.7074
19.7069
19.9141
19.9145
19.9149
19.9152
19.9155
19.9157
19.9158
19.916
19.9161
19.9162
19.9163
19.9163
19.9164
19.9165
19.9165
19.9166
19.9166
19.9166
19.9167
19.9167
19.9168
19.9168
19.9168
19.9168
19.9168
19.9169
19.9169
19.9169
19.9169
19.9169
19.9169
19.9169
19.9169
19.9169
19.9169
19.9168
19.9168
19.9168
19.9168
19.9168
19.9167
19.9167
19.9166
19.9166
19.9166
19.9165
19.9165
19.9164
19.9163
19.9163
19.9162
19.9161
19.916
19.9158
19.9157
19.9155
19.9152
19.9149
19.9145
19.9141
20.0759
20.0762
20.0765
20.0767
20.0769
20.0771
20.0772
20.0773
20.0774
20.0775
20.0776
20.0776
20.0777
20.0778
20.0778
20.0779
20.0779
20.078
20.078
20.078
20.0781
20.0781
20.0781
20.0781
20.0782
20.0782
20.0782
20.0782
20.0782
20.0782
20.0782
20.0782
20.0782
20.0782
20.0782
20.0782
20.0781
20.0781
20.0781
20.0781
20.078
20.078
20.078
20.0779
20.0779
20.0778
20.0778
20.0777
20.0776
20.0776
20.0775
20.0774
20.0773
20.0772
20.0771
20.0769
20.0767
20.0765
20.0762
20.0759
20.205
20.2052
20.2053
20.2055
20.2057
20.2058
20.2059
20.206
20.2061
20.2062
20.2062
20.2063
20.2064
20.2064
20.2065
20.2065
20.2066
20.2066
20.2067
20.2067
20.2068
20.2068
20.2068
20.2068
20.2069
20.2069
20.2069
20.2069
20.2069
20.2069
20.2069
20.2069
20.2069
20.2069
20.2069
20.2069
20.2068
20.2068
20.2068
20.2068
20.2067
20.2067
20.2066
20.2066
20.2065
20.2065
20.2064
20.2064
20.2063
20.2062
20.2062
20.2061
20.206
20.2059
20.2058
20.2057
20.2055
20.2053
20.2052
20.205
20.3114
20.3115
20.3116
20.3117
20.3118
20.3119
20.312
20.3121
20.3122
20.3123
20.3123
20.3124
20.3125
20.3125
20.3126
20.3126
20.3127
20.3127
20.3128
20.3128
20.3129
20.3129
20.3129
20.313
20.313
20.313
20.313
20.313
20.313
20.313
20.313
20.313
20.313
20.313
20.313
20.313
20.313
20.3129
20.3129
20.3129
20.3128
20.3128
20.3127
20.3127
20.3126
20.3126
20.3125
20.3125
20.3124
20.3123
20.3123
20.3122
20.3121
20.312
20.3119
20.3118
20.3117
20.3116
20.3115
20.3114
20.4021
20.4021
20.4022
20.4023
20.4024
20.4025
20.4026
20.4026
20.4027
20.4028
20.4029
20.4029
20.403
20.4031
20.4031
20.4032
20.4032
20.4033
20.4033
20.4034
20.4034
20.4034
20.4035
20.4035
20.4035
20.4035
20.4035
20.4036
20.4036
20.4036
20.4036
20.4036
20.4036
20.4035
20.4035
20.4035
20.4035
20.4035
20.4034
20.4034
20.4034
20.4033
20.4033
20.4032
20.4032
20.4031
20.4031
20.403
20.4029
20.4029
20.4028
20.4027
20.4026
20.4026
20.4025
20.4024
20.4023
20.4022
20.4021
20.4021
20.4817
20.4817
20.4817
20.4818
20.4819
20.482
20.482
20.4821
20.4822
20.4823
20.4823
20.4824
20.4825
20.4825
20.4826
20.4827
20.4827
20.4828
20.4828
20.4829
20.4829
20.4829
20.483
20.483
20.483
20.483
20.4831
20.4831
20.4831
20.4831
20.4831
20.4831
20.4831
20.4831
20.483
20.483
20.483
20.483
20.4829
20.4829
20.4829
20.4828
20.4828
20.4827
20.4827
20.4826
20.4825
20.4825
20.4824
20.4823
20.4823
20.4822
20.4821
20.482
20.482
20.4819
20.4818
20.4817
20.4817
20.4817
20.5531
20.5531
20.5531
20.5532
20.5532
20.5533
20.5534
20.5535
20.5535
20.5536
20.5537
20.5538
20.5538
20.5539
20.554
20.554
20.5541
20.5541
20.5542
20.5542
20.5543
20.5543
20.5543
20.5544
20.5544
20.5544
20.5544
20.5544
20.5544
20.5544
20.5544
20.5544
20.5544
20.5544
20.5544
20.5544
20.5544
20.5543
20.5543
20.5543
20.5542
20.5542
20.5541
20.5541
20.554
20.554
20.5539
20.5538
20.5538
20.5537
20.5536
20.5535
20.5535
20.5534
20.5533
20.5532
20.5532
20.5531
20.5531
20.5531
20.6182
20.6182
20.6183
20.6183
20.6184
20.6184
20.6185
20.6186
20.6186
20.6187
20.6188
20.6189
20.6189
20.619
20.6191
20.6191
20.6192
20.6192
20.6193
20.6193
20.6194
20.6194
20.6195
20.6195
20.6195
20.6195
20.6195
20.6196
20.6196
20.6196
20.6196
20.6196
20.6196
20.6195
20.6195
20.6195
20.6195
20.6195
20.6194
20.6194
20.6193
20.6193
20.6192
20.6192
20.6191
20.6191
20.619
20.6189
20.6189
20.6188
20.6187
20.6186
20.6186
20.6185
20.6184
20.6184
20.6183
20.6183
20.6182
20.6182
20.6785
20.6784
20.6785
20.6785
20.6785
20.6786
20.6787
20.6787
20.6788
20.6789
20.679
20.679
20.6791
20.6792
20.6792
20.6793
20.6794
20.6794
20.6795
20.6795
20.6796
20.6796
20.6796
20.6797
20.6797
20.6797
20.6797
20.6798
20.6798
20.6798
20.6798
20.6798
20.6798
20.6797
20.6797
20.6797
20.6797
20.6796
20.6796
20.6796
20.6795
20.6795
20.6794
20.6794
20.6793
20.6792
20.6792
20.6791
20.679
20.679
20.6789
20.6788
20.6787
20.6787
20.6786
20.6785
20.6785
20.6785
20.6784
20.6785
20.7347
20.7346
20.7347
20.7347
20.7347
20.7348
20.7348
20.7349
20.735
20.7351
20.7351
20.7352
20.7353
20.7354
20.7354
20.7355
20.7356
20.7356
20.7357
20.7357
20.7358
20.7358
20.7359
20.7359
20.7359
20.7359
20.736
20.736
20.736
20.736
20.736
20.736
20.736
20.736
20.7359
20.7359
20.7359
20.7359
20.7358
20.7358
20.7357
20.7357
20.7356
20.7356
20.7355
20.7354
20.7354
20.7353
20.7352
20.7351
20.7351
20.735
20.7349
20.7348
20.7348
20.7347
20.7347
20.7347
20.7346
20.7347
20.7876
20.7876
20.7876
20.7876
20.7876
20.7877
20.7877
20.7878
20.7879
20.788
20.788
20.7881
20.7882
20.7883
20.7883
20.7884
20.7885
20.7885
20.7886
20.7886
20.7887
20.7887
20.7888
20.7888
20.7888
20.7889
20.7889
20.7889
20.7889
20.7889
20.7889
20.7889
20.7889
20.7889
20.7889
20.7888
20.7888
20.7888
20.7887
20.7887
20.7886
20.7886
20.7885
20.7885
20.7884
20.7883
20.7883
20.7882
20.7881
20.788
20.788
20.7879
20.7878
20.7877
20.7877
20.7876
20.7876
20.7876
20.7876
20.7876
20.8377
20.8377
20.8377
20.8377
20.8378
20.8378
20.8379
20.8379
20.838
20.8381
20.8382
20.8383
20.8383
20.8384
20.8385
20.8386
20.8386
20.8387
20.8388
20.8388
20.8389
20.8389
20.839
20.839
20.839
20.839
20.8391
20.8391
20.8391
20.8391
20.8391
20.8391
20.8391
20.8391
20.839
20.839
20.839
20.839
20.8389
20.8389
20.8388
20.8388
20.8387
20.8386
20.8386
20.8385
20.8384
20.8383
20.8383
20.8382
20.8381
20.838
20.8379
20.8379
20.8378
20.8378
20.8377
20.8377
20.8377
20.8377
20.8856
20.8856
20.8855
20.8856
20.8856
20.8856
20.8857
20.8858
20.8858
20.8859
20.886
20.8861
20.8862
20.8863
20.8863
20.8864
20.8865
20.8865
20.8866
20.8867
20.8867
20.8868
20.8868
20.8868
20.8869
20.8869
20.8869
20.8869
20.8869
20.887
20.887
20.8869
20.8869
20.8869
20.8869
20.8869
20.8868
20.8868
20.8868
20.8867
20.8867
20.8866
20.8865
20.8865
20.8864
20.8863
20.8863
20.8862
20.8861
20.886
20.8859
20.8858
20.8858
20.8857
20.8856
20.8856
20.8856
20.8855
20.8856
20.8856
20.9314
20.9314
20.9314
20.9314
20.9314
20.9315
20.9315
20.9316
20.9317
20.9318
20.9319
20.9319
20.932
20.9321
20.9322
20.9323
20.9323
20.9324
20.9325
20.9325
20.9326
20.9326
20.9327
20.9327
20.9328
20.9328
20.9328
20.9328
20.9328
20.9328
20.9328
20.9328
20.9328
20.9328
20.9328
20.9328
20.9327
20.9327
20.9326
20.9326
20.9325
20.9325
20.9324
20.9323
20.9323
20.9322
20.9321
20.932
20.9319
20.9319
20.9318
20.9317
20.9316
20.9315
20.9315
20.9314
20.9314
20.9314
20.9314
20.9314
20.9756
20.9756
20.9755
20.9755
20.9756
20.9756
20.9757
20.9758
20.9758
20.9759
20.976
20.9761
20.9762
20.9763
20.9764
20.9764
20.9765
20.9766
20.9767
20.9767
20.9768
20.9768
20.9769
20.9769
20.9769
20.977
20.977
20.977
20.977
20.977
20.977
20.977
20.977
20.977
20.977
20.9769
20.9769
20.9769
20.9768
20.9768
20.9767
20.9767
20.9766
20.9765
20.9764
20.9764
20.9763
20.9762
20.9761
20.976
20.9759
20.9758
20.9758
20.9757
20.9756
20.9756
20.9755
20.9755
20.9756
20.9756
21.0183
21.0182
21.0182
21.0182
21.0183
21.0183
21.0184
21.0184
21.0185
21.0186
21.0187
21.0188
21.0189
21.019
21.0191
21.0192
21.0192
21.0193
21.0194
21.0194
21.0195
21.0196
21.0196
21.0196
21.0197
21.0197
21.0197
21.0197
21.0198
21.0198
21.0198
21.0198
21.0197
21.0197
21.0197
21.0197
21.0196
21.0196
21.0196
21.0195
21.0194
21.0194
21.0193
21.0192
21.0192
21.0191
21.019
21.0189
21.0188
21.0187
21.0186
21.0185
21.0184
21.0184
21.0183
21.0183
21.0182
21.0182
21.0182
21.0183
21.0597
21.0597
21.0597
21.0597
21.0597
21.0597
21.0598
21.0599
21.06
21.06
21.0601
21.0602
21.0603
21.0604
21.0605
21.0606
21.0607
21.0608
21.0608
21.0609
21.061
21.061
21.0611
21.0611
21.0611
21.0612
21.0612
21.0612
21.0612
21.0612
21.0612
21.0612
21.0612
21.0612
21.0612
21.0611
21.0611
21.0611
21.061
21.061
21.0609
21.0608
21.0608
21.0607
21.0606
21.0605
21.0604
21.0603
21.0602
21.0601
21.06
21.06
21.0599
21.0598
21.0597
21.0597
21.0597
21.0597
21.0597
21.0597
21.1
21.1
21.1
21.1
21.1
21.1001
21.1001
21.1002
21.1003
21.1004
21.1005
21.1006
21.1007
21.1008
21.1009
21.101
21.101
21.1011
21.1012
21.1013
21.1013
21.1014
21.1014
21.1015
21.1015
21.1015
21.1016
21.1016
21.1016
21.1016
21.1016
21.1016
21.1016
21.1016
21.1015
21.1015
21.1015
21.1014
21.1014
21.1013
21.1013
21.1012
21.1011
21.101
21.101
21.1009
21.1008
21.1007
21.1006
21.1005
21.1004
21.1003
21.1002
21.1001
21.1001
21.1
21.1
21.1
21.1
21.1
21.1394
21.1394
21.1394
21.1394
21.1394
21.1394
21.1395
21.1396
21.1397
21.1398
21.1399
21.14
21.1401
21.1402
21.1403
21.1404
21.1405
21.1405
21.1406
21.1407
21.1408
21.1408
21.1409
21.1409
21.1409
21.141
21.141
21.141
21.141
21.141
21.141
21.141
21.141
21.141
21.141
21.1409
21.1409
21.1409
21.1408
21.1408
21.1407
21.1406
21.1405
21.1405
21.1404
21.1403
21.1402
21.1401
21.14
21.1399
21.1398
21.1397
21.1396
21.1395
21.1394
21.1394
21.1394
21.1394
21.1394
21.1394
21.178
21.1779
21.1779
21.1779
21.178
21.178
21.1781
21.1782
21.1782
21.1783
21.1784
21.1785
21.1787
21.1788
21.1789
21.179
21.179
21.1791
21.1792
21.1793
21.1794
21.1794
21.1795
21.1795
21.1796
21.1796
21.1796
21.1796
21.1797
21.1797
21.1797
21.1797
21.1796
21.1796
21.1796
21.1796
21.1795
21.1795
21.1794
21.1794
21.1793
21.1792
21.1791
21.179
21.179
21.1789
21.1788
21.1787
21.1785
21.1784
21.1783
21.1782
21.1782
21.1781
21.178
21.178
21.1779
21.1779
21.1779
21.178
21.2158
21.2158
21.2158
21.2158
21.2158
21.2159
21.2159
21.216
21.2161
21.2162
21.2163
21.2164
21.2165
21.2166
21.2167
21.2168
21.2169
21.217
21.2171
21.2172
21.2172
21.2173
21.2174
21.2174
21.2175
21.2175
21.2175
21.2175
21.2176
21.2176
21.2176
21.2176
21.2175
21.2175
21.2175
21.2175
21.2174
21.2174
21.2173
21.2172
21.2172
21.2171
21.217
21.2169
21.2168
21.2167
21.2166
21.2165
21.2164
21.2163
21.2162
21.2161
21.216
21.2159
21.2159
21.2158
21.2158
21.2158
21.2158
21.2158
21.253
21.253
21.253
21.253
21.253
21.2531
21.2532
21.2532
21.2533
21.2534
21.2536
21.2537
21.2538
21.2539
21.254
21.2541
21.2542
21.2543
21.2544
21.2545
21.2545
21.2546
21.2546
21.2547
21.2547
21.2548
21.2548
21.2548
21.2548
21.2549
21.2549
21.2548
21.2548
21.2548
21.2548
21.2547
21.2547
21.2546
21.2546
21.2545
21.2545
21.2544
21.2543
21.2542
21.2541
21.254
21.2539
21.2538
21.2537
21.2536
21.2534
21.2533
21.2532
21.2532
21.2531
21.253
21.253
21.253
21.253
21.253
21.2897
21.2897
21.2897
21.2897
21.2897
21.2898
21.2899
21.29
21.2901
21.2902
21.2903
21.2904
21.2905
21.2906
21.2907
21.2908
21.2909
21.291
21.2911
21.2912
21.2913
21.2913
21.2914
21.2915
21.2915
21.2915
21.2916
21.2916
21.2916
21.2916
21.2916
21.2916
21.2916
21.2916
21.2915
21.2915
21.2915
21.2914
21.2913
21.2913
21.2912
21.2911
21.291
21.2909
21.2908
21.2907
21.2906
21.2905
21.2904
21.2903
21.2902
21.2901
21.29
21.2899
21.2898
21.2897
21.2897
21.2897
21.2897
21.2897
21.326
21.326
21.326
21.326
21.326
21.3261
21.3261
21.3262
21.3263
21.3264
21.3265
21.3267
21.3268
21.3269
21.327
21.3271
21.3272
21.3273
21.3274
21.3275
21.3276
21.3277
21.3277
21.3278
21.3278
21.3279
21.3279
21.3279
21.3279
21.3279
21.3279
21.3279
21.3279
21.3279
21.3279
21.3278
21.3278
21.3277
21.3277
21.3276
21.3275
21.3274
21.3273
21.3272
21.3271
21.327
21.3269
21.3268
21.3267
21.3265
21.3264
21.3263
21.3262
21.3261
21.3261
21.326
21.326
21.326
21.326
21.326
21.3619
21.3618
21.3618
21.3618
21.3619
21.3619
21.362
21.3621
21.3622
21.3623
21.3624
21.3626
21.3627
21.3628
21.3629
21.363
21.3632
21.3633
21.3634
21.3634
21.3635
21.3636
21.3637
21.3637
21.3638
21.3638
21.3638
21.3639
21.3639
21.3639
21.3639
21.3639
21.3639
21.3638
21.3638
21.3638
21.3637
21.3637
21.3636
21.3635
21.3634
21.3634
21.3633
21.3632
21.363
21.3629
21.3628
21.3627
21.3626
21.3624
21.3623
21.3622
21.3621
21.362
21.3619
21.3619
21.3618
21.3618
21.3618
21.3619
21.3974
21.3974
21.3974
21.3974
21.3974
21.3975
21.3976
21.3977
21.3978
21.3979
21.398
21.3982
21.3983
21.3984
21.3985
21.3987
21.3988
21.3989
21.399
21.3991
21.3992
21.3992
21.3993
21.3994
21.3994
21.3995
21.3995
21.3995
21.3995
21.3995
21.3995
21.3995
21.3995
21.3995
21.3995
21.3994
21.3994
21.3993
21.3992
21.3992
21.3991
21.399
21.3989
21.3988
21.3987
21.3985
21.3984
21.3983
21.3982
21.398
21.3979
21.3978
21.3977
21.3976
21.3975
21.3974
21.3974
21.3974
21.3974
21.3974
21.4327
21.4327
21.4327
21.4327
21.4328
21.4328
21.4329
21.433
21.4331
21.4332
21.4334
21.4335
21.4336
21.4338
21.4339
21.434
21.4341
21.4342
21.4343
21.4344
21.4345
21.4346
21.4347
21.4347
21.4348
21.4348
21.4349
21.4349
21.4349
21.4349
21.4349
21.4349
21.4349
21.4349
21.4348
21.4348
21.4347
21.4347
21.4346
21.4345
21.4344
21.4343
21.4342
21.4341
21.434
21.4339
21.4338
21.4336
21.4335
21.4334
21.4332
21.4331
21.433
21.4329
21.4328
21.4328
21.4327
21.4327
21.4327
21.4327
21.4678
21.4678
21.4678
21.4678
21.4679
21.4679
21.468
21.4681
21.4682
21.4684
21.4685
21.4686
21.4688
21.4689
21.4691
21.4692
21.4693
21.4694
21.4695
21.4696
21.4697
21.4698
21.4699
21.4699
21.47
21.47
21.4701
21.4701
21.4701
21.4701
21.4701
21.4701
21.4701
21.4701
21.47
21.47
21.4699
21.4699
21.4698
21.4697
21.4696
21.4695
21.4694
21.4693
21.4692
21.4691
21.4689
21.4688
21.4686
21.4685
21.4684
21.4682
21.4681
21.468
21.4679
21.4679
21.4678
21.4678
21.4678
21.4678
21.5028
21.5028
21.5028
21.5028
21.5028
21.5029
21.503
21.5031
21.5032
21.5034
21.5035
21.5036
21.5038
21.5039
21.5041
21.5042
21.5043
21.5044
21.5046
21.5047
21.5048
21.5048
21.5049
21.505
21.505
21.5051
21.5051
21.5051
21.5052
21.5052
21.5052
21.5052
21.5051
21.5051
21.5051
21.505
21.505
21.5049
21.5048
21.5048
21.5047
21.5046
21.5044
21.5043
21.5042
21.5041
21.5039
21.5038
21.5036
21.5035
21.5034
21.5032
21.5031
21.503
21.5029
21.5028
21.5028
21.5028
21.5028
21.5028
21.5377
21.5376
21.5376
21.5377
21.5377
21.5378
21.5379
21.538
21.5381
21.5383
21.5384
21.5385
21.5387
21.5388
21.539
21.5391
21.5393
21.5394
21.5395
21.5396
21.5397
21.5398
21.5399
21.5399
21.54
21.54
21.5401
21.5401
21.5401
21.5401
21.5401
21.5401