/*--------------------------------*- C++ -*----------------------------------*\
| =========                 |                                                 |
| \\      /  F ield         | foam-extend: Open Source CFD                    |
|  \\    /   O peration     | Version:     4.0                                |
|   \\  /    A nd           | Web:         http://www.foam-extend.org         |
|    \\/     M anipulation  |                                                 |
\*---------------------------------------------------------------------------*/
FoamFile
{
    version     2.0;
    format      ascii;
    class       volScalarField;
    location    "10";
    object      psiE;
}
// * * * * * * * * * * * * * * * * * * * * * * * * * * * * * * * * * * * * * //

dimensions      [0 0 0 0 0 0 0];

internalField   nonuniform List<scalar> 
6960
(
0.0273971
0.027387
0.0273869
0.0273872
0.0273876
0.0273881
0.0273886
0.0273893
0.02739
0.0273907
0.0273915
0.0273922
0.027393
0.0273938
0.0273945
0.0273953
0.027396
0.0273966
0.0273973
0.0273979
0.0273984
0.0273989
0.0273993
0.0273997
0.0274
0.0274003
0.0274005
0.0274007
0.0274008
0.0274009
0.0274009
0.0274008
0.0274007
0.0274005
0.0274003
0.0274
0.0273997
0.0273993
0.0273989
0.0273984
0.0273979
0.0273973
0.0273966
0.027396
0.0273953
0.0273945
0.0273938
0.027393
0.0273922
0.0273915
0.0273907
0.02739
0.0273893
0.0273886
0.0273881
0.0273876
0.0273872
0.0273869
0.027387
0.0273971
0.0454582
0.0454424
0.0454425
0.0454433
0.0454445
0.045446
0.0454477
0.0454497
0.0454518
0.045454
0.0454563
0.0454586
0.0454609
0.0454633
0.0454656
0.0454678
0.0454699
0.0454719
0.0454738
0.0454756
0.0454772
0.0454787
0.04548
0.0454811
0.0454821
0.045483
0.0454836
0.0454841
0.0454845
0.0454846
0.0454846
0.0454845
0.0454841
0.0454836
0.045483
0.0454821
0.0454811
0.04548
0.0454787
0.0454772
0.0454756
0.0454738
0.0454719
0.0454699
0.0454678
0.0454656
0.0454633
0.0454609
0.0454586
0.0454563
0.045454
0.0454518
0.0454497
0.0454477
0.045446
0.0454445
0.0454433
0.0454425
0.0454424
0.0454582
0.0539282
0.0539113
0.0539116
0.053913
0.0539151
0.0539176
0.0539205
0.0539238
0.0539273
0.053931
0.0539349
0.0539388
0.0539428
0.0539468
0.0539506
0.0539544
0.053958
0.0539614
0.0539646
0.0539676
0.0539703
0.0539728
0.053975
0.0539769
0.0539786
0.05398
0.0539811
0.053982
0.0539825
0.0539828
0.0539828
0.0539825
0.053982
0.0539811
0.05398
0.0539786
0.0539769
0.053975
0.0539728
0.0539703
0.0539676
0.0539646
0.0539614
0.053958
0.0539544
0.0539506
0.0539468
0.0539428
0.0539388
0.0539349
0.053931
0.0539273
0.0539238
0.0539205
0.0539176
0.0539151
0.053913
0.0539116
0.0539113
0.0539282
0.0599781
0.0599615
0.059962
0.0599641
0.059967
0.0599706
0.0599747
0.0599794
0.0599844
0.0599897
0.0599952
0.0600008
0.0600064
0.060012
0.0600175
0.0600228
0.0600279
0.0600328
0.0600373
0.0600415
0.0600454
0.0600489
0.0600521
0.0600549
0.0600572
0.0600592
0.0600608
0.060062
0.0600628
0.0600632
0.0600632
0.0600628
0.060062
0.0600608
0.0600592
0.0600572
0.0600549
0.0600521
0.0600489
0.0600454
0.0600415
0.0600373
0.0600328
0.0600279
0.0600228
0.0600175
0.060012
0.0600064
0.0600008
0.0599952
0.0599897
0.0599844
0.0599794
0.0599747
0.0599706
0.059967
0.0599641
0.059962
0.0599615
0.0599781
0.0655037
0.0654878
0.0654887
0.0654914
0.0654952
0.0654999
0.0655053
0.0655114
0.0655179
0.0655248
0.065532
0.0655393
0.0655466
0.0655539
0.0655611
0.065568
0.0655747
0.065581
0.065587
0.0655925
0.0655976
0.0656022
0.0656063
0.0656099
0.065613
0.0656156
0.0656176
0.0656192
0.0656202
0.0656207
0.0656207
0.0656202
0.0656192
0.0656176
0.0656156
0.065613
0.0656099
0.0656063
0.0656022
0.0655976
0.0655925
0.065587
0.065581
0.0655747
0.065568
0.0655611
0.0655539
0.0655466
0.0655393
0.065532
0.0655248
0.0655179
0.0655114
0.0655053
0.0654999
0.0654952
0.0654914
0.0654887
0.0654878
0.0655037
0.0710056
0.0709906
0.0709918
0.0709952
0.071
0.0710058
0.0710125
0.07102
0.0710281
0.0710367
0.0710455
0.0710546
0.0710637
0.0710728
0.0710817
0.0710903
0.0710986
0.0711064
0.0711138
0.0711206
0.0711269
0.0711326
0.0711377
0.0711422
0.071146
0.0711492
0.0711518
0.0711537
0.071155
0.0711557
0.0711557
0.071155
0.0711537
0.0711518
0.0711492
0.071146
0.0711422
0.0711377
0.0711326
0.0711269
0.0711206
0.0711138
0.0711064
0.0710986
0.0710903
0.0710817
0.0710728
0.0710637
0.0710546
0.0710455
0.0710367
0.0710281
0.07102
0.0710125
0.0710058
0.071
0.0709952
0.0709918
0.0709906
0.0710056
0.0766204
0.0766064
0.0766079
0.076612
0.0766177
0.0766247
0.0766328
0.0766417
0.0766515
0.0766617
0.0766724
0.0766833
0.0766942
0.0767051
0.0767158
0.0767261
0.076736
0.0767454
0.0767543
0.0767625
0.07677
0.0767769
0.076783
0.0767884
0.076793
0.0767968
0.0767999
0.0768022
0.0768038
0.0768045
0.0768045
0.0768038
0.0768022
0.0767999
0.0767968
0.076793
0.0767884
0.076783
0.0767769
0.07677
0.0767625
0.0767543
0.0767454
0.076736
0.0767261
0.0767158
0.0767051
0.0766942
0.0766833
0.0766724
0.0766617
0.0766515
0.0766417
0.0766328
0.0766247
0.0766177
0.076612
0.0766079
0.0766064
0.0766204
0.0823889
0.0823759
0.0823778
0.0823827
0.0823893
0.0823975
0.082407
0.0824175
0.0824289
0.0824409
0.0824534
0.0824662
0.082479
0.0824917
0.0825042
0.0825163
0.082528
0.082539
0.0825493
0.082559
0.0825678
0.0825758
0.082583
0.0825893
0.0825947
0.0825992
0.0826028
0.0826055
0.0826073
0.0826082
0.0826082
0.0826073
0.0826055
0.0826028
0.0825992
0.0825947
0.0825893
0.082583
0.0825758
0.0825678
0.082559
0.0825493
0.082539
0.082528
0.0825163
0.0825042
0.0824917
0.082479
0.0824662
0.0824534
0.0824409
0.0824289
0.0824175
0.082407
0.0823975
0.0823893
0.0823827
0.0823778
0.0823759
0.0823889
0.0883264
0.0883144
0.0883167
0.0883223
0.08833
0.0883394
0.0883503
0.0883624
0.0883755
0.0883893
0.0884037
0.0884184
0.0884332
0.0884478
0.0884622
0.0884761
0.0884895
0.0885022
0.0885141
0.0885252
0.0885354
0.0885446
0.0885528
0.0885601
0.0885663
0.0885715
0.0885756
0.0885787
0.0885808
0.0885819
0.0885819
0.0885808
0.0885787
0.0885756
0.0885715
0.0885663
0.0885601
0.0885528
0.0885446
0.0885354
0.0885252
0.0885141
0.0885022
0.0884895
0.0884761
0.0884622
0.0884478
0.0884332
0.0884184
0.0884037
0.0883893
0.0883755
0.0883624
0.0883503
0.0883394
0.08833
0.0883223
0.0883167
0.0883144
0.0883264
0.094441
0.0944299
0.0944326
0.094439
0.0944477
0.0944584
0.0944708
0.0944845
0.0944994
0.0945151
0.0945314
0.0945481
0.0945649
0.0945815
0.0945978
0.0946136
0.0946288
0.0946432
0.0946567
0.0946693
0.0946808
0.0946913
0.0947007
0.0947089
0.0947159
0.0947218
0.0947265
0.0947301
0.0947324
0.0947336
0.0947336
0.0947324
0.0947301
0.0947265
0.0947218
0.0947159
0.0947089
0.0947007
0.0946913
0.0946808
0.0946693
0.0946567
0.0946432
0.0946288
0.0946136
0.0945978
0.0945815
0.0945649
0.0945481
0.0945314
0.0945151
0.0944994
0.0944845
0.0944708
0.0944584
0.0944477
0.094439
0.0944326
0.0944299
0.094441
0.100739
0.100729
0.100732
0.100739
0.100749
0.100761
0.100775
0.10079
0.100807
0.100824
0.100843
0.100861
0.10088
0.100899
0.100917
0.100935
0.100952
0.100968
0.100983
0.100997
0.10101
0.101022
0.101033
0.101042
0.10105
0.101056
0.101062
0.101066
0.101068
0.10107
0.10107
0.101068
0.101066
0.101062
0.101056
0.10105
0.101042
0.101033
0.101022
0.10101
0.100997
0.100983
0.100968
0.100952
0.100935
0.100917
0.100899
0.10088
0.100861
0.100843
0.100824
0.100807
0.10079
0.100775
0.100761
0.100749
0.100739
0.100732
0.100729
0.100739
0.107225
0.107216
0.10722
0.107228
0.107239
0.107252
0.107268
0.107285
0.107303
0.107323
0.107343
0.107364
0.107385
0.107406
0.107426
0.107446
0.107465
0.107483
0.1075
0.107516
0.10753
0.107543
0.107555
0.107565
0.107574
0.107581
0.107587
0.107591
0.107594
0.107596
0.107596
0.107594
0.107591
0.107587
0.107581
0.107574
0.107565
0.107555
0.107543
0.10753
0.107516
0.1075
0.107483
0.107465
0.107446
0.107426
0.107406
0.107385
0.107364
0.107343
0.107323
0.107303
0.107285
0.107268
0.107252
0.107239
0.107228
0.10722
0.107216
0.107225
0.113907
0.113899
0.113903
0.113912
0.113924
0.113938
0.113955
0.113974
0.113995
0.114017
0.114039
0.114062
0.114085
0.114108
0.114131
0.114152
0.114173
0.114193
0.114212
0.114229
0.114245
0.11426
0.114272
0.114284
0.114294
0.114302
0.114308
0.114313
0.114316
0.114318
0.114318
0.114316
0.114313
0.114308
0.114302
0.114294
0.114284
0.114272
0.11426
0.114245
0.114229
0.114212
0.114193
0.114173
0.114152
0.114131
0.114108
0.114085
0.114062
0.114039
0.114017
0.113995
0.113974
0.113955
0.113938
0.113924
0.113912
0.113903
0.113899
0.113907
0.120789
0.120782
0.120786
0.120796
0.120809
0.120825
0.120844
0.120865
0.120887
0.120911
0.120936
0.120961
0.120986
0.121012
0.121036
0.12106
0.121083
0.121105
0.121125
0.121144
0.121162
0.121178
0.121192
0.121204
0.121215
0.121224
0.121231
0.121236
0.12124
0.121242
0.121242
0.12124
0.121236
0.121231
0.121224
0.121215
0.121204
0.121192
0.121178
0.121162
0.121144
0.121125
0.121105
0.121083
0.12106
0.121036
0.121012
0.120986
0.120961
0.120936
0.120911
0.120887
0.120865
0.120844
0.120825
0.120809
0.120796
0.120786
0.120782
0.120789
0.127877
0.127871
0.127876
0.127887
0.127901
0.127919
0.127939
0.127962
0.127987
0.128013
0.12804
0.128067
0.128095
0.128122
0.128149
0.128175
0.1282
0.128224
0.128246
0.128267
0.128286
0.128304
0.128319
0.128333
0.128344
0.128354
0.128362
0.128368
0.128371
0.128373
0.128373
0.128371
0.128368
0.128362
0.128354
0.128344
0.128333
0.128319
0.128304
0.128286
0.128267
0.128246
0.128224
0.1282
0.128175
0.128149
0.128122
0.128095
0.128067
0.12804
0.128013
0.127987
0.127962
0.127939
0.127919
0.127901
0.127887
0.127876
0.127871
0.127877
0.135179
0.135173
0.135179
0.135191
0.135206
0.135226
0.135248
0.135272
0.135299
0.135327
0.135357
0.135386
0.135417
0.135446
0.135476
0.135504
0.135531
0.135557
0.135581
0.135604
0.135624
0.135643
0.13566
0.135675
0.135687
0.135698
0.135706
0.135713
0.135717
0.135719
0.135719
0.135717
0.135713
0.135706
0.135698
0.135687
0.135675
0.13566
0.135643
0.135624
0.135604
0.135581
0.135557
0.135531
0.135504
0.135476
0.135446
0.135417
0.135386
0.135357
0.135327
0.135299
0.135272
0.135248
0.135226
0.135206
0.135191
0.135179
0.135173
0.135179
0.142699
0.142695
0.142701
0.142714
0.142731
0.142752
0.142775
0.142802
0.142831
0.142862
0.142893
0.142926
0.142958
0.14299
0.143022
0.143053
0.143082
0.14311
0.143136
0.143161
0.143183
0.143203
0.143221
0.143237
0.143251
0.143262
0.143272
0.143278
0.143283
0.143285
0.143285
0.143283
0.143278
0.143272
0.143262
0.143251
0.143237
0.143221
0.143203
0.143183
0.143161
0.143136
0.14311
0.143082
0.143053
0.143022
0.14299
0.142958
0.142926
0.142893
0.142862
0.142831
0.142802
0.142775
0.142752
0.142731
0.142714
0.142701
0.142695
0.142699
0.150446
0.150442
0.150449
0.150463
0.150481
0.150503
0.150529
0.150558
0.150589
0.150622
0.150656
0.150691
0.150726
0.150761
0.150795
0.150828
0.15086
0.15089
0.150918
0.150944
0.150968
0.15099
0.15101
0.151027
0.151042
0.151054
0.151064
0.151071
0.151076
0.151079
0.151079
0.151076
0.151071
0.151064
0.151054
0.151042
0.151027
0.15101
0.15099
0.150968
0.150944
0.150918
0.15089
0.15086
0.150828
0.150795
0.150761
0.150726
0.150691
0.150656
0.150622
0.150589
0.150558
0.150529
0.150503
0.150481
0.150463
0.150449
0.150442
0.150446
0.158424
0.158422
0.15843
0.158444
0.158464
0.158488
0.158516
0.158546
0.15858
0.158615
0.158652
0.158689
0.158727
0.158764
0.158801
0.158837
0.158871
0.158903
0.158933
0.158962
0.158987
0.159011
0.159032
0.15905
0.159066
0.159079
0.15909
0.159098
0.159103
0.159106
0.159106
0.159103
0.159098
0.15909
0.159079
0.159066
0.15905
0.159032
0.159011
0.158987
0.158962
0.158933
0.158903
0.158871
0.158837
0.158801
0.158764
0.158727
0.158689
0.158652
0.158615
0.15858
0.158546
0.158516
0.158488
0.158464
0.158444
0.15843
0.158422
0.158424
0.166643
0.166641
0.16665
0.166665
0.166686
0.166712
0.166742
0.166775
0.166811
0.166849
0.166888
0.166928
0.166968
0.167008
0.167048
0.167086
0.167122
0.167157
0.167189
0.16722
0.167247
0.167272
0.167295
0.167315
0.167332
0.167346
0.167357
0.167366
0.167371
0.167374
0.167374
0.167371
0.167366
0.167357
0.167346
0.167332
0.167315
0.167295
0.167272
0.167247
0.16722
0.167189
0.167157
0.167122
0.167086
0.167048
0.167008
0.166968
0.166928
0.166888
0.166849
0.166811
0.166775
0.166742
0.166712
0.166686
0.166665
0.16665
0.166641
0.166643
0.175108
0.175107
0.175116
0.175133
0.175155
0.175183
0.175215
0.17525
0.175288
0.175329
0.175371
0.175414
0.175457
0.1755
0.175542
0.175582
0.175621
0.175658
0.175693
0.175725
0.175755
0.175782
0.175806
0.175827
0.175845
0.17586
0.175873
0.175882
0.175888
0.175891
0.175891
0.175888
0.175882
0.175873
0.17586
0.175845
0.175827
0.175806
0.175782
0.175755
0.175725
0.175693
0.175658
0.175621
0.175582
0.175542
0.1755
0.175457
0.175414
0.175371
0.175329
0.175288
0.17525
0.175215
0.175183
0.175155
0.175133
0.175116
0.175107
0.175108
0.183827
0.183827
0.183837
0.183855
0.183879
0.183908
0.183942
0.18398
0.184021
0.184064
0.184109
0.184154
0.1842
0.184246
0.184291
0.184334
0.184376
0.184415
0.184452
0.184487
0.184518
0.184547
0.184573
0.184595
0.184614
0.18463
0.184643
0.184653
0.18466
0.184663
0.184663
0.18466
0.184653
0.184643
0.18463
0.184614
0.184595
0.184573
0.184547
0.184518
0.184487
0.184452
0.184415
0.184376
0.184334
0.184291
0.184246
0.1842
0.184154
0.184109
0.184064
0.184021
0.18398
0.183942
0.183908
0.183879
0.183855
0.183837
0.183827
0.183827
0.192808
0.192808
0.19282
0.192839
0.192864
0.192895
0.192931
0.192972
0.193015
0.193061
0.193109
0.193157
0.193206
0.193255
0.193302
0.193348
0.193393
0.193435
0.193474
0.193511
0.193544
0.193575
0.193602
0.193626
0.193647
0.193664
0.193678
0.193688
0.193695
0.193698
0.193698
0.193695
0.193688
0.193678
0.193664
0.193647
0.193626
0.193602
0.193575
0.193544
0.193511
0.193474
0.193435
0.193393
0.193348
0.193302
0.193255
0.193206
0.193157
0.193109
0.193061
0.193015
0.192972
0.192931
0.192895
0.192864
0.192839
0.19282
0.192808
0.192808
0.202058
0.20206
0.202072
0.202092
0.202119
0.202152
0.202191
0.202233
0.202279
0.202328
0.202379
0.20243
0.202482
0.202534
0.202585
0.202634
0.202681
0.202725
0.202767
0.202806
0.202842
0.202874
0.202903
0.202928
0.20295
0.202968
0.202983
0.202994
0.203001
0.203005
0.203005
0.203001
0.202994
0.202983
0.202968
0.20295
0.202928
0.202903
0.202874
0.202842
0.202806
0.202767
0.202725
0.202681
0.202634
0.202585
0.202534
0.202482
0.20243
0.202379
0.202328
0.202279
0.202233
0.202191
0.202152
0.202119
0.202092
0.202072
0.20206
0.202058
0.211586
0.211589
0.211601
0.211623
0.211652
0.211687
0.211728
0.211773
0.211822
0.211874
0.211927
0.211982
0.212037
0.212092
0.212145
0.212197
0.212247
0.212294
0.212339
0.21238
0.212418
0.212452
0.212483
0.21251
0.212533
0.212552
0.212568
0.212579
0.212587
0.212591
0.212591
0.212587
0.212579
0.212568
0.212552
0.212533
0.21251
0.212483
0.212452
0.212418
0.21238
0.212339
0.212294
0.212247
0.212197
0.212145
0.212092
0.212037
0.211982
0.211927
0.211874
0.211822
0.211773
0.211728
0.211687
0.211652
0.211623
0.211601
0.211589
0.211586
0.2214
0.221404
0.221417
0.22144
0.221471
0.221508
0.221551
0.221599
0.221651
0.221705
0.221762
0.22182
0.221879
0.221936
0.221993
0.222048
0.222101
0.222151
0.222198
0.222242
0.222282
0.222318
0.22235
0.222379
0.222403
0.222424
0.22244
0.222452
0.222461
0.222465
0.222465
0.222461
0.222452
0.22244
0.222424
0.222403
0.222379
0.22235
0.222318
0.222282
0.222242
0.222198
0.222151
0.222101
0.222048
0.221993
0.221936
0.221879
0.22182
0.221762
0.221705
0.221651
0.221599
0.221551
0.221508
0.221471
0.22144
0.221417
0.221404
0.2214
0.231509
0.231513
0.231528
0.231552
0.231584
0.231624
0.231669
0.23172
0.231775
0.231833
0.231893
0.231954
0.232015
0.232077
0.232137
0.232195
0.23225
0.232303
0.232353
0.232399
0.232441
0.23248
0.232514
0.232544
0.23257
0.232592
0.232609
0.232622
0.232631
0.232635
0.232635
0.232631
0.232622
0.232609
0.232592
0.23257
0.232544
0.232514
0.23248
0.232441
0.232399
0.232353
0.232303
0.23225
0.232195
0.232137
0.232077
0.232015
0.231954
0.231893
0.231833
0.231775
0.23172
0.231669
0.231624
0.231584
0.231552
0.231528
0.231513
0.231509
0.241921
0.241926
0.241942
0.241967
0.242002
0.242043
0.242091
0.242145
0.242202
0.242263
0.242327
0.242392
0.242457
0.242521
0.242584
0.242646
0.242705
0.24276
0.242813
0.242862
0.242906
0.242947
0.242983
0.243015
0.243042
0.243065
0.243083
0.243097
0.243106
0.24311
0.24311
0.243106
0.243097
0.243083
0.243065
0.243042
0.243015
0.242983
0.242947
0.242906
0.242862
0.242813
0.24276
0.242705
0.242646
0.242584
0.242521
0.242457
0.242392
0.242327
0.242263
0.242202
0.242145
0.242091
0.242043
0.242002
0.241967
0.241942
0.241926
0.241921
0.252646
0.252651
0.252668
0.252695
0.252731
0.252775
0.252826
0.252882
0.252943
0.253008
0.253074
0.253143
0.253211
0.253279
0.253346
0.253411
0.253473
0.253531
0.253587
0.253638
0.253685
0.253728
0.253766
0.2538
0.253828
0.253852
0.253872
0.253886
0.253896
0.2539
0.2539
0.253896
0.253886
0.253872
0.253852
0.253828
0.2538
0.253766
0.253728
0.253685
0.253638
0.253587
0.253531
0.253473
0.253411
0.253346
0.253279
0.253211
0.253143
0.253074
0.253008
0.252943
0.252882
0.252826
0.252775
0.252731
0.252695
0.252668
0.252651
0.252646
0.263692
0.263699
0.263717
0.263745
0.263783
0.263829
0.263883
0.263942
0.264006
0.264074
0.264145
0.264216
0.264289
0.26436
0.264431
0.264499
0.264564
0.264626
0.264684
0.264738
0.264788
0.264833
0.264873
0.264908
0.264938
0.264964
0.264984
0.264999
0.265009
0.265014
0.265014
0.265009
0.264999
0.264984
0.264964
0.264938
0.264908
0.264873
0.264833
0.264788
0.264738
0.264684
0.264626
0.264564
0.264499
0.264431
0.26436
0.264289
0.264216
0.264145
0.264074
0.264006
0.263942
0.263883
0.263829
0.263783
0.263745
0.263717
0.263699
0.263692
0.27507
0.275078
0.275097
0.275127
0.275167
0.275215
0.275272
0.275334
0.275402
0.275473
0.275547
0.275623
0.275699
0.275774
0.275848
0.275919
0.275988
0.276053
0.276115
0.276171
0.276223
0.276271
0.276313
0.27635
0.276382
0.276409
0.27643
0.276446
0.276457
0.276462
0.276462
0.276457
0.276446
0.27643
0.276409
0.276382
0.27635
0.276313
0.276271
0.276223
0.276171
0.276115
0.276053
0.275988
0.275919
0.275848
0.275774
0.275699
0.275623
0.275547
0.275473
0.275402
0.275334
0.275272
0.275215
0.275167
0.275127
0.275097
0.275078
0.27507
0.28679
0.286798
0.286818
0.28685
0.286892
0.286943
0.287002
0.287068
0.287139
0.287214
0.287292
0.287371
0.287451
0.28753
0.287608
0.287683
0.287755
0.287824
0.287888
0.287948
0.288003
0.288052
0.288097
0.288136
0.288169
0.288197
0.288219
0.288236
0.288247
0.288253
0.288253
0.288247
0.288236
0.288219
0.288197
0.288169
0.288136
0.288097
0.288052
0.288003
0.287948
0.287888
0.287824
0.287755
0.287683
0.287608
0.28753
0.287451
0.287371
0.287292
0.287214
0.287139
0.287068
0.287002
0.286943
0.286892
0.28685
0.286818
0.286798
0.28679
0.298861
0.29887
0.298892
0.298925
0.298969
0.299023
0.299085
0.299154
0.299228
0.299307
0.299389
0.299472
0.299556
0.299639
0.299721
0.2998
0.299876
0.299948
0.300015
0.300078
0.300135
0.300187
0.300234
0.300275
0.30031
0.300339
0.300363
0.300381
0.300392
0.300398
0.300398
0.300392
0.300381
0.300363
0.300339
0.30031
0.300275
0.300234
0.300187
0.300135
0.300078
0.300015
0.299948
0.299876
0.2998
0.299721
0.299639
0.299556
0.299472
0.299389
0.299307
0.299228
0.299154
0.299085
0.299023
0.298969
0.298925
0.298892
0.29887
0.298861
0.311295
0.311304
0.311327
0.311362
0.311409
0.311465
0.31153
0.311603
0.311681
0.311764
0.311849
0.311937
0.312025
0.312112
0.312198
0.312281
0.31236
0.312435
0.312506
0.312572
0.312632
0.312687
0.312736
0.312779
0.312816
0.312846
0.312871
0.312889
0.312902
0.312908
0.312908
0.312902
0.312889
0.312871
0.312846
0.312816
0.312779
0.312736
0.312687
0.312632
0.312572
0.312506
0.312435
0.31236
0.312281
0.312198
0.312112
0.312025
0.311937
0.311849
0.311764
0.311681
0.311603
0.31153
0.311465
0.311409
0.311362
0.311327
0.311304
0.311295
0.324101
0.324112
0.324136
0.324173
0.324222
0.324281
0.324349
0.324425
0.324507
0.324594
0.324684
0.324775
0.324868
0.324959
0.325049
0.325136
0.325219
0.325298
0.325372
0.325441
0.325504
0.325562
0.325613
0.325658
0.325696
0.325729
0.325754
0.325774
0.325787
0.325793
0.325793
0.325787
0.325774
0.325754
0.325729
0.325696
0.325658
0.325613
0.325562
0.325504
0.325441
0.325372
0.325298
0.325219
0.325136
0.325049
0.324959
0.324868
0.324775
0.324684
0.324594
0.324507
0.324425
0.324349
0.324281
0.324222
0.324173
0.324136
0.324112
0.324101
0.337293
0.337304
0.337329
0.337368
0.337419
0.337481
0.337553
0.337632
0.337718
0.337809
0.337903
0.337999
0.338096
0.338192
0.338286
0.338377
0.338464
0.338547
0.338625
0.338697
0.338763
0.338823
0.338877
0.338924
0.338964
0.338998
0.339025
0.339045
0.339059
0.339065
0.339065
0.339059
0.339045
0.339025
0.338998
0.338964
0.338924
0.338877
0.338823
0.338763
0.338697
0.338625
0.338547
0.338464
0.338377
0.338286
0.338192
0.338096
0.337999
0.337903
0.337809
0.337718
0.337632
0.337553
0.337481
0.337419
0.337368
0.337329
0.337304
0.337293
0.35088
0.350892
0.350919
0.350959
0.351013
0.351078
0.351152
0.351236
0.351326
0.351421
0.35152
0.35162
0.351722
0.351822
0.35192
0.352015
0.352107
0.352193
0.352275
0.35235
0.352419
0.352482
0.352538
0.352588
0.35263
0.352665
0.352693
0.352715
0.352729
0.352736
0.352736
0.352729
0.352715
0.352693
0.352665
0.35263
0.352588
0.352538
0.352482
0.352419
0.35235
0.352275
0.352193
0.352107
0.352015
0.35192
0.351822
0.351722
0.35162
0.35152
0.351421
0.351326
0.351236
0.351152
0.351078
0.351013
0.350959
0.350919
0.350892
0.35088
0.364874
0.364887
0.364915
0.364958
0.365014
0.365082
0.36516
0.365248
0.365342
0.365442
0.365545
0.36565
0.365756
0.365861
0.365964
0.366064
0.366159
0.36625
0.366335
0.366414
0.366486
0.366552
0.36661
0.366662
0.366706
0.366743
0.366773
0.366795
0.366809
0.366817
0.366817
0.366809
0.366795
0.366773
0.366743
0.366706
0.366662
0.36661
0.366552
0.366486
0.366414
0.366335
0.36625
0.366159
0.366064
0.365964
0.365861
0.365756
0.36565
0.365545
0.365442
0.365342
0.365248
0.36516
0.365082
0.365014
0.364958
0.364915
0.364887
0.364874
0.379289
0.379303
0.379333
0.379377
0.379436
0.379507
0.379589
0.37968
0.379779
0.379883
0.379991
0.380101
0.380212
0.380322
0.380429
0.380533
0.380633
0.380728
0.380817
0.380899
0.380975
0.381044
0.381105
0.381159
0.381205
0.381243
0.381274
0.381297
0.381313
0.381321
0.381321
0.381313
0.381297
0.381274
0.381243
0.381205
0.381159
0.381105
0.381044
0.380975
0.380899
0.380817
0.380728
0.380633
0.380533
0.380429
0.380322
0.380212
0.380101
0.379991
0.379883
0.379779
0.37968
0.379589
0.379507
0.379436
0.379377
0.379333
0.379303
0.379289
0.394136
0.394151
0.394182
0.394229
0.39429
0.394365
0.39445
0.394546
0.394649
0.394758
0.394871
0.394986
0.395101
0.395216
0.395329
0.395437
0.395542
0.395641
0.395733
0.39582
0.395899
0.39597
0.396034
0.396091
0.396139
0.396179
0.396211
0.396236
0.396252
0.39626
0.39626
0.396252
0.396236
0.396211
0.396179
0.396139
0.396091
0.396034
0.39597
0.395899
0.39582
0.395733
0.395641
0.395542
0.395437
0.395329
0.395216
0.395101
0.394986
0.394871
0.394758
0.394649
0.394546
0.39445
0.394365
0.39429
0.394229
0.394182
0.394151
0.394136
0.409429
0.409445
0.409477
0.409526
0.40959
0.409668
0.409758
0.409858
0.409965
0.410079
0.410197
0.410317
0.410438
0.410558
0.410675
0.410789
0.410898
0.411001
0.411098
0.411188
0.411271
0.411345
0.411412
0.411471
0.411521
0.411563
0.411597
0.411622
0.411639
0.411647
0.411647
0.411639
0.411622
0.411597
0.411563
0.411521
0.411471
0.411412
0.411345
0.411271
0.411188
0.411098
0.411001
0.410898
0.410789
0.410675
0.410558
0.410438
0.410317
0.410197
0.410079
0.409965
0.409858
0.409758
0.409668
0.40959
0.409526
0.409477
0.409445
0.409429
0.425181
0.425198
0.425232
0.425283
0.42535
0.425431
0.425525
0.425629
0.425741
0.42586
0.425983
0.426109
0.426235
0.42636
0.426483
0.426601
0.426715
0.426823
0.426924
0.427018
0.427104
0.427182
0.427252
0.427313
0.427365
0.427409
0.427444
0.427471
0.427488
0.427497
0.427497
0.427488
0.427471
0.427444
0.427409
0.427365
0.427313
0.427252
0.427182
0.427104
0.427018
0.426924
0.426823
0.426715
0.426601
0.426483
0.42636
0.426235
0.426109
0.425983
0.42586
0.425741
0.425629
0.425525
0.425431
0.42535
0.425283
0.425232
0.425198
0.425181
0.441405
0.441423
0.441459
0.441512
0.441582
0.441667
0.441765
0.441874
0.441991
0.442115
0.442244
0.442375
0.442506
0.442637
0.442765
0.442888
0.443007
0.443119
0.443225
0.443323
0.443413
0.443494
0.443567
0.443631
0.443685
0.443731
0.443768
0.443795
0.443813
0.443822
0.443822
0.443813
0.443795
0.443768
0.443731
0.443685
0.443631
0.443567
0.443494
0.443413
0.443323
0.443225
0.443119
0.443007
0.442888
0.442765
0.442637
0.442506
0.442375
0.442244
0.442115
0.441991
0.441874
0.441765
0.441667
0.441582
0.441512
0.441459
0.441423
0.441405
0.458116
0.458135
0.458172
0.458228
0.458302
0.45839
0.458492
0.458606
0.458728
0.458858
0.458992
0.459129
0.459266
0.459402
0.459535
0.459665
0.459788
0.459905
0.460015
0.460117
0.460211
0.460296
0.460372
0.460438
0.460495
0.460543
0.460581
0.460609
0.460629
0.460638
0.460638
0.460629
0.460609
0.460581
0.460543
0.460495
0.460438
0.460372
0.460296
0.460211
0.460117
0.460015
0.459905
0.459788
0.459665
0.459535
0.459402
0.459266
0.459129
0.458992
0.458858
0.458728
0.458606
0.458492
0.45839
0.458302
0.458228
0.458172
0.458135
0.458116
0.475329
0.475348
0.475388
0.475446
0.475523
0.475615
0.475722
0.47584
0.475968
0.476103
0.476243
0.476386
0.476529
0.476671
0.47681
0.476944
0.477073
0.477195
0.47731
0.477416
0.477514
0.477602
0.477681
0.47775
0.47781
0.477859
0.477899
0.477929
0.477949
0.477959
0.477959
0.477949
0.477929
0.477899
0.477859
0.47781
0.47775
0.477681
0.477602
0.477514
0.477416
0.47731
0.477195
0.477073
0.476944
0.47681
0.476671
0.476529
0.476386
0.476243
0.476103
0.475968
0.47584
0.475722
0.475615
0.475523
0.475446
0.475388
0.475348
0.475329
0.493058
0.493079
0.49312
0.493181
0.49326
0.493357
0.493468
0.493592
0.493725
0.493866
0.494012
0.49416
0.49431
0.494458
0.494602
0.494743
0.494877
0.495004
0.495124
0.495234
0.495336
0.495428
0.49551
0.495582
0.495644
0.495696
0.495737
0.495768
0.495789
0.495799
0.495799
0.495789
0.495768
0.495737
0.495696
0.495644
0.495582
0.49551
0.495428
0.495336
0.495234
0.495124
0.495004
0.494877
0.494743
0.494602
0.494458
0.49431
0.49416
0.494012
0.493866
0.493725
0.493592
0.493468
0.493357
0.49326
0.493181
0.49312
0.493079
0.493058
0.511319
0.51134
0.511383
0.511447
0.51153
0.511631
0.511747
0.511876
0.512015
0.512162
0.512314
0.512469
0.512624
0.512779
0.512929
0.513075
0.513215
0.513348
0.513472
0.513587
0.513693
0.513789
0.513875
0.51395
0.514014
0.514068
0.514111
0.514143
0.514165
0.514175
0.514175
0.514165
0.514143
0.514111
0.514068
0.514014
0.51395
0.513875
0.513789
0.513693
0.513587
0.513472
0.513348
0.513215
0.513075
0.512929
0.512779
0.512624
0.512469
0.512314
0.512162
0.512015
0.511876
0.511747
0.511631
0.51153
0.511447
0.511383
0.51134
0.511319
0.530128
0.53015
0.530195
0.530262
0.530349
0.530454
0.530574
0.530709
0.530854
0.531007
0.531165
0.531327
0.531489
0.531649
0.531807
0.531959
0.532104
0.532242
0.532372
0.532492
0.532602
0.532701
0.53279
0.532869
0.532936
0.532991
0.533036
0.53307
0.533092
0.533103
0.533103
0.533092
0.53307
0.533036
0.532991
0.532936
0.532869
0.53279
0.532701
0.532602
0.532492
0.532372
0.532242
0.532104
0.531959
0.531807
0.531649
0.531489
0.531327
0.531165
0.531007
0.530854
0.530709
0.530574
0.530454
0.530349
0.530262
0.530195
0.53015
0.530128
0.549501
0.549524
0.549571
0.549641
0.549731
0.549841
0.549967
0.550107
0.550258
0.550417
0.550583
0.550751
0.55092
0.551087
0.55125
0.551409
0.55156
0.551704
0.551839
0.551963
0.552078
0.552182
0.552274
0.552355
0.552425
0.552483
0.55253
0.552565
0.552588
0.5526
0.5526
0.552588
0.552565
0.55253
0.552483
0.552425
0.552355
0.552274
0.552182
0.552078
0.551963
0.551839
0.551704
0.55156
0.551409
0.55125
0.551087
0.55092
0.550751
0.550583
0.550417
0.550258
0.550107
0.549967
0.549841
0.549731
0.549641
0.549571
0.549524
0.549501
0.569455
0.56948
0.569529
0.569601
0.569696
0.56981
0.569941
0.570087
0.570245
0.570411
0.570583
0.570758
0.570934
0.571108
0.571278
0.571443
0.571601
0.57175
0.57189
0.57202
0.572139
0.572247
0.572343
0.572427
0.5725
0.57256
0.572609
0.572645
0.572669
0.572681
0.572681
0.572669
0.572645
0.572609
0.57256
0.5725
0.572427
0.572343
0.572247
0.572139
0.57202
0.57189
0.57175
0.571601
0.571443
0.571278
0.571108
0.570934
0.570758
0.570583
0.570411
0.570245
0.570087
0.569941
0.56981
0.569696
0.569601
0.569529
0.56948
0.569455
0.590008
0.590034
0.590085
0.59016
0.590259
0.590378
0.590515
0.590667
0.590831
0.591004
0.591183
0.591365
0.591548
0.59173
0.591907
0.592078
0.592242
0.592398
0.592543
0.592679
0.592802
0.592914
0.593014
0.593102
0.593178
0.59324
0.593291
0.593328
0.593353
0.593366
0.593366
0.593353
0.593328
0.593291
0.59324
0.593178
0.593102
0.593014
0.592914
0.592802
0.592679
0.592543
0.592398
0.592242
0.592078
0.591907
0.59173
0.591548
0.591365
0.591183
0.591004
0.590831
0.590667
0.590515
0.590378
0.590259
0.59016
0.590085
0.590034
0.590008
0.611177
0.611204
0.611257
0.611336
0.611439
0.611563
0.611706
0.611864
0.612035
0.612215
0.612402
0.612592
0.612782
0.612971
0.613155
0.613333
0.613504
0.613666
0.613817
0.613958
0.614086
0.614203
0.614307
0.614398
0.614476
0.614541
0.614593
0.614633
0.614659
0.614672
0.614672
0.614659
0.614633
0.614593
0.614541
0.614476
0.614398
0.614307
0.614203
0.614086
0.613958
0.613817
0.613666
0.613504
0.613333
0.613155
0.612971
0.612782
0.612592
0.612402
0.612215
0.612035
0.611864
0.611706
0.611563
0.611439
0.611336
0.611257
0.611204
0.611177
0.632981
0.633009
0.633065
0.633148
0.633255
0.633384
0.633532
0.633697
0.633875
0.634063
0.634257
0.634455
0.634653
0.634849
0.635041
0.635227
0.635404
0.635572
0.63573
0.635875
0.636009
0.63613
0.636238
0.636333
0.636414
0.636482
0.636536
0.636577
0.636604
0.636617
0.636617
0.636604
0.636577
0.636536
0.636482
0.636414
0.636333
0.636238
0.63613
0.636009
0.635875
0.63573
0.635572
0.635404
0.635227
0.635041
0.634849
0.634653
0.634455
0.634257
0.634063
0.633875
0.633697
0.633532
0.633384
0.633255
0.633148
0.633065
0.633009
0.632981
0.65544
0.655469
0.655527
0.655613
0.655724
0.655859
0.656014
0.656186
0.656371
0.656567
0.656769
0.656975
0.657181
0.657385
0.657584
0.657777
0.657962
0.658136
0.6583
0.658452
0.65859
0.658716
0.658828
0.658927
0.659011
0.659081
0.659138
0.65918
0.659208
0.659222
0.659222
0.659208