/*--------------------------------*- C++ -*----------------------------------*\
| =========                 |                                                 |
| \\      /  F ield         | foam-extend: Open Source CFD                    |
|  \\    /   O peration     | Version:     4.0                                |
|   \\  /    A nd           | Web:         http://www.foam-extend.org         |
|    \\/     M anipulation  |                                                 |
\*---------------------------------------------------------------------------*/
FoamFile
{
    version     2.0;
    format      ascii;
    class       volVectorField;
    location    "1";
    object      bodyForce;
}
// * * * * * * * * * * * * * * * * * * * * * * * * * * * * * * * * * * * * * //

dimensions      [1 -2 -2 0 0 0 0];

internalField   nonuniform List<vector> 
1740
(
(-1.32187e-31 -1.0603e-14 -0)
(-1.35964e-30 -1.0603e-14 -0)
(-3.58794e-31 -1.0603e-14 -0)
(8.68659e-31 -1.0603e-14 -0)
(3.96562e-31 -1.0603e-14 -0)
(9.44195e-31 -1.0603e-14 -0)
(2.64375e-31 -1.0603e-14 -0)
(-3.21026e-31 -1.0603e-14 -0)
(1.32187e-31 -1.0603e-14 -0)
(3.3991e-31 -1.0603e-14 -0)
(8.12007e-31 -1.0603e-14 -0)
(5.66517e-31 -1.0603e-14 -0)
(-9.25311e-31 -1.0603e-14 -0)
(-1.07638e-30 -1.0603e-14 -0)
(5.47633e-31 -1.0603e-14 -0)
(-0 -1.10951e-14 -0)
(-4.14388e-30 -1.10951e-14 -0)
(-1.22781e-30 -1.10951e-14 -0)
(2.22541e-30 -1.10951e-14 -0)
(1.45803e-30 -1.10951e-14 -0)
(3.29975e-30 -1.10951e-14 -0)
(4.60431e-31 -1.10951e-14 -0)
(-1.07434e-30 -1.10951e-14 -0)
(6.13907e-31 -1.10951e-14 -0)
(9.20861e-31 -1.10951e-14 -0)
(2.14868e-30 -1.10951e-14 -0)
(1.84172e-30 -1.10951e-14 -0)
(-2.68585e-30 -1.10951e-14 -0)
(-3.45323e-30 -1.10951e-14 -0)
(1.68825e-30 -1.10951e-14 -0)
(-7.78333e-31 -1.15912e-14 -0)
(-8.09466e-30 -1.15912e-14 -0)
(-2.02366e-30 -1.15912e-14 -0)
(4.51433e-30 -1.15912e-14 -0)
(2.49066e-30 -1.15912e-14 -0)
(5.91533e-30 -1.15912e-14 -0)
(1.24533e-30 -1.15912e-14 -0)
(-2.335e-30 -1.15912e-14 -0)
(1.08967e-30 -1.15912e-14 -0)
(1.868e-30 -1.15912e-14 -0)
(3.736e-30 -1.15912e-14 -0)
(3.58033e-30 -1.15912e-14 -0)
(-4.82566e-30 -1.15912e-14 -0)
(-6.22666e-30 -1.15912e-14 -0)
(3.58033e-30 -1.15912e-14 -0)
(-7.88313e-31 -1.20923e-14 -0)
(-1.1194e-29 -1.20923e-14 -0)
(-3.31091e-30 -1.20923e-14 -0)
(6.3065e-30 -1.20923e-14 -0)
(3.94156e-30 -1.20923e-14 -0)
(8.19845e-30 -1.20923e-14 -0)
(1.73429e-30 -1.20923e-14 -0)
(-3.46858e-30 -1.20923e-14 -0)
(1.41896e-30 -1.20923e-14 -0)
(2.99559e-30 -1.20923e-14 -0)
(5.83351e-30 -1.20923e-14 -0)
(4.57221e-30 -1.20923e-14 -0)
(-6.46416e-30 -1.20923e-14 -0)
(-8.35611e-30 -1.20923e-14 -0)
(4.09923e-30 -1.20923e-14 -0)
(-2.2328e-30 -1.25993e-14 -0)
(-1.46727e-29 -1.25993e-14 -0)
(-3.50869e-30 -1.25993e-14 -0)
(8.61223e-30 -1.25993e-14 -0)
(4.14663e-30 -1.25993e-14 -0)
(1.1164e-29 -1.25993e-14 -0)
(2.87074e-30 -1.25993e-14 -0)
(-5.74149e-30 -1.25993e-14 -0)
(3.18972e-30 -1.25993e-14 -0)
(4.78457e-30 -1.25993e-14 -0)
(6.6984e-30 -1.25993e-14 -0)
(5.10354e-30 -1.25993e-14 -0)
(-8.9312e-30 -1.25993e-14 -0)
(-9.56915e-30 -1.25993e-14 -0)
(6.06046e-30 -1.25993e-14 -0)
(-3.22311e-30 -1.31133e-14 -0)
(-1.9661e-29 -1.31133e-14 -0)
(-5.15698e-30 -1.31133e-14 -0)
(1.0314e-29 -1.31133e-14 -0)
(6.44622e-30 -1.31133e-14 -0)
(1.67602e-29 -1.31133e-14 -0)
(3.86773e-30 -1.31133e-14 -0)
(-7.41315e-30 -1.31133e-14 -0)
(3.54542e-30 -1.31133e-14 -0)
(4.51235e-30 -1.31133e-14 -0)
(8.7024e-30 -1.31133e-14 -0)
(7.41315e-30 -1.31133e-14 -0)
(-1.16032e-29 -1.31133e-14 -0)
(-1.19255e-29 -1.31133e-14 -0)
(6.76853e-30 -1.31133e-14 -0)
(-5.85684e-30 -1.36356e-14 -0)
(-2.21258e-29 -1.36356e-14 -0)
(-4.8807e-30 -1.36356e-14 -0)
(1.00868e-29 -1.36356e-14 -0)
(8.78525e-30 -1.36356e-14 -0)
(2.08243e-29 -1.36356e-14 -0)
(2.60304e-30 -1.36356e-14 -0)
(-9.43601e-30 -1.36356e-14 -0)
(5.53146e-30 -1.36356e-14 -0)
(7.80911e-30 -1.36356e-14 -0)
(8.13449e-30 -1.36356e-14 -0)
(7.80911e-30 -1.36356e-14 -0)
(-1.17137e-29 -1.36356e-14 -0)
(-1.56182e-29 -1.36356e-14 -0)
(8.13449e-30 -1.36356e-14 -0)
(-3.93854e-30 -1.41671e-14 -0)
(-3.01955e-29 -1.41671e-14 -0)
(-1.05028e-29 -1.41671e-14 -0)
(1.7067e-29 -1.41671e-14 -0)
(9.84635e-30 -1.41671e-14 -0)
(2.29748e-29 -1.41671e-14 -0)
(7.22066e-30 -1.41671e-14 -0)
(-9.18992e-30 -1.41671e-14 -0)
(4.59496e-30 -1.41671e-14 -0)
(7.22066e-30 -1.41671e-14 -0)
(1.2472e-29 -1.41671e-14 -0)
(7.22066e-30 -1.41671e-14 -0)
(-1.37849e-29 -1.41671e-14 -0)
(-1.57542e-29 -1.41671e-14 -0)
(9.18993e-30 -1.41671e-14 -0)
(-7.94012e-30 -1.47092e-14 -0)
(-3.17605e-29 -1.47092e-14 -0)
(-1.05868e-29 -1.47092e-14 -0)
(1.52186e-29 -1.47092e-14 -0)
(1.05868e-29 -1.47092e-14 -0)
(2.84521e-29 -1.47092e-14 -0)
(7.94012e-30 -1.47092e-14 -0)
(-9.26348e-30 -1.47092e-14 -0)
(6.61677e-30 -1.47092e-14 -0)
(6.61677e-30 -1.47092e-14 -0)
(1.25719e-29 -1.47092e-14 -0)
(1.25719e-29 -1.47092e-14 -0)
(-1.45569e-29 -1.47092e-14 -0)
(-2.31587e-29 -1.47092e-14 -0)
(1.19102e-29 -1.47092e-14 -0)
(-1.13319e-29 -1.5263e-14 -0)
(-3.93282e-29 -1.5263e-14 -0)
(-1.19984e-29 -1.5263e-14 -0)
(1.86643e-29 -1.5263e-14 -0)
(1.53313e-29 -1.5263e-14 -0)
(3.3329e-29 -1.5263e-14 -0)
(8.66554e-30 -1.5263e-14 -0)
(-1.13319e-29 -1.5263e-14 -0)
(9.33213e-30 -1.5263e-14 -0)
(7.99896e-30 -1.5263e-14 -0)
(1.2665e-29 -1.5263e-14 -0)
(1.46648e-29 -1.5263e-14 -0)
(-1.73311e-29 -1.5263e-14 -0)
(-2.39969e-29 -1.5263e-14 -0)
(1.33316e-29 -1.5263e-14 -0)
(-1.54374e-29 -1.58298e-14 -0)
(-4.56409e-29 -1.58298e-14 -0)
(-9.39666e-30 -1.58298e-14 -0)
(2.41629e-29 -1.58298e-14 -0)
(1.54374e-29 -1.58298e-14 -0)
(3.08748e-29 -1.58298e-14 -0)
(1.14102e-29 -1.58298e-14 -0)
(-8.72547e-30 -1.58298e-14 -0)
(1.47662e-29 -1.58298e-14 -0)
(8.05428e-30 -1.58298e-14 -0)
(7.38309e-30 -1.58298e-14 -0)
(1.4095e-29 -1.58298e-14 -0)
(-1.4095e-29 -1.58298e-14 -0)
(-2.68476e-29 -1.58298e-14 -0)
(1.4095e-29 -1.58298e-14 -0)
(-2.02668e-29 -1.64112e-14 -0)
(-4.99915e-29 -1.64112e-14 -0)
(-1.35112e-29 -1.64112e-14 -0)
(2.2969e-29 -1.64112e-14 -0)
(2.02668e-29 -1.64112e-14 -0)
(4.32359e-29 -1.64112e-14 -0)
(1.35112e-29 -1.64112e-14 -0)
(-1.21601e-29 -1.64112e-14 -0)
(1.35112e-29 -1.64112e-14 -0)
(8.10672e-30 -1.64112e-14 -0)
(8.10672e-30 -1.64112e-14 -0)
(1.75646e-29 -1.64112e-14 -0)
(-1.62134e-29 -1.64112e-14 -0)
(-2.43202e-29 -1.64112e-14 -0)
(1.35112e-29 -1.64112e-14 -0)
(-2.44707e-29 -1.70084e-14 -0)
(-5.98172e-29 -1.70084e-14 -0)
(-1.35948e-29 -1.70084e-14 -0)
(2.85491e-29 -1.70084e-14 -0)
(1.90327e-29 -1.70084e-14 -0)
(4.75818e-29 -1.70084e-14 -0)
(1.76733e-29 -1.70084e-14 -0)
(-1.08759e-29 -1.70084e-14 -0)
(1.63138e-29 -1.70084e-14 -0)
(1.35948e-30 -1.70084e-14 -0)
(1.08759e-29 -1.70084e-14 -0)
(2.03922e-29 -1.70084e-14 -0)
(-1.22353e-29 -1.70084e-14 -0)
(-2.44707e-29 -1.70084e-14 -0)
(1.35948e-29 -1.70084e-14 -0)
(-3.69241e-29 -1.7623e-14 -0)
(-7.38482e-29 -1.7623e-14 -0)
(-8.20535e-30 -1.7623e-14 -0)
(2.87187e-29 -1.7623e-14 -0)
(2.05134e-29 -1.7623e-14 -0)
(6.01726e-29 -1.7623e-14 -0)
(2.32485e-29 -1.7623e-14 -0)
(-1.50431e-29 -1.7623e-14 -0)
(1.91458e-29 -1.7623e-14 -0)
(-1.36756e-30 -1.7623e-14 -0)
(8.20535e-30 -1.7623e-14 -0)
(3.00863e-29 -1.7623e-14 -0)
(-1.77783e-29 -1.7623e-14 -0)
(-2.59836e-29 -1.7623e-14 -0)
(1.36756e-29 -1.7623e-14 -0)
(-3.57615e-29 -1.82567e-14 -0)
(-8.11511e-29 -1.82567e-14 -0)
(-2.06316e-29 -1.82567e-14 -0)
(3.30106e-29 -1.82567e-14 -0)
(3.30106e-29 -1.82567e-14 -0)
(6.60213e-29 -1.82567e-14 -0)
(2.61334e-29 -1.82567e-14 -0)
(-1.78808e-29 -1.82567e-14 -0)
(2.06316e-29 -1.82567e-14 -0)
(-2.75089e-30 -1.82567e-14 -0)
(4.12633e-30 -1.82567e-14 -0)
(3.30106e-29 -1.82567e-14 -0)
(-9.6281e-30 -1.82567e-14 -0)
(-2.4758e-29 -1.82567e-14 -0)
(6.87721e-30 -1.82567e-14 -0)
(-5.11791e-29 -1.8911e-14 -0)
(-9.54421e-29 -1.8911e-14 -0)
(-1.10658e-29 -1.8911e-14 -0)
(2.62812e-29 -1.8911e-14 -0)
(2.90476e-29 -1.8911e-14 -0)
(8.71428e-29 -1.8911e-14 -0)
(3.04308e-29 -1.8911e-14 -0)
(-1.79818e-29 -1.8911e-14 -0)
(2.76644e-29 -1.8911e-14 -0)
(-8.29931e-30 -1.8911e-14 -0)
(8.29931e-30 -1.8911e-14 -0)
(3.31973e-29 -1.8911e-14 -0)
(-1.2449e-29 -1.8911e-14 -0)
(-2.07483e-29 -1.8911e-14 -0)
(1.38322e-29 -1.8911e-14 -0)
(-6.25935e-29 -1.95878e-14 -0)
(-9.87586e-29 -1.95878e-14 -0)
(-1.39097e-29 -1.95878e-14 -0)
(3.19922e-29 -1.95878e-14 -0)
(3.19922e-29 -1.95878e-14 -0)
(9.18038e-29 -1.95878e-14 -0)
(4.59019e-29 -1.95878e-14 -0)
(-1.66916e-29 -1.95878e-14 -0)
(2.36464e-29 -1.95878e-14 -0)
(-1.53006e-29 -1.95878e-14 -0)
(-0 -1.95878e-14 -0)
(4.45109e-29 -1.95878e-14 -0)
(5.56386e-30 -1.95878e-14 -0)
(-2.78193e-29 -1.95878e-14 -0)
(-2.78193e-30 -1.95878e-14 -0)
(-6.9938e-29 -2.02888e-14 -0)
(-1.14698e-28 -2.02888e-14 -0)
(-1.11901e-29 -2.02888e-14 -0)
(3.07727e-29 -2.02888e-14 -0)
(3.35702e-29 -2.02888e-14 -0)
(1.09103e-28 -2.02888e-14 -0)
(5.03554e-29 -2.02888e-14 -0)
(-2.23802e-29 -2.02888e-14 -0)
(2.79752e-29 -2.02888e-14 -0)
(-1.39876e-29 -2.02888e-14 -0)
(-2.79752e-30 -2.02888e-14 -0)
(4.75578e-29 -2.02888e-14 -0)
(1.11901e-29 -2.02888e-14 -0)
(-3.07727e-29 -2.02888e-14 -0)
(-5.59504e-30 -2.02888e-14 -0)
(-7.87735e-29 -2.1016e-14 -0)
(-1.06907e-28 -2.1016e-14 -0)
(-1.96934e-29 -2.1016e-14 -0)
(2.81334e-29 -2.1016e-14 -0)
(3.65734e-29 -2.1016e-14 -0)
(1.15347e-28 -2.1016e-14 -0)
(5.34534e-29 -2.1016e-14 -0)
(-2.53201e-29 -2.1016e-14 -0)
(3.09467e-29 -2.1016e-14 -0)
(-1.40667e-29 -2.1016e-14 -0)
(-2.81334e-30 -2.1016e-14 -0)
(6.47068e-29 -2.1016e-14 -0)
(1.688e-29 -2.1016e-14 -0)
(-3.09467e-29 -2.1016e-14 -0)
(-8.44002e-30 -2.1016e-14 -0)
(-9.05446e-29 -2.17713e-14 -0)
(-1.30158e-28 -2.17713e-14 -0)
(-5.65904e-30 -2.17713e-14 -0)
(3.11247e-29 -2.17713e-14 -0)
(3.67838e-29 -2.17713e-14 -0)
(1.21669e-28 -2.17713e-14 -0)
(5.94199e-29 -2.17713e-14 -0)
(-2.54657e-29 -2.17713e-14 -0)
(3.39542e-29 -2.17713e-14 -0)
(-2.82952e-29 -2.17713e-14 -0)
(-5.65904e-30 -2.17713e-14 -0)
(7.35675e-29 -2.17713e-14 -0)
(3.11247e-29 -2.17713e-14 -0)
(-2.26362e-29 -2.17713e-14 -0)
(-1.41476e-29 -2.17713e-14 -0)
(-9.67702e-29 -2.25569e-14 -0)
(-1.42309e-28 -2.25569e-14 -0)
(-8.53855e-30 -2.25569e-14 -0)
(3.70004e-29 -2.25569e-14 -0)
(4.83851e-29 -2.25569e-14 -0)
(1.22386e-28 -2.25569e-14 -0)
(6.54622e-29 -2.25569e-14 -0)
(-2.84618e-29 -2.25569e-14 -0)
(2.84618e-29 -2.25569e-14 -0)
(-3.70004e-29 -2.25569e-14 -0)
(-0 -2.25569e-14 -0)
(9.10778e-29 -2.25569e-14 -0)
(3.41542e-29 -2.25569e-14 -0)
(-2.27695e-29 -2.25569e-14 -0)
(-1.13847e-29 -2.25569e-14 -0)
(-1.11674e-28 -2.33748e-14 -0)
(-1.68943e-28 -2.33748e-14 -0)
(-5.72687e-30 -2.33748e-14 -0)
(3.14978e-29 -2.33748e-14 -0)
(4.00881e-29 -2.33748e-14 -0)
(1.51762e-28 -2.33748e-14 -0)
(8.59031e-29 -2.33748e-14 -0)
(-3.43612e-29 -2.33748e-14 -0)
(2.57709e-29 -2.33748e-14 -0)
(-3.14978e-29 -2.33748e-14 -0)
(2.86344e-30 -2.33748e-14 -0)
(1.05947e-28 -2.33748e-14 -0)
(2.86344e-29 -2.33748e-14 -0)
(-1.71806e-29 -2.33748e-14 -0)
(-2.00441e-29 -2.33748e-14 -0)
(-1.12374e-28 -2.42274e-14 -0)
(-1.75765e-28 -2.42274e-14 -0)
(-2.88139e-30 -2.42274e-14 -0)
(5.47464e-29 -2.42274e-14 -0)
(4.61022e-29 -2.42274e-14 -0)
(1.52714e-28 -2.42274e-14 -0)
(9.79672e-29 -2.42274e-14 -0)
(-2.59325e-29 -2.42274e-14 -0)
(2.01697e-29 -2.42274e-14 -0)
(-5.47464e-29 -2.42274e-14 -0)
(1.72883e-29 -2.42274e-14 -0)
(1.09493e-28 -2.42274e-14 -0)
(4.89836e-29 -2.42274e-14 -0)
(-1.15255e-29 -2.42274e-14 -0)
(-3.16953e-29 -2.42274e-14 -0)
(-1.21805e-28 -2.51169e-14 -0)
(-1.74008e-28 -2.51169e-14 -0)
(-0 -2.51169e-14 -0)
(3.48015e-29 -2.51169e-14 -0)
(4.06018e-29 -2.51169e-14 -0)
(1.74008e-28 -2.51169e-14 -0)
(1.18905e-28 -2.51169e-14 -0)
(-4.35019e-29 -2.51169e-14 -0)
(-0 -2.51169e-14 -0)
(-3.19014e-29 -2.51169e-14 -0)
(3.19014e-29 -2.51169e-14 -0)
(1.18905e-28 -2.51169e-14 -0)
(5.80025e-29 -2.51169e-14 -0)
(-5.80025e-30 -2.51169e-14 -0)
(-4.6402e-29 -2.51169e-14 -0)
(-1.34308e-28 -2.60459e-14 -0)
(-1.92703e-28 -2.60459e-14 -0)
(-1.1679e-29 -2.60459e-14 -0)
(5.83948e-29 -2.60459e-14 -0)
(5.83948e-29 -2.60459e-14 -0)
(1.51827e-28 -2.60459e-14 -0)
(1.1679e-28 -2.60459e-14 -0)
(-1.75184e-29 -2.60459e-14 -0)
(-0 -2.60459e-14 -0)
(-4.08764e-29 -2.60459e-14 -0)
(3.50369e-29 -2.60459e-14 -0)
(1.1679e-28 -2.60459e-14 -0)
(8.17528e-29 -2.60459e-14 -0)
(5.83948e-30 -2.60459e-14 -0)
(-5.25553e-29 -2.60459e-14 -0)
(-1.52896e-28 -2.70167e-14 -0)
(-1.94061e-28 -2.70167e-14 -0)
(3.52838e-29 -2.70167e-14 -0)
(4.11644e-29 -2.70167e-14 -0)
(4.7045e-29 -2.70167e-14 -0)
(1.94061e-28 -2.70167e-14 -0)
(1.11732e-28 -2.70167e-14 -0)
(-4.11644e-29 -2.70167e-14 -0)
(-0 -2.70167e-14 -0)
(-4.11644e-29 -2.70167e-14 -0)
(4.7045e-29 -2.70167e-14 -0)
(1.52896e-28 -2.70167e-14 -0)
(7.05675e-29 -2.70167e-14 -0)
(-0 -2.70167e-14 -0)
(-5.29257e-29 -2.70167e-14 -0)
(-1.59944e-28 -2.80322e-14 -0)
(-2.01411e-28 -2.80322e-14 -0)
(-0 -2.80322e-14 -0)
(5.33146e-29 -2.80322e-14 -0)
(7.10861e-29 -2.80322e-14 -0)
(2.13258e-28 -2.80322e-14 -0)
(1.42172e-28 -2.80322e-14 -0)
(-4.73907e-29 -2.80322e-14 -0)
(-2.96192e-29 -2.80322e-14 -0)
(-7.70099e-29 -2.80322e-14 -0)
(5.92384e-29 -2.80322e-14 -0)
(1.65868e-28 -2.80322e-14 -0)
(9.47815e-29 -2.80322e-14 -0)
(2.96192e-29 -2.80322e-14 -0)
(-6.51623e-29 -2.80322e-14 -0)
(-1.79078e-28 -2.9095e-14 -0)
(-2.02955e-28 -2.9095e-14 -0)
(2.98463e-29 -2.9095e-14 -0)
(6.56619e-29 -2.9095e-14 -0)
(5.96926e-29 -2.9095e-14 -0)
(2.08924e-28 -2.9095e-14 -0)
(1.43262e-28 -2.9095e-14 -0)
(-2.98463e-29 -2.9095e-14 -0)
(-4.77541e-29 -2.9095e-14 -0)
(-6.56619e-29 -2.9095e-14 -0)
(7.16311e-29 -2.9095e-14 -0)
(1.55201e-28 -2.9095e-14 -0)
(1.19385e-28 -2.9095e-14 -0)
(4.17848e-29 -2.9095e-14 -0)
(-7.76004e-29 -2.9095e-14 -0)
(-1.74494e-28 -3.02082e-14 -0)
(-1.80511e-28 -3.02082e-14 -0)
(1.80511e-29 -3.02082e-14 -0)
(4.81362e-29 -3.02082e-14 -0)
(7.82213e-29 -3.02082e-14 -0)
(2.16613e-28 -3.02082e-14 -0)
(1.56443e-28 -3.02082e-14 -0)
(-3.00851e-29 -3.02082e-14 -0)
(-6.61873e-29 -3.02082e-14 -0)
(-6.61873e-29 -3.02082e-14 -0)
(8.42384e-29 -3.02082e-14 -0)
(1.74494e-28 -3.02082e-14 -0)
(1.20341e-28 -3.02082e-14 -0)
(3.00851e-29 -3.02082e-14 -0)
(-9.62724e-29 -3.02082e-14 -0)
(-1.82018e-28 -3.13747e-14 -0)
(-1.69883e-28 -3.13747e-14 -0)
(4.85381e-29 -3.13747e-14 -0)
(6.67399e-29 -3.13747e-14 -0)
(7.88745e-29 -3.13747e-14 -0)
(2.0022e-28 -3.13747e-14 -0)
(1.45614e-28 -3.13747e-14 -0)
(-4.24709e-29 -3.13747e-14 -0)
(-7.28072e-29 -3.13747e-14 -0)
(-6.67399e-29 -3.13747e-14 -0)
(9.1009e-29 -3.13747e-14 -0)
(2.06287e-28 -3.13747e-14 -0)
(1.51682e-28 -3.13747e-14 -0)
(2.42691e-29 -3.13747e-14 -0)
(-1.3348e-28 -3.13747e-14 -0)
(-1.46883e-28 -3.2598e-14 -0)
(-1.71363e-28 -3.2598e-14 -0)
(1.83603e-29 -3.2598e-14 -0)
(7.34413e-29 -3.2598e-14 -0)
(7.95614e-29 -3.2598e-14 -0)
(2.26444e-28 -3.2598e-14 -0)
(1.46883e-28 -3.2598e-14 -0)
(-4.89609e-29 -3.2598e-14 -0)
(-9.79217e-29 -3.2598e-14 -0)
(-4.89609e-29 -3.2598e-14 -0)
(1.16282e-28 -3.2598e-14 -0)
(1.53003e-28 -3.2598e-14 -0)
(1.71363e-28 -3.2598e-14 -0)
(7.34413e-29 -3.2598e-14 -0)
(-1.40762e-28 -3.2598e-14 -0)
(-1.8527e-28 -3.38814e-14 -0)
(-1.54392e-28 -3.38814e-14 -0)
(2.47027e-29 -3.38814e-14 -0)
(9.26352e-29 -3.38814e-14 -0)
(1.11162e-28 -3.38814e-14 -0)
(2.09973e-28 -3.38814e-14 -0)
(1.48216e-28 -3.38814e-14 -0)
(-6.17568e-30 -3.38814e-14 -0)
(-1.35865e-28 -3.38814e-14 -0)
(-1.17338e-28 -3.38814e-14 -0)
(1.72919e-28 -3.38814e-14 -0)
(2.53203e-28 -3.38814e-14 -0)
(1.29689e-28 -3.38814e-14 -0)
(3.08784e-29 -3.38814e-14 -0)
(-1.17338e-28 -3.38814e-14 -0)
(-1.87023e-28 -3.52285e-14 -0)
(-1.62087e-28 -3.52285e-14 -0)
(2.49364e-29 -3.52285e-14 -0)
(8.72774e-29 -3.52285e-14 -0)
(9.97457e-29 -3.52285e-14 -0)
(2.1196e-28 -3.52285e-14 -0)
(1.87023e-28 -3.52285e-14 -0)
(-3.74046e-29 -3.52285e-14 -0)
(-1.24682e-28 -3.52285e-14 -0)
(-7.48092e-29 -3.52285e-14 -0)
(1.3715e-28 -3.52285e-14 -0)
(2.49364e-28 -3.52285e-14 -0)
(1.3715e-28 -3.52285e-14 -0)
(4.98728e-29 -3.52285e-14 -0)
(-1.12214e-28 -3.52285e-14 -0)
(-1.76274e-28 -3.66434e-14 -0)
(-1.38501e-28 -3.66434e-14 -0)
(1.2591e-29 -3.66434e-14 -0)
(1.63683e-28 -3.66434e-14 -0)
(1.00728e-28 -3.66434e-14 -0)
(1.51092e-28 -3.66434e-14 -0)
(1.88865e-28 -3.66434e-14 -0)
(-5.03641e-29 -3.66434e-14 -0)
(-1.2591e-28 -3.66434e-14 -0)
(-5.03641e-29 -3.66434e-14 -0)
(1.13319e-28 -3.66434e-14 -0)
(2.14047e-28 -3.66434e-14 -0)
(2.01456e-28 -3.66434e-14 -0)
(6.29551e-29 -3.66434e-14 -0)
(-1.2591e-28 -3.66434e-14 -0)
(-1.52641e-28 -3.81302e-14 -0)
(-1.01761e-28 -3.81302e-14 -0)
(3.81602e-29 -3.81302e-14 -0)
(1.27201e-28 -3.81302e-14 -0)
(6.36003e-29 -3.81302e-14 -0)
(2.16241e-28 -3.81302e-14 -0)
(2.16241e-28 -3.81302e-14 -0)
(-5.08803e-29 -3.81302e-14 -0)
(-1.65361e-28 -3.81302e-14 -0)
(-8.90405e-29 -3.81302e-14 -0)
(1.65361e-28 -3.81302e-14 -0)
(2.54401e-28 -3.81302e-14 -0)
(1.90801e-28 -3.81302e-14 -0)
(2.54401e-29 -3.81302e-14 -0)
(-1.65361e-28 -3.81302e-14 -0)
(-8.99892e-29 -3.96933e-14 -0)
(-6.4278e-29 -3.96933e-14 -0)
(-3.85668e-29 -3.96933e-14 -0)
(1.41412e-28 -3.96933e-14 -0)
(1.02845e-28 -3.96933e-14 -0)
(2.0569e-28 -3.96933e-14 -0)
(2.18545e-28 -3.96933e-14 -0)
(-5.14224e-29 -3.96933e-14 -0)
(-1.79978e-28 -3.96933e-14 -0)
(-8.99892e-29 -3.96933e-14 -0)
(1.67123e-28 -3.96933e-14 -0)
(2.44256e-28 -3.96933e-14 -0)
(1.79978e-28 -3.96933e-14 -0)
(2.57112e-29 -3.96933e-14 -0)
(-1.28556e-28 -3.96933e-14 -0)
(-6.49896e-29 -4.13373e-14 -0)
(-1.29979e-29 -4.13373e-14 -0)
(-5.19916e-29 -4.13373e-14 -0)
(9.09854e-29 -4.13373e-14 -0)
(1.42977e-28 -4.13373e-14 -0)
(2.59958e-28 -4.13373e-14 -0)
(1.42977e-28 -4.13373e-14 -0)
(-6.49896e-29 -4.13373e-14 -0)
(-1.03983e-28 -4.13373e-14 -0)
(-9.09854e-29 -4.13373e-14 -0)
(1.29979e-28 -4.13373e-14 -0)
(2.85954e-28 -4.13373e-14 -0)
(1.55975e-28 -4.13373e-14 -0)
(3.89937e-29 -4.13373e-14 -0)
(-1.29979e-28 -4.13373e-14 -0)
(-6.57364e-29 -4.30675e-14 -0)
(-0 -4.30675e-14 -0)
(-7.88837e-29 -4.30675e-14 -0)
(1.4462e-28 -4.30675e-14 -0)
(1.4462e-28 -4.30675e-14 -0)
(2.36651e-28 -4.30675e-14 -0)
(1.70915e-28 -4.30675e-14 -0)
(-7.88837e-29 -4.30675e-14 -0)
(-1.4462e-28 -4.30675e-14 -0)
(-1.18326e-28 -4.30675e-14 -0)
(1.57767e-28 -4.30675e-14 -0)
(2.76093e-28 -4.30675e-14 -0)
(1.97209e-28 -4.30675e-14 -0)
(2.62946e-29 -4.30675e-14 -0)
(-1.31473e-28 -4.30675e-14 -0)
(-5.3216e-29 -4.48891e-14 -0)
(3.9912e-29 -4.48891e-14 -0)
(-1.3304e-28 -4.48891e-14 -0)
(1.59648e-28 -4.48891e-14 -0)
(1.59648e-28 -4.48891e-14 -0)
(2.52776e-28 -4.48891e-14 -0)
(1.86256e-28 -4.48891e-14 -0)
(-1.06432e-28 -4.48891e-14 -0)
(-1.19736e-28 -4.48891e-14 -0)
(-1.19736e-28 -4.48891e-14 -0)
(1.19736e-28 -4.48891e-14 -0)
(2.26168e-28 -4.48891e-14 -0)
(2.26168e-28 -4.48891e-14 -0)
(3.9912e-29 -4.48891e-14 -0)
(-1.59648e-28 -4.48891e-14 -0)
(-5.38736e-29 -4.68079e-14 -0)
(8.08105e-29 -4.68079e-14 -0)
(-4.04052e-29 -4.68079e-14 -0)
(1.75089e-28 -4.68079e-14 -0)
(1.48153e-28 -4.68079e-14 -0)
(2.42431e-28 -4.68079e-14 -0)
(1.61621e-28 -4.68079e-14 -0)
(-1.07747e-28 -4.68079e-14 -0)
(-1.75089e-28 -4.68079e-14 -0)
(-5.38736e-29 -4.68079e-14 -0)
(8.08105e-29 -4.68079e-14 -0)
(1.75089e-28 -4.68079e-14 -0)
(2.28963e-28 -4.68079e-14 -0)
(8.08105e-29 -4.68079e-14 -0)
(-1.34684e-28 -4.68079e-14 -0)
(-4.09224e-29 -4.88301e-14 -0)
(1.22767e-28 -4.88301e-14 -0)
(-1.50049e-28 -4.88301e-14 -0)
(8.18449e-29 -4.88301e-14 -0)
(1.77331e-28 -4.88301e-14 -0)
(3.13739e-28 -4.88301e-14 -0)
(2.31894e-28 -4.88301e-14 -0)
(-1.22767e-28 -4.88301e-14 -0)
(-1.77331e-28 -4.88301e-14 -0)
(-6.82041e-29 -4.88301e-14 -0)
(8.18449e-29 -4.88301e-14 -0)
(1.6369e-28 -4.88301e-14 -0)
(1.77331e-28 -4.88301e-14 -0)
(1.36408e-29 -4.88301e-14 -0)
(-8.18449e-29 -4.88301e-14 -0)
(-8.29293e-29 -5.09622e-14 -0)
(1.65859e-28 -5.09622e-14 -0)
(-8.29293e-29 -5.09622e-14 -0)
(-0 -5.09622e-14 -0)
(1.65859e-28 -5.09622e-14 -0)
(3.45539e-28 -5.09622e-14 -0)
(1.24394e-28 -5.09622e-14 -0)
(-9.67509e-29 -5.09622e-14 -0)
(-1.24394e-28 -5.09622e-14 -0)
(-6.91078e-29 -5.09622e-14 -0)
(8.29293e-29 -5.09622e-14 -0)
(1.10572e-28 -5.09622e-14 -0)
(2.48788e-28 -5.09622e-14 -0)
(-0 -5.09622e-14 -0)
(-1.65859e-28 -5.09622e-14 -0)
(-5.6044e-29 -5.32114e-14 -0)
(1.12088e-28 -5.32114e-14 -0)
(-1.96154e-28 -5.32114e-14 -0)
(8.40659e-29 -5.32114e-14 -0)
(2.24176e-28 -5.32114e-14 -0)
(2.52198e-28 -5.32114e-14 -0)
(1.12088e-28 -5.32114e-14 -0)
(-1.4011e-28 -5.32114e-14 -0)
(-5.6044e-29 -5.32114e-14 -0)
(-2.8022e-29 -5.32114e-14 -0)
(8.40659e-29 -5.32114e-14 -0)
(8.40659e-29 -5.32114e-14 -0)
(1.12088e-28 -5.32114e-14 -0)
(-2.8022e-29 -5.32114e-14 -0)
(-5.6044e-29 -5.32114e-14 -0)
(-2.8419e-29 -5.55852e-14 -0)
(1.42095e-28 -5.55852e-14 -0)
(-1.98933e-28 -5.55852e-14 -0)
(5.6838e-29 -5.55852e-14 -0)
(2.55771e-28 -5.55852e-14 -0)
(3.12609e-28 -5.55852e-14 -0)
(-0 -5.55852e-14 -0)
(-1.98933e-28 -5.55852e-14 -0)
(-5.6838e-29 -5.55852e-14 -0)
(2.8419e-29 -5.55852e-14 -0)
(8.5257e-29 -5.55852e-14 -0)
(5.6838e-29 -5.55852e-14 -0)
(1.42095e-28 -5.55852e-14 -0)
(-2.8419e-29 -5.55852e-14 -0)
(-5.6838e-29 -5.55852e-14 -0)
(-5.76698e-29 -5.80916e-14 -0)
(1.44174e-28 -5.80916e-14 -0)
(-8.65047e-29 -5.80916e-14 -0)
(2.88349e-29 -5.80916e-14 -0)
(1.1534e-28 -5.80916e-14 -0)
(2.88349e-28 -5.80916e-14 -0)
(5.76698e-29 -5.80916e-14 -0)
(-1.73009e-28 -5.80916e-14 -0)
(-8.65047e-29 -5.80916e-14 -0)
(2.88349e-29 -5.80916e-14 -0)
(5.76698e-29 -5.80916e-14 -0)
(2.88349e-29 -5.80916e-14 -0)
(1.1534e-28 -5.80916e-14 -0)
(-5.76698e-29 -5.80916e-14 -0)
(2.88349e-29 -5.80916e-14 -0)
(-1.46352e-28 -6.07393e-14 -0)
(2.92705e-29 -6.07393e-14 -0)
(-1.17082e-28 -6.07393e-14 -0)
(1.46352e-28 -6.07393e-14 -0)
(1.46352e-28 -6.07393e-14 -0)
(2.34164e-28 -6.07393e-14 -0)
(-0 -6.07393e-14 -0)
(-1.46352e-28 -6.07393e-14 -0)
(-8.78115e-29 -6.07393e-14 -0)
(-0 -6.07393e-14 -0)
(5.8541e-29 -6.07393e-14 -0)
(-0 -6.07393e-14 -0)
(2.92705e-29 -6.07393e-14 -0)
(2.92705e-29 -6.07393e-14 -0)
(2.92705e-29 -6.07393e-14 -0)
(-2.08086e-28 -6.35374e-14 -0)
(-0 -6.35374e-14 -0)
(-2.97266e-29 -6.35374e-14 -0)
(-0 -6.35374e-14 -0)
(8.91798e-29 -6.35374e-14 -0)
(1.7836e-28 -6.35374e-14 -0)
(-0 -6.35374e-14 -0)
(-1.48633e-28 -6.35374e-14 -0)
(-8.91798e-29 -6.35374e-14 -0)
(-2.97266e-29 -6.35374e-14 -0)
(8.91798e-29 -6.35374e-14 -0)
(-5.94532e-29 -6.35374e-14 -0)
(1.18906e-28 -6.35374e-14 -0)
(5.94532e-29 -6.35374e-14 -0)
(5.94532e-29 -6.35374e-14 -0)
(-2.11429e-28 -6.64959e-14 -0)
(-3.02041e-29 -6.64959e-14 -0)
(-9.06124e-29 -6.64959e-14 -0)
(1.81225e-28 -6.64959e-14 -0)
(1.51021e-28 -6.64959e-14 -0)
(6.04083e-29 -6.64959e-14 -0)
(-9.06124e-29 -6.64959e-14 -0)
(-1.20817e-28 -6.64959e-14 -0)
(-1.20817e-28 -6.64959e-14 -0)
(-9.06124e-29 -6.64959e-14 -0)
(9.06124e-29 -6.64959e-14 -0)
(-0 -6.64959e-14 -0)
(6.04083e-29 -6.64959e-14 -0)
(-3.02041e-29 -6.64959e-14 -0)
(3.02041e-29 -6.64959e-14 -0)
(-2.76335e-28 -6.96253e-14 -0)
(-9.21117e-29 -6.96253e-14 -0)
(-9.21117e-29 -6.96253e-14 -0)
(3.07039e-28 -6.96253e-14 -0)
(9.21117e-29 -6.96253e-14 -0)
(-3.07039e-29 -6.96253e-14 -0)
(-1.5352e-28 -6.96253e-14 -0)
(-3.07039e-29 -6.96253e-14 -0)
(-2.14927e-28 -6.96253e-14 -0)
(-1.5352e-28 -6.96253e-14 -0)
(1.5352e-28 -6.96253e-14 -0)
(-1.5352e-28 -6.96253e-14 -0)
(6.14078e-29 -6.96253e-14 -0)
(3.07039e-29 -6.96253e-14 -0)
(1.22816e-28 -6.96253e-14 -0)
(-2.18588e-28 -7.29367e-14 -0)
(-1.56134e-28 -7.29367e-14 -0)
(-0 -7.29367e-14 -0)
(3.43495e-28 -7.29367e-14 -0)
(-6.24537e-29 -7.29367e-14 -0)
(-1.87361e-28 -7.29367e-14 -0)
(6.24537e-29 -7.29367e-14 -0)
(3.12268e-29 -7.29367e-14 -0)
(-2.81042e-28 -7.29367e-14 -0)
(-2.18588e-28 -7.29367e-14 -0)
(-6.24537e-29 -7.29367e-14 -0)
(-1.87361e-28 -7.29367e-14 -0)
(3.74722e-28 -7.29367e-14 -0)
(9.36805e-29 -7.29367e-14 -0)
(-9.36805e-29 -7.29367e-14 -0)
(-3.81287e-28 -7.64421e-14 -0)
(-1.58869e-28 -7.64421e-14 -0)
(2.54191e-28 -7.64421e-14 -0)
(2.54191e-28 -7.64421e-14 -0)
(-2.22417e-28 -7.64421e-14 -0)
(-1.90643e-28 -7.64421e-14 -0)
(6.35478e-29 -7.64421e-14 -0)
(-0 -7.64421e-14 -0)
(-4.1306e-28 -7.64421e-14 -0)
(-3.81287e-28 -7.64421e-14 -0)
(9.53216e-29 -7.64421e-14 -0)
(-9.53216e-29 -7.64421e-14 -0)
(9.53216e-29 -7.64421e-14 -0)
(9.53216e-29 -7.64421e-14 -0)
(2.54191e-28 -7.64421e-14 -0)
(-3.88151e-28 -8.01542e-14 -0)
(-1.29384e-28 -8.01542e-14 -0)
(9.70378e-29 -8.01542e-14 -0)
(4.52843e-28 -8.01542e-14 -0)
(-2.58767e-28 -8.01542e-14 -0)
(-3.55805e-28 -8.01542e-14 -0)
(1.94076e-28 -8.01542e-14 -0)
(-0 -8.01542e-14 -0)
(-4.85189e-28 -8.01542e-14 -0)
(-4.20497e-28 -8.01542e-14 -0)
(9.70378e-29 -8.01542e-14 -0)
(-6.46919e-29 -8.01542e-14 -0)
(1.29384e-28 -8.01542e-14 -0)
(1.29384e-28 -8.01542e-14 -0)
(2.26422e-28 -8.01542e-14 -0)
(-6.58879e-28 -8.40867e-14 -0)
(-1.31776e-28 -8.40867e-14 -0)
(3.95328e-28 -8.40867e-14 -0)
(3.2944e-28 -8.40867e-14 -0)
(-3.95328e-28 -8.40867e-14 -0)
(-3.2944e-28 -8.40867e-14 -0)
(1.97664e-28 -8.40867e-14 -0)
(6.58879e-29 -8.40867e-14 -0)
(-6.58879e-28 -8.40867e-14 -0)
(-5.27104e-28 -8.40867e-14 -0)
(1.31776e-28 -8.40867e-14 -0)
(-6.58879e-29 -8.40867e-14 -0)
(1.31776e-28 -8.40867e-14 -0)
(1.31776e-28 -8.40867e-14 -0)
(2.63552e-28 -8.40867e-14 -0)
(-4.69965e-28 -8.82538e-14 -0)
(6.71378e-29 -8.82538e-14 -0)
(6.71379e-29 -8.82538e-14 -0)
(2.68551e-28 -8.82538e-14 -0)
(-2.68551e-28 -8.82538e-14 -0)
(-2.01414e-28 -8.82538e-14 -0)
(2.68551e-28 -8.82538e-14 -0)
(-0 -8.82538e-14 -0)
(-8.05654e-28 -8.82538e-14 -0)
(-6.71379e-28 -8.82538e-14 -0)
(-0 -8.82538e-14 -0)
(6.71379e-29 -8.82538e-14 -0)
(2.01414e-28 -8.82538e-14 -0)
(2.68551e-28 -8.82538e-14 -0)
(2.68551e-28 -8.82538e-14 -0)
(-8.89765e-28 -9.26707e-14 -0)
(-0 -9.26707e-14 -0)
(2.0533e-28 -9.26707e-14 -0)
(2.73774e-28 -9.26707e-14 -0)
(-2.0533e-28 -9.26707e-14 -0)
(-2.73774e-28 -9.26707e-14 -0)
(2.73774e-28 -9.26707e-14 -0)
(-2.73774e-28 -9.26707e-14 -0)
(-7.52878e-28 -9.26707e-14 -0)
(-5.47548e-28 -9.26707e-14 -0)
(2.0533e-28 -9.26707e-14 -0)
(2.0533e-28 -9.26707e-14 -0)
(6.84435e-29 -9.26707e-14 -0)
(2.73774e-28 -9.26707e-14 -0)
(2.0533e-28 -9.26707e-14 -0)
(-1.0471e-27 -9.73534e-14 -0)
(-6.98065e-29 -9.73534e-14 -0)
(5.58452e-28 -9.73534e-14 -0)
(1.39613e-28 -9.73534e-14 -0)
(-3.49033e-28 -9.73534e-14 -0)
(1.39613e-28 -9.73534e-14 -0)
(1.39613e-28 -9.73534e-14 -0)
(-6.98065e-28 -9.73534e-14 -0)
(-9.07485e-28 -9.73534e-14 -0)
(-4.18839e-28 -9.73534e-14 -0)
(6.98065e-29 -9.73534e-14 -0)
(1.39613e-28 -9.73534e-14 -0)
(2.79226e-28 -9.73534e-14 -0)
(2.0942e-28 -9.73534e-14 -0)
(2.79226e-28 -9.73534e-14 -0)
(-9.97203e-28 -1.02319e-13 -0)
(7.12288e-29 -1.02319e-13 -0)
(3.56144e-28 -1.02319e-13 -0)
(2.84915e-28 -1.02319e-13 -0)
(-3.56144e-28 -1.02319e-13 -0)
(-0 -1.02319e-13 -0)
(7.12288e-29 -1.02319e-13 -0)
(-5.6983e-28 -1.02319e-13 -0)
(-7.83516e-28 -1.02319e-13 -0)
(-5.6983e-28 -1.02319e-13 -0)
(-7.12288e-29 -1.02319e-13 -0)
(1.42458e-28 -1.02319e-13 -0)
(2.84915e-28 -1.02319e-13 -0)
(4.27373e-28 -1.02319e-13 -0)
(5.6983e-28 -1.02319e-13 -0)
(-9.45251e-28 -1.07584e-13 -0)
(-1.45423e-28 -1.07584e-13 -0)
(2.18135e-28 -1.07584e-13 -0)
(2.18135e-28 -1.07584e-13 -0)
(-3.63558e-28 -1.07584e-13 -0)
(7.27116e-29 -1.07584e-13 -0)
(2.90846e-28 -1.07584e-13 -0)
(-7.99827e-28 -1.07584e-13 -0)
(-1.16339e-27 -1.07584e-13 -0)
(-6.54404e-28 -1.07584e-13 -0)
(-0 -1.07584e-13 -0)
(3.63558e-28 -1.07584e-13 -0)
(4.36269e-28 -1.07584e-13 -0)
(4.36269e-28 -1.07584e-13 -0)
(7.27116e-28 -1.07584e-13 -0)
(-1.11384e-27 -1.13167e-13 -0)
(-2.22768e-28 -1.13167e-13 -0)
(1.48512e-28 -1.13167e-13 -0)
(-0 -1.13167e-13 -0)
(-4.45537e-28 -1.13167e-13 -0)
(2.97024e-28 -1.13167e-13 -0)
(3.71281e-28 -1.13167e-13 -0)
(-8.16817e-28 -1.13167e-13 -0)
(-1.11384e-27 -1.13167e-13 -0)
(-8.91073e-28 -1.13167e-13 -0)
(-0 -1.13167e-13 -0)
(4.45537e-28 -1.13167e-13 -0)
(5.94049e-28 -1.13167e-13 -0)
(7.42561e-28 -1.13167e-13 -0)
(6.68305e-28 -1.13167e-13 -0)
(-7.5863e-28 -1.19087e-13 -0)
(-7.5863e-29 -1.19087e-13 -0)
(-0 -1.19087e-13 -0)
(-0 -1.19087e-13 -0)
(-5.31041e-28 -1.19087e-13 -0)
(1.51726e-28 -1.19087e-13 -0)
(3.79315e-28 -1.19087e-13 -0)
(-1.06208e-27 -1.19087e-13 -0)
(-1.13794e-27 -1.19087e-13 -0)
(-6.82767e-28 -1.19087e-13 -0)
(7.5863e-29 -1.19087e-13 -0)
(5.31041e-28 -1.19087e-13 -0)
(7.5863e-28 -1.19087e-13 -0)
(8.34493e-28 -1.19087e-13 -0)
(6.82767e-28 -1.19087e-13 -0)
(-1.08545e-27 -1.2536e-13 -0)
(-4.65192e-28 -1.2536e-13 -0)
(-0 -1.2536e-13 -0)
(-0 -1.2536e-13 -0)
(-7.7532e-28 -1.2536e-13 -0)
(3.10128e-28 -1.2536e-13 -0)
(4.65192e-28 -1.2536e-13 -0)
(-9.30384e-28 -1.2536e-13 -0)
(-1.39558e-27 -1.2536e-13 -0)
(-1.00792e-27 -1.2536e-13 -0)
(1.55064e-28 -1.2536e-13 -0)
(7.7532e-28 -1.2536e-13 -0)
(1.08545e-27 -1.2536e-13 -0)
(9.30384e-28 -1.2536e-13 -0)
(8.52852e-28 -1.2536e-13 -0)
(-1.34745e-27 -1.32004e-13 -0)
(-1.58523e-28 -1.32004e-13 -0)
(-7.92618e-29 -1.32004e-13 -0)
(-3.96309e-28 -1.32004e-13 -0)
(-8.71879e-28 -1.32004e-13 -0)
(1.58524e-28 -1.32004e-13 -0)
(7.13356e-28 -1.32004e-13 -0)
(-8.71879e-28 -1.32004e-13 -0)
(-1.18893e-27 -1.32004e-13 -0)
(-9.51141e-28 -1.32004e-13 -0)
(-1.58523e-28 -1.32004e-13 -0)
(6.34094e-28 -1.32004e-13 -0)
(1.42671e-27 -1.32004e-13 -0)
(1.18893e-27 -1.32004e-13 -0)
(7.13356e-28 -1.32004e-13 -0)
(-1.62098e-27 -1.39032e-13 -0)
(-4.86295e-28 -1.39032e-13 -0)
(1.62098e-28 -1.39032e-13 -0)
(-8.10492e-28 -1.39032e-13 -0)
(-1.13469e-27 -1.39032e-13 -0)
(6.48394e-28 -1.39032e-13 -0)
(3.24197e-28 -1.39032e-13 -0)
(-1.13469e-27 -1.39032e-13 -0)
(-9.72591e-28 -1.39032e-13 -0)
(-8.10492e-28 -1.39032e-13 -0)
(-3.24197e-28 -1.39032e-13 -0)
(9.72591e-28 -1.39032e-13 -0)
(1.13469e-27 -1.39032e-13 -0)
(1.29679e-27 -1.39032e-13 -0)
(1.13469e-27 -1.39032e-13 -0)
(-1.82355e-27 -1.46456e-13 -0)
(-8.28888e-28 -1.46456e-13 -0)
(-1.65778e-28 -1.46456e-13 -0)
(-8.28888e-28 -1.46456e-13 -0)
(-1.16044e-27 -1.46456e-13 -0)
(1.65778e-28 -1.46456e-13 -0)
(1.16044e-27 -1.46456e-13 -0)
(-8.28888e-28 -1.46456e-13 -0)
(-1.65778e-27 -1.46456e-13 -0)
(-6.63111e-28 -1.46456e-13 -0)
(-3.31555e-28 -1.46456e-13 -0)
(8.28888e-28 -1.46456e-13 -0)
(1.32622e-27 -1.46456e-13 -0)
(1.32622e-27 -1.46456e-13 -0)
(1.492e-27 -1.46456e-13 -0)
(-1.86497e-27 -1.54278e-13 -0)
(-1.1868e-27 -1.54278e-13 -0)
(1.69543e-28 -1.54278e-13 -0)
(-1.1868e-27 -1.54278e-13 -0)
(-1.52589e-27 -1.54278e-13 -0)
(3.39086e-28 -1.54278e-13 -0)
(1.01726e-27 -1.54278e-13 -0)
(-6.78171e-28 -1.54278e-13 -0)
(-1.69543e-27 -1.54278e-13 -0)
(-8.47714e-28 -1.54278e-13 -0)
(1.69543e-28 -1.54278e-13 -0)
(8.47714e-28 -1.54278e-13 -0)
(1.1868e-27 -1.54278e-13 -0)
(1.52589e-27 -1.54278e-13 -0)