/*--------------------------------*- C++ -*----------------------------------*\
| =========                 |                                                 |
| \\      /  F ield         | foam-extend: Open Source CFD                    |
|  \\    /   O peration     | Version:     4.0                                |
|   \\  /    A nd           | Web:         http://www.foam-extend.org         |
|    \\/     M anipulation  |                                                 |
\*---------------------------------------------------------------------------*/
FoamFile
{
    version     2.0;
    format      ascii;
    class       volScalarField;
    location    "1420";
    object      cMinus;
}
// * * * * * * * * * * * * * * * * * * * * * * * * * * * * * * * * * * * * * //

dimensions      [0 0 0 0 0 0 0];

internalField   nonuniform List<scalar> 
6960
(
9.65838e-24
9.65996e-24
9.66082e-24
9.6612e-24
9.66144e-24
9.66165e-24
9.66185e-24
9.66205e-24
9.66226e-24
9.66248e-24
9.66269e-24
9.66291e-24
9.66313e-24
9.66334e-24
9.66354e-24
9.66374e-24
9.66393e-24
9.66411e-24
9.66428e-24
9.66443e-24
9.66457e-24
9.6647e-24
9.66482e-24
9.66492e-24
9.66501e-24
9.66508e-24
9.66514e-24
9.66518e-24
9.66521e-24
9.66523e-24
9.66523e-24
9.66521e-24
9.66518e-24
9.66514e-24
9.66508e-24
9.66501e-24
9.66492e-24
9.66482e-24
9.6647e-24
9.66457e-24
9.66443e-24
9.66428e-24
9.66411e-24
9.66393e-24
9.66374e-24
9.66354e-24
9.66334e-24
9.66313e-24
9.66291e-24
9.66269e-24
9.66248e-24
9.66226e-24
9.66205e-24
9.66185e-24
9.66165e-24
9.66144e-24
9.6612e-24
9.66082e-24
9.65996e-24
9.65838e-24
2.71215e-23
2.71284e-23
2.71314e-23
2.71329e-23
2.71341e-23
2.71352e-23
2.71362e-23
2.71372e-23
2.71383e-23
2.71393e-23
2.71404e-23
2.71414e-23
2.71424e-23
2.71433e-23
2.71442e-23
2.71451e-23
2.71459e-23
2.71467e-23
2.71474e-23
2.71481e-23
2.71487e-23
2.71492e-23
2.71497e-23
2.71502e-23
2.71505e-23
2.71508e-23
2.71511e-23
2.71512e-23
2.71514e-23
2.71514e-23
2.71514e-23
2.71514e-23
2.71512e-23
2.71511e-23
2.71508e-23
2.71505e-23
2.71502e-23
2.71497e-23
2.71492e-23
2.71487e-23
2.71481e-23
2.71474e-23
2.71467e-23
2.71459e-23
2.71451e-23
2.71442e-23
2.71433e-23
2.71424e-23
2.71414e-23
2.71404e-23
2.71393e-23
2.71383e-23
2.71372e-23
2.71362e-23
2.71352e-23
2.71341e-23
2.71329e-23
2.71314e-23
2.71284e-23
2.71215e-23
6.65602e-23
6.65782e-23
6.6587e-23
6.65926e-23
6.65973e-23
6.66016e-23
6.66057e-23
6.66098e-23
6.66138e-23
6.66176e-23
6.66214e-23
6.6625e-23
6.66284e-23
6.66317e-23
6.66348e-23
6.66377e-23
6.66404e-23
6.6643e-23
6.66453e-23
6.66474e-23
6.66494e-23
6.66511e-23
6.66527e-23
6.6654e-23
6.66552e-23
6.66561e-23
6.66569e-23
6.66574e-23
6.66578e-23
6.6658e-23
6.6658e-23
6.66578e-23
6.66574e-23
6.66569e-23
6.66561e-23
6.66552e-23
6.6654e-23
6.66527e-23
6.66511e-23
6.66494e-23
6.66474e-23
6.66453e-23
6.6643e-23
6.66404e-23
6.66377e-23
6.66348e-23
6.66317e-23
6.66284e-23
6.6625e-23
6.66214e-23
6.66176e-23
6.66138e-23
6.66098e-23
6.66057e-23
6.66016e-23
6.65973e-23
6.65926e-23
6.6587e-23
6.65782e-23
6.65602e-23
1.56383e-22
1.56426e-22
1.56452e-22
1.5647e-22
1.56486e-22
1.565e-22
1.56514e-22
1.56528e-22
1.56541e-22
1.56554e-22
1.56566e-22
1.56577e-22
1.56588e-22
1.56598e-22
1.56608e-22
1.56617e-22
1.56625e-22
1.56633e-22
1.5664e-22
1.56646e-22
1.56652e-22
1.56657e-22
1.56662e-22
1.56666e-22
1.56669e-22
1.56672e-22
1.56674e-22
1.56676e-22
1.56677e-22
1.56677e-22
1.56677e-22
1.56677e-22
1.56676e-22
1.56674e-22
1.56672e-22
1.56669e-22
1.56666e-22
1.56662e-22
1.56657e-22
1.56652e-22
1.56646e-22
1.5664e-22
1.56633e-22
1.56625e-22
1.56617e-22
1.56608e-22
1.56598e-22
1.56588e-22
1.56577e-22
1.56566e-22
1.56554e-22
1.56541e-22
1.56528e-22
1.56514e-22
1.565e-22
1.56486e-22
1.5647e-22
1.56452e-22
1.56426e-22
1.56383e-22
3.64712e-22
3.64815e-22
3.64886e-22
3.64941e-22
3.64991e-22
3.65037e-22
3.65081e-22
3.65124e-22
3.65164e-22
3.65203e-22
3.65239e-22
3.65274e-22
3.65306e-22
3.65336e-22
3.65365e-22
3.65391e-22
3.65415e-22
3.65437e-22
3.65457e-22
3.65476e-22
3.65492e-22
3.65507e-22
3.6552e-22
3.65531e-22
3.65541e-22
3.65548e-22
3.65555e-22
3.65559e-22
3.65563e-22
3.65564e-22
3.65564e-22
3.65563e-22
3.65559e-22
3.65555e-22
3.65548e-22
3.65541e-22
3.65531e-22
3.6552e-22
3.65507e-22
3.65492e-22
3.65476e-22
3.65457e-22
3.65437e-22
3.65415e-22
3.65391e-22
3.65365e-22
3.65336e-22
3.65306e-22
3.65274e-22
3.65239e-22
3.65203e-22
3.65164e-22
3.65124e-22
3.65081e-22
3.65037e-22
3.64991e-22
3.64941e-22
3.64886e-22
3.64815e-22
3.64712e-22
8.57873e-22
8.58124e-22
8.58321e-22
8.58481e-22
8.58629e-22
8.58768e-22
8.58901e-22
8.59027e-22
8.59147e-22
8.5926e-22
8.59367e-22
8.59468e-22
8.59562e-22
8.59649e-22
8.5973e-22
8.59806e-22
8.59875e-22
8.59938e-22
8.59995e-22
8.60047e-22
8.60094e-22
8.60135e-22
8.60171e-22
8.60203e-22
8.6023e-22
8.60252e-22
8.60269e-22
8.60282e-22
8.60291e-22
8.60295e-22
8.60295e-22
8.60291e-22
8.60282e-22
8.60269e-22
8.60252e-22
8.6023e-22
8.60203e-22
8.60171e-22
8.60135e-22
8.60094e-22
8.60047e-22
8.59995e-22
8.59938e-22
8.59875e-22
8.59806e-22
8.5973e-22
8.59649e-22
8.59562e-22
8.59468e-22
8.59367e-22
8.5926e-22
8.59147e-22
8.59027e-22
8.58901e-22
8.58768e-22
8.58629e-22
8.58481e-22
8.58321e-22
8.58124e-22
8.57873e-22
2.05023e-21
2.05085e-21
2.0514e-21
2.05186e-21
2.05229e-21
2.0527e-21
2.05309e-21
2.05346e-21
2.05381e-21
2.05413e-21
2.05444e-21
2.05473e-21
2.055e-21
2.05525e-21
2.05548e-21
2.05569e-21
2.05589e-21
2.05607e-21
2.05623e-21
2.05638e-21
2.05651e-21
2.05662e-21
2.05673e-21
2.05681e-21
2.05689e-21
2.05695e-21
2.057e-21
2.05703e-21
2.05706e-21
2.05707e-21
2.05707e-21
2.05706e-21
2.05703e-21
2.057e-21
2.05695e-21
2.05689e-21
2.05681e-21
2.05673e-21
2.05662e-21
2.05651e-21
2.05638e-21
2.05623e-21
2.05607e-21
2.05589e-21
2.05569e-21
2.05548e-21
2.05525e-21
2.055e-21
2.05473e-21
2.05444e-21
2.05413e-21
2.05381e-21
2.05346e-21
2.05309e-21
2.0527e-21
2.05229e-21
2.05186e-21
2.0514e-21
2.05085e-21
2.05023e-21
4.99581e-21
4.99739e-21
4.9989e-21
5.00023e-21
5.00148e-21
5.00266e-21
5.00379e-21
5.00485e-21
5.00586e-21
5.0068e-21
5.00769e-21
5.00851e-21
5.00928e-21
5.00999e-21
5.01065e-21
5.01126e-21
5.01181e-21
5.01231e-21
5.01277e-21
5.01318e-21
5.01355e-21
5.01388e-21
5.01416e-21
5.01441e-21
5.01462e-21
5.01479e-21
5.01493e-21
5.01503e-21
5.0151e-21
5.01513e-21
5.01513e-21
5.0151e-21
5.01503e-21
5.01493e-21
5.01479e-21
5.01462e-21
5.01441e-21
5.01416e-21
5.01388e-21
5.01355e-21
5.01318e-21
5.01277e-21
5.01231e-21
5.01181e-21
5.01126e-21
5.01065e-21
5.00999e-21
5.00928e-21
5.00851e-21
5.00769e-21
5.0068e-21
5.00586e-21
5.00485e-21
5.00379e-21
5.00266e-21
5.00148e-21
5.00023e-21
4.9989e-21
4.99739e-21
4.99581e-21
1.24331e-20
1.24372e-20
1.24415e-20
1.24453e-20
1.24489e-20
1.24523e-20
1.24556e-20
1.24587e-20
1.24616e-20
1.24643e-20
1.24668e-20
1.24692e-20
1.24714e-20
1.24734e-20
1.24753e-20
1.2477e-20
1.24786e-20
1.248e-20
1.24813e-20
1.24825e-20
1.24836e-20
1.24845e-20
1.24853e-20
1.2486e-20
1.24866e-20
1.24871e-20
1.24875e-20
1.24877e-20
1.24879e-20
1.2488e-20
1.2488e-20
1.24879e-20
1.24877e-20
1.24875e-20
1.24871e-20
1.24866e-20
1.2486e-20
1.24853e-20
1.24845e-20
1.24836e-20
1.24825e-20
1.24813e-20
1.248e-20
1.24786e-20
1.2477e-20
1.24753e-20
1.24734e-20
1.24714e-20
1.24692e-20
1.24668e-20
1.24643e-20
1.24616e-20
1.24587e-20
1.24556e-20
1.24523e-20
1.24489e-20
1.24453e-20
1.24415e-20
1.24372e-20
1.24331e-20
3.16314e-20
3.16427e-20
3.16547e-20
3.16657e-20
3.16762e-20
3.16862e-20
3.16957e-20
3.17046e-20
3.1713e-20
3.17209e-20
3.17283e-20
3.17351e-20
3.17415e-20
3.17474e-20
3.17528e-20
3.17578e-20
3.17623e-20
3.17664e-20
3.17702e-20
3.17735e-20
3.17765e-20
3.17792e-20
3.17815e-20
3.17835e-20
3.17852e-20
3.17866e-20
3.17877e-20
3.17885e-20
3.1789e-20
3.17893e-20
3.17893e-20
3.1789e-20
3.17885e-20
3.17877e-20
3.17866e-20
3.17852e-20
3.17835e-20
3.17815e-20
3.17792e-20
3.17765e-20
3.17735e-20
3.17702e-20
3.17664e-20
3.17623e-20
3.17578e-20
3.17528e-20
3.17474e-20
3.17415e-20
3.17351e-20
3.17283e-20
3.17209e-20
3.1713e-20
3.17046e-20
3.16957e-20
3.16862e-20
3.16762e-20
3.16657e-20
3.16547e-20
3.16427e-20
3.16314e-20
8.2312e-20
8.23434e-20
8.23779e-20
8.24101e-20
8.24409e-20
8.24702e-20
8.2498e-20
8.25243e-20
8.25489e-20
8.2572e-20
8.25936e-20
8.26136e-20
8.26322e-20
8.26494e-20
8.26652e-20
8.26797e-20
8.26929e-20
8.27049e-20
8.27158e-20
8.27255e-20
8.27342e-20
8.27419e-20
8.27487e-20
8.27545e-20
8.27594e-20
8.27634e-20
8.27666e-20
8.2769e-20
8.27706e-20
8.27714e-20
8.27714e-20
8.27706e-20
8.2769e-20
8.27666e-20
8.27634e-20
8.27594e-20
8.27545e-20
8.27487e-20
8.27419e-20
8.27342e-20
8.27255e-20
8.27158e-20
8.27049e-20
8.26929e-20
8.26797e-20
8.26652e-20
8.26494e-20
8.26322e-20
8.26136e-20
8.25936e-20
8.2572e-20
8.25489e-20
8.25243e-20
8.2498e-20
8.24702e-20
8.24409e-20
8.24101e-20
8.23779e-20
8.23434e-20
8.2312e-20
2.19166e-19
2.19257e-19
2.19358e-19
2.19453e-19
2.19544e-19
2.19631e-19
2.19714e-19
2.19792e-19
2.19865e-19
2.19933e-19
2.19997e-19
2.20057e-19
2.20112e-19
2.20163e-19
2.20209e-19
2.20252e-19
2.20291e-19
2.20327e-19
2.20359e-19
2.20388e-19
2.20413e-19
2.20436e-19
2.20456e-19
2.20473e-19
2.20487e-19
2.20499e-19
2.20509e-19
2.20516e-19
2.2052e-19
2.20523e-19
2.20523e-19
2.2052e-19
2.20516e-19
2.20509e-19
2.20499e-19
2.20487e-19
2.20473e-19
2.20456e-19
2.20436e-19
2.20413e-19
2.20388e-19
2.20359e-19
2.20327e-19
2.20291e-19
2.20252e-19
2.20209e-19
2.20163e-19
2.20112e-19
2.20057e-19
2.19997e-19
2.19933e-19
2.19865e-19
2.19792e-19
2.19714e-19
2.19631e-19
2.19544e-19
2.19453e-19
2.19358e-19
2.19257e-19
2.19166e-19
5.97274e-19
5.97544e-19
5.97842e-19
5.98128e-19
5.98403e-19
5.98665e-19
5.98914e-19
5.99149e-19
5.9937e-19
5.99576e-19
5.99768e-19
5.99947e-19
6.00113e-19
6.00265e-19
6.00406e-19
6.00535e-19
6.00652e-19
6.00759e-19
6.00855e-19
6.00941e-19
6.01018e-19
6.01086e-19
6.01146e-19
6.01197e-19
6.0124e-19
6.01276e-19
6.01304e-19
6.01325e-19
6.01339e-19
6.01346e-19
6.01346e-19
6.01339e-19
6.01325e-19
6.01304e-19
6.01276e-19
6.0124e-19
6.01197e-19
6.01146e-19
6.01086e-19
6.01018e-19
6.00941e-19
6.00855e-19
6.00759e-19
6.00652e-19
6.00535e-19
6.00406e-19
6.00265e-19
6.00113e-19
5.99947e-19
5.99768e-19
5.99576e-19
5.9937e-19
5.99149e-19
5.98914e-19
5.98665e-19
5.98403e-19
5.98128e-19
5.97842e-19
5.97544e-19
5.97274e-19
1.66633e-18
1.66716e-18
1.66806e-18
1.66893e-18
1.66977e-18
1.67057e-18
1.67134e-18
1.67205e-18
1.67273e-18
1.67336e-18
1.67395e-18
1.6745e-18
1.675e-18
1.67547e-18
1.6759e-18
1.67629e-18
1.67665e-18
1.67698e-18
1.67727e-18
1.67754e-18
1.67777e-18
1.67798e-18
1.67816e-18
1.67832e-18
1.67845e-18
1.67856e-18
1.67864e-18
1.67871e-18
1.67875e-18
1.67877e-18
1.67877e-18
1.67875e-18
1.67871e-18
1.67864e-18
1.67856e-18
1.67845e-18
1.67832e-18
1.67816e-18
1.67798e-18
1.67777e-18
1.67754e-18
1.67727e-18
1.67698e-18
1.67665e-18
1.67629e-18
1.6759e-18
1.67547e-18
1.675e-18
1.6745e-18
1.67395e-18
1.67336e-18
1.67273e-18
1.67205e-18
1.67134e-18
1.67057e-18
1.66977e-18
1.66893e-18
1.66806e-18
1.66716e-18
1.66633e-18
4.76009e-18
4.76266e-18
4.76544e-18
4.76814e-18
4.77076e-18
4.77326e-18
4.77563e-18
4.77787e-18
4.77997e-18
4.78194e-18
4.78377e-18
4.78548e-18
4.78705e-18
4.78851e-18
4.78984e-18
4.79107e-18
4.79218e-18
4.7932e-18
4.79411e-18
4.79493e-18
4.79567e-18
4.79631e-18
4.79688e-18
4.79736e-18
4.79777e-18
4.79811e-18
4.79838e-18
4.79858e-18
4.79871e-18
4.79878e-18
4.79878e-18
4.79871e-18
4.79858e-18
4.79838e-18
4.79811e-18
4.79777e-18
4.79736e-18
4.79688e-18
4.79631e-18
4.79567e-18
4.79493e-18
4.79411e-18
4.7932e-18
4.79218e-18
4.79107e-18
4.78984e-18
4.78851e-18
4.78705e-18
4.78548e-18
4.78377e-18
4.78194e-18
4.77997e-18
4.77787e-18
4.77563e-18
4.77326e-18
4.77076e-18
4.76814e-18
4.76544e-18
4.76266e-18
4.76009e-18
1.39247e-17
1.39329e-17
1.39416e-17
1.39501e-17
1.39584e-17
1.39664e-17
1.39739e-17
1.3981e-17
1.39876e-17
1.39939e-17
1.39997e-17
1.40051e-17
1.40101e-17
1.40147e-17
1.4019e-17
1.40228e-17
1.40264e-17
1.40296e-17
1.40325e-17
1.40351e-17
1.40374e-17
1.40395e-17
1.40413e-17
1.40428e-17
1.40441e-17
1.40452e-17
1.4046e-17
1.40467e-17
1.40471e-17
1.40473e-17
1.40473e-17
1.40471e-17
1.40467e-17
1.4046e-17
1.40452e-17
1.40441e-17
1.40428e-17
1.40413e-17
1.40395e-17
1.40374e-17
1.40351e-17
1.40325e-17
1.40296e-17
1.40264e-17
1.40228e-17
1.4019e-17
1.40147e-17
1.40101e-17
1.40051e-17
1.39997e-17
1.39939e-17
1.39876e-17
1.3981e-17
1.39739e-17
1.39664e-17
1.39584e-17
1.39501e-17
1.39416e-17
1.39329e-17
1.39247e-17
4.17149e-17
4.17416e-17
4.17696e-17
4.17971e-17
4.18239e-17
4.18495e-17
4.18738e-17
4.18968e-17
4.19183e-17
4.19385e-17
4.19573e-17
4.19748e-17
4.19909e-17
4.20058e-17
4.20195e-17
4.20321e-17
4.20435e-17
4.20539e-17
4.20633e-17
4.20717e-17
4.20792e-17
4.20858e-17
4.20916e-17
4.20966e-17
4.21008e-17
4.21043e-17
4.2107e-17
4.21091e-17
4.21104e-17
4.21111e-17
4.21111e-17
4.21104e-17
4.21091e-17
4.2107e-17
4.21043e-17
4.21008e-17
4.20966e-17
4.20916e-17
4.20858e-17
4.20792e-17
4.20717e-17
4.20633e-17
4.20539e-17
4.20435e-17
4.20321e-17
4.20195e-17
4.20058e-17
4.19909e-17
4.19748e-17
4.19573e-17
4.19385e-17
4.19183e-17
4.18968e-17
4.18738e-17
4.18495e-17
4.18239e-17
4.17971e-17
4.17696e-17
4.17416e-17
4.17149e-17
1.27973e-16
1.28061e-16
1.28153e-16
1.28243e-16
1.28332e-16
1.28416e-16
1.28496e-16
1.28572e-16
1.28643e-16
1.28709e-16
1.28771e-16
1.28829e-16
1.28882e-16
1.28931e-16
1.28976e-16
1.29018e-16
1.29055e-16
1.2909e-16
1.29121e-16
1.29148e-16
1.29173e-16
1.29195e-16
1.29214e-16
1.2923e-16
1.29244e-16
1.29256e-16
1.29265e-16
1.29271e-16
1.29276e-16
1.29278e-16
1.29278e-16
1.29276e-16
1.29271e-16
1.29265e-16
1.29256e-16
1.29244e-16
1.2923e-16
1.29214e-16
1.29195e-16
1.29173e-16
1.29148e-16
1.29121e-16
1.2909e-16
1.29055e-16
1.29018e-16
1.28976e-16
1.28931e-16
1.28882e-16
1.28829e-16
1.28771e-16
1.28709e-16
1.28643e-16
1.28572e-16
1.28496e-16
1.28416e-16
1.28332e-16
1.28243e-16
1.28153e-16
1.28061e-16
1.27973e-16
4.01977e-16
4.02276e-16
4.02581e-16
4.02885e-16
4.0318e-16
4.03464e-16
4.03734e-16
4.03988e-16
4.04226e-16
4.0445e-16
4.04658e-16
4.04851e-16
4.0503e-16
4.05196e-16
4.05347e-16
4.05486e-16
4.05613e-16
4.05728e-16
4.05832e-16
4.05925e-16
4.06008e-16
4.06082e-16
4.06146e-16
4.06201e-16
4.06248e-16
4.06286e-16
4.06316e-16
4.06339e-16
4.06354e-16
4.06362e-16
4.06362e-16
4.06354e-16
4.06339e-16
4.06316e-16
4.06286e-16
4.06248e-16
4.06201e-16
4.06146e-16
4.06082e-16
4.06008e-16
4.05925e-16
4.05832e-16
4.05728e-16
4.05613e-16
4.05486e-16
4.05347e-16
4.05196e-16
4.0503e-16
4.04851e-16
4.04658e-16
4.0445e-16
4.04226e-16
4.03988e-16
4.03734e-16
4.03464e-16
4.0318e-16
4.02885e-16
4.02581e-16
4.02276e-16
4.01977e-16
1.29247e-15
1.2935e-15
1.29454e-15
1.29558e-15
1.29659e-15
1.29756e-15
1.29848e-15
1.29935e-15
1.30017e-15
1.30094e-15
1.30165e-15
1.30231e-15
1.30293e-15
1.30349e-15
1.30401e-15
1.30449e-15
1.30492e-15
1.30532e-15
1.30567e-15
1.30599e-15
1.30628e-15
1.30653e-15
1.30675e-15
1.30694e-15
1.3071e-15
1.30723e-15
1.30733e-15
1.30741e-15
1.30746e-15
1.30749e-15
1.30749e-15
1.30746e-15
1.30741e-15
1.30733e-15
1.30723e-15
1.3071e-15
1.30694e-15
1.30675e-15
1.30653e-15
1.30628e-15
1.30599e-15
1.30567e-15
1.30532e-15
1.30492e-15
1.30449e-15
1.30401e-15
1.30349e-15
1.30293e-15
1.30231e-15
1.30165e-15
1.30094e-15
1.30017e-15
1.29935e-15
1.29848e-15
1.29756e-15
1.29659e-15
1.29558e-15
1.29454e-15
1.2935e-15
1.29247e-15
4.25198e-15
4.25557e-15
4.25918e-15
4.2628e-15
4.26633e-15
4.26972e-15
4.27295e-15
4.27599e-15
4.27885e-15
4.28152e-15
4.28402e-15
4.28633e-15
4.28847e-15
4.29045e-15
4.29227e-15
4.29393e-15
4.29545e-15
4.29683e-15
4.29807e-15
4.29918e-15
4.30018e-15
4.30106e-15
4.30182e-15
4.30248e-15
4.30304e-15
4.3035e-15
4.30387e-15
4.30414e-15
4.30432e-15
4.30441e-15
4.30441e-15
4.30432e-15
4.30414e-15
4.30387e-15
4.3035e-15
4.30304e-15
4.30248e-15
4.30182e-15
4.30106e-15
4.30018e-15
4.29918e-15
4.29807e-15
4.29683e-15
4.29545e-15
4.29393e-15
4.29227e-15
4.29045e-15
4.28847e-15
4.28633e-15
4.28402e-15
4.28152e-15
4.27885e-15
4.27599e-15
4.27295e-15
4.26972e-15
4.26633e-15
4.2628e-15
4.25918e-15
4.25557e-15
4.25198e-15
1.43037e-14
1.43164e-14
1.43292e-14
1.43421e-14
1.43547e-14
1.43667e-14
1.43782e-14
1.4389e-14
1.43992e-14
1.44087e-14
1.44176e-14
1.44258e-14
1.44335e-14
1.44405e-14
1.4447e-14
1.44529e-14
1.44583e-14
1.44632e-14
1.44676e-14
1.44716e-14
1.44751e-14
1.44782e-14
1.4481e-14
1.44833e-14
1.44853e-14
1.44869e-14
1.44882e-14
1.44892e-14
1.44898e-14
1.44902e-14
1.44902e-14
1.44898e-14
1.44892e-14
1.44882e-14
1.44869e-14
1.44853e-14
1.44833e-14
1.4481e-14
1.44782e-14
1.44751e-14
1.44716e-14
1.44676e-14
1.44632e-14
1.44583e-14
1.44529e-14
1.4447e-14
1.44405e-14
1.44335e-14
1.44258e-14
1.44176e-14
1.44087e-14
1.43992e-14
1.4389e-14
1.43782e-14
1.43667e-14
1.43547e-14
1.43421e-14
1.43292e-14
1.43164e-14
1.43037e-14
4.91631e-14
4.92091e-14
4.92552e-14
4.93018e-14
4.93474e-14
4.93911e-14
4.94328e-14
4.9472e-14
4.95089e-14
4.95434e-14
4.95755e-14
4.96054e-14
4.9633e-14
4.96585e-14
4.9682e-14
4.97034e-14
4.9723e-14
4.97407e-14
4.97568e-14
4.97711e-14
4.9784e-14
4.97953e-14
4.98052e-14
4.98137e-14
4.98209e-14
4.98268e-14
4.98315e-14
4.9835e-14
4.98373e-14
4.98384e-14
4.98384e-14
4.98373e-14
4.9835e-14
4.98315e-14
4.98268e-14
4.98209e-14
4.98137e-14
4.98052e-14
4.97953e-14
4.9784e-14
4.97711e-14
4.97568e-14
4.97407e-14
4.9723e-14
4.97034e-14
4.9682e-14
4.96585e-14
4.9633e-14
4.96054e-14
4.95755e-14
4.95434e-14
4.95089e-14
4.9472e-14
4.94328e-14
4.93911e-14
4.93474e-14
4.93018e-14
4.92552e-14
4.92091e-14
4.91631e-14
1.72469e-13
1.72638e-13
1.72807e-13
1.72979e-13
1.73147e-13
1.73308e-13
1.73462e-13
1.73606e-13
1.73742e-13
1.7387e-13
1.73988e-13
1.74098e-13
1.742e-13
1.74294e-13
1.7438e-13
1.7446e-13
1.74532e-13
1.74597e-13
1.74656e-13
1.74709e-13
1.74756e-13
1.74798e-13
1.74834e-13
1.74866e-13
1.74892e-13
1.74914e-13
1.74931e-13
1.74944e-13
1.74953e-13
1.74957e-13
1.74957e-13
1.74953e-13
1.74944e-13
1.74931e-13
1.74914e-13
1.74892e-13
1.74866e-13
1.74834e-13
1.74798e-13
1.74756e-13
1.74709e-13
1.74656e-13
1.74597e-13
1.74532e-13
1.7446e-13
1.7438e-13
1.74294e-13
1.742e-13
1.74098e-13
1.73988e-13
1.7387e-13
1.73742e-13
1.73606e-13
1.73462e-13
1.73308e-13
1.73147e-13
1.72979e-13
1.72807e-13
1.72638e-13
1.72469e-13
6.16731e-13
6.17357e-13
6.17991e-13
6.18633e-13
6.19263e-13
6.19868e-13
6.20442e-13
6.20985e-13
6.21494e-13
6.21971e-13
6.22415e-13
6.22827e-13
6.23209e-13
6.2356e-13
6.23884e-13
6.2418e-13
6.2445e-13
6.24694e-13
6.24915e-13
6.25114e-13
6.2529e-13
6.25446e-13
6.25583e-13
6.257e-13
6.25799e-13
6.25881e-13
6.25945e-13
6.25993e-13
6.26025e-13
6.26041e-13
6.26041e-13
6.26025e-13
6.25993e-13
6.25945e-13
6.25881e-13
6.25799e-13
6.257e-13
6.25583e-13
6.25446e-13
6.2529e-13
6.25114e-13
6.24915e-13
6.24694e-13
6.2445e-13
6.2418e-13
6.23884e-13
6.2356e-13
6.23209e-13
6.22827e-13
6.22415e-13
6.21971e-13
6.21494e-13
6.20985e-13
6.20442e-13
6.19868e-13
6.19263e-13
6.18633e-13
6.17991e-13
6.17357e-13
6.16731e-13
2.24436e-12
2.24672e-12
2.24913e-12
2.25157e-12
2.25396e-12
2.25626e-12
2.25844e-12
2.2605e-12
2.26244e-12
2.26425e-12
2.26594e-12
2.2675e-12
2.26895e-12
2.27029e-12
2.27151e-12
2.27264e-12
2.27366e-12
2.27459e-12
2.27543e-12
2.27618e-12
2.27685e-12
2.27745e-12
2.27796e-12
2.27841e-12
2.27878e-12
2.27909e-12
2.27934e-12
2.27952e-12
2.27964e-12
2.2797e-12
2.2797e-12
2.27964e-12
2.27952e-12
2.27934e-12
2.27909e-12
2.27878e-12
2.27841e-12
2.27796e-12
2.27745e-12
2.27685e-12
2.27618e-12
2.27543e-12
2.27459e-12
2.27366e-12
2.27264e-12
2.27151e-12
2.27029e-12
2.26895e-12
2.2675e-12
2.26594e-12
2.26425e-12
2.26244e-12
2.2605e-12
2.25844e-12
2.25626e-12
2.25396e-12
2.25157e-12
2.24913e-12
2.24672e-12
2.24436e-12
8.29577e-12
8.30477e-12
8.31399e-12
8.32338e-12
8.33258e-12
8.34143e-12
8.34983e-12
8.35776e-12
8.3652e-12
8.37216e-12
8.37865e-12
8.38467e-12
8.39024e-12
8.39538e-12
8.4001e-12
8.40442e-12
8.40835e-12
8.41192e-12
8.41515e-12
8.41804e-12
8.42061e-12
8.42289e-12
8.42487e-12
8.42658e-12
8.42803e-12
8.42921e-12
8.43016e-12
8.43086e-12
8.43132e-12
8.43155e-12
8.43155e-12
8.43132e-12
8.43086e-12
8.43016e-12
8.42921e-12
8.42803e-12
8.42658e-12
8.42487e-12
8.42289e-12
8.42061e-12
8.41804e-12
8.41515e-12
8.41192e-12
8.40835e-12
8.40442e-12
8.4001e-12
8.39538e-12
8.39024e-12
8.38467e-12
8.37865e-12
8.37216e-12
8.3652e-12
8.35776e-12
8.34983e-12
8.34143e-12
8.33258e-12
8.32338e-12
8.31399e-12
8.30477e-12
8.29577e-12
3.10722e-11
3.11069e-11
3.11427e-11
3.11791e-11
3.12149e-11
3.12492e-11
3.12819e-11
3.13127e-11
3.13416e-11
3.13686e-11
3.13938e-11
3.14172e-11
3.14388e-11
3.14587e-11
3.1477e-11
3.14938e-11
3.15091e-11
3.15229e-11
3.15354e-11
3.15467e-11
3.15566e-11
3.15655e-11
3.15732e-11
3.15798e-11
3.15854e-11
3.159e-11
3.15937e-11
3.15964e-11
3.15982e-11
3.15991e-11
3.15991e-11
3.15982e-11
3.15964e-11
3.15937e-11
3.159e-11
3.15854e-11
3.15798e-11
3.15732e-11
3.15655e-11
3.15566e-11
3.15467e-11
3.15354e-11
3.15229e-11
3.15091e-11
3.14938e-11
3.1477e-11
3.14587e-11
3.14388e-11
3.14172e-11
3.13938e-11
3.13686e-11
3.13416e-11
3.13127e-11
3.12819e-11
3.12492e-11
3.12149e-11
3.11791e-11
3.11427e-11
3.11069e-11
3.10722e-11
1.17608e-10
1.17743e-10
1.17883e-10
1.18025e-10
1.18165e-10
1.183e-10
1.18427e-10
1.18548e-10
1.18661e-10
1.18766e-10
1.18865e-10
1.18956e-10
1.19041e-10
1.19119e-10
1.1919e-10
1.19256e-10
1.19315e-10
1.19369e-10
1.19418e-10
1.19462e-10
1.19501e-10
1.19536e-10
1.19566e-10
1.19591e-10
1.19613e-10
1.19631e-10
1.19646e-10
1.19656e-10
1.19663e-10
1.19667e-10
1.19667e-10
1.19663e-10
1.19656e-10
1.19646e-10
1.19631e-10
1.19613e-10
1.19591e-10
1.19566e-10
1.19536e-10
1.19501e-10
1.19462e-10
1.19418e-10
1.19369e-10
1.19315e-10
1.19256e-10
1.1919e-10
1.19119e-10
1.19041e-10
1.18956e-10
1.18865e-10
1.18766e-10
1.18661e-10
1.18548e-10
1.18427e-10
1.183e-10
1.18165e-10
1.18025e-10
1.17883e-10
1.17743e-10
1.17608e-10
4.48376e-10
4.48901e-10
4.4945e-10
4.50009e-10
4.50558e-10
4.51086e-10
4.51587e-10
4.52059e-10
4.52502e-10
4.52917e-10
4.53303e-10
4.53661e-10
4.53992e-10
4.54298e-10
4.54578e-10
4.54835e-10
4.55069e-10
4.55281e-10
4.55472e-10
4.55644e-10
4.55797e-10
4.55931e-10
4.56049e-10
4.56151e-10
4.56236e-10
4.56307e-10
4.56363e-10
4.56404e-10
4.56432e-10
4.56445e-10
4.56445e-10
4.56432e-10
4.56404e-10
4.56363e-10
4.56307e-10
4.56236e-10
4.56151e-10
4.56049e-10
4.55931e-10
4.55797e-10
4.55644e-10
4.55472e-10
4.55281e-10
4.55069e-10
4.54835e-10
4.54578e-10
4.54298e-10
4.53992e-10
4.53661e-10
4.53303e-10
4.52917e-10
4.52502e-10
4.52059e-10
4.51587e-10
4.51086e-10
4.50558e-10
4.50009e-10
4.4945e-10
4.48901e-10
4.48376e-10
1.7153e-09
1.71734e-09
1.71949e-09
1.72169e-09
1.72384e-09
1.72591e-09
1.72787e-09
1.72973e-09
1.73146e-09
1.73309e-09
1.7346e-09
1.736e-09
1.7373e-09
1.7385e-09
1.7396e-09
1.7406e-09
1.74152e-09
1.74235e-09
1.7431e-09
1.74377e-09
1.74437e-09
1.74489e-09
1.74535e-09
1.74575e-09
1.74609e-09
1.74636e-09
1.74658e-09
1.74674e-09
1.74685e-09
1.7469e-09
1.7469e-09
1.74685e-09
1.74674e-09
1.74658e-09
1.74636e-09
1.74609e-09
1.74575e-09
1.74535e-09
1.74489e-09
1.74437e-09
1.74377e-09
1.7431e-09
1.74235e-09
1.74152e-09
1.7406e-09
1.7396e-09
1.7385e-09
1.7373e-09
1.736e-09
1.7346e-09
1.73309e-09
1.73146e-09
1.72973e-09
1.72787e-09
1.72591e-09
1.72384e-09
1.72169e-09
1.71949e-09
1.71734e-09
1.7153e-09
6.55571e-09
6.56366e-09
6.57205e-09
6.58061e-09
6.589e-09
6.59707e-09
6.60472e-09
6.61194e-09
6.61872e-09
6.62505e-09
6.63094e-09
6.63641e-09
6.64146e-09
6.64612e-09
6.6504e-09
6.65432e-09
6.65788e-09
6.66112e-09
6.66403e-09
6.66665e-09
6.66898e-09
6.67103e-09
6.67283e-09
6.67437e-09
6.67567e-09
6.67675e-09
6.6776e-09
6.67823e-09
6.67865e-09
6.67886e-09
6.67886e-09
6.67865e-09
6.67823e-09
6.6776e-09
6.67675e-09
6.67567e-09
6.67437e-09
6.67283e-09
6.67103e-09
6.66898e-09
6.66665e-09
6.66403e-09
6.66112e-09
6.65788e-09
6.65432e-09
6.6504e-09
6.64612e-09
6.64146e-09
6.63641e-09
6.63094e-09
6.62505e-09
6.61872e-09
6.61194e-09
6.60472e-09
6.59707e-09
6.589e-09
6.58061e-09
6.57205e-09
6.56366e-09
6.55571e-09
2.49051e-08
2.49357e-08
2.49681e-08
2.50011e-08
2.50335e-08
2.50646e-08
2.50941e-08
2.51219e-08
2.5148e-08
2.51724e-08
2.51951e-08
2.52162e-08
2.52357e-08
2.52536e-08
2.52701e-08
2.52852e-08
2.52989e-08
2.53114e-08
2.53226e-08
2.53327e-08
2.53417e-08
2.53496e-08
2.53565e-08
2.53624e-08
2.53674e-08
2.53716e-08
2.53748e-08
2.53773e-08
2.53789e-08
2.53797e-08
2.53797e-08
2.53789e-08
2.53773e-08
2.53748e-08
2.53716e-08
2.53674e-08
2.53624e-08
2.53565e-08
2.53496e-08
2.53417e-08
2.53327e-08
2.53226e-08
2.53114e-08
2.52989e-08
2.52852e-08
2.52701e-08
2.52536e-08
2.52357e-08
2.52162e-08
2.51951e-08
2.51724e-08
2.5148e-08
2.51219e-08
2.50941e-08
2.50646e-08
2.50335e-08
2.50011e-08
2.49681e-08
2.49357e-08
2.49051e-08
9.35049e-08
9.36206e-08
9.37435e-08
9.38688e-08
9.39915e-08
9.41094e-08
9.42212e-08
9.43266e-08
9.44255e-08
9.45179e-08
9.46039e-08
9.46837e-08
9.47574e-08
9.48253e-08
9.48877e-08
9.49448e-08
9.49967e-08
9.50439e-08
9.50864e-08
9.51244e-08
9.51584e-08
9.51883e-08
9.52144e-08
9.52369e-08
9.52559e-08
9.52715e-08
9.52839e-08
9.52931e-08
9.52992e-08
9.53022e-08
9.53022e-08
9.52992e-08
9.52931e-08
9.52839e-08
9.52715e-08
9.52559e-08
9.52369e-08
9.52144e-08
9.51883e-08
9.51584e-08
9.51244e-08
9.50864e-08
9.50439e-08
9.49967e-08
9.49448e-08
9.48877e-08
9.48253e-08
9.47574e-08
9.46837e-08
9.46039e-08
9.45179e-08
9.44255e-08
9.43266e-08
9.42212e-08
9.41094e-08
9.39915e-08
9.38688e-08
9.37435e-08
9.36206e-08
9.35049e-08
3.44665e-07
3.45093e-07
3.45548e-07
3.46012e-07
3.46466e-07
3.46902e-07
3.47315e-07
3.47705e-07
3.4807e-07
3.48411e-07
3.48729e-07
3.49024e-07
3.49296e-07
3.49547e-07
3.49777e-07
3.49988e-07
3.5018e-07
3.50353e-07
3.5051e-07
3.50651e-07
3.50776e-07
3.50886e-07
3.50983e-07
3.51066e-07
3.51136e-07
3.51194e-07
3.51239e-07
3.51273e-07
3.51296e-07
3.51307e-07
3.51307e-07
3.51296e-07
3.51273e-07
3.51239e-07
3.51194e-07
3.51136e-07
3.51066e-07
3.50983e-07
3.50886e-07
3.50776e-07
3.50651e-07
3.5051e-07
3.50353e-07
3.5018e-07
3.49988e-07
3.49777e-07
3.49547e-07
3.49296e-07
3.49024e-07
3.48729e-07
3.48411e-07
3.4807e-07
3.47705e-07
3.47315e-07
3.46902e-07
3.46466e-07
3.46012e-07
3.45548e-07
3.45093e-07
3.44665e-07
1.23805e-06
1.23959e-06
1.24122e-06
1.24288e-06
1.2445e-06
1.24606e-06
1.24754e-06
1.24893e-06
1.25024e-06
1.25146e-06
1.25259e-06
1.25365e-06
1.25462e-06
1.25551e-06
1.25634e-06
1.25709e-06
1.25777e-06
1.2584e-06
1.25896e-06
1.25946e-06
1.2599e-06
1.2603e-06
1.26064e-06
1.26094e-06
1.26119e-06
1.26139e-06
1.26156e-06
1.26168e-06
1.26176e-06
1.2618e-06
1.2618e-06
1.26176e-06
1.26168e-06
1.26156e-06
1.26139e-06
1.26119e-06
1.26094e-06
1.26064e-06
1.2603e-06
1.2599e-06
1.25946e-06
1.25896e-06
1.2584e-06
1.25777e-06
1.25709e-06
1.25634e-06
1.25551e-06
1.25462e-06
1.25365e-06
1.25259e-06
1.25146e-06
1.25024e-06
1.24893e-06
1.24754e-06
1.24606e-06
1.2445e-06
1.24288e-06
1.24122e-06
1.23959e-06
1.23805e-06
4.29738e-06
4.30265e-06
4.30826e-06
4.31396e-06
4.31953e-06
4.32487e-06
4.32993e-06
4.3347e-06
4.33917e-06
4.34335e-06
4.34723e-06
4.35084e-06
4.35417e-06
4.35723e-06
4.36005e-06
4.36262e-06
4.36497e-06
4.36709e-06
4.36901e-06
4.37072e-06
4.37225e-06
4.3736e-06
4.37478e-06
4.37579e-06
4.37664e-06
4.37735e-06
4.37791e-06
4.37832e-06
4.37859e-06
4.37873e-06
4.37873e-06
4.37859e-06
4.37832e-06
4.37791e-06
4.37735e-06
4.37664e-06
4.37579e-06
4.37478e-06
4.3736e-06
4.37225e-06
4.37072e-06
4.36901e-06
4.36709e-06
4.36497e-06
4.36262e-06
4.36005e-06
4.35723e-06
4.35417e-06
4.35084e-06
4.34723e-06
4.34335e-06
4.33917e-06
4.3347e-06
4.32993e-06
4.32487e-06
4.31953e-06
4.31396e-06
4.30826e-06
4.30265e-06
4.29738e-06
1.42782e-05
1.42954e-05
1.43137e-05
1.43322e-05
1.43503e-05
1.43676e-05
1.43841e-05
1.43996e-05
1.44141e-05
1.44276e-05
1.44402e-05
1.44519e-05
1.44627e-05
1.44727e-05
1.44818e-05
1.44901e-05
1.44977e-05
1.45046e-05
1.45108e-05
1.45164e-05
1.45214e-05
1.45257e-05
1.45295e-05
1.45328e-05
1.45356e-05
1.45379e-05
1.45397e-05
1.4541e-05
1.45419e-05
1.45424e-05
1.45424e-05
1.45419e-05
1.4541e-05
1.45397e-05
1.45379e-05
1.45356e-05
1.45328e-05
1.45295e-05
1.45257e-05
1.45214e-05
1.45164e-05
1.45108e-05
1.45046e-05
1.44977e-05
1.44901e-05
1.44818e-05
1.44727e-05
1.44627e-05
1.44519e-05
1.44402e-05
1.44276e-05
1.44141e-05
1.43996e-05
1.43841e-05
1.43676e-05
1.43503e-05
1.43322e-05
1.43137e-05
1.42954e-05
1.42782e-05
4.4929e-05
4.49818e-05
4.50376e-05
4.50939e-05
4.51489e-05
4.52016e-05
4.52516e-05
4.52986e-05
4.53427e-05
4.53838e-05
4.54221e-05
4.54576e-05
4.54903e-05
4.55205e-05
4.55482e-05
4.55736e-05
4.55966e-05
4.56175e-05
4.56363e-05
4.56532e-05
4.56682e-05
4.56815e-05
4.56931e-05
4.5703e-05
4.57114e-05
4.57183e-05
4.57238e-05
4.57279e-05
4.57306e-05
4.57319e-05
4.57319e-05
4.57306e-05
4.57279e-05
4.57238e-05
4.57183e-05
4.57114e-05
4.5703e-05
4.56931e-05
4.56815e-05
4.56682e-05
4.56532e-05
4.56363e-05
4.56175e-05
4.55966e-05
4.55736e-05
4.55482e-05
4.55205e-05
4.54903e-05
4.54576e-05
4.54221e-05
4.53838e-05
4.53427e-05
4.52986e-05
4.52516e-05
4.52016e-05
4.51489e-05
4.50939e-05
4.50376e-05
4.49818e-05
4.4929e-05
0.000132319
0.000132468
0.000132625
0.000132784
0.000132938
0.000133085
0.000133225
0.000133357
0.000133481
0.000133596
0.000133703
0.000133802
0.000133894
0.000133978
0.000134056
0.000134127
0.000134191
0.00013425
0.000134302
0.00013435
0.000134392
0.000134429
0.000134461
0.000134489
0.000134512
0.000134532
0.000134547
0.000134558
0.000134566
0.00013457
0.00013457
0.000134566
0.000134558
0.000134547
0.000134532
0.000134512
0.000134489
0.000134461
0.000134429
0.000134392
0.00013435
0.000134302
0.00013425
0.000134191
0.000134127
0.000134056
0.000133978
0.000133894
0.000133802
0.000133703
0.000133596
0.000133481
0.000133357
0.000133225
0.000133085
0.000132938
0.000132784
0.000132625
0.000132468
0.000132319
0.000360038
0.000360422
0.000360823
0.000361227
0.000361619
0.000361994
0.00036235
0.000362685
0.000362998
0.000363291
0.000363563
0.000363815
0.000364048
0.000364263
0.00036446
0.00036464
0.000364803
0.000364952
0.000365085
0.000365205
0.000365312
0.000365406
0.000365488
0.000365559
0.000365618
0.000365667
0.000365706
0.000365735
0.000365754
0.000365763
0.000365763
0.000365754
0.000365735
0.000365706
0.000365667
0.000365618
0.000365559
0.000365488
0.000365406
0.000365312
0.000365205
0.000365085
0.000364952
0.000364803
0.00036464
0.00036446
0.000364263
0.000364048