/*--------------------------------*- C++ -*----------------------------------*\
| =========                 |                                                 |
| \\      /  F ield         | foam-extend: Open Source CFD                    |
|  \\    /   O peration     | Version:     4.0                                |
|   \\  /    A nd           | Web:         http://www.foam-extend.org         |
|    \\/     M anipulation  |                                                 |
\*---------------------------------------------------------------------------*/
FoamFile
{
    version     2.0;
    format      ascii;
    class       volScalarField;
    location    "1420";
    object      cPlus;
}
// * * * * * * * * * * * * * * * * * * * * * * * * * * * * * * * * * * * * * //

dimensions      [0 0 0 0 0 0 0];

internalField   nonuniform List<scalar> 
6960
(
0.345702
0.345698
0.345693
0.345688
0.345683
0.345678
0.345673
0.345668
0.345664
0.34566
0.345657
0.345653
0.34565
0.345648
0.345645
0.345643
0.345641
0.345639
0.345637
0.345635
0.345634
0.345633
0.345632
0.345631
0.34563
0.345629
0.345629
0.345628
0.345628
0.345628
0.345628
0.345628
0.345628
0.345629
0.345629
0.34563
0.345631
0.345632
0.345633
0.345634
0.345635
0.345637
0.345639
0.345641
0.345643
0.345645
0.345648
0.34565
0.345653
0.345657
0.34566
0.345664
0.345668
0.345673
0.345678
0.345683
0.345688
0.345693
0.345698
0.345702
0.122581
0.122578
0.122574
0.12257
0.122566
0.122562
0.122558
0.122554
0.122551
0.122548
0.122545
0.122542
0.122539
0.122537
0.122535
0.122533
0.122531
0.12253
0.122528
0.122527
0.122526
0.122525
0.122524
0.122523
0.122523
0.122522
0.122522
0.122522
0.122521
0.122521
0.122521
0.122521
0.122522
0.122522
0.122522
0.122523
0.122523
0.122524
0.122525
0.122526
0.122527
0.122528
0.12253
0.122531
0.122533
0.122535
0.122537
0.122539
0.122542
0.122545
0.122548
0.122551
0.122554
0.122558
0.122562
0.122566
0.12257
0.122574
0.122578
0.122581
0.0514093
0.0514073
0.0514047
0.0514019
0.0513991
0.0513965
0.0513939
0.0513916
0.0513893
0.0513873
0.0513853
0.0513836
0.0513819
0.0513804
0.051379
0.0513778
0.0513766
0.0513756
0.0513747
0.0513739
0.0513731
0.0513725
0.0513719
0.0513714
0.051371
0.0513707
0.0513704
0.0513702
0.0513701
0.05137
0.05137
0.0513701
0.0513702
0.0513704
0.0513707
0.051371
0.0513714
0.0513719
0.0513725
0.0513731
0.0513739
0.0513747
0.0513756
0.0513766
0.0513778
0.051379
0.0513804
0.0513819
0.0513836
0.0513853
0.0513873
0.0513893
0.0513916
0.0513939
0.0513965
0.0513991
0.0514019
0.0514047
0.0514073
0.0514093
0.0238245
0.0238235
0.023822
0.0238204
0.0238188
0.0238173
0.0238159
0.0238145
0.0238132
0.023812
0.0238109
0.0238099
0.023809
0.0238081
0.0238073
0.0238066
0.023806
0.0238054
0.0238049
0.0238044
0.023804
0.0238036
0.0238033
0.023803
0.0238028
0.0238026
0.0238024
0.0238023
0.0238022
0.0238022
0.0238022
0.0238022
0.0238023
0.0238024
0.0238026
0.0238028
0.023803
0.0238033
0.0238036
0.023804
0.0238044
0.0238049
0.0238054
0.023806
0.0238066
0.0238073
0.0238081
0.023809
0.0238099
0.0238109
0.023812
0.0238132
0.0238145
0.0238159
0.0238173
0.0238188
0.0238204
0.023822
0.0238235
0.0238245
0.012361
0.0123606
0.01236
0.0123592
0.0123585
0.0123577
0.012357
0.0123564
0.0123558
0.0123552
0.0123547
0.0123542
0.0123538
0.0123534
0.012353
0.0123526
0.0123523
0.0123521
0.0123518
0.0123516
0.0123514
0.0123512
0.012351
0.0123509
0.0123508
0.0123507
0.0123506
0.0123506
0.0123505
0.0123505
0.0123505
0.0123505
0.0123506
0.0123506
0.0123507
0.0123508
0.0123509
0.012351
0.0123512
0.0123514
0.0123516
0.0123518
0.0123521
0.0123523
0.0123526
0.012353
0.0123534
0.0123538
0.0123542
0.0123547
0.0123552
0.0123558
0.0123564
0.012357
0.0123577
0.0123585
0.0123592
0.01236
0.0123606
0.012361
0.00751405
0.00751403
0.00751385
0.00751363
0.0075134
0.00751318
0.00751296
0.00751276
0.00751257
0.00751239
0.00751223
0.00751208
0.00751194
0.00751181
0.00751169
0.00751158
0.00751148
0.0075114
0.00751132
0.00751125
0.00751118
0.00751113
0.00751108
0.00751104
0.007511
0.00751097
0.00751095
0.00751093
0.00751092
0.00751092
0.00751092
0.00751092
0.00751093
0.00751095
0.00751097
0.007511
0.00751104
0.00751108
0.00751113
0.00751118
0.00751125
0.00751132
0.0075114
0.00751148
0.00751158
0.00751169
0.00751181
0.00751194
0.00751208
0.00751223
0.00751239
0.00751257
0.00751276
0.00751296
0.00751318
0.0075134
0.00751363
0.00751385
0.00751403
0.00751405
0.00548244
0.00548264
0.00548275
0.00548283
0.0054829
0.00548296
0.00548302
0.00548307
0.00548312
0.00548316
0.0054832
0.00548324
0.00548328
0.00548331
0.00548334
0.00548337
0.00548339
0.00548341
0.00548343
0.00548345
0.00548347
0.00548348
0.00548349
0.0054835
0.00548351
0.00548352
0.00548353
0.00548353
0.00548353
0.00548353
0.00548353
0.00548353
0.00548353
0.00548353
0.00548352
0.00548351
0.0054835
0.00548349
0.00548348
0.00548347
0.00548345
0.00548343
0.00548341
0.00548339
0.00548337
0.00548334
0.00548331
0.00548328
0.00548324
0.0054832
0.00548316
0.00548312
0.00548307
0.00548302
0.00548296
0.0054829
0.00548283
0.00548275
0.00548264
0.00548244
0.00465386
0.00465418
0.00465445
0.00465469
0.00465492
0.00465513
0.00465533
0.00465552
0.0046557
0.00465586
0.00465601
0.00465616
0.00465628
0.0046564
0.00465651
0.00465661
0.0046567
0.00465678
0.00465686
0.00465692
0.00465698
0.00465703
0.00465708
0.00465712
0.00465715
0.00465718
0.0046572
0.00465721
0.00465722
0.00465723
0.00465723
0.00465722
0.00465721
0.0046572
0.00465718
0.00465715
0.00465712
0.00465708
0.00465703
0.00465698
0.00465692
0.00465686
0.00465678
0.0046567
0.00465661
0.00465651
0.0046564
0.00465628
0.00465616
0.00465601
0.00465586
0.0046557
0.00465552
0.00465533
0.00465513
0.00465492
0.00465469
0.00465445
0.00465418
0.00465386
0.00433413
0.00433451
0.00433486
0.00433518
0.00433549
0.00433579
0.00433606
0.00433632
0.00433656
0.00433679
0.004337
0.00433719
0.00433737
0.00433753
0.00433768
0.00433782
0.00433794
0.00433805
0.00433815
0.00433824
0.00433832
0.0043384
0.00433846
0.00433851
0.00433855
0.00433859
0.00433862
0.00433864
0.00433866
0.00433866
0.00433866
0.00433866
0.00433864
0.00433862
0.00433859
0.00433855
0.00433851
0.00433846
0.0043384
0.00433832
0.00433824
0.00433815
0.00433805
0.00433794
0.00433782
0.00433768
0.00433753
0.00433737
0.00433719
0.004337
0.00433679
0.00433656
0.00433632
0.00433606
0.00433579
0.00433549
0.00433518
0.00433486
0.00433451
0.00433413
0.00422633
0.00422675
0.00422713
0.0042275
0.00422785
0.00422819
0.0042285
0.00422879
0.00422907
0.00422933
0.00422956
0.00422978
0.00422998
0.00423017
0.00423034
0.00423049
0.00423064
0.00423076
0.00423088
0.00423098
0.00423107
0.00423115
0.00423122
0.00423128
0.00423133
0.00423137
0.00423141
0.00423143
0.00423145
0.00423146
0.00423146
0.00423145
0.00423143
0.00423141
0.00423137
0.00423133
0.00423128
0.00423122
0.00423115
0.00423107
0.00423098
0.00423088
0.00423076
0.00423064
0.00423049
0.00423034
0.00423017
0.00422998
0.00422978
0.00422956
0.00422933
0.00422907
0.00422879
0.0042285
0.00422819
0.00422785
0.0042275
0.00422713
0.00422675
0.00422633
0.00420562
0.00420605
0.00420646
0.00420685
0.00420722
0.00420758
0.00420791
0.00420822
0.00420851
0.00420879
0.00420904
0.00420927
0.00420949
0.00420968
0.00420986
0.00421003
0.00421018
0.00421031
0.00421043
0.00421054
0.00421064
0.00421073
0.0042108
0.00421086
0.00421092
0.00421096
0.004211
0.00421102
0.00421104
0.00421105
0.00421105
0.00421104
0.00421102
0.004211
0.00421096
0.00421092
0.00421086
0.0042108
0.00421073
0.00421064
0.00421054
0.00421043
0.00421031
0.00421018
0.00421003
0.00420986
0.00420968
0.00420949
0.00420927
0.00420904
0.00420879
0.00420851
0.00420822
0.00420791
0.00420758
0.00420722
0.00420685
0.00420646
0.00420605
0.00420562
0.00422064
0.00422109
0.00422151
0.00422191
0.0042223
0.00422266
0.00422301
0.00422333
0.00422363
0.00422391
0.00422417
0.00422441
0.00422463
0.00422484
0.00422502
0.00422519
0.00422535
0.00422549
0.00422561
0.00422573
0.00422583
0.00422592
0.00422599
0.00422606
0.00422611
0.00422616
0.0042262
0.00422622
0.00422624
0.00422625
0.00422625
0.00422624
0.00422622
0.0042262
0.00422616
0.00422611
0.00422606
0.00422599
0.00422592
0.00422583
0.00422573
0.00422561
0.00422549
0.00422535
0.00422519
0.00422502
0.00422484
0.00422463
0.00422441
0.00422417
0.00422391
0.00422363
0.00422333
0.00422301
0.00422266
0.0042223
0.00422191
0.00422151
0.00422109
0.00422064
0.00425084
0.0042513
0.00425173
0.00425214
0.00425253
0.00425291
0.00425326
0.00425359
0.0042539
0.00425418
0.00425445
0.00425469
0.00425492
0.00425513
0.00425532
0.00425549
0.00425565
0.0042558
0.00425592
0.00425604
0.00425614
0.00425623
0.00425631
0.00425638
0.00425644
0.00425648
0.00425652
0.00425655
0.00425656
0.00425657
0.00425657
0.00425656
0.00425655
0.00425652
0.00425648
0.00425644
0.00425638
0.00425631
0.00425623
0.00425614
0.00425604
0.00425592
0.0042558
0.00425565
0.00425549
0.00425532
0.00425513
0.00425492
0.00425469
0.00425445
0.00425418
0.0042539
0.00425359
0.00425326
0.00425291
0.00425253
0.00425214
0.00425173
0.0042513
0.00425084
0.00428826
0.00428873
0.00428916
0.00428958
0.00428998
0.00429036
0.00429072
0.00429106
0.00429137
0.00429166
0.00429193
0.00429218
0.00429241
0.00429263
0.00429282
0.004293
0.00429316
0.0042933
0.00429343
0.00429355
0.00429366
0.00429375
0.00429383
0.0042939
0.00429395
0.004294
0.00429404
0.00429407
0.00429409
0.0042941
0.0042941
0.00429409
0.00429407
0.00429404
0.004294
0.00429395
0.0042939
0.00429383
0.00429375
0.00429366
0.00429355
0.00429343
0.0042933
0.00429316
0.004293
0.00429282
0.00429263
0.00429241
0.00429218
0.00429193
0.00429166
0.00429137
0.00429106
0.00429072
0.00429036
0.00428998
0.00428958
0.00428916
0.00428873
0.00428826
0.00432998
0.00433045
0.0043309
0.00433132
0.00433173
0.00433212
0.00433248
0.00433282
0.00433314
0.00433344
0.00433371
0.00433397
0.0043342
0.00433442
0.00433461
0.00433479
0.00433496
0.00433511
0.00433524
0.00433536
0.00433546
0.00433556
0.00433564
0.00433571
0.00433577
0.00433582
0.00433585
0.00433588
0.0043359
0.00433591
0.00433591
0.0043359
0.00433588
0.00433585
0.00433582
0.00433577
0.00433571
0.00433564
0.00433556
0.00433546
0.00433536
0.00433524
0.00433511
0.00433496
0.00433479
0.00433461
0.00433442
0.0043342
0.00433397
0.00433371
0.00433344
0.00433314
0.00433282
0.00433248
0.00433212
0.00433173
0.00433132
0.0043309
0.00433045
0.00432998
0.00437505
0.00437553
0.00437598
0.00437642
0.00437683
0.00437722
0.00437759
0.00437794
0.00437826
0.00437857
0.00437885
0.0043791
0.00437934
0.00437956
0.00437976
0.00437995
0.00438011
0.00438026
0.0043804
0.00438052
0.00438063
0.00438072
0.0043808
0.00438088
0.00438094
0.00438098
0.00438102
0.00438105
0.00438107
0.00438108
0.00438108
0.00438107
0.00438105
0.00438102
0.00438098
0.00438094
0.00438088
0.0043808
0.00438072
0.00438063
0.00438052
0.0043804
0.00438026
0.00438011
0.00437995
0.00437976
0.00437956
0.00437934
0.0043791
0.00437885
0.00437857
0.00437826
0.00437794
0.00437759
0.00437722
0.00437683
0.00437642
0.00437598
0.00437553
0.00437505
0.0044233
0.00442379
0.00442424
0.00442468
0.00442511
0.0044255
0.00442588
0.00442623
0.00442656
0.00442687
0.00442715
0.00442742
0.00442766
0.00442788
0.00442809
0.00442827
0.00442844
0.0044286
0.00442873
0.00442886
0.00442897
0.00442906
0.00442915
0.00442922
0.00442928
0.00442933
0.00442937
0.0044294
0.00442942
0.00442943
0.00442943
0.00442942
0.0044294
0.00442937
0.00442933
0.00442928
0.00442922
0.00442915
0.00442906
0.00442897
0.00442886
0.00442873
0.0044286
0.00442844
0.00442827
0.00442809
0.00442788
0.00442766
0.00442742
0.00442715
0.00442687
0.00442656
0.00442623
0.00442588
0.0044255
0.00442511
0.00442468
0.00442424
0.00442379
0.0044233
0.00447484
0.00447533
0.0044758
0.00447625
0.00447668
0.00447708
0.00447747
0.00447783
0.00447816
0.00447847
0.00447876
0.00447903
0.00447928
0.00447951
0.00447971
0.0044799
0.00448008
0.00448023
0.00448037
0.0044805
0.00448061
0.00448071
0.00448079
0.00448087
0.00448093
0.00448098
0.00448102
0.00448105
0.00448107
0.00448108
0.00448108
0.00448107
0.00448105
0.00448102
0.00448098
0.00448093
0.00448087
0.00448079
0.00448071
0.00448061
0.0044805
0.00448037
0.00448023
0.00448008
0.0044799
0.00447971
0.00447951
0.00447928
0.00447903
0.00447876
0.00447847
0.00447816
0.00447783
0.00447747
0.00447708
0.00447668
0.00447625
0.0044758
0.00447533
0.00447484
0.00452992
0.00453043
0.00453091
0.00453137
0.0045318
0.00453222
0.00453261
0.00453297
0.00453332
0.00453363
0.00453393
0.0045342
0.00453446
0.00453469
0.0045349
0.00453509
0.00453527
0.00453543
0.00453557
0.0045357
0.00453581
0.00453591
0.004536
0.00453608
0.00453614
0.00453619
0.00453623
0.00453626
0.00453628
0.00453629
0.00453629
0.00453628
0.00453626
0.00453623
0.00453619
0.00453614
0.00453608
0.004536
0.00453591
0.00453581
0.0045357
0.00453557
0.00453543
0.00453527
0.00453509
0.0045349
0.00453469
0.00453446
0.0045342
0.00453393
0.00453363
0.00453332
0.00453297
0.00453261
0.00453222
0.0045318
0.00453137
0.00453091
0.00453043
0.00452992
0.0045889
0.00458942
0.0045899
0.00459037
0.00459082
0.00459124
0.00459164
0.00459201
0.00459236
0.00459269
0.00459299
0.00459327
0.00459352
0.00459376
0.00459398
0.00459418
0.00459436
0.00459452
0.00459466
0.00459479
0.00459491
0.00459501
0.0045951
0.00459518
0.00459524
0.0045953
0.00459534
0.00459537
0.00459539
0.0045954
0.0045954
0.00459539
0.00459537
0.00459534
0.0045953
0.00459524
0.00459518
0.0045951
0.00459501
0.00459491
0.00459479
0.00459466
0.00459452
0.00459436
0.00459418
0.00459398
0.00459376
0.00459352
0.00459327
0.00459299
0.00459269
0.00459236
0.00459201
0.00459164
0.00459124
0.00459082
0.00459037
0.0045899
0.00458942
0.0045889
0.00465215
0.00465268
0.00465318
0.00465366
0.00465411
0.00465455
0.00465495
0.00465534
0.00465569
0.00465603
0.00465633
0.00465662
0.00465688
0.00465712
0.00465734
0.00465755
0.00465773
0.0046579
0.00465805
0.00465818
0.0046583
0.0046584
0.0046585
0.00465857
0.00465864
0.00465869
0.00465874
0.00465877
0.00465879
0.0046588
0.0046588
0.00465879
0.00465877
0.00465874
0.00465869
0.00465864
0.00465857
0.0046585
0.0046584
0.0046583
0.00465818
0.00465805
0.0046579
0.00465773
0.00465755
0.00465734
0.00465712
0.00465688
0.00465662
0.00465633
0.00465603
0.00465569
0.00465534
0.00465495
0.00465455
0.00465411
0.00465366
0.00465318
0.00465268
0.00465215
0.00472014
0.00472069
0.0047212
0.00472168
0.00472215
0.00472259
0.00472301
0.0047234
0.00472377
0.00472411
0.00472442
0.00472471
0.00472498
0.00472523
0.00472546
0.00472567
0.00472585
0.00472602
0.00472618
0.00472631
0.00472644
0.00472654
0.00472664
0.00472672
0.00472678
0.00472684
0.00472688
0.00472692
0.00472694
0.00472695
0.00472695
0.00472694
0.00472692
0.00472688
0.00472684
0.00472678
0.00472672
0.00472664
0.00472654
0.00472644
0.00472631
0.00472618
0.00472602
0.00472585
0.00472567
0.00472546
0.00472523
0.00472498
0.00472471
0.00472442
0.00472411
0.00472377
0.0047234
0.00472301
0.00472259
0.00472215
0.00472168
0.0047212
0.00472069
0.00472014
0.00479339
0.00479395
0.00479448
0.00479498
0.00479546
0.00479591
0.00479634
0.00479674
0.00479711
0.00479746
0.00479779
0.00479809
0.00479836
0.00479862
0.00479885
0.00479906
0.00479925
0.00479943
0.00479958
0.00479973
0.00479985
0.00479996
0.00480006
0.00480014
0.00480021
0.00480027
0.00480031
0.00480034
0.00480037
0.00480038
0.00480038
0.00480037
0.00480034
0.00480031
0.00480027
0.00480021
0.00480014
0.00480006
0.00479996
0.00479985
0.00479973
0.00479958
0.00479943
0.00479925
0.00479906
0.00479885
0.00479862
0.00479836
0.00479809
0.00479779
0.00479746
0.00479711
0.00479674
0.00479634
0.00479591
0.00479546
0.00479498
0.00479448
0.00479395
0.00479339
0.00487252
0.0048731
0.00487364
0.00487415
0.00487464
0.00487511
0.00487555
0.00487596
0.00487635
0.00487671
0.00487704
0.00487735
0.00487763
0.00487789
0.00487813
0.00487835
0.00487855
0.00487873
0.00487889
0.00487903
0.00487916
0.00487927
0.00487937
0.00487946
0.00487953
0.00487959
0.00487963
0.00487967
0.00487969
0.0048797
0.0048797
0.00487969
0.00487967
0.00487963
0.00487959
0.00487953
0.00487946
0.00487937
0.00487927
0.00487916
0.00487903
0.00487889
0.00487873
0.00487855
0.00487835
0.00487813
0.00487789
0.00487763
0.00487735
0.00487704
0.00487671
0.00487635
0.00487596
0.00487555
0.00487511
0.00487464
0.00487415
0.00487364
0.0048731
0.00487252
0.00495825
0.00495884
0.0049594
0.00495993
0.00496043
0.00496091
0.00496137
0.00496179
0.00496219
0.00496256
0.0049629
0.00496322
0.00496351
0.00496378
0.00496402
0.00496425
0.00496445
0.00496464
0.0049648
0.00496495
0.00496508
0.0049652
0.0049653
0.00496539
0.00496546
0.00496552
0.00496557
0.00496561
0.00496563
0.00496564
0.00496564
0.00496563
0.00496561
0.00496557
0.00496552
0.00496546
0.00496539
0.0049653
0.0049652
0.00496508
0.00496495
0.0049648
0.00496464
0.00496445
0.00496425
0.00496402
0.00496378
0.00496351
0.00496322
0.0049629
0.00496256
0.00496219
0.00496179
0.00496137
0.00496091
0.00496043
0.00495993
0.0049594
0.00495884
0.00495825
0.00505141
0.00505202
0.0050526
0.00505314
0.00505367
0.00505416
0.00505463
0.00505506
0.00505547
0.00505585
0.00505621
0.00505654
0.00505684
0.00505711
0.00505737
0.0050576
0.00505781
0.005058
0.00505817
0.00505833
0.00505846
0.00505858
0.00505869
0.00505878
0.00505885
0.00505892
0.00505897
0.005059
0.00505903
0.00505904
0.00505904
0.00505903
0.005059
0.00505897
0.00505892
0.00505885
0.00505878
0.00505869
0.00505858
0.00505846
0.00505833
0.00505817
0.005058
0.00505781
0.0050576
0.00505737
0.00505711
0.00505684
0.00505654
0.00505621
0.00505585
0.00505547
0.00505506
0.00505463
0.00505416
0.00505367
0.00505314
0.0050526
0.00505202
0.00505141
0.005153
0.00515364
0.00515423
0.0051548
0.00515534
0.00515585
0.00515633
0.00515678
0.00515721
0.0051576
0.00515797
0.00515831
0.00515862
0.0051589
0.00515917
0.00515941
0.00515963
0.00515982
0.00516
0.00516016
0.0051603
0.00516042
0.00516053
0.00516063
0.00516071
0.00516077
0.00516082
0.00516086
0.00516088
0.0051609
0.0051609
0.00516088
0.00516086
0.00516082
0.00516077
0.00516071
0.00516063
0.00516053
0.00516042
0.0051603
0.00516016
0.00516
0.00515982
0.00515963
0.00515941
0.00515917
0.0051589
0.00515862
0.00515831
0.00515797
0.0051576
0.00515721
0.00515678
0.00515633
0.00515585
0.00515534
0.0051548
0.00515423
0.00515364
0.005153
0.00526422
0.00526488
0.00526549
0.00526608
0.00526664
0.00526717
0.00526767
0.00526814
0.00526858
0.00526899
0.00526937
0.00526972
0.00527004
0.00527034
0.00527061
0.00527086
0.00527109
0.00527129
0.00527148
0.00527164
0.00527179
0.00527192
0.00527203
0.00527213
0.00527221
0.00527228
0.00527233
0.00527237
0.0052724
0.00527241
0.00527241
0.0052724
0.00527237
0.00527233
0.00527228
0.00527221
0.00527213
0.00527203
0.00527192
0.00527179
0.00527164
0.00527148
0.00527129
0.00527109
0.00527086
0.00527061
0.00527034
0.00527004
0.00526972
0.00526937
0.00526899
0.00526858
0.00526814
0.00526767
0.00526717
0.00526664
0.00526608
0.00526549
0.00526488
0.00526422
0.00538648
0.00538717
0.00538781
0.00538842
0.005389
0.00538956
0.00539008
0.00539057
0.00539102
0.00539145
0.00539184
0.00539221
0.00539255
0.00539286
0.00539314
0.0053934
0.00539363
0.00539385
0.00539404
0.00539421
0.00539436
0.0053945
0.00539462
0.00539472
0.0053948
0.00539487
0.00539493
0.00539497
0.005395
0.00539501
0.00539501
0.005395
0.00539497
0.00539493
0.00539487
0.0053948
0.00539472
0.00539462
0.0053945
0.00539436
0.00539421
0.00539404
0.00539385
0.00539363
0.0053934
0.00539314
0.00539286
0.00539255
0.00539221
0.00539184
0.00539145
0.00539102
0.00539057
0.00539008
0.00538956
0.005389
0.00538842
0.00538781
0.00538717
0.00538648
0.00552154
0.00552226
0.00552292
0.00552356
0.00552417
0.00552475
0.00552529
0.0055258
0.00552628
0.00552673
0.00552714
0.00552752
0.00552787
0.0055282
0.00552849
0.00552876
0.00552901
0.00552923
0.00552943
0.00552961
0.00552977
0.00552991
0.00553004
0.00553014
0.00553023
0.0055303
0.00553036
0.0055304
0.00553043
0.00553045
0.00553045
0.00553043
0.0055304
0.00553036
0.0055303
0.00553023
0.00553014
0.00553004
0.00552991
0.00552977
0.00552961
0.00552943
0.00552923
0.00552901
0.00552876
0.00552849
0.0055282
0.00552787
0.00552752
0.00552714
0.00552673
0.00552628
0.0055258
0.00552529
0.00552475
0.00552417
0.00552356
0.00552292
0.00552226
0.00552154
0.00567152
0.00567227
0.00567297
0.00567364
0.00567428
0.00567489
0.00567546
0.005676
0.0056765
0.00567696
0.0056774
0.0056778
0.00567817
0.00567851
0.00567882
0.0056791
0.00567936
0.00567959
0.0056798
0.00567999
0.00568016
0.00568031
0.00568044
0.00568055
0.00568064
0.00568072
0.00568078
0.00568082
0.00568085
0.00568087
0.00568087
0.00568085
0.00568082
0.00568078
0.00568072
0.00568064
0.00568055
0.00568044
0.00568031
0.00568016
0.00567999
0.0056798
0.00567959
0.00567936
0.0056791
0.00567882
0.00567851
0.00567817
0.0056778
0.0056774
0.00567696
0.0056765
0.005676
0.00567546
0.00567489
0.00567428
0.00567364
0.00567297
0.00567227
0.00567152
0.00583908
0.00583988
0.00584062
0.00584132
0.005842
0.00584264
0.00584324
0.0058438
0.00584433
0.00584482
0.00584528
0.0058457
0.00584609
0.00584645
0.00584678
0.00584708
0.00584735
0.0058476
0.00584782
0.00584802
0.00584819
0.00584835
0.00584848
0.0058486
0.0058487
0.00584878
0.00584885
0.00584889
0.00584892
0.00584894
0.00584894
0.00584892
0.00584889
0.00584885
0.00584878
0.0058487
0.0058486
0.00584848
0.00584835
0.00584819
0.00584802
0.00584782
0.0058476
0.00584735
0.00584708
0.00584678
0.00584645
0.00584609
0.0058457
0.00584528
0.00584482
0.00584433
0.0058438
0.00584324
0.00584264
0.005842
0.00584132
0.00584062
0.00583988
0.00583908
0.00602758
0.00602842
0.00602921
0.00602995
0.00603067
0.00603135
0.00603198
0.00603258
0.00603314
0.00603366
0.00603415
0.0060346
0.00603501
0.00603539
0.00603574
0.00603605
0.00603634
0.0060366
0.00603684
0.00603705
0.00603724
0.0060374
0.00603755
0.00603767
0.00603778
0.00603786
0.00603793
0.00603798
0.00603801
0.00603803
0.00603803
0.00603801
0.00603798
0.00603793
0.00603786
0.00603778
0.00603767
0.00603755
0.0060374
0.00603724
0.00603705
0.00603684
0.0060366
0.00603634
0.00603605
0.00603574
0.00603539
0.00603501
0.0060346
0.00603415
0.00603366
0.00603314
0.00603258
0.00603198
0.00603135
0.00603067
0.00602995
0.00602921
0.00602842
0.00602758
0.00624129
0.00624219
0.00624303
0.00624382
0.00624459
0.00624531
0.00624599
0.00624663
0.00624723
0.00624778
0.0062483
0.00624878
0.00624922
0.00624962
0.00625
0.00625033
0.00625064
0.00625092
0.00625117
0.0062514
0.0062516
0.00625177
0.00625193
0.00625206
0.00625217
0.00625226
0.00625234
0.00625239
0.00625243
0.00625244
0.00625244
0.00625243
0.00625239
0.00625234
0.00625226
0.00625217
0.00625206
0.00625193
0.00625177
0.0062516
0.0062514
0.00625117
0.00625092
0.00625064
0.00625033
0.00625
0.00624962
0.00624922
0.00624878
0.0062483
0.00624778
0.00624723
0.00624663
0.00624599
0.00624531
0.00624459
0.00624382
0.00624303
0.00624219
0.00624129
0.00648579
0.00648676
0.00648765
0.00648851
0.00648933
0.00649011
0.00649084
0.00649153
0.00649217
0.00649277
0.00649333
0.00649384
0.00649431
0.00649475
0.00649515
0.00649552
0.00649585
0.00649615
0.00649642
0.00649666
0.00649688
0.00649707
0.00649723
0.00649737
0.00649749
0.00649759
0.00649767
0.00649773
0.00649777
0.00649779
0.00649779
0.00649777
0.00649773
0.00649767
0.00649759
0.00649749
0.00649737
0.00649723
0.00649707
0.00649688
0.00649666
0.00649642
0.00649615
0.00649585
0.00649552
0.00649515
0.00649475
0.00649431
0.00649384
0.00649333
0.00649277
0.00649217
0.00649153
0.00649084
0.00649011
0.00648933
0.00648851
0.00648765
0.00648676
0.00648579
0.00676846
0.00676952
0.00677049
0.00677142
0.00677231
0.00677315
0.00677395
0.0067747
0.00677539
0.00677604
0.00677665
0.00677721
0.00677772
0.00677819
0.00677863
0.00677902
0.00677938
0.00677971
0.00678001
0.00678027
0.0067805
0.00678071
0.00678089
0.00678104
0.00678117
0.00678128
0.00678137
0.00678143
0.00678147
0.00678149
0.00678149
0.00678147
0.00678143
0.00678137
0.00678128
0.00678117
0.00678104
0.00678089
0.00678071
0.0067805
0.00678027
0.00678001
0.00677971
0.00677938
0.00677902
0.00677863
0.00677819
0.00677772
0.00677721
0.00677665
0.00677604
0.00677539
0.0067747
0.00677395
0.00677315
0.00677231
0.00677142
0.00677049
0.00676952
0.00676846
0.00709934
0.00710049
0.00710156
0.00710258
0.00710356
0.00710448
0.00710536
0.00710618
0.00710694
0.00710766
0.00710832
0.00710893
0.0071095
0.00711002
0.00711049
0.00711093
0.00711133
0.00711168
0.00711201
0.0071123
0.00711255
0.00711278
0.00711298
0.00711315
0.00711329
0.00711341
0.0071135
0.00711357
0.00711362
0.00711364
0.00711364
0.00711362
0.00711357
0.0071135
0.00711341
0.00711329
0.00711315
0.00711298
0.00711278
0.00711255
0.0071123
0.00711201
0.00711168
0.00711133
0.00711093
0.00711049
0.00711002
0.0071095
0.00710893
0.00710832
0.00710766
0.00710694
0.00710618
0.00710536
0.00710448
0.00710356
0.00710258
0.00710156
0.00710049
0.00709934
0.0074923
0.00749358
0.00749476
0.0074959
0.00749699
0.00749802
0.00749899
0.0074999
0.00750075
0.00750155
0.00750229
0.00750297
0.0075036
0.00750418
0.00750471
0.00750519
0.00750563
0.00750603
0.00750639
0.00750672
0.007507
0.00750725
0.00750747
0.00750766
0.00750782
0.00750795
0.00750806
0.00750814
0.00750819
0.00750821
0.00750821
0.00750819
0.00750814
0.00750806
0.00750795
0.00750782
0.00750766
0.00750747
0.00750725
0.007507
0.00750672
0.00750639
0.00750603
0.00750563
0.00750519
0.00750471
0.00750418
0.0075036
0.00750297
0.00750229
0.00750155
0.00750075
0.0074999
0.00749899
0.00749802
0.00749699
0.0074959
0.00749476
0.00749358
0.0074923
0.00796704
0.00796848
0.00796982
0.0079711
0.00797233
0.0079735
0.0079746
0.00797563
0.0079766
0.0079775
0.00797833
0.0079791
0.00797982
0.00798047
0.00798108
0.00798162
0.00798212
0.00798258
0.00798298
0.00798335
0.00798367
0.00798396
0.00798421
0.00798442
0.0079846
0.00798475
0.00798487
0.00798496
0.00798501
0.00798504
0.00798504
0.00798501
0.00798496
0.00798487
0.00798475
0.0079846
0.00798442
0.00798421
0.00798396
0.00798367
0.00798335
0.00798298
0.00798258
0.00798212
0.00798162
0.00798108
0.00798047
0.00797982
0.0079791
0.00797833
0.0079775
0.0079766
0.00797563
0.0079746
0.0079735
0.00797233
0.0079711
0.00796982
0.00796848
0.00796704
0.00855202
0.00855367
0.00855521
0.0085567
0.00855812
0.00855946
0.00856073
0.00856193
0.00856304
0.00856408
0.00856505
0.00856594
0.00856676
0.00856752
0.00856822
0.00856885
0.00856943
0.00856995
0.00857042
0.00857084
0.00857122
0.00857155
0.00857184
0.00857209
0.0085723
0.00857247
0.0085726
0.00857271
0.00857277
0.00857281
0.00857281
0.00857277
0.00857271
0.0085726
0.00857247
0.0085723
0.00857209
0.00857184
0.00857155
0.00857122
0.00857084
0.00857042
0.00856995
0.00856943
0.00856885
0.00856822
0.00856752
0.00856676
0.00856594
0.00856505
0.00856408
0.00856304
0.00856193
0.00856073
0.00855946
0.00855812
0.0085567
0.00855521
0.00855367
0.00855202
0.0092887
0.00929064
0.00929245
0.00929421
0.00929589
0.00929748
0.00929898
0.00930039
0.00930171
0.00930294
0.00930408
0.00930514
0.00930611
0.00930701
0.00930783
0.00930858
0.00930926
0.00930988
0.00931044
0.00931094
0.00931138
0.00931177
0.00931212
0.00931241
0.00931266
0.00931286
0.00931302
0.00931314
0.00931322
0.00931326
0.00931326
0.00931322
0.00931314
0.00931302
0.00931286
0.00931266
0.00931241
0.00931212
0.00931177
0.00931138
0.00931094
0.00931044
0.00930988
0.00930926
0.00930858
0.00930783
0.00930701
0.00930611
0.00930514
0.00930408
0.00930294
0.00930171
0.00930039
0.00929898
0.00929748
0.00929589
0.00929421
0.00929245
0.00929064
0.0092887
0.0102367
0.0102391
0.0102413
0.0102434
0.0102454
0.0102474
0.0102492
0.0102509
0.0102525
0.010254
0.0102554
0.0102566
0.0102578
0.0102589
0.0102599
0.0102608
0.0102616
0.0102624
0.0102631
0.0102637
0.0102642
0.0102647
0.0102651
0.0102655
0.0102658
0.010266
0.0102662
0.0102664
0.0102664
0.0102665
0.0102665
0.0102664
0.0102664
0.0102662
0.010266
0.0102658
0.0102655
0.0102651
0.0102647
0.0102642
0.0102637
0.0102631
0.0102624
0.0102616
0.0102608
0.0102599
0.0102589
0.0102578
0.0102566
0.0102554
0.010254
0.0102525
0.0102509
0.0102492
0.0102474
0.0102454
0.0102434
0.0102413
0.0102391
0.0102367
0.0114785
0.0114814
0.0114841
0.0114867
0.0114892
0.0114916
0.0114939
0.011496
0.011498
0.0114998
0.0115015
0.0115031
0.0115046
0.011506
0.0115072
0.0115083
0.0115093
0.0115103
0.0115111
0.0115119
0.0115125
0.0115131
0.0115136
0.0115141
0.0115145
0.0115148
0.011515
0.0115152
0.0115153
0.0115154
0.0115154
0.0115153
0.0115152
0.011515
0.0115148
0.0115145
0.0115141
0.0115136
0.0115131
0.0115125
0.0115119
0.0115111
0.0115103
0.0115093
0.0115083
0.0115072
0.011506
0.0115046
0.0115031
0.0115015
0.0114998
0.011498
0.011496
0.0114939
0.0114916
0.0114892
0.0114867
0.0114841
0.0114814
0.0114785
0.0131185
0.0131221
0.0131255
0.0131288
0.013132
0.013135
0.0131378
0.0131405
0.013143
0.0131453
0.0131475
0.0131495
0.0131513
0.013153
0.0131546
0.013156
0.0131573
0.0131585
0.0131595
0.0131605
0.0131613
0.013162
0.0131627
0.0131632
0.0131637
0.0131641
0.0131644
0.0131646
0.0131648
0.0131649
0.0131649
0.0131648
0.0131646
0.0131644
0.0131641
0.0131637
0.0131632
0.0131627
0.013162
0.0131613
0.0131605
0.0131595
0.0131585
0.0131573
0.013156
0.0131546
0.013153
0.0131513
0.0131495
0.0131475
0.0131453
0.013143
0.0131405
0.0131378
0.013135
0.013132
0.0131288
0.0131255
0.0131221
0.0131185
0.0152721
0.0152766
0.0152809
0.0152851
0.0152891
0.0152929
0.0152964
0.0152998
0.0153029
0.0153059
0.0153086
0.0153111
0.0153134
0.0153156
0.0153175
0.0153193
0.015321
0.0153224
0.0153238
0.015325
0.015326
0.015327
0.0153278
0.0153285
0.0153291
0.0153296
0.0153299
0.0153302
0.0153304
0.0153305
0.0153305
0.0153304
0.0153302
0.0153299
0.0153296
0.0153291
0.0153285
0.0153278
0.015327
0.015326
0.015325
0.0153238
0.0153224
0.015321
0.0153193
0.0153175
0.0153156
0.0153134
0.0153111
0.0153086
0.0153059
0.0153029
0.0152998
0.0152964
0.0152929
0.0152891
0.0152851
0.0152809
0.0152766
0.0152721
0.0180401
0.0180457
0.0180511
0.0180563
0.0180613
0.018066
0.0180704
0.0180746
0.0180785
0.0180822
0.0180856
0.0180887
0.0180916
0.0180943
0.0180967
0.0180989
0.018101
0.0181028
0.0181045
0.0181059
0.0181073
0.0181084
0.0181094
0.0181103
0.018111
0.0181116
0.0181121
0.0181125
0.0181127
0.0181128
0.0181128
0.0181127
0.0181125
0.0181121
0.0181116
0.018111
0.0181103
0.0181094
0.0181084
0.0181073
0.0181059
0.0181045
0.0181028
0.018101
0.0180989
0.0180967