/*--------------------------------*- C++ -*----------------------------------*\
| =========                 |                                                 |
| \\      /  F ield         | foam-extend: Open Source CFD                    |
|  \\    /   O peration     | Version:     4.0                                |
|   \\  /    A nd           | Web:         http://www.foam-extend.org         |
|    \\/     M anipulation  |                                                 |
\*---------------------------------------------------------------------------*/
FoamFile
{
    version     2.0;
    format      ascii;
    class       volScalarField;
    location    "1560";
    object      cPlus;
}
// * * * * * * * * * * * * * * * * * * * * * * * * * * * * * * * * * * * * * //

dimensions      [0 0 0 0 0 0 0];

internalField   nonuniform List<scalar> 
6960
(
0.317341
0.317326
0.317307
0.317289
0.317273
0.317258
0.317245
0.317233
0.317223
0.317214
0.317206
0.3172
0.317194
0.317189
0.317185
0.317182
0.317179
0.317176
0.317174
0.317172
0.317171
0.31717
0.317169
0.317168
0.317167
0.317167
0.317166
0.317166
0.317166
0.317166
0.317166
0.317166
0.317166
0.317166
0.317167
0.317167
0.317168
0.317169
0.31717
0.317171
0.317172
0.317174
0.317176
0.317179
0.317182
0.317185
0.317189
0.317194
0.3172
0.317206
0.317214
0.317223
0.317233
0.317245
0.317258
0.317273
0.317289
0.317307
0.317326
0.317341
0.101338
0.101328
0.101316
0.101303
0.101292
0.101282
0.101272
0.101264
0.101257
0.101251
0.101246
0.101241
0.101237
0.101234
0.101231
0.101229
0.101227
0.101225
0.101223
0.101222
0.101221
0.10122
0.10122
0.101219
0.101219
0.101218
0.101218
0.101218
0.101218
0.101217
0.101217
0.101218
0.101218
0.101218
0.101218
0.101219
0.101219
0.10122
0.10122
0.101221
0.101222
0.101223
0.101225
0.101227
0.101229
0.101231
0.101234
0.101237
0.101241
0.101246
0.101251
0.101257
0.101264
0.101272
0.101282
0.101292
0.101303
0.101316
0.101328
0.101338
0.0387601
0.0387549
0.0387483
0.0387417
0.0387356
0.0387301
0.0387252
0.0387208
0.0387171
0.0387138
0.038711
0.0387085
0.0387064
0.0387046
0.0387031
0.0387018
0.0387007
0.0386998
0.038699
0.0386983
0.0386978
0.0386973
0.0386969
0.0386966
0.0386964
0.0386962
0.038696
0.0386959
0.0386958
0.0386958
0.0386958
0.0386958
0.0386959
0.038696
0.0386962
0.0386964
0.0386966
0.0386969
0.0386973
0.0386978
0.0386983
0.038699
0.0386998
0.0387007
0.0387018
0.0387031
0.0387046
0.0387064
0.0387085
0.038711
0.0387138
0.0387171
0.0387208
0.0387252
0.0387301
0.0387356
0.0387417
0.0387483
0.0387549
0.0387601
0.0175632
0.0175613
0.0175586
0.0175559
0.0175534
0.0175511
0.0175491
0.0175473
0.0175457
0.0175443
0.0175431
0.0175421
0.0175412
0.0175405
0.0175398
0.0175393
0.0175388
0.0175384
0.0175381
0.0175378
0.0175376
0.0175374
0.0175372
0.0175371
0.017537
0.0175369
0.0175368
0.0175368
0.0175368
0.0175368
0.0175368
0.0175368
0.0175368
0.0175368
0.0175369
0.017537
0.0175371
0.0175372
0.0175374
0.0175376
0.0175378
0.0175381
0.0175384
0.0175388
0.0175393
0.0175398
0.0175405
0.0175412
0.0175421
0.0175431
0.0175443
0.0175457
0.0175473
0.0175491
0.0175511
0.0175534
0.0175559
0.0175586
0.0175613
0.0175632
0.0101104
0.0101104
0.01011
0.0101094
0.0101089
0.0101084
0.010108
0.0101076
0.0101073
0.010107
0.0101067
0.0101065
0.0101063
0.0101061
0.010106
0.0101059
0.0101058
0.0101057
0.0101056
0.0101055
0.0101055
0.0101055
0.0101054
0.0101054
0.0101054
0.0101053
0.0101053
0.0101053
0.0101053
0.0101053
0.0101053
0.0101053
0.0101053
0.0101053
0.0101053
0.0101054
0.0101054
0.0101054
0.0101055
0.0101055
0.0101055
0.0101056
0.0101057
0.0101058
0.0101059
0.010106
0.0101061
0.0101063
0.0101065
0.0101067
0.010107
0.0101073
0.0101076
0.010108
0.0101084
0.0101089
0.0101094
0.01011
0.0101104
0.0101104
0.00751686
0.00751781
0.00751847
0.00751902
0.0075195
0.00751992
0.00752029
0.00752061
0.00752089
0.00752113
0.00752133
0.00752151
0.00752166
0.00752178
0.00752189
0.00752198
0.00752206
0.00752212
0.00752218
0.00752222
0.00752226
0.00752229
0.00752232
0.00752234
0.00752235
0.00752237
0.00752238
0.00752238
0.00752239
0.00752239
0.00752239
0.00752239
0.00752238
0.00752238
0.00752237
0.00752235
0.00752234
0.00752232
0.00752229
0.00752226
0.00752222
0.00752218
0.00752212
0.00752206
0.00752198
0.00752189
0.00752178
0.00752166
0.00752151
0.00752133
0.00752113
0.00752089
0.00752061
0.00752029
0.00751992
0.0075195
0.00751902
0.00751847
0.00751781
0.00751686
0.00665393
0.00665531
0.00665649
0.00665754
0.00665849
0.00665932
0.00666006
0.00666071
0.00666127
0.00666176
0.00666218
0.00666254
0.00666285
0.00666311
0.00666333
0.00666352
0.00666368
0.00666381
0.00666393
0.00666402
0.0066641
0.00666417
0.00666422
0.00666426
0.0066643
0.00666433
0.00666435
0.00666437
0.00666438
0.00666438
0.00666438
0.00666438
0.00666437
0.00666435
0.00666433
0.0066643
0.00666426
0.00666422
0.00666417
0.0066641
0.00666402
0.00666393
0.00666381
0.00666368
0.00666352
0.00666333
0.00666311
0.00666285
0.00666254
0.00666218
0.00666176
0.00666127
0.00666071
0.00666006
0.00665932
0.00665849
0.00665754
0.00665649
0.00665531
0.00665393
0.00639964
0.00640122
0.00640262
0.0064039
0.00640505
0.00640607
0.00640697
0.00640777
0.00640845
0.00640905
0.00640957
0.00641001
0.00641039
0.00641071
0.00641098
0.00641121
0.00641141
0.00641157
0.00641171
0.00641183
0.00641193
0.00641201
0.00641207
0.00641213
0.00641217
0.00641221
0.00641224
0.00641226
0.00641227
0.00641227
0.00641227
0.00641227
0.00641226
0.00641224
0.00641221
0.00641217
0.00641213
0.00641207
0.00641201
0.00641193
0.00641183
0.00641171
0.00641157
0.00641141
0.00641121
0.00641098
0.00641071
0.00641039
0.00641001
0.00640957
0.00640905
0.00640845
0.00640777
0.00640697
0.00640607
0.00640505
0.0064039
0.00640262
0.00640122
0.00639964
0.00635605
0.00635772
0.00635923
0.00636061
0.00636185
0.00636296
0.00636394
0.0063648
0.00636554
0.00636619
0.00636675
0.00636723
0.00636763
0.00636798
0.00636828
0.00636853
0.00636875
0.00636892
0.00636908
0.0063692
0.00636931
0.0063694
0.00636947
0.00636953
0.00636958
0.00636961
0.00636964
0.00636966
0.00636968
0.00636969
0.00636969
0.00636968
0.00636966
0.00636964
0.00636961
0.00636958
0.00636953
0.00636947
0.0063694
0.00636931
0.0063692
0.00636908
0.00636892
0.00636875
0.00636853
0.00636828
0.00636798
0.00636763
0.00636723
0.00636675
0.00636619
0.00636554
0.0063648
0.00636394
0.00636296
0.00636185
0.00636061
0.00635923
0.00635772
0.00635605
0.00638527
0.006387
0.00638857
0.00639
0.00639129
0.00639244
0.00639345
0.00639435
0.00639512
0.00639579
0.00639637
0.00639687
0.0063973
0.00639766
0.00639797
0.00639823
0.00639845
0.00639864
0.0063988
0.00639893
0.00639904
0.00639913
0.00639921
0.00639927
0.00639932
0.00639936
0.00639939
0.00639941
0.00639943
0.00639943
0.00639943
0.00639943
0.00639941
0.00639939
0.00639936
0.00639932
0.00639927
0.00639921
0.00639913
0.00639904
0.00639893
0.0063988
0.00639864
0.00639845
0.00639823
0.00639797
0.00639766
0.0063973
0.00639687
0.00639637
0.00639579
0.00639512
0.00639435
0.00639345
0.00639244
0.00639129
0.00639
0.00638857
0.006387
0.00638527
0.00644094
0.00644271
0.00644431
0.00644578
0.0064471
0.00644828
0.00644932
0.00645023
0.00645103
0.00645172
0.00645231
0.00645282
0.00645326
0.00645363
0.00645395
0.00645422
0.00645444
0.00645463
0.0064548
0.00645493
0.00645504
0.00645514
0.00645522
0.00645528
0.00645533
0.00645537
0.0064554
0.00645543
0.00645544
0.00645545
0.00645545
0.00645544
0.00645543
0.0064554
0.00645537
0.00645533
0.00645528
0.00645522
0.00645514
0.00645504
0.00645493
0.0064548
0.00645463
0.00645444
0.00645422
0.00645395
0.00645363
0.00645326
0.00645282
0.00645231
0.00645172
0.00645103
0.00645023
0.00644932
0.00644828
0.0064471
0.00644578
0.00644431
0.00644271
0.00644094
0.00650807
0.00650988
0.00651151
0.006513
0.00651435
0.00651556
0.00651662
0.00651755
0.00651836
0.00651907
0.00651967
0.00652019
0.00652064
0.00652102
0.00652135
0.00652162
0.00652185
0.00652205
0.00652221
0.00652235
0.00652247
0.00652256
0.00652264
0.00652271
0.00652276
0.0065228
0.00652283
0.00652286
0.00652287
0.00652288
0.00652288
0.00652287
0.00652286
0.00652283
0.0065228
0.00652276
0.00652271
0.00652264
0.00652256
0.00652247
0.00652235
0.00652221
0.00652205
0.00652185
0.00652162
0.00652135
0.00652102
0.00652064
0.00652019
0.00651967
0.00651907
0.00651836
0.00651755
0.00651662
0.00651556
0.00651435
0.006513
0.00651151
0.00650988
0.00650807
0.00658218
0.00658402
0.00658569
0.00658721
0.00658859
0.00658982
0.0065909
0.00659185
0.00659268
0.0065934
0.00659401
0.00659455
0.006595
0.00659539
0.00659572
0.006596
0.00659624
0.00659644
0.00659661
0.00659675
0.00659687
0.00659697
0.00659705
0.00659711
0.00659717
0.00659721
0.00659724
0.00659727
0.00659728
0.00659729
0.00659729
0.00659728
0.00659727
0.00659724
0.00659721
0.00659717
0.00659711
0.00659705
0.00659697
0.00659687
0.00659675
0.00659661
0.00659644
0.00659624
0.006596
0.00659572
0.00659539
0.006595
0.00659455
0.00659401
0.0065934
0.00659268
0.00659185
0.0065909
0.00658982
0.00658859
0.00658721
0.00658569
0.00658402
0.00658218
0.00666222
0.0066641
0.0066658
0.00666736
0.00666876
0.00667001
0.00667112
0.00667209
0.00667293
0.00667366
0.0066743
0.00667484
0.0066753
0.0066757
0.00667604
0.00667633
0.00667657
0.00667677
0.00667694
0.00667709
0.00667721
0.00667731
0.00667739
0.00667746
0.00667752
0.00667756
0.00667759
0.00667762
0.00667763
0.00667764
0.00667764
0.00667763
0.00667762
0.00667759
0.00667756
0.00667752
0.00667746
0.00667739
0.00667731
0.00667721
0.00667709
0.00667694
0.00667677
0.00667657
0.00667633
0.00667604
0.0066757
0.0066753
0.00667484
0.0066743
0.00667366
0.00667293
0.00667209
0.00667112
0.00667001
0.00666876
0.00666736
0.0066658
0.0066641
0.00666222
0.00674826
0.00675018
0.00675192
0.0067535
0.00675494
0.00675622
0.00675734
0.00675834
0.0067592
0.00675995
0.00676059
0.00676115
0.00676162
0.00676203
0.00676238
0.00676267
0.00676292
0.00676312
0.0067633
0.00676345
0.00676357
0.00676367
0.00676376
0.00676383
0.00676389
0.00676393
0.00676396
0.00676399
0.00676401
0.00676401
0.00676401
0.00676401
0.00676399
0.00676396
0.00676393
0.00676389
0.00676383
0.00676376
0.00676367
0.00676357
0.00676345
0.0067633
0.00676312
0.00676292
0.00676267
0.00676238
0.00676203
0.00676162
0.00676115
0.00676059
0.00675995
0.0067592
0.00675834
0.00675734
0.00675622
0.00675494
0.0067535
0.00675192
0.00675018
0.00674826
0.00684076
0.00684273
0.00684451
0.00684613
0.00684759
0.0068489
0.00685006
0.00685107
0.00685195
0.00685272
0.00685338
0.00685395
0.00685444
0.00685485
0.0068552
0.0068555
0.00685576
0.00685597
0.00685615
0.0068563
0.00685643
0.00685653
0.00685662
0.00685669
0.00685675
0.0068568
0.00685683
0.00685686
0.00685687
0.00685688
0.00685688
0.00685687
0.00685686
0.00685683
0.0068568
0.00685675
0.00685669
0.00685662
0.00685653
0.00685643
0.0068563
0.00685615
0.00685597
0.00685576
0.0068555
0.0068552
0.00685485
0.00685444
0.00685395
0.00685338
0.00685272
0.00685195
0.00685107
0.00685006
0.0068489
0.00684759
0.00684613
0.00684451
0.00684273
0.00684076
0.00694038
0.0069424
0.00694422
0.00694588
0.00694738
0.00694872
0.00694991
0.00695094
0.00695185
0.00695263
0.00695331
0.00695389
0.00695439
0.00695482
0.00695518
0.00695549
0.00695575
0.00695597
0.00695615
0.00695631
0.00695644
0.00695655
0.00695663
0.00695671
0.00695677
0.00695681
0.00695685
0.00695688
0.00695689
0.0069569
0.0069569
0.00695689
0.00695688
0.00695685
0.00695681
0.00695677
0.00695671
0.00695663
0.00695655
0.00695644
0.00695631
0.00695615
0.00695597
0.00695575
0.00695549
0.00695518
0.00695482
0.00695439
0.00695389
0.00695331
0.00695263
0.00695185
0.00695094
0.00694991
0.00694872
0.00694738
0.00694588
0.00694422
0.0069424
0.00694038
0.00704791
0.00704998
0.00705185
0.00705356
0.0070551
0.00705647
0.00705769
0.00705875
0.00705968
0.00706049
0.00706118
0.00706178
0.00706229
0.00706273
0.0070631
0.00706342
0.00706368
0.00706391
0.0070641
0.00706426
0.00706439
0.0070645
0.00706459
0.00706467
0.00706473
0.00706478
0.00706481
0.00706484
0.00706486
0.00706487
0.00706487
0.00706486
0.00706484
0.00706481
0.00706478
0.00706473
0.00706467
0.00706459
0.0070645
0.00706439
0.00706426
0.0070641
0.00706391
0.00706368
0.00706342
0.0070631
0.00706273
0.00706229
0.00706178
0.00706118
0.00706049
0.00705968
0.00705875
0.00705769
0.00705647
0.0070551
0.00705356
0.00705185
0.00704998
0.00704791
0.00716427
0.0071664
0.00716833
0.00717008
0.00717166
0.00717307
0.00717432
0.00717542
0.00717637
0.0071772
0.00717792
0.00717853
0.00717906
0.00717951
0.00717989
0.00718022
0.00718049
0.00718072
0.00718092
0.00718108
0.00718122
0.00718133
0.00718143
0.00718151
0.00718157
0.00718162
0.00718166
0.00718168
0.0071817
0.00718171
0.00718171
0.0071817
0.00718168
0.00718166
0.00718162
0.00718157
0.00718151
0.00718143
0.00718133
0.00718122
0.00718108
0.00718092
0.00718072
0.00718049
0.00718022
0.00717989
0.00717951
0.00717906
0.00717853
0.00717792
0.0071772
0.00717637
0.00717542
0.00717432
0.00717307
0.00717166
0.00717008
0.00716833
0.0071664
0.00716427
0.00729054
0.00729275
0.00729473
0.00729654
0.00729817
0.00729962
0.00730091
0.00730203
0.00730302
0.00730387
0.00730461
0.00730524
0.00730579
0.00730625
0.00730664
0.00730698
0.00730726
0.0073075
0.0073077
0.00730787
0.00730801
0.00730813
0.00730823
0.00730831
0.00730837
0.00730843
0.00730846
0.00730849
0.00730851
0.00730852
0.00730852
0.00730851
0.00730849
0.00730846
0.00730843
0.00730837
0.00730831
0.00730823
0.00730813
0.00730801
0.00730787
0.0073077
0.0073075
0.00730726
0.00730698
0.00730664
0.00730625
0.00730579
0.00730524
0.00730461
0.00730387
0.00730302
0.00730203
0.00730091
0.00729962
0.00729817
0.00729654
0.00729473
0.00729275
0.00729054
0.00742802
0.00743029
0.00743234
0.00743421
0.00743589
0.00743739
0.00743872
0.00743988
0.0074409
0.00744178
0.00744254
0.0074432
0.00744376
0.00744424
0.00744464
0.00744499
0.00744528
0.00744553
0.00744574
0.00744591
0.00744606
0.00744618
0.00744628
0.00744637
0.00744643
0.00744649
0.00744653
0.00744656
0.00744658
0.00744658
0.00744658
0.00744658
0.00744656
0.00744653
0.00744649
0.00744643
0.00744637
0.00744628
0.00744618
0.00744606
0.00744591
0.00744574
0.00744553
0.00744528
0.00744499
0.00744464
0.00744424
0.00744376
0.0074432
0.00744254
0.00744178
0.0074409
0.00743988
0.00743872
0.00743739
0.00743589
0.00743421
0.00743234
0.00743029
0.00742802
0.0075782
0.00758056
0.00758268
0.00758461
0.00758635
0.00758791
0.00758928
0.00759049
0.00759154
0.00759245
0.00759324
0.00759392
0.0075945
0.007595
0.00759542
0.00759578
0.00759608
0.00759634
0.00759655
0.00759673
0.00759689
0.00759701
0.00759712
0.0075972
0.00759727
0.00759733
0.00759737
0.0075974
0.00759742
0.00759743
0.00759743
0.00759742
0.0075974
0.00759737
0.00759733
0.00759727
0.0075972
0.00759712
0.00759701
0.00759689
0.00759673
0.00759655
0.00759634
0.00759608
0.00759578
0.00759542
0.007595
0.0075945
0.00759392
0.00759324
0.00759245
0.00759154
0.00759049
0.00758928
0.00758791
0.00758635
0.00758461
0.00758268
0.00758056
0.0075782
0.00774291
0.00774536
0.00774756
0.00774957
0.00775138
0.00775299
0.00775442
0.00775567
0.00775676
0.00775771
0.00775853
0.00775923
0.00775984
0.00776035
0.00776079
0.00776116
0.00776148
0.00776175
0.00776197
0.00776216
0.00776232
0.00776245
0.00776256
0.00776264
0.00776272
0.00776277
0.00776282
0.00776285
0.00776287
0.00776288
0.00776288
0.00776287
0.00776285
0.00776282
0.00776277
0.00776272
0.00776264
0.00776256
0.00776245
0.00776232
0.00776216
0.00776197
0.00776175
0.00776148
0.00776116
0.00776079
0.00776035
0.00775984
0.00775923
0.00775853
0.00775771
0.00775676
0.00775567
0.00775442
0.00775299
0.00775138
0.00774957
0.00774756
0.00774536
0.00774291
0.00792434
0.00792689
0.00792918
0.00793127
0.00793316
0.00793484
0.00793632
0.00793763
0.00793877
0.00793975
0.00794061
0.00794134
0.00794197
0.00794251
0.00794296
0.00794335
0.00794368
0.00794396
0.00794419
0.00794439
0.00794456
0.00794469
0.00794481
0.0079449
0.00794497
0.00794503
0.00794508
0.00794511
0.00794513
0.00794514
0.00794514
0.00794513
0.00794511
0.00794508
0.00794503
0.00794497
0.0079449
0.00794481
0.00794469
0.00794456
0.00794439
0.00794419
0.00794396
0.00794368
0.00794335
0.00794296
0.00794251
0.00794197
0.00794134
0.00794061
0.00793975
0.00793877
0.00793763
0.00793632
0.00793484
0.00793316
0.00793127
0.00792918
0.00792689
0.00792434
0.00812515
0.00812782
0.00813022
0.0081324
0.00813437
0.00813613
0.00813768
0.00813905
0.00814024
0.00814127
0.00814216
0.00814293
0.00814359
0.00814415
0.00814463
0.00814504
0.00814538
0.00814567
0.00814592
0.00814612
0.00814629
0.00814644
0.00814656
0.00814665
0.00814673
0.00814679
0.00814684
0.00814688
0.0081469
0.00814691
0.00814691
0.0081469
0.00814688
0.00814684
0.00814679
0.00814673
0.00814665
0.00814656
0.00814644
0.00814629
0.00814612
0.00814592
0.00814567
0.00814538
0.00814504
0.00814463
0.00814415
0.00814359
0.00814293
0.00814216
0.00814127
0.00814024
0.00813905
0.00813768
0.00813613
0.00813437
0.0081324
0.00813022
0.00812782
0.00812515
0.00834864
0.00835145
0.00835397
0.00835626
0.00835832
0.00836017
0.0083618
0.00836323
0.00836449
0.00836557
0.00836651
0.00836731
0.00836801
0.0083686
0.0083691
0.00836953
0.00836989
0.00837019
0.00837045
0.00837067
0.00837085
0.008371
0.00837112
0.00837123
0.00837131
0.00837137
0.00837143
0.00837146
0.00837149
0.0083715
0.0083715
0.00837149
0.00837146
0.00837143
0.00837137
0.00837131
0.00837123
0.00837112
0.008371
0.00837085
0.00837067
0.00837045
0.00837019
0.00836989
0.00836953
0.0083691
0.0083686
0.00836801
0.00836731
0.00836651
0.00836557
0.00836449
0.00836323
0.0083618
0.00836017
0.00835832
0.00835626
0.00835397
0.00835145
0.00834864
0.00859892
0.00860189
0.00860454
0.00860696
0.00860914
0.00861109
0.00861281
0.00861432
0.00861564
0.00861679
0.00861778
0.00861863
0.00861936
0.00861998
0.00862051
0.00862097
0.00862135
0.00862167
0.00862194
0.00862217
0.00862236
0.00862252
0.00862265
0.00862276
0.00862285
0.00862292
0.00862297
0.00862301
0.00862304
0.00862305
0.00862305
0.00862304
0.00862301
0.00862297
0.00862292
0.00862285
0.00862276
0.00862265
0.00862252
0.00862236
0.00862217
0.00862194
0.00862167
0.00862135
0.00862097
0.00862051
0.00861998
0.00861936
0.00861863
0.00861778
0.00861679
0.00861564
0.00861432
0.00861281
0.00861109
0.00860914
0.00860696
0.00860454
0.00860189
0.00859892
0.00888119
0.00888435
0.00888716
0.00888973
0.00889204
0.00889411
0.00889594
0.00889754
0.00889895
0.00890016
0.00890121
0.00890212
0.00890289
0.00890355
0.00890412
0.0089046
0.008905
0.00890535
0.00890564
0.00890588
0.00890608
0.00890625
0.00890639
0.00890651
0.0089066
0.00890667
0.00890673
0.00890677
0.0089068
0.00890681
0.00890681
0.0089068
0.00890677
0.00890673
0.00890667
0.0089066
0.00890651
0.00890639
0.00890625
0.00890608
0.00890588
0.00890564
0.00890535
0.008905
0.0089046
0.00890412
0.00890355
0.00890289
0.00890212
0.00890121
0.00890016
0.00889895
0.00889754
0.00889594
0.00889411
0.00889204
0.00888973
0.00888716
0.00888435
0.00888119
0.00920215
0.00920552
0.00920853
0.00921127
0.00921375
0.00921596
0.00921791
0.00921963
0.00922112
0.00922243
0.00922355
0.00922452
0.00922534
0.00922605
0.00922666
0.00922717
0.0092276
0.00922797
0.00922828
0.00922854
0.00922876
0.00922894
0.00922909
0.00922921
0.00922931
0.00922939
0.00922945
0.00922949
0.00922952
0.00922954
0.00922954
0.00922952
0.00922949
0.00922945
0.00922939
0.00922931
0.00922921
0.00922909
0.00922894
0.00922876
0.00922854
0.00922828
0.00922797
0.0092276
0.00922717
0.00922666
0.00922605
0.00922534
0.00922452
0.00922355
0.00922243
0.00922112
0.00921963
0.00921791
0.00921596
0.00921375
0.00921127
0.00920853
0.00920552
0.00920215
0.00957056
0.00957419
0.00957743
0.00958039
0.00958305
0.00958543
0.00958753
0.00958938
0.009591
0.0095924
0.00959361
0.00959465
0.00959555
0.00959631
0.00959696
0.00959751
0.00959798
0.00959838
0.00959871
0.00959899
0.00959923
0.00959942
0.00959959
0.00959972
0.00959983
0.00959991
0.00959998
0.00960002
0.00960005
0.00960007
0.00960007
0.00960005
0.00960002
0.00959998
0.00959991
0.00959983
0.00959972
0.00959959
0.00959942
0.00959923
0.00959899
0.00959871
0.00959838
0.00959798
0.00959751
0.00959696
0.00959631
0.00959555
0.00959465
0.00959361
0.0095924
0.009591
0.00958938
0.00958753
0.00958543
0.00958305
0.00958039
0.00957743
0.00957419
0.00957056
0.00999812
0.0100021
0.0100056
0.0100088
0.0100117
0.0100143
0.0100166
0.0100186
0.0100203
0.0100219
0.0100232
0.0100243
0.0100253
0.0100261
0.0100268
0.0100274
0.010028
0.0100284
0.0100287
0.0100291
0.0100293
0.0100295
0.0100297
0.0100298
0.01003
0.0100301
0.0100301
0.0100302
0.0100302
0.0100302
0.0100302
0.0100302
0.0100302
0.0100301
0.0100301
0.01003
0.0100298
0.0100297
0.0100295
0.0100293
0.0100291
0.0100287
0.0100284
0.010028
0.0100274
0.0100268
0.0100261
0.0100253
0.0100243
0.0100232
0.0100219
0.0100203
0.0100186
0.0100166
0.0100143
0.0100117
0.0100088
0.0100056
0.0100021
0.00999812
0.0105008
0.0105052
0.010509
0.0105126
0.0105158
0.0105186
0.0105211
0.0105234
0.0105253
0.010527
0.0105284
0.0105297
0.0105307
0.0105317
0.0105324
0.0105331
0.0105337
0.0105341
0.0105345
0.0105349
0.0105352
0.0105354
0.0105356
0.0105357
0.0105359
0.010536
0.0105361
0.0105361
0.0105362
0.0105362
0.0105362
0.0105362
0.0105361
0.0105361
0.010536
0.0105359
0.0105357
0.0105356
0.0105354
0.0105352
0.0105349
0.0105345
0.0105341
0.0105337
0.0105331
0.0105324
0.0105317
0.0105307
0.0105297
0.0105284
0.010527
0.0105253
0.0105234
0.0105211
0.0105186
0.0105158
0.0105126
0.010509
0.0105052
0.0105008
0.0111011
0.0111059
0.0111102
0.0111142
0.0111178
0.0111209
0.0111238
0.0111262
0.0111284
0.0111303
0.0111319
0.0111333
0.0111345
0.0111355
0.0111364
0.0111371
0.0111378
0.0111383
0.0111387
0.0111391
0.0111394
0.0111397
0.0111399
0.0111401
0.0111402
0.0111404
0.0111404
0.0111405
0.0111405
0.0111406
0.0111406
0.0111405
0.0111405
0.0111404
0.0111404
0.0111402
0.0111401
0.0111399
0.0111397
0.0111394
0.0111391
0.0111387
0.0111383
0.0111378
0.0111371
0.0111364
0.0111355
0.0111345
0.0111333
0.0111319
0.0111303
0.0111284
0.0111262
0.0111238
0.0111209
0.0111178
0.0111142
0.0111102
0.0111059
0.0111011
0.0118311
0.0118366
0.0118415
0.011846
0.01185
0.0118536
0.0118568
0.0118597
0.0118621
0.0118643
0.0118661
0.0118677
0.0118691
0.0118702
0.0118712
0.0118721
0.0118728
0.0118734
0.0118739
0.0118743
0.0118747
0.011875
0.0118752
0.0118754
0.0118756
0.0118757
0.0118758
0.0118759
0.011876
0.011876
0.011876
0.011876
0.0118759
0.0118758
0.0118757
0.0118756
0.0118754
0.0118752
0.011875
0.0118747
0.0118743
0.0118739
0.0118734
0.0118728
0.0118721
0.0118712
0.0118702
0.0118691
0.0118677
0.0118661
0.0118643
0.0118621
0.0118597
0.0118568
0.0118536
0.01185
0.011846
0.0118415
0.0118366
0.0118311
0.012738
0.0127444
0.0127501
0.0127553
0.01276
0.0127642
0.0127679
0.0127712
0.0127741
0.0127765
0.0127787
0.0127805
0.0127821
0.0127835
0.0127846
0.0127856
0.0127865
0.0127872
0.0127878
0.0127883
0.0127887
0.012789
0.0127893
0.0127896
0.0127897
0.0127899
0.01279
0.0127901
0.0127902
0.0127902
0.0127902
0.0127902
0.0127901
0.01279
0.0127899
0.0127897
0.0127896
0.0127893
0.012789
0.0127887
0.0127883
0.0127878
0.0127872
0.0127865
0.0127856
0.0127846
0.0127835
0.0127821
0.0127805
0.0127787
0.0127765
0.0127741
0.0127712
0.0127679
0.0127642
0.01276
0.0127553
0.0127501
0.0127444
0.012738
0.0138917
0.0138992
0.013906
0.0139122
0.0139178
0.0139228
0.0139273
0.0139312
0.0139346
0.0139376
0.0139401
0.0139423
0.0139442
0.0139458
0.0139472
0.0139484
0.0139494
0.0139502
0.0139509
0.0139515
0.013952
0.0139525
0.0139528
0.0139531
0.0139533
0.0139535
0.0139536
0.0139537
0.0139538
0.0139538
0.0139538
0.0139538
0.0139537
0.0139536
0.0139535
0.0139533
0.0139531
0.0139528
0.0139525
0.013952
0.0139515
0.0139509
0.0139502
0.0139494
0.0139484
0.0139472
0.0139458
0.0139442
0.0139423
0.0139401
0.0139376
0.0139346
0.0139312
0.0139273
0.0139228
0.0139178
0.0139122
0.013906
0.0138992
0.0138917
0.0153937
0.0154028
0.0154111
0.0154187
0.0154256
0.0154317
0.0154372
0.015442
0.0154461
0.0154498
0.0154529
0.0154556
0.015458
0.0154599
0.0154616
0.0154631
0.0154643
0.0154653
0.0154662
0.0154669
0.0154676
0.0154681
0.0154685
0.0154688
0.0154691
0.0154693
0.0154695
0.0154696
0.0154697
0.0154698
0.0154698
0.0154697
0.0154696
0.0154695
0.0154693
0.0154691
0.0154688
0.0154685
0.0154681
0.0154676
0.0154669
0.0154662
0.0154653
0.0154643
0.0154631
0.0154616
0.0154599
0.015458
0.0154556
0.0154529
0.0154498
0.0154461
0.015442
0.0154372
0.0154317
0.0154256
0.0154187
0.0154111
0.0154028
0.0153937
0.0173845
0.0173959
0.0174063
0.0174158
0.0174244
0.0174321
0.017439
0.017445
0.0174502
0.0174548
0.0174587
0.0174621
0.017465
0.0174675
0.0174697
0.0174715
0.017473
0.0174743
0.0174754
0.0174763
0.0174771
0.0174777
0.0174783
0.0174787
0.0174791
0.0174793
0.0174796
0.0174797
0.0174798
0.0174799
0.0174799
0.0174798
0.0174797
0.0174796
0.0174793
0.0174791
0.0174787
0.0174783
0.0174777
0.0174771
0.0174763
0.0174754
0.0174743
0.017473
0.0174715
0.0174697
0.0174675
0.017465
0.0174621
0.0174587
0.0174548
0.0174502
0.017445
0.017439
0.0174321
0.0174244
0.0174158
0.0174063
0.0173959
0.0173845
0.0200397
0.0200541
0.0200672
0.0200794
0.0200903
0.0201001
0.0201088
0.0201165
0.0201231
0.0201289
0.020134
0.0201383
0.020142
0.0201452
0.0201479
0.0201502
0.0201522
0.0201538
0.0201552
0.0201564
0.0201574
0.0201582
0.0201589
0.0201594
0.0201599
0.0201602
0.0201605
0.0201607
0.0201608
0.0201609
0.0201609
0.0201608
0.0201607
0.0201605
0.0201602
0.0201599
0.0201594
0.0201589
0.0201582
0.0201574
0.0201564
0.0201552
0.0201538
0.0201522
0.0201502
0.0201479
0.0201452
0.020142
0.0201383
0.020134
0.0201289
0.0201231
0.0201165
0.0201088
0.0201001
0.0200903
0.0200794
0.0200672
0.0200541
0.0200397
0.0235436
0.0235618
0.0235785
0.0235939
0.0236078
0.0236203
0.0236313
0.023641
0.0236495
0.0236569
0.0236632
0.0236687
0.0236734
0.0236775
0.0236809
0.0236839
0.0236863
0.0236884
0.0236902
0.0236917
0.023693
0.023694
0.0236949
0.0236956
0.0236962
0.0236966
0.023697
0.0236972
0.0236974
0.0236975
0.0236975
0.0236974
0.0236972
0.023697
0.0236966
0.0236962
0.0236956
0.0236949
0.023694
0.023693
0.0236917
0.0236902
0.0236884
0.0236863
0.0236839
0.0236809
0.0236775
0.0236734
0.0236687
0.0236632
0.0236569
0.0236495
0.023641
0.0236313
0.0236203
0.0236078
0.0235939
0.0235785
0.0235618
0.0235436
0.0280391
0.0280618
0.0280827
0.0281019
0.0281192
0.0281347
0.0281485
0.0281606
0.0281712
0.0281803
0.0281883
0.0281952
0.0282011
0.0282061
0.0282104
0.0282141
0.0282172
0.0282198
0.028222
0.0282239
0.0282254
0.0282267
0.0282278
0.0282287
0.0282294
0.02823
0.0282304
0.0282307
0.028231
0.0282311
0.0282311
0.028231
0.0282307
0.0282304
0.02823
0.0282294
0.0282287
0.0282278
0.0282267
0.0282254
0.0282239
0.028222
0.0282198
0.0282172
0.0282141
0.0282104
0.0282061
0.0282011
0.0281952
0.0281883
0.0281803
0.0281712
0.0281606
0.0281485
0.0281347
0.0281192
0.0281019
0.0280827
0.0280618
0.0280391
0.0335731
0.0336007
0.033626
0.0336492
0.0336702
0.033689
0.0337057
0.0337203
0.0337331
0.0337443
0.0337539
0.0337622
0.0337694
0.0337755
0.0337807
0.0337851
0.0337889
0.0337921
0.0337948
0.033797
0.0337989
0.0338005
0.0338018
0.0338029
0.0338038
0.0338045
0.033805
0.0338054
0.0338056
0.0338058
0.0338058
0.0338056
0.0338054
0.033805
0.0338045
0.0338038
0.0338029
0.0338018
0.0338005
0.0337989
0.033797
0.0337948
0.0337921
0.0337889
0.0337851
0.0337807
0.0337755
0.0337694
0.0337622
0.0337539
0.0337443
0.0337331
0.0337203
0.0337057
0.033689
0.0336702
0.0336492
0.033626
0.0336007
0.0335731
0.0400745
0.0401069
0.0401367
0.0401639
0.0401885
0.0402105
0.04023
0.0402471
0.0402621
0.0402752
0.0402865
0.0402962
0.0403046
0.0403117
0.0403179
0.0403231
0.0403275
0.0403312
0.0403344
0.0403371
0.0403393
0.0403411
0.0403427
0.040344
0.040345
0.0403458
0.0403464
0.0403469
0.0403472
0.0403473
0.0403473
0.0403472
0.0403469
0.0403464
0.0403458
0.040345
0.040344
0.0403427
0.0403411
0.0403393
0.0403371
0.0403344
0.0403312
0.0403275
0.0403231
0.0403179
0.0403117
0.0403046
0.0402962
0.0402865
0.0402752
0.0402621
0.0402471
0.04023
0.0402105
0.0401885
0.0401639
0.0401367
0.0401069
0.0400745
0.0473832
0.0474204
0.0474542
0.0474852
0.0475131
0.047538
0.0475602
0.0475796
0.0475967
0.0476115
0.0476244
0.0476354
0.047645
0.0476531
0.0476601
0.047666
0.047671
0.0476753
0.0476789
0.0476819
0.0476845
0.0476866
0.0476884
0.0476898
0.047691
0.0476919
0.0476926
0.0476932
0.0476935
0.0476937
0.0476937
0.0476935
0.0476932
0.0476926
0.0476919
0.047691
0.0476898
0.0476884
0.0476866
0.0476845
0.0476819
0.0476789
0.0476753
0.047671
0.047666
0.0476601
0.0476531
0.047645
0.0476354
0.0476244
0.0476115
0.0475967
0.0475796
0.0475602
0.047538
0.0475131
0.0474852
0.0474542
0.0474204
0.0473832
0.0553109
0.0553523
0.05539
0.0554243
0.0554552
0.0554829
0.0555074
0.055529
0.0555479
0.0555644
0.0555786
0.0555909
0.0556015
0.0556106
0.0556183
0.0556249
0.0556305
0.0556352
0.0556393
0.0556426
0.0556455
0.0556478
0.0556498
0.0556514
0.0556527
0.0556538
0.0556546
0.0556551
0.0556555
0.0556557
0.0556557
0.0556555
0.0556551
0.0556546
0.0556538
0.0556527
0.0556514
0.0556498
0.0556478
0.0556455
0.0556426
0.0556393
0.0556352
0.0556305
0.0556249
0.0556183
0.0556106
0.0556015
0.0555909
0.0555786
0.0555644
0.0555479
0.055529
0.0555074
0.0554829
0.0554552
0.0554243
0.05539
0.0553523
0.0553109
0.0636926
0.0637379
0.0637791
0.0638165
0.0638502
0.0638803
0.0639071
0.0639306
0.0639512
0.0639691
0.0639847
0.0639981
0.0640097
0.0640196
0.064028
0.0640353
0.0640414
0.0640466
0.064051
0.0640547
0.0640578
0.0640604
0.0640626
0.0640643
0.0640658
0.0640669
0.0640678
0.0640684
0.0640689
0.0640691
0.0640691
0.0640689
0.0640684
0.0640678
0.0640669
0.0640658
0.0640643
0.0640626
0.0640604
0.0640578
0.0640547
0.064051
0.0640466
0.0640414
0.0640353
0.064028
0.0640196
0.0640097
0.0639981
0.0639847
0.0639691
0.0639512
0.0639306
0.0639071
0.0638803
0.0638502
0.0638165
0.0637791
0.0637379
0.0636926
0.0724092
0.0724583
0.0725027
0.072543
0.0725793
0.0726118
0.0726406
0.0726659
0.0726881
0.0727075
0.0727243
0.0727388
0.0727513
0.072762
0.0727711
0.0727789
0.0727856
0.0727912
0.072796
0.0728
0.0728034
0.0728062
0.0728086
0.0728105
0.0728121
0.0728133
0.0728143
0.0728149
0.0728154
0.0728156
0.0728156
0.0728154
0.0728149
0.0728143
0.0728133
0.0728121
0.0728105
0.0728086
0.0728062
0.0728034
0.0728
0.072796
0.0727912
0.0727856
0.0727789