/*--------------------------------*- C++ -*----------------------------------*\
| =========                 |                                                 |
| \\      /  F ield         | foam-extend: Open Source CFD                    |
|  \\    /   O peration     | Version:     4.0                                |
|   \\  /    A nd           | Web:         http://www.foam-extend.org         |
|    \\/     M anipulation  |                                                 |
\*---------------------------------------------------------------------------*/
FoamFile
{
    version     2.0;
    format      ascii;
    class       volScalarField;
    location    "1560";
    object      psiE;
}
// * * * * * * * * * * * * * * * * * * * * * * * * * * * * * * * * * * * * * //

dimensions      [0 0 0 0 0 0 0];

internalField   nonuniform List<scalar> 
6960
(
0.342565
0.342573
0.342583
0.342592
0.342601
0.342609
0.342615
0.342622
0.342627
0.342632
0.342636
0.342639
0.342642
0.342645
0.342647
0.342649
0.342651
0.342652
0.342653
0.342654
0.342655
0.342656
0.342656
0.342657
0.342657
0.342657
0.342657
0.342658
0.342658
0.342658
0.342658
0.342658
0.342658
0.342657
0.342657
0.342657
0.342657
0.342656
0.342656
0.342655
0.342654
0.342653
0.342652
0.342651
0.342649
0.342647
0.342645
0.342642
0.342639
0.342636
0.342632
0.342627
0.342622
0.342615
0.342609
0.342601
0.342592
0.342583
0.342573
0.342565
0.866933
0.866966
0.867004
0.867042
0.867077
0.867109
0.867137
0.867162
0.867184
0.867203
0.867219
0.867234
0.867246
0.867256
0.867265
0.867273
0.867279
0.867285
0.867289
0.867293
0.867296
0.867299
0.867301
0.867303
0.867305
0.867306
0.867307
0.867308
0.867308
0.867308
0.867308
0.867308
0.867308
0.867307
0.867306
0.867305
0.867303
0.867301
0.867299
0.867296
0.867293
0.867289
0.867285
0.867279
0.867273
0.867265
0.867256
0.867246
0.867234
0.867219
0.867203
0.867184
0.867162
0.867137
0.867109
0.867077
0.867042
0.867004
0.866966
0.866933
1.34909
1.34916
1.34923
1.34931
1.34937
1.34944
1.34949
1.34954
1.34958
1.34962
1.34965
1.34968
1.3497
1.34973
1.34974
1.34976
1.34977
1.34978
1.34979
1.3498
1.3498
1.34981
1.34981
1.34982
1.34982
1.34982
1.34982
1.34983
1.34983
1.34983
1.34983
1.34983
1.34983
1.34982
1.34982
1.34982
1.34982
1.34981
1.34981
1.3498
1.3498
1.34979
1.34978
1.34977
1.34976
1.34974
1.34973
1.3497
1.34968
1.34965
1.34962
1.34958
1.34954
1.34949
1.34944
1.34937
1.34931
1.34923
1.34916
1.34909
1.82221
1.82231
1.82243
1.82254
1.82265
1.82275
1.82283
1.82291
1.82298
1.82303
1.82308
1.82313
1.82316
1.8232
1.82322
1.82325
1.82327
1.82328
1.8233
1.82331
1.82332
1.82333
1.82333
1.82334
1.82334
1.82335
1.82335
1.82335
1.82335
1.82335
1.82335
1.82335
1.82335
1.82335
1.82335
1.82334
1.82334
1.82333
1.82333
1.82332
1.82331
1.8233
1.82328
1.82327
1.82325
1.82322
1.8232
1.82316
1.82313
1.82308
1.82303
1.82298
1.82291
1.82283
1.82275
1.82265
1.82254
1.82243
1.82231
1.82221
2.29822
2.29836
2.29852
2.29868
2.29883
2.29897
2.29909
2.29919
2.29928
2.29936
2.29943
2.29949
2.29954
2.29959
2.29963
2.29966
2.29968
2.29971
2.29973
2.29974
2.29976
2.29977
2.29978
2.29979
2.29979
2.2998
2.2998
2.2998
2.29981
2.29981
2.29981
2.29981
2.2998
2.2998
2.2998
2.29979
2.29979
2.29978
2.29977
2.29976
2.29974
2.29973
2.29971
2.29968
2.29966
2.29963
2.29959
2.29954
2.29949
2.29943
2.29936
2.29928
2.29919
2.29909
2.29897
2.29883
2.29868
2.29852
2.29836
2.29822
2.78162
2.7818
2.78201
2.78221
2.78241
2.78258
2.78273
2.78287
2.78299
2.78309
2.78318
2.78326
2.78332
2.78338
2.78343
2.78347
2.7835
2.78353
2.78356
2.78358
2.7836
2.78361
2.78362
2.78363
2.78364
2.78365
2.78365
2.78366
2.78366
2.78366
2.78366
2.78366
2.78366
2.78365
2.78365
2.78364
2.78363
2.78362
2.78361
2.7836
2.78358
2.78356
2.78353
2.7835
2.78347
2.78343
2.78338
2.78332
2.78326
2.78318
2.78309
2.78299
2.78287
2.78273
2.78258
2.78241
2.78221
2.78201
2.7818
2.78162
3.27408
3.2743
3.27456
3.27481
3.27505
3.27526
3.27545
3.27561
3.27576
3.27589
3.276
3.27609
3.27617
3.27624
3.2763
3.27635
3.2764
3.27643
3.27646
3.27649
3.27651
3.27653
3.27654
3.27656
3.27657
3.27658
3.27658
3.27659
3.27659
3.27659
3.27659
3.27659
3.27659
3.27658
3.27658
3.27657
3.27656
3.27654
3.27653
3.27651
3.27649
3.27646
3.27643
3.2764
3.27635
3.2763
3.27624
3.27617
3.27609
3.276
3.27589
3.27576
3.27561
3.27545
3.27526
3.27505
3.27481
3.27456
3.2743
3.27408
3.77621
3.77647
3.77677
3.77708
3.77736
3.77761
3.77783
3.77803
3.77821
3.77836
3.77849
3.7786
3.7787
3.77878
3.77885
3.77891
3.77896
3.77901
3.77904
3.77907
3.7791
3.77912
3.77914
3.77915
3.77917
3.77917
3.77918
3.77919
3.77919
3.77919
3.77919
3.77919
3.77919
3.77918
3.77917
3.77917
3.77915
3.77914
3.77912
3.7791
3.77907
3.77904
3.77901
3.77896
3.77891
3.77885
3.77878
3.7787
3.7786
3.77849
3.77836
3.77821
3.77803
3.77783
3.77761
3.77736
3.77708
3.77677
3.77647
3.77621
4.2882
4.28849
4.28885
4.2892
4.28952
4.28982
4.29008
4.29031
4.29051
4.29068
4.29084
4.29097
4.29108
4.29117
4.29126
4.29133
4.29139
4.29144
4.29148
4.29151
4.29154
4.29157
4.29159
4.29161
4.29162
4.29163
4.29164
4.29165
4.29165
4.29165
4.29165
4.29165
4.29165
4.29164
4.29163
4.29162
4.29161
4.29159
4.29157
4.29154
4.29151
4.29148
4.29144
4.29139
4.29133
4.29126
4.29117
4.29108
4.29097
4.29084
4.29068
4.29051
4.29031
4.29008
4.28982
4.28952
4.2892
4.28885
4.28849
4.2882
4.81005
4.81038
4.81079
4.81119
4.81156
4.81189
4.81219
4.81245
4.81268
4.81288
4.81305
4.8132
4.81333
4.81344
4.81353
4.81361
4.81368
4.81374
4.81379
4.81383
4.81386
4.81389
4.81391
4.81393
4.81395
4.81396
4.81397
4.81398
4.81398
4.81398
4.81398
4.81398
4.81398
4.81397
4.81396
4.81395
4.81393
4.81391
4.81389
4.81386
4.81383
4.81379
4.81374
4.81368
4.81361
4.81353
4.81344
4.81333
4.8132
4.81305
4.81288
4.81268
4.81245
4.81219
4.81189
4.81156
4.81119
4.81079
4.81038
4.81005
5.3417
5.34208
5.34253
5.34298
5.3434
5.34377
5.34411
5.3444
5.34466
5.34488
5.34508
5.34524
5.34539
5.34551
5.34562
5.3457
5.34578
5.34584
5.3459
5.34594
5.34598
5.34602
5.34604
5.34606
5.34608
5.3461
5.34611
5.34611
5.34612
5.34612
5.34612
5.34612
5.34611
5.34611
5.3461
5.34608
5.34606
5.34604
5.34602
5.34598
5.34594
5.3459
5.34584
5.34578
5.3457
5.34562
5.34551
5.34539
5.34524
5.34508
5.34488
5.34466
5.3444
5.34411
5.34377
5.3434
5.34298
5.34253
5.34208
5.3417
5.88305
5.88346
5.88396
5.88446
5.88492
5.88534
5.88571
5.88604
5.88632
5.88657
5.88679
5.88697
5.88713
5.88727
5.88738
5.88748
5.88757
5.88764
5.8877
5.88775
5.88779
5.88783
5.88786
5.88788
5.8879
5.88792
5.88793
5.88794
5.88794
5.88795
5.88795
5.88794
5.88794
5.88793
5.88792
5.8879
5.88788
5.88786
5.88783
5.88779
5.88775
5.8877
5.88764
5.88757
5.88748
5.88738
5.88727
5.88713
5.88697
5.88679
5.88657
5.88632
5.88604
5.88571
5.88534
5.88492
5.88446
5.88396
5.88346
5.88305
6.43391
6.43437
6.43492
6.43547
6.43597
6.43643
6.43684
6.4372
6.43751
6.43778
6.43802
6.43822
6.4384
6.43855
6.43868
6.43879
6.43888
6.43896
6.43902
6.43908
6.43913
6.43917
6.4392
6.43922
6.43925
6.43926
6.43928
6.43929
6.43929
6.4393
6.4393
6.43929
6.43929
6.43928
6.43926
6.43925
6.43922
6.4392
6.43917
6.43913
6.43908
6.43902
6.43896
6.43888
6.43879
6.43868
6.43855
6.4384
6.43822
6.43802
6.43778
6.43751
6.4372
6.43684
6.43643
6.43597
6.43547
6.43492
6.43437
6.43391
6.9941
6.99459
6.9952
6.99579
6.99634
6.99684
6.99729
6.99768
6.99802
6.99832
6.99857
6.9988
6.99899
6.99915
6.99929
6.99941
6.99951
6.99959
6.99967
6.99973
6.99978
6.99982
6.99986
6.99989
6.99991
6.99993
6.99994
6.99995
6.99996
6.99996
6.99996
6.99996
6.99995
6.99994
6.99993
6.99991
6.99989
6.99986
6.99982
6.99978
6.99973
6.99967
6.99959
6.99951
6.99941
6.99929
6.99915
6.99899
6.9988
6.99857
6.99832
6.99802
6.99768
6.99729
6.99684
6.99634
6.99579
6.9952
6.99459
6.9941
7.56335
7.56389
7.56454
7.56518
7.56578
7.56632
7.5668
7.56722
7.56759
7.56791
7.56819
7.56843
7.56864
7.56881
7.56897
7.56909
7.5692
7.5693
7.56937
7.56944
7.5695
7.56954
7.56958
7.56961
7.56964
7.56966
7.56967
7.56968
7.56969
7.5697
7.5697
7.56969
7.56968
7.56967
7.56966
7.56964
7.56961
7.56958
7.56954
7.5695
7.56944
7.56937
7.5693
7.5692
7.56909
7.56897
7.56881
7.56864
7.56843
7.56819
7.56791
7.56759
7.56722
7.5668
7.56632
7.56578
7.56518
7.56454
7.56389
7.56335
8.14137
8.14194
8.14264
8.14333
8.14397
8.14455
8.14507
8.14552
8.14592
8.14627
8.14657
8.14682
8.14705
8.14724
8.1474
8.14754
8.14766
8.14775
8.14784
8.14791
8.14797
8.14802
8.14806
8.14809
8.14812
8.14814
8.14816
8.14817
8.14818
8.14818
8.14818
8.14818
8.14817
8.14816
8.14814
8.14812
8.14809
8.14806
8.14802
8.14797
8.14791
8.14784
8.14775
8.14766
8.14754
8.1474
8.14724
8.14705
8.14682
8.14657
8.14627
8.14592
8.14552
8.14507
8.14455
8.14397
8.14333
8.14264
8.14194
8.14137
8.72778
8.72839
8.72914
8.72988
8.73056
8.73118
8.73173
8.73222
8.73264
8.73301
8.73333
8.73361
8.73385
8.73405
8.73422
8.73437
8.7345
8.7346
8.73469
8.73477
8.73483
8.73489
8.73493
8.73497
8.735
8.73502
8.73504
8.73505
8.73506
8.73506
8.73506
8.73506
8.73505
8.73504
8.73502
8.735
8.73497
8.73493
8.73489
8.73483
8.73477
8.73469
8.7346
8.7345
8.73437
8.73422
8.73405
8.73385
8.73361
8.73333
8.73301
8.73264
8.73222
8.73173
8.73118
8.73056
8.72988
8.72914
8.72839
8.72778
9.32215
9.3228
9.32359
9.32438
9.32511
9.32577
9.32635
9.32687
9.32732
9.32772
9.32806
9.32835
9.3286
9.32882
9.329
9.32916
9.32929
9.32941
9.3295
9.32958
9.32965
9.32971
9.32975
9.32979
9.32982
9.32985
9.32987
9.32988
9.32989
9.3299
9.3299
9.32989
9.32988
9.32987
9.32985
9.32982
9.32979
9.32975
9.32971
9.32965
9.32958
9.3295
9.32941
9.32929
9.32916
9.329
9.32882
9.3286
9.32835
9.32806
9.32772
9.32732
9.32687
9.32635
9.32577
9.32511
9.32438
9.32359
9.3228
9.32215
9.92398
9.92466
9.92551
9.92634
9.92711
9.92781
9.92843
9.92897
9.92945
9.92987
9.93023
9.93054
9.93081
9.93104
9.93123
9.9314
9.93154
9.93166
9.93176
9.93185
9.93192
9.93198
9.93203
9.93207
9.9321
9.93213
9.93215
9.93216
9.93217
9.93218
9.93218
9.93217
9.93216
9.93215
9.93213
9.9321
9.93207
9.93203
9.93198
9.93192
9.93185
9.93176
9.93166
9.93154
9.9314
9.93123
9.93104
9.93081
9.93054
9.93023
9.92987
9.92945
9.92897
9.92843
9.92781
9.92711
9.92634
9.92551
9.92466
9.92398
10.5327
10.5334
10.5343
10.5352
10.536
10.5367
10.5374
10.5379
10.5384
10.5389
10.5393
10.5396
10.5399
10.5401
10.5403
10.5405
10.5406
10.5408
10.5409
10.541
10.541
10.5411
10.5412
10.5412
10.5412
10.5413
10.5413
10.5413
10.5413
10.5413
10.5413
10.5413
10.5413
10.5413
10.5413
10.5412
10.5412
10.5412
10.5411
10.541
10.541
10.5409
10.5408
10.5406
10.5405
10.5403
10.5401
10.5399
10.5396
10.5393
10.5389
10.5384
10.5379
10.5374
10.5367
10.536
10.5352
10.5343
10.5334
10.5327
11.1475
11.1483
11.1492
11.1502
11.151
11.1518
11.1525
11.1531
11.1536
11.1541
11.1545
11.1548
11.1551
11.1553
11.1556
11.1557
11.1559
11.156
11.1561
11.1562
11.1563
11.1564
11.1564
11.1565
11.1565
11.1566
11.1566
11.1566
11.1566
11.1566
11.1566
11.1566
11.1566
11.1566
11.1566
11.1565
11.1565
11.1564
11.1564
11.1563
11.1562
11.1561
11.156
11.1559
11.1557
11.1556
11.1553
11.1551
11.1548
11.1545
11.1541
11.1536
11.1531
11.1525
11.1518
11.151
11.1502
11.1492
11.1483
11.1475
11.7678
11.7686
11.7696
11.7705
11.7714
11.7722
11.7729
11.7736
11.7741
11.7746
11.775
11.7754
11.7757
11.776
11.7762
11.7764
11.7765
11.7767
11.7768
11.7769
11.777
11.777
11.7771
11.7771
11.7772
11.7772
11.7772
11.7773
11.7773
11.7773
11.7773
11.7773
11.7773
11.7772
11.7772
11.7772
11.7771
11.7771
11.777
11.777
11.7769
11.7768
11.7767
11.7765
11.7764
11.7762
11.776
11.7757
11.7754
11.775
11.7746
11.7741
11.7736
11.7729
11.7722
11.7714
11.7705
11.7696
11.7686
11.7678
12.3925
12.3934
12.3944
12.3954
12.3963
12.3971
12.3979
12.3985
12.3991
12.3996
12.4
12.4004
12.4007
12.401
12.4012
12.4014
12.4016
12.4018
12.4019
12.402
12.4021
12.4021
12.4022
12.4023
12.4023
12.4023
12.4024
12.4024
12.4024
12.4024
12.4024
12.4024
12.4024
12.4024
12.4023
12.4023
12.4023
12.4022
12.4021
12.4021
12.402
12.4019
12.4018
12.4016
12.4014
12.4012
12.401
12.4007
12.4004
12.4
12.3996
12.3991
12.3985
12.3979
12.3971
12.3963
12.3954
12.3944
12.3934
12.3925
13.0207
13.0215
13.0226
13.0236
13.0246
13.0254
13.0262
13.0269
13.0275
13.028
13.0285
13.0288
13.0292
13.0295
13.0297
13.0299
13.0301
13.0302
13.0304
13.0305
13.0306
13.0306
13.0307
13.0308
13.0308
13.0308
13.0309
13.0309
13.0309
13.0309
13.0309
13.0309
13.0309
13.0309
13.0308
13.0308
13.0308
13.0307
13.0306
13.0306
13.0305
13.0304
13.0302
13.0301
13.0299
13.0297
13.0295
13.0292
13.0288
13.0285
13.028
13.0275
13.0269
13.0262
13.0254
13.0246
13.0236
13.0226
13.0215
13.0207
13.651
13.6519
13.653
13.6541
13.6551
13.6559
13.6567
13.6574
13.6581
13.6586
13.6591
13.6595
13.6598
13.6601
13.6604
13.6606
13.6607
13.6609
13.661
13.6611
13.6612
13.6613
13.6614
13.6614
13.6615
13.6615
13.6615
13.6616
13.6616
13.6616
13.6616
13.6616
13.6616
13.6615
13.6615
13.6615
13.6614
13.6614
13.6613
13.6612
13.6611
13.661
13.6609
13.6607
13.6606
13.6604
13.6601
13.6598
13.6595
13.6591
13.6586
13.6581
13.6574
13.6567
13.6559
13.6551
13.6541
13.653
13.6519
13.651
14.2822
14.2831
14.2842
14.2853
14.2863
14.2872
14.2881
14.2888
14.2894
14.29
14.2904
14.2909
14.2912
14.2915
14.2918
14.292
14.2922
14.2923
14.2925
14.2926
14.2927
14.2928
14.2928
14.2929
14.2929
14.293
14.293
14.293
14.293
14.293
14.293
14.293
14.293
14.293
14.293
14.2929
14.2929
14.2928
14.2928
14.2927
14.2926
14.2925
14.2923
14.2922
14.292
14.2918
14.2915
14.2912
14.2909
14.2904
14.29
14.2894
14.2888
14.2881
14.2872
14.2863
14.2853
14.2842
14.2831
14.2822
14.9125
14.9135
14.9146
14.9157
14.9168
14.9177
14.9186
14.9193
14.9199
14.9205
14.921
14.9214
14.9218
14.9221
14.9223
14.9226
14.9228
14.9229
14.9231
14.9232
14.9233
14.9234
14.9234
14.9235
14.9235
14.9236
14.9236
14.9236
14.9236
14.9236
14.9236
14.9236
14.9236
14.9236
14.9236
14.9235
14.9235
14.9234
14.9234
14.9233
14.9232
14.9231
14.9229
14.9228
14.9226
14.9223
14.9221
14.9218
14.9214
14.921
14.9205
14.9199
14.9193
14.9186
14.9177
14.9168
14.9157
14.9146
14.9135
14.9125
15.5402
15.5412
15.5423
15.5435
15.5445
15.5455
15.5464
15.5471
15.5478
15.5483
15.5488
15.5493
15.5496
15.55
15.5502
15.5505
15.5506
15.5508
15.551
15.5511
15.5512
15.5513
15.5513
15.5514
15.5514
15.5515
15.5515
15.5515
15.5515
15.5515
15.5515
15.5515
15.5515
15.5515
15.5515
15.5514
15.5514
15.5513
15.5513
15.5512
15.5511
15.551
15.5508
15.5506
15.5505
15.5502
15.55
15.5496
15.5493
15.5488
15.5483
15.5478
15.5471
15.5464
15.5455
15.5445
15.5435
15.5423
15.5412
15.5402
16.1631
16.1641
16.1653
16.1664
16.1675
16.1685
16.1693
16.1701
16.1708
16.1713
16.1718
16.1723
16.1727
16.173
16.1732
16.1735
16.1737
16.1738
16.174
16.1741
16.1742
16.1743
16.1744
16.1744
16.1745
16.1745
16.1745
16.1746
16.1746
16.1746
16.1746
16.1746
16.1746
16.1745
16.1745
16.1745
16.1744
16.1744
16.1743
16.1742
16.1741
16.174
16.1738
16.1737
16.1735
16.1732
16.173
16.1727
16.1723
16.1718
16.1713
16.1708
16.1701
16.1693
16.1685
16.1675
16.1664
16.1653
16.1641
16.1631
16.7787
16.7797
16.7809
16.782
16.7831
16.7841
16.785
16.7857
16.7864
16.787
16.7875
16.7879
16.7883
16.7886
16.7889
16.7891
16.7893
16.7895
16.7897
16.7898
16.7899
16.79
16.79
16.7901
16.7901
16.7902
16.7902
16.7902
16.7902
16.7902
16.7902
16.7902
16.7902
16.7902
16.7902
16.7901
16.7901
16.79
16.79
16.7899
16.7898
16.7897
16.7895
16.7893
16.7891
16.7889
16.7886
16.7883
16.7879
16.7875
16.787
16.7864
16.7857
16.785
16.7841
16.7831
16.782
16.7809
16.7797
16.7787
17.3841
17.3851
17.3863
17.3874
17.3885
17.3895
17.3904
17.3911
17.3918
17.3924
17.3929
17.3933
17.3937
17.394
17.3943
17.3945
17.3947
17.3949
17.3951
17.3952
17.3953
17.3954
17.3954
17.3955
17.3955
17.3956
17.3956
17.3956
17.3956
17.3956
17.3956
17.3956
17.3956
17.3956
17.3956
17.3955
17.3955
17.3954
17.3954
17.3953
17.3952
17.3951
17.3949
17.3947
17.3945
17.3943
17.394
17.3937
17.3933
17.3929
17.3924
17.3918
17.3911
17.3904
17.3895
17.3885
17.3874
17.3863
17.3851
17.3841
17.9759
17.9769
17.9781
17.9792
17.9803
17.9812
17.9821
17.9829
17.9835
17.9841
17.9846
17.985
17.9854
17.9857
17.986
17.9862
17.9864
17.9866
17.9867
17.9869
17.987
17.9871
17.9871
17.9872
17.9872
17.9873
17.9873
17.9873
17.9873
17.9873
17.9873
17.9873
17.9873
17.9873
17.9873
17.9872
17.9872
17.9871
17.9871
17.987
17.9869
17.9867
17.9866
17.9864
17.9862
17.986
17.9857
17.9854
17.985
17.9846
17.9841
17.9835
17.9829
17.9821
17.9812
17.9803
17.9792
17.9781
17.9769
17.9759
18.55
18.551
18.5522
18.5533
18.5543
18.5553
18.5561
18.5569
18.5575
18.5581
18.5586
18.559
18.5594
18.5597
18.56
18.5602
18.5604
18.5605
18.5607
18.5608
18.5609
18.561
18.5611
18.5611
18.5612
18.5612
18.5612
18.5612
18.5613
18.5613
18.5613
18.5613
18.5612
18.5612
18.5612
18.5612
18.5611
18.5611
18.561
18.5609
18.5608
18.5607
18.5605
18.5604
18.5602
18.56
18.5597
18.5594
18.559
18.5586
18.5581
18.5575
18.5569
18.5561
18.5553
18.5543
18.5533
18.5522
18.551
18.55
19.1017
19.1027
19.1038
19.1049
19.1059
19.1069
19.1077
19.1084
19.109
19.1096
19.11
19.1105
19.1108
19.1111
19.1114
19.1116
19.1118
19.1119
19.1121
19.1122
19.1123
19.1124
19.1124
19.1125
19.1125
19.1126
19.1126
19.1126
19.1126
19.1126
19.1126
19.1126
19.1126
19.1126
19.1126
19.1125
19.1125
19.1124
19.1124
19.1123
19.1122
19.1121
19.1119
19.1118
19.1116
19.1114
19.1111
19.1108
19.1105
19.11
19.1096
19.109
19.1084
19.1077
19.1069
19.1059
19.1049
19.1038
19.1027
19.1017
19.6253
19.6263
19.6273
19.6284
19.6293
19.6302
19.631
19.6317
19.6323
19.6328
19.6332
19.6336
19.634
19.6343
19.6345
19.6347
19.6349
19.6351
19.6352
19.6353
19.6354
19.6355
19.6355
19.6356
19.6356
19.6357
19.6357
19.6357
19.6357
19.6357
19.6357
19.6357
19.6357
19.6357
19.6357
19.6356
19.6356
19.6355
19.6355
19.6354
19.6353
19.6352
19.6351
19.6349
19.6347
19.6345
19.6343
19.634
19.6336
19.6332
19.6328
19.6323
19.6317
19.631
19.6302
19.6293
19.6284
19.6273
19.6263
19.6253
20.1141
20.115
20.116
20.117
20.1179
20.1187
20.1194
20.12
20.1206
20.1211
20.1215
20.1219
20.1222
20.1224
20.1227
20.1229
20.123
20.1232
20.1233
20.1234
20.1235
20.1236
20.1236
20.1237
20.1237
20.1237
20.1238
20.1238
20.1238
20.1238
20.1238
20.1238
20.1238
20.1238
20.1237
20.1237
20.1237
20.1236
20.1236
20.1235
20.1234
20.1233
20.1232
20.123
20.1229
20.1227
20.1224
20.1222
20.1219
20.1215
20.1211
20.1206
20.12
20.1194
20.1187
20.1179
20.117
20.116
20.115
20.1141
20.5607
20.5614
20.5623
20.5632
20.564
20.5647
20.5654
20.566
20.5665
20.5669
20.5673
20.5676
20.5679
20.5682
20.5684
20.5685
20.5687
20.5688
20.5689
20.569
20.5691
20.5692
20.5692
20.5693
20.5693
20.5693
20.5694
20.5694
20.5694
20.5694
20.5694
20.5694
20.5694
20.5694
20.5693
20.5693
20.5693
20.5692
20.5692
20.5691
20.569
20.5689
20.5688
20.5687
20.5685
20.5684
20.5682
20.5679
20.5676
20.5673
20.5669
20.5665
20.566
20.5654
20.5647
20.564
20.5632
20.5623
20.5614
20.5607
20.9574
20.9581
20.9588
20.9596
20.9603
20.9609
20.9615
20.962
20.9624
20.9628
20.9631
20.9634
20.9637
20.9639
20.9641
20.9642
20.9644
20.9645
20.9646
20.9647
20.9647
20.9648
20.9648
20.9649
20.9649
20.9649
20.9649
20.965
20.965
20.965
20.965
20.965
20.965
20.9649
20.9649
20.9649
20.9649
20.9648
20.9648
20.9647
20.9647
20.9646
20.9645
20.9644
20.9642
20.9641
20.9639
20.9637
20.9634
20.9631
20.9628
20.9624
20.962
20.9615
20.9609
20.9603
20.9596
20.9588
20.9581
20.9574
21.2984
21.299
21.2996
21.3002
21.3008
21.3013
21.3018
21.3022
21.3026
21.3029
21.3032
21.3034
21.3036
21.3038
21.3039
21.3041
21.3042
21.3043
21.3044
21.3044
21.3045
21.3045
21.3046
21.3046
21.3046
21.3047
21.3047
21.3047
21.3047
21.3047
21.3047
21.3047
21.3047
21.3047
21.3047
21.3046
21.3046
21.3046
21.3045
21.3045
21.3044
21.3044
21.3043
21.3042
21.3041
21.3039
21.3038
21.3036
21.3034
21.3032
21.3029
21.3026
21.3022
21.3018
21.3013
21.3008
21.3002
21.2996
21.299
21.2984
21.5816
21.582
21.5825
21.583
21.5834
21.5839
21.5842
21.5845
21.5848
21.5851
21.5853
21.5855
21.5857
21.5858
21.5859
21.586
21.5861
21.5862
21.5863
21.5863
21.5864
21.5864
21.5864
21.5865
21.5865
21.5865
21.5865
21.5865
21.5865
21.5865
21.5865
21.5865
21.5865
21.5865
21.5865
21.5865
21.5865
21.5864
21.5864
21.5864
21.5863
21.5863
21.5862
21.5861
21.586
21.5859
21.5858
21.5857
21.5855
21.5853
21.5851
21.5848
21.5845
21.5842
21.5839
21.5834
21.583
21.5825
21.582
21.5816
21.8099
21.8102
21.8106
21.8109
21.8113
21.8116
21.8119
21.8121
21.8123
21.8125
21.8127
21.8128
21.813
21.8131
21.8132
21.8133
21.8133
21.8134
21.8134
21.8135
21.8135
21.8135
21.8136
21.8136
21.8136
21.8136
21.8136
21.8136
21.8137
21.8137
21.8137
21.8137
21.8136
21.8136
21.8136
21.8136
21.8136
21.8136
21.8135
21.8135
21.8135
21.8134
21.8134
21.8133
21.8133
21.8132
21.8131
21.813
21.8128
21.8127
21.8125
21.8123
21.8121
21.8119
21.8116
21.8113
21.8109
21.8106
21.8102
21.8099
21.9912
21.9914
21.9916
21.9919
21.9921
21.9924
21.9926
21.9928
21.9929
21.9931
21.9932
21.9933
21.9934
21.9935
21.9935
21.9936
21.9937
21.9937
21.9937
21.9938
21.9938
21.9938
21.9938
21.9939
21.9939
21.9939
21.9939
21.9939
21.9939
21.9939
21.9939
21.9939
21.9939
21.9939
21.9939
21.9939
21.9939
21.9938
21.9938
21.9938
21.9938
21.9937
21.9937
21.9937
21.9936
21.9935
21.9935
21.9934
21.9933
21.9932
21.9931
21.9929
21.9928
21.9926
21.9924
21.9921
21.9919
21.9916
21.9914
21.9912
22.1355
22.1356
22.1358
22.136
22.1362
22.1363
22.1365
22.1366
22.1367
22.1368
22.1369
22.137
22.1371
22.1371
22.1372
22.1372
22.1373
22.1373
22.1373
22.1374
22.1374
22.1374
22.1374
22.1374
22.1374
22.1374
22.1375
22.1375
22.1375
22.1375
22.1375
22.1375
22.1375
22.1375
22.1374
22.1374
22.1374
22.1374
22.1374
22.1374
22.1374
22.1373
22.1373
22.1373
22.1372
22.1372
22.1371
22.1371
22.137
22.1369
22.1368
22.1367
22.1366
22.1365
22.1363
22.1362
22.136
22.1358
22.1356
22.1355
22.2527
22.2528
22.2529
22.253
22.2531
22.2533
22.2534
22.2535
22.2536
22.2536
22.2537
22.2538
22.2538
22.2539
22.2539
22.2539
22.254
22.254
22.254
22.254
22.254
22.2541
22.2541
22.2541
22.2541
22.2541
22.2541
22.2541
22.2541
22.2541
22.2541
22.2541
22.2541
22.2541
22.2541
22.2541
22.2541
22.2541
22.2541
22.254
22.254
22.254
22.254
22.254
22.2539
22.2539
22.2539
22.2538
22.2538
22.2537
22.2536
22.2536
22.2535
22.2534
22.2533
22.2531
22.253
22.2529
22.2528
22.2527
22.3507
22.3507
22.3508
22.3509
22.351
22.3511
22.3511
22.3512
22.3513
22.3513
22.3514
22.3514
22.3515
22.3515
22.3515
22.3516
22.3516
22.3516
22.3516
22.3516
22.3517
22.3517
22.3517
22.3517
22.3517
22.3517
22.3517
22.3517
22.3517
22.3517
22.3517
22.3517
22.3517
22.3517
22.3517
22.3517
22.3517
22.3517
22.3517
22.3517
22.3516
22.3516
22.3516
22.3516
22.3516
22.3515
22.3515
22.3515
22.3514
22.3514
22.3513
22.3513
22.3512
22.3511
22.3511
22.351
22.3509
22.3508
22.3507
22.3507
22.4351
22.4351
22.4351
22.4352
22.4353
22.4353
22.4354
22.4354
22.4355
22.4355
22.4356
22.4356
22.4356
22.4357
22.4357
22.4357
22.4357
22.4357
22.4358
22.4358
22.4358
22.4358
22.4358
22.4358
22.4358
22.4358
22.4358
22.4358
22.4358
22.4358
22.4358
22.4358
22.4358
22.4358
22.4358
22.4358
22.4358
22.4358
22.4358
22.4358
22.4358
22.4358
22.4357
22.4357
22.4357
22.4357
22.4357
22.4356
22.4356
22.4356
22.4355
22.4355
22.4354
22.4354
22.4353
22.4353
22.4352
22.4351
22.4351
22.4351
22.5096
22.5096
22.5096
22.5097
22.5097
22.5098
22.5098
22.5099
22.5099
22.5099
22.51
22.51
22.51
22.51
22.5101
22.5101
22.5101
22.5101
22.5101
22.5101
22.5101
22.5102
22.5102
22.5102
22.5102
22.5102
22.5102
22.5102
22.5102
22.5102
22.5102
22.5102
22.5102
22.5102
22.5102
22.5102
22.5102
22.5102
22.5102
22.5101
22.5101
22.5101
22.5101
22.5101
22.5101
22.5101
22.51
22.51
22.51
22.51
22.5099
22.5099
22.5099
22.5098
22.5098
22.5097
22.5097
22.5096
22.5096
22.5096
22.5768
22.5768
22.5768
22.5768
22.5769
22.5769
22.5769
22.577
22.577
22.577
22.577
22.5771
22.5771
22.5771
22.5771
22.5771
22.5771
22.5772
22.5772
22.5772
22.5772
22.5772
22.5772
22.5772
22.5772
22.5772
22.5772
22.5772
22.5772
22.5772
22.5772
22.5772
22.5772
22.5772
22.5772
22.5772
22.5772
22.5772
22.5772
22.5772
22.5772
22.5772
22.5772
22.5771
22.5771
22.5771
22.5771
22.5771
22.5771
22.577
22.577
22.577
22.577
22.5769
22.5769
22.5769
22.5768
22.5768
22.5768
22.5768
22.6382
22.6382
22.6382
22.6383
22.6383
22.6383
22.6383
22.6384
22.6384
22.6384
22.6384
22.6384
22.6384
22.6385
22.6385
22.6385
22.6385
22.6385
22.6385
22.6385
22.6385
22.6386
22.6386
22.6386
22.6386
22.6386
22.6386
22.6386
22.6386
22.6386
22.6386
22.6386
22.6386
22.6386
22.6386
22.6386
22.6386
22.6386
22.6386
22.6385
22.6385
22.6385
22.6385
22.6385
22.6385
22.6385
22.6385
22.6384
22.6384
22.6384
22.6384
22.6384
22.6384
22.6383
22.6383
22.6383
22.6383
22.6382
22.6382
22.6382
22.6951
22.6951
22.6951
22.6951
22.6951
22.6952
22.6952
22.6952
22.6952
22.6952
22.6952
22.6952
22.6953
22.6953
22.6953
22.6953
22.6953
22.6953
22.6953
22.6953
22.6953
22.6954
22.6954
22.6954
22.6954
22.6954
22.6954
22.6954
22.6954
22.6954
22.6954
22.6954
22.6954
22.6954
22.6954
22.6954
22.6954
22.6954
22.6954
22.6953
22.6953
22.6953
22.6953
22.6953
22.6953
22.6953
22.6953
22.6953
22.6952
22.6952
22.6952
22.6952
22.6952
22.6952
22.6952
22.6951
22.6951
22.6951
22.6951
22.6951
22.7483
22.7482
22.7482
22.7483
22.7483
22.7483
22.7483
22.7483
22.7483
22.7483
22.7483
22.7483
22.7483
22.7483
22.7484
22.7484
22.7484
22.7484
22.7484
22.7484
22.7484
22.7484
22.7484
22.7484
22.7484
22.7484
22.7484
22.7485
22.7485
22.7485
22.7485
22.7485
22.7485
22.7484
22.7484
22.7484
22.7484
22.7484
22.7484
22.7484
22.7484
22.7484
22.7484
22.7484
22.7484
22.7484
22.7483
22.7483
22.7483
22.7483
22.7483
22.7483
22.7483
22.7483
22.7483
22.7483
22.7483
22.7482
22.7482
22.7483
22.7983
22.7983
22.7983
22.7983
22.7983
22.7983
22.7983
22.7983
22.7983
22.7983
22.7983
22.7983
22.7983
22.7983
22.7983
22.7983
22.7984
22.7984
22.7984
22.7984
22.7984
22.7984
22.7984
22.7984
22.7984
22.7984
22.7984
22.7984
22.7984
22.7984
22.7984
22.7984
22.7984
22.7984
22.7984
22.7984
22.7984
22.7984
22.7984
22.7984
22.7984
22.7984
22.7984
22.7984
22.7983
22.7983
22.7983
22.7983
22.7983
22.7983
22.7983
22.7983
22.7983
22.7983
22.7983
22.7983
22.7983
22.7983
22.7983
22.7983
22.8457
22.8457
22.8456
22.8456
22.8456
22.8456
22.8456
22.8456
22.8456
22.8456
22.8456
22.8457
22.8457
22.8457
22.8457
22.8457
22.8457
22.8457
22.8457
22.8457
22.8457
22.8457
22.8457
22.8457
22.8458
22.8458
22.8458
22.8458
22.8458
22.8458
22.8458
22.8458
22.8458
22.8458
22.8458
22.8458
22.8457
22.8457
22.8457
22.8457
22.8457
22.8457
22.8457
22.8457
22.8457
22.8457
22.8457
22.8457
22.8457
22.8456
22.8456
22.8456
22.8456
22.8456
22.8456
22.8456
22.8456
22.8456
22.8457
22.8457
22.8908
22.8908
22.8908
22.8908
22.8908
22.8908
22.8908
22.8908
22.8908
22.8908
22.8908
22.8908
22.8908
22.8908
22.8908
22.8908
22.8908
22.8908
22.8908
22.8908
22.8908
22.8908
22.8908
22.8909
22.8909
22.8909
22.8909
22.8909
22.8909
22.8909
22.8909
22.8909
22.8909
22.8909
22.8909
22.8909
22.8909
22.8908
22.8908
22.8908
22.8908
22.8908
22.8908
22.8908
22.8908
22.8908
22.8908
22.8908
22.8908
22.8908
22.8908
22.8908
22.8908
22.8908
22.8908
22.8908
22.8908
22.8908
22.8908
22.8908
22.934
22.934
22.934
22.934
22.934
22.9339
22.9339
22.9339
22.9339
22.9339
22.9339
22.9339
22.9339
22.934
22.934
22.934
22.934
22.934
22.934
22.934
22.934
22.934
22.934
22.934
22.934
22.934
22.934
22.934
22.934
22.934
22.934
22.934
22.934
22.934
22.934
22.934
22.934
22.934
22.934
22.934
22.934
22.934
22.934
22.934
22.934
22.934
22.934
22.9339
22.9339
22.9339
22.9339
22.9339
22.9339
22.9339
22.9339
22.934
22.934
22.934
22.934
22.934
22.9755
22.9755
22.9755
22.9755
22.9755
22.9755
22.9754
22.9754
22.9754
22.9754
22.9754
22.9754
22.9754
22.9755
22.9755
22.9755
22.9755
22.9755
22.9755
22.9755
22.9755
22.9755
22.9755
22.9755
22.9755
22.9755
22.9755
22.9755
22.9755
22.9755
22.9755
22.9755
22.9755
22.9755
22.9755
22.9755
22.9755
22.9755
22.9755
22.9755
22.9755
22.9755
22.9755
22.9755
22.9755
22.9755
22.9755
22.9754
22.9754
22.9754
22.9754
22.9754
22.9754
22.9754
22.9755
22.9755
22.9755
22.9755
22.9755
22.9755
23.0156
23.0156
23.0155
23.0155
23.0155
23.0155
23.0155
23.0155
23.0155
23.0155
23.0155
23.0155
23.0155
23.0155
23.0155
23.0155
23.0155
23.0155
23.0155
23.0155
23.0155
23.0155
23.0155
23.0156
23.0156
23.0156
23.0156
23.0156
23.0156
23.0156
23.0156
23.0156
23.0156
23.0156
23.0156
23.0156
23.0156
23.0155
23.0155
23.0155
23.0155
23.0155
23.0155
23.0155
23.0155
23.0155
23.0155
23.0155
23.0155
23.0155
23.0155
23.0155
23.0155
23.0155
23.0155
23.0155
23.0155
23.0155
23.0156
23.0156
23.0543
23.0543
23.0543
23.0543
23.0543
23.0543
23.0542
23.0542
23.0542
23.0542
23.0542
23.0542
23.0542
23.0542
23.0542
23.0543
23.0543
23.0543
23.0543
23.0543
23.0543
23.0543
23.0543
23.0543
23.0543
23.0543
23.0543
23.0543
23.0543
23.0543
23.0543
23.0543
23.0543
23.0543
23.0543
23.0543
23.0543
23.0543
23.0543
23.0543
23.0543
23.0543
23.0543
23.0543
23.0543
23.0542
23.0542
23.0542
23.0542
23.0542
23.0542
23.0542
23.0542
23.0542
23.0543
23.0543
23.0543
23.0543
23.0543
23.0543
23.092
23.0919
23.0919
23.0919
23.0919
23.0919
23.0919
23.0919
23.0918
23.0918
23.0918
23.0918
23.0918
23.0919
23.0919
23.0919
23.0919
23.0919
23.0919
23.0919
23.0919
23.0919
23.0919
23.0919
23.0919
23.0919
23.0919
23.0919
23.0919
23.0919
23.0919
23.0919
23.0919
23.0919
23.0919
23.0919
23.0919
23.0919
23.0919
23.0919
23.0919
23.0919
23.0919
23.0919
23.0919
23.0919
23.0919
23.0918
23.0918
23.0918
23.0918
23.0918
23.0919
23.0919
23.0919
23.0919
23.0919
23.0919
23.0919
23.092
23.1286
23.1286
23.1285
23.1285
23.1285
23.1285
23.1285
23.1285
23.1285
23.1285
23.1285
23.1285
23.1285
23.1285
23.1285
23.1285
23.1285
23.1285
23.1285
23.1285
23.1285
23.1285
23.1285
23.1285
23.1285
23.1285
23.1285
23.1285
23.1285
23.1285
23.1285
23.1285
23.1285
23.1285
23.1285
23.1285
23.1285
23.1285
23.1285
23.1285
23.1285
23.1285
23.1285
23.1285
23.1285
23.1285
23.1285
23.1285
23.1285
23.1285
23.1285
23.1285
23.1285
23.1285
23.1285
23.1285
23.1285
23.1285
23.1286
23.1286
23.1643
23.1643
23.1643
23.1643
23.1642
23.1642
23.1642
23.1642
23.1642
23.1642
23.1642
23.1642
23.1642
23.1642
23.1642
23.1642
23.1642
23.1642
23.1642
23.1642
23.1642
23.1642
23.1642
23.1643
23.1643
23.1643
23.1643
23.1643
23.1643
23.1643
23.1643
23.1643
23.1643
23.1643
23.1643
23.1643
23.1643
23.1642
23.1642
23.1642
23.1642
23.1642
23.1642
23.1642
23.1642
23.1642
23.1642
23.1642
23.1642
23.1642
23.1642
23.1642
23.1642
23.1642
23.1642
23.1642
23.1643
23.1643
23.1643
23.1643
23.1992
23.1992
23.1992
23.1992
23.1992
23.1992
23.1991
23.1991
23.1991
23.1991