/*--------------------------------*- C++ -*----------------------------------*\
| =========                 |                                                 |
| \\      /  F ield         | foam-extend: Open Source CFD                    |
|  \\    /   O peration     | Version:     4.0                                |
|   \\  /    A nd           | Web:         http://www.foam-extend.org         |
|    \\/     M anipulation  |                                                 |
\*---------------------------------------------------------------------------*/
FoamFile
{
    version     2.0;
    format      ascii;
    class       volScalarField;
    location    "600";
    object      cPlus;
}
// * * * * * * * * * * * * * * * * * * * * * * * * * * * * * * * * * * * * * //

dimensions      [0 0 0 0 0 0 0];

internalField   nonuniform List<scalar> 
6960
(
0.212711
0.212641
0.21259
0.212558
0.21254
0.212529
0.212524
0.21252
0.212519
0.212517
0.212517
0.212516
0.212516
0.212516
0.212516
0.212516
0.212516
0.212516
0.212516
0.212516
0.212516
0.212516
0.212516
0.212516
0.212516
0.212516
0.212516
0.212516
0.212516
0.212516
0.212516
0.212516
0.212516
0.212516
0.212516
0.212516
0.212516
0.212516
0.212516
0.212516
0.212516
0.212516
0.212516
0.212516
0.212516
0.212516
0.212516
0.212516
0.212516
0.212517
0.212517
0.212519
0.21252
0.212524
0.212529
0.21254
0.212558
0.21259
0.212641
0.212711
0.0509236
0.0509033
0.0508873
0.0508774
0.0508716
0.0508683
0.0508665
0.0508655
0.0508649
0.0508646
0.0508644
0.0508643
0.0508642
0.0508641
0.0508641
0.0508641
0.0508641
0.0508641
0.0508641
0.0508641
0.0508641
0.050864
0.050864
0.050864
0.050864
0.050864
0.050864
0.050864
0.050864
0.050864
0.050864
0.050864
0.050864
0.050864
0.050864
0.050864
0.050864
0.050864
0.050864
0.0508641
0.0508641
0.0508641
0.0508641
0.0508641
0.0508641
0.0508641
0.0508641
0.0508642
0.0508643
0.0508644
0.0508646
0.0508649
0.0508655
0.0508665
0.0508683
0.0508716
0.0508774
0.0508873
0.0509033
0.0509236
0.0235005
0.0235016
0.0235012
0.0235007
0.0235004
0.0235002
0.0235001
0.0235001
0.0235
0.0235
0.0235
0.0235
0.0235
0.0235
0.0235
0.0235
0.0235
0.0235
0.0235
0.0235001
0.0235001
0.0235001
0.0235001
0.0235001
0.0235001
0.0235001
0.0235001
0.0235001
0.0235001
0.0235001
0.0235001
0.0235001
0.0235001
0.0235001
0.0235001
0.0235001
0.0235001
0.0235001
0.0235001
0.0235001
0.0235001
0.0235
0.0235
0.0235
0.0235
0.0235
0.0235
0.0235
0.0235
0.0235
0.0235
0.0235
0.0235001
0.0235001
0.0235002
0.0235004
0.0235007
0.0235012
0.0235016
0.0235005
0.0188088
0.0188165
0.0188209
0.0188233
0.0188247
0.0188255
0.0188259
0.0188261
0.0188263
0.0188263
0.0188264
0.0188264
0.0188264
0.0188265
0.0188265
0.0188265
0.0188265
0.0188265
0.0188265
0.0188266
0.0188266
0.0188266
0.0188266
0.0188266
0.0188266
0.0188266
0.0188266
0.0188266
0.0188266
0.0188266
0.0188266
0.0188266
0.0188266
0.0188266
0.0188266
0.0188266
0.0188266
0.0188266
0.0188266
0.0188266
0.0188266
0.0188265
0.0188265
0.0188265
0.0188265
0.0188265
0.0188265
0.0188264
0.0188264
0.0188264
0.0188263
0.0188263
0.0188261
0.0188259
0.0188255
0.0188247
0.0188233
0.0188209
0.0188165
0.0188088
0.0182126
0.0182222
0.0182278
0.0182311
0.0182329
0.018234
0.0182345
0.0182348
0.018235
0.0182351
0.0182352
0.0182352
0.0182353
0.0182353
0.0182353
0.0182353
0.0182353
0.0182354
0.0182354
0.0182354
0.0182354
0.0182354
0.0182354
0.0182354
0.0182354
0.0182354
0.0182354
0.0182354
0.0182354
0.0182355
0.0182355
0.0182354
0.0182354
0.0182354
0.0182354
0.0182354
0.0182354
0.0182354
0.0182354
0.0182354
0.0182354
0.0182354
0.0182354
0.0182353
0.0182353
0.0182353
0.0182353
0.0182353
0.0182352
0.0182352
0.0182351
0.018235
0.0182348
0.0182345
0.018234
0.0182329
0.0182311
0.0182278
0.0182222
0.0182126
0.018355
0.0183652
0.0183712
0.0183748
0.0183767
0.0183778
0.0183785
0.0183788
0.018379
0.0183791
0.0183792
0.0183792
0.0183792
0.0183793
0.0183793
0.0183793
0.0183793
0.0183793
0.0183794
0.0183794
0.0183794
0.0183794
0.0183794
0.0183794
0.0183794
0.0183794
0.0183794
0.0183794
0.0183794
0.0183794
0.0183794
0.0183794
0.0183794
0.0183794
0.0183794
0.0183794
0.0183794
0.0183794
0.0183794
0.0183794
0.0183794
0.0183794
0.0183793
0.0183793
0.0183793
0.0183793
0.0183793
0.0183792
0.0183792
0.0183792
0.0183791
0.018379
0.0183788
0.0183785
0.0183778
0.0183767
0.0183748
0.0183712
0.0183652
0.018355
0.018644
0.0186545
0.0186608
0.0186645
0.0186666
0.0186677
0.0186683
0.0186687
0.0186689
0.018669
0.0186691
0.0186691
0.0186692
0.0186692
0.0186692
0.0186692
0.0186692
0.0186693
0.0186693
0.0186693
0.0186693
0.0186693
0.0186693
0.0186693
0.0186693
0.0186694
0.0186694
0.0186694
0.0186694
0.0186694
0.0186694
0.0186694
0.0186694
0.0186694
0.0186694
0.0186693
0.0186693
0.0186693
0.0186693
0.0186693
0.0186693
0.0186693
0.0186693
0.0186692
0.0186692
0.0186692
0.0186692
0.0186692
0.0186691
0.0186691
0.018669
0.0186689
0.0186687
0.0186683
0.0186677
0.0186666
0.0186645
0.0186608
0.0186545
0.018644
0.0189812
0.0189921
0.0189986
0.0190024
0.0190045
0.0190057
0.0190064
0.0190067
0.0190069
0.0190071
0.0190071
0.0190072
0.0190072
0.0190073
0.0190073
0.0190073
0.0190073
0.0190073
0.0190074
0.0190074
0.0190074
0.0190074
0.0190074
0.0190074
0.0190074
0.0190074
0.0190074
0.0190074
0.0190074
0.0190074
0.0190074
0.0190074
0.0190074
0.0190074
0.0190074
0.0190074
0.0190074
0.0190074
0.0190074
0.0190074
0.0190074
0.0190074
0.0190073
0.0190073
0.0190073
0.0190073
0.0190073
0.0190072
0.0190072
0.0190071
0.0190071
0.0190069
0.0190067
0.0190064
0.0190057
0.0190045
0.0190024
0.0189986
0.0189921
0.0189812
0.0193538
0.0193651
0.0193718
0.0193757
0.0193779
0.0193791
0.0193798
0.0193802
0.0193804
0.0193805
0.0193806
0.0193807
0.0193807
0.0193807
0.0193808
0.0193808
0.0193808
0.0193808
0.0193808
0.0193808
0.0193809
0.0193809
0.0193809
0.0193809
0.0193809
0.0193809
0.0193809
0.0193809
0.0193809
0.0193809
0.0193809
0.0193809
0.0193809
0.0193809
0.0193809
0.0193809
0.0193809
0.0193809
0.0193809
0.0193809
0.0193808
0.0193808
0.0193808
0.0193808
0.0193808
0.0193808
0.0193807
0.0193807
0.0193807
0.0193806
0.0193805
0.0193804
0.0193802
0.0193798
0.0193791
0.0193779
0.0193757
0.0193718
0.0193651
0.0193538
0.0197637
0.0197753
0.0197823
0.0197863
0.0197886
0.0197899
0.0197906
0.019791
0.0197912
0.0197913
0.0197914
0.0197915
0.0197915
0.0197916
0.0197916
0.0197916
0.0197916
0.0197916
0.0197917
0.0197917
0.0197917
0.0197917
0.0197917
0.0197917
0.0197917
0.0197917
0.0197917
0.0197918
0.0197918
0.0197918
0.0197918
0.0197918
0.0197918
0.0197917
0.0197917
0.0197917
0.0197917
0.0197917
0.0197917
0.0197917
0.0197917
0.0197917
0.0197916
0.0197916
0.0197916
0.0197916
0.0197916
0.0197915
0.0197915
0.0197914
0.0197913
0.0197912
0.019791
0.0197906
0.0197899
0.0197886
0.0197863
0.0197823
0.0197753
0.0197637
0.0202159
0.020228
0.0202352
0.0202395
0.0202418
0.0202432
0.0202439
0.0202443
0.0202445
0.0202447
0.0202448
0.0202448
0.0202449
0.0202449
0.0202449
0.0202449
0.020245
0.020245
0.020245
0.020245
0.020245
0.0202451
0.0202451
0.0202451
0.0202451
0.0202451
0.0202451
0.0202451
0.0202451
0.0202451
0.0202451
0.0202451
0.0202451
0.0202451
0.0202451
0.0202451
0.0202451
0.0202451
0.0202451
0.020245
0.020245
0.020245
0.020245
0.020245
0.0202449
0.0202449
0.0202449
0.0202449
0.0202448
0.0202448
0.0202447
0.0202445
0.0202443
0.0202439
0.0202432
0.0202418
0.0202395
0.0202352
0.020228
0.0202159
0.0207172
0.0207299
0.0207374
0.0207418
0.0207443
0.0207457
0.0207464
0.0207468
0.0207471
0.0207472
0.0207473
0.0207474
0.0207474
0.0207475
0.0207475
0.0207475
0.0207475
0.0207476
0.0207476
0.0207476
0.0207476
0.0207476
0.0207476
0.0207477
0.0207477
0.0207477
0.0207477
0.0207477
0.0207477
0.0207477
0.0207477
0.0207477
0.0207477
0.0207477
0.0207477
0.0207477
0.0207477
0.0207476
0.0207476
0.0207476
0.0207476
0.0207476
0.0207476
0.0207475
0.0207475
0.0207475
0.0207475
0.0207474
0.0207474
0.0207473
0.0207472
0.0207471
0.0207468
0.0207464
0.0207457
0.0207443
0.0207418
0.0207374
0.0207299
0.0207172
0.0212759
0.0212892
0.0212971
0.0213017
0.0213043
0.0213057
0.0213065
0.021307
0.0213072
0.0213074
0.0213075
0.0213076
0.0213076
0.0213076
0.0213077
0.0213077
0.0213077
0.0213077
0.0213078
0.0213078
0.0213078
0.0213078
0.0213078
0.0213078
0.0213078
0.0213079
0.0213079
0.0213079
0.0213079
0.0213079
0.0213079
0.0213079
0.0213079
0.0213079
0.0213079
0.0213078
0.0213078
0.0213078
0.0213078
0.0213078
0.0213078
0.0213078
0.0213077
0.0213077
0.0213077
0.0213077
0.0213076
0.0213076
0.0213076
0.0213075
0.0213074
0.0213072
0.021307
0.0213065
0.0213057
0.0213043
0.0213017
0.0212971
0.0212892
0.0212759
0.0219024
0.0219164
0.0219247
0.0219296
0.0219324
0.0219339
0.0219347
0.0219352
0.0219355
0.0219356
0.0219357
0.0219358
0.0219358
0.0219359
0.0219359
0.0219359
0.021936
0.021936
0.021936
0.021936
0.021936
0.0219361
0.0219361
0.0219361
0.0219361
0.0219361
0.0219361
0.0219361
0.0219361
0.0219361
0.0219361
0.0219361
0.0219361
0.0219361
0.0219361
0.0219361
0.0219361
0.0219361
0.0219361
0.021936
0.021936
0.021936
0.021936
0.021936
0.0219359
0.0219359
0.0219359
0.0219358
0.0219358
0.0219357
0.0219356
0.0219355
0.0219352
0.0219347
0.0219339
0.0219324
0.0219296
0.0219247
0.0219164
0.0219024
0.0226101
0.0226249
0.0226337
0.0226388
0.0226417
0.0226433
0.0226442
0.0226447
0.022645
0.0226452
0.0226453
0.0226454
0.0226454
0.0226455
0.0226455
0.0226455
0.0226456
0.0226456
0.0226456
0.0226456
0.0226456
0.0226457
0.0226457
0.0226457
0.0226457
0.0226457
0.0226457
0.0226457
0.0226457
0.0226457
0.0226457
0.0226457
0.0226457
0.0226457
0.0226457
0.0226457
0.0226457
0.0226457
0.0226457
0.0226456
0.0226456
0.0226456
0.0226456
0.0226456
0.0226455
0.0226455
0.0226455
0.0226454
0.0226454
0.0226453
0.0226452
0.022645
0.0226447
0.0226442
0.0226433
0.0226417
0.0226388
0.0226337
0.0226249
0.0226101
0.0234158
0.0234316
0.0234409
0.0234464
0.0234495
0.0234513
0.0234522
0.0234527
0.023453
0.0234532
0.0234533
0.0234534
0.0234535
0.0234535
0.0234536
0.0234536
0.0234536
0.0234536
0.0234537
0.0234537
0.0234537
0.0234537
0.0234537
0.0234538
0.0234538
0.0234538
0.0234538
0.0234538
0.0234538
0.0234538
0.0234538
0.0234538
0.0234538
0.0234538
0.0234538
0.0234538
0.0234538
0.0234537
0.0234537
0.0234537
0.0234537
0.0234537
0.0234536
0.0234536
0.0234536
0.0234536
0.0234535
0.0234535
0.0234534
0.0234533
0.0234532
0.023453
0.0234527
0.0234522
0.0234513
0.0234495
0.0234464
0.0234409
0.0234316
0.0234158
0.024342
0.0243589
0.024369
0.0243749
0.0243782
0.0243801
0.0243811
0.0243817
0.024382
0.0243822
0.0243823
0.0243824
0.0243825
0.0243825
0.0243826
0.0243826
0.0243826
0.0243827
0.0243827
0.0243827
0.0243827
0.0243827
0.0243828
0.0243828
0.0243828
0.0243828
0.0243828
0.0243828
0.0243828
0.0243828
0.0243828
0.0243828
0.0243828
0.0243828
0.0243828
0.0243828
0.0243828
0.0243828
0.0243827
0.0243827
0.0243827
0.0243827
0.0243827
0.0243826
0.0243826
0.0243826
0.0243825
0.0243825
0.0243824
0.0243823
0.0243822
0.024382
0.0243817
0.0243811
0.0243801
0.0243782
0.0243749
0.024369
0.0243589
0.024342
0.0254187
0.025437
0.0254479
0.0254543
0.0254579
0.0254599
0.0254611
0.0254617
0.025462
0.0254622
0.0254624
0.0254625
0.0254625
0.0254626
0.0254626
0.0254627
0.0254627
0.0254627
0.0254628
0.0254628
0.0254628
0.0254628
0.0254629
0.0254629
0.0254629
0.0254629
0.0254629
0.0254629
0.0254629
0.0254629
0.0254629
0.0254629
0.0254629
0.0254629
0.0254629
0.0254629
0.0254629
0.0254629
0.0254628
0.0254628
0.0254628
0.0254628
0.0254627
0.0254627
0.0254627
0.0254626
0.0254626
0.0254625
0.0254625
0.0254624
0.0254622
0.025462
0.0254617
0.0254611
0.0254599
0.0254579
0.0254543
0.0254479
0.025437
0.0254187
0.0266869
0.0267071
0.026719
0.026726
0.02673
0.0267322
0.0267334
0.0267341
0.0267345
0.0267347
0.0267349
0.026735
0.0267351
0.0267351
0.0267352
0.0267352
0.0267352
0.0267353
0.0267353
0.0267353
0.0267354
0.0267354
0.0267354
0.0267354
0.0267354
0.0267355
0.0267355
0.0267355
0.0267355
0.0267355
0.0267355
0.0267355
0.0267355
0.0267355
0.0267355
0.0267354
0.0267354
0.0267354
0.0267354
0.0267354
0.0267353
0.0267353
0.0267353
0.0267352
0.0267352
0.0267352
0.0267351
0.0267351
0.026735
0.0267349
0.0267347
0.0267345
0.0267341
0.0267334
0.0267322
0.02673
0.026726
0.026719
0.0267071
0.0266869
0.028205
0.0282274
0.0282407
0.0282484
0.0282529
0.0282553
0.0282567
0.0282575
0.0282579
0.0282582
0.0282583
0.0282584
0.0282585
0.0282586
0.0282586
0.0282587
0.0282587
0.0282588
0.0282588
0.0282588
0.0282589
0.0282589
0.0282589
0.0282589
0.028259
0.028259
0.028259
0.028259
0.028259
0.028259
0.028259
0.028259
0.028259
0.028259
0.028259
0.028259
0.0282589
0.0282589
0.0282589
0.0282589
0.0282588
0.0282588
0.0282588
0.0282587
0.0282587
0.0282586
0.0282586
0.0282585
0.0282584
0.0282583
0.0282582
0.0282579
0.0282575
0.0282567
0.0282553
0.0282529
0.0282484
0.0282407
0.0282274
0.028205
0.0300575
0.0300828
0.0300979
0.0301067
0.0301118
0.0301146
0.0301161
0.030117
0.0301175
0.0301178
0.030118
0.0301181
0.0301182
0.0301183
0.0301183
0.0301184
0.0301184
0.0301185
0.0301185
0.0301185
0.0301186
0.0301186
0.0301186
0.0301187
0.0301187
0.0301187
0.0301187
0.0301187
0.0301187
0.0301187
0.0301187
0.0301187
0.0301187
0.0301187
0.0301187
0.0301187
0.0301187
0.0301186
0.0301186
0.0301186
0.0301185
0.0301185
0.0301185
0.0301184
0.0301184
0.0301183
0.0301183
0.0301182
0.0301181
0.030118
0.0301178
0.0301175
0.030117
0.0301161
0.0301146
0.0301118
0.0301067
0.0300979
0.0300828
0.0300575
0.0323719
0.0324011
0.0324186
0.0324288
0.0324347
0.0324379
0.0324397
0.0324407
0.0324413
0.0324416
0.0324419
0.032442
0.0324421
0.0324422
0.0324423
0.0324423
0.0324424
0.0324425
0.0324425
0.0324425
0.0324426
0.0324426
0.0324427
0.0324427
0.0324427
0.0324427
0.0324427
0.0324428
0.0324428
0.0324428
0.0324428
0.0324428
0.0324428
0.0324427
0.0324427
0.0324427
0.0324427
0.0324427
0.0324426
0.0324426
0.0324425
0.0324425
0.0324425
0.0324424
0.0324423
0.0324423
0.0324422
0.0324421
0.032442
0.0324419
0.0324416
0.0324413
0.0324407
0.0324397
0.0324379
0.0324347
0.0324288
0.0324186
0.0324011
0.0323719
0.0353433
0.0353781
0.0353989
0.0354111
0.0354181
0.035422
0.0354242
0.0354254
0.0354261
0.0354265
0.0354267
0.0354269
0.035427
0.0354271
0.0354272
0.0354273
0.0354274
0.0354275
0.0354275
0.0354276
0.0354276
0.0354277
0.0354277
0.0354277
0.0354278
0.0354278
0.0354278
0.0354278
0.0354278
0.0354278
0.0354278
0.0354278
0.0354278
0.0354278
0.0354278
0.0354278
0.0354277
0.0354277
0.0354277
0.0354276
0.0354276
0.0354275
0.0354275
0.0354274
0.0354273
0.0354272
0.0354271
0.035427
0.0354269
0.0354267
0.0354265
0.0354261
0.0354254
0.0354242
0.035422
0.0354181
0.0354111
0.0353989
0.0353781
0.0353433
0.0392709
0.0393135
0.0393392
0.0393543
0.0393629
0.0393678
0.0393704
0.0393719
0.0393728
0.0393733
0.0393736
0.0393738
0.039374
0.0393741
0.0393742
0.0393743
0.0393744
0.0393745
0.0393746
0.0393746
0.0393747
0.0393748
0.0393748
0.0393749
0.0393749
0.0393749
0.0393749
0.039375
0.039375
0.039375
0.039375
0.039375
0.039375
0.0393749
0.0393749
0.0393749
0.0393749
0.0393748
0.0393748
0.0393747
0.0393746
0.0393746
0.0393745
0.0393744
0.0393743
0.0393742
0.0393741
0.039374
0.0393738
0.0393736
0.0393733
0.0393728
0.0393719
0.0393704
0.0393678
0.0393629
0.0393543
0.0393392
0.0393135
0.0392709
0.0445907
0.0446447
0.0446774
0.0446966
0.0447076
0.0447137
0.0447171
0.044719
0.0447201
0.0447208
0.0447212
0.0447215
0.0447217
0.0447219
0.044722
0.0447221
0.0447222
0.0447223
0.0447224
0.0447225
0.0447226
0.0447227
0.0447227
0.0447228
0.0447229
0.0447229
0.0447229
0.044723
0.044723
0.044723
0.044723
0.044723
0.044723
0.0447229
0.0447229
0.0447229
0.0447228
0.0447227
0.0447227
0.0447226
0.0447225
0.0447224
0.0447223
0.0447222
0.0447221
0.044722
0.0447219
0.0447217
0.0447215
0.0447212
0.0447208
0.0447201
0.044719
0.0447171
0.0447137
0.0447076
0.0446966
0.0446774
0.0446447
0.0445907
0.0518702
0.0519399
0.0519822
0.0520072
0.0520215
0.0520295
0.0520339
0.0520364
0.0520378
0.0520387
0.0520392
0.0520396
0.0520398
0.0520401
0.0520402
0.0520404
0.0520406
0.0520407
0.0520408
0.0520409
0.052041
0.0520411
0.0520412
0.0520413
0.0520414
0.0520414
0.0520414
0.0520415
0.0520415
0.0520415
0.0520415
0.0520415
0.0520415
0.0520414
0.0520414
0.0520414
0.0520413
0.0520412
0.0520411
0.052041
0.0520409
0.0520408
0.0520407
0.0520406
0.0520404
0.0520402
0.0520401
0.0520398
0.0520396
0.0520392
0.0520387
0.0520378
0.0520364
0.0520339
0.0520295
0.0520215
0.0520072
0.0519822
0.0519399
0.0518702
0.0617065
0.0617966
0.0618515
0.0618839
0.0619025
0.0619128
0.0619186
0.0619218
0.0619237
0.0619248
0.0619255
0.061926
0.0619263
0.0619266
0.0619269
0.0619271
0.0619273
0.0619274
0.0619276
0.0619278
0.0619279
0.061928
0.0619281
0.0619282
0.0619283
0.0619284
0.0619284
0.0619285
0.0619285
0.0619285
0.0619285
0.0619285
0.0619285
0.0619284
0.0619284
0.0619283
0.0619282
0.0619281
0.061928
0.0619279
0.0619278
0.0619276
0.0619274
0.0619273
0.0619271
0.0619269
0.0619266
0.0619263
0.061926
0.0619255
0.0619248
0.0619237
0.0619218
0.0619186
0.0619128
0.0619025
0.0618839
0.0618515
0.0617966
0.0617065
0.0745182
0.0746323
0.0747019
0.0747431
0.0747666
0.0747798
0.0747872
0.0747913
0.0747937
0.0747951
0.074796
0.0747966
0.074797
0.0747974
0.0747977
0.074798
0.0747982
0.0747984
0.0747986
0.0747988
0.074799
0.0747991
0.0747992
0.0747994
0.0747995
0.0747996
0.0747996
0.0747997
0.0747997
0.0747997
0.0747997
0.0747997
0.0747997
0.0747996
0.0747996
0.0747995
0.0747994
0.0747992
0.0747991
0.074799
0.0747988
0.0747986
0.0747984
0.0747982
0.074798
0.0747977
0.0747974
0.074797
0.0747966
0.074796
0.0747951
0.0747937
0.0747913
0.0747872
0.0747798
0.0747666
0.0747431
0.0747019
0.0746323
0.0745182
0.0903328
0.0904722
0.0905572
0.0906075
0.0906364
0.0906526
0.0906616
0.0906667
0.0906696
0.0906713
0.0906724
0.0906732
0.0906737
0.0906742
0.0906745
0.0906748
0.0906751
0.0906754
0.0906756
0.0906758
0.090676
0.0906762
0.0906764
0.0906765
0.0906766
0.0906768
0.0906768
0.0906769
0.0906769
0.090677
0.090677
0.0906769
0.0906769
0.0906768
0.0906768
0.0906766
0.0906765
0.0906764
0.0906762
0.090676
0.0906758
0.0906756
0.0906754
0.0906751
0.0906748
0.0906745
0.0906742
0.0906737
0.0906732
0.0906724
0.0906713
0.0906696
0.0906667
0.0906616
0.0906526
0.0906364
0.0906075
0.0905572
0.0904722
0.0903328
0.108742
0.108905
0.109005
0.109064
0.109098
0.109117
0.109128
0.109134
0.109137
0.109139
0.109141
0.109141
0.109142
0.109143
0.109143
0.109143
0.109144
0.109144
0.109144
0.109144
0.109145
0.109145
0.109145
0.109145
0.109145
0.109145
0.109146
0.109146
0.109146
0.109146
0.109146
0.109146
0.109146
0.109146
0.109145
0.109145
0.109145
0.109145
0.109145
0.109145
0.109144
0.109144
0.109144
0.109144
0.109143
0.109143
0.109143
0.109142
0.109141
0.109141
0.109139
0.109137
0.109134
0.109128
0.109117
0.109098
0.109064
0.109005
0.108905
0.108742
0.129073
0.129258
0.129371
0.129438
0.129476
0.129498
0.12951
0.129517
0.129521
0.129524
0.129525
0.129526
0.129527
0.129527
0.129528
0.129528
0.129529
0.129529
0.129529
0.12953
0.12953
0.12953
0.12953
0.12953
0.12953
0.129531
0.129531
0.129531
0.129531
0.129531
0.129531
0.129531
0.129531
0.129531
0.129531
0.12953
0.12953
0.12953
0.12953
0.12953
0.12953
0.129529
0.129529
0.129529
0.129528
0.129528
0.129527
0.129527
0.129526
0.129525
0.129524
0.129521
0.129517
0.12951
0.129498
0.129476
0.129438
0.129371
0.129258
0.129073
0.150642
0.150846
0.15097
0.151044
0.151087
0.151112
0.151125
0.151133
0.151137
0.15114
0.151142
0.151143
0.151144
0.151144
0.151145
0.151145
0.151145
0.151146
0.151146
0.151146
0.151147
0.151147
0.151147
0.151147
0.151147
0.151148
0.151148
0.151148
0.151148
0.151148
0.151148
0.151148
0.151148
0.151148
0.151148
0.151147
0.151147
0.151147
0.151147
0.151147
0.151146
0.151146
0.151146
0.151145
0.151145
0.151145
0.151144
0.151144
0.151143
0.151142
0.15114
0.151137
0.151133
0.151125
0.151112
0.151087
0.151044
0.15097
0.150846
0.150642
0.172914
0.173134
0.17327
0.17335
0.173397
0.173423
0.173438
0.173447
0.173452
0.173455
0.173457
0.173458
0.173459
0.173459
0.17346
0.17346
0.173461
0.173461
0.173461
0.173462
0.173462
0.173462
0.173462
0.173463
0.173463
0.173463
0.173463
0.173463
0.173463
0.173463
0.173463
0.173463
0.173463
0.173463
0.173463
0.173463
0.173463
0.173462
0.173462
0.173462
0.173462
0.173461
0.173461
0.173461
0.17346
0.17346
0.173459
0.173459
0.173458
0.173457
0.173455
0.173452
0.173447
0.173438
0.173423
0.173397
0.17335
0.17327
0.173134
0.172914
0.195535
0.19577
0.195915
0.196002
0.196052
0.196081
0.196097
0.196107
0.196112
0.196115
0.196117
0.196118
0.196119
0.19612
0.196121
0.196121
0.196121
0.196122
0.196122
0.196122
0.196123
0.196123
0.196123
0.196123
0.196123
0.196124
0.196124
0.196124
0.196124
0.196124
0.196124
0.196124
0.196124
0.196124
0.196124
0.196123
0.196123
0.196123
0.196123
0.196123
0.196122
0.196122
0.196122
0.196121
0.196121
0.196121
0.19612
0.196119
0.196118
0.196117
0.196115
0.196112
0.196107
0.196097
0.196081
0.196052
0.196002
0.195915
0.19577
0.195535
0.21829
0.218538
0.218692
0.218784
0.218838
0.218869
0.218887
0.218897
0.218903
0.218906
0.218908
0.21891
0.218911
0.218912
0.218912
0.218913
0.218913
0.218913
0.218914
0.218914
0.218914
0.218915
0.218915
0.218915
0.218915
0.218915
0.218915
0.218915
0.218916
0.218916
0.218916
0.218916
0.218915
0.218915
0.218915
0.218915
0.218915
0.218915
0.218915
0.218914
0.218914
0.218914
0.218913
0.218913
0.218913
0.218912
0.218912
0.218911
0.21891
0.218908
0.218906
0.218903
0.218897
0.218887
0.218869
0.218838
0.218784
0.218692
0.218538
0.21829
0.241047
0.241308
0.24147
0.241568
0.241626
0.241659
0.241678
0.241689
0.241695
0.241699
0.241701
0.241703
0.241704
0.241705
0.241705
0.241706
0.241706
0.241706
0.241707
0.241707
0.241707
0.241708
0.241708
0.241708
0.241708
0.241708
0.241708
0.241709
0.241709
0.241709
0.241709
0.241709
0.241709
0.241708
0.241708
0.241708
0.241708
0.241708
0.241708
0.241707
0.241707
0.241707
0.241706
0.241706
0.241706
0.241705
0.241705
0.241704
0.241703
0.241701
0.241699
0.241695
0.241689
0.241678
0.241659
0.241626
0.241568
0.24147
0.241308
0.241047
0.263724
0.263997
0.264167
0.264271
0.264332
0.264367
0.264387
0.264399
0.264406
0.26441
0.264412
0.264414
0.264415
0.264416
0.264417
0.264417
0.264418
0.264418
0.264418
0.264419
0.264419
0.264419
0.264419
0.264419
0.26442
0.26442
0.26442
0.26442
0.26442
0.26442
0.26442
0.26442
0.26442
0.26442
0.26442
0.26442
0.264419
0.264419
0.264419
0.264419
0.264419
0.264418
0.264418
0.264418
0.264417
0.264417
0.264416
0.264415
0.264414
0.264412
0.26441
0.264406
0.264399
0.264387
0.264367
0.264332
0.264271
0.264167
0.263997
0.263724
0.286263
0.286546
0.286725
0.286833
0.286898
0.286935
0.286957
0.28697
0.286977
0.286981
0.286984
0.286986
0.286987
0.286988
0.286988
0.286989
0.286989
0.28699
0.28699
0.28699
0.286991
0.286991
0.286991
0.286991
0.286991
0.286992
0.286992
0.286992
0.286992
0.286992
0.286992
0.286992
0.286992
0.286992
0.286992
0.286991
0.286991
0.286991
0.286991
0.286991
0.28699
0.28699
0.28699
0.286989
0.286989
0.286988
0.286988
0.286987
0.286986
0.286984
0.286981
0.286977
0.28697
0.286957
0.286935
0.286898
0.286833
0.286725
0.286546
0.286263
0.308619
0.308912
0.309098
0.309212
0.30928
0.30932
0.309343
0.309356
0.309364
0.309369
0.309372
0.309374
0.309375
0.309376
0.309376
0.309377
0.309377
0.309378
0.309378
0.309378
0.309379
0.309379
0.309379
0.309379
0.309379
0.30938
0.30938
0.30938
0.30938
0.30938
0.30938
0.30938
0.30938
0.30938
0.30938
0.309379
0.309379
0.309379
0.309379
0.309379
0.309378
0.309378
0.309378
0.309377
0.309377
0.309376
0.309376
0.309375
0.309374
0.309372
0.309369
0.309364
0.309356
0.309343
0.30932
0.30928
0.309212
0.309098
0.308912
0.308619
0.330757
0.331059
0.331252
0.331371
0.331442
0.331484
0.331509
0.331523
0.331532
0.331537
0.33154
0.331542
0.331543
0.331544
0.331545
0.331545
0.331546
0.331546
0.331546
0.331547
0.331547
0.331547
0.331547
0.331548
0.331548
0.331548
0.331548
0.331548
0.331548
0.331548
0.331548
0.331548
0.331548
0.331548
0.331548
0.331548
0.331548
0.331547
0.331547
0.331547
0.331547
0.331546
0.331546
0.331546
0.331545
0.331545
0.331544
0.331543
0.331542
0.33154
0.331537
0.331532
0.331523
0.331509
0.331484
0.331442
0.331371
0.331252
0.331059
0.330757
0.352646
0.352956
0.353155
0.353279
0.353354
0.353398
0.353424
0.35344
0.353449
0.353454
0.353457
0.35346
0.353461
0.353462
0.353463
0.353463
0.353464
0.353464
0.353464
0.353465
0.353465
0.353465
0.353465
0.353466
0.353466
0.353466
0.353466
0.353466
0.353466
0.353466
0.353466
0.353466
0.353466
0.353466
0.353466
0.353466
0.353466
0.353465
0.353465
0.353465
0.353465
0.353464
0.353464
0.353464
0.353463
0.353463
0.353462
0.353461
0.35346
0.353457
0.353454
0.353449
0.35344
0.353424
0.353398
0.353354
0.353279
0.353155
0.352956
0.352646
0.374259
0.374576
0.374782
0.37491
0.374989
0.375035
0.375063
0.375079
0.375089
0.375095
0.375098
0.375101
0.375102
0.375103
0.375104
0.375105
0.375105
0.375105
0.375106
0.375106
0.375106
0.375106
0.375107
0.375107
0.375107
0.375107
0.375107
0.375107
0.375107
0.375107
0.375107
0.375107
0.375107
0.375107
0.375107
0.375107
0.375107
0.375107
0.375106
0.375106
0.375106
0.375106
0.375105
0.375105
0.375105
0.375104
0.375103
0.375102
0.375101
0.375098
0.375095
0.375089
0.375079
0.375063
0.375035
0.374989
0.37491
0.374782
0.374576
0.374259
0.395573
0.395897
0.396108
0.396241
0.396323
0.396372
0.396402
0.396419
0.396429
0.396435
0.396439
0.396442
0.396443
0.396444
0.396445
0.396446
0.396446
0.396446
0.396447
0.396447
0.396447
0.396448
0.396448
0.396448
0.396448
0.396448
0.396448
0.396448
0.396448
0.396448
0.396448
0.396448
0.396448
0.396448
0.396448
0.396448
0.396448
0.396448
0.396448
0.396447
0.396447
0.396447
0.396446
0.396446
0.396446
0.396445
0.396444
0.396443
0.396442
0.396439
0.396435
0.396429
0.396419
0.396402
0.396372
0.396323
0.396241
0.396108
0.395897
0.395573
0.416567
0.416896
0.417113
0.417251
0.417336
0.417388
0.417418
0.417437
0.417448
0.417454
0.417459
0.417461
0.417463
0.417464
0.417465
0.417465
0.417466
0.417466
0.417467
0.417467
0.417467
0.417467
0.417467
0.417468
0.417468
0.417468
0.417468
0.417468
0.417468
0.417468
0.417468
0.417468
0.417468
0.417468
0.417468
0.417468
0.417468
0.417467
0.417467
0.417467
0.417467
0.417467
0.417466
0.417466
0.417465
0.417465
0.417464
0.417463
0.417461
0.417459
0.417454
0.417448
0.417437
0.417418
0.417388
0.417336
0.417251
0.417113
0.416896
0.416567
0.437222
0.437556
0.437778
0.437921
0.438009
0.438063
0.438095
0.438115
0.438126
0.438133
0.438138
0.438141
0.438142
0.438144
0.438144
0.438145
0.438146
0.438146
0.438146
0.438146
0.438147
0.438147
0.438147
0.438147
0.438147
0.438147
0.438148
0.438148
0.438148
0.438148
0.438148
0.438148
0.438148
0.438148
0.438147
0.438147
0.438147
0.438147
0.438147
0.438147
0.438146
0.438146
0.438146
0.438146
0.438145
0.438144
0.438144
0.438142
0.438141
0.438138
0.438133
0.438126
0.438115
0.438095
0.438063
0.438009
0.437921
0.437778
0.437556
0.437222
0.457521
0.45786
0.458087
0.458233
0.458324
0.458381
0.458415
0.458435
0.458448
0.458455
0.45846
0.458463
0.458465
0.458466
0.458467
0.458468
0.458468
0.458468
0.458469
0.458469
0.458469
0.458469
0.45847
0.45847
0.45847
0.45847
0.45847
0.45847
0.45847
0.45847
0.45847
0.45847
0.45847
0.45847
0.45847
0.45847
0.45847
0.45847
0.458469
0.458469
0.458469
0.458469
0.458468
0.458468
0.458468
0.458467
0.458466
0.458465
0.458463
0.45846
0.458455
0.458448
0.458435
0.458415
0.458381
0.458324
0.458233
0.458087
0.45786
0.457521
0.47745
0.477792
0.478023
0.478173
0.478267
0.478326
0.478362
0.478383
0.478397
0.478405
0.47841
0.478413
0.478415
0.478416
0.478417
0.478418
0.478418
0.478419
0.478419
0.478419
0.478419
0.47842
0.47842
0.47842
0.47842
0.47842
0.47842
0.47842
0.47842
0.47842
0.47842
0.47842
0.47842
0.47842
0.47842
0.47842
0.47842
0.47842
0.47842
0.478419
0.478419
0.478419
0.478419
0.478418
0.478418
0.478417
0.478416
0.478415
0.478413
0.47841
0.478405
0.478397
0.478383
0.478362
0.478326
0.478267
0.478173
0.478023
0.477792
0.47745
0.496993
0.497338
0.497573
0.497726
0.497824
0.497885
0.497923
0.497945
0.497959
0.497968
0.497973
0.497977
0.497979
0.49798
0.497981
0.497982
0.497983
0.497983
0.497983
0.497983
0.497984
0.497984
0.497984
0.497984
0.497984
0.497984
0.497984
0.497984
0.497984
0.497984
0.497984
0.497984
0.497984
0.497984
0.497984
0.497984
0.497984
0.497984
0.497984
0.497984
0.497983
0.497983
0.497983
0.497983
0.497982
0.497981
0.49798
0.497979
0.497977
0.497973
0.497968
0.497959
0.497945
0.497923
0.497885
0.497824
0.497726
0.497573
0.497338
0.496993
0.516141
0.516487
0.516725
0.516882
0.516983
0.517046
0.517086
0.51711
0.517124
0.517134
0.517139
0.517143
0.517145
0.517147
0.517148
0.517148
0.517149
0.517149
0.51715
0.51715
0.51715
0.51715
0.51715
0.51715
0.51715
0.517151
0.517151
0.517151
0.517151
0.517151
0.517151
0.517151
0.517151
0.517151
0.517151
0.51715
0.51715
0.51715
0.51715
0.51715
0.51715
0.51715
0.517149
0.517149
0.517148
0.517148
0.517147
0.517145
0.517143
0.517139
0.517134
0.517124
0.51711
0.517086
0.517046
0.516983
0.516882
0.516725
0.516487
0.516141
0.534881
0.535229
0.53547
0.53563
0.535733
0.535799
0.53584
0.535865
0.535881
0.535891
0.535897
0.535901
0.535903
0.535905
0.535906
0.535906
0.535907
0.535907
0.535908
0.535908
0.535908
0.535908
0.535908
0.535908
0.535908
0.535908
0.535909
0.535909
0.535909
0.535909
0.535909
0.535909
0.535909
0.535909
0.535908
0.535908
0.535908
0.535908
0.535908
0.535908
0.535908
0.535908
0.535907
0.535907
0.535906
0.535906
0.535905
0.535903
0.535901
0.535897
0.535891
0.535881
0.535865
0.53584
0.535799
0.535733
0.53563
0.53547
0.535229
0.534881
0.553205
0.553553
0.553797
0.55396
0.554066
0.554134
0.554177
0.554203
0.55422
0.55423
0.554237
0.554241
0.554243
0.554245
0.554246
0.554247
0.554247
0.554248
0.554248
0.554248
0.554248
0.554248
0.554249
0.554249
0.554249
0.554249
0.554249
0.554249
0.554249
0.554249
0.554249
0.554249
0.554249
0.554249
0.554249
0.554249
0.554249
0.554249
0.554248
0.554248
0.554248
0.554248
0.554248
0.554247
0.554247
0.554246
0.554245
0.554243
0.554241
0.554237
0.55423
0.55422
0.554203
0.554177
0.554134
0.554066
0.55396
0.553797
0.553553
0.553205
0.571105
0.571453
0.571698
0.571864
0.571973
0.572043
0.572088
0.572116
0.572133
0.572144
0.572151
0.572155
0.572158
0.57216
0.572161
0.572162
0.572162
0.572163
0.572163
0.572163
0.572163
0.572163
0.572164
0.572164
0.572164
0.572164
0.572164
0.572164
0.572164
0.572164
0.572164