/*--------------------------------*- C++ -*----------------------------------*\
| =========                 |                                                 |
| \\      /  F ield         | foam-extend: Open Source CFD                    |
|  \\    /   O peration     | Version:     4.0                                |
|   \\  /    A nd           | Web:         http://www.foam-extend.org         |
|    \\/     M anipulation  |                                                 |
\*---------------------------------------------------------------------------*/
FoamFile
{
    version     2.0;
    format      ascii;
    class       volScalarField;
    location    "620";
    object      cPlus;
}
// * * * * * * * * * * * * * * * * * * * * * * * * * * * * * * * * * * * * * //

dimensions      [0 0 0 0 0 0 0];

internalField   nonuniform List<scalar> 
6960
(
0.331933
0.331927
0.331928
0.331931
0.331934
0.331937
0.331939
0.331941
0.331943
0.331944
0.331946
0.331947
0.331948
0.331949
0.33195
0.331951
0.331952
0.331952
0.331953
0.331954
0.331954
0.331954
0.331955
0.331955
0.331955
0.331956
0.331956
0.331956
0.331956
0.331956
0.331956
0.331956
0.331956
0.331956
0.331956
0.331955
0.331955
0.331955
0.331954
0.331954
0.331954
0.331953
0.331952
0.331952
0.331951
0.33195
0.331949
0.331948
0.331947
0.331946
0.331944
0.331943
0.331941
0.331939
0.331937
0.331934
0.331931
0.331928
0.331927
0.331933
0.151264
0.151283
0.151289
0.151292
0.151295
0.151297
0.151299
0.1513
0.151302
0.151303
0.151304
0.151305
0.151306
0.151306
0.151307
0.151308
0.151308
0.151309
0.151309
0.15131
0.15131
0.15131
0.151311
0.151311
0.151311
0.151311
0.151311
0.151312
0.151312
0.151312
0.151312
0.151312
0.151312
0.151311
0.151311
0.151311
0.151311
0.151311
0.15131
0.15131
0.15131
0.151309
0.151309
0.151308
0.151308
0.151307
0.151306
0.151306
0.151305
0.151304
0.151303
0.151302
0.1513
0.151299
0.151297
0.151295
0.151292
0.151289
0.151283
0.151264
0.11104
0.111076
0.111084
0.111088
0.11109
0.111092
0.111094
0.111095
0.111096
0.111097
0.111098
0.111098
0.111099
0.1111
0.1111
0.111101
0.111101
0.111102
0.111102
0.111102
0.111103
0.111103
0.111103
0.111103
0.111103
0.111103
0.111104
0.111104
0.111104
0.111104
0.111104
0.111104
0.111104
0.111104
0.111103
0.111103
0.111103
0.111103
0.111103
0.111103
0.111102
0.111102
0.111102
0.111101
0.111101
0.1111
0.1111
0.111099
0.111098
0.111098
0.111097
0.111096
0.111095
0.111094
0.111092
0.11109
0.111088
0.111084
0.111076
0.11104
0.10528
0.105328
0.105339
0.105343
0.105345
0.105347
0.105348
0.10535
0.105351
0.105351
0.105352
0.105353
0.105354
0.105354
0.105355
0.105355
0.105355
0.105356
0.105356
0.105356
0.105357
0.105357
0.105357
0.105357
0.105358
0.105358
0.105358
0.105358
0.105358
0.105358
0.105358
0.105358
0.105358
0.105358
0.105358
0.105358
0.105357
0.105357
0.105357
0.105357
0.105356
0.105356
0.105356
0.105355
0.105355
0.105355
0.105354
0.105354
0.105353
0.105352
0.105351
0.105351
0.10535
0.105348
0.105347
0.105345
0.105343
0.105339
0.105328
0.10528
0.111432
0.111492
0.111506
0.111511
0.111513
0.111515
0.111517
0.111518
0.111519
0.11152
0.111521
0.111522
0.111522
0.111523
0.111523
0.111524
0.111524
0.111525
0.111525
0.111525
0.111526
0.111526
0.111526
0.111526
0.111526
0.111527
0.111527
0.111527
0.111527
0.111527
0.111527
0.111527
0.111527
0.111527
0.111527
0.111526
0.111526
0.111526
0.111526
0.111526
0.111525
0.111525
0.111525
0.111524
0.111524
0.111523
0.111523
0.111522
0.111522
0.111521
0.11152
0.111519
0.111518
0.111517
0.111515
0.111513
0.111511
0.111506
0.111492
0.111432
0.123762
0.123836
0.123853
0.123859
0.123862
0.123864
0.123866
0.123867
0.123869
0.12387
0.123871
0.123872
0.123872
0.123873
0.123874
0.123874
0.123875
0.123875
0.123876
0.123876
0.123876
0.123877
0.123877
0.123877
0.123877
0.123877
0.123878
0.123878
0.123878
0.123878
0.123878
0.123878
0.123878
0.123878
0.123877
0.123877
0.123877
0.123877
0.123877
0.123876
0.123876
0.123876
0.123875
0.123875
0.123874
0.123874
0.123873
0.123872
0.123872
0.123871
0.12387
0.123869
0.123867
0.123866
0.123864
0.123862
0.123859
0.123853
0.123836
0.123762
0.14086
0.140951
0.140972
0.140979
0.140982
0.140985
0.140987
0.140989
0.14099
0.140992
0.140993
0.140994
0.140995
0.140995
0.140996
0.140997
0.140997
0.140998
0.140998
0.140999
0.140999
0.141
0.141
0.141
0.141
0.141001
0.141001
0.141001
0.141001
0.141001
0.141001
0.141001
0.141001
0.141001
0.141001
0.141
0.141
0.141
0.141
0.140999
0.140999
0.140998
0.140998
0.140997
0.140997
0.140996
0.140995
0.140995
0.140994
0.140993
0.140992
0.14099
0.140989
0.140987
0.140985
0.140982
0.140979
0.140972
0.140951
0.14086
0.162364
0.162474
0.162499
0.162507
0.162512
0.162515
0.162517
0.162519
0.162521
0.162522
0.162524
0.162525
0.162526
0.162527
0.162528
0.162528
0.162529
0.16253
0.16253
0.162531
0.162531
0.162532
0.162532
0.162532
0.162533
0.162533
0.162533
0.162533
0.162533
0.162533
0.162533
0.162533
0.162533
0.162533
0.162533
0.162533
0.162532
0.162532
0.162532
0.162531
0.162531
0.16253
0.16253
0.162529
0.162528
0.162528
0.162527
0.162526
0.162525
0.162524
0.162522
0.162521
0.162519
0.162517
0.162515
0.162512
0.162507
0.162499
0.162474
0.162364
0.18791
0.188041
0.188071
0.188081
0.188085
0.188089
0.188092
0.188094
0.188096
0.188098
0.188099
0.1881
0.188101
0.188102
0.188103
0.188104
0.188105
0.188106
0.188106
0.188107
0.188107
0.188108
0.188108
0.188109
0.188109
0.188109
0.188109
0.18811
0.18811
0.18811
0.18811
0.18811
0.18811
0.188109
0.188109
0.188109
0.188109
0.188108
0.188108
0.188107
0.188107
0.188106
0.188106
0.188105
0.188104
0.188103
0.188102
0.188101
0.1881
0.188099
0.188098
0.188096
0.188094
0.188092
0.188089
0.188085
0.188081
0.188071
0.188041
0.18791
0.216831
0.216983
0.217018
0.217029
0.217034
0.217038
0.217041
0.217043
0.217046
0.217047
0.217049
0.21705
0.217051
0.217053
0.217054
0.217055
0.217055
0.217056
0.217057
0.217057
0.217058
0.217058
0.217059
0.217059
0.21706
0.21706
0.21706
0.21706
0.21706
0.21706
0.21706
0.21706
0.21706
0.21706
0.21706
0.21706
0.217059
0.217059
0.217058
0.217058
0.217057
0.217057
0.217056
0.217055
0.217055
0.217054
0.217053
0.217051
0.21705
0.217049
0.217047
0.217046
0.217043
0.217041
0.217038
0.217034
0.217029
0.217018
0.216983
0.216831
0.248201
0.248373
0.248412
0.248424
0.24843
0.248434
0.248437
0.248439
0.248442
0.248443
0.248445
0.248446
0.248448
0.248449
0.24845
0.248451
0.248452
0.248452
0.248453
0.248454
0.248454
0.248455
0.248455
0.248456
0.248456
0.248456
0.248456
0.248457
0.248457
0.248457
0.248457
0.248457
0.248457
0.248456
0.248456
0.248456
0.248456
0.248455
0.248455
0.248454
0.248454
0.248453
0.248452
0.248452
0.248451
0.24845
0.248449
0.248448
0.248446
0.248445
0.248443
0.248442
0.248439
0.248437
0.248434
0.24843
0.248424
0.248412
0.248373
0.248201
0.281029
0.281219
0.281262
0.281276
0.281282
0.281286
0.281289
0.281291
0.281293
0.281295
0.281297
0.281298
0.281299
0.2813
0.281302
0.281302
0.281303
0.281304
0.281305
0.281305
0.281306
0.281306
0.281307
0.281307
0.281308
0.281308
0.281308
0.281308
0.281308
0.281308
0.281308
0.281308
0.281308
0.281308
0.281308
0.281308
0.281307
0.281307
0.281306
0.281306
0.281305
0.281305
0.281304
0.281303
0.281302
0.281302
0.2813
0.281299
0.281298
0.281297
0.281295
0.281293
0.281291
0.281289
0.281286
0.281282
0.281276
0.281262
0.281219
0.281029
0.314447
0.314653
0.314701
0.314715
0.314721
0.314725
0.314728
0.31473
0.314732
0.314734
0.314736
0.314737
0.314738
0.314739
0.31474
0.314741
0.314742
0.314743
0.314744
0.314744
0.314745
0.314745
0.314746
0.314746
0.314746
0.314747
0.314747
0.314747
0.314747
0.314747
0.314747
0.314747
0.314747
0.314747
0.314747
0.314746
0.314746
0.314746
0.314745
0.314745
0.314744
0.314744
0.314743
0.314742
0.314741
0.31474
0.314739
0.314738
0.314737
0.314736
0.314734
0.314732
0.31473
0.314728
0.314725
0.314721
0.314715
0.314701
0.314653
0.314447
0.347801
0.348021
0.348073
0.348087
0.348094
0.348098
0.3481
0.348103
0.348105
0.348107
0.348108
0.348109
0.348111
0.348112
0.348113
0.348113
0.348114
0.348115
0.348116
0.348116
0.348117
0.348117
0.348118
0.348118
0.348118
0.348119
0.348119
0.348119
0.348119
0.348119
0.348119
0.348119
0.348119
0.348119
0.348119
0.348118
0.348118
0.348118
0.348117
0.348117
0.348116
0.348116
0.348115
0.348114
0.348113
0.348113
0.348112
0.348111
0.348109
0.348108
0.348107
0.348105
0.348103
0.3481
0.348098
0.348094
0.348087
0.348073
0.348021
0.347801
0.380652
0.380884
0.380939
0.380955
0.380961
0.380965
0.380968
0.38097
0.380972
0.380973
0.380975
0.380976
0.380977
0.380978
0.380979
0.38098
0.380981
0.380981
0.380982
0.380983
0.380983
0.380984
0.380984
0.380984
0.380985
0.380985
0.380985
0.380985
0.380985
0.380985
0.380985
0.380985
0.380985
0.380985
0.380985
0.380985
0.380984
0.380984
0.380984
0.380983
0.380983
0.380982
0.380981
0.380981
0.38098
0.380979
0.380978
0.380977
0.380976
0.380975
0.380973
0.380972
0.38097
0.380968
0.380965
0.380961
0.380955
0.380939
0.380884
0.380652
0.412728
0.412971
0.41303
0.413046
0.413053
0.413056
0.413059
0.413061
0.413063
0.413064
0.413066
0.413067
0.413068
0.413069
0.41307
0.41307
0.413071
0.413072
0.413072
0.413073
0.413073
0.413074
0.413074
0.413074
0.413075
0.413075
0.413075
0.413075
0.413075
0.413075
0.413075
0.413075
0.413075
0.413075
0.413075
0.413075
0.413074
0.413074
0.413074
0.413073
0.413073
0.413072
0.413072
0.413071
0.41307
0.41307
0.413069
0.413068
0.413067
0.413066
0.413064
0.413063
0.413061
0.413059
0.413056
0.413053
0.413046
0.41303
0.412971
0.412728
0.443873
0.444125
0.444187
0.444204
0.44421
0.444214
0.444216
0.444218
0.44422
0.444221
0.444223
0.444224
0.444225
0.444226
0.444226
0.444227
0.444228
0.444228
0.444229
0.44423
0.44423
0.44423
0.444231
0.444231
0.444231
0.444232
0.444232
0.444232
0.444232
0.444232
0.444232
0.444232
0.444232
0.444232
0.444232
0.444231
0.444231
0.444231
0.44423
0.44423
0.44423
0.444229
0.444228
0.444228
0.444227
0.444226
0.444226
0.444225
0.444224
0.444223
0.444221
0.44422
0.444218
0.444216
0.444214
0.44421
0.444204
0.444187
0.444125
0.443873
0.473998
0.474258
0.474323
0.474341
0.474348
0.474351
0.474353
0.474355
0.474357
0.474358
0.474359
0.47436
0.474361
0.474362
0.474363
0.474363
0.474364
0.474365
0.474365
0.474366
0.474366
0.474366
0.474367
0.474367
0.474367
0.474367
0.474368
0.474368
0.474368
0.474368
0.474368
0.474368
0.474368
0.474368
0.474367
0.474367
0.474367
0.474367
0.474366
0.474366
0.474366
0.474365
0.474365
0.474364
0.474363
0.474363
0.474362
0.474361
0.47436
0.474359
0.474358
0.474357
0.474355
0.474353
0.474351
0.474348
0.474341
0.474323
0.474258
0.473998
0.503058
0.503325
0.503393
0.503412
0.503418
0.503421
0.503424
0.503425
0.503427
0.503428
0.503429
0.50343
0.503431
0.503432
0.503432
0.503433
0.503434
0.503434
0.503435
0.503435
0.503436
0.503436
0.503436
0.503436
0.503437
0.503437
0.503437
0.503437
0.503437
0.503437
0.503437
0.503437
0.503437
0.503437
0.503437
0.503437
0.503436
0.503436
0.503436
0.503436
0.503435
0.503435
0.503434
0.503434
0.503433
0.503432
0.503432
0.503431
0.50343
0.503429
0.503428
0.503427
0.503425
0.503424
0.503421
0.503418
0.503412
0.503393
0.503325
0.503058
0.531032
0.531305
0.531375
0.531395
0.531401
0.531404
0.531406
0.531408
0.531409
0.53141
0.531411
0.531412
0.531413
0.531414
0.531414
0.531415
0.531416
0.531416
0.531417
0.531417
0.531417
0.531418
0.531418
0.531418
0.531418
0.531419
0.531419
0.531419
0.531419
0.531419
0.531419
0.531419
0.531419
0.531419
0.531419
0.531418
0.531418
0.531418
0.531418
0.531417
0.531417
0.531417
0.531416
0.531416
0.531415
0.531414
0.531414
0.531413
0.531412
0.531411
0.53141
0.531409
0.531408
0.531406
0.531404
0.531401
0.531395
0.531375
0.531305
0.531032
0.557912
0.55819
0.558263
0.558283
0.55829
0.558293
0.558295
0.558296
0.558297
0.558298
0.558299
0.5583
0.558301
0.558302
0.558302
0.558303
0.558303
0.558304
0.558304
0.558305
0.558305
0.558305
0.558306
0.558306
0.558306
0.558306
0.558306
0.558306
0.558306
0.558307
0.558307
0.558306
0.558306
0.558306
0.558306
0.558306
0.558306
0.558306
0.558305
0.558305
0.558305
0.558304
0.558304
0.558303
0.558303
0.558302
0.558302
0.558301
0.5583
0.558299
0.558298
0.558297
0.558296
0.558295
0.558293
0.55829
0.558283
0.558263
0.55819
0.557912
0.583702
0.583984
0.58406
0.58408
0.584087
0.58409
0.584092
0.584093
0.584094
0.584095
0.584096
0.584097
0.584098
0.584098
0.584099
0.584099
0.5841
0.5841
0.584101
0.584101
0.584101
0.584102
0.584102
0.584102
0.584102
0.584103
0.584103
0.584103
0.584103
0.584103
0.584103
0.584103
0.584103
0.584103
0.584103
0.584102
0.584102
0.584102
0.584102
0.584101
0.584101
0.584101
0.5841
0.5841
0.584099
0.584099
0.584098
0.584098
0.584097
0.584096
0.584095
0.584094
0.584093
0.584092
0.58409
0.584087
0.58408
0.58406
0.583984
0.583702
0.608411
0.608696
0.608774
0.608796
0.608802
0.608805
0.608807
0.608808
0.608809
0.60881
0.608811
0.608812
0.608812
0.608813
0.608813
0.608814
0.608814
0.608815
0.608815
0.608816
0.608816
0.608816
0.608816
0.608817
0.608817
0.608817
0.608817
0.608817
0.608817
0.608817
0.608817
0.608817
0.608817
0.608817
0.608817
0.608817
0.608817
0.608816
0.608816
0.608816
0.608816
0.608815
0.608815
0.608814
0.608814
0.608813
0.608813
0.608812
0.608812
0.608811
0.60881
0.608809
0.608808
0.608807
0.608805
0.608802
0.608796
0.608774
0.608696
0.608411
0.632053
0.632339
0.63242
0.632442
0.632449
0.632452
0.632453
0.632455
0.632456
0.632456
0.632457
0.632458
0.632458
0.632459
0.63246
0.63246
0.63246
0.632461
0.632461
0.632461
0.632462
0.632462
0.632462
0.632462
0.632463
0.632463
0.632463
0.632463
0.632463
0.632463
0.632463
0.632463
0.632463
0.632463
0.632463
0.632463
0.632462
0.632462
0.632462
0.632462
0.632461
0.632461
0.632461
0.63246
0.63246
0.63246
0.632459
0.632458
0.632458
0.632457
0.632456
0.632456
0.632455
0.632453
0.632452
0.632449
0.632442
0.63242
0.632339
0.632053
0.654644
0.654931
0.655014
0.655037
0.655044
0.655047
0.655048
0.655049
0.65505
0.655051
0.655052
0.655052
0.655053
0.655053
0.655054
0.655054
0.655055
0.655055
0.655055
0.655056
0.655056
0.655056
0.655056
0.655057
0.655057
0.655057
0.655057
0.655057
0.655057
0.655057
0.655057
0.655057
0.655057
0.655057
0.655057
0.655057
0.655057
0.655056
0.655056
0.655056
0.655056
0.655055
0.655055
0.655055
0.655054
0.655054
0.655053
0.655053
0.655052
0.655052
0.655051
0.65505
0.655049
0.655048
0.655047
0.655044
0.655037
0.655014
0.654931
0.654644
0.676204
0.676491
0.676576
0.676599
0.676606
0.676609
0.676611
0.676612
0.676612
0.676613
0.676614
0.676614
0.676615
0.676615
0.676616
0.676616
0.676617
0.676617
0.676617
0.676617
0.676618
0.676618
0.676618
0.676618
0.676618
0.676619
0.676619
0.676619
0.676619
0.676619
0.676619
0.676619
0.676619
0.676619
0.676619
0.676618
0.676618
0.676618
0.676618
0.676618
0.676617
0.676617
0.676617
0.676617
0.676616
0.676616
0.676615
0.676615
0.676614
0.676614
0.676613
0.676612
0.676612
0.676611
0.676609
0.676606
0.676599
0.676576
0.676491
0.676204
0.696753
0.69704
0.697126
0.69715
0.697157
0.69716
0.697162
0.697163
0.697163
0.697164
0.697165
0.697165
0.697166
0.697166
0.697166
0.697167
0.697167
0.697167
0.697168
0.697168
0.697168
0.697168
0.697169
0.697169
0.697169
0.697169
0.697169
0.697169
0.697169
0.697169
0.697169
0.697169
0.697169
0.697169
0.697169
0.697169
0.697169
0.697169
0.697168
0.697168
0.697168
0.697168
0.697167
0.697167
0.697167
0.697166
0.697166
0.697166
0.697165
0.697165
0.697164
0.697163
0.697163
0.697162
0.69716
0.697157
0.69715
0.697126
0.69704
0.696753
0.716315
0.7166
0.716687
0.716712
0.71672
0.716723
0.716724
0.716725
0.716726
0.716726
0.716727
0.716727
0.716728
0.716728
0.716729
0.716729
0.716729
0.716729
0.71673
0.71673
0.71673
0.71673
0.716731
0.716731
0.716731
0.716731
0.716731
0.716731
0.716731
0.716731
0.716731
0.716731
0.716731
0.716731
0.716731
0.716731
0.716731
0.716731
0.71673
0.71673
0.71673
0.71673
0.716729
0.716729
0.716729
0.716729
0.716728
0.716728
0.716727
0.716727
0.716726
0.716726
0.716725
0.716724
0.716723
0.71672
0.716712
0.716687
0.7166
0.716315
0.734913
0.735196
0.735285
0.73531
0.735318
0.735321
0.735322
0.735323
0.735324
0.735324
0.735325
0.735325
0.735326
0.735326
0.735326
0.735327
0.735327
0.735327
0.735327
0.735328
0.735328
0.735328
0.735328
0.735328
0.735328
0.735328
0.735329
0.735329
0.735329
0.735329
0.735329
0.735329
0.735329
0.735329
0.735328
0.735328
0.735328
0.735328
0.735328
0.735328
0.735328
0.735327
0.735327
0.735327
0.735327
0.735326
0.735326
0.735326
0.735325
0.735325
0.735324
0.735324
0.735323
0.735322
0.735321
0.735318
0.73531
0.735285
0.735196
0.734913
0.752572
0.752852
0.752942
0.752969
0.752977
0.75298
0.752981
0.752982
0.752982
0.752983
0.752983
0.752984
0.752984
0.752984
0.752985
0.752985
0.752985
0.752986
0.752986
0.752986
0.752986
0.752986
0.752987
0.752987
0.752987
0.752987
0.752987
0.752987
0.752987
0.752987
0.752987
0.752987
0.752987
0.752987
0.752987
0.752987
0.752987
0.752987
0.752986
0.752986
0.752986
0.752986
0.752986
0.752985
0.752985
0.752985
0.752984
0.752984
0.752984
0.752983
0.752983
0.752982
0.752982
0.752981
0.75298
0.752977
0.752969
0.752942
0.752852
0.752572
0.76932
0.769596
0.769687
0.769715
0.769723
0.769725
0.769727
0.769727
0.769728
0.769728
0.769729
0.769729
0.76973
0.76973
0.76973
0.769731
0.769731
0.769731
0.769731
0.769731
0.769732
0.769732
0.769732
0.769732
0.769732
0.769732
0.769732
0.769732
0.769732
0.769732
0.769732
0.769732
0.769732
0.769732
0.769732
0.769732
0.769732
0.769732
0.769732
0.769732
0.769731
0.769731
0.769731
0.769731
0.769731
0.76973
0.76973
0.76973
0.769729
0.769729
0.769728
0.769728
0.769727
0.769727
0.769725
0.769723
0.769715
0.769687
0.769596
0.76932
0.785182
0.785454
0.785546
0.785574
0.785582
0.785585
0.785586
0.785587
0.785588
0.785588
0.785588
0.785589
0.785589
0.785589
0.78559
0.78559
0.78559
0.78559
0.78559
0.785591
0.785591
0.785591
0.785591
0.785591
0.785591
0.785591
0.785591
0.785591
0.785591
0.785591
0.785591
0.785591
0.785591
0.785591
0.785591
0.785591
0.785591
0.785591
0.785591
0.785591
0.785591
0.78559
0.78559
0.78559
0.78559
0.78559
0.785589
0.785589
0.785589
0.785588
0.785588
0.785588
0.785587
0.785586
0.785585
0.785582
0.785574
0.785546
0.785454
0.785182
0.800186
0.800454
0.800546
0.800575
0.800583
0.800586
0.800587
0.800588
0.800588
0.800589
0.800589
0.800589
0.80059
0.80059
0.80059
0.800591
0.800591
0.800591
0.800591
0.800591
0.800591
0.800592
0.800592
0.800592
0.800592
0.800592
0.800592
0.800592
0.800592
0.800592
0.800592
0.800592
0.800592
0.800592
0.800592
0.800592
0.800592
0.800592
0.800592
0.800591
0.800591
0.800591
0.800591
0.800591
0.800591
0.80059
0.80059
0.80059
0.800589
0.800589
0.800589
0.800588
0.800588
0.800587
0.800586
0.800583
0.800575
0.800546
0.800454
0.800186
0.814361
0.814623
0.814716
0.814745
0.814754
0.814757
0.814758
0.814758
0.814759
0.814759
0.81476
0.81476
0.81476
0.81476
0.814761
0.814761
0.814761
0.814761
0.814761
0.814761
0.814762
0.814762
0.814762
0.814762
0.814762
0.814762
0.814762
0.814762
0.814762
0.814762
0.814762
0.814762
0.814762
0.814762
0.814762
0.814762
0.814762
0.814762
0.814762
0.814762
0.814761
0.814761
0.814761
0.814761
0.814761
0.814761
0.81476
0.81476
0.81476
0.81476
0.814759
0.814759
0.814758
0.814758
0.814757
0.814754
0.814745
0.814716
0.814623
0.814361
0.827734
0.827991
0.828083
0.828113
0.828122
0.828125
0.828126
0.828127
0.828127
0.828128
0.828128
0.828128
0.828128
0.828129
0.828129
0.828129
0.828129
0.828129
0.82813
0.82813
0.82813
0.82813
0.82813
0.82813
0.82813
0.82813
0.82813
0.82813
0.82813
0.82813
0.82813
0.82813
0.82813
0.82813
0.82813
0.82813
0.82813
0.82813
0.82813
0.82813
0.82813
0.82813
0.828129
0.828129
0.828129
0.828129
0.828129
0.828128
0.828128
0.828128
0.828128
0.828127
0.828127
0.828126
0.828125
0.828122
0.828113
0.828083
0.827991
0.827734
0.840335
0.840585
0.840678
0.840708
0.840717
0.84072
0.840722
0.840722
0.840723
0.840723
0.840723
0.840723
0.840724
0.840724
0.840724
0.840724
0.840724
0.840725
0.840725
0.840725
0.840725
0.840725
0.840725
0.840725
0.840725
0.840725
0.840725
0.840725
0.840725
0.840725
0.840725
0.840725
0.840725
0.840725
0.840725
0.840725
0.840725
0.840725
0.840725
0.840725
0.840725
0.840725
0.840725
0.840724
0.840724
0.840724
0.840724
0.840724
0.840723
0.840723
0.840723
0.840723
0.840722
0.840722
0.84072
0.840717
0.840708
0.840678
0.840585
0.840335
0.852192
0.852436
0.852528
0.852559
0.852568
0.852572
0.852573
0.852573
0.852574
0.852574
0.852574
0.852574
0.852575
0.852575
0.852575
0.852575
0.852575
0.852575
0.852576
0.852576
0.852576
0.852576
0.852576
0.852576
0.852576
0.852576
0.852576
0.852576
0.852576
0.852576
0.852576
0.852576
0.852576
0.852576
0.852576
0.852576
0.852576
0.852576
0.852576
0.852576
0.852576
0.852576
0.852575
0.852575
0.852575
0.852575
0.852575
0.852575
0.852574
0.852574
0.852574
0.852574
0.852573
0.852573
0.852572
0.852568
0.852559
0.852528
0.852436
0.852192
0.863335
0.863572
0.863663
0.863694
0.863704
0.863708
0.863709
0.863709
0.86371
0.86371
0.86371
0.86371
0.863711
0.863711
0.863711
0.863711
0.863711
0.863711
0.863712
0.863712
0.863712
0.863712
0.863712
0.863712
0.863712
0.863712
0.863712
0.863712
0.863712
0.863712
0.863712
0.863712
0.863712
0.863712
0.863712
0.863712
0.863712
0.863712
0.863712
0.863712
0.863712
0.863712
0.863711
0.863711
0.863711
0.863711
0.863711
0.863711
0.86371
0.86371
0.86371
0.86371
0.863709
0.863709
0.863708
0.863704
0.863694
0.863663
0.863572
0.863335
0.873792
0.874022
0.874113
0.874144
0.874155
0.874158
0.874159
0.87416
0.87416
0.87416
0.87416
0.874161
0.874161
0.874161
0.874161
0.874161
0.874161
0.874161
0.874162
0.874162
0.874162
0.874162
0.874162
0.874162
0.874162
0.874162
0.874162
0.874162
0.874162
0.874162
0.874162
0.874162
0.874162
0.874162
0.874162
0.874162
0.874162
0.874162
0.874162
0.874162
0.874162
0.874162
0.874161
0.874161
0.874161
0.874161
0.874161
0.874161
0.874161
0.87416
0.87416
0.87416
0.87416
0.874159
0.874158
0.874155
0.874144
0.874113
0.874022
0.873792
0.883593
0.883815
0.883905
0.883937
0.883948
0.883951
0.883952
0.883953
0.883953
0.883953
0.883954
0.883954
0.883954
0.883954
0.883954
0.883954
0.883954
0.883955
0.883955
0.883955
0.883955
0.883955
0.883955
0.883955
0.883955
0.883955
0.883955
0.883955
0.883955
0.883955
0.883955
0.883955
0.883955
0.883955
0.883955
0.883955
0.883955
0.883955
0.883955
0.883955
0.883955
0.883955
0.883955
0.883954
0.883954
0.883954
0.883954
0.883954
0.883954
0.883954
0.883953
0.883953
0.883953
0.883952
0.883951
0.883948
0.883937
0.883905
0.883815
0.883593
0.892766
0.892981
0.89307
0.893102
0.893113
0.893116
0.893118
0.893118
0.893118
0.893119
0.893119
0.893119
0.893119
0.893119
0.893119
0.893119
0.893119
0.89312
0.89312
0.89312
0.89312
0.89312
0.89312
0.89312
0.89312
0.89312
0.89312
0.89312
0.89312
0.89312
0.89312
0.89312
0.89312
0.89312
0.89312
0.89312
0.89312
0.89312
0.89312
0.89312
0.89312
0.89312
0.89312
0.893119
0.893119
0.893119
0.893119
0.893119
0.893119
0.893119
0.893119
0.893118
0.893118
0.893118
0.893116
0.893113
0.893102
0.89307
0.892981
0.892766
0.90134
0.901548
0.901635
0.901667
0.901678
0.901682
0.901683
0.901684
0.901684
0.901684
0.901684
0.901684
0.901685
0.901685
0.901685
0.901685
0.901685
0.901685
0.901685
0.901685
0.901685
0.901685
0.901685
0.901685
0.901685
0.901686
0.901686
0.901686
0.901686
0.901686
0.901686
0.901686
0.901686
0.901686
0.901686
0.901685
0.901685
0.901685
0.901685
0.901685
0.901685
0.901685
0.901685
0.901685
0.901685
0.901685
0.901685
0.901685
0.901684
0.901684
0.901684
0.901684
0.901684
0.901683
0.901682
0.901678
0.901667
0.901635
0.901548
0.90134
0.909343
0.909543
0.909629
0.909661
0.909672
0.909676
0.909677
0.909678
0.909678
0.909678
0.909679
0.909679
0.909679
0.909679
0.909679
0.909679
0.909679
0.909679
0.909679
0.909679
0.909679
0.909679
0.90968
0.90968
0.90968
0.90968
0.90968
0.90968
0.90968
0.90968
0.90968
0.90968
0.90968
0.90968
0.90968
0.90968
0.90968
0.90968
0.909679
0.909679
0.909679
0.909679
0.909679
0.909679
0.909679
0.909679
0.909679
0.909679
0.909679
0.909679
0.909678
0.909678
0.909678
0.909677
0.909676
0.909672
0.909661
0.909629
0.909543
0.909343
0.916803
0.916995
0.917079
0.917111
0.917123
0.917127
0.917128
0.917129
0.917129
0.917129
0.917129
0.917129
0.917129
0.91713
0.91713
0.91713
0.91713
0.91713
0.91713
0.91713
0.91713
0.91713
0.91713
0.91713
0.91713
0.91713
0.91713
0.91713
0.91713
0.91713
0.91713
0.91713
0.91713
0.91713
0.91713
0.91713
0.91713
0.91713
0.91713
0.91713
0.91713
0.91713
0.91713
0.91713
0.91713
0.91713
0.91713
0.917129
0.917129
0.917129
0.917129
0.917129
0.917129
0.917128
0.917127
0.917123
0.917111
0.917079
0.916995
0.916803
0.923747
0.923931
0.924013
0.924045
0.924057
0.924061
0.924063
0.924063
0.924063
0.924064
0.924064
0.924064
0.924064
0.924064
0.924064
0.924064
0.924064
0.924064
0.924064
0.924064
0.924064
0.924064
0.924064
0.924065
0.924065
0.924065
0.924065
0.924065
0.924065
0.924065
0.924065
0.924065
0.924065
0.924065
0.924065
0.924065
0.924065
0.924064
0.924064
0.924064
0.924064
0.924064
0.924064
0.924064
0.924064
0.924064
0.924064
0.924064
0.924064
0.924064
0.924064
0.924063
0.924063
0.924063
0.924061
0.924057
0.924045
0.924013
0.923931
0.923747
0.930202
0.930378
0.930458
0.93049
0.930502
0.930506
0.930508
0.930508
0.930508
0.930509
0.930509
0.930509
0.930509
0.930509
0.930509
0.930509
0.930509
0.930509
0.930509
0.930509
0.930509
0.930509
0.930509
0.930509
0.930509
0.930509
0.930509
0.930509
0.930509
0.930509
0.930509
0.930509
0.930509
0.930509
0.930509
0.930509
0.930509
0.930509
0.930509
0.930509
0.930509
0.930509
0.930509
0.930509
0.930509
0.930509
0.930509
0.930509
0.930509
0.930509
0.930509
0.930508
0.930508
0.930508
0.930506
0.930502
0.93049
0.930458
0.930378
0.930202
0.936194
0.936361
0.936439
0.936471
0.936483
0.936488
0.936489
0.93649
0.93649
0.93649
0.93649
0.93649
0.93649
0.936491
0.936491
0.936491
0.936491
0.936491
0.936491
0.936491
0.936491
0.936491
0.936491
0.936491
0.936491
0.936491
0.936491
0.936491
0.936491
0.936491
0.936491
0.936491
0.936491
0.936491
0.936491
0.936491
0.936491
0.936491
0.936491
0.936491
0.936491
0.936491
0.936491
0.936491
0.936491
0.936491
0.936491
0.93649
0.93649
0.93649
0.93649
0.93649
0.93649
0.936489
0.936488
0.936483
0.936471
0.936439
0.936361
0.936194
0.941748
0.941907
0.941983
0.942015
0.942027
0.942031
0.942033
0.942034
0.942034
0.942034
0.942034
0.942034
0.942034
0.942034
0.942034
0.942034
0.942034
0.942034
0.942034
0.942034
0.942035
0.942035
0.942035
0.942035
0.942035
0.942035
0.942035
0.942035
0.942035
0.942035
0.942035
0.942035
0.942035
0.942035
0.942035
0.942035
0.942035
0.942035
0.942035
0.942035
0.942034
0.942034
0.942034
0.942034
0.942034
0.942034
0.942034
0.942034
0.942034
0.942034
0.942034
0.942034
0.942034
0.942033
0.942031
0.942027
0.942015
0.941983
0.941907
0.941748
0.946889
0.94704
0.947114
0.947145
0.947157
0.947162
0.947164
0.947164
0.947165
0.947165
0.947165
0.947165
0.947165
0.947165
0.947165
0.947165
0.947165
0.947165
0.947165
0.947165
0.947165
0.947165
0.947165
0.947165
0.947165
0.947165
0.947165
0.947165
0.947165
0.947165
0.947165
0.947165
0.947165
0.947165
0.947165
0.947165
0.947165
0.947165
0.947165
0.947165
0.947165
0.947165
0.947165
0.947165
0.947165
0.947165
0.947165
0.947165
0.947165
0.947165
0.947165
0.947165
0.947164
0.947164
0.947162
0.947157
0.947145
0.947114
0.94704
0.946889
0.951641
0.951785
0.951855
0.951886
0.951899
0.951903
0.951905
0.951906
0.951906
0.951906
0.951906
0.951906
0.951906
0.951906
0.951906
0.951906
0.951906
0.951906
0.951906
0.951907
0.951907
0.951907
0.951907
0.951907
0.951907
0.951907
0.951907
0.951907
0.951907
0.951907
0.951907
0.951907
0.951907
0.951907
0.951907
0.951907
0.951907
0.951907
0.951907
0.951907
0.951907
0.951906
0.951906
0.951906
0.951906
0.951906
0.951906
0.951906
0.951906
0.951906
0.951906
0.951906
0.951906
0.951905
0.951903
0.951899
0.951886
0.951855
0.951785
0.951641
0.956027
0.956163
0.956231
0.956262
0.956274
0.956279
0.956281
0.956282
0.956282
0.956282
0.956282
0.956282
0.956282
0.956282
0.956282
0.956282
0.956282
0.956282
0.956282
0.956282
0.956282
0.956282
0.956282
0.956282
0.956282
0.956282
0.956282
0.956282
0.956282
0.956282
0.956282
0.956282
0.956282
0.956282
0.956282
0.956282
0.956282
0.956282
0.956282
0.956282
0.956282
0.956282
0.956282
0.956282
0.956282
0.956282
0.956282
0.956282
0.956282
0.956282
0.956282
0.956282
0.956282
0.956281
0.956279
0.956274
0.956262
0.956231
0.956163
0.956027
0.96007
0.960198
0.960264
0.960294
0.960306
0.960311
0.960313
0.960314
0.960314
0.960314
0.960314
0.960314
0.960314
0.960314
0.960314
0.960314
0.960314
0.960314
0.960314
0.960314
0.960314
0.960314
0.960314
0.960314
0.960314
0.960314
0.960314
0.960314
0.960314
0.960314
0.960314
0.960314
0.960314
0.960314
0.960314
0.960314
0.960314
0.960314
0.960314
0.960314
0.960314
0.960314
0.960314
0.960314
0.960314
0.960314
0.960314
0.960314
0.960314
0.960314
0.960314
0.960314
0.960314
0.960313
0.960311
0.960306
0.960294
0.960264
0.960198
0.96007
0.963791
0.963912
0.963975
0.964004
0.964017
0.964022
0.964024
0.964024
0.964024
0.964025
0.964025
0.964025
0.964025
0.964025
0.964025
0.964025
0.964025
0.964025
0.964025
0.964025
0.964025
0.964025
0.964025
0.964025
0.964025
0.964025
0.964025
0.964025
0.964025
0.964025
0.964025
0.964025
0.964025
0.964025
0.964025
0.964025
0.964025
0.964025
0.964025
0.964025
0.964025
0.964025
0.964025
0.964025
0.964025
0.964025
0.964025
0.964025
0.964025
0.964025
0.964025
0.964024
0.964024
0.964024
0.964022
0.964017
0.964004
0.963975
0.963912
0.963791
0.96721
0.967324
0.967385
0.967413
0.967426
0.967431
0.967433
0.967434
0.967434
0.967434
0.967434
0.967434
0.967434
0.967434
0.967434
0.967434
0.967434
0.967434
0.967434
0.967434
0.967434
0.967434
0.967434
0.967434
0.967434
0.967434
0.967434
0.967434
0.967434
0.967434
0.967434
0.967434
0.967434
0.967434
0.967434
0.967434
0.967434
0.967434
0.967434
0.967434
0.967434
0.967434
0.967434
0.967434
0.967434
0.967434
0.967434
0.967434
0.967434
0.967434
0.967434
0.967434
0.967434
0.967433
0.967431
0.967426
0.967413
0.967385
0.967324
0.96721
0.970349
0.970456
0.970514
0.970541
0.970554
0.970559
0.970561
0.970562
0.970562
0.970562
0.970562
0.970562
0.970562
0.970562
0.970562
0.970562
0.970562
0.970562
0.970562
0.970562
0.970562
0.970562
0.970562
0.970562
0.970562
0.970562
0.970562
0.970562
0.970562
0.970562
0.970562
0.970562
0.970562
0.970562
0.970562
0.970562
0.970562
0.970562