/*--------------------------------*- C++ -*----------------------------------*\
| =========                 |                                                 |
| \\      /  F ield         | foam-extend: Open Source CFD                    |
|  \\    /   O peration     | Version:     4.0                                |
|   \\  /    A nd           | Web:         http://www.foam-extend.org         |
|    \\/     M anipulation  |                                                 |
\*---------------------------------------------------------------------------*/
FoamFile
{
    version     2.0;
    format      ascii;
    class       volVectorField;
    location    "8";
    object      bodyForce;
}
// * * * * * * * * * * * * * * * * * * * * * * * * * * * * * * * * * * * * * //

dimensions      [1 -2 -2 0 0 0 0];

internalField   nonuniform List<vector> 
6960
(
(2.58103e-31 -3.31246e-15 -0)
(1.19833e-31 -3.31246e-15 -0)
(-4.60898e-32 -3.31246e-15 -0)
(-6.45257e-32 -3.31246e-15 -0)
(1.10615e-31 -3.31246e-15 -0)
(3.595e-31 -3.31246e-15 -0)
(1.56705e-31 -3.31246e-15 -0)
(1.29051e-31 -3.31246e-15 -0)
(-1.38269e-31 -3.31246e-15 -0)
(-2.67321e-31 -3.31246e-15 -0)
(-1.84359e-32 -3.31246e-15 -0)
(-3.68718e-32 -3.31246e-15 -0)
(-1.38269e-31 -3.31246e-15 -0)
(-1.84359e-32 -3.31246e-15 -0)
(1.84359e-32 -3.31246e-15 -0)
(1.93577e-31 -3.31246e-15 -0)
(6.36039e-31 -3.31246e-15 -0)
(3.50282e-31 -3.31246e-15 -0)
(-3.50282e-31 -3.31246e-15 -0)
(-3.595e-31 -3.31246e-15 -0)
(-3.50282e-31 -3.31246e-15 -0)
(-2.94974e-31 -3.31246e-15 -0)
(-0 -3.31246e-15 -0)
(-1.10615e-31 -3.31246e-15 -0)
(7.37436e-32 -3.31246e-15 -0)
(2.76539e-32 -3.31246e-15 -0)
(-3.50282e-31 -3.31246e-15 -0)
(2.76539e-32 -3.31246e-15 -0)
(3.41064e-31 -3.31246e-15 -0)
(3.595e-31 -3.31246e-15 -0)
(-1.84359e-32 -3.31246e-15 -0)
(-4.0559e-31 -3.31246e-15 -0)
(1.19833e-31 -3.31246e-15 -0)
(3.87154e-31 -3.31246e-15 -0)
(-1.84359e-32 -3.31246e-15 -0)
(-1.65923e-31 -3.31246e-15 -0)
(-3.68718e-32 -3.31246e-15 -0)
(8.29616e-32 -3.31246e-15 -0)
(6.45257e-32 -3.31246e-15 -0)
(-2.76539e-32 -3.31246e-15 -0)
(-4.60898e-32 -3.31246e-15 -0)
(-1.84359e-32 -3.31246e-15 -0)
(1.29051e-31 -3.31246e-15 -0)
(1.38269e-31 -3.31246e-15 -0)
(2.02795e-31 -3.31246e-15 -0)
(2.30449e-31 -3.31246e-15 -0)
(2.12013e-31 -3.31246e-15 -0)
(1.75141e-31 -3.31246e-15 -0)
(1.84359e-32 -3.31246e-15 -0)
(-7.37436e-32 -3.31246e-15 -0)
(-2.39667e-31 -3.31246e-15 -0)
(-1.75141e-31 -3.31246e-15 -0)
(1.19833e-31 -3.31246e-15 -0)
(3.41064e-31 -3.31246e-15 -0)
(1.47487e-31 -3.31246e-15 -0)
(-1.19833e-31 -3.31246e-15 -0)
(-2.85757e-31 -3.31246e-15 -0)
(-3.41064e-31 -3.31246e-15 -0)
(2.76539e-32 -3.31246e-15 -0)
(9.21795e-32 -3.31246e-15 -0)
(9.30727e-31 -3.31245e-15 -0)
(3.93769e-31 -3.31245e-15 -0)
(-4.29566e-31 -3.31245e-15 -0)
(-2.32682e-31 -3.31245e-15 -0)
(3.7587e-31 -3.31245e-15 -0)
(1.14551e-30 -3.31245e-15 -0)
(5.36958e-31 -3.31245e-15 -0)
(3.7587e-31 -3.31245e-15 -0)
(-2.32682e-31 -3.31245e-15 -0)
(-9.66524e-31 -3.31245e-15 -0)
(-2.86377e-31 -3.31245e-15 -0)
(7.15944e-32 -3.31245e-15 -0)
(-5.19059e-31 -3.31245e-15 -0)
(-1.78986e-31 -3.31245e-15 -0)
(4.65363e-31 -3.31245e-15 -0)
(8.94929e-31 -3.31245e-15 -0)
(1.89725e-30 -3.31245e-15 -0)
(9.66524e-31 -3.31245e-15 -0)
(-1.43189e-30 -3.31245e-15 -0)
(-1.07392e-30 -3.31245e-15 -0)
(-1.02022e-30 -3.31245e-15 -0)
(-8.77031e-31 -3.31245e-15 -0)
(5.36958e-32 -3.31245e-15 -0)
(-3.93769e-31 -3.31245e-15 -0)
(1.43189e-31 -3.31245e-15 -0)
(-1.43189e-31 -3.31245e-15 -0)
(-7.51741e-31 -3.31245e-15 -0)
(6.44349e-31 -3.31245e-15 -0)
(1.03812e-30 -3.31245e-15 -0)
(9.84422e-31 -3.31245e-15 -0)
(-4.29566e-31 -3.31245e-15 -0)
(-1.34239e-30 -3.31245e-15 -0)
(6.08552e-31 -3.31245e-15 -0)
(9.12828e-31 -3.31245e-15 -0)
(-1.07392e-31 -3.31245e-15 -0)
(-1.61087e-31 -3.31245e-15 -0)
(-2.32682e-31 -3.31245e-15 -0)
(1.61087e-31 -3.31245e-15 -0)
(1.2529e-31 -3.31245e-15 -0)
(-7.15944e-32 -3.31245e-15 -0)
(5.36958e-32 -3.31245e-15 -0)
(-1.43189e-31 -3.31245e-15 -0)
(3.40073e-31 -3.31245e-15 -0)
(4.83262e-31 -3.31245e-15 -0)
(5.36958e-31 -3.31245e-15 -0)
(9.84422e-31 -3.31245e-15 -0)
(7.69639e-31 -3.31245e-15 -0)
(2.32682e-31 -3.31245e-15 -0)
(-5.36958e-32 -3.31245e-15 -0)
(-4.11668e-31 -3.31245e-15 -0)
(-5.36958e-31 -3.31245e-15 -0)
(-3.7587e-31 -3.31245e-15 -0)
(2.32682e-31 -3.31245e-15 -0)
(9.30727e-31 -3.31245e-15 -0)
(9.12828e-31 -3.31245e-15 -0)
(3.40073e-31 -3.31245e-15 -0)
(-1.07392e-30 -3.31245e-15 -0)
(-1.48558e-30 -3.31245e-15 -0)
(-5.36958e-32 -3.31245e-15 -0)
(4.29566e-31 -3.31245e-15 -0)
(1.3554e-30 -3.31244e-15 -0)
(5.56062e-31 -3.31244e-15 -0)
(-2.08523e-31 -3.31244e-15 -0)
(-2.43277e-31 -3.31244e-15 -0)
(4.518e-31 -3.31244e-15 -0)
(1.87671e-30 -3.31244e-15 -0)
(8.34093e-31 -3.31244e-15 -0)
(4.86554e-31 -3.31244e-15 -0)
(-6.95077e-31 -3.31244e-15 -0)
(-1.56392e-30 -3.31244e-15 -0)
(-1.39015e-31 -3.31244e-15 -0)
(1.39015e-31 -3.31244e-15 -0)
(-7.64585e-31 -3.31244e-15 -0)
(3.47539e-32 -3.31244e-15 -0)
(2.78031e-31 -3.31244e-15 -0)
(1.14688e-30 -3.31244e-15 -0)
(3.23211e-30 -3.31244e-15 -0)
(1.91146e-30 -3.31244e-15 -0)
(-1.73769e-30 -3.31244e-15 -0)
(-1.94622e-30 -3.31244e-15 -0)
(-1.94622e-30 -3.31244e-15 -0)
(-1.3554e-30 -3.31244e-15 -0)
(3.82292e-31 -3.31244e-15 -0)
(-9.036e-31 -3.31244e-15 -0)
(-2.08523e-31 -3.31244e-15 -0)
(-3.47539e-32 -3.31244e-15 -0)
(-1.00786e-30 -3.31244e-15 -0)
(7.99339e-31 -3.31244e-15 -0)
(1.49442e-30 -3.31244e-15 -0)
(1.87671e-30 -3.31244e-15 -0)
(1.04262e-31 -3.31244e-15 -0)
(-2.53703e-30 -3.31244e-15 -0)
(6.60323e-31 -3.31244e-15 -0)
(1.77245e-30 -3.31244e-15 -0)
(-3.12785e-31 -3.31244e-15 -0)
(-1.04262e-31 -3.31244e-15 -0)
(-2.43277e-31 -3.31244e-15 -0)
(4.518e-31 -3.31244e-15 -0)
(5.21308e-31 -3.31244e-15 -0)
(-3.12785e-31 -3.31244e-15 -0)
(-3.47539e-31 -3.31244e-15 -0)
(3.47539e-32 -3.31244e-15 -0)
(6.25569e-31 -3.31244e-15 -0)
(5.90816e-31 -3.31244e-15 -0)
(1.25114e-30 -3.31244e-15 -0)
(1.42491e-30 -3.31244e-15 -0)
(7.99339e-31 -3.31244e-15 -0)
(4.518e-31 -3.31244e-15 -0)
(4.17046e-31 -3.31244e-15 -0)
(-6.25569e-31 -3.31244e-15 -0)
(-1.87671e-30 -3.31244e-15 -0)
(-9.036e-31 -3.31244e-15 -0)
(1.39015e-30 -3.31244e-15 -0)
(1.77245e-30 -3.31244e-15 -0)
(9.38354e-31 -3.31244e-15 -0)
(4.17046e-31 -3.31244e-15 -0)
(-1.04262e-30 -3.31244e-15 -0)
(-1.56392e-30 -3.31244e-15 -0)
(2.43277e-31 -3.31244e-15 -0)
(6.95077e-31 -3.31244e-15 -0)
(1.75453e-30 -3.31243e-15 -0)
(8.77264e-31 -3.31243e-15 -0)
(-6.74819e-31 -3.31243e-15 -0)
(-2.69928e-31 -3.31243e-15 -0)
(1.28216e-30 -3.31243e-15 -0)
(2.63179e-30 -3.31243e-15 -0)
(1.21467e-30 -3.31243e-15 -0)
(7.42301e-31 -3.31243e-15 -0)
(-6.07337e-31 -3.31243e-15 -0)
(-1.95697e-30 -3.31243e-15 -0)
(-3.37409e-31 -3.31243e-15 -0)
(6.74819e-32 -3.31243e-15 -0)
(-1.61957e-30 -3.31243e-15 -0)
(-2.02446e-31 -3.31243e-15 -0)
(6.74819e-31 -3.31243e-15 -0)
(1.68705e-30 -3.31243e-15 -0)
(4.72373e-30 -3.31243e-15 -0)
(2.69928e-30 -3.31243e-15 -0)
(-2.90172e-30 -3.31243e-15 -0)
(-3.03668e-30 -3.31243e-15 -0)
(-2.15942e-30 -3.31243e-15 -0)
(-2.09194e-30 -3.31243e-15 -0)
(-4.04891e-31 -3.31243e-15 -0)
(-8.09783e-31 -3.31243e-15 -0)
(1.34964e-31 -3.31243e-15 -0)
(6.74819e-32 -3.31243e-15 -0)
(-1.82201e-30 -3.31243e-15 -0)
(6.74819e-31 -3.31243e-15 -0)
(2.42935e-30 -3.31243e-15 -0)
(2.63179e-30 -3.31243e-15 -0)
(-2.69928e-31 -3.31243e-15 -0)
(-3.64402e-30 -3.31243e-15 -0)
(8.09783e-31 -3.31243e-15 -0)
(2.63179e-30 -3.31243e-15 -0)
(-2.02446e-31 -3.31243e-15 -0)
(-6.74819e-32 -3.31243e-15 -0)
(-1.34964e-31 -3.31243e-15 -0)
(1.34964e-31 -3.31243e-15 -0)
(4.72373e-31 -3.31243e-15 -0)
(-0 -3.31243e-15 -0)
(-2.69928e-31 -3.31243e-15 -0)
(-3.37409e-31 -3.31243e-15 -0)
(8.77264e-31 -3.31243e-15 -0)
(1.01223e-30 -3.31243e-15 -0)
(1.68705e-30 -3.31243e-15 -0)
(2.36187e-30 -3.31243e-15 -0)
(1.01223e-30 -3.31243e-15 -0)
(4.72373e-31 -3.31243e-15 -0)
(5.39855e-31 -3.31243e-15 -0)
(-3.37409e-31 -3.31243e-15 -0)
(-1.95697e-30 -3.31243e-15 -0)
(-1.01223e-30 -3.31243e-15 -0)
(7.42301e-31 -3.31243e-15 -0)
(2.42935e-30 -3.31243e-15 -0)
(1.68705e-30 -3.31243e-15 -0)
(-2.02446e-31 -3.31243e-15 -0)
(-2.63179e-30 -3.31243e-15 -0)
(-3.50906e-30 -3.31243e-15 -0)
(-6.74819e-32 -3.31243e-15 -0)
(8.77264e-31 -3.31243e-15 -0)
(1.96545e-30 -3.31242e-15 -0)
(1.96545e-31 -3.31242e-15 -0)
(-5.89636e-31 -3.31242e-15 -0)
(6.55151e-32 -3.31242e-15 -0)
(1.24479e-30 -3.31242e-15 -0)
(3.27575e-30 -3.31242e-15 -0)
(1.24479e-30 -3.31242e-15 -0)
(8.51696e-31 -3.31242e-15 -0)
(-5.24121e-31 -3.31242e-15 -0)
(-2.42406e-30 -3.31242e-15 -0)
(-1.24479e-30 -3.31242e-15 -0)
(1.96545e-31 -3.31242e-15 -0)
(-1.04824e-30 -3.31242e-15 -0)
(-3.93091e-31 -3.31242e-15 -0)
(5.24121e-31 -3.31242e-15 -0)
(1.83442e-30 -3.31242e-15 -0)
(6.48599e-30 -3.31242e-15 -0)
(3.34127e-30 -3.31242e-15 -0)
(-3.86539e-30 -3.31242e-15 -0)
(-2.81715e-30 -3.31242e-15 -0)
(-2.88266e-30 -3.31242e-15 -0)
(-3.14472e-30 -3.31242e-15 -0)
(3.93091e-31 -3.31242e-15 -0)
(-1.57236e-30 -3.31242e-15 -0)
(-5.24121e-31 -3.31242e-15 -0)
(-5.24121e-31 -3.31242e-15 -0)
(-1.96545e-30 -3.31242e-15 -0)
(2.48957e-30 -3.31242e-15 -0)
(3.4723e-30 -3.31242e-15 -0)
(2.68612e-30 -3.31242e-15 -0)
(-7.86181e-31 -3.31242e-15 -0)
(-4.19297e-30 -3.31242e-15 -0)
(8.51696e-31 -3.31242e-15 -0)
(4.06194e-30 -3.31242e-15 -0)
(5.24121e-31 -3.31242e-15 -0)
(-1.76891e-30 -3.31242e-15 -0)
(-0 -3.31242e-15 -0)
(1.44133e-30 -3.31242e-15 -0)
(3.27575e-31 -3.31242e-15 -0)
(-3.27575e-31 -3.31242e-15 -0)
(-6.55151e-31 -3.31242e-15 -0)
(-5.24121e-31 -3.31242e-15 -0)
(2.09648e-30 -3.31242e-15 -0)
(1.96545e-30 -3.31242e-15 -0)
(1.04824e-30 -3.31242e-15 -0)
(1.17927e-30 -3.31242e-15 -0)
(1.44133e-30 -3.31242e-15 -0)
(1.96545e-30 -3.31242e-15 -0)
(8.51696e-31 -3.31242e-15 -0)
(-3.93091e-31 -3.31242e-15 -0)
(-1.70339e-30 -3.31242e-15 -0)
(-2.48957e-30 -3.31242e-15 -0)
(-0 -3.31242e-15 -0)
(3.93091e-30 -3.31242e-15 -0)
(2.03097e-30 -3.31242e-15 -0)
(9.17211e-31 -3.31242e-15 -0)
(-1.76891e-30 -3.31242e-15 -0)
(-4.71709e-30 -3.31242e-15 -0)
(4.58606e-31 -3.31242e-15 -0)
(1.57236e-30 -3.31242e-15 -0)
(3.4347e-30 -3.31241e-15 -0)
(1.27211e-30 -3.31241e-15 -0)
(-1.39932e-30 -3.31241e-15 -0)
(1.27211e-31 -3.31241e-15 -0)
(1.90817e-30 -3.31241e-15 -0)
(3.81634e-30 -3.31241e-15 -0)
(2.2898e-30 -3.31241e-15 -0)
(1.39932e-30 -3.31241e-15 -0)
(-1.1449e-30 -3.31241e-15 -0)
(-3.4347e-30 -3.31241e-15 -0)
(-8.90479e-31 -3.31241e-15 -0)
(-2.54422e-31 -3.31241e-15 -0)
(-2.2898e-30 -3.31241e-15 -0)
(2.54422e-31 -3.31241e-15 -0)
(1.52653e-30 -3.31241e-15 -0)
(2.54422e-30 -3.31241e-15 -0)
(7.12383e-30 -3.31241e-15 -0)
(4.5796e-30 -3.31241e-15 -0)
(-4.45239e-30 -3.31241e-15 -0)
(-4.19797e-30 -3.31241e-15 -0)
(-4.5796e-30 -3.31241e-15 -0)
(-3.94355e-30 -3.31241e-15 -0)
(5.08845e-31 -3.31241e-15 -0)
(-1.78096e-30 -3.31241e-15 -0)
(-5.08845e-31 -3.31241e-15 -0)
(-6.36056e-31 -3.31241e-15 -0)
(-1.52653e-30 -3.31241e-15 -0)
(2.67144e-30 -3.31241e-15 -0)
(4.07076e-30 -3.31241e-15 -0)
(3.81634e-30 -3.31241e-15 -0)
(-1.78096e-30 -3.31241e-15 -0)
(-5.34287e-30 -3.31241e-15 -0)
(1.65375e-30 -3.31241e-15 -0)
(4.07076e-30 -3.31241e-15 -0)
(1.27211e-31 -3.31241e-15 -0)
(-1.27211e-30 -3.31241e-15 -0)
(-1.27211e-31 -3.31241e-15 -0)
(2.54422e-31 -3.31241e-15 -0)
(6.36056e-31 -3.31241e-15 -0)
(3.81634e-31 -3.31241e-15 -0)
(1.27211e-31 -3.31241e-15 -0)
(-3.81634e-31 -3.31241e-15 -0)
(5.08845e-31 -3.31241e-15 -0)
(1.39932e-30 -3.31241e-15 -0)
(2.79865e-30 -3.31241e-15 -0)
(3.68913e-30 -3.31241e-15 -0)
(2.16259e-30 -3.31241e-15 -0)
(1.1449e-30 -3.31241e-15 -0)
(-0 -3.31241e-15 -0)
(-1.27211e-30 -3.31241e-15 -0)
(-2.67144e-30 -3.31241e-15 -0)
(-1.1449e-30 -3.31241e-15 -0)
(1.52653e-30 -3.31241e-15 -0)
(3.56191e-30 -3.31241e-15 -0)
(3.4347e-30 -3.31241e-15 -0)
(1.27211e-30 -3.31241e-15 -0)
(-2.16259e-30 -3.31241e-15 -0)
(-6.48777e-30 -3.31241e-15 -0)
(-1.52653e-30 -3.31241e-15 -0)
(1.52653e-30 -3.31241e-15 -0)
(3.70511e-30 -3.3124e-15 -0)
(2.09956e-30 -3.3124e-15 -0)
(-8.64525e-31 -3.3124e-15 -0)
(-4.94014e-31 -3.3124e-15 -0)
(1.72905e-30 -3.3124e-15 -0)
(4.69314e-30 -3.3124e-15 -0)
(3.08759e-30 -3.3124e-15 -0)
(2.22306e-30 -3.3124e-15 -0)
(-1.60555e-30 -3.3124e-15 -0)
(-4.07562e-30 -3.3124e-15 -0)
(-3.70511e-31 -3.3124e-15 -0)
(-0 -3.3124e-15 -0)
(-2.22306e-30 -3.3124e-15 -0)
(-7.41021e-31 -3.3124e-15 -0)
(3.70511e-31 -3.3124e-15 -0)
(4.07562e-30 -3.3124e-15 -0)
(9.26277e-30 -3.3124e-15 -0)
(4.69314e-30 -3.3124e-15 -0)
(-5.31065e-30 -3.3124e-15 -0)
(-5.43416e-30 -3.3124e-15 -0)
(-4.32262e-30 -3.3124e-15 -0)
(-4.44613e-30 -3.3124e-15 -0)
(-3.70511e-31 -3.3124e-15 -0)
(-1.72905e-30 -3.3124e-15 -0)
(2.47007e-31 -3.3124e-15 -0)
(9.88028e-31 -3.3124e-15 -0)
(-3.3346e-30 -3.3124e-15 -0)
(1.85255e-30 -3.3124e-15 -0)
(4.56963e-30 -3.3124e-15 -0)
(3.95211e-30 -3.3124e-15 -0)
(-1.85255e-30 -3.3124e-15 -0)
(-5.68116e-30 -3.3124e-15 -0)
(2.71708e-30 -3.3124e-15 -0)
(4.07562e-30 -3.3124e-15 -0)
(-9.88028e-31 -3.3124e-15 -0)
(-6.17518e-31 -3.3124e-15 -0)
(1.23504e-31 -3.3124e-15 -0)
(-4.94014e-31 -3.3124e-15 -0)
(7.41021e-31 -3.3124e-15 -0)
(1.11153e-30 -3.3124e-15 -0)
(-4.94014e-31 -3.3124e-15 -0)
(-9.88028e-31 -3.3124e-15 -0)
(1.60555e-30 -3.3124e-15 -0)
(2.34657e-30 -3.3124e-15 -0)
(2.84058e-30 -3.3124e-15 -0)
(3.21109e-30 -3.3124e-15 -0)
(2.34657e-30 -3.3124e-15 -0)
(1.60555e-30 -3.3124e-15 -0)
(8.64525e-31 -3.3124e-15 -0)
(-1.11153e-30 -3.3124e-15 -0)
(-2.09956e-30 -3.3124e-15 -0)
(-1.48204e-30 -3.3124e-15 -0)
(6.17518e-31 -3.3124e-15 -0)
(5.55766e-30 -3.3124e-15 -0)
(3.70511e-30 -3.3124e-15 -0)
(-1.11153e-30 -3.3124e-15 -0)
(-4.69314e-30 -3.3124e-15 -0)
(-7.0397e-30 -3.3124e-15 -0)
(-0 -3.3124e-15 -0)
(2.47007e-30 -3.3124e-15 -0)
(3.95683e-30 -3.31238e-15 -0)
(2.27817e-30 -3.31238e-15 -0)
(-8.39328e-31 -3.31238e-15 -0)
(-1.31894e-30 -3.31238e-15 -0)
(1.43885e-30 -3.31238e-15 -0)
(5.63548e-30 -3.31238e-15 -0)
(3.23741e-30 -3.31238e-15 -0)
(1.79856e-30 -3.31238e-15 -0)
(-1.31894e-30 -3.31238e-15 -0)
(-3.35731e-30 -3.31238e-15 -0)
(-8.39328e-31 -3.31238e-15 -0)
(-1.07914e-30 -3.31238e-15 -0)
(-3.1175e-30 -3.31238e-15 -0)
(-4.79616e-31 -3.31238e-15 -0)
(1.43885e-30 -3.31238e-15 -0)
(2.9976e-30 -3.31238e-15 -0)
(9.95203e-30 -3.31238e-15 -0)
(6.71462e-30 -3.31238e-15 -0)
(-5.9952e-30 -3.31238e-15 -0)
(-6.59472e-30 -3.31238e-15 -0)
(-4.79616e-30 -3.31238e-15 -0)
(-4.07673e-30 -3.31238e-15 -0)
(-1.55875e-30 -3.31238e-15 -0)
(-2.39808e-30 -3.31238e-15 -0)
(1.43885e-30 -3.31238e-15 -0)
(4.79616e-31 -3.31238e-15 -0)
(-5.15587e-30 -3.31238e-15 -0)
(5.9952e-31 -3.31238e-15 -0)
(6.71462e-30 -3.31238e-15 -0)
(5.63548e-30 -3.31238e-15 -0)
(-1.79856e-30 -3.31238e-15 -0)
(-6.83452e-30 -3.31238e-15 -0)
(2.03837e-30 -3.31238e-15 -0)
(6.47481e-30 -3.31238e-15 -0)
(5.9952e-31 -3.31238e-15 -0)
(-2.27817e-30 -3.31238e-15 -0)
(-7.19424e-31 -3.31238e-15 -0)
(7.19424e-31 -3.31238e-15 -0)
(3.59712e-31 -3.31238e-15 -0)
(-2.39808e-31 -3.31238e-15 -0)
(-1.07914e-30 -3.31238e-15 -0)
(-8.39328e-31 -3.31238e-15 -0)
(2.15827e-30 -3.31238e-15 -0)
(2.39808e-30 -3.31238e-15 -0)
(2.63789e-30 -3.31238e-15 -0)
(4.67625e-30 -3.31238e-15 -0)
(3.47721e-30 -3.31238e-15 -0)
(2.9976e-30 -3.31238e-15 -0)
(1.31894e-30 -3.31238e-15 -0)
(-2.03837e-30 -3.31238e-15 -0)
(-3.71702e-30 -3.31238e-15 -0)
(-2.51798e-30 -3.31238e-15 -0)
(1.79856e-30 -3.31238e-15 -0)
(4.55635e-30 -3.31238e-15 -0)
(3.23741e-30 -3.31238e-15 -0)
(-2.39808e-31 -3.31238e-15 -0)
(-4.19664e-30 -3.31238e-15 -0)
(-5.51558e-30 -3.31238e-15 -0)
(-1.07914e-30 -3.31238e-15 -0)
(1.31894e-30 -3.31238e-15 -0)
(4.07432e-30 -3.31237e-15 -0)
(2.79382e-30 -3.31237e-15 -0)
(-1.51332e-30 -3.31237e-15 -0)
(-0 -3.31237e-15 -0)
(3.49228e-30 -3.31237e-15 -0)
(5.70405e-30 -3.31237e-15 -0)
(3.14305e-30 -3.31237e-15 -0)
(5.82046e-31 -3.31237e-15 -0)
(-2.91023e-30 -3.31237e-15 -0)
(-3.72509e-30 -3.31237e-15 -0)
(-6.98455e-31 -3.31237e-15 -0)
(-1.16409e-31 -3.31237e-15 -0)
(-1.74614e-30 -3.31237e-15 -0)
(-5.82046e-31 -3.31237e-15 -0)
(-0 -3.31237e-15 -0)
(4.77278e-30 -3.31237e-15 -0)
(1.35035e-29 -3.31237e-15 -0)
(5.0056e-30 -3.31237e-15 -0)
(-7.21737e-30 -3.31237e-15 -0)
(-4.19073e-30 -3.31237e-15 -0)
(-6.63533e-30 -3.31237e-15 -0)
(-6.75173e-30 -3.31237e-15 -0)
(-1.16409e-31 -3.31237e-15 -0)
(-3.8415e-30 -3.31237e-15 -0)
(-5.82046e-31 -3.31237e-15 -0)
(-5.82046e-31 -3.31237e-15 -0)
(-3.60869e-30 -3.31237e-15 -0)
(4.65637e-30 -3.31237e-15 -0)
(7.45019e-30 -3.31237e-15 -0)
(5.82046e-30 -3.31237e-15 -0)
(-2.09537e-30 -3.31237e-15 -0)
(-8.26505e-30 -3.31237e-15 -0)
(8.14865e-31 -3.31237e-15 -0)
(8.14865e-30 -3.31237e-15 -0)
(1.39691e-30 -3.31237e-15 -0)
(-3.37587e-30 -3.31237e-15 -0)
(-8.14865e-31 -3.31237e-15 -0)
(2.561e-30 -3.31237e-15 -0)
(1.39691e-30 -3.31237e-15 -0)
(-1.04768e-30 -3.31237e-15 -0)
(-1.16409e-30 -3.31237e-15 -0)
(3.49228e-31 -3.31237e-15 -0)
(3.72509e-30 -3.31237e-15 -0)
(3.02664e-30 -3.31237e-15 -0)
(2.91023e-30 -3.31237e-15 -0)
(3.02664e-30 -3.31237e-15 -0)
(2.91023e-30 -3.31237e-15 -0)
(3.60869e-30 -3.31237e-15 -0)
(1.86255e-30 -3.31237e-15 -0)
(-1.39691e-30 -3.31237e-15 -0)
(-4.07432e-30 -3.31237e-15 -0)
(-4.07432e-30 -3.31237e-15 -0)
(-8.14864e-31 -3.31237e-15 -0)
(7.45019e-30 -3.31237e-15 -0)
(5.82046e-30 -3.31237e-15 -0)
(8.14864e-31 -3.31237e-15 -0)
(-4.53996e-30 -3.31237e-15 -0)
(-8.61428e-30 -3.31237e-15 -0)
(4.65637e-31 -3.31237e-15 -0)
(2.32818e-30 -3.31237e-15 -0)
(5.87685e-30 -3.31236e-15 -0)
(2.71239e-30 -3.31236e-15 -0)
(-9.04131e-31 -3.31236e-15 -0)
(6.78098e-31 -3.31236e-15 -0)
(3.16446e-30 -3.31236e-15 -0)
(6.10288e-30 -3.31236e-15 -0)
(4.06859e-30 -3.31236e-15 -0)
(3.39049e-30 -3.31236e-15 -0)
(-3.84256e-30 -3.31236e-15 -0)
(-6.78098e-30 -3.31236e-15 -0)
(-6.78098e-31 -3.31236e-15 -0)
(-2.26033e-31 -3.31236e-15 -0)
(-4.06859e-30 -3.31236e-15 -0)
(1.58223e-30 -3.31236e-15 -0)
(2.71239e-30 -3.31236e-15 -0)
(4.52065e-30 -3.31236e-15 -0)
(1.46921e-29 -3.31236e-15 -0)
(6.32891e-30 -3.31236e-15 -0)
(-7.68511e-30 -3.31236e-15 -0)
(-6.78098e-30 -3.31236e-15 -0)
(-8.13718e-30 -3.31236e-15 -0)
(-6.32891e-30 -3.31236e-15 -0)
(-2.03429e-30 -3.31236e-15 -0)
(-5.19875e-30 -3.31236e-15 -0)
(1.3562e-30 -3.31236e-15 -0)
(2.26033e-31 -3.31236e-15 -0)
(-3.61652e-30 -3.31236e-15 -0)
(3.84256e-30 -3.31236e-15 -0)
(7.45908e-30 -3.31236e-15 -0)
(6.55495e-30 -3.31236e-15 -0)
(-2.71239e-30 -3.31236e-15 -0)
(-8.58924e-30 -3.31236e-15 -0)
(2.26033e-30 -3.31236e-15 -0)
(7.45908e-30 -3.31236e-15 -0)
(1.58223e-30 -3.31236e-15 -0)
(-6.78098e-31 -3.31236e-15 -0)
(-1.80826e-30 -3.31236e-15 -0)
(9.04131e-31 -3.31236e-15 -0)
(2.26033e-31 -3.31236e-15 -0)
(6.78098e-31 -3.31236e-15 -0)
(2.26033e-31 -3.31236e-15 -0)
(-1.3562e-30 -3.31236e-15 -0)
(2.03429e-30 -3.31236e-15 -0)
(2.48636e-30 -3.31236e-15 -0)
(4.29462e-30 -3.31236e-15 -0)
(6.32891e-30 -3.31236e-15 -0)
(4.06859e-30 -3.31236e-15 -0)
(1.58223e-30 -3.31236e-15 -0)
(-2.26033e-31 -3.31236e-15 -0)
(-3.39049e-30 -3.31236e-15 -0)
(-3.84256e-30 -3.31236e-15 -0)
(-6.78098e-31 -3.31236e-15 -0)
(2.71239e-30 -3.31236e-15 -0)
(6.10288e-30 -3.31236e-15 -0)
(7.00701e-30 -3.31236e-15 -0)
(1.58223e-30 -3.31236e-15 -0)
(-3.61652e-30 -3.31236e-15 -0)
(-9.7194e-30 -3.31236e-15 -0)
(-3.61652e-30 -3.31236e-15 -0)
(2.71239e-30 -3.31236e-15 -0)
(6.14445e-30 -3.31235e-15 -0)
(3.73056e-30 -3.31235e-15 -0)
(-1.53611e-30 -3.31235e-15 -0)
(-0 -3.31235e-15 -0)
(2.85278e-30 -3.31235e-15 -0)
(6.80278e-30 -3.31235e-15 -0)
(5.04723e-30 -3.31235e-15 -0)
(2.41389e-30 -3.31235e-15 -0)
(-3.07223e-30 -3.31235e-15 -0)
(-6.36389e-30 -3.31235e-15 -0)
(-4.38889e-31 -3.31235e-15 -0)
(-0 -3.31235e-15 -0)
(-3.51111e-30 -3.31235e-15 -0)
(-1.31667e-30 -3.31235e-15 -0)
(2.85278e-30 -3.31235e-15 -0)
(7.68056e-30 -3.31235e-15 -0)
(1.49222e-29 -3.31235e-15 -0)
(5.70556e-30 -3.31235e-15 -0)
(-9.65556e-30 -3.31235e-15 -0)
(-7.02223e-30 -3.31235e-15 -0)
(-7.90001e-30 -3.31235e-15 -0)
(-7.46112e-30 -3.31235e-15 -0)
(-2.41389e-30 -3.31235e-15 -0)
(-5.04723e-30 -3.31235e-15 -0)
(2.63334e-30 -3.31235e-15 -0)
(-0 -3.31235e-15 -0)
(-6.58334e-30 -3.31235e-15 -0)
(5.92501e-30 -3.31235e-15 -0)
(1.00945e-29 -3.31235e-15 -0)
(5.70556e-30 -3.31235e-15 -0)
(-4.60834e-30 -3.31235e-15 -0)
(-7.46112e-30 -3.31235e-15 -0)
(5.26667e-30 -3.31235e-15 -0)
(5.70556e-30 -3.31235e-15 -0)
(4.38889e-31 -3.31235e-15 -0)
(-2.41389e-30 -3.31235e-15 -0)
(-1.75556e-30 -3.31235e-15 -0)
(2.19445e-31 -3.31235e-15 -0)
(1.09722e-30 -3.31235e-15 -0)
(1.31667e-30 -3.31235e-15 -0)
(-1.53611e-30 -3.31235e-15 -0)
(-1.09722e-30 -3.31235e-15 -0)
(3.29167e-30 -3.31235e-15 -0)
(2.19445e-30 -3.31235e-15 -0)
(5.04723e-30 -3.31235e-15 -0)
(9.21668e-30 -3.31235e-15 -0)
(4.38889e-30 -3.31235e-15 -0)
(6.58334e-31 -3.31235e-15 -0)
(6.58334e-31 -3.31235e-15 -0)
(-3.73056e-30 -3.31235e-15 -0)
(-3.95e-30 -3.31235e-15 -0)
(-4.38889e-31 -3.31235e-15 -0)
(3.07223e-30 -3.31235e-15 -0)
(6.36389e-30 -3.31235e-15 -0)
(7.24167e-30 -3.31235e-15 -0)
(2.63334e-30 -3.31235e-15 -0)
(-7.90001e-30 -3.31235e-15 -0)
(-1.09722e-29 -3.31235e-15 -0)
(-1.975e-30 -3.31235e-15 -0)
(1.53611e-30 -3.31235e-15 -0)
(5.11317e-30 -3.31233e-15 -0)
(3.62183e-30 -3.31233e-15 -0)
(-8.52194e-31 -3.31233e-15 -0)
(-0 -3.31233e-15 -0)
(5.32622e-30 -3.31233e-15 -0)
(8.3089e-30 -3.31233e-15 -0)
(5.11317e-30 -3.31233e-15 -0)
(2.76963e-30 -3.31233e-15 -0)
(-4.47402e-30 -3.31233e-15 -0)
(-6.60451e-30 -3.31233e-15 -0)
(-0 -3.31233e-15 -0)
(-2.55658e-30 -3.31233e-15 -0)
(-5.96536e-30 -3.31233e-15 -0)
(-2.13049e-31 -3.31233e-15 -0)
(1.70439e-30 -3.31233e-15 -0)
(7.8828e-30 -3.31233e-15 -0)
(1.72569e-29 -3.31233e-15 -0)
(7.66975e-30 -3.31233e-15 -0)
(-8.94804e-30 -3.31233e-15 -0)
(-7.8828e-30 -3.31233e-15 -0)
(-7.66975e-30 -3.31233e-15 -0)
(-8.09585e-30 -3.31233e-15 -0)
(-2.98268e-30 -3.31233e-15 -0)
(-6.17841e-30 -3.31233e-15 -0)
(2.13049e-30 -3.31233e-15 -0)
(1.06524e-30 -3.31233e-15 -0)
(-6.60451e-30 -3.31233e-15 -0)
(5.53926e-30 -3.31233e-15 -0)
(9.16109e-30 -3.31233e-15 -0)
(5.96536e-30 -3.31233e-15 -0)
(-3.83488e-30 -3.31233e-15 -0)
(-8.73499e-30 -3.31233e-15 -0)
(4.68707e-30 -3.31233e-15 -0)
(7.66975e-30 -3.31233e-15 -0)
(-0 -3.31233e-15 -0)
(-2.13049e-30 -3.31233e-15 -0)
(4.26097e-31 -3.31233e-15 -0)
(-0 -3.31233e-15 -0)
(-6.39146e-31 -3.31233e-15 -0)
(1.27829e-30 -3.31233e-15 -0)
(-1.27829e-30 -3.31233e-15 -0)
(-1.49134e-30 -3.31233e-15 -0)
(4.68707e-30 -3.31233e-15 -0)
(1.70439e-30 -3.31233e-15 -0)
(4.68707e-30 -3.31233e-15 -0)
(1.02263e-29 -3.31233e-15 -0)
(4.47402e-30 -3.31233e-15 -0)
(4.26097e-31 -3.31233e-15 -0)
(2.13049e-31 -3.31233e-15 -0)
(-4.26097e-31 -3.31233e-15 -0)
(-2.55658e-30 -3.31233e-15 -0)
(-6.39146e-31 -3.31233e-15 -0)
(4.26097e-31 -3.31233e-15 -0)
(6.81756e-30 -3.31233e-15 -0)
(9.16109e-30 -3.31233e-15 -0)
(-0 -3.31233e-15 -0)
(-1.15046e-29 -3.31233e-15 -0)
(-1.23568e-29 -3.31233e-15 -0)
(4.26097e-31 -3.31233e-15 -0)
(2.76963e-30 -3.31233e-15 -0)
(6.61885e-30 -3.31232e-15 -0)
(4.55046e-30 -3.31232e-15 -0)
(-4.13678e-31 -3.31232e-15 -0)
(-2.06839e-31 -3.31232e-15 -0)
(4.13678e-30 -3.31232e-15 -0)
(9.30775e-30 -3.31232e-15 -0)
(5.99833e-30 -3.31232e-15 -0)
(3.51626e-30 -3.31232e-15 -0)
(-4.96414e-30 -3.31232e-15 -0)
(-7.65304e-30 -3.31232e-15 -0)
(2.06839e-31 -3.31232e-15 -0)
(-0 -3.31232e-15 -0)
(-5.37781e-30 -3.31232e-15 -0)
(-1.65471e-30 -3.31232e-15 -0)
(-0 -3.31232e-15 -0)
(7.23936e-30 -3.31232e-15 -0)
(2.02702e-29 -3.31232e-15 -0)
(1.05488e-29 -3.31232e-15 -0)
(-8.89408e-30 -3.31232e-15 -0)
(-1.11693e-29 -3.31232e-15 -0)
(-8.68724e-30 -3.31232e-15 -0)
(-8.06672e-30 -3.31232e-15 -0)
(-4.96414e-30 -3.31232e-15 -0)
(-4.96414e-30 -3.31232e-15 -0)
(3.10258e-30 -3.31232e-15 -0)
(1.24103e-30 -3.31232e-15 -0)
(-9.30775e-30 -3.31232e-15 -0)
(3.92994e-30 -3.31232e-15 -0)
(1.24103e-29 -3.31232e-15 -0)
(6.20517e-30 -3.31232e-15 -0)
(-4.7573e-30 -3.31232e-15 -0)
(-9.72143e-30 -3.31232e-15 -0)
(4.13678e-30 -3.31232e-15 -0)
(9.10091e-30 -3.31232e-15 -0)
(1.65471e-30 -3.31232e-15 -0)
(-2.48207e-30 -3.31232e-15 -0)
(2.06839e-31 -3.31232e-15 -0)
(1.24103e-30 -3.31232e-15 -0)
(-0 -3.31232e-15 -0)
(2.06839e-31 -3.31232e-15 -0)
(-2.27523e-30 -3.31232e-15 -0)
(-1.24103e-30 -3.31232e-15 -0)
(3.51626e-30 -3.31232e-15 -0)
(3.7231e-30 -3.31232e-15 -0)
(6.82569e-30 -3.31232e-15 -0)
(8.4804e-30 -3.31232e-15 -0)
(3.51626e-30 -3.31232e-15 -0)
(2.68891e-30 -3.31232e-15 -0)
(2.48207e-30 -3.31232e-15 -0)
(-3.51626e-30 -3.31232e-15 -0)
(-3.51626e-30 -3.31232e-15 -0)
(-0 -3.31232e-15 -0)
(2.06839e-30 -3.31232e-15 -0)
(8.89408e-30 -3.31232e-15 -0)
(7.23936e-30 -3.31232e-15 -0)
(-4.34362e-30 -3.31232e-15 -0)
(-1.1583e-29 -3.31232e-15 -0)
(-1.44787e-29 -3.31232e-15 -0)
(-3.30942e-30 -3.31232e-15 -0)
(2.89575e-30 -3.31232e-15 -0)
(6.42593e-30 -3.31231e-15 -0)
(4.81945e-30 -3.31231e-15 -0)
(6.02431e-31 -3.31231e-15 -0)
(2.0081e-31 -3.31231e-15 -0)
(2.81134e-30 -3.31231e-15 -0)
(8.43403e-30 -3.31231e-15 -0)
(7.02836e-30 -3.31231e-15 -0)
(5.02026e-30 -3.31231e-15 -0)
(-5.62269e-30 -3.31231e-15 -0)
(-8.63484e-30 -3.31231e-15 -0)
(-4.01621e-31 -3.31231e-15 -0)
(-2.40972e-30 -3.31231e-15 -0)
(-5.02026e-30 -3.31231e-15 -0)
(-1.60648e-30 -3.31231e-15 -0)
(1.80729e-30 -3.31231e-15 -0)
(8.63484e-30 -3.31231e-15 -0)
(2.0081e-29 -3.31231e-15 -0)
(1.08438e-29 -3.31231e-15 -0)
(-9.43808e-30 -3.31231e-15 -0)
(-1.12454e-29 -3.31231e-15 -0)
(-9.8397e-30 -3.31231e-15 -0)
(-8.23322e-30 -3.31231e-15 -0)
(-5.02026e-30 -3.31231e-15 -0)
(-5.22107e-30 -3.31231e-15 -0)
(2.0081e-30 -3.31231e-15 -0)
(6.02431e-31 -3.31231e-15 -0)
(-8.23322e-30 -3.31231e-15 -0)
(3.21296e-30 -3.31231e-15 -0)
(1.28519e-29 -3.31231e-15 -0)
(6.82755e-30 -3.31231e-15 -0)
(-4.21702e-30 -3.31231e-15 -0)
(-7.8316e-30 -3.31231e-15 -0)
(5.42188e-30 -3.31231e-15 -0)
(9.43808e-30 -3.31231e-15 -0)
(1.20486e-30 -3.31231e-15 -0)
(-3.41377e-30 -3.31231e-15 -0)
(-1.20486e-30 -3.31231e-15 -0)
(1.80729e-30 -3.31231e-15 -0)
(-0 -3.31231e-15 -0)
(-3.01215e-30 -3.31231e-15 -0)
(-2.61053e-30 -3.31231e-15 -0)
(1.40567e-30 -3.31231e-15 -0)
(3.01215e-30 -3.31231e-15 -0)
(3.41377e-30 -3.31231e-15 -0)
(6.82755e-30 -3.31231e-15 -0)
(8.83565e-30 -3.31231e-15 -0)
(5.02026e-30 -3.31231e-15 -0)
(4.01621e-30 -3.31231e-15 -0)
(1.40567e-30 -3.31231e-15 -0)
(-1.20486e-30 -3.31231e-15 -0)
(-3.21296e-30 -3.31231e-15 -0)
(-3.41377e-30 -3.31231e-15 -0)
(3.8154e-30 -3.31231e-15 -0)
(9.03646e-30 -3.31231e-15 -0)
(5.42188e-30 -3.31231e-15 -0)
(-3.01215e-30 -3.31231e-15 -0)
(-8.23322e-30 -3.31231e-15 -0)
(-1.08438e-29 -3.31231e-15 -0)
(-2.81134e-30 -3.31231e-15 -0)
(2.0081e-30 -3.31231e-15 -0)
(8.18821e-30 -3.31229e-15 -0)
(5.84872e-30 -3.31229e-15 -0)
(-1.16974e-30 -3.31229e-15 -0)
(1.55966e-30 -3.31229e-15 -0)
(5.06889e-30 -3.31229e-15 -0)
(8.96803e-30 -3.31229e-15 -0)
(8.96803e-30 -3.31229e-15 -0)
(5.06889e-30 -3.31229e-15 -0)
(-8.18821e-30 -3.31229e-15 -0)
(-9.35795e-30 -3.31229e-15 -0)
(1.16974e-30 -3.31229e-15 -0)
(-2.33949e-30 -3.31229e-15 -0)
(-7.40838e-30 -3.31229e-15 -0)
(-7.79829e-31 -3.31229e-15 -0)
(1.55966e-30 -3.31229e-15 -0)
(8.57812e-30 -3.31229e-15 -0)
(2.2615e-29 -3.31229e-15 -0)
(9.74786e-30 -3.31229e-15 -0)
(-1.05277e-29 -3.31229e-15 -0)
(-1.05277e-29 -3.31229e-15 -0)
(-1.13075e-29 -3.31229e-15 -0)
(-9.74786e-30 -3.31229e-15 -0)
(-5.4588e-30 -3.31229e-15 -0)
(-3.50923e-30 -3.31229e-15 -0)
(2.7294e-30 -3.31229e-15 -0)
(-2.7294e-30 -3.31229e-15 -0)
(-1.01378e-29 -3.31229e-15 -0)
(6.62855e-30 -3.31229e-15 -0)
(1.44268e-29 -3.31229e-15 -0)
(7.01846e-30 -3.31229e-15 -0)
(-4.28906e-30 -3.31229e-15 -0)
(-1.05277e-29 -3.31229e-15 -0)
(6.23863e-30 -3.31229e-15 -0)
(1.20874e-29 -3.31229e-15 -0)
(2.7294e-30 -3.31229e-15 -0)
(-3.11932e-30 -3.31229e-15 -0)
(-1.16974e-30 -3.31229e-15 -0)
(-7.79829e-31 -3.31229e-15 -0)
(-1.55966e-30 -3.31229e-15 -0)
(-7.79829e-31 -3.31229e-15 -0)
(-2.33949e-30 -3.31229e-15 -0)
(-1.94957e-30 -3.31229e-15 -0)
(3.89915e-30 -3.31229e-15 -0)
(5.84872e-30 -3.31229e-15 -0)
(7.40838e-30 -3.31229e-15 -0)
(1.01378e-29 -3.31229e-15 -0)
(7.01846e-30 -3.31229e-15 -0)
(2.7294e-30 -3.31229e-15 -0)
(3.89915e-31 -3.31229e-15 -0)
(-1.16974e-30 -3.31229e-15 -0)
(-3.11932e-30 -3.31229e-15 -0)
(-1.16974e-30 -3.31229e-15 -0)
(4.67897e-30 -3.31229e-15 -0)
(6.23863e-30 -3.31229e-15 -0)
(4.28906e-30 -3.31229e-15 -0)
(1.94957e-30 -3.31229e-15 -0)
(-1.05277e-29 -3.31229e-15 -0)
(-1.79361e-29 -3.31229e-15 -0)
(-3.11932e-30 -3.31229e-15 -0)
(2.33949e-30 -3.31229e-15 -0)
(9.84229e-30 -3.31228e-15 -0)
(4.92115e-30 -3.31228e-15 -0)
(-3.0284e-30 -3.31228e-15 -0)
(2.64985e-30 -3.31228e-15 -0)
(8.32809e-30 -3.31228e-15 -0)
(8.70664e-30 -3.31228e-15 -0)
(5.67824e-30 -3.31228e-15 -0)
(4.16405e-30 -3.31228e-15 -0)
(-6.05679e-30 -3.31228e-15 -0)
(-7.57099e-30 -3.31228e-15 -0)
(3.7855e-31 -3.31228e-15 -0)
(-3.40695e-30 -3.31228e-15 -0)
(-4.5426e-30 -3.31228e-15 -0)
(-3.7855e-31 -3.31228e-15 -0)
(-3.7855e-30 -3.31228e-15 -0)
(1.1735e-29 -3.31228e-15 -0)
(2.80127e-29 -3.31228e-15 -0)
(1.09779e-29 -3.31228e-15 -0)
(-1.28707e-29 -3.31228e-15 -0)
(-1.24921e-29 -3.31228e-15 -0)
(-1.05994e-29 -3.31228e-15 -0)
(-1.02208e-29 -3.31228e-15 -0)
(-2.64985e-30 -3.31228e-15 -0)
(-5.67824e-30 -3.31228e-15 -0)
(-2.2713e-30 -3.31228e-15 -0)
(-4.5426e-30 -3.31228e-15 -0)
(-7.19244e-30 -3.31228e-15 -0)
(1.1735e-29 -3.31228e-15 -0)
(1.55205e-29 -3.31228e-15 -0)
(7.57099e-30 -3.31228e-15 -0)
(-5.2997e-30 -3.31228e-15 -0)
(-1.5142e-29 -3.31228e-15 -0)
(6.43534e-30 -3.31228e-15 -0)
(1.36278e-29 -3.31228e-15 -0)
(3.7855e-30 -3.31228e-15 -0)
(-3.0284e-30 -3.31228e-15 -0)
(-2.2713e-30 -3.31228e-15 -0)
(2.64985e-30 -3.31228e-15 -0)
(-3.7855e-31 -3.31228e-15 -0)
(-1.13565e-30 -3.31228e-15 -0)
(-1.5142e-30 -3.31228e-15 -0)
(-3.7855e-31 -3.31228e-15 -0)
(5.67824e-30 -3.31228e-15 -0)
(8.70664e-30 -3.31228e-15 -0)
(6.43534e-30 -3.31228e-15 -0)
(3.7855e-30 -3.31228e-15 -0)
(4.92115e-30 -3.31228e-15 -0)
(6.43534e-30 -3.31228e-15 -0)
(1.13565e-30 -3.31228e-15 -0)
(-5.29969e-30 -3.31228e-15 -0)
(-4.16405e-30 -3.31228e-15 -0)
(-1.5142e-30 -3.31228e-15 -0)
(1.89275e-30 -3.31228e-15 -0)
(1.1735e-29 -3.31228e-15 -0)
(1.1735e-29 -3.31228e-15 -0)
(-7.57099e-31 -3.31228e-15 -0)
(-1.09779e-29 -3.31228e-15 -0)
(-1.21136e-29 -3.31228e-15 -0)
(-0 -3.31228e-15 -0)
(3.40695e-30 -3.31228e-15 -0)
(9.1879e-30 -3.31226e-15 -0)
(8.82038e-30 -3.31226e-15 -0)
(-3.67516e-31 -3.31226e-15 -0)
(-2.2051e-30 -3.31226e-15 -0)
(5.88025e-30 -3.31226e-15 -0)
(1.02904e-29 -3.31226e-15 -0)
(7.71783e-30 -3.31226e-15 -0)
(4.41019e-30 -3.31226e-15 -0)
(-7.35032e-30 -3.31226e-15 -0)