/*--------------------------------*- C++ -*----------------------------------*\
| =========                 |                                                 |
| \\      /  F ield         | foam-extend: Open Source CFD                    |
|  \\    /   O peration     | Version:     4.0                                |
|   \\  /    A nd           | Web:         http://www.foam-extend.org         |
|    \\/     M anipulation  |                                                 |
\*---------------------------------------------------------------------------*/
FoamFile
{
    version     2.0;
    format      ascii;
    class       surfaceScalarField;
    location    "8";
    object      phi;
}
// * * * * * * * * * * * * * * * * * * * * * * * * * * * * * * * * * * * * * //

dimensions      [0 3 -1 0 0 0 0];

internalField   nonuniform List<scalar> 
13744
(
-3.73247e-28
-2.81141e-25
-1.57541e-28
-2.15571e-28
3.9874e-30
-1.61461e-28
-8.53823e-31
4.77621e-30
8.12392e-31
-1.84083e-30
4.27951e-31
1.69977e-31
6.92631e-31
-4.57227e-31
5.27367e-31
1.73392e-32
4.16119e-31
3.44835e-32
1.85269e-31
2.3135e-31
-2.32591e-32
2.7903e-31
-2.24225e-31
3.22059e-31
-3.64468e-31
2.89183e-31
-4.44799e-31
2.34231e-31
-4.57563e-31
1.5298e-31
-4.16684e-31
7.28477e-32
-3.35742e-31
-1.21768e-34
-2.3636e-31
-5.20618e-32
-1.38878e-31
-8.03241e-32
-6.12777e-32
-8.49077e-32
-1.49308e-32
-7.12735e-32
-6.41509e-33
-4.31757e-32
-3.67322e-32
-5.77917e-33
-9.98658e-32
3.37351e-32
-1.82508e-31
6.73893e-32
-2.67576e-31
9.08785e-32
-3.37917e-31
1.02651e-31
-3.7786e-31
1.00698e-31
-3.74706e-31
8.24839e-32
-3.22455e-31
4.88931e-32
-2.26007e-31
5.43987e-33
-1.01476e-31
-4.12749e-32
2.72601e-32
-8.58364e-32
1.33241e-31
-1.22651e-31
1.89932e-31
-1.4318e-31
1.76725e-31
-1.39957e-31
8.63459e-32
-1.09959e-31
-6.84433e-32
-5.7657e-32
-2.55616e-31
1.14181e-32
-4.30547e-31
8.7777e-32
-5.44713e-31
1.61115e-31
-5.55674e-31
2.13938e-31
-4.38543e-31
2.36338e-31
-2.01843e-31
2.22434e-31
1.12107e-31
1.78648e-31
4.27734e-31
1.12136e-31
6.63053e-31
3.61847e-32
7.32716e-31
-2.79811e-32
5.94863e-31
-7.28266e-32
2.42268e-31
-7.81169e-32
-2.44723e-31
-7.64444e-32
-7.61184e-31
-4.09466e-32
-1.14189e-30
-4.73218e-32
-1.27271e-30
-3.02916e-32
-1.08056e-30
-8.66124e-32
-6.09194e-31
-7.73001e-32
-5.3908e-32
-8.36263e-32
3.66829e-31
7.16725e-32
4.41327e-31
1.79078e-31
5.25695e-31
-5.24875e-28
-2.80616e-25
-1.76707e-28
-5.63143e-28
6.96672e-30
-3.44603e-28
-5.17156e-30
1.70802e-29
2.15095e-30
-9.38877e-30
3.34689e-31
1.53351e-30
2.04539e-30
-2.68449e-30
1.19093e-30
3.66774e-31
1.28349e-30
-4.44277e-31
4.15708e-31
8.89068e-31
-1.99492e-32
7.0012e-31
-7.23243e-31
1.1828e-30
-1.07389e-30
9.25268e-31
-1.38234e-30
8.9854e-31
-1.40218e-30
5.43095e-31
-1.32129e-30
3.30024e-31
-1.07493e-30
2.82983e-32
-7.97635e-31
-1.32887e-31
-4.9902e-31
-2.63305e-31
-2.68868e-31
-2.7362e-31
-1.21018e-31
-2.38448e-31
-9.29457e-32
-1.32423e-31
-1.75184e-31
-5.92892e-33
-3.58444e-31
1.33314e-31
-6.0055e-31
2.44002e-31
-8.55153e-31
3.18871e-31
-1.06551e-30
3.44336e-31
-1.18473e-30
3.21123e-31
-1.17549e-30
2.45602e-31
-1.0232e-30
1.30704e-31
-7.40961e-31
-2.86056e-33
-3.75495e-31
-1.30491e-31
1.31864e-33
-2.35407e-31
3.06236e-31
-3.03803e-31
4.61197e-31
-3.22124e-31
4.09528e-31
-2.83979e-31
1.34352e-31
-1.95694e-31
-3.24264e-31
-7.98146e-32
-8.69601e-31
4.49294e-32
-1.36465e-30
1.56624e-31
-1.66424e-30
2.45032e-31
-1.6444e-30
2.87305e-31
-1.24309e-30
2.90836e-31
-4.89861e-31
2.59515e-31
4.76489e-31
2.32732e-31
1.43196e-30
2.14972e-31
2.11502e-30
2.32774e-31
2.2863e-30
2.78744e-31
1.812e-30
3.4043e-31
7.028e-31
3.90474e-31
-8.1457e-31
3.37343e-31
-2.39176e-30
2.1663e-31
-3.55156e-30
-1.05619e-31
-3.93491e-30
-3.99867e-31
-3.34093e-30
-7.97222e-31
-1.91599e-30
-8.25623e-31
-2.2954e-31
-6.69093e-31
1.03788e-30
1.70757e-31
1.31872e-30
7.09932e-31
2.09784e-30
-7.77091e-28
-2.79839e-25
-2.52862e-28
-1.08623e-27
6.8924e-30
-6.03134e-28
-1.09854e-29
3.56324e-29
3.15685e-30
-2.35597e-29
-2.62616e-31
4.44396e-30
3.32499e-30
-7.02625e-30
1.67698e-30
1.13934e-30
2.16429e-30
-1.72603e-30
5.9811e-31
1.87701e-30
6.60098e-33
1.00659e-30
-1.24953e-30
2.44862e-30
-1.79781e-30
1.73562e-30
-2.37555e-30
1.9126e-30
-2.40722e-30
1.09747e-30
-2.31023e-30
7.59605e-31
-1.89966e-30
8.60858e-32
-1.45061e-30
-2.099e-31
-9.43141e-31
-5.13066e-31
-5.54622e-31
-5.21286e-31
-2.95254e-31
-4.63221e-31
-2.41814e-31
-2.35777e-31
-3.70492e-31
1.39852e-32
-6.72586e-31
2.9263e-31
-1.07593e-30
4.9695e-31
-1.5058e-30
6.2427e-31
-1.8623e-30
6.39726e-31
-2.06581e-30
5.59019e-31
-2.05343e-30
3.85047e-31
-1.80246e-30
1.60989e-31
-1.33335e-30
-6.61543e-32
-7.23594e-31
-2.44709e-31
-9.4863e-32
-3.48867e-31
4.1028e-31
-3.66973e-31
6.60968e-31
-3.03314e-31
5.6512e-31
-1.80883e-31
9.77977e-32
-4.45863e-32
-6.71855e-31
4.75003e-32
-1.57937e-30
6.16533e-32
-2.3903e-30
-1.59163e-32
-2.859e-30
-1.53448e-31
-2.77829e-30
-3.21596e-31
-2.05238e-30
-4.30739e-31
-7.34888e-31
-4.22667e-31
9.29888e-31
-1.99217e-31
2.56332e-30
2.09993e-31
3.71012e-30
7.96054e-31
3.97585e-30
1.4006e-30
3.12684e-30
1.90465e-30
1.20429e-30
2.09207e-30
-1.41886e-30
1.80454e-30
-4.12654e-30
1.04144e-30
-6.12379e-30
-2.22868e-31
-6.78593e-30
-1.50479e-30
-5.78468e-30
-2.66672e-30
-3.37244e-30
-2.82013e-30
-4.99451e-31
-2.10748e-30
1.66672e-30
1.65132e-31
2.20568e-30
1.61918e-30
4.75324e-30
-9.22519e-28
-2.78917e-25
-3.32816e-28
-1.6743e-27
4.64788e-30
-9.38701e-28
-1.76464e-29
5.91086e-29
3.75434e-30
-4.47886e-29
-1.12035e-30
8.75782e-30
4.47706e-30
-1.3615e-29
2.09159e-30
2.27348e-30
3.02812e-30
-3.8764e-30
7.79134e-31
3.16353e-30
3.97656e-32
1.17135e-30
-1.78215e-30
4.11221e-30
-2.54423e-30
2.7171e-30
-3.41343e-30
3.28173e-30
-3.47493e-30
1.82083e-30
-3.3764e-30
1.36671e-30
-2.80855e-30
1.74362e-31
-2.18869e-30
-2.84803e-31
-1.46725e-30
-8.34984e-31
-9.12219e-31
-8.3537e-31
-5.3207e-31
-7.55117e-31
-4.4543e-31
-3.63899e-31
-6.15442e-31
4.21575e-32
-1.03522e-30
4.98801e-31
-1.60274e-30
8.11658e-31
-2.21414e-30
9.90585e-31
-2.72462e-30
9.70635e-31
-3.01996e-30
7.95707e-31
-3.01008e-30
4.83234e-31
-2.6629e-30
1.25181e-31
-2.00542e-30
-1.93839e-31
-1.14615e-30
-3.86461e-31
-2.58115e-31
-4.21747e-31
4.54563e-31
-3.02614e-31
8.06136e-31
-7.6043e-32
6.67497e-31
1.75753e-31
4.84571e-33
3.39423e-31
-1.08302e-30
3.04302e-31
-2.36134e-30
2.23205e-32
-3.49429e-30
-4.87399e-31
-4.13139e-30
-1.10447e-30
-3.97863e-30
-1.68479e-30
-2.90459e-30
-1.98934e-30
-9.87576e-31
-1.85916e-30
1.41822e-30
-1.11513e-30
3.77219e-30
1.42581e-31
5.41567e-30
1.81123e-30
5.79052e-30
3.4512e-30
4.55598e-30
4.74183e-30
1.78283e-30
5.13354e-30
-2.00662e-30
4.39556e-30
-5.91607e-30
2.45029e-30
-8.81946e-30
-4.35977e-31
-9.80807e-30
-3.43232e-30
-8.41579e-30
-5.80419e-30
-4.99394e-30
-6.17829e-30
-8.82727e-31
-4.4877e-30
2.24714e-30
-6.19979e-33
3.09157e-30
2.90334e-30
8.53043e-30
-1.07094e-27
-2.77847e-25
-3.97963e-28
-2.34518e-27
4.60318e-32
-1.33412e-27
-2.52366e-29
8.61197e-29
3.89061e-30
-7.34992e-29
-2.26716e-30
1.43432e-29
5.48066e-30
-2.25644e-29
2.42194e-30
3.71583e-30
3.86623e-30
-6.95822e-30
9.54475e-31
4.7119e-30
7.76445e-32
1.16011e-30
-2.32095e-30
6.15855e-30
-3.3124e-30
3.86193e-30
-4.4952e-30
5.01067e-30
-4.60537e-30
2.7221e-30
-4.52095e-30
2.16461e-30
-3.804e-30
3.05436e-31
-3.01528e-30
-3.46623e-31
-2.07543e-30
-1.22158e-30
-1.34584e-30
-1.21136e-30
-8.35155e-31
-1.11255e-30
-7.0647e-31
-5.16983e-31
-9.11412e-31
7.73721e-32
-1.44638e-30
7.5043e-31
-2.17988e-30
1.18668e-30
-2.97851e-30
1.41632e-30
-3.65101e-30
1.33536e-30
-4.04683e-30
1.02911e-30
-4.04691e-30
5.37728e-31
-3.60818e-30
2.09965e-32
-2.7629e-30
-3.86958e-31
-1.65031e-30
-5.54066e-31
-4.95771e-31
-4.48244e-31
4.33219e-31
-9.98801e-32
8.93931e-31
3.7552e-31
7.18162e-31
8.05371e-31
-1.38381e-31
9.75989e-31
-1.54778e-30
7.05813e-31
-3.20365e-30
-6.74381e-32
-4.66586e-30
-1.2663e-30
-5.47515e-30
-2.63372e-30
-5.24676e-30
-3.84456e-30
-3.81035e-30
-4.43965e-30
-1.26783e-30
-4.10868e-30
1.91476e-30
-2.56735e-30
5.02951e-30
-2.13283e-32
7.20614e-30
3.27104e-30
7.71406e-30
6.45538e-30
6.0968e-30
8.90639e-30
2.45064e-30
9.59016e-30
-2.55288e-30
8.19134e-30
-7.7287e-30
4.51224e-30
-1.16079e-29
-7.04287e-31
-1.29799e-29
-6.18024e-30
-1.12265e-29
-1.02477e-29
-6.78698e-30
-1.09674e-29
-1.39386e-30
-7.8876e-30
2.76522e-30
-4.04646e-31
3.96713e-30
4.54485e-30
1.34629e-29
-1.24123e-27
-2.76606e-25
-4.61877e-28
-3.12198e-27
-7.13919e-30
-1.78556e-27
-3.38435e-29
1.15138e-28
3.50224e-30
-1.10137e-28
-3.73899e-30
2.10434e-29
6.30882e-30
-3.39947e-29
2.65111e-30
5.40466e-30
4.66724e-30
-1.10391e-29
1.11851e-30
6.47965e-30
1.17925e-31
9.34552e-31
-2.86569e-30
8.56874e-30
-4.10136e-30
5.16023e-30
-5.62007e-30
7.10287e-30
-5.79899e-30
3.81032e-30
-5.74587e-30
3.16735e-30
-4.88972e-30
4.9294e-31
-3.93548e-30
-3.83139e-31
-2.77368e-30
-1.66445e-30
-1.86169e-30
-1.64427e-30
-1.21025e-30
-1.53403e-30
-1.02962e-30
-6.95592e-31
-1.26172e-30
1.17847e-31
-1.90796e-30
1.04564e-30
-2.80812e-30
1.6206e-30
-3.79906e-30
1.90071e-30
-4.64178e-30
1.7335e-30
-5.14772e-30
1.25883e-30
-5.16691e-30
5.47768e-31
-4.64334e-30
-1.52589e-31
-3.6128e-30
-6.46231e-31
-2.24451e-30
-7.46819e-31
-8.16568e-31
-4.24849e-31
3.38595e-31
2.48823e-31
9.1918e-31
1.06366e-30
7.1545e-31
1.72434e-30
-3.297e-31
1.8833e-30
-2.06068e-30
1.26841e-30
-4.09916e-30
-1.98127e-31
-5.89856e-30
-2.35499e-30
-6.88724e-30
-4.75906e-30
-6.58536e-30
-6.83569e-30
-4.77945e-30
-7.8312e-30
-1.59223e-30
-7.22907e-30
2.39821e-30
-4.61255e-30
6.31298e-30
-3.26026e-31
9.06301e-30
5.15423e-30
9.73623e-30
1.04221e-29
7.75057e-30
1.44388e-29
3.2211e-30
1.55286e-29
-3.03444e-30
1.3272e-29
-9.53683e-30
7.30399e-30
-1.44638e-29
-9.72778e-31
-1.62854e-29
-9.72967e-30
-1.42136e-29
-1.60206e-29
-8.76117e-30
-1.72479e-29
-2.04945e-30
-1.23859e-29
3.20556e-30
-1.10111e-30
4.82237e-30
6.51785e-30
1.95787e-29
-1.41839e-27
-2.75188e-25
-5.30496e-28
-4.00692e-27
-1.71313e-29
-2.29491e-27
-4.3563e-29
1.44509e-28
2.51729e-30
-1.55169e-28
-5.57694e-30
2.86746e-29
6.92997e-30
-4.8032e-29
2.75918e-30
7.27002e-30
5.4175e-30
-1.61907e-29
1.26438e-30
8.41857e-30
1.57542e-31
4.52243e-31
-3.41637e-30
1.13197e-29
-4.91027e-30
6.59949e-30
-6.7873e-30
9.56001e-30
-7.05643e-30
5.09415e-30
-7.05354e-30
4.38925e-30
-6.07001e-30
7.5149e-31
-4.95515e-30
-3.81051e-31
-3.56896e-30
-2.15412e-30
-2.46705e-30
-2.12846e-30
-1.66426e-30
-2.01773e-30
-1.42079e-30
-9.00414e-31
-1.67093e-30
1.61586e-31
-2.42309e-30
1.38243e-30
-3.48937e-30
2.11192e-30
-4.67699e-30
2.44326e-30
-5.69822e-30
2.16533e-30
-6.32478e-30
1.4855e-30
-6.37377e-30
5.13667e-31
-5.774e-30
-3.95904e-31
-4.56271e-30
-9.72356e-31
-2.93777e-30
-9.649e-31
-1.23001e-30
-3.49847e-31
1.61988e-31
7.48575e-31
8.75293e-31
1.99804e-30
6.55889e-31
2.94702e-30
-5.69086e-31
3.07915e-30
-2.61864e-30
2.00999e-30
-5.0431e-30
-3.56292e-31
-7.18804e-30
-3.74976e-30
-8.36612e-30
-7.49166e-30
-7.99785e-30
-1.06867e-29
-5.82144e-30
-1.22096e-29
-1.97628e-30
-1.12781e-29
2.84912e-30
-7.31231e-30
7.60262e-30
-8.24979e-31
1.09701e-29
7.42679e-30
1.18488e-29
1.53471e-29
9.51998e-30
2.13682e-29
4.10822e-30
2.30091e-29
-3.42827e-30
1.9718e-29
-1.13136e-29
1.09098e-29
-1.7363e-29
-1.17325e-30
-1.97098e-29
-1.40462e-29
-1.7375e-29
-2.31331e-29
-1.09273e-29
-2.50741e-29
-2.86734e-30
-1.80636e-29
3.55117e-30
-2.17623e-30
5.64623e-30
8.78754e-30
2.68992e-29
-1.59565e-27
-2.73593e-25
-6.03403e-28
-4.99583e-27
-3.01446e-29
-2.86343e-27
-5.44992e-29
1.72467e-28
8.56473e-31
-2.09086e-28
-7.82701e-30
3.70236e-29
7.30835e-30
-6.48083e-29
2.72329e-30
9.23284e-30
6.10104e-30
-2.24884e-29
1.38375e-30
1.04743e-29
1.92515e-31
-3.3344e-31
-3.97344e-30
1.43836e-29
-5.73848e-30
8.16431e-30
-7.99621e-30
1.23815e-29
-8.37842e-30
6.58147e-30
-8.44648e-30
5.84471e-30
-7.34955e-30
1.09655e-30
-6.08072e-30
-3.25996e-31
-4.46894e-30
-2.68003e-30
-3.17004e-30
-2.65753e-30
-2.20501e-30
-2.56142e-30
-1.88683e-30
-1.1321e-30
-2.14452e-30
2.06343e-31
-2.99574e-30
1.75842e-30
-4.22631e-30
2.65918e-30
-5.61421e-30
3.04374e-30
-6.82216e-30
2.63173e-30
-7.58064e-30
1.71048e-30
-7.67164e-30
4.36523e-31
-7.00631e-30
-7.08717e-31
-5.62076e-30
-1.36604e-30
-3.73977e-30
-1.20931e-30
-1.74641e-30
-2.23207e-31
-1.0626e-31
1.40227e-30
7.54589e-31
3.18602e-30
5.34812e-31
4.48624e-30
-8.57733e-31
4.58103e-30
-3.21978e-30
2.95014e-30
-6.03178e-30
-5.24845e-31
-8.53083e-30
-5.4415e-30
-9.91095e-30
-1.08362e-29
-9.48813e-30
-1.54204e-29
-6.94616e-30
-1.76168e-29
-2.43553e-30
-1.63136e-29
3.24808e-30
-1.07328e-29
8.87859e-30
-1.58084e-30
1.29116e-29
1.00424e-29
1.4044e-29
2.12124e-29
1.14082e-29
2.97124e-29
5.12669e-30
3.20853e-29
-3.7105e-30
2.76104e-29
-1.30312e-29
1.54217e-29
-2.02804e-29
-1.22409e-30
-2.32374e-29
-1.908e-29
-2.07087e-29
-3.15829e-29
-1.32966e-29
-3.44943e-29
-3.86652e-30
-2.50038e-29
3.78338e-30
-3.7206e-30
6.42645e-30
1.13094e-29
3.54379e-29
-1.77299e-27
-2.71822e-25
-6.79766e-28
-6.08539e-27
-4.63921e-29
-3.49132e-27
-6.67627e-29
1.9714e-28
-1.56628e-30
-2.72399e-28
-1.05402e-29
4.58464e-29
7.40388e-30
-8.44616e-29
2.51722e-30
1.12051e-29
6.69927e-30
-3.00115e-29
1.46649e-30
1.25863e-29
2.17727e-31
-1.47341e-30
-4.53786e-30
1.7728e-29
-6.5855e-30
9.83602e-30
-9.24605e-30
1.55642e-29
-9.76561e-30
8.27919e-30
-9.92732e-30
7.5479e-30
-8.73329e-30
1.54436e-30
-7.31912e-30
-2.02552e-31
-5.48199e-30
-3.23045e-30
-3.97964e-30
-3.2242e-30
-2.84126e-30
-3.16236e-30
-2.4355e-30
-1.39121e-30
-2.68876e-30
2.49759e-31
-3.63054e-30
2.17109e-30
-5.02211e-30
3.26073e-30
-6.61299e-30
3.70206e-30
-8.01578e-30
3.13412e-30
-8.91827e-30
1.936e-30
-9.0651e-30
3.18298e-31
-8.34691e-30
-1.09027e-30
-6.79578e-30
-1.8281e-30
-4.66104e-30
-1.48197e-30
-2.37701e-30
-4.6588e-32
-4.76786e-31
2.21049e-30
5.48438e-31
4.63271e-30
3.46714e-31
6.35312e-30
-1.19753e-30
6.40627e-30
-3.86272e-30
4.11049e-30
-7.06188e-30
-6.82195e-31
-9.92379e-30
-7.41488e-30
-1.15212e-29
-1.47904e-29
-1.10605e-29
-2.10531e-29
-8.16403e-30
-2.4091e-29
-2.98635e-30
-2.23934e-29
3.57475e-30
-1.49449e-29
1.01201e-29
-2.66572e-30
1.48706e-29
1.29418e-29
1.63135e-29
2.79866e-29
1.34185e-29
3.94773e-29
6.29189e-30
4.28044e-29
-3.85602e-30
3.70304e-29
-1.466e-29
2.09397e-29
-2.31892e-29
-1.02998e-30
-2.68513e-29
-2.47649e-29
-2.42115e-29
-4.13535e-29
-1.58804e-29
-4.55499e-29
-5.0671e-30
-3.32916e-29
3.88195e-30
-5.83508e-30
7.14944e-30
1.40283e-29
4.51996e-29
-1.95077e-27
-2.69872e-25
-7.59435e-28
-7.27277e-27
-6.60874e-29
-4.17846e-27
-8.04698e-29
2.16559e-28
-4.84362e-30
-3.45644e-28
-1.37722e-29
5.48664e-29
7.17222e-30
-1.07136e-28
2.11134e-30
1.30894e-29
7.19077e-30
-3.88434e-29
1.50041e-30
1.46875e-29
2.26646e-31
-3.02336e-30
-5.11138e-30
2.13148e-29
-7.45115e-30
1.15922e-29
-1.05361e-29
1.91021e-29
-1.12186e-29
1.01929e-29
-1.14986e-29
9.51268e-30
-1.02263e-29
2.11181e-30
-8.67763e-30
5.71332e-33
-6.61709e-30
-3.79247e-30
-4.90557e-30
-3.82021e-30
-3.5826e-30
-3.81714e-30
-3.0754e-30
-1.67806e-30
-3.31075e-30
2.89338e-31
-4.33285e-30
2.6176e-30
-5.88058e-30
3.91485e-30
-7.67608e-30
4.41841e-30
-9.28163e-30
3.67441e-30
-1.03409e-29
2.16502e-30
-1.0559e-29
1.61705e-31
-9.80284e-30
-1.53925e-30
-8.09704e-30
-2.35941e-30
-5.71269e-30
-1.78565e-30
-3.1338e-30
1.76557e-31
-9.61063e-31
3.17146e-30
2.47328e-31
6.34071e-30
8.52335e-32
8.55706e-30
-1.59111e-30
8.57197e-30
-4.5467e-30
5.51448e-30
-8.13055e-30
-8.02642e-31
-1.13641e-29
-9.64831e-30
-1.31966e-29
-1.93447e-29
-1.27196e-29
-2.75945e-29
-9.486e-30
-3.16657e-29
-3.64588e-30
-2.95751e-29
3.80774e-30
-2.00243e-29
1.13051e-29
-4.16156e-30
1.68292e-29
1.60525e-29
1.8648e-29
3.56234e-29
1.55536e-29
5.06561e-29
7.61948e-30
5.52055e-29
-3.8386e-30
4.80587e-29
-1.61689e-29
2.75713e-29
-2.60604e-29
-4.81547e-31
-3.05321e-29
-3.10179e-29
-2.78791e-29
-5.24135e-29
-1.86896e-29
-5.82741e-29
-6.48981e-30
-4.30137e-29
3.82531e-30
-8.63106e-30
7.80012e-30
1.68782e-29
5.61779e-29
-2.12858e-27
-2.67746e-25
-8.42439e-28
-8.55473e-27
-8.94417e-29
-4.92452e-27
-9.57426e-29
2.28663e-28
-9.07477e-30
-4.29376e-28
-1.75837e-29
6.37725e-29
6.56478e-30
-1.32982e-28
1.47262e-30
1.47784e-29
7.55122e-30
-4.90711e-29
1.47109e-30
1.67045e-29
2.11119e-31
-5.04373e-30
-5.69678e-30
2.51003e-29
-8.33583e-30
1.34064e-29
-1.18659e-29
2.29854e-29
-1.2738e-29
1.23263e-29
-1.31629e-29
1.17521e-29
-1.18337e-29
2.81627e-30
-1.01637e-29
3.16179e-31
-7.88357e-30
-4.35191e-30
-5.95816e-30
-4.43633e-30
-4.43939e-30
-4.52168e-30
-3.81605e-30
-1.99269e-30
-4.0185e-30
3.22663e-31
-5.10887e-30
3.09506e-30
-6.80623e-30
4.61976e-30
-8.80682e-30
5.193e-30
-1.06227e-29
4.25505e-30
-1.18522e-29
2.40116e-30
-1.21584e-29
-2.97349e-32
-1.13813e-29
-2.05392e-30
-9.53412e-30
-2.96096e-30
-6.90628e-30
-2.12418e-30
-4.02934e-30
4.40964e-31
-1.57134e-30
4.28094e-30
-1.5915e-31
8.31014e-30
-2.56926e-31
1.11057e-29
-2.042e-30
1.10949e-29
-5.27167e-30
7.1874e-30
-9.23542e-30
-8.56121e-31
-1.28492e-29
-1.21137e-29
-1.49371e-29
-2.44817e-29
-1.44703e-29
-3.50469e-29
-1.09234e-29
-4.03697e-29
-4.43192e-30
-3.79153e-29
3.92464e-30
-2.60512e-29
1.24102e-29
-6.15981e-30
1.8768e-29
1.92879e-29
2.10369e-29
4.40611e-29
1.78154e-29
6.32279e-29
9.125e-30
6.93191e-29
-3.63115e-30
6.07751e-29
-1.75245e-29
3.54315e-29
-2.88624e-29
5.44908e-31
-3.42583e-29
-3.77377e-29
-3.1705e-29
-6.47156e-29
-2.17342e-29
-7.26911e-29
-8.15576e-30
-5.42576e-29
3.59041e-30
-1.22301e-29
8.36189e-30
1.97816e-29
6.8354e-29
-2.30577e-27
-2.65442e-25
-9.28758e-28
-9.92738e-27
-1.16661e-28
-5.72896e-27
-1.12708e-28
2.31309e-28
-1.43655e-29
-5.24172e-28
-2.20404e-29
7.22176e-29
5.52846e-30
-1.62158e-28
5.64313e-31
1.61548e-29
7.75313e-30
-6.07854e-29
1.36165e-30
1.85569e-29
1.61139e-31
-7.59976e-30
-6.29805e-30
2.9035e-29
-9.24063e-30
1.52481e-29
-1.32352e-29
2.72009e-29
-1.43244e-29
1.46815e-29
-1.49228e-29
1.42784e-29
-1.35606e-29
3.67534e-30
-1.1785e-29
7.47063e-31
-9.29122e-30
-4.89342e-30
-7.14836e-30
-5.06218e-30
-5.42279e-30
-5.27101e-30
-4.66783e-30
-2.33477e-30
-4.82092e-30
3.4735e-31
-5.96565e-30
3.60049e-30
-7.80431e-30
5.37364e-30
-1.00091e-29
6.02636e-30
-1.20423e-29
4.8788e-30
-1.3456e-29
2.64883e-30
-1.38687e-29
-2.51807e-31
-1.30898e-29
-2.63205e-30
-1.11169e-29
-3.6339e-30
-8.25386e-30
-2.50231e-30
-5.07691e-30
7.3943e-31
-2.32071e-30
5.53208e-30
-6.82339e-31
1.05384e-29
-6.8798e-31
1.40045e-29
-2.55449e-30
1.39915e-29
-6.03818e-30
9.15665e-30
-1.03745e-29
-8.07929e-31
-1.43768e-29
-1.47758e-29
-1.67428e-29
-3.01759e-29
-1.63176e-29
-4.34046e-29
-1.24878e-29
-5.02261e-29
-5.36314e-30
-4.74691e-29
3.90166e-30
-3.31097e-29
1.34103e-29
-8.7619e-30
2.06655e-29
2.2547e-29
2.34677e-29
5.32214e-29
2.02046e-29
7.71569e-29
1.08237e-29
8.51657e-29
-3.20569e-30
7.52567e-29
-1.86919e-29
4.46419e-29
-3.15611e-29
2.1876e-30
-3.8005e-29
-4.48045e-29
-3.56803e-29
-7.81947e-29
-2.50228e-29
-8.88137e-29
-1.00862e-29
-6.711e-29
3.15272e-30
-1.6764e-29
8.81667e-30
2.26478e-29
8.16944e-29
-2.4817e-27
-2.62963e-25
-1.0183e-27
-1.13863e-26
-1.47942e-28
-6.59097e-27
-1.31498e-28
2.22282e-28
-2.08281e-29
-6.30629e-28
-2.72129e-29
7.98164e-29
4.00541e-30
-1.94829e-28
-6.54332e-31
1.70907e-29
7.76545e-30
-7.40807e-29
1.15236e-30
2.01579e-29
6.45581e-32
-1.07617e-29
-6.92057e-30
3.30633e-29
-1.01674e-29
1.70816e-29
-1.46441e-29
3.17312e-29
-1.59787e-29
1.72577e-29
-1.67807e-29
1.71024e-29
-1.54123e-29
4.70671e-30
-1.35495e-29
1.31729e-30
-1.08503e-29
-5.40048e-30
-8.48778e-30
-5.68631e-30
-6.54481e-30
-6.05936e-30
-5.64204e-30
-2.70343e-30
-5.72785e-30
3.61188e-31
-6.9111e-30
4.13078e-30
-8.88079e-30
6.17463e-30
-1.12874e-29
6.91902e-30
-1.35442e-29
5.54906e-30
-1.51563e-29
2.91311e-30
-1.56953e-29
-4.99499e-31
-1.4936e-29
-3.27086e-30
-1.28558e-29
-4.37945e-30
-9.76803e-30
-2.92586e-30
-6.29054e-30
1.06276e-30
-3.22316e-30
6.91528e-30
-1.33453e-30
1.30197e-29
-1.21706e-30
1.72566e-29
-3.13366e-30
1.72773e-29
-6.8473e-30
1.1451e-29
-1.1546e-29
-6.18722e-31
-1.59445e-29
-1.75925e-29
-1.86134e-29
-3.63927e-29
-1.82665e-29
-5.26532e-29
-1.41916e-29
-6.12512e-29
-6.45909e-30
-5.82894e-29
3.71356e-30
-4.12876e-29
1.42782e-29
-1.20791e-29
2.2498e-29
2.57138e-29
2.59258e-29
6.30085e-29
2.27203e-29
9.23905e-29
1.27303e-29
1.02754e-28
-2.5336e-30
9.1577e-29
-1.96339e-29
5.53303e-29
-3.41192e-29
4.5993e-30
-4.17443e-29
-5.20783e-29
-3.97931e-29
-9.27664e-29
-2.85625e-29
-1.06642e-28
-1.23023e-29
-8.16562e-29
2.48645e-30
-2.23738e-29
9.1448e-30
2.53732e-29
9.61491e-29
-2.65579e-27
-2.60311e-25
-1.11096e-27
-1.29266e-26
-1.83473e-28
-7.50943e-27
-1.52249e-28
1.9931e-28
-2.8581e-29
-7.4936e-28
-3.31772e-29
8.61445e-29
1.93295e-30
-2.31166e-28
-2.22827e-30
1.74472e-29
7.55335e-30
-8.90549e-29
8.20396e-31
2.1414e-29
-9.32284e-32
-1.46046e-29
-7.57141e-30
3.71229e-29
-1.11191e-29
1.88665e-29
-1.60933e-29
3.65541e-29
-1.77016e-29
2.00516e-29
-1.87391e-29
2.02332e-29
-1.7394e-29
5.92788e-30
-1.54652e-29
2.04636e-30
-1.25713e-29
-5.8554e-30
-9.98866e-30
-6.2961e-30
-7.81828e-30
-6.87991e-30
-6.75101e-30
-3.09724e-30
-6.75019e-30
3.62191e-31
-7.95413e-30
4.68282e-30
-1.00425e-29
7.02085e-30
-1.26468e-29
7.8719e-30
-1.51327e-29
6.26964e-30
-1.69577e-29
3.19984e-30
-1.76441e-29
-7.66887e-31
-1.6928e-29
-3.967e-30
-1.47614e-29
-5.19892e-30
-1.14619e-29
-3.40167e-30
-7.68486e-30
1.39961e-30
-4.29349e-30
8.41791e-30
-2.129e-30
1.57454e-29
-1.8543e-30
2.08624e-29
-3.78551e-30
2.09668e-29
-7.7008e-30
1.4101e-29
-1.27486e-29
-2.44846e-31
-1.75501e-29
-2.05138e-29
-2.0549e-29
-4.30883e-29
-2.03221e-29
-6.27683e-29
-1.60469e-29
-7.34539e-29
-7.74003e-30
-7.04259e-29
3.33375e-30
-5.06755e-29
1.49848e-29
-1.62322e-29
2.42394e-29
2.86569e-29
2.83942e-29
7.33079e-29
2.53595e-29
1.08858e-28
1.48584e-29
1.22079e-28
-1.58598e-30
1.09804e-28
-2.03117e-29
6.76295e-29
-3.64966e-29
7.94727e-30
-4.54446e-29
-5.93985e-29
-4.40284e-29
-1.08326e-28
-3.23579e-29
-1.26162e-28
-1.48246e-29
-9.79779e-29
1.56479e-30
-2.92097e-29
9.32505e-30
2.78403e-29
1.11649e-28
-2.82741e-27
-2.57487e-25
-1.20658e-27
-1.45429e-26
-2.23429e-28
-8.48292e-27
-1.75098e-28
1.6008e-28
-3.77485e-29
-8.80996e-28
-4.00143e-29
9.07364e-29
-7.56537e-31
-2.71351e-28
-4.20677e-30
1.70744e-29
7.078e-30
-1.05809e-28
3.39517e-31
2.22248e-29
-3.29577e-31
-1.92085e-29
-8.25966e-30
4.11452e-29
-1.21e-29
2.05573e-29
-1.75839e-29
4.16425e-29
-1.94943e-29
2.30566e-29
-2.08005e-29
2.36779e-29
-1.95109e-29
7.35583e-30
-1.75403e-29
2.95419e-30
-1.44652e-29
-6.2394e-30
-1.16638e-29
-6.87781e-30
-9.25687e-30
-7.72481e-30
-8.00804e-30
-3.51421e-30
-7.89994e-30
3.48653e-31
-9.10474e-30
5.25366e-30
-1.12972e-29
7.91052e-30
-1.40932e-29
8.88583e-30
-1.68127e-29
7.04483e-30
-1.8865e-29
3.51567e-30
-1.97209e-29
-1.04729e-30
-1.90739e-29
-4.71652e-30
-1.68444e-29
-6.09364e-30
-1.33488e-29
-3.93759e-30
-9.27513e-30
1.73652e-30
-5.54738e-30
1.00243e-29
-3.08005e-30
1.87028e-29
-2.61096e-30
2.48195e-29
-4.51708e-30
2.50729e-29
-8.60131e-30
1.71383e-29
-1.39816e-29
3.62073e-31
-1.91917e-29
-2.34824e-29
-2.25495e-29
-5.02085e-29
-2.24892e-29
-7.37154e-29
-1.80662e-29
-8.68341e-29
-9.22677e-30
-8.39239e-29
2.73445e-30
-6.13662e-29
1.54991e-29
-2.13509e-29
2.58611e-29
3.12293e-29
3.08529e-29
8.39856e-29
2.81167e-29
1.26468e-28
1.72199e-29
1.43121e-28
-3.34127e-31
1.3e-28
-2.06851e-29
8.16759e-29
-3.86503e-29
1.24127e-29
-4.90704e-29
-6.65833e-29
-4.83671e-29
-1.24745e-28
-3.6411e-29
-1.47342e-28
-1.76728e-29
-1.16152e-28
3.60062e-31
-3.74296e-29
9.33465e-30
2.99169e-29
1.28105e-28
-2.99595e-27
-2.54495e-25
-1.30502e-27
-1.62295e-26
-2.6797e-28
-9.50971e-27
-2.00187e-28
1.02249e-28
-4.84607e-29
-1.02618e-27
-4.78103e-29
9.30846e-29
-4.13569e-30
-3.15572e-28
-6.64367e-30
1.58107e-29
6.29628e-30
-1.24448e-28
-3.20199e-31
2.24839e-29
-6.64924e-31
-2.46581e-29
-8.99668e-30
4.50549e-29
-1.31157e-29
2.21029e-29
-1.91181e-29
4.69641e-29
-2.13582e-29
2.62626e-29
-2.29673e-29
2.74414e-29
-2.1768e-29
9.00677e-30
-1.97828e-29
4.06081e-30
-1.65431e-29
-6.53278e-30
-1.35266e-29
-7.41647e-30
-1.08751e-29
-8.58518e-30
-9.42752e-30
-3.95146e-30
-9.19025e-30
3.19337e-31
-1.03741e-29
5.84035e-30
-1.26539e-29
8.84187e-30
-1.56336e-29
9.96217e-30
-1.85895e-29
7.87945e-30
-2.08834e-29
3.868e-30
-2.19322e-29
-1.33304e-30
-2.13819e-29
-5.51476e-30
-1.91158e-29
-7.06491e-30
-1.54426e-29
-4.5425e-30
-1.10772e-29
2.05779e-30
-7.00133e-30
1.17153e-29
-4.20307e-30
2.18758e-29
-3.49951e-30
2.91218e-29
-5.33657e-30
2.9607e-29
-9.55242e-30
2.0595e-29
-1.52447e-29
1.25444e-30
-2.08675e-29
-2.6433e-29
-2.46146e-29
-5.76892e-29
-2.47727e-29
-8.54484e-29
-2.02619e-29
-1.01382e-28
-1.09405e-29
-9.88231e-29
1.88669e-30
-7.34531e-29
1.57879e-29
-2.7574e-29
2.73317e-29
3.32686e-29
3.32792e-29
9.48874e-29
3.09838e-29
1.4511e-28
1.9825e-29
1.65842e-28
1.25004e-30
1.52216e-28
-2.07127e-29
9.76081e-29
-4.05344e-29
1.81899e-29
-5.25822e-29
-7.3429e-29
-5.27862e-29
-1.41872e-28
-4.07204e-29
-1.70131e-28
-2.08648e-29
-1.36246e-28
-1.15601e-30
-4.71982e-29
9.14933e-30
3.14565e-29
1.45401e-28
-3.16078e-27
-2.51339e-25
-1.4061e-27
-1.79799e-26
-3.17239e-28
-1.05878e-26
-2.27658e-28
2.34674e-29
-6.08529e-29
-1.18557e-27
-5.66562e-29
9.26383e-29
-8.28228e-30
-3.64026e-28
-9.59749e-30
1.34826e-29
5.16053e-30
-1.45078e-28
-1.19273e-30
2.20779e-29
-1.12312e-30
-3.10429e-29
-9.79646e-30
4.87699e-29
-1.41738e-29
2.34462e-29
-2.06991e-29
5.24805e-29
-2.32954e-29
2.96553e-29
-2.52424e-29
3.15253e-29
-2.41706e-29
1.08957e-29
-2.22011e-29
5.38619e-30
-1.88166e-29
-6.715e-30
-1.5591e-29
-7.89607e-30
-1.26882e-29
-9.4509e-30
-1.10249e-29
-4.40542e-30
-1.06355e-29
2.73459e-31
-1.17747e-29
6.4402e-30
-1.41226e-29
9.81327e-30
-1.72756e-29
1.11022e-29
-2.04695e-29
8.77887e-30
-2.30186e-29
4.26505e-30
-2.42842e-29
-1.6156e-30
-2.38604e-29
-6.35636e-30
-2.15869e-29
-8.11394e-30
-1.77574e-29
-5.22617e-30
-1.31074e-29
2.34552e-30
-8.67271e-30
1.34686e-29
-5.51455e-30
2.5244e-29
-4.53366e-30
3.37593e-29
-6.25347e-30
3.45778e-29
-1.05588e-29
2.4504e-29
-1.65386e-29
2.48856e-30
-2.25761e-29
-2.92928e-29
-2.67439e-29
-6.54553e-29
-2.71768e-29
-9.7909e-29
-2.26461e-29
-1.17078e-28
-1.29028e-29
-1.15156e-28
7.60509e-31
-8.70294e-29
1.58163e-29
-3.50472e-29
2.86169e-29
3.45966e-29
3.56464e-29
1.05838e-28
3.39487e-29
1.64648e-28
2.26807e-29
1.90186e-28
3.19341e-30
1.76493e-28
-2.03523e-29
1.15565e-28
-4.21001e-29
2.54857e-29
-5.59362e-29
-7.97102e-29
-5.72575e-29
-1.5953e-28
-4.52807e-29
-1.94457e-28
-2.44167e-29
-1.58321e-28
-3.01197e-30
-5.8685e-29
8.74352e-30
3.22972e-29
1.63398e-28
-3.32124e-27
-2.48023e-25
-1.5096e-27
-1.97875e-26
-3.71357e-28
-1.17147e-26
-2.57651e-28
-7.86052e-29
-7.50648e-29
-1.35982e-27
-6.66482e-29
8.88024e-29
-1.32792e-29
-4.16921e-28
-1.31316e-29
9.90418e-30
3.61833e-30
-1.6781e-28
-2.31636e-30
2.08878e-29
-1.7318e-30
-3.84565e-29
-1.06759e-29
5.22014e-29
-1.52842e-29
2.45246e-29
-2.23315e-29
5.81476e-29
-2.53085e-29
3.32158e-29
-2.76286e-29
3.59283e-29
-2.67239e-29
1.30362e-29
-2.48035e-29
6.94994e-30
-2.12973e-29
-6.76483e-30
-1.78714e-29
-8.29947e-30
-1.47125e-29
-1.03107e-29
-1.28167e-29
-4.87149e-30
-1.22515e-29
2.1078e-31
-1.33203e-29
7.05079e-30
-1.57146e-29
1.08232e-29
-1.90282e-29
1.23078e-29
-2.24597e-29
9.74888e-30
-2.5277e-29
4.71582e-30
-2.67839e-29
-1.88541e-30
-2.65181e-29
-7.23509e-30
-2.4269e-29
-9.24165e-30
-2.03074e-29
-5.99925e-30
-1.53828e-29
2.57964e-30
-1.05797e-29
1.52583e-29
-7.03214e-30
2.87827e-29
-5.72851e-30
3.8718e-29
-7.27864e-30
3.99911e-29
-1.16262e-29
2.88975e-29
-1.78644e-29
4.12442e-30
-2.43161e-29
-3.19813e-29
-2.8937e-29
-7.34204e-29
-2.97055e-29
-1.11026e-28
-2.52305e-29
-1.33888e-28
-1.51349e-29
-1.32947e-28
-6.74859e-31
-1.02186e-28
1.55473e-29
-4.39231e-29
2.96795e-29
3.50203e-29
3.79245e-29
1.16641e-28
3.69959e-29
1.84925e-28
2.5791e-29
2.16075e-28
5.521e-30
2.02857e-28
-1.95614e-29
1.35682e-28
-4.32962e-29
3.45173e-29
-5.90843e-29
-8.51794e-29
-6.17478e-29
-1.77515e-28
-5.00818e-29
-2.20223e-28
-2.83419e-29
-1.82422e-28
-5.23613e-30
-7.20621e-29
8.09044e-30
3.22622e-29
1.81924e-28
-3.47671e-27
-2.44552e-25
-1.61529e-27
-2.16453e-26
-4.30423e-28
-1.28879e-26
-2.90308e-28
-2.06279e-28
-9.12405e-29
-1.54959e-27
-7.7887e-29
8.09375e-29
-1.92144e-29
-4.74473e-28
-1.73144e-29
4.87681e-30
1.61227e-30
-1.92755e-28
-3.73406e-30
1.87884e-29
-2.52273e-30
-4.69966e-29
-1.16555e-29
5.52542e-29
-1.6459e-29
2.52695e-29
-2.40214e-29
6.39147e-29
-2.74011e-29
3.69207e-29
-3.01293e-29
4.06449e-29
-2.94331e-29
1.54396e-29
-2.75983e-29
8.77091e-30
-2.39971e-29
-6.66057e-30
-2.03827e-29
-8.60855e-30
-1.6965e-29
-1.11522e-29
-1.48208e-29
-5.34419e-30
-1.40553e-29
1.31768e-31
-1.50262e-29
7.66996e-30
-1.74428e-29
1.18704e-29
-2.09016e-29
1.35807e-29
-2.45681e-29
1.07958e-29
-2.76653e-29
5.23017e-30
-2.94383e-29
-2.13186e-30
-2.93636e-29
-8.1438e-30
-2.71734e-29
-1.04487e-29
-2.31072e-29
-6.87305e-30
-1.79205e-29
2.73791e-30
-1.27413e-29
1.70548e-29
-8.7747e-30
3.24625e-29
-7.10065e-30
4.39788e-29
-8.42452e-30
4.58491e-29
-1.2762e-29
3.3807e-29
-1.92248e-29
6.22433e-30
-2.6087e-29
-3.44109e-29
-3.11931e-29
-8.14872e-29
-3.23619e-29
-1.24715e-28
-2.8026e-29
-1.51765e-28
-1.76579e-29
-1.52211e-28
-2.4507e-30
-1.19011e-28
1.49422e-29
-5.43589e-29
3.04792e-29
3.43326e-29
4.00791e-29
1.27076e-28
4.01049e-29
2.05755e-28
2.91559e-29
2.43404e-28
8.25522e-30
2.31318e-28
-1.82981e-29
1.58092e-28
-4.40695e-29
4.55109e-29
-6.19737e-29
-8.95678e-29
-6.62185e-29
-1.95596e-28
-5.51084e-29
-2.47306e-28
-3.26502e-29
-2.0858e-28
-7.85615e-30
-8.75024e-29
7.16239e-30
3.11601e-29
2.0078e-28
-3.62656e-27
-2.40932e-25
-1.72292e-27
-2.35457e-26
-4.94509e-28
-1.41043e-26
-3.25764e-28
-3.6181e-28
-1.09527e-28
-1.75556e-27
-9.04777e-29
6.83591e-29
-2.61808e-29
-5.36906e-28
-2.22191e-29
-1.81138e-30
-9.20217e-31
-2.20028e-28
-5.49367e-30
1.56492e-29
-3.53219e-30
-5.67645e-29
-1.27591e-29
5.78263e-29
-1.77133e-29
2.56063e-29
-2.5777e-29
6.97245e-29
-2.95779e-29
4.07409e-29
-3.27481e-29
4.56657e-29
-3.23036e-29
1.81151e-29
-3.05939e-29
1.0867e-29
-2.6928e-29
-6.38029e-30
-2.31404e-29
-8.80432e-30
-1.94636e-29
-1.19617e-29
-1.70561e-29
-5.81691e-30
-1.60656e-29
3.76447e-32
-1.69095e-29
8.29598e-30
-1.93217e-29
1.29536e-29
-2.29075e-29
1.4923e-29
-2.68039e-29
1.19264e-29
-3.01914e-29
5.81869e-30
-3.22551e-29
-2.34326e-30
-3.24059e-29
-9.0743e-30
-3.03115e-29
-1.1735e-29
-2.61715e-29
-7.85947e-30
-2.07385e-29
2.79615e-30
-1.51774e-29
1.88251e-29