/*--------------------------------*- C++ -*----------------------------------*\
| =========                 |                                                 |
| \\      /  F ield         | foam-extend: Open Source CFD                    |
|  \\    /   O peration     | Version:     4.0                                |
|   \\  /    A nd           | Web:         http://www.foam-extend.org         |
|    \\/     M anipulation  |                                                 |
\*---------------------------------------------------------------------------*/
FoamFile
{
    version     2.0;
    format      ascii;
    class       volScalarField;
    location    "12";
    object      dPhi;
}
// * * * * * * * * * * * * * * * * * * * * * * * * * * * * * * * * * * * * * //

dimensions      [0 -1 0 0 0 0 0];

internalField   nonuniform List<scalar> 
6960
(
1.67011e-15
2.41411e-16
5.62599e-16
-6.91857e-16
-9.06318e-16
1.31023e-15
3.14846e-16
-1.01153e-15
-2.40469e-16
-1.27983e-16
-1.43996e-17
1.09212e-15
8.86335e-17
-1.12621e-15
6.43637e-16
9.77666e-16
-6.82715e-16
4.23259e-16
1.31048e-15
2.05219e-16
-2.46656e-16
8.62998e-16
1.42338e-15
-8.01171e-16
-6.91267e-16
9.18658e-17
8.6438e-17
-1.33824e-16
1.20403e-15
-2.45077e-16
-2.60154e-16
5.68122e-16
6.89417e-17
2.90756e-16
-4.31418e-16
1.18278e-15
9.61267e-16
-6.48488e-16
-1.47763e-16
8.53884e-16
-5.36416e-16
-8.09865e-16
8.5631e-16
2.20838e-17
-6.98097e-16
3.01828e-16
-2.00083e-16
8.06579e-17
9.70734e-16
-3.10055e-16
-4.76534e-16
-3.36238e-17
-3.12664e-16
8.55259e-16
1.91036e-16
-5.35291e-16
7.4898e-17
-1.47472e-16
-5.37581e-16
4.09788e-16
-1.79781e-15
1.05113e-16
-1.18139e-15
3.46254e-16
2.00474e-15
-2.4219e-15
6.38961e-16
1.62771e-15
2.41507e-15
-1.68961e-15
-1.31884e-15
-1.02618e-15
3.01785e-15
3.99014e-16
1.07463e-15
1.7426e-15
1.20319e-16
-2.54029e-16
1.1874e-15
-2.48895e-15
2.37603e-16
5.69369e-16
1.69068e-16
1.18291e-15
9.5815e-16
1.70545e-16
-9.54776e-17
1.573e-15
-1.10189e-15
-1.53534e-15
-1.11049e-16
1.5599e-16
-1.28448e-15
9.34623e-16
4.33193e-16
-6.66229e-16
1.11307e-16
8.87785e-16
5.02338e-16
-1.26923e-15
-6.65361e-16
8.44268e-16
-6.53815e-16
-6.02857e-16
1.90001e-15
-5.41274e-16
-5.47116e-16
1.26892e-16
-2.57796e-16
-8.7777e-16
-1.54973e-16
9.20217e-18
-1.27242e-15
2.50865e-15
-1.15133e-15
1.33606e-15
-1.66168e-15
-7.1804e-16
-2.33288e-15
-2.14103e-16
5.6533e-16
1.11223e-15
-7.56556e-16
-1.42006e-15
5.20634e-16
-7.43221e-17
6.05229e-16
-3.1225e-15
1.05656e-16
1.10974e-15
2.58796e-15
3.21366e-15
-6.85406e-16
-2.67527e-17
4.08731e-15
2.648e-15
8.03882e-16
5.95959e-16
-2.01569e-15
1.63704e-15
-1.38832e-16
1.19173e-15
5.06748e-15
3.74993e-15
2.80236e-15
-2.59558e-16
6.38134e-16
3.65918e-16
-5.87014e-16
3.19823e-15
1.89828e-15
-8.18437e-16
1.4949e-15
-1.33777e-15
1.34647e-15
1.45199e-15
-3.77953e-16
-4.68104e-16
3.48219e-16
1.34251e-16
-2.35229e-15
-3.57928e-15
-9.67406e-16
-2.28542e-15
-2.34188e-17
-9.0989e-16
-7.85233e-16
-2.01686e-15
7.11562e-16
3.82525e-15
-3.03007e-16
6.93456e-16
-9.60088e-16
-2.63632e-15
-1.57516e-15
-1.40206e-15
9.59411e-16
-9.27616e-16
-8.1261e-17
8.55896e-16
-2.88571e-15
-1.39992e-15
-1.20439e-15
2.43989e-15
1.47072e-16
1.9082e-17
-1.34582e-15
-1.53686e-16
-2.06741e-15
-1.9771e-15
-2.27379e-15
-4.06738e-15
-5.08979e-16
2.79648e-15
-2.73045e-15
1.9082e-16
-2.59937e-16
-5.63785e-17
5.77663e-16
2.66605e-16
1.0617e-15
2.75105e-15
-2.91417e-15
-1.32229e-15
-2.18792e-15
-8.02689e-16
-2.32491e-15
1.37368e-15
1.45684e-15
-1.5374e-15
-1.86282e-15
-1.2863e-15
-1.55204e-15
-1.16432e-15
-6.19784e-16
7.44955e-16
-5.76796e-17
-1.39802e-15
-2.13273e-15
4.37476e-17
-3.65972e-16
4.08023e-15
-1.07781e-15
1.06902e-15
-3.00053e-16
-2.158e-15
1.54054e-15
-2.20836e-15
1.10979e-15
-1.18666e-16
2.50559e-16
-1.1441e-15
1.83577e-15
-1.41488e-15
-1.7956e-15
-7.74934e-16
2.89243e-15
1.89405e-15
-1.78904e-15
2.4903e-15
6.02263e-15
2.9493e-15
2.27487e-15
5.64924e-16
1.17056e-15
1.73841e-15
2.63195e-15
-4.77445e-15
-6.41685e-16
-1.46346e-15
2.50917e-15
-8.10983e-16
-3.18484e-16
-1.86548e-15
3.92584e-15
5.81132e-16
-2.7259e-15
1.41629e-15
-2.16943e-15
9.91069e-16
-4.33101e-15
1.49067e-15
-1.699e-15
3.66731e-16
3.19021e-15
-6.14201e-16
3.35913e-15
-1.85995e-16
-1.51197e-15
2.07408e-16
-1.66967e-17
1.28608e-15
-1.43733e-15
2.1684e-18
-2.54701e-15
-1.43565e-15
1.59193e-15
-8.10983e-16
-2.1452e-15
-2.43002e-15
1.40296e-16
-5.56033e-16
-8.25024e-16
-4.9586e-16
-7.96075e-16
-3.17975e-15
-1.16389e-15
-3.67599e-16
1.68176e-15
5.64815e-16
-1.74491e-15
-1.44633e-16
-2.09419e-15
1.38496e-15
-9.0146e-16
-3.79048e-15
-2.91677e-15
-8.5652e-17
2.04155e-15
-1.03758e-15
2.29255e-15
-7.33896e-16
5.45137e-16
4.20367e-15
1.7821e-15
-8.61941e-17
1.54239e-15
5.0938e-15
6.57439e-15
4.55972e-15
2.80288e-15
3.52658e-15
2.44683e-15
1.02782e-16
-4.25983e-16
4.80855e-15
4.76463e-15
6.24706e-15
4.86341e-15
3.11719e-15
5.60619e-15
3.55185e-15
3.67241e-15
5.58917e-15
1.48753e-16
-3.91722e-15
-1.90277e-15
4.25961e-15
3.70147e-15
-1.34549e-16
-8.01009e-16
-1.71087e-15
-1.87665e-15
-6.30767e-15
4.38961e-15
-8.32884e-16
8.18356e-16
-1.15327e-15
-3.53753e-15
4.05914e-15
1.07564e-15
-1.34647e-15
1.8954e-15
1.27134e-15
1.99298e-15
1.94387e-15
7.43437e-16
-2.86934e-15
-1.36718e-15
1.89735e-15
-4.79716e-15
1.04127e-15
2.90328e-15
-3.33663e-15
-5.24223e-15
2.02193e-15
-7.80626e-16
-4.05557e-15
-2.9899e-15
-3.81899e-15
-6.86604e-15
-1.25757e-15
1.87068e-15
-5.46492e-15
-4.06944e-15
1.96913e-15
2.06389e-15
-5.34382e-15
2.36324e-15
1.22537e-15
-4.04201e-15
-1.73147e-16
-1.37282e-15
-2.62962e-15
3.8847e-15
3.12369e-15
-2.377e-15
1.9057e-15
-3.46641e-15
-8.03741e-15
-3.27277e-15
5.43619e-16
-5.23344e-15
-3.75351e-15
-4.47873e-15
-3.06244e-15
1.1434e-15
-2.22836e-15
-4.33074e-15
4.74772e-16
-3.3903e-16
3.56919e-16
-7.81168e-16
6.29108e-15
9.01297e-16
-1.49967e-15
-1.37043e-15
-1.21723e-15
-1.83414e-15
-4.86135e-15
-1.36609e-16
-9.70036e-16
-6.83047e-15
1.80899e-15
-1.23567e-15
-2.20874e-15
2.12027e-15
-8.45461e-16
-5.21154e-15
-2.84061e-15
-6.95624e-16
-1.58348e-15
3.06927e-15
1.29942e-15
-2.28973e-15
9.71011e-16
3.53558e-16
-4.08961e-16
9.11922e-16
-3.43464e-15
6.29878e-15
-7.55472e-16
-1.28391e-15
4.36066e-15
3.86193e-16
-3.268e-15
9.95406e-15
5.19224e-15
-2.14889e-16
4.51809e-15
4.49857e-15
2.15973e-15
7.55906e-15
5.9436e-16
2.15973e-16
4.99037e-15
-3.63403e-15
-9.73614e-17
2.99392e-15
2.79312e-15
1.4383e-15
-3.18604e-15
-4.83771e-16
4.89257e-15
3.40071e-15
3.5525e-15
1.98366e-15
-3.89988e-15
2.11116e-15
6.71338e-16
1.17744e-15
2.59276e-15
-3.52864e-15
-3.53819e-15
1.96696e-15
-1.10242e-15
-5.64219e-15
4.26091e-15
7.25765e-16
3.41242e-15
-4.64039e-17
1.6469e-15
-4.47559e-16
-4.38321e-15
-3.2049e-15
-9.95081e-16
-3.53884e-16
-2.93862e-15
6.67977e-15
-1.13017e-15
-5.53377e-16
7.65013e-16
6.37728e-16
-5.54504e-15
4.38126e-15
1.26787e-15
-8.22042e-16
-7.69784e-17
-1.04495e-15
-3.36753e-16
-3.34672e-15
1.09027e-15
2.98611e-15
-3.39897e-15
3.46381e-15
-1.46194e-15
-4.85549e-15
-3.69214e-15
2.69381e-15
-3.72077e-15
-2.35922e-15
1.04235e-15
-7.50593e-15
-2.82196e-15
-3.57982e-15
-2.34751e-15
3.04617e-15
1.88283e-15
4.53153e-15
-7.04623e-15
2.74433e-15
-2.0821e-15
-1.16183e-15
3.09757e-15
-2.16905e-15
-9.26776e-16
2.0164e-15
2.77339e-15
-1.65124e-15
-3.18755e-16
1.65796e-15
-2.70031e-15
6.12878e-15
-5.52705e-15
2.98741e-15
2.80375e-16
-4.18285e-16
-2.49345e-15
-3.01799e-15
-3.20403e-15
5.60316e-16
3.85976e-16
7.58942e-17
4.74881e-16
1.23187e-15
1.08312e-15
-3.11903e-15
2.96833e-15
-5.73543e-16
-1.77419e-15
2.91867e-16
1.30993e-15
-3.27776e-15
5.05282e-15
-3.55033e-15
2.14672e-17
7.19477e-16
-1.08095e-15
-1.97542e-15
3.27776e-15
8.43509e-16
-2.77989e-16
-1.97889e-15
2.00361e-16
-5.408e-15
7.02346e-15
4.27219e-15
-3.0427e-15
2.62724e-15
-3.38575e-15
-4.30905e-15
-2.02529e-16
2.40823e-15
-8.50405e-15
3.37664e-15
6.42411e-15
-3.60259e-15
2.6975e-16
-3.39962e-15
4.14816e-15
-6.47486e-16
1.59291e-15
2.20223e-15
-3.88058e-15
2.38221e-15
3.62991e-16
-7.16874e-16
1.62327e-15
3.2049e-15
-1.14535e-15
-2.07299e-16
-8.03177e-16
-5.12351e-15
4.30862e-15
-2.1619e-15
-2.53443e-15
-1.84922e-15
3.49417e-15
6.64399e-16
1.29237e-15
2.39652e-15
-6.57027e-16
-1.13494e-15
4.21538e-16
-1.13885e-15
-8.75168e-16
4.72495e-15
-2.57476e-15
-8.11113e-15
1.53133e-15
7.93636e-16
-2.78076e-15
8.39866e-15
-3.33067e-15
-1.92207e-15
-1.17354e-15
-2.5353e-15
2.92344e-15
2.12807e-15
-2.20223e-15
4.14165e-16
1.92337e-15
6.29921e-15
1.62544e-15
3.65159e-15
-2.90263e-15
-1.86439e-15
-4.53543e-15
2.25514e-17
-8.83842e-16
1.32706e-15
2.33841e-15
-1.30104e-15
3.89662e-15
1.30278e-15
-1.84748e-15
-2.14976e-15
-4.35632e-15
-1.62327e-15
3.42608e-16
-1.50921e-16
2.49974e-15
6.1149e-16
4.15423e-15
6.94757e-16
-3.14158e-15
-2.11636e-15
-1.03181e-14
9.567e-16
4.64169e-15
-5.59839e-15
5.80265e-16
1.81799e-15
-4.55365e-17
1.66533e-16
-2.72525e-15
-9.37184e-16
-3.20534e-15
-6.67608e-15
-3.64682e-15
4.244e-15
-1.30495e-15
8.21218e-15
2.87444e-15
2.11029e-15
1.91557e-15
2.54267e-15
3.47465e-15
5.31563e-15
-1.17397e-15
7.37691e-15
-4.87891e-16
-2.69533e-15
4.02196e-15
3.90269e-15
1.11629e-15
-6.38942e-15
-5.92842e-15
3.40179e-15
3.22962e-15
4.58054e-15
-3.38922e-15
1.66924e-15
6.37077e-16
-6.12357e-16
1.34875e-16
-2.2881e-15
-5.24754e-17
-5.91064e-15
4.44393e-15
-1.55952e-15
-1.96718e-15
3.03663e-15
-2.58951e-15
-2.06172e-15
-2.92604e-15
2.26555e-15
-3.00628e-15
4.22015e-15
2.05001e-15
5.17208e-15
-3.07957e-15
-6.44493e-15
-2.48976e-15
6.81746e-15
-2.38958e-16
-4.54151e-15
7.63018e-15
-1.87177e-15
-3.52236e-15
7.80409e-15
-1.8284e-15
4.68245e-15
-1.36132e-15
-4.63735e-15
3.76565e-15
4.16767e-16
-1.44893e-15
8.1532e-15
4.04711e-15
-1.01221e-15
-5.37027e-15
-8.17358e-15
7.89559e-15
-2.58821e-15
4.63388e-15
4.35893e-15
-2.05782e-15
-3.87624e-15
-5.9861e-15
-4.79521e-15
1.07379e-15
-4.81169e-15
-3.01495e-15
-5.05368e-15
-2.31586e-15
8.15277e-15
-1.55648e-15
3.05051e-15
1.043e-15
-5.15733e-15
2.60035e-15
1.71304e-15
-1.9611e-15
-3.47812e-16
-3.32113e-15
1.31926e-15
7.86957e-15
1.15073e-14
-1.48406e-15
7.78023e-15
2.87097e-15
1.11803e-15
7.02736e-15
-4.01068e-15
6.4523e-15
-4.85723e-16
8.6476e-15
1.17701e-15
3.80859e-15
4.73493e-15
-6.75762e-15
1.60167e-14
4.89799e-15
-3.05138e-15
5.05412e-15
8.40387e-15
-4.5337e-15
3.75568e-15
6.03944e-15
3.10516e-15
6.50955e-15
-1.72432e-15
-6.67869e-16
2.59515e-15
4.34808e-15
-3.11383e-16
-6.08888e-16
5.77316e-15
2.3679e-15
-4.81646e-15
1.10537e-14
6.24934e-15
-8.83842e-15
-7.54605e-16
-3.7895e-15
-9.42996e-15
-1.1267e-15
-6.35776e-16
4.69243e-15
1.20216e-15
-4.18762e-15
2.64806e-15
-5.75928e-16
4.89799e-15
-1.07553e-15
-6.00214e-15
3.94823e-15
-9.12031e-15
3.42608e-16
6.33348e-15
9.8966e-16
-5.64652e-15
-6.61797e-15
2.72699e-15
8.96158e-15
-2.30285e-15
-4.72192e-15
-7.31273e-15
-8.48193e-15
-8.42729e-15
7.53737e-16
-2.06085e-15
-1.00371e-14
7.91815e-15
-2.92735e-15
2.62897e-15
-1.13685e-14
-1.84922e-15
-1.28543e-15
-5.90153e-15
8.75428e-15
-1.1444e-14
-6.37858e-15
6.7446e-15
-3.80512e-15
-3.91007e-15
5.30999e-15
-5.48693e-15
-5.08968e-15
-8.318e-15
-6.26235e-15
-2.90826e-15
8.01616e-15
5.30739e-15
-3.95777e-15
-2.40693e-15
-4.25875e-16
-1.01594e-14
-2.2933e-15
1.55778e-15
-8.13499e-15
-9.87925e-16
-5.6552e-15
-8.39606e-16
3.73833e-16
1.15056e-14
-1.26548e-15
1.68528e-15
-9.54185e-15
-6.11577e-15
-4.72539e-15
2.29851e-16
-2.59341e-16
-2.51795e-15
3.93002e-15
2.80592e-15
-2.42775e-15
3.52756e-15
3.81639e-17
-8.16881e-15
1.39645e-15
1.08611e-14
-1.38604e-15
-5.29091e-15
-5.0359e-15
3.48506e-15
-1.36176e-15
6.32827e-15
-1.48145e-15
-3.59088e-16
-3.04097e-15
1.9932e-15
1.334e-15
-9.6971e-15
5.93622e-15
-3.04964e-15
2.97332e-15
-1.04083e-16
-1.40339e-15
1.419e-15
-1.89258e-15
1.73472e-16
2.95944e-15
-8.30239e-15
-1.19696e-15
-6.10623e-16
-7.97973e-16
5.13478e-16
9.51322e-15
8.95811e-15
2.08167e-15
1.80758e-15
-2.13544e-15
-2.28983e-15
-2.32453e-16
-5.63612e-15
2.7478e-15
-1.30278e-15
-8.85923e-15
2.35575e-15
3.88578e-15
-7.63278e-16
1.92207e-15
-7.68829e-15
4.09395e-15
7.75421e-16
2.98199e-15
-5.17468e-15
3.15026e-15
4.7462e-15
3.97599e-15
1.30278e-15
-3.0323e-15
-6.79665e-15
-4.36109e-15
-2.41474e-15
3.01842e-16
1.19002e-15
7.5287e-16
1.6636e-15
9.26342e-16
-8.08208e-15
6.05418e-16
2.69229e-15
1.09114e-15
1.81452e-15
2.43902e-15
8.62158e-16
3.95517e-15
9.02924e-15
-1.76942e-15
1.25247e-15
4.23966e-15
6.03684e-15
-1.4988e-15
1.41553e-15
3.27342e-15
-1.98452e-15
3.62384e-15
-6.67869e-15
3.02536e-15
-3.60822e-16
-2.5327e-15
2.78944e-15
4.03323e-15
6.34909e-16
-5.96745e-16
1.52656e-16
-9.7318e-15
-6.91461e-15
-1.21379e-14
3.50414e-16
-1.89258e-15
-2.26208e-15
-3.68108e-15
-9.71445e-16
-1.08594e-15
-1.07032e-15
1.02158e-14
-6.84869e-15
-3.79037e-15
-3.38618e-15
-6.58501e-15
3.24393e-15
-2.15106e-15
2.70617e-15
-1.08767e-15
9.85843e-15
-5.76449e-15
-1.249e-15
4.93355e-15
-2.44076e-15
3.30638e-15
1.04465e-14
4.43222e-15
2.78597e-15
-5.03417e-15
-1.71738e-15
-2.18575e-15
-3.64639e-15
-4.71845e-15
2.23953e-15
-6.8695e-16
1.14145e-14
8.20351e-15
4.05752e-15
-3.50414e-16
-4.24313e-15
3.17454e-15
-4.79825e-15
-6.25194e-15
-7.96585e-15
-6.08888e-15
-2.23606e-15
1.15186e-15
-1.61329e-16
7.42462e-16
-1.88911e-15
-1.69396e-14
1.079e-14
-1.28023e-15
1.23512e-15
-3.51108e-15
5.99694e-15
-1.54286e-14
3.92221e-15
-7.08808e-15
5.78357e-15
4.39926e-15
8.67362e-18
5.38285e-15
-7.39339e-15
-1.31787e-14
2.22738e-15
8.22953e-15
1.04847e-14
-1.44676e-15
-1.59248e-15
-6.7741e-15
1.02557e-14
2.58474e-15
-2.04524e-15
1.18083e-14
-6.75501e-15
-5.98306e-15
-5.81653e-15
3.98119e-15
-1.18499e-14
-3.08781e-16
7.26502e-15
-1.15255e-14
6.31439e-15
2.88831e-15
7.26849e-16
9.47159e-16
-2.79464e-15
9.92435e-15
-9.88619e-15
4.90753e-15
6.52256e-16
1.76942e-15
-3.63598e-15
4.12864e-16
-8.38218e-15
-3.39659e-15
-6.52603e-15
2.98719e-15
1.46411e-15
8.36137e-16
-5.46438e-15
8.02136e-15
-6.07153e-16
4.2813e-15
-4.60396e-15
-7.30319e-15
8.28504e-15
-8.79852e-15
5.00988e-15
1.51927e-14
1.11716e-15
-7.16441e-15
1.0339e-14
7.55646e-15
-7.8583e-15
1.23755e-14
-4.12864e-15
1.38084e-15
-3.13291e-15
3.6221e-15
1.06998e-14
9.1524e-15
-2.498e-15
1.70315e-14
5.20417e-16
-1.37043e-14
-1.44225e-14
3.2474e-15
5.47479e-15
-2.61249e-15
-5.3707e-15
-1.05402e-14
-4.05231e-15
-1.10606e-14
-1.6688e-15
5.30131e-15
2.77556e-15
7.59809e-16
8.39259e-15
2.05391e-15
-8.15667e-15
5.25968e-15
-1.21535e-14
-6.08888e-15
-8.09769e-15
-1.61329e-15
1.77983e-15
-1.12341e-14
6.52603e-15
3.80598e-15
-4.4062e-15
2.4529e-15
1.83187e-15
-2.33147e-15
8.3232e-15
-1.65146e-15
4.71498e-15
4.2813e-15
4.27089e-15
-3.44516e-15
9.41955e-15
-7.45931e-15
9.74221e-15
-1.12063e-15
5.90153e-15
1.30868e-14
-1.30763e-14
5.55112e-16
-5.84602e-15
-6.15133e-15
-4.4964e-15
-1.23165e-15
-8.76729e-15
-7.55992e-15
7.01869e-15
-1.68927e-14
5.52336e-15
7.00828e-15
1.42247e-15
-3.64292e-15
-7.45237e-15
-4.73233e-15
5.7454e-15
-1.15429e-14
-2.02269e-15
7.51829e-15
1.15498e-14
-3.26475e-15
-6.67869e-15
7.40727e-15
-1.17406e-14
1.40755e-14
5.69336e-15
7.67442e-15
9.99548e-15
-2.39045e-15
2.77556e-17
3.95517e-16
1.24553e-15
1.08247e-15
2.38698e-15
-6.62664e-15
1.67574e-15
6.48787e-15
6.78277e-15
-8.50015e-16
8.7326e-15
6.36644e-15
-8.233e-15
-8.98587e-16
7.87911e-15
-2.15106e-15
-4.996e-16
2.94903e-15
-2.96985e-15
-3.14679e-15
-2.54657e-15
-8.63892e-16
-3.61863e-15
-1.53003e-15
-6.80012e-16
-1.53003e-15
-4.55885e-15
4.61783e-15
-7.99014e-15
-3.21965e-15
1.26218e-14
2.58821e-15
-4.36456e-15
3.30291e-15
-4.27436e-15
5.92582e-15
8.01442e-15
-1.72778e-15
2.89699e-15
1.31561e-14
1.35308e-16
-9.48547e-15
-3.26128e-16
-7.87564e-16
6.7446e-15
6.00214e-16
-9.29812e-16
1.29063e-15
1.90473e-15
5.28397e-15
-4.01415e-15
-1.17961e-15
1.89432e-15
-5.15907e-15
1.33053e-14
-1.19002e-14
-2.34535e-15
-8.91301e-15
-5.71071e-15
4.58314e-15
1.7035e-15
-1.04777e-15
-8.67362e-16
-2.8276e-15
3.33761e-15
1.63064e-16
-2.36269e-15
-1.02349e-14
-6.10623e-15
-2.98372e-15
-1.16018e-14
-3.51455e-15
-4.51028e-17
-7.46625e-15
-1.11855e-14
4.53457e-15
-4.45477e-15
1.01481e-14
5.25621e-15
1.21916e-14
-1.39472e-15
1.84922e-15
6.56072e-15
9.16628e-15
-1.10432e-14
9.08648e-15
4.64212e-15
4.91274e-15
1.0273e-14
3.74353e-15
-2.70964e-15
2.55351e-15
1.17857e-14
-5.42968e-15
9.88445e-15
-1.03043e-15
-4.36109e-15
3.67414e-15
-7.82707e-15
-8.73954e-15
-3.30291e-15
1.48076e-14
-2.92127e-15
9.78384e-16
-3.5319e-15
-4.26048e-15
-3.77476e-15
-3.17107e-15
-3.86496e-15
-1.13694e-14
-4.81559e-15
3.08781e-16
-2.33147e-15
-3.0427e-15
-6.81399e-15
7.6536e-15
-5.51295e-15
6.92155e-15
-7.91381e-15
-1.73125e-15
-4.08354e-15
1.76595e-15
4.97866e-15
4.89539e-15
-6.70297e-15
9.04485e-15
-3.50067e-15
-6.21031e-16
-1.52309e-15
-2.34535e-15
2.72352e-15
-6.38031e-15
1.43982e-15
9.45424e-15
8.95117e-16
-8.28504e-15
1.92207e-15
-1.21778e-14
-1.11716e-15
-3.44863e-15
2.44943e-15
2.08167e-15
2.76862e-15
1.77636e-15
6.53644e-15
-6.77236e-15
-1.38362e-14
-5.55112e-17
-1.04777e-14
-2.56739e-16
-6.10623e-15
1.34615e-15
-6.7793e-15
8.06993e-15
-6.78624e-15
2.04697e-15
6.95971e-15
-5.81479e-15
7.71605e-15
1.28647e-14
-3.20577e-15
-2.396e-14
1.46411e-15
2.6229e-15
-1.81799e-15
-5.41234e-15
-4.12864e-15
-5.84949e-15
5.2458e-15
8.00054e-15
6.75848e-15
-3.18495e-15
-3.19189e-16
-2.57433e-15
-2.10248e-15
-1.00545e-14
1.20737e-15
4.64906e-16
4.06619e-15
-6.41848e-15
-4.23273e-15
-1.30521e-14
-1.31284e-14
4.36456e-15
-1.52656e-16
-7.59115e-15
5.34989e-15
3.48332e-15
2.02616e-15
6.89726e-15
1.24067e-14
2.81719e-15
2.14412e-15
5.55112e-16
-1.33227e-15
5.55805e-15
-2.29677e-15
1.02002e-15
6.61277e-15
1.22125e-14
2.41474e-15
-3.64292e-15
-1.26704e-14
-5.2458e-15
7.07767e-15
-2.81719e-15
3.86496e-15
-2.77556e-15
1.05263e-14
-3.67761e-15
4.85029e-15
-9.56873e-15
1.54043e-15
-2.96985e-15
6.01602e-15
-1.77636e-15
-7.76462e-15
1.83187e-15
-2.89352e-15
-1.18378e-14
6.38378e-15
2.26902e-14
3.30985e-15
-2.158e-15
-7.77156e-16
1.13937e-14
6.48093e-15
1.19002e-14
-4.48253e-15
-5.80092e-15
-5.34295e-15
9.20791e-15
-6.61277e-15
1.27814e-14
5.91888e-15
3.55965e-15
2.76862e-15
-8.11851e-16
1.94289e-16
9.79078e-15
4.87804e-15
7.86177e-15
2.22738e-15
-5.67602e-15
-1.4086e-15
5.1209e-15
-7.97973e-16
-5.98827e-15
-3.91354e-15
-6.5295e-15
-1.31353e-14
2.51188e-15
-4.98906e-15
-5.75234e-15
1.56125e-15
-2.42167e-15
6.21031e-15
-6.6544e-15
-6.5295e-15
-1.42525e-14
1.67921e-15
2.06779e-15
-6.66134e-16
5.82867e-15
-8.44463e-15
4.16334e-17
3.19883e-15
-9.75608e-15
-9.12465e-15
-1.18655e-15
6.38378e-16
7.56339e-15
-1.13798e-15
8.95117e-16
-7.44543e-15
-4.09395e-16
5.6205e-15
-1.00753e-14
-1.20737e-15
2.70617e-15
4.64906e-15
-1.18933e-14
-3.75394e-15
-3.53884e-16
3.18495e-15
-5.34295e-16
-3.85109e-15
-8.78464e-15
5.00294e-15
4.21191e-15
-4.66294e-15
-7.38992e-15
7.64666e-15
-9.54792e-15
9.22873e-16
2.10248e-15
4.54498e-15
9.58261e-15
4.52416e-15
-6.64746e-15
-6.09929e-15
-4.53804e-15
4.43395e-15
-2.77556e-17
2.87964e-15
2.22045e-16
6.59889e-15
9.49241e-15
2.28983e-16
2.21351e-15
6.23113e-15
-5.84255e-15
1.98452e-15
1.41276e-14
3.48332e-15
2.96291e-15
-4.79478e-15
1.08941e-15
-7.20257e-15
6.38378e-16
-2.42861e-15
-6.93889e-17
-8.25728e-16
2.55351e-15
3.98293e-15
-8.8124e-16
-1.42941e-15
1.32117e-14
7.49401e-15
1.92207e-15
-1.3739e-15
-8.69443e-15
-7.63278e-17
7.49401e-15
-1.75554e-15
4.9058e-15
1.6584e-15
6.7446e-15
-2.89352e-15
1.31839e-15
-8.47933e-15
7.7785e-15
8.42382e-15
1.13937e-14
-2.08167e-15
-1.03043e-14
-1.32533e-15
2.06779e-15
1.2837e-15
-1.0339e-15
1.06651e-14
1.16573e-15
-1.43635e-15
-1.60288e-15
-4.8711e-15
-3.92048e-15
2.09555e-15
-3.62904e-15
-7.97973e-16
6.46705e-15
-8.8124e-16
1.81105e-15
-3.81639e-15
-2.498e-16
-5.71765e-15
4.01068e-15
-1.78815e-14
-9.71445e-17
-3.9066e-15
-1.29063e-15
1.90126e-15
8.80546e-15
5.10009e-15
-9.31893e-15
-1.16573e-15
-1.98452e-15
-4.4964e-15
-2.7478e-15
4.32987e-15
3.03924e-15
-6.93889e-17
3.56659e-15
-4.71845e-16
-1.81383e-14
-9.92262e-15
-4.16334e-17
2.80331e-15
-4.46865e-15
-3.33067e-16
1.70697e-15
1.8735e-15
2.51188e-15
3.67761e-15
-7.07767e-15
8.95117e-15
5.96745e-16
-1.33504e-14
3.8719e-15
7.00828e-15
-9.0622e-15
6.14786e-15
-5.03764e-15
-5.16254e-15
-1.11855e-14
-2.69229e-15
2.35922e-16
1.03945e-14
-1.45717e-15
5.13478e-16
6.66134e-16
-3.10862e-15
4.30211e-16
1.22125e-15
1.72085e-15
1.45717e-15
-1.90126e-15
-7.67442e-15
2.498e-16
-1.23096e-14
-3.95517e-15
7.84095e-15
1.33227e-15
1.13798e-15
-1.83187e-15
7.71605e-15
8.32667e-17
1.71113e-14
3.747e-15
-9.4369e-16
8.18789e-16
3.91354e-15
-1.04361e-14
8.32667e-17
6.43929e-15
-1.84575e-15
-1.60982e-15
1.08663e-14
9.39526e-15
-6.21725e-15
-3.48332e-15
3.56659e-15
-1.88738e-15
1.45717e-15
1.1699e-14
2.20657e-15
2.58127e-15
-7.35523e-15
-5.13478e-15
-5.80092e-15
-9.82547e-15
-5.98133e-15
3.46945e-16
-9.83935e-15
2.08167e-15
-6.52256e-15
-6.68909e-15
1.08941e-14
-1.09773e-14
-3.16414e-15
1.29341e-14
-6.7446e-15
-5.52336e-15
2.59515e-15
3.41394e-15
4.19109e-15
7.67442e-15
-1.0339e-14
-8.74301e-16
-3.13638e-15
-2.38698e-15
4.17721e-15
-9.02056e-16
-4.34375e-15
-3.28904e-15
-1.05471e-15
4.71845e-15
8.71525e-15
8.82627e-15
1.25178e-14
3.31679e-15
-1.15186e-15
5.70377e-15
3.03924e-15
1.249e-16
-7.13318e-15
-6.93889e-17
4.78784e-15
5.48173e-15
-2.22045e-16
-2.44249e-15
3.46945e-16
3.23352e-15
6.245e-16
-1.55431e-15
1.4988e-15
3.78864e-15
1.91513e-15
-5.89806e-15
4.46865e-15
-5.03764e-15
-8.21565e-15
-8.02136e-15
-3.83027e-15
-4.6213e-15
-6.80012e-16
-3.42781e-15
-9.29812e-16
5.39846e-15
6.56419e-15
2.3731e-15
5.56499e-15
1.72085e-15
1.09218e-14
-3.83027e-15
7.89646e-15
-7.77156e-16
-4.82947e-15
4.69069e-15
-4.57967e-15
-3.26128e-15
-2.13718e-15
5.32907e-15
4.996e-16
-2.45637e-15
8.47933e-15
-3.85803e-15
4.13558e-15
5.88418e-15
1.10467e-14
-9.22873e-15
8.60423e-16
-4.69069e-15
1.41553e-15
4.80171e-15
5.60663e-15
-3.8719e-15
1.73472e-15
-1.08386e-14
-1.73195e-14
1.51268e-15
-6.03684e-15
-6.10623e-15
-4.16334e-17
9.07607e-15
1.42941e-14
2.15106e-15
-1.22957e-14
-8.11851e-15
-2.69229e-15
7.77156e-16
-5.95357e-15
-2.23432e-15
-5.96745e-16
-3.01148e-15
2.9976e-15
5.46785e-15
-5.2458e-15
1.45717e-15
-5.45397e-15
-1.16573e-14
4.96825e-15
5.9952e-15
-4.1217e-15
-5.13478e-16
1.58207e-15
-1.22125e-15
6.38378e-15
-3.23352e-15
-6.60583e-15
3.6221e-15
-3.26128e-15
-2.23432e-15
-4.21885e-15
6.81399e-15
7.25808e-15
-3.02536e-15
-9.4369e-16
-1.88738e-15
3.89966e-15
3.05311e-16
7.99361e-15
-1.13798e-15
1.80411e-15
2.91434e-16
-1.26565e-14
8.78464e-15
-4.1217e-15
-3.19189e-15
-1.77081e-14
1.47521e-14
2.26208e-15
-2.63678e-16
-1.59595e-15
-5.20417e-15
-2.98372e-15
3.13638e-15
-3.33067e-15
-4.3715e-15
1.22263e-14
7.20257e-15
1.72501e-14
9.71445e-17
-5.6205e-15
-2.04003e-15
-9.82547e-15
3.1225e-15
-1.38778e-16
2.04003e-15
4.16334e-17
1.113e-14
3.92741e-15
-4.09395e-15
-1.05471e-15
6.35603e-15
-1.95677e-15
-3.747e-15
-4.77396e-15
-7.35523e-15
1.56819e-15
1.24206e-14
-3.2474e-15
-2.73392e-15
6.78624e-15
2.8727e-15
-1.18794e-14
1.91513e-15
-8.06299e-15
4.16334e-17
-5.27356e-16
-7.21645e-16
-7.45237e-15
8.6875e-15
3.89966e-15
-8.60423e-16
-9.8116e-15
1.3739e-15
3.03924e-15
3.27516e-15
-7.09155e-15
-8.32667e-17
-7.32747e-15
1.69309e-15
-3.30291e-15
1.09635e-15
3.69149e-15
-4.89886e-15
-1.66533e-16
-1.10884e-14
1.14353e-14
-7.21645e-15
-4.57967e-16
9.22873e-15
-6.93889e-17
5.59275e-15
-2.48412e-15
5.55112e-17
1.66533e-16
3.21965e-15
-8.86791e-15
-9.29812e-15
-1.3517e-14
7.11931e-15
2.498e-15
-2.77556e-17
-6.32827e-15
-5.98133e-15
-7.77156e-16
4.45477e-15
1.67921e-15
-1.22541e-14
1.70697e-15
5.13478e-15
2.91434e-15
-3.92741e-15
-6.46705e-15
-3.60822e-15
1.76525e-14
-1.41553e-15
3.27516e-15
-1.03251e-14
-5.52336e-15
-1.88738e-15
-1.02696e-14
-3.46945e-15
6.71685e-15
-6.35603e-15
1.33227e-15
1.69309e-15
4.57967e-15
1.60982e-15
1.22957e-14
-8.24341e-15
-2.38698e-15
-1.55431e-15
6.85563e-15
1.05471e-15
-5.88418e-15
-1.70697e-14
1.37113e-14
6.10623e-15
-2.83107e-15
1.14631e-14
-7.52176e-15
6.66134e-16
-6.99441e-15
4.16334e-16
1.91513e-15
1.17406e-14
-3.88578e-15
4.13558e-15
-5.96745e-15
-7.29972e-15
-3.44169e-15
-8.90954e-15
1.22125e-15
2.22045e-15
-2.38698e-15
-1.38778e-15
1.97065e-15
-8.88178e-16
2.58127e-15
-4.91274e-15
1.9984e-15
-6.85563e-15
8.35443e-15
7.32747e-15
4.35763e-15
3.747e-15
-8.71525e-15
8.57647e-15
-5.60663e-15
4.69069e-15
-5.66214e-15
1.97065e-15
1.38778e-15
1.38778e-16
-5.7454e-15
5.38458e-15
-3.16414e-15
2.10942e-15
6.68909e-15
-1.72085e-15
1.08524e-14
-5.82867e-16
4.02456e-15
1.88738e-15
5.02376e-15
-1.55431e-15
1.38778e-15
-6.10623e-15
7.21645e-16
-1.60982e-15
2.77556e-16
3.16414e-15
-1.05471e-15
-7.10543e-15
4.10783e-15
1.44607e-14
-1.77636e-14
-6.82787e-15
3.44169e-15
-1.47937e-14
6.88338e-15
-2.47025e-15
9.02056e-15
2.58127e-15
-8.88178e-16
2.80331e-15
-8.57647e-15
-1.36835e-14
8.85403e-15
3.52496e-15
5.52336e-15
-1.05471e-15
3.88578e-15
-4.85723e-15
-2.60902e-15
-6.55032e-15
-3.83027e-15
-3.41394e-15
4.44089e-15
4.02456e-15
3.747e-15
2.19269e-15
3.02536e-15
-1.07137e-14
-6.60583e-15
-2.10942e-15
-2.22045e-15
-3.77476e-15
4.13558e-15
-4.46865e-15
-4.63518e-15
1.69309e-15
-4.21885e-15
8.85403e-15
3.747e-15
-3.02536e-15
-4.46865e-15
2.7478e-15
3.9968e-15
3.85803e-15
-4.85723e-15
9.99201e-16
-4.02456e-15
5.21805e-15
-1.33504e-14
8.18789e-15
-6.60583e-15
1.31839e-14
-7.41074e-15
7.46625e-15
2.9976e-15
-1.85962e-15
-8.04912e-16
4.57967e-15
-5.41234e-15
9.04832e-15
1.01863e-14
4.57967e-15
-1.07414e-14
-6.02296e-15
-3.77476e-15
8.29892e-15
-8.79852e-15
-1.16573e-15
-3.2474e-15
-1.38778e-15
7.77156e-15
1.24345e-14
-8.04912e-15
5.05151e-15
1.08247e-15
4.88498e-15
-2.52576e-15
3.41394e-15
-7.43849e-15
8.32667e-16
5.82867e-16
1.19904e-14
3.21965e-15
-8.79852e-15
2.13718e-15
5.07927e-15
1.41553e-15
9.38138e-15
-1.85962e-15
-3.27516e-15
1.11022e-16
2.2482e-15
5.27356e-15
-6.63358e-15
9.49241e-15
5.96745e-15
9.6867e-15
-1.49047e-14
-3.66374e-15
6.41154e-15
2.72005e-15
-8.35443e-15
-1.34337e-14
-6.18949e-15
-1.91513e-15
-3.4972e-15
1.7486e-15
-6.93889e-15
1.22402e-14
-1.53766e-14
6.21725e-15
-1.07414e-14
1.22125e-14
-9.9365e-15
-3.747e-15
9.40914e-15
1.85962e-15
6.57807e-15
1.15741e-14
-1.2268e-14
-6.93889e-15
-5.55112e-15
1.65423e-14
1.59595e-14
6.46705e-15
-1.69309e-15
3.41394e-15
-3.60822e-16
1.11577e-14
-1.15463e-14
-2.69229e-15
-9.40914e-15
4.996e-16
-9.1871e-15
-5.30131e-15
-6.77236e-15
1.09635e-14
6.85563e-15
1.66811e-14
8.16014e-15
5.41234e-15
-1.46272e-14
4.63518e-15
7.68829e-15
-5.9952e-15
1.30451e-15
-8.43769e-15
-1.02141e-14
5.55112e-15
-3.44169e-15
1.7486e-15
-4.38538e-15
-6.52256e-15
3.60822e-15
-2.96985e-15
-2.44249e-15
9.71445e-16
7.96585e-15
-1.52656e-15
-8.52096e-15
-1.55431e-15
9.99201e-16
1.36002e-14
3.66374e-15
9.71445e-16
1.22125e-15
6.68909e-15
-3.747e-15
-6.38378e-15
6.85563e-15
-1.00753e-14
8.88178e-15
-5.63438e-15
3.30291e-15
9.99201e-16
-1.09912e-14
1.33227e-15
-1.34892e-14
-1.52378e-14
4.46865e-15
-1.58207e-15
2.94209e-15
-3.85803e-15
-1.32394e-14
-1.06581e-14
1.72085e-15
6.30052e-15
6.38378e-15
-1.21014e-14
1.05194e-14
-1.22125e-15
-5.82867e-16
2.77556e-16
5.19029e-15
4.44089e-15
1.14908e-14
-4.55191e-15
-7.46625e-15
-8.85403e-15
-6.16174e-15
-1.01585e-14
1.08247e-15
-6.245e-15
-6.38378e-16
8.38218e-15
-6.99441e-15
1.14908e-14
3.77476e-15
-5.30131e-15
2.22045e-16
2.35922e-15
6.68909e-15
3.13638e-15
4.996e-16
-2.58127e-15
-2.08167e-15
7.49401e-16
1.85962e-15
-9.10383e-15
7.54952e-15
2.16493e-15
2.27596e-15
-6.66134e-15
0
2.77556e-15
-1.33227e-15
-1.03528e-14
1.12688e-14
-3.46945e-15
3.30291e-15
5.93969e-15
-8.02136e-15
5.10703e-15
1.38778e-16
-3.9968e-15
1.34337e-14
-4.96825e-15
1.01585e-14
-1.36002e-15
1.11022e-16
-4.08007e-15
9.63118e-15
-7.96585e-15
-5.52336e-15
1.42664e-14
1.66533e-16
-4.71845e-15
-2.41474e-15
1.19349e-15
1.60982e-15
4.91274e-15
1.39055e-14
1.9984e-15
-9.29812e-15
7.27196e-15
-1.42941e-14
9.32587e-15
2.02616e-15
2.27596e-15
-9.71445e-16
6.82787e-15
-8.04912e-16
4.35763e-15
-8.43769e-15
-9.76996e-15
4.69069e-15
2.80331e-15
4.66294e-15
2.13718e-15
3.58047e-15
-9.40914e-15
2.72005e-15
1.22957e-14
1.11022e-15
7.96585e-15
8.49321e-15
-1.41831e-14
4.16334e-16
8.40994e-15
-1.12965e-14
-7.07767e-15
5.93969e-15
-2.69229e-15
-1.85962e-15
6.21725e-15
4.38538e-15
1.16573e-15
-1.05471e-14
-5.27356e-16
-4.46865e-15
1.47105e-15
6.05072e-15
-1.11022e-14
-6.38378e-16
7.13318e-15
-1.1352e-14
1.44329e-15
-9.6867e-15
-2.498e-16
2.88658e-15
1.60982e-15
-1.14353e-14
1.44051e-14
1.19349e-14
-1.30729e-14
1.7486e-15
8.88178e-15
-2.27596e-15
1.06859e-14
-1.11022e-14
-1.74305e-14
-5.4956e-15
-7.68829e-15
8.79852e-15
-8.49321e-15
3.21965e-15
6.38378e-16
6.07847e-15
-1.08524e-14
3.35842e-15
5.57887e-15
7.54952e-15
-3.46945e-15
1.00198e-14
1.14075e-14
-4.66294e-15
-4.88498e-15
-9.15934e-16
-1.03806e-14
-3.52496e-15
-8.16014e-15
-9.96425e-15
-1.2601e-14
-3.05311e-16
-1.34059e-14
-6.35603e-15
1.36002e-14
5.55112e-15
2.66454e-15
-3.44169e-15
3.27516e-15
1.43774e-14
6.77236e-15
-4.82947e-15
-9.10383e-15
3.55271e-15
-6.05072e-15
3.33067e-15
7.99361e-15
-6.88338e-15
-3.33067e-15
-1.16573e-14
1.40443e-14
2.44249e-15
-6.4948e-15
-7.21645e-15
4.05231e-15
1.17684e-14
5.38458e-15
5.55112e-15
9.21485e-15
4.21885e-15
-8.27116e-15
-9.99201e-15
5.82867e-15
-4.32987e-15
-1.04361e-14
5.32907e-15
-6.77236e-15
9.04832e-15
7.32747e-15
-5.71765e-15
6.77236e-15
-1.04361e-14
9.04832e-15
1.43774e-14
-2.27596e-15
-5.55112e-16
1.5099e-14
1.55431e-15
-7.88258e-15
-6.77236e-15
7.77156e-16
-1.63758e-14
-1.48215e-14
-5.55112e-16
-7.71605e-15
0
1.2379e-14
-1.11022e-16
1.67089e-14
-9.99201e-16
7.54952e-15
4.27436e-15
7.16094e-15
2.22045e-16
-8.71525e-15
-5.82867e-15
8.65974e-15
1.09912e-14
-5.10703e-15
-2.28706e-14
-1.14353e-14
7.82707e-15
8.38218e-15
-9.4369e-16
6.27276e-15
-2.77556e-16
-7.10543e-15
3.60822e-15
6.10623e-16
7.77156e-15
-1.49325e-14
6.27276e-15
6.27276e-15
1.16573e-15
1.72085e-15
-7.93809e-15
1.16573e-14
-1.09357e-14
-1.40443e-14
-6.32827e-15
6.4948e-15
1.36557e-14
-6.10623e-16
4.21885e-15
3.21965e-15
-1.94289e-15
6.10623e-16
-8.49321e-15
5.66214e-15
7.32747e-15
-7.10543e-15
2.94209e-15
-1.76525e-14
-8.16014e-15
2.72005e-15
-4.66294e-15
-1.03806e-14
2.10942e-15
7.60503e-15
1.27676e-15
-6.10623e-16
8.65974e-15
2.94209e-15
-1.05471e-15
1.77081e-14
4.77396e-15
-7.27196e-15
1.28231e-14
-1.54321e-14
1.14908e-14
7.77156e-16
-2.05391e-15
7.21645e-16
4.66294e-15
9.65894e-15
-3.4972e-15
-1.16573e-14
-7.54952e-15
-1.27676e-15
1.55986e-14
1.03251e-14
-7.10543e-15
-3.38618e-15
-3.83027e-15
3.21965e-15
1.33227e-15
5.16254e-15