/*--------------------------------*- C++ -*----------------------------------*\
| =========                 |                                                 |
| \\      /  F ield         | foam-extend: Open Source CFD                    |
|  \\    /   O peration     | Version:     4.0                                |
|   \\  /    A nd           | Web:         http://www.foam-extend.org         |
|    \\/     M anipulation  |                                                 |
\*---------------------------------------------------------------------------*/
FoamFile
{
    version     2.0;
    format      ascii;
    class       surfaceScalarField;
    location    "15";
    object      phi;
}
// * * * * * * * * * * * * * * * * * * * * * * * * * * * * * * * * * * * * * //

dimensions      [0 3 -1 0 0 0 0];

internalField   nonuniform List<scalar> 
13744
(
-3.86045e-09
3.86061e-09
1.72326e-09
-5.58371e-09
4.25938e-11
1.68067e-09
1.60249e-11
2.65694e-11
1.07009e-11
5.32496e-12
6.39187e-12
4.30905e-12
4.56169e-12
1.82954e-12
3.10824e-12
1.45339e-12
2.26414e-12
8.43936e-13
1.66709e-12
5.97133e-13
1.25676e-12
4.10505e-13
9.69242e-13
2.86215e-13
7.53024e-13
2.15217e-13
5.97041e-13
1.55265e-13
4.74127e-13
1.23346e-13
3.82591e-13
9.11493e-14
3.07926e-13
7.50511e-14
2.50765e-13
5.63993e-14
2.03596e-13
4.67959e-14
1.65927e-13
3.82472e-14
1.34798e-13
3.13638e-14
1.0957e-13
2.52576e-14
8.79066e-14
2.20934e-14
7.02083e-14
1.78191e-14
5.49748e-14
1.33782e-14
4.15339e-14
1.34892e-14
2.99455e-14
1.15463e-14
1.95357e-14
1.01585e-14
9.4094e-15
9.76996e-15
-4.40525e-16
1.05471e-14
-8.25488e-15
7.16094e-15
-2.0632e-14
1.19904e-14
-2.99406e-14
9.60343e-15
-4.03953e-14
1.07692e-14
-5.60986e-14
1.51545e-14
-7.01747e-14
1.41553e-14
-8.67563e-14
1.57652e-14
-1.10695e-13
2.21489e-14
-1.34792e-13
2.48135e-14
-1.64787e-13
2.98095e-14
-2.0471e-13
3.9857e-14
-2.50735e-13
4.51861e-14
-3.06778e-13
5.59552e-14
-3.83724e-13
7.64944e-14
-4.74159e-13
9.00391e-14
-5.95957e-13
1.21458e-13
-7.54191e-13
1.57263e-13
-9.69247e-13
2.14495e-13
-1.25566e-12
2.85993e-13
-1.66826e-12
4.12392e-13
-2.26418e-12
5.96134e-13
-3.10713e-12
8.44103e-13
-4.56284e-12
1.45545e-12
-6.39189e-12
1.82782e-12
-1.06998e-11
4.30739e-12
-1.6026e-11
5.32641e-12
-4.25939e-11
2.65685e-11
-1.72326e-09
1.68067e-09
3.86045e-09
-5.58371e-09
3.86045e-09
1.60377e-08
-1.21771e-08
2.56458e-09
7.88941e-09
1.30442e-10
4.1148e-09
4.76938e-11
1.09318e-10
3.36262e-11
1.93897e-11
1.93939e-11
1.85416e-11
1.43748e-11
6.85085e-12
9.49927e-12
6.32794e-12
7.13782e-12
3.20621e-12
5.11775e-12
2.61585e-12
3.9578e-12
1.5703e-12
2.98714e-12
1.25872e-12
2.366e-12
8.38218e-13
1.84651e-12
6.76847e-13
1.48749e-12
4.82558e-13
1.18508e-12
3.93241e-13
9.65318e-13
2.94265e-13
7.7867e-13
2.44693e-13
6.36388e-13
1.89682e-13
5.16651e-13
1.56597e-13
4.21468e-13
1.25844e-13
3.40367e-13
1.06082e-13
2.75401e-13
8.52096e-14
2.18686e-13
7.39409e-14
1.71045e-13
6.33937e-14
1.30128e-13
5.55667e-14
9.35347e-14
4.81282e-14
6.01644e-14
4.44089e-14
3.0343e-14
4.07452e-14
2.49009e-16
3.94129e-14
-3.24682e-14
4.04121e-14
-5.73965e-14
3.80251e-14
-9.35192e-14
4.46865e-14
-1.32835e-13
4.96825e-14
-1.68292e-13
5.17364e-14
-2.18594e-13
6.32272e-14
-2.78067e-13
7.7105e-14
-3.37619e-13
8.69305e-14
-4.21444e-13
1.08524e-13
-5.19353e-13
1.27898e-13
-6.33612e-13
1.54543e-13
-7.78589e-13
1.92235e-13
-9.67992e-13
2.45803e-13
-1.18236e-12
2.91211e-13
-1.48758e-12
3.96294e-13
-1.84937e-12
4.84168e-13
-2.36338e-12
6.74238e-13
-2.98716e-12
8.3894e-13
-3.9606e-12
1.25966e-12
-5.11513e-12
1.56897e-12
-7.13792e-12
2.61907e-12
-9.50207e-12
3.20621e-12
-1.43722e-11
6.32727e-12
-1.9394e-11
6.85169e-12
-3.36289e-11
1.85427e-11
-4.7691e-11
1.93884e-11
-1.30442e-10
1.09318e-10
-2.56458e-09
4.1148e-09
-1.60377e-08
7.88941e-09
-1.21772e-08
1.25839e-08
-2.4761e-08
4.22537e-09
1.62479e-08
2.16454e-10
8.12372e-09
8.02176e-11
2.45555e-10
5.83024e-11
4.13082e-11
3.32719e-11
4.35703e-11
2.50288e-11
1.50918e-11
1.63668e-11
1.49926e-11
1.24477e-11
7.12419e-12
8.84083e-12
6.22538e-12
6.90345e-12
3.50889e-12
5.1698e-12
2.99313e-12
4.12627e-12
1.88102e-12
3.2001e-12
1.59978e-12
2.59283e-12
1.08977e-12
2.05669e-12
9.29645e-13
1.68161e-12
6.67522e-13
1.35231e-12
5.71737e-13
1.10883e-12
4.33292e-13
8.97491e-13
3.69288e-13
7.33979e-13
2.87825e-13
5.921e-13
2.47552e-13
4.79201e-13
1.99951e-13
3.80328e-13
1.73805e-13
2.98149e-13
1.45439e-13
2.26024e-13
1.26593e-13
1.62853e-13
1.13187e-13
1.0501e-13
1.02529e-13
5.2268e-14
9.22595e-14
-1.5229e-16
9.16212e-14
-5.33423e-14
9.1982e-14
-1.0325e-13
8.50431e-14
-1.62826e-13
1.04056e-13
-2.27683e-13
1.14964e-13
-2.96419e-13
1.20903e-13
-3.80173e-13
1.46411e-13
-4.80783e-13
1.78191e-13
-5.90377e-13
1.92485e-13
-7.33935e-13
2.49523e-13
-8.99141e-13
2.91267e-13
-1.10706e-12
3.62821e-13
-1.35218e-12
4.35402e-13
-1.68321e-12
5.75762e-13
-2.05502e-12
6.66606e-13
-2.59298e-12
9.3367e-13
-3.20202e-12
1.09521e-12
-4.12477e-12
1.5927e-12
-5.16986e-12
1.88363e-12
-6.90526e-12
2.99363e-12
-8.83933e-12
3.50209e-12
-1.24479e-11
6.22696e-12
-1.63686e-11
7.12627e-12
-2.50273e-11
1.49837e-11
-3.3272e-11
1.50958e-11
-5.8304e-11
4.35724e-11
-8.02158e-11
4.13015e-11
-2.16454e-10
2.45558e-10
-4.22537e-09
8.12372e-09
-1.25839e-08
1.62479e-08
-2.47611e-08
3.69571e-09
-2.84567e-08
3.65487e-09
1.62887e-08
2.96868e-10
1.14817e-08
1.13754e-10
4.28664e-10
8.45076e-11
7.05513e-11
4.82163e-11
7.98672e-11
3.64714e-11
2.68357e-11
2.3798e-11
2.76619e-11
1.81805e-11
1.27432e-11
1.28787e-11
1.15296e-11
1.00921e-11
6.29514e-12
7.53973e-12
5.54264e-12
6.03483e-12
3.38621e-12
4.67075e-12
2.96736e-12
3.79246e-12
1.96834e-12
3.00417e-12
1.71975e-12
2.4595e-12
1.21449e-12
1.976e-12
1.05616e-12
1.62227e-12
7.89042e-13
1.31159e-12
6.7979e-13
1.07371e-12
5.26586e-13
8.65976e-13
4.54151e-13
7.00753e-13
3.65062e-13
5.56174e-13
3.20022e-13
4.36458e-13
2.6662e-13
3.30302e-13
2.31565e-13
2.38258e-13
2.01054e-13
1.53834e-13
1.85248e-13
7.58955e-14
1.72126e-13
-3.88585e-16
1.70981e-13
-7.55972e-14
1.68331e-13
-1.53789e-13
1.64868e-13
-2.38217e-13
1.9066e-13
-3.30261e-13
2.08701e-13
-4.364e-13
2.25722e-13
-5.5595e-13
2.71498e-13
-7.00607e-13
3.20327e-13
-8.65922e-13
3.59948e-13
-1.07364e-12
4.5542e-13
-1.31154e-12
5.32484e-13
-1.62216e-12
6.7181e-13
-1.97583e-12
7.91998e-13
-2.45938e-12
1.05842e-12
-3.00419e-12
1.20539e-12
-3.79267e-12
1.72086e-12
-4.67109e-12
1.96739e-12
-6.03509e-12
2.96039e-12
-7.53983e-12
3.38975e-12
-1.00923e-11
5.54983e-12
-1.28789e-11
6.28767e-12
-1.81807e-11
1.15307e-11
-2.37982e-11
1.27488e-11
-3.64715e-11
2.76581e-11
-4.82165e-11
2.68404e-11
-8.45074e-11
7.98678e-11
-1.13754e-10
7.05445e-11
-2.96868e-10
4.28672e-10
-3.65487e-09
1.14817e-08
-3.6957e-09
1.62887e-08
-2.84568e-08
1.40435e-09
-2.9861e-08
2.28868e-09
1.54044e-08
3.74134e-10
1.33963e-08
1.48159e-10
6.54645e-10
1.12266e-10
1.06449e-10
6.42724e-11
1.27857e-10
4.87383e-11
4.2375e-11
3.1824e-11
4.45802e-11
2.43595e-11
2.02058e-11
1.72501e-11
1.86312e-11
1.35387e-11
1.0005e-11
1.01089e-11
8.97413e-12
8.10085e-12
5.39178e-12
6.26634e-12
4.79704e-12
5.09254e-12
3.14105e-12
4.03231e-12
2.7805e-12
3.30331e-12
1.94469e-12
2.65313e-12
1.70525e-12
2.17922e-12
1.26071e-12
1.76146e-12
1.09783e-12
1.44249e-12
8.49959e-13
1.16326e-12
7.33996e-13
9.41509e-13
5.89487e-13
7.4719e-13
5.12e-13
5.8649e-13
4.27304e-13
4.43774e-13
3.7511e-13
3.20171e-13
3.25781e-13
2.06694e-13
3.01155e-13
1.01815e-13
2.73434e-13
-2.22518e-16
2.68424e-13
-1.01524e-13
2.77084e-13
-2.06884e-13
2.72532e-13
-3.20116e-13
3.02064e-13
-4.43539e-13
3.28855e-13
-5.86602e-13
3.6874e-13
-7.46911e-13
4.23293e-13
-9.41121e-13
5.12389e-13
-1.16338e-12
5.74256e-13
-1.44239e-12
7.43898e-13
-1.7612e-12
8.50493e-13
-2.17926e-12
1.09093e-12
-2.6529e-12
1.26378e-12
-3.30297e-12
1.7125e-12
-4.03252e-12
1.93744e-12
-5.09281e-12
2.78632e-12
-6.26658e-12
3.14604e-12
-8.10138e-12
4.79251e-12
-1.0109e-11
5.39837e-12
-1.35387e-11
8.97793e-12
-1.72506e-11
9.99916e-12
-2.43599e-11
1.86387e-11
-3.1824e-11
2.0208e-11
-4.87387e-11
4.45726e-11
-6.42726e-11
4.23796e-11
-1.12266e-10
1.27856e-10
-1.48159e-10
1.06441e-10
-3.74134e-10
6.54649e-10
-2.28868e-09
1.33963e-08
-1.40435e-09
1.54044e-08
-2.98612e-08
1.85797e-09
-3.1719e-08
1.59214e-09
1.56703e-08
4.50073e-10
1.45383e-08
1.83463e-10
9.21253e-10
1.41599e-10
1.48309e-10
8.14848e-11
1.87971e-10
6.1866e-11
6.19902e-11
4.04765e-11
6.59697e-11
3.10093e-11
2.96764e-11
2.1975e-11
2.76692e-11
1.72585e-11
1.47217e-11
1.28896e-11
1.3342e-11
1.03343e-11
7.95039e-12
7.99481e-12
7.14247e-12
6.49954e-12
4.63537e-12
5.14654e-12
4.12967e-12
4.21724e-12
2.8728e-12
3.38723e-12
2.53772e-12
2.78271e-12
1.86521e-12
2.24936e-12
1.62899e-12
1.84227e-12
1.2529e-12
1.48567e-12
1.09448e-12
1.20263e-12
8.63802e-13
9.54421e-13
7.60916e-13
7.49181e-13
6.26773e-13
5.66943e-13
5.56281e-13
4.09037e-13
4.85965e-13
2.64009e-13
4.4615e-13
1.30053e-13
4.12021e-13
-5.03891e-17
3.99153e-13
-1.30072e-13
3.98518e-13
-2.64004e-13
4.04246e-13
-4.08965e-13
4.4938e-13
-5.66929e-13
4.84824e-13
-7.49051e-13
5.49633e-13
-9.54069e-13
6.36997e-13
-1.20243e-12
7.69294e-13
-1.48552e-12
8.65665e-13
-1.84216e-12
1.09365e-12
-2.24932e-12
1.25496e-12
-2.78249e-12
1.62501e-12
-3.38696e-12
1.86578e-12
-4.21711e-12
2.54032e-12
-5.14653e-12
2.86731e-12
-6.49987e-12
4.13508e-12
-7.99538e-12
4.63974e-12
-1.03347e-11
7.13646e-12
-1.28898e-11
7.94634e-12
-1.72588e-11
1.33507e-11
-2.19754e-11
1.47134e-11
-3.10097e-11
2.76708e-11
-4.04769e-11
2.96767e-11
-6.18662e-11
6.59638e-11
-8.1485e-11
6.1989e-11
-1.41599e-10
1.87974e-10
-1.83462e-10
1.48304e-10
-4.50073e-10
9.21258e-10
-1.59214e-09
1.45383e-08
-1.85797e-09
1.56703e-08
-3.17191e-08
1.5828e-09
-3.33018e-08
1.3404e-09
1.59127e-08
5.23935e-10
1.53548e-08
2.19765e-10
1.22542e-09
1.72519e-10
1.95557e-10
9.98972e-11
2.60594e-10
7.58908e-11
8.59968e-11
4.9788e-11
9.20737e-11
3.81548e-11
4.1307e-11
2.70741e-11
3.87496e-11
2.12675e-11
2.05293e-11
1.58951e-11
1.87159e-11
1.27456e-11
1.11007e-11
9.86454e-12
1.00216e-11
8.02026e-12
6.48148e-12
6.35255e-12
5.80017e-12
5.20578e-12
4.01883e-12
4.18208e-12
3.56177e-12
3.43587e-12
2.61148e-12
2.77775e-12
2.29391e-12
2.27515e-12
1.76103e-12
1.83496e-12
1.53285e-12
1.48544e-12
1.22075e-12
1.17895e-12
1.06718e-12
9.25468e-13
8.86447e-13
7.00391e-13
7.83189e-13
5.05323e-13
6.80643e-13
3.26164e-13
6.17346e-13
1.60627e-13
5.73649e-13
5.65617e-19
5.62318e-13
-1.60701e-13
5.61839e-13
-3.26178e-13
5.70384e-13
-5.05246e-13
6.25101e-13
-7.00357e-13
6.85948e-13
-9.25316e-13
7.76136e-13
-1.17853e-12
8.86808e-13
-1.48517e-12
1.07157e-12
-1.83481e-12
1.21514e-12
-2.275e-12
1.53112e-12
-2.77768e-12
1.7599e-12
-3.43563e-12
2.28391e-12
-4.18176e-12
2.61312e-12
-5.20561e-12
3.56789e-12
-6.35254e-12
4.01327e-12
-8.02065e-12
5.80463e-12
-9.8652e-12
6.48395e-12
-1.27461e-11
1.00142e-11
-1.58953e-11
1.10996e-11
-2.12679e-11
1.87191e-11
-2.70746e-11
2.05263e-11
-3.81552e-11
3.87524e-11
-4.97884e-11
4.13086e-11
-7.58911e-11
9.20652e-11
-9.98975e-11
8.60043e-11
-1.72519e-10
2.60592e-10
-2.19765e-10
1.95553e-10
-5.23935e-10
1.22543e-09
-1.3404e-09
1.53548e-08
-1.5828e-09
1.59126e-08
-3.3302e-08
6.20556e-10
-3.39223e-08
1.08365e-09
1.54496e-08
5.94511e-10
1.58439e-08
2.57082e-10
1.56285e-09
2.05033e-10
2.47603e-10
1.19552e-10
3.4607e-10
9.08486e-11
1.147e-10
5.97914e-11
1.2313e-10
4.58217e-11
5.52734e-11
3.25687e-11
5.2006e-11
2.55824e-11
2.75138e-11
1.9139e-11
2.51582e-11
1.53456e-11
1.48858e-11
1.18844e-11
1.34815e-11
9.66188e-12
8.70045e-12
7.65622e-12
7.80329e-12
6.27375e-12
5.40573e-12
5.04164e-12
4.79274e-12
4.14197e-12
3.51101e-12
3.34933e-12
3.08004e-12
2.74328e-12
2.36101e-12
2.21293e-12
2.06043e-12
1.79135e-12
1.64081e-12
1.42195e-12
1.43687e-12
1.11624e-12
1.19008e-12
8.44823e-13
1.05693e-12
6.09526e-13
9.15861e-13
3.93469e-13
8.42049e-13
1.93706e-13
7.77378e-13
2.37411e-17
7.53363e-13
-1.93708e-13
7.53581e-13
-3.93639e-13
7.71338e-13
-6.09438e-13
8.40668e-13
-8.4464e-13
9.18907e-13
-1.11622e-12
1.05208e-12
-1.42146e-12
1.19507e-12
-1.7909e-12
1.43989e-12
-2.2129e-12
1.63303e-12
-2.74311e-12
2.06925e-12
-3.34909e-12
2.36336e-12
-4.14184e-12
3.06787e-12
-5.04127e-12
3.51656e-12
-6.27342e-12
4.79405e-12
-7.65636e-12
5.394e-12
-9.66233e-12
7.80886e-12
-1.18851e-11
8.71251e-12
-1.53464e-11
1.34751e-11
-1.91392e-11
1.4894e-11
-2.55827e-11
2.51635e-11
-3.25694e-11
2.75077e-11
-4.58223e-11
5.20072e-11
-5.97917e-11
5.52824e-11
-9.08491e-11
1.23123e-10
-1.19552e-10
1.14698e-10
-2.05033e-10
3.46075e-10
-2.57081e-10
2.47595e-10
-5.94511e-10
1.56285e-09
-1.08365e-09
1.58439e-08
-6.20555e-10
1.54496e-08
-3.39225e-08
-3.66773e-10
-3.35556e-08
7.40847e-10
1.43419e-08
6.6129e-10
1.59235e-08
2.95353e-10
1.92879e-09
2.39141e-10
3.03818e-10
1.40489e-10
4.44731e-10
1.06775e-10
1.48411e-10
7.05202e-11
1.59381e-10
5.40364e-11
7.17624e-11
3.84809e-11
6.75597e-11
3.02206e-11
3.57728e-11
2.26354e-11
3.27433e-11
1.81457e-11
1.93842e-11
1.40639e-11
1.75656e-11
1.14319e-11
1.13376e-11
9.06377e-12
1.01722e-11
7.42624e-12
7.03779e-12
5.9701e-12
6.24843e-12
4.9044e-12
4.57852e-12
3.96695e-12
4.02124e-12
3.249e-12
3.08485e-12
2.62145e-12
2.69217e-12
2.12195e-12
2.14154e-12
1.68464e-12
1.87522e-12
1.32247e-12
1.55679e-12
1.00099e-12
1.37988e-12
7.22197e-13
1.19151e-12
4.6624e-13
1.09502e-12
2.29461e-13
1.01351e-12
5.72548e-17
9.87557e-13
-2.29418e-13
9.79097e-13
-4.66566e-13
1.00744e-12
-7.2209e-13
1.0996e-12
-1.00067e-12
1.20058e-12
-1.32254e-12
1.37122e-12
-1.68409e-12
1.55396e-12
-2.12131e-12
1.87603e-12
-2.62151e-12
2.13566e-12
-3.24881e-12
2.68776e-12
-3.96656e-12
3.08784e-12
-4.90436e-12
4.01506e-12
-5.9697e-12
4.58144e-12
-7.42575e-12
6.24653e-12
-9.06404e-12
7.03841e-12
-1.14324e-11
1.01761e-11
-1.40645e-11
1.13349e-11
-1.81466e-11
1.75578e-11
-2.26358e-11
1.93844e-11
-3.02208e-11
3.27474e-11
-3.84818e-11
3.57741e-11
-5.4037e-11
6.75602e-11
-7.05204e-11
7.17614e-11
-1.06775e-10
1.59376e-10
-1.40489e-10
1.48419e-10
-2.3914e-10
4.44727e-10
-2.95353e-10
3.03815e-10
-6.6129e-10
1.92879e-09
-7.40846e-10
1.59235e-08
3.66774e-10
1.43419e-08
-3.35557e-08
-1.24685e-09
-3.23087e-08
3.71846e-10
1.27232e-08
7.24113e-10
1.55712e-08
3.34521e-10
2.31837e-09
2.74832e-10
3.63506e-10
1.62747e-10
5.56812e-10
1.23703e-10
1.87465e-10
8.20081e-11
2.01075e-10
6.28257e-11
9.09431e-11
4.48333e-11
8.55517e-11
3.52e-11
4.54075e-11
2.63993e-11
4.15427e-11
2.11576e-11
2.46261e-11
1.64126e-11
2.23115e-11
1.33384e-11
1.44109e-11
1.05817e-11
1.29314e-11
8.66858e-12
8.9506e-12
6.9719e-12
7.94487e-12
5.72679e-12
5.81977e-12
4.6336e-12
5.11262e-12
3.79476e-12
3.91558e-12
3.06253e-12
3.42622e-12
2.47886e-12
2.72238e-12
1.96835e-12
2.38722e-12
1.54515e-12
1.97318e-12
1.16967e-12
1.7445e-12
8.43888e-13
1.52643e-12
5.44855e-13
1.39522e-12
2.68098e-13
1.28441e-12
8.26604e-17
1.24861e-12
-2.68023e-13
1.25147e-12
-5.45297e-13
1.28553e-12
-8.43763e-13
1.39794e-12
-1.16926e-12
1.51367e-12
-1.54531e-12
1.74799e-12
-1.96772e-12
1.97519e-12
-2.47806e-12
2.38409e-12
-3.06268e-12
2.71988e-12
-3.79453e-12
3.42491e-12
-4.63309e-12
3.92002e-12
-5.72682e-12
5.10479e-12
-6.97148e-12
5.82007e-12
-8.66795e-12
7.95057e-12
-1.05821e-11
8.95125e-12
-1.33389e-11
1.29332e-11
-1.64132e-11
1.44176e-11
-2.11588e-11
2.2302e-11
-2.63998e-11
2.46225e-11
-3.52002e-11
4.15466e-11
-4.48344e-11
4.54063e-11
-6.28265e-11
8.5555e-11
-8.20082e-11
9.09443e-11
-1.23704e-10
2.01075e-10
-1.62747e-10
1.8746e-10
-2.74831e-10
5.56808e-10
-3.34521e-10
3.63501e-10
-7.24113e-10
2.31838e-09
-3.71845e-10
1.55712e-08
1.24685e-09
1.27232e-08
-3.23089e-08
-2.11003e-09
-3.01987e-08
2.4923e-12
1.06107e-08
7.82785e-10
1.47909e-08
3.7455e-10
2.72662e-09
3.12089e-10
4.25964e-10
1.86359e-10
6.82541e-10
1.41667e-10
2.32146e-10
9.42889e-11
2.48454e-10
7.2217e-11
1.13014e-10
5.16493e-11
1.06114e-10
4.05392e-11
5.65149e-11
3.04461e-11
5.16362e-11
2.43939e-11
3.06739e-11
1.8941e-11
2.776e-11
1.53894e-11
1.79594e-11
1.2217e-11
1.61037e-11
1.00064e-11
1.11678e-11
8.05169e-12
9.89888e-12
6.61297e-12
7.25966e-12
5.35244e-12
6.36742e-12
4.38316e-12
4.89503e-12
3.53829e-12
4.26524e-12
2.86379e-12
3.39779e-12
2.27443e-12
2.96962e-12
1.78538e-12
2.46592e-12
1.35175e-12
2.18284e-12
9.75187e-13
1.89244e-12
6.29681e-13
1.7378e-12
3.09791e-13
1.61485e-12
1.23034e-16
1.56361e-12
-3.09695e-13
1.56417e-12
-6.30254e-13
1.6035e-12
-9.75076e-13
1.74031e-12
-1.35118e-12
1.90042e-12
-1.78563e-12
2.18042e-12
-2.27374e-12
2.46505e-12
-2.86283e-12
2.98015e-12
-3.53851e-12
3.39188e-12
-4.38289e-12
4.27143e-12
-5.35181e-12
4.89168e-12
-6.61307e-12
6.36924e-12
-8.05122e-12
7.26044e-12
-1.00057e-11
9.90473e-12
-1.22175e-11
1.1158e-11
-1.53901e-11
1.61095e-11
-1.89416e-11
1.7965e-11
-2.43953e-11
2.77596e-11
-3.04466e-11
3.06732e-11
-4.05394e-11
5.16458e-11
-5.16506e-11
5.65171e-11
-7.22178e-11
1.06121e-10
-9.4289e-11
1.13017e-10
-1.41668e-10
2.48455e-10
-1.8636e-10
2.32155e-10
-3.12088e-10
6.82536e-10
-3.7455e-10
4.25965e-10
-7.82785e-10
2.72663e-09
-2.49123e-12
1.47909e-08
2.11003e-09
1.06107e-08
-3.01989e-08
-2.99963e-09
-2.71991e-08
-3.72591e-10
7.98368e-09
8.37068e-10
1.35813e-08
4.15419e-10
3.14827e-09
3.50884e-10
4.90497e-10
2.11359e-10
8.22066e-10
1.60697e-10
2.82813e-10
1.07396e-10
3.01763e-10
8.22376e-11
1.38172e-10
5.89528e-11
1.29405e-10
4.62574e-11
6.92104e-11
3.47918e-11
6.31024e-11
2.78674e-11
3.75957e-11
2.16595e-11
3.39711e-11
1.75939e-11
2.20282e-11
1.39768e-11
1.97224e-11
1.14456e-11
1.36903e-11
9.21438e-12
1.21348e-11
7.56696e-12
8.91038e-12
6.12683e-12
7.81624e-12
5.0169e-12
5.99276e-12
4.051e-12
5.23312e-12
3.27857e-12
4.17308e-12
2.60437e-12
3.64741e-12
2.04432e-12
3.02775e-12
1.54802e-12
2.68624e-12
1.11675e-12
2.32906e-12
7.21182e-13
2.13192e-12
3.54742e-13
1.97408e-12
1.54457e-16
1.91816e-12
-3.54635e-13
1.91927e-12
-7.21858e-13
1.97107e-12
-1.11662e-12
2.13773e-12
-1.54735e-12
2.33232e-12
-2.04466e-12
2.68004e-12
-2.6036e-12
3.02358e-12
-3.27745e-12
3.64835e-12
-4.05127e-12
4.16967e-12
-5.01661e-12
5.23288e-12
-6.12605e-12
5.99874e-12
-7.56715e-12
7.80116e-12
-9.21388e-12
8.91635e-12
-1.14448e-11
1.21264e-11
-1.39774e-11
1.36975e-11
-1.75946e-11
1.97236e-11
-2.16601e-11
2.20336e-11
-2.7869e-11
3.39636e-11
-3.47924e-11
3.75962e-11
-4.62576e-11
6.31047e-11
-5.89543e-11
6.92116e-11
-8.22385e-11
1.29408e-10
-1.07396e-10
1.38172e-10
-1.60698e-10
3.01758e-10
-2.1136e-10
2.82812e-10
-3.50883e-10
8.22065e-10
-4.15419e-10
4.90493e-10
-8.37068e-10
3.14827e-09
3.72592e-10
1.35813e-08
2.99963e-09
7.98367e-09
-2.71992e-08
-3.90767e-09
-2.32914e-08
-7.58245e-10
4.83425e-09
8.8679e-10
1.19362e-08
4.57119e-10
3.57793e-09
3.91178e-10
5.56445e-10
2.37773e-10
9.75471e-10
1.80824e-10
3.39763e-10
1.21363e-10
3.61214e-10
9.29155e-11
1.66621e-10
6.67684e-11
1.5555e-10
5.23744e-11
8.36057e-11
3.9453e-11
7.60262e-11
3.15915e-11
4.54703e-11
2.45796e-11
4.09806e-11
1.99608e-11
2.66421e-11
1.58687e-11
2.3808e-11
1.29925e-11
1.65688e-11
1.04651e-11
1.46581e-11
8.59304e-12
1.07808e-11
6.96024e-12
9.44134e-12
5.69892e-12
7.26796e-12
4.60301e-12
6.32879e-12
3.72509e-12
5.04673e-12
2.95971e-12
4.41444e-12
2.3232e-12
3.6575e-12
1.75945e-12
3.24509e-12
1.26923e-12
2.81923e-12
8.19743e-13
2.59529e-12
4.03173e-13
2.39074e-12
1.87796e-16
2.31788e-12
-4.03054e-13
2.31569e-12
-8.20537e-13
2.38896e-12
-1.2691e-12
2.58644e-12
-1.75867e-12
2.81263e-12
-2.32361e-12
3.24377e-12
-2.95887e-12
3.66201e-12
-3.72382e-12
4.41556e-12
-4.60335e-12
5.05144e-12
-5.69859e-12
6.33019e-12
-6.95936e-12
7.26046e-12
-8.59328e-12
9.44585e-12
-1.04646e-11
1.0783e-11
-1.29915e-11
1.46664e-11
-1.58694e-11
1.6573e-11
-1.99616e-11
2.38145e-11
-2.45802e-11
2.66455e-11
-3.15933e-11
4.09776e-11
-3.94537e-11
4.54625e-11
-5.23746e-11
7.60265e-11
-6.67701e-11
8.36072e-11
-9.29165e-11
1.55553e-10
-1.21363e-10
1.66626e-10
-1.80825e-10
3.61212e-10
-2.37774e-10
3.39765e-10
-3.91177e-10
9.75466e-10
-4.57119e-10
5.56445e-10
-8.8679e-10
3.57794e-09
7.58246e-10
1.19362e-08
3.90767e-09
4.83425e-09
-2.32915e-08
-4.8198e-09
-1.84716e-08
-1.15222e-09
1.16669e-09
9.31879e-10
9.85214e-09
4.99656e-10
4.01016e-09
4.32923e-10
6.23165e-10
2.65624e-10
1.14277e-09
2.02072e-10
4.03319e-10
1.36222e-10
4.27071e-10
1.04278e-10
1.98565e-10
7.51207e-11
1.84709e-10
5.89105e-11
9.98193e-11
4.44469e-11
9.04827e-11
3.55801e-11
5.43307e-11
2.77127e-11
4.8854e-11
2.24998e-11
3.18634e-11
1.79006e-11
2.84067e-11
1.46534e-11
1.98188e-11
1.18094e-11
1.75007e-11
9.69565e-12
1.28969e-11
7.85645e-12
1.12885e-11
6.43221e-12
8.6844e-12
5.19683e-12
7.56362e-12
4.20545e-12
6.03583e-12
3.34208e-12
5.27898e-12
2.62328e-12
4.38435e-12
1.98703e-12
3.87894e-12
1.43338e-12
3.37726e-12
9.25827e-13
3.09174e-12
4.55308e-13
2.86374e-12
2.10297e-16
2.77658e-12
-4.55163e-13
2.77519e-12
-9.26755e-13
2.86586e-12
-1.43323e-12
3.0905e-12
-1.98613e-12
3.37385e-12
-2.62377e-12
3.88256e-12
-3.34117e-12
4.37914e-12
-4.204e-12
5.27439e-12
-5.19724e-12
6.03771e-12
-6.43187e-12
7.55862e-12
-7.85541e-12
8.68493e-12
-9.69598e-12
1.12791e-11
-1.18088e-11
1.28912e-11
-1.46523e-11
1.75067e-11
-1.79014e-11
1.98176e-11
-2.25006e-11
2.84154e-11
-2.77133e-11
3.18664e-11
-3.55822e-11
4.88472e-11
-4.44477e-11
5.43224e-11
-5.89106e-11
9.04905e-11
-7.51226e-11
9.98153e-11
-1.04279e-10
1.84707e-10
-1.36222e-10
1.98561e-10
-2.02074e-10
4.27067e-10
-2.65625e-10
4.03314e-10
-4.32922e-10
1.14276e-09
-4.99656e-10
6.23172e-10
-9.31879e-10
4.01016e-09
1.15223e-09
9.85214e-09
4.8198e-09
1.16668e-09
-1.84717e-08
-5.72546e-09
-1.27461e-08
-1.549e-09
-3.00977e-09
9.72372e-10
7.33077e-09
5.43058e-10
4.43947e-09
4.76058e-10
6.9018e-10
2.94929e-10
1.3239e-09
2.24467e-10
4.73774e-10
1.52005e-10
4.99526e-10
1.16354e-10
2.34224e-10
8.40351e-11
2.17022e-10
6.58862e-11
1.17959e-10
4.97911e-11
1.06581e-10
3.98478e-11
6.42719e-11
3.1071e-11
5.7624e-11
2.52206e-11
3.77078e-11
2.00808e-11
3.35507e-11
1.64353e-11
2.34615e-11
1.32528e-11
2.06903e-11
1.08795e-11
1.52647e-11
8.8193e-12
1.3342e-11
7.22002e-12
1.02803e-11
5.83509e-12
8.94877e-12
4.72174e-12
7.15152e-12
3.75321e-12
6.24576e-12
2.94593e-12
5.1886e-12
2.23182e-12
4.59232e-12
1.60988e-12
3.98777e-12
1.03996e-12
3.66024e-12
5.11392e-13
3.39263e-12
2.30767e-16
3.28163e-12
-5.11216e-13
3.28924e-12
-1.04102e-12
3.39303e-12
-1.60973e-12
3.65836e-12
-2.23079e-12
3.99271e-12
-2.94649e-12
4.5985e-12
-3.75226e-12
5.18597e-12
-4.72014e-12
6.24591e-12
-5.83559e-12
7.16074e-12
-7.21965e-12
8.95058e-12
-8.81815e-12
1.02816e-11
-1.08799e-11
1.33495e-11
-1.32522e-11
1.52654e-11
-1.64341e-11
2.0691e-11
-2.00818e-11
2.3469e-11
-2.52215e-11
3.35604e-11
-3.10716e-11
3.77127e-11
-3.98501e-11
5.76209e-11
-4.9792e-11
6.42674e-11
-6.58864e-11
1.06586e-10
-8.40372e-11
1.17974e-10
-1.16355e-10
2.17024e-10
-1.52005e-10
2.34215e-10
-2.24468e-10
4.99531e-10
-2.9493e-10
4.73774e-10
-4.76057e-10
1.32389e-09
-5.43058e-10
6.90174e-10
-9.72372e-10
4.43948e-09
1.549e-09
7.33077e-09
5.72546e-09
-3.00978e-09
-1.27463e-08
-6.61221e-09
-6.13393e-09
-1.9414e-09
-7.68059e-09
1.00841e-09
4.38096e-09
5.87377e-10
4.86051e-09
5.20511e-10
7.57036e-10
3.25698e-10
1.51871e-09
2.48026e-10
5.51452e-10
1.68742e-10
5.78811e-10
1.29168e-10
2.73787e-10
9.35369e-11
2.52662e-10
7.33229e-11
1.38182e-10
5.55038e-11
1.24409e-10
4.44095e-11
7.53701e-11
3.46671e-11
6.73738e-11
2.81337e-11
4.42352e-11
2.2418e-11
3.92691e-11
1.83454e-11
2.75381e-11
1.48014e-11
2.42293e-11
1.21496e-11
1.79148e-11
9.85293e-12
1.56435e-11
8.06575e-12
1.20785e-11
6.5206e-12
1.0497e-11
5.27626e-12
8.40109e-12
4.19495e-12
7.32546e-12
3.29259e-12
6.08602e-12
2.49488e-12
5.39751e-12
1.79959e-12
4.69135e-12
1.16265e-12
4.30551e-12
5.7166e-13
3.98725e-12
2.60128e-16
3.85827e-12
-5.71482e-13
3.85961e-12
-1.16382e-12
3.97798e-12
-1.79942e-12
4.29655e-12
-2.49375e-12
4.68577e-12
-3.29323e-12
5.39617e-12
-4.19393e-12
6.08553e-12
-5.27448e-12
7.32575e-12
-6.52116e-12
8.40086e-12
-8.06534e-12
1.04941e-11
-9.85164e-12
1.20715e-11
-1.215e-11
1.56339e-11
-1.48008e-11
1.79133e-11
-1.83441e-11
2.42291e-11
-2.24191e-11
2.75462e-11
-2.81347e-11
3.92699e-11
-3.46676e-11
4.42478e-11
-4.44119e-11
6.73734e-11
-5.55048e-11
7.5359e-11
-7.33231e-11
1.24397e-10
-9.35391e-11
1.38185e-10
-1.2917e-10
2.52659e-10
-1.68742e-10
2.73789e-10
-2.48028e-10
5.78824e-10
-3.25699e-10
5.5145e-10
-5.2051e-10
1.5187e-09
-5.87377e-10
7.5705e-10
-1.00841e-09
4.86051e-09
1.94141e-09
4.38095e-09
6.61221e-09
-7.68059e-09
-6.13408e-09
-7.46188e-09
1.32795e-09
-2.3201e-09
-1.28224e-08
1.04028e-09
1.02058e-09
6.32695e-10
5.26809e-09
5.66196e-10
8.23541e-10
3.57935e-10
1.72697e-09
2.72766e-10
6.36614e-10
1.86461e-10
6.65121e-10
1.42749e-10
3.17498e-10
1.03651e-10
2.91758e-10
8.12418e-11
1.60585e-10
6.16037e-11
1.44039e-10
4.92804e-11
8.76863e-11
3.85139e-11
7.81333e-11
3.12499e-11
5.15095e-11
2.49213e-11
4.55931e-11
2.0391e-11
3.20634e-11
1.64614e-11
2.81562e-11
1.3511e-11
2.08691e-11
1.09617e-11
1.81895e-11
8.97291e-12
1.40563e-11
7.2563e-12
1.22158e-11
5.87135e-12
9.77885e-12
4.66918e-12
8.52906e-12
3.66481e-12
7.09622e-12
2.7774e-12
6.27596e-12
2.00333e-12
5.4638e-12
1.29442e-12
5.00727e-12
6.36401e-13
4.64093e-12
2.84566e-16
4.494e-12
-6.36238e-13
4.48914e-12
-1.29569e-12
4.65291e-12
-2.00315e-12
5.00213e-12
-2.77617e-12
5.45908e-12
-3.66549e-12
6.28785e-12
-4.66813e-12
7.08044e-12
-5.86945e-12
8.52351e-12
-7.2569e-12
9.79075e-12
-8.97248e-12
1.22081e-11
-1.09603e-11
1.40543e-11
-1.35115e-11
1.81943e-11
-1.64608e-11
2.08703e-11
-2.03896e-11
2.81595e-11
-2.49225e-11
3.20774e-11
-3.12509e-11
4.56005e-11
-3.85145e-11
5.15079e-11
-4.92831e-11
7.81391e-11
-6.16048e-11
8.76764e-11
-8.1242e-11
1.44037e-10
-1.03654e-10
1.606e-10
-1.42751e-10
2.9175e-10
-1.86461e-10
3.17497e-10
-2.72768e-10
6.65121e-10
-3.57935e-10
6.36607e-10
-5.66195e-10
1.72696e-09
-6.32695e-10
8.23541e-10
-1.04028e-09
5.2681e-09
2.3201e-09
1.02056e-09
7.46188e-09
-1.28224e-08
1.3278e-09
-8.24965e-09
9.5776e-09
-2.67282e-09
-1.83992e-08
1.06836e-09
-2.72061e-09
6.79121e-10
5.65734e-09
6.13015e-10
8.8964e-10
3.91634e-10
1.94835e-09
2.98696e-10
7.29555e-10
2.05189e-10
7.5862e-10
1.57122e-10
3.65572e-10
1.14404e-10
3.34473e-10
8.96646e-11
1.85325e-10
6.81096e-11
1.65592e-10
5.44765e-11
1.01327e-10
4.26251e-11
8.99845e-11
3.45803e-11
5.95501e-11
2.76e-11
5.2573e-11
2.25801e-11
3.70862e-11
1.82394e-11
3.24994e-11
1.49692e-11
2.41391e-11
1.215e-11
2.10066e-11
9.9453e-12
1.62683e-11
8.04523e-12
1.4108e-11
6.5096e-12
1.13218e-11
5.17799e-12
9.86323e-12
4.06414e-12
8.20172e-12
3.08062e-12
7.26303e-12
2.22197e-12
6.32426e-12
1.43587e-12
5.79515e-12
7.05909e-13
5.36755e-12
2.79057e-16
5.19759e-12
-7.05704e-13
5.20263e-12
-1.43727e-12
5.3685e-12
-2.22179e-12
5.78961e-12
-3.07928e-12
6.31439e-12
-4.06491e-12
7.26951e-12
-5.17687e-12
8.20612e-12
-6.50754e-12
9.8603e-12
-8.0459e-12
1.13302e-11
-9.94482e-12
1.41023e-11
-1.21485e-11
1.62635e-11
-1.49698e-11
2.10181e-11
-1.82388e-11
2.41311e-11
-2.25786e-11
3.25024e-11
-2.76013e-11
3.71046e-11
-3.45813e-11
5.25764e-11
-4.26257e-11
5.95598e-11
-5.44794e-11
8.99944e-11
-6.81108e-11
1.01316e-10
-8.96648e-11
1.65597e-10
-1.14407e-10
1.85337e-10
-1.57123e-10
3.34462e-10
-2.05189e-10
3.65565e-10
-2.98698e-10
7.58637e-10
-3.91635e-10
7.29552e-10
-6.13014e-10
1.94834e-09
-6.79121e-10
8.89649e-10
-1.06836e-09
5.65734e-09
2.67282e-09
-2.72061e-09
8.24966e-09
-1.83992e-08
9.57746e-09
-8.9438e-09
1.85214e-08
-2.98413e-09
-2.43589e-08
1.09322e-09
-6.79796e-09
7.26789e-10
6.02376e-09
6.60855e-10
9.55581e-10
4.26781e-10
2.18244e-09
3.25819e-10
8.30525e-10
2.24948e-10
8.59498e-10
1.7231e-10
4.18205e-10
1.2582e-10
3.80962e-10
9.86131e-11
2.1254e-10
7.50409e-11
1.89172e-10
6.0014e-11
1.1635e-10
4.70144e-11
1.03e-10
3.81364e-11
6.8429e-11
3.0464e-11
6.02505e-11
2.49207e-11
4.26342e-11
2.01423e-11
3.72775e-11
1.65299e-11
2.77573e-11
1.34228e-11
2.4119e-11
1.09868e-11
1.87022e-11
8.89072e-12
1.62087e-11
7.1936e-12
1.30115e-11
5.72346e-12
1.1327e-11
4.49232e-12
9.44279e-12
3.40582e-12
8.35221e-12
2.45648e-12
7.26977e-12
1.5876e-12
6.66416e-12
7.80478e-13
6.18478e-12
2.92016e-16
5.97545e-12
-7.80281e-13
5.98024e-12
-1.58908e-12
6.18432e-12
-2.45631e-12
6.65241e-12
-3.40438e-12
7.26642e-12
-4.4931e-12
8.36287e-12
-5.72233e-12
9.42992e-12
-7.19144e-12
1.13287e-11
-8.89141e-12
1.30225e-11
-1.09863e-11
1.62022e-11
-1.34211e-11
1.86981e-11
-1.65305e-11
2.41227e-11
-2.01416e-11
2.77439e-11
-2.49191e-11
3.72733e-11
-3.04653e-11
4.26383e-11
-3.81375e-11
6.02516e-11
-4.70151e-11
6.84274e-11
-6.00171e-11
1.02988e-10
-7.50423e-11
1.16336e-10
-9.86133e-11
1.89167e-10
-1.25822e-10
2.1255e-10
-1.72312e-10
3.80968e-10
-2.24948e-10
4.18199e-10
-3.25822e-10
8.59502e-10
-4.26782e-10
8.30514e-10
-6.60853e-10
2.18241e-09
-7.2679e-10
9.55588e-10
-1.09322e-09
6.02377e-09
2.98414e-09
-6.79798e-09
8.9438e-09
-2.43589e-08
1.85213e-08
-9.50573e-09
2.80271e-08
-3.23567e-09
-3.06289e-08
1.11552e-09
-1.11492e-08
7.75856e-10
6.36343e-09
7.09589e-10
1.02184e-09
4.63352e-10
2.42866e-09
3.54135e-10
9.39735e-10
2.45759e-10
9.6787e-10
1.88337e-10
4.75633e-10
1.37923e-10
4.31383e-10
1.08109e-10
2.42342e-10
8.24173e-11
2.14858e-10
6.59094e-11
1.32856e-10
5.16962e-11
1.17194e-10
4.19303e-11
7.81907e-11
3.35233e-11
6.86523e-11
2.74213e-11
4.87244e-11
2.21771e-11
4.25152e-11
1.8199e-11
3.17292e-11
1.47849e-11
2.75301e-11
1.21015e-11
2.13866e-11
9.79611e-12
1.85073e-11
7.92616e-12
1.48856e-11
6.30793e-12
1.29526e-11
4.95111e-12
1.07936e-11
3.75436e-12
9.54729e-12
2.70784e-12
8.32456e-12
1.75027e-12
7.62411e-12
8.60401e-13
7.06869e-12
2.93865e-16
6.8419e-12
-8.60221e-13
6.84397e-12
-1.75183e-12
7.07563e-12
-2.70766e-12
7.60609e-12
-3.75286e-12
8.30577e-12
-4.95192e-12
9.56511e-12
-6.30673e-12
1.07831e-11
-7.92392e-12
1.29437e-11
-9.79681e-12
1.49089e-11
-1.2101e-11
1.85077e-11
-1.47832e-11
2.13786e-11
-1.81997e-11
2.75443e-11
-2.21765e-11
3.17249e-11
-2.74197e-11
4.25248e-11
-3.35247e-11
4.87559e-11
-4.19314e-11
6.86583e-11
-5.16969e-11
7.82038e-11
-6.59126e-11
1.17208e-10
-8.24188e-11
1.32844e-10
-1.08109e-10
2.14853e-10
-1.37926e-10
2.42363e-10
-1.88339e-10
4.31371e-10
-2.45759e-10
4.75621e-10
-3.54137e-10
9.67896e-10
-4.63353e-10
9.39728e-10
-7.09587e-10
2.42865e-09
-7.75856e-10
1.02186e-09
-1.11552e-09
6.36343e-09
3.23567e-09
-1.11492e-08
9.50573e-09
-3.06289e-08
2.8027e-08
-9.89117e-09
3.79183e-08
-3.40689e-09
-3.71132e-08
1.13606e-09
-1.56921e-08
8.26484e-10
6.67301e-09
7.59075e-10
1.08926e-09
5.0131e-10
2.68643e-09
3.83632e-10
1.05741e-09
2.67639e-10