/*--------------------------------*- C++ -*----------------------------------*\
| =========                 |                                                 |
| \\      /  F ield         | foam-extend: Open Source CFD                    |
|  \\    /   O peration     | Version:     4.0                                |
|   \\  /    A nd           | Web:         http://www.foam-extend.org         |
|    \\/     M anipulation  |                                                 |
\*---------------------------------------------------------------------------*/
FoamFile
{
    version     2.0;
    format      ascii;
    class       volVectorField;
    location    "7";
    object      bodyForce;
}
// * * * * * * * * * * * * * * * * * * * * * * * * * * * * * * * * * * * * * //

dimensions      [0 -1 0 0 0 0 0];

internalField   nonuniform List<vector> 
6960
(
(0.000177276 -1.06444e+09 -0)
(0.000256298 -1.06444e+09 -0)
(8.07957e-05 -1.06444e+09 -0)
(5.19029e-06 -1.06444e+09 -0)
(4.2943e-06 -1.06444e+09 -0)
(1.54923e-06 -1.06444e+09 -0)
(8.88845e-07 -1.06444e+09 -0)
(3.35548e-07 -1.06444e+09 -0)
(7.49629e-08 -1.06444e+09 -0)
(-1.32077e-07 -1.06444e+09 -0)
(-2.32028e-07 -1.06444e+09 -0)
(-3.35548e-07 -1.06444e+09 -0)
(-3.89093e-07 -1.06444e+09 -0)
(-4.28359e-07 -1.06444e+09 -0)
(-4.71195e-07 -1.06444e+09 -0)
(-4.92613e-07 -1.06444e+09 -0)
(-5.10461e-07 -1.06444e+09 -0)
(-5.06892e-07 -1.06444e+09 -0)
(-4.96183e-07 -1.06444e+09 -0)
(-4.81904e-07 -1.06444e+09 -0)
(-4.67626e-07 -1.06444e+09 -0)
(-4.31929e-07 -1.06444e+09 -0)
(-3.96232e-07 -1.06444e+09 -0)
(-3.56966e-07 -1.06444e+09 -0)
(-3.1413e-07 -1.06444e+09 -0)
(-2.74864e-07 -1.06444e+09 -0)
(-2.03471e-07 -1.06444e+09 -0)
(-1.39217e-07 -1.06444e+09 -0)
(-1.10659e-07 -1.06444e+09 -0)
(-3.56966e-08 -1.06444e+09 -0)
(3.21269e-08 -1.06444e+09 -0)
(9.99505e-08 -1.06444e+09 -0)
(1.49926e-07 -1.06444e+09 -0)
(1.89192e-07 -1.06444e+09 -0)
(2.71294e-07 -1.06444e+09 -0)
(3.24839e-07 -1.06444e+09 -0)
(3.64105e-07 -1.06444e+09 -0)
(4.03372e-07 -1.06444e+09 -0)
(4.46208e-07 -1.06444e+09 -0)
(4.67626e-07 -1.06444e+09 -0)
(4.78334e-07 -1.06444e+09 -0)
(4.96183e-07 -1.06444e+09 -0)
(5.2117e-07 -1.06444e+09 -0)
(5.14031e-07 -1.06444e+09 -0)
(4.78334e-07 -1.06444e+09 -0)
(4.56917e-07 -1.06444e+09 -0)
(4.53347e-07 -1.06444e+09 -0)
(4.10511e-07 -1.06444e+09 -0)
(3.35548e-07 -1.06444e+09 -0)
(2.42737e-07 -1.06444e+09 -0)
(1.10659e-07 -1.06444e+09 -0)
(-7.13932e-08 -1.06444e+09 -0)
(-3.31978e-07 -1.06444e+09 -0)
(-8.92415e-07 -1.06444e+09 -0)
(-1.55994e-06 -1.06444e+09 -0)
(-4.30858e-06 -1.06444e+09 -0)
(-5.19029e-06 -1.06444e+09 -0)
(-8.0785e-05 -1.06444e+09 -0)
(-0.00025628 -1.06444e+09 -0)
(-0.000177276 -1.06444e+09 -0)
(0.000441173 -2.00444e+08 -0)
(0.000638122 -2.00444e+08 -0)
(0.000200961 -2.00444e+08 -0)
(1.24999e-05 -2.00444e+08 -0)
(1.06546e-05 -2.00444e+08 -0)
(3.8457e-06 -2.00444e+08 -0)
(2.21436e-06 -2.00444e+08 -0)
(8.13e-07 -2.00444e+08 -0)
(1.87204e-07 -2.00444e+08 -0)
(-3.15572e-07 -2.00444e+08 -0)
(-5.83007e-07 -2.00444e+08 -0)
(-8.26372e-07 -2.00444e+08 -0)
(-9.78809e-07 -2.00444e+08 -0)
(-1.07241e-06 -2.00444e+08 -0)
(-1.16334e-06 -2.00444e+08 -0)
(-1.22752e-06 -2.00444e+08 -0)
(-1.26496e-06 -2.00444e+08 -0)
(-1.26764e-06 -2.00444e+08 -0)
(-1.23555e-06 -2.00444e+08 -0)
(-1.20078e-06 -2.00444e+08 -0)
(-1.15264e-06 -2.00444e+08 -0)
(-1.08578e-06 -2.00444e+08 -0)
(-9.86832e-07 -2.00444e+08 -0)
(-8.87882e-07 -2.00444e+08 -0)
(-7.83582e-07 -2.00444e+08 -0)
(-6.73934e-07 -2.00444e+08 -0)
(-5.10799e-07 -2.00444e+08 -0)
(-3.58362e-07 -2.00444e+08 -0)
(-2.54062e-07 -2.00444e+08 -0)
(-1.04299e-07 -2.00444e+08 -0)
(7.75559e-08 -2.00444e+08 -0)
(2.38016e-07 -2.00444e+08 -0)
(3.69059e-07 -2.00444e+08 -0)
(5.00102e-07 -2.00444e+08 -0)
(6.76609e-07 -2.00444e+08 -0)
(8.23697e-07 -2.00444e+08 -0)
(8.90556e-07 -2.00444e+08 -0)
(9.9753e-07 -2.00444e+08 -0)
(1.10718e-06 -2.00444e+08 -0)
(1.16066e-06 -2.00444e+08 -0)
(1.18741e-06 -2.00444e+08 -0)
(1.25159e-06 -2.00444e+08 -0)
(1.28636e-06 -2.00444e+08 -0)
(1.24624e-06 -2.00444e+08 -0)
(1.21148e-06 -2.00444e+08 -0)
(1.15532e-06 -2.00444e+08 -0)
(1.12055e-06 -2.00444e+08 -0)
(1.00555e-06 -2.00444e+08 -0)
(8.55789e-07 -2.00444e+08 -0)
(6.04401e-07 -2.00444e+08 -0)
(2.80806e-07 -2.00444e+08 -0)
(-1.76507e-07 -2.00444e+08 -0)
(-8.21023e-07 -2.00444e+08 -0)
(-2.22773e-06 -2.00444e+08 -0)
(-3.8564e-06 -2.00444e+08 -0)
(-1.06947e-05 -2.00444e+08 -0)
(-1.25106e-05 -2.00444e+08 -0)
(-0.000200929 -2.00444e+08 -0)
(-0.000638079 -2.00444e+08 -0)
(-0.000441151 -2.00444e+08 -0)
(0.000441006 -5.45354e+07 -0)
(0.000635118 -5.45354e+07 -0)
(0.000198556 -5.45354e+07 -0)
(1.29596e-05 -5.45354e+07 -0)
(1.07204e-05 -5.45354e+07 -0)
(3.89867e-06 -5.45354e+07 -0)
(2.23791e-06 -5.45354e+07 -0)
(8.30379e-07 -5.45354e+07 -0)
(2.0181e-07 -5.45354e+07 -0)
(-2.95646e-07 -5.45354e+07 -0)
(-5.77152e-07 -5.45354e+07 -0)
(-8.1624e-07 -5.45354e+07 -0)
(-9.69204e-07 -5.45354e+07 -0)
(-1.06047e-06 -5.45354e+07 -0)
(-1.15302e-06 -5.45354e+07 -0)
(-1.216e-06 -5.45354e+07 -0)
(-1.25328e-06 -5.45354e+07 -0)
(-1.25457e-06 -5.45354e+07 -0)
(-1.22629e-06 -5.45354e+07 -0)
(-1.19544e-06 -5.45354e+07 -0)
(-1.14402e-06 -5.45354e+07 -0)
(-1.07075e-06 -5.45354e+07 -0)
(-9.79488e-07 -5.45354e+07 -0)
(-8.81796e-07 -5.45354e+07 -0)
(-7.78963e-07 -5.45354e+07 -0)
(-6.69702e-07 -5.45354e+07 -0)
(-5.05169e-07 -5.45354e+07 -0)
(-3.58631e-07 -5.45354e+07 -0)
(-2.55798e-07 -5.45354e+07 -0)
(-1.01548e-07 -5.45354e+07 -0)
(7.84104e-08 -5.45354e+07 -0)
(2.36517e-07 -5.45354e+07 -0)
(3.68915e-07 -5.45354e+07 -0)
(4.96171e-07 -5.45354e+07 -0)
(6.64561e-07 -5.45354e+07 -0)
(8.13669e-07 -5.45354e+07 -0)
(8.93365e-07 -5.45354e+07 -0)
(9.88486e-07 -5.45354e+07 -0)
(1.09518e-06 -5.45354e+07 -0)
(1.15045e-06 -5.45354e+07 -0)
(1.18001e-06 -5.45354e+07 -0)
(1.23786e-06 -5.45354e+07 -0)
(1.27899e-06 -5.45354e+07 -0)
(1.23786e-06 -5.45354e+07 -0)
(1.19801e-06 -5.45354e+07 -0)
(1.14788e-06 -5.45354e+07 -0)
(1.1106e-06 -5.45354e+07 -0)
(9.98769e-07 -5.45354e+07 -0)
(8.40663e-07 -5.45354e+07 -0)
(5.84865e-07 -5.45354e+07 -0)
(2.76365e-07 -5.45354e+07 -0)
(-1.90242e-07 -5.45354e+07 -0)
(-8.43234e-07 -5.45354e+07 -0)
(-2.25077e-06 -5.45354e+07 -0)
(-3.90895e-06 -5.45354e+07 -0)
(-1.07602e-05 -5.45354e+07 -0)
(-1.29673e-05 -5.45354e+07 -0)
(-0.000198529 -5.45354e+07 -0)
(-0.000635083 -5.45354e+07 -0)
(-0.000440985 -5.45354e+07 -0)
(0.00033665 -1.64419e+07 -0)
(0.000484816 -1.64419e+07 -0)
(0.000152244 -1.64419e+07 -0)
(1.06948e-05 -1.64419e+07 -0)
(8.38436e-06 -1.64419e+07 -0)
(3.09146e-06 -1.64419e+07 -0)
(1.76692e-06 -1.64419e+07 -0)
(6.72114e-07 -1.64419e+07 -0)
(1.77218e-07 -1.64419e+07 -0)
(-2.12661e-07 -1.64419e+07 -0)
(-4.30573e-07 -1.64419e+07 -0)
(-6.13041e-07 -1.64419e+07 -0)
(-7.33812e-07 -1.64419e+07 -0)
(-8.07324e-07 -1.64419e+07 -0)
(-8.75586e-07 -1.64419e+07 -0)
(-9.26782e-07 -1.64419e+07 -0)
(-9.56975e-07 -1.64419e+07 -0)
(-9.54349e-07 -1.64419e+07 -0)
(-9.34659e-07 -1.64419e+07 -0)
(-9.13655e-07 -1.64419e+07 -0)
(-8.70335e-07 -1.64419e+07 -0)
(-8.15201e-07 -1.64419e+07 -0)
(-7.48252e-07 -1.64419e+07 -0)
(-6.74739e-07 -1.64419e+07 -0)
(-5.89412e-07 -1.64419e+07 -0)
(-5.10649e-07 -1.64419e+07 -0)
(-3.8594e-07 -1.64419e+07 -0)
(-2.75672e-07 -1.64419e+07 -0)
(-1.9297e-07 -1.64419e+07 -0)
(-7.74506e-08 -1.64419e+07 -0)
(6.1698e-08 -1.64419e+07 -0)
(1.7853e-07 -1.64419e+07 -0)
(2.80923e-07 -1.64419e+07 -0)
(3.78064e-07 -1.64419e+07 -0)
(5.05398e-07 -1.64419e+07 -0)
(6.24856e-07 -1.64419e+07 -0)
(6.83929e-07 -1.64419e+07 -0)
(7.5219e-07 -1.64419e+07 -0)
(8.30953e-07 -1.64419e+07 -0)
(8.76899e-07 -1.64419e+07 -0)
(8.99215e-07 -1.64419e+07 -0)
(9.43848e-07 -1.64419e+07 -0)
(9.7404e-07 -1.64419e+07 -0)
(9.41222e-07 -1.64419e+07 -0)
(9.12342e-07 -1.64419e+07 -0)
(8.76899e-07 -1.64419e+07 -0)
(8.45393e-07 -1.64419e+07 -0)
(7.57441e-07 -1.64419e+07 -0)
(6.3142e-07 -1.64419e+07 -0)
(4.35824e-07 -1.64419e+07 -0)
(1.96908e-07 -1.64419e+07 -0)
(-1.66716e-07 -1.64419e+07 -0)
(-6.81303e-07 -1.64419e+07 -0)
(-1.77743e-06 -1.64419e+07 -0)
(-3.10196e-06 -1.64419e+07 -0)
(-8.41324e-06 -1.64419e+07 -0)
(-1.07026e-05 -1.64419e+07 -0)
(-0.000152226 -1.64419e+07 -0)
(-0.000484786 -1.64419e+07 -0)
(-0.000336631 -1.64419e+07 -0)
(0.000218631 -5.17572e+06 -0)
(0.000315712 -5.17572e+06 -0)
(0.000100416 -5.17572e+06 -0)
(7.76796e-06 -5.17572e+06 -0)
(5.66074e-06 -5.17572e+06 -0)
(2.12539e-06 -5.17572e+06 -0)
(1.20874e-06 -5.17572e+06 -0)
(4.73131e-07 -5.17572e+06 -0)
(1.37295e-07 -5.17572e+06 -0)
(-1.23162e-07 -5.17572e+06 -0)
(-2.70553e-07 -5.17572e+06 -0)
(-3.93715e-07 -5.17572e+06 -0)
(-4.75823e-07 -5.17572e+06 -0)
(-5.20915e-07 -5.17572e+06 -0)
(-5.67353e-07 -5.17572e+06 -0)
(-6.01677e-07 -5.17572e+06 -0)
(-6.23214e-07 -5.17572e+06 -0)
(-6.21868e-07 -5.17572e+06 -0)
(-6.0908e-07 -5.17572e+06 -0)
(-5.93601e-07 -5.17572e+06 -0)
(-5.6668e-07 -5.17572e+06 -0)
(-5.28991e-07 -5.17572e+06 -0)
(-4.87264e-07 -5.17572e+06 -0)
(-4.40153e-07 -5.17572e+06 -0)
(-3.8362e-07 -5.17572e+06 -0)
(-3.31797e-07 -5.17572e+06 -0)
(-2.52381e-07 -5.17572e+06 -0)
(-1.79022e-07 -5.17572e+06 -0)
(-1.26527e-07 -5.17572e+06 -0)
(-4.91302e-08 -5.17572e+06 -0)
(3.9035e-08 -5.17572e+06 -0)
(1.16432e-07 -5.17572e+06 -0)
(1.84407e-07 -5.17572e+06 -0)
(2.45651e-07 -5.17572e+06 -0)
(3.29105e-07 -5.17572e+06 -0)
(4.06502e-07 -5.17572e+06 -0)
(4.44864e-07 -5.17572e+06 -0)
(4.91302e-07 -5.17572e+06 -0)
(5.41779e-07 -5.17572e+06 -0)
(5.69372e-07 -5.17572e+06 -0)
(5.84852e-07 -5.17572e+06 -0)
(6.13791e-07 -5.17572e+06 -0)
(6.33982e-07 -5.17572e+06 -0)
(6.13118e-07 -5.17572e+06 -0)
(5.91582e-07 -5.17572e+06 -0)
(5.68699e-07 -5.17572e+06 -0)
(5.48509e-07 -5.17572e+06 -0)
(4.8861e-07 -5.17572e+06 -0)
(4.05829e-07 -5.17572e+06 -0)
(2.73245e-07 -5.17572e+06 -0)
(1.15086e-07 -5.17572e+06 -0)
(-1.29892e-07 -5.17572e+06 -0)
(-4.81207e-07 -5.17572e+06 -0)
(-1.21547e-06 -5.17572e+06 -0)
(-2.13212e-06 -5.17572e+06 -0)
(-5.68026e-06 -5.17572e+06 -0)
(-7.77267e-06 -5.17572e+06 -0)
(-0.000100403 -5.17572e+06 -0)
(-0.000315693 -5.17572e+06 -0)
(-0.000218621 -5.17572e+06 -0)
(0.000127395 -1.70898e+06 -0)
(0.000184756 -1.70898e+06 -0)
(5.9842e-05 -1.70898e+06 -0)
(5.17038e-06 -1.70898e+06 -0)
(3.47078e-06 -1.70898e+06 -0)
(1.33153e-06 -1.70898e+06 -0)
(7.50457e-07 -1.70898e+06 -0)
(3.05022e-07 -1.70898e+06 -0)
(9.81524e-08 -1.70898e+06 -0)
(-6.13453e-08 -1.70898e+06 -0)
(-1.50977e-07 -1.70898e+06 -0)
(-2.26296e-07 -1.70898e+06 -0)
(-2.7469e-07 -1.70898e+06 -0)
(-3.01955e-07 -1.70898e+06 -0)
(-3.31605e-07 -1.70898e+06 -0)
(-3.52054e-07 -1.70898e+06 -0)
(-3.63982e-07 -1.70898e+06 -0)
(-3.633e-07 -1.70898e+06 -0)
(-3.56484e-07 -1.70898e+06 -0)
(-3.47282e-07 -1.70898e+06 -0)
(-3.31946e-07 -1.70898e+06 -0)
(-3.09112e-07 -1.70898e+06 -0)
(-2.84915e-07 -1.70898e+06 -0)
(-2.56628e-07 -1.70898e+06 -0)
(-2.25273e-07 -1.70898e+06 -0)
(-1.9426e-07 -1.70898e+06 -0)
(-1.48251e-07 -1.70898e+06 -0)
(-1.05309e-07 -1.70898e+06 -0)
(-7.29327e-08 -1.70898e+06 -0)
(-2.89686e-08 -1.70898e+06 -0)
(2.31749e-08 -1.70898e+06 -0)
(6.85022e-08 -1.70898e+06 -0)
(1.08377e-07 -1.70898e+06 -0)
(1.43139e-07 -1.70898e+06 -0)
(1.92215e-07 -1.70898e+06 -0)
(2.38906e-07 -1.70898e+06 -0)
(2.60717e-07 -1.70898e+06 -0)
(2.873e-07 -1.70898e+06 -0)
(3.1661e-07 -1.70898e+06 -0)
(3.32628e-07 -1.70898e+06 -0)
(3.41489e-07 -1.70898e+06 -0)
(3.59551e-07 -1.70898e+06 -0)
(3.70457e-07 -1.70898e+06 -0)
(3.58188e-07 -1.70898e+06 -0)
(3.46601e-07 -1.70898e+06 -0)
(3.31264e-07 -1.70898e+06 -0)
(3.18995e-07 -1.70898e+06 -0)
(2.83551e-07 -1.70898e+06 -0)
(2.3243e-07 -1.70898e+06 -0)
(1.53022e-07 -1.70898e+06 -0)
(5.6574e-08 -1.70898e+06 -0)
(-9.26995e-08 -1.70898e+06 -0)
(-3.10134e-07 -1.70898e+06 -0)
(-7.5591e-07 -1.70898e+06 -0)
(-1.33528e-06 -1.70898e+06 -0)
(-3.48237e-06 -1.70898e+06 -0)
(-5.17345e-06 -1.70898e+06 -0)
(-5.98334e-05 -1.70898e+06 -0)
(-0.000184745 -1.70898e+06 -0)
(-0.000127389 -1.70898e+06 -0)
(6.90807e-05 -607061 -0)
(0.000100725 -607061 -0)
(3.33473e-05 -607061 -0)
(3.23505e-06 -607061 -0)
(1.99976e-06 -607061 -0)
(7.85086e-07 -607061 -0)
(4.38619e-07 -607061 -0)
(1.85327e-07 -607061 -0)
(6.52393e-08 -607061 -0)
(-2.6232e-08 -607061 -0)
(-7.78443e-08 -607061 -0)
(-1.20258e-07 -607061 -0)
(-1.47853e-07 -607061 -0)
(-1.62843e-07 -607061 -0)
(-1.79536e-07 -607061 -0)
(-1.91289e-07 -607061 -0)
(-1.97932e-07 -607061 -0)
(-1.97932e-07 -607061 -0)
(-1.94525e-07 -607061 -0)
(-1.89586e-07 -607061 -0)
(-1.80558e-07 -607061 -0)
(-1.68634e-07 -607061 -0)
(-1.55177e-07 -607061 -0)
(-1.40358e-07 -607061 -0)
(-1.22643e-07 -607061 -0)
(-1.06461e-07 -607061 -0)
(-8.074e-08 -607061 -0)
(-5.68927e-08 -607061 -0)
(-4.00293e-08 -607061 -0)
(-1.60117e-08 -607061 -0)
(1.29457e-08 -607061 -0)
(3.78149e-08 -607061 -0)
(5.89368e-08 -607061 -0)
(7.83553e-08 -607061 -0)
(1.04928e-07 -607061 -0)
(1.29968e-07 -607061 -0)
(1.42232e-07 -607061 -0)
(1.56881e-07 -607061 -0)
(1.72722e-07 -607061 -0)
(1.81409e-07 -607061 -0)
(1.85498e-07 -607061 -0)
(1.95718e-07 -607061 -0)
(2.0185e-07 -607061 -0)
(1.94525e-07 -607061 -0)
(1.88393e-07 -607061 -0)
(1.80217e-07 -607061 -0)
(1.72893e-07 -607061 -0)
(1.52452e-07 -607061 -0)
(1.23665e-07 -607061 -0)
(7.85256e-08 -607061 -0)
(2.35066e-08 -607061 -0)
(-6.18325e-08 -607061 -0)
(-1.88053e-07 -607061 -0)
(-4.41856e-07 -607061 -0)
(-7.8713e-07 -607061 -0)
(-2.00624e-06 -607061 -0)
(-3.23692e-06 -607061 -0)
(-3.33424e-05 -607061 -0)
(-0.000100719 -607061 -0)
(-6.90775e-05 -607061 -0)
(3.59914e-05 -237338 -0)
(5.28036e-05 -237338 -0)
(1.79165e-05 -237338 -0)
(1.94953e-06 -237338 -0)
(1.11526e-06 -237338 -0)
(4.47802e-07 -237338 -0)
(2.48336e-07 -237338 -0)
(1.08854e-07 -237338 -0)
(4.13186e-08 -237338 -0)
(-9.16306e-09 -237338 -0)
(-3.80946e-08 -237338 -0)
(-6.11719e-08 -237338 -0)
(-7.61043e-08 -237338 -0)
(-8.44189e-08 -237338 -0)
(-9.34971e-08 -237338 -0)
(-1.00115e-07 -237338 -0)
(-1.03593e-07 -237338 -0)
(-1.03593e-07 -237338 -0)
(-1.01727e-07 -237338 -0)
(-9.91816e-08 -237338 -0)
(-9.46001e-08 -237338 -0)
(-8.83217e-08 -237338 -0)
(-8.12797e-08 -237338 -0)
(-7.34742e-08 -237338 -0)
(-6.44808e-08 -237338 -0)
(-5.59965e-08 -237338 -0)
(-4.23367e-08 -237338 -0)
(-2.98648e-08 -237338 -0)
(-2.08714e-08 -237338 -0)
(-8.22978e-09 -237338 -0)
(6.78745e-09 -237338 -0)
(1.95988e-08 -237338 -0)
(3.10526e-08 -237338 -0)
(4.10641e-08 -237338 -0)
(5.50632e-08 -237338 -0)
(6.8129e-08 -237338 -0)
(7.44074e-08 -237338 -0)
(8.23827e-08 -237338 -0)
(9.06973e-08 -237338 -0)
(9.48546e-08 -237338 -0)
(9.71454e-08 -237338 -0)
(1.02575e-07 -237338 -0)
(1.05545e-07 -237338 -0)
(1.01557e-07 -237338 -0)
(9.85029e-08 -237338 -0)
(9.4091e-08 -237338 -0)
(8.98489e-08 -237338 -0)
(7.87344e-08 -237338 -0)
(6.28688e-08 -237338 -0)
(3.84339e-08 -237338 -0)
(7.97526e-09 -237338 -0)
(-3.95369e-08 -237338 -0)
(-1.10381e-07 -237338 -0)
(-2.50118e-07 -237338 -0)
(-4.48735e-07 -237338 -0)
(-1.11874e-06 -237338 -0)
(-1.95071e-06 -237338 -0)
(-1.7914e-05 -237338 -0)
(-5.28003e-05 -237338 -0)
(-3.59897e-05 -237338 -0)
(1.86747e-05 -103425 -0)
(2.75851e-05 -103425 -0)
(9.61011e-06 -103425 -0)
(1.16641e-06 -103425 -0)
(6.22826e-07 -103425 -0)
(2.55328e-07 -103425 -0)
(1.4062e-07 -103425 -0)
(6.3703e-08 -103425 -0)
(2.57825e-08 -103425 -0)
(-2.06604e-09 -103425 -0)
(-1.825e-08 -103425 -0)
(-3.07754e-08 -103425 -0)
(-3.89965e-08 -103425 -0)
(-4.33869e-08 -103425 -0)
(-4.84659e-08 -103425 -0)
(-5.21676e-08 -103425 -0)
(-5.41045e-08 -103425 -0)
(-5.39753e-08 -103425 -0)
(-5.30714e-08 -103425 -0)
(-5.17802e-08 -103425 -0)
(-4.93698e-08 -103425 -0)
(-4.60555e-08 -103425 -0)
(-4.23969e-08 -103425 -0)
(-3.83509e-08 -103425 -0)
(-3.37023e-08 -103425 -0)
(-2.9355e-08 -103425 -0)
(-2.21669e-08 -103425 -0)
(-1.54523e-08 -103425 -0)
(-1.07606e-08 -103425 -0)
(-4.51947e-09 -103425 -0)
(3.57253e-09 -103425 -0)
(1.03733e-08 -103425 -0)
(1.6227e-08 -103425 -0)
(2.15213e-08 -103425 -0)
(2.87524e-08 -103425 -0)
(3.55962e-08 -103425 -0)
(3.89105e-08 -103425 -0)
(4.29995e-08 -103425 -0)
(4.72607e-08 -103425 -0)
(4.94128e-08 -103425 -0)
(5.07472e-08 -103425 -0)
(5.35019e-08 -103425 -0)
(5.50084e-08 -103425 -0)
(5.29854e-08 -103425 -0)
(5.11776e-08 -103425 -0)
(4.88963e-08 -103425 -0)
(4.6572e-08 -103425 -0)
(4.04169e-08 -103425 -0)
(3.15932e-08 -103425 -0)
(1.825e-08 -103425 -0)
(1.4204e-09 -103425 -0)
(-2.47925e-08 -103425 -0)
(-6.44347e-08 -103425 -0)
(-1.41567e-07 -103425 -0)
(-2.55931e-07 -103425 -0)
(-6.24719e-07 -103425 -0)
(-1.1671e-06 -103425 -0)
(-9.60873e-06 -103425 -0)
(-2.75833e-05 -103425 -0)
(-1.86737e-05 -103425 -0)
(1.01006e-05 -50859.7 -0)
(1.50289e-05 -50859.7 -0)
(5.38172e-06 -50859.7 -0)
(7.23373e-07 -50859.7 -0)
(3.63901e-07 -50859.7 -0)
(1.519e-07 -50859.7 -0)
(8.31254e-08 -50859.7 -0)
(3.88057e-08 -50859.7 -0)
(1.65882e-08 -50859.7 -0)
(5.76779e-10 -50859.7 -0)
(-8.88239e-09 -50859.7 -0)
(-1.61267e-08 -50859.7 -0)
(-2.08333e-08 -50859.7 -0)
(-2.32096e-08 -50859.7 -0)
(-2.62319e-08 -50859.7 -0)
(-2.82852e-08 -50859.7 -0)
(-2.93465e-08 -50859.7 -0)
(-2.93696e-08 -50859.7 -0)
(-2.89312e-08 -50859.7 -0)
(-2.81468e-08 -50859.7 -0)
(-2.68548e-08 -50859.7 -0)
(-2.50783e-08 -50859.7 -0)
(-2.30481e-08 -50859.7 -0)
(-2.09025e-08 -50859.7 -0)
(-1.83416e-08 -50859.7 -0)
(-1.59883e-08 -50859.7 -0)
(-1.21585e-08 -50859.7 -0)
(-8.44404e-09 -50859.7 -0)
(-5.837e-09 -50859.7 -0)
(-2.44554e-09 -50859.7 -0)
(2.00719e-09 -50859.7 -0)
(5.62936e-09 -50859.7 -0)
(8.8824e-09 -50859.7 -0)
(1.17663e-08 -50859.7 -0)
(1.56192e-08 -50859.7 -0)
(1.94721e-08 -50859.7 -0)
(2.11562e-08 -50859.7 -0)
(2.33711e-08 -50859.7 -0)
(2.58166e-08 -50859.7 -0)
(2.68779e-08 -50859.7 -0)
(2.75008e-08 -50859.7 -0)
(2.91158e-08 -50859.7 -0)
(2.99233e-08 -50859.7 -0)
(2.87236e-08 -50859.7 -0)
(2.77777e-08 -50859.7 -0)
(2.64626e-08 -50859.7 -0)
(2.50322e-08 -50859.7 -0)
(2.16177e-08 -50859.7 -0)
(1.65651e-08 -50859.7 -0)
(8.83625e-09 -50859.7 -0)
(-8.30562e-10 -50859.7 -0)
(-1.5896e-08 -50859.7 -0)
(-3.92671e-08 -50859.7 -0)
(-8.37483e-08 -50859.7 -0)
(-1.52247e-07 -50859.7 -0)
(-3.64847e-07 -50859.7 -0)
(-7.23765e-07 -50859.7 -0)
(-5.38095e-06 -50859.7 -0)
(-1.50279e-05 -50859.7 -0)
(-1.01001e-05 -50859.7 -0)
(5.99093e-06 -28785.8 -0)
(8.98215e-06 -28785.8 -0)
(3.308e-06 -28785.8 -0)
(4.8849e-07 -28785.8 -0)
(2.33591e-07 -28785.8 -0)
(9.90348e-08 -28785.8 -0)
(5.3891e-08 -28785.8 -0)
(2.58453e-08 -28785.8 -0)
(1.15764e-08 -28785.8 -0)
(1.35308e-09 -28785.8 -0)
(-4.66062e-09 -28785.8 -0)
(-9.23924e-09 -28785.8 -0)
(-1.20957e-08 -28785.8 -0)
(-1.36538e-08 -28785.8 -0)
(-1.55536e-08 -28785.8 -0)
(-1.68247e-08 -28785.8 -0)
(-1.74944e-08 -28785.8 -0)
(-1.74944e-08 -28785.8 -0)
(-1.72621e-08 -28785.8 -0)
(-1.67974e-08 -28785.8 -0)
(-1.60183e-08 -28785.8 -0)
(-1.49523e-08 -28785.8 -0)
(-1.37632e-08 -28785.8 -0)
(-1.24784e-08 -28785.8 -0)
(-1.10023e-08 -28785.8 -0)
(-9.53992e-09 -28785.8 -0)
(-7.24378e-09 -28785.8 -0)
(-5.02964e-09 -28785.8 -0)
(-3.51255e-09 -28785.8 -0)
(-1.43509e-09 -28785.8 -0)
(1.21641e-09 -28785.8 -0)
(3.36221e-09 -28785.8 -0)
(5.33033e-09 -28785.8 -0)
(7.01143e-09 -28785.8 -0)
(9.32124e-09 -28785.8 -0)
(1.16037e-08 -28785.8 -0)
(1.26561e-08 -28785.8 -0)
(1.39682e-08 -28785.8 -0)
(1.54169e-08 -28785.8 -0)
(1.60047e-08 -28785.8 -0)
(1.63873e-08 -28785.8 -0)
(1.74124e-08 -28785.8 -0)
(1.78361e-08 -28785.8 -0)
(1.70844e-08 -28785.8 -0)
(1.65514e-08 -28785.8 -0)
(1.5704e-08 -28785.8 -0)
(1.47882e-08 -28785.8 -0)
(1.26698e-08 -28785.8 -0)
(9.44425e-09 -28785.8 -0)
(4.57862e-09 -28785.8 -0)
(-1.54443e-09 -28785.8 -0)
(-1.10707e-08 -28785.8 -0)
(-2.61186e-08 -28785.8 -0)
(-5.43147e-08 -28785.8 -0)
(-9.92398e-08 -28785.8 -0)
(-2.34179e-07 -28785.8 -0)
(-4.88777e-07 -28785.8 -0)
(-3.30754e-06 -28785.8 -0)
(-8.98155e-06 -28785.8 -0)
(-5.99058e-06 -28785.8 -0)
(4.02832e-06 -18965.8 -0)
(6.0873e-06 -18965.8 -0)
(2.30613e-06 -18965.8 -0)
(3.71261e-07 -18965.8 -0)
(1.70188e-07 -18965.8 -0)
(7.31091e-08 -18965.8 -0)
(3.956e-08 -18965.8 -0)
(1.94066e-08 -18965.8 -0)
(8.98882e-09 -18965.8 -0)
(1.68713e-09 -18965.8 -0)
(-2.68282e-09 -18965.8 -0)
(-5.95567e-09 -18965.8 -0)
(-8.00235e-09 -18965.8 -0)
(-9.06257e-09 -18965.8 -0)
(-1.0427e-08 -18965.8 -0)
(-1.13582e-08 -18965.8 -0)
(-1.18376e-08 -18965.8 -0)
(-1.18468e-08 -18965.8 -0)
(-1.1644e-08 -18965.8 -0)
(-1.13582e-08 -18965.8 -0)
(-1.08235e-08 -18965.8 -0)
(-1.0132e-08 -18965.8 -0)
(-9.31149e-09 -18965.8 -0)
(-8.46332e-09 -18965.8 -0)
(-7.43076e-09 -18965.8 -0)
(-6.49039e-09 -18965.8 -0)
(-4.93233e-09 -18965.8 -0)
(-3.38348e-09 -18965.8 -0)
(-2.35092e-09 -18965.8 -0)
(-9.77246e-10 -18965.8 -0)
(8.11298e-10 -18965.8 -0)
(2.28639e-09 -18965.8 -0)
(3.61397e-09 -18965.8 -0)
(4.73872e-09 -18965.8 -0)
(6.306e-09 -18965.8 -0)
(7.8825e-09 -18965.8 -0)
(8.57395e-09 -18965.8 -0)
(9.48666e-09 -18965.8 -0)
(1.04178e-08 -18965.8 -0)
(1.08419e-08 -18965.8 -0)
(1.10816e-08 -18965.8 -0)
(1.17823e-08 -18965.8 -0)
(1.20404e-08 -18965.8 -0)
(1.14872e-08 -18965.8 -0)
(1.11646e-08 -18965.8 -0)
(1.0593e-08 -18965.8 -0)
(9.85543e-09 -18965.8 -0)
(8.36191e-09 -18965.8 -0)
(6.10318e-09 -18965.8 -0)
(2.64594e-09 -18965.8 -0)
(-1.75167e-09 -18965.8 -0)
(-8.6477e-09 -18965.8 -0)
(-1.96279e-08 -18965.8 -0)
(-3.98827e-08 -18965.8 -0)
(-7.32012e-08 -18965.8 -0)
(-1.70557e-07 -18965.8 -0)
(-3.71501e-07 -18965.8 -0)
(-2.30584e-06 -18965.8 -0)
(-6.08688e-06 -18965.8 -0)
(-4.02807e-06 -18965.8 -0)
(3.05316e-06 -14276.7 -0)
(4.65097e-06 -14276.7 -0)
(1.81247e-06 -14276.7 -0)
(3.16029e-07 -14276.7 -0)
(1.39833e-07 -14276.7 -0)
(6.062e-08 -14276.7 -0)
(3.26815e-08 -14276.7 -0)
(1.63724e-08 -14276.7 -0)
(7.82783e-09 -14276.7 -0)
(1.86912e-09 -14276.7 -0)
(-1.70751e-09 -14276.7 -0)
(-4.30039e-09 -14276.7 -0)
(-5.92357e-09 -14276.7 -0)
(-6.80895e-09 -14276.7 -0)
(-7.8981e-09 -14276.7 -0)
(-8.64293e-09 -14276.7 -0)
(-9.02238e-09 -14276.7 -0)
(-8.97319e-09 -14276.7 -0)
(-8.87482e-09 -14276.7 -0)
(-8.69915e-09 -14276.7 -0)
(-8.27754e-09 -14276.7 -0)
(-7.7154e-09 -14276.7 -0)
(-7.07596e-09 -14276.7 -0)
(-6.46463e-09 -14276.7 -0)
(-5.69872e-09 -14276.7 -0)
(-4.9328e-09 -14276.7 -0)
(-3.7523e-09 -14276.7 -0)
(-2.62099e-09 -14276.7 -0)
(-1.79885e-09 -14276.7 -0)
(-7.30785e-10 -14276.7 -0)
(6.04303e-10 -14276.7 -0)
(1.74264e-09 -14276.7 -0)
(2.80368e-09 -14276.7 -0)
(3.62582e-09 -14276.7 -0)
(4.78523e-09 -14276.7 -0)
(6.02195e-09 -14276.7 -0)
(6.56301e-09 -14276.7 -0)
(7.23055e-09 -14276.7 -0)
(7.94728e-09 -14276.7 -0)
(8.24944e-09 -14276.7 -0)
(8.43213e-09 -14276.7 -0)
(9.02238e-09 -14276.7 -0)
(9.19805e-09 -14276.7 -0)
(8.72726e-09 -14276.7 -0)
(8.49537e-09 -14276.7 -0)
(8.01755e-09 -14276.7 -0)
(7.43433e-09 -14276.7 -0)
(6.22572e-09 -14276.7 -0)
(4.41282e-09 -14276.7 -0)
(1.63021e-09 -14276.7 -0)
(-1.95344e-09 -14276.7 -0)
(-7.5046e-09 -14276.7 -0)
(-1.64918e-08 -14276.7 -0)
(-3.29626e-08 -14276.7 -0)
(-6.07535e-08 -14276.7 -0)
(-1.40135e-07 -14276.7 -0)
(-3.16135e-07 -14276.7 -0)
(-1.81223e-06 -14276.7 -0)
(-4.65064e-06 -14276.7 -0)
(-3.05297e-06 -14276.7 -0)
(2.51893e-06 -11776.4 -0)
(3.86875e-06 -11776.4 -0)
(1.55064e-06 -11776.4 -0)
(2.91063e-07 -11776.4 -0)
(1.25125e-07 -11776.4 -0)
(5.46316e-08 -11776.4 -0)
(2.93591e-08 -11776.4 -0)
(1.49393e-08 -11776.4 -0)
(7.3208e-09 -11776.4 -0)
(2.06664e-09 -11776.4 -0)
(-1.09754e-09 -11776.4 -0)
(-3.3685e-09 -11776.4 -0)
(-4.77545e-09 -11776.4 -0)
(-5.55773e-09 -11776.4 -0)
(-6.521e-09 -11776.4 -0)
(-7.14566e-09 -11776.4 -0)
(-7.47258e-09 -11776.4 -0)
(-7.46091e-09 -11776.4 -0)
(-7.35582e-09 -11776.4 -0)
(-7.22155e-09 -11776.4 -0)
(-6.90046e-09 -11776.4 -0)
(-6.41008e-09 -11776.4 -0)
(-5.86715e-09 -11776.4 -0)
(-5.36508e-09 -11776.4 -0)
(-4.7521e-09 -11776.4 -0)
(-4.10408e-09 -11776.4 -0)
(-3.13498e-09 -11776.4 -0)
(-2.15421e-09 -11776.4 -0)
(-1.51203e-09 -11776.4 -0)
(-6.36337e-10 -11776.4 -0)
(5.07902e-10 -11776.4 -0)
(1.44781e-09 -11776.4 -0)
(2.34686e-09 -11776.4 -0)
(3.0299e-09 -11776.4 -0)
(3.99316e-09 -11776.4 -0)
(5.02648e-09 -11776.4 -0)
(5.45849e-09 -11776.4 -0)
(5.98974e-09 -11776.4 -0)
(6.6144e-09 -11776.4 -0)
(6.86544e-09 -11776.4 -0)
(7.01138e-09 -11776.4 -0)
(7.47842e-09 -11776.4 -0)
(7.61853e-09 -11776.4 -0)
(7.22155e-09 -11776.4 -0)
(7.01722e-09 -11776.4 -0)
(6.62608e-09 -11776.4 -0)
(6.1065e-09 -11776.4 -0)
(5.04399e-09 -11776.4 -0)
(3.45023e-09 -11776.4 -0)
(1.02748e-09 -11776.4 -0)
(-2.13669e-09 -11776.4 -0)
(-7.02306e-09 -11776.4 -0)
(-1.50444e-08 -11776.4 -0)
(-2.95868e-08 -11776.4 -0)
(-5.47425e-08 -11776.4 -0)
(-1.25358e-07 -11776.4 -0)
(-2.91191e-07 -11776.4 -0)
(-1.55048e-06 -11776.4 -0)
(-3.86845e-06 -11776.4 -0)
(-2.51876e-06 -11776.4 -0)
(2.18035e-06 -10225.1 -0)
(3.37676e-06 -10225.1 -0)
(1.39184e-06 -10225.1 -0)
(2.79859e-07 -10225.1 -0)
(1.17517e-07 -10225.1 -0)
(5.15947e-08 -10225.1 -0)
(2.76156e-08 -10225.1 -0)
(1.42204e-08 -10225.1 -0)
(7.12037e-09 -10225.1 -0)
(2.2665e-09 -10225.1 -0)
(-6.46843e-10 -10225.1 -0)
(-2.76054e-09 -10225.1 -0)
(-4.03386e-09 -10225.1 -0)
(-4.77238e-09 -10225.1 -0)
(-5.64333e-09 -10225.1 -0)
(-6.20358e-09 -10225.1 -0)
(-6.50409e-09 -10225.1 -0)
(-6.46843e-09 -10225.1 -0)
(-6.40222e-09 -10225.1 -0)
(-6.32582e-09 -10225.1 -0)
(-6.03041e-09 -10225.1 -0)
(-5.57202e-09 -10225.1 -0)
(-5.09325e-09 -10225.1 -0)
(-4.68579e-09 -10225.1 -0)
(-4.16119e-09 -10225.1 -0)
(-3.60093e-09 -10225.1 -0)
(-2.7198e-09 -10225.1 -0)
(-1.8896e-09 -10225.1 -0)
(-1.30897e-09 -10225.1 -0)
(-5.65351e-10 -10225.1 -0)
(4.43113e-10 -10225.1 -0)
(1.2835e-09 -10225.1 -0)
(2.07805e-09 -10225.1 -0)
(2.62812e-09 -10225.1 -0)
(3.46851e-09 -10225.1 -0)
(4.39548e-09 -10225.1 -0)
(4.75201e-09 -10225.1 -0)
(5.24096e-09 -10225.1 -0)
(5.77575e-09 -10225.1 -0)
(5.97439e-09 -10225.1 -0)
(6.10172e-09 -10225.1 -0)
(6.52955e-09 -10225.1 -0)
(6.63651e-09 -10225.1 -0)
(6.27998e-09 -10225.1 -0)
(6.10172e-09 -10225.1 -0)
(5.74519e-09 -10225.1 -0)
(5.23077e-09 -10225.1 -0)
(4.26305e-09 -10225.1 -0)
(2.82676e-09 -10225.1 -0)
(6.11191e-10 -10225.1 -0)
(-2.32762e-09 -10225.1 -0)
(-6.83005e-09 -10225.1 -0)
(-1.43273e-08 -10225.1 -0)
(-2.78397e-08 -10225.1 -0)
(-5.16813e-08 -10225.1 -0)
(-1.1772e-07 -10225.1 -0)
(-2.79951e-07 -10225.1 -0)
(-1.3917e-06 -10225.1 -0)
(-3.37653e-06 -10225.1 -0)
(-2.18022e-06 -10225.1 -0)
(1.93165e-06 -9103.04 -0)
(3.01702e-06 -9103.04 -0)
(1.27871e-06 -9103.04 -0)
(2.74278e-07 -9103.04 -0)
(1.13024e-07 -9103.04 -0)
(4.9781e-08 -9103.04 -0)
(2.65562e-08 -9103.04 -0)
(1.38265e-08 -9103.04 -0)
(7.04525e-09 -9103.04 -0)
(2.4713e-09 -9103.04 -0)
(-3.18584e-10 -9103.04 -0)
(-2.2938e-09 -9103.04 -0)
(-3.47711e-09 -9103.04 -0)
(-4.1871e-09 -9103.04 -0)
(-5.01997e-09 -9103.04 -0)
(-5.50239e-09 -9103.04 -0)
(-5.76636e-09 -9103.04 -0)
(-5.77092e-09 -9103.04 -0)
(-5.7254e-09 -9103.04 -0)
(-5.66624e-09 -9103.04 -0)
(-5.37496e-09 -9103.04 -0)
(-4.96535e-09 -9103.04 -0)
(-4.53299e-09 -9103.04 -0)
(-4.2053e-09 -9103.04 -0)
(-3.75474e-09 -9103.04 -0)
(-3.21314e-09 -9103.04 -0)
(-2.42124e-09 -9103.04 -0)
(-1.69304e-09 -9103.04 -0)
(-1.156e-09 -9103.04 -0)
(-4.86978e-10 -9103.04 -0)
(3.77749e-10 -9103.04 -0)
(1.13325e-09 -9103.04 -0)
(1.85234e-09 -9103.04 -0)
(2.36207e-09 -9103.04 -0)
(3.10847e-09 -9103.04 -0)
(3.94589e-09 -9103.04 -0)
(4.25082e-09 -9103.04 -0)
(4.66497e-09 -9103.04 -0)
(5.1474e-09 -9103.04 -0)
(5.35221e-09 -9103.04 -0)
(5.46143e-09 -9103.04 -0)
(5.83008e-09 -9103.04 -0)
(5.91655e-09 -9103.04 -0)
(5.57521e-09 -9103.04 -0)
(5.42502e-09 -9103.04 -0)
(5.09734e-09 -9103.04 -0)
(4.59671e-09 -9103.04 -0)
(3.68647e-09 -9103.04 -0)
(2.36207e-09 -9103.04 -0)
(2.73072e-10 -9103.04 -0)
(-2.50316e-09 -9103.04 -0)
(-6.78128e-09 -9103.04 -0)
(-1.39176e-08 -9103.04 -0)
(-2.67656e-08 -9103.04 -0)
(-4.98765e-08 -9103.04 -0)
(-1.13197e-07 -9103.04 -0)
(-2.74351e-07 -9103.04 -0)
(-1.2786e-06 -9103.04 -0)
(-3.0168e-06 -9103.04 -0)
(-1.9315e-06 -9103.04 -0)
(1.7285e-06 -8195.35 -0)
(2.72312e-06 -8195.35 -0)
(1.18669e-06 -8195.35 -0)
(2.7059e-07 -8195.35 -0)
(1.09875e-07 -8195.35 -0)
(4.84717e-08 -8195.35 -0)
(2.57814e-08 -8195.35 -0)
(1.35484e-08 -8195.35 -0)
(7.01672e-09 -8195.35 -0)
(2.62664e-09 -8195.35 -0)
(-4.93267e-11 -8195.35 -0)
(-1.89497e-09 -8195.35 -0)
(-3.00893e-09 -8195.35 -0)
(-3.71183e-09 -8195.35 -0)
(-4.47639e-09 -8195.35 -0)
(-4.96144e-09 -8195.35 -0)
(-5.20396e-09 -8195.35 -0)
(-5.18752e-09 -8195.35 -0)
(-5.17519e-09 -8195.35 -0)
(-5.11764e-09 -8195.35 -0)
(-4.87923e-09 -8195.35 -0)
(-4.46817e-09 -8195.35 -0)
(-4.06945e-09 -8195.35 -0)
(-3.78993e-09 -8195.35 -0)
(-3.40765e-09 -8195.35 -0)
(-2.90205e-09 -8195.35 -0)
(-2.18682e-09 -8195.35 -0)
(-1.53735e-09 -8195.35 -0)
(-1.03997e-09 -8195.35 -0)
(-4.52161e-10 -8195.35 -0)
(3.32955e-10 -8195.35 -0)
(1.03997e-09 -8195.35 -0)
(1.69355e-09 -8195.35 -0)
(2.12105e-09 -8195.35 -0)
(2.79929e-09 -8195.35 -0)
(3.57207e-09 -8195.35 -0)
(3.86392e-09 -8195.35 -0)
(4.19277e-09 -8195.35 -0)
(4.63671e-09 -8195.35 -0)
(4.84634e-09 -8195.35 -0)
(4.93678e-09 -8195.35 -0)
(5.26973e-09 -8195.35 -0)
(5.31495e-09 -8195.35 -0)
(5.01488e-09 -8195.35 -0)
(4.88334e-09 -8195.35 -0)
(4.57094e-09 -8195.35 -0)
(4.07767e-09 -8195.35 -0)
(3.21445e-09 -8195.35 -0)
(1.97307e-09 -8195.35 -0)
(-8.22111e-12 -8195.35 -0)
(-2.65542e-09 -8195.35 -0)
(-6.7372e-09 -8195.35 -0)
(-1.36429e-08 -8195.35 -0)
(-2.59746e-08 -8195.35 -0)
(-4.85785e-08 -8195.35 -0)
(-1.10035e-07 -8195.35 -0)
(-2.70639e-07 -8195.35 -0)
(-1.1866e-06 -8195.35 -0)
(-2.72294e-06 -8195.35 -0)
(-1.72837e-06 -8195.35 -0)
(1.55262e-06 -7413.56 -0)
(2.4676e-06 -7413.56 -0)
(1.10563e-06 -7413.56 -0)
(2.67192e-07 -7413.56 -0)
(1.07318e-07 -7413.56 -0)
(4.73937e-08 -7413.56 -0)
(2.51215e-08 -7413.56 -0)
(1.32992e-08 -7413.56 -0)
(6.98896e-09 -7413.56 -0)
(2.7747e-09 -7413.56 -0)
(2.0139e-10 -7413.56 -0)
(-1.57382e-09 -7413.56 -0)
(-2.63298e-09 -7413.56 -0)
(-3.3192e-09 -7413.56 -0)
(-4.03525e-09 -7413.56 -0)
(-4.46786e-09 -7413.56 -0)
(-4.69909e-09 -7413.56 -0)
(-4.69163e-09 -7413.56 -0)
(-4.67671e-09 -7413.56 -0)
(-4.65434e-09 -7413.56 -0)
(-4.43803e-09 -7413.56 -0)
(-4.04271e-09 -7413.56 -0)
(-3.66977e-09 -7413.56 -0)
(-3.43854e-09 -7413.56 -0)
(-3.11781e-09 -7413.56 -0)
(-2.66282e-09 -7413.56 -0)
(-1.9766e-09 -7413.56 -0)
(-1.38735e-09 -7413.56 -0)
(-9.32359e-10 -7413.56 -0)
(-4.02779e-10 -7413.56 -0)
(3.05814e-10 -7413.56 -0)
(9.39818e-10 -7413.56 -0)
(1.52161e-09 -7413.56 -0)
(1.93185e-09 -7413.56 -0)
(2.56585e-09 -7413.56 -0)
(3.25953e-09 -7413.56 -0)