/*--------------------------------*- C++ -*----------------------------------*\
| =========                 |                                                 |
| \\      /  F ield         | foam-extend: Open Source CFD                    |
|  \\    /   O peration     | Version:     4.0                                |
|   \\  /    A nd           | Web:         http://www.foam-extend.org         |
|    \\/     M anipulation  |                                                 |
\*---------------------------------------------------------------------------*/
FoamFile
{
    version     2.0;
    format      ascii;
    class       surfaceScalarField;
    location    "7";
    object      phi;
}
// * * * * * * * * * * * * * * * * * * * * * * * * * * * * * * * * * * * * * //

dimensions      [0 3 -1 0 0 0 0];

internalField   nonuniform List<scalar> 
13744
(
-8.9357e-09
8.93509e-09
4.18494e-09
-1.31206e-08
1.2758e-10
4.05737e-09
4.35719e-11
8.40099e-11
1.5215e-11
2.83574e-11
8.56923e-12
6.6458e-12
4.89233e-12
3.67761e-12
3.22001e-12
1.672e-12
2.17411e-12
1.04339e-12
1.55552e-12
6.1795e-13
1.13964e-12
4.14335e-13
8.58292e-13
2.79221e-13
6.59128e-13
1.96954e-13
5.12225e-13
1.47882e-13
4.04242e-13
1.0969e-13
3.2124e-13
8.10463e-14
2.56773e-13
6.43929e-14
2.06478e-13
5.10703e-14
1.66922e-13
3.86358e-14
1.34094e-13
3.03091e-14
1.08435e-13
2.65343e-14
8.74085e-14
2.13163e-14
6.93512e-14
1.69864e-14
5.5011e-14
1.70974e-14
4.30045e-14
1.03251e-14
3.18948e-14
1.16573e-14
2.30429e-14
8.65974e-15
1.51894e-14
6.32827e-15
6.99698e-15
1.11022e-14
-1.0751e-15
8.43769e-15
-4.30657e-15
4.21885e-15
-1.77663e-14
1.27676e-14
-2.30648e-14
6.77236e-15
-2.92467e-14
7.99361e-15
-4.56584e-14
1.35447e-14
-5.50057e-14
9.65894e-15
-6.66893e-14
1.5099e-14
-9.00478e-14
2.43139e-14
-1.08444e-13
1.94289e-14
-1.31472e-13
2.30926e-14
-1.69589e-13
3.80806e-14
-2.06478e-13
3.69704e-14
-2.54151e-13
4.79616e-14
-3.23904e-13
7.12763e-14
-4.0426e-13
8.00471e-14
-5.09567e-13
1.05249e-13
-6.61743e-13
1.52767e-13
-8.5828e-13
1.9984e-13
-1.13701e-12
2.77445e-13
-1.55819e-12
4.21441e-13
-2.17411e-12
6.17617e-13
-3.21738e-12
1.04172e-12
-4.89502e-12
1.67666e-12
-8.56928e-12
3.67362e-12
-1.52124e-11
6.64335e-12
-4.35745e-11
2.83623e-11
-1.2758e-10
8.40062e-11
-4.18494e-09
4.05736e-09
8.9357e-09
-1.31206e-08
8.9357e-09
3.88975e-08
-2.99624e-08
6.17478e-09
1.96021e-08
3.85853e-10
9.84629e-09
1.35179e-10
3.34681e-10
4.71913e-11
1.16343e-10
2.68559e-11
2.69766e-11
1.51829e-11
1.53525e-11
1.00947e-11
6.7597e-12
6.75331e-12
4.38877e-12
4.87162e-12
2.49856e-12
3.54492e-12
1.74555e-12
2.68726e-12
1.14253e-12
2.04961e-12
8.37552e-13
1.60452e-12
5.92915e-13
1.2592e-12
4.53859e-13
1.0032e-12
3.40894e-13
8.02217e-13
2.67453e-13
6.45757e-13
2.0417e-13
5.19183e-13
1.67866e-13
4.21054e-13
1.31783e-13
3.38593e-13
1.10245e-13
2.71766e-13
8.85403e-14
2.18361e-13
7.12763e-14
1.72126e-13
5.4623e-14
1.32806e-13
5.35683e-14
1.01496e-13
3.93574e-14
7.20834e-14
3.42504e-14
4.58066e-14
2.9976e-14
2.41834e-14
3.05311e-14
5.56332e-16
2.95874e-14
-2.94457e-14
3.24185e-14
-3.9098e-14
2.41474e-14
-7.21498e-14
3.9746e-14
-1.08157e-13
3.74145e-14
-1.26174e-13
4.14113e-14
-1.72125e-13
5.2125e-14
-2.24962e-13
6.55587e-14
-2.65104e-13
6.15064e-14
-3.38618e-13
9.22595e-14
-4.27778e-13
1.10023e-13
-5.12583e-13
1.19849e-13
-6.45781e-13
1.73472e-13
-8.08929e-13
2.11275e-13
-9.966e-13
2.54741e-13
-1.25926e-12
3.42115e-13
-1.61115e-12
4.55969e-13
-2.04287e-12
5.84977e-13
-2.68724e-12
8.35054e-13
-3.55162e-12
1.14314e-12
-4.86502e-12
1.73722e-12
-6.75334e-12
2.49945e-12
-1.01014e-11
4.39238e-12
-1.51764e-11
6.74866e-12
-2.6856e-11
1.53538e-11
-4.7198e-11
2.69829e-11
-1.35172e-10
1.16338e-10
-3.85853e-10
3.34687e-10
-6.17479e-09
9.84629e-09
-3.88975e-08
1.96021e-08
-2.99618e-08
2.91417e-08
-5.91041e-08
1.11241e-08
3.76197e-08
6.43633e-10
2.03267e-08
2.32126e-10
7.46187e-10
8.19166e-11
2.66552e-10
4.67607e-11
6.21359e-11
2.63704e-11
3.57458e-11
1.75913e-11
1.55407e-11
1.1733e-11
1.02452e-11
8.49137e-12
5.74461e-12
6.16051e-12
4.07427e-12
4.6831e-12
2.6151e-12
3.5649e-12
1.9539e-12
2.7951e-12
1.36158e-12
2.19065e-12
1.05974e-12
1.74905e-12
7.81819e-13
1.39545e-12
6.15355e-13
1.12544e-12
4.77965e-13
9.05018e-13
3.87315e-13
7.33102e-13
3.03355e-13
5.89954e-13
2.48981e-13
4.74766e-13
1.96718e-13
3.79768e-13
1.73014e-13
3.00262e-13
1.41553e-13
2.32507e-13
1.15921e-13
1.76239e-13
1.04597e-13
1.25768e-13
8.6306e-14
8.08428e-14
8.539e-14
4.08333e-14
6.77236e-14
-6.65229e-16
7.19563e-14
-4.30877e-14
8.09769e-14
-7.70324e-14
5.8592e-14
-1.25885e-13
8.84154e-14
-1.79932e-13
9.62563e-14
-2.28873e-13
8.68611e-14
-3.00267e-13
1.25289e-13
-3.83385e-13
1.49172e-13
-4.71066e-13
1.53197e-13
-5.89997e-13
2.05974e-13
-7.36915e-13
2.59875e-13
-9.01401e-13
2.90087e-13
-1.12549e-12
3.93907e-13
-1.39925e-12
4.8532e-13
-1.74544e-12
6.00228e-13
-2.19075e-12
7.8898e-13
-2.79878e-12
1.06389e-12
-3.56109e-12
1.34355e-12
-4.68307e-12
1.96326e-12
-6.16429e-12
2.62497e-12
-8.48776e-12
4.05828e-12
-1.17331e-11
5.74779e-12
-1.75951e-11
1.0252e-11
-2.63669e-11
1.55253e-11
-4.67609e-11
3.57493e-11
-8.19204e-11
6.2146e-11
-2.32122e-10
2.66542e-10
-6.43633e-10
7.46199e-10
-1.11241e-08
2.03268e-08
-2.91417e-08
3.76197e-08
-5.91035e-08
1.23923e-08
-7.14965e-08
1.0601e-08
3.94111e-08
8.9492e-10
3.00328e-08
3.33336e-10
1.30777e-09
1.1962e-10
4.80269e-10
6.82989e-11
1.13459e-10
3.85406e-11
6.54983e-11
2.57302e-11
2.83524e-11
1.71512e-11
1.88253e-11
1.24255e-11
1.04704e-11
9.00691e-12
7.48688e-12
6.8536e-12
4.76556e-12
5.21427e-12
3.59243e-12
4.09052e-12
2.48478e-12
3.20483e-12
1.93933e-12
2.56098e-12
1.42309e-12
2.04165e-12
1.14271e-12
1.6479e-12
8.67778e-13
1.3255e-12
7.06567e-13
1.07319e-12
5.52072e-13
8.64047e-13
4.63515e-13
6.96183e-13
3.76359e-13
5.55882e-13
3.08153e-13
4.40095e-13
2.56212e-13
3.41393e-13
2.15584e-13
2.57855e-13
1.78597e-13
1.8442e-13
1.5923e-13
1.1903e-13
1.42199e-13
5.87175e-14
1.32533e-13
-1.20702e-15
1.32984e-13
-5.82796e-14
1.37737e-13
-1.1859e-13
1.21382e-13
-1.84577e-13
1.52021e-13
-2.58295e-13
1.75256e-13
-3.41047e-13
1.68175e-13
-4.40119e-13
2.23068e-13
-5.56209e-13
2.61e-13
-6.95751e-13
2.92263e-13
-8.64111e-13
3.84321e-13
-1.07379e-12
4.70526e-13
-1.32519e-12
5.38528e-13
-1.648e-12
7.18006e-13
-2.04222e-12
8.75685e-13
-2.56067e-12
1.12209e-12
-3.20498e-12
1.43554e-12
-4.09093e-12
1.9575e-12
-5.2137e-12
2.47077e-12
-6.85357e-12
3.60346e-12
-9.00748e-12
4.7789e-12
-1.24252e-11
7.47334e-12
-1.71513e-11
1.04745e-11
-2.57308e-11
1.88315e-11
-3.85405e-11
2.83355e-11
-6.82992e-11
6.5507e-11
-1.19621e-10
1.13467e-10
-3.33335e-10
4.80251e-10
-8.94919e-10
1.30778e-09
-1.0601e-08
3.00328e-08
-1.23923e-08
3.9411e-08
-7.14958e-08
1.19365e-08
-8.3433e-08
8.7113e-09
4.26363e-08
1.14524e-09
3.75989e-08
4.38286e-10
2.01473e-09
1.60395e-10
7.58153e-10
9.15462e-11
1.82306e-10
5.17509e-11
1.05298e-10
3.45511e-11
4.55449e-11
2.30362e-11
3.03381e-11
1.6694e-11
1.68102e-11
1.20999e-11
1.20895e-11
9.21033e-12
7.65745e-12
7.00629e-12
5.7972e-12
5.49819e-12
3.99196e-12
4.3073e-12
3.14013e-12
3.44299e-12
2.2912e-12
2.74476e-12
1.83037e-12
2.21602e-12
1.40466e-12
1.78251e-12
1.14566e-12
1.44363e-12
8.94377e-13
1.16238e-12
7.43038e-13
9.36764e-13
5.97935e-13
7.48097e-13
4.95356e-13
5.92399e-13
4.08396e-13
4.5959e-13
3.4587e-13
3.47238e-13
2.9497e-13
2.48343e-13
2.62725e-13
1.60228e-13
2.31482e-13
7.88364e-14
2.08997e-13
-8.50389e-16
2.15322e-13
-7.89538e-14
2.15106e-13
-1.59613e-13
1.94032e-13
-2.48541e-13
2.4375e-13
-3.47995e-13
2.68444e-13
-4.58971e-13
2.77388e-13
-5.92449e-13
3.62025e-13
-7.48706e-13
4.21374e-13
-9.36025e-13
4.7572e-13
-1.16247e-12
6.03916e-13
-1.44458e-12
7.48762e-13
-1.78194e-12
8.75143e-13
-2.21618e-12
1.15419e-12
-2.74569e-12
1.41126e-12
-3.4424e-12
1.81611e-12
-4.30748e-12
2.29552e-12
-5.49894e-12
3.13855e-12
-7.00539e-12
3.97849e-12
-9.21031e-12
5.80702e-12
-1.21008e-11
7.66598e-12
-1.66934e-11
1.20691e-11
-2.30363e-11
1.6816e-11
-3.45521e-11
3.03484e-11
-5.17506e-11
4.55291e-11
-9.15465e-11
1.05301e-10
-1.60396e-10
1.82315e-10
-4.38285e-10
7.58147e-10
-1.14524e-09
2.01474e-09
-8.7113e-09
3.75989e-08
-1.19365e-08
4.26363e-08
-8.34324e-08
1.51578e-08
-9.85908e-08
8.4187e-09
4.93754e-08
1.39749e-09
4.46201e-08
5.46863e-10
2.86536e-09
2.04326e-10
1.10069e-09
1.16577e-10
2.70057e-10
6.60605e-11
1.55815e-10
4.40938e-11
6.75125e-11
2.94172e-11
4.50148e-11
2.13185e-11
2.49056e-11
1.54551e-11
1.79557e-11
1.17655e-11
1.13496e-11
8.95081e-12
8.6092e-12
7.02523e-12
5.92378e-12
5.50397e-12
4.65686e-12
4.40014e-12
3.39381e-12
3.50828e-12
2.73261e-12
2.83285e-12
2.07567e-12
2.27888e-12
1.69851e-12
1.84605e-12
1.32543e-12
1.48658e-12
1.10246e-12
1.19819e-12
8.82261e-13
9.5711e-13
7.41737e-13
7.58007e-13
6.09981e-13
5.8812e-13
5.21229e-13
4.44519e-13
4.36907e-13
3.17893e-13
3.8622e-13
2.05031e-13
3.47614e-13
1.00911e-13
3.1956e-13
-6.27206e-16
3.11494e-13
-1.01772e-13
3.14355e-13
-2.03772e-13
2.94749e-13
-3.18149e-13
3.57453e-13
-4.46014e-13
3.99247e-13
-5.86789e-13
4.26199e-13
-7.58086e-13
5.24439e-13
-9.58438e-13
6.19784e-13
-1.19673e-12
7.15771e-13
-1.4867e-12
8.98722e-13
-1.84778e-12
1.11428e-12
-2.27762e-12
1.30913e-12
-2.83307e-12
1.70882e-12
-3.50998e-12
2.0859e-12
-4.39886e-12
2.70541e-12
-5.50421e-12
3.40677e-12
-7.02671e-12
4.6678e-12
-8.94917e-12
5.89426e-12
-1.17655e-11
8.62595e-12
-1.54568e-11
1.13587e-11
-2.13172e-11
1.79336e-11
-2.94173e-11
2.49164e-11
-4.40956e-11
4.50315e-11
-6.60596e-11
6.74948e-11
-1.16577e-10
1.55817e-10
-2.04328e-10
2.70063e-10
-5.46861e-10
1.10068e-09
-1.39749e-09
2.86536e-09
-8.4187e-09
4.46201e-08
-1.51578e-08
4.93754e-08
-9.85902e-08
1.53711e-08
-1.13962e-07
8.72214e-09
5.60244e-08
1.64887e-09
5.16933e-08
6.59061e-10
3.85517e-09
2.51482e-10
1.50827e-09
1.43464e-10
3.78065e-10
8.15294e-11
2.17748e-10
5.43999e-11
9.46427e-11
3.63249e-11
6.30884e-11
2.63214e-11
3.49114e-11
1.90893e-11
2.51795e-11
1.4532e-11
1.5902e-11
1.1058e-11
1.20854e-11
8.67938e-12
8.29602e-12
6.80113e-12
6.531e-12
5.4376e-12
4.7589e-12
4.3361e-12
3.8319e-12
3.50168e-12
2.91016e-12
2.8174e-12
2.38369e-12
2.28251e-12
1.86149e-12
1.83839e-12
1.5469e-12
1.482e-12
1.24639e-12
1.18394e-12
1.03901e-12
9.37823e-13
8.57502e-13
7.27799e-13
7.29708e-13
5.50094e-13
6.09988e-13
3.93464e-13
5.41158e-13
2.53808e-13
4.79841e-13
1.24782e-13
4.5007e-13
-6.27771e-16
4.36046e-13
-1.25703e-13
4.40268e-13
-2.52615e-13
4.29369e-13
-3.93771e-13
4.98841e-13
-5.51599e-13
5.58377e-13
-7.26517e-13
5.93159e-13
-9.37917e-13
7.42609e-13
-1.18525e-12
8.63701e-13
-1.48055e-12
1.00864e-12
-1.83855e-12
1.25851e-12
-2.28429e-12
1.55671e-12
-2.8162e-12
1.83874e-12
-3.50196e-12
2.3906e-12
-4.33786e-12
2.92377e-12
-5.43635e-12
3.7998e-12
-6.80142e-12
4.7677e-12
-8.68089e-12
6.54649e-12
-1.10564e-11
8.27538e-12
-1.4532e-11
1.21024e-11
-1.90911e-11
1.59161e-11
-2.63202e-11
2.51583e-11
-3.6325e-11
3.49239e-11
-5.44017e-11
6.31017e-11
-8.15286e-11
9.46255e-11
-1.43464e-10
2.17756e-10
-2.51483e-10
3.78083e-10
-6.59059e-10
1.50826e-09
-1.64887e-09
3.85518e-09
-8.72214e-09
5.16933e-08
-1.53711e-08
5.60244e-08
-1.13961e-07
1.4166e-08
-1.28128e-07
8.75231e-09
6.14381e-08
1.89654e-09
5.85491e-08
7.74628e-10
4.97708e-09
3.01916e-10
1.98098e-09
1.72275e-10
5.07713e-10
9.8218e-11
2.918e-10
6.55122e-11
1.27346e-10
4.37911e-11
8.48074e-11
3.1726e-11
4.697e-11
2.30205e-11
3.38905e-11
1.75234e-11
2.13999e-11
1.33385e-11
1.62675e-11
1.0469e-11
1.11707e-11
8.20545e-12
8.80032e-12
6.56062e-12
6.40134e-12
5.23259e-12
5.15419e-12
4.22598e-12
3.91806e-12
3.40086e-12
3.20591e-12
2.75536e-12
2.5107e-12
2.21969e-12
2.07821e-12
1.78965e-12
1.67196e-12
1.42984e-12
1.39698e-12
1.13281e-12
1.15835e-12
8.79329e-13
9.80391e-13
6.64607e-13
8.33284e-13
4.75455e-13
7.3391e-13
3.0677e-13
6.57633e-13
1.50631e-13
6.06109e-13
-6.38297e-16
5.92644e-13
-1.51434e-13
5.91637e-13
-3.05883e-13
5.79908e-13
-4.75826e-13
6.70255e-13
-6.65894e-13
7.4783e-13
-8.78317e-13
8.09943e-13
-1.13293e-12
9.96114e-13
-1.43091e-12
1.16683e-12
-1.78843e-12
1.37093e-12
-2.21989e-12
1.68535e-12
-2.75695e-12
2.10225e-12
-3.39995e-12
2.47958e-12
-4.22632e-12
3.2177e-12
-5.23419e-12
3.93764e-12
-6.55964e-12
5.13356e-12
-8.20578e-12
6.41423e-12
-1.04703e-11
8.81183e-12
-1.3337e-11
1.11419e-11
-1.75234e-11
1.62878e-11
-2.30221e-11
2.1418e-11
-3.17251e-11
3.38648e-11
-4.37913e-11
4.69999e-11
-6.55139e-11
8.4826e-11
-9.82175e-11
1.27331e-10
-1.72276e-10
2.91813e-10
-3.01918e-10
5.07726e-10
-7.74627e-10
1.98096e-09
-1.89654e-09
4.97709e-09
-8.75231e-09
5.85491e-08
-1.4166e-08
6.1438e-08
-1.28127e-07
1.3149e-08
-1.41277e-07
8.56385e-09
6.60232e-08
2.13932e-09
6.49736e-08
8.93166e-10
6.22323e-09
3.55665e-10
2.51848e-09
2.03076e-10
6.60299e-10
1.16187e-10
3.78692e-10
7.74746e-11
1.66063e-10
5.18488e-11
1.10434e-10
3.75566e-11
6.12736e-11
2.72671e-11
4.41721e-11
2.07538e-11
2.7923e-11
1.58033e-11
2.1224e-11
1.2403e-11
1.45687e-11
9.72395e-12
1.1473e-11
7.77481e-12
8.35139e-12
6.20238e-12
6.73771e-12
5.00946e-12
5.10796e-12
4.03223e-12
4.19239e-12
3.26706e-12
3.27587e-12
2.63248e-12
2.71428e-12
2.12272e-12
2.18429e-12
1.69618e-12
1.83121e-12
1.34399e-12
1.50808e-12
1.04351e-12
1.28373e-12
7.88693e-13
1.08149e-12
5.64319e-13
9.50915e-13
3.64144e-13
8.54118e-13
1.78668e-13
7.88614e-13
-6.14618e-16
7.72818e-13
-1.79446e-13
7.69198e-13
-3.6349e-13
7.62783e-13
-5.64753e-13
8.68215e-13
-7.89853e-13
9.71742e-13
-1.04268e-12
1.0607e-12
-1.34416e-12
1.29529e-12
-1.69707e-12
1.51872e-12
-2.12167e-12
1.79798e-12
-2.63271e-12
2.19694e-12
-3.26858e-12
2.73098e-12
-4.03153e-12
3.24224e-12
-5.00987e-12
4.19534e-12
-6.20389e-12
5.12161e-12
-7.77403e-12
6.70063e-12
-9.72433e-12
8.36825e-12
-1.24042e-11
1.14891e-11
-1.5802e-11
1.45379e-11
-2.07539e-11
2.12374e-11
-2.72686e-11
2.79313e-11
-3.75558e-11
4.4151e-11
-5.1849e-11
6.12852e-11
-7.74762e-11
1.10452e-10
-1.16187e-10
1.66036e-10
-2.03077e-10
3.78702e-10
-3.55667e-10
6.60315e-10
-8.93164e-10
2.51846e-09
-2.13932e-09
6.22324e-09
-8.56385e-09
6.49737e-08
-1.3149e-08
6.60232e-08
-1.41276e-07
1.23805e-08
-1.53657e-07
8.34165e-09
7.00621e-08
2.37643e-09
7.09389e-08
1.01427e-09
7.58538e-09
4.12744e-10
3.12001e-09
2.35927e-10
8.3712e-10
1.35496e-10
4.79127e-10
9.03316e-11
2.11229e-10
6.05319e-11
1.40237e-10
4.38385e-11
7.79669e-11
3.18487e-11
5.61628e-11
2.42384e-11
3.55255e-11
1.84643e-11
2.69914e-11
1.44906e-11
1.85458e-11
1.13641e-11
1.4612e-11
9.08616e-12
1.06271e-11
7.25026e-12
8.56175e-12
5.85605e-12
6.50565e-12
4.71471e-12
5.33198e-12
3.82024e-12
4.16948e-12
3.07887e-12
3.45932e-12
2.48295e-12
2.77707e-12
1.9843e-12
2.32255e-12
1.57249e-12
1.91365e-12
1.22117e-12
1.63666e-12
9.23015e-13
1.38301e-12
6.60532e-13
1.21894e-12
4.26255e-13
1.08606e-12
2.09049e-13
1.01022e-12
-5.76527e-16
9.81972e-13
-2.0985e-13
9.80516e-13
-4.25786e-13
9.7838e-13
-6.61029e-13
1.10015e-12
-9.2411e-13
1.23901e-12
-1.22047e-12
1.35948e-12
-1.57269e-12
1.65061e-12
-1.98509e-12
1.92961e-12
-2.482e-12
2.28819e-12
-3.07914e-12
2.79187e-12
-3.82173e-12
3.47343e-12
-4.71418e-12
4.13508e-12
-5.85653e-12
5.34125e-12
-7.25176e-12
6.52095e-12
-9.08551e-12
8.53381e-12
-1.13645e-11
1.06427e-11
-1.44917e-11
1.46147e-11
-1.84631e-11
1.85116e-11
-2.42385e-11
2.70154e-11
-3.18502e-11
3.55428e-11
-4.38379e-11
5.61373e-11
-6.05322e-11
7.79822e-11
-9.03332e-11
1.40251e-10
-1.35496e-10
2.11202e-10
-2.35927e-10
4.7913e-10
-4.12745e-10
8.3713e-10
-1.01427e-09
3.11999e-09
-2.37643e-09
7.58539e-09
-8.34165e-09
7.09389e-08
-1.23806e-08
7.00621e-08
-1.53657e-07
1.16197e-08
-1.65277e-07
8.12397e-09
7.35578e-08
2.60672e-09
7.64561e-08
1.13755e-09
9.05455e-09
4.73144e-10
3.78441e-09
2.70879e-10
1.03939e-09
1.56205e-10
5.93795e-10
1.04128e-10
2.63305e-10
6.98756e-11
1.74484e-10
5.05979e-11
9.72396e-11
3.67856e-11
6.99795e-11
2.79927e-11
4.43198e-11
2.13337e-11
3.36526e-11
1.67416e-11
2.31443e-11
1.31336e-11
1.82145e-11
1.05009e-11
1.32637e-11
8.38139e-12
1.06867e-11
6.76988e-12
8.11298e-12
5.4517e-12
6.6406e-12
4.41766e-12
5.20113e-12
3.56111e-12
4.30673e-12
2.87215e-12
3.47232e-12
2.2957e-12
2.89928e-12
1.8195e-12
2.39923e-12
1.41328e-12
2.03311e-12
1.06827e-12
1.72498e-12
7.64582e-13
1.51841e-12
4.93448e-13
1.35701e-12
2.41908e-13
1.25801e-12
-5.41372e-16
1.21731e-12
-2.42748e-13
1.21686e-12
-4.93149e-13
1.22855e-12
-7.65137e-13
1.37456e-12
-1.0693e-12
1.53261e-12
-1.41271e-12
1.70452e-12
-1.81972e-12
2.05739e-12
-2.2964e-12
2.40823e-12
-2.87131e-12
2.86492e-12
-3.56144e-12
3.48715e-12
-4.41911e-12
4.33474e-12
-5.45134e-12
5.16968e-12
-6.77047e-12
6.65658e-12
-8.38286e-12
8.13417e-12
-1.05004e-11
1.06526e-11
-1.31341e-11
1.32821e-11
-1.67426e-11
1.82245e-11
-2.13326e-11
2.31057e-11
-2.79928e-11
3.36714e-11
-3.6787e-11
4.4335e-11
-5.05975e-11
6.99509e-11
-6.98759e-11
9.72601e-11
-1.0413e-10
1.74511e-10
-1.56206e-10
2.63284e-10
-2.7088e-10
5.93806e-10
-4.73146e-10
1.03939e-09
-1.13755e-09
3.78439e-09
-2.60672e-09
9.05457e-09
-8.12397e-09
7.64561e-08
-1.16197e-08
7.35578e-08
-1.65277e-07
1.08102e-08
-1.76087e-07
7.89412e-09
7.64739e-08
2.82886e-09
8.15214e-08
1.26254e-09
1.06209e-08
5.36834e-10
4.51013e-09
3.0798e-10
1.26824e-09
1.78373e-10
7.23405e-10
1.18911e-10
3.22772e-10
7.99158e-11
2.13481e-10
5.78621e-11
1.19292e-10
4.20988e-11
8.57398e-11
3.2033e-11
5.43854e-11
2.44247e-11
4.12617e-11
1.91662e-11
2.83958e-11
1.50409e-11
2.2337e-11
1.20258e-11
1.62775e-11
9.60113e-12
1.31038e-11
7.75536e-12
9.95159e-12
6.2468e-12
8.15935e-12
5.06222e-12
6.38712e-12
4.08164e-12
5.29449e-12
3.29226e-12
4.257e-12
2.63194e-12
3.55859e-12
2.08621e-12
2.94464e-12
1.6208e-12
2.50651e-12
1.2252e-12
2.12093e-12
8.77019e-13
1.8714e-12
5.66059e-13
1.67637e-12
2.77423e-13
1.54623e-12
-5.03468e-16
1.50044e-12
-2.78294e-13
1.49957e-12
-5.65939e-13
1.51981e-12
-8.7766e-13
1.68992e-12
-1.22615e-12
1.88697e-12
-1.62036e-12
2.09938e-12
-2.08649e-12
2.52363e-12
-2.63254e-12
2.95411e-12
-3.29155e-12
3.52078e-12
-4.082e-12
4.277e-12
-5.06365e-12
5.31768e-12
-6.24662e-12
6.34857e-12
-7.75605e-12
8.16601e-12
-9.6026e-12
9.98198e-12
-1.20255e-11
1.30681e-11
-1.50415e-11
1.62888e-11
-1.91671e-11
2.23519e-11
-2.44237e-11
2.83618e-11
-3.20332e-11
4.12864e-11
-4.21002e-11
5.44069e-11
-5.78618e-11
8.57104e-11
-7.99161e-11
1.19318e-10
-1.18912e-10
2.13503e-10
-1.78373e-10
3.22739e-10
-3.07981e-10
7.23421e-10
-5.36835e-10
1.26825e-09
-1.26254e-09
4.5101e-09
-2.82886e-09
1.06209e-08
-7.89412e-09
8.15214e-08
-1.08102e-08
7.64739e-08
-1.76087e-07
9.97749e-09
-1.86065e-07
7.64429e-09
7.88071e-08
3.04152e-09
8.61241e-08
1.38875e-09
1.22737e-08
6.03752e-10
5.29512e-09
3.47263e-10
1.52473e-09
2.02054e-10
8.68613e-10
1.34724e-10
3.90099e-10
9.06891e-11
2.5752e-10
6.56591e-11
1.44324e-10
4.78104e-11
1.03587e-10
3.63766e-11
6.58118e-11
2.77506e-11
4.98819e-11
2.17752e-11
3.43731e-11
1.70946e-11
2.70164e-11
1.36678e-11
1.97055e-11
1.09152e-11
1.58613e-11
8.81715e-12
1.20649e-11
7.10378e-12
9.87111e-12
5.75705e-12
7.72732e-12
4.64292e-12
6.40261e-12
3.74536e-12
5.15336e-12
2.99469e-12
4.31176e-12
2.374e-12
3.5683e-12
1.84477e-12
3.03078e-12
1.39461e-12
2.56913e-12
9.98422e-13
2.2612e-12
6.44442e-13
2.03036e-12
3.15784e-13
1.87107e-12
-4.69588e-16
1.81798e-12
-3.16682e-13
1.81237e-12
-6.44521e-13
1.84023e-12
-9.99136e-13
2.03796e-12
-1.39546e-12
2.28115e-12
-1.84447e-12
2.54153e-12
-2.37433e-12
3.05371e-12
-2.99518e-12
3.58248e-12
-3.74476e-12
4.27331e-12
-4.64333e-12
5.17053e-12
-5.75847e-12
6.42998e-12
-7.1038e-12
7.69745e-12
-8.81792e-12
9.88197e-12
-1.09167e-11
1.20791e-11
-1.36676e-11
1.58275e-11
-1.70952e-11
1.97247e-11
-2.17761e-11
2.70307e-11
-2.77498e-11
3.4326e-11
-3.63768e-11
4.99129e-11
-4.78118e-11
6.58391e-11
-6.56589e-11
1.03552e-10
-9.06895e-11
1.44346e-10
-1.34725e-10
2.57543e-10
-2.02055e-10
3.90074e-10
-3.47264e-10
8.68621e-10
-6.03753e-10
1.52474e-09
-1.38875e-09
5.2951e-09
-3.04152e-09
1.22737e-08
-7.64429e-09
8.61242e-08
-9.97749e-09
7.88071e-08
-1.86064e-07
9.13775e-09
-1.95203e-07
7.37562e-09
8.05693e-08
3.2434e-09
9.02564e-08
1.51563e-09
1.40014e-08
6.73806e-10
6.13695e-09
3.88755e-10
1.80978e-09
2.27303e-10
1.03006e-09
1.51613e-10
4.65786e-10
1.02233e-10
3.06897e-10
7.40176e-11
1.72539e-10
5.39431e-11
1.23667e-10
4.10411e-11
7.87206e-11
3.13258e-11
5.96022e-11
2.45798e-11
4.11193e-11
1.93038e-11
3.2295e-11
1.54342e-11
2.35691e-11
1.23296e-11
1.89668e-11
9.96009e-12
1.44242e-11
8.02665e-12
1.18076e-11
6.5054e-12
9.26283e-12
5.24767e-12
7.66653e-12
4.23361e-12
6.16878e-12
3.3857e-12
5.15455e-12
2.68424e-12
4.26247e-12
2.0863e-12
3.63186e-12
1.57731e-12
3.07219e-12
1.12939e-12
2.71422e-12
7.29003e-13
2.4276e-12
3.57194e-13
2.24795e-12
-4.51613e-16
2.17089e-12
-3.58122e-13
2.16672e-12
-7.29277e-13
2.21694e-12
-1.13017e-12
2.43683e-12
-1.5781e-12
2.73009e-12
-2.08612e-12
3.05244e-12
-2.68463e-12
3.64919e-12
-3.38611e-12
4.27564e-12
-4.23313e-12
5.12277e-12
-5.24812e-12
6.18332e-12
-6.50681e-12
7.6963e-12
-8.0269e-12
9.21715e-12
-9.961e-12
1.18088e-11
-1.23311e-11
1.44446e-11
-1.54342e-11
1.89289e-11
-1.93045e-11
2.3585e-11
-2.45807e-11
3.23061e-11
-3.1325e-11
4.1085e-11
-4.10414e-11
5.96253e-11
-5.39445e-11
7.87439e-11
-7.40176e-11
1.23626e-10
-1.02233e-10
1.72563e-10
-1.51614e-10
3.06921e-10
-2.27304e-10
4.65764e-10
-3.88756e-10
1.03008e-09
-6.73807e-10
1.80979e-09
-1.51563e-09
6.13692e-09
-3.2434e-09
1.40014e-08
-7.37563e-09
9.02564e-08
-9.13775e-09
8.05693e-08
-1.95202e-07
8.29434e-09
-2.03497e-07
7.08993e-09
8.17737e-08
3.43319e-09
9.39131e-08
1.64257e-09
1.5792e-08
7.46873e-10
7.03265e-09
4.32468e-10
2.12418e-09
2.54167e-10
1.20837e-09
1.69623e-10
5.50337e-10
1.14585e-10
3.61934e-10
8.29673e-11
2.0416e-10
6.05204e-11
1.46106e-10
4.60451e-11
9.31966e-11
3.5165e-11
7.04842e-11
2.75921e-11
4.86933e-11
2.1678e-11
3.82086e-11
1.73329e-11
2.79243e-11
1.38507e-11
2.24517e-11
1.11894e-11
1.70906e-11
9.01968e-12
1.39653e-11
7.31073e-12
1.09577e-11
5.8987e-12
9.0785e-12
4.75931e-12
7.31024e-12
3.80683e-12
6.11424e-12
3.01847e-12
5.05503e-12
2.34653e-12
4.30704e-12
1.77424e-12
3.6536e-12
1.27055e-12
3.21155e-12
8.20172e-13
2.88164e-12
4.01821e-13
2.66572e-12
-4.2473e-16
2.5751e-12
-4.02788e-13
2.57401e-12
-8.20644e-13
2.63184e-12
-1.2714e-12
2.89391e-12
-1.77494e-12
3.24091e-12
-2.34651e-12
3.62428e-12
-3.01889e-12
4.32297e-12
-3.80715e-12
5.06528e-12
-4.75897e-12
6.0743e-12
-5.89918e-12
7.33587e-12
-7.31216e-12
9.09402e-12
-9.02014e-12
1.09201e-11
-1.11904e-11
1.39836e-11
-1.38522e-11
1.71156e-11
-1.73331e-11
2.24083e-11
-2.16788e-11
2.79381e-11
-2.75929e-11
3.82325e-11
-3.51644e-11
4.86422e-11
-4.60454e-11
7.051e-11
-6.05218e-11
9.32263e-11
-8.29675e-11
1.46074e-10
-1.14585e-10
2.04178e-10
-1.69624e-10
3.61967e-10
-2.54168e-10
5.50303e-10
-4.3247e-10
1.20838e-09
-7.46874e-10
2.12419e-09
-1.64257e-09
7.03263e-09
-3.43319e-09
1.5792e-08
-7.08993e-09
9.39131e-08
-8.29434e-09
8.17737e-08
-2.03496e-07
7.44877e-09
-2.10946e-07
6.78801e-09
8.24344e-08
3.60961e-09
9.70915e-08
1.76894e-09
1.76327e-08
8.22793e-10
7.97879e-09
4.78401e-10
2.46858e-09
2.82692e-10
1.40408e-09
1.88796e-10
6.44228e-10
1.27783e-10
4.22955e-10
9.25382e-11
2.39405e-10
6.75667e-11
1.71087e-10
5.14078e-11
1.09353e-10
3.92837e-11
8.26042e-11
3.08242e-11
5.71493e-11
2.42274e-11
4.48025e-11
1.93719e-11
3.27744e-11
1.54851e-11
2.63385e-11
1.25104e-11
2.0067e-11
1.00873e-11
1.64008e-11
8.17671e-12
1.28755e-11
6.59902e-12
1.06562e-11
5.3249e-12
8.58209e-12
4.26004e-12
7.18358e-12
3.37822e-12
5.94026e-12
2.62674e-12
5.05766e-12
1.98628e-12
4.2897e-12
1.42261e-12
3.77601e-12
9.18379e-13
3.38721e-12
4.49915e-13
3.13369e-12
-4.06816e-16
3.01976e-12
-4.50926e-13
3.02369e-12
-9.19031e-13
3.09659e-12
-1.42351e-12
3.39838e-12
-1.98693e-12
3.79885e-12
-2.62686e-12
4.26839e-12
-3.3787e-12
5.07686e-12
-4.2603e-12
5.95002e-12
-5.32468e-12
7.13662e-12
-6.59958e-12
8.59958e-12
-8.17812e-12
1.06849e-11
-1.0088e-11
1.28427e-11
-1.25116e-11
1.64097e-11
-1.54866e-11
2.00902e-11
-1.93722e-11
2.62966e-11
-2.42283e-11
3.27944e-11
-3.0825e-11
4.48227e-11
-3.92831e-11
5.71047e-11
-5.14081e-11
8.26281e-11
-6.7568e-11
1.09378e-10
-9.25386e-11
1.71048e-10
-1.27783e-10
2.3943e-10
-1.88798e-10
4.22967e-10
-2.82693e-10
6.44198e-10
-4.78402e-10
1.40408e-09
-8.22793e-10
2.46858e-09
-1.76894e-09
7.97877e-09
-3.60961e-09
1.76327e-08
-6.78801e-09
9.70915e-08
-7.44878e-09
8.24344e-08
-2.10945e-07
6.60361e-09
-2.17549e-07
6.47042e-09
8.25676e-08
3.7714e-09
9.97905e-08
1.89404e-09
1.95101e-08
9.01366e-10
8.97146e-09
5.26536e-10
2.8434e-09
3.12915e-10
1.6177e-09
2.09175e-10
7.4797e-10
1.41865e-10
4.90259e-10
1.02761e-10
2.78507e-10
7.51067e-11
1.9874e-10
5.7149e-11
1.27308e-10
4.36978e-11
9.60601e-11
3.4289e-11
6.65599e-11
2.69624e-11
5.21354e-11
2.15597e-11
3.81834e-11
1.72398e-11
3.06545e-11
1.3929e-11
2.33745e-11
1.12342e-11
1.90964e-11
9.10717e-12
1.5e-11
7.35178e-12
1.24135e-11
5.93297e-12
1.0002e-11
4.74744e-12
8.36269e-12
3.76517e-12
6.91212e-12
2.92822e-12
5.89089e-12
2.21446e-12
5.00665e-12
1.58628e-12
4.40764e-12
1.02408e-12
3.94286e-12
5.01688e-13
3.65031e-12
-3.86417e-16
3.51767e-12
-5.02762e-13
3.52835e-12
-1.02491e-12
3.6281e-12
-1.58724e-12
3.95781e-12
-2.21503e-12
4.4287e-12
-2.92849e-12
4.97318e-12
-3.76571e-12
5.91792e-12
-4.74764e-12
6.92849e-12
-5.93287e-12
8.32703e-12
-7.35236e-12
1.00251e-11
-9.10858e-12
1.24345e-11
-1.12351e-11
1.49553e-11
-1.39303e-11
1.91036e-11
-1.72413e-11
2.33947e-11
-2.15603e-11
3.06162e-11
-2.69634e-11
3.81989e-11
-3.42898e-11
5.21481e-11
-4.36973e-11
6.65168e-11
-5.71493e-11
9.60931e-11
-7.5108e-11
1.27341e-10
-1.02762e-10
1.98697e-10
-1.41865e-10
2.78527e-10
-2.09177e-10
4.90283e-10
-3.12916e-10
7.47942e-10
-5.26537e-10
1.61771e-09
-9.01367e-10
2.84342e-09
-1.89404e-09
8.97144e-09
-3.7714e-09
1.95101e-08
-6.47042e-09
9.97905e-08
-6.60361e-09
8.25676e-08
-2.17549e-07
5.76183e-09
-2.23311e-07
6.13776e-09
8.21917e-08
3.91732e-09
1.02011e-07
2.01715e-09
2.14102e-08
9.82356e-10
1.00063e-08
5.76837e-10
3.24892e-09
3.44868e-10
1.84967e-09
2.30799e-10
8.62046e-10
1.56868e-10
5.64198e-10
1.13667e-10
3.21702e-10
8.31659e-11
2.29236e-10
6.32891e-11
1.47196e-10
4.84239e-11
1.10929e-10
3.80001e-11
7.69828e-11
2.98939e-11
6.02426e-11
2.39054e-11
4.41661e-11
1.9122e-11
3.54326e-11
1.5451e-11
2.70449e-11
1.24653e-11
2.20723e-11
1.01062e-11
1.73527e-11
8.1603e-12
1.43653e-11
6.58619e-12
1.15758e-11
5.27122e-12
9.68263e-12
4.18109e-12
8.00783e-12
3.25238e-12
6.82432e-12
2.45984e-12
5.80057e-12
1.76229e-12
5.10096e-12
1.13778e-12
4.57133e-12
5.57381e-13
4.23594e-12
-3.51495e-16
4.07786e-12
-5.58516e-13
4.07642e-12
-1.13882e-12
4.20152e-12
-1.76333e-12
4.58787e-12
-2.46036e-12
5.12695e-12
-3.25275e-12
5.76948e-12
-4.1817e-12
6.83956e-12
-5.27135e-12
8.02126e-12
-6.58623e-12
9.63903e-12
-8.16094e-12
1.15966e-11
-1.01076e-11
1.4383e-11
-1.24665e-11
1.73173e-11
-1.54525e-11
2.20921e-11
-1.91236e-11
2.70721e-11
-2.39061e-11
3.53997e-11
-2.9895e-11
4.41876e-11
-3.80008e-11
6.02604e-11
-4.84237e-11
7.69319e-11
-6.32895e-11
1.10948e-10
-8.31673e-11
1.47211e-10
-1.13667e-10
2.29195e-10
-1.56868e-10
3.21739e-10
-2.308e-10
5.64216e-10
-3.4487e-10
8.62006e-10
-5.76838e-10
1.84967e-09
-9.82357e-10
3.24893e-09
-2.01715e-09
1.00062e-08
-3.91732e-09
2.14102e-08
-6.13776e-09
1.02011e-07
-5.76184e-09
8.21917e-08
-2.23311e-07
4.92645e-09
-2.28238e-07
5.79077e-09
8.13274e-08
4.04621e-09
1.03755e-07
2.13749e-09
2.33189e-08
1.06548e-09
1.10783e-08
6.29249e-10
3.68516e-09
3.78574e-10
2.10033e-09
2.53702e-10
9.86915e-10
1.72828e-10
6.45064e-10
1.25286e-10
3.69251e-10
9.17704e-11
2.62748e-10
6.98492e-11
1.69115e-10
5.34794e-11
1.27289e-10
4.19713e-11
8.8496e-11
3.30334e-11
6.91813e-11
2.64181e-11
5.0783e-11
2.11396e-11
4.07166e-11
1.70829e-11
3.11009e-11
1.37859e-11
2.53734e-11
1.1178e-11
1.99691e-11
9.02807e-12
1.65084e-11
7.28745e-12
1.33096e-11
5.83369e-12
1.11359e-11
4.62784e-12
9.21343e-12
3.60065e-12
7.84538e-12
2.72352e-12
6.67483e-12
1.95149e-12
5.87593e-12
1.26001e-12
5.2695e-12
6.17256e-13
4.89004e-12
-3.59907e-16
4.69073e-12
-6.18457e-13
4.69451e-12
-1.26121e-12
4.84373e-12
-1.9526e-12
5.27659e-12
-2.72398e-12
5.89121e-12
-3.60116e-12
6.64348e-12
-4.6285e-12
7.87186e-12
-5.83379e-12
9.22344e-12
-7.28761e-12
1.10882e-11
-9.02877e-12
1.33353e-11
-1.11794e-11
1.65405e-11
-1.37872e-11
1.99271e-11
-1.70845e-11
2.53855e-11
-2.11413e-11
3.11273e-11
-2.64191e-11
4.06719e-11
-3.30346e-11
5.08002e-11
-4.19721e-11
6.91919e-11
-5.34793e-11
8.84483e-11
-6.98496e-11
1.27327e-10
-9.17717e-11
1.69142e-10
-1.25287e-10
2.62719e-10
-1.72829e-10
3.69276e-10
-2.53704e-10
6.45086e-10
-3.78576e-10
9.8688e-10
-6.29251e-10
2.10034e-09
-1.06548e-09
3.68516e-09
-2.13749e-09
1.10782e-08
-4.04621e-09
2.3319e-08
-5.79077e-09
1.03756e-07
-4.92646e-09
8.13274e-08
-2.28237e-07
4.10042e-09
-2.32338e-07
5.4303e-09
7.99975e-08
4.15694e-09
1.05029e-07
2.25426e-09
2.52216e-08
1.15042e-09
1.21821e-08
6.83696e-10
4.15188e-09
4.14047e-10
2.36998e-09
2.77919e-10
1.12305e-09
1.89783e-10
7.33201e-10
1.3765e-10
4.21369e-10
1.00946e-10
2.99453e-10
7.68507e-11
1.93204e-10
5.88818e-11
1.45268e-10
4.62171e-11
1.01152e-10
3.63928e-11
7.8998e-11
2.91078e-11
5.80732e-11
2.33005e-11
4.65209e-11
1.88311e-11
3.55674e-11
1.52013e-11
2.90052e-11
1.23271e-11
2.2831e-11
9.95878e-12
1.88747e-11
8.03979e-12
1.52318e-11
6.43732e-12
1.27391e-11
5.10736e-12
1.05424e-11
3.97461e-12
8.98555e-12
3.0067e-12
7.64192e-12
2.15472e-12
6.72235e-12
1.39131e-12
6.02694e-12
6.81545e-13
5.58628e-12
-3.57585e-16
5.37827e-12
-6.82858e-13
5.37811e-12
-1.39267e-12
5.5557e-12
-2.15592e-12
6.03702e-12
-3.00709e-12
6.75319e-12
-3.97521e-12
7.614e-12
-5.10811e-12
9.00559e-12
-6.43741e-12
1.05569e-11
-8.04005e-12
1.27026e-11
-9.95952e-12
1.52517e-11
-1.23286e-11
1.89046e-11
-1.52029e-11
2.28039e-11
-1.88329e-11
2.90169e-11
-2.33023e-11
3.55959e-11
-2.91089e-11
4.64797e-11
-3.63941e-11
5.80934e-11
-4.62179e-11
7.90215e-11
-5.88819e-11
1.01113e-10
-7.68512e-11
1.45291e-10
-1.00948e-10
1.93229e-10
-1.37651e-10
2.99426e-10
-1.89783e-10
4.21409e-10
-2.7792e-10
7.33223e-10
-4.14049e-10
1.12301e-09
-6.83697e-10
2.37e-09
-1.15042e-09
4.15189e-09
-2.25426e-09
1.21821e-08
-4.15694e-09
2.52217e-08
-5.4303e-09
1.05029e-07
-4.10043e-09
7.99975e-08
-2.32337e-07
3.28669e-09
-2.35625e-07
5.0573e-09
7.82269e-08
4.24848e-09
1.05838e-07
2.36663e-09
2.71035e-08
1.23681e-09
1.33119e-08
7.40075e-10
4.64862e-09
4.51288e-10
2.65878e-09
3.03475e-10
1.27085e-09
2.07764e-10