/*--------------------------------*- C++ -*----------------------------------*\
| =========                 |                                                 |
| \\      /  F ield         | foam-extend: Open Source CFD                    |
|  \\    /   O peration     | Version:     4.0                                |
|   \\  /    A nd           | Web:         http://www.foam-extend.org         |
|    \\/     M anipulation  |                                                 |
\*---------------------------------------------------------------------------*/
FoamFile
{
    version     2.0;
    format      ascii;
    class       volScalarField;
    location    "530";
    object      cMinus;
}
// * * * * * * * * * * * * * * * * * * * * * * * * * * * * * * * * * * * * * //

dimensions      [0 0 0 0 0 0 0];

internalField   nonuniform List<scalar> 
6960
(
2.02278e-18
2.00596e-18
2.01203e-18
2.01658e-18
2.0196e-18
2.02146e-18
2.02251e-18
2.02298e-18
2.02308e-18
2.02292e-18
2.02259e-18
2.02217e-18
2.02168e-18
2.02115e-18
2.02062e-18
2.02009e-18
2.01957e-18
2.01907e-18
2.01861e-18
2.01817e-18
2.01777e-18
2.01741e-18
2.01708e-18
2.0168e-18
2.01655e-18
2.01635e-18
2.01618e-18
2.01606e-18
2.01598e-18
2.01594e-18
2.01594e-18
2.01598e-18
2.01606e-18
2.01618e-18
2.01635e-18
2.01655e-18
2.0168e-18
2.01708e-18
2.01741e-18
2.01777e-18
2.01817e-18
2.01861e-18
2.01907e-18
2.01957e-18
2.02009e-18
2.02062e-18
2.02115e-18
2.02168e-18
2.02217e-18
2.02259e-18
2.02292e-18
2.02308e-18
2.02298e-18
2.02251e-18
2.02146e-18
2.0196e-18
2.01658e-18
2.01203e-18
2.00596e-18
2.02278e-18
3.2954e-18
3.26889e-18
3.27885e-18
3.28631e-18
3.29126e-18
3.29433e-18
3.29605e-18
3.29685e-18
3.29701e-18
3.29677e-18
3.29625e-18
3.29556e-18
3.29477e-18
3.29393e-18
3.29306e-18
3.2922e-18
3.29137e-18
3.29057e-18
3.28981e-18
3.2891e-18
3.28845e-18
3.28786e-18
3.28734e-18
3.28688e-18
3.28648e-18
3.28615e-18
3.28589e-18
3.28569e-18
3.28556e-18
3.28549e-18
3.28549e-18
3.28556e-18
3.28569e-18
3.28589e-18
3.28615e-18
3.28648e-18
3.28688e-18
3.28734e-18
3.28786e-18
3.28845e-18
3.2891e-18
3.28981e-18
3.29057e-18
3.29137e-18
3.2922e-18
3.29306e-18
3.29393e-18
3.29477e-18
3.29556e-18
3.29625e-18
3.29677e-18
3.29701e-18
3.29685e-18
3.29605e-18
3.29433e-18
3.29126e-18
3.28631e-18
3.27885e-18
3.26889e-18
3.2954e-18
8.26006e-18
8.19563e-18
8.22059e-18
8.23923e-18
8.25161e-18
8.25927e-18
8.26358e-18
8.26555e-18
8.26596e-18
8.26533e-18
8.26403e-18
8.26231e-18
8.26033e-18
8.25821e-18
8.25605e-18
8.25389e-18
8.2518e-18
8.24979e-18
8.24789e-18
8.24612e-18
8.24449e-18
8.24302e-18
8.2417e-18
8.24055e-18
8.23955e-18
8.23873e-18
8.23806e-18
8.23757e-18
8.23724e-18
8.23707e-18
8.23707e-18
8.23724e-18
8.23757e-18
8.23806e-18
8.23873e-18
8.23955e-18
8.24055e-18
8.2417e-18
8.24302e-18
8.24449e-18
8.24612e-18
8.24789e-18
8.24979e-18
8.2518e-18
8.25389e-18
8.25605e-18
8.25821e-18
8.26033e-18
8.26231e-18
8.26403e-18
8.26533e-18
8.26596e-18
8.26555e-18
8.26358e-18
8.25927e-18
8.25161e-18
8.23923e-18
8.22059e-18
8.19563e-18
8.26006e-18
2.20567e-17
2.18895e-17
2.19561e-17
2.20058e-17
2.20388e-17
2.20592e-17
2.20706e-17
2.20759e-17
2.2077e-17
2.20753e-17
2.20718e-17
2.20672e-17
2.20619e-17
2.20562e-17
2.20504e-17
2.20447e-17
2.20391e-17
2.20337e-17
2.20286e-17
2.20239e-17
2.20195e-17
2.20156e-17
2.20121e-17
2.2009e-17
2.20063e-17
2.20041e-17
2.20023e-17
2.2001e-17
2.20001e-17
2.19997e-17
2.19997e-17
2.20001e-17
2.2001e-17
2.20023e-17
2.20041e-17
2.20063e-17
2.2009e-17
2.20121e-17
2.20156e-17
2.20195e-17
2.20239e-17
2.20286e-17
2.20337e-17
2.20391e-17
2.20447e-17
2.20504e-17
2.20562e-17
2.20619e-17
2.20672e-17
2.20718e-17
2.20753e-17
2.2077e-17
2.20759e-17
2.20706e-17
2.20592e-17
2.20388e-17
2.20058e-17
2.19561e-17
2.18895e-17
2.20567e-17
5.91613e-17
5.87264e-17
5.89053e-17
5.90384e-17
5.91268e-17
5.91816e-17
5.92122e-17
5.92263e-17
5.92291e-17
5.92246e-17
5.92152e-17
5.92028e-17
5.91886e-17
5.91734e-17
5.91578e-17
5.91424e-17
5.91273e-17
5.91129e-17
5.90993e-17
5.90866e-17
5.90749e-17
5.90644e-17
5.90549e-17
5.90466e-17
5.90395e-17
5.90336e-17
5.90288e-17
5.90253e-17
5.90229e-17
5.90217e-17
5.90217e-17
5.90229e-17
5.90253e-17
5.90288e-17
5.90336e-17
5.90395e-17
5.90466e-17
5.90549e-17
5.90644e-17
5.90749e-17
5.90866e-17
5.90993e-17
5.91129e-17
5.91273e-17
5.91424e-17
5.91578e-17
5.91734e-17
5.91886e-17
5.92028e-17
5.92152e-17
5.92246e-17
5.92291e-17
5.92263e-17
5.92122e-17
5.91816e-17
5.91268e-17
5.90384e-17
5.89053e-17
5.87264e-17
5.91613e-17
1.58655e-16
1.57528e-16
1.58008e-16
1.58365e-16
1.58602e-16
1.58749e-16
1.58831e-16
1.58869e-16
1.58877e-16
1.58864e-16
1.58839e-16
1.58806e-16
1.58768e-16
1.58727e-16
1.58685e-16
1.58644e-16
1.58603e-16
1.58565e-16
1.58528e-16
1.58494e-16
1.58463e-16
1.58434e-16
1.58409e-16
1.58387e-16
1.58368e-16
1.58352e-16
1.58339e-16
1.5833e-16
1.58323e-16
1.5832e-16
1.5832e-16
1.58323e-16
1.5833e-16
1.58339e-16
1.58352e-16
1.58368e-16
1.58387e-16
1.58409e-16
1.58434e-16
1.58463e-16
1.58494e-16
1.58528e-16
1.58565e-16
1.58603e-16
1.58644e-16
1.58685e-16
1.58727e-16
1.58768e-16
1.58806e-16
1.58839e-16
1.58864e-16
1.58877e-16
1.58869e-16
1.58831e-16
1.58749e-16
1.58602e-16
1.58365e-16
1.58008e-16
1.57528e-16
1.58655e-16
4.25618e-16
4.22705e-16
4.23996e-16
4.24954e-16
4.2559e-16
4.25984e-16
4.26204e-16
4.26306e-16
4.26326e-16
4.26293e-16
4.26226e-16
4.26136e-16
4.26034e-16
4.25925e-16
4.25813e-16
4.25702e-16
4.25593e-16
4.25489e-16
4.25391e-16
4.253e-16
4.25216e-16
4.2514e-16
4.25072e-16
4.25012e-16
4.24961e-16
4.24918e-16
4.24884e-16
4.24858e-16
4.24841e-16
4.24833e-16
4.24833e-16
4.24841e-16
4.24858e-16
4.24884e-16
4.24918e-16
4.24961e-16
4.25012e-16
4.25072e-16
4.2514e-16
4.25216e-16
4.253e-16
4.25391e-16
4.25489e-16
4.25593e-16
4.25702e-16
4.25813e-16
4.25925e-16
4.26034e-16
4.26136e-16
4.26226e-16
4.26293e-16
4.26326e-16
4.26306e-16
4.26204e-16
4.25984e-16
4.2559e-16
4.24954e-16
4.23996e-16
4.22705e-16
4.25618e-16
1.14297e-15
1.13547e-15
1.13895e-15
1.14152e-15
1.14323e-15
1.14428e-15
1.14488e-15
1.14515e-15
1.1452e-15
1.14512e-15
1.14494e-15
1.1447e-15
1.14442e-15
1.14413e-15
1.14383e-15
1.14353e-15
1.14324e-15
1.14296e-15
1.1427e-15
1.14245e-15
1.14223e-15
1.14202e-15
1.14184e-15
1.14168e-15
1.14154e-15
1.14143e-15
1.14134e-15
1.14127e-15
1.14122e-15
1.1412e-15
1.1412e-15
1.14122e-15
1.14127e-15
1.14134e-15
1.14143e-15
1.14154e-15
1.14168e-15
1.14184e-15
1.14202e-15
1.14223e-15
1.14245e-15
1.1427e-15
1.14296e-15
1.14324e-15
1.14353e-15
1.14383e-15
1.14413e-15
1.14442e-15
1.1447e-15
1.14494e-15
1.14512e-15
1.1452e-15
1.14515e-15
1.14488e-15
1.14428e-15
1.14323e-15
1.14152e-15
1.13895e-15
1.13547e-15
1.14297e-15
3.07523e-15
3.05603e-15
3.06539e-15
3.0723e-15
3.07689e-15
3.07974e-15
3.08133e-15
3.08207e-15
3.08222e-15
3.08198e-15
3.0815e-15
3.08085e-15
3.08012e-15
3.07933e-15
3.07853e-15
3.07772e-15
3.07694e-15
3.0762e-15
3.07549e-15
3.07483e-15
3.07423e-15
3.07368e-15
3.07319e-15
3.07276e-15
3.07239e-15
3.07208e-15
3.07183e-15
3.07165e-15
3.07153e-15
3.07147e-15
3.07147e-15
3.07153e-15
3.07165e-15
3.07183e-15
3.07208e-15
3.07239e-15
3.07276e-15
3.07319e-15
3.07368e-15
3.07423e-15
3.07483e-15
3.07549e-15
3.0762e-15
3.07694e-15
3.07772e-15
3.07853e-15
3.07933e-15
3.08012e-15
3.08085e-15
3.0815e-15
3.08198e-15
3.08222e-15
3.08207e-15
3.08133e-15
3.07974e-15
3.07689e-15
3.0723e-15
3.06539e-15
3.05603e-15
3.07523e-15
8.30268e-15
8.2538e-15
8.27908e-15
8.29771e-15
8.3101e-15
8.31778e-15
8.32209e-15
8.32408e-15
8.3245e-15
8.32387e-15
8.32258e-15
8.32085e-15
8.31888e-15
8.31676e-15
8.3146e-15
8.31245e-15
8.31035e-15
8.30834e-15
8.30645e-15
8.30468e-15
8.30306e-15
8.30158e-15
8.30026e-15
8.29911e-15
8.29812e-15
8.29729e-15
8.29663e-15
8.29613e-15
8.2958e-15
8.29564e-15
8.29564e-15
8.2958e-15
8.29613e-15
8.29663e-15
8.29729e-15
8.29812e-15
8.29911e-15
8.30026e-15
8.30158e-15
8.30306e-15
8.30468e-15
8.30645e-15
8.30834e-15
8.31035e-15
8.31245e-15
8.3146e-15
8.31676e-15
8.31888e-15
8.32085e-15
8.32258e-15
8.32387e-15
8.3245e-15
8.32408e-15
8.32209e-15
8.31778e-15
8.3101e-15
8.29771e-15
8.27908e-15
8.2538e-15
8.30268e-15
2.25627e-14
2.24394e-14
2.2508e-14
2.25586e-14
2.25922e-14
2.2613e-14
2.26248e-14
2.26302e-14
2.26314e-14
2.26298e-14
2.26264e-14
2.26218e-14
2.26165e-14
2.26108e-14
2.2605e-14
2.25992e-14
2.25936e-14
2.25882e-14
2.25831e-14
2.25783e-14
2.2574e-14
2.257e-14
2.25665e-14
2.25633e-14
2.25607e-14
2.25585e-14
2.25567e-14
2.25554e-14
2.25545e-14
2.2554e-14
2.2554e-14
2.25545e-14
2.25554e-14
2.25567e-14
2.25585e-14
2.25607e-14
2.25633e-14
2.25665e-14
2.257e-14
2.2574e-14
2.25783e-14
2.25831e-14
2.25882e-14
2.25936e-14
2.25992e-14
2.2605e-14
2.26108e-14
2.26165e-14
2.26218e-14
2.26264e-14
2.26298e-14
2.26314e-14
2.26302e-14
2.26248e-14
2.2613e-14
2.25922e-14
2.25586e-14
2.2508e-14
2.24394e-14
2.25627e-14
6.21038e-14
6.17976e-14
6.19862e-14
6.21247e-14
6.22171e-14
6.22746e-14
6.23072e-14
6.23226e-14
6.23263e-14
6.23222e-14
6.23131e-14
6.23009e-14
6.22867e-14
6.22715e-14
6.22559e-14
6.22404e-14
6.22252e-14
6.22107e-14
6.2197e-14
6.21842e-14
6.21725e-14
6.21619e-14
6.21523e-14
6.2144e-14
6.21368e-14
6.21309e-14
6.21261e-14
6.21225e-14
6.21201e-14
6.21189e-14
6.21189e-14
6.21201e-14
6.21225e-14
6.21261e-14
6.21309e-14
6.21368e-14
6.2144e-14
6.21523e-14
6.21619e-14
6.21725e-14
6.21842e-14
6.2197e-14
6.22107e-14
6.22252e-14
6.22404e-14
6.22559e-14
6.22715e-14
6.22867e-14
6.23009e-14
6.23131e-14
6.23222e-14
6.23263e-14
6.23226e-14
6.23072e-14
6.22746e-14
6.22171e-14
6.21247e-14
6.19862e-14
6.17976e-14
6.21038e-14
1.75333e-13
1.74597e-13
1.75128e-13
1.75518e-13
1.75779e-13
1.75943e-13
1.76037e-13
1.76082e-13
1.76095e-13
1.76086e-13
1.76063e-13
1.76031e-13
1.75993e-13
1.75953e-13
1.75911e-13
1.75869e-13
1.75829e-13
1.7579e-13
1.75753e-13
1.75718e-13
1.75687e-13
1.75658e-13
1.75633e-13
1.7561e-13
1.75591e-13
1.75575e-13
1.75562e-13
1.75552e-13
1.75546e-13
1.75543e-13
1.75543e-13
1.75546e-13
1.75552e-13
1.75562e-13
1.75575e-13
1.75591e-13
1.7561e-13
1.75633e-13
1.75658e-13
1.75687e-13
1.75718e-13
1.75753e-13
1.7579e-13
1.75829e-13
1.75869e-13
1.75911e-13
1.75953e-13
1.75993e-13
1.76031e-13
1.76063e-13
1.76086e-13
1.76095e-13
1.76082e-13
1.76037e-13
1.75943e-13
1.75779e-13
1.75518e-13
1.75128e-13
1.74597e-13
1.75333e-13
5.19874e-13
5.18243e-13
5.19818e-13
5.20979e-13
5.21763e-13
5.22262e-13
5.22555e-13
5.22705e-13
5.22758e-13
5.22746e-13
5.22692e-13
5.22611e-13
5.22513e-13
5.22406e-13
5.22295e-13
5.22183e-13
5.22074e-13
5.2197e-13
5.2187e-13
5.21778e-13
5.21693e-13
5.21616e-13
5.21547e-13
5.21487e-13
5.21435e-13
5.21392e-13
5.21357e-13
5.21331e-13
5.21314e-13
5.21305e-13
5.21305e-13
5.21314e-13
5.21331e-13
5.21357e-13
5.21392e-13
5.21435e-13
5.21487e-13
5.21547e-13
5.21616e-13
5.21693e-13
5.21778e-13
5.2187e-13
5.2197e-13
5.22074e-13
5.22183e-13
5.22295e-13
5.22406e-13
5.22513e-13
5.22611e-13
5.22692e-13
5.22746e-13
5.22758e-13
5.22705e-13
5.22555e-13
5.22262e-13
5.21763e-13
5.20979e-13
5.19818e-13
5.18243e-13
5.19874e-13
1.68173e-12
1.67897e-12
1.68414e-12
1.68797e-12
1.69061e-12
1.69232e-12
1.69337e-12
1.69395e-12
1.69422e-12
1.69426e-12
1.69417e-12
1.69398e-12
1.69374e-12
1.69347e-12
1.69318e-12
1.69289e-12
1.6926e-12
1.69232e-12
1.69205e-12
1.6918e-12
1.69157e-12
1.69137e-12
1.69118e-12
1.69102e-12
1.69088e-12
1.69076e-12
1.69067e-12
1.6906e-12
1.69055e-12
1.69053e-12
1.69053e-12
1.69055e-12
1.6906e-12
1.69067e-12
1.69076e-12
1.69088e-12
1.69102e-12
1.69118e-12
1.69137e-12
1.69157e-12
1.6918e-12
1.69205e-12
1.69232e-12
1.6926e-12
1.69289e-12
1.69318e-12
1.69347e-12
1.69374e-12
1.69398e-12
1.69417e-12
1.69426e-12
1.69422e-12
1.69395e-12
1.69337e-12
1.69232e-12
1.69061e-12
1.68797e-12
1.68414e-12
1.67897e-12
1.68173e-12
6.20344e-12
6.20469e-12
6.22458e-12
6.23949e-12
6.24996e-12
6.25697e-12
6.26147e-12
6.26418e-12
6.26566e-12
6.26631e-12
6.2664e-12
6.26613e-12
6.26563e-12
6.26499e-12
6.26427e-12
6.26352e-12
6.26276e-12
6.26202e-12
6.26132e-12
6.26066e-12
6.26005e-12
6.2595e-12
6.259e-12
6.25857e-12
6.25819e-12
6.25788e-12
6.25763e-12
6.25745e-12
6.25732e-12
6.25726e-12
6.25726e-12
6.25732e-12
6.25745e-12
6.25763e-12
6.25788e-12
6.25819e-12
6.25857e-12
6.259e-12
6.2595e-12
6.26005e-12
6.26066e-12
6.26132e-12
6.26202e-12
6.26276e-12
6.26352e-12
6.26427e-12
6.26499e-12
6.26563e-12
6.26613e-12
6.2664e-12
6.26631e-12
6.26566e-12
6.26418e-12
6.26147e-12
6.25697e-12
6.24996e-12
6.23949e-12
6.22458e-12
6.20469e-12
6.20344e-12
2.67043e-11
2.67582e-11
2.68499e-11
2.69195e-11
2.69693e-11
2.70037e-11
2.70265e-11
2.70412e-11
2.70502e-11
2.70552e-11
2.70577e-11
2.70585e-11
2.70581e-11
2.7057e-11
2.70555e-11
2.70537e-11
2.70519e-11
2.705e-11
2.70482e-11
2.70465e-11
2.70449e-11
2.70434e-11
2.70421e-11
2.7041e-11
2.704e-11
2.70392e-11
2.70385e-11
2.7038e-11
2.70377e-11
2.70375e-11
2.70375e-11
2.70377e-11
2.7038e-11
2.70385e-11
2.70392e-11
2.704e-11
2.7041e-11
2.70421e-11
2.70434e-11
2.70449e-11
2.70465e-11
2.70482e-11
2.705e-11
2.70519e-11
2.70537e-11
2.70555e-11
2.7057e-11
2.70581e-11
2.70585e-11
2.70577e-11
2.70552e-11
2.70502e-11
2.70412e-11
2.70265e-11
2.70037e-11
2.69693e-11
2.69195e-11
2.68499e-11
2.67582e-11
2.67043e-11
1.31527e-10
1.31977e-10
1.32467e-10
1.32841e-10
1.33113e-10
1.33303e-10
1.33433e-10
1.33519e-10
1.33575e-10
1.3361e-10
1.33631e-10
1.33643e-10
1.33648e-10
1.33649e-10
1.33648e-10
1.33645e-10
1.33641e-10
1.33637e-10
1.33633e-10
1.33629e-10
1.33625e-10
1.33621e-10
1.33618e-10
1.33615e-10
1.33612e-10
1.3361e-10
1.33608e-10
1.33607e-10
1.33606e-10
1.33606e-10
1.33606e-10
1.33606e-10
1.33607e-10
1.33608e-10
1.3361e-10
1.33612e-10
1.33615e-10
1.33618e-10
1.33621e-10
1.33625e-10
1.33629e-10
1.33633e-10
1.33637e-10
1.33641e-10
1.33645e-10
1.33648e-10
1.33649e-10
1.33648e-10
1.33643e-10
1.33631e-10
1.3361e-10
1.33575e-10
1.33519e-10
1.33433e-10
1.33303e-10
1.33113e-10
1.32841e-10
1.32467e-10
1.31977e-10
1.31527e-10
7.06197e-10
7.09258e-10
7.12084e-10
7.14257e-10
7.15843e-10
7.16965e-10
7.17739e-10
7.18263e-10
7.18611e-10
7.18839e-10
7.18985e-10
7.19076e-10
7.1913e-10
7.1916e-10
7.19174e-10
7.19179e-10
7.19177e-10
7.19171e-10
7.19164e-10
7.19155e-10
7.19147e-10
7.19138e-10
7.19131e-10
7.19124e-10
7.19118e-10
7.19113e-10
7.19109e-10
7.19106e-10
7.19104e-10
7.19103e-10
7.19103e-10
7.19104e-10
7.19106e-10
7.19109e-10
7.19113e-10
7.19118e-10
7.19124e-10
7.19131e-10
7.19138e-10
7.19147e-10
7.19155e-10
7.19164e-10
7.19171e-10
7.19177e-10
7.19179e-10
7.19174e-10
7.1916e-10
7.1913e-10
7.19076e-10
7.18985e-10
7.18839e-10
7.18611e-10
7.18263e-10
7.17739e-10
7.16965e-10
7.15843e-10
7.14257e-10
7.12084e-10
7.09258e-10
7.06197e-10
3.93952e-09
3.95878e-09
3.9755e-09
3.98838e-09
3.99781e-09
4.0045e-09
4.00915e-09
4.01232e-09
4.01445e-09
4.01587e-09
4.01681e-09
4.01741e-09
4.0178e-09
4.01805e-09
4.0182e-09
4.01828e-09
4.01833e-09
4.01835e-09
4.01835e-09
4.01835e-09
4.01834e-09
4.01833e-09
4.01832e-09
4.01831e-09
4.0183e-09
4.01829e-09
4.01828e-09
4.01828e-09
4.01827e-09
4.01827e-09
4.01827e-09
4.01827e-09
4.01828e-09
4.01828e-09
4.01829e-09
4.0183e-09
4.01831e-09
4.01832e-09
4.01833e-09
4.01834e-09
4.01835e-09
4.01835e-09
4.01835e-09
4.01833e-09
4.01828e-09
4.0182e-09
4.01805e-09
4.0178e-09
4.01741e-09
4.01681e-09
4.01587e-09
4.01445e-09
4.01232e-09
4.00915e-09
4.0045e-09
3.99781e-09
3.98838e-09
3.9755e-09
3.95878e-09
3.93952e-09
2.20396e-08
2.21548e-08
2.22525e-08
2.23278e-08
2.2383e-08
2.24222e-08
2.24495e-08
2.24682e-08
2.24809e-08
2.24894e-08
2.2495e-08
2.24988e-08
2.25013e-08
2.25029e-08
2.25039e-08
2.25046e-08
2.2505e-08
2.25053e-08
2.25055e-08
2.25056e-08
2.25056e-08
2.25057e-08
2.25057e-08
2.25057e-08
2.25057e-08
2.25057e-08
2.25057e-08
2.25057e-08
2.25057e-08
2.25057e-08
2.25057e-08
2.25057e-08
2.25057e-08
2.25057e-08
2.25057e-08
2.25057e-08
2.25057e-08
2.25057e-08
2.25057e-08
2.25056e-08
2.25056e-08
2.25055e-08
2.25053e-08
2.2505e-08
2.25046e-08
2.25039e-08
2.25029e-08
2.25013e-08
2.24988e-08
2.2495e-08
2.24894e-08
2.24809e-08
2.24682e-08
2.24495e-08
2.24222e-08
2.2383e-08
2.23278e-08
2.22525e-08
2.21548e-08
2.20396e-08
1.20642e-07
1.21297e-07
1.21848e-07
1.22272e-07
1.22584e-07
1.22805e-07
1.22959e-07
1.23065e-07
1.23136e-07
1.23185e-07
1.23217e-07
1.23239e-07
1.23253e-07
1.23263e-07
1.23269e-07
1.23274e-07
1.23277e-07
1.23279e-07
1.2328e-07
1.23281e-07
1.23281e-07
1.23282e-07
1.23282e-07
1.23283e-07
1.23283e-07
1.23283e-07
1.23283e-07
1.23283e-07
1.23283e-07
1.23283e-07
1.23283e-07
1.23283e-07
1.23283e-07
1.23283e-07
1.23283e-07
1.23283e-07
1.23283e-07
1.23282e-07
1.23282e-07
1.23281e-07
1.23281e-07
1.2328e-07
1.23279e-07
1.23277e-07
1.23274e-07
1.23269e-07
1.23263e-07
1.23253e-07
1.23239e-07
1.23217e-07
1.23185e-07
1.23136e-07
1.23065e-07
1.22959e-07
1.22805e-07
1.22584e-07
1.22272e-07
1.21848e-07
1.21297e-07
1.20642e-07
6.34115e-07
6.37624e-07
6.40565e-07
6.42829e-07
6.44489e-07
6.45669e-07
6.46491e-07
6.47056e-07
6.4744e-07
6.47699e-07
6.47873e-07
6.4799e-07
6.48069e-07
6.48122e-07
6.48158e-07
6.48182e-07
6.48199e-07
6.4821e-07
6.48219e-07
6.48224e-07
6.48229e-07
6.48232e-07
6.48235e-07
6.48237e-07
6.48238e-07
6.4824e-07
6.48241e-07
6.48241e-07
6.48242e-07
6.48242e-07
6.48242e-07
6.48242e-07
6.48241e-07
6.48241e-07
6.4824e-07
6.48238e-07
6.48237e-07
6.48235e-07
6.48232e-07
6.48229e-07
6.48224e-07
6.48219e-07
6.4821e-07
6.48199e-07
6.48182e-07
6.48158e-07
6.48122e-07
6.48069e-07
6.4799e-07
6.47873e-07
6.47699e-07
6.4744e-07
6.47056e-07
6.46491e-07
6.45669e-07
6.44489e-07
6.42829e-07
6.40565e-07
6.37624e-07
6.34115e-07
3.1486e-06
3.1661e-06
3.18073e-06
3.19198e-06
3.20022e-06
3.20607e-06
3.21016e-06
3.21296e-06
3.21487e-06
3.21616e-06
3.21703e-06
3.21762e-06
3.21801e-06
3.21828e-06
3.21846e-06
3.21859e-06
3.21868e-06
3.21874e-06
3.21878e-06
3.21881e-06
3.21884e-06
3.21885e-06
3.21887e-06
3.21888e-06
3.21889e-06
3.2189e-06
3.2189e-06
3.21891e-06
3.21891e-06
3.21891e-06
3.21891e-06
3.21891e-06
3.21891e-06
3.2189e-06
3.2189e-06
3.21889e-06
3.21888e-06
3.21887e-06
3.21885e-06
3.21884e-06
3.21881e-06
3.21878e-06
3.21874e-06
3.21868e-06
3.21859e-06
3.21846e-06
3.21828e-06
3.21801e-06
3.21762e-06
3.21703e-06
3.21616e-06
3.21487e-06
3.21296e-06
3.21016e-06
3.20607e-06
3.20022e-06
3.19198e-06
3.18073e-06
3.1661e-06
3.1486e-06
1.45395e-05
1.46194e-05
1.46861e-05
1.47373e-05
1.47748e-05
1.48014e-05
1.482e-05
1.48327e-05
1.48414e-05
1.48473e-05
1.48513e-05
1.4854e-05
1.48558e-05
1.4857e-05
1.48578e-05
1.48584e-05
1.48588e-05
1.48591e-05
1.48593e-05
1.48595e-05
1.48596e-05
1.48597e-05
1.48598e-05
1.48598e-05
1.48599e-05
1.48599e-05
1.48599e-05
1.48599e-05
1.486e-05
1.486e-05
1.486e-05
1.486e-05
1.48599e-05
1.48599e-05
1.48599e-05
1.48599e-05
1.48598e-05
1.48598e-05
1.48597e-05
1.48596e-05
1.48595e-05
1.48593e-05
1.48591e-05
1.48588e-05
1.48584e-05
1.48578e-05
1.4857e-05
1.48558e-05
1.4854e-05
1.48513e-05
1.48473e-05
1.48414e-05
1.48327e-05
1.482e-05
1.48014e-05
1.47748e-05
1.47373e-05
1.46861e-05
1.46194e-05
1.45395e-05
6.14571e-05
6.17865e-05
6.206e-05
6.22697e-05
6.2423e-05
6.2532e-05
6.26079e-05
6.26601e-05
6.26957e-05
6.27198e-05
6.27361e-05
6.27471e-05
6.27546e-05
6.27597e-05
6.27632e-05
6.27656e-05
6.27673e-05
6.27685e-05
6.27694e-05
6.27701e-05
6.27705e-05
6.27709e-05
6.27712e-05
6.27715e-05
6.27717e-05
6.27718e-05
6.27719e-05
6.2772e-05
6.27721e-05
6.27721e-05
6.27721e-05
6.27721e-05
6.2772e-05
6.27719e-05
6.27718e-05
6.27717e-05
6.27715e-05
6.27712e-05
6.27709e-05
6.27705e-05
6.27701e-05
6.27694e-05
6.27685e-05
6.27673e-05
6.27656e-05
6.27632e-05
6.27597e-05
6.27546e-05
6.27471e-05
6.27361e-05
6.27198e-05
6.26957e-05
6.26601e-05
6.26079e-05
6.2532e-05
6.2423e-05
6.22697e-05
6.206e-05
6.17865e-05
6.14571e-05
0.000233904
0.000235103
0.000236094
0.000236852
0.000237406
0.0002378
0.000238074
0.000238263
0.000238391
0.000238478
0.000238537
0.000238577
0.000238605
0.000238623
0.000238636
0.000238645
0.000238651
0.000238656
0.000238659
0.000238661
0.000238663
0.000238664
0.000238665
0.000238666
0.000238667
0.000238668
0.000238668
0.000238668
0.000238669
0.000238669
0.000238669
0.000238669
0.000238668
0.000238668
0.000238668
0.000238667
0.000238666
0.000238665
0.000238664
0.000238663
0.000238661
0.000238659
0.000238656
0.000238651
0.000238645
0.000238636
0.000238623
0.000238605
0.000238577
0.000238537
0.000238478
0.000238391
0.000238263
0.000238074
0.0002378
0.000237406
0.000236852
0.000236094
0.000235103
0.000233904
0.000788025
0.000791802
0.000794907
0.000797276
0.000799007
0.000800236
0.000801093
0.000801682
0.000802084
0.000802357
0.000802542
0.000802667
0.000802753
0.000802811
0.000802852
0.00080288
0.000802899
0.000802914
0.000802924
0.000802931
0.000802937
0.000802942
0.000802945
0.000802948
0.00080295
0.000802952
0.000802954
0.000802955
0.000802955
0.000802956
0.000802956
0.000802955
0.000802955
0.000802954
0.000802952
0.00080295
0.000802948
0.000802945
0.000802942
0.000802937
0.000802931
0.000802924
0.000802914
0.000802899
0.00080288
0.000802852
0.000802811
0.000802753
0.000802667
0.000802542
0.000802357
0.000802084
0.000801682
0.000801093
0.000800236
0.000799007
0.000797276
0.000794907
0.000791802
0.000788025
0.00231096
0.00232105
0.00232928
0.00233555
0.00234012
0.00234337
0.00234563
0.00234719
0.00234826
0.00234898
0.00234947
0.0023498
0.00235003
0.00235018
0.00235029
0.00235037
0.00235042
0.00235046
0.00235049
0.00235051
0.00235052
0.00235053
0.00235054
0.00235055
0.00235056
0.00235056
0.00235057
0.00235057
0.00235057
0.00235057
0.00235057
0.00235057
0.00235057
0.00235057
0.00235056
0.00235056
0.00235055
0.00235054
0.00235053
0.00235052
0.00235051
0.00235049
0.00235046
0.00235042
0.00235037
0.00235029
0.00235018
0.00235003
0.0023498
0.00234947
0.00234898
0.00234826
0.00234719
0.00234563
0.00234337
0.00234012
0.00233555
0.00232928
0.00232105
0.00231096
0.00581701
0.0058394
0.00585753
0.00587131
0.00588136
0.00588849
0.00589347
0.00589689
0.00589923
0.00590082
0.0059019
0.00590264
0.00590314
0.00590349
0.00590373
0.00590389
0.00590401
0.0059041
0.00590416
0.0059042
0.00590424
0.00590426
0.00590429
0.0059043
0.00590432
0.00590433
0.00590434
0.00590434
0.00590435
0.00590435
0.00590435
0.00590435
0.00590434
0.00590434
0.00590433
0.00590432
0.0059043
0.00590429
0.00590426
0.00590424
0.0059042
0.00590416
0.0059041
0.00590401
0.00590389
0.00590373
0.00590349
0.00590314
0.00590264
0.0059019
0.00590082
0.00589923
0.00589689
0.00589347
0.00588849
0.00588136
0.00587131
0.00585753
0.0058394
0.00581701
0.0124804
0.0125214
0.0125543
0.0125793
0.0125975
0.0126104
0.0126194
0.0126256
0.0126299
0.0126328
0.0126348
0.0126361
0.012637
0.0126376
0.0126381
0.0126384
0.0126386
0.0126388
0.0126389
0.012639
0.012639
0.0126391
0.0126391
0.0126391
0.0126392
0.0126392
0.0126392
0.0126392
0.0126392
0.0126392
0.0126392
0.0126392
0.0126392
0.0126392
0.0126392
0.0126392
0.0126391
0.0126391
0.0126391
0.012639
0.012639
0.0126389
0.0126388
0.0126386
0.0126384
0.0126381
0.0126376
0.012637
0.0126361
0.0126348
0.0126328
0.0126299
0.0126256
0.0126194
0.0126104
0.0125975
0.0125793
0.0125543
0.0125214
0.0124804
0.0229293
0.022992
0.0230419
0.0230797
0.0231071
0.0231267
0.0231403
0.0231497
0.0231561
0.0231605
0.0231635
0.0231656
0.023167
0.0231679
0.0231686
0.0231691
0.0231694
0.0231697
0.0231698
0.02317
0.0231701
0.0231701
0.0231702
0.0231702
0.0231703
0.0231703
0.0231703
0.0231703
0.0231704
0.0231704
0.0231704
0.0231704
0.0231703
0.0231703
0.0231703
0.0231703
0.0231702
0.0231702
0.0231701
0.0231701
0.02317
0.0231698
0.0231697
0.0231694
0.0231691
0.0231686
0.0231679
0.023167
0.0231656
0.0231635
0.0231605
0.0231561
0.0231497
0.0231403
0.0231267
0.0231071
0.0230797
0.0230419
0.022992
0.0229293
0.0367158
0.0367985
0.0368636
0.0369127
0.0369485
0.0369739
0.0369917
0.037004
0.0370124
0.0370182
0.0370221
0.0370248
0.0370266
0.0370279
0.0370288
0.0370294
0.0370298
0.0370302
0.0370304
0.0370306
0.0370307
0.0370308
0.0370309
0.0370309
0.037031
0.037031
0.037031
0.0370311
0.0370311
0.0370311
0.0370311
0.0370311
0.0370311
0.037031
0.037031
0.037031
0.0370309
0.0370309
0.0370308
0.0370307
0.0370306
0.0370304
0.0370302
0.0370298
0.0370294
0.0370288
0.0370279
0.0370266
0.0370248
0.0370221
0.0370182
0.0370124
0.037004
0.0369917
0.0369739
0.0369485
0.0369127
0.0368636
0.0367985
0.0367158
0.0526275
0.0527258
0.0528025
0.0528602
0.0529023
0.0529322
0.0529531
0.0529676
0.0529776
0.0529844
0.0529891
0.0529923
0.0529945
0.052996
0.052997
0.0529978
0.0529983
0.0529987
0.052999
0.0529992
0.0529993
0.0529995
0.0529995
0.0529996
0.0529997
0.0529997
0.0529998
0.0529998
0.0529998
0.0529998
0.0529998
0.0529998
0.0529998
0.0529998
0.0529997
0.0529997
0.0529996
0.0529995
0.0529995
0.0529993
0.0529992
0.052999
0.0529987
0.0529983
0.0529978
0.052997
0.052996
0.0529945
0.0529923
0.0529891
0.0529844
0.0529776
0.0529676
0.0529531
0.0529322
0.0529023
0.0528602
0.0528025
0.0527258
0.0526275
0.0694852
0.0695955
0.0696807
0.0697448
0.0697915
0.0698248
0.0698481
0.0698642
0.0698754
0.069883
0.0698883
0.0698919
0.0698943
0.0698961
0.0698973
0.0698981
0.0698987
0.0698991
0.0698995
0.0698997
0.0698999
0.0699
0.0699001
0.0699002
0.0699002
0.0699003
0.0699003
0.0699004
0.0699004
0.0699004
0.0699004
0.0699004
0.0699004
0.0699003
0.0699003
0.0699002
0.0699002
0.0699001
0.0699
0.0698999
0.0698997
0.0698995
0.0698991
0.0698987
0.0698981
0.0698973
0.0698961
0.0698943
0.0698919
0.0698883
0.069883
0.0698754
0.0698642
0.0698481
0.0698248
0.0697915
0.0697448
0.0696807
0.0695955
0.0694852
0.0866011
0.0867214
0.0868138
0.0868831
0.0869337
0.0869698
0.0869951
0.0870127
0.0870249
0.0870332
0.087039
0.0870429
0.0870457
0.0870476
0.0870489
0.0870499
0.0870505
0.087051
0.0870514
0.0870516
0.0870518
0.0870519
0.0870521
0.0870521
0.0870522
0.0870523
0.0870523
0.0870523
0.0870524
0.0870524
0.0870524
0.0870524
0.0870523
0.0870523
0.0870523
0.0870522
0.0870521
0.0870521
0.0870519
0.0870518
0.0870516
0.0870514
0.087051
0.0870505
0.0870499
0.0870489
0.0870476
0.0870457
0.0870429
0.087039
0.0870332
0.0870249
0.0870127
0.0869951
0.0869698
0.0869337
0.0868831
0.0868138
0.0867214
0.0866011
0.103728
0.103858
0.103957
0.104031
0.104085
0.104124
0.104152
0.104171
0.104184
0.104193
0.104199
0.104203
0.104206
0.104208
0.10421
0.104211
0.104212
0.104212
0.104213
0.104213
0.104213
0.104213
0.104213
0.104213
0.104214
0.104214
0.104214
0.104214
0.104214
0.104214
0.104214
0.104214
0.104214
0.104214
0.104214
0.104214
0.104213
0.104213
0.104213
0.104213
0.104213
0.104213
0.104212
0.104212
0.104211
0.10421
0.104208
0.104206
0.104203
0.104199
0.104193
0.104184
0.104171
0.104152
0.104124
0.104085
0.104031
0.103957
0.103858
0.103728
0.120835
0.120974
0.12108
0.121159
0.121217
0.121258
0.121288
0.121308
0.121323
0.121332
0.121339
0.121344
0.121347
0.121349
0.121351
0.121352
0.121353
0.121353
0.121354
0.121354
0.121354
0.121355
0.121355
0.121355
0.121355
0.121355
0.121355
0.121355
0.121355
0.121355
0.121355
0.121355
0.121355
0.121355
0.121355
0.121355
0.121355
0.121355
0.121355
0.121354
0.121354
0.121354
0.121353
0.121353
0.121352
0.121351
0.121349
0.121347
0.121344
0.121339
0.121332
0.121323
0.121308
0.121288
0.121258
0.121217
0.121159
0.12108
0.120974
0.120835
0.137949
0.138096
0.138209
0.138293
0.138355
0.1384
0.138431
0.138453
0.138468
0.138479
0.138486
0.138491
0.138495
0.138497
0.138499
0.1385
0.138501
0.138502
0.138502
0.138503
0.138503
0.138503
0.138503
0.138503
0.138503
0.138504
0.138504
0.138504
0.138504
0.138504
0.138504
0.138504
0.138504
0.138504
0.138504
0.138503
0.138503
0.138503
0.138503
0.138503
0.138503
0.138502
0.138502
0.138501
0.1385
0.138499
0.138497
0.138495
0.138491
0.138486
0.138479
0.138468
0.138453
0.138431
0.1384
0.138355
0.138293
0.138209
0.138096
0.137949
0.155092
0.155249
0.155368
0.155458
0.155523
0.155571
0.155604
0.155628
0.155644
0.155656
0.155664
0.155669
0.155673
0.155676
0.155678
0.155679
0.15568
0.155681
0.155681
0.155682
0.155682
0.155682
0.155682
0.155682
0.155682
0.155683
0.155683
0.155683
0.155683
0.155683
0.155683
0.155683
0.155683
0.155683
0.155683
0.155682
0.155682
0.155682
0.155682
0.155682
0.155682
0.155681
0.155681
0.15568
0.155679
0.155678
0.155676
0.155673
0.155669
0.155664
0.155656
0.155644
0.155628
0.155604
0.155571
0.155523
0.155458
0.155368
0.155249
0.155092
0.172274
0.17244
0.172566
0.172661
0.17273
0.172781
0.172816
0.172842
0.172859
0.172872
0.17288
0.172886
0.17289
0.172893
0.172895
0.172897
0.172898
0.172899
0.172899
0.172899
0.1729
0.1729
0.1729
0.1729
0.1729
0.1729
0.1729
0.1729
0.172901
0.172901
0.172901
0.172901
0.1729
0.1729
0.1729
0.1729
0.1729
0.1729
0.1729
0.1729
0.172899
0.172899
0.172899
0.172898
0.172897
0.172895
0.172893
0.17289
0.172886
0.17288
0.172872
0.172859
0.172842
0.172816
0.172781
0.17273
0.172661
0.172566
0.17244
0.172274
0.189493
0.189667
0.1898
0.1899
0.189973
0.190027
0.190065
0.190092
0.190111
0.190124
0.190133
0.190139
0.190144
0.190147
0.190149
0.190151
0.190152
0.190153
0.190153
0.190154
0.190154
0.190154
0.190155
0.190155
0.190155
0.190155
0.190155
0.190155
0.190155
0.190155
0.190155
0.190155
0.190155
0.190155
0.190155
0.190155
0.190155
0.190155
0.190154
0.190154
0.190154
0.190153
0.190153
0.190152
0.190151
0.190149
0.190147
0.190144
0.190139
0.190133
0.190124
0.190111
0.190092
0.190065
0.190027
0.189973
0.1899
0.1898
0.189667
0.189493
0.206741
0.206923
0.207062
0.207167
0.207244
0.207301
0.207341
0.20737
0.20739
0.207404
0.207414
0.207421
0.207426
0.207429
0.207432
0.207433
0.207434
0.207435
0.207436
0.207436
0.207437
0.207437
0.207437
0.207437
0.207437
0.207438
0.207438
0.207438
0.207438
0.207438
0.207438
0.207438
0.207438
0.207438
0.207438
0.207437
0.207437
0.207437
0.207437
0.207437
0.207436
0.207436
0.207435
0.207434
0.207433
0.207432
0.207429
0.207426
0.207421
0.207414
0.207404
0.20739
0.20737
0.207341
0.207301
0.207244
0.207167
0.207062
0.206923
0.206741
0.224005
0.224195
0.22434
0.22445
0.224532
0.224591
0.224634
0.224664
0.224686
0.224701
0.224711
0.224719
0.224724
0.224728
0.22473
0.224732
0.224734
0.224735
0.224735
0.224736
0.224736
0.224736
0.224737
0.224737
0.224737
0.224737
0.224737
0.224737
0.224737
0.224737
0.224737
0.224737
0.224737
0.224737
0.224737
0.224737
0.224737
0.224737
0.224736
0.224736
0.224736
0.224735
0.224735
0.224734
0.224732
0.22473
0.224728
0.224724
0.224719
0.224711
0.224701
0.224686
0.224664
0.224634
0.224591
0.224532
0.22445
0.22434
0.224195
0.224005
0.241273
0.24147
0.241622
0.241737
0.241823