/*--------------------------------*- C++ -*----------------------------------*\
| =========                 |                                                 |
| \\      /  F ield         | foam-extend: Open Source CFD                    |
|  \\    /   O peration     | Version:     4.0                                |
|   \\  /    A nd           | Web:         http://www.foam-extend.org         |
|    \\/     M anipulation  |                                                 |
\*---------------------------------------------------------------------------*/
FoamFile
{
    version     2.0;
    format      ascii;
    class       volScalarField;
    location    "1640";
    object      psiE;
}
// * * * * * * * * * * * * * * * * * * * * * * * * * * * * * * * * * * * * * //

dimensions      [0 0 0 0 0 0 0];

internalField   nonuniform List<scalar> 
6960
(
0.364909
0.364927
0.364946
0.364962
0.364975
0.364985
0.364993
0.364999
0.365003
0.365007
0.365009
0.365011
0.365013
0.365014
0.365015
0.365015
0.365016
0.365016
0.365017
0.365017
0.365017
0.365017
0.365017
0.365017
0.365017
0.365017
0.365017
0.365017
0.365017
0.365017
0.365017
0.365017
0.365017
0.365017
0.365017
0.365017
0.365017
0.365017
0.365017
0.365017
0.365017
0.365017
0.365016
0.365016
0.365015
0.365015
0.365014
0.365013
0.365011
0.365009
0.365007
0.365003
0.364999
0.364993
0.364985
0.364975
0.364962
0.364946
0.364927
0.364909
0.957398
0.957471
0.957546
0.957611
0.957664
0.957705
0.957737
0.957761
0.957779
0.957793
0.957804
0.957812
0.957817
0.957822
0.957825
0.957828
0.95783
0.957831
0.957832
0.957833
0.957834
0.957835
0.957835
0.957835
0.957836
0.957836
0.957836
0.957836
0.957836
0.957836
0.957836
0.957836
0.957836
0.957836
0.957836
0.957836
0.957835
0.957835
0.957835
0.957834
0.957833
0.957832
0.957831
0.95783
0.957828
0.957825
0.957822
0.957817
0.957812
0.957804
0.957793
0.957779
0.957761
0.957737
0.957705
0.957664
0.957611
0.957546
0.957471
0.957398
1.52436
1.5245
1.52465
1.52477
1.52487
1.52495
1.52501
1.52506
1.5251
1.52512
1.52514
1.52516
1.52517
1.52518
1.52518
1.52519
1.52519
1.52519
1.5252
1.5252
1.5252
1.5252
1.5252
1.5252
1.5252
1.5252
1.5252
1.5252
1.5252
1.5252
1.5252
1.5252
1.5252
1.5252
1.5252
1.5252
1.5252
1.5252
1.5252
1.5252
1.5252
1.5252
1.52519
1.52519
1.52519
1.52518
1.52518
1.52517
1.52516
1.52514
1.52512
1.5251
1.52506
1.52501
1.52495
1.52487
1.52477
1.52465
1.5245
1.52436
2.09171
2.09192
2.09214
2.09233
2.09248
2.0926
2.09269
2.09276
2.09282
2.09286
2.09289
2.09291
2.09293
2.09294
2.09295
2.09296
2.09296
2.09297
2.09297
2.09297
2.09298
2.09298
2.09298
2.09298
2.09298
2.09298
2.09298
2.09298
2.09298
2.09298
2.09298
2.09298
2.09298
2.09298
2.09298
2.09298
2.09298
2.09298
2.09298
2.09298
2.09297
2.09297
2.09297
2.09296
2.09296
2.09295
2.09294
2.09293
2.09291
2.09289
2.09286
2.09282
2.09276
2.09269
2.0926
2.09248
2.09233
2.09214
2.09192
2.09171
2.66676
2.66705
2.66734
2.6676
2.66781
2.66797
2.6681
2.66819
2.66827
2.66832
2.66836
2.66839
2.66842
2.66843
2.66845
2.66846
2.66846
2.66847
2.66848
2.66848
2.66848
2.66848
2.66849
2.66849
2.66849
2.66849
2.66849
2.66849
2.66849
2.66849
2.66849
2.66849
2.66849
2.66849
2.66849
2.66849
2.66849
2.66849
2.66848
2.66848
2.66848
2.66848
2.66847
2.66846
2.66846
2.66845
2.66843
2.66842
2.66839
2.66836
2.66832
2.66827
2.66819
2.6681
2.66797
2.66781
2.6676
2.66734
2.66705
2.66676
3.25155
3.25191
3.25228
3.25261
3.25287
3.25307
3.25323
3.25336
3.25345
3.25352
3.25357
3.25361
3.25364
3.25366
3.25368
3.25369
3.2537
3.25371
3.25371
3.25372
3.25372
3.25372
3.25373
3.25373
3.25373
3.25373
3.25373
3.25373
3.25373
3.25373
3.25373
3.25373
3.25373
3.25373
3.25373
3.25373
3.25373
3.25373
3.25372
3.25372
3.25372
3.25371
3.25371
3.2537
3.25369
3.25368
3.25366
3.25364
3.25361
3.25357
3.25352
3.25345
3.25336
3.25323
3.25307
3.25287
3.25261
3.25228
3.25191
3.25155
3.8465
3.84693
3.84739
3.84778
3.8481
3.84835
3.84854
3.84869
3.8488
3.84889
3.84895
3.849
3.84903
3.84906
3.84908
3.8491
3.84911
3.84912
3.84912
3.84913
3.84913
3.84914
3.84914
3.84914
3.84914
3.84914
3.84914
3.84915
3.84915
3.84915
3.84915
3.84915
3.84915
3.84914
3.84914
3.84914
3.84914
3.84914
3.84914
3.84913
3.84913
3.84912
3.84912
3.84911
3.8491
3.84908
3.84906
3.84903
3.849
3.84895
3.84889
3.8488
3.84869
3.84854
3.84835
3.8481
3.84778
3.84739
3.84693
3.8465
4.45157
4.45209
4.45262
4.45308
4.45345
4.45375
4.45397
4.45415
4.45428
4.45438
4.45445
4.45451
4.45455
4.45458
4.45461
4.45463
4.45464
4.45465
4.45466
4.45466
4.45467
4.45467
4.45468
4.45468
4.45468
4.45468
4.45468
4.45468
4.45468
4.45469
4.45469
4.45468
4.45468
4.45468
4.45468
4.45468
4.45468
4.45468
4.45467
4.45467
4.45466
4.45466
4.45465
4.45464
4.45463
4.45461
4.45458
4.45455
4.45451
4.45445
4.45438
4.45428
4.45415
4.45397
4.45375
4.45345
4.45308
4.45262
4.45209
4.45157
5.06656
5.06715
5.06776
5.06829
5.06872
5.06906
5.06932
5.06952
5.06967
5.06978
5.06987
5.06993
5.06998
5.07002
5.07004
5.07007
5.07008
5.07009
5.0701
5.07011
5.07012
5.07012
5.07012
5.07013
5.07013
5.07013
5.07013
5.07013
5.07013
5.07013
5.07013
5.07013
5.07013
5.07013
5.07013
5.07013
5.07013
5.07012
5.07012
5.07012
5.07011
5.0701
5.07009
5.07008
5.07007
5.07004
5.07002
5.06998
5.06993
5.06987
5.06978
5.06967
5.06952
5.06932
5.06906
5.06872
5.06829
5.06776
5.06715
5.06656
5.69116
5.69182
5.69251
5.69311
5.69359
5.69397
5.69427
5.69449
5.69466
5.69479
5.69489
5.69496
5.69502
5.69506
5.69509
5.69511
5.69513
5.69515
5.69516
5.69516
5.69517
5.69518
5.69518
5.69518
5.69519
5.69519
5.69519
5.69519
5.69519
5.69519
5.69519
5.69519
5.69519
5.69519
5.69519
5.69519
5.69518
5.69518
5.69518
5.69517
5.69516
5.69516
5.69515
5.69513
5.69511
5.69509
5.69506
5.69502
5.69496
5.69489
5.69479
5.69466
5.69449
5.69427
5.69397
5.69359
5.69311
5.69251
5.69182
5.69116
6.32499
6.32572
6.3265
6.32716
6.3277
6.32812
6.32845
6.3287
6.32889
6.32904
6.32914
6.32922
6.32929
6.32933
6.32937
6.32939
6.32941
6.32943
6.32944
6.32945
6.32946
6.32946
6.32947
6.32947
6.32948
6.32948
6.32948
6.32948
6.32948
6.32948
6.32948
6.32948
6.32948
6.32948
6.32948
6.32948
6.32947
6.32947
6.32946
6.32946
6.32945
6.32944
6.32943
6.32941
6.32939
6.32937
6.32933
6.32929
6.32922
6.32914
6.32904
6.32889
6.3287
6.32845
6.32812
6.3277
6.32716
6.3265
6.32572
6.32499
6.96762
6.96842
6.96927
6.97
6.9706
6.97106
6.97142
6.9717
6.97191
6.97207
6.97219
6.97228
6.97234
6.97239
6.97243
6.97246
6.97249
6.9725
6.97252
6.97253
6.97253
6.97254
6.97255
6.97255
6.97255
6.97255
6.97256
6.97256
6.97256
6.97256
6.97256
6.97256
6.97256
6.97256
6.97255
6.97255
6.97255
6.97255
6.97254
6.97253
6.97253
6.97252
6.9725
6.97249
6.97246
6.97243
6.97239
6.97234
6.97228
6.97219
6.97207
6.97191
6.9717
6.97142
6.97106
6.9706
6.97
6.96927
6.96842
6.96762
7.61851
7.61939
7.62032
7.62111
7.62176
7.62227
7.62266
7.62296
7.62319
7.62337
7.6235
7.62359
7.62367
7.62372
7.62376
7.6238
7.62382
7.62384
7.62385
7.62387
7.62387
7.62388
7.62389
7.62389
7.62389
7.6239
7.6239
7.6239
7.6239
7.6239
7.6239
7.6239
7.6239
7.6239
7.6239
7.62389
7.62389
7.62389
7.62388
7.62387
7.62387
7.62385
7.62384
7.62382
7.6238
7.62376
7.62372
7.62367
7.62359
7.6235
7.62337
7.62319
7.62296
7.62266
7.62227
7.62176
7.62111
7.62032
7.61939
7.61851
8.27707
8.27802
8.27902
8.27988
8.28058
8.28113
8.28156
8.28188
8.28213
8.28232
8.28246
8.28256
8.28264
8.2827
8.28275
8.28278
8.28281
8.28283
8.28284
8.28286
8.28287
8.28287
8.28288
8.28288
8.28289
8.28289
8.28289
8.28289
8.2829
8.2829
8.2829
8.2829
8.28289
8.28289
8.28289
8.28289
8.28288
8.28288
8.28287
8.28287
8.28286
8.28284
8.28283
8.28281
8.28278
8.28275
8.2827
8.28264
8.28256
8.28246
8.28232
8.28213
8.28188
8.28156
8.28113
8.28058
8.27988
8.27902
8.27802
8.27707
8.94258
8.9436
8.94467
8.94559
8.94634
8.94693
8.94739
8.94774
8.94801
8.94821
8.94836
8.94847
8.94856
8.94862
8.94867
8.94871
8.94874
8.94876
8.94878
8.94879
8.9488
8.94881
8.94881
8.94882
8.94882
8.94883
8.94883
8.94883
8.94883
8.94883
8.94883
8.94883
8.94883
8.94883
8.94883
8.94882
8.94882
8.94881
8.94881
8.9488
8.94879
8.94878
8.94876
8.94874
8.94871
8.94867
8.94862
8.94856
8.94847
8.94836
8.94821
8.94801
8.94774
8.94739
8.94693
8.94634
8.94559
8.94467
8.9436
8.94258
9.61422
9.6153
9.61644
9.61743
9.61823
9.61886
9.61935
9.61972
9.62
9.62022
9.62038
9.6205
9.62059
9.62066
9.62071
9.62075
9.62078
9.62081
9.62083
9.62084
9.62085
9.62086
9.62087
9.62087
9.62088
9.62088
9.62088
9.62088
9.62088
9.62088
9.62088
9.62088
9.62088
9.62088
9.62088
9.62088
9.62087
9.62087
9.62086
9.62085
9.62084
9.62083
9.62081
9.62078
9.62075
9.62071
9.62066
9.62059
9.6205
9.62038
9.62022
9.62
9.61972
9.61935
9.61886
9.61823
9.61743
9.61644
9.6153
9.61422
10.291
10.2922
10.2934
10.2944
10.2953
10.296
10.2965
10.2969
10.2972
10.2974
10.2976
10.2977
10.2978
10.2979
10.2979
10.298
10.298
10.298
10.298
10.2981
10.2981
10.2981
10.2981
10.2981
10.2981
10.2981
10.2981
10.2981
10.2981
10.2981
10.2981
10.2981
10.2981
10.2981
10.2981
10.2981
10.2981
10.2981
10.2981
10.2981
10.2981
10.298
10.298
10.298
10.298
10.2979
10.2979
10.2978
10.2977
10.2976
10.2974
10.2972
10.2969
10.2965
10.296
10.2953
10.2944
10.2934
10.2922
10.291
10.972
10.9732
10.9744
10.9755
10.9764
10.9771
10.9777
10.9781
10.9784
10.9787
10.9788
10.979
10.9791
10.9791
10.9792
10.9793
10.9793
10.9793
10.9793
10.9793
10.9794
10.9794
10.9794
10.9794
10.9794
10.9794
10.9794
10.9794
10.9794
10.9794
10.9794
10.9794
10.9794
10.9794
10.9794
10.9794
10.9794
10.9794
10.9794
10.9794
10.9793
10.9793
10.9793
10.9793
10.9793
10.9792
10.9791
10.9791
10.979
10.9788
10.9787
10.9784
10.9781
10.9777
10.9771
10.9764
10.9755
10.9744
10.9732
10.972
11.6557
11.657
11.6583
11.6595
11.6604
11.6611
11.6617
11.6621
11.6625
11.6627
11.6629
11.6631
11.6632
11.6632
11.6633
11.6633
11.6634
11.6634
11.6634
11.6634
11.6635
11.6635
11.6635
11.6635
11.6635
11.6635
11.6635
11.6635
11.6635
11.6635
11.6635
11.6635
11.6635
11.6635
11.6635
11.6635
11.6635
11.6635
11.6635
11.6635
11.6634
11.6634
11.6634
11.6634
11.6633
11.6633
11.6632
11.6632
11.6631
11.6629
11.6627
11.6625
11.6621
11.6617
11.6611
11.6604
11.6595
11.6583
11.657
11.6557
12.3408
12.3422
12.3436
12.3448
12.3457
12.3465
12.3471
12.3475
12.3479
12.3482
12.3483
12.3485
12.3486
12.3487
12.3488
12.3488
12.3488
12.3489
12.3489
12.3489
12.3489
12.3489
12.3489
12.349
12.349
12.349
12.349
12.349
12.349
12.349
12.349
12.349
12.349
12.349
12.349
12.349
12.349
12.3489
12.3489
12.3489
12.3489
12.3489
12.3489
12.3488
12.3488
12.3488
12.3487
12.3486
12.3485
12.3483
12.3482
12.3479
12.3475
12.3471
12.3465
12.3457
12.3448
12.3436
12.3422
12.3408
13.0257
13.0271
13.0285
13.0298
13.0308
13.0316
13.0322
13.0326
13.033
13.0333
13.0335
13.0336
13.0338
13.0338
13.0339
13.034
13.034
13.034
13.0341
13.0341
13.0341
13.0341
13.0341
13.0341
13.0341
13.0341
13.0341
13.0341
13.0341
13.0341
13.0341
13.0341
13.0341
13.0341
13.0341
13.0341
13.0341
13.0341
13.0341
13.0341
13.0341
13.0341
13.034
13.034
13.034
13.0339
13.0338
13.0338
13.0336
13.0335
13.0333
13.033
13.0326
13.0322
13.0316
13.0308
13.0298
13.0285
13.0271
13.0257
13.7084
13.7098
13.7113
13.7125
13.7136
13.7144
13.715
13.7155
13.7159
13.7162
13.7164
13.7165
13.7167
13.7168
13.7168
13.7169
13.7169
13.7169
13.717
13.717
13.717
13.717
13.717
13.717
13.717
13.717
13.717
13.717
13.7171
13.7171
13.7171
13.7171
13.717
13.717
13.717
13.717
13.717
13.717
13.717
13.717
13.717
13.717
13.7169
13.7169
13.7169
13.7168
13.7168
13.7167
13.7165
13.7164
13.7162
13.7159
13.7155
13.715
13.7144
13.7136
13.7125
13.7113
13.7098
13.7084
14.3866
14.3881
14.3896
14.3909
14.392
14.3928
14.3934
14.3939
14.3943
14.3946
14.3948
14.395
14.3951
14.3952
14.3953
14.3953
14.3954
14.3954
14.3954
14.3955
14.3955
14.3955
14.3955
14.3955
14.3955
14.3955
14.3955
14.3955
14.3955
14.3955
14.3955
14.3955
14.3955
14.3955
14.3955
14.3955
14.3955
14.3955
14.3955
14.3955
14.3955
14.3954
14.3954
14.3954
14.3953
14.3953
14.3952
14.3951
14.395
14.3948
14.3946
14.3943
14.3939
14.3934
14.3928
14.392
14.3909
14.3896
14.3881
14.3866
15.0579
15.0594
15.0609
15.0622
15.0633
15.0642
15.0648
15.0653
15.0657
15.066
15.0662
15.0664
15.0665
15.0666
15.0667
15.0668
15.0668
15.0668
15.0669
15.0669
15.0669
15.0669
15.0669
15.0669
15.0669
15.0669
15.0669
15.0669
15.0669
15.0669
15.0669
15.0669
15.0669
15.0669
15.0669
15.0669
15.0669
15.0669
15.0669
15.0669
15.0669
15.0669
15.0668
15.0668
15.0668
15.0667
15.0666
15.0665
15.0664
15.0662
15.066
15.0657
15.0653
15.0648
15.0642
15.0633
15.0622
15.0609
15.0594
15.0579
15.7191
15.7207
15.7222
15.7236
15.7247
15.7255
15.7262
15.7267
15.7271
15.7274
15.7276
15.7278
15.7279
15.728
15.7281
15.7281
15.7282
15.7282
15.7282
15.7283
15.7283
15.7283
15.7283
15.7283
15.7283
15.7283
15.7283
15.7283
15.7283
15.7283
15.7283
15.7283
15.7283
15.7283
15.7283
15.7283
15.7283
15.7283
15.7283
15.7283
15.7283
15.7282
15.7282
15.7282
15.7281
15.7281
15.728
15.7279
15.7278
15.7276
15.7274
15.7271
15.7267
15.7262
15.7255
15.7247
15.7236
15.7222
15.7207
15.7191
16.3669
16.3684
16.37
16.3714
16.3725
16.3733
16.374
16.3745
16.3749
16.3752
16.3754
16.3756
16.3757
16.3758
16.3759
16.3759
16.376
16.376
16.376
16.3761
16.3761
16.3761
16.3761
16.3761
16.3761
16.3761
16.3761
16.3761
16.3761
16.3761
16.3761
16.3761
16.3761
16.3761
16.3761
16.3761
16.3761
16.3761
16.3761
16.3761
16.3761
16.376
16.376
16.376
16.3759
16.3759
16.3758
16.3757
16.3756
16.3754
16.3752
16.3749
16.3745
16.374
16.3733
16.3725
16.3714
16.37
16.3684
16.3669
16.9971
16.9986
17.0001
17.0015
17.0026
17.0034
17.0041
17.0046
17.005
17.0053
17.0055
17.0057
17.0058
17.0059
17.006
17.006
17.0061
17.0061
17.0061
17.0061
17.0062
17.0062
17.0062
17.0062
17.0062
17.0062
17.0062
17.0062
17.0062
17.0062
17.0062
17.0062
17.0062
17.0062
17.0062
17.0062
17.0062
17.0062
17.0062
17.0062
17.0061
17.0061
17.0061
17.0061
17.006
17.006
17.0059
17.0058
17.0057
17.0055
17.0053
17.005
17.0046
17.0041
17.0034
17.0026
17.0015
17.0001
16.9986
16.9971
17.6047
17.6061
17.6077
17.609
17.61
17.6109
17.6115
17.612
17.6124
17.6127
17.6129
17.6131
17.6132
17.6133
17.6134
17.6134
17.6135
17.6135
17.6135
17.6135
17.6136
17.6136
17.6136
17.6136
17.6136
17.6136
17.6136
17.6136
17.6136
17.6136
17.6136
17.6136
17.6136
17.6136
17.6136
17.6136
17.6136
17.6136
17.6136
17.6136
17.6135
17.6135
17.6135
17.6135
17.6134
17.6134
17.6133
17.6132
17.6131
17.6129
17.6127
17.6124
17.612
17.6115
17.6109
17.61
17.609
17.6077
17.6061
17.6047
18.1838
18.1852
18.1867
18.1879
18.1889
18.1898
18.1904
18.1909
18.1912
18.1915
18.1917
18.1919
18.192
18.1921
18.1922
18.1922
18.1923
18.1923
18.1923
18.1923
18.1924
18.1924
18.1924
18.1924
18.1924
18.1924
18.1924
18.1924
18.1924
18.1924
18.1924
18.1924
18.1924
18.1924
18.1924
18.1924
18.1924
18.1924
18.1924
18.1924
18.1923
18.1923
18.1923
18.1923
18.1922
18.1922
18.1921
18.192
18.1919
18.1917
18.1915
18.1912
18.1909
18.1904
18.1898
18.1889
18.1879
18.1867
18.1852
18.1838
18.7274
18.7287
18.7301
18.7313
18.7323
18.733
18.7336
18.7341
18.7344
18.7347
18.7349
18.735
18.7352
18.7352
18.7353
18.7354
18.7354
18.7354
18.7355
18.7355
18.7355
18.7355
18.7355
18.7355
18.7355
18.7355
18.7355
18.7355
18.7355
18.7355
18.7355
18.7355
18.7355
18.7355
18.7355
18.7355
18.7355
18.7355
18.7355
18.7355
18.7355
18.7355
18.7354
18.7354
18.7354
18.7353
18.7352
18.7352
18.735
18.7349
18.7347
18.7344
18.7341
18.7336
18.733
18.7323
18.7313
18.7301
18.7287
18.7274
19.2273
19.2285
19.2298
19.2309
19.2318
19.2325
19.233
19.2334
19.2337
19.234
19.2342
19.2343
19.2344
19.2345
19.2346
19.2346
19.2347
19.2347
19.2347
19.2347
19.2347
19.2348
19.2348
19.2348
19.2348
19.2348
19.2348
19.2348
19.2348
19.2348
19.2348
19.2348
19.2348
19.2348
19.2348
19.2348
19.2348
19.2348
19.2348
19.2347
19.2347
19.2347
19.2347
19.2347
19.2346
19.2346
19.2345
19.2344
19.2343
19.2342
19.234
19.2337
19.2334
19.233
19.2325
19.2318
19.2309
19.2298
19.2285
19.2273
19.6747
19.6758
19.6769
19.6778
19.6786
19.6792
19.6797
19.6801
19.6804
19.6806
19.6808
19.6809
19.681
19.6811
19.6811
19.6812
19.6812
19.6812
19.6813
19.6813
19.6813
19.6813
19.6813
19.6813
19.6813
19.6813
19.6813
19.6813
19.6813
19.6813
19.6813
19.6813
19.6813
19.6813
19.6813
19.6813
19.6813
19.6813
19.6813
19.6813
19.6813
19.6813
19.6812
19.6812
19.6812
19.6811
19.6811
19.681
19.6809
19.6808
19.6806
19.6804
19.6801
19.6797
19.6792
19.6786
19.6778
19.6769
19.6758
19.6747
20.0617
20.0626
20.0636
20.0644
20.065
20.0655
20.0659
20.0663
20.0665
20.0667
20.0668
20.0669
20.067
20.0671
20.0672
20.0672
20.0672
20.0672
20.0673
20.0673
20.0673
20.0673
20.0673
20.0673
20.0673
20.0673
20.0673
20.0673
20.0673
20.0673
20.0673
20.0673
20.0673
20.0673
20.0673
20.0673
20.0673
20.0673
20.0673
20.0673
20.0673
20.0673
20.0672
20.0672
20.0672
20.0672
20.0671
20.067
20.0669
20.0668
20.0667
20.0665
20.0663
20.0659
20.0655
20.065
20.0644
20.0636
20.0626
20.0617
20.3841
20.3848
20.3855
20.3862
20.3867
20.3871
20.3874
20.3877
20.3879
20.388
20.3882
20.3882
20.3883
20.3884
20.3884
20.3885
20.3885
20.3885
20.3885
20.3885
20.3885
20.3886
20.3886
20.3886
20.3886
20.3886
20.3886
20.3886
20.3886
20.3886
20.3886
20.3886
20.3886
20.3886
20.3886
20.3886
20.3886
20.3886
20.3886
20.3885
20.3885
20.3885
20.3885
20.3885
20.3885
20.3884
20.3884
20.3883
20.3882
20.3882
20.388
20.3879
20.3877
20.3874
20.3871
20.3867
20.3862
20.3855
20.3848
20.3841
20.6434
20.6439
20.6445
20.6449
20.6453
20.6457
20.6459
20.6461
20.6463
20.6464
20.6465
20.6466
20.6466
20.6467
20.6467
20.6467
20.6467
20.6468
20.6468
20.6468
20.6468
20.6468
20.6468
20.6468
20.6468
20.6468
20.6468
20.6468
20.6468
20.6468
20.6468
20.6468
20.6468
20.6468
20.6468
20.6468
20.6468
20.6468
20.6468
20.6468
20.6468
20.6468
20.6468
20.6467
20.6467
20.6467
20.6467
20.6466
20.6466
20.6465
20.6464
20.6463
20.6461
20.6459
20.6457
20.6453
20.6449
20.6445
20.6439
20.6434
20.8475
20.8479
20.8483
20.8486
20.8489
20.8491
20.8493
20.8495
20.8496
20.8497
20.8497
20.8498
20.8499
20.8499
20.8499
20.8499
20.85
20.85
20.85
20.85
20.85
20.85
20.85
20.85
20.85
20.85
20.85
20.85
20.85
20.85
20.85
20.85
20.85
20.85
20.85
20.85
20.85
20.85
20.85
20.85
20.85
20.85
20.85
20.85
20.8499
20.8499
20.8499
20.8499
20.8498
20.8497
20.8497
20.8496
20.8495
20.8493
20.8491
20.8489
20.8486
20.8483
20.8479
20.8475
21.008
21.0082
21.0085
21.0087
21.0089
21.0091
21.0092
21.0093
21.0094
21.0095
21.0096
21.0096
21.0096
21.0097
21.0097
21.0097
21.0097
21.0098
21.0098
21.0098
21.0098
21.0098
21.0098
21.0098
21.0098
21.0098
21.0098
21.0098
21.0098
21.0098
21.0098
21.0098
21.0098
21.0098
21.0098
21.0098
21.0098
21.0098
21.0098
21.0098
21.0098
21.0098
21.0098
21.0097
21.0097
21.0097
21.0097
21.0096
21.0096
21.0096
21.0095
21.0094
21.0093
21.0092
21.0091
21.0089
21.0087
21.0085
21.0082
21.008
21.1366
21.1367
21.1369
21.137
21.1372
21.1373
21.1374
21.1375
21.1376
21.1376
21.1377
21.1377
21.1377
21.1378
21.1378
21.1378
21.1378
21.1378
21.1379
21.1379
21.1379
21.1379
21.1379
21.1379
21.1379
21.1379
21.1379
21.1379
21.1379
21.1379
21.1379
21.1379
21.1379
21.1379
21.1379
21.1379
21.1379
21.1379
21.1379
21.1379
21.1379
21.1379
21.1378
21.1378
21.1378
21.1378
21.1378
21.1377
21.1377
21.1377
21.1376
21.1376
21.1375
21.1374
21.1373
21.1372
21.137
21.1369
21.1367
21.1366
21.2428
21.2429
21.243
21.2432
21.2433
21.2434
21.2434
21.2435
21.2436
21.2436
21.2436
21.2437
21.2437
21.2437
21.2438
21.2438
21.2438
21.2438
21.2438
21.2438
21.2438
21.2438
21.2438
21.2438
21.2438
21.2438
21.2438
21.2438
21.2438
21.2438
21.2438
21.2438
21.2438
21.2438
21.2438
21.2438
21.2438
21.2438
21.2438
21.2438
21.2438
21.2438
21.2438
21.2438
21.2438
21.2438
21.2437
21.2437
21.2437
21.2436
21.2436
21.2436
21.2435
21.2434
21.2434
21.2433
21.2432
21.243
21.2429
21.2428
21.3337
21.3337
21.3338
21.3339
21.3339
21.334
21.3341
21.3341
21.3342
21.3342
21.3342
21.3343
21.3343
21.3343
21.3343
21.3344
21.3344
21.3344
21.3344
21.3344
21.3344
21.3344
21.3344
21.3344
21.3344
21.3344
21.3344
21.3344
21.3344
21.3344
21.3344
21.3344
21.3344
21.3344
21.3344
21.3344
21.3344
21.3344
21.3344
21.3344
21.3344
21.3344
21.3344
21.3344
21.3344
21.3343
21.3343
21.3343
21.3343
21.3342
21.3342
21.3342
21.3341
21.3341
21.334
21.3339
21.3339
21.3338
21.3337
21.3337
21.4135
21.4135
21.4136
21.4136
21.4137
21.4137
21.4138
21.4138
21.4139
21.4139
21.4139
21.414
21.414
21.414
21.414
21.414
21.414
21.414
21.4141
21.4141
21.4141
21.4141
21.4141
21.4141
21.4141
21.4141
21.4141
21.4141
21.4141
21.4141
21.4141
21.4141
21.4141
21.4141
21.4141
21.4141
21.4141
21.4141
21.4141
21.4141
21.4141
21.4141
21.414
21.414
21.414
21.414
21.414
21.414
21.414
21.4139
21.4139
21.4139
21.4138
21.4138
21.4137
21.4137
21.4136
21.4136
21.4135
21.4135
21.4852
21.4852
21.4853
21.4853
21.4854
21.4854
21.4854
21.4855
21.4855
21.4855
21.4856
21.4856
21.4856
21.4856
21.4856
21.4856
21.4857
21.4857
21.4857
21.4857
21.4857
21.4857
21.4857
21.4857
21.4857
21.4857
21.4857
21.4857
21.4857
21.4857
21.4857
21.4857
21.4857
21.4857
21.4857
21.4857
21.4857
21.4857
21.4857
21.4857
21.4857
21.4857
21.4857
21.4857
21.4856
21.4856
21.4856
21.4856
21.4856
21.4856
21.4855
21.4855
21.4855
21.4854
21.4854
21.4854
21.4853
21.4853
21.4852
21.4852
21.5508
21.5508
21.5508
21.5508
21.5508
21.5509
21.5509
21.5509
21.551
21.551
21.551
21.551
21.5511
21.5511
21.5511
21.5511
21.5511
21.5511
21.5511
21.5511
21.5511
21.5511
21.5511
21.5512
21.5512
21.5512
21.5512
21.5512
21.5512
21.5512
21.5512
21.5512
21.5512
21.5512
21.5512
21.5512
21.5512
21.5511
21.5511
21.5511
21.5511
21.5511
21.5511
21.5511
21.5511
21.5511
21.5511
21.5511
21.551
21.551
21.551
21.551
21.5509
21.5509
21.5509
21.5508
21.5508
21.5508
21.5508
21.5508
21.6114
21.6114
21.6114
21.6114
21.6115
21.6115
21.6115
21.6115
21.6116
21.6116
21.6116
21.6116
21.6116
21.6117
21.6117
21.6117
21.6117
21.6117
21.6117
21.6117
21.6117
21.6117
21.6117
21.6117
21.6117
21.6117
21.6117
21.6117
21.6117
21.6117
21.6117
21.6117
21.6117
21.6117
21.6117
21.6117
21.6117
21.6117
21.6117
21.6117
21.6117
21.6117
21.6117
21.6117
21.6117
21.6117
21.6117
21.6116
21.6116
21.6116
21.6116
21.6116
21.6115
21.6115
21.6115
21.6115
21.6114
21.6114
21.6114
21.6114
21.6681
21.6681
21.6681
21.6681
21.6681
21.6682
21.6682
21.6682
21.6682
21.6682
21.6682
21.6683
21.6683
21.6683
21.6683
21.6683
21.6683
21.6683
21.6683
21.6684
21.6684
21.6684
21.6684
21.6684
21.6684
21.6684
21.6684
21.6684
21.6684
21.6684
21.6684
21.6684
21.6684
21.6684
21.6684
21.6684
21.6684
21.6684
21.6684
21.6684
21.6684
21.6683
21.6683
21.6683
21.6683
21.6683
21.6683
21.6683
21.6683
21.6682
21.6682
21.6682
21.6682
21.6682
21.6682
21.6681
21.6681
21.6681
21.6681
21.6681
21.7216
21.7216
21.7215
21.7215
21.7216
21.7216
21.7216
21.7216
21.7216
21.7216
21.7216
21.7217
21.7217
21.7217
21.7217
21.7217
21.7217
21.7217
21.7217
21.7217
21.7217
21.7218
21.7218
21.7218
21.7218
21.7218
21.7218
21.7218
21.7218
21.7218
21.7218
21.7218
21.7218
21.7218
21.7218
21.7218
21.7218
21.7218
21.7218
21.7217
21.7217
21.7217
21.7217
21.7217
21.7217
21.7217
21.7217
21.7217
21.7217
21.7216
21.7216
21.7216
21.7216
21.7216
21.7216
21.7216
21.7215
21.7215
21.7216
21.7216
21.7723
21.7723
21.7723
21.7722
21.7723
21.7723
21.7723
21.7723
21.7723
21.7723
21.7723
21.7723
21.7724
21.7724
21.7724
21.7724
21.7724
21.7724
21.7724
21.7724
21.7724
21.7724
21.7724
21.7724
21.7724
21.7724
21.7724
21.7724
21.7724
21.7724
21.7724
21.7724
21.7724
21.7724
21.7724
21.7724
21.7724
21.7724
21.7724
21.7724
21.7724
21.7724
21.7724
21.7724
21.7724
21.7724
21.7724
21.7724
21.7723
21.7723
21.7723
21.7723
21.7723
21.7723
21.7723
21.7723
21.7722
21.7723
21.7723
21.7723
21.8207
21.8207
21.8207
21.8207
21.8207
21.8207
21.8207
21.8207
21.8207
21.8207
21.8207
21.8207
21.8207
21.8208
21.8208
21.8208
21.8208
21.8208
21.8208
21.8208
21.8208
21.8208
21.8208
21.8208
21.8208
21.8208
21.8208
21.8208
21.8208
21.8208
21.8208
21.8208
21.8208
21.8208
21.8208
21.8208
21.8208
21.8208
21.8208
21.8208
21.8208
21.8208
21.8208
21.8208
21.8208
21.8208
21.8208
21.8207
21.8207
21.8207
21.8207
21.8207
21.8207
21.8207
21.8207
21.8207
21.8207
21.8207
21.8207
21.8207
21.8672
21.8672
21.8671
21.8671
21.8671
21.8671
21.8671
21.8671
21.8671
21.8671
21.8672
21.8672
21.8672
21.8672
21.8672
21.8672
21.8672
21.8672
21.8672
21.8672
21.8672
21.8673
21.8673
21.8673
21.8673
21.8673
21.8673
21.8673
21.8673
21.8673
21.8673
21.8673
21.8673
21.8673
21.8673
21.8673
21.8673
21.8673
21.8673
21.8672
21.8672
21.8672
21.8672
21.8672
21.8672
21.8672
21.8672
21.8672
21.8672
21.8672
21.8671
21.8671
21.8671
21.8671
21.8671
21.8671
21.8671
21.8671
21.8672
21.8672
21.912
21.9119
21.9119
21.9119
21.9119
21.9119
21.9119
21.9119
21.9119
21.9119
21.9119
21.9119
21.9119
21.912
21.912
21.912
21.912
21.912
21.912
21.912
21.912
21.912
21.912
21.912
21.912
21.912
21.912
21.912
21.912
21.912
21.912
21.912
21.912
21.912
21.912
21.912
21.912
21.912
21.912
21.912
21.912
21.912
21.912
21.912
21.912
21.912
21.912
21.9119
21.9119
21.9119
21.9119
21.9119
21.9119
21.9119
21.9119
21.9119
21.9119
21.9119
21.9119
21.912
21.9553
21.9553
21.9553
21.9552
21.9552
21.9552
21.9552
21.9552
21.9552
21.9552
21.9553
21.9553
21.9553
21.9553
21.9553
21.9553
21.9553
21.9553
21.9553
21.9553
21.9553
21.9553
21.9553
21.9553
21.9554
21.9554
21.9554
21.9554
21.9554
21.9554
21.9554
21.9554
21.9554
21.9554
21.9554
21.9554
21.9553
21.9553
21.9553
21.9553
21.9553
21.9553
21.9553
21.9553
21.9553
21.9553
21.9553
21.9553
21.9553
21.9553
21.9552
21.9552
21.9552
21.9552
21.9552
21.9552
21.9552
21.9553
21.9553
21.9553
21.9974
21.9974
21.9974
21.9973
21.9973
21.9973
21.9973
21.9973
21.9973
21.9973
21.9973
21.9973
21.9974
21.9974
21.9974
21.9974
21.9974
21.9974
21.9974
21.9974
21.9974
21.9974
21.9974
21.9974
21.9974
21.9974
21.9974
21.9974
21.9974
21.9974
21.9974
21.9974
21.9974
21.9974
21.9974
21.9974
21.9974
21.9974
21.9974
21.9974
21.9974
21.9974
21.9974
21.9974
21.9974
21.9974
21.9974
21.9974
21.9973
21.9973
21.9973
21.9973
21.9973
21.9973
21.9973
21.9973
21.9973
21.9974
21.9974
21.9974
22.0385
22.0384
22.0384
22.0384
22.0383
22.0383
22.0383
22.0383
22.0383
22.0383
22.0383
22.0384
22.0384
22.0384
22.0384
22.0384
22.0384
22.0384
22.0384
22.0384
22.0384
22.0384
22.0384
22.0384
22.0384
22.0384
22.0384
22.0384
22.0384
22.0384
22.0384
22.0384
22.0384
22.0384
22.0384
22.0384
22.0384
22.0384
22.0384
22.0384
22.0384
22.0384
22.0384
22.0384
22.0384
22.0384
22.0384
22.0384
22.0384
22.0383
22.0383
22.0383
22.0383
22.0383
22.0383
22.0383
22.0384
22.0384
22.0384
22.0385
22.0785
22.0785
22.0785
22.0785
22.0784
22.0784
22.0784
22.0784
22.0784
22.0784
22.0784
22.0784
22.0784
22.0784
22.0785
22.0785
22.0785
22.0785
22.0785
22.0785
22.0785
22.0785
22.0785
22.0785
22.0785
22.0785
22.0785
22.0785
22.0785
22.0785
22.0785
22.0785
22.0785
22.0785
22.0785
22.0785
22.0785
22.0785
22.0785
22.0785
22.0785
22.0785
22.0785
22.0785
22.0785
22.0785
22.0784
22.0784
22.0784
22.0784
22.0784
22.0784
22.0784
22.0784
22.0784
22.0784
22.0785
22.0785
22.0785
22.0785
22.1178
22.1178
22.1178
22.1177
22.1177
22.1177
22.1177
22.1177
22.1177
22.1177
22.1177
22.1177
22.1177
22.1177
22.1177
22.1177
22.1177
22.1177
22.1177
22.1178
22.1178
22.1178
22.1178
22.1178
22.1178
22.1178
22.1178
22.1178
22.1178
22.1178
22.1178
22.1178
22.1178
22.1178
22.1178
22.1178
22.1178
22.1178
22.1178
22.1178
22.1178
22.1177
22.1177
22.1177
22.1177
22.1177
22.1177
22.1177
22.1177
22.1177
22.1177
22.1177
22.1177
22.1177
22.1177
22.1177
22.1177
22.1178
22.1178
22.1178
22.1564
22.1564
22.1563
22.1563
22.1563
22.1563
22.1563
22.1563
22.1563
22.1563
22.1563
22.1563
22.1563
22.1563
22.1563
22.1563
22.1563
22.1563
22.1563
22.1563
22.1563
22.1563
22.1563
22.1563
22.1563
22.1563
22.1563
22.1563
22.1563
22.1563
22.1563
22.1563
22.1563
22.1563
22.1563
22.1563
22.1563
22.1563
22.1563
22.1563
22.1563
22.1563
22.1563
22.1563
22.1563
22.1563
22.1563
22.1563
22.1563
22.1563
22.1563
22.1563
22.1563
22.1563
22.1563
22.1563
22.1563
22.1563
22.1564
22.1564
22.1944
22.1943
22.1943
22.1943
22.1943
22.1942
22.1942
22.1942
22.1942
22.1942
22.1942
22.1942
22.1942
22.1942
22.1943
22.1943
22.1943
22.1943
22.1943
22.1943
22.1943
22.1943
22.1943
22.1943
22.1943
22.1943
22.1943
22.1943
22.1943
22.1943
22.1943
22.1943
22.1943
22.1943
22.1943
22.1943
22.1943
22.1943
22.1943
22.1943
22.1943
22.1943
22.1943
22.1943
22.1943
22.1943
22.1942
22.1942
22.1942
22.1942
22.1942
22.1942
22.1942
22.1942
22.1942
22.1943
22.1943
22.1943
22.1943
22.1944
22.2318
22.2318
22.2318
22.2317
22.2317
22.2317
22.2317
22.2317
22.2317
22.2317
22.2317
22.2317
22.2317
22.2317
22.2317
22.2317
22.2317
22.2317
22.2317
22.2317
22.2317
22.2317
22.2317
22.2317
22.2317
22.2318
22.2318
22.2318
22.2318
22.2318
22.2318
22.2318
22.2318
22.2318
22.2318
22.2317
22.2317
22.2317
22.2317
22.2317
22.2317
22.2317
22.2317
22.2317
22.2317
22.2317
22.2317
22.2317
22.2317
22.2317
22.2317
22.2317
22.2317
22.2317
22.2317
22.2317
22.2317
22.2318
22.2318
22.2318
22.2689
22.2688
22.2688
22.2688
22.2687
22.2687
22.2687
22.2687
22.2687
22.2687
22.2687
22.2687
22.2687
22.2687
22.2687
22.2687
22.2687
22.2687
22.2687
22.2687
22.2687
22.2688
22.2688
22.2688
22.2688
22.2688
22.2688
22.2688
22.2688
22.2688
22.2688
22.2688
22.2688
22.2688
22.2688
22.2688
22.2688
22.2688
22.2688
22.2687
22.2687
22.2687
22.2687
22.2687
22.2687
22.2687
22.2687
22.2687
22.2687
22.2687
22.2687
22.2687
22.2687
22.2687
22.2687
22.2687
22.2688
22.2688
22.2688
22.2689
22.3055
22.3055
22.3055
22.3054
22.3054
22.3054
22.3054
22.3053
22.3053
22.3053
22.3053
22.3053
22.3054
22.3054
22.3054
22.3054
22.3054
22.3054
22.3054
22.3054
22.3054
22.3054
22.3054
22.3054
22.3054
22.3054
22.3054
22.3054
22.3054
22.3054
22.3054
22.3054
22.3054
22.3054
22.3054
22.3054
22.3054
22.3054
22.3054
22.3054
22.3054
22.3054
22.3054
22.3054
22.3054
22.3054
22.3054
22.3054
22.3053
22.3053
22.3053
22.3053
22.3053
22.3054
22.3054
22.3054
22.3054
22.3055
22.3055
22.3055
22.3419
22.3418
22.3418
22.3418
22.3417
22.3417
22.3417
22.3417
22.3417
22.3417
22.3417
22.3417
22.3417
22.3417
22.3417
22.3417
22.3417
22.3417
22.3417
22.3417
22.3417
22.3417
22.3417
22.3417
22.3417
22.3418
22.3418
22.3418
22.3418
22.3418
22.3418
22.3418
22.3418
22.3418
22.3418
22.3417
22.3417
22.3417
22.3417
22.3417
22.3417
22.3417
22.3417
22.3417
22.3417
22.3417
22.3417
22.3417
22.3417
22.3417
22.3417
22.3417
22.3417
22.3417
22.3417
22.3417
22.3418
22.3418
22.3418
22.3419
22.378
22.3779
22.3779
22.3779
22.3779
22.3778
22.3778
22.3778
22.3778
22.3778