/*--------------------------------*- C++ -*----------------------------------*\
| =========                 |                                                 |
| \\      /  F ield         | foam-extend: Open Source CFD                    |
|  \\    /   O peration     | Version:     4.0                                |
|   \\  /    A nd           | Web:         http://www.foam-extend.org         |
|    \\/     M anipulation  |                                                 |
\*---------------------------------------------------------------------------*/
FoamFile
{
    version     2.0;
    format      ascii;
    class       volScalarField;
    location    "1840";
    object      cPlus;
}
// * * * * * * * * * * * * * * * * * * * * * * * * * * * * * * * * * * * * * //

dimensions      [0 0 0 0 0 0 0];

internalField   nonuniform List<scalar> 
6960
(
0.333149
0.33314
0.333129
0.333118
0.333107
0.333096
0.333087
0.333078
0.33307
0.333063
0.333057
0.333051
0.333046
0.333041
0.333037
0.333033
0.33303
0.333027
0.333025
0.333023
0.333021
0.333019
0.333018
0.333017
0.333016
0.333015
0.333014
0.333014
0.333014
0.333014
0.333014
0.333014
0.333014
0.333014
0.333015
0.333016
0.333017
0.333018
0.333019
0.333021
0.333023
0.333025
0.333027
0.33303
0.333033
0.333037
0.333041
0.333046
0.333051
0.333057
0.333063
0.33307
0.333078
0.333087
0.333096
0.333107
0.333118
0.333129
0.33314
0.333149
0.11276
0.112753
0.112745
0.112736
0.112728
0.11272
0.112713
0.112706
0.1127
0.112695
0.11269
0.112686
0.112682
0.112678
0.112675
0.112672
0.11267
0.112668
0.112666
0.112664
0.112663
0.112662
0.112661
0.11266
0.112659
0.112658
0.112658
0.112658
0.112657
0.112657
0.112657
0.112657
0.112658
0.112658
0.112658
0.112659
0.11266
0.112661
0.112662
0.112663
0.112664
0.112666
0.112668
0.11267
0.112672
0.112675
0.112678
0.112682
0.112686
0.11269
0.112695
0.1127
0.112706
0.112713
0.11272
0.112728
0.112736
0.112745
0.112753
0.11276
0.0452266
0.0452228
0.0452178
0.0452125
0.0452075
0.0452028
0.0451985
0.0451945
0.0451909
0.0451876
0.0451847
0.0451821
0.0451797
0.0451776
0.0451757
0.0451741
0.0451726
0.0451713
0.0451702
0.0451692
0.0451684
0.0451676
0.045167
0.0451665
0.0451661
0.0451657
0.0451654
0.0451652
0.0451651
0.045165
0.045165
0.0451651
0.0451652
0.0451654
0.0451657
0.0451661
0.0451665
0.045167
0.0451676
0.0451684
0.0451692
0.0451702
0.0451713
0.0451726
0.0451741
0.0451757
0.0451776
0.0451797
0.0451821
0.0451847
0.0451876
0.0451909
0.0451945
0.0451985
0.0452028
0.0452075
0.0452125
0.0452178
0.0452228
0.0452266
0.0205116
0.0205098
0.0205073
0.0205047
0.0205022
0.0204999
0.0204977
0.0204957
0.0204939
0.0204922
0.0204907
0.0204894
0.0204882
0.0204871
0.0204862
0.0204854
0.0204846
0.020484
0.0204834
0.0204829
0.0204825
0.0204821
0.0204818
0.0204815
0.0204813
0.0204812
0.020481
0.0204809
0.0204808
0.0204808
0.0204808
0.0204808
0.0204809
0.020481
0.0204812
0.0204813
0.0204815
0.0204818
0.0204821
0.0204825
0.0204829
0.0204834
0.020484
0.0204846
0.0204854
0.0204862
0.0204871
0.0204882
0.0204894
0.0204907
0.0204922
0.0204939
0.0204957
0.0204977
0.0204999
0.0205022
0.0205047
0.0205073
0.0205098
0.0205116
0.0109579
0.0109574
0.0109566
0.0109556
0.0109547
0.0109538
0.010953
0.0109522
0.0109515
0.0109509
0.0109504
0.0109499
0.0109494
0.010949
0.0109487
0.0109483
0.0109481
0.0109478
0.0109476
0.0109474
0.0109473
0.0109471
0.010947
0.0109469
0.0109468
0.0109468
0.0109467
0.0109467
0.0109466
0.0109466
0.0109466
0.0109466
0.0109467
0.0109467
0.0109468
0.0109468
0.0109469
0.010947
0.0109471
0.0109473
0.0109474
0.0109476
0.0109478
0.0109481
0.0109483
0.0109487
0.010949
0.0109494
0.0109499
0.0109504
0.0109509
0.0109515
0.0109522
0.010953
0.0109538
0.0109547
0.0109556
0.0109566
0.0109574
0.0109579
0.00724608
0.00724636
0.00724641
0.00724638
0.00724634
0.00724629
0.00724624
0.00724619
0.00724615
0.00724611
0.00724607
0.00724604
0.00724601
0.00724598
0.00724596
0.00724594
0.00724592
0.0072459
0.00724589
0.00724587
0.00724586
0.00724585
0.00724584
0.00724584
0.00724583
0.00724583
0.00724582
0.00724582
0.00724582
0.00724582
0.00724582
0.00724582
0.00724582
0.00724582
0.00724583
0.00724583
0.00724584
0.00724584
0.00724585
0.00724586
0.00724587
0.00724589
0.0072459
0.00724592
0.00724594
0.00724596
0.00724598
0.00724601
0.00724604
0.00724607
0.00724611
0.00724615
0.00724619
0.00724624
0.00724629
0.00724634
0.00724638
0.00724641
0.00724636
0.00724608
0.00583462
0.00583528
0.0058358
0.00583626
0.00583667
0.00583706
0.00583741
0.00583772
0.00583801
0.00583827
0.00583851
0.00583872
0.0058389
0.00583907
0.00583922
0.00583935
0.00583946
0.00583957
0.00583965
0.00583973
0.0058398
0.00583985
0.0058399
0.00583994
0.00583998
0.00584
0.00584003
0.00584004
0.00584005
0.00584006
0.00584006
0.00584005
0.00584004
0.00584003
0.00584
0.00583998
0.00583994
0.0058399
0.00583985
0.0058398
0.00583973
0.00583965
0.00583957
0.00583946
0.00583935
0.00583922
0.00583907
0.0058389
0.00583872
0.00583851
0.00583827
0.00583801
0.00583772
0.00583741
0.00583706
0.00583667
0.00583626
0.0058358
0.00583528
0.00583462
0.00532447
0.00532532
0.00532607
0.00532676
0.00532741
0.005328
0.00532855
0.00532904
0.00532949
0.0053299
0.00533027
0.00533059
0.00533089
0.00533115
0.00533138
0.00533159
0.00533177
0.00533193
0.00533206
0.00533218
0.00533229
0.00533238
0.00533246
0.00533252
0.00533257
0.00533262
0.00533265
0.00533267
0.00533269
0.0053327
0.0053327
0.00533269
0.00533267
0.00533265
0.00533262
0.00533257
0.00533252
0.00533246
0.00533238
0.00533229
0.00533218
0.00533206
0.00533193
0.00533177
0.00533159
0.00533138
0.00533115
0.00533089
0.00533059
0.00533027
0.0053299
0.00532949
0.00532904
0.00532855
0.005328
0.00532741
0.00532676
0.00532607
0.00532532
0.00532447
0.00516223
0.00516318
0.00516404
0.00516485
0.0051656
0.00516629
0.00516693
0.00516751
0.00516804
0.00516852
0.00516894
0.00516933
0.00516967
0.00516998
0.00517025
0.00517049
0.0051707
0.00517089
0.00517105
0.00517119
0.00517132
0.00517142
0.00517151
0.00517159
0.00517165
0.0051717
0.00517174
0.00517177
0.00517179
0.0051718
0.0051718
0.00517179
0.00517177
0.00517174
0.0051717
0.00517165
0.00517159
0.00517151
0.00517142
0.00517132
0.00517119
0.00517105
0.00517089
0.0051707
0.00517049
0.00517025
0.00516998
0.00516967
0.00516933
0.00516894
0.00516852
0.00516804
0.00516751
0.00516693
0.00516629
0.0051656
0.00516485
0.00516404
0.00516318
0.00516223
0.00513234
0.00513333
0.00513424
0.00513511
0.00513591
0.00513665
0.00513734
0.00513796
0.00513852
0.00513903
0.00513949
0.00513991
0.00514027
0.0051406
0.00514089
0.00514115
0.00514138
0.00514158
0.00514175
0.0051419
0.00514204
0.00514215
0.00514224
0.00514233
0.00514239
0.00514245
0.00514249
0.00514252
0.00514254
0.00514255
0.00514255
0.00514254
0.00514252
0.00514249
0.00514245
0.00514239
0.00514233
0.00514224
0.00514215
0.00514204
0.0051419
0.00514175
0.00514158
0.00514138
0.00514115
0.00514089
0.0051406
0.00514027
0.00513991
0.00513949
0.00513903
0.00513852
0.00513796
0.00513734
0.00513665
0.00513591
0.00513511
0.00513424
0.00513333
0.00513234
0.0051527
0.00515372
0.00515466
0.00515556
0.00515639
0.00515716
0.00515786
0.00515851
0.0051591
0.00515962
0.0051601
0.00516053
0.00516091
0.00516125
0.00516155
0.00516182
0.00516206
0.00516226
0.00516244
0.0051626
0.00516274
0.00516285
0.00516295
0.00516304
0.00516311
0.00516316
0.00516321
0.00516324
0.00516326
0.00516327
0.00516327
0.00516326
0.00516324
0.00516321
0.00516316
0.00516311
0.00516304
0.00516295
0.00516285
0.00516274
0.0051626
0.00516244
0.00516226
0.00516206
0.00516182
0.00516155
0.00516125
0.00516091
0.00516053
0.0051601
0.00515962
0.0051591
0.00515851
0.00515786
0.00515716
0.00515639
0.00515556
0.00515466
0.00515372
0.0051527
0.00519293
0.00519398
0.00519495
0.00519586
0.00519671
0.0051975
0.00519822
0.00519888
0.00519948
0.00520002
0.00520051
0.00520095
0.00520134
0.00520169
0.00520199
0.00520227
0.00520251
0.00520272
0.00520291
0.00520307
0.00520321
0.00520333
0.00520343
0.00520352
0.00520359
0.00520364
0.00520369
0.00520372
0.00520374
0.00520375
0.00520375
0.00520374
0.00520372
0.00520369
0.00520364
0.00520359
0.00520352
0.00520343
0.00520333
0.00520321
0.00520307
0.00520291
0.00520272
0.00520251
0.00520227
0.00520199
0.00520169
0.00520134
0.00520095
0.00520051
0.00520002
0.00519948
0.00519888
0.00519822
0.0051975
0.00519671
0.00519586
0.00519495
0.00519398
0.00519293
0.00524221
0.00524328
0.00524426
0.00524519
0.00524606
0.00524686
0.0052476
0.00524827
0.00524888
0.00524943
0.00524993
0.00525038
0.00525078
0.00525113
0.00525145
0.00525173
0.00525197
0.00525219
0.00525238
0.00525254
0.00525268
0.0052528
0.00525291
0.005253
0.00525307
0.00525313
0.00525317
0.00525321
0.00525323
0.00525324
0.00525324
0.00525323
0.00525321
0.00525317
0.00525313
0.00525307
0.005253
0.00525291
0.0052528
0.00525268
0.00525254
0.00525238
0.00525219
0.00525197
0.00525173
0.00525145
0.00525113
0.00525078
0.00525038
0.00524993
0.00524943
0.00524888
0.00524827
0.0052476
0.00524686
0.00524606
0.00524519
0.00524426
0.00524328
0.00524221
0.0052969
0.00529798
0.00529899
0.00529993
0.00530082
0.00530163
0.00530238
0.00530307
0.00530369
0.00530425
0.00530476
0.00530521
0.00530562
0.00530598
0.0053063
0.00530658
0.00530684
0.00530706
0.00530725
0.00530742
0.00530756
0.00530768
0.00530779
0.00530788
0.00530795
0.00530801
0.00530806
0.0053081
0.00530812
0.00530813
0.00530813
0.00530812
0.0053081
0.00530806
0.00530801
0.00530795
0.00530788
0.00530779
0.00530768
0.00530756
0.00530742
0.00530725
0.00530706
0.00530684
0.00530658
0.0053063
0.00530598
0.00530562
0.00530521
0.00530476
0.00530425
0.00530369
0.00530307
0.00530238
0.00530163
0.00530082
0.00529993
0.00529899
0.00529798
0.0052969
0.00535596
0.00535707
0.00535809
0.00535905
0.00535995
0.00536078
0.00536155
0.00536225
0.00536288
0.00536345
0.00536397
0.00536443
0.00536484
0.00536521
0.00536554
0.00536583
0.00536608
0.00536631
0.0053665
0.00536667
0.00536682
0.00536695
0.00536706
0.00536715
0.00536722
0.00536728
0.00536733
0.00536737
0.00536739
0.0053674
0.0053674
0.00536739
0.00536737
0.00536733
0.00536728
0.00536722
0.00536715
0.00536706
0.00536695
0.00536682
0.00536667
0.0053665
0.00536631
0.00536608
0.00536583
0.00536554
0.00536521
0.00536484
0.00536443
0.00536397
0.00536345
0.00536288
0.00536225
0.00536155
0.00536078
0.00535995
0.00535905
0.00535809
0.00535707
0.00535596
0.0054193
0.00542043
0.00542147
0.00542245
0.00542337
0.00542422
0.005425
0.00542571
0.00542635
0.00542694
0.00542746
0.00542793
0.00542836
0.00542873
0.00542906
0.00542936
0.00542962
0.00542985
0.00543005
0.00543022
0.00543037
0.0054305
0.00543061
0.00543071
0.00543078
0.00543085
0.00543089
0.00543093
0.00543095
0.00543097
0.00543097
0.00543095
0.00543093
0.00543089
0.00543085
0.00543078
0.00543071
0.00543061
0.0054305
0.00543037
0.00543022
0.00543005
0.00542985
0.00542962
0.00542936
0.00542906
0.00542873
0.00542836
0.00542793
0.00542746
0.00542694
0.00542635
0.00542571
0.005425
0.00542422
0.00542337
0.00542245
0.00542147
0.00542043
0.0054193
0.00548717
0.00548832
0.00548939
0.00549039
0.00549132
0.00549219
0.00549298
0.00549371
0.00549437
0.00549496
0.0054955
0.00549598
0.00549641
0.00549679
0.00549713
0.00549744
0.0054977
0.00549793
0.00549814
0.00549832
0.00549847
0.0054986
0.00549872
0.00549881
0.00549889
0.00549895
0.005499
0.00549904
0.00549906
0.00549907
0.00549907
0.00549906
0.00549904
0.005499
0.00549895
0.00549889
0.00549881
0.00549872
0.0054986
0.00549847
0.00549832
0.00549814
0.00549793
0.0054977
0.00549744
0.00549713
0.00549679
0.00549641
0.00549598
0.0054955
0.00549496
0.00549437
0.00549371
0.00549298
0.00549219
0.00549132
0.00549039
0.00548939
0.00548832
0.00548717
0.00555997
0.00556115
0.00556224
0.00556326
0.00556422
0.0055651
0.00556591
0.00556665
0.00556732
0.00556793
0.00556848
0.00556897
0.00556941
0.0055698
0.00557015
0.00557046
0.00557073
0.00557097
0.00557118
0.00557136
0.00557152
0.00557165
0.00557177
0.00557187
0.00557195
0.00557201
0.00557206
0.0055721
0.00557212
0.00557214
0.00557214
0.00557212
0.0055721
0.00557206
0.00557201
0.00557195
0.00557187
0.00557177
0.00557165
0.00557152
0.00557136
0.00557118
0.00557097
0.00557073
0.00557046
0.00557015
0.0055698
0.00556941
0.00556897
0.00556848
0.00556793
0.00556732
0.00556665
0.00556591
0.0055651
0.00556422
0.00556326
0.00556224
0.00556115
0.00555997
0.0056382
0.00563941
0.00564052
0.00564157
0.00564255
0.00564345
0.00564428
0.00564504
0.00564573
0.00564635
0.00564691
0.00564742
0.00564787
0.00564827
0.00564862
0.00564894
0.00564922
0.00564946
0.00564968
0.00564986
0.00565002
0.00565016
0.00565028
0.00565038
0.00565046
0.00565053
0.00565058
0.00565062
0.00565064
0.00565066
0.00565066
0.00565064
0.00565062
0.00565058
0.00565053
0.00565046
0.00565038
0.00565028
0.00565016
0.00565002
0.00564986
0.00564968
0.00564946
0.00564922
0.00564894
0.00564862
0.00564827
0.00564787
0.00564742
0.00564691
0.00564635
0.00564573
0.00564504
0.00564428
0.00564345
0.00564255
0.00564157
0.00564052
0.00563941
0.0056382
0.00572246
0.0057237
0.00572484
0.00572591
0.00572691
0.00572784
0.00572869
0.00572947
0.00573017
0.00573081
0.00573139
0.0057319
0.00573237
0.00573278
0.00573314
0.00573347
0.00573375
0.005734
0.00573422
0.00573441
0.00573458
0.00573472
0.00573484
0.00573494
0.00573503
0.0057351
0.00573515
0.00573519
0.00573521
0.00573523
0.00573523
0.00573521
0.00573519
0.00573515
0.0057351
0.00573503
0.00573494
0.00573484
0.00573472
0.00573458
0.00573441
0.00573422
0.005734
0.00573375
0.00573347
0.00573314
0.00573278
0.00573237
0.0057319
0.00573139
0.00573081
0.00573017
0.00572947
0.00572869
0.00572784
0.00572691
0.00572591
0.00572484
0.0057237
0.00572246
0.00581342
0.0058147
0.00581587
0.00581697
0.005818
0.00581895
0.00581982
0.00582062
0.00582135
0.005822
0.00582259
0.00582312
0.0058236
0.00582402
0.00582439
0.00582473
0.00582502
0.00582528
0.0058255
0.0058257
0.00582587
0.00582601
0.00582614
0.00582624
0.00582633
0.0058264
0.00582645
0.0058265
0.00582652
0.00582653
0.00582653
0.00582652
0.0058265
0.00582645
0.0058264
0.00582633
0.00582624
0.00582614
0.00582601
0.00582587
0.0058257
0.0058255
0.00582528
0.00582502
0.00582473
0.00582439
0.00582402
0.0058236
0.00582312
0.00582259
0.005822
0.00582135
0.00582062
0.00581982
0.00581895
0.005818
0.00581697
0.00581587
0.0058147
0.00581342
0.0059119
0.00591321
0.00591441
0.00591555
0.0059166
0.00591758
0.00591848
0.0059193
0.00592005
0.00592072
0.00592133
0.00592187
0.00592236
0.0059228
0.00592318
0.00592352
0.00592382
0.00592409
0.00592432
0.00592452
0.0059247
0.00592485
0.00592498
0.00592508
0.00592517
0.00592525
0.0059253
0.00592534
0.00592537
0.00592539
0.00592539
0.00592537
0.00592534
0.0059253
0.00592525
0.00592517
0.00592508
0.00592498
0.00592485
0.0059247
0.00592452
0.00592432
0.00592409
0.00592382
0.00592352
0.00592318
0.0059228
0.00592236
0.00592187
0.00592133
0.00592072
0.00592005
0.0059193
0.00591848
0.00591758
0.0059166
0.00591555
0.00591441
0.00591321
0.0059119
0.00601881
0.00602016
0.00602141
0.00602257
0.00602367
0.00602467
0.0060256
0.00602645
0.00602721
0.00602791
0.00602853
0.0060291
0.0060296
0.00603005
0.00603045
0.0060308
0.00603111
0.00603138
0.00603162
0.00603183
0.00603201
0.00603217
0.0060323
0.00603241
0.0060325
0.00603258
0.00603263
0.00603268
0.00603271
0.00603272
0.00603272
0.00603271
0.00603268
0.00603263
0.00603258
0.0060325
0.00603241
0.0060323
0.00603217
0.00603201
0.00603183
0.00603162
0.00603138
0.00603111
0.0060308
0.00603045
0.00603005
0.0060296
0.0060291
0.00602853
0.00602791
0.00602721
0.00602645
0.0060256
0.00602467
0.00602367
0.00602257
0.00602141
0.00602016
0.00601881
0.00613527
0.00613667
0.00613796
0.00613916
0.00614029
0.00614133
0.00614229
0.00614316
0.00614396
0.00614468
0.00614532
0.0061459
0.00614642
0.00614689
0.0061473
0.00614766
0.00614798
0.00614827
0.00614851
0.00614873
0.00614892
0.00614908
0.00614921
0.00614933
0.00614942
0.0061495
0.00614956
0.00614961
0.00614964
0.00614965
0.00614965
0.00614964
0.00614961
0.00614956
0.0061495
0.00614942
0.00614933
0.00614921
0.00614908
0.00614892
0.00614873
0.00614851
0.00614827
0.00614798
0.00614766
0.0061473
0.00614689
0.00614642
0.0061459
0.00614532
0.00614468
0.00614396
0.00614316
0.00614229
0.00614133
0.00614029
0.00613916
0.00613796
0.00613667
0.00613527
0.00626259
0.00626405
0.00626538
0.00626663
0.0062678
0.00626888
0.00626987
0.00627077
0.0062716
0.00627234
0.00627301
0.00627361
0.00627415
0.00627463
0.00627506
0.00627544
0.00627577
0.00627606
0.00627632
0.00627654
0.00627674
0.0062769
0.00627704
0.00627716
0.00627726
0.00627734
0.0062774
0.00627745
0.00627748
0.0062775
0.0062775
0.00627748
0.00627745
0.0062774
0.00627734
0.00627726
0.00627716
0.00627704
0.0062769
0.00627674
0.00627654
0.00627632
0.00627606
0.00627577
0.00627544
0.00627506
0.00627463
0.00627415
0.00627361
0.00627301
0.00627234
0.0062716
0.00627077
0.00626987
0.00626888
0.0062678
0.00626663
0.00626538
0.00626405
0.00626259
0.00640235
0.00640386
0.00640525
0.00640655
0.00640776
0.00640888
0.00640991
0.00641085
0.00641171
0.00641248
0.00641318
0.00641381
0.00641437
0.00641487
0.00641531
0.0064157
0.00641605
0.00641635
0.00641662
0.00641685
0.00641705
0.00641723
0.00641737
0.0064175
0.0064176
0.00641768
0.00641775
0.0064178
0.00641783
0.00641784
0.00641784
0.00641783
0.0064178
0.00641775
0.00641768
0.0064176
0.0064175
0.00641737
0.00641723
0.00641705
0.00641685
0.00641662
0.00641635
0.00641605
0.0064157
0.00641531
0.00641487
0.00641437
0.00641381
0.00641318
0.00641248
0.00641171
0.00641085
0.00640991
0.00640888
0.00640776
0.00640655
0.00640525
0.00640386
0.00640235
0.00655645
0.00655803
0.00655947
0.00656083
0.0065621
0.00656327
0.00656434
0.00656532
0.00656621
0.00656702
0.00656775
0.0065684
0.00656898
0.0065695
0.00656997
0.00657038
0.00657074
0.00657106
0.00657134
0.00657158
0.00657179
0.00657197
0.00657212
0.00657225
0.00657236
0.00657245
0.00657251
0.00657256
0.0065726
0.00657261
0.00657261
0.0065726
0.00657256
0.00657251
0.00657245
0.00657236
0.00657225
0.00657212
0.00657197
0.00657179
0.00657158
0.00657134
0.00657106
0.00657074
0.00657038
0.00656997
0.0065695
0.00656898
0.0065684
0.00656775
0.00656702
0.00656621
0.00656532
0.00656434
0.00656327
0.0065621
0.00656083
0.00655947
0.00655803
0.00655645
0.00672722
0.00672888
0.00673039
0.00673181
0.00673314
0.00673436
0.00673548
0.00673651
0.00673745
0.00673829
0.00673905
0.00673974
0.00674035
0.00674089
0.00674138
0.00674181
0.00674219
0.00674252
0.00674281
0.00674307
0.00674329
0.00674347
0.00674364
0.00674377
0.00674388
0.00674398
0.00674405
0.0067441
0.00674413
0.00674415
0.00674415
0.00674413
0.0067441
0.00674405
0.00674398
0.00674388
0.00674377
0.00674364
0.00674347
0.00674329
0.00674307
0.00674281
0.00674252
0.00674219
0.00674181
0.00674138
0.00674089
0.00674035
0.00673974
0.00673905
0.00673829
0.00673745
0.00673651
0.00673548
0.00673436
0.00673314
0.00673181
0.00673039
0.00672888
0.00672722
0.00691755
0.0069193
0.00692089
0.00692238
0.00692377
0.00692506
0.00692624
0.00692732
0.00692831
0.00692919
0.00693
0.00693071
0.00693136
0.00693193
0.00693244
0.00693289
0.00693329
0.00693364
0.00693395
0.00693422
0.00693445
0.00693465
0.00693482
0.00693496
0.00693508
0.00693518
0.00693525
0.00693531
0.00693534
0.00693536
0.00693536
0.00693534
0.00693531
0.00693525
0.00693518
0.00693508
0.00693496
0.00693482
0.00693465
0.00693445
0.00693422
0.00693395
0.00693364
0.00693329
0.00693289
0.00693244
0.00693193
0.00693136
0.00693071
0.00693
0.00692919
0.00692831
0.00692732
0.00692624
0.00692506
0.00692377
0.00692238
0.00692089
0.0069193
0.00691755
0.00713105
0.00713289
0.00713458
0.00713615
0.00713763
0.00713899
0.00714024
0.00714138
0.00714242
0.00714336
0.00714421
0.00714497
0.00714565
0.00714625
0.00714679
0.00714727
0.00714769
0.00714806
0.00714839
0.00714867
0.00714892
0.00714913
0.00714931
0.00714946
0.00714958
0.00714969
0.00714977
0.00714982
0.00714986
0.00714988
0.00714988
0.00714986
0.00714982
0.00714977
0.00714969
0.00714958
0.00714946
0.00714931
0.00714913
0.00714892
0.00714867
0.00714839
0.00714806
0.00714769
0.00714727
0.00714679
0.00714625
0.00714565
0.00714497
0.00714421
0.00714336
0.00714242
0.00714138
0.00714024
0.00713899
0.00713763
0.00713615
0.00713458
0.00713289
0.00713105
0.00737231
0.00737427
0.00737606
0.00737773
0.0073793
0.00738075
0.00738208
0.00738329
0.0073844
0.0073854
0.0073863
0.00738711
0.00738783
0.00738848
0.00738905
0.00738956
0.00739001
0.00739041
0.00739075
0.00739105
0.00739131
0.00739154
0.00739173
0.00739189
0.00739203
0.00739213
0.00739222
0.00739228
0.00739232
0.00739234
0.00739234
0.00739232
0.00739228
0.00739222
0.00739213
0.00739203
0.00739189
0.00739173
0.00739154
0.00739131
0.00739105
0.00739075
0.00739041
0.00739001
0.00738956
0.00738905
0.00738848
0.00738783
0.00738711
0.0073863
0.0073854
0.0073844
0.00738329
0.00738208
0.00738075
0.0073793
0.00737773
0.00737606
0.00737427
0.00737231
0.00764725
0.00764935
0.00765127
0.00765306
0.00765474
0.00765629
0.00765772
0.00765902
0.0076602
0.00766127
0.00766224
0.00766311
0.00766388
0.00766458
0.00766519
0.00766574
0.00766622
0.00766664
0.00766701
0.00766734
0.00766762
0.00766786
0.00766806
0.00766824
0.00766838
0.00766849
0.00766859
0.00766865
0.0076687
0.00766872
0.00766872
0.0076687
0.00766865
0.00766859
0.00766849
0.00766838
0.00766824
0.00766806
0.00766786
0.00766762
0.00766734
0.00766701
0.00766664
0.00766622
0.00766574
0.00766519
0.00766458
0.00766388
0.00766311
0.00766224
0.00766127
0.0076602
0.00765902
0.00765772
0.00765629
0.00765474
0.00765306
0.00765127
0.00764935
0.00764725
0.00796368
0.00796595
0.00796802
0.00796996
0.00797177
0.00797345
0.00797499
0.00797639
0.00797767
0.00797883
0.00797988
0.00798081
0.00798165
0.0079824
0.00798307
0.00798366
0.00798418
0.00798464
0.00798504
0.00798539
0.00798569
0.00798595
0.00798617
0.00798636
0.00798651
0.00798664
0.00798674
0.00798681
0.00798686
0.00798688
0.00798688
0.00798686
0.00798681
0.00798674
0.00798664
0.00798651
0.00798636
0.00798617
0.00798595
0.00798569
0.00798539
0.00798504
0.00798464
0.00798418
0.00798366
0.00798307
0.0079824
0.00798165
0.00798081
0.00797988
0.00797883
0.00797767
0.00797639
0.00797499
0.00797345
0.00797177
0.00796996
0.00796802
0.00796595
0.00796368
0.00833207
0.00833454
0.0083368
0.00833892
0.0083409
0.00834273
0.00834441
0.00834595
0.00834734
0.00834861
0.00834975
0.00835077
0.00835169
0.00835251
0.00835324
0.00835388
0.00835445
0.00835495
0.00835539
0.00835577
0.0083561
0.00835639
0.00835663
0.00835683
0.008357
0.00835714
0.00835725
0.00835733
0.00835738
0.0083574
0.0083574
0.00835738
0.00835733
0.00835725
0.00835714
0.008357
0.00835683
0.00835663
0.00835639
0.0083561
0.00835577
0.00835539
0.00835495
0.00835445
0.00835388
0.00835324
0.00835251
0.00835169
0.00835077
0.00834975
0.00834861
0.00834734
0.00834595
0.00834441
0.00834273
0.0083409
0.00833892
0.0083368
0.00833454
0.00833207
0.00876682
0.00876954
0.00877204
0.00877438
0.00877657
0.00877859
0.00878045
0.00878215
0.00878369
0.00878509
0.00878635
0.00878749
0.0087885
0.00878941
0.00879021
0.00879092
0.00879155
0.00879211
0.00879259
0.00879301
0.00879338
0.0087937
0.00879396
0.00879419
0.00879438
0.00879453
0.00879465
0.00879474
0.00879479
0.00879482
0.00879482
0.00879479
0.00879474
0.00879465
0.00879453
0.00879438
0.00879419
0.00879396
0.0087937
0.00879338
0.00879301
0.00879259
0.00879211
0.00879155
0.00879092
0.00879021
0.00878941
0.0087885
0.00878749
0.00878635
0.00878509
0.00878369
0.00878215
0.00878045
0.00877859
0.00877657
0.00877438
0.00877204
0.00876954
0.00876682
0.00928818
0.00929123
0.00929402
0.00929665
0.0092991
0.00930137
0.00930346
0.00930537
0.00930711
0.00930868
0.00931009
0.00931137
0.00931251
0.00931352
0.00931443
0.00931523
0.00931594
0.00931656
0.0093171
0.00931758
0.00931799
0.00931835
0.00931865
0.0093189
0.00931911
0.00931928
0.00931942
0.00931952
0.00931958
0.00931961
0.00931961
0.00931958
0.00931952
0.00931942
0.00931928
0.00931911
0.0093189
0.00931865
0.00931835
0.00931799
0.00931758
0.0093171
0.00931656
0.00931594
0.00931523
0.00931443
0.00931352
0.00931251
0.00931137
0.00931009
0.00930868
0.00930711
0.00930537
0.00930346
0.00930137
0.0092991
0.00929665
0.00929402
0.00929123
0.00928818
0.00992531
0.00992878
0.00993197
0.00993497
0.00993778
0.00994038
0.00994277
0.00994495
0.00994694
0.00994874
0.00995036
0.00995182
0.00995312
0.00995429
0.00995532
0.00995624
0.00995705
0.00995776
0.00995839
0.00995893
0.00995941
0.00995981
0.00996016
0.00996045
0.00996069
0.00996089
0.00996104
0.00996115
0.00996123
0.00996126
0.00996126
0.00996123
0.00996115
0.00996104
0.00996089
0.00996069
0.00996045
0.00996016
0.00995981
0.00995941
0.00995893
0.00995839
0.00995776
0.00995705
0.00995624
0.00995532
0.00995429
0.00995312
0.00995182
0.00995036
0.00994874
0.00994694
0.00994495
0.00994277
0.00994038
0.00993778
0.00993497
0.00993197
0.00992878
0.00992531
0.0107209
0.0107249
0.0107286
0.0107321
0.0107354
0.0107385
0.0107413
0.0107438
0.0107461
0.0107482
0.0107501
0.0107518
0.0107534
0.0107547
0.010756
0.010757
0.010758
0.0107588
0.0107595
0.0107602
0.0107607
0.0107612
0.0107616
0.010762
0.0107622
0.0107625
0.0107626
0.0107628
0.0107629
0.0107629
0.0107629
0.0107629
0.0107628
0.0107626
0.0107625
0.0107622
0.010762
0.0107616
0.0107612
0.0107607
0.0107602
0.0107595
0.0107588
0.010758
0.010757
0.010756
0.0107547
0.0107534
0.0107518
0.0107501
0.0107482
0.0107461
0.0107438
0.0107413
0.0107385
0.0107354
0.0107321
0.0107286
0.0107249
0.0107209
0.0117372
0.011742
0.0117465
0.0117507
0.0117546
0.0117583
0.0117616
0.0117647
0.0117675
0.01177
0.0117723
0.0117743
0.0117762
0.0117778
0.0117793
0.0117806
0.0117817
0.0117827
0.0117836
0.0117843
0.011785
0.0117856
0.0117861
0.0117865
0.0117868
0.0117871
0.0117873
0.0117875
0.0117876
0.0117876
0.0117876
0.0117876
0.0117875
0.0117873
0.0117871
0.0117868
0.0117865
0.0117861
0.0117856
0.011785
0.0117843
0.0117836
0.0117827
0.0117817
0.0117806
0.0117793
0.0117778
0.0117762
0.0117743
0.0117723
0.01177
0.0117675
0.0117647
0.0117616
0.0117583
0.0117546
0.0117507
0.0117465
0.011742
0.0117372
0.0130632
0.013069
0.0130745
0.0130797
0.0130845
0.013089
0.0130931
0.0130969
0.0131003
0.0131035
0.0131063
0.0131088
0.0131111
0.0131131
0.0131149
0.0131165
0.0131179
0.0131191
0.0131202
0.0131211
0.0131219
0.0131227
0.0131233
0.0131238
0.0131242
0.0131245
0.0131248
0.013125
0.0131251
0.0131252
0.0131252
0.0131251
0.013125
0.0131248
0.0131245
0.0131242
0.0131238
0.0131233
0.0131227
0.0131219
0.0131211
0.0131202
0.0131191
0.0131179
0.0131165
0.0131149
0.0131131
0.0131111
0.0131088
0.0131063
0.0131035
0.0131003
0.0130969
0.0130931
0.013089
0.0130845
0.0130797
0.0130745
0.013069
0.0130632
0.0148174
0.0148247
0.0148316
0.0148381
0.0148442
0.0148498
0.014855
0.0148597
0.014864
0.014868
0.0148715
0.0148747
0.0148775
0.01488
0.0148823
0.0148843
0.0148861
0.0148876
0.014889
0.0148902
0.0148912
0.0148921
0.0148928
0.0148935
0.014894
0.0148944
0.0148948
0.014895
0.0148952
0.0148953
0.0148953
0.0148952
0.014895
0.0148948
0.0148944
0.014894
0.0148935
0.0148928
0.0148921
0.0148912
0.0148902
0.014889
0.0148876
0.0148861
0.0148843
0.0148823
0.01488
0.0148775
0.0148747
0.0148715
0.014868
0.014864
0.0148597
0.014855
0.0148498
0.0148442
0.0148381
0.0148316
0.0148247
0.0148174
0.0171412
0.0171504
0.0171591
0.0171673
0.017175
0.0171821
0.0171887
0.0171947
0.0172002
0.0172051
0.0172096
0.0172136
0.0172172
0.0172204
0.0172233
0.0172258
0.0172281
0.0172301
0.0172318
0.0172333
0.0172346
0.0172357
0.0172367
0.0172375
0.0172382
0.0172387
0.0172391
0.0172394
0.0172396
0.0172397
0.0172397
0.0172396
0.0172394
0.0172391
0.0172387
0.0172382
0.0172375
0.0172367
0.0172357
0.0172346
0.0172333
0.0172318
0.0172301
0.0172281
0.0172258
0.0172233
0.0172204
0.0172172
0.0172136
0.0172096
0.0172051
0.0172002
0.0171947
0.0171887
0.0171821
0.017175
0.0171673
0.0171591
0.0171504
0.0171412
0.020173
0.0201846
0.0201955
0.0202059
0.0202156
0.0202246
0.0202328
0.0202404
0.0202473
0.0202535
0.0202591
0.0202642
0.0202687
0.0202728
0.0202764
0.0202796
0.0202824
0.0202849
0.0202871
0.020289
0.0202906
0.020292
0.0202932
0.0202942
0.0202951
0.0202958
0.0202963
0.0202967
0.020297
0.0202971
0.0202971
0.020297
0.0202967
0.0202963
0.0202958
0.0202951
0.0202942
0.0202932
0.020292
0.0202906
0.020289
0.0202871
0.0202849
0.0202824
0.0202796
0.0202764
0.0202728
0.0202687
0.0202642
0.0202591
0.0202535
0.0202473
0.0202404
0.0202328
0.0202246
0.0202156
0.0202059
0.0201955
0.0201846
0.020173
0.0240086
0.0240229
0.0240364
0.0240492
0.0240611
0.0240722
0.0240824
0.0240917
0.0241002
0.0241079
0.0241148
0.0241211
0.0241267
0.0241316
0.0241361
0.02414
0.0241435
0.0241466
0.0241492
0.0241516
0.0241536
0.0241554
0.0241568
0.0241581
0.0241591
0.02416
0.0241606
0.0241611
0.0241615
0.0241616
0.0241616
0.0241615
0.0241611
0.0241606
0.02416
0.0241591
0.0241581
0.0241568
0.0241554
0.0241536
0.0241516
0.0241492
0.0241466
0.0241435
0.02414
0.0241361
0.0241316
0.0241267
0.0241211
0.0241148
0.0241079
0.0241002
0.0240917
0.0240824
0.0240722
0.0240611
0.0240492
0.0240364
0.0240229
0.0240086
0.0286642
0.0286814
0.0286976
0.0287129
0.0287272
0.0287404
0.0287526
0.0287638
0.0287739
0.0287831
0.0287914
0.0287988
0.0288055
0.0288115
0.0288168
0.0288215
0.0288257
0.0288293
0.0288326
0.0288354
0.0288378
0.0288399
0.0288417
0.0288432
0.0288444
0.0288454
0.0288462
0.0288468
0.0288472
0.0288474
0.0288474
0.0288472
0.0288468
0.0288462
0.0288454
0.0288444
0.0288432
0.0288417
0.0288399
0.0288378
0.0288354
0.0288326
0.0288293
0.0288257
0.0288215
0.0288168
0.0288115
0.0288055
0.0287988
0.0287914
0.0287831
0.0287739
0.0287638
0.0287526
0.0287404
0.0287272
0.0287129
0.0286976
0.0286814
0.0286642
0.0340692
0.0340893
0.0341081
0.0341259
0.0341424
0.0341578
0.0341719
0.0341848
0.0341966
0.0342072
0.0342168
0.0342255
0.0342332
0.0342401
0.0342463
0.0342517
0.0342566
0.0342608
0.0342645
0.0342678
0.0342706
0.034273
0.0342751
0.0342768
0.0342783
0.0342795
0.0342804
0.0342811
0.0342815
0.0342817
0.0342817
0.0342815
0.0342811
0.0342804
0.0342795
0.0342783
0.0342768
0.0342751
0.034273
0.0342706
0.0342678
0.0342645
0.0342608
0.0342566
0.0342517
0.0342463
0.0342401
0.0342332
0.0342255
0.0342168
0.0342072
0.0341966
0.0341848
0.0341719
0.0341578
0.0341424
0.0341259
0.0341081
0.0340893
0.0340692
0.0400954
0.0401182
0.0401395
0.0401595
0.0401782