/*--------------------------------*- C++ -*----------------------------------*\
| =========                 |                                                 |
| \\      /  F ield         | foam-extend: Open Source CFD                    |
|  \\    /   O peration     | Version:     4.0                                |
|   \\  /    A nd           | Web:         http://www.foam-extend.org         |
|    \\/     M anipulation  |                                                 |
\*---------------------------------------------------------------------------*/
FoamFile
{
    version     2.0;
    format      ascii;
    class       volScalarField;
    location    "1840";
    object      psiE;
}
// * * * * * * * * * * * * * * * * * * * * * * * * * * * * * * * * * * * * * //

dimensions      [0 0 0 0 0 0 0];

internalField   nonuniform List<scalar> 
6960
(
0.334339
0.334343
0.334349
0.334355
0.334361
0.334366
0.334371
0.334376
0.33438
0.334384
0.334387
0.33439
0.334393
0.334395
0.334397
0.334399
0.334401
0.334402
0.334404
0.334405
0.334406
0.334407
0.334407
0.334408
0.334409
0.334409
0.334409
0.33441
0.33441
0.33441
0.33441
0.33441
0.33441
0.334409
0.334409
0.334409
0.334408
0.334407
0.334407
0.334406
0.334405
0.334404
0.334402
0.334401
0.334399
0.334397
0.334395
0.334393
0.33439
0.334387
0.334384
0.33438
0.334376
0.334371
0.334366
0.334361
0.334355
0.334349
0.334343
0.334339
0.833486
0.833505
0.833529
0.833553
0.833576
0.833598
0.833618
0.833637
0.833654
0.833669
0.833682
0.833695
0.833706
0.833716
0.833724
0.833732
0.833739
0.833745
0.83375
0.833755
0.833759
0.833762
0.833765
0.833768
0.83377
0.833771
0.833773
0.833774
0.833774
0.833775
0.833775
0.833774
0.833774
0.833773
0.833771
0.83377
0.833768
0.833765
0.833762
0.833759
0.833755
0.83375
0.833745
0.833739
0.833732
0.833724
0.833716
0.833706
0.833695
0.833682
0.833669
0.833654
0.833637
0.833618
0.833598
0.833576
0.833553
0.833529
0.833505
0.833486
1.28314
1.28317
1.28322
1.28327
1.28331
1.28336
1.2834
1.28343
1.28347
1.2835
1.28352
1.28355
1.28357
1.28359
1.28361
1.28362
1.28364
1.28365
1.28366
1.28367
1.28368
1.28368
1.28369
1.28369
1.2837
1.2837
1.2837
1.28371
1.28371
1.28371
1.28371
1.28371
1.28371
1.2837
1.2837
1.2837
1.28369
1.28369
1.28368
1.28368
1.28367
1.28366
1.28365
1.28364
1.28362
1.28361
1.28359
1.28357
1.28355
1.28352
1.2835
1.28347
1.28343
1.2834
1.28336
1.28331
1.28327
1.28322
1.28317
1.28314
1.71885
1.7189
1.71898
1.71905
1.71913
1.71919
1.71926
1.71931
1.71937
1.71941
1.71946
1.7195
1.71953
1.71956
1.71959
1.71961
1.71963
1.71965
1.71967
1.71968
1.7197
1.71971
1.71972
1.71972
1.71973
1.71973
1.71974
1.71974
1.71974
1.71974
1.71974
1.71974
1.71974
1.71974
1.71973
1.71973
1.71972
1.71972
1.71971
1.7197
1.71968
1.71967
1.71965
1.71963
1.71961
1.71959
1.71956
1.71953
1.7195
1.71946
1.71941
1.71937
1.71931
1.71926
1.71919
1.71913
1.71905
1.71898
1.7189
1.71885
2.15443
2.15451
2.15462
2.15472
2.15482
2.15492
2.15501
2.15509
2.15516
2.15523
2.15529
2.15534
2.15539
2.15543
2.15547
2.1555
2.15553
2.15556
2.15558
2.1556
2.15562
2.15563
2.15565
2.15566
2.15567
2.15567
2.15568
2.15568
2.15569
2.15569
2.15569
2.15569
2.15568
2.15568
2.15567
2.15567
2.15566
2.15565
2.15563
2.15562
2.1556
2.15558
2.15556
2.15553
2.1555
2.15547
2.15543
2.15539
2.15534
2.15529
2.15523
2.15516
2.15509
2.15501
2.15492
2.15482
2.15472
2.15462
2.15451
2.15443
2.59561
2.59571
2.59585
2.59599
2.59612
2.59624
2.59636
2.59646
2.59656
2.59664
2.59672
2.59679
2.59685
2.59691
2.59696
2.597
2.59704
2.59708
2.5971
2.59713
2.59715
2.59717
2.59719
2.5972
2.59721
2.59722
2.59723
2.59724
2.59724
2.59724
2.59724
2.59724
2.59724
2.59723
2.59722
2.59721
2.5972
2.59719
2.59717
2.59715
2.59713
2.5971
2.59708
2.59704
2.597
2.59696
2.59691
2.59685
2.59679
2.59672
2.59664
2.59656
2.59646
2.59636
2.59624
2.59612
2.59599
2.59585
2.59571
2.59561
3.04478
3.04491
3.04508
3.04525
3.04541
3.04556
3.0457
3.04583
3.04595
3.04606
3.04616
3.04624
3.04632
3.04639
3.04645
3.0465
3.04655
3.04659
3.04663
3.04666
3.04669
3.04672
3.04674
3.04675
3.04677
3.04678
3.04679
3.04679
3.0468
3.0468
3.0468
3.0468
3.04679
3.04679
3.04678
3.04677
3.04675
3.04674
3.04672
3.04669
3.04666
3.04663
3.04659
3.04655
3.0465
3.04645
3.04639
3.04632
3.04624
3.04616
3.04606
3.04595
3.04583
3.0457
3.04556
3.04541
3.04525
3.04508
3.04491
3.04478
3.50295
3.5031
3.5033
3.50351
3.5037
3.50389
3.50405
3.50421
3.50435
3.50448
3.50459
3.5047
3.50479
3.50487
3.50495
3.50501
3.50507
3.50512
3.50516
3.5052
3.50523
3.50526
3.50529
3.50531
3.50533
3.50534
3.50535
3.50536
3.50536
3.50537
3.50537
3.50536
3.50536
3.50535
3.50534
3.50533
3.50531
3.50529
3.50526
3.50523
3.5052
3.50516
3.50512
3.50507
3.50501
3.50495
3.50487
3.50479
3.5047
3.50459
3.50448
3.50435
3.50421
3.50405
3.50389
3.5037
3.50351
3.5033
3.5031
3.50295
3.97053
3.97071
3.97094
3.97118
3.97141
3.97162
3.97182
3.972
3.97216
3.97231
3.97245
3.97257
3.97267
3.97277
3.97286
3.97293
3.973
3.97306
3.97311
3.97315
3.97319
3.97323
3.97326
3.97328
3.9733
3.97332
3.97333
3.97334
3.97334
3.97335
3.97335
3.97334
3.97334
3.97333
3.97332
3.9733
3.97328
3.97326
3.97323
3.97319
3.97315
3.97311
3.97306
3.973
3.97293
3.97286
3.97277
3.97267
3.97257
3.97245
3.97231
3.97216
3.972
3.97182
3.97162
3.97141
3.97118
3.97094
3.97071
3.97053
4.44767
4.44788
4.44815
4.44842
4.44868
4.44893
4.44915
4.44936
4.44955
4.44972
4.44987
4.45001
4.45013
4.45024
4.45034
4.45043
4.4505
4.45057
4.45063
4.45068
4.45073
4.45076
4.4508
4.45082
4.45085
4.45087
4.45088
4.45089
4.4509
4.4509
4.4509
4.4509
4.45089
4.45088
4.45087
4.45085
4.45082
4.4508
4.45076
4.45073
4.45068
4.45063
4.45057
4.4505
4.45043
4.45034
4.45024
4.45013
4.45001
4.44987
4.44972
4.44955
4.44936
4.44915
4.44893
4.44868
4.44842
4.44815
4.44788
4.44767
4.93444
4.93467
4.93497
4.93527
4.93557
4.93584
4.9361
4.93633
4.93654
4.93674
4.93691
4.93706
4.9372
4.93733
4.93744
4.93754
4.93762
4.9377
4.93776
4.93782
4.93787
4.93792
4.93795
4.93798
4.93801
4.93803
4.93805
4.93806
4.93807
4.93807
4.93807
4.93807
4.93806
4.93805
4.93803
4.93801
4.93798
4.93795
4.93792
4.93787
4.93782
4.93776
4.9377
4.93762
4.93754
4.93744
4.93733
4.9372
4.93706
4.93691
4.93674
4.93654
4.93633
4.9361
4.93584
4.93557
4.93527
4.93497
4.93467
4.93444
5.43079
5.43105
5.43138
5.43172
5.43205
5.43235
5.43264
5.4329
5.43313
5.43335
5.43354
5.43371
5.43387
5.43401
5.43413
5.43424
5.43434
5.43442
5.43449
5.43456
5.43461
5.43466
5.4347
5.43474
5.43477
5.43479
5.43481
5.43482
5.43483
5.43483
5.43483
5.43483
5.43482
5.43481
5.43479
5.43477
5.43474
5.4347
5.43466
5.43461
5.43456
5.43449
5.43442
5.43434
5.43424
5.43413
5.43401
5.43387
5.43371
5.43354
5.43335
5.43313
5.4329
5.43264
5.43235
5.43205
5.43172
5.43138
5.43105
5.43079
5.93667
5.93696
5.93733
5.9377
5.93806
5.9384
5.93871
5.939
5.93926
5.9395
5.93971
5.9399
5.94007
5.94022
5.94036
5.94048
5.94058
5.94068
5.94076
5.94083
5.94089
5.94094
5.94099
5.94103
5.94106
5.94108
5.9411
5.94112
5.94113
5.94113
5.94113
5.94113
5.94112
5.9411
5.94108
5.94106
5.94103
5.94099
5.94094
5.94089
5.94083
5.94076
5.94068
5.94058
5.94048
5.94036
5.94022
5.94007
5.9399
5.93971
5.9395
5.93926
5.939
5.93871
5.9384
5.93806
5.9377
5.93733
5.93696
5.93667
6.452
6.45231
6.45271
6.45312
6.45352
6.45389
6.45423
6.45454
6.45482
6.45508
6.45531
6.45552
6.45571
6.45588
6.45602
6.45616
6.45627
6.45637
6.45646
6.45654
6.45661
6.45666
6.45671
6.45676
6.45679
6.45682
6.45684
6.45686
6.45687
6.45687
6.45687
6.45687
6.45686
6.45684
6.45682
6.45679
6.45676
6.45671
6.45666
6.45661
6.45654
6.45646
6.45637
6.45627
6.45616
6.45602
6.45588
6.45571
6.45552
6.45531
6.45508
6.45482
6.45454
6.45423
6.45389
6.45352
6.45312
6.45271
6.45231
6.452
6.97663
6.97697
6.9774
6.97785
6.97828
6.97868
6.97905
6.97939
6.9797
6.97998
6.98023
6.98046
6.98066
6.98084
6.981
6.98114
6.98127
6.98138
6.98147
6.98156
6.98163
6.98169
6.98175
6.98179
6.98183
6.98186
6.98188
6.9819
6.98191
6.98192
6.98192
6.98191
6.9819
6.98188
6.98186
6.98183
6.98179
6.98175
6.98169
6.98163
6.98156
6.98147
6.98138
6.98127
6.98114
6.981
6.98084
6.98066
6.98046
6.98023
6.97998
6.9797
6.97939
6.97905
6.97868
6.97828
6.97785
6.9774
6.97697
6.97663
7.51041
7.51077
7.51124
7.51172
7.51218
7.51261
7.51301
7.51338
7.51371
7.51401
7.51428
7.51453
7.51475
7.51494
7.51511
7.51527
7.5154
7.51552
7.51563
7.51572
7.5158
7.51586
7.51592
7.51597
7.51601
7.51604
7.51607
7.51609
7.5161
7.5161
7.5161
7.5161
7.51609
7.51607
7.51604
7.51601
7.51597
7.51592
7.51586
7.5158
7.51572
7.51563
7.51552
7.5154
7.51527
7.51511
7.51494
7.51475
7.51453
7.51428
7.51401
7.51371
7.51338
7.51301
7.51261
7.51218
7.51172
7.51124
7.51077
7.51041
8.05311
8.0535
8.054
8.05451
8.05501
8.05547
8.0559
8.05629
8.05665
8.05697
8.05726
8.05752
8.05776
8.05797
8.05815
8.05832
8.05846
8.05859
8.0587
8.0588
8.05888
8.05896
8.05902
8.05907
8.05911
8.05915
8.05918
8.0592
8.05921
8.05922
8.05922
8.05921
8.0592
8.05918
8.05915
8.05911
8.05907
8.05902
8.05896
8.05888
8.0588
8.0587
8.05859
8.05846
8.05832
8.05815
8.05797
8.05776
8.05752
8.05726
8.05697
8.05665
8.05629
8.0559
8.05547
8.05501
8.05451
8.054
8.0535
8.05311
8.60448
8.60489
8.60543
8.60598
8.6065
8.607
8.60746
8.60787
8.60825
8.6086
8.60891
8.60919
8.60944
8.60966
8.60986
8.61004
8.61019
8.61033
8.61045
8.61055
8.61064
8.61072
8.61078
8.61084
8.61089
8.61092
8.61095
8.61097
8.61099
8.61099
8.61099
8.61099
8.61097
8.61095
8.61092
8.61089
8.61084
8.61078
8.61072
8.61064
8.61055
8.61045
8.61033
8.61019
8.61004
8.60986
8.60966
8.60944
8.60919
8.60891
8.6086
8.60825
8.60787
8.60746
8.607
8.6065
8.60598
8.60543
8.60489
8.60448
9.16421
9.16465
9.16521
9.1658
9.16636
9.16688
9.16737
9.16781
9.16822
9.16858
9.16891
9.16921
9.16947
9.16971
9.16992
9.17011
9.17027
9.17042
9.17054
9.17065
9.17075
9.17083
9.1709
9.17096
9.17101
9.17105
9.17108
9.1711
9.17112
9.17113
9.17113
9.17112
9.1711
9.17108
9.17105
9.17101
9.17096
9.1709
9.17083
9.17075
9.17065
9.17054
9.17042
9.17027
9.17011
9.16992
9.16971
9.16947
9.16921
9.16891
9.16858
9.16822
9.16781
9.16737
9.16688
9.16636
9.1658
9.16521
9.16465
9.16421
9.73192
9.73239
9.73299
9.7336
9.7342
9.73475
9.73527
9.73573
9.73616
9.73655
9.7369
9.73721
9.73749
9.73774
9.73796
9.73816
9.73834
9.73849
9.73862
9.73874
9.73884
9.73893
9.739
9.73906
9.73912
9.73916
9.73919
9.73921
9.73923
9.73924
9.73924
9.73923
9.73921
9.73919
9.73916
9.73912
9.73906
9.739
9.73893
9.73884
9.73874
9.73862
9.73849
9.73834
9.73816
9.73796
9.73774
9.73749
9.73721
9.7369
9.73655
9.73616
9.73573
9.73527
9.73475
9.7342
9.7336
9.73299
9.73239
9.73192
10.3072
10.3077
10.3083
10.309
10.3096
10.3102
10.3107
10.3112
10.3117
10.3121
10.3124
10.3128
10.3131
10.3133
10.3136
10.3138
10.3139
10.3141
10.3142
10.3144
10.3145
10.3146
10.3146
10.3147
10.3148
10.3148
10.3148
10.3149
10.3149
10.3149
10.3149
10.3149
10.3149
10.3148
10.3148
10.3148
10.3147
10.3146
10.3146
10.3145
10.3144
10.3142
10.3141
10.3139
10.3138
10.3136
10.3133
10.3131
10.3128
10.3124
10.3121
10.3117
10.3112
10.3107
10.3102
10.3096
10.309
10.3083
10.3077
10.3072
10.8895
10.89
10.8907
10.8914
10.892
10.8926
10.8932
10.8937
10.8942
10.8946
10.895
10.8953
10.8956
10.8959
10.8962
10.8964
10.8966
10.8967
10.8969
10.897
10.8971
10.8972
10.8973
10.8974
10.8974
10.8975
10.8975
10.8975
10.8976
10.8976
10.8976
10.8976
10.8975
10.8975
10.8975
10.8974
10.8974
10.8973
10.8972
10.8971
10.897
10.8969
10.8967
10.8966
10.8964
10.8962
10.8959
10.8956
10.8953
10.895
10.8946
10.8942
10.8937
10.8932
10.8926
10.892
10.8914
10.8907
10.89
10.8895
11.4782
11.4788
11.4795
11.4802
11.4809
11.4815
11.4821
11.4826
11.4831
11.4836
11.484
11.4843
11.4847
11.485
11.4852
11.4854
11.4856
11.4858
11.486
11.4861
11.4862
11.4863
11.4864
11.4865
11.4865
11.4866
11.4866
11.4867
11.4867
11.4867
11.4867
11.4867
11.4867
11.4866
11.4866
11.4865
11.4865
11.4864
11.4863
11.4862
11.4861
11.486
11.4858
11.4856
11.4854
11.4852
11.485
11.4847
11.4843
11.484
11.4836
11.4831
11.4826
11.4821
11.4815
11.4809
11.4802
11.4795
11.4788
11.4782
12.0727
12.0733
12.074
12.0748
12.0755
12.0761
12.0768
12.0773
12.0778
12.0783
12.0787
12.0791
12.0794
12.0797
12.08
12.0802
12.0805
12.0806
12.0808
12.0809
12.0811
12.0812
12.0813
12.0813
12.0814
12.0814
12.0815
12.0815
12.0815
12.0815
12.0815
12.0815
12.0815
12.0815
12.0814
12.0814
12.0813
12.0813
12.0812
12.0811
12.0809
12.0808
12.0806
12.0805
12.0802
12.08
12.0797
12.0794
12.0791
12.0787
12.0783
12.0778
12.0773
12.0768
12.0761
12.0755
12.0748
12.074
12.0733
12.0727
12.6722
12.6728
12.6735
12.6743
12.675
12.6757
12.6764
12.677
12.6775
12.678
12.6784
12.6788
12.6791
12.6795
12.6797
12.68
12.6802
12.6804
12.6806
12.6807
12.6808
12.6809
12.681
12.6811
12.6812
12.6812
12.6813
12.6813
12.6813
12.6813
12.6813
12.6813
12.6813
12.6813
12.6812
12.6812
12.6811
12.681
12.6809
12.6808
12.6807
12.6806
12.6804
12.6802
12.68
12.6797
12.6795
12.6791
12.6788
12.6784
12.678
12.6775
12.677
12.6764
12.6757
12.675
12.6743
12.6735
12.6728
12.6722
13.2757
13.2763
13.2771
13.2778
13.2786
13.2793
13.28
13.2806
13.2812
13.2816
13.2821
13.2825
13.2829
13.2832
13.2835
13.2837
13.284
13.2842
13.2843
13.2845
13.2846
13.2847
13.2848
13.2849
13.285
13.285
13.2851
13.2851
13.2851
13.2851
13.2851
13.2851
13.2851
13.2851
13.285
13.285
13.2849
13.2848
13.2847
13.2846
13.2845
13.2843
13.2842
13.284
13.2837
13.2835
13.2832
13.2829
13.2825
13.2821
13.2816
13.2812
13.2806
13.28
13.2793
13.2786
13.2778
13.2771
13.2763
13.2757
13.8821
13.8828
13.8836
13.8844
13.8852
13.8859
13.8866
13.8872
13.8878
13.8883
13.8888
13.8892
13.8895
13.8899
13.8902
13.8904
13.8907
13.8909
13.891
13.8912
13.8913
13.8914
13.8915
13.8916
13.8917
13.8918
13.8918
13.8918
13.8919
13.8919
13.8919
13.8919
13.8918
13.8918
13.8918
13.8917
13.8916
13.8915
13.8914
13.8913
13.8912
13.891
13.8909
13.8907
13.8904
13.8902
13.8899
13.8895
13.8892
13.8888
13.8883
13.8878
13.8872
13.8866
13.8859
13.8852
13.8844
13.8836
13.8828
13.8821
14.4903
14.491
14.4918
14.4926
14.4934
14.4942
14.4949
14.4955
14.4961
14.4967
14.4971
14.4976
14.4979
14.4983
14.4986
14.4989
14.4991
14.4993
14.4995
14.4996
14.4998
14.4999
14.5
14.5001
14.5002
14.5002
14.5003
14.5003
14.5003
14.5003
14.5003
14.5003
14.5003
14.5003
14.5002
14.5002
14.5001
14.5
14.4999
14.4998
14.4996
14.4995
14.4993
14.4991
14.4989
14.4986
14.4983
14.4979
14.4976
14.4971
14.4967
14.4961
14.4955
14.4949
14.4942
14.4934
14.4926
14.4918
14.491
14.4903
15.0989
15.0995
15.1004
15.1012
15.1021
15.1029
15.1036
15.1042
15.1048
15.1054
15.1058
15.1063
15.1067
15.107
15.1073
15.1076
15.1078
15.1081
15.1082
15.1084
15.1086
15.1087
15.1088
15.1089
15.1089
15.109
15.109
15.1091
15.1091
15.1091
15.1091
15.1091
15.1091
15.109
15.109
15.1089
15.1089
15.1088
15.1087
15.1086
15.1084
15.1082
15.1081
15.1078
15.1076
15.1073
15.107
15.1067
15.1063
15.1058
15.1054
15.1048
15.1042
15.1036
15.1029
15.1021
15.1012
15.1004
15.0995
15.0989
15.7062
15.7068
15.7077
15.7086
15.7094
15.7102
15.7109
15.7116
15.7122
15.7128
15.7133
15.7137
15.7141
15.7144
15.7148
15.715
15.7153
15.7155
15.7157
15.7159
15.716
15.7161
15.7162
15.7163
15.7164
15.7165
15.7165
15.7165
15.7166
15.7166
15.7166
15.7166
15.7165
15.7165
15.7165
15.7164
15.7163
15.7162
15.7161
15.716
15.7159
15.7157
15.7155
15.7153
15.715
15.7148
15.7144
15.7141
15.7137
15.7133
15.7128
15.7122
15.7116
15.7109
15.7102
15.7094
15.7086
15.7077
15.7068
15.7062
16.3103
16.311
16.3119
16.3128
16.3136
16.3144
16.3151
16.3158
16.3164
16.317
16.3175
16.3179
16.3183
16.3187
16.319
16.3193
16.3196
16.3198
16.32
16.3201
16.3203
16.3204
16.3205
16.3206
16.3207
16.3207
16.3208
16.3208
16.3208
16.3208
16.3208
16.3208
16.3208
16.3208
16.3207
16.3207
16.3206
16.3205
16.3204
16.3203
16.3201
16.32
16.3198
16.3196
16.3193
16.319
16.3187
16.3183
16.3179
16.3175
16.317
16.3164
16.3158
16.3151
16.3144
16.3136
16.3128
16.3119
16.311
16.3103
16.9091
16.9098
16.9107
16.9116
16.9125
16.9133
16.914
16.9147
16.9153
16.9159
16.9164
16.9168
16.9172
16.9176
16.9179
16.9182
16.9185
16.9187
16.9189
16.919
16.9192
16.9193
16.9194
16.9195
16.9196
16.9196
16.9197
16.9197
16.9198
16.9198
16.9198
16.9198
16.9197
16.9197
16.9196
16.9196
16.9195
16.9194
16.9193
16.9192
16.919
16.9189
16.9187
16.9185
16.9182
16.9179
16.9176
16.9172
16.9168
16.9164
16.9159
16.9153
16.9147
16.914
16.9133
16.9125
16.9116
16.9107
16.9098
16.9091
17.5002
17.5009
17.5017
17.5026
17.5035
17.5043
17.5051
17.5057
17.5063
17.5069
17.5074
17.5079
17.5083
17.5086
17.509
17.5092
17.5095
17.5097
17.5099
17.5101
17.5102
17.5104
17.5105
17.5105
17.5106
17.5107
17.5107
17.5108
17.5108
17.5108
17.5108
17.5108
17.5108
17.5107
17.5107
17.5106
17.5105
17.5105
17.5104
17.5102
17.5101
17.5099
17.5097
17.5095
17.5092
17.509
17.5086
17.5083
17.5079
17.5074
17.5069
17.5063
17.5057
17.5051
17.5043
17.5035
17.5026
17.5017
17.5009
17.5002
18.0804
18.0811
18.082
18.0829
18.0838
18.0846
18.0853
18.086
18.0866
18.0871
18.0876
18.0881
18.0885
18.0889
18.0892
18.0895
18.0897
18.0899
18.0901
18.0903
18.0904
18.0906
18.0907
18.0908
18.0908
18.0909
18.0909
18.091
18.091
18.091
18.091
18.091
18.091
18.0909
18.0909
18.0908
18.0908
18.0907
18.0906
18.0904
18.0903
18.0901
18.0899
18.0897
18.0895
18.0892
18.0889
18.0885
18.0881
18.0876
18.0871
18.0866
18.086
18.0853
18.0846
18.0838
18.0829
18.082
18.0811
18.0804
18.6465
18.6472
18.648
18.6489
18.6498
18.6506
18.6513
18.6519
18.6526
18.6531
18.6536
18.654
18.6544
18.6548
18.6551
18.6554
18.6556
18.6558
18.656
18.6562
18.6563
18.6565
18.6566
18.6567
18.6567
18.6568
18.6568
18.6569
18.6569
18.6569
18.6569
18.6569
18.6569
18.6568
18.6568
18.6567
18.6567
18.6566
18.6565
18.6563
18.6562
18.656
18.6558
18.6556
18.6554
18.6551
18.6548
18.6544
18.654
18.6536
18.6531
18.6526
18.6519
18.6513
18.6506
18.6498
18.6489
18.648
18.6472
18.6465
19.1943
19.1949
19.1958
19.1966
19.1975
19.1982
19.1989
19.1996
19.2002
19.2007
19.2012
19.2016
19.202
19.2023
19.2027
19.2029
19.2032
19.2034
19.2036
19.2037
19.2039
19.204
19.2041
19.2042
19.2042
19.2043
19.2043
19.2044
19.2044
19.2044
19.2044
19.2044
19.2044
19.2043
19.2043
19.2042
19.2042
19.2041
19.204
19.2039
19.2037
19.2036
19.2034
19.2032
19.2029
19.2027
19.2023
19.202
19.2016
19.2012
19.2007
19.2002
19.1996
19.1989
19.1982
19.1975
19.1966
19.1958
19.1949
19.1943
19.7189
19.7196
19.7204
19.7212
19.722
19.7227
19.7234
19.724
19.7246
19.7251
19.7256
19.726
19.7263
19.7267
19.727
19.7272
19.7275
19.7277
19.7278
19.728
19.7281
19.7282
19.7283
19.7284
19.7285
19.7285
19.7286
19.7286
19.7286
19.7286
19.7286
19.7286
19.7286
19.7286
19.7285
19.7285
19.7284
19.7283
19.7282
19.7281
19.728
19.7278
19.7277
19.7275
19.7272
19.727
19.7267
19.7263
19.726
19.7256
19.7251
19.7246
19.724
19.7234
19.7227
19.722
19.7212
19.7204
19.7196
19.7189
20.2147
20.2153
20.2161
20.2168
20.2176
20.2183
20.2189
20.2195
20.22
20.2205
20.221
20.2213
20.2217
20.222
20.2223
20.2225
20.2227
20.2229
20.2231
20.2232
20.2234
20.2235
20.2236
20.2236
20.2237
20.2238
20.2238
20.2238
20.2238
20.2239
20.2239
20.2238
20.2238
20.2238
20.2238
20.2237
20.2236
20.2236
20.2235
20.2234
20.2232
20.2231
20.2229
20.2227
20.2225
20.2223
20.222
20.2217
20.2213
20.221
20.2205
20.22
20.2195
20.2189
20.2183
20.2176
20.2168
20.2161
20.2153
20.2147
20.675
20.6756
20.6763
20.677
20.6777
20.6783
20.6789
20.6794
20.6799
20.6804
20.6808
20.6811
20.6814
20.6817
20.682
20.6822
20.6824
20.6826
20.6827
20.6829
20.683
20.6831
20.6832
20.6832
20.6833
20.6833
20.6834
20.6834
20.6834
20.6834
20.6834
20.6834
20.6834
20.6834
20.6833
20.6833
20.6832
20.6832
20.6831
20.683
20.6829
20.6827
20.6826
20.6824
20.6822
20.682
20.6817
20.6814
20.6811
20.6808
20.6804
20.6799
20.6794
20.6789
20.6783
20.6777
20.677
20.6763
20.6756
20.675
21.0926
21.0932
21.0938
21.0944
21.095
21.0956
21.0961
21.0966
21.097
21.0974
21.0978
21.0981
21.0984
21.0986
21.0989
21.0991
21.0992
21.0994
21.0995
21.0997
21.0998
21.0998
21.0999
21.1
21.1
21.1001
21.1001
21.1001
21.1001
21.1002
21.1002
21.1001
21.1001
21.1001
21.1001
21.1
21.1
21.0999
21.0998
21.0998
21.0997
21.0995
21.0994
21.0992
21.0991
21.0989
21.0986
21.0984
21.0981
21.0978
21.0974
21.097
21.0966
21.0961
21.0956
21.095
21.0944
21.0938
21.0932
21.0926
21.4609
21.4614
21.4619
21.4624
21.463
21.4634
21.4639
21.4643
21.4647
21.465
21.4653
21.4656
21.4658
21.466
21.4662
21.4664
21.4666
21.4667
21.4668
21.4669
21.467
21.4671
21.4671
21.4672
21.4672
21.4673
21.4673
21.4673
21.4673
21.4673
21.4673
21.4673
21.4673
21.4673
21.4673
21.4672
21.4672
21.4671
21.4671
21.467
21.4669
21.4668
21.4667
21.4666
21.4664
21.4662
21.466
21.4658
21.4656
21.4653
21.465
21.4647
21.4643
21.4639
21.4634
21.463
21.4624
21.4619
21.4614
21.4609
21.7752
21.7755
21.7759
21.7764
21.7768
21.7772
21.7776
21.7779
21.7782
21.7785
21.7787
21.7789
21.7791
21.7793
21.7795
21.7796
21.7797
21.7798
21.7799
21.78
21.7801
21.7801
21.7802
21.7802
21.7803
21.7803
21.7803
21.7803
21.7803
21.7803
21.7803
21.7803
21.7803
21.7803
21.7803
21.7803
21.7802
21.7802
21.7801
21.7801
21.78
21.7799
21.7798
21.7797
21.7796
21.7795
21.7793
21.7791
21.7789
21.7787
21.7785
21.7782
21.7779
21.7776
21.7772
21.7768
21.7764
21.7759
21.7755
21.7752
22.0347
22.0349
22.0353
22.0356
22.0359
22.0362
22.0365
22.0368
22.037
22.0372
22.0374
22.0376
22.0377
22.0379
22.038
22.0381
22.0382
22.0382
22.0383
22.0384
22.0384
22.0385
22.0385
22.0386
22.0386
22.0386
22.0386
22.0386
22.0386
22.0386
22.0386
22.0386
22.0386
22.0386
22.0386
22.0386
22.0386
22.0385
22.0385
22.0384
22.0384
22.0383
22.0382
22.0382
22.0381
22.038
22.0379
22.0377
22.0376
22.0374
22.0372
22.037
22.0368
22.0365
22.0362
22.0359
22.0356
22.0353
22.0349
22.0347
22.2436
22.2438
22.244
22.2443
22.2445
22.2448
22.245
22.2452
22.2453
22.2455
22.2456
22.2457
22.2459
22.246
22.246
22.2461
22.2462
22.2462
22.2463
22.2463
22.2464
22.2464
22.2464
22.2465
22.2465
22.2465
22.2465
22.2465
22.2465
22.2465
22.2465
22.2465
22.2465
22.2465
22.2465
22.2465
22.2465
22.2464
22.2464
22.2464
22.2463
22.2463
22.2462
22.2462
22.2461
22.246
22.246
22.2459
22.2457
22.2456
22.2455
22.2453
22.2452
22.245
22.2448
22.2445
22.2443
22.244
22.2438
22.2436
22.4101
22.4102
22.4104
22.4105
22.4107
22.4109
22.411
22.4111
22.4113
22.4114
22.4115
22.4116
22.4116
22.4117
22.4118
22.4118
22.4119
22.4119
22.412
22.412
22.412
22.412
22.4121
22.4121
22.4121
22.4121
22.4121
22.4121
22.4121
22.4121
22.4121
22.4121
22.4121
22.4121
22.4121
22.4121
22.4121
22.4121
22.412
22.412
22.412
22.412
22.4119
22.4119
22.4118
22.4118
22.4117
22.4116
22.4116
22.4115
22.4114
22.4113
22.4111
22.411
22.4109
22.4107
22.4105
22.4104
22.4102
22.4101
22.5436
22.5437
22.5438
22.5439
22.544
22.5441
22.5442
22.5443
22.5444
22.5445
22.5446
22.5446
22.5447
22.5447
22.5448
22.5448
22.5448
22.5449
22.5449
22.5449
22.5449
22.5449
22.545
22.545
22.545
22.545
22.545
22.545
22.545
22.545
22.545
22.545
22.545
22.545
22.545
22.545
22.545
22.545
22.5449
22.5449
22.5449
22.5449
22.5449
22.5448
22.5448
22.5448
22.5447
22.5447
22.5446
22.5446
22.5445
22.5444
22.5443
22.5442
22.5441
22.544
22.5439
22.5438
22.5437
22.5436
22.653
22.6531
22.6532
22.6533
22.6533
22.6534
22.6535
22.6535
22.6536
22.6537
22.6537
22.6537
22.6538
22.6538
22.6538
22.6539
22.6539
22.6539
22.6539
22.6539
22.6539
22.654
22.654
22.654
22.654
22.654
22.654
22.654
22.654
22.654
22.654
22.654
22.654
22.654
22.654
22.654
22.654
22.654
22.654
22.6539
22.6539
22.6539
22.6539
22.6539
22.6539
22.6538
22.6538
22.6538
22.6537
22.6537
22.6537
22.6536
22.6535
22.6535
22.6534
22.6533
22.6533
22.6532
22.6531
22.653
22.7454
22.7454
22.7454
22.7455
22.7456
22.7456
22.7457
22.7457
22.7457
22.7458
22.7458
22.7458
22.7459
22.7459
22.7459
22.7459
22.7459
22.7459
22.746
22.746
22.746
22.746
22.746
22.746
22.746
22.746
22.746
22.746
22.746
22.746
22.746
22.746
22.746
22.746
22.746
22.746
22.746
22.746
22.746
22.746
22.746
22.746
22.7459
22.7459
22.7459
22.7459
22.7459
22.7459
22.7458
22.7458
22.7458
22.7457
22.7457
22.7457
22.7456
22.7456
22.7455
22.7454
22.7454
22.7454
22.8255
22.8255
22.8255
22.8255
22.8256
22.8256
22.8257
22.8257
22.8257
22.8257
22.8258
22.8258
22.8258
22.8258
22.8258
22.8258
22.8258
22.8258
22.8258
22.8258
22.8258
22.8259
22.8259
22.8259
22.8259
22.8259
22.8259
22.8259
22.8259
22.8259
22.8259
22.8259
22.8259
22.8259
22.8259
22.8259
22.8259
22.8259
22.8259
22.8258
22.8258
22.8258
22.8258
22.8258
22.8258
22.8258
22.8258
22.8258
22.8258
22.8258
22.8257
22.8257
22.8257
22.8257
22.8256
22.8256
22.8255
22.8255
22.8255
22.8255
22.8966
22.8966
22.8966
22.8966
22.8967
22.8967
22.8967
22.8967
22.8967
22.8968
22.8968
22.8968
22.8968
22.8968
22.8968
22.8968
22.8968
22.8968
22.8968
22.8968
22.8968
22.8968
22.8968
22.8968
22.8968
22.8968
22.8968
22.8968
22.8968
22.8968
22.8968
22.8968
22.8968
22.8968
22.8968
22.8968
22.8968
22.8968
22.8968
22.8968
22.8968
22.8968
22.8968
22.8968
22.8968
22.8968
22.8968
22.8968
22.8968
22.8968
22.8968
22.8967
22.8967
22.8967
22.8967
22.8967
22.8966
22.8966
22.8966
22.8966
22.9609
22.9609
22.9609
22.9609
22.961
22.961
22.961
22.961
22.961
22.961
22.961
22.961
22.961
22.961
22.961
22.961
22.961
22.961
22.961
22.961
22.961
22.961
22.961
22.961
22.961
22.961
22.961
22.961
22.961
22.961
22.961
22.961
22.961
22.961
22.961
22.961
22.961
22.961
22.961
22.961
22.961
22.961
22.961
22.961
22.961
22.961
22.961
22.961
22.961
22.961
22.961
22.961
22.961
22.961
22.961
22.961
22.9609
22.9609
22.9609
22.9609
23.0199
23.0199
23.0199
23.0199
23.0199
23.0199
23.0199
23.0199
23.0199
23.0199
23.0199
23.0199
23.0199
23.0199
23.0199
23.0199
23.0199
23.0199
23.0199
23.0199
23.0199
23.0199
23.0199
23.0199
23.0199
23.0199
23.0199
23.0199
23.0199
23.0199
23.0199
23.0199
23.0199
23.0199
23.0199
23.0199
23.0199
23.0199
23.0199
23.0199
23.0199
23.0199
23.0199
23.0199
23.0199
23.0199
23.0199
23.0199
23.0199
23.0199
23.0199
23.0199
23.0199
23.0199
23.0199
23.0199
23.0199
23.0199
23.0199
23.0199
23.0746
23.0746
23.0746
23.0746
23.0746
23.0746
23.0746
23.0746
23.0746
23.0746
23.0745
23.0745
23.0745
23.0745
23.0745
23.0745
23.0745
23.0745
23.0745
23.0745
23.0745
23.0745
23.0745
23.0745
23.0745
23.0745
23.0745
23.0745
23.0745
23.0745
23.0745
23.0745
23.0745
23.0745
23.0745
23.0745
23.0745
23.0745
23.0745
23.0745
23.0745
23.0745
23.0745
23.0745
23.0745
23.0745
23.0745
23.0745
23.0745
23.0745
23.0746
23.0746
23.0746
23.0746
23.0746
23.0746
23.0746
23.0746
23.0746
23.0746
23.1257
23.1257
23.1257
23.1257
23.1257
23.1257
23.1257
23.1256
23.1256
23.1256
23.1256
23.1256
23.1256
23.1256
23.1256
23.1256
23.1256
23.1256
23.1256
23.1256
23.1256
23.1256
23.1256
23.1256
23.1256
23.1256
23.1256
23.1256
23.1256
23.1256
23.1256
23.1256
23.1256
23.1256
23.1256
23.1256
23.1256
23.1256
23.1256
23.1256
23.1256
23.1256
23.1256
23.1256
23.1256
23.1256
23.1256
23.1256
23.1256
23.1256
23.1256
23.1256
23.1256
23.1257
23.1257
23.1257
23.1257
23.1257
23.1257
23.1257
23.1738
23.1738
23.1738
23.1738
23.1738
23.1738
23.1738
23.1738
23.1737
23.1737
23.1737
23.1737
23.1737
23.1737
23.1737
23.1737
23.1737
23.1737
23.1737
23.1737
23.1737
23.1737
23.1737
23.1737
23.1737
23.1736
23.1736
23.1736
23.1736
23.1736
23.1736
23.1736
23.1736
23.1736
23.1736
23.1737
23.1737
23.1737
23.1737
23.1737
23.1737
23.1737
23.1737
23.1737
23.1737
23.1737
23.1737
23.1737
23.1737
23.1737
23.1737
23.1737
23.1738
23.1738
23.1738
23.1738
23.1738
23.1738
23.1738
23.1738
23.2194
23.2194
23.2194
23.2194
23.2194
23.2194
23.2194
23.2193
23.2193
23.2193
23.2193
23.2193
23.2193
23.2193
23.2193
23.2193
23.2193
23.2192
23.2192
23.2192
23.2192
23.2192
23.2192
23.2192
23.2192
23.2192
23.2192
23.2192
23.2192
23.2192
23.2192
23.2192
23.2192
23.2192
23.2192
23.2192
23.2192
23.2192
23.2192
23.2192
23.2192
23.2192
23.2192
23.2193
23.2193
23.2193
23.2193
23.2193
23.2193
23.2193
23.2193
23.2193
23.2193
23.2194
23.2194
23.2194
23.2194
23.2194
23.2194
23.2194
23.2629
23.2628
23.2628
23.2628
23.2628
23.2628
23.2628
23.2628
23.2627
23.2627
23.2627
23.2627
23.2627
23.2627
23.2627
23.2627
23.2626
23.2626
23.2626
23.2626
23.2626
23.2626
23.2626
23.2626
23.2626
23.2626
23.2626
23.2626
23.2626
23.2626
23.2626
23.2626
23.2626
23.2626
23.2626
23.2626
23.2626
23.2626
23.2626
23.2626
23.2626
23.2626
23.2626
23.2626
23.2627
23.2627
23.2627
23.2627
23.2627
23.2627
23.2627
23.2627
23.2628
23.2628
23.2628
23.2628
23.2628
23.2628
23.2628
23.2629
23.3044
23.3044
23.3044
23.3043
23.3043
23.3043
23.3043
23.3043
23.3043
23.3042
23.3042
23.3042
23.3042
23.3042
23.3042
23.3042
23.3042
23.3042
23.3041
23.3041
23.3041
23.3041
23.3041
23.3041
23.3041
23.3041
23.3041
23.3041
23.3041
23.3041
23.3041
23.3041
23.3041
23.3041
23.3041
23.3041
23.3041
23.3041
23.3041
23.3041
23.3041
23.3041
23.3042
23.3042
23.3042
23.3042
23.3042
23.3042
23.3042
23.3042
23.3042
23.3043
23.3043
23.3043
23.3043
23.3043
23.3043
23.3044
23.3044
23.3044
23.3443
23.3443
23.3442
23.3442
23.3442
23.3442
23.3442
23.3442
23.3441
23.3441
23.3441
23.3441
23.3441
23.3441
23.344
23.344
23.344
23.344
23.344
23.344
23.344
23.344
23.344
23.344
23.344
23.344
23.344
23.344
23.344
23.344
23.344
23.344
23.344
23.344
23.344
23.344
23.344
23.344
23.344
23.344
23.344
23.344
23.344
23.344
23.344
23.344
23.3441
23.3441
23.3441
23.3441
23.3441
23.3441
23.3442
23.3442
23.3442
23.3442
23.3442
23.3442
23.3443
23.3443
23.3827
23.3827
23.3827
23.3827
23.3826
23.3826
23.3826
23.3826
23.3826
23.3825
23.3825
23.3825
23.3825
23.3825
23.3825
23.3825
23.3824
23.3824
23.3824
23.3824
23.3824
23.3824
23.3824
23.3824
23.3824
23.3824
23.3824
23.3824
23.3824
23.3824
23.3824
23.3824
23.3824
23.3824
23.3824
23.3824
23.3824
23.3824
23.3824
23.3824
23.3824
23.3824
23.3824
23.3824
23.3825
23.3825
23.3825
23.3825
23.3825
23.3825
23.3825
23.3826
23.3826
23.3826
23.3826
23.3826
23.3827
23.3827
23.3827
23.3827
23.4199
23.4198
23.4198
23.4198
23.4198
23.4198
23.4197
23.4197
23.4197
23.4197
23.4197
23.4196
23.4196
23.4196
23.4196
23.4196
23.4196
23.4196
23.4196
23.4196
23.4196
23.4195
23.4195
23.4195
23.4195
23.4195
23.4195
23.4195
23.4195
23.4195
23.4195
23.4195
23.4195
23.4195
23.4195
23.4195
23.4195
23.4195
23.4195
23.4196
23.4196
23.4196
23.4196
23.4196
23.4196
23.4196
23.4196
23.4196
23.4196
23.4197
23.4197
23.4197
23.4197
23.4197
23.4198
23.4198
23.4198
23.4198
23.4198
23.4199
23.4559
23.4559
23.4558
23.4558
23.4558
23.4558
23.4557
23.4557
23.4557
23.4557
23.4557
23.4557
23.4556
23.4556
23.4556
23.4556
23.4556
23.4556
23.4556
23.4556
23.4556
23.4555
23.4555
23.4555
23.4555
23.4555
23.4555
23.4555