/*--------------------------------*- C++ -*----------------------------------*\
| =========                 |                                                 |
| \\      /  F ield         | foam-extend: Open Source CFD                    |
|  \\    /   O peration     | Version:     4.0                                |
|   \\  /    A nd           | Web:         http://www.foam-extend.org         |
|    \\/     M anipulation  |                                                 |
\*---------------------------------------------------------------------------*/
FoamFile
{
    version     2.0;
    format      ascii;
    class       surfaceScalarField;
    location    "4";
    object      phi;
}
// * * * * * * * * * * * * * * * * * * * * * * * * * * * * * * * * * * * * * //

dimensions      [0 3 -1 0 0 0 0];

internalField   nonuniform List<scalar> 
13744
(
-6.16882e-28
3.83903e-27
-1.19468e-27
5.77779e-28
-1.66936e-29
-1.17797e-27
-1.28656e-29
-3.79713e-30
-1.38727e-29
1.05309e-30
-1.0287e-29
-3.54362e-30
-6.0899e-30
-4.1774e-30
-2.48817e-31
-5.84166e-30
4.76576e-30
-5.02837e-30
8.86026e-30
-4.1191e-30
1.1071e-29
-2.24547e-30
1.18421e-29
-8.02953e-31
1.10586e-29
7.69835e-31
9.37877e-30
1.68305e-30
7.10465e-30
2.28137e-30
4.61321e-30
2.50014e-30
1.97011e-30
2.6605e-30
-5.66096e-31
2.55848e-30
-2.7094e-30
2.15462e-30
-4.17669e-30
1.46262e-30
-4.79912e-30
6.13845e-31
-4.35903e-30
-4.44753e-31
-2.68271e-30
-1.68418e-30
9.59209e-32
-2.79447e-30
3.41651e-30
-3.33462e-30
6.528e-30
-3.11378e-30
8.75761e-30
-2.22443e-30
9.54856e-30
-7.87017e-31
8.51014e-30
1.0422e-30
5.63011e-30
2.88866e-30
1.49696e-30
4.14358e-30
-2.90831e-30
4.41028e-30
-6.55566e-30
3.64598e-30
-8.67534e-30
2.11572e-30
-8.72161e-30
4.11223e-32
-6.57297e-30
-2.15455e-30
-2.61572e-30
-3.96066e-30
2.16679e-30
-4.78079e-30
6.63013e-30
-4.45802e-30
9.7698e-30
-3.13209e-30
1.08191e-29
-1.03896e-30
9.44449e-30
1.38437e-30
5.50512e-30
3.94011e-30
-7.33454e-32
5.56703e-30
-6.68872e-30
6.59736e-30
-1.24125e-29
5.70491e-30
-1.7125e-29
4.69213e-30
-1.84436e-29
1.3001e-30
-1.76906e-29
-7.59358e-31
-1.25641e-29
-5.11363e-30
-7.08004e-30
-5.45789e-30
9.22027e-31
-7.97418e-30
5.11131e-30
-4.16367e-30
9.08221e-30
-3.9532e-30
6.39158e-30
2.69607e-30
3.92968e-30
2.44574e-30
-1.90283e-31
4.09534e-30
-1.71503e-30
1.49711e-30
-1.92975e-30
2.01051e-31
-1.93518e-30
-1.68739e-27
5.52641e-27
-3.80685e-28
-7.29034e-28
-2.9505e-29
-1.52918e-27
-1.61005e-29
-1.71588e-29
-1.23687e-29
-2.55908e-30
-7.82827e-30
-7.95122e-30
-2.70442e-30
-9.20795e-30
4.24372e-30
-1.27326e-29
1.04835e-29
-1.12516e-29
1.55702e-29
-9.24999e-30
1.85888e-29
-5.36356e-30
1.98204e-29
-2.1313e-30
1.91947e-29
1.34536e-30
1.73746e-29
3.48127e-30
1.47412e-29
4.89383e-30
1.17333e-29
5.51223e-30
8.4689e-30
5.98274e-30
5.23761e-30
5.86545e-30
2.34886e-30
5.07823e-30
1.19861e-31
3.68843e-30
-1.24266e-30
1.97984e-30
-1.45899e-30
-2.16584e-31
-2.88193e-31
-2.87525e-30
2.18926e-30
-5.32792e-30
5.40997e-30
-6.6002e-30
8.57619e-30
-6.28867e-30
1.09257e-29
-4.57229e-30
1.17905e-29
-1.66069e-30
1.06414e-29
2.19074e-30
7.38122e-30
6.17493e-30
2.59216e-30
8.96813e-30
-2.62999e-30
9.65276e-30
-7.1313e-30
8.15158e-30
-9.98337e-30
4.96504e-30
-1.05365e-29
5.84033e-31
-8.56822e-30
-4.14081e-30
-4.53589e-30
-8.01048e-30
4.0539e-31
-9.73384e-30
4.87059e-30
-8.92822e-30
7.66087e-30
-5.91181e-30
7.98593e-30
-1.33138e-30
5.39937e-30
4.00921e-30
1.19031e-31
9.23794e-30
-6.96389e-30
1.26451e-29
-1.43751e-29
1.39963e-29
-2.07025e-29
1.20098e-29
-2.47625e-29
8.70279e-30
-2.57486e-29
2.22432e-30
-2.34688e-29
-3.0733e-30
-1.84115e-29
-1.01584e-29
-1.21423e-29
-1.16873e-29
-6.0418e-30
-1.40251e-29
-2.27846e-30
-7.8639e-30
-7.73772e-31
-5.39328e-30
-2.85965e-30
4.81828e-30
-4.51369e-30
4.07638e-30
-5.65547e-30
5.18118e-30
-3.07598e-30
-1.15631e-30
-2.50626e-30
-4.1169e-31
-4.45874e-30
-1.32271e-27
6.84907e-27
1.54794e-27
-3.59992e-27
-4.46923e-29
6.33248e-29
-1.52869e-29
-4.65598e-29
-2.86854e-30
-1.4806e-29
2.58666e-30
-1.31828e-29
8.34156e-30
-1.47785e-29
1.4064e-29
-1.83031e-29
1.92051e-29
-1.62964e-29
2.27108e-29
-1.27826e-29
2.47704e-29
-7.57693e-30
2.51776e-29
-2.70389e-30
2.43424e-29
2.08902e-30
2.25163e-29
5.24635e-30
2.01249e-29
7.20613e-30
1.74123e-29
8.19576e-30
1.45863e-29
8.9002e-30
1.17756e-29
8.81437e-30
9.17956e-30
7.73865e-30
7.01081e-30
5.85883e-30
5.48952e-30
3.53172e-30
4.81151e-30
5.1375e-31
5.10446e-30
-3.18727e-30
6.28886e-30
-6.61113e-30
8.00114e-30
-8.39404e-30
9.69286e-30
-7.99731e-30
1.07905e-29
-5.67763e-30
1.08061e-29
-1.71216e-30
9.38843e-30
3.5905e-30
6.51386e-30
9.08903e-30
2.57698e-30
1.29683e-29
-1.64761e-30
1.39176e-29
-5.38173e-30
1.19023e-29
-7.94738e-30
7.53679e-30
-8.94788e-30
1.57328e-30
-8.18639e-30
-4.93352e-30
-6.03112e-30
-1.02024e-29
-3.22643e-30
-1.25738e-29
-7.77461e-31
-1.14078e-29
5.28426e-31
-7.21659e-30
1.58806e-31
-9.05959e-31
-2.34352e-30
6.59125e-30
-6.70306e-30
1.3649e-29
-1.27555e-29
1.87202e-29
-1.88211e-29
2.0083e-29
-2.49512e-29
1.8139e-29
-2.86783e-29
1.23581e-29
-3.15076e-29
4.93285e-30
-2.98651e-29
-4.8044e-30
-2.8101e-29
-1.19386e-29
-2.15563e-29
-1.82089e-29
-1.83496e-29
-1.71844e-29
-1.13737e-29
-1.47462e-29
-1.13418e-29
-5.29503e-30
-8.13718e-30
1.70881e-30
-1.134e-29
7.27807e-30
-9.73434e-30
3.50467e-30
-7.65487e-30
-3.34986e-30
-4.86606e-30
-3.27725e-30
-9.35598e-30
-1.67116e-27
8.52016e-27
-4.87237e-28
-4.7842e-27
-6.27282e-29
-3.61419e-28
-2.11648e-29
-8.81624e-29
-5.72332e-30
-3.00259e-29
3.16286e-30
-2.17553e-29
1.25639e-29
-2.39069e-29
2.14551e-29
-2.69484e-29
2.94662e-29
-2.41258e-29
3.47325e-29
-1.80511e-29
3.76281e-29
-1.06794e-29
3.78838e-29
-3.19627e-30
3.62984e-29
3.5428e-30
3.32162e-29
8.2325e-30
2.9283e-29
1.09999e-29
2.49033e-29
1.25058e-29
2.05188e-29
1.34066e-29
1.62973e-29
1.32401e-29
1.24703e-29
1.16615e-29
9.34947e-30
8.98283e-30
7.36708e-30
5.56988e-30
6.79228e-30
1.18554e-30
7.67152e-30
-4.07963e-30
9.77075e-30
-8.85247e-30
1.25766e-29
-1.13206e-29
1.52715e-29
-1.07167e-29
1.69102e-29
-7.33113e-30
1.66978e-29
-1.5631e-30
1.42303e-29
6.02007e-30
9.62366e-30
1.37478e-29
3.53004e-30
1.91536e-29
-2.94962e-30
2.04578e-29
-8.59727e-30
1.75792e-29
-1.23543e-29
1.13096e-29
-1.36098e-29
2.81677e-30
-1.22279e-29
-6.36021e-30
-8.79136e-30
-1.36938e-29
-4.38634e-30
-1.70359e-29
-4.53403e-31
-1.53972e-29
1.82026e-30
-9.50007e-30
1.46742e-30
-4.73116e-31
-2.01998e-30
1.02036e-29
-8.59243e-30
2.0309e-29
-1.75651e-29
2.77409e-29
-2.73827e-29
2.9953e-29
-3.69136e-29
2.769e-29
-4.3966e-29
1.93134e-29
-4.83209e-29
9.09996e-30
-4.72867e-29
-5.99011e-30
-4.35092e-29
-1.57655e-29
-3.42022e-29
-2.75103e-29
-2.65372e-29
-2.48043e-29
-1.59757e-29
-2.51812e-29
-1.29195e-29
-8.14901e-30
-9.23878e-30
-1.8102e-30
-1.36307e-29
1.16968e-29
-1.23744e-29
2.16459e-30
-1.27044e-29
-3.17412e-30
-6.38619e-30
-9.70866e-30
-1.57896e-29
-6.35398e-28
9.15547e-27
-2.39598e-27
-3.02409e-27
-7.16241e-29
-2.68612e-27
-2.14456e-29
-1.38433e-28
-3.97374e-30
-4.72322e-29
7.29215e-30
-3.26214e-29
1.79835e-29
-3.42389e-29
2.83059e-29
-3.6927e-29
3.76715e-29
-3.3215e-29
4.4139e-29
-2.44877e-29
4.77076e-29
-1.45053e-29
4.82867e-29
-4.08302e-30
4.66047e-29
5.05494e-30
4.312e-29
1.1586e-29
3.84523e-29
1.54622e-29
3.32181e-29
1.76223e-29
2.79984e-29
1.87764e-29
2.30228e-29
1.84877e-29
1.84608e-29
1.6351e-29
1.46567e-29
1.27898e-29
1.2124e-29
8.18534e-30
1.11344e-29
2.32223e-30
1.16439e-29
-4.59276e-30
1.33828e-29
-1.07774e-29
1.58948e-29
-1.39937e-29
1.83723e-29
-1.32254e-29
1.97761e-29
-8.75672e-30
1.92106e-29
-1.0909e-30
1.62771e-29
8.89274e-30
1.11165e-29
1.89719e-29
4.39195e-30
2.59983e-29
-2.80715e-30
2.77381e-29
-9.1575e-30
2.39721e-29
-1.35127e-29
1.56916e-29
-1.51663e-29
4.45855e-30
-1.4051e-29
-7.53329e-30
-1.07778e-29
-1.70394e-29
-6.58605e-30
-2.13069e-29
-3.00498e-30
-1.90627e-29
-1.36884e-30
-1.11596e-29
-2.72771e-30
9.89415e-31
-7.46493e-30
1.5112e-29
-1.55776e-29
2.85452e-29
-2.57775e-29
3.80143e-29
-3.68784e-29
4.11396e-29
-4.66166e-29
3.74728e-29
-5.41809e-29
2.67563e-29
-5.74395e-29
1.21017e-29
-5.67085e-29
-6.93805e-30
-5.13416e-29
-2.12162e-29
-4.35088e-29
-3.5357e-29
-3.46856e-29
-3.35869e-29
-2.72139e-29
-3.24939e-29
-2.23554e-29
-1.27307e-29
-2.13475e-29
-2.58562e-30
-2.0888e-29
1.12955e-29
-1.83626e-29
-4.55147e-31
-1.58251e-29
-5.90581e-30
-6.14317e-30
-1.95419e-29
-2.1999e-29
5.83669e-28
8.5717e-27
-8.27819e-28
-1.61319e-27
-7.82574e-29
-3.43615e-27
-1.91586e-29
-1.97687e-28
4.42673e-30
-7.05148e-29
1.75751e-29
-4.52881e-29
2.86064e-29
-4.48254e-29
3.83988e-29
-4.62737e-29
4.71301e-29
-4.15663e-29
5.2973e-29
-3.02585e-29
5.60845e-29
-1.79212e-29
5.64089e-29
-4.78496e-30
5.46954e-29
6.5621e-30
5.12751e-29
1.48392e-29
4.66357e-29
1.98245e-29
4.14101e-29
2.26752e-29
3.62258e-29
2.41365e-29
3.12677e-29
2.37867e-29
2.65817e-29
2.11959e-29
2.2481e-29
1.6892e-29
1.95005e-29
1.12773e-29
1.78615e-29
4.16354e-30
1.74085e-29
-4.13043e-30
1.78863e-29
-1.14854e-29
1.90197e-29
-1.53293e-29
2.0206e-29
-1.44489e-29
2.05337e-29
-9.11331e-30
1.92218e-29
9.53181e-32
1.59976e-29
1.20302e-29
1.10298e-29
2.40132e-29
4.82342e-30
3.23534e-29
-1.80381e-30
3.44673e-29
-7.78038e-30
3.00055e-29
-1.21609e-29
2.01112e-29
-1.43732e-29
6.66056e-30
-1.44033e-29
-7.5731e-30
-1.27435e-29
-1.87886e-29
-1.04247e-29
-2.37272e-29
-8.66978e-30
-2.09322e-29
-8.58426e-30
-1.12849e-29
-1.09829e-29
3.51439e-30
-1.62105e-29
2.05575e-29
-2.42552e-29
3.67497e-29
-3.40038e-29
4.78618e-29
-4.44751e-29
5.17323e-29
-5.36484e-29
4.6719e-29
-6.10839e-29
3.4048e-29
-6.45988e-29
1.52893e-29
-6.49268e-29
-6.89435e-30
-6.06957e-29
-2.55668e-29
-5.47445e-29
-4.13434e-29
-4.67774e-29
-4.1521e-29
-4.06378e-29
-3.84437e-29
-3.42867e-29
-1.8728e-29
-3.30343e-29
-3.53096e-30
-2.82328e-29
6.58723e-30
-2.54043e-29
-3.38617e-30
-1.9801e-29
-1.17423e-29
-8.24997e-30
-3.12838e-29
-3.0337e-29
-8.87586e-28
9.45917e-27
2.11894e-28
-2.71337e-27
-8.93759e-29
-3.13547e-27
-1.96305e-29
-2.67661e-28
1.05204e-29
-1.00334e-28
2.60406e-29
-6.02502e-29
3.88202e-29
-5.70766e-29
4.92047e-29
-5.6107e-29
5.8388e-29
-5.02574e-29
6.41174e-29
-3.58657e-29
6.70598e-29
-2.12105e-29
6.69941e-29
-5.16469e-30
6.49788e-29
8.33631e-30
6.11842e-29
1.84305e-29
5.6117e-29
2.45375e-29
5.04004e-29
2.81573e-29
4.47863e-29
2.99489e-29
3.93988e-29
2.95843e-29
3.42001e-29
2.65846e-29
2.95028e-29
2.15882e-29
2.59558e-29
1.49667e-29
2.37886e-29
6.59314e-30
2.27506e-29
-3.06666e-30
2.25509e-29
-1.15598e-29
2.30065e-29
-1.60286e-29
2.35785e-29
-1.50636e-29
2.33078e-29
-8.87853e-30
2.13753e-29
1.8671e-30
1.75721e-29
1.57177e-29
1.21417e-29
2.95257e-29
5.54902e-30
3.91231e-29
-1.47202e-30
4.16113e-29
-7.89214e-30
3.64971e-29
-1.27531e-29
2.5025e-29
-1.55249e-29
9.42507e-30
-1.62349e-29
-6.94416e-30
-1.53843e-29
-1.97446e-29
-1.39296e-29
-2.5306e-29
-1.30312e-29
-2.19776e-29
-1.37599e-29
-1.06151e-29
-1.68933e-29
6.79549e-30
-2.28204e-29
2.67492e-29
-3.14872e-29
4.56121e-29
-4.19766e-29
5.84758e-29
-5.31653e-29
6.30807e-29
-6.33707e-29
5.70294e-29
-7.16939e-29
4.22071e-29
-7.64655e-29
1.96627e-29
-7.74138e-29
-6.29926e-30
-7.40866e-29
-2.9051e-29
-6.7725e-29
-4.77642e-29
-5.9732e-29
-4.9492e-29
-5.19027e-29
-4.60537e-29
-4.45594e-29
-2.56394e-29
-4.13458e-29
-6.35915e-30
-3.5301e-29
6.74759e-31
-3.16019e-29
-7.19274e-30
-2.44208e-29
-1.91942e-29
-1.07034e-29
-4.52326e-29
-4.11531e-29
-1.72204e-27
1.11811e-26
-2.55218e-28
-4.181e-27
-1.02259e-28
-3.28916e-27
-2.03259e-29
-3.49907e-28
1.51248e-29
-1.35432e-28
3.32015e-29
-7.76987e-29
4.81531e-29
-7.14184e-29
5.98201e-29
-6.7114e-29
7.02069e-29
-6.00311e-29
7.64585e-29
-4.19364e-29
7.9648e-29
-2.47842e-29
7.93663e-29
-5.39346e-30
7.69974e-29
1.04316e-29
7.26078e-29
2.258e-29
6.6793e-29
2.99155e-29
6.02351e-29
3.44119e-29
5.38743e-29
3.65273e-29
4.78089e-29
3.61289e-29
4.19303e-29
3.26835e-29
3.65449e-29
2.69691e-29
3.24145e-29
1.92722e-29
2.97712e-29
9.56382e-30
2.8258e-29
-1.50751e-30
2.75252e-29
-1.11447e-29
2.74618e-29
-1.62506e-29
2.75657e-29
-1.52148e-29
2.67942e-29
-8.15037e-30
2.42484e-29
4.21482e-30
1.97615e-29
2.0057e-29
1.36573e-29
3.5719e-29
6.39713e-30
4.65879e-29
-1.32024e-30
4.94723e-29
-8.43819e-30
4.37019e-29
-1.39214e-29
3.05766e-29
-1.72337e-29
1.27346e-29
-1.8451e-29
-5.81768e-30
-1.81339e-29
-2.01824e-29
-1.72474e-29
-2.63395e-29
-1.69913e-29
-2.2415e-29
-1.84782e-29
-9.20889e-30
-2.25297e-29
1.10143e-29
-2.95272e-29
3.40574e-29
-3.93642e-29
5.56803e-29
-5.10937e-29
7.0356e-29
-6.34576e-29
7.56451e-29
-7.48033e-29
6.85168e-29
-8.39717e-29
5.11939e-29
-8.95171e-29
2.4739e-29
-9.06671e-29
-5.57253e-30
-8.76426e-29
-3.22714e-29
-8.07243e-29
-5.47686e-29
-7.27106e-29
-5.74988e-29
-6.36666e-29
-5.48516e-29
-5.59722e-29
-3.28226e-29
-5.11013e-29
-1.07629e-29
-4.40643e-29
-6.18653e-30
-3.79493e-29
-1.34165e-29
-2.9396e-29
-2.80538e-29
-1.22115e-29
-6.269e-29
-5.35055e-29
-1.12041e-27
1.23014e-26
-6.48832e-28
-4.65349e-27
-1.1296e-28
-3.8259e-27
-2.01259e-29
-4.43147e-28
2.05682e-29
-1.75763e-28
4.13868e-29
-9.78266e-29
5.8361e-29
-8.77049e-29
7.12248e-29
-7.92061e-29
8.27021e-29
-7.0766e-29
8.94702e-29
-4.84556e-29
9.28969e-29
-2.86263e-29
9.24512e-29
-5.51951e-30
8.97642e-29
1.28153e-29
8.48173e-29
2.72496e-29
7.82635e-29
3.59448e-29
7.08642e-29
4.14322e-29
6.37363e-29
4.38881e-29
5.69657e-29
4.34466e-29
5.03776e-29
3.95212e-29
4.42796e-29
3.30582e-29
3.95328e-29
2.4229e-29
3.63585e-29
1.31353e-29
3.42881e-29
6.32716e-31
3.29177e-29
-1.01342e-29
3.22106e-29
-1.58703e-29
3.1711e-29
-1.47664e-29
3.03186e-29
-6.80884e-30
2.70826e-29
7.21302e-30
2.18895e-29
2.50674e-29
1.51345e-29
4.25682e-29
7.26585e-30
5.46882e-29
-1.07164e-30
5.79739e-29
-8.82243e-30
5.15555e-29
-1.49175e-29
3.67567e-29
-1.88277e-29
1.66485e-29
-2.06755e-29
-4.06886e-30
-2.10567e-29
-1.99361e-29
-2.09357e-29
-2.66304e-29
-2.15166e-29
-2.20518e-29
-2.39151e-29
-6.91615e-30
-2.89699e-29
1.62538e-29
-3.7044e-29
4.24873e-29
-4.80259e-29
6.69284e-29
-6.09e-29
8.3407e-29
-7.43858e-29
8.93752e-29
-8.67547e-29
8.10683e-29
-9.68384e-29
6.10821e-29
-1.03118e-28
3.04799e-29
-1.04732e-28
-4.45346e-30
-1.01984e-28
-3.52556e-29
-9.48999e-29
-6.19688e-29
-8.67074e-29
-6.57041e-29
-7.68191e-29
-6.447e-29
-6.82916e-29
-4.07594e-29
-6.19909e-29
-1.65115e-29
-5.32572e-29
-1.46964e-29
-4.49157e-29
-2.18636e-29
-3.49343e-29
-3.83745e-29
-1.39607e-29
-8.39786e-29
-6.76388e-29
-6.36273e-28
1.29375e-26
-6.01241e-28
-4.68953e-27
-1.21023e-28
-4.30713e-27
-1.91418e-29
-5.4554e-28
2.70842e-29
-2.21626e-28
5.08273e-29
-1.20825e-28
6.97618e-29
-1.05878e-28
8.36895e-29
-9.22483e-29
9.60653e-29
-8.22622e-29
1.03211e-28
-5.52742e-29
1.06776e-28
-3.26309e-29
1.06151e-28
-5.5238e-30
1.03184e-28
1.54527e-29
9.77597e-29
3.23593e-29
9.05496e-29
4.25375e-29
8.23824e-29
4.91379e-29
7.45269e-29
5.19874e-29
6.70473e-29
5.15396e-29
5.96979e-29
4.71479e-29
5.28015e-29
3.994e-29
4.73301e-29
2.9947e-29
4.35044e-29
1.74326e-29
4.0753e-29
3.48165e-30
3.86329e-29
-8.41491e-30
3.71913e-29
-1.47962e-29
3.60201e-29
-1.36491e-29
3.39596e-29
-4.80695e-30
3.00092e-29
1.08834e-29
2.41073e-29
3.07484e-29
1.67092e-29
5.00635e-29
8.23709e-30
6.34179e-29
-7.26101e-31
6.71212e-29
-9.13079e-30
6.00794e-29
-1.58853e-29
4.36148e-29
-2.04728e-29
2.12481e-29
-2.30591e-29
-1.58814e-30
-2.42582e-29
-1.88847e-29
-2.50283e-29
-2.60532e-29
-2.65658e-29
-2.07707e-29
-2.99802e-29
-3.63558e-30
-3.61069e-29
2.25802e-29
-4.52914e-29
5.20713e-29
-5.74246e-29
7.93618e-29
-7.14309e-29
9.76168e-29
-8.60262e-29
1.04262e-28
-9.93975e-29
9.46682e-29
-1.10432e-28
7.19109e-29
-1.17479e-28
3.69186e-29
-1.19693e-28
-2.80441e-30
-1.17277e-28
-3.79503e-29
-1.10227e-28
-6.9169e-29
-1.01818e-28
-7.41498e-29
-9.12543e-29
-7.47444e-29
-8.1599e-29
-4.97446e-29
-7.3957e-29
-2.35134e-29
-6.29647e-29
-2.54118e-29
-5.26019e-29
-3.23239e-29
-4.06488e-29
-5.06963e-29
-1.59875e-29
-1.08997e-28
-8.38344e-29
-6.19264e-28
1.35567e-26
-4.94078e-28
-4.8158e-27
-1.28088e-28
-4.67429e-27
-1.75701e-29
-6.56687e-28
3.42595e-29
-2.73105e-28
6.11245e-29
-1.46903e-28
8.21362e-29
-1.2606e-28
9.71885e-29
-1.063e-28
1.10464e-28
-9.4513e-29
1.17967e-28
-6.23629e-29
1.21632e-28
-3.67518e-29
1.20791e-28
-5.36286e-30
1.1751e-28
1.8382e-29
1.11582e-28
3.79351e-29
1.03691e-28
4.97136e-29
9.47334e-29
5.75444e-29
8.61302e-29
6.08404e-29
7.79215e-29
6.04257e-29
6.97807e-29
5.55918e-29
6.20428e-29
4.76565e-29
5.57934e-29
3.64817e-29
5.12541e-29
2.25228e-29
4.77472e-29
7.11798e-30
4.47915e-29
-5.89919e-30
4.25281e-29
-1.29399e-29
4.06067e-29
-1.17831e-29
3.78108e-29
-2.07732e-30
3.30905e-29
1.5279e-29
2.64401e-29
3.71365e-29
1.83765e-29
5.8225e-29
9.28729e-30
7.27893e-29
-3.18688e-31
7.69306e-29
-9.40583e-30
6.93023e-29
-1.68629e-29
5.11954e-29
-2.21903e-29
2.65982e-29
-2.56e-29
1.7116e-30
-2.7719e-29
-1.69248e-29
-2.94869e-29
-2.45011e-29
-3.20813e-29
-1.84731e-29
-3.66025e-29
7.20484e-31
-4.38744e-29
3.00638e-29
-5.42261e-29
6.28643e-29
-6.7547e-29
9.30155e-29
-8.27221e-29
1.13022e-28
-9.84614e-29
1.20342e-28
-1.12891e-28
1.09377e-28
-1.24934e-28
8.37433e-29
-1.32831e-28
4.41408e-29
-1.35725e-28
-5.45919e-31
-1.3372e-28
-4.02789e-29
-1.26748e-28
-7.63288e-29
-1.18115e-28
-8.28507e-29
-1.06831e-28
-8.57229e-29
-9.59006e-29
-5.99264e-29
-8.68136e-29
-3.18696e-29
-7.33125e-29
-3.85778e-29
-6.08918e-29
-4.48284e-29
-4.66722e-29
-6.531e-29
-1.82835e-29
-1.37785e-28
-1.02365e-28
-6.63104e-28
1.42197e-26
-4.53902e-28
-5.02618e-27
-1.34549e-28
-4.99496e-27
-1.54584e-29
-7.76536e-28
4.19331e-29
-3.30172e-28
7.20957e-29
-1.76246e-28
9.53311e-29
-1.48403e-28
1.11646e-28
-1.21498e-28
1.2592e-28
-1.07611e-28
1.3385e-28
-6.97812e-29
1.37644e-28
-4.10084e-29
1.3658e-28
-5.02295e-30
1.32943e-28
2.16477e-29
1.26452e-28
4.40391e-29
1.17803e-28
5.75455e-29
1.07974e-28
6.67258e-29
9.85481e-29
7.05166e-29
8.95488e-29
7.01634e-29
8.05676e-29
6.48994e-29
7.19479e-29
5.62464e-29
6.48848e-29
4.38701e-29
5.95975e-29
2.84445e-29
5.52953e-29
1.15857e-29
5.14526e-29
-2.53321e-30
4.83041e-29
-1.02366e-29
4.55624e-29
-9.09672e-30
4.19589e-29
1.45214e-30
3.63976e-29
2.04689e-29
2.89321e-29
4.42951e-29
2.01462e-29
6.71069e-29
1.03943e-29
8.28464e-29
1.0675e-31
8.74398e-29
-9.7014e-30
7.9263e-29
-1.79032e-29
5.95422e-29
-2.40196e-29
3.27501e-29
-2.83119e-29
5.89189e-30
-3.14232e-29
-1.39823e-29
-3.42722e-29
-2.18904e-29
-3.80125e-29
-1.50718e-29
-4.37308e-29
6.23895e-30
-5.22363e-29
3.87899e-29
-6.38418e-29
7.49503e-29
-7.84303e-29
1.07968e-28
-9.48522e-29
1.29701e-28
-1.11807e-28
1.3769e-28
-1.2737e-28
1.25276e-28
-1.40489e-28
9.66501e-29
-1.4931e-28
5.22229e-29
-1.52928e-28
2.36681e-30
-1.51381e-28
-4.21944e-29
-1.44479e-28
-8.3461e-29
-1.35617e-28
-9.18176e-29
-1.23523e-28
-9.75012e-29
-1.11247e-28
-7.13769e-29
-1.00561e-28
-4.17322e-29
-8.44281e-29
-5.43114e-29
-6.97698e-29
-5.95505e-29
-5.31165e-29
-8.23778e-29
-2.07856e-29
-1.70557e-28
-1.23442e-28
-6.2855e-28
1.48483e-26
-4.3525e-28
-5.22071e-27
-1.39953e-28
-5.29174e-27
-1.26565e-29
-9.04729e-28
5.02573e-29
-3.928e-28
8.38875e-29
-2.09038e-28
1.09458e-28
-1.73029e-28
1.27129e-28
-1.37938e-28
1.42464e-28
-1.2161e-28
1.50865e-28
-7.75634e-29
1.54805e-28
-4.54094e-29
1.5352e-28
-4.49838e-30
1.4951e-28
2.52742e-29
1.42419e-28
5.07074e-29
1.32962e-28
6.60799e-29
1.22201e-28
7.67359e-29
1.11886e-28
8.10768e-29
1.02028e-28
8.08167e-29
9.214e-29
7.51341e-29
8.25751e-29
6.57716e-29
7.46386e-29
5.21735e-29
6.85465e-29
3.52589e-29
6.33936e-29
1.69447e-29
5.86081e-29
1.74162e-30
5.45165e-29
-6.62626e-30
5.08941e-29
-5.52807e-30
4.64217e-29
5.84316e-30
3.9958e-29
2.65124e-29
3.16165e-29
5.22818e-29
2.20486e-29
7.67661e-29
1.1577e-29
9.36441e-29
5.53992e-31
9.87015e-29
-1.0028e-29
9.00143e-29
-1.90295e-29
6.87118e-29
-2.59937e-29
3.97653e-29
-3.12318e-29
1.10183e-29
-3.54041e-29
-9.98663e-30
-3.94109e-29
-1.8144e-29
-4.43821e-29
-1.04836e-29
-5.13871e-29
1.3006e-29
-6.12175e-29
4.88462e-29
-7.41692e-29
8.84186e-29
-9.0118e-29
1.24309e-28
-1.07876e-28
1.47744e-28
-1.26128e-28
1.56391e-28
-1.42903e-28
1.42449e-28
-1.57166e-28
1.10705e-28
-1.66973e-28
6.1232e-29
-1.7136e-28
5.97855e-30
-1.70307e-28
-4.36622e-29
-1.63474e-28
-9.05715e-29
-1.54379e-28
-1.01061e-28
-1.41403e-28
-1.10157e-28
-1.27716e-28
-8.41646e-29
-1.15278e-28
-5.32508e-29
-9.63774e-29
-7.27435e-29
-7.92729e-29
-7.66919e-29
-6.00109e-29
-1.02069e-28
-2.34716e-29
-2.07578e-28
-1.47253e-28
-5.66508e-28
1.54148e-26
-4.14961e-28
-5.37355e-27
-1.44021e-28
-5.56432e-27
-9.06407e-30
-1.04073e-27
5.93371e-29
-4.60971e-28
9.66142e-29
-2.45473e-28
1.24627e-28
-2.00051e-28
1.43733e-28
-1.557e-28
1.60166e-28
-1.36544e-28
1.69063e-28
-8.5723e-29
1.73152e-28
-4.99472e-29
1.71641e-28
-3.77595e-30
1.67241e-28
2.92853e-29
1.59524e-28
5.79684e-29
1.49219e-28
7.53521e-29
1.37479e-28
8.76157e-29
1.26218e-28
9.25714e-29
1.15438e-28
9.24446e-29
1.04574e-28
8.63616e-29
9.39921e-29
7.63012e-29
8.51106e-29
6.14647e-29
7.81426e-29
4.30412e-29
7.20689e-29
2.32695e-29
6.62728e-29
6.99635e-30
6.1173e-29
-2.04137e-30
5.66069e-29
-1.012e-30
5.12043e-29
1.11575e-29
4.37792e-29
3.34665e-29
3.45052e-29
6.11501e-29
2.40994e-29
8.72555e-29
1.28514e-29
1.05237e-28
1.03581e-30
1.10771e-28
-1.03786e-29
1.01614e-28
-2.02423e-29
7.8768e-29
-2.81228e-29
4.77147e-29
-3.43805e-29
1.71673e-29
-3.96919e-29
-4.85726e-30
-4.49399e-29
-1.31777e-29
-5.12315e-29
-4.62032e-30
-5.96161e-29
2.11112e-29
-7.08645e-29
6.03216e-29
-8.52538e-29
1.03357e-28
-1.02654e-28
1.42129e-28
-1.21839e-28
1.67238e-28
-1.41472e-28
1.76532e-28
-1.59537e-28
1.60978e-28
-1.75017e-28
1.25989e-28
-1.8588e-28
7.12406e-29
-1.91089e-28
1.03463e-29
-1.90571e-28
-4.46434e-29
-1.83818e-28
-9.76537e-29
-1.74481e-28
-1.10598e-28
-1.6056e-28
-1.23761e-28
-1.45373e-28
-9.83804e-29
-1.31035e-28
-6.65738e-29
-1.09192e-28
-9.40426e-29
-8.94425e-29
-9.64436e-29
-6.73639e-29
-1.24584e-28
-2.6355e-29
-2.49108e-28
-1.73999e-28
-5.03761e-28
1.59186e-26
-3.90429e-28
-5.48822e-27
-1.46629e-28
-5.80993e-27
-4.61177e-30
-1.18396e-27
6.92182e-29
-5.3464e-28
1.10323e-28
-2.85747e-28
1.40892e-28
-2.29597e-28
1.61525e-28
-1.7488e-28
1.79102e-28
-1.52452e-28
1.88523e-28
-9.42795e-29
1.92765e-28
-5.46139e-29
1.91022e-28
-2.83971e-30
1.86208e-28
3.37107e-29
1.77834e-28
6.5857e-29
1.66637e-28
8.54047e-29
1.53863e-28
9.94123e-29
1.41595e-28
1.05055e-28
1.29826e-28
1.05108e-28
1.17916e-28
9.86484e-29
1.06245e-28
8.79051e-29
9.63455e-29
7.18173e-29
8.84286e-29
5.18682e-29
8.13613e-29
3.06374e-29
7.44826e-29
1.33065e-29
6.83042e-29
3.59145e-30
6.27255e-29
4.52283e-30
5.63256e-29
1.74628e-29
4.78752e-29
4.13933e-29
3.76078e-29
7.09574e-29
2.6305e-29
9.86311e-29
1.42219e-29
1.17681e-28
1.55449e-30
1.23706e-28
-1.0753e-29
1.14124e-28
-2.15443e-29
8.97775e-29
-3.04136e-29
5.66735e-29
-3.77696e-29
2.4421e-29
-4.43044e-29
1.49249e-30
-5.08834e-29
-6.90066e-30
-5.85913e-29
2.61246e-30
-6.84545e-29
3.06502e-29
-8.12191e-29
7.331e-29
-9.71425e-29
1.19859e-28
-1.1609e-28
1.61519e-28
-1.36793e-28
1.88278e-28
-1.57896e-28
1.98204e-28
-1.77333e-28
1.80954e-28
-1.94109e-28
1.42585e-28
-2.061e-28
8.23269e-29
-2.12193e-28
1.55331e-29
-2.12253e-28
-4.50957e-29
-2.05594e-28
-1.04698e-28
-1.96003e-28
-1.20447e-28
-1.81071e-28
-1.38386e-28
-1.64286e-28
-1.14129e-28
-1.47893e-28
-8.18528e-29
-1.22913e-28
-1.18398e-28
-1.00321e-28
-1.18995e-28
-7.51956e-29
-1.50147e-28
-2.94539e-29
-2.95407e-28
-2.03901e-28
-4.43727e-28
1.63624e-26
-3.63112e-28
-5.5702e-27
-1.47674e-28
-6.02734e-27
7.85748e-31
-1.33379e-27
7.99568e-29
-6.13737e-28
1.25066e-28
-3.30055e-28
1.5831e-28
-2.61795e-28
1.80571e-28
-1.95584e-28
1.99342e-28
-1.69382e-28
2.09323e-28
-1.03259e-28
2.13725e-28
-5.94041e-29
2.11745e-28
-1.6736e-30
2.06493e-28
3.85836e-29
1.97424e-28
7.4413e-29
1.85284e-28
9.62857e-29
1.71418e-28
1.12178e-28
1.58076e-28
1.18588e-28
1.45247e-28
1.18873e-28
1.32215e-28
1.12064e-28
1.1938e-28
1.00656e-28
1.08387e-28
8.33075e-29
9.94453e-29
6.18189e-29
9.1309e-29
3.91284e-29
8.32733e-29
2.07508e-29
7.59421e-29
1.03498e-29
6.92771e-29
1.11527e-29
6.18082e-29
2.48319e-29
5.2264e-29
5.03602e-29
4.09375e-29
8.17666e-29
2.86737e-29
1.10953e-28
1.56922e-29
1.31036e-28
2.11049e-30
1.37567e-28
-1.11543e-29
1.27606e-28
-2.29421e-29
1.01811e-28
-3.28761e-29
6.67201e-29
-4.14131e-29
3.28652e-29
-4.92599e-29
9.15407e-30
-5.72651e-29
7.83648e-31
-6.64907e-29
1.13152e-29
-7.79372e-29
4.17243e-29
-9.23223e-29
8.79111e-29
-1.09883e-28
1.38021e-28
-1.30478e-28
1.82577e-28
-1.52799e-28
2.10959e-28
-1.75464e-28
2.21503e-28
-1.96362e-28
2.02469e-28
-2.14516e-28
1.60584e-28
-2.27711e-28
9.45729e-29
-2.34751e-28
2.16051e-29
-2.35433e-28
-4.49752e-29
-2.28883e-28
-1.11695e-28
-2.19024e-28
-1.30632e-28
-2.03014e-28
-1.5411e-28
-1.84523e-28
-1.3152e-28
-1.65918e-28
-9.92469e-29
-1.37594e-28
-1.4601e-28
-1.11953e-28
-1.44544e-28
-8.35329e-29
-1.78996e-28
-3.27814e-29
-3.46749e-28
-2.37191e-28
-3.84971e-28
1.67475e-26
-3.34011e-28
-5.62255e-27
-1.47046e-28
-6.21644e-27
7.22528e-30
-1.48962e-27
9.16241e-29
-6.98165e-28
1.40913e-28
-3.78591e-28
1.76948e-28
-2.96777e-28
2.00943e-28
-2.17925e-28
2.20962e-28
-1.87385e-28
2.31542e-28
-1.12691e-28
2.36109e-28
-6.43123e-29
2.33888e-28
-2.60929e-31
2.2817e-28
4.39396e-29
2.1837e-28
8.36789e-29
2.05234e-28
1.08047e-28
1.90215e-28
1.2597e-28
1.75727e-28
1.33234e-28
1.61761e-28
1.33809e-28
1.47528e-28
1.26683e-28
1.33449e-28
1.1463e-28
1.21282e-28
9.60155e-29
1.11235e-28
7.2977e-29
1.0195e-28
4.88269e-29
9.26792e-29
2.94123e-29
8.41171e-29
1.83157e-29
7.62881e-29
1.89584e-29
6.76742e-29
3.33419e-29
5.69637e-29
6.04385e-29
4.45087e-29
9.36441e-29
3.12157e-29
1.24287e-28
1.72686e-29
1.45367e-28
2.70559e-30
1.52418e-28
-1.15848e-29
1.42127e-28
-2.44428e-29
1.14942e-28
-3.55222e-29
7.79381e-29
-4.53276e-29
4.25906e-29
-5.45799e-29
1.82241e-29
-6.41116e-29
9.97727e-30
-7.49618e-29
2.15941e-29
-8.81021e-29
5.44408e-29
-1.04218e-28
1.0423e-28
-1.23524e-28
1.57948e-28
-1.45874e-28
2.05405e-28
-1.69917e-28
2.35385e-28
-1.94244e-28
2.4653e-28
-2.16694e-28
2.25622e-28
-2.36313e-28
1.80081e-28
-2.50793e-28
1.08065e-28
-2.58846e-28
2.86326e-29
-2.60197e-28
-4.42357e-29
-2.53772e-28
-1.18634e-28
-2.4363e-28
-1.41177e-28
-2.26467e-28
-1.71013e-28
-2.06162e-28
-1.50671e-28
-1.85177e-28
-1.18924e-28
-1.5329e-28
-1.77093e-28
-1.24381e-28
-1.73301e-28
-9.24048e-29
-2.11383e-28
-3.63488e-29
-4.03426e-28
-2.74114e-28
-3.26499e-28
1.70743e-26
-3.03461e-28
-5.64697e-27
-1.44627e-28
-6.37757e-27
1.48087e-29
-1.65079e-27
1.04298e-28
-7.87804e-28
1.57937e-28
-4.31544e-28
1.96882e-28
-3.34678e-28
2.22721e-28
-2.42019e-28
2.44042e-28
-2.06515e-28
2.55259e-28
-1.22606e-28
2.59998e-28
-6.93325e-29
2.57531e-28
1.41595e-30
2.5132e-28
4.98168e-29
2.40748e-28
9.36997e-29
2.26562e-28
1.20743e-28
2.10325e-28
1.40847e-28
1.94617e-28
1.4906e-28
1.79433e-28
1.49989e-28
1.63916e-28
1.42583e-28
1.48509e-28
1.29907e-28
1.35082e-28
1.10026e-28
1.23844e-28
8.54307e-29
1.13325e-28
5.98222e-29
1.02736e-28
3.93787e-29
9.28605e-29
2.7576e-29
8.37854e-29
2.80254e-29
7.39465e-29
4.30746e-29
6.19935e-29
7.17036e-29
4.83366e-29
1.06661e-28
3.39422e-29
1.38701e-28
1.89576e-29
1.60741e-28
3.34205e-30
1.68328e-28
-1.2047e-29
1.5776e-28
-2.60534e-29
1.2925e-28
-3.83641e-29
9.0416e-29
-4.95306e-29
5.36939e-29
-6.02874e-29
2.8805e-29
-7.14515e-29
2.07881e-29
-8.40389e-29
3.35616e-29
-9.89893e-29
6.89128e-29
-1.16952e-28
1.22378e-28
-1.38118e-28
1.79748e-28
-1.62337e-28
2.30114e-28
-1.88211e-28
2.61665e-28
-2.14303e-28
2.73391e-28
-2.38405e-28
2.50517e-28
-2.59581e-28
2.01176e-28
-2.75429e-28
1.22896e-28
-2.84564e-28
3.66901e-29
-2.86633e-28
-4.28281e-29
-2.80349e-28
-1.25503e-28
-2.69908e-28
-1.52107e-28
-2.51518e-28
-1.89183e-28
-2.29281e-28
-1.71706e-28
-2.0574e-28
-1.41063e-28
-1.70058e-28
-2.11871e-28
-1.37652e-28
-2.05484e-28
-1.01841e-28
-2.47576e-28
-4.01675e-29
-4.65746e-28
-3.14925e-28
-2.68077e-28
1.73427e-26
-2.71527e-28
-5.64489e-27
-1.40301e-28
-6.51124e-27
2.36417e-29
-1.81667e-27
1.18062e-28
-8.82511e-28
1.76217e-28
-4.89103e-28
2.18191e-28
-3.75633e-28
2.45987e-28
-2.67993e-28
2.68664e-28
-2.26828e-28
2.8056e-28
-1.33039e-28
2.85478e-28
-7.44583e-29
2.82759e-28
3.37576e-30
2.76027e-28
5.62558e-29
2.64641e-28
1.04523e-28
2.49348e-28
1.34432e-28
2.31826e-28
1.56871e-28
2.14818e-28
1.66139e-28
1.98332e-28
1.6749e-28
1.81441e-28
1.59845e-28
1.64617e-28
1.46574e-28
1.49839e-28
1.25429e-28
1.37319e-28
9.92735e-29
1.25476e-28
7.22087e-29
1.1348e-28
5.07433e-29
1.02205e-28
3.82224e-29
9.17973e-29
3.84442e-29
8.0649e-29
5.41164e-29
6.73732e-29
8.42358e-29
5.24373e-29
1.20891e-28
3.68649e-29
1.54267e-28
2.07664e-29
1.77231e-28
4.02222e-30
1.85368e-28
-1.25433e-29
1.74581e-28
-2.77816e-29
1.44819e-28
-4.14148e-29
1.04248e-28
-5.40409e-29
6.6277e-29
-6.64065e-29
4.10048e-29
-7.93147e-29
3.33301e-29
-9.37581e-29
4.73364e-29
-1.10641e-28
8.52602e-29
-1.30573e-28
1.42472e-28
-1.5372e-28
2.03535e-28
-1.79926e-28
2.56816e-28
-2.07749e-28
2.89912e-28
-2.35716e-28
3.02197e-28
-2.61572e-28
2.77263e-28
-2.84402e-28
2.23973e-28
-3.01707e-28
1.39162e-28
-3.11997e-28
4.58566e-29
-3.14835e-28
-4.07006e-29
-3.08709e-28
-1.32291e-28
-2.97952e-28
-1.63447e-28
-2.78254e-28
-2.08712e-28
-2.53966e-28
-1.94754e-28
-2.27682e-28
-1.65851e-28
-1.87961e-28
-2.50587e-28
-1.51817e-28
-2.41324e-28
-1.11874e-28
-2.87861e-28
-4.42491e-29
-5.34037e-28
-3.59889e-28
-2.09805e-28
1.75529e-26
-2.38214e-28
-5.61781e-27
-1.33951e-28
-6.6181e-27
3.38346e-29
-1.98658e-27
1.33005e-28
-9.82121e-28
1.95837e-28
-5.5145e-28
2.40957e-28
-4.19779e-28
2.70828e-28
-2.95975e-28
2.94919e-28
-2.48384e-28
3.07537e-28
-1.44025e-28
3.12639e-28
-7.96827e-29
3.09663e-28
5.63831e-30
3.02377e-28
6.33004e-29
2.90135e-28
1.16202e-28
2.73674e-28
1.49177e-28
2.54797e-28
1.7411e-28
2.36407e-28
1.84545e-28
2.18528e-28
1.86393e-28
2.0017e-28
1.78556e-28
1.81834e-28
1.64718e-28
1.6561e-28
1.42318e-28
1.5171e-28
1.14604e-28
1.38448e-28
8.60863e-29
1.24953e-28
6.36041e-29
1.12186e-28
5.03521e-29
1.00354e-28
5.03106e-29
8.78069e-29
6.65591e-29
7.31238e-29
9.81196e-29
5.68275e-29
1.36414e-28
3.99961e-29
1.71064e-28
2.27023e-29
1.94914e-28
4.74847e-30
2.03618e-28
-1.30762e-29
1.92669e-28
-2.96352e-29
1.61738e-28
-4.46881e-29
1.19533e-28
-5.88778e-29
8.04481e-29
-7.29628e-29
5.49381e-29
-8.77326e-29
4.77239e-29
-1.04157e-28
6.30441e-29
-1.23102e-28
1.0361e-28
-1.45132e-28
1.64635e-28
-1.70388e-28
2.29432e-28
-1.98707e-28
2.85631e-28
-2.286e-28
3.20245e-28
-2.58559e-28
3.33065e-28