/*--------------------------------*- C++ -*----------------------------------*\
| =========                 |                                                 |
| \\      /  F ield         | foam-extend: Open Source CFD                    |
|  \\    /   O peration     | Version:     4.0                                |
|   \\  /    A nd           | Web:         http://www.foam-extend.org         |
|    \\/     M anipulation  |                                                 |
\*---------------------------------------------------------------------------*/
FoamFile
{
    version     2.0;
    format      ascii;
    class       volVectorField;
    location    "4";
    object      U;
}
// * * * * * * * * * * * * * * * * * * * * * * * * * * * * * * * * * * * * * //

dimensions      [0 1 -1 0 0 0 0];

internalField   nonuniform List<vector> 
6960
(
(-3.18666e-11 -7.72074e-10 0)
(-1.54792e-11 -3.83414e-13 0)
(1.34369e-13 -1.58237e-13 0)
(5.78645e-12 1.84718e-15 0)
(2.7969e-12 3.04412e-14 0)
(2.89032e-12 -8.29412e-15 0)
(2.58056e-12 5.68489e-14 0)
(-7.83548e-13 1.87925e-15 0)
(2.22972e-12 3.87928e-14 0)
(-1.27443e-12 5.6003e-15 0)
(9.42533e-13 -2.32176e-15 0)
(6.33399e-13 -9.93138e-15 0)
(1.37132e-12 -3.1179e-14 0)
(2.9441e-12 -2.36959e-14 0)
(2.68658e-12 -2.85904e-14 0)
(3.6198e-12 -1.55377e-14 0)
(3.27336e-12 -1.82189e-18 0)
(2.56818e-12 1.16076e-14 0)
(2.00895e-12 2.77905e-14 0)
(6.45197e-13 3.03351e-14 0)
(1.14477e-14 2.91539e-14 0)
(-5.60849e-13 2.00188e-14 0)
(-7.48567e-13 2.97162e-15 0)
(-1.9055e-13 -1.05856e-14 0)
(3.78685e-13 -2.42682e-14 0)
(1.27672e-12 -2.85795e-14 0)
(1.92526e-12 -2.44592e-14 0)
(2.13709e-12 -1.49812e-14 0)
(2.04218e-12 3.07806e-16 0)
(1.41604e-12 1.23461e-14 0)
(6.70772e-13 2.0182e-14 0)
(-3.45752e-14 2.10931e-14 0)
(-5.27956e-13 1.44011e-14 0)
(-5.69324e-13 5.39346e-15 0)
(-3.35513e-13 -4.65427e-15 0)
(1.09398e-13 -1.13681e-14 0)
(5.74335e-13 -1.28621e-14 0)
(7.94112e-13 -1.12415e-14 0)
(8.08592e-13 -6.14991e-15 0)
(5.34689e-13 -1.14996e-15 0)
(7.10116e-14 1.58314e-15 0)
(-3.29791e-13 3.70294e-15 0)
(-7.38072e-13 2.26053e-15 0)
(-8.66382e-13 1.28945e-15 0)
(-8.45166e-13 8.18304e-16 0)
(-7.63486e-13 -7.63813e-16 0)
(-4.84235e-13 1.4137e-15 0)
(-4.41992e-13 9.75612e-16 0)
(-3.18886e-13 2.47941e-15 0)
(-4.58084e-13 3.63592e-15 0)
(-6.85451e-13 2.35798e-15 0)
(-9.23331e-13 3.71307e-15 0)
(-1.19735e-12 1.48537e-15 0)
(-1.32442e-12 6.93352e-16 0)
(-1.22843e-12 -9.70945e-16 0)
(-1.13132e-12 -3.15809e-15 0)
(-6.27068e-13 -3.71908e-15 0)
(-5.08988e-13 -2.57295e-15 0)
(-4.50739e-14 -3.72994e-15 0)
(-5.41218e-14 7.89297e-16 0)
(-6.82926e-11 -1.60825e-09 0)
(-2.35616e-11 -1.09757e-12 0)
(3.8128e-14 -7.74691e-13 0)
(1.6836e-11 2.46643e-14 0)
(8.15492e-12 6.13796e-14 0)
(9.35982e-12 -3.8291e-14 0)
(7.50707e-12 1.7543e-13 0)
(-1.55511e-12 1.62215e-14 0)
(6.85357e-12 1.39902e-13 0)
(-3.46076e-12 3.96952e-14 0)
(2.94705e-12 2.035e-14 0)
(1.68054e-12 -1.20216e-14 0)
(3.92658e-12 -8.71184e-14 0)
(8.40537e-12 -8.13819e-14 0)
(7.69285e-12 -1.1007e-13 0)
(1.0634e-11 -7.76768e-14 0)
(9.7145e-12 -3.15511e-14 0)
(7.92219e-12 1.2838e-14 0)
(6.38199e-12 7.75961e-14 0)
(2.41879e-12 1.02672e-13 0)
(5.60802e-13 1.1435e-13 0)
(-1.31451e-12 9.31204e-14 0)
(-2.01199e-12 3.81755e-14 0)
(-5.80025e-13 -1.34523e-14 0)
(9.63314e-13 -7.18277e-14 0)
(3.58404e-12 -9.87245e-14 0)
(5.51181e-12 -9.52463e-14 0)
(6.26072e-12 -6.69313e-14 0)
(6.09762e-12 -1.27145e-14 0)
(4.35498e-12 3.37582e-14 0)
(2.21282e-12 6.8203e-14 0)
(1.10235e-13 7.59049e-14 0)
(-1.39541e-12 5.47451e-14 0)
(-1.59174e-12 2.25365e-14 0)
(-9.57297e-13 -1.54012e-14 0)
(3.37576e-13 -3.9793e-14 0)
(1.71229e-12 -4.43427e-14 0)
(2.38264e-12 -3.51843e-14 0)
(2.44198e-12 -1.22809e-14 0)
(1.62053e-12 7.7929e-15 0)
(2.29006e-13 1.76638e-14 0)
(-1.00643e-12 2.05851e-14 0)
(-2.2469e-12 7.22549e-15 0)
(-2.62293e-12 -3.99857e-15 0)
(-2.54463e-12 -1.33654e-14 0)
(-2.22814e-12 -2.02549e-14 0)
(-1.35382e-12 -9.26417e-15 0)
(-1.16538e-12 -4.10014e-15 0)
(-7.69352e-13 1.11369e-14 0)
(-1.20223e-12 2.08091e-14 0)
(-1.89521e-12 2.03108e-14 0)
(-2.66853e-12 2.24422e-14 0)
(-3.5167e-12 9.12182e-15 0)
(-3.92615e-12 -9.90474e-16 0)
(-3.65895e-12 -1.18989e-14 0)
(-3.35848e-12 -2.22036e-14 0)
(-1.84882e-12 -2.17263e-14 0)
(-1.48672e-12 -1.44662e-14 0)
(-9.20102e-14 -1.68433e-14 0)
(-1.6717e-13 8.74636e-16 0)
(-1.00396e-10 -1.5712e-09 0)
(-3.08051e-11 -1.93747e-12 0)
(-2.84911e-13 -1.9838e-12 0)
(2.74671e-11 7.95003e-14 0)
(1.34029e-11 4.33409e-14 0)
(1.64397e-11 -8.52917e-14 0)
(1.23114e-11 3.17812e-13 0)
(-1.62737e-12 5.98707e-14 0)
(1.16437e-11 2.99832e-13 0)
(-5.33139e-12 1.24008e-13 0)
(5.08632e-12 9.52467e-14 0)
(2.57812e-12 1.52035e-14 0)
(6.38008e-12 -1.41862e-13 0)
(1.3571e-11 -1.68806e-13 0)
(1.24648e-11 -2.48455e-13 0)
(1.75322e-11 -2.04067e-13 0)
(1.6132e-11 -1.21824e-13 0)
(1.35085e-11 -1.95934e-14 0)
(1.10867e-11 1.29806e-13 0)
(4.62012e-12 2.12336e-13 0)
(1.55928e-12 2.64359e-13 0)
(-1.75114e-12 2.38166e-13 0)
(-3.07283e-12 1.31844e-13 0)
(-9.64352e-13 1.55146e-14 0)
(1.42169e-12 -1.24028e-13 0)
(5.70478e-12 -2.00824e-13 0)
(8.90386e-12 -2.12869e-13 0)
(1.02858e-11 -1.62612e-13 0)
(1.01586e-11 -5.00672e-14 0)
(7.41355e-12 5.30455e-14 0)
(3.94832e-12 1.35488e-13 0)
(4.54513e-13 1.58831e-13 0)
(-2.09532e-12 1.19679e-13 0)
(-2.51862e-12 5.33682e-14 0)
(-1.5504e-12 -2.72767e-14 0)
(5.52837e-13 -7.67007e-14 0)
(2.81892e-12 -8.31449e-14 0)
(3.95338e-12 -5.7562e-14 0)
(4.07867e-12 -2.69413e-15 0)
(2.72004e-12 4.07654e-14 0)
(4.06654e-13 5.85609e-14 0)
(-1.6886e-12 5.35013e-14 0)
(-3.77882e-12 9.91385e-15 0)
(-4.40839e-12 -2.70229e-14 0)
(-4.27454e-12 -5.80023e-14 0)
(-3.68037e-12 -7.12106e-14 0)
(-2.18929e-12 -3.97352e-14 0)
(-1.80731e-12 -1.42803e-14 0)
(-1.11352e-12 3.54965e-14 0)
(-1.84266e-12 6.44078e-14 0)
(-3.00153e-12 6.83341e-14 0)
(-4.35048e-12 6.44677e-14 0)
(-5.79294e-12 2.51037e-14 0)
(-6.51132e-12 -1.05764e-14 0)
(-6.09652e-12 -4.17113e-14 0)
(-5.59105e-12 -6.66844e-14 0)
(-3.08104e-12 -5.93136e-14 0)
(-2.46185e-12 -3.87167e-14 0)
(-1.23594e-13 -3.90291e-14 0)
(-2.87319e-13 -2.19043e-15 0)
(-1.32566e-10 -1.4634e-09 0)
(-4.08992e-11 -3.24842e-12 0)
(-7.06264e-13 -3.73637e-12 0)
(3.76153e-11 1.51606e-13 0)
(1.85778e-11 -1.71081e-14 0)
(2.39804e-11 -1.54289e-13 0)
(1.70216e-11 4.83744e-13 0)
(-1.06453e-12 1.32953e-13 0)
(1.65418e-11 5.14035e-13 0)
(-6.89202e-12 2.61992e-13 0)
(7.35198e-12 2.21218e-13 0)
(3.37466e-12 7.52376e-14 0)
(8.77563e-12 -1.91823e-13 0)
(1.84817e-11 -2.83594e-13 0)
(1.70502e-11 -4.39529e-13 0)
(2.43149e-11 -3.93521e-13 0)
(2.25097e-11 -2.6963e-13 0)
(1.92698e-11 -8.53001e-14 0)
(1.60464e-11 1.83055e-13 0)
(7.1816e-12 3.59094e-13 0)
(2.93825e-12 4.78e-13 0)
(-1.8994e-12 4.5508e-13 0)
(-3.93579e-12 2.84786e-13 0)
(-1.32309e-12 7.76112e-14 0)
(1.78811e-12 -1.77998e-13 0)
(7.65997e-12 -3.31752e-13 0)
(1.21127e-11 -3.73734e-13 0)
(1.42015e-11 -2.98819e-13 0)
(1.42006e-11 -1.09807e-13 0)
(1.05645e-11 7.08494e-14 0)
(5.85253e-12 2.20935e-13 0)
(9.86081e-13 2.67733e-13 0)
(-2.63203e-12 2.06843e-13 0)
(-3.35286e-12 9.62543e-14 0)
(-2.12388e-12 -4.01149e-14 0)
(7.32669e-13 -1.1982e-13 0)
(3.86074e-12 -1.25026e-13 0)
(5.46939e-12 -7.28127e-14 0)
(5.68624e-12 2.822e-14 0)
(3.81737e-12 1.02437e-13 0)
(6.06325e-13 1.27116e-13 0)
(-2.35652e-12 1.02959e-13 0)
(-5.30555e-12 9.14252e-15 0)
(-6.20492e-12 -7.02113e-14 0)
(-6.03285e-12 -1.35418e-13 0)
(-5.14621e-12 -1.54795e-13 0)
(-3.03749e-12 -8.97337e-14 0)
(-2.42814e-12 -2.71588e-14 0)
(-1.41598e-12 7.89132e-14 0)
(-2.42823e-12 1.38246e-13 0)
(-4.03717e-12 1.49535e-13 0)
(-5.97804e-12 1.31143e-13 0)
(-8.02241e-12 4.92981e-14 0)
(-9.07177e-12 -2.98405e-14 0)
(-8.53849e-12 -9.26013e-14 0)
(-7.83598e-12 -1.38582e-13 0)
(-4.34589e-12 -1.17327e-13 0)
(-3.45501e-12 -7.55874e-14 0)
(-1.638e-13 -6.86161e-14 0)
(-4.15454e-13 -7.61096e-15 0)
(-1.63108e-10 -1.44223e-09 0)
(-5.18622e-11 -5.0785e-12 0)
(-1.15198e-12 -6.02886e-12 0)
(4.72265e-11 2.2397e-13 0)
(2.36887e-11 -1.09102e-13 0)
(3.19147e-11 -2.54465e-13 0)
(2.16415e-11 6.84195e-13 0)
(1.18461e-13 2.32813e-13 0)
(2.15213e-11 7.84309e-13 0)
(-8.13509e-12 4.55631e-13 0)
(9.74538e-12 3.9511e-13 0)
(4.0917e-12 1.69209e-13 0)
(1.11338e-11 -2.39563e-13 0)
(2.3148e-11 -4.26809e-13 0)
(2.14631e-11 -6.83079e-13 0)
(3.09733e-11 -6.46792e-13 0)
(2.88316e-11 -4.73072e-13 0)
(2.51769e-11 -1.82755e-13 0)
(2.12261e-11 2.39464e-13 0)
(1.0078e-11 5.45707e-13 0)
(4.67551e-12 7.56732e-13 0)
(-1.76259e-12 7.45504e-13 0)
(-4.59355e-12 4.97193e-13 0)
(-1.64188e-12 1.72206e-13 0)
(2.07899e-12 -2.34797e-13 0)
(9.45548e-12 -4.93161e-13 0)
(1.51368e-11 -5.78744e-13 0)
(1.79961e-11 -4.75884e-13 0)
(1.82072e-11 -1.91184e-13 0)
(1.3794e-11 8.88754e-14 0)
(7.91637e-12 3.26499e-13 0)
(1.70396e-12 4.04576e-13 0)
(-3.00223e-12 3.17435e-13 0)
(-4.09207e-12 1.5153e-13 0)
(-2.6807e-12 -5.42724e-14 0)
(8.65309e-13 -1.69999e-13 0)
(4.81916e-12 -1.70629e-13 0)
(6.91043e-12 -8.10744e-14 0)
(7.24772e-12 8.0948e-14 0)
(4.90502e-12 1.94065e-13 0)
(8.30946e-13 2.24766e-13 0)
(-2.9986e-12 1.70401e-13 0)
(-6.81158e-12 6.05274e-15 0)
(-8.00302e-12 -1.33164e-13 0)
(-7.8192e-12 -2.45429e-13 0)
(-6.63921e-12 -2.71362e-13 0)
(-3.92262e-12 -1.59543e-13 0)
(-3.05752e-12 -4.26749e-14 0)
(-1.70712e-12 1.4161e-13 0)
(-2.98036e-12 2.4335e-13 0)
(-5.01409e-12 2.64946e-13 0)
(-7.55133e-12 2.23778e-13 0)
(-1.01989e-11 8.26798e-14 0)
(-1.16e-11 -5.8326e-14 0)
(-1.09813e-11 -1.64804e-13 0)
(-1.00956e-11 -2.38716e-13 0)
(-5.65414e-12 -1.9695e-13 0)
(-4.47666e-12 -1.25952e-13 0)
(-2.24457e-13 -1.05446e-13 0)
(-5.52594e-13 -1.43326e-14 0)
(-1.91236e-10 -1.44561e-09 0)
(-6.27625e-11 -7.34888e-12 0)
(-1.56974e-12 -8.8839e-12 0)
(5.62494e-11 2.84141e-13 0)
(2.87365e-11 -2.35087e-13 0)
(4.01988e-11 -3.93946e-13 0)
(2.61671e-11 9.18936e-13 0)
(1.92142e-12 3.57375e-13 0)
(2.65653e-11 1.1092e-12 0)
(-9.04824e-12 7.07836e-13 0)
(1.22712e-11 6.17761e-13 0)
(4.74295e-12 3.01805e-13 0)
(1.34681e-11 -2.81537e-13 0)
(2.75708e-11 -5.96281e-13 0)
(2.57065e-11 -9.77209e-13 0)
(3.74953e-11 -9.65665e-13 0)
(3.50808e-11 -7.34543e-13 0)
(3.12087e-11 -3.15974e-13 0)
(2.6603e-11 2.94828e-13 0)
(1.32973e-11 7.69776e-13 0)
(6.76362e-12 1.09955e-12 0)
(-1.33555e-12 1.11118e-12 0)
(-5.03425e-12 7.72492e-13 0)
(-1.9074e-12 3.03512e-13 0)
(2.30597e-12 -2.90319e-13 0)
(1.1093e-11 -6.82499e-13 0)
(1.79706e-11 -8.27044e-13 0)
(2.16574e-11 -6.94653e-13 0)
(2.21641e-11 -2.96124e-13 0)
(1.70916e-11 1.05112e-13 0)
(1.01351e-11 4.50672e-13 0)
(2.61037e-12 5.6883e-13 0)
(-3.20021e-12 4.51851e-13 0)
(-4.73183e-12 2.20075e-13 0)
(-3.22137e-12 -6.87303e-14 0)
(9.43032e-13 -2.26464e-13 0)
(5.68079e-12 -2.19442e-13 0)
(8.26182e-12 -8.17797e-14 0)
(8.75104e-12 1.56306e-13 0)
(5.97802e-12 3.17044e-13 0)
(1.08339e-12 3.53341e-13 0)
(-3.60598e-12 2.57658e-13 0)
(-8.28558e-12 2.12678e-15 0)
(-9.79584e-12 -2.15461e-13 0)
(-9.63359e-12 -3.88703e-13 0)
(-8.1688e-12 -4.22536e-13 0)
(-4.86148e-12 -2.51321e-13 0)
(-3.71521e-12 -6.25558e-14 0)
(-2.00638e-12 2.22559e-13 0)
(-3.51172e-12 3.79917e-13 0)
(-5.93764e-12 4.15748e-13 0)
(-9.06758e-12 3.44016e-13 0)
(-1.23152e-11 1.26835e-13 0)
(-1.40883e-11 -9.52066e-14 0)
(-1.34207e-11 -2.58533e-13 0)
(-1.23703e-11 -3.68153e-13 0)
(-7.01261e-12 -2.99883e-13 0)
(-5.53387e-12 -1.91365e-13 0)
(-3.13459e-13 -1.50391e-13 0)
(-6.99899e-13 -2.24298e-14 0)
(-2.1704e-10 -1.44321e-09 0)
(-7.36015e-11 -1.00177e-11 0)
(-1.91901e-12 -1.23163e-11 0)
(6.46344e-11 3.21276e-13 0)
(3.3719e-11 -4.0104e-13 0)
(4.87967e-11 -5.80049e-13 0)
(3.05907e-11 1.18578e-12 0)
(4.34927e-12 5.04227e-13 0)
(3.16612e-11 1.48659e-12 0)
(-9.61682e-12 1.0212e-12 0)
(1.49358e-11 8.90371e-13 0)
(5.33943e-12 4.78025e-13 0)
(1.57895e-11 -3.13383e-13 0)
(3.17476e-11 -7.88948e-13 0)
(2.97794e-11 -1.31945e-12 0)
(4.38665e-11 -1.3515e-12 0)
(4.12396e-11 -1.05668e-12 0)
(3.73467e-11 -4.89667e-13 0)
(3.21589e-11 3.43982e-13 0)
(1.6832e-11 1.02769e-12 0)
(9.20095e-12 1.50462e-12 0)
(-6.09476e-13 1.55341e-12 0)
(-5.24365e-12 1.1143e-12 0)
(-2.10595e-12 4.76492e-13 0)
(2.47954e-12 -3.39505e-13 0)
(1.25732e-11 -8.96234e-13 0)
(2.06073e-11 -1.11719e-12 0)
(2.51727e-11 -9.55849e-13 0)
(2.60574e-11 -4.26893e-13 0)
(2.04478e-11 1.16923e-13 0)
(1.2505e-11 5.91352e-13 0)
(3.7084e-12 7.59577e-13 0)
(-3.21931e-12 6.10461e-13 0)
(-5.26655e-12 3.03036e-13 0)
(-3.74476e-12 -8.20708e-14 0)
(9.60422e-13 -2.88095e-13 0)
(6.43494e-12 -2.70832e-13 0)
(9.51144e-12 -7.44868e-14 0)
(1.01862e-11 2.54826e-13 0)
(7.03224e-12 4.72472e-13 0)
(1.36625e-12 5.14561e-13 0)
(-4.17114e-12 3.66712e-13 0)
(-9.71803e-12 -7.84971e-16 0)
(-1.15775e-11 -3.16182e-13 0)
(-1.1476e-11 -5.65521e-13 0)
(-9.7424e-12 -6.09759e-13 0)
(-5.8675e-12 -3.67368e-13 0)
(-4.4167e-12 -8.89672e-14 0)
(-2.32856e-12 3.20187e-13 0)
(-4.03136e-12 5.47585e-13 0)
(-6.81047e-12 6.02789e-13 0)
(-1.05229e-11 4.934e-13 0)
(-1.43637e-11 1.8351e-13 0)
(-1.6529e-11 -1.3937e-13 0)
(-1.58519e-11 -3.7369e-13 0)
(-1.46596e-11 -5.27847e-13 0)
(-8.42607e-12 -4.27855e-13 0)
(-6.63211e-12 -2.73717e-13 0)
(-4.36976e-13 -2.04693e-13 0)
(-8.58672e-13 -3.23716e-14 0)
(-2.40665e-10 -1.436e-09 0)
(-8.44615e-11 -1.3082e-11 0)
(-2.16649e-12 -1.6332e-11 0)
(7.23324e-11 3.24779e-13 0)
(3.8633e-11 -6.14491e-13 0)
(5.76738e-11 -8.20008e-13 0)
(3.49032e-11 1.48199e-12 0)
(7.40824e-12 6.70903e-13 0)
(3.67983e-11 1.9142e-12 0)
(-9.82482e-12 1.39831e-12 0)
(1.7746e-11 1.21426e-12 0)
(5.89155e-12 7.03056e-13 0)
(1.81083e-11 -3.30417e-13 0)
(3.56743e-11 -1.00145e-12 0)
(3.36783e-11 -1.70711e-12 0)
(5.00718e-11 -1.80557e-12 0)
(4.72895e-11 -1.44226e-12 0)
(4.35731e-11 -7.08822e-13 0)
(3.78767e-11 3.81416e-13 0)
(2.06766e-11 1.31546e-12 0)
(1.19883e-11 1.96997e-12 0)
(4.26151e-13 2.07352e-12 0)
(-5.20604e-12 1.52653e-12 0)
(-2.22301e-12 6.96534e-13 0)
(2.61048e-12 -3.76899e-13 0)
(1.3897e-11 -1.13054e-12 0)
(2.30401e-11 -1.4477e-12 0)
(2.85295e-11 -1.26036e-12 0)
(2.9873e-11 -5.86045e-13 0)
(2.38527e-11 1.21408e-13 0)
(1.50224e-11 7.46333e-13 0)
(5.00106e-12 9.75993e-13 0)
(-3.05262e-12 7.93922e-13 0)
(-5.68986e-12 4.01896e-13 0)
(-4.24851e-12 -9.26169e-14 0)
(9.13758e-13 -3.53702e-13 0)
(7.07271e-12 -3.24324e-13 0)
(1.06487e-11 -5.90622e-14 0)
(1.15442e-11 3.76695e-13 0)
(8.0638e-12 6.61208e-13 0)
(1.6817e-12 7.10128e-13 0)
(-4.68742e-12 4.99731e-13 0)
(-1.11004e-11 -4.85513e-16 0)
(-1.33425e-11 -4.34037e-13 0)
(-1.3346e-11 -7.75921e-13 0)
(-1.13663e-11 -8.34416e-13 0)
(-6.95231e-12 -5.10157e-13 0)
(-5.17537e-12 -1.24392e-13 0)
(-2.68626e-12 4.32582e-13 0)
(-4.54669e-12 7.45722e-13 0)
(-7.63411e-12 8.26847e-13 0)
(-1.1913e-11 6.73578e-13 0)
(-1.63366e-11 2.54713e-13 0)
(-1.8914e-11 -1.894e-13 0)
(-1.82695e-11 -5.09934e-13 0)
(-1.69619e-11 -7.1867e-13 0)
(-9.89796e-12 -5.82637e-13 0)
(-7.77591e-12 -3.75057e-13 0)
(-6.0029e-13 -2.69743e-13 0)
(-1.03036e-12 -4.47026e-14 0)
(-2.62161e-10 -1.42761e-09 0)
(-9.5337e-11 -1.65398e-11 0)
(-2.28436e-12 -2.09353e-11 0)
(7.92949e-11 2.83986e-13 0)
(4.34757e-11 -8.83883e-13 0)
(6.67938e-11 -1.12152e-12 0)
(3.90944e-11 1.80464e-12 0)
(1.11039e-11 8.54338e-13 0)
(4.19667e-11 2.3894e-12 0)
(-9.65544e-12 1.84153e-12 0)
(2.07093e-11 1.59053e-12 0)
(6.41002e-12 9.82329e-13 0)
(2.04347e-11 -3.27677e-13 0)
(3.9347e-11 -1.22989e-12 0)
(3.73997e-11 -2.13695e-12 0)
(5.60953e-11 -2.32876e-12 0)
(5.32115e-11 -1.89384e-12 0)
(4.98698e-11 -9.7863e-13 0)
(4.37396e-11 4.01202e-13 0)
(2.48256e-11 1.62853e-12 0)
(1.51269e-11 2.49306e-12 0)
(1.78255e-12 2.67252e-12 0)
(-4.90472e-12 2.01303e-12 0)
(-2.24294e-12 9.69319e-13 0)
(2.7106e-12 -3.96559e-13 0)
(1.50663e-11 -1.38109e-12 0)
(2.52626e-11 -1.8167e-12 0)
(3.17152e-11 -1.60891e-12 0)
(3.35964e-11 -7.76218e-13 0)
(2.72955e-11 1.15439e-13 0)
(1.76826e-11 9.13165e-13 0)
(6.49077e-12 1.21711e-12 0)
(-2.69331e-12 1.0029e-12 0)
(-5.99479e-12 5.18269e-13 0)
(-4.7291e-12 -9.85154e-14 0)
(8.00786e-13 -4.21986e-13 0)
(7.58661e-12 -3.79475e-13 0)
(1.16638e-11 -3.55238e-14 0)
(1.28165e-11 5.21878e-13 0)
(9.06868e-12 8.83952e-13 0)
(2.03141e-12 9.41729e-13 0)
(-5.14877e-12 6.5906e-13 0)
(-1.24245e-11 5.55864e-15 0)
(-1.50853e-11 -5.67364e-13 0)
(-1.52429e-11 -1.01965e-12 0)
(-1.30457e-11 -1.09778e-12 0)
(-8.12635e-12 -6.82291e-13 0)
(-6.00339e-12 -1.7162e-13 0)
(-3.091e-12 5.57432e-13 0)
(-5.06447e-12 9.73353e-13 0)
(-8.40975e-12 1.08851e-12 0)
(-1.32333e-11 8.86215e-13 0)
(-1.82258e-11 3.42642e-13 0)
(-2.1235e-11 -2.43609e-13 0)
(-2.06673e-11 -6.66689e-13 0)
(-1.92749e-11 -9.4138e-13 0)
(-1.14307e-11 -7.66033e-13 0)
(-8.96912e-12 -4.97587e-13 0)
(-8.08169e-13 -3.47097e-13 0)
(-1.21657e-12 -6.00763e-14 0)
(-2.81551e-10 -1.41865e-09 0)
(-1.06199e-10 -2.0381e-11 0)
(-2.24981e-12 -2.61299e-11 0)
(8.54741e-11 1.88468e-13 0)
(4.82445e-11 -1.21845e-12 0)
(7.61172e-11 -1.4928e-12 0)
(4.31537e-11 2.15068e-12 0)
(1.54397e-11 1.05067e-12 0)
(4.71565e-11 2.90915e-12 0)
(-9.09136e-12 2.35282e-12 0)
(2.38332e-11 2.01991e-12 0)
(6.90646e-12 1.32147e-12 0)
(2.27795e-11 -3.00002e-13 0)
(4.2762e-11 -1.46977e-12 0)
(4.094e-11 -2.60507e-12 0)
(6.19207e-11 -2.92152e-12 0)
(5.89858e-11 -2.41368e-12 0)
(5.62178e-11 -1.3044e-12 0)
(4.97295e-11 3.97018e-13 0)
(2.92726e-11 1.96166e-12 0)
(1.86176e-11 3.07064e-12 0)
(3.471e-12 3.3509e-12 0)
(-4.32234e-12 2.57746e-12 0)
(-2.14895e-12 1.3007e-12 0)
(2.79312e-12 -3.92094e-13 0)
(1.60846e-11 -1.64296e-12 0)
(2.72694e-11 -2.22182e-12 0)
(3.47173e-11 -2.00194e-12 0)
(3.72125e-11 -9.99999e-13 0)
(3.07645e-11 9.57421e-14 0)
(2.04798e-11 1.08916e-12 0)
(8.17898e-12 1.48177e-12 0)
(-2.13487e-12 1.238e-12 0)
(-6.1739e-12 6.53816e-13 0)
(-5.18193e-12 -9.77977e-14 0)
(6.20642e-13 -4.91571e-13 0)
(7.97048e-12 -4.35861e-13 0)
(1.25481e-11 -4.02134e-15 0)
(1.39948e-11 6.90143e-13 0)
(1.00425e-11 1.14125e-12 0)
(2.41642e-12 1.21105e-12 0)
(-5.54973e-12 8.4723e-13 0)
(-1.36829e-11 2.02438e-14 0)
(-1.68005e-11 -7.1408e-13 0)
(-1.71654e-11 -1.29608e-12 0)
(-1.47852e-11 -1.40096e-12 0)
(-9.39914e-12 -8.86462e-13 0)
(-6.91227e-12 -2.33745e-13 0)
(-3.55385e-12 6.91993e-13 0)
(-5.59132e-12 1.2291e-12 0)
(-9.13867e-12 1.38813e-12 0)
(-1.44796e-11 1.13293e-12 0)
(-2.00235e-11 4.49651e-13 0)
(-2.34834e-11 -3.00039e-13 0)
(-2.30387e-11 -8.43125e-13 0)
(-2.15956e-11 -1.19661e-12 0)
(-1.30257e-11 -9.79884e-13 0)
(-1.02151e-11 -6.43688e-13 0)
(-1.06505e-12 -4.38508e-13 0)
(-1.41903e-12 -7.92903e-14 0)
(-2.98874e-10 -1.4088e-09 0)
(-1.17027e-10 -2.45919e-11 0)
(-2.0449e-12 -3.1918e-11 0)
(9.08232e-11 2.82223e-14 0)
(5.29381e-11 -1.62823e-12 0)
(8.56003e-11 -1.94263e-12 0)
(4.70707e-11 2.51695e-12 0)
(2.04167e-11 1.25515e-12 0)
(5.23573e-11 3.47002e-12 0)
(-8.11502e-12 2.93368e-12 0)
(2.71247e-11 2.50265e-12 0)
(7.39367e-12 1.72628e-12 0)
(2.51541e-11 -2.42069e-13 0)
(4.59168e-11 -1.71595e-12 0)
(4.42964e-11 -3.10688e-12 0)
(6.75317e-11 -3.5837e-12 0)
(6.45925e-11 -3.00357e-12 0)
(6.25968e-11 -1.69153e-12 0)
(5.58269e-11 3.62154e-13 0)
(3.40097e-11 2.30893e-12 0)
(2.24602e-11 3.69867e-12 0)
(5.50236e-12 4.10858e-12 0)
(-3.44123e-12 3.22319e-12 0)
(-1.92302e-12 1.69665e-12 0)
(2.87299e-12 -3.56659e-13 0)
(1.6957e-11 -1.91065e-12 0)
(2.90565e-11 -2.66009e-12 0)
(3.75239e-11 -2.43951e-12 0)
(4.0706e-11 -1.25988e-12 0)
(3.42466e-11 5.89158e-14 0)
(2.34065e-11 1.27139e-12 0)
(1.00659e-11 1.7686e-12 0)
(-1.37137e-12 1.49973e-12 0)
(-6.2194e-12 8.10223e-13 0)
(-5.60137e-12 -8.83876e-14 0)
(3.73841e-13 -5.61002e-13 0)
(8.21937e-12 -4.93076e-13 0)
(1.32934e-11 3.51673e-14 0)
(1.50708e-11 8.81051e-13 0)
(1.09806e-11 1.43351e-12 0)
(2.83708e-12 1.51976e-12 0)
(-5.88541e-12 1.06696e-12 0)
(-1.4868e-11 4.68416e-14 0)
(-1.84821e-11 -8.71663e-13 0)
(-1.91116e-11 -1.60422e-12 0)
(-1.65886e-11 -1.74488e-12 0)
(-1.07794e-11 -1.12544e-12 0)
(-7.91303e-12 -3.14163e-13 0)
(-4.08569e-12 8.33063e-13 0)
(-6.13406e-12 1.51116e-12 0)
(-9.82258e-12 1.72575e-12 0)
(-1.56479e-11 1.41529e-12 0)
(-2.17217e-11 5.78247e-13 0)
(-2.56503e-11 -3.56454e-13 0)
(-2.53761e-11 -1.03814e-12 0)
(-2.392e-11 -1.48483e-12 0)
(-1.46836e-11 -1.22606e-12 0)
(-1.15166e-11 -8.15928e-13 0)
(-1.37514e-12 -5.4594e-13 0)
(-1.63963e-12 -1.03312e-13 0)
(-3.14177e-10 -1.39796e-09 0)
(-1.27803e-10 -2.91573e-11 0)
(-1.65646e-12 -3.82998e-11 0)
(9.52967e-11 -2.06141e-13 0)
(5.75568e-11 -2.12407e-12 0)
(9.5194e-11 -2.48034e-12 0)
(5.08349e-11 2.90023e-12 0)
(2.60324e-11 1.46206e-12 0)
(5.75581e-11 4.06815e-12 0)
(-6.70884e-12 3.58506e-12 0)
(3.05907e-11 3.03849e-12 0)
(7.88582e-12 2.20276e-12 0)
(2.7571e-11 -1.48431e-13 0)
(4.88099e-11 -1.96258e-12 0)
(4.74671e-11 -3.63703e-12 0)
(7.29119e-11 -4.31457e-12 0)
(7.00111e-11 -3.66481e-12 0)
(6.89855e-11 -2.14546e-12 0)
(6.20107e-11 2.89548e-13 0)
(3.90273e-11 2.6637e-12 0)
(2.66527e-11 4.37228e-12 0)
(7.88667e-12 4.94477e-12 0)
(-2.24363e-12 3.95319e-12 0)
(-1.54599e-12 2.16325e-12 0)
(2.967e-12 -2.82964e-13 0)
(1.76905e-11 -2.17797e-12 0)
(3.06215e-11 -3.12793e-12 0)
(4.01238e-11 -2.92126e-12 0)
(4.40607e-11 -1.55822e-12 0)
(3.77273e-11 1.45175e-15 0)
(2.64536e-11 1.45668e-12 0)
(1.21503e-11 2.07598e-12 0)
(-3.97609e-13 1.78845e-12 0)
(-6.12325e-12 9.8918e-13 0)
(-5.98075e-12 -6.81089e-14 0)
(6.23044e-14 -6.2874e-13 0)
(8.32967e-12 -5.50722e-13 0)
(1.38923e-11 8.16379e-14 0)
(1.60365e-11 1.09395e-12 0)
(1.18777e-11 1.76095e-12 0)
(3.29292e-12 1.86948e-12 0)
(-6.15154e-12 1.32113e-12 0)
(-1.59728e-11 8.90049e-14 0)
(-2.0124e-11 -1.03712e-12 0)
(-2.1079e-11 -1.94263e-12 0)
(-1.84589e-11 -2.13021e-12 0)
(-1.22752e-11 -1.40204e-12 0)
(-9.01637e-12 -4.16574e-13 0)
(-4.6975e-12 9.76966e-13 0)
(-6.69996e-12 1.81725e-12 0)
(-1.04639e-11 2.10107e-12 0)
(-1.67349e-11 1.73475e-12 0)
(-2.33128e-11 7.31077e-13 0)
(-2.77267e-11 -4.10329e-13 0)
(-2.76715e-11 -1.25034e-12 0)
(-2.62434e-11 -1.80636e-12 0)
(-1.64039e-11 -1.50642e-12 0)
(-1.28759e-11 -1.01706e-12 0)
(-1.74244e-12 -6.71576e-13 0)
(-1.88039e-12 -1.33303e-13 0)
(-3.27522e-10 -1.38614e-09 0)
(-1.38511e-10 -3.40611e-11 0)
(-1.07609e-12 -4.52731e-11 0)
(9.88505e-11 -5.23187e-13 0)
(6.21019e-11 -2.71767e-12 0)
(1.04844e-10 -3.11574e-12 0)
(5.44361e-11 3.29721e-12 0)
(3.22802e-11 1.66462e-12 0)
(6.27469e-11 4.69936e-12 0)
(-4.85545e-12 4.30725e-12 0)
(3.42369e-11 3.62658e-12 0)
(8.39861e-12 2.75701e-12 0)
(3.00436e-11 -1.35898e-14 0)
(5.14417e-11 -2.20312e-12 0)
(5.04522e-11 -4.18941e-12 0)
(7.80454e-11 -5.11269e-12 0)
(7.52215e-11 -4.3981e-12 0)
(7.53612e-11 -2.67161e-12 0)
(6.82577e-11 1.71829e-13 0)
(4.43135e-11 3.01858e-12 0)
(3.11908e-11 5.0857e-12 0)
(1.06328e-11 5.858e-12 0)
(-7.12034e-13 4.77002e-12 0)
(-9.97638e-13 2.70658e-12 0)
(3.09389e-12 -1.63302e-13 0)
(1.82947e-11 -2.43814e-12 0)
(3.19637e-11 -3.62106e-12 0)
(4.25063e-11 -3.44634e-12 0)
(4.72606e-11 -1.89716e-12 0)
(4.11907e-11 -8.02309e-14 0)
(2.96103e-11 1.6416e-12 0)
(1.44294e-11 2.40205e-12 0)
(7.90693e-13 2.10439e-12 0)
(-5.87727e-12 1.19236e-12 0)
(-6.3124e-12 -3.46955e-14 0)
(-3.10616e-13 -6.93162e-13 0)
(8.29908e-12 -6.08405e-13 0)
(1.43381e-11 1.34857e-13 0)
(1.68838e-11 1.32798e-12 0)
(1.27279e-11 2.1236e-12 0)
(3.78263e-12 2.26179e-12 0)
(-6.34451e-12 1.6128e-12 0)
(-1.69905e-11 1.5077e-13 0)
(-2.172e-11 -1.20696e-12 0)
(-2.30639e-11 -2.3094e-12 0)
(-2.03979e-11 -2.55735e-12 0)
(-1.38936e-11 -1.71908e-12 0)
(-1.02327e-11 -5.44961e-13 0)
(-5.40041e-12 1.11954e-12 0)
(-7.29687e-12 2.14459e-12 0)
(-1.10657e-11 2.51345e-12 0)
(-1.7738e-11 2.09264e-12 0)
(-2.47898e-11 9.10897e-13 0)
(-2.97035e-11 -4.58852e-13 0)
(-2.99159e-11 -1.47799e-12 0)
(-2.85603e-11 -2.16129e-12 0)
(-1.81852e-11 -1.82285e-12 0)
(-1.42947e-11 -1.25e-12 0)
(-2.17074e-12 -8.17829e-13 0)
(-2.14347e-12 -1.70648e-13 0)
(-3.38974e-10 -1.37337e-09 0)
(-1.4913e-10 -3.92856e-11 0)
(-3.00272e-13 -5.28338e-11 0)
(1.01443e-10 -9.3043e-13 0)
(6.65765e-11 -3.42162e-12 0)
(1.14491e-10 -3.85911e-12 0)
(5.78651e-11 3.70455e-12 0)
(3.91493e-11 1.85492e-12 0)
(6.79105e-11 5.35913e-12 0)
(-2.5379e-12 5.09979e-12 0)
(3.80685e-11 4.26546e-12 0)
(8.9493e-12 3.39519e-12 0)
(3.25863e-11 1.6792e-13 0)
(5.38141e-11 -2.43026e-12 0)
(5.32532e-11 -4.75717e-12 0)
(8.29168e-11 -5.97589e-12 0)
(8.02036e-11 -5.20347e-12 0)
(8.16999e-11 -3.27532e-12 0)
(7.45428e-11 1.39503e-15 0)
(4.98541e-11 3.36549e-12 0)
(3.60678e-11 5.83224e-12 0)
(1.3748e-11 6.84597e-12 0)
(1.17054e-12 5.67566e-12 0)
(-2.56832e-13 3.33269e-12 0)
(3.27438e-12 1.03993e-14 0)
(1.87813e-11 -2.68369e-12 0)
(3.30848e-11 -4.13451e-12 0)
(4.46621e-11 -4.01338e-12 0)
(5.02891e-11 -2.2786e-12 0)
(4.46197e-11 -1.89743e-13 0)
(3.28634e-11 1.82251e-12 0)
(1.68983e-11 2.7447e-12 0)
(2.19668e-12 2.44761e-12 0)
(-5.47331e-12 1.42141e-12 0)
(-6.5877e-12 1.41969e-14 0)
(-7.40102e-13 -7.52566e-13 0)
(8.12674e-12 -6.6573e-13 0)
(1.4625e-11 1.9416e-13 0)
(1.76045e-11 1.58202e-12 0)
(1.35248e-11 2.52127e-12 0)
(4.30392e-12 2.69818e-12 0)
(-6.46148e-12 1.94516e-12 0)
(-1.79144e-11 2.36553e-13 0)
(-2.32631e-11 -1.37719e-12 0)
(-2.50623e-11 -2.7021e-12 0)
(-2.24069e-11 -3.02639e-12 0)
(-1.5641e-11 -2.07935e-12 0)
(-1.1572e-11 -7.03578e-13 0)
(-6.20576e-12 1.25611e-12 0)
(-7.93332e-12 2.48985e-12 0)
(-1.16324e-11 2.96178e-12 0)
(-1.86552e-11 2.4901e-12 0)
(-2.61458e-11 1.12056e-12 0)
(-3.15713e-11 -4.98918e-13 0)
(-3.21e-11 -1.71905e-12 0)
(-3.0864e-11 -2.54947e-12 0)
(-2.00252e-11 -2.17713e-12 0)
(-1.57743e-11 -1.51786e-12 0)
(-2.66364e-12 -9.87346e-13 0)
(-2.43111e-12 -2.16981e-13 0)
(-3.48612e-10 -1.35967e-09 0)
(-1.59636e-10 -4.48115e-11 0)
(6.69587e-13 -6.09756e-11 0)
(1.03035e-10 -1.43409e-12 0)
(7.09857e-11 -4.24941e-12 0)
(1.24068e-10 -4.72104e-12 0)
(6.11129e-11 4.11888e-12 0)
(4.66239e-11 2.02383e-12 0)
(7.30343e-11 6.04271e-12 0)
(2.60111e-13 5.96132e-12 0)
(4.2089e-11 4.95299e-12 0)
(9.55673e-12 4.12347e-12 0)
(3.52145e-11 4.01438e-13 0)
(5.59311e-11 -2.63599e-12 0)
(5.58741e-11 -5.33269e-12 0)
(8.75114e-11 -6.90115e-12 0)
(8.49379e-11 -6.08017e-12 0)
(8.79765e-11 -3.96175e-12 0)
(8.08386e-11 -2.29509e-13 0)
(5.56319e-11 3.69564e-12 0)
(4.12741e-11 6.60427e-12 0)
(1.72377e-11 7.90549e-12 0)
(3.4202e-12 6.67144e-12 0)
(6.98294e-13 4.04749e-12 0)
(3.53114e-12 2.4652e-13 0)
(1.91647e-11 -2.90652e-12 0)
(3.39888e-11 -4.66253e-12 0)
(4.6583e-11 -4.62038e-12 0)
(5.31299e-11 -2.70411e-12 0)
(4.79958e-11 -3.30677e-13 0)
(3.61981e-11 1.99556e-12 0)
(1.95503e-11 3.10153e-12 0)
(3.82219e-12 2.81796e-12 0)
(-4.90333e-12 1.67792e-12 0)
(-6.79714e-12 8.09767e-14 0)
(-1.21985e-12 -8.05173e-13 0)
(7.81327e-12 -7.22304e-13 0)
(1.47479e-11 2.58747e-13 0)
(1.81905e-11 1.85473e-12 0)
(1.42613e-11 2.95353e-12 0)
(4.85346e-12 3.17999e-12 0)
(-6.50041e-12 2.32153e-12 0)
(-1.87384e-11 3.51145e-13 0)
(-2.47462e-11 -1.54327e-12 0)
(-2.70687e-11 -3.11774e-12 0)
(-2.44857e-11 -3.53701e-12 0)
(-1.75225e-11 -2.48555e-12 0)
(-1.30439e-11 -8.96916e-13 0)
(-7.12513e-12 1.38154e-12 0)
(-8.61866e-12 2.84915e-12 0)
(-1.21692e-11 3.44449e-12 0)
(-1.94859e-11 2.92806e-12 0)
(-2.73748e-11 1.36295e-12 0)
(-3.33211e-11 -5.27145e-13 0)
(-3.42136e-11 -1.9711e-12 0)
(-3.31471e-11 -2.97048e-12 0)
(-2.19203e-11 -2.57103e-12 0)
(-1.73149e-11 -1.82387e-12 0)
(-3.22448e-12 -1.18302e-12 0)
(-2.74567e-12 -2.74223e-13 0)
(-3.56521e-10 -1.34505e-09 0)
(-1.70004e-10 -5.06185e-11 0)
(1.82712e-12 -6.96897e-11 0)
(1.0359e-10 -2.03887e-12 0)
(7.53358e-11 -5.21547e-12 0)
(1.33505e-10 -5.71234e-12 0)
(6.41717e-11 4.53682e-12 0)
(5.46829e-11 2.16095e-12 0)
(7.8102e-11 6.74518e-12 0)
(3.55394e-12 6.88948e-12 0)
(4.63005e-11 5.68627e-12 0)
(1.02413e-11 4.94793e-12 0)
(3.79445e-11 6.92066e-13 0)
(5.77988e-11 -2.81153e-12 0)
(5.8321e-11 -5.90762e-12 0)
(9.18157e-11 -7.88457e-12 0)
(8.94057e-11 -7.02657e-12 0)
(9.41648e-11 -4.7358e-12 0)
(8.7116e-11 -5.28688e-13 0)
(6.16275e-11 3.99954e-12 0)
(4.6797e-11 7.39319e-12 0)
(2.11051e-11 9.03241e-12 0)
(6.05183e-12 7.75795e-12 0)
(1.89009e-12 4.85665e-12 0)
(3.88874e-12 5.53675e-13 0)
(1.94618e-11 -3.09789e-12 0)
(3.46824e-11 -5.19859e-12 0)
(4.82627e-11 -5.26469e-12 0)
(5.57669e-11 -3.17486e-12 0)
(5.12992e-11 -5.06546e-13 0)
(3.95971e-11 2.15674e-12 0)
(2.23767e-11 3.46992e-12 0)
(5.66757e-12 3.21511e-12 0)
(-4.15964e-12 1.96339e-12 0)
(-6.93041e-12 1.68102e-13 0)
(-1.74204e-12 -8.4913e-13 0)
(7.36087e-12 -7.77723e-13 0)
(1.47029e-11 3.27683e-13 0)
(1.86342e-11 2.14448e-12 0)
(1.49295e-11 3.41968e-12 0)
(5.42685e-12 3.70845e-12 0)
(-6.46021e-12 2.74529e-12 0)
(-1.94566e-11 4.99694e-13 0)
(-2.6162e-11 -1.70009e-12 0)
(-2.90769e-11 -3.55273e-12 0)
(-2.66332e-11 -4.08846e-12 0)
(-1.95424e-11 -2.94023e-12 0)
(-1.46576e-11 -1.12967e-12 0)
(-8.17027e-12 1.49015e-12 0)
(-9.36303e-12 3.21799e-12 0)
(-1.26829e-11 3.95947e-12 0)
(-2.02304e-11 3.40714e-12 0)
(-2.84714e-11 1.64098e-12 0)
(-3.49437e-11 -5.39879e-13 0)
(-3.62458e-11 -2.23134e-12 0)
(-3.54012e-11 -3.42359e-12 0)
(-2.38659e-11 -3.00616e-12 0)
(-1.89164e-11 -2.17142e-12 0)
(-3.8563e-12 -1.40799e-12 0)
(-3.08955e-12 -3.44608e-13 0)
(-3.62794e-10 -1.32953e-09 0)
(-1.802e-10 -5.66854e-11 0)
(3.16093e-12 -7.89654e-11 0)
(1.03076e-10 -2.74767e-12 0)
(7.9635e-11 -6.33518e-12 0)
(1.42723e-10 -6.84387e-12 0)
(6.70348e-11 4.95498e-12 0)
(6.32995e-11 2.25452e-12 0)
(8.30957e-11 7.4615e-12 0)
(7.35775e-12 7.88074e-12 0)
(5.07031e-11 6.46166e-12 0)
(1.10248e-11 5.87444e-12 0)
(4.07933e-11 1.04455e-12 0)
(5.94253e-11 -2.94738e-12 0)
(6.06027e-11 -6.47292e-12 0)
(9.58174e-11 -8.92127e-12 0)
(9.35894e-11 -8.04006e-12 0)
(1.00238e-10 -5.60201e-12 0)
(9.33436e-11 -9.03883e-13 0)
(6.78182e-11 4.26709e-12 0)
(5.26201e-11 8.18943e-12 0)
(2.53508e-11 1.02216e-11 0)
(9.07867e-12 8.9349e-12 0)
(3.34111e-12 5.76548e-12 0)
(4.37348e-12 9.40626e-13 0)
(1.96923e-11 -3.2485e-12 0)
(3.51752e-11 -5.73537e-12 0)
(4.96965e-11 -5.94294e-12 0)
(5.81846e-11 -3.69152e-12 0)
(5.45092e-11 -7.20728e-13 0)
(4.30414e-11 2.30187e-12 0)
(2.53661e-11 3.84697e-12 0)
(7.73144e-12 3.63848e-12 0)
(-3.23502e-12 2.27925e-12 0)
(-6.97649e-12 2.78064e-13 0)
(-2.29738e-12 -8.82516e-13 0)
(6.77338e-12 -8.31573e-13 0)
(1.44871e-11 3.999e-13 0)
(1.89276e-11 2.4494e-12 0)
(1.55212e-11 3.91872e-12 0)
(6.01851e-12 4.28453e-12 0)
(-6.34081e-12 3.2199e-12 0)
(-2.00639e-11 6.87683e-13 0)
(-2.75026e-11 -1.84201e-12 0)
(-3.10796e-11 -4.00283e-12 0)
(-2.88467e-11 -4.67947e-12 0)
(-2.17036e-11 -3.44572e-12 0)
(-1.64216e-11 -1.4067e-12 0)
(-9.35307e-12 1.57583e-12 0)
(-1.01775e-11 3.59125e-12 0)
(-1.31815e-11 4.50399e-12 0)
(-2.08904e-11 3.92763e-12 0)
(-2.94315e-11 1.95751e-12 0)