/*--------------------------------*- C++ -*----------------------------------*\
| =========                 |                                                 |
| \\      /  F ield         | foam-extend: Open Source CFD                    |
|  \\    /   O peration     | Version:     4.0                                |
|   \\  /    A nd           | Web:         http://www.foam-extend.org         |
|    \\/     M anipulation  |                                                 |
\*---------------------------------------------------------------------------*/
FoamFile
{
    version     2.0;
    format      ascii;
    class       volScalarField;
    location    "1330";
    object      cMinus;
}
// * * * * * * * * * * * * * * * * * * * * * * * * * * * * * * * * * * * * * //

dimensions      [0 0 0 0 0 0 0];

internalField   nonuniform List<scalar> 
6960
(
4.90076e-22
4.89855e-22
4.89244e-22
4.88724e-22
4.88328e-22
4.88037e-22
4.87825e-22
4.87672e-22
4.87561e-22
4.87479e-22
4.87419e-22
4.87374e-22
4.8734e-22
4.87314e-22
4.87295e-22
4.87279e-22
4.87268e-22
4.87258e-22
4.87251e-22
4.87246e-22
4.87242e-22
4.87239e-22
4.87236e-22
4.87235e-22
4.87233e-22
4.87232e-22
4.87232e-22
4.87231e-22
4.87231e-22
4.87231e-22
4.87231e-22
4.87231e-22
4.87231e-22
4.87232e-22
4.87232e-22
4.87233e-22
4.87235e-22
4.87236e-22
4.87239e-22
4.87242e-22
4.87246e-22
4.87251e-22
4.87258e-22
4.87268e-22
4.87279e-22
4.87295e-22
4.87314e-22
4.8734e-22
4.87374e-22
4.87419e-22
4.87479e-22
4.87561e-22
4.87672e-22
4.87825e-22
4.88037e-22
4.88328e-22
4.88724e-22
4.89244e-22
4.89855e-22
4.90076e-22
2.18387e-21
2.18346e-21
2.18126e-21
2.17934e-21
2.17786e-21
2.17676e-21
2.17595e-21
2.17535e-21
2.17492e-21
2.1746e-21
2.17436e-21
2.17418e-21
2.17404e-21
2.17393e-21
2.17385e-21
2.17379e-21
2.17374e-21
2.1737e-21
2.17368e-21
2.17365e-21
2.17364e-21
2.17362e-21
2.17361e-21
2.17361e-21
2.1736e-21
2.1736e-21
2.1736e-21
2.17359e-21
2.17359e-21
2.17359e-21
2.17359e-21
2.17359e-21
2.17359e-21
2.1736e-21
2.1736e-21
2.1736e-21
2.17361e-21
2.17361e-21
2.17362e-21
2.17364e-21
2.17365e-21
2.17368e-21
2.1737e-21
2.17374e-21
2.17379e-21
2.17385e-21
2.17393e-21
2.17404e-21
2.17418e-21
2.17436e-21
2.1746e-21
2.17492e-21
2.17535e-21
2.17595e-21
2.17676e-21
2.17786e-21
2.17934e-21
2.18126e-21
2.18346e-21
2.18387e-21
9.19051e-21
9.19153e-21
9.18479e-21
9.17864e-21
9.17378e-21
9.1701e-21
9.16734e-21
9.16528e-21
9.16375e-21
9.16259e-21
9.16171e-21
9.16104e-21
9.16053e-21
9.16013e-21
9.15982e-21
9.15958e-21
9.1594e-21
9.15925e-21
9.15914e-21
9.15906e-21
9.15899e-21
9.15894e-21
9.1589e-21
9.15888e-21
9.15886e-21
9.15885e-21
9.15884e-21
9.15883e-21
9.15883e-21
9.15883e-21
9.15883e-21
9.15883e-21
9.15883e-21
9.15884e-21
9.15885e-21
9.15886e-21
9.15888e-21
9.1589e-21
9.15894e-21
9.15899e-21
9.15906e-21
9.15914e-21
9.15925e-21
9.1594e-21
9.15958e-21
9.15982e-21
9.16013e-21
9.16053e-21
9.16104e-21
9.16171e-21
9.16259e-21
9.16375e-21
9.16528e-21
9.16734e-21
9.1701e-21
9.17378e-21
9.17864e-21
9.18479e-21
9.19153e-21
9.19051e-21
3.91699e-20
3.91868e-20
3.91697e-20
3.91522e-20
3.91378e-20
3.91265e-20
3.91177e-20
3.91109e-20
3.91057e-20
3.91017e-20
3.90986e-20
3.90962e-20
3.90943e-20
3.90928e-20
3.90916e-20
3.90907e-20
3.909e-20
3.90894e-20
3.9089e-20
3.90887e-20
3.90884e-20
3.90882e-20
3.90881e-20
3.9088e-20
3.90879e-20
3.90879e-20
3.90878e-20
3.90878e-20
3.90878e-20
3.90878e-20
3.90878e-20
3.90878e-20
3.90878e-20
3.90878e-20
3.90879e-20
3.90879e-20
3.9088e-20
3.90881e-20
3.90882e-20
3.90884e-20
3.90887e-20
3.9089e-20
3.90894e-20
3.909e-20
3.90907e-20
3.90916e-20
3.90928e-20
3.90943e-20
3.90962e-20
3.90986e-20
3.91017e-20
3.91057e-20
3.91109e-20
3.91177e-20
3.91265e-20
3.91378e-20
3.91522e-20
3.91697e-20
3.91868e-20
3.91699e-20
1.71886e-19
1.72017e-19
1.71994e-19
1.71958e-19
1.71924e-19
1.71894e-19
1.71869e-19
1.71848e-19
1.71832e-19
1.71818e-19
1.71807e-19
1.71799e-19
1.71792e-19
1.71786e-19
1.71782e-19
1.71778e-19
1.71775e-19
1.71773e-19
1.71771e-19
1.7177e-19
1.71769e-19
1.71769e-19
1.71768e-19
1.71768e-19
1.71767e-19
1.71767e-19
1.71767e-19
1.71767e-19
1.71767e-19
1.71767e-19
1.71767e-19
1.71767e-19
1.71767e-19
1.71767e-19
1.71767e-19
1.71767e-19
1.71768e-19
1.71768e-19
1.71769e-19
1.71769e-19
1.7177e-19
1.71771e-19
1.71773e-19
1.71775e-19
1.71778e-19
1.71782e-19
1.71786e-19
1.71792e-19
1.71799e-19
1.71807e-19
1.71818e-19
1.71832e-19
1.71848e-19
1.71869e-19
1.71894e-19
1.71924e-19
1.71958e-19
1.71994e-19
1.72017e-19
1.71886e-19
7.7961e-19
7.80466e-19
7.8061e-19
7.80634e-19
7.80612e-19
7.8057e-19
7.80521e-19
7.8047e-19
7.80424e-19
7.80382e-19
7.80346e-19
7.80316e-19
7.8029e-19
7.8027e-19
7.80253e-19
7.80239e-19
7.80228e-19
7.8022e-19
7.80213e-19
7.80209e-19
7.80205e-19
7.80202e-19
7.802e-19
7.80199e-19
7.80198e-19
7.80197e-19
7.80197e-19
7.80197e-19
7.80197e-19
7.80197e-19
7.80197e-19
7.80197e-19
7.80197e-19
7.80197e-19
7.80197e-19
7.80198e-19
7.80199e-19
7.802e-19
7.80202e-19
7.80205e-19
7.80209e-19
7.80213e-19
7.8022e-19
7.80228e-19
7.80239e-19
7.80253e-19
7.8027e-19
7.8029e-19
7.80316e-19
7.80346e-19
7.80382e-19
7.80424e-19
7.8047e-19
7.80521e-19
7.8057e-19
7.80612e-19
7.80634e-19
7.8061e-19
7.80466e-19
7.7961e-19
3.657e-18
3.66226e-18
3.66412e-18
3.66513e-18
3.66568e-18
3.66593e-18
3.666e-18
3.66597e-18
3.66589e-18
3.66579e-18
3.66569e-18
3.66559e-18
3.6655e-18
3.66542e-18
3.66536e-18
3.66531e-18
3.66527e-18
3.66523e-18
3.66521e-18
3.66519e-18
3.66517e-18
3.66516e-18
3.66516e-18
3.66515e-18
3.66515e-18
3.66515e-18
3.66515e-18
3.66515e-18
3.66515e-18
3.66515e-18
3.66515e-18
3.66515e-18
3.66515e-18
3.66515e-18
3.66515e-18
3.66515e-18
3.66515e-18
3.66516e-18
3.66516e-18
3.66517e-18
3.66519e-18
3.66521e-18
3.66523e-18
3.66527e-18
3.66531e-18
3.66536e-18
3.66542e-18
3.6655e-18
3.66559e-18
3.66569e-18
3.66579e-18
3.66589e-18
3.66597e-18
3.666e-18
3.66593e-18
3.66568e-18
3.66513e-18
3.66412e-18
3.66226e-18
3.657e-18
1.77342e-17
1.77659e-17
1.77807e-17
1.77901e-17
1.77959e-17
1.77994e-17
1.78012e-17
1.78021e-17
1.78024e-17
1.78024e-17
1.78022e-17
1.78019e-17
1.78017e-17
1.78014e-17
1.78012e-17
1.7801e-17
1.78008e-17
1.78007e-17
1.78006e-17
1.78005e-17
1.78005e-17
1.78004e-17
1.78004e-17
1.78004e-17
1.78004e-17
1.78004e-17
1.78004e-17
1.78004e-17
1.78004e-17
1.78004e-17
1.78004e-17
1.78004e-17
1.78004e-17
1.78004e-17
1.78004e-17
1.78004e-17
1.78004e-17
1.78004e-17
1.78004e-17
1.78005e-17
1.78005e-17
1.78006e-17
1.78007e-17
1.78008e-17
1.7801e-17
1.78012e-17
1.78014e-17
1.78017e-17
1.78019e-17
1.78022e-17
1.78024e-17
1.78024e-17
1.78021e-17
1.78012e-17
1.77994e-17
1.77959e-17
1.77901e-17
1.77807e-17
1.77659e-17
1.77342e-17
8.88296e-17
8.90194e-17
8.91233e-17
8.91928e-17
8.92382e-17
8.92667e-17
8.92838e-17
8.92934e-17
8.92985e-17
8.93007e-17
8.93014e-17
8.93012e-17
8.93006e-17
8.92999e-17
8.92991e-17
8.92984e-17
8.92978e-17
8.92974e-17
8.9297e-17
8.92967e-17
8.92965e-17
8.92964e-17
8.92963e-17
8.92963e-17
8.92963e-17
8.92963e-17
8.92963e-17
8.92963e-17
8.92964e-17
8.92964e-17
8.92964e-17
8.92964e-17
8.92963e-17
8.92963e-17
8.92963e-17
8.92963e-17
8.92963e-17
8.92963e-17
8.92964e-17
8.92965e-17
8.92967e-17
8.9297e-17
8.92974e-17
8.92978e-17
8.92984e-17
8.92991e-17
8.92999e-17
8.93006e-17
8.93012e-17
8.93014e-17
8.93007e-17
8.92985e-17
8.92934e-17
8.92838e-17
8.92667e-17
8.92382e-17
8.91928e-17
8.91233e-17
8.90194e-17
8.88296e-17
4.58986e-16
4.60128e-16
4.60819e-16
4.61297e-16
4.61616e-16
4.61822e-16
4.61951e-16
4.62028e-16
4.62072e-16
4.62097e-16
4.62109e-16
4.62114e-16
4.62115e-16
4.62114e-16
4.62112e-16
4.6211e-16
4.62108e-16
4.62106e-16
4.62105e-16
4.62104e-16
4.62104e-16
4.62103e-16
4.62103e-16
4.62103e-16
4.62103e-16
4.62104e-16
4.62104e-16
4.62104e-16
4.62104e-16
4.62104e-16
4.62104e-16
4.62104e-16
4.62104e-16
4.62104e-16
4.62104e-16
4.62103e-16
4.62103e-16
4.62103e-16
4.62103e-16
4.62104e-16
4.62104e-16
4.62105e-16
4.62106e-16
4.62108e-16
4.6211e-16
4.62112e-16
4.62114e-16
4.62115e-16
4.62114e-16
4.62109e-16
4.62097e-16
4.62072e-16
4.62028e-16
4.61951e-16
4.61822e-16
4.61616e-16
4.61297e-16
4.60819e-16
4.60128e-16
4.58986e-16
2.44216e-15
2.4491e-15
2.4536e-15
2.45677e-15
2.45893e-15
2.46034e-15
2.46124e-15
2.4618e-15
2.46213e-15
2.46233e-15
2.46244e-15
2.46249e-15
2.46252e-15
2.46253e-15
2.46253e-15
2.46253e-15
2.46253e-15
2.46252e-15
2.46252e-15
2.46252e-15
2.46252e-15
2.46252e-15
2.46252e-15
2.46252e-15
2.46252e-15
2.46253e-15
2.46253e-15
2.46253e-15
2.46253e-15
2.46253e-15
2.46253e-15
2.46253e-15
2.46253e-15
2.46253e-15
2.46253e-15
2.46252e-15
2.46252e-15
2.46252e-15
2.46252e-15
2.46252e-15
2.46252e-15
2.46252e-15
2.46252e-15
2.46253e-15
2.46253e-15
2.46253e-15
2.46253e-15
2.46252e-15
2.46249e-15
2.46244e-15
2.46233e-15
2.46213e-15
2.4618e-15
2.46124e-15
2.46034e-15
2.45893e-15
2.45677e-15
2.4536e-15
2.4491e-15
2.44216e-15
1.33503e-14
1.33929e-14
1.3422e-14
1.34428e-14
1.3457e-14
1.34665e-14
1.34726e-14
1.34764e-14
1.34788e-14
1.34802e-14
1.34811e-14
1.34816e-14
1.34818e-14
1.3482e-14
1.3482e-14
1.34821e-14
1.34821e-14
1.34821e-14
1.34821e-14
1.34821e-14
1.34821e-14
1.34821e-14
1.34821e-14
1.34822e-14
1.34822e-14
1.34822e-14
1.34822e-14
1.34822e-14
1.34822e-14
1.34822e-14
1.34822e-14
1.34822e-14
1.34822e-14
1.34822e-14
1.34822e-14
1.34822e-14
1.34822e-14
1.34821e-14
1.34821e-14
1.34821e-14
1.34821e-14
1.34821e-14
1.34821e-14
1.34821e-14
1.34821e-14
1.3482e-14
1.3482e-14
1.34818e-14
1.34816e-14
1.34811e-14
1.34802e-14
1.34788e-14
1.34764e-14
1.34726e-14
1.34665e-14
1.3457e-14
1.34428e-14
1.3422e-14
1.33929e-14
1.33503e-14
7.47627e-14
7.50273e-14
7.52151e-14
7.53506e-14
7.54441e-14
7.55066e-14
7.55474e-14
7.55733e-14
7.55897e-14
7.55997e-14
7.56059e-14
7.56096e-14
7.56118e-14
7.56131e-14
7.56138e-14
7.56143e-14
7.56146e-14
7.56147e-14
7.56149e-14
7.5615e-14
7.56151e-14
7.56152e-14
7.56153e-14
7.56154e-14
7.56156e-14
7.56157e-14
7.56157e-14
7.56158e-14
7.56158e-14
7.56159e-14
7.56159e-14
7.56158e-14
7.56158e-14
7.56157e-14
7.56157e-14
7.56156e-14
7.56154e-14
7.56153e-14
7.56152e-14
7.56151e-14
7.5615e-14
7.56149e-14
7.56147e-14
7.56146e-14
7.56143e-14
7.56138e-14
7.56131e-14
7.56118e-14
7.56096e-14
7.56059e-14
7.55997e-14
7.55897e-14
7.55733e-14
7.55474e-14
7.55066e-14
7.54441e-14
7.53506e-14
7.52151e-14
7.50273e-14
7.47627e-14
4.27358e-13
4.29016e-13
4.30228e-13
4.3111e-13
4.31722e-13
4.32133e-13
4.32402e-13
4.32576e-13
4.32686e-13
4.32755e-13
4.32798e-13
4.32825e-13
4.32841e-13
4.32851e-13
4.32857e-13
4.32861e-13
4.32864e-13
4.32866e-13
4.32867e-13
4.32868e-13
4.32869e-13
4.3287e-13
4.32871e-13
4.32872e-13
4.32873e-13
4.32874e-13
4.32874e-13
4.32875e-13
4.32875e-13
4.32875e-13
4.32875e-13
4.32875e-13
4.32875e-13
4.32874e-13
4.32874e-13
4.32873e-13
4.32872e-13
4.32871e-13
4.3287e-13
4.32869e-13
4.32868e-13
4.32867e-13
4.32866e-13
4.32864e-13
4.32861e-13
4.32857e-13
4.32851e-13
4.32841e-13
4.32825e-13
4.32798e-13
4.32755e-13
4.32686e-13
4.32576e-13
4.32402e-13
4.32133e-13
4.31722e-13
4.3111e-13
4.30228e-13
4.29016e-13
4.27358e-13
2.48253e-12
2.49298e-12
2.50081e-12
2.50653e-12
2.51051e-12
2.5132e-12
2.51498e-12
2.51612e-12
2.51686e-12
2.51733e-12
2.51762e-12
2.51781e-12
2.51792e-12
2.518e-12
2.51804e-12
2.51808e-12
2.5181e-12
2.51811e-12
2.51812e-12
2.51813e-12
2.51814e-12
2.51815e-12
2.51816e-12
2.51816e-12
2.51817e-12
2.51817e-12
2.51818e-12
2.51818e-12
2.51818e-12
2.51818e-12
2.51818e-12
2.51818e-12
2.51818e-12
2.51818e-12
2.51817e-12
2.51817e-12
2.51816e-12
2.51816e-12
2.51815e-12
2.51814e-12
2.51813e-12
2.51812e-12
2.51811e-12
2.5181e-12
2.51808e-12
2.51804e-12
2.518e-12
2.51792e-12
2.51781e-12
2.51762e-12
2.51733e-12
2.51686e-12
2.51612e-12
2.51498e-12
2.5132e-12
2.51051e-12
2.50653e-12
2.50081e-12
2.49298e-12
2.48253e-12
1.45778e-11
1.46437e-11
1.46941e-11
1.4731e-11
1.47568e-11
1.47743e-11
1.47859e-11
1.47934e-11
1.47983e-11
1.48014e-11
1.48033e-11
1.48046e-11
1.48054e-11
1.48059e-11
1.48063e-11
1.48065e-11
1.48067e-11
1.48068e-11
1.48069e-11
1.4807e-11
1.4807e-11
1.48071e-11
1.48071e-11
1.48072e-11
1.48072e-11
1.48072e-11
1.48073e-11
1.48073e-11
1.48073e-11
1.48073e-11
1.48073e-11
1.48073e-11
1.48073e-11
1.48073e-11
1.48072e-11
1.48072e-11
1.48072e-11
1.48071e-11
1.48071e-11
1.4807e-11
1.4807e-11
1.48069e-11
1.48068e-11
1.48067e-11
1.48065e-11
1.48063e-11
1.48059e-11
1.48054e-11
1.48046e-11
1.48033e-11
1.48014e-11
1.47983e-11
1.47934e-11
1.47859e-11
1.47743e-11
1.47568e-11
1.4731e-11
1.46941e-11
1.46437e-11
1.45778e-11
8.59923e-11
8.64062e-11
8.67272e-11
8.69636e-11
8.71292e-11
8.72416e-11
8.73161e-11
8.73649e-11
8.73965e-11
8.74168e-11
8.74299e-11
8.74383e-11
8.74438e-11
8.74473e-11
8.74497e-11
8.74514e-11
8.74525e-11
8.74534e-11
8.7454e-11
8.74545e-11
8.7455e-11
8.74553e-11
8.74557e-11
8.7456e-11
8.74562e-11
8.74564e-11
8.74566e-11
8.74567e-11
8.74568e-11
8.74568e-11
8.74568e-11
8.74568e-11
8.74567e-11
8.74566e-11
8.74564e-11
8.74562e-11
8.7456e-11
8.74557e-11
8.74553e-11
8.7455e-11
8.74545e-11
8.7454e-11
8.74534e-11
8.74525e-11
8.74514e-11
8.74497e-11
8.74473e-11
8.74438e-11
8.74383e-11
8.74299e-11
8.74168e-11
8.73965e-11
8.73649e-11
8.73161e-11
8.72416e-11
8.71292e-11
8.69636e-11
8.67272e-11
8.64062e-11
8.59923e-11
5.05847e-10
5.08416e-10
5.10433e-10
5.11922e-10
5.12966e-10
5.13677e-10
5.1415e-10
5.1446e-10
5.14661e-10
5.14792e-10
5.14876e-10
5.14931e-10
5.14967e-10
5.1499e-10
5.15006e-10
5.15017e-10
5.15025e-10
5.15031e-10
5.15036e-10
5.15039e-10
5.15042e-10
5.15045e-10
5.15047e-10
5.15049e-10
5.1505e-10
5.15052e-10
5.15053e-10
5.15054e-10
5.15054e-10
5.15054e-10
5.15054e-10
5.15054e-10
5.15054e-10
5.15053e-10
5.15052e-10
5.1505e-10
5.15049e-10
5.15047e-10
5.15045e-10
5.15042e-10
5.15039e-10
5.15036e-10
5.15031e-10
5.15025e-10
5.15017e-10
5.15006e-10
5.1499e-10
5.14967e-10
5.14931e-10
5.14876e-10
5.14792e-10
5.14661e-10
5.1446e-10
5.1415e-10
5.13677e-10
5.12966e-10
5.11922e-10
5.10433e-10
5.08416e-10
5.05847e-10
2.94255e-09
2.95818e-09
2.97056e-09
2.97972e-09
2.98615e-09
2.99054e-09
2.99346e-09
2.99538e-09
2.99664e-09
2.99745e-09
2.99798e-09
2.99833e-09
2.99855e-09
2.99871e-09
2.99881e-09
2.99888e-09
2.99893e-09
2.99897e-09
2.999e-09
2.99902e-09
2.99904e-09
2.99906e-09
2.99907e-09
2.99909e-09
2.9991e-09
2.9991e-09
2.99911e-09
2.99912e-09
2.99912e-09
2.99912e-09
2.99912e-09
2.99912e-09
2.99912e-09
2.99911e-09
2.9991e-09
2.9991e-09
2.99909e-09
2.99907e-09
2.99906e-09
2.99904e-09
2.99902e-09
2.999e-09
2.99897e-09
2.99893e-09
2.99888e-09
2.99881e-09
2.99871e-09
2.99855e-09
2.99833e-09
2.99798e-09
2.99745e-09
2.99664e-09
2.99538e-09
2.99346e-09
2.99054e-09
2.98615e-09
2.97972e-09
2.97056e-09
2.95818e-09
2.94255e-09
1.67666e-08
1.68589e-08
1.69325e-08
1.6987e-08
1.70254e-08
1.70515e-08
1.7069e-08
1.70805e-08
1.7088e-08
1.70929e-08
1.70961e-08
1.70982e-08
1.70996e-08
1.71006e-08
1.71012e-08
1.71017e-08
1.7102e-08
1.71022e-08
1.71024e-08
1.71026e-08
1.71027e-08
1.71028e-08
1.71029e-08
1.71029e-08
1.7103e-08
1.7103e-08
1.71031e-08
1.71031e-08
1.71031e-08
1.71031e-08
1.71031e-08
1.71031e-08
1.71031e-08
1.71031e-08
1.7103e-08
1.7103e-08
1.71029e-08
1.71029e-08
1.71028e-08
1.71027e-08
1.71026e-08
1.71024e-08
1.71022e-08
1.7102e-08
1.71017e-08
1.71012e-08
1.71006e-08
1.70996e-08
1.70982e-08
1.70961e-08
1.70929e-08
1.7088e-08
1.70805e-08
1.7069e-08
1.70515e-08
1.70254e-08
1.6987e-08
1.69325e-08
1.68589e-08
1.67666e-08
9.25932e-08
9.31162e-08
9.35354e-08
9.3846e-08
9.40647e-08
9.4214e-08
9.43139e-08
9.43798e-08
9.44231e-08
9.44513e-08
9.44698e-08
9.4482e-08
9.44902e-08
9.44956e-08
9.44994e-08
9.45021e-08
9.4504e-08
9.45054e-08
9.45065e-08
9.45074e-08
9.45081e-08
9.45087e-08
9.45092e-08
9.45096e-08
9.451e-08
9.45103e-08
9.45105e-08
9.45107e-08
9.45108e-08
9.45109e-08
9.45109e-08
9.45108e-08
9.45107e-08
9.45105e-08
9.45103e-08
9.451e-08
9.45096e-08
9.45092e-08
9.45087e-08
9.45081e-08
9.45074e-08
9.45065e-08
9.45054e-08
9.4504e-08
9.45021e-08
9.44994e-08
9.44956e-08
9.44902e-08
9.4482e-08
9.44698e-08
9.44513e-08
9.44231e-08
9.43798e-08
9.43139e-08
9.4214e-08
9.40647e-08
9.3846e-08
9.35354e-08
9.31162e-08
9.25932e-08
4.89842e-07
4.92653e-07
4.94911e-07
4.96585e-07
4.97765e-07
4.98571e-07
4.99111e-07
4.99468e-07
4.99702e-07
4.99856e-07
4.99957e-07
5.00023e-07
5.00068e-07
5.00098e-07
5.00119e-07
5.00134e-07
5.00145e-07
5.00153e-07
5.00159e-07
5.00164e-07
5.00168e-07
5.00171e-07
5.00174e-07
5.00176e-07
5.00178e-07
5.0018e-07
5.00181e-07
5.00182e-07
5.00182e-07
5.00183e-07
5.00183e-07
5.00182e-07
5.00182e-07
5.00181e-07
5.0018e-07
5.00178e-07
5.00176e-07
5.00174e-07
5.00171e-07
5.00168e-07
5.00164e-07
5.00159e-07
5.00153e-07
5.00145e-07
5.00134e-07
5.00119e-07
5.00098e-07
5.00068e-07
5.00023e-07
4.99957e-07
4.99856e-07
4.99702e-07
4.99468e-07
4.99111e-07
4.98571e-07
4.97765e-07
4.96585e-07
4.94911e-07
4.92653e-07
4.89842e-07
2.45107e-06
2.4652e-06
2.47656e-06
2.48498e-06
2.49092e-06
2.49498e-06
2.4977e-06
2.4995e-06
2.50069e-06
2.50147e-06
2.50198e-06
2.50232e-06
2.50255e-06
2.5027e-06
2.50281e-06
2.50288e-06
2.50294e-06
2.50298e-06
2.50301e-06
2.50304e-06
2.50306e-06
2.50308e-06
2.50309e-06
2.5031e-06
2.50311e-06
2.50312e-06
2.50313e-06
2.50313e-06
2.50313e-06
2.50314e-06
2.50314e-06
2.50313e-06
2.50313e-06
2.50313e-06
2.50312e-06
2.50311e-06
2.5031e-06
2.50309e-06
2.50308e-06
2.50306e-06
2.50304e-06
2.50301e-06
2.50298e-06
2.50294e-06
2.50288e-06
2.50281e-06
2.5027e-06
2.50255e-06
2.50232e-06
2.50198e-06
2.50147e-06
2.50069e-06
2.4995e-06
2.4977e-06
2.49498e-06
2.49092e-06
2.48498e-06
2.47656e-06
2.4652e-06
2.45107e-06
1.14424e-05
1.15078e-05
1.15604e-05
1.15993e-05
1.16268e-05
1.16456e-05
1.16582e-05
1.16666e-05
1.16721e-05
1.16757e-05
1.16781e-05
1.16797e-05
1.16807e-05
1.16815e-05
1.1682e-05
1.16823e-05
1.16826e-05
1.16828e-05
1.16829e-05
1.16831e-05
1.16832e-05
1.16832e-05
1.16833e-05
1.16834e-05
1.16834e-05
1.16834e-05
1.16835e-05
1.16835e-05
1.16835e-05
1.16835e-05
1.16835e-05
1.16835e-05
1.16835e-05
1.16835e-05
1.16834e-05
1.16834e-05
1.16834e-05
1.16833e-05
1.16832e-05
1.16832e-05
1.16831e-05
1.16829e-05
1.16828e-05
1.16826e-05
1.16823e-05
1.1682e-05
1.16815e-05
1.16807e-05
1.16797e-05
1.16781e-05
1.16757e-05
1.16721e-05
1.16666e-05
1.16582e-05
1.16456e-05
1.16268e-05
1.15993e-05
1.15604e-05
1.15078e-05
1.14424e-05
4.91047e-05
4.93792e-05
4.95994e-05
4.97623e-05
4.98772e-05
4.99558e-05
5.00086e-05
5.00437e-05
5.00668e-05
5.0082e-05
5.00921e-05
5.00988e-05
5.01034e-05
5.01064e-05
5.01086e-05
5.01101e-05
5.01113e-05
5.01121e-05
5.01128e-05
5.01133e-05
5.01137e-05
5.0114e-05
5.01143e-05
5.01145e-05
5.01147e-05
5.01149e-05
5.0115e-05
5.01151e-05
5.01152e-05
5.01152e-05
5.01152e-05
5.01152e-05
5.01151e-05
5.0115e-05
5.01149e-05
5.01147e-05
5.01145e-05
5.01143e-05
5.0114e-05
5.01137e-05
5.01133e-05
5.01128e-05
5.01121e-05
5.01113e-05
5.01101e-05
5.01086e-05
5.01064e-05
5.01034e-05
5.00988e-05
5.00921e-05
5.0082e-05
5.00668e-05
5.00437e-05
5.00086e-05
4.99558e-05
4.98772e-05
4.97623e-05
4.95994e-05
4.93792e-05
4.91047e-05
0.000190676
0.0001917
0.000192519
0.000193124
0.00019355
0.000193842
0.000194039
0.000194169
0.000194255
0.000194312
0.00019435
0.000194375
0.000194392
0.000194404
0.000194412
0.000194418
0.000194422
0.000194425
0.000194427
0.000194429
0.000194431
0.000194432
0.000194433
0.000194434
0.000194435
0.000194435
0.000194436
0.000194436
0.000194437
0.000194437
0.000194437
0.000194437
0.000194436
0.000194436
0.000194435
0.000194435
0.000194434
0.000194433
0.000194432
0.000194431
0.000194429
0.000194427
0.000194425
0.000194422
0.000194418
0.000194412
0.000194404
0.000194392
0.000194375
0.00019435
0.000194312
0.000194255
0.000194169
0.000194039
0.000193842
0.00019355
0.000193124
0.000192519
0.0001917
0.000190676
0.000658762
0.00066209
0.000664739
0.000666693
0.000668071
0.000669015
0.00066965
0.000670072
0.000670351
0.000670536
0.000670658
0.00067074
0.000670795
0.000670833
0.00067086
0.000670879
0.000670893
0.000670903
0.000670911
0.000670918
0.000670923
0.000670927
0.000670931
0.000670933
0.000670936
0.000670938
0.000670939
0.00067094
0.000670941
0.000670942
0.000670942
0.000670941
0.00067094
0.000670939
0.000670938
0.000670936
0.000670933
0.000670931
0.000670927
0.000670923
0.000670918
0.000670911
0.000670903
0.000670893
0.000670879
0.00067086
0.000670833
0.000670795
0.00067074
0.000670658
0.000670536
0.000670351
0.000670072
0.00066965
0.000669015
0.000668071
0.000666693
0.000664739
0.00066209
0.000658762
0.00199066
0.00199987
0.00200717
0.00201254
0.00201633
0.00201892
0.00202067
0.00202183
0.0020226
0.00202311
0.00202345
0.00202368
0.00202383
0.00202394
0.00202401
0.00202406
0.0020241
0.00202413
0.00202415
0.00202417
0.00202419
0.0020242
0.00202421
0.00202421
0.00202422
0.00202423
0.00202423
0.00202423
0.00202424
0.00202424
0.00202424
0.00202424
0.00202423
0.00202423
0.00202423
0.00202422
0.00202421
0.00202421
0.0020242
0.00202419
0.00202417
0.00202415
0.00202413
0.0020241
0.00202406
0.00202401
0.00202394
0.00202383
0.00202368
0.00202345
0.00202311
0.0020226
0.00202183
0.00202067
0.00201892
0.00201633
0.00201254
0.00200717
0.00199987
0.00199066
0.00518153
0.00520286
0.00521962
0.00523195
0.00524063
0.00524658
0.00525058
0.00525325
0.00525502
0.0052562
0.00525698
0.0052575
0.00525786
0.0052581
0.00525827
0.0052584
0.00525849
0.00525856
0.00525861
0.00525865
0.00525868
0.00525871
0.00525873
0.00525875
0.00525876
0.00525878
0.00525879
0.00525879
0.0052588
0.0052588
0.0052588
0.0052588
0.00525879
0.00525879
0.00525878
0.00525876
0.00525875
0.00525873
0.00525871
0.00525868
0.00525865
0.00525861
0.00525856
0.00525849
0.0052584
0.00525827
0.0052581
0.00525786
0.0052575
0.00525698
0.0052562
0.00525502
0.00525325
0.00525058
0.00524658
0.00524063
0.00523195
0.00521962
0.00520286
0.00518153
0.0115085
0.0115492
0.011581
0.0116043
0.0116207
0.011632
0.0116396
0.0116446
0.011648
0.0116502
0.0116517
0.0116527
0.0116534
0.0116538
0.0116542
0.0116544
0.0116546
0.0116547
0.0116548
0.0116549
0.0116549
0.011655
0.011655
0.0116551
0.0116551
0.0116551
0.0116551
0.0116552
0.0116552
0.0116552
0.0116552
0.0116552
0.0116552
0.0116551
0.0116551
0.0116551
0.0116551
0.011655
0.011655
0.0116549
0.0116549
0.0116548
0.0116547
0.0116546
0.0116544
0.0116542
0.0116538
0.0116534
0.0116527
0.0116517
0.0116502
0.011648
0.0116446
0.0116396
0.011632
0.0116207
0.0116043
0.011581
0.0115492
0.0115085
0.0218407
0.0219053
0.0219553
0.0219919
0.0220176
0.0220353
0.0220472
0.0220552
0.0220604
0.022064
0.0220663
0.0220679
0.022069
0.0220697
0.0220702
0.0220706
0.0220709
0.0220711
0.0220713
0.0220714
0.0220715
0.0220716
0.0220716
0.0220717
0.0220717
0.0220718
0.0220718
0.0220718
0.0220718
0.0220719
0.0220719
0.0220718
0.0220718
0.0220718
0.0220718
0.0220717
0.0220717
0.0220716
0.0220716
0.0220715
0.0220714
0.0220713
0.0220711
0.0220709
0.0220706
0.0220702
0.0220697
0.022069
0.0220679
0.0220663
0.022064
0.0220604
0.0220552
0.0220472
0.0220353
0.0220176
0.0219919
0.0219553
0.0219053
0.0218407
0.0359411
0.0360287
0.0360958
0.0361448
0.0361793
0.0362029
0.0362189
0.0362296
0.0362368
0.0362415
0.0362447
0.0362468
0.0362483
0.0362493
0.03625
0.0362505
0.0362509
0.0362512
0.0362514
0.0362516
0.0362517
0.0362518
0.0362519
0.036252
0.036252
0.0362521
0.0362521
0.0362522
0.0362522
0.0362522
0.0362522
0.0362522
0.0362522
0.0362521
0.0362521
0.036252
0.036252
0.0362519
0.0362518
0.0362517
0.0362516
0.0362514
0.0362512
0.0362509
0.0362505
0.03625
0.0362493
0.0362483
0.0362468
0.0362447
0.0362415
0.0362368
0.0362296
0.0362189
0.0362029
0.0361793
0.0361448
0.0360958
0.0360287
0.0359411
0.0526002
0.0527062
0.0527865
0.0528451
0.0528864
0.0529147
0.0529339
0.0529468
0.0529553
0.0529611
0.0529649
0.0529675
0.0529693
0.0529705
0.0529714
0.052972
0.0529725
0.0529728
0.0529731
0.0529733
0.0529735
0.0529736
0.0529737
0.0529738
0.0529739
0.0529739
0.052974
0.052974
0.052974
0.052974
0.052974
0.052974
0.052974
0.052974
0.0529739
0.0529739
0.0529738
0.0529737
0.0529736
0.0529735
0.0529733
0.0529731
0.0529728
0.0529725
0.052972
0.0529714
0.0529705
0.0529693
0.0529675
0.0529649
0.0529611
0.0529553
0.0529468
0.0529339
0.0529147
0.0528864
0.0528451
0.0527865
0.0527062
0.0526002
0.0704744
0.0705943
0.0706844
0.07075
0.0707962
0.070828
0.0708496
0.070864
0.0708737
0.0708802
0.0708845
0.0708875
0.0708895
0.0708909
0.0708919
0.0708926
0.0708932
0.0708936
0.0708939
0.0708941
0.0708943
0.0708945
0.0708946
0.0708947
0.0708948
0.0708948
0.0708949
0.0708949
0.0708949
0.0708949
0.0708949
0.0708949
0.0708949
0.0708949
0.0708948
0.0708948
0.0708947
0.0708946
0.0708945
0.0708943
0.0708941
0.0708939
0.0708936
0.0708932
0.0708926
0.0708919
0.0708909
0.0708895
0.0708875
0.0708845
0.0708802
0.0708737
0.070864
0.0708496
0.070828
0.0707962
0.07075
0.0706844
0.0705943
0.0704744
0.0887058
0.088837
0.088935
0.0890062
0.0890564
0.089091
0.0891146
0.0891304
0.089141
0.0891481
0.0891529
0.0891562
0.0891584
0.08916
0.0891611
0.0891619
0.0891625
0.0891629
0.0891633
0.0891635
0.0891637
0.0891639
0.089164
0.0891641
0.0891642
0.0891643
0.0891644
0.0891644
0.0891644
0.0891644
0.0891644
0.0891644
0.0891644
0.0891644
0.0891643
0.0891642
0.0891641
0.089164
0.0891639
0.0891637
0.0891635
0.0891633
0.0891629
0.0891625
0.0891619
0.0891611
0.08916
0.0891584
0.0891562
0.0891529
0.0891481
0.089141
0.0891304
0.0891146
0.089091
0.0890564
0.0890062
0.088935
0.088837
0.0887058
0.106953
0.107095
0.1072
0.107276
0.10733
0.107367
0.107393
0.10741
0.107421
0.107429
0.107434
0.107438
0.10744
0.107442
0.107443
0.107444
0.107445
0.107445
0.107446
0.107446
0.107446
0.107446
0.107447
0.107447
0.107447
0.107447
0.107447
0.107447
0.107447
0.107447
0.107447
0.107447
0.107447
0.107447
0.107447
0.107447
0.107447
0.107447
0.107446
0.107446
0.107446
0.107446
0.107445
0.107445
0.107444
0.107443
0.107442
0.10744
0.107438
0.107434
0.107429
0.107421
0.10741
0.107393
0.107367
0.10733
0.107276
0.1072
0.107095
0.106953
0.125153
0.125305
0.125417
0.125499
0.125557
0.125597
0.125624
0.125642
0.125655
0.125663
0.125669
0.125673
0.125675
0.125677
0.125679
0.12568
0.12568
0.125681
0.125681
0.125682
0.125682
0.125682
0.125682
0.125682
0.125682
0.125683
0.125683
0.125683
0.125683
0.125683
0.125683
0.125683
0.125683
0.125683
0.125683
0.125682
0.125682
0.125682
0.125682
0.125682
0.125682
0.125681
0.125681
0.12568
0.12568
0.125679
0.125677
0.125675
0.125673
0.125669
0.125663
0.125655
0.125642
0.125624
0.125597
0.125557
0.125499
0.125417
0.125305
0.125153
0.143329
0.143491
0.14361
0.143697
0.143759
0.143802
0.143831
0.143851
0.143864
0.143873
0.14388
0.143884
0.143887
0.143889
0.14389
0.143891
0.143892
0.143893
0.143893
0.143893
0.143894
0.143894
0.143894
0.143894
0.143894
0.143894
0.143894
0.143895
0.143895
0.143895
0.143895
0.143895
0.143895
0.143894
0.143894
0.143894
0.143894
0.143894
0.143894
0.143894
0.143893
0.143893
0.143893
0.143892
0.143891
0.14389
0.143889
0.143887
0.143884
0.14388
0.143873
0.143864
0.143851
0.143831
0.143802
0.143759
0.143697
0.14361
0.143491
0.143329
0.161507
0.161678
0.161805
0.161897
0.161963
0.162008
0.16204
0.162061
0.162075
0.162085
0.162092
0.162097
0.1621
0.162102
0.162104
0.162105
0.162106
0.162106
0.162107
0.162107
0.162107
0.162108
0.162108
0.162108
0.162108
0.162108
0.162108
0.162108
0.162108
0.162108
0.162108
0.162108
0.162108
0.162108
0.162108
0.162108
0.162108
0.162108
0.162108
0.162107
0.162107
0.162107
0.162106
0.162106
0.162105
0.162104
0.162102
0.1621
0.162097
0.162092
0.162085
0.162075
0.162061
0.16204
0.162008
0.161963
0.161897
0.161805
0.161678
0.161507
0.179696
0.179877
0.180011
0.180108
0.180178
0.180226
0.18026
0.180283
0.180298
0.180309
0.180316
0.180321
0.180324
0.180327
0.180329
0.18033
0.180331
0.180331
0.180332
0.180332
0.180333
0.180333
0.180333
0.180333
0.180333
0.180333
0.180334
0.180334
0.180334
0.180334
0.180334
0.180334
0.180334
0.180334
0.180333
0.180333
0.180333
0.180333
0.180333
0.180333
0.180332
0.180332
0.180331
0.180331
0.18033
0.180329
0.180327
0.180324
0.180321
0.180316
0.180309
0.180298
0.180283
0.18026
0.180226
0.180178
0.180108
0.180011
0.179877
0.179696
0.197894
0.198084
0.198225
0.198328
0.198402
0.198453
0.198489
0.198513
0.19853
0.198541
0.198549
0.198555
0.198558
0.198561
0.198563
0.198564
0.198565
0.198566
0.198566
0.198567
0.198567
0.198568
0.198568
0.198568
0.198568
0.198568
0.198568
0.198568
0.198568
0.198568
0.198568
0.198568
0.198568
0.198568
0.198568
0.198568
0.198568
0.198568
0.198568
0.198567
0.198567
0.198566
0.198566
0.198565
0.198564
0.198563
0.198561
0.198558
0.198555
0.198549
0.198541
0.19853
0.198513
0.198489
0.198453
0.198402
0.198328
0.198225
0.198084
0.197894
0.216093
0.216292
0.21644
0.216548
0.216625
0.21668
0.216718
0.216744
0.216762
0.216774
0.216782
0.216788
0.216792
0.216795
0.216797
0.216798
0.216799
0.2168
0.216801
0.216801
0.216802
0.216802
0.216802
0.216802
0.216802
0.216803
0.216803
0.216803
0.216803
0.216803
0.216803
0.216803
0.216803
0.216803
0.216803
0.216802
0.216802
0.216802
0.216802
0.216802
0.216801
0.216801
0.2168
0.216799
0.216798
0.216797
0.216795
0.216792
0.216788
0.216782
0.216774
0.216762
0.216744
0.216718
0.21668
0.216625
0.216548
0.21644
0.216292
0.216093
0.234279
0.234486
0.23464
0.234754
0.234835
0.234893
0.234933
0.234961
0.23498
0.234993
0.235002
0.235008
0.235012
0.235015
0.235018
0.235019
0.23502
0.235021
0.235022
0.235022
0.235023
0.235023
0.235023
0.235023
0.235024
0.235024
0.235024
0.235024
0.235024
0.235024
0.235024
0.235024
0.235024
0.235024
0.235024
0.235024
0.235023
0.235023
0.235023
0.235023
0.235022
0.235022
0.235021
0.23502
0.235019
0.235018
0.235015
0.235012
0.235008
0.235002
0.234993
0.23498
0.234961
0.234933
0.234893
0.234835
0.234754
0.23464
0.234486
0.234279
0.252437
0.252652
0.252813
0.252932
0.253017
0.253078
0.25312
0.253149
0.25317
0.253183
0.253193
0.2532
0.253204
0.253208
0.25321
0.253212
0.253213
0.253214
0.253215
0.253215
0.253216
0.253216
0.253216
0.253217
0.253217
0.253217
0.253217
0.253217
0.253217
0.253217
0.253217
0.253217
0.253217
0.253217
0.253217
0.253217
0.253217
0.253216
0.253216
0.253216
0.253215
0.253215
0.253214
0.253213
0.253212
0.25321
0.253208
0.253204
0.2532
0.253193
0.253183
0.25317
0.253149
0.25312
0.253078
0.253017
0.252932
0.252813
0.252652
0.252437
0.270552
0.270774
0.270942
0.271066
0.271155
0.271219
0.271263
0.271294
0.271316
0.271331
0.271341
0.271348
0.271353
0.271357
0.271359
0.271361
0.271363
0.271364
0.271364
0.271365
0.271365
0.271366
0.271366
0.271366
0.271366