/*--------------------------------*- C++ -*----------------------------------*\
| =========                 |                                                 |
| \\      /  F ield         | foam-extend: Open Source CFD                    |
|  \\    /   O peration     | Version:     4.0                                |
|   \\  /    A nd           | Web:         http://www.foam-extend.org         |
|    \\/     M anipulation  |                                                 |
\*---------------------------------------------------------------------------*/
FoamFile
{
    version     2.0;
    format      ascii;
    class       volScalarField;
    location    "1410";
    object      cMinus;
}
// * * * * * * * * * * * * * * * * * * * * * * * * * * * * * * * * * * * * * //

dimensions      [0 0 0 0 0 0 0];

internalField   nonuniform List<scalar> 
6960
(
9.74985e-24
9.75132e-24
9.75221e-24
9.75259e-24
9.75284e-24
9.75305e-24
9.75325e-24
9.75345e-24
9.75366e-24
9.75388e-24
9.75409e-24
9.75431e-24
9.75452e-24
9.75473e-24
9.75493e-24
9.75513e-24
9.75531e-24
9.75549e-24
9.75565e-24
9.75581e-24
9.75594e-24
9.75607e-24
9.75619e-24
9.75629e-24
9.75637e-24
9.75644e-24
9.7565e-24
9.75654e-24
9.75657e-24
9.75659e-24
9.75659e-24
9.75657e-24
9.75654e-24
9.7565e-24
9.75644e-24
9.75637e-24
9.75629e-24
9.75619e-24
9.75607e-24
9.75594e-24
9.75581e-24
9.75565e-24
9.75549e-24
9.75531e-24
9.75513e-24
9.75493e-24
9.75473e-24
9.75452e-24
9.75431e-24
9.75409e-24
9.75388e-24
9.75366e-24
9.75345e-24
9.75325e-24
9.75305e-24
9.75284e-24
9.75259e-24
9.75221e-24
9.75132e-24
9.74985e-24
2.7399e-23
2.74059e-23
2.74089e-23
2.74105e-23
2.74117e-23
2.74128e-23
2.74138e-23
2.74149e-23
2.74159e-23
2.7417e-23
2.7418e-23
2.74191e-23
2.74201e-23
2.7421e-23
2.7422e-23
2.74228e-23
2.74237e-23
2.74244e-23
2.74252e-23
2.74258e-23
2.74264e-23
2.7427e-23
2.74275e-23
2.74279e-23
2.74283e-23
2.74286e-23
2.74288e-23
2.7429e-23
2.74291e-23
2.74292e-23
2.74292e-23
2.74291e-23
2.7429e-23
2.74288e-23
2.74286e-23
2.74283e-23
2.74279e-23
2.74275e-23
2.7427e-23
2.74264e-23
2.74258e-23
2.74252e-23
2.74244e-23
2.74237e-23
2.74228e-23
2.7422e-23
2.7421e-23
2.74201e-23
2.74191e-23
2.7418e-23
2.7417e-23
2.74159e-23
2.74149e-23
2.74138e-23
2.74128e-23
2.74117e-23
2.74105e-23
2.74089e-23
2.74059e-23
2.7399e-23
6.7335e-23
6.7353e-23
6.73621e-23
6.73679e-23
6.73727e-23
6.73771e-23
6.73814e-23
6.73855e-23
6.73896e-23
6.73935e-23
6.73973e-23
6.7401e-23
6.74045e-23
6.74078e-23
6.7411e-23
6.74139e-23
6.74167e-23
6.74193e-23
6.74216e-23
6.74238e-23
6.74258e-23
6.74275e-23
6.74291e-23
6.74304e-23
6.74316e-23
6.74326e-23
6.74333e-23
6.74339e-23
6.74343e-23
6.74345e-23
6.74345e-23
6.74343e-23
6.74339e-23
6.74333e-23
6.74326e-23
6.74316e-23
6.74304e-23
6.74291e-23
6.74275e-23
6.74258e-23
6.74238e-23
6.74216e-23
6.74193e-23
6.74167e-23
6.74139e-23
6.7411e-23
6.74078e-23
6.74045e-23
6.7401e-23
6.73973e-23
6.73935e-23
6.73896e-23
6.73855e-23
6.73814e-23
6.73771e-23
6.73727e-23
6.73679e-23
6.73621e-23
6.7353e-23
6.7335e-23
1.58468e-22
1.58511e-22
1.58537e-22
1.58556e-22
1.58572e-22
1.58588e-22
1.58602e-22
1.58616e-22
1.5863e-22
1.58643e-22
1.58655e-22
1.58667e-22
1.58678e-22
1.58688e-22
1.58698e-22
1.58707e-22
1.58716e-22
1.58723e-22
1.58731e-22
1.58737e-22
1.58743e-22
1.58748e-22
1.58753e-22
1.58757e-22
1.5876e-22
1.58763e-22
1.58765e-22
1.58767e-22
1.58768e-22
1.58769e-22
1.58769e-22
1.58768e-22
1.58767e-22
1.58765e-22
1.58763e-22
1.5876e-22
1.58757e-22
1.58753e-22
1.58748e-22
1.58743e-22
1.58737e-22
1.58731e-22
1.58723e-22
1.58716e-22
1.58707e-22
1.58698e-22
1.58688e-22
1.58678e-22
1.58667e-22
1.58655e-22
1.58643e-22
1.5863e-22
1.58616e-22
1.58602e-22
1.58588e-22
1.58572e-22
1.58556e-22
1.58537e-22
1.58511e-22
1.58468e-22
3.70257e-22
3.70361e-22
3.70434e-22
3.70491e-22
3.70543e-22
3.70591e-22
3.70637e-22
3.7068e-22
3.70722e-22
3.70762e-22
3.70799e-22
3.70835e-22
3.70868e-22
3.70899e-22
3.70928e-22
3.70955e-22
3.7098e-22
3.71002e-22
3.71023e-22
3.71042e-22
3.71059e-22
3.71073e-22
3.71087e-22
3.71098e-22
3.71108e-22
3.71116e-22
3.71122e-22
3.71127e-22
3.7113e-22
3.71132e-22
3.71132e-22
3.7113e-22
3.71127e-22
3.71122e-22
3.71116e-22
3.71108e-22
3.71098e-22
3.71087e-22
3.71073e-22
3.71059e-22
3.71042e-22
3.71023e-22
3.71002e-22
3.7098e-22
3.70955e-22
3.70928e-22
3.70899e-22
3.70868e-22
3.70835e-22
3.70799e-22
3.70762e-22
3.70722e-22
3.7068e-22
3.70637e-22
3.70591e-22
3.70543e-22
3.70491e-22
3.70434e-22
3.70361e-22
3.70257e-22
8.72633e-22
8.72884e-22
8.73088e-22
8.73256e-22
8.73409e-22
8.73554e-22
8.73692e-22
8.73823e-22
8.73947e-22
8.74064e-22
8.74175e-22
8.74278e-22
8.74375e-22
8.74465e-22
8.74549e-22
8.74626e-22
8.74697e-22
8.74761e-22
8.7482e-22
8.74873e-22
8.74921e-22
8.74963e-22
8.75001e-22
8.75033e-22
8.7506e-22
8.75082e-22
8.751e-22
8.75114e-22
8.75122e-22
8.75127e-22
8.75127e-22
8.75122e-22
8.75114e-22
8.751e-22
8.75082e-22
8.7506e-22
8.75033e-22
8.75001e-22
8.74963e-22
8.74921e-22
8.74873e-22
8.7482e-22
8.74761e-22
8.74697e-22
8.74626e-22
8.74549e-22
8.74465e-22
8.74375e-22
8.74278e-22
8.74175e-22
8.74064e-22
8.73947e-22
8.73823e-22
8.73692e-22
8.73554e-22
8.73409e-22
8.73256e-22
8.73088e-22
8.72884e-22
8.72633e-22
2.08979e-21
2.09041e-21
2.09098e-21
2.09146e-21
2.09191e-21
2.09234e-21
2.09274e-21
2.09313e-21
2.09349e-21
2.09383e-21
2.09415e-21
2.09445e-21
2.09472e-21
2.09498e-21
2.09522e-21
2.09544e-21
2.09564e-21
2.09583e-21
2.09599e-21
2.09614e-21
2.09628e-21
2.0964e-21
2.0965e-21
2.09659e-21
2.09667e-21
2.09673e-21
2.09678e-21
2.09682e-21
2.09684e-21
2.09685e-21
2.09685e-21
2.09684e-21
2.09682e-21
2.09678e-21
2.09673e-21
2.09667e-21
2.09659e-21
2.0965e-21
2.0964e-21
2.09628e-21
2.09614e-21
2.09599e-21
2.09583e-21
2.09564e-21
2.09544e-21
2.09522e-21
2.09498e-21
2.09472e-21
2.09445e-21
2.09415e-21
2.09383e-21
2.09349e-21
2.09313e-21
2.09274e-21
2.09234e-21
2.09191e-21
2.09146e-21
2.09098e-21
2.09041e-21
2.08979e-21
5.10295e-21
5.10453e-21
5.10611e-21
5.1075e-21
5.10881e-21
5.11005e-21
5.11122e-21
5.11233e-21
5.11338e-21
5.11436e-21
5.11528e-21
5.11614e-21
5.11693e-21
5.11767e-21
5.11835e-21
5.11898e-21
5.11955e-21
5.12007e-21
5.12054e-21
5.12097e-21
5.12135e-21
5.12168e-21
5.12197e-21
5.12223e-21
5.12244e-21
5.12262e-21
5.12276e-21
5.12286e-21
5.12293e-21
5.12297e-21
5.12297e-21
5.12293e-21
5.12286e-21
5.12276e-21
5.12262e-21
5.12244e-21
5.12223e-21
5.12197e-21
5.12168e-21
5.12135e-21
5.12097e-21
5.12054e-21
5.12007e-21
5.11955e-21
5.11898e-21
5.11835e-21
5.11767e-21
5.11693e-21
5.11614e-21
5.11528e-21
5.11436e-21
5.11338e-21
5.11233e-21
5.11122e-21
5.11005e-21
5.10881e-21
5.1075e-21
5.10611e-21
5.10453e-21
5.10295e-21
1.27271e-20
1.27312e-20
1.27357e-20
1.27397e-20
1.27434e-20
1.2747e-20
1.27504e-20
1.27537e-20
1.27567e-20
1.27595e-20
1.27622e-20
1.27646e-20
1.27669e-20
1.27691e-20
1.2771e-20
1.27728e-20
1.27744e-20
1.27759e-20
1.27773e-20
1.27785e-20
1.27795e-20
1.27805e-20
1.27813e-20
1.27821e-20
1.27827e-20
1.27832e-20
1.27836e-20
1.27839e-20
1.27841e-20
1.27842e-20
1.27842e-20
1.27841e-20
1.27839e-20
1.27836e-20
1.27832e-20
1.27827e-20
1.27821e-20
1.27813e-20
1.27805e-20
1.27795e-20
1.27785e-20
1.27773e-20
1.27759e-20
1.27744e-20
1.27728e-20
1.2771e-20
1.27691e-20
1.27669e-20
1.27646e-20
1.27622e-20
1.27595e-20
1.27567e-20
1.27537e-20
1.27504e-20
1.2747e-20
1.27434e-20
1.27397e-20
1.27357e-20
1.27312e-20
1.27271e-20
3.245e-20
3.24614e-20
3.2474e-20
3.24856e-20
3.24966e-20
3.25071e-20
3.2517e-20
3.25264e-20
3.25352e-20
3.25435e-20
3.25512e-20
3.25583e-20
3.2565e-20
3.25711e-20
3.25767e-20
3.25819e-20
3.25866e-20
3.25909e-20
3.25947e-20
3.25982e-20
3.26013e-20
3.26041e-20
3.26065e-20
3.26085e-20
3.26103e-20
3.26117e-20
3.26128e-20
3.26137e-20
3.26143e-20
3.26145e-20
3.26145e-20
3.26143e-20
3.26137e-20
3.26128e-20
3.26117e-20
3.26103e-20
3.26085e-20
3.26065e-20
3.26041e-20
3.26013e-20
3.25982e-20
3.25947e-20
3.25909e-20
3.25866e-20
3.25819e-20
3.25767e-20
3.25711e-20
3.2565e-20
3.25583e-20
3.25512e-20
3.25435e-20
3.25352e-20
3.25264e-20
3.2517e-20
3.25071e-20
3.24966e-20
3.24856e-20
3.2474e-20
3.24614e-20
3.245e-20
8.46287e-20
8.46605e-20
8.46968e-20
8.47308e-20
8.47632e-20
8.47941e-20
8.48233e-20
8.48509e-20
8.48768e-20
8.4901e-20
8.49236e-20
8.49446e-20
8.4964e-20
8.49819e-20
8.49984e-20
8.50135e-20
8.50273e-20
8.50398e-20
8.50511e-20
8.50612e-20
8.50702e-20
8.50782e-20
8.50852e-20
8.50912e-20
8.50963e-20
8.51005e-20
8.51038e-20
8.51062e-20
8.51079e-20
8.51087e-20
8.51087e-20
8.51079e-20
8.51062e-20
8.51038e-20
8.51005e-20
8.50963e-20
8.50912e-20
8.50852e-20
8.50782e-20
8.50702e-20
8.50612e-20
8.50511e-20
8.50398e-20
8.50273e-20
8.50135e-20
8.49984e-20
8.49819e-20
8.4964e-20
8.49446e-20
8.49236e-20
8.4901e-20
8.48768e-20
8.48509e-20
8.48233e-20
8.47941e-20
8.47632e-20
8.47308e-20
8.46968e-20
8.46605e-20
8.46287e-20
2.25837e-19
2.2593e-19
2.26036e-19
2.26137e-19
2.26233e-19
2.26325e-19
2.26412e-19
2.26494e-19
2.26571e-19
2.26643e-19
2.2671e-19
2.26773e-19
2.2683e-19
2.26883e-19
2.26932e-19
2.26977e-19
2.27018e-19
2.27055e-19
2.27088e-19
2.27118e-19
2.27145e-19
2.27169e-19
2.27189e-19
2.27207e-19
2.27222e-19
2.27235e-19
2.27244e-19
2.27252e-19
2.27256e-19
2.27259e-19
2.27259e-19
2.27256e-19
2.27252e-19
2.27244e-19
2.27235e-19
2.27222e-19
2.27207e-19
2.27189e-19
2.27169e-19
2.27145e-19
2.27118e-19
2.27088e-19
2.27055e-19
2.27018e-19
2.26977e-19
2.26932e-19
2.26883e-19
2.2683e-19
2.26773e-19
2.2671e-19
2.26643e-19
2.26571e-19
2.26494e-19
2.26412e-19
2.26325e-19
2.26233e-19
2.26137e-19
2.26036e-19
2.2593e-19
2.25837e-19
6.16839e-19
6.17116e-19
6.17432e-19
6.17735e-19
6.18025e-19
6.18303e-19
6.18566e-19
6.18814e-19
6.19046e-19
6.19264e-19
6.19466e-19
6.19654e-19
6.19828e-19
6.19989e-19
6.20136e-19
6.20271e-19
6.20394e-19
6.20506e-19
6.20606e-19
6.20696e-19
6.20777e-19
6.20848e-19
6.2091e-19
6.20963e-19
6.21009e-19
6.21046e-19
6.21075e-19
6.21097e-19
6.21112e-19
6.21119e-19
6.21119e-19
6.21112e-19
6.21097e-19
6.21075e-19
6.21046e-19
6.21009e-19
6.20963e-19
6.2091e-19
6.20848e-19
6.20777e-19
6.20696e-19
6.20606e-19
6.20506e-19
6.20394e-19
6.20271e-19
6.20136e-19
6.19989e-19
6.19828e-19
6.19654e-19
6.19466e-19
6.19264e-19
6.19046e-19
6.18814e-19
6.18566e-19
6.18303e-19
6.18025e-19
6.17735e-19
6.17432e-19
6.17116e-19
6.16839e-19
1.72483e-18
1.72568e-18
1.72664e-18
1.72756e-18
1.72845e-18
1.7293e-18
1.73011e-18
1.73087e-18
1.73158e-18
1.73225e-18
1.73287e-18
1.73345e-18
1.73398e-18
1.73447e-18
1.73493e-18
1.73534e-18
1.73572e-18
1.73606e-18
1.73637e-18
1.73664e-18
1.73689e-18
1.73711e-18
1.7373e-18
1.73746e-18
1.7376e-18
1.73771e-18
1.7378e-18
1.73787e-18
1.73791e-18
1.73794e-18
1.73794e-18
1.73791e-18
1.73787e-18
1.7378e-18
1.73771e-18
1.7376e-18
1.73746e-18
1.7373e-18
1.73711e-18
1.73689e-18
1.73664e-18
1.73637e-18
1.73606e-18
1.73572e-18
1.73534e-18
1.73493e-18
1.73447e-18
1.73398e-18
1.73345e-18
1.73287e-18
1.73225e-18
1.73158e-18
1.73087e-18
1.73011e-18
1.7293e-18
1.72845e-18
1.72756e-18
1.72664e-18
1.72568e-18
1.72483e-18
4.93848e-18
4.94115e-18
4.94411e-18
4.94699e-18
4.94977e-18
4.95243e-18
4.95495e-18
4.95732e-18
4.95955e-18
4.96163e-18
4.96357e-18
4.96537e-18
4.96704e-18
4.96857e-18
4.96998e-18
4.97127e-18
4.97245e-18
4.97351e-18
4.97448e-18
4.97534e-18
4.97611e-18
4.97679e-18
4.97738e-18
4.97789e-18
4.97832e-18
4.97867e-18
4.97896e-18
4.97916e-18
4.9793e-18
4.97937e-18
4.97937e-18
4.9793e-18
4.97916e-18
4.97896e-18
4.97867e-18
4.97832e-18
4.97789e-18
4.97738e-18
4.97679e-18
4.97611e-18
4.97534e-18
4.97448e-18
4.97351e-18
4.97245e-18
4.97127e-18
4.96998e-18
4.96857e-18
4.96704e-18
4.96537e-18
4.96357e-18
4.96163e-18
4.95955e-18
4.95732e-18
4.95495e-18
4.95243e-18
4.94977e-18
4.94699e-18
4.94411e-18
4.94115e-18
4.93848e-18
1.44799e-17
1.44886e-17
1.44979e-17
1.4507e-17
1.45158e-17
1.45243e-17
1.45323e-17
1.45398e-17
1.45469e-17
1.45535e-17
1.45597e-17
1.45654e-17
1.45707e-17
1.45756e-17
1.45801e-17
1.45842e-17
1.45879e-17
1.45913e-17
1.45944e-17
1.45971e-17
1.45996e-17
1.46017e-17
1.46036e-17
1.46052e-17
1.46066e-17
1.46077e-17
1.46086e-17
1.46093e-17
1.46097e-17
1.46099e-17
1.46099e-17
1.46097e-17
1.46093e-17
1.46086e-17
1.46077e-17
1.46066e-17
1.46052e-17
1.46036e-17
1.46017e-17
1.45996e-17
1.45971e-17
1.45944e-17
1.45913e-17
1.45879e-17
1.45842e-17
1.45801e-17
1.45756e-17
1.45707e-17
1.45654e-17
1.45597e-17
1.45535e-17
1.45469e-17
1.45398e-17
1.45323e-17
1.45243e-17
1.45158e-17
1.4507e-17
1.44979e-17
1.44886e-17
1.44799e-17
4.34799e-17
4.35081e-17
4.3538e-17
4.35674e-17
4.3596e-17
4.36233e-17
4.36493e-17
4.36738e-17
4.36967e-17
4.37182e-17
4.37382e-17
4.37567e-17
4.37739e-17
4.37897e-17
4.38042e-17
4.38175e-17
4.38297e-17
4.38406e-17
4.38506e-17
4.38594e-17
4.38674e-17
4.38744e-17
4.38805e-17
4.38857e-17
4.38902e-17
4.38938e-17
4.38967e-17
4.38989e-17
4.39003e-17
4.3901e-17
4.3901e-17
4.39003e-17
4.38989e-17
4.38967e-17
4.38938e-17
4.38902e-17
4.38857e-17
4.38805e-17
4.38744e-17
4.38674e-17
4.38594e-17
4.38506e-17
4.38406e-17
4.38297e-17
4.38175e-17
4.38042e-17
4.37897e-17
4.37739e-17
4.37567e-17
4.37382e-17
4.37182e-17
4.36967e-17
4.36738e-17
4.36493e-17
4.36233e-17
4.3596e-17
4.35674e-17
4.3538e-17
4.35081e-17
4.34799e-17
1.33703e-16
1.33797e-16
1.33895e-16
1.33992e-16
1.34086e-16
1.34176e-16
1.34262e-16
1.34343e-16
1.34419e-16
1.3449e-16
1.34556e-16
1.34617e-16
1.34674e-16
1.34726e-16
1.34774e-16
1.34818e-16
1.34858e-16
1.34894e-16
1.34927e-16
1.34956e-16
1.34983e-16
1.35006e-16
1.35026e-16
1.35043e-16
1.35058e-16
1.3507e-16
1.35079e-16
1.35087e-16
1.35091e-16
1.35094e-16
1.35094e-16
1.35091e-16
1.35087e-16
1.35079e-16
1.3507e-16
1.35058e-16
1.35043e-16
1.35026e-16
1.35006e-16
1.34983e-16
1.34956e-16
1.34927e-16
1.34894e-16
1.34858e-16
1.34818e-16
1.34774e-16
1.34726e-16
1.34674e-16
1.34617e-16
1.34556e-16
1.3449e-16
1.34419e-16
1.34343e-16
1.34262e-16
1.34176e-16
1.34086e-16
1.33992e-16
1.33895e-16
1.33797e-16
1.33703e-16
4.20975e-16
4.21294e-16
4.21622e-16
4.21948e-16
4.22265e-16
4.22569e-16
4.22858e-16
4.2313e-16
4.23386e-16
4.23625e-16
4.23847e-16
4.24054e-16
4.24245e-16
4.24421e-16
4.24583e-16
4.24731e-16
4.24866e-16
4.24988e-16
4.25099e-16
4.25198e-16
4.25286e-16
4.25364e-16
4.25432e-16
4.2549e-16
4.2554e-16
4.25581e-16
4.25613e-16
4.25637e-16
4.25653e-16
4.25661e-16
4.25661e-16
4.25653e-16
4.25637e-16
4.25613e-16
4.25581e-16
4.2554e-16
4.2549e-16
4.25432e-16
4.25364e-16
4.25286e-16
4.25198e-16
4.25099e-16
4.24988e-16
4.24866e-16
4.24731e-16
4.24583e-16
4.24421e-16
4.24245e-16
4.24054e-16
4.23847e-16
4.23625e-16
4.23386e-16
4.2313e-16
4.22858e-16
4.22569e-16
4.22265e-16
4.21948e-16
4.21622e-16
4.21294e-16
4.20975e-16
1.3568e-15
1.3579e-15
1.35902e-15
1.36014e-15
1.36123e-15
1.36227e-15
1.36326e-15
1.3642e-15
1.36508e-15
1.3659e-15
1.36666e-15
1.36737e-15
1.36803e-15
1.36863e-15
1.36919e-15
1.3697e-15
1.37016e-15
1.37058e-15
1.37096e-15
1.3713e-15
1.37161e-15
1.37187e-15
1.37211e-15
1.37231e-15
1.37248e-15
1.37262e-15
1.37273e-15
1.37281e-15
1.37287e-15
1.37289e-15
1.37289e-15
1.37287e-15
1.37281e-15
1.37273e-15
1.37262e-15
1.37248e-15
1.37231e-15
1.37211e-15
1.37187e-15
1.37161e-15
1.3713e-15
1.37096e-15
1.37058e-15
1.37016e-15
1.3697e-15
1.36919e-15
1.36863e-15
1.36803e-15
1.36737e-15
1.36666e-15
1.3659e-15
1.36508e-15
1.3642e-15
1.36326e-15
1.36227e-15
1.36123e-15
1.36014e-15
1.35902e-15
1.3579e-15
1.3568e-15
4.47436e-15
4.47822e-15
4.48211e-15
4.48602e-15
4.48983e-15
4.49349e-15
4.49696e-15
4.50024e-15
4.50331e-15
4.50619e-15
4.50886e-15
4.51135e-15
4.51365e-15
4.51577e-15
4.51771e-15
4.5195e-15
4.52112e-15
4.52259e-15
4.52392e-15
4.52511e-15
4.52617e-15
4.52711e-15
4.52793e-15
4.52863e-15
4.52923e-15
4.52971e-15
4.5301e-15
4.53039e-15
4.53058e-15
4.53068e-15
4.53068e-15
4.53058e-15
4.53039e-15
4.5301e-15
4.52971e-15
4.52923e-15
4.52863e-15
4.52793e-15
4.52711e-15
4.52617e-15
4.52511e-15
4.52392e-15
4.52259e-15
4.52112e-15
4.5195e-15
4.51771e-15
4.51577e-15
4.51365e-15
4.51135e-15
4.50886e-15
4.50619e-15
4.50331e-15
4.50024e-15
4.49696e-15
4.49349e-15
4.48983e-15
4.48602e-15
4.48211e-15
4.47822e-15
4.47436e-15
1.5088e-14
1.51017e-14
1.51156e-14
1.51295e-14
1.51431e-14
1.51561e-14
1.51685e-14
1.51802e-14
1.51912e-14
1.52014e-14
1.5211e-14
1.52199e-14
1.52281e-14
1.52356e-14
1.52426e-14
1.52489e-14
1.52547e-14
1.526e-14
1.52647e-14
1.5269e-14
1.52727e-14
1.52761e-14
1.5279e-14
1.52815e-14
1.52836e-14
1.52854e-14
1.52868e-14
1.52878e-14
1.52885e-14
1.52888e-14
1.52888e-14
1.52885e-14
1.52878e-14
1.52868e-14
1.52854e-14
1.52836e-14
1.52815e-14
1.5279e-14
1.52761e-14
1.52727e-14
1.5269e-14
1.52647e-14
1.526e-14
1.52547e-14
1.52489e-14
1.52426e-14
1.52356e-14
1.52281e-14
1.52199e-14
1.5211e-14
1.52014e-14
1.51912e-14
1.51802e-14
1.51685e-14
1.51561e-14
1.51431e-14
1.51295e-14
1.51156e-14
1.51017e-14
1.5088e-14
5.19828e-14
5.20326e-14
5.20826e-14
5.21331e-14
5.21825e-14
5.22299e-14
5.2275e-14
5.23174e-14
5.23573e-14
5.23946e-14
5.24293e-14
5.24615e-14
5.24913e-14
5.25188e-14
5.2544e-14
5.25671e-14
5.25881e-14
5.26072e-14
5.26244e-14
5.26399e-14
5.26536e-14
5.26657e-14
5.26763e-14
5.26854e-14
5.26931e-14
5.26995e-14
5.27045e-14
5.27082e-14
5.27107e-14
5.27119e-14
5.27119e-14
5.27107e-14
5.27082e-14
5.27045e-14
5.26995e-14
5.26931e-14
5.26854e-14
5.26763e-14
5.26657e-14
5.26536e-14
5.26399e-14
5.26244e-14
5.26072e-14
5.25881e-14
5.25671e-14
5.2544e-14
5.25188e-14
5.24913e-14
5.24615e-14
5.24293e-14
5.23946e-14
5.23573e-14
5.23174e-14
5.2275e-14
5.22299e-14
5.21825e-14
5.21331e-14
5.20826e-14
5.20326e-14
5.19828e-14
1.82792e-13
1.82974e-13
1.83159e-13
1.83345e-13
1.83528e-13
1.83703e-13
1.83869e-13
1.84026e-13
1.84174e-13
1.84312e-13
1.8444e-13
1.84559e-13
1.84669e-13
1.84771e-13
1.84864e-13
1.84949e-13
1.85027e-13
1.85097e-13
1.85161e-13
1.85218e-13
1.85269e-13
1.85313e-13
1.85352e-13
1.85386e-13
1.85415e-13
1.85438e-13
1.85457e-13
1.8547e-13
1.85479e-13
1.85484e-13
1.85484e-13
1.85479e-13
1.8547e-13
1.85457e-13
1.85438e-13
1.85415e-13
1.85386e-13
1.85352e-13
1.85313e-13
1.85269e-13
1.85218e-13
1.85161e-13
1.85097e-13
1.85027e-13
1.84949e-13
1.84864e-13
1.84771e-13
1.84669e-13
1.84559e-13
1.8444e-13
1.84312e-13
1.84174e-13
1.84026e-13
1.83869e-13
1.83703e-13
1.83528e-13
1.83345e-13
1.83159e-13
1.82974e-13
1.82792e-13
6.55154e-13
6.55835e-13
6.56526e-13
6.57225e-13
6.57911e-13
6.58569e-13
6.59194e-13
6.59784e-13
6.60337e-13
6.60854e-13
6.61336e-13
6.61783e-13
6.62196e-13
6.62577e-13
6.62927e-13
6.63247e-13
6.63538e-13
6.63803e-13
6.64041e-13
6.64255e-13
6.64446e-13
6.64614e-13
6.6476e-13
6.64887e-13
6.64993e-13
6.65081e-13
6.6515e-13
6.65202e-13
6.65236e-13
6.65253e-13
6.65253e-13
6.65236e-13
6.65202e-13
6.6515e-13
6.65081e-13
6.64993e-13
6.64887e-13
6.6476e-13
6.64614e-13
6.64446e-13
6.64255e-13
6.64041e-13
6.63803e-13
6.63538e-13
6.63247e-13
6.62927e-13
6.62577e-13
6.62196e-13
6.61783e-13
6.61336e-13
6.60854e-13
6.60337e-13
6.59784e-13
6.59194e-13
6.58569e-13
6.57911e-13
6.57225e-13
6.56526e-13
6.55835e-13
6.55154e-13
2.38953e-12
2.3921e-12
2.39473e-12
2.39739e-12
2.4e-12
2.40251e-12
2.40489e-12
2.40713e-12
2.40924e-12
2.41121e-12
2.41304e-12
2.41475e-12
2.41632e-12
2.41777e-12
2.4191e-12
2.42032e-12
2.42143e-12
2.42243e-12
2.42334e-12
2.42415e-12
2.42488e-12
2.42552e-12
2.42608e-12
2.42656e-12
2.42696e-12
2.42729e-12
2.42756e-12
2.42776e-12
2.42789e-12
2.42795e-12
2.42795e-12
2.42789e-12
2.42776e-12
2.42756e-12
2.42729e-12
2.42696e-12
2.42656e-12
2.42608e-12
2.42552e-12
2.42488e-12
2.42415e-12
2.42334e-12
2.42243e-12
2.42143e-12
2.42032e-12
2.4191e-12
2.41777e-12
2.41632e-12
2.41475e-12
2.41304e-12
2.41121e-12
2.40924e-12
2.40713e-12
2.40489e-12
2.40251e-12
2.4e-12
2.39739e-12
2.39473e-12
2.3921e-12
2.38953e-12
8.85125e-12
8.8611e-12
8.87119e-12
8.88146e-12
8.89152e-12
8.90119e-12
8.91037e-12
8.91902e-12
8.92714e-12
8.93473e-12
8.9418e-12
8.94835e-12
8.95441e-12
8.96e-12
8.96512e-12
8.96981e-12
8.97409e-12
8.97796e-12
8.98145e-12
8.98459e-12
8.98737e-12
8.98983e-12
8.99198e-12
8.99383e-12
8.99539e-12
8.99667e-12
8.99769e-12
8.99845e-12
8.99895e-12
8.9992e-12
8.9992e-12
8.99895e-12
8.99845e-12
8.99769e-12
8.99667e-12
8.99539e-12
8.99383e-12
8.99198e-12
8.98983e-12
8.98737e-12
8.98459e-12
8.98145e-12
8.97796e-12
8.97409e-12
8.96981e-12
8.96512e-12
8.96e-12
8.95441e-12
8.94835e-12
8.9418e-12
8.93473e-12
8.92714e-12
8.91902e-12
8.91037e-12
8.90119e-12
8.89152e-12
8.88146e-12
8.87119e-12
8.8611e-12
8.85125e-12
3.32196e-11
3.32576e-11
3.32968e-11
3.33368e-11
3.3376e-11
3.34136e-11
3.34493e-11
3.3483e-11
3.35146e-11
3.35441e-11
3.35716e-11
3.35971e-11
3.36207e-11
3.36424e-11
3.36623e-11
3.36806e-11
3.36972e-11
3.37122e-11
3.37258e-11
3.3738e-11
3.37488e-11
3.37584e-11
3.37667e-11
3.37739e-11
3.378e-11
3.3785e-11
3.37889e-11
3.37918e-11
3.37938e-11
3.37948e-11
3.37948e-11
3.37938e-11
3.37918e-11
3.37889e-11
3.3785e-11
3.378e-11
3.37739e-11
3.37667e-11
3.37584e-11
3.37488e-11
3.3738e-11
3.37258e-11
3.37122e-11
3.36972e-11
3.36806e-11
3.36623e-11
3.36424e-11
3.36207e-11
3.35971e-11
3.35716e-11
3.35441e-11
3.35146e-11
3.3483e-11
3.34493e-11
3.34136e-11
3.3376e-11
3.33368e-11
3.32968e-11
3.32576e-11
3.32196e-11
1.25969e-10
1.26117e-10
1.26271e-10
1.26427e-10
1.26581e-10
1.26728e-10
1.26868e-10
1.27e-10
1.27124e-10
1.27239e-10
1.27347e-10
1.27447e-10
1.27539e-10
1.27624e-10
1.27702e-10
1.27774e-10
1.27839e-10
1.27898e-10
1.27951e-10
1.27998e-10
1.28041e-10
1.28078e-10
1.28111e-10
1.28139e-10
1.28163e-10
1.28182e-10
1.28197e-10
1.28209e-10
1.28217e-10
1.2822e-10
1.2822e-10
1.28217e-10
1.28209e-10
1.28197e-10
1.28182e-10
1.28163e-10
1.28139e-10
1.28111e-10
1.28078e-10
1.28041e-10
1.27998e-10
1.27951e-10
1.27898e-10
1.27839e-10
1.27774e-10
1.27702e-10
1.27624e-10
1.27539e-10
1.27447e-10
1.27347e-10
1.27239e-10
1.27124e-10
1.27e-10
1.26868e-10
1.26728e-10
1.26581e-10
1.26427e-10
1.26271e-10
1.26117e-10
1.25969e-10
4.81048e-10
4.81625e-10
4.82229e-10
4.82844e-10
4.83447e-10
4.84027e-10
4.84576e-10
4.85095e-10
4.85581e-10
4.86035e-10
4.86458e-10
4.8685e-10
4.87212e-10
4.87546e-10
4.87852e-10
4.88133e-10
4.88388e-10
4.88619e-10
4.88827e-10
4.89014e-10
4.89181e-10
4.89327e-10
4.89455e-10
4.89566e-10
4.89659e-10
4.89735e-10
4.89796e-10
4.89841e-10
4.89871e-10
4.89885e-10
4.89885e-10
4.89871e-10
4.89841e-10
4.89796e-10
4.89735e-10
4.89659e-10
4.89566e-10
4.89455e-10
4.89327e-10
4.89181e-10
4.89014e-10
4.88827e-10
4.88619e-10
4.88388e-10
4.88133e-10
4.87852e-10
4.87546e-10
4.87212e-10
4.8685e-10
4.86458e-10
4.86035e-10
4.85581e-10
4.85095e-10
4.84576e-10
4.84027e-10
4.83447e-10
4.82844e-10
4.82229e-10
4.81625e-10
4.81048e-10
1.84289e-09
1.84514e-09
1.84751e-09
1.84993e-09
1.8523e-09
1.85457e-09
1.85673e-09
1.85877e-09
1.86067e-09
1.86246e-09
1.86411e-09
1.86565e-09
1.86707e-09
1.86838e-09
1.86958e-09
1.87068e-09
1.87168e-09
1.87259e-09
1.87341e-09
1.87414e-09
1.87479e-09
1.87537e-09
1.87587e-09
1.8763e-09
1.87666e-09
1.87696e-09
1.8772e-09
1.87738e-09
1.87749e-09
1.87755e-09
1.87755e-09
1.87749e-09
1.87738e-09
1.8772e-09
1.87696e-09
1.87666e-09
1.8763e-09
1.87587e-09
1.87537e-09
1.87479e-09
1.87414e-09
1.87341e-09
1.87259e-09
1.87168e-09
1.87068e-09
1.86958e-09
1.86838e-09
1.86707e-09
1.86565e-09
1.86411e-09
1.86246e-09
1.86067e-09
1.85877e-09
1.85673e-09
1.85457e-09
1.8523e-09
1.84993e-09
1.84751e-09
1.84514e-09
1.84289e-09
7.05131e-09
7.06008e-09
7.06933e-09
7.07877e-09
7.08801e-09
7.09689e-09
7.10531e-09
7.11325e-09
7.1207e-09
7.12765e-09
7.13411e-09
7.14011e-09
7.14565e-09
7.15076e-09
7.15544e-09
7.15972e-09
7.16362e-09
7.16716e-09
7.17034e-09
7.1732e-09
7.17573e-09
7.17798e-09
7.17993e-09
7.18161e-09
7.18303e-09
7.1842e-09
7.18512e-09
7.18581e-09
7.18627e-09
7.18649e-09
7.18649e-09
7.18627e-09
7.18581e-09
7.18512e-09
7.1842e-09
7.18303e-09
7.18161e-09
7.17993e-09
7.17798e-09
7.17573e-09
7.1732e-09
7.17034e-09
7.16716e-09
7.16362e-09
7.15972e-09
7.15544e-09
7.15076e-09
7.14565e-09
7.14011e-09
7.13411e-09
7.12765e-09
7.1207e-09
7.11325e-09
7.10531e-09
7.09689e-09
7.08801e-09
7.07877e-09
7.06933e-09
7.06008e-09
7.05131e-09
2.68091e-08
2.68429e-08
2.68786e-08
2.6915e-08
2.69507e-08
2.6985e-08
2.70175e-08
2.70481e-08
2.70768e-08
2.71036e-08
2.71285e-08
2.71517e-08
2.7173e-08
2.71927e-08
2.72107e-08
2.72272e-08
2.72423e-08
2.72559e-08
2.72681e-08
2.72791e-08
2.72889e-08
2.72976e-08
2.73051e-08
2.73116e-08
2.7317e-08
2.73215e-08
2.73251e-08
2.73277e-08
2.73295e-08
2.73304e-08
2.73304e-08
2.73295e-08
2.73277e-08
2.73251e-08
2.73215e-08
2.7317e-08
2.73116e-08
2.73051e-08
2.72976e-08
2.72889e-08
2.72791e-08
2.72681e-08
2.72559e-08
2.72423e-08
2.72272e-08
2.72107e-08
2.71927e-08
2.7173e-08
2.71517e-08
2.71285e-08
2.71036e-08
2.70768e-08
2.70481e-08
2.70175e-08
2.6985e-08
2.69507e-08
2.6915e-08
2.68786e-08
2.68429e-08
2.68091e-08
1.00693e-07
1.00821e-07
1.00957e-07
1.01095e-07
1.0123e-07
1.0136e-07
1.01483e-07
1.01599e-07
1.01708e-07
1.01809e-07
1.01904e-07
1.01991e-07
1.02072e-07
1.02147e-07
1.02215e-07
1.02278e-07
1.02334e-07
1.02386e-07
1.02432e-07
1.02474e-07
1.02511e-07
1.02544e-07
1.02572e-07
1.02597e-07
1.02617e-07
1.02634e-07
1.02648e-07
1.02658e-07
1.02664e-07
1.02668e-07
1.02668e-07
1.02664e-07
1.02658e-07
1.02648e-07
1.02634e-07
1.02617e-07
1.02597e-07
1.02572e-07
1.02544e-07
1.02511e-07
1.02474e-07
1.02432e-07
1.02386e-07
1.02334e-07
1.02278e-07
1.02215e-07
1.02147e-07
1.02072e-07
1.01991e-07
1.01904e-07
1.01809e-07
1.01708e-07
1.01599e-07
1.01483e-07
1.0136e-07
1.0123e-07
1.01095e-07
1.00957e-07
1.00821e-07
1.00693e-07
3.71141e-07
3.71614e-07
3.72116e-07
3.72627e-07
3.73127e-07
3.73607e-07
3.74062e-07
3.7449e-07
3.74892e-07
3.75266e-07
3.75615e-07
3.75938e-07
3.76237e-07
3.76512e-07
3.76764e-07
3.76994e-07
3.77204e-07
3.77394e-07
3.77566e-07
3.77719e-07
3.77856e-07
3.77976e-07
3.78081e-07
3.78171e-07
3.78248e-07
3.7831e-07
3.7836e-07
3.78397e-07
3.78421e-07
3.78434e-07
3.78434e-07
3.78421e-07
3.78397e-07
3.7836e-07
3.7831e-07
3.78248e-07
3.78171e-07
3.78081e-07
3.77976e-07
3.77856e-07
3.77719e-07
3.77566e-07
3.77394e-07
3.77204e-07
3.76994e-07
3.76764e-07
3.76512e-07
3.76237e-07
3.75938e-07
3.75615e-07
3.75266e-07
3.74892e-07
3.7449e-07
3.74062e-07
3.73607e-07
3.73127e-07
3.72627e-07
3.72116e-07
3.71614e-07
3.71141e-07
1.33238e-06
1.33407e-06
1.33587e-06
1.3377e-06
1.33949e-06
1.3412e-06
1.34283e-06
1.34436e-06
1.34579e-06
1.34713e-06
1.34837e-06
1.34953e-06
1.35059e-06
1.35157e-06
1.35247e-06
1.3533e-06
1.35404e-06
1.35472e-06
1.35533e-06
1.35588e-06
1.35637e-06
1.3568e-06
1.35717e-06
1.35749e-06
1.35776e-06
1.35799e-06
1.35817e-06
1.3583e-06
1.35838e-06
1.35843e-06
1.35843e-06
1.35838e-06
1.3583e-06
1.35817e-06
1.35799e-06
1.35776e-06
1.35749e-06
1.35717e-06
1.3568e-06
1.35637e-06
1.35588e-06
1.35533e-06
1.35472e-06
1.35404e-06
1.3533e-06
1.35247e-06
1.35157e-06
1.35059e-06
1.34953e-06
1.34837e-06
1.34713e-06
1.34579e-06
1.34436e-06
1.34283e-06
1.3412e-06
1.33949e-06
1.3377e-06
1.33587e-06
1.33407e-06
1.33238e-06
4.61935e-06
4.62516e-06
4.63133e-06
4.63759e-06
4.64371e-06
4.64957e-06
4.65513e-06
4.66036e-06
4.66526e-06
4.66984e-06
4.67409e-06
4.67803e-06
4.68167e-06
4.68502e-06
4.6881e-06
4.69091e-06
4.69346e-06
4.69578e-06
4.69787e-06
4.69974e-06
4.7014e-06
4.70286e-06
4.70414e-06
4.70524e-06
4.70617e-06
4.70693e-06
4.70754e-06
4.70799e-06
4.70829e-06
4.70843e-06
4.70843e-06
4.70829e-06
4.70799e-06
4.70754e-06
4.70693e-06
4.70617e-06
4.70524e-06
4.70414e-06
4.70286e-06
4.7014e-06
4.69974e-06
4.69787e-06
4.69578e-06
4.69346e-06
4.69091e-06
4.6881e-06
4.68502e-06
4.68167e-06
4.67803e-06
4.67409e-06
4.66984e-06
4.66526e-06
4.66036e-06
4.65513e-06
4.64957e-06
4.64371e-06
4.63759e-06
4.63133e-06
4.62516e-06
4.61935e-06
1.53195e-05
1.53384e-05
1.53584e-05
1.53788e-05
1.53986e-05
1.54176e-05
1.54356e-05
1.54525e-05
1.54684e-05
1.54832e-05
1.5497e-05
1.55097e-05
1.55215e-05
1.55323e-05
1.55423e-05
1.55514e-05
1.55596e-05
1.55671e-05
1.55739e-05
1.55799e-05
1.55853e-05
1.559e-05
1.55942e-05
1.55977e-05
1.56007e-05
1.56032e-05
1.56051e-05
1.56066e-05
1.56076e-05
1.5608e-05
1.5608e-05
1.56076e-05
1.56066e-05
1.56051e-05
1.56032e-05
1.56007e-05
1.55977e-05
1.55942e-05
1.559e-05
1.55853e-05
1.55799e-05
1.55739e-05
1.55671e-05
1.55596e-05
1.55514e-05
1.55423e-05
1.55323e-05
1.55215e-05
1.55097e-05
1.5497e-05
1.54832e-05
1.54684e-05
1.54525e-05
1.54356e-05
1.54176e-05
1.53986e-05
1.53788e-05
1.53584e-05
1.53384e-05
1.53195e-05
4.80795e-05
4.81372e-05
4.81982e-05
4.82599e-05
4.83199e-05
4.83774e-05
4.84319e-05
4.84832e-05
4.85312e-05
4.8576e-05
4.86177e-05
4.86563e-05
4.86919e-05
4.87247e-05
4.87548e-05
4.87822e-05
4.88072e-05
4.88299e-05
4.88503e-05
4.88685e-05
4.88848e-05
4.88991e-05
4.89116e-05
4.89224e-05
4.89314e-05
4.89389e-05
4.89448e-05
4.89492e-05
4.89521e-05
4.89535e-05
4.89535e-05
4.89521e-05
4.89492e-05
4.89448e-05
4.89389e-05
4.89314e-05
4.89224e-05
4.89116e-05
4.88991e-05
4.88848e-05
4.88685e-05
4.88503e-05
4.88299e-05
4.88072e-05
4.87822e-05
4.87548e-05
4.87247e-05
4.86919e-05
4.86563e-05
4.86177e-05
4.8576e-05
4.85312e-05
4.84832e-05
4.84319e-05
4.83774e-05
4.83199e-05
4.82599e-05
4.81982e-05
4.81372e-05
4.80795e-05
0.000141107
0.000141269
0.00014144
0.000141613
0.00014178
0.000141941
0.000142093
0.000142236
0.00014237
0.000142495
0.000142611
0.000142718
0.000142818
0.000142909
0.000142993
0.000143069
0.000143139
0.000143202
0.000143259
0.00014331
0.000143355
0.000143395
0.000143429
0.000143459
0.000143485
0.000143505
0.000143522
0.000143534
0.000143542
0.000143546
0.000143546
0.000143542
0.000143534
0.000143522
0.000143505
0.000143485
0.000143459
0.000143429
0.000143395
0.000143355
0.00014331
0.000143259
0.000143202
0.000143139
0.000143069
0.000142993
0.000142909
0.000142818
0.000142718
0.000142611
0.000142495
0.00014237
0.000142236
0.000142093
0.000141941
0.00014178
0.000141613
0.00014144
0.000141269
0.000141107
0.00038227
0.000382685
0.00038312
0.000383556
0.000383981
0.000384387
0.000384771
0.000385132
0.00038547
0.000385786
0.000386079
0.000386351
0.000386601
0.000386832
0.000387043
0.000387237
0.000387412
0.000387571
0.000387715
0.000387843
0.000387957
0.000388058
0.000388146
0.000388221
0.000388285
0.000388337
0.000388379
0.000388409
0.00038843
0.00038844
0.00038844
0.00038843
0.000388409
0.000388379
0.000388337
0.000388285
0.000388221
0.000388146
0.000388058
0.000387957
0.000387843
0.000387715
0.000387571
0.000387412
0.000387237
0.000387043
0.000386832
0.000386601
0.000386351