/*--------------------------------*- C++ -*----------------------------------*\
| =========                 |                                                 |
| \\      /  F ield         | foam-extend: Open Source CFD                    |
|  \\    /   O peration     | Version:     4.0                                |
|   \\  /    A nd           | Web:         http://www.foam-extend.org         |
|    \\/     M anipulation  |                                                 |
\*---------------------------------------------------------------------------*/
FoamFile
{
    version     2.0;
    format      ascii;
    class       volScalarField;
    location    "1070";
    object      cPlus;
}
// * * * * * * * * * * * * * * * * * * * * * * * * * * * * * * * * * * * * * //

dimensions      [0 0 0 0 0 0 0];

internalField   nonuniform List<scalar> 
6960
(
0.28413
0.284101
0.28407
0.284042
0.284018
0.283999
0.283984
0.283972
0.283962
0.283955
0.283949
0.283945
0.283941
0.283939
0.283937
0.283935
0.283934
0.283933
0.283932
0.283932
0.283931
0.283931
0.283931
0.28393
0.28393
0.28393
0.28393
0.28393
0.28393
0.28393
0.28393
0.28393
0.28393
0.28393
0.28393
0.28393
0.28393
0.283931
0.283931
0.283931
0.283932
0.283932
0.283933
0.283934
0.283935
0.283937
0.283939
0.283941
0.283945
0.283949
0.283955
0.283962
0.283972
0.283984
0.283999
0.284018
0.284042
0.28407
0.284101
0.28413
0.080624
0.080608
0.0805903
0.0805746
0.0805613
0.0805505
0.0805419
0.080535
0.0805297
0.0805255
0.0805222
0.0805197
0.0805178
0.0805163
0.0805151
0.0805143
0.0805136
0.080513
0.0805126
0.0805123
0.0805121
0.0805119
0.0805117
0.0805116
0.0805115
0.0805114
0.0805114
0.0805113
0.0805113
0.0805113
0.0805113
0.0805113
0.0805113
0.0805114
0.0805114
0.0805115
0.0805116
0.0805117
0.0805119
0.0805121
0.0805123
0.0805126
0.080513
0.0805136
0.0805143
0.0805151
0.0805163
0.0805178
0.0805197
0.0805222
0.0805255
0.0805297
0.080535
0.0805419
0.0805505
0.0805613
0.0805746
0.0805903
0.080608
0.080624
0.0292151
0.0292093
0.0292024
0.0291962
0.0291909
0.0291866
0.0291832
0.0291804
0.0291783
0.0291766
0.0291753
0.0291743
0.0291735
0.0291729
0.0291724
0.0291721
0.0291718
0.0291716
0.0291714
0.0291713
0.0291712
0.0291711
0.029171
0.029171
0.0291709
0.0291709
0.0291709
0.0291709
0.0291709
0.0291709
0.0291709
0.0291709
0.0291709
0.0291709
0.0291709
0.0291709
0.029171
0.029171
0.0291711
0.0291712
0.0291713
0.0291714
0.0291716
0.0291718
0.0291721
0.0291724
0.0291729
0.0291735
0.0291743
0.0291753
0.0291766
0.0291783
0.0291804
0.0291832
0.0291866
0.0291909
0.0291962
0.0292024
0.0292093
0.0292151
0.0146668
0.0146663
0.0146651
0.0146639
0.0146629
0.014662
0.0146613
0.0146607
0.0146603
0.0146599
0.0146596
0.0146594
0.0146592
0.0146591
0.014659
0.0146589
0.0146589
0.0146588
0.0146588
0.0146587
0.0146587
0.0146587
0.0146587
0.0146587
0.0146587
0.0146586
0.0146586
0.0146586
0.0146586
0.0146586
0.0146586
0.0146586
0.0146586
0.0146586
0.0146586
0.0146587
0.0146587
0.0146587
0.0146587
0.0146587
0.0146587
0.0146588
0.0146588
0.0146589
0.0146589
0.014659
0.0146591
0.0146592
0.0146594
0.0146596
0.0146599
0.0146603
0.0146607
0.0146613
0.014662
0.0146629
0.0146639
0.0146651
0.0146663
0.0146668
0.0105418
0.0105437
0.010545
0.010546
0.0105469
0.0105475
0.010548
0.0105484
0.0105487
0.0105489
0.0105491
0.0105492
0.0105493
0.0105494
0.0105494
0.0105495
0.0105495
0.0105495
0.0105496
0.0105496
0.0105496
0.0105496
0.0105496
0.0105496
0.0105496
0.0105496
0.0105496
0.0105496
0.0105496
0.0105496
0.0105496
0.0105496
0.0105496
0.0105496
0.0105496
0.0105496
0.0105496
0.0105496
0.0105496
0.0105496
0.0105496
0.0105496
0.0105495
0.0105495
0.0105495
0.0105494
0.0105494
0.0105493
0.0105492
0.0105491
0.0105489
0.0105487
0.0105484
0.010548
0.0105475
0.0105469
0.010546
0.010545
0.0105437
0.0105418
0.00944174
0.0094446
0.00944691
0.00944881
0.00945036
0.0094516
0.00945259
0.00945335
0.00945395
0.00945441
0.00945476
0.00945502
0.00945523
0.00945538
0.0094555
0.00945559
0.00945566
0.00945571
0.00945575
0.00945578
0.0094558
0.00945582
0.00945583
0.00945584
0.00945585
0.00945586
0.00945586
0.00945586
0.00945587
0.00945587
0.00945587
0.00945587
0.00945586
0.00945586
0.00945586
0.00945585
0.00945584
0.00945583
0.00945582
0.0094558
0.00945578
0.00945575
0.00945571
0.00945566
0.00945559
0.0094555
0.00945538
0.00945523
0.00945502
0.00945476
0.00945441
0.00945395
0.00945335
0.00945259
0.0094516
0.00945036
0.00944881
0.00944691
0.0094446
0.00944174
0.00920976
0.00921299
0.00921568
0.00921791
0.00921975
0.00922122
0.00922238
0.00922329
0.009224
0.00922455
0.00922497
0.00922529
0.00922553
0.00922572
0.00922586
0.00922597
0.00922605
0.00922611
0.00922616
0.0092262
0.00922623
0.00922625
0.00922626
0.00922628
0.00922629
0.00922629
0.0092263
0.0092263
0.0092263
0.00922631
0.00922631
0.0092263
0.0092263
0.0092263
0.00922629
0.00922629
0.00922628
0.00922626
0.00922625
0.00922623
0.0092262
0.00922616
0.00922611
0.00922605
0.00922597
0.00922586
0.00922572
0.00922553
0.00922529
0.00922497
0.00922455
0.009224
0.00922329
0.00922238
0.00922122
0.00921975
0.00921791
0.00921568
0.00921299
0.00920976
0.00922378
0.00922717
0.00923002
0.00923239
0.00923434
0.00923591
0.00923715
0.00923812
0.00923887
0.00923946
0.0092399
0.00924024
0.00924051
0.0092407
0.00924086
0.00924097
0.00924106
0.00924113
0.00924118
0.00924122
0.00924125
0.00924127
0.00924129
0.00924131
0.00924132
0.00924132
0.00924133
0.00924133
0.00924134
0.00924134
0.00924134
0.00924134
0.00924133
0.00924133
0.00924132
0.00924132
0.00924131
0.00924129
0.00924127
0.00924125
0.00924122
0.00924118
0.00924113
0.00924106
0.00924097
0.00924086
0.0092407
0.00924051
0.00924024
0.0092399
0.00923946
0.00923887
0.00923812
0.00923715
0.00923591
0.00923434
0.00923239
0.00923002
0.00922717
0.00922378
0.0093094
0.00931289
0.00931583
0.00931828
0.00932029
0.00932191
0.00932319
0.00932419
0.00932497
0.00932558
0.00932604
0.00932639
0.00932666
0.00932687
0.00932703
0.00932715
0.00932724
0.00932731
0.00932736
0.00932741
0.00932744
0.00932746
0.00932748
0.00932749
0.00932751
0.00932751
0.00932752
0.00932752
0.00932753
0.00932753
0.00932753
0.00932753
0.00932752
0.00932752
0.00932751
0.00932751
0.00932749
0.00932748
0.00932746
0.00932744
0.00932741
0.00932736
0.00932731
0.00932724
0.00932715
0.00932703
0.00932687
0.00932666
0.00932639
0.00932604
0.00932558
0.00932497
0.00932419
0.00932319
0.00932191
0.00932029
0.00931828
0.00931583
0.00931289
0.0093094
0.00941966
0.00942324
0.00942624
0.00942875
0.00943081
0.00943247
0.00943378
0.00943481
0.00943561
0.00943623
0.0094367
0.00943707
0.00943735
0.00943756
0.00943772
0.00943784
0.00943794
0.00943801
0.00943806
0.00943811
0.00943814
0.00943816
0.00943818
0.0094382
0.00943821
0.00943822
0.00943822
0.00943823
0.00943823
0.00943823
0.00943823
0.00943823
0.00943823
0.00943822
0.00943822
0.00943821
0.0094382
0.00943818
0.00943816
0.00943814
0.00943811
0.00943806
0.00943801
0.00943794
0.00943784
0.00943772
0.00943756
0.00943735
0.00943707
0.0094367
0.00943623
0.00943561
0.00943481
0.00943378
0.00943247
0.00943081
0.00942875
0.00942624
0.00942324
0.00941966
0.00954278
0.00954644
0.00954952
0.00955209
0.0095542
0.00955589
0.00955723
0.00955829
0.00955911
0.00955974
0.00956023
0.0095606
0.00956088
0.0095611
0.00956127
0.00956139
0.00956149
0.00956156
0.00956162
0.00956166
0.0095617
0.00956172
0.00956174
0.00956176
0.00956177
0.00956178
0.00956178
0.00956179
0.00956179
0.00956179
0.00956179
0.00956179
0.00956179
0.00956178
0.00956178
0.00956177
0.00956176
0.00956174
0.00956172
0.0095617
0.00956166
0.00956162
0.00956156
0.00956149
0.00956139
0.00956127
0.0095611
0.00956088
0.0095606
0.00956023
0.00955974
0.00955911
0.00955829
0.00955723
0.00955589
0.0095542
0.00955209
0.00954952
0.00954644
0.00954278
0.00967648
0.00968023
0.00968338
0.00968601
0.00968817
0.0096899
0.00969128
0.00969236
0.0096932
0.00969385
0.00969435
0.00969473
0.00969502
0.00969524
0.00969541
0.00969554
0.00969564
0.00969572
0.00969578
0.00969582
0.00969586
0.00969588
0.0096959
0.00969592
0.00969593
0.00969594
0.00969594
0.00969595
0.00969595
0.00969595
0.00969595
0.00969595
0.00969595
0.00969594
0.00969594
0.00969593
0.00969592
0.0096959
0.00969588
0.00969586
0.00969582
0.00969578
0.00969572
0.00969564
0.00969554
0.00969541
0.00969524
0.00969502
0.00969473
0.00969435
0.00969385
0.0096932
0.00969236
0.00969128
0.0096899
0.00968817
0.00968601
0.00968338
0.00968023
0.00967648
0.00982102
0.00982487
0.00982809
0.00983079
0.009833
0.00983478
0.00983619
0.0098373
0.00983816
0.00983883
0.00983934
0.00983973
0.00984003
0.00984026
0.00984043
0.00984057
0.00984067
0.00984075
0.00984081
0.00984085
0.00984089
0.00984092
0.00984094
0.00984095
0.00984096
0.00984097
0.00984098
0.00984098
0.00984099
0.00984099
0.00984099
0.00984099
0.00984098
0.00984098
0.00984097
0.00984096
0.00984095
0.00984094
0.00984092
0.00984089
0.00984085
0.00984081
0.00984075
0.00984067
0.00984057
0.00984043
0.00984026
0.00984003
0.00983973
0.00983934
0.00983883
0.00983816
0.0098373
0.00983619
0.00983478
0.009833
0.00983079
0.00982809
0.00982487
0.00982102
0.00997742
0.00998138
0.00998469
0.00998746
0.00998973
0.00999156
0.00999301
0.00999415
0.00999503
0.00999572
0.00999624
0.00999664
0.00999695
0.00999719
0.00999737
0.0099975
0.00999761
0.00999769
0.00999775
0.0099978
0.00999783
0.00999786
0.00999788
0.0099979
0.00999791
0.00999792
0.00999793
0.00999793
0.00999794
0.00999794
0.00999794
0.00999794
0.00999793
0.00999793
0.00999792
0.00999791
0.0099979
0.00999788
0.00999786
0.00999783
0.0099978
0.00999775
0.00999769
0.00999761
0.0099975
0.00999737
0.00999719
0.00999695
0.00999664
0.00999624
0.00999572
0.00999503
0.00999415
0.00999301
0.00999156
0.00998973
0.00998746
0.00998469
0.00998138
0.00997742
0.0101471
0.0101511
0.0101546
0.0101574
0.0101597
0.0101616
0.0101631
0.0101643
0.0101652
0.0101659
0.0101664
0.0101669
0.0101672
0.0101674
0.0101676
0.0101677
0.0101678
0.0101679
0.010168
0.010168
0.0101681
0.0101681
0.0101681
0.0101681
0.0101682
0.0101682
0.0101682
0.0101682
0.0101682
0.0101682
0.0101682
0.0101682
0.0101682
0.0101682
0.0101682
0.0101682
0.0101681
0.0101681
0.0101681
0.0101681
0.010168
0.010168
0.0101679
0.0101678
0.0101677
0.0101676
0.0101674
0.0101672
0.0101669
0.0101664
0.0101659
0.0101652
0.0101643
0.0101631
0.0101616
0.0101597
0.0101574
0.0101546
0.0101511
0.0101471
0.0103316
0.0103358
0.0103393
0.0103423
0.0103447
0.0103466
0.0103482
0.0103494
0.0103503
0.010351
0.0103516
0.010352
0.0103524
0.0103526
0.0103528
0.0103529
0.0103531
0.0103531
0.0103532
0.0103533
0.0103533
0.0103533
0.0103534
0.0103534
0.0103534
0.0103534
0.0103534
0.0103534
0.0103534
0.0103534
0.0103534
0.0103534
0.0103534
0.0103534
0.0103534
0.0103534
0.0103534
0.0103534
0.0103533
0.0103533
0.0103533
0.0103532
0.0103531
0.0103531
0.0103529
0.0103528
0.0103526
0.0103524
0.010352
0.0103516
0.010351
0.0103503
0.0103494
0.0103482
0.0103466
0.0103447
0.0103423
0.0103393
0.0103358
0.0103316
0.0105331
0.0105374
0.010541
0.0105441
0.0105466
0.0105486
0.0105502
0.0105514
0.0105524
0.0105531
0.0105537
0.0105542
0.0105545
0.0105548
0.010555
0.0105551
0.0105552
0.0105553
0.0105554
0.0105554
0.0105555
0.0105555
0.0105555
0.0105555
0.0105556
0.0105556
0.0105556
0.0105556
0.0105556
0.0105556
0.0105556
0.0105556
0.0105556
0.0105556
0.0105556
0.0105556
0.0105555
0.0105555
0.0105555
0.0105555
0.0105554
0.0105554
0.0105553
0.0105552
0.0105551
0.010555
0.0105548
0.0105545
0.0105542
0.0105537
0.0105531
0.0105524
0.0105514
0.0105502
0.0105486
0.0105466
0.0105441
0.010541
0.0105374
0.0105331
0.0107537
0.0107582
0.010762
0.0107651
0.0107677
0.0107698
0.0107715
0.0107728
0.0107738
0.0107745
0.0107751
0.0107756
0.010776
0.0107762
0.0107764
0.0107766
0.0107767
0.0107768
0.0107769
0.0107769
0.010777
0.010777
0.010777
0.010777
0.0107771
0.0107771
0.0107771
0.0107771
0.0107771
0.0107771
0.0107771
0.0107771
0.0107771
0.0107771
0.0107771
0.0107771
0.010777
0.010777
0.010777
0.010777
0.0107769
0.0107769
0.0107768
0.0107767
0.0107766
0.0107764
0.0107762
0.010776
0.0107756
0.0107751
0.0107745
0.0107738
0.0107728
0.0107715
0.0107698
0.0107677
0.0107651
0.010762
0.0107582
0.0107537
0.0109965
0.0110012
0.0110051
0.0110083
0.011011
0.0110132
0.0110149
0.0110162
0.0110173
0.0110181
0.0110187
0.0110192
0.0110196
0.0110199
0.0110201
0.0110202
0.0110204
0.0110205
0.0110205
0.0110206
0.0110206
0.0110207
0.0110207
0.0110207
0.0110207
0.0110207
0.0110207
0.0110208
0.0110208
0.0110208
0.0110208
0.0110208
0.0110208
0.0110207
0.0110207
0.0110207
0.0110207
0.0110207
0.0110207
0.0110206
0.0110206
0.0110205
0.0110205
0.0110204
0.0110202
0.0110201
0.0110199
0.0110196
0.0110192
0.0110187
0.0110181
0.0110173
0.0110162
0.0110149
0.0110132
0.011011
0.0110083
0.0110051
0.0110012
0.0109965
0.0112647
0.0112696
0.0112737
0.0112771
0.0112799
0.0112822
0.011284
0.0112854
0.0112865
0.0112873
0.011288
0.0112885
0.0112888
0.0112891
0.0112894
0.0112895
0.0112897
0.0112898
0.0112898
0.0112899
0.0112899
0.01129
0.01129
0.01129
0.01129
0.0112901
0.0112901
0.0112901
0.0112901
0.0112901
0.0112901
0.0112901
0.0112901
0.0112901
0.0112901
0.01129
0.01129
0.01129
0.01129
0.0112899
0.0112899
0.0112898
0.0112898
0.0112897
0.0112895
0.0112894
0.0112891
0.0112888
0.0112885
0.011288
0.0112873
0.0112865
0.0112854
0.011284
0.0112822
0.0112799
0.0112771
0.0112737
0.0112696
0.0112647
0.0115627
0.0115679
0.0115721
0.0115757
0.0115786
0.011581
0.0115829
0.0115844
0.0115855
0.0115864
0.0115871
0.0115876
0.011588
0.0115883
0.0115885
0.0115887
0.0115889
0.011589
0.0115891
0.0115891
0.0115892
0.0115892
0.0115892
0.0115892
0.0115893
0.0115893
0.0115893
0.0115893
0.0115893
0.0115893
0.0115893
0.0115893
0.0115893
0.0115893
0.0115893
0.0115893
0.0115892
0.0115892
0.0115892
0.0115892
0.0115891
0.0115891
0.011589
0.0115889
0.0115887
0.0115885
0.0115883
0.011588
0.0115876
0.0115871
0.0115864
0.0115855
0.0115844
0.0115829
0.011581
0.0115786
0.0115757
0.0115721
0.0115679
0.0115627
0.0118957
0.0119011
0.0119056
0.0119094
0.0119125
0.011915
0.011917
0.0119185
0.0119197
0.0119207
0.0119214
0.0119219
0.0119223
0.0119227
0.0119229
0.0119231
0.0119233
0.0119234
0.0119234
0.0119235
0.0119236
0.0119236
0.0119236
0.0119237
0.0119237
0.0119237
0.0119237
0.0119237
0.0119237
0.0119237
0.0119237
0.0119237
0.0119237
0.0119237
0.0119237
0.0119237
0.0119237
0.0119236
0.0119236
0.0119236
0.0119235
0.0119234
0.0119234
0.0119233
0.0119231
0.0119229
0.0119227
0.0119223
0.0119219
0.0119214
0.0119207
0.0119197
0.0119185
0.011917
0.011915
0.0119125
0.0119094
0.0119056
0.0119011
0.0118957
0.0122704
0.0122761
0.0122809
0.0122848
0.0122881
0.0122907
0.0122928
0.0122945
0.0122957
0.0122967
0.0122975
0.0122981
0.0122985
0.0122989
0.0122991
0.0122993
0.0122995
0.0122996
0.0122997
0.0122998
0.0122998
0.0122999
0.0122999
0.0122999
0.0122999
0.0123
0.0123
0.0123
0.0123
0.0123
0.0123
0.0123
0.0123
0.0123
0.0123
0.0122999
0.0122999
0.0122999
0.0122999
0.0122998
0.0122998
0.0122997
0.0122996
0.0122995
0.0122993
0.0122991
0.0122989
0.0122985
0.0122981
0.0122975
0.0122967
0.0122957
0.0122945
0.0122928
0.0122907
0.0122881
0.0122848
0.0122809
0.0122761
0.0122704
0.0126951
0.0127012
0.0127063
0.0127105
0.012714
0.0127168
0.012719
0.0127208
0.0127221
0.0127232
0.012724
0.0127246
0.0127251
0.0127255
0.0127257
0.012726
0.0127261
0.0127262
0.0127263
0.0127264
0.0127265
0.0127265
0.0127265
0.0127266
0.0127266
0.0127266
0.0127266
0.0127266
0.0127266
0.0127266
0.0127266
0.0127266
0.0127266
0.0127266
0.0127266
0.0127266
0.0127266
0.0127265
0.0127265
0.0127265
0.0127264
0.0127263
0.0127262
0.0127261
0.012726
0.0127257
0.0127255
0.0127251
0.0127246
0.012724
0.0127232
0.0127221
0.0127208
0.012719
0.0127168
0.012714
0.0127105
0.0127063
0.0127012
0.0126951
0.0131809
0.0131875
0.0131929
0.0131975
0.0132012
0.0132042
0.0132066
0.0132085
0.0132099
0.0132111
0.0132119
0.0132126
0.0132131
0.0132135
0.0132138
0.013214
0.0132142
0.0132144
0.0132145
0.0132145
0.0132146
0.0132146
0.0132147
0.0132147
0.0132147
0.0132147
0.0132148
0.0132148
0.0132148
0.0132148
0.0132148
0.0132148
0.0132148
0.0132148
0.0132147
0.0132147
0.0132147
0.0132147
0.0132146
0.0132146
0.0132145
0.0132145
0.0132144
0.0132142
0.013214
0.0132138
0.0132135
0.0132131
0.0132126
0.0132119
0.0132111
0.0132099
0.0132085
0.0132066
0.0132042
0.0132012
0.0131975
0.0131929
0.0131875
0.0131809
0.0137425
0.0137496
0.0137554
0.0137604
0.0137644
0.0137677
0.0137702
0.0137723
0.0137739
0.0137751
0.013776
0.0137768
0.0137773
0.0137777
0.0137781
0.0137783
0.0137785
0.0137787
0.0137788
0.0137789
0.0137789
0.013779
0.013779
0.013779
0.0137791
0.0137791
0.0137791
0.0137791
0.0137791
0.0137791
0.0137791
0.0137791
0.0137791
0.0137791
0.0137791
0.0137791
0.013779
0.013779
0.013779
0.0137789
0.0137789
0.0137788
0.0137787
0.0137785
0.0137783
0.0137781
0.0137777
0.0137773
0.0137768
0.013776
0.0137751
0.0137739
0.0137723
0.0137702
0.0137677
0.0137644
0.0137604
0.0137554
0.0137496
0.0137425
0.0143996
0.0144073
0.0144137
0.0144191
0.0144235
0.0144271
0.0144299
0.0144322
0.0144339
0.0144352
0.0144363
0.0144371
0.0144377
0.0144381
0.0144385
0.0144388
0.014439
0.0144391
0.0144393
0.0144394
0.0144394
0.0144395
0.0144395
0.0144396
0.0144396
0.0144396
0.0144396
0.0144396
0.0144396
0.0144396
0.0144396
0.0144396
0.0144396
0.0144396
0.0144396
0.0144396
0.0144396
0.0144395
0.0144395
0.0144394
0.0144394
0.0144393
0.0144391
0.014439
0.0144388
0.0144385
0.0144381
0.0144377
0.0144371
0.0144363
0.0144352
0.0144339
0.0144322
0.0144299
0.0144271
0.0144235
0.0144191
0.0144137
0.0144073
0.0143996
0.0151797
0.0151883
0.0151954
0.0152014
0.0152063
0.0152102
0.0152134
0.0152159
0.0152178
0.0152193
0.0152204
0.0152213
0.015222
0.0152225
0.0152229
0.0152232
0.0152234
0.0152236
0.0152238
0.0152239
0.0152239
0.015224
0.015224
0.0152241
0.0152241
0.0152241
0.0152241
0.0152242
0.0152242
0.0152242
0.0152242
0.0152242
0.0152242
0.0152241
0.0152241
0.0152241
0.0152241
0.015224
0.015224
0.0152239
0.0152239
0.0152238
0.0152236
0.0152234
0.0152232
0.0152229
0.0152225
0.015222
0.0152213
0.0152204
0.0152193
0.0152178
0.0152159
0.0152134
0.0152102
0.0152063
0.0152014
0.0151954
0.0151883
0.0151797
0.0161224
0.016132
0.0161401
0.0161468
0.0161523
0.0161568
0.0161603
0.0161631
0.0161653
0.016167
0.0161683
0.0161693
0.01617
0.0161706
0.0161711
0.0161714
0.0161717
0.0161719
0.016172
0.0161721
0.0161722
0.0161723
0.0161723
0.0161724
0.0161724
0.0161724
0.0161725
0.0161725
0.0161725
0.0161725
0.0161725
0.0161725
0.0161725
0.0161725
0.0161724
0.0161724
0.0161724
0.0161723
0.0161723
0.0161722
0.0161721
0.016172
0.0161719
0.0161717
0.0161714
0.0161711
0.0161706
0.01617
0.0161693
0.0161683
0.016167
0.0161653
0.0161631
0.0161603
0.0161568
0.0161523
0.0161468
0.0161401
0.016132
0.0161224
0.0172854
0.0172965
0.0173057
0.0173134
0.0173198
0.0173249
0.017329
0.0173322
0.0173347
0.0173367
0.0173382
0.0173393
0.0173402
0.0173409
0.0173414
0.0173418
0.0173421
0.0173423
0.0173425
0.0173426
0.0173427
0.0173428
0.0173429
0.0173429
0.017343
0.017343
0.017343
0.017343
0.017343
0.017343
0.017343
0.017343
0.017343
0.017343
0.017343
0.017343
0.0173429
0.0173429
0.0173428
0.0173427
0.0173426
0.0173425
0.0173423
0.0173421
0.0173418
0.0173414
0.0173409
0.0173402
0.0173393
0.0173382
0.0173367
0.0173347
0.0173322
0.017329
0.0173249
0.0173198
0.0173134
0.0173057
0.0172965
0.0172854
0.0187554
0.0187684
0.0187793
0.0187884
0.0187959
0.018802
0.0188068
0.0188106
0.0188136
0.0188159
0.0188177
0.018819
0.0188201
0.0188209
0.0188215
0.0188219
0.0188223
0.0188226
0.0188228
0.0188229
0.0188231
0.0188231
0.0188232
0.0188233
0.0188233
0.0188233
0.0188234
0.0188234
0.0188234
0.0188234
0.0188234
0.0188234
0.0188234
0.0188234
0.0188233
0.0188233
0.0188233
0.0188232
0.0188231
0.0188231
0.0188229
0.0188228
0.0188226
0.0188223
0.0188219
0.0188215
0.0188209
0.0188201
0.018819
0.0188177
0.0188159
0.0188136
0.0188106
0.0188068
0.018802
0.0187959
0.0187884
0.0187793
0.0187684
0.0187554
0.0206623
0.020678
0.0206912
0.0207023
0.0207115
0.0207188
0.0207247
0.0207293
0.0207329
0.0207357
0.0207379
0.0207395
0.0207408
0.0207418
0.0207425
0.0207431
0.0207435
0.0207438
0.0207441
0.0207443
0.0207444
0.0207445
0.0207446
0.0207447
0.0207447
0.0207448
0.0207448
0.0207448
0.0207448
0.0207449
0.0207449
0.0207448
0.0207448
0.0207448
0.0207448
0.0207447
0.0207447
0.0207446
0.0207445
0.0207444
0.0207443
0.0207441
0.0207438
0.0207435
0.0207431
0.0207425
0.0207418
0.0207408
0.0207395
0.0207379
0.0207357
0.0207329
0.0207293
0.0207247
0.0207188
0.0207115
0.0207023
0.0206912
0.020678
0.0206623
0.0231947
0.0232142
0.0232307
0.0232446
0.023256
0.0232652
0.0232726
0.0232783
0.0232828
0.0232863
0.023289
0.0232911
0.0232927
0.0232939
0.0232948
0.0232955
0.0232961
0.0232965
0.0232968
0.0232971
0.0232972
0.0232974
0.0232975
0.0232976
0.0232976
0.0232977
0.0232977
0.0232978
0.0232978
0.0232978
0.0232978
0.0232978
0.0232978
0.0232977
0.0232977
0.0232976
0.0232976
0.0232975
0.0232974
0.0232972
0.0232971
0.0232968
0.0232965
0.0232961
0.0232955
0.0232948
0.0232939
0.0232927
0.0232911
0.023289
0.0232863
0.0232828
0.0232783
0.0232726
0.0232652
0.023256
0.0232446
0.0232307
0.0232142
0.0231947
0.0266051
0.0266299
0.0266509
0.0266686
0.0266832
0.026695
0.0267043
0.0267117
0.0267175
0.026722
0.0267254
0.0267281
0.0267301
0.0267317
0.0267328
0.0267338
0.0267344
0.026735
0.0267354
0.0267357
0.0267359
0.0267361
0.0267363
0.0267364
0.0267364
0.0267365
0.0267366
0.0267366
0.0267366
0.0267366
0.0267366
0.0267366
0.0267366
0.0267366
0.0267365
0.0267364
0.0267364
0.0267363
0.0267361
0.0267359
0.0267357
0.0267354
0.026735
0.0267344
0.0267338
0.0267328
0.0267317
0.0267301
0.0267281
0.0267254
0.026722
0.0267175
0.0267117
0.0267043
0.026695
0.0266832
0.0266686
0.0266509
0.0266299
0.0266051
0.0311849
0.0312166
0.0312436
0.0312664
0.0312851
0.0313003
0.0313123
0.0313218
0.0313293
0.031335
0.0313395
0.0313429
0.0313455
0.0313475
0.031349
0.0313502
0.0313511
0.0313518
0.0313523
0.0313527
0.031353
0.0313532
0.0313534
0.0313536
0.0313537
0.0313537
0.0313538
0.0313538
0.0313539
0.0313539
0.0313539
0.0313539
0.0313538
0.0313538
0.0313537
0.0313537
0.0313536
0.0313534
0.0313532
0.031353
0.0313527
0.0313523
0.0313518
0.0313511
0.0313502
0.031349
0.0313475
0.0313455
0.0313429
0.0313395
0.031335
0.0313293
0.0313218
0.0313123
0.0313003
0.0312851
0.0312664
0.0312436
0.0312166
0.0311849
0.0371939
0.0372341
0.0372684
0.0372973
0.0373211
0.0373404
0.0373557
0.0373678
0.0373772
0.0373846
0.0373902
0.0373945
0.0373979
0.0374004
0.0374024
0.0374039
0.037405
0.0374059
0.0374066
0.0374071
0.0374075
0.0374078
0.037408
0.0374082
0.0374083
0.0374084
0.0374085
0.0374085
0.0374086
0.0374086
0.0374086
0.0374086
0.0374085
0.0374085
0.0374084
0.0374083
0.0374082
0.037408
0.0374078
0.0374075
0.0374071
0.0374066
0.0374059
0.037405
0.0374039
0.0374024
0.0374004
0.0373979
0.0373945
0.0373902
0.0373846
0.0373772
0.0373678
0.0373557
0.0373404
0.0373211
0.0372973
0.0372684
0.0372341
0.0371939
0.0447632
0.044813
0.0448553
0.044891
0.0449204
0.0449441
0.0449631
0.044978
0.0449897
0.0449987
0.0450057
0.0450111
0.0450152
0.0450184
0.0450208
0.0450227
0.0450241
0.0450252
0.045026
0.0450267
0.0450272
0.0450276
0.0450278
0.0450281
0.0450282
0.0450284
0.0450285
0.0450285
0.0450286
0.0450286
0.0450286
0.0450286
0.0450285
0.0450285
0.0450284
0.0450282
0.0450281
0.0450278
0.0450276
0.0450272
0.0450267
0.045026
0.0450252
0.0450241
0.0450227
0.0450208
0.0450184
0.0450152
0.0450111
0.0450057
0.0449987
0.0449897
0.044978
0.0449631
0.0449441
0.0449204
0.044891
0.0448553
0.044813
0.0447632
0.0538311
0.0538906
0.0539411
0.0539836
0.0540186
0.0540468
0.0540694
0.0540872
0.0541012
0.054112
0.0541204
0.0541268
0.0541317
0.0541355
0.0541385
0.0541407
0.0541424
0.0541437
0.0541447
0.0541455
0.0541461
0.0541466
0.0541469
0.0541472
0.0541474
0.0541475
0.0541476
0.0541477
0.0541478
0.0541478
0.0541478
0.0541478
0.0541477
0.0541476
0.0541475
0.0541474
0.0541472
0.0541469
0.0541466
0.0541461
0.0541455
0.0541447
0.0541437
0.0541424
0.0541407
0.0541385
0.0541355
0.0541317
0.0541268
0.0541204
0.054112
0.0541012
0.0540872
0.0540694
0.0540468
0.0540186
0.0539836
0.0539411
0.0538906
0.0538311
0.0641659
0.0642346
0.0642929
0.0643417
0.0643819
0.0644145
0.0644405
0.064461
0.0644771
0.0644896
0.0644993
0.0645067
0.0645125
0.0645169
0.0645203
0.0645229
0.0645249
0.0645264
0.0645276
0.0645285
0.0645292
0.0645297
0.0645301
0.0645304
0.0645307
0.0645309
0.064531
0.0645311
0.0645311
0.0645312
0.0645312
0.0645311
0.0645311
0.064531
0.0645309
0.0645307
0.0645304
0.0645301
0.0645297
0.0645292
0.0645285
0.0645276
0.0645264
0.0645249
0.0645229
0.0645203
0.0645169
0.0645125
0.0645067
0.0644993
0.0644896
0.0644771
0.064461
0.0644405
0.0644145
0.0643819
0.0643417
0.0642929
0.0642346
0.0641659
0.0754608
0.075538
0.0756032
0.0756579
0.0757029
0.0757393
0.0757684
0.0757914
0.0758095
0.0758235
0.0758344
0.0758428
0.0758493
0.0758543
0.0758581
0.075861
0.0758633
0.075865
0.0758664
0.0758674
0.0758682
0.0758688
0.0758693
0.0758696
0.0758699
0.0758701
0.0758703
0.0758704
0.0758704
0.0758705
0.0758705
0.0758704
0.0758704
0.0758703
0.0758701
0.0758699
0.0758696
0.0758693
0.0758688
0.0758682
0.0758674
0.0758664
0.075865
0.0758633
0.075861
0.0758581
0.0758543
0.0758493
0.0758428
0.0758344
0.0758235
0.0758095
0.0757914
0.0757684
0.0757393
0.0757029
0.0756579
0.0756032
0.075538
0.0754608
0.0874317
0.0875166
0.0875882
0.0876481
0.0876974
0.0877373
0.0877693
0.0877946
0.0878145
0.0878299
0.087842
0.0878512
0.0878584
0.0878639
0.0878682
0.0878714
0.087874
0.0878759
0.0878774
0.0878786
0.0878794
0.0878801
0.0878807
0.0878811
0.0878814
0.0878816
0.0878818
0.0878819
0.087882
0.087882
0.087882
0.087882
0.0878819
0.0878818
0.0878816
0.0878814
0.0878811
0.0878807
0.0878801
0.0878794
0.0878786
0.0878774
0.0878759
0.087874
0.0878714
0.0878682
0.0878639
0.0878584
0.0878512
0.087842
0.0878299
0.0878145
0.0877946
0.0877693
0.0877373
0.0876974
0.0876481
0.0875882
0.0875166
0.0874317
0.0998672
0.0999592
0.100037
0.100101
0.100155
0.100198
0.100233
0.10026
0.100282
0.100299
0.100312
0.100322
0.10033
0.100336
0.10034
0.100344
0.100347
0.100349
0.10035
0.100352
0.100353
0.100354
0.100354
0.100355
0.100355
0.100355
0.100355
0.100355
0.100356
0.100356
0.100356
0.100356
0.100355
0.100355
0.100355
0.100355
0.100355
0.100354
0.100354
0.100353
0.100352
0.10035
0.100349
0.100347
0.100344
0.10034
0.100336
0.10033
0.100322
0.100312
0.100299
0.100282
0.10026
0.100233
0.100198
0.100155
0.100101
0.100037
0.0999592
0.0998672
0.11263
0.112729
0.112812
0.112882
0.112939
0.112985
0.113022
0.113052
0.113075
0.113093
0.113108
0.113119
0.113127
0.113134
0.113139
0.113143
0.113146
0.113148
0.11315
0.113151
0.113152
0.113153
0.113154
0.113154
0.113155
0.113155
0.113155
0.113155
0.113155
0.113155
0.113155
0.113155
0.113155
0.113155
0.113155
0.113155
0.113154
0.113154
0.113153
0.113152
0.113151
0.11315
0.113148
0.113146
0.113143
0.113139
0.113134
0.113127
0.113119
0.113108
0.113093
0.113075
0.113052
0.113022
0.112985
0.112939
0.112882
0.112812
0.112729
0.11263
0.125639
0.125744
0.125832
0.125906
0.125967
0.126017
0.126056
0.126088
0.126113
0.126132
0.126148
0.12616
0.126169
0.126176
0.126181
0.126186
0.126189
0.126191
0.126193
0.126195
0.126196
0.126197
0.126198
0.126198
0.126199
0.126199
0.126199
0.126199
0.1262
0.1262
0.1262
0.1262
0.126199
0.126199
0.126199
0.126199
0.126198
0.126198
0.126197
0.126196
0.126195
0.126193
0.126191
0.126189
0.126186
0.126181
0.126176
0.126169
0.12616
0.126148
0.126132
0.126113
0.126088
0.126056
0.126017
0.125967
0.125906
0.125832
0.125744
0.125639
0.138842
0.138953
0.139047
0.139125
0.13919
0.139242
0.139285
0.139318
0.139345
0.139366
0.139382
0.139395
0.139405
0.139412
0.139418
0.139423
0.139427
0.139429
0.139431
0.139433
0.139434
0.139435
0.139436
0.139437
0.139437
0.139438
0.139438
0.139438
0.139438
0.139438
0.139438
0.139438
0.139438
0.139438
0.139438
0.139437
0.139437
0.139436
0.139435
0.139434
0.139433
0.139431
0.139429
0.139427
0.139423
0.139418
0.139412
0.139405
0.139395
0.139382
0.139366
0.139345
0.139318
0.139285
0.139242
0.13919
0.139125
0.139047
0.138953
0.138842
0.152207
0.152325
0.152424
0.152507
0.152575
0.15263
0.152675
0.152711
0.152739
0.152761
0.152779
0.152792
0.152803
0.152811
0.152818
0.152823
0.152826
0.152829
0.152832
0.152834
0.152835
0.152836
0.152837
0.152838
0.152838
0.152838
0.152839
0.152839
0.152839
0.152839
0.152839
0.152839
0.152839
0.152839
0.152838
0.152838
0.152838
0.152837
0.152836
0.152835
0.152834
0.152832
0.152829
0.152826
0.152823
0.152818
0.152811
0.152803
0.152792
0.152779
0.152761
0.152739
0.152711
0.152675
0.15263
0.152575
0.152507
0.152424
0.152325
0.152207
0.165713
0.165836
0.16594
0.166027
0.166099
0.166158
0.166205
0.166243
0.166273
0.166296
0.166315
0.166329
0.166341
0.16635
0.166356
0.166362
0.166366
0.166369
0.166372
0.166374
0.166375
0.166376
0.166377
0.166378
0.166378
0.166379
0.166379
0.166379
0.16638
0.16638
0.16638
0.16638
0.166379
0.166379
0.166379
0.166378
0.166378
0.166377
0.166376
0.166375
0.166374
0.166372
0.166369
0.166366
0.166362
0.166356
0.16635
0.166341
0.166329
0.166315
0.166296
0.166273
0.166243
0.166205
0.166158
0.166099
0.166027
0.16594
0.165836
0.165713
0.17934
0.179469
0.179578
0.179669
0.179745
0.179806
0.179856
0.179896
0.179928
0.179953
0.179973
0.179988
0.18
0.18001
0.180017
0.180023
0.180027
0.18003
0.180033
0.180035
0.180037
0.180038
0.180039
0.18004
0.180041
0.180041
0.180041
0.180042
0.180042
0.180042
0.180042
0.180042
0.180042
0.180041
0.180041
0.180041
0.18004
0.180039
0.180038
0.180037
0.180035
0.180033
0.18003
0.180027
0.180023
0.180017
0.18001
0.18
0.179988
0.179973
0.179953
0.179928
0.179896
0.179856
0.179806
0.179745
0.179669
0.179578
0.179469
0.17934
0.193074
0.193209
0.193323
0.193418
0.193497
0.193562
0.193614
0.193656
0.19369
0.193716
0.193737
0.193754
0.193766
0.193776
0.193784
0.19379
0.193795
0.193799
0.193802
0.193804
0.193806
0.193807
0.193808
0.193809
0.19381
0.19381
0.193811
0.193811
0.193811
0.193811
0.193811
0.193811
0.193811
0.193811
0.19381
0.19381
0.193809
0.193808
0.193807
0.193806
0.193804
0.193802
0.193799
0.193795
0.19379
0.193784
0.193776
0.193766
0.193754
0.193737
0.193716
0.19369
0.193656
0.193614
0.193562
0.193497
0.193418
0.193323
0.193209
0.193074
0.206902
0.207042
0.207161
0.20726
0.207343
0.207411
0.207466
0.20751
0.207545