/*--------------------------------*- C++ -*----------------------------------*\
| =========                 |                                                 |
| \\      /  F ield         | foam-extend: Open Source CFD                    |
|  \\    /   O peration     | Version:     4.0                                |
|   \\  /    A nd           | Web:         http://www.foam-extend.org         |
|    \\/     M anipulation  |                                                 |
\*---------------------------------------------------------------------------*/
FoamFile
{
    version     2.0;
    format      ascii;
    class       volScalarField;
    location    "1070";
    object      psiE;
}
// * * * * * * * * * * * * * * * * * * * * * * * * * * * * * * * * * * * * * //

dimensions      [0 0 0 0 0 0 0];

internalField   nonuniform List<scalar> 
6960
(
0.359969
0.359985
0.360002
0.360017
0.360029
0.360039
0.360048
0.360054
0.36006
0.360064
0.360067
0.360069
0.360071
0.360073
0.360074
0.360075
0.360076
0.360077
0.360077
0.360078
0.360078
0.360079
0.360079
0.360079
0.360079
0.360079
0.360079
0.360079
0.36008
0.36008
0.36008
0.36008
0.360079
0.360079
0.360079
0.360079
0.360079
0.360079
0.360079
0.360078
0.360078
0.360077
0.360077
0.360076
0.360075
0.360074
0.360073
0.360071
0.360069
0.360067
0.360064
0.36006
0.360054
0.360048
0.360039
0.360029
0.360017
0.360002
0.359985
0.359969
0.937569
0.937632
0.937699
0.93776
0.93781
0.937852
0.937885
0.937911
0.937932
0.937949
0.937962
0.937972
0.93798
0.937986
0.937991
0.937995
0.937998
0.938
0.938003
0.938004
0.938006
0.938007
0.938008
0.938008
0.938009
0.938009
0.93801
0.93801
0.93801
0.93801
0.93801
0.93801
0.93801
0.93801
0.938009
0.938009
0.938008
0.938008
0.938007
0.938006
0.938004
0.938003
0.938
0.937998
0.937995
0.937991
0.937986
0.93798
0.937972
0.937962
0.937949
0.937932
0.937911
0.937885
0.937852
0.93781
0.93776
0.937699
0.937632
0.937569
1.4864
1.48652
1.48665
1.48677
1.48687
1.48695
1.48701
1.48706
1.4871
1.48713
1.48716
1.48718
1.48719
1.4872
1.48721
1.48722
1.48723
1.48723
1.48724
1.48724
1.48724
1.48724
1.48724
1.48725
1.48725
1.48725
1.48725
1.48725
1.48725
1.48725
1.48725
1.48725
1.48725
1.48725
1.48725
1.48725
1.48725
1.48724
1.48724
1.48724
1.48724
1.48724
1.48723
1.48723
1.48722
1.48721
1.4872
1.48719
1.48718
1.48716
1.48713
1.4871
1.48706
1.48701
1.48695
1.48687
1.48677
1.48665
1.48652
1.4864
2.03398
2.03417
2.03437
2.03455
2.03469
2.03482
2.03491
2.03499
2.03505
2.0351
2.03514
2.03517
2.03519
2.03521
2.03522
2.03523
2.03524
2.03525
2.03526
2.03526
2.03526
2.03527
2.03527
2.03527
2.03527
2.03528
2.03528
2.03528
2.03528
2.03528
2.03528
2.03528
2.03528
2.03528
2.03528
2.03527
2.03527
2.03527
2.03527
2.03526
2.03526
2.03526
2.03525
2.03524
2.03523
2.03522
2.03521
2.03519
2.03517
2.03514
2.0351
2.03505
2.03499
2.03491
2.03482
2.03469
2.03455
2.03437
2.03417
2.03398
2.58856
2.58882
2.58909
2.58933
2.58953
2.58969
2.58983
2.58993
2.59002
2.59008
2.59013
2.59017
2.5902
2.59023
2.59025
2.59026
2.59028
2.59028
2.59029
2.5903
2.5903
2.59031
2.59031
2.59031
2.59032
2.59032
2.59032
2.59032
2.59032
2.59032
2.59032
2.59032
2.59032
2.59032
2.59032
2.59032
2.59031
2.59031
2.59031
2.5903
2.5903
2.59029
2.59028
2.59028
2.59026
2.59025
2.59023
2.5902
2.59017
2.59013
2.59008
2.59002
2.58993
2.58983
2.58969
2.58953
2.58933
2.58909
2.58882
2.58856
3.15259
3.15291
3.15325
3.15356
3.15382
3.15403
3.15419
3.15433
3.15443
3.15452
3.15458
3.15463
3.15467
3.1547
3.15473
3.15475
3.15476
3.15478
3.15479
3.15479
3.1548
3.15481
3.15481
3.15481
3.15482
3.15482
3.15482
3.15482
3.15482
3.15482
3.15482
3.15482
3.15482
3.15482
3.15482
3.15482
3.15481
3.15481
3.15481
3.1548
3.15479
3.15479
3.15478
3.15476
3.15475
3.15473
3.1547
3.15467
3.15463
3.15458
3.15452
3.15443
3.15433
3.15419
3.15403
3.15382
3.15356
3.15325
3.15291
3.15259
3.72671
3.72709
3.72751
3.72788
3.72819
3.72845
3.72865
3.72882
3.72895
3.72905
3.72913
3.72919
3.72924
3.72927
3.7293
3.72933
3.72935
3.72936
3.72937
3.72938
3.72939
3.7294
3.7294
3.72941
3.72941
3.72941
3.72941
3.72942
3.72942
3.72942
3.72942
3.72942
3.72942
3.72941
3.72941
3.72941
3.72941
3.7294
3.7294
3.72939
3.72938
3.72937
3.72936
3.72935
3.72933
3.7293
3.72927
3.72924
3.72919
3.72913
3.72905
3.72895
3.72882
3.72865
3.72845
3.72819
3.72788
3.72751
3.72709
3.72671
4.31098
4.31143
4.31192
4.31236
4.31273
4.31303
4.31327
4.31346
4.31361
4.31373
4.31382
4.3139
4.31395
4.314
4.31403
4.31406
4.31408
4.3141
4.31412
4.31413
4.31414
4.31414
4.31415
4.31415
4.31416
4.31416
4.31416
4.31417
4.31417
4.31417
4.31417
4.31417
4.31417
4.31416
4.31416
4.31416
4.31415
4.31415
4.31414
4.31414
4.31413
4.31412
4.3141
4.31408
4.31406
4.31403
4.314
4.31395
4.3139
4.31382
4.31373
4.31361
4.31346
4.31327
4.31303
4.31273
4.31236
4.31192
4.31143
4.31098
4.90527
4.90579
4.90635
4.90685
4.90728
4.90762
4.9079
4.90812
4.9083
4.90843
4.90854
4.90862
4.90869
4.90874
4.90878
4.90881
4.90884
4.90886
4.90887
4.90889
4.9089
4.90891
4.90891
4.90892
4.90892
4.90893
4.90893
4.90893
4.90893
4.90893
4.90893
4.90893
4.90893
4.90893
4.90893
4.90892
4.90892
4.90891
4.90891
4.9089
4.90889
4.90887
4.90886
4.90884
4.90881
4.90878
4.90874
4.90869
4.90862
4.90854
4.90843
4.9083
4.90812
4.9079
4.90762
4.90728
4.90685
4.90635
4.90579
4.90527
5.50934
5.50993
5.51056
5.51113
5.51161
5.512
5.51232
5.51257
5.51276
5.51292
5.51304
5.51313
5.51321
5.51327
5.51331
5.51335
5.51338
5.5134
5.51342
5.51343
5.51344
5.51345
5.51346
5.51347
5.51347
5.51348
5.51348
5.51348
5.51349
5.51349
5.51349
5.51349
5.51348
5.51348
5.51348
5.51347
5.51347
5.51346
5.51345
5.51344
5.51343
5.51342
5.5134
5.51338
5.51335
5.51331
5.51327
5.51321
5.51313
5.51304
5.51292
5.51276
5.51257
5.51232
5.512
5.51161
5.51113
5.51056
5.50993
5.50934
6.1229
6.12355
6.12426
6.12489
6.12543
6.12586
6.12621
6.12649
6.12671
6.12689
6.12702
6.12713
6.12721
6.12727
6.12733
6.12737
6.1274
6.12742
6.12744
6.12746
6.12747
6.12749
6.12749
6.1275
6.12751
6.12751
6.12752
6.12752
6.12752
6.12752
6.12752
6.12752
6.12752
6.12752
6.12751
6.12751
6.1275
6.12749
6.12749
6.12747
6.12746
6.12744
6.12742
6.1274
6.12737
6.12733
6.12727
6.12721
6.12713
6.12702
6.12689
6.12671
6.12649
6.12621
6.12586
6.12543
6.12489
6.12426
6.12355
6.1229
6.74558
6.74629
6.74708
6.74778
6.74837
6.74885
6.74923
6.74954
6.74978
6.74997
6.75012
6.75024
6.75033
6.7504
6.75046
6.7505
6.75054
6.75057
6.75059
6.75061
6.75062
6.75064
6.75065
6.75065
6.75066
6.75067
6.75067
6.75067
6.75067
6.75068
6.75068
6.75067
6.75067
6.75067
6.75067
6.75066
6.75065
6.75065
6.75064
6.75062
6.75061
6.75059
6.75057
6.75054
6.7505
6.75046
6.7504
6.75033
6.75024
6.75012
6.74997
6.74978
6.74954
6.74923
6.74885
6.74837
6.74778
6.74708
6.74629
6.74558
7.37695
7.37773
7.37859
7.37935
7.37999
7.38052
7.38094
7.38128
7.38154
7.38175
7.38191
7.38204
7.38214
7.38222
7.38228
7.38233
7.38237
7.3824
7.38243
7.38245
7.38246
7.38248
7.38249
7.3825
7.3825
7.38251
7.38251
7.38252
7.38252
7.38252
7.38252
7.38252
7.38252
7.38251
7.38251
7.3825
7.3825
7.38249
7.38248
7.38246
7.38245
7.38243
7.3824
7.38237
7.38233
7.38228
7.38222
7.38214
7.38204
7.38191
7.38175
7.38154
7.38128
7.38094
7.38052
7.37999
7.37935
7.37859
7.37773
7.37695
8.01651
8.01736
8.01828
8.01911
8.0198
8.02037
8.02083
8.02119
8.02148
8.02171
8.02188
8.02202
8.02213
8.02222
8.02228
8.02234
8.02238
8.02241
8.02244
8.02246
8.02248
8.0225
8.02251
8.02252
8.02252
8.02253
8.02253
8.02254
8.02254
8.02254
8.02254
8.02254
8.02254
8.02253
8.02253
8.02252
8.02252
8.02251
8.0225
8.02248
8.02246
8.02244
8.02241
8.02238
8.02234
8.02228
8.02222
8.02213
8.02202
8.02188
8.02171
8.02148
8.02119
8.02083
8.02037
8.0198
8.01911
8.01828
8.01736
8.01651
8.66366
8.66457
8.66557
8.66645
8.6672
8.66781
8.66831
8.6687
8.66901
8.66925
8.66944
8.66959
8.66971
8.6698
8.66987
8.66993
8.66997
8.67001
8.67004
8.67006
8.67008
8.6701
8.67011
8.67012
8.67013
8.67014
8.67014
8.67015
8.67015
8.67015
8.67015
8.67015
8.67015
8.67014
8.67014
8.67013
8.67012
8.67011
8.6701
8.67008
8.67006
8.67004
8.67001
8.66997
8.66993
8.66987
8.6698
8.66971
8.66959
8.66944
8.66925
8.66901
8.6687
8.66831
8.66781
8.6672
8.66645
8.66557
8.66457
8.66366
9.31772
9.31869
9.31975
9.3207
9.3215
9.32215
9.32268
9.3231
9.32343
9.32369
9.32389
9.32405
9.32418
9.32427
9.32435
9.32441
9.32446
9.3245
9.32453
9.32456
9.32458
9.3246
9.32461
9.32462
9.32463
9.32464
9.32464
9.32465
9.32465
9.32465
9.32465
9.32465
9.32465
9.32464
9.32464
9.32463
9.32462
9.32461
9.3246
9.32458
9.32456
9.32453
9.3245
9.32446
9.32441
9.32435
9.32427
9.32418
9.32405
9.32389
9.32369
9.32343
9.3231
9.32268
9.32215
9.3215
9.3207
9.31975
9.31869
9.31772
9.97788
9.97891
9.98004
9.98105
9.9819
9.98259
9.98315
9.98359
9.98394
9.98422
9.98444
9.98461
9.98474
9.98484
9.98493
9.98499
9.98505
9.98509
9.98512
9.98515
9.98517
9.98519
9.9852
9.98522
9.98523
9.98523
9.98524
9.98524
9.98525
9.98525
9.98525
9.98525
9.98524
9.98524
9.98523
9.98523
9.98522
9.9852
9.98519
9.98517
9.98515
9.98512
9.98509
9.98505
9.98499
9.98493
9.98484
9.98474
9.98461
9.98444
9.98422
9.98394
9.98359
9.98315
9.98259
9.9819
9.98105
9.98004
9.97891
9.97788
10.6432
10.6443
10.6455
10.6466
10.6475
10.6482
10.6488
10.6493
10.6496
10.6499
10.6502
10.6503
10.6505
10.6506
10.6507
10.6507
10.6508
10.6508
10.6509
10.6509
10.6509
10.651
10.651
10.651
10.651
10.651
10.651
10.651
10.651
10.651
10.651
10.651
10.651
10.651
10.651
10.651
10.651
10.651
10.651
10.6509
10.6509
10.6509
10.6508
10.6508
10.6507
10.6507
10.6506
10.6505
10.6503
10.6502
10.6499
10.6496
10.6493
10.6488
10.6482
10.6475
10.6466
10.6455
10.6443
10.6432
11.3127
11.3139
11.3151
11.3162
11.3172
11.3179
11.3186
11.319
11.3194
11.3197
11.32
11.3202
11.3203
11.3204
11.3205
11.3206
11.3207
11.3207
11.3207
11.3208
11.3208
11.3208
11.3208
11.3209
11.3209
11.3209
11.3209
11.3209
11.3209
11.3209
11.3209
11.3209
11.3209
11.3209
11.3209
11.3209
11.3209
11.3208
11.3208
11.3208
11.3208
11.3207
11.3207
11.3207
11.3206
11.3205
11.3204
11.3203
11.3202
11.32
11.3197
11.3194
11.319
11.3186
11.3179
11.3172
11.3162
11.3151
11.3139
11.3127
11.9851
11.9863
11.9876
11.9888
11.9897
11.9905
11.9912
11.9917
11.9921
11.9924
11.9927
11.9929
11.993
11.9932
11.9933
11.9933
11.9934
11.9935
11.9935
11.9935
11.9936
11.9936
11.9936
11.9936
11.9936
11.9936
11.9936
11.9936
11.9936
11.9936
11.9936
11.9936
11.9936
11.9936
11.9936
11.9936
11.9936
11.9936
11.9936
11.9936
11.9935
11.9935
11.9935
11.9934
11.9933
11.9933
11.9932
11.993
11.9929
11.9927
11.9924
11.9921
11.9917
11.9912
11.9905
11.9897
11.9888
11.9876
11.9863
11.9851
12.659
12.6602
12.6616
12.6628
12.6638
12.6646
12.6653
12.6659
12.6663
12.6666
12.6669
12.6671
12.6672
12.6674
12.6675
12.6676
12.6676
12.6677
12.6677
12.6677
12.6678
12.6678
12.6678
12.6678
12.6678
12.6679
12.6679
12.6679
12.6679
12.6679
12.6679
12.6679
12.6679
12.6679
12.6679
12.6678
12.6678
12.6678
12.6678
12.6678
12.6677
12.6677
12.6677
12.6676
12.6676
12.6675
12.6674
12.6672
12.6671
12.6669
12.6666
12.6663
12.6659
12.6653
12.6646
12.6638
12.6628
12.6616
12.6602
12.659
13.3327
13.334
13.3354
13.3367
13.3377
13.3386
13.3393
13.3399
13.3403
13.3406
13.3409
13.3411
13.3413
13.3414
13.3415
13.3416
13.3417
13.3417
13.3418
13.3418
13.3418
13.3419
13.3419
13.3419
13.3419
13.3419
13.3419
13.3419
13.3419
13.3419
13.3419
13.3419
13.3419
13.3419
13.3419
13.3419
13.3419
13.3419
13.3419
13.3418
13.3418
13.3418
13.3417
13.3417
13.3416
13.3415
13.3414
13.3413
13.3411
13.3409
13.3406
13.3403
13.3399
13.3393
13.3386
13.3377
13.3367
13.3354
13.334
13.3327
14.0045
14.0058
14.0073
14.0086
14.0097
14.0105
14.0113
14.0118
14.0123
14.0126
14.0129
14.0131
14.0133
14.0135
14.0136
14.0136
14.0137
14.0138
14.0138
14.0139
14.0139
14.0139
14.0139
14.014
14.014
14.014
14.014
14.014
14.014
14.014
14.014
14.014
14.014
14.014
14.014
14.014
14.014
14.0139
14.0139
14.0139
14.0139
14.0138
14.0138
14.0137
14.0136
14.0136
14.0135
14.0133
14.0131
14.0129
14.0126
14.0123
14.0118
14.0113
14.0105
14.0097
14.0086
14.0073
14.0058
14.0045
14.6721
14.6735
14.675
14.6763
14.6774
14.6783
14.6791
14.6796
14.6801
14.6805
14.6808
14.681
14.6812
14.6813
14.6814
14.6815
14.6816
14.6816
14.6817
14.6817
14.6818
14.6818
14.6818
14.6818
14.6818
14.6818
14.6818
14.6819
14.6819
14.6819
14.6819
14.6819
14.6819
14.6818
14.6818
14.6818
14.6818
14.6818
14.6818
14.6818
14.6817
14.6817
14.6816
14.6816
14.6815
14.6814
14.6813
14.6812
14.681
14.6808
14.6805
14.6801
14.6796
14.6791
14.6783
14.6774
14.6763
14.675
14.6735
14.6721
15.3331
15.3345
15.336
15.3374
15.3385
15.3394
15.3402
15.3408
15.3412
15.3416
15.3419
15.3421
15.3423
15.3425
15.3426
15.3427
15.3427
15.3428
15.3428
15.3429
15.3429
15.3429
15.343
15.343
15.343
15.343
15.343
15.343
15.343
15.343
15.343
15.343
15.343
15.343
15.343
15.343
15.343
15.343
15.3429
15.3429
15.3429
15.3428
15.3428
15.3427
15.3427
15.3426
15.3425
15.3423
15.3421
15.3419
15.3416
15.3412
15.3408
15.3402
15.3394
15.3385
15.3374
15.336
15.3345
15.3331
15.9846
15.986
15.9875
15.9889
15.99
15.9909
15.9917
15.9923
15.9928
15.9931
15.9934
15.9937
15.9939
15.994
15.9941
15.9942
15.9943
15.9944
15.9944
15.9944
15.9945
15.9945
15.9945
15.9946
15.9946
15.9946
15.9946
15.9946
15.9946
15.9946
15.9946
15.9946
15.9946
15.9946
15.9946
15.9946
15.9946
15.9945
15.9945
15.9945
15.9944
15.9944
15.9944
15.9943
15.9942
15.9941
15.994
15.9939
15.9937
15.9934
15.9931
15.9928
15.9923
15.9917
15.9909
15.99
15.9889
15.9875
15.986
15.9846
16.6231
16.6245
16.626
16.6274
16.6285
16.6295
16.6302
16.6308
16.6313
16.6317
16.632
16.6322
16.6324
16.6325
16.6327
16.6327
16.6328
16.6329
16.6329
16.633
16.633
16.633
16.6331
16.6331
16.6331
16.6331
16.6331
16.6331
16.6331
16.6331
16.6331
16.6331
16.6331
16.6331
16.6331
16.6331
16.6331
16.6331
16.633
16.633
16.633
16.6329
16.6329
16.6328
16.6327
16.6327
16.6325
16.6324
16.6322
16.632
16.6317
16.6313
16.6308
16.6302
16.6295
16.6285
16.6274
16.626
16.6245
16.6231
17.2446
17.2461
17.2476
17.2489
17.25
17.2509
17.2517
17.2523
17.2528
17.2531
17.2534
17.2537
17.2539
17.254
17.2541
17.2542
17.2543
17.2544
17.2544
17.2545
17.2545
17.2545
17.2545
17.2546
17.2546
17.2546
17.2546
17.2546
17.2546
17.2546
17.2546
17.2546
17.2546
17.2546
17.2546
17.2546
17.2546
17.2545
17.2545
17.2545
17.2545
17.2544
17.2544
17.2543
17.2542
17.2541
17.254
17.2539
17.2537
17.2534
17.2531
17.2528
17.2523
17.2517
17.2509
17.25
17.2489
17.2476
17.2461
17.2446
17.8445
17.8458
17.8473
17.8486
17.8497
17.8506
17.8514
17.8519
17.8524
17.8528
17.8531
17.8533
17.8535
17.8536
17.8538
17.8539
17.8539
17.854
17.854
17.8541
17.8541
17.8542
17.8542
17.8542
17.8542
17.8542
17.8542
17.8542
17.8543
17.8543
17.8543
17.8543
17.8542
17.8542
17.8542
17.8542
17.8542
17.8542
17.8542
17.8541
17.8541
17.854
17.854
17.8539
17.8539
17.8538
17.8536
17.8535
17.8533
17.8531
17.8528
17.8524
17.8519
17.8514
17.8506
17.8497
17.8486
17.8473
17.8458
17.8445
18.4168
18.4182
18.4196
18.4208
18.4219
18.4228
18.4235
18.4241
18.4245
18.4249
18.4252
18.4254
18.4256
18.4257
18.4258
18.4259
18.426
18.4261
18.4261
18.4262
18.4262
18.4262
18.4262
18.4263
18.4263
18.4263
18.4263
18.4263
18.4263
18.4263
18.4263
18.4263
18.4263
18.4263
18.4263
18.4263
18.4263
18.4262
18.4262
18.4262
18.4262
18.4261
18.4261
18.426
18.4259
18.4258
18.4257
18.4256
18.4254
18.4252
18.4249
18.4245
18.4241
18.4235
18.4228
18.4219
18.4208
18.4196
18.4182
18.4168
18.955
18.9562
18.9576
18.9588
18.9598
18.9606
18.9613
18.9618
18.9622
18.9626
18.9628
18.9631
18.9632
18.9634
18.9635
18.9636
18.9637
18.9637
18.9638
18.9638
18.9638
18.9639
18.9639
18.9639
18.9639
18.9639
18.964
18.964
18.964
18.964
18.964
18.964
18.964
18.964
18.9639
18.9639
18.9639
18.9639
18.9639
18.9638
18.9638
18.9638
18.9637
18.9637
18.9636
18.9635
18.9634
18.9632
18.9631
18.9628
18.9626
18.9622
18.9618
18.9613
18.9606
18.9598
18.9588
18.9576
18.9562
18.955
19.4509
19.4521
19.4533
19.4544
19.4553
19.4561
19.4567
19.4572
19.4576
19.4579
19.4582
19.4584
19.4586
19.4587
19.4588
19.4589
19.459
19.459
19.4591
19.4591
19.4591
19.4592
19.4592
19.4592
19.4592
19.4593
19.4593
19.4593
19.4593
19.4593
19.4593
19.4593
19.4593
19.4593
19.4593
19.4592
19.4592
19.4592
19.4592
19.4591
19.4591
19.4591
19.459
19.459
19.4589
19.4588
19.4587
19.4586
19.4584
19.4582
19.4579
19.4576
19.4572
19.4567
19.4561
19.4553
19.4544
19.4533
19.4521
19.4509
19.8962
19.8972
19.8983
19.8993
19.9001
19.9007
19.9013
19.9017
19.9021
19.9024
19.9026
19.9028
19.903
19.9031
19.9032
19.9033
19.9033
19.9034
19.9034
19.9035
19.9035
19.9035
19.9036
19.9036
19.9036
19.9036
19.9036
19.9036
19.9036
19.9036
19.9036
19.9036
19.9036
19.9036
19.9036
19.9036
19.9036
19.9036
19.9035
19.9035
19.9035
19.9034
19.9034
19.9033
19.9033
19.9032
19.9031
19.903
19.9028
19.9026
19.9024
19.9021
19.9017
19.9013
19.9007
19.9001
19.8993
19.8983
19.8972
19.8962
20.2829
20.2837
20.2847
20.2855
20.2862
20.2867
20.2872
20.2876
20.2879
20.2882
20.2884
20.2885
20.2887
20.2888
20.2889
20.2889
20.289
20.2891
20.2891
20.2891
20.2892
20.2892
20.2892
20.2892
20.2893
20.2893
20.2893
20.2893
20.2893
20.2893
20.2893
20.2893
20.2893
20.2893
20.2893
20.2893
20.2892
20.2892
20.2892
20.2892
20.2891
20.2891
20.2891
20.289
20.2889
20.2889
20.2888
20.2887
20.2885
20.2884
20.2882
20.2879
20.2876
20.2872
20.2867
20.2862
20.2855
20.2847
20.2837
20.2829
20.6065
20.6071
20.6079
20.6085
20.6091
20.6095
20.6099
20.6102
20.6105
20.6107
20.6109
20.611
20.6111
20.6112
20.6113
20.6114
20.6114
20.6115
20.6115
20.6116
20.6116
20.6116
20.6117
20.6117
20.6117
20.6117
20.6117
20.6117
20.6117
20.6117
20.6117
20.6117
20.6117
20.6117
20.6117
20.6117
20.6117
20.6117
20.6116
20.6116
20.6116
20.6115
20.6115
20.6114
20.6114
20.6113
20.6112
20.6111
20.611
20.6109
20.6107
20.6105
20.6102
20.6099
20.6095
20.6091
20.6085
20.6079
20.6071
20.6065
20.8679
20.8684
20.8689
20.8694
20.8698
20.8702
20.8705
20.8708
20.871
20.8711
20.8713
20.8714
20.8715
20.8716
20.8717
20.8717
20.8718
20.8718
20.8719
20.8719
20.8719
20.872
20.872
20.872
20.872
20.872
20.872
20.8721
20.8721
20.8721
20.8721
20.8721
20.8721
20.872
20.872
20.872
20.872
20.872
20.872
20.8719
20.8719
20.8719
20.8718
20.8718
20.8717
20.8717
20.8716
20.8715
20.8714
20.8713
20.8711
20.871
20.8708
20.8705
20.8702
20.8698
20.8694
20.8689
20.8684
20.8679
21.0742
21.0746
21.075
21.0753
21.0756
21.0759
21.0761
21.0763
21.0765
21.0766
21.0768
21.0769
21.0769
21.077
21.0771
21.0771
21.0772
21.0772
21.0773
21.0773
21.0773
21.0774
21.0774
21.0774
21.0774
21.0774
21.0774
21.0775
21.0775
21.0775
21.0775
21.0775
21.0775
21.0774
21.0774
21.0774
21.0774
21.0774
21.0774
21.0773
21.0773
21.0773
21.0772
21.0772
21.0771
21.0771
21.077
21.0769
21.0769
21.0768
21.0766
21.0765
21.0763
21.0761
21.0759
21.0756
21.0753
21.075
21.0746
21.0742
21.2365
21.2367
21.237
21.2372
21.2375
21.2377
21.2378
21.238
21.2381
21.2382
21.2383
21.2384
21.2385
21.2386
21.2386
21.2387
21.2387
21.2388
21.2388
21.2388
21.2389
21.2389
21.2389
21.2389
21.2389
21.239
21.239
21.239
21.239
21.239
21.239
21.239
21.239
21.239
21.239
21.2389
21.2389
21.2389
21.2389
21.2389
21.2388
21.2388
21.2388
21.2387
21.2387
21.2386
21.2386
21.2385
21.2384
21.2383
21.2382
21.2381
21.238
21.2378
21.2377
21.2375
21.2372
21.237
21.2367
21.2365
21.3661
21.3663
21.3665
21.3667
21.3668
21.367
21.3671
21.3672
21.3674
21.3674
21.3675
21.3676
21.3677
21.3677
21.3678
21.3678
21.3679
21.3679
21.368
21.368
21.368
21.3681
21.3681
21.3681
21.3681
21.3681
21.3681
21.3681
21.3682
21.3682
21.3682
21.3682
21.3681
21.3681
21.3681
21.3681
21.3681
21.3681
21.3681
21.368
21.368
21.368
21.3679
21.3679
21.3678
21.3678
21.3677
21.3677
21.3676
21.3675
21.3674
21.3674
21.3672
21.3671
21.367
21.3668
21.3667
21.3665
21.3663
21.3661
21.4729
21.473
21.4731
21.4733
21.4734
21.4735
21.4736
21.4737
21.4738
21.4739
21.474
21.474
21.4741
21.4742
21.4742
21.4743
21.4743
21.4743
21.4744
21.4744
21.4744
21.4745
21.4745
21.4745
21.4745
21.4745
21.4746
21.4746
21.4746
21.4746
21.4746
21.4746
21.4746
21.4746
21.4745
21.4745
21.4745
21.4745
21.4745
21.4744
21.4744
21.4744
21.4743
21.4743
21.4743
21.4742
21.4742
21.4741
21.474
21.474
21.4739
21.4738
21.4737
21.4736
21.4735
21.4734
21.4733
21.4731
21.473
21.4729
21.5637
21.5638
21.5639
21.564
21.5641
21.5642
21.5642
21.5643
21.5644
21.5645
21.5645
21.5646
21.5647
21.5647
21.5648
21.5648
21.5649
21.5649
21.5649
21.565
21.565
21.565
21.5651
21.5651
21.5651
21.5651
21.5651
21.5651
21.5651
21.5651
21.5651
21.5651
21.5651
21.5651
21.5651
21.5651
21.5651
21.5651
21.565
21.565
21.565
21.5649
21.5649
21.5649
21.5648
21.5648
21.5647
21.5647
21.5646
21.5645
21.5645
21.5644
21.5643
21.5642
21.5642
21.5641
21.564
21.5639
21.5638
21.5637
21.6432
21.6432
21.6433
21.6434
21.6434
21.6435
21.6436
21.6437
21.6437
21.6438
21.6439
21.6439
21.644
21.644
21.6441
21.6441
21.6442
21.6442
21.6443
21.6443
21.6443
21.6444
21.6444
21.6444
21.6444
21.6444
21.6444
21.6444
21.6445
21.6445
21.6445
21.6445
21.6444
21.6444
21.6444
21.6444
21.6444
21.6444
21.6444
21.6443
21.6443
21.6443
21.6442
21.6442
21.6441
21.6441
21.644
21.644
21.6439
21.6439
21.6438
21.6437
21.6437
21.6436
21.6435
21.6434
21.6434
21.6433
21.6432
21.6432
21.7143
21.7143
21.7144
21.7145
21.7145
21.7146
21.7146
21.7147
21.7148
21.7148
21.7149
21.715
21.715
21.7151
21.7151
21.7152
21.7152
21.7153
21.7153
21.7153
21.7154
21.7154
21.7154
21.7154
21.7154
21.7155
21.7155
21.7155
21.7155
21.7155
21.7155
21.7155
21.7155
21.7155
21.7155
21.7154
21.7154
21.7154
21.7154
21.7154
21.7153
21.7153
21.7153
21.7152
21.7152
21.7151
21.7151
21.715
21.715
21.7149
21.7148
21.7148
21.7147
21.7146
21.7146
21.7145
21.7145
21.7144
21.7143
21.7143
21.7791
21.7791
21.7791
21.7792
21.7792
21.7793
21.7794
21.7794
21.7795
21.7795
21.7796
21.7797
21.7797
21.7798
21.7798
21.7799
21.7799
21.78
21.78
21.78
21.7801
21.7801
21.7801
21.7801
21.7802
21.7802
21.7802
21.7802
21.7802
21.7802
21.7802
21.7802
21.7802
21.7802
21.7802
21.7802
21.7801
21.7801
21.7801
21.7801
21.78
21.78
21.78
21.7799
21.7799
21.7798
21.7798
21.7797
21.7797
21.7796
21.7795
21.7795
21.7794
21.7794
21.7793
21.7792
21.7792
21.7791
21.7791
21.7791
21.8389
21.8389
21.8389
21.8389
21.839
21.839
21.8391
21.8391
21.8392
21.8392
21.8393
21.8393
21.8394
21.8395
21.8395
21.8396
21.8396
21.8396
21.8397
21.8397
21.8398
21.8398
21.8398
21.8398
21.8399
21.8399
21.8399
21.8399
21.8399
21.8399
21.8399
21.8399
21.8399
21.8399
21.8399
21.8399
21.8398
21.8398
21.8398
21.8398
21.8397
21.8397
21.8396
21.8396
21.8396
21.8395
21.8395
21.8394
21.8393
21.8393
21.8392
21.8392
21.8391
21.8391
21.839
21.839
21.8389
21.8389
21.8389
21.8389
21.8946
21.8946
21.8946
21.8946
21.8946
21.8947
21.8947
21.8948
21.8948
21.8949
21.8949
21.895
21.895
21.8951
21.8951
21.8952
21.8952
21.8953
21.8953
21.8954
21.8954
21.8954
21.8955
21.8955
21.8955
21.8955
21.8955
21.8955
21.8955
21.8955
21.8955
21.8955
21.8955
21.8955
21.8955
21.8955
21.8955
21.8955
21.8954
21.8954
21.8954
21.8953
21.8953
21.8952
21.8952
21.8951
21.8951
21.895
21.895
21.8949
21.8949
21.8948
21.8948
21.8947
21.8947
21.8946
21.8946
21.8946
21.8946
21.8946
21.9469
21.9469
21.9469
21.9469
21.9469
21.947
21.947
21.9471
21.9471
21.9472
21.9472
21.9473
21.9473
21.9474
21.9474
21.9475
21.9475
21.9476
21.9476
21.9477
21.9477
21.9477
21.9478
21.9478
21.9478
21.9478
21.9478
21.9478
21.9479
21.9479
21.9479
21.9479
21.9478
21.9478
21.9478
21.9478
21.9478
21.9478
21.9477
21.9477
21.9477
21.9476
21.9476
21.9475
21.9475
21.9474
21.9474
21.9473
21.9473
21.9472
21.9472
21.9471
21.9471
21.947
21.947
21.9469
21.9469
21.9469
21.9469
21.9469
21.9964
21.9964
21.9964
21.9964
21.9964
21.9965
21.9965
21.9966
21.9966
21.9967
21.9967
21.9968
21.9968
21.9969
21.9969
21.997
21.997
21.9971
21.9971
21.9972
21.9972
21.9972
21.9973
21.9973
21.9973
21.9973
21.9973
21.9974
21.9974
21.9974
21.9974
21.9974
21.9974
21.9973
21.9973
21.9973
21.9973
21.9973
21.9972
21.9972
21.9972
21.9971
21.9971
21.997
21.997
21.9969
21.9969
21.9968
21.9968
21.9967
21.9967
21.9966
21.9966
21.9965
21.9965
21.9964
21.9964
21.9964
21.9964
21.9964
22.0436
22.0436
22.0436
22.0436
22.0436
22.0436
22.0437
22.0437
22.0437
22.0438
22.0439
22.0439
22.044
22.044
22.0441
22.0441
22.0442
22.0442
22.0443
22.0443
22.0443
22.0444
22.0444
22.0444
22.0445
22.0445
22.0445
22.0445
22.0445
22.0445
22.0445
22.0445
22.0445
22.0445
22.0445
22.0445
22.0444
22.0444
22.0444
22.0443
22.0443
22.0443
22.0442
22.0442
22.0441
22.0441
22.044
22.044
22.0439
22.0439
22.0438
22.0437
22.0437
22.0437
22.0436
22.0436
22.0436
22.0436
22.0436
22.0436
22.0887
22.0887
22.0887
22.0887
22.0887
22.0887
22.0888
22.0888
22.0888
22.0889
22.089
22.089
22.0891
22.0891
22.0892
22.0892
22.0893
22.0893
22.0894
22.0894
22.0895
22.0895
22.0895
22.0896
22.0896
22.0896
22.0896
22.0896
22.0896
22.0896
22.0896
22.0896
22.0896
22.0896
22.0896
22.0896
22.0896
22.0895
22.0895
22.0895
22.0894
22.0894
22.0893
22.0893
22.0892
22.0892
22.0891
22.0891
22.089
22.089
22.0889
22.0888
22.0888
22.0888
22.0887
22.0887
22.0887
22.0887
22.0887
22.0887
22.1321
22.132
22.132
22.132
22.1321
22.1321
22.1321
22.1322
22.1322
22.1323
22.1323
22.1324
22.1324
22.1325
22.1325
22.1326
22.1327
22.1327
22.1327
22.1328
22.1328
22.1329
22.1329
22.1329
22.1329
22.133
22.133
22.133
22.133
22.133
22.133
22.133
22.133
22.133
22.133
22.1329
22.1329
22.1329
22.1329
22.1328
22.1328
22.1327
22.1327
22.1327
22.1326
22.1325
22.1325
22.1324
22.1324
22.1323
22.1323
22.1322
22.1322
22.1321
22.1321
22.1321
22.132
22.132
22.132
22.1321
22.1739
22.1739
22.1739
22.1739
22.1739
22.1739
22.174
22.174
22.174
22.1741
22.1742
22.1742
22.1743
22.1743
22.1744
22.1745
22.1745
22.1746
22.1746
22.1746
22.1747
22.1747
22.1748
22.1748
22.1748
22.1748
22.1748
22.1749
22.1749
22.1749
22.1749
22.1749
22.1749
22.1748
22.1748
22.1748
22.1748
22.1748
22.1747
22.1747
22.1746
22.1746
22.1746
22.1745
22.1745
22.1744
22.1743
22.1743
22.1742
22.1742
22.1741
22.174
22.174
22.174
22.1739
22.1739
22.1739
22.1739
22.1739
22.1739
22.2145
22.2144
22.2144
22.2144
22.2144
22.2145
22.2145
22.2145
22.2146
22.2146
22.2147
22.2148
22.2148
22.2149
22.2149
22.215
22.215
22.2151
22.2151
22.2152
22.2152
22.2153
22.2153
22.2153
22.2154
22.2154
22.2154
22.2154
22.2154
22.2154
22.2154
22.2154
22.2154
22.2154
22.2154
22.2154
22.2153
22.2153
22.2153
22.2152
22.2152
22.2151
22.2151
22.215
22.215
22.2149
22.2149
22.2148
22.2148
22.2147
22.2146
22.2146
22.2145
22.2145
22.2145
22.2144
22.2144
22.2144
22.2144
22.2145
22.2538
22.2538
22.2538
22.2538
22.2538
22.2538
22.2539
22.2539
22.254
22.254
22.2541
22.2541
22.2542
22.2543
22.2543
22.2544
22.2544
22.2545
22.2545
22.2546
22.2546
22.2547
22.2547
22.2547
22.2548
22.2548
22.2548
22.2548
22.2548
22.2548
22.2548
22.2548
22.2548
22.2548
22.2548
22.2548
22.2547
22.2547
22.2547
22.2546
22.2546
22.2545
22.2545
22.2544
22.2544
22.2543
22.2543
22.2542
22.2541
22.2541
22.254
22.254
22.2539
22.2539
22.2538
22.2538
22.2538
22.2538
22.2538
22.2538
22.2922
22.2922
22.2922
22.2922
22.2922
22.2922
22.2922
22.2923
22.2923
22.2924
22.2925
22.2925
22.2926
22.2926
22.2927
22.2928
22.2928
22.2929
22.2929
22.293
22.293
22.2931
22.2931
22.2931
22.2932
22.2932
22.2932
22.2932
22.2932
22.2932
22.2932
22.2932
22.2932
22.2932
22.2932
22.2932
22.2931
22.2931
22.2931
22.293
22.293
22.2929
22.2929
22.2928
22.2928
22.2927
22.2926
22.2926
22.2925
22.2925
22.2924
22.2923
22.2923
22.2922
22.2922
22.2922
22.2922
22.2922
22.2922
22.2922
22.3297
22.3297
22.3297
22.3297
22.3297
22.3297
22.3297
22.3298
22.3298
22.3299
22.33
22.33
22.3301
22.3302
22.3302
22.3303
22.3303
22.3304
22.3304
22.3305
22.3305
22.3306
22.3306
22.3307
22.3307
22.3307
22.3307
22.3307
22.3307
22.3307
22.3307
22.3307
22.3307
22.3307
22.3307
22.3307
22.3307
22.3306
22.3306
22.3305
22.3305
22.3304
22.3304
22.3303
22.3303
22.3302
22.3302
22.3301
22.33
22.33
22.3299
22.3298
22.3298
22.3297
22.3297
22.3297
22.3297
22.3297
22.3297
22.3297
22.3664
22.3664
22.3664
22.3664
22.3664
22.3664
22.3665
22.3665
22.3666
22.3666
22.3667
22.3668
22.3668
22.3669
22.367
22.367
22.3671
22.3671
22.3672
22.3672
22.3673
22.3673
22.3674
22.3674
22.3674
22.3674
22.3675
22.3675
22.3675
22.3675
22.3675
22.3675
22.3675
22.3675
22.3674
22.3674
22.3674
22.3674
22.3673
22.3673
22.3672
22.3672
22.3671
22.3671
22.367
22.367
22.3669
22.3668
22.3668
22.3667
22.3666
22.3666
22.3665
22.3665
22.3664
22.3664
22.3664
22.3664
22.3664
22.3664
22.4025
22.4025
22.4025
22.4025
22.4025
22.4025
22.4025
22.4026
22.4026
22.4027
22.4027
22.4028
22.4029
22.4029
22.403
22.4031
22.4031
22.4032
22.4033
22.4033
22.4034
22.4034
22.4034
22.4035
22.4035
22.4035
22.4035
22.4036
22.4036
22.4036
22.4036
22.4036
22.4036
22.4035
22.4035
22.4035
22.4035
22.4034
22.4034
22.4034
22.4033
22.4033
22.4032
22.4031
22.4031
22.403
22.4029
22.4029
22.4028
22.4027
22.4027
22.4026
22.4026
22.4025
22.4025
22.4025
22.4025
22.4025
22.4025
22.4025
22.4379
22.4379
22.4379
22.4379
22.4379
22.4379
22.438
22.438
22.4381
22.4381
22.4382
22.4383
22.4383
22.4384
22.4385
22.4386
22.4386
22.4387
22.4387
22.4388
22.4388
22.4389
22.4389
22.439
22.439
22.439
22.439
22.439
22.4391
22.4391
22.4391
22.4391
22.439
22.439
22.439
22.439
22.439
22.4389
22.4389
22.4388
22.4388
22.4387
22.4387
22.4386
22.4386
22.4385
22.4384
22.4383
22.4383
22.4382
22.4381
22.4381
22.438
22.438
22.4379
22.4379
22.4379
22.4379
22.4379
22.4379
22.4729
22.4729
22.4729
22.4729
22.4729
22.4729
22.4729
22.473
22.473
22.4731
22.4732
22.4732
22.4733
22.4734
22.4734
22.4735
22.4736
22.4736
22.4737
22.4738
22.4738
22.4739
22.4739
22.4739
22.474
22.474
22.474
22.474
22.474
22.474
22.474
22.474
22.474
22.474
22.474
22.474
22.4739
22.4739
22.4739
22.4738
22.4738
22.4737
22.4736
22.4736
22.4735
22.4734
22.4734
22.4733
22.4732
22.4732
22.4731
22.473
22.473
22.4729
22.4729
22.4729
22.4729
22.4729
22.4729
22.4729
22.5074
22.5074
22.5073
22.5073
22.5074
22.5074
22.5074
22.5075
22.5075
22.5076
22.5077
22.5077
22.5078
22.5079
22.508
22.508
22.5081
22.5082
22.5082
22.5083
22.5083
22.5084
22.5084
22.5085
22.5085
22.5085
22.5085
22.5086
22.5086
22.5086
22.5086
22.5086
22.5086
22.5085
22.5085
22.5085
22.5085
22.5084
22.5084
22.5083
22.5083
22.5082
22.5082
22.5081
22.508
22.508
22.5079
22.5078
22.5077
22.5077
22.5076
22.5075
22.5075
22.5074
22.5074
22.5074
22.5073
22.5073
22.5074
22.5074
22.5415
22.5415
22.5415
22.5415
22.5415
22.5415
22.5415
22.5416
22.5416
22.5417
22.5418
22.5419
22.5419
22.542
22.5421
22.5422
22.5422
22.5423