/*--------------------------------*- C++ -*----------------------------------*\
| =========                 |                                                 |
| \\      /  F ield         | foam-extend: Open Source CFD                    |
|  \\    /   O peration     | Version:     4.0                                |
|   \\  /    A nd           | Web:         http://www.foam-extend.org         |
|    \\/     M anipulation  |                                                 |
\*---------------------------------------------------------------------------*/
FoamFile
{
    version     2.0;
    format      ascii;
    class       volScalarField;
    location    "1720";
    object      cMinus;
}
// * * * * * * * * * * * * * * * * * * * * * * * * * * * * * * * * * * * * * //

dimensions      [0 0 0 0 0 0 0];

internalField   nonuniform List<scalar> 
6960
(
2.77231e-06
2.77631e-06
2.77728e-06
2.77791e-06
2.77843e-06
2.77889e-06
2.7793e-06
2.77966e-06
2.77998e-06
2.78027e-06
2.78053e-06
2.78076e-06
2.78097e-06
2.78116e-06
2.78132e-06
2.78148e-06
2.78161e-06
2.78173e-06
2.78184e-06
2.78193e-06
2.78202e-06
2.78209e-06
2.78216e-06
2.78221e-06
2.78226e-06
2.7823e-06
2.78233e-06
2.78235e-06
2.78236e-06
2.78237e-06
2.78237e-06
2.78236e-06
2.78235e-06
2.78233e-06
2.7823e-06
2.78226e-06
2.78221e-06
2.78216e-06
2.78209e-06
2.78202e-06
2.78193e-06
2.78184e-06
2.78173e-06
2.78161e-06
2.78148e-06
2.78132e-06
2.78116e-06
2.78097e-06
2.78076e-06
2.78053e-06
2.78027e-06
2.77998e-06
2.77966e-06
2.7793e-06
2.77889e-06
2.77843e-06
2.77791e-06
2.77728e-06
2.77631e-06
2.77231e-06
1.24578e-05
1.24791e-05
1.24843e-05
1.24872e-05
1.24895e-05
1.24915e-05
1.24933e-05
1.24948e-05
1.24962e-05
1.24974e-05
1.24985e-05
1.24995e-05
1.25004e-05
1.25011e-05
1.25018e-05
1.25025e-05
1.25031e-05
1.25036e-05
1.2504e-05
1.25044e-05
1.25048e-05
1.25051e-05
1.25054e-05
1.25056e-05
1.25058e-05
1.25059e-05
1.25061e-05
1.25062e-05
1.25062e-05
1.25063e-05
1.25063e-05
1.25062e-05
1.25062e-05
1.25061e-05
1.25059e-05
1.25058e-05
1.25056e-05
1.25054e-05
1.25051e-05
1.25048e-05
1.25044e-05
1.2504e-05
1.25036e-05
1.25031e-05
1.25025e-05
1.25018e-05
1.25011e-05
1.25004e-05
1.24995e-05
1.24985e-05
1.24974e-05
1.24962e-05
1.24948e-05
1.24933e-05
1.24915e-05
1.24895e-05
1.24872e-05
1.24843e-05
1.24791e-05
1.24578e-05
4.76997e-05
4.77931e-05
4.78158e-05
4.78275e-05
4.78361e-05
4.78433e-05
4.78496e-05
4.78551e-05
4.78601e-05
4.78644e-05
4.78683e-05
4.78718e-05
4.7875e-05
4.78778e-05
4.78803e-05
4.78825e-05
4.78845e-05
4.78863e-05
4.78879e-05
4.78894e-05
4.78906e-05
4.78917e-05
4.78927e-05
4.78935e-05
4.78942e-05
4.78948e-05
4.78952e-05
4.78955e-05
4.78958e-05
4.78959e-05
4.78959e-05
4.78958e-05
4.78955e-05
4.78952e-05
4.78948e-05
4.78942e-05
4.78935e-05
4.78927e-05
4.78917e-05
4.78906e-05
4.78894e-05
4.78879e-05
4.78863e-05
4.78845e-05
4.78825e-05
4.78803e-05
4.78778e-05
4.7875e-05
4.78718e-05
4.78683e-05
4.78644e-05
4.78601e-05
4.78551e-05
4.78496e-05
4.78433e-05
4.78361e-05
4.78275e-05
4.78158e-05
4.77931e-05
4.76997e-05
0.00016764
0.000168003
0.000168091
0.000168133
0.000168162
0.000168185
0.000168206
0.000168224
0.00016824
0.000168254
0.000168267
0.000168278
0.000168288
0.000168297
0.000168305
0.000168312
0.000168319
0.000168325
0.00016833
0.000168334
0.000168338
0.000168342
0.000168345
0.000168348
0.00016835
0.000168352
0.000168353
0.000168354
0.000168355
0.000168355
0.000168355
0.000168355
0.000168354
0.000168353
0.000168352
0.00016835
0.000168348
0.000168345
0.000168342
0.000168338
0.000168334
0.00016833
0.000168325
0.000168319
0.000168312
0.000168305
0.000168297
0.000168288
0.000168278
0.000168267
0.000168254
0.00016824
0.000168224
0.000168206
0.000168185
0.000168162
0.000168133
0.000168091
0.000168003
0.00016764
0.00054504
0.000546294
0.000546601
0.000546737
0.000546826
0.000546897
0.000546958
0.000547012
0.000547059
0.000547101
0.000547138
0.000547171
0.0005472
0.000547227
0.000547251
0.000547272
0.000547291
0.000547308
0.000547323
0.000547336
0.000547348
0.000547358
0.000547367
0.000547375
0.000547381
0.000547387
0.000547391
0.000547394
0.000547396
0.000547397
0.000547397
0.000547396
0.000547394
0.000547391
0.000547387
0.000547381
0.000547375
0.000547367
0.000547358
0.000547348
0.000547336
0.000547323
0.000547308
0.000547291
0.000547272
0.000547251
0.000547227
0.0005472
0.000547171
0.000547138
0.000547101
0.000547059
0.000547012
0.000546958
0.000546897
0.000546826
0.000546737
0.000546601
0.000546294
0.00054504
0.00162622
0.00163007
0.00163102
0.00163141
0.00163166
0.00163185
0.00163202
0.00163216
0.00163228
0.00163239
0.00163249
0.00163258
0.00163266
0.00163273
0.00163279
0.00163285
0.0016329
0.00163294
0.00163298
0.00163302
0.00163305
0.00163308
0.0016331
0.00163312
0.00163314
0.00163315
0.00163316
0.00163317
0.00163318
0.00163318
0.00163318
0.00163318
0.00163317
0.00163316
0.00163315
0.00163314
0.00163312
0.0016331
0.00163308
0.00163305
0.00163302
0.00163298
0.00163294
0.0016329
0.00163285
0.00163279
0.00163273
0.00163266
0.00163258
0.00163249
0.00163239
0.00163228
0.00163216
0.00163202
0.00163185
0.00163166
0.00163141
0.00163102
0.00163007
0.00162622
0.0043974
0.00440778
0.00441034
0.00441136
0.00441197
0.00441243
0.00441282
0.00441316
0.00441346
0.00441372
0.00441395
0.00441416
0.00441434
0.00441451
0.00441465
0.00441478
0.0044149
0.00441501
0.0044151
0.00441518
0.00441525
0.00441532
0.00441537
0.00441542
0.00441546
0.00441549
0.00441552
0.00441554
0.00441555
0.00441556
0.00441556
0.00441555
0.00441554
0.00441552
0.00441549
0.00441546
0.00441542
0.00441537
0.00441532
0.00441525
0.00441518
0.0044151
0.00441501
0.0044149
0.00441478
0.00441465
0.00441451
0.00441434
0.00441416
0.00441395
0.00441372
0.00441346
0.00441316
0.00441282
0.00441243
0.00441197
0.00441136
0.00441034
0.00440778
0.0043974
0.0106371
0.0106613
0.0106673
0.0106695
0.0106708
0.0106718
0.0106726
0.0106733
0.0106739
0.0106745
0.010675
0.0106754
0.0106758
0.0106761
0.0106764
0.0106767
0.0106769
0.0106771
0.0106773
0.0106775
0.0106776
0.0106777
0.0106779
0.010678
0.010678
0.0106781
0.0106782
0.0106782
0.0106782
0.0106782
0.0106782
0.0106782
0.0106782
0.0106782
0.0106781
0.010678
0.010678
0.0106779
0.0106777
0.0106776
0.0106775
0.0106773
0.0106771
0.0106769
0.0106767
0.0106764
0.0106761
0.0106758
0.0106754
0.010675
0.0106745
0.0106739
0.0106733
0.0106726
0.0106718
0.0106708
0.0106695
0.0106673
0.0106613
0.0106371
0.0227773
0.0228255
0.0228374
0.0228419
0.0228443
0.022846
0.0228475
0.0228487
0.0228498
0.0228507
0.0228516
0.0228523
0.022853
0.0228536
0.0228541
0.0228545
0.022855
0.0228553
0.0228557
0.022856
0.0228562
0.0228564
0.0228566
0.0228568
0.0228569
0.0228571
0.0228572
0.0228572
0.0228573
0.0228573
0.0228573
0.0228573
0.0228572
0.0228572
0.0228571
0.0228569
0.0228568
0.0228566
0.0228564
0.0228562
0.022856
0.0228557
0.0228553
0.022855
0.0228545
0.0228541
0.0228536
0.022853
0.0228523
0.0228516
0.0228507
0.0228498
0.0228487
0.0228475
0.022846
0.0228443
0.0228419
0.0228374
0.0228255
0.0227773
0.0429786
0.0430606
0.0430809
0.0430882
0.043092
0.0430947
0.0430969
0.0430988
0.0431004
0.0431018
0.0431031
0.0431042
0.0431052
0.0431061
0.0431069
0.0431076
0.0431082
0.0431087
0.0431092
0.0431097
0.04311
0.0431104
0.0431107
0.0431109
0.0431111
0.0431113
0.0431114
0.0431115
0.0431116
0.0431116
0.0431116
0.0431116
0.0431115
0.0431114
0.0431113
0.0431111
0.0431109
0.0431107
0.0431104
0.04311
0.0431097
0.0431092
0.0431087
0.0431082
0.0431076
0.0431069
0.0431061
0.0431052
0.0431042
0.0431031
0.0431018
0.0431004
0.0430988
0.0430969
0.0430947
0.043092
0.0430882
0.0430809
0.0430606
0.0429786
0.0717558
0.0718762
0.0719062
0.0719166
0.0719218
0.0719254
0.0719283
0.0719307
0.0719328
0.0719347
0.0719363
0.0719377
0.071939
0.0719401
0.0719411
0.071942
0.0719428
0.0719435
0.0719441
0.0719447
0.0719452
0.0719456
0.071946
0.0719463
0.0719466
0.0719468
0.0719469
0.0719471
0.0719471
0.0719472
0.0719472
0.0719471
0.0719471
0.0719469
0.0719468
0.0719466
0.0719463
0.071946
0.0719456
0.0719452
0.0719447
0.0719441
0.0719435
0.0719428
0.071942
0.0719411
0.0719401
0.071939
0.0719377
0.0719363
0.0719347
0.0719328
0.0719307
0.0719283
0.0719254
0.0719218
0.0719166
0.0719062
0.0718762
0.0717558
0.107398
0.107554
0.107593
0.107607
0.107613
0.107617
0.10762
0.107623
0.107626
0.107628
0.10763
0.107631
0.107633
0.107634
0.107635
0.107636
0.107637
0.107638
0.107638
0.107639
0.10764
0.10764
0.10764
0.107641
0.107641
0.107641
0.107642
0.107642
0.107642
0.107642
0.107642
0.107642
0.107642
0.107642
0.107641
0.107641
0.107641
0.10764
0.10764
0.10764
0.107639
0.107638
0.107638
0.107637
0.107636
0.107635
0.107634
0.107633
0.107631
0.10763
0.107628
0.107626
0.107623
0.10762
0.107617
0.107613
0.107607
0.107593
0.107554
0.107398
0.146892
0.147078
0.147124
0.14714
0.147147
0.147151
0.147155
0.147158
0.14716
0.147163
0.147164
0.147166
0.147168
0.147169
0.14717
0.147171
0.147172
0.147173
0.147173
0.147174
0.147175
0.147175
0.147176
0.147176
0.147176
0.147176
0.147177
0.147177
0.147177
0.147177
0.147177
0.147177
0.147177
0.147177
0.147176
0.147176
0.147176
0.147176
0.147175
0.147175
0.147174
0.147173
0.147173
0.147172
0.147171
0.14717
0.147169
0.147168
0.147166
0.147164
0.147163
0.14716
0.147158
0.147155
0.147151
0.147147
0.14714
0.147124
0.147078
0.146892
0.187445
0.187653
0.187706
0.187724
0.187731
0.187736
0.187739
0.187742
0.187744
0.187747
0.187748
0.18775
0.187751
0.187753
0.187754
0.187755
0.187756
0.187756
0.187757
0.187758
0.187758
0.187759
0.187759
0.187759
0.18776
0.18776
0.18776
0.18776
0.18776
0.18776
0.18776
0.18776
0.18776
0.18776
0.18776
0.18776
0.187759
0.187759
0.187759
0.187758
0.187758
0.187757
0.187756
0.187756
0.187755
0.187754
0.187753
0.187751
0.18775
0.187748
0.187747
0.187744
0.187742
0.187739
0.187736
0.187731
0.187724
0.187706
0.187653
0.187445
0.227319
0.227546
0.227604
0.227623
0.227631
0.227635
0.227639
0.227641
0.227644
0.227646
0.227647
0.227649
0.22765
0.227651
0.227652
0.227653
0.227654
0.227655
0.227655
0.227656
0.227656
0.227657
0.227657
0.227658
0.227658
0.227658
0.227658
0.227658
0.227658
0.227658
0.227658
0.227658
0.227658
0.227658
0.227658
0.227658
0.227658
0.227657
0.227657
0.227656
0.227656
0.227655
0.227655
0.227654
0.227653
0.227652
0.227651
0.22765
0.227649
0.227647
0.227646
0.227644
0.227641
0.227639
0.227635
0.227631
0.227623
0.227604
0.227546
0.227319
0.265771
0.266013
0.266076
0.266096
0.266104
0.266108
0.266111
0.266114
0.266116
0.266118
0.26612
0.266121
0.266122
0.266123
0.266124
0.266125
0.266126
0.266127
0.266127
0.266128
0.266128
0.266128
0.266129
0.266129
0.266129
0.266129
0.26613
0.26613
0.26613
0.26613
0.26613
0.26613
0.26613
0.26613
0.266129
0.266129
0.266129
0.266129
0.266128
0.266128
0.266128
0.266127
0.266127
0.266126
0.266125
0.266124
0.266123
0.266122
0.266121
0.26612
0.266118
0.266116
0.266114
0.266111
0.266108
0.266104
0.266096
0.266076
0.266013
0.265771
0.302625
0.30288
0.302948
0.302969
0.302977
0.302982
0.302985
0.302987
0.302989
0.302991
0.302992
0.302994
0.302995
0.302996
0.302997
0.302997
0.302998
0.302999
0.302999
0.303
0.303
0.303
0.303001
0.303001
0.303001
0.303001
0.303002
0.303002
0.303002
0.303002
0.303002
0.303002
0.303002
0.303002
0.303001
0.303001
0.303001
0.303001
0.303
0.303
0.303
0.302999
0.302999
0.302998
0.302997
0.302997
0.302996
0.302995
0.302994
0.302992
0.302991
0.302989
0.302987
0.302985
0.302982
0.302977
0.302969
0.302948
0.30288
0.302625
0.337929
0.338196
0.338268
0.33829
0.338298
0.338303
0.338306
0.338308
0.33831
0.338312
0.338313
0.338314
0.338315
0.338316
0.338317
0.338318
0.338318
0.338319
0.338319
0.33832
0.33832
0.33832
0.338321
0.338321
0.338321
0.338321
0.338321
0.338322
0.338322
0.338322
0.338322
0.338322
0.338322
0.338321
0.338321
0.338321
0.338321
0.338321
0.33832
0.33832
0.33832
0.338319
0.338319
0.338318
0.338318
0.338317
0.338316
0.338315
0.338314
0.338313
0.338312
0.33831
0.338308
0.338306
0.338303
0.338298
0.33829
0.338268
0.338196
0.337929
0.371776
0.372053
0.37213
0.372153
0.372162
0.372166
0.372169
0.372171
0.372173
0.372175
0.372176
0.372177
0.372178
0.372179
0.372179
0.37218
0.372181
0.372181
0.372182
0.372182
0.372182
0.372183
0.372183
0.372183
0.372183
0.372183
0.372183
0.372184
0.372184
0.372184
0.372184
0.372184
0.372184
0.372183
0.372183
0.372183
0.372183
0.372183
0.372183
0.372182
0.372182
0.372182
0.372181
0.372181
0.37218
0.372179
0.372179
0.372178
0.372177
0.372176
0.372175
0.372173
0.372171
0.372169
0.372166
0.372162
0.372153
0.37213
0.372053
0.371776
0.40425
0.404536
0.404617
0.404642
0.404651
0.404655
0.404658
0.40466
0.404661
0.404663
0.404664
0.404665
0.404666
0.404667
0.404667
0.404668
0.404668
0.404669
0.404669
0.40467
0.40467
0.40467
0.40467
0.404671
0.404671
0.404671
0.404671
0.404671
0.404671
0.404671
0.404671
0.404671
0.404671
0.404671
0.404671
0.404671
0.404671
0.40467
0.40467
0.40467
0.40467
0.404669
0.404669
0.404668
0.404668
0.404667
0.404667
0.404666
0.404665
0.404664
0.404663
0.404661
0.40466
0.404658
0.404655
0.404651
0.404642
0.404617
0.404536
0.40425
0.435414
0.435709
0.435794
0.43582
0.435829
0.435833
0.435836
0.435838
0.435839
0.435841
0.435842
0.435843
0.435843
0.435844
0.435845
0.435845
0.435846
0.435846
0.435847
0.435847
0.435847
0.435847
0.435848
0.435848
0.435848
0.435848
0.435848
0.435848
0.435848
0.435848
0.435848
0.435848
0.435848
0.435848
0.435848
0.435848
0.435848
0.435848
0.435847
0.435847
0.435847
0.435847
0.435846
0.435846
0.435845
0.435845
0.435844
0.435843
0.435843
0.435842
0.435841
0.435839
0.435838
0.435836
0.435833
0.435829
0.43582
0.435794
0.435709
0.435414
0.46532
0.465622
0.46571
0.465738
0.465747
0.465751
0.465754
0.465756
0.465757
0.465758
0.465759
0.46576
0.465761
0.465762
0.465762
0.465763
0.465763
0.465763
0.465764
0.465764
0.465764
0.465765
0.465765
0.465765
0.465765
0.465765
0.465765
0.465765
0.465765
0.465765
0.465765
0.465765
0.465765
0.465765
0.465765
0.465765
0.465765
0.465765
0.465765
0.465764
0.465764
0.465764
0.465763
0.465763
0.465763
0.465762
0.465762
0.465761
0.46576
0.465759
0.465758
0.465757
0.465756
0.465754
0.465751
0.465747
0.465738
0.46571
0.465622
0.46532
0.494009
0.494316
0.494408
0.494437
0.494447
0.494451
0.494453
0.494455
0.494456
0.494457
0.494458
0.494459
0.49446
0.494461
0.494461
0.494461
0.494462
0.494462
0.494463
0.494463
0.494463
0.494463
0.494463
0.494464
0.494464
0.494464
0.494464
0.494464
0.494464
0.494464
0.494464
0.494464
0.494464
0.494464
0.494464
0.494464
0.494464
0.494463
0.494463
0.494463
0.494463
0.494463
0.494462
0.494462
0.494461
0.494461
0.494461
0.49446
0.494459
0.494458
0.494457
0.494456
0.494455
0.494453
0.494451
0.494447
0.494437
0.494408
0.494316
0.494009
0.521517
0.521828
0.521924
0.521954
0.521964
0.521969
0.521971
0.521973
0.521974
0.521975
0.521976
0.521976
0.521977
0.521978
0.521978
0.521979
0.521979
0.521979
0.521979
0.52198
0.52198
0.52198
0.52198
0.52198
0.52198
0.521981
0.521981
0.521981
0.521981
0.521981
0.521981
0.521981
0.521981
0.521981
0.521981
0.52198
0.52198
0.52198
0.52198
0.52198
0.52198
0.521979
0.521979
0.521979
0.521979
0.521978
0.521978
0.521977
0.521976
0.521976
0.521975
0.521974
0.521973
0.521971
0.521969
0.521964
0.521954
0.521924
0.521828
0.521517
0.547878
0.548193
0.548292
0.548323
0.548334
0.548338
0.548341
0.548342
0.548343
0.548344
0.548345
0.548346
0.548346
0.548347
0.548347
0.548348
0.548348
0.548348
0.548348
0.548349
0.548349
0.548349
0.548349
0.548349
0.548349
0.548349
0.548349
0.54835
0.54835
0.54835
0.54835
0.54835
0.54835
0.548349
0.548349
0.548349
0.548349
0.548349
0.548349
0.548349
0.548349
0.548348
0.548348
0.548348
0.548348
0.548347
0.548347
0.548346
0.548346
0.548345
0.548344
0.548343
0.548342
0.548341
0.548338
0.548334
0.548323
0.548292
0.548193
0.547878
0.573124
0.573442
0.573544
0.573577
0.573587
0.573592
0.573594
0.573596
0.573597
0.573598
0.573598
0.573599
0.573599
0.5736
0.5736
0.573601
0.573601
0.573601
0.573601
0.573602
0.573602
0.573602
0.573602
0.573602
0.573602
0.573602
0.573602
0.573602
0.573602
0.573602
0.573602
0.573602
0.573602
0.573602
0.573602
0.573602
0.573602
0.573602
0.573602
0.573602
0.573602
0.573601
0.573601
0.573601
0.573601
0.5736
0.5736
0.573599
0.573599
0.573598
0.573598
0.573597
0.573596
0.573594
0.573592
0.573587
0.573577
0.573544
0.573442
0.573124
0.597287
0.597605
0.597711
0.597744
0.597756
0.59776
0.597762
0.597764
0.597765
0.597766
0.597766
0.597767
0.597767
0.597768
0.597768
0.597768
0.597769
0.597769
0.597769
0.597769
0.597769
0.59777
0.59777
0.59777
0.59777
0.59777
0.59777
0.59777
0.59777
0.59777
0.59777
0.59777
0.59777
0.59777
0.59777
0.59777
0.59777
0.59777
0.59777
0.597769
0.597769
0.597769
0.597769
0.597769
0.597768
0.597768
0.597768
0.597767
0.597767
0.597766
0.597766
0.597765
0.597764
0.597762
0.59776
0.597756
0.597744
0.597711
0.597605
0.597287
0.620394
0.620714
0.620822
0.620857
0.620868
0.620873
0.620875
0.620876
0.620877
0.620878
0.620879
0.620879
0.62088
0.62088
0.62088
0.620881
0.620881
0.620881
0.620881
0.620882
0.620882
0.620882
0.620882
0.620882
0.620882
0.620882
0.620882
0.620882
0.620882
0.620882
0.620882
0.620882
0.620882
0.620882
0.620882
0.620882
0.620882
0.620882
0.620882
0.620882
0.620882
0.620881
0.620881
0.620881
0.620881
0.62088
0.62088
0.62088
0.620879
0.620879
0.620878
0.620877
0.620876
0.620875
0.620873
0.620868
0.620857
0.620822
0.620714
0.620394
0.642477
0.642796
0.642906
0.642943
0.642955
0.64296
0.642962
0.642963
0.642964
0.642965
0.642965
0.642966
0.642966
0.642966
0.642967
0.642967
0.642967
0.642967
0.642968
0.642968
0.642968
0.642968
0.642968
0.642968
0.642968
0.642968
0.642968
0.642968
0.642968
0.642968
0.642968
0.642968
0.642968
0.642968
0.642968
0.642968
0.642968
0.642968
0.642968
0.642968
0.642968
0.642968
0.642967
0.642967
0.642967
0.642967
0.642966
0.642966
0.642966
0.642965
0.642965
0.642964
0.642963
0.642962
0.64296
0.642955
0.642943
0.642906
0.642796
0.642477
0.663564
0.663882
0.663994
0.664032
0.664044
0.664049
0.664051
0.664052
0.664053
0.664054
0.664054
0.664055
0.664055
0.664055
0.664056
0.664056
0.664056
0.664056
0.664056
0.664057
0.664057
0.664057
0.664057
0.664057
0.664057
0.664057
0.664057
0.664057
0.664057
0.664057
0.664057
0.664057
0.664057
0.664057
0.664057
0.664057
0.664057
0.664057
0.664057
0.664057
0.664057
0.664056
0.664056
0.664056
0.664056
0.664056
0.664055
0.664055
0.664055
0.664054
0.664054
0.664053
0.664052
0.664051
0.664049
0.664044
0.664032
0.663994
0.663882
0.663564
0.683682
0.683998
0.684113
0.684151
0.684165
0.684169
0.684171
0.684173
0.684173
0.684174
0.684175
0.684175
0.684175
0.684176
0.684176
0.684176
0.684176
0.684176
0.684177
0.684177
0.684177
0.684177
0.684177
0.684177
0.684177
0.684177
0.684177
0.684177
0.684177
0.684177
0.684177
0.684177
0.684177
0.684177
0.684177
0.684177
0.684177
0.684177
0.684177
0.684177
0.684177
0.684177
0.684176
0.684176
0.684176
0.684176
0.684176
0.684175
0.684175
0.684175
0.684174
0.684173
0.684173
0.684171
0.684169
0.684165
0.684151
0.684113
0.683998
0.683682
0.702861
0.703175
0.703291
0.70333
0.703344
0.703349
0.703351
0.703352
0.703353
0.703354
0.703354
0.703355
0.703355
0.703355
0.703355
0.703356
0.703356
0.703356
0.703356
0.703356
0.703356
0.703356
0.703356
0.703356
0.703356
0.703356
0.703356
0.703357
0.703357
0.703357
0.703357
0.703357
0.703357
0.703356
0.703356
0.703356
0.703356
0.703356
0.703356
0.703356
0.703356
0.703356
0.703356
0.703356
0.703356
0.703355
0.703355
0.703355
0.703355
0.703354
0.703354
0.703353
0.703352
0.703351
0.703349
0.703344
0.70333
0.703291
0.703175
0.702861
0.721128
0.721438
0.721556
0.721597
0.721611
0.721616
0.721618
0.721619
0.72162
0.721621
0.721621
0.721621
0.721622
0.721622
0.721622
0.721622
0.721622
0.721623
0.721623
0.721623
0.721623
0.721623
0.721623
0.721623
0.721623
0.721623
0.721623
0.721623
0.721623
0.721623
0.721623
0.721623
0.721623
0.721623
0.721623
0.721623
0.721623
0.721623
0.721623
0.721623
0.721623
0.721623
0.721623
0.721622
0.721622
0.721622
0.721622
0.721622
0.721621
0.721621
0.721621
0.72162
0.721619
0.721618
0.721616
0.721611
0.721597
0.721556
0.721438
0.721128
0.738511
0.738817
0.738936
0.738978
0.738993
0.738998
0.739
0.739002
0.739002
0.739003
0.739003
0.739003
0.739004
0.739004
0.739004
0.739004
0.739004
0.739004
0.739005
0.739005
0.739005
0.739005
0.739005
0.739005
0.739005
0.739005
0.739005
0.739005
0.739005
0.739005
0.739005
0.739005
0.739005
0.739005
0.739005
0.739005
0.739005
0.739005
0.739005
0.739005
0.739005
0.739005
0.739004
0.739004
0.739004
0.739004
0.739004
0.739004
0.739003
0.739003
0.739003
0.739002
0.739002
0.739
0.738998
0.738993
0.738978
0.738936
0.738817
0.738511
0.755038
0.75534
0.755459
0.755502
0.755517
0.755523
0.755525
0.755526
0.755527
0.755527
0.755528
0.755528
0.755528
0.755528
0.755529
0.755529
0.755529
0.755529
0.755529
0.755529
0.755529
0.755529
0.755529
0.755529
0.755529
0.755529
0.755529
0.755529
0.755529
0.75553
0.75553
0.755529
0.755529
0.755529
0.755529
0.755529
0.755529
0.755529
0.755529
0.755529
0.755529
0.755529
0.755529
0.755529
0.755529
0.755529
0.755528
0.755528
0.755528
0.755528
0.755527
0.755527
0.755526
0.755525
0.755523
0.755517
0.755502
0.755459
0.75534
0.755038
0.770735
0.771032
0.771152
0.771196
0.771212
0.771218
0.77122
0.771221
0.771222
0.771222
0.771223
0.771223
0.771223
0.771223
0.771223
0.771223
0.771224
0.771224
0.771224
0.771224
0.771224
0.771224
0.771224
0.771224
0.771224
0.771224
0.771224
0.771224
0.771224
0.771224
0.771224
0.771224
0.771224
0.771224
0.771224
0.771224
0.771224
0.771224
0.771224
0.771224
0.771224
0.771224
0.771224
0.771224
0.771223
0.771223
0.771223
0.771223
0.771223
0.771223
0.771222
0.771222
0.771221
0.77122
0.771218
0.771212
0.771196
0.771152
0.771032
0.770735
0.785631
0.785922
0.786042
0.786088
0.786104
0.78611
0.786112
0.786113
0.786114
0.786114
0.786115
0.786115
0.786115
0.786115
0.786115
0.786116
0.786116
0.786116
0.786116
0.786116
0.786116
0.786116
0.786116
0.786116
0.786116
0.786116
0.786116
0.786116
0.786116
0.786116
0.786116
0.786116
0.786116
0.786116
0.786116
0.786116
0.786116
0.786116
0.786116
0.786116
0.786116
0.786116
0.786116
0.786116
0.786116
0.786115
0.786115
0.786115
0.786115
0.786115
0.786114
0.786114
0.786113
0.786112
0.78611
0.786104
0.786088
0.786042
0.785922
0.785631
0.799752
0.800037
0.800157
0.800204
0.80022
0.800227
0.800229
0.80023
0.800231
0.800231
0.800231
0.800232
0.800232
0.800232
0.800232
0.800232
0.800232
0.800232
0.800232
0.800232
0.800232
0.800233
0.800233
0.800233
0.800233
0.800233
0.800233
0.800233
0.800233
0.800233
0.800233
0.800233
0.800233
0.800233
0.800233
0.800233
0.800233
0.800233
0.800233
0.800232
0.800232
0.800232
0.800232
0.800232
0.800232
0.800232
0.800232
0.800232
0.800232
0.800231
0.800231
0.800231
0.80023
0.800229
0.800227
0.80022
0.800204
0.800157
0.800037
0.799752
0.813125
0.813404
0.813524
0.813571
0.813588
0.813595
0.813597
0.813598
0.813599
0.813599
0.8136
0.8136
0.8136
0.8136
0.8136
0.8136
0.8136
0.8136
0.8136
0.8136
0.813601
0.813601
0.813601
0.813601
0.813601
0.813601
0.813601
0.813601
0.813601
0.813601
0.813601
0.813601
0.813601
0.813601
0.813601
0.813601
0.813601
0.813601
0.813601
0.813601
0.8136
0.8136
0.8136
0.8136
0.8136
0.8136
0.8136
0.8136
0.8136
0.8136
0.813599
0.813599
0.813598
0.813597
0.813595
0.813588
0.813571
0.813524
0.813404
0.813125
0.825777
0.826049
0.826169
0.826216
0.826234
0.826241
0.826244
0.826245
0.826245
0.826246
0.826246
0.826246
0.826246
0.826246
0.826247
0.826247
0.826247
0.826247
0.826247
0.826247
0.826247
0.826247
0.826247
0.826247
0.826247
0.826247
0.826247
0.826247
0.826247
0.826247
0.826247
0.826247
0.826247
0.826247
0.826247
0.826247
0.826247
0.826247
0.826247
0.826247
0.826247
0.826247
0.826247
0.826247
0.826247
0.826247
0.826246
0.826246
0.826246
0.826246
0.826246
0.826245
0.826245
0.826244
0.826241
0.826234
0.826216
0.826169
0.826049
0.825777
0.837734
0.838
0.838119
0.838167
0.838185
0.838192
0.838195
0.838196
0.838197
0.838197
0.838197
0.838197
0.838198
0.838198
0.838198
0.838198
0.838198
0.838198
0.838198
0.838198
0.838198
0.838198
0.838198
0.838198
0.838198
0.838198
0.838198
0.838198
0.838198
0.838198
0.838198
0.838198
0.838198
0.838198
0.838198
0.838198
0.838198
0.838198
0.838198
0.838198
0.838198
0.838198
0.838198
0.838198
0.838198
0.838198
0.838198
0.838198
0.838197
0.838197
0.838197
0.838197
0.838196
0.838195
0.838192
0.838185
0.838167
0.838119
0.838
0.837734
0.849024
0.849282
0.8494
0.849448
0.849467
0.849475
0.849477
0.849479
0.849479
0.84948
0.84948
0.84948
0.84948
0.84948
0.84948
0.84948
0.84948
0.84948
0.84948
0.849481
0.849481
0.849481
0.849481
0.849481
0.849481
0.849481
0.849481
0.849481
0.849481
0.849481
0.849481
0.849481
0.849481
0.849481
0.849481
0.849481
0.849481
0.849481
0.849481
0.849481
0.849481
0.84948
0.84948
0.84948
0.84948
0.84948
0.84948
0.84948
0.84948
0.84948
0.84948
0.849479
0.849479
0.849477
0.849475
0.849467
0.849448
0.8494
0.849282
0.849024
0.859671
0.859921
0.860038
0.860087
0.860107
0.860114
0.860117
0.860118
0.860119
0.860119
0.86012
0.86012
0.86012
0.86012
0.86012
0.86012
0.86012
0.86012
0.86012
0.86012
0.86012
0.86012
0.86012
0.86012
0.86012
0.86012
0.86012
0.86012
0.86012
0.86012
0.86012
0.86012
0.86012
0.86012
0.86012
0.86012
0.86012
0.86012
0.86012
0.86012
0.86012
0.86012
0.86012
0.86012
0.86012
0.86012
0.86012
0.86012
0.86012
0.86012
0.860119
0.860119
0.860118
0.860117
0.860114
0.860107
0.860087
0.860038
0.859921
0.859671
0.869702
0.869944
0.87006
0.870109
0.870129
0.870137
0.87014
0.870141
0.870142
0.870142
0.870142
0.870142
0.870143
0.870143
0.870143
0.870143
0.870143
0.870143
0.870143
0.870143
0.870143
0.870143
0.870143
0.870143
0.870143
0.870143
0.870143
0.870143
0.870143
0.870143
0.870143
0.870143
0.870143
0.870143
0.870143
0.870143
0.870143
0.870143
0.870143
0.870143
0.870143
0.870143
0.870143
0.870143
0.870143
0.870143
0.870143
0.870143
0.870142
0.870142
0.870142
0.870142
0.870141
0.87014
0.870137
0.870129
0.870109
0.87006
0.869944
0.869702
0.879141
0.879376
0.87949
0.879539
0.87956
0.879568
0.879571
0.879572
0.879573
0.879573
0.879574
0.879574
0.879574
0.879574
0.879574
0.879574
0.879574
0.879574
0.879574
0.879574
0.879574
0.879574
0.879574
0.879574
0.879574
0.879574
0.879574
0.879574
0.879574
0.879574
0.879574
0.879574
0.879574
0.879574
0.879574
0.879574
0.879574
0.879574
0.879574
0.879574
0.879574
0.879574
0.879574
0.879574
0.879574
0.879574
0.879574
0.879574
0.879574
0.879574
0.879573
0.879573
0.879572
0.879571
0.879568
0.87956
0.879539
0.87949
0.879376
0.879141
0.888015
0.888242
0.888353
0.888403
0.888424
0.888433
0.888436
0.888437
0.888438
0.888438
0.888438
0.888439
0.888439
0.888439
0.888439
0.888439
0.888439
0.888439
0.888439
0.888439
0.888439
0.888439
0.888439
0.888439
0.888439
0.888439
0.888439
0.888439
0.888439
0.888439
0.888439
0.888439
0.888439
0.888439
0.888439
0.888439
0.888439
0.888439
0.888439
0.888439
0.888439
0.888439
0.888439
0.888439
0.888439
0.888439
0.888439
0.888439
0.888439
0.888438
0.888438
0.888438
0.888437
0.888436
0.888433
0.888424
0.888403
0.888353
0.888242
0.888015
0.896348
0.896566
0.896676
0.896726
0.896747
0.896755
0.896759
0.89676
0.896761
0.896761
0.896762
0.896762
0.896762
0.896762
0.896762
0.896762
0.896762
0.896762
0.896762
0.896762
0.896762
0.896762
0.896762
0.896762
0.896762
0.896762
0.896762
0.896762
0.896762
0.896762
0.896762
0.896762
0.896762
0.896762
0.896762
0.896762
0.896762
0.896762
0.896762
0.896762
0.896762
0.896762
0.896762
0.896762
0.896762
0.896762
0.896762
0.896762
0.896762
0.896762
0.896761
0.896761
0.89676
0.896759
0.896755
0.896747
0.896726
0.896676
0.896566
0.896348
0.904163
0.904373
0.904481
0.90453
0.904552
0.904561
0.904565
0.904566
0.904567
0.904567
0.904567
0.904567
0.904567
0.904567
0.904567
0.904568
0.904568
0.904568
0.904568
0.904568
0.904568
0.904568
0.904568
0.904568
0.904568
0.904568
0.904568
0.904568
0.904568
0.904568
0.904568
0.904568
0.904568
0.904568
0.904568
0.904568
0.904568
0.904568
0.904568
0.904568
0.904568
0.904568
0.904568
0.904568
0.904568
0.904567
0.904567
0.904567
0.904567
0.904567
0.904567
0.904567
0.904566
0.904565
0.904561
0.904552
0.90453
0.904481
0.904373
0.904163
0.911485
0.911687
0.911792
0.911842
0.911863
0.911873
0.911876
0.911878
0.911879
0.911879
0.911879
0.911879
0.911879
0.911879
0.91188
0.91188
0.91188
0.91188
0.91188
0.91188
0.91188
0.91188
0.91188
0.91188
0.91188
0.91188
0.91188
0.91188
0.91188
0.91188
0.91188
0.91188
0.91188
0.91188
0.91188
0.91188
0.91188
0.91188
0.91188
0.91188
0.91188
0.91188
0.91188
0.91188
0.91188
0.91188
0.911879
0.911879
0.911879
0.911879
0.911879
0.911879
0.911878
0.911876
0.911873
0.911863
0.911842
0.911792
0.911687
0.911485
0.918337
0.918531
0.918633
0.918683
0.918705
0.918714
0.918718
0.91872
0.918721
0.918721
0.918721
0.918721
0.918721
0.918721
0.918721
0.918721
0.918721
0.918721
0.918721
0.918721
0.918721
0.918721
0.918721
0.918721
0.918721
0.918721
0.918721
0.918721
0.918721
0.918721
0.918721
0.918721
0.918721
0.918721
0.918721
0.918721
0.918721
0.918721
0.918721
0.918721
0.918721
0.918721
0.918721
0.918721
0.918721
0.918721
0.918721
0.918721
0.918721
0.918721
0.918721
0.918721
0.91872
0.918718
0.918714
0.918705
0.918683
0.918633
0.918531
0.918337
0.924742
0.924927
0.925027
0.925076
0.925098
0.925108
0.925112
0.925114
0.925115
0.925115
0.925115
0.925115
0.925115
0.925115
0.925116
0.925116
0.925116
0.925116
0.925116
0.925116
0.925116
0.925116
0.925116
0.925116
0.925116
0.925116
0.925116
0.925116
0.925116
0.925116
0.925116
0.925116
0.925116
0.925116
0.925116
0.925116
0.925116
0.925116
0.925116
0.925116
0.925116
0.925116
0.925116
0.925116
0.925116
0.925116
0.925115
0.925115
0.925115
0.925115
0.925115
0.925115
0.925114
0.925112
0.925108
0.925098
0.925076
0.925027
0.924927
0.924742
0.930722
0.930899
0.930996
0.931044
0.931067
0.931077
0.931081
0.931083
0.931084
0.931084
0.931084
0.931084
0.931084
0.931085
0.931085
0.931085
0.931085
0.931085
0.931085
0.931085
0.931085
0.931085
0.931085
0.931085
0.931085
0.931085
0.931085
0.931085
0.931085
0.931085
0.931085
0.931085
0.931085
0.931085
0.931085
0.931085
0.931085
0.931085
0.931085
0.931085
0.931085
0.931085
0.931085
0.931085
0.931085
0.931085
0.931085
0.931084
0.931084
0.931084
0.931084
0.931084
0.931083
0.931081
0.931077
0.931067
0.931044
0.930996
0.930899
0.930722
0.936299
0.936467
0.936562
0.936609
0.936632
0.936642
0.936646