/*--------------------------------*- C++ -*----------------------------------*\
| =========                 |                                                 |
| \\      /  F ield         | foam-extend: Open Source CFD                    |
|  \\    /   O peration     | Version:     4.0                                |
|   \\  /    A nd           | Web:         http://www.foam-extend.org         |
|    \\/     M anipulation  |                                                 |
\*---------------------------------------------------------------------------*/
FoamFile
{
    version     2.0;
    format      ascii;
    class       surfaceScalarField;
    location    "16";
    object      phi;
}
// * * * * * * * * * * * * * * * * * * * * * * * * * * * * * * * * * * * * * //

dimensions      [0 3 -1 0 0 0 0];

internalField   nonuniform List<scalar> 
13744
(
-2.61437e-28
2.5979e-28
-2.59751e-28
-1.68563e-30
-6.2234e-29
-1.97517e-28
1.36349e-28
-1.98583e-28
2.7155e-28
-1.35201e-28
3.36085e-28
-6.45347e-29
3.01411e-28
3.46739e-29
1.93062e-28
1.08348e-28
3.80779e-29
1.54984e-28
-1.22563e-28
1.60641e-28
-2.33244e-28
1.10681e-28
-2.71797e-28
3.85525e-29
-2.58079e-28
-1.37179e-29
-1.90248e-28
-6.78306e-29
-8.13833e-29
-1.08865e-28
1.71105e-29
-9.84938e-29
9.04565e-29
-7.3346e-29
1.51843e-28
-6.13869e-29
1.70325e-28
-1.84819e-29
1.28472e-28
4.1853e-29
6.81006e-29
6.03717e-29
1.56666e-29
5.2434e-29
-3.23157e-29
4.79823e-29
-6.48413e-29
3.25256e-29
-7.62438e-29
1.14025e-29
-7.12828e-29
-4.96104e-30
-4.39513e-29
-2.73314e-29
-6.01702e-30
-3.79343e-29
1.77486e-29
-2.37656e-29
3.25078e-29
-1.47592e-29
4.79383e-29
-1.54305e-29
5.43391e-29
-6.40081e-30
5.28033e-29
1.53581e-30
4.92438e-29
3.55948e-30
3.9804e-29
9.43981e-30
3.17653e-29
8.03872e-30
3.16965e-29
6.88136e-32
2.92831e-29
2.41332e-30
2.35078e-29
5.77529e-30
2.31632e-29
3.4468e-31
2.49913e-29
-1.82816e-30
2.29606e-29
2.03068e-30
1.75216e-29
5.43907e-30
1.43903e-29
3.13129e-30
1.89538e-29
-4.56356e-30
2.35412e-29
-4.58739e-30
2.17046e-29
1.83658e-30
2.8729e-29
-7.02435e-30
4.2246e-29
-1.3517e-29
3.8314e-29
3.932e-30
2.05496e-29
1.77644e-29
1.44223e-29
6.12728e-30
9.57379e-30
4.84852e-30
3.31115e-30
6.26264e-30
1.17531e-30
2.13584e-30
1.05977e-29
-9.42238e-30
9.33804e-31
9.66389e-30
1.48966e-29
-1.39628e-29
5.48952e-29
-3.99985e-29
5.48952e-29
-3.57069e-28
6.16859e-28
-3.27261e-28
-3.14937e-29
-1.39109e-29
-5.10867e-28
2.81916e-28
-4.9441e-28
4.68161e-28
-3.21446e-28
5.34946e-28
-1.31319e-28
4.55594e-28
1.14026e-28
2.71935e-28
2.92008e-28
3.04842e-29
3.96435e-28
-2.05451e-28
3.96576e-28
-3.57435e-28
2.62666e-28
-3.96827e-28
7.79446e-29
-3.5412e-28
-5.64257e-29
-2.33789e-28
-1.88161e-28
-6.09368e-29
-2.81717e-28
9.07307e-29
-2.50161e-28
1.99022e-28
-1.81637e-28
2.80742e-28
-1.43107e-28
2.96717e-28
-3.44564e-29
2.27684e-28
1.10885e-28
1.33487e-28
1.54569e-28
5.32315e-29
1.3269e-28
-1.52487e-29
1.16463e-28
-5.74592e-29
7.47362e-29
-6.70305e-29
2.09738e-29
-5.16022e-29
-2.03893e-29
-5.48306e-30
-7.34505e-29
5.33287e-29
-9.6746e-29
9.08226e-29
-6.12595e-29
1.13533e-28
-3.74701e-29
1.347e-28
-3.65975e-29
1.42519e-28
-1.42197e-29
1.39098e-28
4.95753e-30
1.32633e-28
1.00236e-29
1.1868e-28
2.33932e-29
1.07125e-28
1.95936e-29
1.06323e-28
8.71189e-31
1.02401e-28
6.33465e-30
9.38575e-29
1.43193e-29
9.22551e-29
1.94708e-30
9.34084e-29
-2.98148e-30
8.93019e-29
6.13723e-30
8.06478e-29
1.40931e-29
7.54791e-29
8.29997e-30
8.08748e-29
-9.95921e-30
8.61449e-29
-9.85751e-30
8.28268e-29
5.15469e-30
9.0789e-29
-1.49865e-29
1.06352e-28
-2.90803e-29
9.70788e-29
1.32054e-29
6.89124e-29
4.59308e-29
5.51651e-29
1.98746e-29
4.44059e-29
1.56077e-29
3.14748e-29
1.91937e-29
2.58018e-29
7.80884e-30
3.46856e-29
-1.83062e-29
1.67084e-29
2.76411e-29
3.57878e-29
-3.30422e-29
7.01053e-29
-7.4316e-29
1.25e-28
-2.67231e-28
8.8409e-28
-2.01877e-28
-9.68478e-29
1.01952e-28
-8.14696e-28
3.87601e-28
-7.80059e-28
5.45299e-28
-4.79145e-28
5.67115e-28
-1.53135e-28
4.49993e-28
2.31148e-28
2.40212e-28
5.01788e-28
-8.33954e-30
6.44987e-28
-2.31281e-28
6.19517e-28
-3.59168e-28
3.90552e-28
-3.70706e-28
8.94826e-29
-2.96962e-28
-1.30169e-28
-1.52617e-28
-3.32506e-28
3.00268e-29
-4.64362e-28
1.83694e-28
-4.03829e-28
2.86752e-28
-2.84695e-28
3.51613e-28
-2.07968e-28
3.50299e-28
-3.31418e-29
2.73776e-28
1.87408e-28
1.76573e-28
2.51772e-28
9.60569e-29
2.13205e-28
3.43363e-29
1.78183e-28
2.71287e-30
1.0636e-28
4.34343e-30
1.93432e-29
3.09594e-29
-4.70053e-29
8.34352e-29
-1.25926e-28
1.43696e-28
-1.57007e-28
1.82933e-28
-1.00496e-28
2.05887e-28
-6.04235e-29
2.23733e-28
-5.44437e-29
2.28796e-28
-1.92823e-29
2.23828e-28
9.92513e-30
2.15921e-28
1.79306e-29
2.0258e-28
3.67344e-29
1.92002e-28
3.01714e-29
1.9024e-28
2.63333e-30
1.85961e-28
1.06135e-29
1.77731e-28
2.25489e-29
1.74581e-28
5.09699e-30
1.73401e-28
-1.80089e-30
1.67823e-28
1.17147e-29
1.58608e-28
2.33079e-29
1.52832e-28
1.4076e-29
1.55999e-28
-1.31262e-29
1.58806e-28
-1.26637e-29
1.54646e-28
9.31433e-30
1.58654e-28
-1.89949e-29
1.67053e-28
-3.74789e-29
1.53046e-28
2.72126e-29
1.23158e-28
7.58188e-29
1.03137e-28
3.98951e-29
8.74826e-29
3.12625e-29
6.96712e-29
3.7005e-29
6.03786e-29
1.71015e-29
6.14926e-29
-1.94201e-29
3.86112e-29
5.05225e-29
5.43233e-29
-4.87543e-29
5.13174e-29
-7.13101e-29
1.76318e-28
-1.96242e-28
1.08033e-27
-7.42691e-29
-2.1882e-28
2.26253e-28
-1.11522e-27
5.01876e-28
-1.05568e-27
6.29438e-28
-6.06707e-28
6.03579e-28
-1.27276e-28
4.45793e-28
3.88934e-28
2.0757e-28
7.40012e-28
-4.92778e-29
9.01834e-28
-2.59113e-28
8.29352e-28
-3.61624e-28
4.93063e-28
-3.43259e-28
7.11183e-29
-2.36194e-28
-2.37235e-28
-6.5797e-29
-5.02902e-28
1.28049e-28
-6.58208e-28
2.84295e-28
-5.60075e-28
3.81901e-28
-3.82301e-28
4.2912e-28
-2.55187e-28
4.0949e-28
-1.35113e-29
3.24557e-28
2.72341e-28
2.23787e-28
3.52541e-28
1.42886e-28
2.94106e-28
8.82206e-29
2.32849e-28
6.78333e-29
1.26747e-28
8.1496e-29
5.68049e-30
1.20104e-28
-8.56132e-29
1.79579e-28
-1.85401e-28
2.41702e-28
-2.1913e-28
2.82861e-28
-1.41656e-28
3.06056e-28
-8.36182e-29
3.20456e-28
-6.8844e-29
3.22576e-28
-2.14023e-29
3.15901e-28
1.65999e-29
3.06461e-28
2.73706e-29
2.93701e-28
4.94947e-29
2.84105e-28
3.97674e-29
2.81393e-28
5.34576e-30
2.76736e-28
1.52704e-29
2.6876e-28
3.05251e-29
2.63954e-28
9.90288e-30
2.6029e-28
1.86253e-30
2.53082e-28
1.89225e-29
2.43161e-28
3.32295e-29
2.3663e-28
2.06065e-29
2.37426e-28
-1.39219e-29
2.37609e-28
-1.28467e-29
2.32412e-28
1.45113e-29
2.32202e-28
-1.87848e-29
2.33118e-28
-3.83949e-29
2.14003e-28
4.63281e-29
1.81996e-28
1.07826e-28
1.55272e-28
6.66189e-29
1.34259e-28
5.22756e-29
1.11092e-28
6.01716e-29
9.77087e-29
3.04851e-29
9.0597e-29
-1.23084e-29
6.21833e-29
7.89362e-29
7.3932e-29
-6.0503e-29
3.24944e-29
-2.98725e-29
2.08812e-28
-1.20092e-28
1.20042e-27
5.64837e-29
-3.95396e-28
3.59014e-28
-1.41775e-27
6.2493e-28
-1.3216e-27
7.2092e-28
-7.02697e-28
6.44771e-28
-5.11266e-29
4.43411e-28
5.90293e-28
1.7437e-28
1.00905e-27
-9.20668e-29
1.16827e-27
-2.88801e-28
1.02609e-27
-3.64744e-28
5.69006e-28
-3.14456e-28
2.08297e-29
-1.71777e-28
-3.79914e-28
2.67616e-29
-7.01441e-28
2.33322e-28
-8.64768e-28
3.92818e-28
-7.19571e-28
4.84827e-28
-4.7431e-28
5.13698e-28
-2.84058e-28
4.7477e-28
2.54163e-29
3.80488e-28
3.66623e-28
2.75556e-28
4.57473e-28
1.94116e-28
3.75546e-28
1.46767e-28
2.80198e-28
1.38242e-28
1.35272e-28
1.64765e-28
-2.08422e-29
2.16179e-28
-1.37027e-28
2.83331e-28
-2.52553e-28
3.47782e-28
-2.83582e-28
3.91081e-28
-1.84954e-28
4.14545e-28
-1.07082e-28
4.25404e-28
-7.9703e-29
4.24407e-28
-2.04048e-29
4.15857e-28
2.51494e-29
4.04779e-28
3.84486e-29
3.92537e-28
6.17365e-29
3.83892e-28
4.84123e-29
3.80215e-28
9.0227e-30
3.7514e-28
2.03462e-29
3.67341e-28
3.83238e-29
3.60777e-28
1.6467e-29
3.54504e-28
8.13589e-30
3.45533e-28
2.78931e-29
3.34781e-28
4.39813e-29
3.27366e-28
2.80212e-29
3.25657e-28
-1.2212e-29
3.23044e-28
-1.02342e-29
3.16564e-28
2.09913e-29
3.11813e-28
-1.40334e-29
3.04876e-28
-3.14585e-29
2.80208e-28
7.09967e-29
2.45624e-28
1.42409e-28
2.11736e-28
1.00508e-28
1.84917e-28
7.90946e-29
1.55919e-28
8.91696e-29
1.38012e-28
4.83921e-29
1.22204e-28
3.49916e-30
8.75978e-29
1.13543e-28
9.46715e-29
-6.75767e-29
1.37591e-29
5.10398e-29
2.22571e-28
-4.01036e-29
1.24053e-27
1.94884e-28
-6.30383e-28
5.00418e-28
-1.72328e-27
7.57142e-28
-1.57832e-27
8.20226e-28
-7.65781e-28
6.91214e-28
7.78852e-29
4.43297e-28
8.3821e-28
1.40935e-28
1.31141e-27
-1.36549e-28
1.44576e-27
-3.20335e-28
1.20987e-27
-3.68595e-28
6.17266e-28
-2.84353e-28
-6.34126e-29
-1.03711e-28
-5.60556e-28
1.25171e-28
-9.30323e-28
3.46108e-28
-1.0857e-27
5.09645e-28
-8.83108e-28
5.9599e-28
-5.60655e-28
6.05869e-28
-2.93936e-28
5.46674e-28
8.46109e-29
4.42053e-28
4.71244e-28
3.32301e-28
5.67225e-28
2.50123e-28
4.57724e-28
2.10317e-28
3.20004e-28
2.14268e-28
1.31321e-28
2.54492e-28
-6.10661e-29
3.19555e-28
-2.0209e-28
3.95113e-28
-3.28112e-28
4.62419e-28
-3.50887e-28
5.08112e-28
-2.30648e-28
5.31896e-28
-1.30866e-28
5.39137e-28
-8.69433e-29
5.34848e-28
-1.61157e-29
5.24244e-28
3.57533e-29
5.11407e-28
5.12856e-29
4.99598e-28
7.35454e-29
4.91854e-28
5.6156e-29
4.87191e-28
1.36854e-29
4.8165e-28
2.58868e-29
4.73948e-28
4.60265e-29
4.65529e-28
2.48854e-29
4.56527e-28
1.71385e-29
4.45666e-28
3.87537e-29
4.33953e-28
5.56941e-29
4.25516e-28
3.64581e-29
4.21151e-28
-7.84655e-30
4.15552e-28
-4.63561e-30
4.07499e-28
2.90441e-29
3.9786e-28
-4.39341e-30
3.82676e-28
-1.6275e-29
3.51985e-28
1.01688e-28
3.14328e-28
1.80065e-28
2.72804e-28
1.42032e-28
2.3972e-28
1.12178e-28
2.04388e-28
1.24502e-28
1.81499e-28
7.1281e-29
1.56476e-28
2.85218e-29
1.14973e-28
1.55045e-28
1.1654e-28
-6.91432e-29
-4.77227e-30
1.72352e-28
2.17799e-28
4.20127e-29
1.19851e-27
3.41161e-28
-9.29531e-28
6.5057e-28
-2.03269e-27
8.98865e-28
-1.82662e-27
9.27842e-28
-7.94758e-28
7.43472e-28
2.62256e-28
4.45961e-28
1.13572e-27
1.07658e-28
1.64972e-27
-1.82498e-28
1.73591e-27
-3.53649e-28
1.38102e-27
-3.73216e-28
6.36833e-28
-2.53005e-28
-1.83624e-28
-3.20101e-29
-7.8155e-28
2.29521e-28
-1.19185e-27
4.6664e-28
-1.32282e-27
6.3514e-28
-1.05161e-27
7.15844e-28
-6.4136e-28
7.06165e-28
-2.84257e-28
6.25762e-28
1.65014e-28
5.09772e-28
5.87234e-28
3.94486e-28
6.82511e-28
3.11328e-28
5.40882e-28
2.79253e-28
3.5208e-28
2.96276e-28
1.14297e-28
3.5105e-28
-1.1584e-28
4.30627e-28
-2.81667e-28
5.15364e-28
-4.12849e-28
5.86098e-28
-4.21621e-28
6.34467e-28
-2.79017e-28
6.58635e-28
-1.55034e-28
6.62193e-28
-9.05013e-29
6.54442e-28
-8.3642e-30
6.41603e-28
4.85924e-29
6.26892e-28
6.59968e-29
6.15435e-28
8.50022e-29
6.08551e-28
6.30395e-29
6.029e-28
1.9337e-29
5.96856e-28
3.19308e-29
5.89159e-28
5.37235e-29
5.78773e-28
3.52709e-29
5.66894e-28
2.90181e-29
5.53973e-28
5.16747e-29
5.41118e-28
6.85493e-29
5.31477e-28
4.60983e-29
5.24283e-28
-6.5249e-31
5.15503e-28
4.14422e-30
5.05588e-28
3.89592e-29
4.90741e-28
1.04541e-29
4.6695e-28
7.51592e-30
4.29785e-28
1.38853e-28
3.88527e-28
2.21324e-28
3.38874e-28
1.91685e-28
2.98984e-28
1.52068e-28
2.56748e-28
1.66738e-28
2.28306e-28
9.97227e-29
1.93528e-28
6.33006e-29
1.44354e-28
2.04219e-28
1.39581e-28
-6.43708e-29
-2.29849e-29
3.34918e-28
1.94814e-28
1.25384e-28
1.07313e-27
4.90833e-28
-1.29498e-27
8.09524e-28
-2.35138e-27
1.05043e-27
-2.06752e-27
1.04427e-27
-7.88602e-28
8.02148e-28
5.04379e-28
4.51979e-28
1.48589e-27
7.49969e-29
2.0267e-27
-2.29629e-28
2.04054e-27
-3.88643e-28
1.54004e-27
-3.78629e-28
6.26818e-28
-2.20468e-28
-3.41784e-28
4.32954e-29
-1.04531e-27
3.39875e-28
-1.48843e-27
5.95141e-28
-1.57809e-27
7.69664e-28
-1.22613e-27
8.4486e-28
-7.16556e-28
8.15149e-28
-2.54546e-28
7.12636e-28
2.67527e-28
5.84209e-28
7.15661e-28
4.62618e-28
8.04103e-28
3.78191e-28
6.25309e-28
3.53986e-28
3.76284e-28
3.8465e-28
8.3634e-29
4.54824e-28
-1.86015e-28
5.49798e-28
-3.7664e-28
6.44529e-28
-5.0758e-28
7.19323e-28
-4.96416e-28
7.70688e-28
-3.30382e-28
7.95329e-28
-1.79675e-28
7.95166e-28
-9.03389e-29
7.83792e-28
3.00997e-30
7.68536e-28
6.38485e-29
7.51833e-28
8.26997e-29
7.40637e-28
9.61981e-29
7.34563e-28
6.91142e-29
7.27919e-28
2.59812e-29
7.21326e-28
3.85239e-29
7.13529e-28
6.15197e-29
7.01053e-28
4.77478e-29
6.86139e-28
4.3932e-29
6.70969e-28
6.68438e-29
6.56773e-28
8.27459e-29
6.4573e-28
5.71412e-29
6.35532e-28
9.54591e-30
6.23368e-28
1.6308e-29
6.11287e-28
5.10396e-29
5.90901e-28
3.08408e-29
5.58142e-28
4.02749e-29
5.14021e-28
1.82974e-28
4.68575e-28
2.66769e-28
4.10264e-28
2.49996e-28
3.62975e-28
1.99357e-28
3.13236e-28
2.16478e-28
2.78619e-28
1.34339e-28
2.33549e-28
1.08371e-28
1.75856e-28
2.61913e-28
1.63919e-28
-5.24337e-29
-4.07738e-29
5.39611e-28
1.5404e-28
2.11278e-28
8.61853e-28
6.4366e-28
-1.72736e-27
9.77299e-28
-2.68502e-27
1.21212e-27
-2.30234e-27
1.17001e-27
-7.46495e-28
8.67876e-28
8.06515e-28
4.61978e-28
1.89179e-27
4.34714e-29
2.44521e-27
-2.77601e-28
2.36161e-27
-4.25176e-28
1.68761e-27
-3.84841e-28
5.86482e-28
-1.86806e-28
-5.39818e-28
1.22156e-28
-1.35428e-27
4.56277e-28
-1.82255e-27
7.3181e-28
-1.85362e-27
9.13574e-28
-1.40789e-27
9.83516e-28
-7.86498e-28
9.33412e-28
-2.04442e-28
8.07943e-28
3.92996e-28
6.6598e-28
8.57623e-28
5.37252e-28
9.32832e-28
4.5121e-28
7.11351e-28
4.34961e-28
3.92533e-28
4.79796e-28
3.87987e-29
5.66215e-28
-2.72433e-28
6.77484e-28
-4.8791e-28
7.83072e-28
-6.13168e-28
8.62627e-28
-5.75971e-28
9.17356e-28
-3.85111e-28
9.42594e-28
-2.04913e-28
9.38705e-28
-8.64504e-29
9.2356e-28
1.81553e-29
9.05699e-28
8.17099e-29
8.86873e-28
1.01525e-28
8.75821e-28
1.07251e-28
8.70477e-28
7.4458e-29
8.62822e-28
3.36354e-29
8.55622e-28
4.57246e-29
8.47609e-28
6.95321e-29
8.32919e-28
6.24385e-29
8.14822e-28
6.20284e-29
7.97223e-28
8.44432e-29
7.81485e-28
9.84834e-29
7.68834e-28
6.97922e-29
7.5545e-28
2.29301e-29
7.3968e-28
3.20779e-29
7.25092e-28
6.56277e-29
6.98795e-28
5.71382e-29
6.5668e-28
8.23895e-29
6.0507e-28
2.34584e-28
5.54803e-28
3.17036e-28
4.87271e-28
3.17528e-28
4.31978e-28
2.5465e-28
3.74107e-28
2.74348e-28
3.32682e-28
1.75764e-28
2.76752e-28
1.64301e-28
2.09638e-28
3.29027e-28
1.89637e-28
-3.24331e-29
-5.80327e-29
7.87281e-28
9.60076e-29
2.99103e-28
5.6275e-28
8.02793e-28
-2.23105e-27
1.15385e-27
-3.03608e-27
1.38418e-27
-2.53267e-27
1.30555e-27
-6.67863e-28
9.4132e-28
1.17075e-27
4.76645e-28
2.35646e-27
1.36749e-29
2.90817e-27
-3.26006e-28
2.70129e-27
-4.63058e-28
1.82467e-27
-3.91833e-28
5.15257e-28
-1.52079e-28
-7.79572e-28
2.04504e-28
-1.71086e-27
5.7874e-28
-2.19679e-27
8.76826e-28
-2.15171e-27
1.06721e-27
-1.59828e-27
1.13229e-27
-8.51579e-28
1.06156e-27
-1.33713e-28
9.12362e-28
5.42199e-28
7.55744e-28
1.01424e-27
6.1899e-28
1.06959e-27
5.30932e-28
7.99409e-28
5.22661e-28
4.00804e-28
5.82156e-28
-2.06964e-29
6.8565e-28
-3.75927e-28
8.14125e-28
-6.16385e-28
9.31482e-28
-7.30525e-28
1.01656e-27
-6.61052e-28
1.07507e-27
-4.43618e-28
1.10106e-27
-2.30907e-28
1.09348e-27
-7.88622e-29
1.07442e-27
3.72079e-29
1.05376e-27
1.02369e-28
1.03268e-27
1.22612e-28
1.02163e-27
1.18294e-28
1.01693e-27
7.91638e-29
1.00824e-27
4.23188e-29
1.00037e-27
5.3595e-29
9.92019e-28
7.78872e-29
9.74989e-28
7.94685e-29
9.53557e-28
8.34606e-29
9.33331e-28
1.04669e-28
9.15829e-28
1.15986e-28
9.01339e-28
8.42821e-29
8.84566e-28
3.97024e-29
8.64951e-28
5.16936e-29
8.47481e-28
8.30972e-29
8.1489e-28
8.97297e-29
7.63029e-28
1.3425e-28
7.0338e-28
2.94234e-28
6.47614e-28
3.72802e-28
5.70273e-28
3.94868e-28
5.06333e-28
3.18591e-28
4.39648e-28
3.41033e-28
3.90725e-28
2.24687e-28
3.23311e-28
2.31715e-28
2.45825e-28
4.06513e-28
2.16778e-28
-3.38602e-30
-7.46244e-29
1.07868e-27
2.13832e-29
3.86276e-28
1.76474e-28
9.67704e-28
-2.81248e-27
1.33905e-27
-3.40743e-27
1.56684e-27
-2.76045e-27
1.45138e-27
-5.52405e-28
1.02318e-27
1.59895e-27
4.96732e-28
2.88291e-27
-1.37176e-29
3.41863e-27
-3.74357e-28
3.06193e-27
-5.02037e-28
1.95235e-27
-3.99555e-28
4.12775e-28
-1.16342e-28
-1.06279e-27
2.90255e-28
-2.11746e-27
7.07251e-28
-2.61379e-27
1.03033e-27
-2.47479e-27
1.2309e-27
-1.79885e-27
1.29167e-27
-9.12351e-28
1.20024e-27
-4.22782e-29
1.02661e-27
7.15826e-28
8.54207e-28
1.18665e-27
7.08488e-28
1.2153e-27
6.17953e-28
8.89944e-28
6.17614e-28
4.01143e-28
6.92204e-28
-9.52872e-29
8.13585e-28
-4.97307e-28
9.60182e-28
-7.62982e-28
1.09026e-27
-8.60602e-28
1.1817e-27
-7.52488e-28
1.24445e-27
-5.06368e-28
1.27139e-27
-2.57852e-28
1.26016e-27
-6.76363e-29
1.23709e-27
6.02862e-29
1.21344e-27
1.26015e-28
1.18995e-27
1.461e-28
1.17877e-27
1.29475e-28
1.1746e-27
8.33351e-29
1.16487e-27
5.20493e-29
1.15626e-27
6.22013e-29
1.14743e-27
8.67241e-29
1.12792e-27
9.89729e-29
1.10299e-27
1.08395e-28
1.07992e-27
1.2774e-28
1.06039e-27
1.35511e-28
1.0438e-27
1.00871e-28
1.02342e-27
6.00847e-29
9.99706e-28
7.54082e-29
9.78959e-28
1.03844e-28
9.39687e-28
1.29002e-28
8.77696e-28
1.96241e-28
8.09442e-28
3.62487e-28
7.47451e-28
4.34794e-28
6.59683e-28
4.82636e-28
5.86393e-28
3.9188e-28
5.10155e-28
4.17272e-28
4.52971e-28
2.81871e-28
3.73414e-28
3.11272e-28
2.84542e-28
4.95385e-28
2.45416e-28
3.57398e-29
-9.03957e-29
1.41449e-27
-6.90125e-29
4.72442e-28
-2.95968e-28
1.13553e-27
-3.47557e-27
1.53268e-27
-3.80458e-27
1.76022e-27
-2.988e-27
1.60795e-27
-4.00138e-28
1.11418e-27
2.09272e-27
5.23059e-28
3.47403e-27
-3.79471e-29
3.97963e-27
-4.22084e-28
3.44607e-27
-5.41797e-28
2.07206e-27
-4.07915e-28
2.78892e-28
-7.96431e-29
-1.39106e-27
3.79307e-28
-2.57641e-27
8.41764e-28
-3.07624e-27
1.19245e-27
-2.82548e-27
1.40494e-27
-2.01134e-27
1.46214e-27
-9.69543e-28
1.35008e-27
6.97733e-29
1.15145e-27
9.1446e-28
9.62131e-28
1.37596e-27
8.06457e-28
1.37098e-27
7.12924e-28
9.83476e-28
7.20394e-28
3.93673e-28
8.10453e-28
-1.85346e-28
9.505e-28
-6.37354e-28
1.11613e-27
-9.28615e-28
1.25992e-27
-1.00439e-27
1.35861e-27
-8.51178e-28
1.42612e-27
-5.7388e-28
1.45426e-27
-2.85986e-28
1.4395e-27
-5.28782e-29
1.4123e-27
8.74859e-29
1.38548e-27
1.52835e-28
1.35945e-27
1.72134e-28
1.34797e-27
1.40955e-28
1.34421e-27
8.70928e-29
1.33341e-27
6.28505e-29
1.32399e-27
7.16183e-29
1.31452e-27
9.61963e-29
1.2924e-27
1.21095e-28
1.26379e-27
1.37004e-28
1.23764e-27
1.53891e-28
1.21581e-27
1.57338e-28
1.19684e-27
1.19845e-28
1.17261e-27
8.43148e-29
1.14452e-27
1.03491e-28
1.12008e-27
1.28293e-28
1.07372e-27
1.75357e-28
1.00121e-27
2.68756e-28
9.23757e-28
4.39936e-28
8.54757e-28
5.03794e-28
7.55906e-28
5.81487e-28
6.72514e-28
4.75272e-28
5.85937e-28
5.03849e-28
5.19665e-28
3.48143e-28
4.27278e-28
4.03659e-28
3.25936e-28
5.96728e-28
2.75656e-28
8.60192e-29
-1.05203e-28
1.79535e-27
-1.74215e-28
5.58738e-28
-8.54706e-28
1.30553e-27
-4.22236e-27
1.73443e-27
-4.23347e-27
1.96441e-27
-3.21798e-27
1.77571e-27
-2.11441e-28
1.21507e-27
2.65336e-27
5.56504e-28
4.1326e-27
-5.81674e-29
4.5943e-27
-4.68523e-28
3.85642e-27
-5.81943e-28
2.18548e-27
-4.16777e-28
1.13726e-28
-4.20165e-29
-1.76582e-27
4.71542e-28
-3.08996e-27
9.82202e-28
-3.5869e-27
1.36326e-27
-3.20653e-27
1.58962e-27
-2.2377e-27
1.64415e-27
-1.02408e-27
1.51177e-27
2.02156e-28
1.28767e-27
1.13856e-27
1.08033e-27
1.58331e-27
9.1367e-28
1.53764e-27
8.16554e-28
1.08059e-27
8.31628e-28
3.786e-28
9.37454e-28
-2.91172e-28
1.09691e-27
-7.96807e-28
1.28248e-27
-1.11419e-27
1.44101e-27
-1.16292e-27
1.54792e-27
-9.58086e-28
1.62077e-27
-6.46731e-28
1.65039e-27
-3.156e-28
1.63225e-27
-3.47417e-29
1.60086e-27
1.18876e-28
1.57068e-27
1.8301e-28
1.54196e-27
2.00862e-28
1.53e-27
1.52915e-28
1.52651e-27
9.05774e-29
1.51461e-27
7.47532e-29
1.5043e-27
8.19302e-29
1.49402e-27
1.06471e-28
1.46913e-27
1.45982e-28
1.43667e-27
1.69467e-28
1.40719e-27
1.83373e-28
1.38276e-27
1.8177e-28
1.36109e-27
1.41516e-28
1.33275e-27
1.1265e-28
1.30001e-27
1.36234e-28
1.2714e-27
1.56899e-28
1.21754e-27
2.29215e-28
1.13411e-27
3.52193e-28
1.04684e-27
5.27199e-28
9.70001e-28
5.80636e-28
8.59377e-28
6.92111e-28
7.65079e-28
5.69569e-28
6.67325e-28
6.01603e-28
5.91076e-28
4.24392e-28
4.8513e-28
5.09605e-28
3.70162e-28
7.11696e-28
3.07599e-28
1.48582e-28
-1.18901e-28
2.22185e-27
-2.93116e-28
6.44493e-28
-1.4992e-27
1.47803e-27
-5.0559e-27
1.9439e-27
-4.69935e-27
2.17941e-27
-3.45348e-27
1.95506e-27
1.29021e-29
1.32662e-27
3.2818e-27
5.98011e-28
4.86121e-27
-7.34403e-29
5.26575e-27
-5.12914e-28
4.29589e-27
-6.21998e-28
2.29457e-27
-4.25949e-28
-8.23229e-29
-3.47561e-30
-2.18829e-27
5.66835e-28
-3.66028e-27
1.12845e-27
-4.14852e-27
1.54279e-27
-3.62087e-27
1.78517e-27
-2.48008e-27
1.83819e-27
-1.07709e-27
1.68598e-27
3.54367e-28
1.43611e-27
1.38842e-27
1.20967e-27
1.80976e-27
1.03096e-27
1.71634e-27
9.29614e-28
1.18194e-27
9.51994e-28
3.5622e-28
1.0738e-27
-4.12981e-28
1.25335e-27
-9.76353e-28
1.45975e-27
-1.32059e-27
1.63409e-27
-1.33726e-27
1.75025e-27
-1.07425e-27
1.82908e-27
-7.2556e-28
1.86051e-27
-3.47036e-28
1.83921e-27
-1.34345e-29
1.80359e-27
1.54493e-28
1.76989e-27
2.16712e-28
1.73831e-27
2.32434e-28
1.72568e-27
1.65552e-28
1.72231e-27
9.39481e-29
1.70926e-27
8.77952e-29
1.69796e-27
9.32299e-29
1.68671e-27
1.17728e-28
1.6589e-27
1.73793e-28
1.62239e-27
2.05972e-28
1.58931e-27
2.16454e-28
1.56194e-27
2.09142e-28
1.53723e-27
1.66227e-28
1.5045e-27
1.45373e-28
1.46679e-27
1.73948e-28
1.43354e-27
1.90149e-28
1.37174e-27
2.91014e-28
1.27698e-27
4.46955e-28
1.17926e-27
6.24922e-28
1.09368e-27
6.66208e-28
9.70559e-28
8.15235e-28
8.645e-28
6.75628e-28
7.54672e-28
7.11431e-28
6.67482e-28
5.11582e-28
5.47196e-28
6.29891e-28
4.17381e-28
8.41511e-28
3.41345e-28
2.24619e-28
-1.31333e-28
2.69453e-27
-4.24449e-28
7.28063e-28
-2.22726e-27
1.65229e-27
-5.98012e-27
2.16059e-27
-5.20765e-27
2.4051e-27
-3.698e-27
2.14635e-27
2.71659e-28
1.44959e-27
3.97855e-27
6.4858e-28
5.66222e-27
-8.27332e-29
5.99707e-27
-5.5439e-28
4.76755e-27
-6.6139e-28
2.40157e-27
-4.35173e-28
-3.08539e-28
3.59933e-29
-2.65946e-27
6.65049e-28
-4.28933e-27
1.28038e-27
-4.76385e-27
1.73105e-27
-4.07154e-27
1.9918e-27
-2.74084e-27
2.04468e-27
-1.12997e-27
1.87339e-27
5.25656e-28
1.59763e-27
1.66417e-27
1.35107e-27
2.05633e-27
1.15923e-27
1.90818e-27
1.05294e-27
1.28822e-27
1.08224e-27
3.26924e-28
1.22015e-27
-5.50891e-28
1.42041e-27
-1.17661e-27
1.6485e-27
-1.54868e-27
1.83972e-27
-1.52849e-27
1.96624e-27
-1.20076e-27
2.05175e-27
-8.11073e-28
2.08541e-27
-3.80698e-28
2.0612e-27
1.07761e-29
2.02136e-27
1.94337e-28
1.98397e-27
2.541e-28
1.9494e-27
2.67002e-28
1.93587e-27
1.79081e-28
1.93244e-27
9.73833e-29
1.91821e-27
1.02022e-28
1.90582e-27
1.0562e-28
1.89338e-27
1.30165e-28
1.86249e-27
2.04691e-28
1.82174e-27
2.46714e-28
1.78477e-27
2.53425e-28
1.7541e-27
2.39817e-28
1.72597e-27
1.94354e-28
1.68855e-27
1.82792e-28
1.64553e-27
2.16973e-28
1.60711e-27
2.28563e-28
1.53692e-27
3.61207e-28
1.43043e-27
5.5345e-28
1.32158e-27
7.3377e-28
1.22634e-27
7.61449e-28
1.08995e-27
9.51625e-28
9.71211e-28
7.94364e-28
8.48349e-28
8.34293e-28
7.49179e-28
6.10753e-28
6.1372e-28
7.65349e-28
4.67763e-28
9.87468e-28
3.77003e-28
3.15379e-28
-1.42333e-28
3.21387e-27
-5.66782e-28
8.08656e-28
-3.03592e-27
1.82703e-27
-6.9985e-27
2.38385e-27
-5.76446e-27
2.6413e-27
-3.95546e-27
2.34985e-27
5.63107e-28
1.58475e-27
4.74365e-27
7.09271e-28
6.53771e-27
-8.49169e-29
6.79125e-27
-5.91971e-28
5.27461e-27
-6.9944e-28
2.50903e-27
-4.44117e-28
-5.63862e-28
7.64397e-29
-3.18001e-27
7.66045e-28
-4.97894e-27
1.4378e-27
-5.4356e-27
1.92798e-27
-4.56172e-27
2.20969e-27
-3.02255e-27
2.26405e-27
-1.18432e-27
2.0747e-27
7.15005e-28
1.77313e-27
1.96574e-27
1.5055e-27
2.32396e-27
1.29943e-27
2.11425e-27
1.18744e-27
1.40022e-27
1.22316e-27
2.91208e-28
1.37718e-27
-7.04916e-28
1.5987e-27
-1.39814e-27
1.8493e-27
-1.79928e-27
2.05853e-27
-1.73771e-27
2.19656e-27
-1.33879e-27
2.28953e-27
-9.0404e-28
2.32588e-27
-4.17054e-28
2.2991e-27
3.75569e-29
2.25507e-27
2.38364e-28
2.21386e-27
2.95315e-28
2.17615e-27
3.04714e-28
2.1615e-27
1.93731e-28
2.1578e-27
1.01081e-28
2.14233e-27
1.17489e-28
2.12874e-27
1.19215e-28
2.11491e-27
1.4399e-28
2.08075e-27
2.38849e-28
2.03557e-27
2.919e-28
1.9944e-27
2.94594e-28
1.96002e-27
2.74193e-28
1.92807e-27
2.26309e-28
1.88562e-27
2.25243e-28
1.83692e-27
2.65672e-28
1.79278e-27
2.72698e-28
1.71373e-27
4.40262e-28
1.59508e-27
6.72093e-28
1.47442e-27
8.54436e-28
1.36852e-27
8.67353e-28
1.21806e-27
1.10208e-27
1.08567e-27
9.26752e-28
9.48752e-28
9.71209e-28
8.36476e-28
7.23028e-28
6.84956e-28
9.1687e-28
5.21486e-28
1.15094e-27
4.14694e-28
4.22171e-28
-1.51732e-28
3.78029e-27
-7.18513e-28
8.85886e-28
-3.9218e-27
2.00114e-27
-8.11375e-27
2.61292e-27
-6.37624e-27
2.88768e-27
-4.23021e-27
2.5658e-27
8.84987e-28
1.73286e-27
5.57659e-27
7.81188e-28
7.48938e-27
-7.87658e-29
7.65121e-27
-6.2456e-28
5.8204e-27
-7.35357e-28
2.61983e-27
-4.5236e-28
-8.46859e-28
1.17959e-28
-3.75033e-27
8.6969e-28
-5.73067e-27
1.60051e-27
-6.16642e-27
2.13349e-27
-5.09471e-27
2.43895e-27
-3.32801e-27
2.49668e-27
-1.24206e-27
2.29059e-27
9.21097e-28
1.96353e-27
2.2928e-27
1.674e-27
2.61349e-27
1.45262e-27
2.33563e-27
1.3341e-27
1.51874e-27
1.37563e-27
2.49671e-28
1.54567e-27
-8.74952e-28
1.78891e-27
-1.64137e-27
2.06279e-27
-2.07316e-27
2.29113e-27
-1.96605e-27
2.4419e-27
-1.48957e-27
2.54317e-27
-1.0053e-27
2.58275e-27
-4.56642e-28
2.55381e-27
6.65023e-29
2.50569e-27
2.8648e-28
2.46053e-27
3.40476e-28
2.41953e-27
3.45714e-28
2.40352e-27
2.09748e-28
2.39934e-27
1.05261e-28
2.38256e-27
1.34261e-28
2.36764e-27
1.3414e-28
2.3522e-27
1.59432e-28
2.3146e-27
2.76451e-28
2.26475e-27
3.41746e-28
2.21905e-27
3.40296e-28
2.18054e-27
3.12701e-28
2.14431e-27
2.62543e-28
2.09645e-27
2.73096e-28
2.04169e-27
3.2044e-28
1.99124e-27
3.23141e-28
1.90284e-27
5.28669e-28
1.77162e-27
8.03305e-28
1.63843e-27
9.87632e-28
1.52081e-27
9.84969e-28
1.35544e-27
1.26746e-27
1.20836e-27
1.07383e-27
1.0563e-27
1.12327e-27
9.29704e-28
8.49621e-28
7.61172e-28
1.0854e-27
5.78741e-28
1.33337e-27
4.54549e-28
5.46363e-28
-1.59353e-28
4.3942e-27
-8.77867e-28
9.59052e-28
-4.88086e-27
2.17358e-27
-9.32828e-27
2.84692e-27
-7.04957e-27
3.14378e-27
-4.52708e-27
2.7943e-27
1.23447e-27
1.89465e-27
6.47624e-27
8.65481e-28
8.51855e-27
-6.29592e-29
8.57965e-27
-6.50932e-28
6.40837e-27
-7.68224e-28
2.73712e-27
-4.59384e-28
-1.1557e-27
1.60702e-28
-4.37042e-27
9.7586e-28
-6.54583e-27
1.76828e-27
-6.95884e-27
2.34743e-27
-5.67386e-27
2.67965e-27
-3.66022e-27
2.74295e-27
-1.30536e-27
2.52175e-27
1.14229e-27
2.16977e-27
2.64478e-27
1.85764e-27
2.92562e-27
1.61989e-27
2.57338e-27
1.49397e-27
1.64465e-27
1.54062e-27
2.03021e-28
1.72643e-27
-1.06077e-27
1.99173e-27
-1.90667e-27
2.2896e-27
-2.37103e-27
2.53818e-27
-2.21463e-27
2.70298e-27
-1.65437e-27
2.81344e-27
-1.11577e-27
2.85688e-27
-5.00078e-28
2.82625e-27
9.71276e-29
2.7742e-27
3.38533e-28
2.72501e-27
3.89672e-28
2.68058e-27
3.90137e-28
2.66294e-27
2.27388e-28
2.65804e-27
1.10161e-28
2.63988e-27
1.52418e-28
2.62349e-27
1.50534e-28
2.60619e-27
1.76732e-28
2.56495e-27
3.17689e-28
2.51022e-27
3.96481e-28
2.45963e-27
3.90885e-28
2.41652e-27
3.55807e-28
2.37552e-27
3.03544e-28
2.32186e-27
3.26756e-28
2.2606e-27
3.81703e-28
2.20322e-27
3.80523e-28
2.10495e-27
6.26934e-28
1.96074e-27
9.47516e-28
1.81427e-27
1.1341e-27
1.68385e-27
1.1154e-27
1.50267e-27
1.44863e-27
1.33979e-27
1.23671e-27
1.17143e-27
1.29163e-27
1.02921e-27
9.91839e-28
8.4265e-28
1.27196e-27
6.39728e-28
1.53629e-27
4.96705e-28
6.89386e-28
-1.65019e-28
5.05592e-27
-1.04289e-27
1.02728e-27
-5.90813e-27
2.34322e-27
-1.06442e-26
3.0848e-27
-7.79116e-27
3.40901e-27
-4.85129e-27
3.03538e-27
1.6081e-27
2.0708e-27
7.44082e-27
9.63327e-28
9.62603e-27
-3.60845e-29
9.57906e-27
-6.69738e-28
7.04203e-27
-7.9699e-28
2.86437e-27
-4.6456e-28
-1.48813e-27
2.04888e-28
-5.03987e-27
1.08445e-27
-7.42539e-27
1.94087e-27
-7.81526e-27
2.56961e-27
-6.30261e-27
2.9318e-27
-4.02241e-27
3.00316e-27
-1.37672e-27
2.76884e-27
1.37661e-27
2.39281e-27
3.02082e-27
2.05755e-27
3.26088e-27
1.80242e-27
2.82851e-27
1.6682e-27
1.77887e-27
1.71915e-27
1.52076e-28
1.92037e-27
-1.26199e-27
2.20795e-27
-2.19425e-27
2.53044e-27
-2.69351e-27
2.80036e-27
-2.48455e-27
2.98051e-27
-1.83452e-27
3.10117e-27
-1.23643e-27
3.14915e-27
-5.48056e-28
3.11741e-27
1.28863e-28
3.06163e-27
3.94309e-28
3.00835e-27
4.42959e-28
2.96037e-27
4.3811e-28
2.94084e-27
2.46922e-28
2.93496e-27
1.16041e-28
2.91533e-27
1.72051e-28
2.89731e-27
1.68549e-28
2.8779e-27
1.96149e-28
2.83282e-27
3.62767e-28
2.77295e-27
4.56346e-28
2.7171e-27
4.46743e-28
2.66889e-27
4.04016e-28
2.62259e-27
3.49846e-28
2.56267e-27
3.8667e-28
2.49445e-27
4.49924e-28
2.42946e-27
4.4551e-28
2.32081e-27
7.35587e-28
2.16316e-27
1.10517e-27
2.00267e-27
1.29459e-27
1.85827e-27
1.25979e-27
1.66037e-27
1.64652e-27
1.48051e-27
1.41657e-27
1.29462e-27
1.47753e-27
1.13537e-27
1.15109e-27
9.29688e-28
1.47764e-27
7.04659e-28
1.76132e-27
5.41309e-28
8.52735e-28
-1.68545e-28
5.76577e-27
-1.21143e-27
1.08973e-27
-6.99787e-27
2.50877e-27
-1.20633e-26
3.3254e-27
-8.60779e-27
3.68262e-27
-5.20851e-27
3.28893e-27
2.00178e-27
2.26194e-27
8.46782e-27
1.07592e-27
1.0812e-26
3.35729e-30
1.06516e-26
-6.79496e-28
7.72488e-27
-8.20461e-28
3.00534e-27
-4.67135e-28
-1.84145e-27
2.50819e-28
-5.75782e-27
1.19539e-27
-8.36996e-27
2.11799e-27
-8.73786e-27
2.79979e-27
-6.9844e-27
3.19536e-27
-4.41798e-27
3.27757e-27
-1.45893e-27
3.0325e-27
1.62168e-27
2.63363e-27
3.41969e-27
2.2749e-27
3.61961e-27
2.00146e-27
3.10195e-27
1.85801e-27
1.92232e-27
1.91233e-27
9.77629e-29
2.12844e-27
-1.4781e-27
2.4384e-27
-2.50422e-27
2.78604e-27
-3.04116e-27
3.07839e-27
-2.7769e-27
3.27526e-27
-2.03139e-27
3.40716e-27
-1.36833e-27
3.46046e-27
-6.01356e-28
3.42828e-27
1.61048e-28
3.36907e-27
4.53519e-28
3.31168e-27
5.00353e-28
3.26004e-27
4.89741e-28
3.23834e-27
2.68628e-28
3.2312e-27
1.2318e-28
3.20999e-27
1.93265e-28
3.19018e-27
1.88352e-28
3.16837e-27
2.17958e-28
3.11924e-27
4.11899e-28
3.05399e-27
5.21593e-28
2.99246e-27
5.08276e-28
2.9386e-27
4.57874e-28
2.88642e-27
4.02027e-28
2.81977e-27
4.53326e-28
2.74408e-27
5.25608e-28
2.67078e-27
5.18812e-28
2.55119e-27
8.55179e-28
2.37964e-27
1.27671e-27
2.20435e-27
1.46988e-27
2.04478e-27
1.41936e-27
1.82918e-27
1.86212e-27
1.6311e-27
1.61466e-27
1.42636e-27
1.68227e-27
1.24856e-27
1.32889e-27
1.0226e-27
1.70361e-27
7.73758e-28
2.01016e-27
5.88521e-28
1.03797e-27
-1.69742e-28
6.52404e-27
-1.38117e-27
1.14564e-27
-8.14351e-27
2.66893e-27
-1.35865e-26
3.56739e-27
-9.50625e-27
3.96367e-27
-5.60479e-27
3.5547e-27
2.41075e-27
2.46862e-27
9.55391e-27
1.20447e-27
1.20762e-26
5.69436e-29
1.17992e-26
-6.78595e-28
8.46042e-27
-8.37291e-28
3.16403e-27
-4.66216e-28