/*--------------------------------*- C++ -*----------------------------------*\
| =========                 |                                                 |
| \\      /  F ield         | foam-extend: Open Source CFD                    |
|  \\    /   O peration     | Version:     4.0                                |
|   \\  /    A nd           | Web:         http://www.foam-extend.org         |
|    \\/     M anipulation  |                                                 |
\*---------------------------------------------------------------------------*/
FoamFile
{
    version     2.0;
    format      ascii;
    class       volVectorField;
    location    "16";
    object      U;
}
// * * * * * * * * * * * * * * * * * * * * * * * * * * * * * * * * * * * * * //

dimensions      [0 1 -1 0 0 0 0];

internalField   nonuniform List<vector> 
6960
(
(2.76838e-15 -5.65105e-14 0)
(8.35747e-15 1.59507e-16 0)
(7.20374e-15 1.50477e-15 0)
(4.67785e-15 1.62423e-15 0)
(3.35007e-15 1.54674e-15 0)
(1.36253e-17 1.04078e-15 0)
(-1.92393e-15 2.66994e-16 0)
(-3.07296e-15 -8.69818e-16 0)
(-2.85332e-15 -1.74312e-15 0)
(-1.50152e-15 -2.27193e-15 0)
(7.35478e-16 -2.3532e-15 0)
(2.39629e-15 -1.99522e-15 0)
(3.91159e-15 -1.21819e-15 0)
(5.15875e-15 -3.94489e-16 0)
(5.2155e-15 3.00767e-16 0)
(4.47156e-15 8.20441e-16 0)
(3.97646e-15 9.82187e-16 0)
(2.93655e-15 7.52206e-16 0)
(1.44652e-15 4.21242e-16 0)
(9.92574e-16 5.92403e-17 0)
(1.37411e-15 -4.06827e-16 0)
(1.59566e-15 -7.79296e-16 0)
(2.08722e-15 -8.98073e-16 0)
(2.93295e-15 -8.57111e-16 0)
(3.56413e-15 -7.01352e-16 0)
(4.15372e-15 -4.65941e-16 0)
(4.56267e-15 -2.7024e-16 0)
(4.34993e-15 -1.08725e-16 0)
(4.12215e-15 2.78271e-17 0)
(4.17752e-15 2.27433e-17 0)
(3.94325e-15 -9.48425e-17 0)
(3.62584e-15 -1.93872e-16 0)
(3.58874e-15 -2.79025e-16 0)
(3.50881e-15 -3.39307e-16 0)
(3.49972e-15 -3.18515e-16 0)
(3.71412e-15 -2.64174e-16 0)
(3.71974e-15 -1.89091e-16 0)
(3.61382e-15 -5.89992e-17 0)
(3.72088e-15 5.23239e-17 0)
(3.73946e-15 8.91059e-17 0)
(3.57563e-15 9.62978e-17 0)
(3.48404e-15 6.50502e-17 0)
(3.46661e-15 -2.05542e-17 0)
(3.51887e-15 -1.49514e-16 0)
(3.4647e-15 -2.78951e-16 0)
(3.23904e-15 -3.61522e-16 0)
(3.16455e-15 -3.60405e-16 0)
(3.21567e-15 -3.62543e-16 0)
(2.69477e-15 -2.75396e-16 0)
(2.32208e-15 -1.1618e-16 0)
(2.31103e-15 3.45495e-17 0)
(2.45759e-15 -6.7487e-18 0)
(1.79228e-15 6.44374e-18 0)
(2.07287e-15 -1.15512e-16 0)
(1.42774e-15 -1.77216e-16 0)
(1.78932e-15 -4.37498e-16 0)
(5.35451e-16 -3.59607e-16 0)
(1.51089e-15 -6.88664e-16 0)
(1.054e-16 -6.30006e-16 0)
(-2.90114e-15 -2.63982e-16 0)
(1.00349e-14 -1.07324e-13 0)
(2.6695e-14 -2.79026e-15 0)
(2.16537e-14 2.17637e-15 0)
(1.41107e-14 4.41832e-15 0)
(1.00282e-14 6.09356e-15 0)
(6.51305e-17 5.86497e-15 0)
(-5.78718e-15 3.94784e-15 0)
(-9.2311e-15 9.23358e-17 0)
(-8.55911e-15 -3.67735e-15 0)
(-4.48204e-15 -6.78056e-15 0)
(2.2315e-15 -8.55577e-15 0)
(7.26505e-15 -8.64082e-15 0)
(1.18367e-14 -6.81166e-15 0)
(1.55638e-14 -4.22105e-15 0)
(1.57422e-14 -1.49903e-15 0)
(1.35221e-14 1.06414e-15 0)
(1.19916e-14 2.58717e-15 0)
(8.85516e-15 2.68509e-15 0)
(4.41489e-15 2.18945e-15 0)
(3.04051e-15 1.2464e-15 0)
(4.15713e-15 -4.19311e-16 0)
(4.84378e-15 -2.04712e-15 0)
(6.33831e-15 -2.95554e-15 0)
(8.87621e-15 -3.3343e-15 0)
(1.07857e-14 -3.20525e-15 0)
(1.25576e-14 -2.61616e-15 0)
(1.37764e-14 -1.97969e-15 0)
(1.31555e-14 -1.29384e-15 0)
(1.24763e-14 -5.67613e-16 0)
(1.262e-14 -2.82464e-16 0)
(1.1918e-14 -4.00834e-16 0)
(1.09748e-14 -5.09968e-16 0)
(1.08558e-14 -6.59227e-16 0)
(1.06208e-14 -8.10803e-16 0)
(1.05995e-14 -7.54521e-16 0)
(1.12329e-14 -6.50873e-16 0)
(1.12541e-14 -5.26586e-16 0)
(1.09453e-14 -2.30512e-16 0)
(1.12555e-14 4.90131e-19 0)
(1.13045e-14 -6.74062e-19 0)
(1.08164e-14 -5.5211e-17 0)
(1.05382e-14 -1.71499e-16 0)
(1.04806e-14 -3.95975e-16 0)
(1.06291e-14 -6.87592e-16 0)
(1.04643e-14 -9.45224e-16 0)
(9.79684e-15 -1.01871e-15 0)
(9.57069e-15 -8.35754e-16 0)
(9.70562e-15 -7.31438e-16 0)
(8.162e-15 -4.41058e-16 0)
(7.0484e-15 2.74843e-17 0)
(6.99713e-15 3.81245e-16 0)
(7.40522e-15 5.78799e-17 0)
(5.44243e-15 -6.03903e-17 0)
(6.23503e-15 -5.37146e-16 0)
(4.331e-15 -7.13941e-16 0)
(5.35656e-15 -1.4334e-15 0)
(1.67084e-15 -9.72783e-16 0)
(4.47813e-15 -1.86899e-15 0)
(3.12196e-16 -1.53818e-15 0)
(-8.47679e-15 -6.21001e-16 0)
(1.70879e-14 -7.73649e-14 0)
(4.49013e-14 -1.16416e-14 0)
(3.64456e-14 -1.87192e-15 0)
(2.38802e-14 5.71863e-15 0)
(1.68849e-14 1.24955e-14 0)
(1.97003e-16 1.50281e-14 0)
(-9.72247e-15 1.29866e-14 0)
(-1.55416e-14 6.0578e-15 0)
(-1.44317e-14 -2.29537e-15 0)
(-7.5803e-15 -1.04281e-14 0)
(3.68915e-15 -1.65645e-14 0)
(1.22298e-14 -1.92693e-14 0)
(1.997e-14 -1.7549e-14 0)
(2.6235e-14 -1.32885e-14 0)
(2.65737e-14 -7.68859e-15 0)
(2.2881e-14 -1.49946e-15 0)
(2.02471e-14 3.1516e-15 0)
(1.49493e-14 5.02818e-15 0)
(7.52567e-15 5.36562e-15 0)
(5.18008e-15 4.24604e-15 0)
(6.99269e-15 1.08213e-15 0)
(8.16432e-15 -2.56782e-15 0)
(1.06971e-14 -5.1884e-15 0)
(1.49595e-14 -6.88221e-15 0)
(1.81945e-14 -7.4296e-15 0)
(2.11815e-14 -6.77406e-15 0)
(2.32242e-14 -5.68725e-15 0)
(2.22154e-14 -4.1854e-15 0)
(2.10858e-14 -2.35339e-15 0)
(2.12937e-14 -1.24767e-15 0)
(2.01144e-14 -9.21708e-16 0)
(1.85413e-14 -6.79233e-16 0)
(1.83264e-14 -6.81131e-16 0)
(1.79352e-14 -8.57165e-16 0)
(1.79048e-14 -7.80587e-16 0)
(1.89501e-14 -7.47391e-16 0)
(1.89905e-14 -7.71457e-16 0)
(1.8485e-14 -5.0034e-16 0)
(1.89893e-14 -3.44335e-16 0)
(1.9063e-14 -5.71389e-16 0)
(1.82524e-14 -8.04443e-16 0)
(1.77847e-14 -1.01957e-15 0)
(1.76847e-14 -1.29325e-15 0)
(1.79252e-14 -1.54816e-15 0)
(1.76485e-14 -1.69114e-15 0)
(1.65442e-14 -1.45444e-15 0)
(1.61593e-14 -8.07924e-16 0)
(1.63557e-14 -4.36277e-16 0)
(1.37901e-14 5.21895e-17 0)
(1.19253e-14 7.75854e-16 0)
(1.18082e-14 1.13308e-15 0)
(1.24475e-14 2.29017e-16 0)
(9.20429e-15 -2.69994e-16 0)
(1.04721e-14 -1.20631e-15 0)
(7.32732e-15 -1.46699e-15 0)
(8.97436e-15 -2.45092e-15 0)
(2.89808e-15 -1.29021e-15 0)
(7.44122e-15 -2.52513e-15 0)
(5.19264e-16 -1.7208e-15 0)
(-1.39097e-14 -7.26474e-16 0)
(2.33322e-14 -5.41126e-14 0)
(6.23861e-14 -2.40894e-14 0)
(5.16305e-14 -9.30759e-15 0)
(3.40792e-14 5.34771e-15 0)
(2.4007e-14 1.91148e-14 0)
(4.702e-16 2.61026e-14 0)
(-1.37055e-14 2.48912e-14 0)
(-2.20182e-14 1.51726e-14 0)
(-2.05182e-14 1.66125e-15 0)
(-1.08628e-14 -1.26531e-14 0)
(5.03928e-15 -2.46408e-14 0)
(1.72386e-14 -3.13581e-14 0)
(2.82867e-14 -3.07103e-14 0)
(3.71763e-14 -2.51789e-14 0)
(3.77408e-14 -1.65185e-14 0)
(3.25962e-14 -6.00444e-15 0)
(2.87922e-14 2.70734e-15 0)
(2.12603e-14 7.24356e-15 0)
(1.08084e-14 9.11477e-15 0)
(7.423e-15 8.22027e-15 0)
(9.87429e-15 3.57172e-15 0)
(1.15401e-14 -2.3952e-15 0)
(1.51425e-14 -7.19245e-15 0)
(2.1164e-14 -1.07146e-14 0)
(2.57794e-14 -1.23527e-14 0)
(3.00233e-14 -1.18679e-14 0)
(3.29123e-14 -1.04043e-14 0)
(3.15447e-14 -7.98953e-15 0)
(2.99704e-14 -4.81358e-15 0)
(3.02179e-14 -2.61804e-15 0)
(2.85497e-14 -1.61261e-15 0)
(2.63396e-14 -8.40178e-16 0)
(2.60104e-14 -6.09821e-16 0)
(2.54583e-14 -8.03064e-16 0)
(2.54186e-14 -7.36646e-16 0)
(2.68657e-14 -8.4072e-16 0)
(2.69277e-14 -1.08812e-15 0)
(2.62319e-14 -8.80188e-16 0)
(2.69217e-14 -8.08489e-16 0)
(2.70158e-14 -1.25073e-15 0)
(2.58871e-14 -1.62865e-15 0)
(2.52303e-14 -1.89324e-15 0)
(2.50883e-14 -2.16309e-15 0)
(2.54183e-14 -2.33491e-15 0)
(2.50289e-14 -2.35651e-15 0)
(2.34927e-14 -1.8048e-15 0)
(2.29391e-14 -7.0422e-16 0)
(2.31697e-14 -9.64068e-17 0)
(1.95804e-14 5.28575e-16 0)
(1.69523e-14 1.52626e-15 0)
(1.67408e-14 1.89498e-15 0)
(1.75803e-14 4.69203e-16 0)
(1.30776e-14 -3.8425e-16 0)
(1.47866e-14 -1.6543e-15 0)
(1.04233e-14 -2.00735e-15 0)
(1.26506e-14 -3.13632e-15 0)
(4.22604e-15 -1.34792e-15 0)
(1.04047e-14 -2.81012e-15 0)
(7.20636e-16 -1.54593e-15 0)
(-1.92036e-14 -7.80815e-16 0)
(2.94435e-14 -5.25231e-14 0)
(7.98242e-14 -3.83103e-14 0)
(6.7229e-14 -1.86088e-14 0)
(4.47507e-14 3.76189e-15 0)
(3.14389e-14 2.53607e-14 0)
(9.2113e-16 3.77333e-14 0)
(-1.77173e-14 3.79976e-14 0)
(-2.86605e-14 2.58441e-14 0)
(-2.68356e-14 7.11364e-15 0)
(-1.43589e-14 -1.37774e-14 0)
(6.24857e-15 -3.22603e-14 0)
(2.22654e-14 -4.36706e-14 0)
(3.67733e-14 -4.4647e-14 0)
(4.83873e-14 -3.8176e-14 0)
(4.92571e-14 -2.65072e-14 0)
(4.26915e-14 -1.14478e-14 0)
(3.76518e-14 1.6924e-15 0)
(2.78108e-14 9.28671e-15 0)
(1.42818e-14 1.30585e-14 0)
(9.77929e-15 1.26402e-14 0)
(1.28022e-14 6.58502e-15 0)
(1.49662e-14 -1.76773e-15 0)
(1.96677e-14 -8.91057e-15 0)
(2.74832e-14 -1.44745e-14 0)
(3.35376e-14 -1.73864e-14 0)
(3.90841e-14 -1.7194e-14 0)
(4.28454e-14 -1.54169e-14 0)
(4.11524e-14 -1.2082e-14 0)
(3.91408e-14 -7.50587e-15 0)
(3.94018e-14 -4.17e-15 0)
(3.72316e-14 -2.4626e-15 0)
(3.43757e-14 -1.17307e-15 0)
(3.39115e-14 -7.63207e-16 0)
(3.31938e-14 -1.03388e-15 0)
(3.31453e-14 -1.01108e-15 0)
(3.49846e-14 -1.2473e-15 0)
(3.50729e-14 -1.65112e-15 0)
(3.41958e-14 -1.37022e-15 0)
(3.50628e-14 -1.20832e-15 0)
(3.51723e-14 -1.69329e-15 0)
(3.37289e-14 -2.08151e-15 0)
(3.28809e-14 -2.34143e-15 0)
(3.26941e-14 -2.64803e-15 0)
(3.31074e-14 -2.88438e-15 0)
(3.26026e-14 -3.00962e-15 0)
(3.06398e-14 -2.38881e-15 0)
(2.99086e-14 -1.03479e-15 0)
(3.01479e-14 -3.19696e-16 0)
(2.55383e-14 4.44554e-16 0)
(2.21393e-14 1.87665e-15 0)
(2.18062e-14 2.50333e-15 0)
(2.28139e-14 8.53235e-16 0)
(1.70719e-14 -1.42377e-16 0)
(1.91825e-14 -1.58314e-15 0)
(1.36188e-14 -2.12785e-15 0)
(1.63811e-14 -3.48617e-15 0)
(5.65071e-15 -1.35206e-15 0)
(1.33651e-14 -3.07964e-15 0)
(9.16133e-16 -1.40764e-15 0)
(-2.43535e-14 -7.52625e-16 0)
(3.5309e-14 -5.14434e-14 0)
(9.70987e-14 -5.39362e-14 0)
(8.32523e-14 -2.9505e-14 0)
(5.59285e-14 9.03563e-16 0)
(3.92191e-14 3.0923e-14 0)
(1.58354e-15 4.94136e-14 0)
(-2.17373e-14 5.17434e-14 0)
(-3.54638e-14 3.75505e-14 0)
(-3.33944e-14 1.36912e-14 0)
(-1.80902e-14 -1.39739e-14 0)
(7.2905e-15 -3.93755e-14 0)
(2.72882e-14 -5.59838e-14 0)
(4.5417e-14 -5.90497e-14 0)
(5.98658e-14 -5.19697e-14 0)
(6.11325e-14 -3.74145e-14 0)
(5.31854e-14 -1.77231e-14 0)
(4.68465e-14 7.13941e-17 0)
(3.46204e-14 1.10223e-14 0)
(1.7963e-14 1.69993e-14 0)
(1.22593e-14 1.72875e-14 0)
(1.57787e-14 9.94253e-15 0)
(1.84402e-14 -7.90553e-16 0)
(2.42683e-14 -1.03723e-14 0)
(3.3913e-14 -1.81278e-14 0)
(4.14676e-14 -2.24635e-14 0)
(4.8365e-14 -2.26894e-14 0)
(5.30274e-14 -2.06849e-14 0)
(5.10455e-14 -1.64586e-14 0)
(4.86052e-14 -1.04685e-14 0)
(4.88522e-14 -5.96073e-15 0)
(4.61655e-14 -3.51302e-15 0)
(4.26541e-14 -1.67789e-15 0)
(4.20335e-14 -1.07794e-15 0)
(4.11455e-14 -1.41823e-15 0)
(4.109e-14 -1.42712e-15 0)
(4.33135e-14 -1.77792e-15 0)
(4.34352e-14 -2.30251e-15 0)
(4.23874e-14 -1.89701e-15 0)
(4.34234e-14 -1.59175e-15 0)
(4.35421e-14 -2.07638e-15 0)
(4.1785e-14 -2.45382e-15 0)
(4.07406e-14 -2.72285e-15 0)
(4.05024e-14 -3.10782e-15 0)
(4.09896e-14 -3.47992e-15 0)
(4.03656e-14 -3.78626e-15 0)
(3.79828e-14 -3.16024e-15 0)
(3.70673e-14 -1.5774e-15 0)
(3.72932e-14 -7.50227e-16 0)
(3.16723e-14 2.16272e-16 0)
(2.74984e-14 2.17612e-15 0)
(2.70168e-14 3.16249e-15 0)
(2.81582e-14 1.36392e-15 0)
(2.11944e-14 2.51155e-16 0)
(2.36607e-14 -1.3853e-15 0)
(1.6911e-14 -2.21636e-15 0)
(2.01604e-14 -3.85961e-15 0)
(7.16936e-15 -1.43253e-15 0)
(1.63216e-14 -3.37249e-15 0)
(1.11236e-15 -1.2025e-15 0)
(-2.93503e-14 -5.7128e-16 0)
(4.09786e-14 -6.49439e-14 0)
(1.14255e-13 -7.09244e-14 0)
(9.97081e-14 -4.19491e-14 0)
(6.76407e-14 -3.33068e-15 0)
(4.73829e-14 3.55602e-14 0)
(2.4905e-15 6.08084e-14 0)
(-2.57438e-14 6.5762e-14 0)
(-4.24203e-14 4.99515e-14 0)
(-4.02014e-14 2.11204e-14 0)
(-2.20754e-14 -1.34294e-14 0)
(8.14075e-15 -4.60858e-14 0)
(3.22856e-14 -6.83366e-14 0)
(5.42041e-14 -7.39381e-14 0)
(7.16081e-14 -6.65941e-14 0)
(7.33749e-14 -4.93172e-14 0)
(6.40947e-14 -2.49683e-14 0)
(5.63959e-14 -2.34562e-15 0)
(4.17089e-14 1.22329e-14 0)
(2.18701e-14 2.07111e-14 0)
(1.48749e-14 2.19484e-14 0)
(1.88082e-14 1.34639e-14 0)
(2.19616e-14 3.9392e-16 0)
(2.89409e-14 -1.16916e-14 0)
(4.04491e-14 -2.17749e-14 0)
(4.95664e-14 -2.76919e-14 0)
(5.78656e-14 -2.84837e-14 0)
(6.34611e-14 -2.63588e-14 0)
(6.12308e-14 -2.12821e-14 0)
(5.8373e-14 -1.3856e-14 0)
(5.85788e-14 -8.10245e-15 0)
(5.53617e-14 -4.80084e-15 0)
(5.11845e-14 -2.29589e-15 0)
(5.03849e-14 -1.39446e-15 0)
(4.93213e-14 -1.71591e-15 0)
(4.92592e-14 -1.70841e-15 0)
(5.1857e-14 -2.1763e-15 0)
(5.20182e-14 -2.86851e-15 0)
(5.08099e-14 -2.42283e-15 0)
(5.20054e-14 -2.08405e-15 0)
(5.21269e-14 -2.67667e-15 0)
(5.0058e-14 -3.12973e-15 0)
(4.8813e-14 -3.44925e-15 0)
(4.85184e-14 -3.89453e-15 0)
(4.90714e-14 -4.32118e-15 0)
(4.83258e-14 -4.68177e-15 0)
(4.5531e-14 -3.89174e-15 0)
(4.44238e-14 -1.93684e-15 0)
(4.46123e-14 -8.96968e-16 0)
(3.79878e-14 3.00016e-16 0)
(3.3033e-14 2.74018e-15 0)
(3.23722e-14 3.96042e-15 0)
(3.36103e-14 1.85209e-15 0)
(2.54422e-14 4.70276e-16 0)
(2.82192e-14 -1.47249e-15 0)
(2.03005e-14 -2.59724e-15 0)
(2.39929e-14 -4.45412e-15 0)
(8.78832e-15 -1.57807e-15 0)
(1.92789e-14 -3.6407e-15 0)
(1.31306e-15 -8.10128e-16 0)
(-3.41913e-14 -4.61271e-16 0)
(4.685e-14 -9.33456e-14 0)
(1.31687e-13 -8.91867e-14 0)
(1.16603e-13 -5.5935e-14 0)
(7.99141e-14 -8.96356e-15 0)
(5.59659e-14 3.91898e-14 0)
(3.67622e-15 7.18149e-14 0)
(-2.97127e-14 7.99586e-14 0)
(-4.95203e-14 6.29925e-14 0)
(-4.72622e-14 2.93929e-14 0)
(-2.63328e-14 -1.21051e-14 0)
(8.77433e-15 -5.23193e-14 0)
(3.72349e-14 -8.06452e-14 0)
(6.31192e-14 -8.92415e-14 0)
(8.36086e-14 -8.20047e-14 0)
(8.59906e-14 -6.22067e-14 0)
(7.54356e-14 -3.32125e-14 0)
(6.632e-14 -5.61387e-15 0)
(4.90972e-14 1.28533e-14 0)
(2.60225e-14 2.41286e-14 0)
(1.76396e-14 2.65668e-14 0)
(2.18961e-14 1.71106e-14 0)
(2.55302e-14 1.76544e-15 0)
(3.36818e-14 -1.28734e-14 0)
(4.70865e-14 -2.54097e-14 0)
(5.78307e-14 -3.306e-14 0)
(6.75849e-14 -3.4563e-14 0)
(7.41489e-14 -3.24215e-14 0)
(7.17154e-14 -2.6534e-14 0)
(6.84545e-14 -1.76512e-14 0)
(6.85934e-14 -1.05804e-14 0)
(6.48321e-14 -6.31818e-15 0)
(5.99789e-14 -3.03248e-15 0)
(5.89759e-14 -1.73574e-15 0)
(5.77294e-14 -1.97059e-15 0)
(5.76588e-14 -1.91728e-15 0)
(6.06184e-14 -2.51283e-15 0)
(6.08235e-14 -3.41214e-15 0)
(5.94641e-14 -2.98574e-15 0)
(6.08092e-14 -2.67997e-15 0)
(6.09275e-14 -3.43341e-15 0)
(5.85507e-14 -3.99264e-15 0)
(5.71035e-14 -4.3604e-15 0)
(5.67496e-14 -4.83073e-15 0)
(5.7362e-14 -5.24512e-15 0)
(5.64937e-14 -5.58314e-15 0)
(5.32951e-14 -4.54577e-15 0)
(5.19868e-14 -2.16688e-15 0)
(5.21104e-14 -8.87422e-16 0)
(4.44875e-14 5.15598e-16 0)
(3.8743e-14 3.3895e-15 0)
(3.7869e-14 4.75585e-15 0)
(3.91661e-14 2.27609e-15 0)
(2.98134e-14 5.68743e-16 0)
(3.28588e-14 -1.67815e-15 0)
(2.37914e-14 -3.07024e-15 0)
(2.78848e-14 -5.06574e-15 0)
(1.0513e-14 -1.69259e-15 0)
(2.22406e-14 -3.87937e-15 0)
(1.5158e-15 -2.86279e-16 0)
(-3.88802e-14 -5.74247e-16 0)
(5.29994e-14 -1.16039e-13 0)
(1.49464e-13 -1.08602e-13 0)
(1.33941e-13 -7.15041e-14 0)
(9.27765e-14 -1.6054e-14 0)
(6.50054e-14 4.17347e-14 0)
(5.17816e-15 8.23723e-14 0)
(-3.36167e-14 9.43191e-14 0)
(-5.67511e-14 7.67222e-14 0)
(-5.45807e-14 3.86201e-14 0)
(-3.08805e-14 -9.83951e-15 0)
(9.16519e-15 -5.78841e-14 0)
(4.2111e-14 -9.27143e-14 0)
(7.21443e-14 -1.04785e-13 0)
(9.58596e-14 -9.80615e-14 0)
(9.89848e-14 -7.5984e-14 0)
(8.72237e-14 -4.23961e-14 0)
(7.66394e-14 -9.70003e-15 0)
(5.68074e-14 1.29059e-14 0)
(3.04411e-14 2.72745e-14 0)
(2.05677e-14 3.11759e-14 0)
(2.50487e-14 2.09335e-14 0)
(2.91463e-14 3.3941e-15 0)
(3.84875e-14 -1.38292e-14 0)
(5.38204e-14 -2.89272e-14 0)
(6.62567e-14 -3.84516e-14 0)
(7.75219e-14 -4.08045e-14 0)
(8.50933e-14 -3.87495e-14 0)
(8.25064e-14 -3.21012e-14 0)
(7.88595e-14 -2.1765e-14 0)
(7.89059e-14 -1.33424e-14 0)
(7.4587e-14 -8.06275e-15 0)
(6.90464e-14 -3.94324e-15 0)
(6.78145e-14 -2.21333e-15 0)
(6.63765e-14 -2.33742e-15 0)
(6.62944e-14 -2.228e-15 0)
(6.96023e-14 -2.94612e-15 0)
(6.98559e-14 -4.03936e-15 0)
(6.83553e-14 -3.6088e-15 0)
(6.98402e-14 -3.30147e-15 0)
(6.99494e-14 -4.17174e-15 0)
(6.72689e-14 -4.79675e-15 0)
(6.56178e-14 -5.18823e-15 0)
(6.52014e-14 -5.68178e-15 0)
(6.58658e-14 -6.1088e-15 0)
(6.48732e-14 -6.4732e-15 0)
(6.12788e-14 -5.24758e-15 0)
(5.97595e-14 -2.50582e-15 0)
(5.97901e-14 -1.02376e-15 0)
(5.11751e-14 5.76299e-16 0)
(4.46332e-14 3.91829e-15 0)
(4.35116e-14 5.4813e-15 0)
(4.48295e-14 2.72324e-15 0)
(3.43121e-14 7.49997e-16 0)
(3.75825e-14 -1.73428e-15 0)
(2.73856e-14 -3.41352e-15 0)
(3.1837e-14 -5.54964e-15 0)
(1.23426e-14 -1.77004e-15 0)
(2.52069e-14 -4.11982e-15 0)
(1.71888e-15 2.93621e-16 0)
(-4.34191e-14 -8.0042e-16 0)
(5.90836e-14 -1.26652e-13 0)
(1.67231e-13 -1.29148e-13 0)
(1.5172e-13 -8.87239e-14 0)
(1.06256e-13 -2.47379e-14 0)
(7.45418e-14 4.30391e-14 0)
(7.03794e-15 9.23386e-14 0)
(-3.74236e-14 1.08752e-13 0)
(-6.40959e-14 9.11165e-14 0)
(-6.21581e-14 4.88464e-14 0)
(-3.57358e-14 -6.5332e-15 0)
(9.28623e-15 -6.2648e-14 0)
(4.68865e-14 -1.04409e-13 0)
(8.12586e-14 -1.20457e-13 0)
(1.08351e-13 -1.14692e-13 0)
(1.12361e-13 -9.0622e-14 0)
(9.94737e-14 -5.25335e-14 0)
(8.73748e-14 -1.46441e-14 0)
(6.48627e-14 1.23439e-14 0)
(3.51481e-14 3.01106e-14 0)
(2.36754e-14 3.5758e-14 0)
(2.82737e-14 2.49423e-14 0)
(3.2811e-14 5.31571e-15 0)
(4.3355e-14 -1.45033e-14 0)
(6.06457e-14 -3.22614e-14 0)
(7.48406e-14 -4.38019e-14 0)
(8.7675e-14 -4.71535e-14 0)
(9.62962e-14 -4.53035e-14 0)
(9.36097e-14 -3.79636e-14 0)
(8.95966e-14 -2.61972e-14 0)
(8.95257e-14 -1.64049e-14 0)
(8.46354e-14 -1.00632e-14 0)
(7.83958e-14 -5.06311e-15 0)
(7.69079e-14 -2.86151e-15 0)
(7.52692e-14 -2.84461e-15 0)
(7.51723e-14 -2.65864e-15 0)
(7.88147e-14 -3.48082e-15 0)
(7.91221e-14 -4.74201e-15 0)
(7.74909e-14 -4.27527e-15 0)
(7.91056e-14 -3.92909e-15 0)
(7.91996e-14 -4.8777e-15 0)
(7.62189e-14 -5.54127e-15 0)
(7.43611e-14 -5.95175e-15 0)
(7.38772e-14 -6.48715e-15 0)
(7.45846e-14 -6.96965e-15 0)
(7.34654e-14 -7.41513e-15 0)
(6.9484e-14 -6.05711e-15 0)
(6.77443e-14 -2.99225e-15 0)
(6.76551e-14 -1.31676e-15 0)
(5.8057e-14 5.09169e-16 0)
(5.07114e-14 4.37605e-15 0)
(4.93072e-14 6.20409e-15 0)
(5.0606e-14 3.24728e-15 0)
(3.89427e-14 1.04392e-15 0)
(4.23919e-14 -1.66024e-15 0)
(3.10826e-14 -3.67942e-15 0)
(3.58483e-14 -5.98421e-15 0)
(1.42762e-14 -1.86442e-15 0)
(2.8179e-14 -4.37315e-15 0)
(1.92488e-15 9.45946e-16 0)
(-4.78066e-14 -1.0156e-15 0)
(6.49326e-14 -1.38271e-13 0)
(1.84806e-13 -1.50844e-13 0)
(1.69939e-13 -1.07641e-13 0)
(1.20379e-13 -3.51524e-14 0)
(8.46172e-14 4.29236e-14 0)
(9.30094e-15 1.01532e-13 0)
(-4.10968e-14 1.2311e-13 0)
(-7.15338e-14 1.0609e-13 0)
(-6.99932e-14 6.00522e-14 0)
(-4.09151e-14 -2.1486e-15 0)
(9.10931e-15 -6.6539e-14 0)
(5.15317e-14 -1.15652e-13 0)
(9.0438e-14 -1.36204e-13 0)
(1.21069e-13 -1.31882e-13 0)
(1.26119e-13 -1.06154e-13 0)
(1.122e-13 -6.37016e-14 0)
(9.85477e-14 -2.05495e-14 0)
(7.32879e-14 1.10581e-14 0)
(4.01678e-14 3.25385e-14 0)
(2.69812e-14 4.0239e-14 0)
(3.15806e-14 2.90943e-14 0)
(3.65265e-14 7.51554e-15 0)
(4.82812e-14 -1.48915e-14 0)
(6.75569e-14 -3.54008e-14 0)
(8.3577e-14 -4.91055e-14 0)
(9.80413e-14 -5.36195e-14 0)
(1.07758e-13 -5.21101e-14 0)
(1.05031e-13 -4.41631e-14 0)
(1.00675e-13 -3.09978e-14 0)
(1.00463e-13 -1.98139e-14 0)
(9.49876e-14 -1.23502e-14 0)
(8.80367e-14 -6.39927e-15 0)
(8.62646e-14 -3.66007e-15 0)
(8.44152e-14 -3.44824e-15 0)
(8.4299e-14 -3.15158e-15 0)
(8.82613e-14 -4.05925e-15 0)
(8.86277e-14 -5.47858e-15 0)
(8.6877e-14 -4.9743e-15 0)
(8.86111e-14 -4.59079e-15 0)
(8.86831e-14 -5.61775e-15 0)
(8.54057e-14 -6.32245e-15 0)
(8.33379e-14 -6.75917e-15 0)
(8.27808e-14 -7.34592e-15 0)
(8.35216e-14 -7.89451e-15 0)
(8.2274e-14 -8.42777e-15 0)
(7.79151e-14 -6.93829e-15 0)
(7.59461e-14 -3.54307e-15 0)
(7.57106e-14 -1.65241e-15 0)
(6.51395e-14 4.30442e-16 0)
(5.69841e-14 4.85156e-15 0)
(5.52604e-14 6.96414e-15 0)
(5.64983e-14 3.82694e-15 0)
(4.37066e-14 1.38089e-15 0)
(4.7287e-14 -1.56e-15 0)
(3.4882e-14 -3.95856e-15 0)
(3.99196e-14 -6.43699e-15 0)
(1.63149e-14 -1.9838e-15 0)
(3.11603e-14 -4.62661e-15 0)
(2.13718e-15 1.70825e-15 0)
(-5.20421e-14 -1.23458e-15 0)
(7.06913e-14 -1.57625e-13 0)
(2.02322e-13 -1.73644e-13 0)
(1.8859e-13 -1.28294e-13 0)
(1.35171e-13 -4.74057e-14 0)
(9.52755e-14 4.12261e-14 0)
(1.20161e-14 1.09779e-13 0)
(-4.45948e-14 1.37247e-13 0)
(-7.90395e-14 1.21558e-13 0)
(-7.80813e-14 7.22231e-14 0)
(-4.6434e-14 3.36275e-15 0)
(8.60541e-15 -6.94682e-14 0)
(5.6014e-14 -1.26344e-13 0)
(9.96552e-14 -1.51946e-13 0)
(1.33998e-13 -1.49593e-13 0)
(1.40259e-13 -1.22592e-13 0)
(1.25414e-13 -7.59584e-14 0)
(1.1018e-13 -2.7506e-14 0)
(8.21094e-14 8.94703e-15 0)
(4.5527e-14 3.44632e-14 0)
(3.05054e-14 4.45453e-14 0)
(3.49807e-14 3.33453e-14 0)
(4.02961e-14 9.97787e-15 0)
(5.32634e-14 -1.49879e-14 0)
(7.45478e-14 -3.83288e-14 0)
(9.246e-14 -5.43465e-14 0)
(1.08617e-13 -6.01955e-14 0)
(1.1948e-13 -5.91742e-14 0)
(1.16775e-13 -5.07165e-14 0)
(1.12102e-13 -3.61912e-14 0)
(1.11727e-13 -2.35948e-14 0)
(1.05655e-13 -1.4944e-14 0)
(9.79802e-14 -7.96289e-15 0)
(9.58947e-14 -4.60963e-15 0)
(9.38228e-14 -4.14111e-15 0)
(9.36816e-14 -3.6967e-15 0)
(9.79476e-14 -4.67318e-15 0)
(9.83778e-14 -6.24752e-15 0)
(9.65184e-14 -5.71367e-15 0)
(9.83612e-14 -5.30275e-15 0)
(9.84045e-14 -6.4125e-15 0)
(9.48339e-14 -7.16015e-15 0)
(9.25529e-14 -7.62305e-15 0)
(9.1917e-14 -8.25955e-15 0)
(9.26817e-14 -8.87058e-15 0)
(9.13038e-14 -9.48661e-15 0)
(8.65777e-14 -7.85897e-15 0)
(8.43704e-14 -4.12812e-15 0)
(8.39616e-14 -2.0068e-15 0)
(7.2428e-14 3.48032e-16 0)
(6.34565e-14 5.33738e-15 0)
(6.13746e-14 7.73814e-15 0)
(6.25082e-14 4.43549e-15 0)
(4.8605e-14 1.73685e-15 0)
(5.22683e-14 -1.4409e-15 0)
(3.87842e-14 -4.24021e-15 0)
(4.40528e-14 -6.8817e-15 0)
(1.84604e-14 -2.10231e-15 0)
(3.41545e-14 -4.86859e-15 0)
(2.3575e-15 2.58292e-15 0)
(-5.61279e-14 -1.50938e-15 0)
(7.64536e-14 -1.78756e-13 0)
(2.19854e-13 -1.97451e-13 0)
(2.07662e-13 -1.50718e-13 0)
(1.50655e-13 -6.15982e-14 0)
(1.06562e-13 3.77878e-14 0)
(1.52358e-14 1.16906e-13 0)
(-4.78713e-14 1.51021e-13 0)
(-8.65825e-14 1.37442e-13 0)
(-8.64143e-14 8.53542e-14 0)
(-5.23061e-14 1.00676e-14 0)
(7.74491e-15 -7.13195e-14 0)
(6.02986e-14 -1.36352e-13 0)
(1.08879e-13 -1.67566e-13 0)
(1.47118e-13 -1.67747e-13 0)
(1.54776e-13 -1.39909e-13 0)
(1.39129e-13 -8.93309e-14 0)
(1.22293e-13 -3.55788e-14 0)
(9.13548e-14 5.92802e-15 0)
(5.12541e-14 3.58039e-14 0)
(3.42711e-14 4.86146e-14 0)
(3.84874e-14 3.76619e-14 0)
(4.41244e-14 1.26997e-14 0)
(5.82993e-14 -1.47707e-14 0)
(8.16121e-14 -4.10078e-14 0)
(1.01483e-13 -5.94836e-14 0)
(1.19397e-13 -6.68455e-14 0)
(1.31459e-13 -6.64707e-14 0)
(1.28845e-13 -5.76126e-14 0)
(1.23888e-13 -4.17801e-14 0)
(1.2333e-13 -2.77604e-14 0)
(1.16648e-13 -1.78646e-14 0)
(1.08238e-13 -9.77821e-15 0)
(1.05808e-13 -5.73582e-15 0)
(1.03501e-13 -4.94901e-15 0)
(1.03327e-13 -4.31888e-15 0)
(1.07879e-13 -5.34416e-15 0)
(1.08378e-13 -7.06481e-15 0)
(1.0642e-13 -6.50155e-15 0)
(1.08361e-13 -6.06266e-15 0)
(1.08369e-13 -7.24812e-15 0)
(1.04509e-13 -8.03031e-15 0)
(1.02012e-13 -8.51274e-15 0)
(1.01291e-13 -9.1969e-15 0)
(1.02069e-13 -9.87299e-15 0)
(1.00559e-13 -1.05791e-14 0)
(9.54766e-14 -8.82342e-15 0)
(9.3022e-14 -4.76894e-15 0)
(9.24128e-14 -2.41331e-15 0)
(7.9928e-14 2.23152e-16 0)
(7.01343e-14 5.79931e-15 0)
(6.76539e-14 8.50405e-15 0)
(6.86384e-14 5.07226e-15 0)
(5.364e-14 2.12843e-15 0)
(5.73373e-14 -1.26815e-15 0)
(4.27899e-14 -4.48881e-15 0)
(4.82496e-14 -7.285e-15 0)
(2.07132e-14 -2.20857e-15 0)
(3.7165e-14 -5.09633e-15 0)
(2.58686e-15 3.55777e-15 0)
(-6.0067e-14 -1.84605e-15 0)
(8.21304e-14 -1.96763e-13 0)
(2.37295e-13 -2.22174e-13 0)
(2.27137e-13 -1.74933e-13 0)
(1.66853e-13 -7.78295e-14 0)
(1.18522e-13 3.24425e-14 0)
(1.90164e-14 1.22726e-13 0)
(-5.08743e-14 1.64266e-13 0)
(-9.41267e-14 1.53642e-13 0)
(-9.49796e-14 9.94271e-14 0)
(-5.8543e-14 1.80263e-14 0)
(6.49808e-15 -7.19752e-14 0)
(6.43482e-14 -1.45534e-13 0)
(1.18075e-13 -1.82932e-13 0)
(1.60404e-13 -1.86248e-13 0)
(1.69662e-13 -1.58066e-13 0)
(1.53352e-13 -1.03836e-13 0)
(1.34908e-13 -4.48278e-14 0)
(1.01053e-13 1.9184e-15 0)
(5.73799e-14 3.64759e-14 0)
(3.83037e-14 5.23795e-14 0)
(4.21167e-14 4.20068e-14 0)
(4.80175e-14 1.56761e-14 0)
(6.33873e-14 -1.42164e-14 0)
(8.87432e-14 -4.33958e-14 0)
(1.10637e-13 -6.44689e-14 0)
(1.30375e-13 -7.35269e-14 0)
(1.43695e-13 -7.39688e-14 0)
(1.41247e-13 -6.48371e-14 0)
(1.36041e-13 -4.77669e-14 0)
(1.35281e-13 -3.23259e-14 0)
(1.2798e-13 -2.11357e-14 0)
(1.18821e-13 -1.18727e-14 0)
(1.16015e-13 -7.06575e-15 0)
(1.13458e-13 -5.89639e-15 0)
(1.13243e-13 -5.03851e-15 0)
(1.18063e-13 -6.08695e-15 0)
(1.18633e-13 -7.93914e-15 0)
(1.16589e-13 -7.34071e-15 0)
(1.18616e-13 -6.86716e-15 0)
(1.18581e-13 -8.11601e-15 0)
(1.14436e-13 -8.92099e-15 0)
(1.11719e-13 -9.41589e-15 0)
(1.10907e-13 -1.01484e-14 0)
(1.11688e-13 -1.08983e-14 0)
(1.10044e-13 -1.17092e-14 0)
(1.04616e-13 -9.84406e-15 0)
(1.01905e-13 -5.48414e-15 0)
(1.01069e-13 -2.89249e-15 0)
(8.76452e-14 3.81121e-17 0)
(7.70235e-14 6.22556e-15 0)
(7.41033e-14 9.25966e-15 0)
(7.48925e-14 5.74497e-15 0)
(5.88139e-14 2.56922e-15 0)
(6.24951e-14 -1.02532e-15 0)
(4.68992e-14 -4.69267e-15 0)
(5.25108e-14 -7.64006e-15 0)
(2.30733e-14 -2.30455e-15 0)
(4.01953e-14 -5.30908e-15 0)
(2.82663e-15 4.62804e-15 0)
(-6.3863e-14 -2.22717e-15 0)
(8.76125e-14 -2.12746e-13 0)
(2.54508e-13 -2.47723e-13 0)
(2.46991e-13 -2.00927e-13 0)
(1.83783e-13 -9.61898e-14 0)
(1.31202e-13 2.50229e-14 0)
(2.34179e-14 1.27036e-13 0)
(-5.35462e-14 1.76801e-13 0)
(-1.0163e-13 1.70036e-13 0)
(-1.03759e-13 1.14401e-13 0)
(-6.51532e-14 2.72827e-14 0)
(4.83545e-15 -7.13258e-14 0)
(6.81232e-14 -1.53746e-13 0)
(1.27205e-13 -1.97906e-13 0)
(1.73828e-13 -2.04996e-13 0)
(1.84906e-13 -1.77016e-13 0)
(1.68091e-13 -1.19485e-13 0)
(1.48046e-13 -5.5313e-14 0)
(1.11234e-13 -3.1696e-15 0)
(6.39372e-14 3.63857e-14 0)
(4.26312e-14 5.57616e-14 0)
(4.58866e-14 4.63313e-14 0)
(5.19834e-14 1.88929e-14 0)
(6.85267e-14 -1.33087e-14 0)
(9.59347e-14 -4.54553e-14 0)
(1.19915e-13 -6.92572e-14 0)
(1.41544e-13 -8.01984e-14 0)
(1.56183e-13 -8.16393e-14 0)
(1.53982e-13 -7.23774e-14 0)
(1.48567e-13 -5.41554e-14 0)
(1.47591e-13 -3.73077e-14 0)
(1.39662e-13 -2.47808e-14 0)
(1.29742e-13 -1.42719e-14 0)
(1.26527e-13 -8.6221e-15 0)
(1.23704e-13 -7.00111e-15 0)
(1.23437e-13 -5.86832e-15 0)
(1.28504e-13 -6.90928e-15 0)
(1.29149e-13 -8.87466e-15 0)
(1.2703e-13 -8.23348e-15 0)
(1.29132e-13 -7.71737e-15 0)
(1.29048e-13 -9.01667e-15 0)
(1.24621e-13 -9.83255e-15 0)
(1.21681e-13 -1.0333e-14 0)
(1.2077e-13 -1.11152e-14 0)
(1.21542e-13 -1.19483e-14 0)
(1.19763e-13 -1.28796e-14 0)
(1.14e-13 -1.09251e-14 0)
(1.11024e-13 -6.27882e-15 0)
(1.09934e-13 -3.44897e-15 0)
(9.55857e-14 -2.10387e-16 0)
(8.41305e-14 6.61394e-15 0)
(8.07279e-14 1.00053e-14 0)
(8.12741e-14 6.45625e-15 0)
(6.41291e-14 3.06301e-15 0)
(6.77431e-14 -7.08411e-16 0)
(5.11119e-14 -4.84857e-15 0)
(5.68377e-14 -7.94493e-15 0)
(2.55406e-14 -2.38946e-15 0)
(4.32495e-14 -5.50366e-15 0)
(3.07848e-15 5.79427e-15 0)
(-6.75197e-14 -2.64156e-15 0)
(9.28517e-14 -2.28542e-13 0)
(2.7142e-13 -2.73984e-13 0)
(2.67195e-13 -2.28671e-13 0)
(2.01459e-13 -1.16754e-13 0)
(1.4465e-13 1.53663e-14 0)
(2.85034e-14 1.2963e-13 0)
(-5.58236e-14 1.88425e-13 0)
(-1.09043e-13 1.8648e-13 0)
(-1.1273e-13 1.30215e-13 0)
(-7.21415e-14 3.78652e-14 0)
(2.72839e-15 -6.92691e-14 0)
(7.15822e-14 -1.60846e-13 0)
(1.36226e-13 -2.12343e-13 0)
(1.87358e-13 -2.23875e-13 0)
(2.00493e-13 -1.96696e-13 0)
(1.83349e-13 -1.36281e-13 0)
(1.61728e-13 -6.70895e-14 0)
(1.21928e-13 -9.42452e-15 0)
(7.09608e-14 3.5434e-14 0)
(4.72846e-14 5.86734e-14 0)
(4.98186e-14 5.05768e-14 0)
(5.60325e-14 2.23265e-14 0)
(7.37181e-14 -1.20379e-14 0)
(1.0318e-13 -4.71524e-14 0)
(1.29306e-13 -7.38038e-14 0)
(1.52895e-13 -8.68171e-14 0)
(1.6892e-13 -8.945e-14 0)
(1.67051e-13 -8.02178e-14 0)
(1.61473e-13 -6.09471e-14 0)
(1.60271e-13 -4.27202e-14 0)
(1.51707e-13 -2.88221e-14 0)
(1.41013e-13 -1.70004e-14 0)
(1.37355e-13 -1.0427e-14 0)
(1.34248e-13 -8.28077e-15 0)
(1.33917e-13 -6.82117e-15 0)
(1.39209e-13 -7.81948e-15 0)
(1.39933e-13 -9.87669e-15 0)
(1.37749e-13 -9.1839e-15 0)
(1.39915e-13 -8.61643e-15 0)
(1.39774e-13 -9.95238e-15 0)
(1.35069e-13 -1.07663e-14 0)
(1.31902e-13 -1.1264e-14 0)
(1.30884e-13 -1.20962e-14 0)
(1.31635e-13 -1.30214e-14 0)
(1.29718e-13 -1.40884e-14 0)
(1.23633e-13 -1.2066e-14 0)
(1.20383e-13 -7.15445e-15 0)
(1.19014e-13 -4.08559e-15 0)
(1.03755e-13 -5.26546e-16 0)
(9.1462e-14 6.95931e-15 0)
(8.75331e-14 1.07367e-14 0)
(8.77871e-14 7.20466e-15 0)
(6.95881e-14 3.61096e-15 0)
(7.30823e-14 -3.12813e-16 0)
(5.54279e-14 -4.94996e-15 0)
(6.1231e-14 -8.19228e-15 0)
(2.81148e-14 -2.4581e-15 0)
(4.63321e-14 -5.67495e-15 0)
(3.34407e-15 7.05654e-15 0)
(-7.10418e-14 -3.08448e-15 0)
(9.78154e-14 -2.44053e-13 0)
(2.87965e-13 -3.00813e-13 0)
(2.8771e-13 -2.5811e-13 0)
(2.19891e-13 -1.39576e-13 0)
(1.5891e-13 3.31845e-15 0)
(3.43389e-14 1.30293e-13 0)
(-5.76369e-14 1.98923e-13 0)
(-1.16309e-13 2.0281e-13 0)
(-1.21862e-13 1.46786e-13 0)
(-7.95086e-14 4.9786e-14 0)
(1.49706e-16 -6.57109e-14 0)
(7.46822e-14 -1.66688e-13 0)
(1.45091e-13 -2.26086e-13 0)
(2.00954e-13 -2.42753e-13 0)
(2.16401e-13 -2.17032e-13 0)
(1.99126e-13 -1.5421e-13 0)
(1.7597e-13 -8.02034e-14 0)
(1.33167e-13 -1.69322e-14 0)
(7.84877e-14 3.35184e-14 0)
(5.22976e-14 6.10205e-14 0)
(5.39368e-14 5.4676e-14 0)
(6.01773e-14 2.59456e-14 0)
(7.89633e-14 -1.03997e-14 0)
(1.10474e-13 -4.84553e-14 0)
(1.38802e-13 -7.80632e-14 0)
(1.6442e-13 -9.33368e-14 0)
(1.819e-13 -9.73639e-14 0)
(1.80455e-13 -8.83373e-14 0)
(1.74766e-13 -6.8139e-14 0)
(1.73329e-13 -4.85749e-14 0)
(1.64126e-13 -3.32806e-14 0)
(1.52648e-13 -2.00831e-14 0)
(1.48512e-13 -1.25042e-14 0)
(1.45102e-13 -9.75521e-15 0)
(1.44693e-13 -7.91232e-15 0)
(1.50187e-13 -8.82811e-15 0)
(1.50991e-13 -1.09523e-14 0)
(1.48752e-13 -1.0197e-14 0)
(1.50971e-13 -9.56769e-15 0)
(1.50765e-13 -1.09248e-14 0)
(1.45786e-13 -1.17222e-14 0)
(1.42388e-13 -1.2207e-14 0)
(1.41254e-13 -1.30882e-14 0)
(1.4197e-13 -1.41139e-14 0)
(1.39913e-13 -1.53323e-14 0)
(1.33517e-13 -1.32659e-14 0)
(1.29987e-13 -8.11343e-15 0)
(1.28314e-13 -4.80717e-15 0)
(1.1216e-13 -9.17266e-16 0)
(9.90247e-14 7.25384e-15 0)
(9.45247e-14 1.14474e-14 0)
(9.44356e-14 7.9878e-15 0)
(7.51933e-14 4.21463e-15 0)
(7.85143e-14 1.68105e-16 0)
(5.98469e-14 -4.98791e-15 0)
(6.56917e-14 -8.37199e-15 0)
(3.07953e-14 -2.50412e-15 0)
(4.94476e-14 -5.81716e-15 0)
(3.62497e-15 8.41363e-15 0)