/*--------------------------------*- C++ -*----------------------------------*\
| =========                 |                                                 |
| \\      /  F ield         | foam-extend: Open Source CFD                    |
|  \\    /   O peration     | Version:     4.0                                |
|   \\  /    A nd           | Web:         http://www.foam-extend.org         |
|    \\/     M anipulation  |                                                 |
\*---------------------------------------------------------------------------*/
FoamFile
{
    version     2.0;
    format      ascii;
    class       volVectorField;
    location    "1";
    object      bodyForce;
}
// * * * * * * * * * * * * * * * * * * * * * * * * * * * * * * * * * * * * * //

dimensions      [1 -2 -2 0 0 0 0];

internalField   nonuniform List<vector> 
6960
(
(-2.91359e-33 -2.61748e-16 -0)
(-0 -2.61748e-16 -0)
(6.55558e-33 -2.61748e-16 -0)
(6.55558e-33 -2.61748e-16 -0)
(1.96667e-32 -2.61748e-16 -0)
(3.71483e-32 -2.61748e-16 -0)
(2.33087e-32 -2.61748e-16 -0)
(-1.67531e-32 -2.61748e-16 -0)
(-2.69507e-32 -2.61748e-16 -0)
(-3.93335e-32 -2.61748e-16 -0)
(-2.25803e-32 -2.61748e-16 -0)
(5.82718e-33 -2.61748e-16 -0)
(-1.16544e-32 -2.61748e-16 -0)
(-1.38396e-32 -2.61748e-16 -0)
(2.18519e-33 -2.61748e-16 -0)
(1.38396e-32 -2.61748e-16 -0)
(3.42347e-32 -2.61748e-16 -0)
(3.13211e-32 -2.61748e-16 -0)
(-6.55558e-33 -2.61748e-16 -0)
(-2.03951e-32 -2.61748e-16 -0)
(-1.52964e-32 -2.61748e-16 -0)
(-8.74077e-33 -2.61748e-16 -0)
(-2.84075e-32 -2.61748e-16 -0)
(-2.11235e-32 -2.61748e-16 -0)
(2.91359e-33 -2.61748e-16 -0)
(1.23828e-32 -2.61748e-16 -0)
(-2.18519e-33 -2.61748e-16 -0)
(-4.37039e-33 -2.61748e-16 -0)
(2.76791e-32 -2.61748e-16 -0)
(2.98643e-32 -2.61748e-16 -0)
(2.18519e-33 -2.61748e-16 -0)
(-3.56915e-32 -2.61748e-16 -0)
(-1.89383e-32 -2.61748e-16 -0)
(2.18519e-33 -2.61748e-16 -0)
(-3.64199e-33 -2.61748e-16 -0)
(-0 -2.61748e-16 -0)
(-1.96667e-32 -2.61748e-16 -0)
(-2.62223e-32 -2.61748e-16 -0)
(1.4568e-33 -2.61748e-16 -0)
(3.20495e-32 -2.61748e-16 -0)
(1.89383e-32 -2.61748e-16 -0)
(-1.4568e-32 -2.61748e-16 -0)
(1.52964e-32 -2.61748e-16 -0)
(2.76791e-32 -2.61748e-16 -0)
(4.37039e-33 -2.61748e-16 -0)
(2.18519e-33 -2.61748e-16 -0)
(1.96667e-32 -2.61748e-16 -0)
(1.74815e-32 -2.61748e-16 -0)
(8.01238e-33 -2.61748e-16 -0)
(7.28398e-33 -2.61748e-16 -0)
(2.91359e-33 -2.61748e-16 -0)
(8.01238e-33 -2.61748e-16 -0)
(-0 -2.61748e-16 -0)
(-2.03951e-32 -2.61748e-16 -0)
(-5.82718e-33 -2.61748e-16 -0)
(3.64199e-33 -2.61748e-16 -0)
(-3.56915e-32 -2.61748e-16 -0)
(-4.88027e-32 -2.61748e-16 -0)
(-3.56915e-32 -2.61748e-16 -0)
(-1.60248e-32 -2.61748e-16 -0)
(-4.2405e-33 -2.61593e-16 -0)
(4.2405e-33 -2.61593e-16 -0)
(1.4135e-32 -2.61593e-16 -0)
(8.48101e-33 -2.61593e-16 -0)
(6.64345e-32 -2.61593e-16 -0)
(1.18734e-31 -2.61593e-16 -0)
(5.9367e-32 -2.61593e-16 -0)
(-5.51265e-32 -2.61593e-16 -0)
(-7.35021e-32 -2.61593e-16 -0)
(-1.15907e-31 -2.61593e-16 -0)
(-7.35021e-32 -2.61593e-16 -0)
(1.4135e-32 -2.61593e-16 -0)
(-4.09915e-32 -2.61593e-16 -0)
(-4.09915e-32 -2.61593e-16 -0)
(1.83755e-32 -2.61593e-16 -0)
(4.09915e-32 -2.61593e-16 -0)
(1.07426e-31 -2.61593e-16 -0)
(1.00359e-31 -2.61593e-16 -0)
(-2.827e-32 -2.61593e-16 -0)
(-7.06751e-32 -2.61593e-16 -0)
(-3.9578e-32 -2.61593e-16 -0)
(-2.40295e-32 -2.61593e-16 -0)
(-8.90506e-32 -2.61593e-16 -0)
(-6.36075e-32 -2.61593e-16 -0)
(1.6962e-32 -2.61593e-16 -0)
(3.53375e-32 -2.61593e-16 -0)
(-1.1308e-32 -2.61593e-16 -0)
(-1.1308e-32 -2.61593e-16 -0)
(9.47046e-32 -2.61593e-16 -0)
(9.75316e-32 -2.61593e-16 -0)
(-5.654e-33 -2.61593e-16 -0)
(-1.17321e-31 -2.61593e-16 -0)
(-5.0886e-32 -2.61593e-16 -0)
(1.4135e-33 -2.61593e-16 -0)
(-1.55485e-32 -2.61593e-16 -0)
(1.4135e-33 -2.61593e-16 -0)
(-6.64345e-32 -2.61593e-16 -0)
(-7.77426e-32 -2.61593e-16 -0)
(9.89451e-33 -2.61593e-16 -0)
(9.47046e-32 -2.61593e-16 -0)
(5.654e-32 -2.61593e-16 -0)
(-4.38185e-32 -2.61593e-16 -0)
(5.3713e-32 -2.61593e-16 -0)
(9.18776e-32 -2.61593e-16 -0)
(4.2405e-33 -2.61593e-16 -0)
(-0 -2.61593e-16 -0)
(6.36075e-32 -2.61593e-16 -0)
(5.654e-32 -2.61593e-16 -0)
(2.2616e-32 -2.61593e-16 -0)
(2.40295e-32 -2.61593e-16 -0)
(1.27215e-32 -2.61593e-16 -0)
(2.2616e-32 -2.61593e-16 -0)
(-0 -2.61593e-16 -0)
(-6.36075e-32 -2.61593e-16 -0)
(-1.83755e-32 -2.61593e-16 -0)
(9.89451e-33 -2.61593e-16 -0)
(-1.07426e-31 -2.61593e-16 -0)
(-1.51245e-31 -2.61593e-16 -0)
(-1.07426e-31 -2.61593e-16 -0)
(-4.5232e-32 -2.61593e-16 -0)
(-1.64576e-32 -2.61433e-16 -0)
(-2.74293e-33 -2.61433e-16 -0)
(4.1144e-32 -2.61433e-16 -0)
(2.74293e-32 -2.61433e-16 -0)
(1.04232e-31 -2.61433e-16 -0)
(1.83777e-31 -2.61433e-16 -0)
(1.15203e-31 -2.61433e-16 -0)
(-8.2288e-32 -2.61433e-16 -0)
(-1.50861e-31 -2.61433e-16 -0)
(-2.11206e-31 -2.61433e-16 -0)
(-1.09717e-31 -2.61433e-16 -0)
(4.3887e-32 -2.61433e-16 -0)
(-6.85734e-32 -2.61433e-16 -0)
(-7.95451e-32 -2.61433e-16 -0)
(3.29152e-32 -2.61433e-16 -0)
(6.30875e-32 -2.61433e-16 -0)
(1.5909e-31 -2.61433e-16 -0)
(1.72805e-31 -2.61433e-16 -0)
(-3.29152e-32 -2.61433e-16 -0)
(-1.09717e-31 -2.61433e-16 -0)
(-7.13163e-32 -2.61433e-16 -0)
(-4.1144e-32 -2.61433e-16 -0)
(-1.56347e-31 -2.61433e-16 -0)
(-9.87456e-32 -2.61433e-16 -0)
(2.19435e-32 -2.61433e-16 -0)
(5.21158e-32 -2.61433e-16 -0)
(-8.2288e-33 -2.61433e-16 -0)
(-1.92005e-32 -2.61433e-16 -0)
(1.42633e-31 -2.61433e-16 -0)
(1.64576e-31 -2.61433e-16 -0)
(-2.74293e-33 -2.61433e-16 -0)
(-1.81034e-31 -2.61433e-16 -0)
(-9.60027e-32 -2.61433e-16 -0)
(5.48587e-33 -2.61433e-16 -0)
(-1.37147e-32 -2.61433e-16 -0)
(8.2288e-33 -2.61433e-16 -0)
(-1.17946e-31 -2.61433e-16 -0)
(-1.31661e-31 -2.61433e-16 -0)
(2.46864e-32 -2.61433e-16 -0)
(1.5909e-31 -2.61433e-16 -0)
(9.05168e-32 -2.61433e-16 -0)
(-7.40592e-32 -2.61433e-16 -0)
(8.2288e-32 -2.61433e-16 -0)
(1.31661e-31 -2.61433e-16 -0)
(2.19435e-32 -2.61433e-16 -0)
(1.09717e-32 -2.61433e-16 -0)
(1.04232e-31 -2.61433e-16 -0)
(9.32598e-32 -2.61433e-16 -0)
(4.66299e-32 -2.61433e-16 -0)
(4.1144e-32 -2.61433e-16 -0)
(2.74293e-33 -2.61433e-16 -0)
(3.29152e-32 -2.61433e-16 -0)
(1.09717e-32 -2.61433e-16 -0)
(-9.32598e-32 -2.61433e-16 -0)
(-3.56582e-32 -2.61433e-16 -0)
(1.09717e-32 -2.61433e-16 -0)
(-1.83777e-31 -2.61433e-16 -0)
(-2.46864e-31 -2.61433e-16 -0)
(-1.78291e-31 -2.61433e-16 -0)
(-7.68022e-32 -2.61433e-16 -0)
(-2.12905e-32 -2.61268e-16 -0)
(5.32263e-33 -2.61268e-16 -0)
(5.85489e-32 -2.61268e-16 -0)
(4.2581e-32 -2.61268e-16 -0)
(1.27743e-31 -2.61268e-16 -0)
(2.71454e-31 -2.61268e-16 -0)
(1.86292e-31 -2.61268e-16 -0)
(-1.27743e-31 -2.61268e-16 -0)
(-2.12905e-31 -2.61268e-16 -0)
(-2.87422e-31 -2.61268e-16 -0)
(-1.70324e-31 -2.61268e-16 -0)
(4.79037e-32 -2.61268e-16 -0)
(-8.51621e-32 -2.61268e-16 -0)
(-9.04847e-32 -2.61268e-16 -0)
(4.2581e-32 -2.61268e-16 -0)
(7.98395e-32 -2.61268e-16 -0)
(2.39518e-31 -2.61268e-16 -0)
(2.44841e-31 -2.61268e-16 -0)
(-6.91942e-32 -2.61268e-16 -0)
(-1.59679e-31 -2.61268e-16 -0)
(-9.04847e-32 -2.61268e-16 -0)
(-5.32263e-32 -2.61268e-16 -0)
(-2.18228e-31 -2.61268e-16 -0)
(-1.43711e-31 -2.61268e-16 -0)
(2.12905e-32 -2.61268e-16 -0)
(8.51621e-32 -2.61268e-16 -0)
(-1.06453e-32 -2.61268e-16 -0)
(-4.79037e-32 -2.61268e-16 -0)
(2.07583e-31 -2.61268e-16 -0)
(2.34196e-31 -2.61268e-16 -0)
(1.59679e-32 -2.61268e-16 -0)
(-2.39518e-31 -2.61268e-16 -0)
(-1.38388e-31 -2.61268e-16 -0)
(1.06453e-32 -2.61268e-16 -0)
(-2.66132e-32 -2.61268e-16 -0)
(-0 -2.61268e-16 -0)
(-1.65002e-31 -2.61268e-16 -0)
(-1.96937e-31 -2.61268e-16 -0)
(3.72584e-32 -2.61268e-16 -0)
(2.34196e-31 -2.61268e-16 -0)
(1.38388e-31 -2.61268e-16 -0)
(-1.06453e-31 -2.61268e-16 -0)
(1.11775e-31 -2.61268e-16 -0)
(1.96937e-31 -2.61268e-16 -0)
(1.59679e-32 -2.61268e-16 -0)
(1.59679e-32 -2.61268e-16 -0)
(1.43711e-31 -2.61268e-16 -0)
(1.11775e-31 -2.61268e-16 -0)
(6.38716e-32 -2.61268e-16 -0)
(5.85489e-32 -2.61268e-16 -0)
(3.19358e-32 -2.61268e-16 -0)
(6.91942e-32 -2.61268e-16 -0)
(1.06453e-32 -2.61268e-16 -0)
(-1.54356e-31 -2.61268e-16 -0)
(-5.85489e-32 -2.61268e-16 -0)
(2.12905e-32 -2.61268e-16 -0)
(-2.39518e-31 -2.61268e-16 -0)
(-3.56616e-31 -2.61268e-16 -0)
(-2.76777e-31 -2.61268e-16 -0)
(-1.22421e-31 -2.61268e-16 -0)
(-3.6149e-32 -2.61097e-16 -0)
(-5.16415e-33 -2.61097e-16 -0)
(6.71339e-32 -2.61097e-16 -0)
(5.68056e-32 -2.61097e-16 -0)
(1.65253e-31 -2.61097e-16 -0)
(3.09849e-31 -2.61097e-16 -0)
(2.47879e-31 -2.61097e-16 -0)
(-1.75581e-31 -2.61097e-16 -0)
(-2.68536e-31 -2.61097e-16 -0)
(-3.35669e-31 -2.61097e-16 -0)
(-2.16894e-31 -2.61097e-16 -0)
(5.16415e-32 -2.61097e-16 -0)
(-1.2394e-31 -2.61097e-16 -0)
(-1.34268e-31 -2.61097e-16 -0)
(4.13132e-32 -2.61097e-16 -0)
(1.03283e-31 -2.61097e-16 -0)
(2.9952e-31 -2.61097e-16 -0)
(3.45998e-31 -2.61097e-16 -0)
(-4.64773e-32 -2.61097e-16 -0)
(-2.06566e-31 -2.61097e-16 -0)
(-1.39432e-31 -2.61097e-16 -0)
(-8.26263e-32 -2.61097e-16 -0)
(-2.63371e-31 -2.61097e-16 -0)
(-1.96238e-31 -2.61097e-16 -0)
(2.58207e-32 -2.61097e-16 -0)
(1.29104e-31 -2.61097e-16 -0)
(-0 -2.61097e-16 -0)
(-6.71339e-32 -2.61097e-16 -0)
(2.737e-31 -2.61097e-16 -0)
(2.94356e-31 -2.61097e-16 -0)
(-1.54924e-32 -2.61097e-16 -0)
(-3.45998e-31 -2.61097e-16 -0)
(-1.70417e-31 -2.61097e-16 -0)
(1.54924e-32 -2.61097e-16 -0)
(-3.09849e-32 -2.61097e-16 -0)
(5.16415e-33 -2.61097e-16 -0)
(-1.96238e-31 -2.61097e-16 -0)
(-2.53043e-31 -2.61097e-16 -0)
(4.13132e-32 -2.61097e-16 -0)
(2.94356e-31 -2.61097e-16 -0)
(1.80745e-31 -2.61097e-16 -0)
(-1.2394e-31 -2.61097e-16 -0)
(1.29104e-31 -2.61097e-16 -0)
(2.737e-31 -2.61097e-16 -0)
(3.09849e-32 -2.61097e-16 -0)
(2.58207e-32 -2.61097e-16 -0)
(1.70417e-31 -2.61097e-16 -0)
(1.65253e-31 -2.61097e-16 -0)
(7.74622e-32 -2.61097e-16 -0)
(6.19698e-32 -2.61097e-16 -0)
(4.13132e-32 -2.61097e-16 -0)
(9.29546e-32 -2.61097e-16 -0)
(5.16415e-33 -2.61097e-16 -0)
(-1.70417e-31 -2.61097e-16 -0)
(-5.68056e-32 -2.61097e-16 -0)
(2.58207e-32 -2.61097e-16 -0)
(-3.30505e-31 -2.61097e-16 -0)
(-4.75101e-31 -2.61097e-16 -0)
(-3.35669e-31 -2.61097e-16 -0)
(-1.4976e-31 -2.61097e-16 -0)
(1.00206e-32 -2.60922e-16 -0)
(2.00411e-32 -2.60922e-16 -0)
(4.00822e-32 -2.60922e-16 -0)
(7.01439e-32 -2.60922e-16 -0)
(2.40493e-31 -2.60922e-16 -0)
(4.20863e-31 -2.60922e-16 -0)
(3.00617e-31 -2.60922e-16 -0)
(-1.9039e-31 -2.60922e-16 -0)
(-3.80781e-31 -2.60922e-16 -0)
(-4.40904e-31 -2.60922e-16 -0)
(-2.30473e-31 -2.60922e-16 -0)
(4.00822e-32 -2.60922e-16 -0)
(-1.40288e-31 -2.60922e-16 -0)
(-1.50308e-31 -2.60922e-16 -0)
(5.01028e-32 -2.60922e-16 -0)
(1.40288e-31 -2.60922e-16 -0)
(3.7076e-31 -2.60922e-16 -0)
(4.00822e-31 -2.60922e-16 -0)
(-7.01439e-32 -2.60922e-16 -0)
(-2.60534e-31 -2.60922e-16 -0)
(-1.70349e-31 -2.60922e-16 -0)
(-8.01644e-32 -2.60922e-16 -0)
(-3.40699e-31 -2.60922e-16 -0)
(-2.50514e-31 -2.60922e-16 -0)
(2.00411e-32 -2.60922e-16 -0)
(1.50308e-31 -2.60922e-16 -0)
(-0 -2.60922e-16 -0)
(-5.01028e-32 -2.60922e-16 -0)
(3.6074e-31 -2.60922e-16 -0)
(3.30678e-31 -2.60922e-16 -0)
(-5.01028e-32 -2.60922e-16 -0)
(-3.6074e-31 -2.60922e-16 -0)
(-1.8037e-31 -2.60922e-16 -0)
(-0 -2.60922e-16 -0)
(-5.01028e-32 -2.60922e-16 -0)
(3.00617e-32 -2.60922e-16 -0)
(-2.90596e-31 -2.60922e-16 -0)
(-3.6074e-31 -2.60922e-16 -0)
(6.01233e-32 -2.60922e-16 -0)
(3.7076e-31 -2.60922e-16 -0)
(2.30473e-31 -2.60922e-16 -0)
(-1.40288e-31 -2.60922e-16 -0)
(1.60329e-31 -2.60922e-16 -0)
(3.50719e-31 -2.60922e-16 -0)
(4.00822e-32 -2.60922e-16 -0)
(1.00206e-32 -2.60922e-16 -0)
(2.60534e-31 -2.60922e-16 -0)
(2.10432e-31 -2.60922e-16 -0)
(9.0185e-32 -2.60922e-16 -0)
(6.01233e-32 -2.60922e-16 -0)
(5.01028e-32 -2.60922e-16 -0)
(1.00206e-31 -2.60922e-16 -0)
(-0 -2.60922e-16 -0)
(-2.20452e-31 -2.60922e-16 -0)
(-6.01233e-32 -2.60922e-16 -0)
(2.00411e-32 -2.60922e-16 -0)
(-3.90802e-31 -2.60922e-16 -0)
(-5.61151e-31 -2.60922e-16 -0)
(-4.50925e-31 -2.60922e-16 -0)
(-2.00411e-31 -2.60922e-16 -0)
(-1.94435e-32 -2.6074e-16 -0)
(4.86089e-32 -2.6074e-16 -0)
(1.16661e-31 -2.6074e-16 -0)
(6.80524e-32 -2.6074e-16 -0)
(2.62488e-31 -2.6074e-16 -0)
(5.15254e-31 -2.6074e-16 -0)
(3.3054e-31 -2.6074e-16 -0)
(-2.52766e-31 -2.6074e-16 -0)
(-4.08314e-31 -2.6074e-16 -0)
(-5.44419e-31 -2.6074e-16 -0)
(-3.01375e-31 -2.6074e-16 -0)
(5.83306e-32 -2.6074e-16 -0)
(-2.13879e-31 -2.6074e-16 -0)
(-1.45827e-31 -2.6074e-16 -0)
(1.16661e-31 -2.6074e-16 -0)
(1.74992e-31 -2.6074e-16 -0)
(4.3748e-31 -2.6074e-16 -0)
(4.86089e-31 -2.6074e-16 -0)
(-7.77742e-32 -2.6074e-16 -0)
(-3.11097e-31 -2.6074e-16 -0)
(-1.94435e-31 -2.6074e-16 -0)
(-1.36105e-31 -2.6074e-16 -0)
(-4.08314e-31 -2.6074e-16 -0)
(-3.01375e-31 -2.6074e-16 -0)
(1.94435e-32 -2.6074e-16 -0)
(2.13879e-31 -2.6074e-16 -0)
(1.94435e-32 -2.6074e-16 -0)
(-6.80524e-32 -2.6074e-16 -0)
(3.88871e-31 -2.6074e-16 -0)
(3.79149e-31 -2.6074e-16 -0)
(-1.94435e-32 -2.6074e-16 -0)
(-4.3748e-31 -2.6074e-16 -0)
(-2.13879e-31 -2.6074e-16 -0)
(1.94435e-32 -2.6074e-16 -0)
(-5.83306e-32 -2.6074e-16 -0)
(-9.72177e-33 -2.6074e-16 -0)
(-3.01375e-31 -2.6074e-16 -0)
(-3.98593e-31 -2.6074e-16 -0)
(3.88871e-32 -2.6074e-16 -0)
(4.66645e-31 -2.6074e-16 -0)
(2.7221e-31 -2.6074e-16 -0)
(-1.94435e-31 -2.6074e-16 -0)
(1.94435e-31 -2.6074e-16 -0)
(3.79149e-31 -2.6074e-16 -0)
(5.83306e-32 -2.6074e-16 -0)
(4.86089e-32 -2.6074e-16 -0)
(2.91653e-31 -2.6074e-16 -0)
(2.23601e-31 -2.6074e-16 -0)
(1.06939e-31 -2.6074e-16 -0)
(6.80524e-32 -2.6074e-16 -0)
(8.74959e-32 -2.6074e-16 -0)
(1.55548e-31 -2.6074e-16 -0)
(-2.91653e-32 -2.6074e-16 -0)
(-2.7221e-31 -2.6074e-16 -0)
(-6.80524e-32 -2.6074e-16 -0)
(-0 -2.6074e-16 -0)
(-4.9581e-31 -2.6074e-16 -0)
(-6.70802e-31 -2.6074e-16 -0)
(-5.15254e-31 -2.6074e-16 -0)
(-2.33323e-31 -2.6074e-16 -0)
(-2.82951e-32 -2.60554e-16 -0)
(9.43169e-33 -2.60554e-16 -0)
(1.41475e-31 -2.60554e-16 -0)
(1.03749e-31 -2.60554e-16 -0)
(2.92382e-31 -2.60554e-16 -0)
(5.84765e-31 -2.60554e-16 -0)
(3.58404e-31 -2.60554e-16 -0)
(-2.82951e-31 -2.60554e-16 -0)
(-4.62153e-31 -2.60554e-16 -0)
(-6.1306e-31 -2.60554e-16 -0)
(-3.58404e-31 -2.60554e-16 -0)
(8.48852e-32 -2.60554e-16 -0)
(-2.16929e-31 -2.60554e-16 -0)
(-2.07497e-31 -2.60554e-16 -0)
(8.48852e-32 -2.60554e-16 -0)
(1.98066e-31 -2.60554e-16 -0)
(5.18743e-31 -2.60554e-16 -0)
(5.5647e-31 -2.60554e-16 -0)
(-7.54535e-32 -2.60554e-16 -0)
(-3.77268e-31 -2.60554e-16 -0)
(-2.35792e-31 -2.60554e-16 -0)
(-1.03749e-31 -2.60554e-16 -0)
(-5.18743e-31 -2.60554e-16 -0)
(-3.77268e-31 -2.60554e-16 -0)
(5.65901e-32 -2.60554e-16 -0)
(2.64087e-31 -2.60554e-16 -0)
(-2.82951e-32 -2.60554e-16 -0)
(-1.1318e-31 -2.60554e-16 -0)
(5.18743e-31 -2.60554e-16 -0)
(4.71585e-31 -2.60554e-16 -0)
(-1.88634e-32 -2.60554e-16 -0)
(-5.37606e-31 -2.60554e-16 -0)
(-2.82951e-31 -2.60554e-16 -0)
(5.65901e-32 -2.60554e-16 -0)
(-5.65901e-32 -2.60554e-16 -0)
(-3.77268e-32 -2.60554e-16 -0)
(-3.11246e-31 -2.60554e-16 -0)
(-4.33858e-31 -2.60554e-16 -0)
(3.77268e-32 -2.60554e-16 -0)
(4.9988e-31 -2.60554e-16 -0)
(2.92382e-31 -2.60554e-16 -0)
(-2.35792e-31 -2.60554e-16 -0)
(2.26361e-31 -2.60554e-16 -0)
(4.62153e-31 -2.60554e-16 -0)
(6.60218e-32 -2.60554e-16 -0)
(5.65901e-32 -2.60554e-16 -0)
(2.92382e-31 -2.60554e-16 -0)
(2.92382e-31 -2.60554e-16 -0)
(1.50907e-31 -2.60554e-16 -0)
(9.43169e-32 -2.60554e-16 -0)
(8.48852e-32 -2.60554e-16 -0)
(1.79202e-31 -2.60554e-16 -0)
(-1.88634e-32 -2.60554e-16 -0)
(-3.11246e-31 -2.60554e-16 -0)
(-1.1318e-31 -2.60554e-16 -0)
(-3.77268e-32 -2.60554e-16 -0)
(-5.37606e-31 -2.60554e-16 -0)
(-7.63967e-31 -2.60554e-16 -0)
(-6.50787e-31 -2.60554e-16 -0)
(-2.92382e-31 -2.60554e-16 -0)
(-5.49003e-32 -2.60361e-16 -0)
(1.83001e-32 -2.60361e-16 -0)
(1.46401e-31 -2.60361e-16 -0)
(1.46401e-31 -2.60361e-16 -0)
(3.47702e-31 -2.60361e-16 -0)
(6.03904e-31 -2.60361e-16 -0)
(4.48353e-31 -2.60361e-16 -0)
(-3.66002e-31 -2.60361e-16 -0)
(-5.67303e-31 -2.60361e-16 -0)
(-6.58804e-31 -2.60361e-16 -0)
(-3.47702e-31 -2.60361e-16 -0)
(3.66002e-32 -2.60361e-16 -0)
(-2.83652e-31 -2.60361e-16 -0)
(-1.92151e-31 -2.60361e-16 -0)
(1.18951e-31 -2.60361e-16 -0)
(1.73851e-31 -2.60361e-16 -0)
(5.58153e-31 -2.60361e-16 -0)
(6.86254e-31 -2.60361e-16 -0)
(-8.23505e-32 -2.60361e-16 -0)
(-3.93452e-31 -2.60361e-16 -0)
(-2.56202e-31 -2.60361e-16 -0)
(-1.83001e-31 -2.60361e-16 -0)
(-5.58153e-31 -2.60361e-16 -0)
(-4.11753e-31 -2.60361e-16 -0)
(5.49003e-32 -2.60361e-16 -0)
(2.74502e-31 -2.60361e-16 -0)
(1.83001e-32 -2.60361e-16 -0)
(-8.23505e-32 -2.60361e-16 -0)
(5.76454e-31 -2.60361e-16 -0)
(5.21553e-31 -2.60361e-16 -0)
(-6.40504e-32 -2.60361e-16 -0)
(-6.40504e-31 -2.60361e-16 -0)
(-2.92802e-31 -2.60361e-16 -0)
(4.57503e-32 -2.60361e-16 -0)
(-1.00651e-31 -2.60361e-16 -0)
(-9.15006e-33 -2.60361e-16 -0)
(-3.93452e-31 -2.60361e-16 -0)
(-4.75803e-31 -2.60361e-16 -0)
(8.23505e-32 -2.60361e-16 -0)
(5.85604e-31 -2.60361e-16 -0)
(3.47702e-31 -2.60361e-16 -0)
(-2.92802e-31 -2.60361e-16 -0)
(2.56202e-31 -2.60361e-16 -0)
(5.39853e-31 -2.60361e-16 -0)
(8.23505e-32 -2.60361e-16 -0)
(3.66002e-32 -2.60361e-16 -0)
(3.29402e-31 -2.60361e-16 -0)
(3.75152e-31 -2.60361e-16 -0)
(1.28101e-31 -2.60361e-16 -0)
(8.23505e-32 -2.60361e-16 -0)
(1.83001e-31 -2.60361e-16 -0)
(2.47052e-31 -2.60361e-16 -0)
(-5.49003e-32 -2.60361e-16 -0)
(-3.75152e-31 -2.60361e-16 -0)
(-1.00651e-31 -2.60361e-16 -0)
(-1.83001e-32 -2.60361e-16 -0)
(-6.31354e-31 -2.60361e-16 -0)
(-8.87555e-31 -2.60361e-16 -0)
(-7.41155e-31 -2.60361e-16 -0)
(-3.20252e-31 -2.60361e-16 -0)
(-8.87662e-32 -2.60162e-16 -0)
(1.77532e-32 -2.60162e-16 -0)
(1.77532e-31 -2.60162e-16 -0)
(1.42026e-31 -2.60162e-16 -0)
(4.61584e-31 -2.60162e-16 -0)
(7.27883e-31 -2.60162e-16 -0)
(4.79337e-31 -2.60162e-16 -0)
(-3.90571e-31 -2.60162e-16 -0)
(-6.74623e-31 -2.60162e-16 -0)
(-8.34402e-31 -2.60162e-16 -0)
(-3.90571e-31 -2.60162e-16 -0)
(5.32597e-32 -2.60162e-16 -0)
(-3.37312e-31 -2.60162e-16 -0)
(-1.42026e-31 -2.60162e-16 -0)
(1.42026e-31 -2.60162e-16 -0)
(2.13039e-31 -2.60162e-16 -0)
(6.21363e-31 -2.60162e-16 -0)
(7.63389e-31 -2.60162e-16 -0)
(-7.1013e-32 -2.60162e-16 -0)
(-4.97091e-31 -2.60162e-16 -0)
(-2.66299e-31 -2.60162e-16 -0)
(-2.30792e-31 -2.60162e-16 -0)
(-6.92376e-31 -2.60162e-16 -0)
(-4.61584e-31 -2.60162e-16 -0)
(1.06519e-31 -2.60162e-16 -0)
(2.66299e-31 -2.60162e-16 -0)
(-1.77532e-32 -2.60162e-16 -0)
(-1.77532e-32 -2.60162e-16 -0)
(6.39117e-31 -2.60162e-16 -0)
(5.5035e-31 -2.60162e-16 -0)
(-3.55065e-32 -2.60162e-16 -0)
(-6.74623e-31 -2.60162e-16 -0)
(-3.72818e-31 -2.60162e-16 -0)
(5.32597e-32 -2.60162e-16 -0)
(-8.87662e-32 -2.60162e-16 -0)
(-1.77532e-32 -2.60162e-16 -0)
(-4.61584e-31 -2.60162e-16 -0)
(-5.5035e-31 -2.60162e-16 -0)
(1.06519e-31 -2.60162e-16 -0)
(6.74623e-31 -2.60162e-16 -0)
(3.37312e-31 -2.60162e-16 -0)
(-3.19558e-31 -2.60162e-16 -0)
(3.19558e-31 -2.60162e-16 -0)
(6.0361e-31 -2.60162e-16 -0)
(5.32597e-32 -2.60162e-16 -0)
(3.55065e-32 -2.60162e-16 -0)
(4.61584e-31 -2.60162e-16 -0)
(4.08325e-31 -2.60162e-16 -0)
(1.42026e-31 -2.60162e-16 -0)
(7.1013e-32 -2.60162e-16 -0)
(2.13039e-31 -2.60162e-16 -0)
(3.19558e-31 -2.60162e-16 -0)
(-7.1013e-32 -2.60162e-16 -0)
(-4.43831e-31 -2.60162e-16 -0)
(-1.06519e-31 -2.60162e-16 -0)
(-8.87662e-32 -2.60162e-16 -0)
(-7.1013e-31 -2.60162e-16 -0)
(-1.01193e-30 -2.60162e-16 -0)
(-8.69909e-31 -2.60162e-16 -0)
(-3.72818e-31 -2.60162e-16 -0)
(-1.55001e-31 -2.59957e-16 -0)
(-0 -2.59957e-16 -0)
(2.75557e-31 -2.59957e-16 -0)
(2.2389e-31 -2.59957e-16 -0)
(4.47779e-31 -2.59957e-16 -0)
(7.92225e-31 -2.59957e-16 -0)
(4.82224e-31 -2.59957e-16 -0)
(-4.30557e-31 -2.59957e-16 -0)
(-6.88891e-31 -2.59957e-16 -0)
(-9.30003e-31 -2.59957e-16 -0)
(-4.13335e-31 -2.59957e-16 -0)
(8.61114e-32 -2.59957e-16 -0)
(-3.61668e-31 -2.59957e-16 -0)
(-2.2389e-31 -2.59957e-16 -0)
(1.55001e-31 -2.59957e-16 -0)
(2.75557e-31 -2.59957e-16 -0)
(7.92225e-31 -2.59957e-16 -0)
(7.75003e-31 -2.59957e-16 -0)
(-1.20556e-31 -2.59957e-16 -0)
(-5.16669e-31 -2.59957e-16 -0)
(-2.75557e-31 -2.59957e-16 -0)
(-2.75557e-31 -2.59957e-16 -0)
(-7.92225e-31 -2.59957e-16 -0)
(-4.47779e-31 -2.59957e-16 -0)
(1.37778e-31 -2.59957e-16 -0)
(3.10001e-31 -2.59957e-16 -0)
(-6.88891e-32 -2.59957e-16 -0)
(-6.88891e-32 -2.59957e-16 -0)
(7.75003e-31 -2.59957e-16 -0)
(6.71669e-31 -2.59957e-16 -0)
(-8.61114e-32 -2.59957e-16 -0)
(-8.2667e-31 -2.59957e-16 -0)
(-3.96113e-31 -2.59957e-16 -0)
(1.03334e-31 -2.59957e-16 -0)
(-1.20556e-31 -2.59957e-16 -0)
(-8.61114e-32 -2.59957e-16 -0)
(-4.82224e-31 -2.59957e-16 -0)
(-6.20002e-31 -2.59957e-16 -0)
(1.03334e-31 -2.59957e-16 -0)
(7.40558e-31 -2.59957e-16 -0)
(3.27223e-31 -2.59957e-16 -0)
(-3.44446e-31 -2.59957e-16 -0)
(4.30557e-31 -2.59957e-16 -0)
(6.71669e-31 -2.59957e-16 -0)
(8.61114e-32 -2.59957e-16 -0)
(8.61114e-32 -2.59957e-16 -0)
(3.96113e-31 -2.59957e-16 -0)
(4.30557e-31 -2.59957e-16 -0)
(2.06667e-31 -2.59957e-16 -0)
(1.20556e-31 -2.59957e-16 -0)
(1.89445e-31 -2.59957e-16 -0)
(3.27223e-31 -2.59957e-16 -0)
(-8.61114e-32 -2.59957e-16 -0)
(-4.99446e-31 -2.59957e-16 -0)
(-5.16669e-32 -2.59957e-16 -0)
(-5.16669e-32 -2.59957e-16 -0)
(-8.2667e-31 -2.59957e-16 -0)
(-1.11945e-30 -2.59957e-16 -0)
(-9.98893e-31 -2.59957e-16 -0)
(-4.47779e-31 -2.59957e-16 -0)
(-1.33654e-31 -2.59746e-16 -0)
(-1.67068e-32 -2.59746e-16 -0)
(2.67309e-31 -2.59746e-16 -0)
(2.67309e-31 -2.59746e-16 -0)
(5.84738e-31 -2.59746e-16 -0)
(8.8546e-31 -2.59746e-16 -0)
(5.51324e-31 -2.59746e-16 -0)
(-5.34617e-31 -2.59746e-16 -0)
(-8.01926e-31 -2.59746e-16 -0)
(-1.01911e-30 -2.59746e-16 -0)
(-4.6779e-31 -2.59746e-16 -0)
(6.68272e-32 -2.59746e-16 -0)
(-4.1767e-31 -2.59746e-16 -0)
(-1.50361e-31 -2.59746e-16 -0)
(1.83775e-31 -2.59746e-16 -0)
(2.67309e-31 -2.59746e-16 -0)
(8.35339e-31 -2.59746e-16 -0)
(8.52046e-31 -2.59746e-16 -0)
(-6.68272e-32 -2.59746e-16 -0)
(-5.51324e-31 -2.59746e-16 -0)
(-3.50843e-31 -2.59746e-16 -0)
(-2.67309e-31 -2.59746e-16 -0)
(-8.18633e-31 -2.59746e-16 -0)
(-5.01204e-31 -2.59746e-16 -0)
(6.68272e-32 -2.59746e-16 -0)
(2.84015e-31 -2.59746e-16 -0)
(-5.01204e-32 -2.59746e-16 -0)
(-1.67068e-32 -2.59746e-16 -0)
(8.8546e-31 -2.59746e-16 -0)
(6.68272e-31 -2.59746e-16 -0)
(-1.16948e-31 -2.59746e-16 -0)
(-8.35339e-31 -2.59746e-16 -0)
(-4.51083e-31 -2.59746e-16 -0)
(8.35339e-32 -2.59746e-16 -0)
(-8.35339e-32 -2.59746e-16 -0)
(-5.01204e-32 -2.59746e-16 -0)
(-5.34617e-31 -2.59746e-16 -0)
(-6.84978e-31 -2.59746e-16 -0)
(1.00241e-31 -2.59746e-16 -0)
(8.52046e-31 -2.59746e-16 -0)
(3.84256e-31 -2.59746e-16 -0)
(-4.34377e-31 -2.59746e-16 -0)
(4.51083e-31 -2.59746e-16 -0)
(7.85219e-31 -2.59746e-16 -0)
(8.35339e-32 -2.59746e-16 -0)
(8.35339e-32 -2.59746e-16 -0)
(4.51083e-31 -2.59746e-16 -0)
(4.51083e-31 -2.59746e-16 -0)
(2.17188e-31 -2.59746e-16 -0)
(5.01204e-32 -2.59746e-16 -0)
(2.33895e-31 -2.59746e-16 -0)
(4.1767e-31 -2.59746e-16 -0)
(-1.00241e-31 -2.59746e-16 -0)
(-5.1791e-31 -2.59746e-16 -0)
(-1.16948e-31 -2.59746e-16 -0)
(-3.34136e-32 -2.59746e-16 -0)
(-8.68753e-31 -2.59746e-16 -0)
(-1.28642e-30 -2.59746e-16 -0)
(-1.06923e-30 -2.59746e-16 -0)
(-4.84497e-31 -2.59746e-16 -0)
(-1.13444e-31 -2.59528e-16 -0)
(-1.62063e-32 -2.59528e-16 -0)
(2.75507e-31 -2.59528e-16 -0)
(2.91713e-31 -2.59528e-16 -0)
(6.15839e-31 -2.59528e-16 -0)
(9.88584e-31 -2.59528e-16 -0)
(5.99633e-31 -2.59528e-16 -0)
(-4.69983e-31 -2.59528e-16 -0)
(-9.23759e-31 -2.59528e-16 -0)
(-1.16685e-30 -2.59528e-16 -0)
(-5.18601e-31 -2.59528e-16 -0)
(1.2965e-31 -2.59528e-16 -0)
(-4.53776e-31 -2.59528e-16 -0)
(-2.43094e-31 -2.59528e-16 -0)
(1.78269e-31 -2.59528e-16 -0)
(3.24126e-31 -2.59528e-16 -0)
(9.07552e-31 -2.59528e-16 -0)
(1.021e-30 -2.59528e-16 -0)
(-8.10315e-32 -2.59528e-16 -0)
(-6.64458e-31 -2.59528e-16 -0)
(-4.3757e-31 -2.59528e-16 -0)
(-3.0792e-31 -2.59528e-16 -0)
(-8.10315e-31 -2.59528e-16 -0)
(-5.83427e-31 -2.59528e-16 -0)
(1.62063e-32 -2.59528e-16 -0)
(4.05157e-31 -2.59528e-16 -0)
(-1.62063e-32 -2.59528e-16 -0)
(-4.86189e-32 -2.59528e-16 -0)
(9.23759e-31 -2.59528e-16 -0)
(7.61696e-31 -2.59528e-16 -0)
(-1.2965e-31 -2.59528e-16 -0)
(-9.39965e-31 -2.59528e-16 -0)
(-5.02395e-31 -2.59528e-16 -0)
(1.13444e-31 -2.59528e-16 -0)
(-8.10315e-32 -2.59528e-16 -0)
(-8.10315e-32 -2.59528e-16 -0)
(-5.99633e-31 -2.59528e-16 -0)
(-6.80664e-31 -2.59528e-16 -0)
(1.13444e-31 -2.59528e-16 -0)
(8.42727e-31 -2.59528e-16 -0)
(4.21364e-31 -2.59528e-16 -0)
(-3.72745e-31 -2.59528e-16 -0)
(4.21364e-31 -2.59528e-16 -0)
(8.26521e-31 -2.59528e-16 -0)
(2.10682e-31 -2.59528e-16 -0)
(6.48252e-32 -2.59528e-16 -0)
(4.86189e-31 -2.59528e-16 -0)
(5.18601e-31 -2.59528e-16 -0)
(1.94476e-31 -2.59528e-16 -0)
(3.24126e-32 -2.59528e-16 -0)
(2.43094e-31 -2.59528e-16 -0)
(4.3757e-31 -2.59528e-16 -0)
(-6.48252e-32 -2.59528e-16 -0)
(-5.34808e-31 -2.59528e-16 -0)
(-1.45857e-31 -2.59528e-16 -0)
(-6.48252e-32 -2.59528e-16 -0)
(-9.88584e-31 -2.59528e-16 -0)
(-1.45857e-30 -2.59528e-16 -0)
(-1.21547e-30 -2.59528e-16 -0)
(-5.6722e-31 -2.59528e-16 -0)
(-1.72924e-31 -2.59303e-16 -0)
(-0 -2.59303e-16 -0)
(2.82967e-31 -2.59303e-16 -0)
(2.51526e-31 -2.59303e-16 -0)
(7.07416e-31 -2.59303e-16 -0)
(1.13187e-30 -2.59303e-16 -0)
(5.97374e-31 -2.59303e-16 -0)
(-6.28815e-31 -2.59303e-16 -0)
(-9.58942e-31 -2.59303e-16 -0)
(-1.30479e-30 -2.59303e-16 -0)
(-5.34492e-31 -2.59303e-16 -0)
(1.88644e-31 -2.59303e-16 -0)
(-5.03052e-31 -2.59303e-16 -0)
(-3.14407e-31 -2.59303e-16 -0)
(2.04365e-31 -2.59303e-16 -0)
(3.45848e-31 -2.59303e-16 -0)
(9.90383e-31 -2.59303e-16 -0)
(1.17903e-30 -2.59303e-16 -0)
(1.57204e-32 -2.59303e-16 -0)
(-7.38857e-31 -2.59303e-16 -0)
(-5.50213e-31 -2.59303e-16 -0)
(-4.0873e-31 -2.59303e-16 -0)
(-8.80341e-31 -2.59303e-16 -0)
(-5.50213e-31 -2.59303e-16 -0)
(1.57204e-32 -2.59303e-16 -0)
(4.0873e-31 -2.59303e-16 -0)
(-0 -2.59303e-16 -0)
(-0 -2.59303e-16 -0)
(9.90383e-31 -2.59303e-16 -0)
(7.23137e-31 -2.59303e-16 -0)
(-2.04365e-31 -2.59303e-16 -0)
(-9.74663e-31 -2.59303e-16 -0)
(-4.2445e-31 -2.59303e-16 -0)
(9.43222e-32 -2.59303e-16 -0)
(-1.57204e-31 -2.59303e-16 -0)
(-0 -2.59303e-16 -0)
(-5.81654e-31 -2.59303e-16 -0)
(-8.17459e-31 -2.59303e-16 -0)
(1.41483e-31 -2.59303e-16 -0)
(8.96061e-31 -2.59303e-16 -0)
(4.4017e-31 -2.59303e-16 -0)
(-4.0873e-31 -2.59303e-16 -0)
(4.0873e-31 -2.59303e-16 -0)
(9.43222e-31 -2.59303e-16 -0)
(2.82967e-31 -2.59303e-16 -0)
(1.57204e-32 -2.59303e-16 -0)
(6.44535e-31 -2.59303e-16 -0)
(6.13094e-31 -2.59303e-16 -0)
(4.71611e-32 -2.59303e-16 -0)
(-0 -2.59303e-16 -0)
(3.14407e-31 -2.59303e-16 -0)
(4.4017e-31 -2.59303e-16 -0)
(-9.43222e-32 -2.59303e-16 -0)
(-5.03052e-31 -2.59303e-16 -0)
(-1.57204e-31 -2.59303e-16 -0)
(-1.57204e-32 -2.59303e-16 -0)
(-1.10043e-30 -2.59303e-16 -0)
(-1.58776e-30 -2.59303e-16 -0)
(-1.32051e-30 -2.59303e-16 -0)
(-6.28815e-31 -2.59303e-16 -0)
(-1.21989e-31 -2.59071e-16 -0)
(6.09943e-32 -2.59071e-16 -0)
(2.74474e-31 -2.59071e-16 -0)
(2.43977e-31 -2.59071e-16 -0)
(7.92926e-31 -2.59071e-16 -0)
(1.21989e-30 -2.59071e-16 -0)
(6.4044e-31 -2.59071e-16 -0)
(-7.31932e-31 -2.59071e-16 -0)
(-1.00641e-30 -2.59071e-16 -0)
(-1.31138e-30 -2.59071e-16 -0)
(-6.09943e-31 -2.59071e-16 -0)
(2.43977e-31 -2.59071e-16 -0)
(-5.79446e-31 -2.59071e-16 -0)
(-3.04972e-31 -2.59071e-16 -0)
(1.82983e-31 -2.59071e-16 -0)
(3.04972e-31 -2.59071e-16 -0)
(1.0979e-30 -2.59071e-16 -0)
(1.31138e-30 -2.59071e-16 -0)
(-3.04972e-32 -2.59071e-16 -0)
(-7.92926e-31 -2.59071e-16 -0)
(-5.18452e-31 -2.59071e-16 -0)
(-3.96463e-31 -2.59071e-16 -0)
(-1.00641e-30 -2.59071e-16 -0)
(-6.4044e-31 -2.59071e-16 -0)
(6.09943e-32 -2.59071e-16 -0)
(3.96463e-31 -2.59071e-16 -0)
(-3.04972e-32 -2.59071e-16 -0)
(-0 -2.59071e-16 -0)
(1.0979e-30 -2.59071e-16 -0)
(7.31932e-31 -2.59071e-16 -0)
(-1.21989e-31 -2.59071e-16 -0)
(-1.0369e-30 -2.59071e-16 -0)
(-5.18452e-31 -2.59071e-16 -0)
(1.52486e-31 -2.59071e-16 -0)
(-1.52486e-31 -2.59071e-16 -0)
(-3.04972e-32 -2.59071e-16 -0)
(-6.4044e-31 -2.59071e-16 -0)
(-9.14915e-31 -2.59071e-16 -0)
(1.52486e-31 -2.59071e-16 -0)
(9.14915e-31 -2.59071e-16 -0)
(4.57457e-31 -2.59071e-16 -0)
(-3.96463e-31 -2.59071e-16 -0)
(4.57457e-31 -2.59071e-16 -0)
(1.12839e-30 -2.59071e-16 -0)
(3.04972e-31 -2.59071e-16 -0)
(3.04972e-32 -2.59071e-16 -0)
(6.70937e-31 -2.59071e-16 -0)
(6.09943e-31 -2.59071e-16 -0)
(9.14915e-32 -2.59071e-16 -0)
(-3.04972e-32 -2.59071e-16 -0)
(2.43977e-31 -2.59071e-16 -0)
(4.87955e-31 -2.59071e-16 -0)
(3.04972e-32 -2.59071e-16 -0)
(-4.57457e-31 -2.59071e-16 -0)
(-2.1348e-31 -2.59071e-16 -0)
(-1.52486e-31 -2.59071e-16 -0)
(-1.0674e-30 -2.59071e-16 -0)
(-1.79933e-30 -2.59071e-16 -0)
(-1.43337e-30 -2.59071e-16 -0)
(-5.79446e-31 -2.59071e-16 -0)
(-2.9581e-32 -2.58831e-16 -0)
(5.91621e-32 -2.58831e-16 -0)
(2.07067e-31 -2.58831e-16 -0)
(3.54973e-31 -2.58831e-16 -0)
(9.76174e-31 -2.58831e-16 -0)
(1.2424e-30 -2.58831e-16 -0)
(5.6204e-31 -2.58831e-16 -0)
(-8.5785e-31 -2.58831e-16 -0)
(-1.06492e-30 -2.58831e-16 -0)
(-1.30157e-30 -2.58831e-16 -0)
(-5.6204e-31 -2.58831e-16 -0)
(5.91621e-32 -2.58831e-16 -0)
(-6.80364e-31 -2.58831e-16 -0)
(-2.66229e-31 -2.58831e-16 -0)
(2.36648e-31 -2.58831e-16 -0)
(2.9581e-31 -2.58831e-16 -0)
(1.0945e-30 -2.58831e-16 -0)
(1.2424e-30 -2.58831e-16 -0)
(2.07067e-31 -2.58831e-16 -0)
(-7.39526e-31 -2.58831e-16 -0)
(-6.21202e-31 -2.58831e-16 -0)
(-4.73297e-31 -2.58831e-16 -0)
(-1.03534e-30 -2.58831e-16 -0)
(-6.21202e-31 -2.58831e-16 -0)
(-1.47905e-31 -2.58831e-16 -0)
(4.14135e-31 -2.58831e-16 -0)
(8.87431e-32 -2.58831e-16 -0)
(2.9581e-32 -2.58831e-16 -0)
(1.27198e-30 -2.58831e-16 -0)
(7.98688e-31 -2.58831e-16 -0)
(-4.14135e-31 -2.58831e-16 -0)
(-1.15366e-30 -2.58831e-16 -0)
(-4.43716e-31 -2.58831e-16 -0)
(1.77486e-31 -2.58831e-16 -0)
(-5.91621e-32 -2.58831e-16 -0)
(-8.87431e-32 -2.58831e-16 -0)
(-8.87431e-31 -2.58831e-16 -0)
(-8.28269e-31 -2.58831e-16 -0)
(4.14135e-31 -2.58831e-16 -0)
(8.5785e-31 -2.58831e-16 -0)
(4.43716e-31 -2.58831e-16 -0)
(-3.84554e-31 -2.58831e-16 -0)
(5.02878e-31 -2.58831e-16 -0)
(1.18324e-30 -2.58831e-16 -0)
(2.9581e-31 -2.58831e-16 -0)
(-0 -2.58831e-16 -0)
(6.50783e-31 -2.58831e-16 -0)
(7.69107e-31 -2.58831e-16 -0)
(8.87431e-32 -2.58831e-16 -0)
(-8.87431e-32 -2.58831e-16 -0)
(2.9581e-31 -2.58831e-16 -0)
(5.32459e-31 -2.58831e-16 -0)
(5.91621e-32 -2.58831e-16 -0)
(-3.84554e-31 -2.58831e-16 -0)
(-2.07067e-31 -2.58831e-16 -0)
(-2.36648e-31 -2.58831e-16 -0)
(-1.12408e-30 -2.58831e-16 -0)
(-1.86361e-30 -2.58831e-16 -0)
(-1.50863e-30 -2.58831e-16 -0)
(-5.91621e-31 -2.58831e-16 -0)
(2.86916e-32 -2.58585e-16 -0)
(1.14766e-31 -2.58585e-16 -0)
(2.00841e-31 -2.58585e-16 -0)
(3.72991e-31 -2.58585e-16 -0)
(1.00421e-30 -2.58585e-16 -0)
(1.40589e-30 -2.58585e-16 -0)
(6.31215e-31 -2.58585e-16 -0)