/*--------------------------------*- C++ -*----------------------------------*\
| =========                 |                                                 |
| \\      /  F ield         | foam-extend: Open Source CFD                    |
|  \\    /   O peration     | Version:     4.0                                |
|   \\  /    A nd           | Web:         http://www.foam-extend.org         |
|    \\/     M anipulation  |                                                 |
\*---------------------------------------------------------------------------*/
FoamFile
{
    version     2.0;
    format      ascii;
    class       surfaceScalarField;
    location    "1";
    object      phi;
}
// * * * * * * * * * * * * * * * * * * * * * * * * * * * * * * * * * * * * * //

dimensions      [0 3 -1 0 0 0 0];

internalField   nonuniform List<scalar> 
13744
(
-7.46512e-31
-5.10552e-29
-5.02039e-31
-2.42057e-31
1.43888e-31
-6.39887e-31
5.71762e-31
-4.25506e-31
8.57157e-31
-2.8598e-31
9.71972e-31
-1.18086e-31
8.70092e-31
9.64218e-32
5.86732e-31
2.77035e-31
2.07666e-31
3.73428e-31
-1.62095e-31
3.65906e-31
-4.3831e-31
2.74754e-31
-5.79542e-31
1.4223e-31
-5.80876e-31
4.17495e-33
-4.50996e-31
-1.26161e-31
-2.25014e-31
-2.22313e-31
3.17623e-32
-2.53825e-31
2.46866e-31
-2.13276e-31
3.81099e-31
-1.33614e-31
4.29308e-31
-4.86409e-32
3.90686e-31
3.74161e-32
2.68307e-31
1.20768e-31
9.65646e-32
1.70157e-31
-6.47599e-32
1.60044e-31
-1.71967e-31
1.06253e-31
-2.19613e-31
4.69909e-32
-2.13469e-31
-6.40823e-33
-1.5004e-31
-6.3212e-32
-3.92738e-32
-1.1005e-31
7.56914e-32
-1.13721e-31
1.45611e-31
-6.81901e-32
1.55685e-31
-8.14876e-33
1.2022e-31
3.72055e-32
4.79351e-32
7.35748e-32
-5.85129e-32
1.06898e-31
-1.71086e-31
1.11476e-31
-2.40037e-31
6.58573e-32
-2.36814e-31
-7.84562e-33
-1.73561e-31
-6.83895e-32
-7.45282e-32
-1.03827e-31
4.59644e-32
-1.24129e-31
1.66059e-31
-1.21204e-31
2.40435e-31
-7.16814e-32
2.33264e-31
1.37605e-32
1.4456e-31
9.77655e-32
6.82138e-33
1.4753e-31
-1.45951e-31
1.61381e-31
-2.82287e-31
1.41756e-31
-3.66346e-31
8.41034e-32
-3.56055e-31
-1.61706e-32
-2.4856e-31
-1.18118e-31
-7.65034e-32
-1.84738e-31
1.02792e-31
-1.91121e-31
2.46231e-31
-1.51579e-31
3.014e-31
-5.69329e-32
2.61145e-31
4.48425e-32
1.17828e-31
1.53483e-31
-2.19847e-32
1.50664e-31
-1.4619e-31
1.33864e-31
-2.00223e-31
5.81221e-32
-2.00282e-31
-9.48866e-31
-5.01113e-29
-5.50271e-31
-6.36815e-31
3.43381e-31
-1.51268e-30
9.83741e-31
-1.05179e-30
1.37904e-30
-6.73375e-31
1.49089e-30
-2.2987e-31
1.27863e-30
3.00295e-31
8.08738e-31
7.32348e-31
2.15293e-31
9.50154e-31
-3.41452e-31
9.07661e-31
-7.39626e-31
6.6299e-31
-9.2117e-31
3.20615e-31
-8.86694e-31
-2.73031e-32
-6.59176e-31
-3.46533e-31
-3.00242e-31
-5.72235e-31
8.92127e-32
-6.34395e-31
4.02976e-31
-5.19923e-31
5.84466e-31
-3.10758e-31
6.28092e-31
-9.10635e-32
5.39352e-31
1.24524e-31
3.314e-31
3.25325e-31
6.05204e-32
4.3728e-31
-1.84288e-31
4.015e-31
-3.40614e-31
2.59627e-31
-4.00919e-31
1.04767e-31
-3.76828e-31
-3.21917e-32
-2.69293e-31
-1.7125e-31
-9.91015e-32
-2.79414e-31
6.90301e-32
-2.79638e-31
1.6455e-31
-1.60351e-31
1.66941e-31
-6.52538e-33
9.90369e-32
1.09699e-31
-2.14757e-32
1.99222e-31
-1.84808e-31
2.74456e-31
-3.48581e-31
2.75932e-31
-4.42492e-31
1.55716e-31
-4.27218e-31
-3.06822e-32
-3.21851e-31
-1.83551e-31
-1.66228e-31
-2.71375e-31
1.37891e-32
-3.16773e-31
1.83826e-31
-3.0009e-31
2.8167e-31
-1.70304e-31
2.58619e-31
4.47856e-32
1.18064e-31
2.52922e-31
-8.95024e-32
3.74543e-31
-3.10549e-31
4.03851e-31
-4.97954e-31
3.47156e-31
-6.02348e-31
1.96061e-31
-5.69664e-31
-5.46746e-32
-4.00149e-31
-3.05952e-31
-1.46059e-31
-4.65555e-31
1.09132e-31
-4.76503e-31
3.00339e-31
-3.68631e-31
3.62363e-31
-1.32094e-31
2.89247e-31
1.21298e-31
8.47386e-32
3.77865e-31
-9.62615e-32
3.58421e-31
-2.45716e-31
3.11479e-31
-2.58271e-31
8.52266e-32
-4.57758e-31
-8.4078e-31
-4.92895e-29
-3.63687e-31
-1.11175e-30
5.21353e-31
-2.36131e-30
1.14104e-30
-1.6414e-30
1.47906e-30
-9.879e-31
1.50021e-30
-2.39621e-31
1.20682e-30
5.89388e-31
6.83497e-31
1.23744e-30
6.96843e-32
1.53758e-30
-4.76361e-31
1.42584e-30
-8.4096e-31
1.00524e-30
-9.73666e-31
4.41154e-31
-8.86679e-31
-1.15774e-31
-6.17232e-31
-6.09025e-31
-2.38525e-31
-9.38701e-31
1.47511e-31
-1.00614e-30
4.4025e-31
-7.99418e-31
5.8778e-31
-4.48426e-31
5.88698e-31
-8.69972e-32
4.5707e-31
2.56022e-31
2.18845e-31
5.5984e-31
-6.47474e-32
7.16013e-31
-3.07756e-31
6.39766e-31
-4.53385e-31
4.0047e-31
-4.95919e-31
1.42505e-31
-4.50433e-31
-8.17331e-32
-3.27537e-31
-2.96849e-31
-1.55709e-31
-4.52199e-31
1.82561e-33
-4.3598e-31
8.11802e-32
-2.36586e-31
6.45262e-32
1.46825e-32
-2.33932e-32
2.04497e-31
-1.58623e-31
3.44837e-31
-3.23457e-31
4.50891e-31
-4.7588e-31
4.35795e-31
-5.53686e-31
2.33992e-31
-5.23122e-31
-6.6271e-32
-4.04674e-31
-3.12032e-31
-2.41981e-31
-4.51761e-31
-6.74798e-32
-5.16007e-31
8.39858e-32
-4.75388e-31
1.59368e-31
-2.59734e-31
1.18752e-31
8.38712e-32
-2.97424e-32
4.11532e-31
-2.34169e-31
6.0155e-31
-4.38045e-31
6.41627e-31
-5.95993e-31
5.4189e-31
-6.65668e-31
2.92142e-31
-6.08215e-31
-1.04137e-31
-4.29674e-31
-4.97278e-31
-1.86916e-31
-7.39831e-31
4.22956e-32
-7.52112e-31
1.93814e-31
-5.688e-31
2.23108e-31
-1.9696e-31
1.3265e-31
2.01665e-31
-5.30048e-32
5.82404e-31
-1.88152e-31
5.31368e-31
-2.80306e-31
4.50631e-31
-1.93796e-31
2.66986e-32
-6.49047e-31
-6.25601e-31
-4.86963e-29
-1.50051e-31
-1.58735e-30
7.14366e-31
-3.17437e-30
1.31239e-30
-2.19364e-30
1.58802e-30
-1.22431e-30
1.51156e-30
-1.40104e-31
1.13054e-30
9.70636e-31
5.48551e-31
1.79799e-30
-8.84156e-32
2.13878e-30
-6.23309e-31
1.91999e-30
-9.5113e-31
1.29806e-30
-1.03149e-30
4.99987e-31
-8.88052e-31
-2.65513e-31
-5.7315e-31
-9.17424e-31
-1.72425e-31
-1.32411e-30
2.10457e-31
-1.36938e-30
4.81074e-31
-1.0506e-30
5.9229e-31
-5.44069e-31
5.47343e-31
-3.29911e-32
3.69268e-31
4.3574e-31
9.77554e-32
8.27498e-31
-2.00174e-31
1.00809e-30
-4.41977e-31
8.75502e-31
-5.76169e-31
5.28048e-31
-5.99623e-31
1.58804e-31
-5.31302e-31
-1.56679e-31
-3.91876e-31
-4.41526e-31
-2.17672e-31
-6.29577e-31
-7.07488e-32
-5.83065e-31
-8.61319e-33
-2.95975e-31
-4.58559e-32
5.69742e-32
-1.55644e-31
3.23484e-31
-3.07179e-31
5.12366e-31
-4.7407e-31
6.37567e-31
-6.14863e-31
5.9168e-31
-6.75802e-31
3.00445e-31
-6.28557e-31
-1.15888e-31
-4.95887e-31
-4.55115e-31
-3.24984e-31
-6.46715e-31
-1.55914e-31
-7.23227e-31
-2.341e-32
-6.48474e-31
2.80538e-32
-3.39999e-31
-3.13144e-32
1.31465e-31
-1.8878e-31
5.74716e-31
-3.90462e-31
8.29984e-31
-5.76276e-31
8.76051e-31
-7.03141e-31
7.27515e-31
-7.35639e-31
3.73259e-31
-6.5126e-31
-1.64037e-31
-4.62006e-31
-6.92194e-31
-2.30336e-31
-1.00761e-30
-2.81029e-32
-1.01825e-30
8.16679e-32
-7.52564e-31
7.55186e-32
-2.51803e-31
-3.40168e-32
2.85212e-31
-2.01551e-31
7.66363e-31
-2.88445e-31
6.66925e-31
-3.19584e-31
5.4837e-31
-1.29477e-31
-1.20654e-31
-7.73523e-31
-4.17674e-31
-4.83251e-29
8.33962e-32
-2.09162e-30
9.22029e-31
-3.94739e-30
1.49736e-30
-2.7075e-30
1.70589e-30
-1.37716e-30
1.52519e-30
7.63992e-32
1.04987e-30
1.45191e-30
4.04528e-31
2.41971e-30
-2.58e-31
2.75675e-30
-7.8202e-31
2.39042e-30
-1.07194e-30
1.53992e-30
-1.09585e-30
4.92329e-31
-8.91283e-31
-4.81953e-31
-5.27606e-31
-1.27572e-30
-1.02044e-31
-1.73175e-30
2.78321e-31
-1.72496e-30
5.25511e-31
-1.27212e-30
5.97825e-31
-5.94832e-31
5.03236e-31
7.51068e-32
2.75844e-31
6.66892e-31
-3.18321e-32
1.13143e-30
-3.45953e-31
1.31553e-30
-5.8711e-31
1.10937e-30
-7.09583e-31
6.42091e-31
-7.12719e-31
1.52341e-31
-6.19941e-31
-2.58817e-31
-4.62562e-31
-6.06943e-31
-2.85481e-31
-8.1231e-31
-1.49297e-31
-7.20962e-31
-1.05359e-31
-3.37681e-31
-1.64873e-31
1.21878e-31
-2.98315e-31
4.68347e-31
-4.67577e-31
7.03392e-31
-6.37223e-31
8.35636e-31
-7.66477e-31
7.44189e-31
-8.09629e-31
3.54565e-31
-7.4451e-31
-1.80321e-31
-5.95722e-31
-6.14279e-31
-4.15424e-31
-8.57279e-31
-2.51557e-31
-9.3904e-31
-1.39091e-31
-8.19016e-31
-1.12481e-31
-4.10952e-31
-1.92124e-31
1.88353e-31
-3.60086e-31
7.4333e-31
-5.59773e-31
1.06023e-30
-7.27111e-31
1.107e-30
-8.20776e-31
9.02836e-31
-8.13604e-31
4.38156e-31
-6.99367e-31
-2.36081e-31
-4.97481e-31
-8.91572e-31
-2.75823e-31
-1.26943e-30
-1.01242e-31
-1.27445e-30
-3.54838e-32
-9.18734e-31
-8.01588e-32
-2.95074e-31
-2.11302e-31
3.72872e-31
-3.61259e-31
9.29101e-31
-3.98119e-31
7.62794e-31
-3.64272e-31
6.01126e-31
-6.59946e-32
-3.60485e-31
-8.31123e-31
-2.09361e-31
-4.8177e-29
3.30178e-31
-2.6384e-30
1.1454e-30
-4.68354e-30
1.69729e-30
-3.1823e-30
1.83437e-30
-1.4414e-30
1.5426e-30
4.1785e-31
9.65962e-31
2.04152e-30
2.51292e-31
3.10967e-30
-4.40696e-31
3.39605e-30
-9.53744e-31
2.83714e-30
-1.20272e-30
1.72737e-30
-1.16653e-30
4.1384e-31
-8.97041e-31
-7.69684e-31
-4.80324e-31
-1.68891e-30
-2.79389e-32
-2.16413e-30
3.50461e-31
-2.07368e-30
5.733e-31
-1.46303e-30
6.04539e-31
-5.98289e-31
4.57237e-31
2.40743e-31
1.76787e-31
9.5358e-31
-1.70275e-31
1.47513e-30
-5.026e-31
1.64055e-30
-7.43859e-31
1.34225e-30
-8.54266e-31
7.4227e-31
-8.35741e-31
1.21701e-31
-7.16998e-31
-3.898e-31
-5.40332e-31
-7.94643e-31
-3.59405e-31
-1.0016e-30
-2.34217e-31
-8.49608e-31
-2.09518e-31
-3.60821e-31
-2.92947e-31
2.10862e-31
-4.52114e-31
6.41029e-31
-6.40682e-31
9.19596e-31
-8.13916e-31
1.04629e-30
-9.31434e-31
8.93573e-31
-9.56049e-31
3.96019e-31
-8.71573e-31
-2.60598e-31
-7.0504e-31
-7.90657e-31
-5.14163e-31
-1.08438e-30
-3.54716e-31
-1.16445e-30
-2.62834e-31
-9.87063e-31
-2.62572e-31
-4.71831e-31
-3.64487e-31
2.55742e-31
-5.44494e-31
9.18116e-31
-7.42826e-31
1.29237e-30
-8.91418e-31
1.33424e-30
-9.50129e-31
1.06676e-30
-9.00823e-31
4.85434e-31
-7.53607e-31
-3.22182e-31
-5.36385e-31
-1.09695e-30
-3.23457e-31
-1.52579e-30
-1.77113e-31
-1.5201e-30
-1.57709e-31
-1.06579e-30
-2.43651e-31
-3.25443e-31
-3.99047e-31
4.65669e-31
-5.32525e-31
1.07035e-30
-5.17804e-31
8.16711e-31
-4.14915e-31
6.05073e-31
-4.0061e-33
-6.96367e-31
-8.22322e-31
4.05888e-33
-4.82577e-29
5.90092e-31
-3.23662e-30
1.38486e-30
-5.38672e-30
1.91234e-30
-3.61725e-30
1.97359e-30
-1.41197e-30
1.56419e-30
8.91957e-31
8.78546e-31
2.74848e-30
8.90008e-32
3.87463e-30
-6.34785e-31
4.05981e-30
-1.1383e-30
3.26177e-30
-1.34527e-30
1.85902e-30
-1.24526e-30
2.60116e-31
-9.06161e-31
-1.13423e-30
-4.32491e-31
-2.16168e-30
4.96441e-32
-2.62477e-30
4.27646e-31
-2.41744e-30
6.25659e-31
-1.62287e-30
6.12589e-31
-5.50969e-31
4.09204e-31
4.67659e-31
7.18749e-32
1.3e-30
-3.17433e-31
1.86176e-30
-6.70629e-31
1.98604e-30
-9.12998e-31
1.57527e-30
-1.01088e-30
8.28165e-31
-9.69551e-31
6.56826e-32
-8.23266e-31
-5.51337e-31
-6.25922e-31
-1.00621e-30
-4.40298e-31
-1.19851e-30
-3.26079e-31
-9.69226e-31
-3.21359e-31
-3.64835e-31
-4.30548e-31
3.25563e-31
-6.17452e-31
8.43374e-31
-8.26874e-31
1.16256e-30
-1.00494e-30
1.27108e-30
-1.11079e-30
1.0403e-30
-1.11595e-30
4.24313e-31
-1.01042e-30
-3.57893e-31
-8.24347e-31
-9.85473e-31
-6.21259e-31
-1.32927e-30
-4.66194e-31
-1.39956e-30
-3.95358e-31
-1.15263e-30
-4.22952e-31
-5.21822e-31
-5.48752e-31
3.34401e-31
-7.4284e-31
1.10016e-30
-9.41187e-31
1.52701e-30
-1.0706e-30
1.55712e-30
-1.0925e-30
1.21789e-30
-9.97831e-31
5.12816e-31
-8.14696e-31
-4.24053e-31
-5.79517e-31
-1.30964e-30
-3.73716e-31
-1.77728e-30
-2.55269e-31
-1.75521e-30
-2.84181e-31
-1.19236e-30
-4.14485e-31
-3.41141e-31
-5.97202e-31
5.64989e-31
-7.15712e-31
1.19004e-30
-6.48239e-31
8.26573e-31
-4.72469e-31
5.56426e-31
5.58081e-32
-1.13217e-30
-7.48147e-31
2.22473e-31
-4.85728e-29
8.62381e-31
-3.89462e-30
1.64053e-30
-6.06185e-30
2.14316e-30
-4.01219e-30
2.12438e-30
-1.28407e-30
1.59089e-30
1.5063e-30
7.89365e-31
3.58111e-30
-8.16797e-32
4.72254e-30
-8.42215e-31
4.75387e-30
-1.33678e-30
3.6652e-30
-1.49917e-30
1.93201e-30
-1.33209e-30
2.72304e-32
-9.19103e-31
-1.58071e-30
-3.84312e-31
-2.69906e-30
1.30687e-31
-3.11744e-30
5.08841e-31
-2.75714e-30
6.80911e-31
-1.75058e-30
6.22139e-31
-4.51268e-31
3.59532e-31
7.59358e-31
-3.83542e-32
1.71021e-30
-4.73789e-31
2.29553e-30
-8.50012e-31
2.35439e-30
-1.09461e-30
1.80972e-30
-1.18014e-30
9.00012e-31
-1.11503e-30
-1.67322e-32
-9.3951e-31
-7.45227e-31
-7.19917e-31
-1.24338e-30
-5.28634e-31
-1.40421e-30
-4.25241e-31
-1.08016e-30
-4.41575e-31
-3.48855e-31
-5.78303e-31
4.6752e-31
-7.95023e-31
1.07725e-30
-1.02738e-30
1.43435e-30
-1.2109e-30
1.51083e-30
-1.30526e-30
1.18493e-30
-1.29022e-30
4.39152e-31
-1.16222e-30
-4.73065e-31
-9.54463e-31
-1.20019e-30
-7.37717e-31
-1.59291e-30
-5.86355e-31
-1.64499e-30
-5.3699e-31
-1.31566e-30
-5.93692e-31
-5.60331e-31
-7.45576e-31
4.25622e-31
-9.55654e-31
1.29031e-30
-1.15555e-30
1.76472e-30
-1.26566e-30
1.77507e-30
-1.24959e-30
1.35531e-30
-1.10642e-30
5.18025e-31
-8.83489e-31
-5.44301e-31
-6.26602e-31
-1.53193e-30
-4.25609e-31
-2.02498e-30
-3.36091e-31
-1.97817e-30
-4.15093e-31
-1.29706e-30
-5.93007e-31
-3.40167e-31
-8.06301e-31
6.72324e-31
-9.11534e-31
1.28806e-30
-7.9001e-31
7.899e-31
-5.37293e-31
4.50987e-31
1.12893e-31
-1.67162e-30
-6.10056e-31
4.44195e-31
-4.91262e-29
1.1454e-30
-4.62074e-30
1.91277e-30
-6.71607e-30
2.39182e-30
-4.36884e-30
2.28874e-30
-1.05291e-30
1.62336e-30
2.26983e-30
6.98356e-31
4.54846e-30
-2.60695e-31
5.66134e-30
-1.06159e-30
5.4829e-30
-1.54871e-30
4.04935e-30
-1.66635e-30
1.946e-30
-1.42825e-30
-2.89408e-31
-9.36733e-31
-2.11468e-30
-3.36877e-31
-3.3059e-30
2.14309e-31
-3.64622e-30
5.95073e-31
-3.0957e-30
7.40599e-31
-1.84568e-30
6.33565e-31
-2.96451e-31
3.07536e-31
1.1204e-30
-1.5432e-31
2.18803e-30
-6.39208e-31
2.78011e-30
-1.04141e-30
2.74885e-30
-1.28986e-30
2.04742e-30
-1.36279e-30
9.57638e-31
-1.27274e-30
-1.26717e-31
-1.06654e-30
-9.73006e-31
-8.23233e-31
-1.50778e-30
-6.25288e-31
-1.61991e-30
-5.32351e-31
-1.183e-30
-5.70693e-31
-3.12159e-31
-7.36593e-31
6.38086e-31
-9.85194e-31
1.34446e-30
-1.24224e-30
1.73663e-30
-1.43275e-30
1.76724e-30
-1.5161e-30
1.32826e-30
-1.48011e-30
4.40232e-31
-1.32779e-30
-6.07315e-31
-1.0964e-30
-1.43601e-30
-8.64448e-31
-1.87621e-30
-7.15372e-31
-1.90195e-30
-6.88173e-31
-1.47571e-30
-7.75637e-31
-5.86321e-31
-9.55844e-31
5.3069e-31
-1.18431e-30
1.48972e-30
-1.38706e-30
2.00564e-30
-1.47769e-30
1.98729e-30
-1.42176e-30
1.47719e-30
-1.22748e-30
4.99209e-31
-9.61272e-31
-6.85115e-31
-6.7949e-31
-1.76538e-30
-4.80441e-31
-2.27024e-30
-4.18517e-31
-2.18947e-30
-5.49314e-31
-1.37835e-30
-7.78542e-31
-3.19978e-31
-1.0255e-30
7.88926e-31
-1.12002e-30
1.36495e-30
-9.43824e-31
7.04628e-31
-6.10803e-31
2.85051e-31
1.66524e-31
-2.31917e-30
-4.101e-31
6.70473e-31
-4.99227e-29
1.44047e-30
-5.42347e-30
2.20066e-30
-7.35442e-30
2.65554e-30
-4.68723e-30
2.4663e-30
-7.16222e-31
1.6636e-30
3.18908e-30
6.07288e-31
5.65992e-30
-4.46941e-31
6.69978e-30
-1.29369e-30
6.2536e-30
-1.77552e-30
4.41695e-30
-1.84638e-30
1.89889e-30
-1.53442e-30
-6.93249e-31
-9.60127e-31
-2.74128e-30
-2.9048e-31
-3.98791e-30
3.00375e-31
-4.21542e-30
6.8482e-31
-3.43472e-30
8.04074e-31
-1.90862e-30
6.46634e-31
-8.42397e-32
2.54895e-31
1.55341e-30
-2.7574e-31
2.73868e-30
-8.1392e-31
3.31974e-30
-1.24508e-30
3.17271e-30
-1.49871e-30
2.2899e-30
-1.55948e-30
1.0016e-30
-1.44388e-30
-2.64864e-31
-1.20544e-30
-1.23632e-30
-9.36585e-31
-1.80137e-30
-7.30867e-31
-1.8469e-30
-6.48023e-31
-1.27832e-30
-7.09284e-31
-2.54094e-31
-9.05917e-31
8.385e-31
-1.18879e-30
1.64709e-30
-1.47267e-30
2.07138e-30
-1.67145e-30
2.04169e-30
-1.74393e-30
1.47074e-30
-1.68644e-30
4.27473e-31
-1.5082e-30
-7.61565e-31
-1.25091e-30
-1.69431e-30
-1.00181e-30
-2.18035e-30
-8.54741e-31
-2.17036e-30
-8.49812e-31
-1.6328e-30
-9.68854e-31
-5.99546e-31
-1.17955e-30
6.50771e-31
-1.42915e-30
1.69982e-30
-1.6365e-30
2.25019e-30
-1.70889e-30
2.1941e-30
-1.61119e-30
1.58148e-30
-1.36225e-30
4.53469e-31
-1.04839e-30
-8.49536e-31
-7.37172e-31
-2.01273e-30
-5.38486e-31
-2.5129e-30
-5.03333e-31
-2.38877e-30
-6.87622e-31
-1.43446e-30
-9.7051e-31
-2.79285e-31
-1.25532e-30
9.17061e-31
-1.34176e-30
1.4211e-30
-1.11026e-30
5.68402e-31
-6.93242e-31
5.43423e-32
2.15828e-31
-3.07869e-30
-1.51076e-31
8.97603e-31
-5.09636e-29
1.7439e-30
-6.31126e-30
2.50659e-30
-7.98827e-30
2.93925e-30
-4.97007e-30
2.65846e-30
-2.68338e-31
1.71155e-30
4.27201e-30
5.16255e-31
6.92476e-30
-6.40471e-31
7.84686e-30
-1.53763e-30
7.07188e-30
-2.01668e-30
4.77124e-30
-2.04016e-30
1.79011e-30
-1.65157e-30
-1.1876e-30
-9.8997e-31
-3.46596e-30
-2.46158e-31
-4.75049e-30
3.88034e-31
-4.8296e-30
7.78206e-31
-3.77687e-30
8.71283e-31
-1.93975e-30
6.61569e-31
1.87318e-31
2.00521e-31
2.06232e-30
-4.02363e-31
3.36604e-30
-9.97531e-31
3.91851e-30
-1.46092e-30
3.62958e-30
-1.72221e-30
2.5399e-30
-1.77139e-30
1.0326e-30
-1.62892e-30
-4.32469e-31
-1.35712e-30
-1.53632e-30
-1.06126e-30
-2.12572e-30
-8.4631e-31
-2.08683e-30
-7.73187e-31
-1.36672e-30
-8.57609e-31
-1.74705e-31
-1.08705e-30
1.07048e-30
-1.40635e-30
1.9869e-30
-1.71896e-30
2.44029e-30
-1.92757e-30
2.33575e-30
-1.99005e-30
1.61348e-30
-1.91043e-30
4.00712e-31
-1.7046e-30
-9.36733e-31
-1.41939e-30
-1.97615e-30
-1.151e-30
-2.50658e-30
-1.00456e-30
-2.45106e-30
-1.02178e-30
-1.78702e-30
-1.17438e-30
-5.98536e-31
-1.41798e-30
7.87235e-31
-1.69116e-30
1.92156e-30
-1.90532e-30
2.49899e-30
-1.95908e-30
2.39398e-30
-1.81853e-30
1.66674e-30
-1.5127e-30
3.79082e-31
-1.14723e-30
-1.04018e-30
-8.0196e-31
-2.27663e-30
-5.99245e-31
-2.75529e-30
-5.89205e-31
-2.57626e-30
-8.28678e-31
-1.46334e-30
-1.16943e-30
-2.14819e-31
-1.49537e-30
1.05805e-30
-1.57678e-30
1.45705e-30
-1.29008e-30
3.79296e-31
-7.85688e-31
-2.45347e-31
2.59863e-31
-3.95429e-30
1.63404e-31
1.12701e-30
-5.22512e-29
2.05718e-30
-7.29268e-30
2.82665e-30
-8.62375e-30
3.2392e-30
-5.22048e-30
2.86653e-30
2.91207e-31
1.76964e-30
5.52537e-30
4.26664e-31
8.35331e-30
-8.39457e-31
9.11131e-30
-1.79328e-30
7.94553e-30
-2.27261e-30
5.11618e-30
-2.2492e-30
1.62033e-30
-1.78052e-30
-1.7764e-30
-1.02784e-30
-4.2934e-30
-2.04855e-31
-5.59975e-30
4.7641e-31
-5.49352e-30
8.75839e-31
-4.12639e-30
9.42309e-31
-1.93898e-30
6.78814e-31
5.19756e-31
1.44785e-31
2.65108e-30
-5.33745e-31
4.07394e-30
-1.1907e-30
4.58165e-30
-1.68982e-30
4.12333e-30
-1.96059e-30
2.79955e-30
-1.9987e-30
1.05135e-30
-1.82922e-30
-6.29591e-31
-1.52258e-30
-1.87451e-30
-1.19793e-30
-2.48272e-30
-9.72278e-31
-2.34132e-30
-9.08509e-31
-1.4488e-30
-1.01668e-30
-7.37127e-32
-1.28058e-30
1.33527e-30
-1.63822e-30
2.36539e-30
-1.98197e-30
2.84544e-30
-2.20226e-30
2.6512e-30
-2.25542e-30
1.75735e-30
-2.15343e-30
3.60178e-31
-1.91818e-30
-1.13384e-30
-1.60282e-30
-2.28272e-30
-1.31287e-30
-2.85613e-30
-1.16623e-30
-2.7442e-30
-1.20549e-30
-1.93834e-30
-1.39242e-30
-5.82954e-31
-1.67145e-30
9.41535e-31
-1.97075e-30
2.15588e-30
-2.19406e-30
2.75262e-30
-2.23071e-30
2.58703e-30
-2.04607e-30
1.73111e-30
-1.67943e-30
2.72532e-31
-1.25735e-30
-1.2607e-30
-8.74132e-31
-2.55888e-30
-6.63574e-31
-2.99892e-30
-6.78202e-31
-2.75058e-30
-9.72412e-31
-1.46481e-30
-1.37405e-30
-1.24332e-31
-1.74487e-30
1.21361e-30
-1.82566e-30
1.47451e-30
-1.48394e-30
1.3515e-31
-8.89214e-31
-6.18103e-31
2.98076e-31
-4.95069e-30
5.29296e-31
1.35439e-30
-5.37834e-29
2.37784e-30
-8.37806e-30
3.16385e-30
-9.27271e-30
3.55868e-30
-5.44204e-30
3.09013e-30
9.66369e-31
1.83832e-30
6.95501e-30
3.40783e-31
9.9541e-30
-1.04338e-30
1.05037e-29
-2.06091e-30
8.8833e-30
-2.54247e-30
5.45483e-30
-2.47307e-30
1.39077e-30
-1.92196e-30
-2.46238e-30
-1.07461e-30
-5.2281e-30
-1.67429e-31
-6.54183e-30
5.64558e-31
-6.21189e-30
9.75312e-31
-4.48617e-30
1.01652e-30
-1.90808e-30
6.9788e-31
9.14392e-31
8.86768e-32
3.32215e-30
-6.70289e-31
4.86758e-30
-1.39278e-30
5.31336e-30
-1.93095e-30
4.65771e-30
-2.21439e-30
3.07234e-30
-2.24246e-30
1.05908e-30
-2.04577e-30
-8.56329e-31
-1.70297e-30
-2.25218e-30
-1.34825e-30
-2.87371e-30
-1.11038e-30
-2.61204e-30
-1.05456e-30
-1.52619e-30
-1.18693e-30
4.89945e-32
-1.48674e-30
1.63387e-30
-1.8855e-30
2.78484e-30
-2.26242e-30
3.28848e-30
-2.49618e-30
2.98968e-30
-2.54106e-30
1.90352e-30
-2.41632e-30
3.05962e-31
-2.15027e-30
-1.35344e-30
-1.80231e-30
-2.61529e-30
-1.48873e-30
-3.22985e-30
-1.34013e-30
-3.05066e-30
-1.40107e-30
-2.0868e-30
-1.62388e-30
-5.516e-31
-1.94022e-30
1.11449e-30
-2.26954e-30
2.40494e-30
-2.5044e-30
3.01149e-30
-2.5243e-30
2.77196e-30
-2.29436e-30
1.77249e-30
-1.8648e-30
1.31899e-31
-1.38203e-30
-1.51382e-30
-9.55071e-31
-2.86301e-30
-7.31876e-31
-3.24599e-30
-7.68477e-31
-2.91227e-30
-1.11825e-30
-1.43709e-30
-1.5842e-30
-4.98574e-33
-2.00456e-30
1.38636e-30
-2.0876e-30
1.47339e-30
-1.69194e-30
-1.65615e-31
-1.00441e-30
-1.06784e-30
3.28949e-31
-6.0718e-30
9.41151e-31
1.58033e-30
-5.55584e-29
2.70412e-30
-9.57543e-30
3.51447e-30
-9.94519e-30
3.89627e-30
-5.64085e-30
3.332e-30
1.75672e-30
1.91898e-30
8.56804e-30
2.58899e-31
1.17368e-29
-1.25066e-30
1.20334e-29
-2.33871e-30
9.89388e-30
-2.8275e-30
5.79346e-30
-2.71311e-30
1.10292e-30
-2.07719e-30
-3.24817e-30
-1.13108e-30
-6.27499e-30
-1.36017e-31
-7.58159e-30
6.52079e-31
-6.99128e-30
1.07711e-30
-4.86007e-30
1.09464e-30
-1.84918e-30
7.18803e-31
1.37317e-30
3.18659e-32
4.0783e-30
-8.10995e-31
5.75083e-30
-1.60347e-30
6.11857e-30
-2.18568e-30
5.23816e-30
-2.4842e-30
3.36106e-30
-2.50344e-30
1.05725e-30
-2.27941e-30
-1.11267e-30
-1.89932e-30
-2.67042e-30
-1.51281e-30
-3.30045e-30
-1.26105e-30
-2.90078e-30
-1.2126e-30
-1.59971e-30
-1.36972e-30
1.93609e-31
-1.70661e-30
1.96698e-30
-2.14824e-30
3.24646e-30
-2.5609e-30
3.7715e-30
-2.80993e-30
3.35276e-30
-2.84838e-30
2.05389e-30
-2.70059e-30
2.38206e-31
-2.40253e-30
-1.59584e-30
-2.01945e-30
-2.97513e-30
-1.67991e-30
-3.62874e-30
-1.5278e-30
-3.3709e-30
-1.6095e-30
-2.23281e-30
-1.86921e-30
-5.03695e-31
-2.2252e-30
1.30734e-30
-2.58736e-30
2.66974e-30
-2.83627e-30
3.27589e-30
-2.84172e-30
2.9491e-30
-2.56635e-30
1.78963e-30
-2.06999e-30
-4.66635e-32
-1.52154e-30
-1.80325e-30
-1.04552e-30
-3.19193e-30
-8.05089e-31
-3.49822e-30
-8.60811e-31
-3.06166e-30
-1.26664e-30
-1.37836e-30
-1.79886e-30
1.44787e-31
-2.27324e-30
1.57876e-30
-2.36338e-30
1.4554e-30
-1.91585e-30
-5.23936e-31
-1.13219e-30
-1.59966e-30
3.52073e-31
-7.3222e-30
1.39321e-30
1.80213e-30
-5.75716e-29
3.03432e-30
-1.08937e-29
3.88023e-30
-1.06549e-29
4.25292e-30
-5.82249e-30
3.5912e-30
2.66352e-30
2.01316e-30
1.03689e-29
1.8316e-31
1.37103e-29
-1.46024e-30
1.3711e-29
-2.62593e-30
1.09865e-29
-3.12677e-30
6.13839e-30
-2.96838e-30
7.58475e-31
-2.24791e-30
-4.13369e-30
-1.19858e-30
-7.43935e-30
-1.11413e-31
-8.72444e-30
7.37589e-31
-7.83772e-30
1.17975e-30
-5.25197e-30
1.17499e-30
-1.76428e-30
7.42321e-31
1.89552e-30
-2.55636e-32
4.9229e-30
-9.55985e-31
6.72773e-30
-1.82293e-30
7.00224e-30
-2.45298e-30
5.86894e-30
-2.77e-30
3.66955e-30
-2.78251e-30
1.04828e-30
-2.53138e-30
-1.39821e-30
-2.11344e-30
-3.1297e-30
-1.6937e-30
-3.76437e-30
-1.42617e-30
-3.20954e-30
-1.38361e-30
-1.67107e-30
-1.56474e-30
3.59025e-31
-1.94051e-30
2.33586e-30
-2.42737e-30
3.75198e-30
-2.87819e-30
4.29637e-30
-3.14497e-30
3.74254e-30
-3.17816e-30
2.20964e-30
-3.00749e-30
1.57482e-31
-2.67584e-30
-1.86171e-30
-2.25556e-30
-3.36296e-30
-1.88762e-30
-4.05374e-30
-1.72999e-30
-3.70567e-30
-1.83214e-30
-2.37598e-30
-2.12885e-30
-4.39257e-31
-2.5272e-30
1.52175e-30
-2.92534e-30
2.95149e-30
-3.1919e-30
3.54702e-30
-3.18379e-30
3.11709e-30
-2.86162e-30
1.77969e-30
-2.29703e-30
-2.64792e-31
-1.67839e-30
-2.13225e-30
-1.1473e-30
-3.54916e-30
-8.84334e-31
-3.75775e-30
-9.55776e-31
-3.19922e-30
-1.4164e-30
-1.28821e-30
-2.01786e-30
3.27851e-31
-2.55029e-30
1.79286e-30
-2.6521e-30
1.42177e-30
-2.15445e-30
-9.41419e-31
-1.27384e-30
-2.21655e-30
3.65544e-31
-8.70601e-30
1.87791e-30
2.01897e-30
-5.98174e-29
3.3675e-30
-1.23418e-29
4.25815e-30
-1.14136e-29
4.62623e-30
-5.99334e-30
3.86897e-30
3.68414e-30
2.12311e-30
1.23609e-29
1.16057e-31
1.58834e-29
-1.67067e-30
1.55481e-29
-2.92111e-30
1.21703e-29
-3.44077e-30
6.49807e-30
-3.2401e-30
3.60037e-31
-2.43387e-30
-5.12012e-30
-1.27904e-30
-8.7242e-30
-9.52942e-32
-9.97605e-30
8.19482e-31
-8.75738e-30
1.28397e-30
-5.66819e-30
1.25744e-30
-1.65465e-30
7.67404e-31
2.48168e-30
-8.34284e-32
5.85805e-30
-1.10458e-30
7.80183e-30
-2.05078e-30
7.96965e-30
-2.73337e-30
6.55526e-30
-3.07263e-30
4.00196e-30
-3.08021e-30
1.03429e-30
-2.80267e-30
-1.71201e-30
-2.34608e-30
-3.63068e-30
-1.89137e-30
-4.26718e-30
-1.60648e-30
-3.53999e-30
-1.56838e-30
-1.74192e-30
-1.77429e-30
5.4562e-31
-2.18956e-30
2.74057e-30
-2.72344e-30
4.30251e-30
-3.21457e-30
4.86457e-30
-3.50175e-30
4.16121e-30
-3.53123e-30
2.3722e-30
-3.33885e-30
6.53393e-32
-2.97247e-30
-2.15126e-30
-2.51239e-30
-3.77997e-30
-2.11358e-30
-4.50563e-30
-1.94768e-30
-4.05625e-30
-2.06966e-30
-2.51601e-30
-2.40367e-30
-3.57941e-31
-2.84694e-30
1.75923e-30
-3.28402e-30
3.25113e-30
-3.57117e-30
3.82519e-30
-3.55188e-30
3.27576e-30
-3.1839e-30
1.74188e-30
-2.5481e-30
-5.25905e-31
-1.85371e-30
-2.50527e-30
-1.2618e-30
-3.93781e-30
-9.69653e-31
-4.0278e-30
-1.05303e-30
-3.32543e-30
-1.56753e-30
-1.16546e-30
-2.24064e-30
5.46802e-31
-2.83513e-30
2.03075e-30
-2.9546e-30
1.37497e-30
-2.4091e-30
-1.41951e-30
-1.43021e-30
-2.92237e-30
3.6965e-31
-1.02287e-29
2.38803e-30
2.22686e-30
-6.2286e-29
3.69907e-30
-1.39277e-29
4.64769e-30
-1.22374e-29
5.02004e-30
-6.16442e-30
4.16649e-30
4.81833e-30
2.24711e-30
1.455e-29
5.80987e-32
1.82624e-29
-1.87909e-30
1.75542e-29
-3.22311e-30
1.34567e-29
-3.76755e-30
6.88041e-30
-3.52847e-30
-8.74046e-32
-2.63651e-30
-6.20728e-30
-1.3738e-30
-1.01326e-29
-8.80323e-32
-1.1343e-29
8.94918e-31
-9.75404e-30
1.38597e-30
-6.11417e-30
1.34107e-30
-1.52454e-30
7.95222e-31
3.12969e-30
-1.4025e-31
6.88546e-30
-1.25672e-30
8.97803e-30
-2.28656e-30
9.02568e-30
-3.02638e-30
7.30235e-30
-3.39215e-30
4.36306e-30
-3.3975e-30
1.01836e-30
-3.0942e-30
-2.05314e-30
-2.59907e-30
-4.17309e-30
-2.10814e-30
-4.81005e-30
-1.80427e-30
-3.89378e-30
-1.76863e-30
-1.81447e-30
-1.99792e-30
7.51602e-31
-2.45402e-30
3.18185e-30
-3.03703e-30
4.89942e-30
-3.57107e-30
5.47795e-30
-3.88148e-30
4.61104e-30
-3.90938e-30
2.54349e-30
-3.69557e-30
-3.76159e-32
-3.29359e-30
-2.46443e-30
-2.79143e-30
-4.22692e-30
-2.3594e-30
-4.98497e-30
-2.18319e-30
-4.42298e-30
-2.32265e-30
-2.65413e-30
-2.6945e-30
-2.59016e-31
-3.18393e-30
2.02011e-30
-3.6637e-30
3.57033e-30
-3.97593e-30
4.11209e-30
-3.94754e-30
3.42431e-30
-3.53332e-30
1.67362e-30
-2.82423e-30
-8.32815e-31
-2.05089e-30
-2.92449e-30
-1.39093e-30
-4.36246e-30
-1.06356e-30
-4.3107e-30
-1.15398e-30
-3.44145e-30
-1.71987e-30
-1.01e-30
-2.46605e-30
8.03594e-31
-3.1269e-30
2.29496e-30
-3.26922e-30
1.31656e-30
-2.67952e-30
-1.95859e-30
-1.60224e-30
-3.72022e-30
3.61861e-31
-1.18945e-29
2.91386e-30
2.4262e-30
-6.49676e-29
4.03e-30
-1.56601e-29
5.04701e-30
-1.31396e-29
5.42755e-30
-6.34204e-30
4.4824e-30
6.0601e-30
2.39146e-30
1.69343e-29
1.34822e-32
2.08558e-29
-2.08544e-30
1.97427e-29
-3.53081e-30
1.48559e-29
-4.10675e-30
7.29424e-30
-3.83328e-30
-5.78487e-31
-2.85615e-30
-7.39424e-30
-1.4842e-30
-1.16663e-29
-9.33359e-32
-1.28296e-29
9.64747e-31
-1.08361e-29
1.4875e-30
-6.59639e-30
1.4263e-30
-1.377e-30
8.23117e-31
3.84054e-30
-1.98211e-31
8.00628e-30
-1.41183e-30
1.02585e-29
-2.52984e-30
1.01753e-29
-3.33247e-30
8.11633e-30
-3.72813e-30
4.75675e-30
-3.73494e-30
1.00463e-30
-3.40772e-30
-2.41945e-30
-2.87385e-30
-4.75688e-30
-2.34523e-30
-5.39433e-30
-2.01963e-30
-4.27367e-30
-1.98555e-30
-1.8898e-30
-2.23772e-30
9.76067e-31
-2.73526e-30
3.65968e-30
-3.36886e-30
5.54336e-30
-3.94843e-30
6.13826e-30
-4.28423e-30
5.09348e-30
-4.31321e-30
2.72584e-30
-4.07942e-30
-1.49695e-31
-3.64099e-30
-2.80112e-30
-3.09506e-30
-4.70395e-30
-2.62663e-30
-5.49299e-30
-2.43762e-30
-4.80643e-30
-2.59283e-30
-2.79067e-30
-3.00257e-30
-1.42024e-31
-3.53972e-30
2.30507e-30
-4.06602e-30
3.91084e-30
-4.40568e-30
4.40707e-30
-4.37132e-30
3.56273e-30
-3.91276e-30
1.57433e-30
-3.12895e-30
-1.18801e-30
-2.27075e-30
-3.395e-30
-1.53648e-30
-4.82666e-30
-1.16687e-30
-4.60954e-30
-1.25784e-30
-3.54963e-30
-1.87346e-30
-8.20486e-31
-2.69353e-30
1.09999e-30
-3.42465e-30
2.58781e-30
-3.59555e-30
1.2485e-30
-2.96644e-30
-2.55828e-30
-1.79052e-30
-4.61377e-30
3.41681e-31
-1.37078e-29
3.44521e-30
2.61355e-30
-6.78489e-29
4.35274e-30
-1.75434e-29
5.45357e-30
-1.41388e-29
5.85352e-30
-6.54005e-30
4.81982e-30
7.4048e-30
2.55387e-30
1.9517e-29
-1.76674e-32
2.36693e-29
-2.28499e-30
2.21226e-29
-3.84078e-30
1.63795e-29
-4.45787e-30
7.75158e-30
-4.15476e-30
-1.10688e-30
-3.09501e-30
-8.67787e-30
-1.61107e-30
-1.33286e-29
-1.11837e-31
-1.44402e-29
1.02627e-30
-1.20098e-29
1.58306e-30
-7.1186e-30
1.5101e-30
-1.21768e-30
8.52982e-31
4.61021e-30
-2.54921e-31
9.22106e-30
-1.56937e-30
1.1647e-29
-2.77948e-30
1.1423e-29
-3.65019e-30
9.00303e-30
-4.08264e-30
5.19045e-30
-4.09322e-30
9.95863e-31
-3.74359e-30
-2.80903e-30
-3.17145e-30
-5.38132e-30
-2.60487e-30
-6.02009e-30
-2.25585e-30
-4.68131e-30
-2.22058e-30
-1.97081e-30
-2.49431e-30
1.2173e-30
-3.03334e-30
4.17346e-30
-3.71925e-30
6.23522e-30
-4.34663e-30
6.84685e-30
-4.71125e-30
5.61112e-30
-4.74458e-30
2.9221e-30
-4.49187e-30
-2.69671e-31
-4.01672e-30
-3.16073e-30
-3.4249e-30
-5.21157e-30
-2.91725e-30
-6.03041e-30
-2.71268e-30
-5.20721e-30
-2.88131e-30
-2.92635e-30
-3.32787e-30
-7.4241e-33
-3.91494e-30
2.61557e-30
-4.49051e-30
4.27328e-30
-4.86255e-30
4.71194e-30
-4.82568e-30
3.69097e-30
-4.32238e-30
1.44073e-30
-3.46319e-30
-1.59354e-30
-2.51593e-30
-3.92038e-30
-1.70144e-30
-5.33365e-30
-1.28124e-30
-4.92851e-30
-1.36734e-30
-3.65082e-30
-2.02773e-30
-5.98324e-31
-2.92238e-30
1.43807e-30
-3.72693e-30
2.91109e-30
-3.93356e-30
1.17416e-30
-3.26983e-30
-3.2185e-30
-1.99567e-30
-5.60653e-30
3.07677e-31
-1.56727e-29
3.97045e-30
2.7873e-30
-7.09148e-29
4.66897e-30
-1.95853e-29
5.86583e-30
-1.52503e-29
6.29271e-30
-6.76882e-30
5.175e-30
8.84596e-30
2.73647e-30
2.22952e-29
-3.30701e-32
2.67084e-29
-2.47556e-30
2.47028e-29
-4.15354e-30
1.80422e-29
-4.81771e-30
8.26093e-30
-4.49181e-30
-1.66389e-30
-3.35225e-30
-1.00545e-29
-1.75688e-30
-1.5119e-29
-1.4652e-31
-1.61786e-29
1.076e-30
-1.3281e-29
1.67417e-30
-7.68963e-30
1.59411e-30
-1.05244e-30
8.83015e-31
5.43797e-30
-3.11405e-31
1.05295e-29
-1.72883e-30
1.3146e-29
-3.03666e-30
1.27747e-29
-3.98032e-30
9.96788e-30
-4.45343e-30
5.66864e-30
-4.47217e-30
9.9698e-31
-4.10385e-30
-3.21775e-30
-3.49406e-30
-6.04543e-30
-2.8884e-30
-6.68824e-30
-2.51369e-30
-5.11888e-30
-2.47502e-30
-2.05985e-30
-2.76939e-30
1.47399e-30
-3.3498e-30
4.72243e-30
-4.08962e-30
6.97566e-30
-4.76732e-30
7.60515e-30
-5.16322e-30
6.16547e-30