/*--------------------------------*- C++ -*----------------------------------*\
| =========                 |                                                 |
| \\      /  F ield         | foam-extend: Open Source CFD                    |
|  \\    /   O peration     | Version:     4.0                                |
|   \\  /    A nd           | Web:         http://www.foam-extend.org         |
|    \\/     M anipulation  |                                                 |
\*---------------------------------------------------------------------------*/
FoamFile
{
    version     2.0;
    format      ascii;
    class       volVectorField;
    location    "1";
    object      U;
}
// * * * * * * * * * * * * * * * * * * * * * * * * * * * * * * * * * * * * * //

dimensions      [0 1 -1 0 0 0 0];

internalField   nonuniform List<vector> 
6960
(
(9.41006e-18 1.90805e-16 0)
(1.54722e-17 2.49731e-18 0)
(9.36053e-18 7.44755e-18 0)
(5.22414e-18 9.28111e-18 0)
(1.72417e-18 7.38133e-18 0)
(-4.06372e-18 5.55414e-18 0)
(-8.45022e-18 3.43663e-18 0)
(-1.0264e-17 1.04031e-19 0)
(-9.52815e-18 -2.67112e-18 0)
(-6.91747e-18 -4.38309e-18 0)
(-3.36683e-18 -4.38626e-18 0)
(6.73905e-20 -3.75054e-18 0)
(3.13828e-18 -2.44851e-18 0)
(4.99886e-18 -6.86938e-19 0)
(5.24873e-18 1.39731e-18 0)
(3.69159e-18 2.8797e-18 0)
(1.29462e-18 3.72634e-18 0)
(-1.2754e-18 3.89714e-18 0)
(-3.73947e-18 3.58565e-18 0)
(-5.98089e-18 2.42108e-18 0)
(-7.23839e-18 9.03681e-19 0)
(-7.09125e-18 -5.14981e-19 0)
(-5.94288e-18 -1.94051e-18 0)
(-4.59942e-18 -2.77799e-18 0)
(-3.42357e-18 -2.74506e-18 0)
(-2.25519e-18 -1.88033e-18 0)
(-1.47841e-18 -7.50257e-19 0)
(-1.69068e-18 8.56111e-19 0)
(-2.92008e-18 2.42187e-18 0)
(-4.37754e-18 3.38573e-18 0)
(-5.47982e-18 3.78261e-18 0)
(-6.28734e-18 3.16173e-18 0)
(-6.82884e-18 1.74629e-18 0)
(-6.6448e-18 -9.48677e-20 0)
(-5.43082e-18 -1.89345e-18 0)
(-3.88488e-18 -3.47056e-18 0)
(-2.81648e-18 -4.17969e-18 0)
(-2.43299e-18 -3.7833e-18 0)
(-2.50753e-18 -2.09231e-18 0)
(-3.20258e-18 -1.779e-19 0)
(-4.77358e-18 2.24273e-18 0)
(-6.75197e-18 4.38389e-18 0)
(-8.11186e-18 5.83767e-18 0)
(-8.45996e-18 5.79488e-18 0)
(-7.69047e-18 4.3624e-18 0)
(-6.25787e-18 1.93668e-18 0)
(-3.93717e-18 -1.06965e-18 0)
(-1.558e-18 -3.62551e-18 0)
(6.02146e-19 -5.51842e-18 0)
(7.11665e-19 -5.60936e-18 0)
(-2.64118e-20 -4.38547e-18 0)
(-2.81223e-18 -1.43133e-18 0)
(-5.00159e-18 1.62129e-18 0)
(-8.59671e-18 4.45742e-18 0)
(-8.84269e-18 5.61444e-18 0)
(-9.6428e-18 5.1243e-18 0)
(-4.90284e-18 3.10926e-18 0)
(-3.21028e-18 1.60746e-19 0)
(2.2481e-18 -1.18852e-18 0)
(7.51648e-18 -2.35263e-18 0)
(2.23057e-17 3.15747e-16 0)
(4.07125e-17 8.41329e-19 0)
(2.8544e-17 1.7692e-17 0)
(1.57202e-17 2.83771e-17 0)
(4.8413e-18 2.77755e-17 0)
(-1.26159e-17 2.56676e-17 0)
(-2.5881e-17 1.97395e-17 0)
(-3.13374e-17 9.06673e-18 0)
(-2.90089e-17 -1.62282e-18 0)
(-2.09808e-17 -1.02265e-17 0)
(-1.01388e-17 -1.47319e-17 0)
(3.25022e-19 -1.53655e-17 0)
(9.63932e-18 -1.2812e-17 0)
(1.52689e-17 -7.59847e-18 0)
(1.59877e-17 -8.2506e-20 0)
(1.12432e-17 6.51489e-18 0)
(3.94561e-18 1.16878e-17 0)
(-3.87503e-18 1.43714e-17 0)
(-1.13641e-17 1.43283e-17 0)
(-1.81421e-17 1.16306e-17 0)
(-2.19323e-17 6.68055e-18 0)
(-2.15025e-17 1.25572e-18 0)
(-1.80439e-17 -4.09673e-18 0)
(-1.39493e-17 -8.04653e-18 0)
(-1.03369e-17 -8.97298e-18 0)
(-6.78697e-18 -7.18697e-18 0)
(-4.4439e-18 -3.69294e-18 0)
(-5.07769e-18 1.42289e-18 0)
(-8.77346e-18 6.81042e-18 0)
(-1.31639e-17 1.06562e-17 0)
(-1.65279e-17 1.25695e-17 0)
(-1.90396e-17 1.09483e-17 0)
(-2.07207e-17 6.68119e-18 0)
(-2.01703e-17 7.58551e-19 0)
(-1.65267e-17 -5.43879e-18 0)
(-1.19e-17 -1.07678e-17 0)
(-8.68447e-18 -1.35037e-17 0)
(-7.46872e-18 -1.24374e-17 0)
(-7.63283e-18 -7.3635e-18 0)
(-9.69781e-18 -6.69048e-19 0)
(-1.44042e-17 7.16379e-18 0)
(-2.03168e-17 1.44513e-17 0)
(-2.43741e-17 1.89523e-17 0)
(-2.54154e-17 1.87477e-17 0)
(-2.31286e-17 1.4004e-17 0)
(-1.88123e-17 5.692e-18 0)
(-1.1807e-17 -4.02001e-18 0)
(-4.60575e-18 -1.25565e-17 0)
(1.88189e-18 -1.82585e-17 0)
(2.26928e-18 -1.86618e-17 0)
(6.20617e-20 -1.4045e-17 0)
(-8.25349e-18 -4.40204e-18 0)
(-1.493e-17 5.5716e-18 0)
(-2.57477e-17 1.49921e-17 0)
(-2.66711e-17 1.83676e-17 0)
(-2.90725e-17 1.67081e-17 0)
(-1.50647e-17 9.27887e-18 0)
(-9.83073e-18 3.69726e-19 0)
(6.57057e-18 -3.83618e-18 0)
(2.19637e-17 -6.44287e-18 0)
(3.72528e-17 7.3144e-17 0)
(6.85256e-17 -1.41249e-17 0)
(4.86992e-17 1.83654e-17 0)
(2.67717e-17 4.47538e-17 0)
(7.98394e-18 5.53219e-17 0)
(-2.15451e-17 5.94315e-17 0)
(-4.4055e-17 5.15869e-17 0)
(-5.33262e-17 3.33896e-17 0)
(-4.93711e-17 1.14839e-17 0)
(-3.57378e-17 -9.50832e-18 0)
(-1.72907e-17 -2.56925e-17 0)
(5.59749e-19 -3.2822e-17 0)
(1.63864e-17 -3.19215e-17 0)
(2.59739e-17 -2.3684e-17 0)
(2.72154e-17 -9.62837e-18 0)
(1.92171e-17 5.54757e-18 0)
(6.85092e-18 1.90746e-17 0)
(-6.45865e-18 2.78375e-17 0)
(-1.91885e-17 3.03741e-17 0)
(-3.06675e-17 2.75196e-17 0)
(-3.71092e-17 1.92615e-17 0)
(-3.64267e-17 8.342e-18 0)
(-3.06215e-17 -2.61233e-18 0)
(-2.36704e-17 -1.18503e-17 0)
(-1.74786e-17 -1.57127e-17 0)
(-1.14283e-17 -1.45475e-17 0)
(-7.44351e-18 -8.90365e-18 0)
(-8.47755e-18 -8.27448e-20 0)
(-1.46629e-17 9.87614e-18 0)
(-2.2057e-17 1.80305e-17 0)
(-2.78087e-17 2.23986e-17 0)
(-3.21677e-17 2.04385e-17 0)
(-3.50846e-17 1.36776e-17 0)
(-3.41984e-17 3.39559e-18 0)
(-2.80992e-17 -7.93711e-18 0)
(-2.03348e-17 -1.78137e-17 0)
(-1.48809e-17 -2.3359e-17 0)
(-1.27079e-17 -2.19364e-17 0)
(-1.28547e-17 -1.39157e-17 0)
(-1.62599e-17 -1.51585e-18 0)
(-2.41368e-17 1.22886e-17 0)
(-3.40533e-17 2.54743e-17 0)
(-4.09088e-17 3.29764e-17 0)
(-4.27341e-17 3.25064e-17 0)
(-3.90134e-17 2.40208e-17 0)
(-3.18012e-17 8.85266e-18 0)
(-2.00176e-17 -8.05371e-18 0)
(-7.82996e-18 -2.33276e-17 0)
(3.13047e-18 -3.27601e-17 0)
(3.9671e-18 -3.32471e-17 0)
(3.79532e-19 -2.40147e-17 0)
(-1.34472e-17 -7.0551e-18 0)
(-2.47524e-17 1.06435e-17 0)
(-4.29546e-17 2.73788e-17 0)
(-4.48383e-17 3.24342e-17 0)
(-4.895e-17 2.92814e-17 0)
(-2.58164e-17 1.50226e-17 0)
(-1.6793e-17 5.55713e-19 0)
(1.07519e-17 -6.67615e-18 0)
(3.60514e-17 -8.91307e-18 0)
(5.72824e-17 -1.61384e-16 0)
(1.02031e-16 -3.85822e-17 0)
(6.99453e-17 1.19946e-17 0)
(3.86152e-17 5.57685e-17 0)
(1.14451e-17 8.36587e-17 0)
(-3.06591e-17 9.83912e-17 0)
(-6.28702e-17 9.12913e-17 0)
(-7.62228e-17 6.62818e-17 0)
(-7.07077e-17 3.2014e-17 0)
(-5.13528e-17 -4.03821e-18 0)
(-2.50171e-17 -3.45251e-17 0)
(6.0943e-19 -5.17818e-17 0)
(2.32939e-17 -5.49012e-17 0)
(3.70777e-17 -4.44775e-17 0)
(3.89565e-17 -2.43353e-17 0)
(2.76965e-17 8.37791e-19 0)
(1.01034e-17 2.41099e-17 0)
(-8.92947e-18 4.0967e-17 0)
(-2.71458e-17 4.8611e-17 0)
(-4.35242e-17 4.62392e-17 0)
(-5.27669e-17 3.57233e-17 0)
(-5.18999e-17 1.92277e-17 0)
(-4.37275e-17 1.59462e-18 0)
(-3.38254e-17 -1.39126e-17 0)
(-2.49079e-17 -2.20449e-17 0)
(-1.62142e-17 -2.2243e-17 0)
(-1.04872e-17 -1.50861e-17 0)
(-1.18827e-17 -2.84102e-18 0)
(-2.05628e-17 1.18384e-17 0)
(-3.10367e-17 2.47789e-17 0)
(-3.93162e-17 3.19309e-17 0)
(-4.56661e-17 3.02688e-17 0)
(-4.99283e-17 2.14235e-17 0)
(-4.87549e-17 6.98232e-18 0)
(-4.01888e-17 -9.42111e-18 0)
(-2.92218e-17 -2.41737e-17 0)
(-2.14067e-17 -3.26052e-17 0)
(-1.81336e-17 -3.11835e-17 0)
(-1.81375e-17 -2.04457e-17 0)
(-2.28295e-17 -2.7621e-18 0)
(-3.39096e-17 1.7254e-17 0)
(-4.79249e-17 3.58327e-17 0)
(-5.77253e-17 4.63395e-17 0)
(-6.04784e-17 4.56531e-17 0)
(-5.54522e-17 3.3417e-17 0)
(-4.53612e-17 1.16974e-17 0)
(-2.87232e-17 -1.23178e-17 0)
(-1.13777e-17 -3.41773e-17 0)
(4.25724e-18 -4.74324e-17 0)
(5.79252e-18 -4.72555e-17 0)
(9.64114e-19 -3.33172e-17 0)
(-1.83087e-17 -9.11563e-18 0)
(-3.43623e-17 1.64384e-17 0)
(-6.01231e-17 4.00191e-17 0)
(-6.32993e-17 4.65004e-17 0)
(-6.92577e-17 4.15101e-17 0)
(-3.71858e-17 2.09597e-17 0)
(-2.41226e-17 9.61108e-19 0)
(1.47683e-17 -9.32975e-18 0)
(4.97886e-17 -1.01384e-17 0)
(7.88225e-17 -2.49118e-16 0)
(1.37711e-16 -6.72328e-17 0)
(9.2348e-17 8.68407e-19 0)
(5.13538e-17 6.36736e-17 0)
(1.53608e-17 1.11233e-16 0)
(-3.98452e-17 1.38637e-16 0)
(-8.22715e-17 1.34351e-16 0)
(-1.0004e-16 1.03068e-16 0)
(-9.30797e-17 5.59454e-17 0)
(-6.78895e-17 3.99413e-18 0)
(-3.33886e-17 -4.14631e-17 0)
(3.87246e-19 -7.00749e-17 0)
(3.03032e-17 -7.86678e-17 0)
(4.85533e-17 -6.74587e-17 0)
(5.12162e-17 -4.12167e-17 0)
(3.67047e-17 -6.33721e-18 0)
(1.37458e-17 2.71633e-17 0)
(-1.12145e-17 5.35307e-17 0)
(-3.51915e-17 6.74288e-17 0)
(-5.66964e-17 6.61639e-17 0)
(-6.88928e-17 5.38868e-17 0)
(-6.79479e-17 3.2245e-17 0)
(-5.74062e-17 7.25093e-18 0)
(-4.44535e-17 -1.50131e-17 0)
(-3.26495e-17 -2.79491e-17 0)
(-2.11598e-17 -2.97337e-17 0)
(-1.35888e-17 -2.15282e-17 0)
(-1.52876e-17 -6.17582e-18 0)
(-2.64594e-17 1.3361e-17 0)
(-4.00941e-17 3.11484e-17 0)
(-5.10457e-17 4.15e-17 0)
(-5.95419e-17 4.04495e-17 0)
(-6.52694e-17 2.94325e-17 0)
(-6.38658e-17 1.10755e-17 0)
(-5.28316e-17 -1.05461e-17 0)
(-3.85844e-17 -3.026e-17 0)
(-2.8267e-17 -4.17038e-17 0)
(-2.37281e-17 -4.06399e-17 0)
(-2.34575e-17 -2.69105e-17 0)
(-2.93727e-17 -4.14338e-18 0)
(-4.36867e-17 2.22375e-17 0)
(-6.19106e-17 4.58343e-17 0)
(-7.48177e-17 5.97916e-17 0)
(-7.86857e-17 5.90935e-17 0)
(-7.25086e-17 4.31327e-17 0)
(-5.95802e-17 1.49827e-17 0)
(-3.80261e-17 -1.65675e-17 0)
(-1.53422e-17 -4.51472e-17 0)
(5.21341e-18 -6.22821e-17 0)
(7.74387e-18 -6.1532e-17 0)
(1.84763e-18 -4.30192e-17 0)
(-2.2763e-17 -1.11757e-17 0)
(-4.36855e-17 2.27124e-17 0)
(-7.71844e-17 5.26947e-17 0)
(-8.20202e-17 6.12964e-17 0)
(-8.99825e-17 5.42074e-17 0)
(-4.92078e-17 2.77479e-17 0)
(-3.18697e-17 1.56622e-18 0)
(1.85865e-17 -1.18802e-17 0)
(6.31615e-17 -1.0974e-17 0)
(1.00791e-16 -2.96733e-16 0)
(1.7446e-16 -9.81943e-17 0)
(1.15947e-16 -1.52762e-17 0)
(6.51154e-17 6.86829e-17 0)
(1.98278e-17 1.38068e-16 0)
(-4.90231e-17 1.79569e-16 0)
(-1.0221e-16 1.79751e-16 0)
(-1.24787e-16 1.43155e-16 0)
(-1.16528e-16 8.316e-17 0)
(-8.54112e-17 1.50973e-17 0)
(-4.24721e-17 -4.68447e-17 0)
(-1.63987e-19 -8.74637e-17 0)
(3.73474e-17 -1.02424e-16 0)
(6.03763e-17 -9.15967e-17 0)
(6.39974e-17 -5.94928e-17 0)
(4.6258e-17 -1.53143e-17 0)
(1.78368e-17 2.92384e-17 0)
(-1.32724e-17 6.60902e-17 0)
(-4.32994e-17 8.6162e-17 0)
(-7.01676e-17 8.70593e-17 0)
(-8.54883e-17 7.29612e-17 0)
(-8.45843e-17 4.64776e-17 0)
(-7.16889e-17 1.40502e-17 0)
(-5.55833e-17 -1.52204e-17 0)
(-4.07269e-17 -3.32537e-17 0)
(-2.62832e-17 -3.70994e-17 0)
(-1.67592e-17 -2.80687e-17 0)
(-1.86925e-17 -9.76896e-18 0)
(-3.23446e-17 1.4556e-17 0)
(-4.9216e-17 3.73374e-17 0)
(-6.29891e-17 5.12389e-17 0)
(-7.38068e-17 5.09525e-17 0)
(-8.11223e-17 3.77705e-17 0)
(-7.9551e-17 1.56916e-17 0)
(-6.60538e-17 -1.10624e-17 0)
(-4.84466e-17 -3.57268e-17 0)
(-3.54811e-17 -5.06786e-17 0)
(-2.94883e-17 -5.02815e-17 0)
(-2.87893e-17 -3.37204e-17 0)
(-3.58639e-17 -5.74936e-18 0)
(-5.34474e-17 2.67354e-17 0)
(-7.5986e-17 5.57752e-17 0)
(-9.21769e-17 7.3381e-17 0)
(-9.73784e-17 7.29185e-17 0)
(-9.02346e-17 5.34169e-17 0)
(-7.45364e-17 1.84599e-17 0)
(-4.80115e-17 -2.06665e-17 0)
(-1.97854e-17 -5.62836e-17 0)
(5.95014e-18 -7.70489e-17 0)
(9.80339e-18 -7.66805e-17 0)
(3.07005e-18 -5.37163e-17 0)
(-2.67367e-17 -1.38446e-17 0)
(-5.2658e-17 2.88224e-17 0)
(-9.40747e-17 6.51872e-17 0)
(-1.0096e-16 7.66903e-17 0)
(-1.11131e-16 6.75997e-17 0)
(-6.19241e-17 3.50385e-17 0)
(-4.00742e-17 2.40479e-18 0)
(2.21765e-17 -1.43791e-17 0)
(7.61572e-17 -1.14932e-17 0)
(1.229e-16 -3.36094e-16 0)
(2.11965e-16 -1.32195e-16 0)
(1.40756e-16 -3.53236e-17 0)
(8.00239e-17 7.05571e-17 0)
(2.49654e-17 1.63407e-16 0)
(-5.81118e-17 2.20953e-16 0)
(-1.22633e-16 2.26742e-16 0)
(-1.50456e-16 1.86066e-16 0)
(-1.41089e-16 1.13686e-16 0)
(-1.04e-16 2.89917e-17 0)
(-5.23563e-17 -5.04835e-17 0)
(-1.0992e-18 -1.0442e-16 0)
(4.43929e-17 -1.26426e-16 0)
(7.25207e-17 -1.16206e-16 0)
(7.72974e-17 -7.94227e-17 0)
(5.63942e-17 -2.55724e-17 0)
(2.24227e-17 3.07769e-17 0)
(-1.50788e-17 7.80001e-17 0)
(-5.14467e-17 1.05039e-16 0)
(-8.39237e-17 1.0868e-16 0)
(-1.02563e-16 9.30932e-17 0)
(-1.01821e-16 6.18275e-17 0)
(-8.65963e-17 2.20445e-17 0)
(-6.72425e-17 -1.44125e-17 0)
(-4.91695e-17 -3.78869e-17 0)
(-3.16032e-17 -4.43163e-17 0)
(-2.0002e-17 -3.47589e-17 0)
(-2.20959e-17 -1.34963e-17 0)
(-3.82093e-17 1.54351e-17 0)
(-5.83908e-17 4.35216e-17 0)
(-7.51447e-17 6.10595e-17 0)
(-8.84662e-17 6.17573e-17 0)
(-9.75004e-17 4.67681e-17 0)
(-9.58264e-17 2.08116e-17 0)
(-7.98765e-17 -1.08577e-17 0)
(-5.88419e-17 -4.07045e-17 0)
(-4.30727e-17 -5.95068e-17 0)
(-3.54208e-17 -5.99603e-17 0)
(-3.41262e-17 -4.07562e-17 0)
(-4.22863e-17 -7.9616e-18 0)
(-6.3156e-17 3.07239e-17 0)
(-9.01208e-17 6.5632e-17 0)
(-1.09802e-16 8.71207e-17 0)
(-1.16574e-16 8.71001e-17 0)
(-1.08684e-16 6.41189e-17 0)
(-9.02937e-17 2.20819e-17 0)
(-5.87432e-17 -2.4282e-17 0)
(-2.47664e-17 -6.74722e-17 0)
(6.4212e-18 -9.19942e-17 0)
(1.1948e-17 -9.23808e-17 0)
(4.65955e-18 -6.5276e-17 0)
(-3.01678e-17 -1.7412e-17 0)
(-6.12089e-17 3.40746e-17 0)
(-1.10726e-16 7.757e-17 0)
(-1.20078e-16 9.23675e-17 0)
(-1.32702e-16 8.15997e-17 0)
(-7.53708e-17 4.30516e-17 0)
(-4.87762e-17 3.82761e-18 0)
(2.55069e-17 -1.68148e-17 0)
(8.87619e-17 -1.16343e-17 0)
(1.45037e-16 -3.75105e-16 0)
(2.5015e-16 -1.69685e-16 0)
(1.66837e-16 -5.826e-17 0)
(9.61537e-17 7.03212e-17 0)
(3.08816e-17 1.87148e-16 0)
(-6.70216e-17 2.62543e-16 0)
(-1.43496e-16 2.74738e-16 0)
(-1.7703e-16 2.31261e-16 0)
(-1.66801e-16 1.47241e-16 0)
(-1.23721e-16 4.53785e-17 0)
(-6.31239e-17 -5.17656e-17 0)
(-2.49935e-18 -1.20406e-16 0)
(5.14067e-17 -1.50676e-16 0)
(8.49592e-17 -1.41783e-16 0)
(9.11143e-17 -1.00697e-16 0)
(6.71582e-17 -3.71486e-17 0)
(2.75282e-17 3.1224e-17 0)
(-1.65941e-17 8.8605e-17 0)
(-5.95874e-17 1.23724e-16 0)
(-9.79472e-17 1.30788e-16 0)
(-1.20111e-16 1.14317e-16 0)
(-1.19677e-16 7.8454e-17 0)
(-1.02155e-16 3.14608e-17 0)
(-7.94627e-17 -1.24135e-17 0)
(-5.8008e-17 -4.16831e-17 0)
(-3.71461e-17 -5.12391e-17 0)
(-2.33274e-17 -4.17034e-17 0)
(-2.54976e-17 -1.75392e-17 0)
(-4.40438e-17 1.58724e-17 0)
(-6.76063e-17 4.95701e-17 0)
(-8.75078e-17 7.07438e-17 0)
(-1.03514e-16 7.28416e-17 0)
(-1.14416e-16 5.64508e-17 0)
(-1.12718e-16 2.64738e-17 0)
(-9.43291e-17 -1.02825e-17 0)
(-6.97989e-17 -4.54255e-17 0)
(-5.10568e-17 -6.82131e-17 0)
(-4.15257e-17 -6.95915e-17 0)
(-3.94676e-17 -4.79156e-17 0)
(-4.86257e-17 -1.06372e-17 0)
(-7.27857e-17 3.44192e-17 0)
(-1.04292e-16 7.50788e-17 0)
(-1.27682e-16 1.01051e-16 0)
(-1.36294e-16 1.01608e-16 0)
(-1.279e-16 7.50768e-17 0)
(-1.06902e-16 2.66194e-17 0)
(-7.02891e-17 -2.73061e-17 0)
(-3.03567e-17 -7.83875e-17 0)
(6.5917e-18 -1.07454e-16 0)
(1.4174e-17 -1.08652e-16 0)
(6.63237e-18 -7.71425e-17 0)
(-3.30167e-17 -2.16646e-17 0)
(-6.92668e-17 3.89443e-17 0)
(-1.27066e-16 9.00601e-17 0)
(-1.3934e-16 1.08292e-16 0)
(-1.54683e-16 9.62789e-17 0)
(-8.95705e-17 5.17226e-17 0)
(-5.80241e-17 6.06738e-18 0)
(2.85385e-17 -1.92885e-17 0)
(1.00966e-16 -1.13678e-17 0)
(1.67153e-16 -4.15124e-16 0)
(2.88985e-16 -2.09707e-16 0)
(1.94258e-16 -8.45899e-17 0)
(1.13602e-16 6.7543e-17 0)
(3.76637e-17 2.09061e-16 0)
(-7.56787e-17 3.03602e-16 0)
(-1.64751e-16 3.23882e-16 0)
(-2.04487e-16 2.78553e-16 0)
(-1.93696e-16 1.83802e-16 0)
(-1.44633e-16 6.49927e-17 0)
(-7.48436e-17 -5.02794e-17 0)
(-4.45091e-18 -1.34464e-16 0)
(5.831e-17 -1.7452e-16 0)
(9.76729e-17 -1.68366e-16 0)
(1.05462e-16 -1.22772e-16 0)
(7.85597e-17 -5.01187e-17 0)
(3.31823e-17 2.98137e-17 0)
(-1.77823e-17 9.84531e-17 0)
(-6.76782e-17 1.41791e-16 0)
(-1.12206e-16 1.53392e-16 0)
(-1.38127e-16 1.3626e-16 0)
(-1.38156e-16 9.6204e-17 0)
(-1.18387e-16 4.23336e-17 0)
(-9.22772e-17 -9.21788e-18 0)
(-6.72774e-17 -4.47253e-17 0)
(-4.29445e-17 -5.77754e-17 0)
(-2.6753e-17 -4.88807e-17 0)
(-2.8898e-17 -2.20376e-17 0)
(-4.98366e-17 1.60011e-17 0)
(-7.68522e-17 5.5255e-17 0)
(-1.0007e-16 8.02629e-17 0)
(-1.18945e-16 8.41807e-17 0)
(-1.31879e-16 6.66505e-17 0)
(-1.30254e-16 3.29253e-17 0)
(-1.09442e-16 -9.20631e-18 0)
(-8.13417e-17 -4.97657e-17 0)
(-5.94502e-17 -7.67512e-17 0)
(-4.78103e-17 -7.92353e-17 0)
(-4.48094e-17 -5.55736e-17 0)
(-5.48652e-17 -1.37321e-17 0)
(-8.23197e-17 3.74547e-17 0)
(-1.18474e-16 8.42242e-17 0)
(-1.458e-16 1.14897e-16 0)
(-1.56557e-16 1.16226e-16 0)
(-1.47901e-16 8.64059e-17 0)
(-1.24408e-16 3.22001e-17 0)
(-8.27236e-17 -2.99958e-17 0)
(-3.66284e-17 -8.88485e-17 0)
(6.40184e-18 -1.23268e-16 0)
(1.64877e-17 -1.25809e-16 0)
(9.02276e-18 -8.94598e-17 0)
(-3.52266e-17 -2.68627e-17 0)
(-7.67613e-17 4.38617e-17 0)
(-1.43044e-16 1.02441e-16 0)
(-1.58705e-16 1.24442e-16 0)
(-1.77073e-16 1.11793e-16 0)
(-1.04551e-16 6.10388e-17 0)
(-6.78606e-17 8.81708e-18 0)
(3.12317e-17 -2.1648e-17 0)
(1.12761e-16 -1.0843e-17 0)
(1.89215e-16 -4.56047e-16 0)
(3.28415e-16 -2.51835e-16 0)
(2.2303e-16 -1.14295e-16 0)
(1.32462e-16 6.1031e-17 0)
(4.54234e-17 2.27432e-16 0)
(-8.39633e-17 3.4289e-16 0)
(-1.86321e-16 3.74124e-16 0)
(-2.3281e-16 3.27843e-16 0)
(-2.21778e-16 2.23342e-16 0)
(-1.66792e-16 8.81075e-17 0)
(-8.76009e-17 -4.58847e-17 0)
(-7.03824e-18 -1.46648e-16 0)
(6.50244e-17 -1.97402e-16 0)
(1.10624e-16 -1.95295e-16 0)
(1.20334e-16 -1.4604e-16 0)
(9.05977e-17 -6.49783e-17 0)
(3.94367e-17 2.63952e-17 0)
(-1.85839e-17 1.07237e-16 0)
(-7.56859e-17 1.59702e-16 0)
(-1.26675e-16 1.76345e-16 0)
(-1.5661e-16 1.59074e-16 0)
(-1.5726e-16 1.1514e-16 0)
(-1.35315e-16 5.47029e-17 0)
(-1.05726e-16 -4.84328e-18 0)
(-7.70097e-17 -4.71311e-17 0)
(-4.90255e-17 -6.39116e-17 0)
(-3.03007e-17 -5.61057e-17 0)
(-3.22934e-17 -2.69215e-17 0)
(-5.55808e-17 1.58365e-17 0)
(-8.61203e-17 6.02756e-17 0)
(-1.12816e-16 8.98371e-17 0)
(-1.34753e-16 9.57652e-17 0)
(-1.49889e-16 7.7366e-17 0)
(-1.48449e-16 4.03257e-17 0)
(-1.2525e-16 -7.11983e-18 0)
(-9.35048e-17 -5.35032e-17 0)
(-6.82786e-17 -8.49437e-17 0)
(-5.4295e-17 -8.89874e-17 0)
(-5.01522e-17 -6.38786e-17 0)
(-6.09932e-17 -1.72251e-17 0)
(-9.17286e-17 3.96482e-17 0)
(-1.32638e-16 9.30353e-17 0)
(-1.64154e-16 1.28492e-16 0)
(-1.77365e-16 1.31076e-16 0)
(-1.6871e-16 9.86587e-17 0)
(-1.42871e-16 3.83058e-17 0)
(-9.61106e-17 -3.23959e-17 0)
(-4.36385e-17 -9.91707e-17 0)
(5.79558e-18 -1.39075e-16 0)
(1.887e-17 -1.43296e-16 0)
(1.18436e-17 -1.02874e-16 0)
(-3.674e-17 -3.31835e-17 0)
(-8.36173e-17 4.75707e-17 0)
(-1.58602e-16 1.14336e-16 0)
(-1.78119e-16 1.40654e-16 0)
(-1.99854e-16 1.28047e-16 0)
(-1.20348e-16 7.12383e-17 0)
(-7.83302e-17 1.20793e-17 0)
(3.35512e-17 -2.36907e-17 0)
(1.24127e-16 -1.01385e-17 0)
(2.11183e-16 -4.97724e-16 0)
(3.684e-16 -2.96301e-16 0)
(2.53161e-16 -1.47231e-16 0)
(1.52771e-16 5.04302e-17 0)
(5.42581e-17 2.42286e-16 0)
(-9.17207e-17 3.80324e-16 0)
(-2.08098e-16 4.24763e-16 0)
(-2.61968e-16 3.79163e-16 0)
(-2.51062e-16 2.65928e-16 0)
(-1.90254e-16 1.13802e-16 0)
(-1.01487e-16 -3.84516e-17 0)
(-1.03446e-17 -1.57117e-16 0)
(7.14861e-17 -2.19152e-16 0)
(1.2375e-16 -2.22462e-16 0)
(1.35698e-16 -1.70693e-16 0)
(1.0329e-16 -8.21083e-17 0)
(4.6331e-17 2.1384e-17 0)
(-1.89327e-17 1.14423e-16 0)
(-8.35524e-17 1.77111e-16 0)
(-1.41329e-16 1.99215e-16 0)
(-1.75541e-16 1.83084e-16 0)
(-1.76998e-16 1.35618e-16 0)
(-1.52964e-16 6.87792e-17 0)
(-1.19853e-16 8.04405e-19 0)
(-8.72438e-17 -4.8672e-17 0)
(-5.54148e-17 -6.97166e-17 0)
(-3.39895e-17 -6.30798e-17 0)
(-3.56922e-17 -3.21153e-17 0)
(-6.12788e-17 1.50407e-17 0)
(-9.53899e-17 6.47261e-17 0)
(-1.25721e-16 9.95069e-17 0)
(-1.50937e-16 1.07615e-16 0)
(-1.68446e-16 8.8618e-17 0)
(-1.67312e-16 4.85491e-17 0)
(-1.41782e-16 -3.94535e-18 0)
(-1.06328e-16 -5.63874e-17 0)
(-7.75751e-17 -9.27392e-17 0)
(-6.10048e-17 -9.88931e-17 0)
(-5.54906e-17 -7.2637e-17 0)
(-6.6996e-17 -2.12159e-17 0)
(-1.00999e-16 4.11829e-17 0)
(-1.46756e-16 1.01314e-16 0)
(-1.82717e-16 1.41978e-16 0)
(-1.98702e-16 1.46445e-16 0)
(-1.90364e-16 1.11878e-16 0)
(-1.6236e-16 4.51674e-17 0)
(-1.10518e-16 -3.39425e-17 0)
(-5.14473e-17 -1.09125e-16 0)
(4.7409e-18 -1.54704e-16 0)
(2.12835e-17 -1.60766e-16 0)
(1.50968e-17 -1.1747e-16 0)
(-3.75262e-17 -4.01782e-17 0)
(-8.97698e-17 4.96383e-17 0)
(-1.73643e-16 1.258e-16 0)
(-1.97525e-16 1.57014e-16 0)
(-2.23002e-16 1.44844e-16 0)
(-1.36981e-16 8.22927e-17 0)
(-8.94789e-17 1.62168e-17 0)
(3.54514e-17 -2.56041e-17 0)
(1.35047e-16 -9.17357e-18 0)
(2.33006e-16 -5.39637e-16 0)
(4.0887e-16 -3.4343e-16 0)
(2.8465e-16 -1.83744e-16 0)
(1.74625e-16 3.55982e-17 0)
(6.43069e-17 2.54451e-16 0)
(-9.8841e-17 4.16817e-16 0)
(-2.29987e-16 4.75303e-16 0)
(-2.91903e-16 4.32492e-16 0)
(-2.81589e-16 3.11579e-16 0)
(-2.15077e-16 1.4205e-16 0)
(-1.16565e-16 -2.77143e-17 0)
(-1.44658e-17 -1.6517e-16 0)
(7.76134e-17 -2.3997e-16 0)
(1.3699e-16 -2.49909e-16 0)
(1.51522e-16 -1.96767e-16 0)
(1.16659e-16 -1.01082e-16 0)
(5.39171e-17 1.48187e-17 0)
(-1.87922e-17 1.20826e-16 0)
(-9.12346e-17 1.93386e-16 0)
(-1.56109e-16 2.21979e-16 0)
(-1.94883e-16 2.0814e-16 0)
(-1.97375e-16 1.57813e-16 0)
(-1.71371e-16 8.44101e-17 0)
(-1.34702e-16 7.65244e-18 0)
(-9.80231e-17 -4.90331e-17 0)
(-6.21411e-17 -7.5099e-17 0)
(-3.78396e-17 -6.98828e-17 0)
(-3.91181e-17 -3.77354e-17 0)
(-6.69225e-17 1.345e-17 0)
(-1.04636e-16 6.89928e-17 0)
(-1.3877e-16 1.08942e-16 0)
(-1.67491e-16 1.19725e-16 0)
(-1.87554e-16 1.0046e-16 0)
(-1.86853e-16 5.75958e-17 0)
(-1.5906e-16 2.28845e-19 0)
(-1.1985e-16 -5.85113e-17 0)
(-8.73826e-17 -1.00118e-16 0)
(-6.79601e-17 -1.08994e-16 0)
(-6.08311e-17 -8.17133e-17 0)
(-7.28643e-17 -2.62781e-17 0)
(-1.10104e-16 4.19882e-17 0)
(-1.60798e-16 1.09245e-16 0)
(-2.01462e-16 1.55231e-16 0)
(-2.20569e-16 1.62069e-16 0)
(-2.12885e-16 1.25433e-16 0)
(-1.8291e-16 5.30985e-17 0)
(-1.26011e-16 -3.41967e-17 0)
(-6.01313e-17 -1.18181e-16 0)
(3.17858e-18 -1.69989e-16 0)
(2.36902e-17 -1.78639e-16 0)
(1.87927e-17 -1.32768e-16 0)
(-3.75434e-17 -4.8097e-17 0)
(-9.51569e-17 5.08135e-17 0)
(-1.88082e-16 1.36477e-16 0)
(-2.16866e-16 1.73762e-16 0)
(-2.46497e-16 1.6211e-16 0)
(-1.5446e-16 9.45265e-17 0)
(-1.01359e-16 2.12096e-17 0)
(3.68834e-17 -2.72088e-17 0)
(1.45512e-16 -7.87298e-18 0)
(2.54606e-16 -5.81397e-16 0)
(4.49741e-16 -3.93217e-16 0)
(3.17509e-16 -2.24652e-16 0)
(1.98113e-16 1.66423e-17 0)
(7.57262e-17 2.63064e-16 0)
(-1.052e-16 4.51627e-16 0)
(-2.51899e-16 5.25515e-16 0)
(-3.22552e-16 4.87561e-16 0)
(-3.13369e-16 3.60151e-16 0)
(-2.41309e-16 1.74353e-16 0)
(-1.32906e-16 -1.39011e-17 0)
(-1.95179e-17 -1.70192e-16 0)
(8.3299e-17 -2.59708e-16 0)
(1.50275e-16 -2.77094e-16 0)
(1.67786e-16 -2.24272e-16 0)
(1.30724e-16 -1.21145e-16 0)
(6.22556e-17 6.34123e-18 0)
(-1.81151e-17 1.25735e-16 0)
(-9.87004e-17 2.08776e-16 0)
(-1.7096e-16 2.44782e-16 0)
(-2.14604e-16 2.33643e-16 0)
(-2.18396e-16 1.81219e-16 0)
(-1.90573e-16 1.01183e-16 0)
(-1.50303e-16 1.58913e-17 0)
(-1.09385e-16 -4.81641e-17 0)
(-6.92516e-17 -7.98089e-17 0)
(-4.18827e-17 -7.68654e-17 0)
(-4.25852e-17 -4.38804e-17 0)
(-7.24942e-17 1.13e-17 0)
(-1.1384e-16 7.28656e-17 0)
(-1.5195e-16 1.18002e-16 0)
(-1.84392e-16 1.32002e-16 0)
(-2.0721e-16 1.13022e-16 0)
(-2.07084e-16 6.75197e-17 0)
(-1.77119e-16 5.31995e-18 0)
(-1.3411e-16 -6.01447e-17 0)
(-9.77374e-17 -1.06949e-16 0)
(-7.51875e-17 -1.19099e-16 0)
(-6.61943e-17 -9.1277e-17 0)
(-7.8595e-17 -3.25463e-17 0)
(-1.18998e-16 4.19726e-17 0)
(-1.74731e-16 1.1666e-16 0)
(-2.20373e-16 1.68221e-16 0)
(-2.42962e-16 1.77772e-16 0)
(-2.3628e-16 1.39613e-16 0)
(-2.04545e-16 6.20174e-17 0)
(-1.4265e-16 -3.32004e-17 0)
(-6.97667e-17 -1.26292e-16 0)
(1.03102e-18 -1.85034e-16 0)
(2.60548e-17 -1.97303e-16 0)
(2.29314e-17 -1.48885e-16 0)
(-3.67559e-17 -5.76927e-17 0)
(-9.97167e-17 5.09269e-17 0)
(-2.01835e-16 1.45932e-16 0)
(-2.36063e-16 1.90643e-16 0)
(-2.70304e-16 1.79878e-16 0)
(-1.72796e-16 1.07923e-16 0)
(-1.14025e-16 2.70845e-17 0)
(3.78026e-17 -2.81668e-17 0)
(1.555e-16 -6.15817e-18 0)
(2.75907e-16 -6.22591e-16 0)
(4.90875e-16 -4.44831e-16 0)
(3.51733e-16 -2.71185e-16 0)
(2.23338e-16 -7.89987e-18 0)
(8.86369e-17 2.67378e-16 0)
(-1.10641e-16 4.8381e-16 0)
(-2.73697e-16 5.75141e-16 0)
(-3.53837e-16 5.44174e-16 0)
(-3.46365e-16 4.1149e-16 0)
(-2.69015e-16 2.11701e-16 0)
(-1.5062e-16 2.8184e-18 0)
(-2.5594e-17 -1.72407e-16 0)
(8.84438e-17 -2.78034e-16 0)
(1.63523e-16 -3.03446e-16 0)
(1.84459e-16 -2.52531e-16 0)
(1.45492e-16 -1.42636e-16 0)
(7.13383e-17 -4.1472e-18 0)
(-1.68335e-17 1.27701e-16 0)
(-1.05861e-16 2.23288e-16 0)
(-1.85853e-16 2.67324e-16 0)
(-2.34686e-16 2.59433e-16 0)
(-2.40058e-16 2.05436e-16 0)
(-2.10577e-16 1.19404e-16 0)
(-1.66683e-16 2.60863e-17 0)
(-1.21376e-16 -4.60732e-17 0)
(-7.67974e-17 -8.37514e-17 0)
(-4.61584e-17 -8.38705e-17 0)
(-4.60962e-17 -5.02941e-17 0)
(-7.79902e-17 8.67054e-18 0)
(-1.22991e-16 7.58874e-17 0)
(-1.65234e-16 1.26775e-16 0)
(-2.01619e-16 1.44336e-16 0)
(-2.27406e-16 1.26254e-16 0)
(-2.28024e-16 7.84793e-17 0)
(-1.95995e-16 1.11888e-17 0)
(-1.49143e-16 -6.08216e-17 0)
(-1.08669e-16 -1.13187e-16 0)
(-8.27264e-17 -1.28935e-16 0)
(-7.16059e-17 -1.01321e-16 0)
(-8.41776e-17 -3.97998e-17 0)
(-1.27654e-16 4.11551e-17 0)
(-1.8852e-16 1.22819e-16 0)
(-2.39416e-16 1.81009e-16 0)
(-2.65858e-16 1.93674e-16 0)
(-2.6056e-16 1.55186e-16 0)
(-2.27311e-16 7.22195e-17 0)
(-1.60495e-16 -3.09825e-17 0)
(-8.04403e-17 -1.33321e-16 0)
(-1.79001e-18 -1.99981e-16 0)
(2.83268e-17 -2.1668e-16 0)
(2.7499e-17 -1.66457e-16 0)
(-3.51287e-17 -6.94152e-17 0)
(-1.03373e-16 4.93769e-17 0)
(-2.1481e-16 1.54186e-16 0)
(-2.5503e-16 2.06874e-16 0)
(-2.94381e-16 1.98178e-16 0)
(-1.9199e-16 1.21963e-16 0)
(-1.27514e-16 3.39421e-17 0)
(3.81591e-17 -2.8932e-17 0)
(1.64993e-16 -4.1011e-18 0)
(2.96841e-16 -6.62622e-16 0)
(5.32092e-16 -4.98196e-16 0)
(3.87221e-16 -3.22596e-16 0)
(2.50418e-16 -3.86933e-17 0)
(1.03242e-16 2.66331e-16 0)
(-1.14997e-16 5.13101e-16 0)
(-2.95239e-16 6.2387e-16 0)
(-3.85672e-16 6.02403e-16 0)
(-3.80526e-16 4.65545e-16 0)
(-2.98246e-16 2.53496e-16 0)
(-1.69839e-16 2.32996e-17 0)
(-3.28044e-17 -1.71792e-16 0)
(9.29585e-17 -2.94665e-16 0)
(1.76667e-16 -3.29433e-16 0)
(2.0147e-16 -2.81059e-16 0)
(1.60949e-16 -1.66688e-16 0)
(8.11818e-17 -1.63406e-17 0)
(-1.48895e-17 1.27682e-16 0)
(-1.12626e-16 2.36322e-16 0)
(-2.00729e-16 2.8943e-16 0)
(-2.55096e-16 2.85941e-16 0)
(-2.62341e-16 2.30876e-16 0)
(-2.31382e-16 1.39695e-16 0)
(-1.83887e-16 3.84879e-17 0)
(-1.3406e-16 -4.23832e-17 0)
(-8.48257e-17 -8.681e-17 0)
(-5.06967e-17 -9.05575e-17 0)
(-4.9672e-17 -5.67383e-17 0)
(-8.34231e-17 5.20702e-18 0)
(-1.32067e-16 7.8064e-17 0)
(-1.78592e-16 1.35122e-16 0)
(-2.19149e-16 1.56681e-16 0)
(-2.48123e-16 1.40038e-16 0)
(-2.49686e-16 9.058e-17 0)
(-2.15709e-16 1.80904e-17 0)
(-1.64983e-16 -5.99364e-17 0)
(-1.20229e-16 -1.18716e-16 0)
(-9.06117e-17 -1.38576e-16 0)
(-7.70959e-17 -1.1157e-16 0)
(-8.96113e-17 -4.78306e-17 0)
(-1.36065e-16 3.93586e-17 0)
(-2.02125e-16 1.2758e-16 0)
(-2.58531e-16 1.92967e-16 0)
(-2.89216e-16 2.09634e-16 0)
(-2.85715e-16 1.71894e-16 0)
(-2.51259e-16 8.36862e-17 0)
(-1.79615e-16 -2.74576e-17 0)
(-9.22405e-17 -1.39213e-16 0)
(-5.37775e-18 -2.14384e-16 0)
(3.04365e-17 -2.36347e-16 0)
(3.24614e-17 -1.85333e-16 0)
(-3.26305e-17 -8.30978e-17 0)
(-1.06041e-16 4.57809e-17 0)
(-2.26924e-16 1.61017e-16 0)
(-2.73672e-16 2.22042e-16 0)
(-3.18671e-16 2.16686e-16 0)
(-2.12044e-16 1.36706e-16 0)
(-1.41879e-16 4.18564e-17 0)
(3.78978e-17 -2.9846e-17 0)
(1.73987e-16 -1.84613e-18 0)
(3.173e-16 -7.01038e-16 0)
(5.73238e-16 -5.53894e-16 0)
(4.23927e-16 -3.78012e-16 0)
(2.7938e-16 -7.40902e-17 0)
(1.19695e-16 2.59709e-16 0)
(-1.18052e-16 5.37964e-16 0)
(-3.16347e-16 6.70858e-16 0)
(-4.1795e-16 6.62005e-16 0)
(-4.15833e-16 5.22355e-16 0)
(-3.29027e-16 2.98682e-16 0)
(-1.90658e-16 4.82616e-17 0)
(-4.12816e-17 -1.67649e-16 0)
(9.67042e-17 -3.08668e-16 0)
(1.89622e-16 -3.55682e-16 0)
(2.1875e-16 -3.10367e-16 0)
(1.77087e-16 -1.9287e-16 0)
(9.18714e-17 -3.06242e-17 0)
(-1.22489e-17 1.26156e-16 0)
(-1.18947e-16 2.4766e-16 0)
(-2.15502e-16 3.11156e-16 0)
(-2.75783e-16 3.13087e-16 0)
(-2.8523e-16 2.57924e-16 0)
(-2.52998e-16 1.61954e-16 0)
(-2.01959e-16 5.28411e-17 0)
(-1.47497e-16 -3.69735e-17 0)
(-9.33974e-17 -8.86176e-17 0)
(-5.55386e-17 -9.68667e-17 0)
(-5.33493e-17 -6.3509e-17 0)
(-8.88008e-17 1.14705e-18 0)
(-1.41043e-16 7.94697e-17 0)
(-1.91994e-16 1.4295e-16 0)
(-2.36953e-16 1.69029e-16 0)
(-2.69341e-16 1.54306e-16 0)
(-2.7207e-16 1.03651e-16 0)
(-2.36276e-16 2.66454e-17 0)
(-1.81674e-16 -5.7523e-17 0)
(-1.32482e-16 -1.23303e-16 0)
(-9.88837e-17 -1.48068e-16 0)
(-8.26843e-17 -1.22276e-16 0)
(-9.49092e-17 -5.65564e-17 0)
(-1.44219e-16 3.62382e-17 0)
(-2.15526e-16 1.31514e-16 0)
(-2.77673e-16 2.03664e-16 0)
(-3.12984e-16 2.25548e-16 0)
(-3.11741e-16 1.89183e-16 0)
(-2.76418e-16 9.62336e-17 0)
(-2.00068e-16 -2.23095e-17 0)
(-1.05246e-16 -1.43774e-16 0)
(-9.81744e-18 -2.27617e-16 0)
(3.2305e-17 -2.55902e-16 0)
(3.77796e-17 -2.05019e-16 0)
(-2.92587e-17 -9.8386e-17 0)
(-1.07663e-16 4.04684e-17 0)
(-2.3808e-16 1.66176e-16 0)
(-2.91893e-16 2.36306e-16 0)
(-3.43097e-16 2.35035e-16 0)
(-2.3293e-16 1.52404e-16 0)
(-1.57175e-16 5.0859e-17 0)
(3.69562e-17 -3.02695e-17 0)
(1.82474e-16 6.56475e-19 0)
(3.37154e-16 -7.37065e-16 0)
(6.14118e-16 -6.10759e-16 0)
(4.61832e-16 -4.37962e-16 0)
(3.10298e-16 -1.13991e-16 0)
(1.38071e-16 2.48934e-16 0)
(-1.19642e-16 5.58098e-16 0)
(-3.36789e-16 7.14875e-16 0)
(-4.50519e-16 7.21646e-16 0)
(-4.52257e-16 5.81755e-16 0)
(-3.61376e-16 3.47035e-16 0)
(-2.13139e-16 7.77853e-17 0)
(-5.11401e-17 -1.59501e-16 0)
(9.95132e-17 -3.19665e-16 0)
(2.02236e-16 -3.81076e-16 0)
(2.36264e-16 -3.40703e-16 0)
(1.93892e-16 -2.2011e-16 0)
(1.03424e-16 -4.8252e-17 0)
(-8.83858e-18 1.21919e-16 0)
(-1.24739e-16 2.57454e-16 0)
(-2.301e-16 3.3233e-16 0)
(-2.96688e-16 3.40513e-16 0)
(-3.087e-16 2.86287e-16 0)
(-2.75451e-16 1.85711e-16 0)
(-2.20937e-16 6.88564e-17 0)
(-1.61728e-16 -2.99573e-17 0)
(-1.0257e-16 -8.916e-17 0)
(-6.07514e-17 -1.02761e-16 0)
(-5.71447e-17 -7.07365e-17 0)
(-9.41215e-17 -3.01567e-18 0)
(-1.49913e-16 8.01603e-17 0)
(-2.05406e-16 1.50241e-16 0)
(-2.55001e-16 1.81365e-16 0)
(-2.91044e-16 1.69067e-16 0)
(-2.95155e-16 1.17634e-16 0)
(-2.57713e-16 3.69842e-17 0)
(-1.99272e-16 -5.38585e-17 0)
(-1.4549e-16 -1.26968e-16 0)
(-1.07608e-16 -1.57116e-16 0)
(-8.84031e-17 -1.33884e-16 0)
(-1.00079e-16 -6.63503e-17 0)
(-1.52088e-16 3.14268e-17 0)
(-2.28683e-16 1.34251e-16 0)
(-2.96803e-16 2.1356e-16 0)
(-3.37111e-16 2.41441e-16 0)
(-3.38622e-16 2.07005e-16 0)
(-3.02795e-16 1.10566e-16 0)