/*--------------------------------*- C++ -*----------------------------------*\
| =========                 |                                                 |
| \\      /  F ield         | foam-extend: Open Source CFD                    |
|  \\    /   O peration     | Version:     4.0                                |
|   \\  /    A nd           | Web:         http://www.foam-extend.org         |
|    \\/     M anipulation  |                                                 |
\*---------------------------------------------------------------------------*/
FoamFile
{
    version     2.0;
    format      ascii;
    class       volScalarField;
    location    "1420";
    object      cMinus;
}
// * * * * * * * * * * * * * * * * * * * * * * * * * * * * * * * * * * * * * //

dimensions      [0 0 0 0 0 0 0];

internalField   nonuniform List<scalar> 
6960
(
2.76034e-22
2.75962e-22
2.75663e-22
2.75395e-22
2.7518e-22
2.75015e-22
2.7489e-22
2.74796e-22
2.74724e-22
2.74671e-22
2.7463e-22
2.74598e-22
2.74574e-22
2.74555e-22
2.7454e-22
2.74528e-22
2.74518e-22
2.74511e-22
2.74505e-22
2.745e-22
2.74496e-22
2.74493e-22
2.74491e-22
2.74489e-22
2.74487e-22
2.74486e-22
2.74485e-22
2.74484e-22
2.74484e-22
2.74484e-22
2.74484e-22
2.74484e-22
2.74484e-22
2.74485e-22
2.74486e-22
2.74487e-22
2.74489e-22
2.74491e-22
2.74493e-22
2.74496e-22
2.745e-22
2.74505e-22
2.74511e-22
2.74518e-22
2.74528e-22
2.7454e-22
2.74555e-22
2.74574e-22
2.74598e-22
2.7463e-22
2.74671e-22
2.74724e-22
2.74796e-22
2.7489e-22
2.75015e-22
2.7518e-22
2.75395e-22
2.75663e-22
2.75962e-22
2.76034e-22
1.17127e-21
1.17123e-21
1.17021e-21
1.16927e-21
1.16851e-21
1.16792e-21
1.16747e-21
1.16712e-21
1.16686e-21
1.16666e-21
1.1665e-21
1.16638e-21
1.16629e-21
1.16621e-21
1.16615e-21
1.16611e-21
1.16607e-21
1.16604e-21
1.16602e-21
1.166e-21
1.16598e-21
1.16597e-21
1.16596e-21
1.16595e-21
1.16595e-21
1.16594e-21
1.16594e-21
1.16594e-21
1.16593e-21
1.16593e-21
1.16593e-21
1.16593e-21
1.16594e-21
1.16594e-21
1.16594e-21
1.16595e-21
1.16595e-21
1.16596e-21
1.16597e-21
1.16598e-21
1.166e-21
1.16602e-21
1.16604e-21
1.16607e-21
1.16611e-21
1.16615e-21
1.16621e-21
1.16629e-21
1.16638e-21
1.1665e-21
1.16666e-21
1.16686e-21
1.16712e-21
1.16747e-21
1.16792e-21
1.16851e-21
1.16927e-21
1.17021e-21
1.17123e-21
1.17127e-21
4.66542e-21
4.66648e-21
4.66361e-21
4.66079e-21
4.65845e-21
4.6566e-21
4.65515e-21
4.65402e-21
4.65314e-21
4.65246e-21
4.65193e-21
4.65151e-21
4.65118e-21
4.65091e-21
4.6507e-21
4.65053e-21
4.65039e-21
4.65028e-21
4.65019e-21
4.65012e-21
4.65007e-21
4.65002e-21
4.64998e-21
4.64996e-21
4.64993e-21
4.64992e-21
4.6499e-21
4.64989e-21
4.64989e-21
4.64989e-21
4.64989e-21
4.64989e-21
4.64989e-21
4.6499e-21
4.64992e-21
4.64993e-21
4.64996e-21
4.64998e-21
4.65002e-21
4.65007e-21
4.65012e-21
4.65019e-21
4.65028e-21
4.65039e-21
4.65053e-21
4.6507e-21
4.65091e-21
4.65118e-21
4.65151e-21
4.65193e-21
4.65246e-21
4.65314e-21
4.65402e-21
4.65515e-21
4.6566e-21
4.65845e-21
4.66079e-21
4.66361e-21
4.66648e-21
4.66542e-21
1.87525e-20
1.87619e-20
1.87555e-20
1.87482e-20
1.87418e-20
1.87365e-20
1.87322e-20
1.87288e-20
1.8726e-20
1.87238e-20
1.8722e-20
1.87206e-20
1.87194e-20
1.87185e-20
1.87178e-20
1.87172e-20
1.87167e-20
1.87163e-20
1.87159e-20
1.87157e-20
1.87155e-20
1.87153e-20
1.87151e-20
1.8715e-20
1.8715e-20
1.87149e-20
1.87148e-20
1.87148e-20
1.87148e-20
1.87148e-20
1.87148e-20
1.87148e-20
1.87148e-20
1.87148e-20
1.87149e-20
1.8715e-20
1.8715e-20
1.87151e-20
1.87153e-20
1.87155e-20
1.87157e-20
1.87159e-20
1.87163e-20
1.87167e-20
1.87172e-20
1.87178e-20
1.87185e-20
1.87194e-20
1.87206e-20
1.8722e-20
1.87238e-20
1.8726e-20
1.87288e-20
1.87322e-20
1.87365e-20
1.87418e-20
1.87482e-20
1.87555e-20
1.87619e-20
1.87525e-20
7.74503e-20
7.75119e-20
7.75069e-20
7.74941e-20
7.74807e-20
7.74683e-20
7.74572e-20
7.74477e-20
7.74396e-20
7.74328e-20
7.74271e-20
7.74223e-20
7.74184e-20
7.74151e-20
7.74124e-20
7.74102e-20
7.74084e-20
7.74069e-20
7.74057e-20
7.74047e-20
7.74039e-20
7.74033e-20
7.74028e-20
7.74024e-20
7.74021e-20
7.74018e-20
7.74016e-20
7.74015e-20
7.74014e-20
7.74014e-20
7.74014e-20
7.74014e-20
7.74015e-20
7.74016e-20
7.74018e-20
7.74021e-20
7.74024e-20
7.74028e-20
7.74033e-20
7.74039e-20
7.74047e-20
7.74057e-20
7.74069e-20
7.74084e-20
7.74102e-20
7.74124e-20
7.74151e-20
7.74184e-20
7.74223e-20
7.74271e-20
7.74328e-20
7.74396e-20
7.74477e-20
7.74572e-20
7.74683e-20
7.74807e-20
7.74941e-20
7.75069e-20
7.75119e-20
7.74503e-20
3.30213e-19
3.30573e-19
3.30648e-19
3.3067e-19
3.3067e-19
3.30658e-19
3.3064e-19
3.3062e-19
3.306e-19
3.30581e-19
3.30564e-19
3.30549e-19
3.30535e-19
3.30524e-19
3.30515e-19
3.30506e-19
3.305e-19
3.30494e-19
3.3049e-19
3.30486e-19
3.30483e-19
3.3048e-19
3.30478e-19
3.30477e-19
3.30476e-19
3.30475e-19
3.30474e-19
3.30474e-19
3.30473e-19
3.30473e-19
3.30473e-19
3.30473e-19
3.30474e-19
3.30474e-19
3.30475e-19
3.30476e-19
3.30477e-19
3.30478e-19
3.3048e-19
3.30483e-19
3.30486e-19
3.3049e-19
3.30494e-19
3.305e-19
3.30506e-19
3.30515e-19
3.30524e-19
3.30535e-19
3.30549e-19
3.30564e-19
3.30581e-19
3.306e-19
3.3062e-19
3.3064e-19
3.30658e-19
3.3067e-19
3.3067e-19
3.30648e-19
3.30573e-19
3.30213e-19
1.45482e-18
1.45685e-18
1.4576e-18
1.45804e-18
1.4583e-18
1.45844e-18
1.45849e-18
1.4585e-18
1.45847e-18
1.45844e-18
1.45839e-18
1.45835e-18
1.45831e-18
1.45827e-18
1.45823e-18
1.4582e-18
1.45818e-18
1.45816e-18
1.45814e-18
1.45813e-18
1.45812e-18
1.45811e-18
1.4581e-18
1.45809e-18
1.45809e-18
1.45808e-18
1.45808e-18
1.45808e-18
1.45808e-18
1.45808e-18
1.45808e-18
1.45808e-18
1.45808e-18
1.45808e-18
1.45808e-18
1.45809e-18
1.45809e-18
1.4581e-18
1.45811e-18
1.45812e-18
1.45813e-18
1.45814e-18
1.45816e-18
1.45818e-18
1.4582e-18
1.45823e-18
1.45827e-18
1.45831e-18
1.45835e-18
1.45839e-18
1.45844e-18
1.45847e-18
1.4585e-18
1.45849e-18
1.45844e-18
1.4583e-18
1.45804e-18
1.4576e-18
1.45685e-18
1.45482e-18
6.62266e-18
6.63391e-18
6.63936e-18
6.64296e-18
6.64532e-18
6.64681e-18
6.64768e-18
6.64814e-18
6.64834e-18
6.64838e-18
6.64834e-18
6.64824e-18
6.64812e-18
6.648e-18
6.64789e-18
6.64778e-18
6.64769e-18
6.64761e-18
6.64754e-18
6.64749e-18
6.64744e-18
6.6474e-18
6.64737e-18
6.64735e-18
6.64733e-18
6.64732e-18
6.64731e-18
6.6473e-18
6.6473e-18
6.6473e-18
6.6473e-18
6.6473e-18
6.6473e-18
6.64731e-18
6.64732e-18
6.64733e-18
6.64735e-18
6.64737e-18
6.6474e-18
6.64744e-18
6.64749e-18
6.64754e-18
6.64761e-18
6.64769e-18
6.64778e-18
6.64789e-18
6.648e-18
6.64812e-18
6.64824e-18
6.64834e-18
6.64838e-18
6.64834e-18
6.64814e-18
6.64768e-18
6.64681e-18
6.64532e-18
6.64296e-18
6.63936e-18
6.63391e-18
6.62266e-18
3.11332e-17
3.11957e-17
3.12309e-17
3.12555e-17
3.12723e-17
3.12834e-17
3.12905e-17
3.12947e-17
3.12972e-17
3.12984e-17
3.12989e-17
3.12989e-17
3.12988e-17
3.12984e-17
3.12981e-17
3.12977e-17
3.12974e-17
3.12971e-17
3.12969e-17
3.12966e-17
3.12965e-17
3.12963e-17
3.12962e-17
3.12961e-17
3.1296e-17
3.1296e-17
3.12959e-17
3.12959e-17
3.12959e-17
3.12959e-17
3.12959e-17
3.12959e-17
3.12959e-17
3.12959e-17
3.1296e-17
3.1296e-17
3.12961e-17
3.12962e-17
3.12963e-17
3.12965e-17
3.12966e-17
3.12969e-17
3.12971e-17
3.12974e-17
3.12977e-17
3.12981e-17
3.12984e-17
3.12988e-17
3.12989e-17
3.12989e-17
3.12984e-17
3.12972e-17
3.12947e-17
3.12905e-17
3.12834e-17
3.12723e-17
3.12555e-17
3.12309e-17
3.11957e-17
3.11332e-17
1.51004e-16
1.51355e-16
1.51572e-16
1.51729e-16
1.51838e-16
1.51913e-16
1.51962e-16
1.51993e-16
1.52012e-16
1.52023e-16
1.52029e-16
1.52031e-16
1.52032e-16
1.52032e-16
1.52031e-16
1.5203e-16
1.52029e-16
1.52028e-16
1.52027e-16
1.52026e-16
1.52026e-16
1.52025e-16
1.52025e-16
1.52024e-16
1.52024e-16
1.52024e-16
1.52024e-16
1.52024e-16
1.52024e-16
1.52023e-16
1.52023e-16
1.52024e-16
1.52024e-16
1.52024e-16
1.52024e-16
1.52024e-16
1.52024e-16
1.52025e-16
1.52025e-16
1.52026e-16
1.52026e-16
1.52027e-16
1.52028e-16
1.52029e-16
1.5203e-16
1.52031e-16
1.52032e-16
1.52032e-16
1.52031e-16
1.52029e-16
1.52023e-16
1.52012e-16
1.51993e-16
1.51962e-16
1.51913e-16
1.51838e-16
1.51729e-16
1.51572e-16
1.51355e-16
1.51004e-16
7.54695e-16
7.56681e-16
7.58003e-16
7.58975e-16
7.59665e-16
7.6014e-16
7.60458e-16
7.60665e-16
7.60796e-16
7.60877e-16
7.60924e-16
7.60951e-16
7.60965e-16
7.6097e-16
7.60971e-16
7.6097e-16
7.60967e-16
7.60964e-16
7.60961e-16
7.60958e-16
7.60955e-16
7.60953e-16
7.60952e-16
7.6095e-16
7.60949e-16
7.60948e-16
7.60948e-16
7.60947e-16
7.60947e-16
7.60947e-16
7.60947e-16
7.60947e-16
7.60947e-16
7.60948e-16
7.60948e-16
7.60949e-16
7.6095e-16
7.60952e-16
7.60953e-16
7.60955e-16
7.60958e-16
7.60961e-16
7.60964e-16
7.60967e-16
7.6097e-16
7.60971e-16
7.6097e-16
7.60965e-16
7.60951e-16
7.60924e-16
7.60877e-16
7.60796e-16
7.60665e-16
7.60458e-16
7.6014e-16
7.59665e-16
7.58975e-16
7.58003e-16
7.56681e-16
7.54695e-16
3.87993e-15
3.89135e-15
3.89936e-15
3.90533e-15
3.90961e-15
3.91259e-15
3.9146e-15
3.91593e-15
3.9168e-15
3.91734e-15
3.91768e-15
3.91789e-15
3.918e-15
3.91807e-15
3.9181e-15
3.91811e-15
3.91811e-15
3.9181e-15
3.91809e-15
3.91808e-15
3.91808e-15
3.91807e-15
3.91806e-15
3.91806e-15
3.91805e-15
3.91805e-15
3.91805e-15
3.91805e-15
3.91805e-15
3.91805e-15
3.91805e-15
3.91805e-15
3.91805e-15
3.91805e-15
3.91805e-15
3.91805e-15
3.91806e-15
3.91806e-15
3.91807e-15
3.91808e-15
3.91808e-15
3.91809e-15
3.9181e-15
3.91811e-15
3.91811e-15
3.9181e-15
3.91807e-15
3.918e-15
3.91789e-15
3.91768e-15
3.91734e-15
3.9168e-15
3.91593e-15
3.9146e-15
3.91259e-15
3.90961e-15
3.90533e-15
3.89936e-15
3.89135e-15
3.87993e-15
2.04731e-14
2.05397e-14
2.05884e-14
2.0625e-14
2.06514e-14
2.06699e-14
2.06825e-14
2.0691e-14
2.06965e-14
2.07001e-14
2.07024e-14
2.07038e-14
2.07047e-14
2.07052e-14
2.07055e-14
2.07056e-14
2.07057e-14
2.07057e-14
2.07057e-14
2.07057e-14
2.07057e-14
2.07057e-14
2.07057e-14
2.07057e-14
2.07056e-14
2.07056e-14
2.07056e-14
2.07056e-14
2.07056e-14
2.07056e-14
2.07056e-14
2.07056e-14
2.07056e-14
2.07056e-14
2.07056e-14
2.07056e-14
2.07057e-14
2.07057e-14
2.07057e-14
2.07057e-14
2.07057e-14
2.07057e-14
2.07057e-14
2.07057e-14
2.07056e-14
2.07055e-14
2.07052e-14
2.07047e-14
2.07038e-14
2.07024e-14
2.07001e-14
2.06965e-14
2.0691e-14
2.06825e-14
2.06699e-14
2.06514e-14
2.0625e-14
2.05884e-14
2.05397e-14
2.04731e-14
1.10569e-13
1.10962e-13
1.11259e-13
1.11484e-13
1.11647e-13
1.11762e-13
1.11841e-13
1.11894e-13
1.1193e-13
1.11953e-13
1.11968e-13
1.11977e-13
1.11983e-13
1.11987e-13
1.11989e-13
1.11991e-13
1.11991e-13
1.11992e-13
1.11992e-13
1.11992e-13
1.11992e-13
1.11992e-13
1.11992e-13
1.11992e-13
1.11992e-13
1.11992e-13
1.11992e-13
1.11992e-13
1.11992e-13
1.11992e-13
1.11992e-13
1.11992e-13
1.11992e-13
1.11992e-13
1.11992e-13
1.11992e-13
1.11992e-13
1.11992e-13
1.11992e-13
1.11992e-13
1.11992e-13
1.11992e-13
1.11992e-13
1.11991e-13
1.11991e-13
1.11989e-13
1.11987e-13
1.11983e-13
1.11977e-13
1.11968e-13
1.11953e-13
1.1193e-13
1.11894e-13
1.11841e-13
1.11762e-13
1.11647e-13
1.11484e-13
1.11259e-13
1.10962e-13
1.10569e-13
6.09065e-13
6.11416e-13
6.13234e-13
6.14621e-13
6.15631e-13
6.16344e-13
6.16836e-13
6.1717e-13
6.17393e-13
6.17541e-13
6.17637e-13
6.177e-13
6.1774e-13
6.17766e-13
6.17783e-13
6.17793e-13
6.17799e-13
6.17803e-13
6.17806e-13
6.17808e-13
6.17809e-13
6.17809e-13
6.1781e-13
6.1781e-13
6.17811e-13
6.17811e-13
6.17811e-13
6.17811e-13
6.17811e-13
6.17811e-13
6.17811e-13
6.17811e-13
6.17811e-13
6.17811e-13
6.17811e-13
6.17811e-13
6.1781e-13
6.1781e-13
6.17809e-13
6.17809e-13
6.17808e-13
6.17806e-13
6.17803e-13
6.17799e-13
6.17793e-13
6.17783e-13
6.17766e-13
6.1774e-13
6.177e-13
6.17637e-13
6.17541e-13
6.17393e-13
6.1717e-13
6.16836e-13
6.16344e-13
6.15631e-13
6.14621e-13
6.13234e-13
6.11416e-13
6.09065e-13
3.40755e-12
3.42169e-12
3.43285e-12
3.4414e-12
3.44765e-12
3.45208e-12
3.45514e-12
3.45723e-12
3.45863e-12
3.45957e-12
3.46019e-12
3.46059e-12
3.46086e-12
3.46103e-12
3.46115e-12
3.46122e-12
3.46127e-12
3.4613e-12
3.46132e-12
3.46133e-12
3.46134e-12
3.46135e-12
3.46136e-12
3.46136e-12
3.46136e-12
3.46137e-12
3.46137e-12
3.46137e-12
3.46137e-12
3.46137e-12
3.46137e-12
3.46137e-12
3.46137e-12
3.46137e-12
3.46137e-12
3.46136e-12
3.46136e-12
3.46136e-12
3.46135e-12
3.46134e-12
3.46133e-12
3.46132e-12
3.4613e-12
3.46127e-12
3.46122e-12
3.46115e-12
3.46103e-12
3.46086e-12
3.46059e-12
3.46019e-12
3.45957e-12
3.45863e-12
3.45723e-12
3.45514e-12
3.45208e-12
3.44765e-12
3.4414e-12
3.43285e-12
3.42169e-12
3.40755e-12
1.9265e-11
1.93502e-11
1.94186e-11
1.94712e-11
1.95097e-11
1.95371e-11
1.95561e-11
1.95691e-11
1.95778e-11
1.95837e-11
1.95876e-11
1.95902e-11
1.95919e-11
1.95931e-11
1.95938e-11
1.95943e-11
1.95947e-11
1.95949e-11
1.95951e-11
1.95952e-11
1.95952e-11
1.95953e-11
1.95953e-11
1.95954e-11
1.95954e-11
1.95954e-11
1.95955e-11
1.95955e-11
1.95955e-11
1.95955e-11
1.95955e-11
1.95955e-11
1.95955e-11
1.95955e-11
1.95954e-11
1.95954e-11
1.95954e-11
1.95953e-11
1.95953e-11
1.95952e-11
1.95952e-11
1.95951e-11
1.95949e-11
1.95947e-11
1.95943e-11
1.95938e-11
1.95931e-11
1.95919e-11
1.95902e-11
1.95876e-11
1.95837e-11
1.95778e-11
1.95691e-11
1.95561e-11
1.95371e-11
1.95097e-11
1.94712e-11
1.94186e-11
1.93502e-11
1.9265e-11
1.09405e-10
1.09917e-10
1.10334e-10
1.10655e-10
1.10891e-10
1.11058e-10
1.11175e-10
1.11255e-10
1.11309e-10
1.11346e-10
1.1137e-10
1.11387e-10
1.11398e-10
1.11405e-10
1.1141e-10
1.11413e-10
1.11415e-10
1.11417e-10
1.11418e-10
1.11419e-10
1.11419e-10
1.1142e-10
1.1142e-10
1.1142e-10
1.11421e-10
1.11421e-10
1.11421e-10
1.11421e-10
1.11421e-10
1.11421e-10
1.11421e-10
1.11421e-10
1.11421e-10
1.11421e-10
1.11421e-10
1.11421e-10
1.1142e-10
1.1142e-10
1.1142e-10
1.11419e-10
1.11419e-10
1.11418e-10
1.11417e-10
1.11415e-10
1.11413e-10
1.1141e-10
1.11405e-10
1.11398e-10
1.11387e-10
1.1137e-10
1.11346e-10
1.11309e-10
1.11255e-10
1.11175e-10
1.11058e-10
1.10891e-10
1.10655e-10
1.10334e-10
1.09917e-10
1.09405e-10
6.19759e-10
6.22803e-10
6.25306e-10
6.27239e-10
6.2866e-10
6.29672e-10
6.30379e-10
6.30865e-10
6.31195e-10
6.31418e-10
6.31568e-10
6.31669e-10
6.31737e-10
6.31783e-10
6.31814e-10
6.31835e-10
6.31849e-10
6.3186e-10
6.31867e-10
6.31872e-10
6.31876e-10
6.31879e-10
6.31882e-10
6.31883e-10
6.31885e-10
6.31886e-10
6.31887e-10
6.31888e-10
6.31888e-10
6.31888e-10
6.31888e-10
6.31888e-10
6.31888e-10
6.31887e-10
6.31886e-10
6.31885e-10
6.31883e-10
6.31882e-10
6.31879e-10
6.31876e-10
6.31872e-10
6.31867e-10
6.3186e-10
6.31849e-10
6.31835e-10
6.31814e-10
6.31783e-10
6.31737e-10
6.31669e-10
6.31568e-10
6.31418e-10
6.31195e-10
6.30865e-10
6.30379e-10
6.29672e-10
6.2866e-10
6.27239e-10
6.25306e-10
6.22803e-10
6.19759e-10
3.47406e-09
3.49182e-09
3.50655e-09
3.51794e-09
3.52633e-09
3.53231e-09
3.53649e-09
3.53937e-09
3.54133e-09
3.54266e-09
3.54356e-09
3.54417e-09
3.54458e-09
3.54486e-09
3.54505e-09
3.54518e-09
3.54527e-09
3.54533e-09
3.54538e-09
3.54541e-09
3.54544e-09
3.54546e-09
3.54547e-09
3.54549e-09
3.5455e-09
3.5455e-09
3.54551e-09
3.54551e-09
3.54552e-09
3.54552e-09
3.54552e-09
3.54552e-09
3.54551e-09
3.54551e-09
3.5455e-09
3.5455e-09
3.54549e-09
3.54547e-09
3.54546e-09
3.54544e-09
3.54541e-09
3.54538e-09
3.54533e-09
3.54527e-09
3.54518e-09
3.54505e-09
3.54486e-09
3.54458e-09
3.54417e-09
3.54356e-09
3.54266e-09
3.54133e-09
3.53937e-09
3.53649e-09
3.53231e-09
3.52633e-09
3.51794e-09
3.50655e-09
3.49182e-09
3.47406e-09
1.90956e-08
1.91965e-08
1.92805e-08
1.93456e-08
1.93936e-08
1.94278e-08
1.94518e-08
1.94684e-08
1.94797e-08
1.94874e-08
1.94926e-08
1.94961e-08
1.94985e-08
1.95001e-08
1.95012e-08
1.9502e-08
1.95026e-08
1.95029e-08
1.95032e-08
1.95034e-08
1.95036e-08
1.95037e-08
1.95038e-08
1.95039e-08
1.95039e-08
1.9504e-08
1.9504e-08
1.95041e-08
1.95041e-08
1.95041e-08
1.95041e-08
1.95041e-08
1.95041e-08
1.9504e-08
1.9504e-08
1.95039e-08
1.95039e-08
1.95038e-08
1.95037e-08
1.95036e-08
1.95034e-08
1.95032e-08
1.95029e-08
1.95026e-08
1.9502e-08
1.95012e-08
1.95001e-08
1.94985e-08
1.94961e-08
1.94926e-08
1.94874e-08
1.94797e-08
1.94684e-08
1.94518e-08
1.94278e-08
1.93936e-08
1.93456e-08
1.92805e-08
1.91965e-08
1.90956e-08
1.01882e-07
1.02433e-07
1.02894e-07
1.03251e-07
1.03514e-07
1.03702e-07
1.03834e-07
1.03925e-07
1.03988e-07
1.0403e-07
1.04059e-07
1.04078e-07
1.04092e-07
1.04101e-07
1.04107e-07
1.04112e-07
1.04115e-07
1.04117e-07
1.04119e-07
1.0412e-07
1.04121e-07
1.04122e-07
1.04122e-07
1.04123e-07
1.04123e-07
1.04123e-07
1.04123e-07
1.04123e-07
1.04124e-07
1.04124e-07
1.04124e-07
1.04124e-07
1.04123e-07
1.04123e-07
1.04123e-07
1.04123e-07
1.04123e-07
1.04122e-07
1.04122e-07
1.04121e-07
1.0412e-07
1.04119e-07
1.04117e-07
1.04115e-07
1.04112e-07
1.04107e-07
1.04101e-07
1.04092e-07
1.04078e-07
1.04059e-07
1.0403e-07
1.03988e-07
1.03925e-07
1.03834e-07
1.03702e-07
1.03514e-07
1.03251e-07
1.02894e-07
1.02433e-07
1.01882e-07
5.21737e-07
5.24595e-07
5.26993e-07
5.28851e-07
5.3022e-07
5.31201e-07
5.31888e-07
5.32364e-07
5.3269e-07
5.32912e-07
5.33064e-07
5.33167e-07
5.33237e-07
5.33286e-07
5.3332e-07
5.33343e-07
5.3336e-07
5.33372e-07
5.33381e-07
5.33388e-07
5.33393e-07
5.33397e-07
5.334e-07
5.33402e-07
5.33404e-07
5.33406e-07
5.33407e-07
5.33408e-07
5.33408e-07
5.33408e-07
5.33408e-07
5.33408e-07
5.33408e-07
5.33407e-07
5.33406e-07
5.33404e-07
5.33402e-07
5.334e-07
5.33397e-07
5.33393e-07
5.33388e-07
5.33381e-07
5.33372e-07
5.3336e-07
5.33343e-07
5.3332e-07
5.33286e-07
5.33237e-07
5.33167e-07
5.33064e-07
5.32912e-07
5.3269e-07
5.32364e-07
5.31888e-07
5.31201e-07
5.3022e-07
5.28851e-07
5.26993e-07
5.24595e-07
5.21737e-07
2.53314e-06
2.54705e-06
2.55874e-06
2.56779e-06
2.57446e-06
2.57924e-06
2.58259e-06
2.58492e-06
2.58651e-06
2.5876e-06
2.58834e-06
2.58885e-06
2.5892e-06
2.58944e-06
2.58961e-06
2.58972e-06
2.58981e-06
2.58987e-06
2.58991e-06
2.58995e-06
2.58997e-06
2.58999e-06
2.59001e-06
2.59002e-06
2.59003e-06
2.59004e-06
2.59004e-06
2.59005e-06
2.59005e-06
2.59005e-06
2.59005e-06
2.59005e-06
2.59005e-06
2.59004e-06
2.59004e-06
2.59003e-06
2.59002e-06
2.59001e-06
2.58999e-06
2.58997e-06
2.58995e-06
2.58991e-06
2.58987e-06
2.58981e-06
2.58972e-06
2.58961e-06
2.58944e-06
2.5892e-06
2.58885e-06
2.58834e-06
2.5876e-06
2.58651e-06
2.58492e-06
2.58259e-06
2.57924e-06
2.57446e-06
2.56779e-06
2.55874e-06
2.54705e-06
2.53314e-06
1.15061e-05
1.15687e-05
1.16213e-05
1.16619e-05
1.16919e-05
1.17134e-05
1.17285e-05
1.1739e-05
1.17461e-05
1.17511e-05
1.17544e-05
1.17567e-05
1.17583e-05
1.17594e-05
1.17602e-05
1.17607e-05
1.17611e-05
1.17614e-05
1.17616e-05
1.17617e-05
1.17619e-05
1.1762e-05
1.1762e-05
1.17621e-05
1.17621e-05
1.17622e-05
1.17622e-05
1.17622e-05
1.17622e-05
1.17622e-05
1.17622e-05
1.17622e-05
1.17622e-05
1.17622e-05
1.17622e-05
1.17621e-05
1.17621e-05
1.1762e-05
1.1762e-05
1.17619e-05
1.17617e-05
1.17616e-05
1.17614e-05
1.17611e-05
1.17607e-05
1.17602e-05
1.17594e-05
1.17583e-05
1.17567e-05
1.17544e-05
1.17511e-05
1.17461e-05
1.1739e-05
1.17285e-05
1.17134e-05
1.16919e-05
1.16619e-05
1.16213e-05
1.15687e-05
1.15061e-05
4.81943e-05
4.84506e-05
4.86652e-05
4.8831e-05
4.89533e-05
4.9041e-05
4.91026e-05
4.91453e-05
4.91748e-05
4.91949e-05
4.92087e-05
4.92181e-05
4.92247e-05
4.92292e-05
4.92324e-05
4.92346e-05
4.92362e-05
4.92374e-05
4.92383e-05
4.92389e-05
4.92394e-05
4.92398e-05
4.92401e-05
4.92404e-05
4.92406e-05
4.92407e-05
4.92408e-05
4.92409e-05
4.92409e-05
4.9241e-05
4.9241e-05
4.92409e-05
4.92409e-05
4.92408e-05
4.92407e-05
4.92406e-05
4.92404e-05
4.92401e-05
4.92398e-05
4.92394e-05
4.92389e-05
4.92383e-05
4.92374e-05
4.92362e-05
4.92346e-05
4.92324e-05
4.92292e-05
4.92247e-05
4.92181e-05
4.92087e-05
4.91949e-05
4.91748e-05
4.91453e-05
4.91026e-05
4.9041e-05
4.89533e-05
4.8831e-05
4.86652e-05
4.84506e-05
4.81943e-05
0.000183279
0.000184215
0.000184996
0.000185599
0.000186044
0.000186362
0.000186586
0.000186742
0.000186849
0.000186923
0.000186973
0.000187008
0.000187032
0.000187048
0.00018706
0.000187068
0.000187074
0.000187079
0.000187082
0.000187084
0.000187086
0.000187088
0.000187089
0.00018709
0.00018709
0.000187091
0.000187091
0.000187092
0.000187092
0.000187092
0.000187092
0.000187092
0.000187092
0.000187091
0.000187091
0.00018709
0.00018709
0.000187089
0.000187088
0.000187086
0.000187084
0.000187082
0.000187079
0.000187074
0.000187068
0.00018706
0.000187048
0.000187032
0.000187008
0.000186973
0.000186923
0.000186849
0.000186742
0.000186586
0.000186362
0.000186044
0.000185599
0.000184996
0.000184215
0.000183279
0.000622416
0.000625409
0.000627893
0.000629808
0.000631219
0.000632232
0.000632944
0.000633439
0.00063378
0.000634014
0.000634175
0.000634285
0.000634362
0.000634415
0.000634453
0.00063448
0.000634499
0.000634513
0.000634524
0.000634531
0.000634537
0.000634542
0.000634546
0.000634549
0.000634551
0.000634553
0.000634554
0.000634555
0.000634556
0.000634556
0.000634556
0.000634556
0.000634555
0.000634554
0.000634553
0.000634551
0.000634549
0.000634546
0.000634542
0.000634537
0.000634531
0.000634524
0.000634513
0.000634499
0.00063448
0.000634453
0.000634415
0.000634362
0.000634285
0.000634175
0.000634014
0.00063378
0.000633439
0.000632944
0.000632232
0.000631219
0.000629808
0.000627893
0.000625409
0.000622416
0.00185593
0.00186412
0.00187088
0.00187607
0.0018799
0.00188265
0.00188458
0.00188593
0.00188686
0.00188749
0.00188793
0.00188823
0.00188844
0.00188859
0.00188869
0.00188877
0.00188882
0.00188886
0.00188889
0.00188891
0.00188893
0.00188894
0.00188895
0.00188896
0.00188896
0.00188897
0.00188897
0.00188898
0.00188898
0.00188898
0.00188898
0.00188898
0.00188898
0.00188897
0.00188897
0.00188896
0.00188896
0.00188895
0.00188894
0.00188893
0.00188891
0.00188889
0.00188886
0.00188882
0.00188877
0.00188869
0.00188859
0.00188844
0.00188823
0.00188793
0.00188749
0.00188686
0.00188593
0.00188458
0.00188265
0.0018799
0.00187607
0.00187088
0.00186412
0.00185593
0.00478572
0.00480452
0.00481992
0.00483174
0.00484045
0.00484669
0.00485109
0.00485415
0.00485627
0.00485772
0.00485872
0.00485941
0.00485989
0.00486023
0.00486047
0.00486064
0.00486076
0.00486085
0.00486092
0.00486097
0.00486101
0.00486104
0.00486106
0.00486108
0.00486109
0.00486111
0.00486111
0.00486112
0.00486112
0.00486113
0.00486113
0.00486112
0.00486112
0.00486111
0.00486111
0.00486109
0.00486108
0.00486106
0.00486104
0.00486101
0.00486097
0.00486092
0.00486085
0.00486076
0.00486064
0.00486047
0.00486023
0.00485989
0.00485941
0.00485872
0.00485772
0.00485627
0.00485415
0.00485109
0.00484669
0.00484045
0.00483174
0.00481992
0.00480452
0.00478572
0.0105696
0.0106054
0.0106345
0.0106567
0.0106731
0.0106849
0.0106932
0.0106989
0.0107029
0.0107057
0.0107076
0.0107089
0.0107098
0.0107104
0.0107109
0.0107112
0.0107115
0.0107116
0.0107118
0.0107119
0.0107119
0.010712
0.010712
0.0107121
0.0107121
0.0107121
0.0107121
0.0107122
0.0107122
0.0107122
0.0107122
0.0107122
0.0107122
0.0107121
0.0107121
0.0107121
0.0107121
0.010712
0.010712
0.0107119
0.0107119
0.0107118
0.0107116
0.0107115
0.0107112
0.0107109
0.0107104
0.0107098
0.0107089
0.0107076
0.0107057
0.0107029
0.0106989
0.0106932
0.0106849
0.0106731
0.0106567
0.0106345
0.0106054
0.0105696
0.0200093
0.0200661
0.0201118
0.0201467
0.0201725
0.0201909
0.0202039
0.020213
0.0202193
0.0202236
0.0202266
0.0202287
0.0202301
0.0202311
0.0202318
0.0202323
0.0202327
0.020233
0.0202332
0.0202334
0.0202335
0.0202336
0.0202337
0.0202337
0.0202338
0.0202338
0.0202338
0.0202338
0.0202338
0.0202339
0.0202339
0.0202338
0.0202338
0.0202338
0.0202338
0.0202338
0.0202337
0.0202337
0.0202336
0.0202335
0.0202334
0.0202332
0.020233
0.0202327
0.0202323
0.0202318
0.0202311
0.0202301
0.0202287
0.0202266
0.0202236
0.0202193
0.020213
0.0202039
0.0201909
0.0201725
0.0201467
0.0201118
0.0200661
0.0200093
0.0329192
0.0329963
0.0330578
0.0331046
0.0331391
0.0331639
0.0331813
0.0331935
0.033202
0.0332078
0.0332119
0.0332147
0.0332166
0.033218
0.033219
0.0332197
0.0332202
0.0332206
0.0332209
0.0332211
0.0332212
0.0332214
0.0332215
0.0332215
0.0332216
0.0332217
0.0332217
0.0332217
0.0332217
0.0332217
0.0332217
0.0332217
0.0332217
0.0332217
0.0332217
0.0332216
0.0332215
0.0332215
0.0332214
0.0332212
0.0332211
0.0332209
0.0332206
0.0332202
0.0332197
0.033219
0.033218
0.0332166
0.0332147
0.0332119
0.0332078
0.033202
0.0331935
0.0331813
0.0331639
0.0331391
0.0331046
0.0330578
0.0329963
0.0329192
0.0482235
0.048317
0.0483908
0.0484469
0.0484882
0.0485179
0.0485388
0.0485535
0.0485637
0.0485707
0.0485756
0.048579
0.0485814
0.0485831
0.0485843
0.0485851
0.0485857
0.0485862
0.0485866
0.0485868
0.048587
0.0485872
0.0485873
0.0485874
0.0485875
0.0485875
0.0485876
0.0485876
0.0485876
0.0485876
0.0485876
0.0485876
0.0485876
0.0485876
0.0485875
0.0485875
0.0485874
0.0485873
0.0485872
0.048587
0.0485868
0.0485866
0.0485862
0.0485857
0.0485851
0.0485843
0.0485831
0.0485814
0.048579
0.0485756
0.0485707
0.0485637
0.0485535
0.0485388
0.0485179
0.0484882
0.0484469
0.0483908
0.048317
0.0482235
0.064699
0.064805
0.0648879
0.0649508
0.064997
0.0650303
0.0650539
0.0650704
0.0650819
0.0650899
0.0650954
0.0650993
0.065102
0.0651039
0.0651052
0.0651062
0.065107
0.0651075
0.0651079
0.0651082
0.0651084
0.0651086
0.0651087
0.0651089
0.0651089
0.065109
0.0651091
0.0651091
0.0651091
0.0651091
0.0651091
0.0651091
0.0651091
0.0651091
0.065109
0.0651089
0.0651089
0.0651087
0.0651086
0.0651084
0.0651082
0.0651079
0.0651075
0.065107
0.0651062
0.0651052
0.0651039
0.065102
0.0650993
0.0650954
0.0650899
0.0650819
0.0650704
0.0650539
0.0650303
0.064997
0.0649508
0.0648879
0.064805
0.064699
0.0815482
0.0816644
0.0817546
0.081823
0.0818733
0.0819095
0.0819352
0.0819533
0.0819659
0.0819746
0.0819807
0.081985
0.0819879
0.0819901
0.0819916
0.0819927
0.0819935
0.0819941
0.0819945
0.0819949
0.0819951
0.0819953
0.0819955
0.0819956
0.0819957
0.0819958
0.0819958
0.0819959
0.0819959
0.0819959
0.0819959
0.0819959
0.0819959
0.0819958
0.0819958
0.0819957
0.0819956
0.0819955
0.0819953
0.0819951
0.0819949
0.0819945
0.0819941
0.0819935
0.0819927
0.0819916
0.0819901
0.0819879
0.081985
0.0819807
0.0819746
0.0819659
0.0819533
0.0819352
0.0819095
0.0818733
0.081823
0.0817546
0.0816644
0.0815482
0.0984461
0.0985717
0.0986686
0.0987419
0.098796
0.098835
0.0988627
0.0988822
0.0988959
0.0989054
0.098912
0.0989166
0.0989199
0.0989222
0.0989239
0.0989251
0.098926
0.0989266
0.0989271
0.0989275
0.0989278
0.098928
0.0989282
0.0989283
0.0989284
0.0989285
0.0989286
0.0989286
0.0989287
0.0989287
0.0989287
0.0989287
0.0989286
0.0989286
0.0989285
0.0989284
0.0989283
0.0989282
0.098928
0.0989278
0.0989275
0.0989271
0.0989266
0.098926
0.0989251
0.0989239
0.0989222
0.0989199
0.0989166
0.098912
0.0989054
0.0988959
0.0988822
0.0988627
0.098835
0.098796
0.0987419
0.0986686
0.0985717
0.0984461
0.11533
0.115464
0.115568
0.115646
0.115704
0.115746
0.115776
0.115797
0.115811
0.115822
0.115829
0.115834
0.115838
0.11584
0.115842
0.115843
0.115844
0.115845
0.115845
0.115846
0.115846
0.115846
0.115847
0.115847
0.115847
0.115847
0.115847
0.115847
0.115847
0.115847
0.115847
0.115847
0.115847
0.115847
0.115847
0.115847
0.115847
0.115847
0.115846
0.115846
0.115846
0.115845
0.115845
0.115844
0.115843
0.115842
0.11584
0.115838
0.115834
0.115829
0.115822
0.115811
0.115797
0.115776
0.115746
0.115704
0.115646
0.115568
0.115464
0.11533
0.13222
0.132364
0.132474
0.132557
0.132619
0.132664
0.132696
0.132718
0.132734
0.132745
0.132753
0.132758
0.132762
0.132765
0.132767
0.132769
0.13277
0.13277
0.132771
0.132771
0.132772
0.132772
0.132772
0.132772
0.132773
0.132773
0.132773
0.132773
0.132773
0.132773
0.132773
0.132773
0.132773
0.132773
0.132773
0.132773
0.132772
0.132772
0.132772
0.132772
0.132771
0.132771
0.13277
0.13277
0.132769
0.132767
0.132765
0.132762
0.132758
0.132753
0.132745
0.132734
0.132718
0.132696
0.132664
0.132619
0.132557
0.132474
0.132364
0.13222
0.149142
0.149295
0.149412
0.1495
0.149566
0.149614
0.149648
0.149672
0.149689
0.149701
0.149709
0.149715
0.149719
0.149722
0.149725
0.149726
0.149727
0.149728
0.149729
0.149729
0.14973
0.14973
0.14973
0.14973
0.149731
0.149731
0.149731
0.149731
0.149731
0.149731
0.149731
0.149731
0.149731
0.149731
0.149731
0.149731
0.14973
0.14973
0.14973
0.14973
0.149729
0.149729
0.149728
0.149727
0.149726
0.149725
0.149722
0.149719
0.149715
0.149709
0.149701
0.149689
0.149672
0.149648
0.149614
0.149566
0.1495
0.149412
0.149295
0.149142
0.166108
0.166269
0.166393
0.166486
0.166556
0.166607
0.166643
0.166669
0.166687
0.1667
0.166709
0.166715
0.16672
0.166723
0.166726
0.166727
0.166729
0.16673
0.16673
0.166731
0.166731
0.166732
0.166732
0.166732
0.166732
0.166732
0.166732
0.166732
0.166732
0.166733
0.166733
0.166732
0.166732
0.166732
0.166732
0.166732
0.166732
0.166732
0.166732
0.166731
0.166731
0.16673
0.16673
0.166729
0.166727
0.166726
0.166723
0.16672
0.166715
0.166709
0.1667
0.166687
0.166669
0.166643
0.166607
0.166556
0.166486
0.166393
0.166269
0.166108
0.183116
0.183286
0.183416
0.183515
0.183589
0.183642
0.183681
0.183709
0.183728
0.183742
0.183752
0.183759
0.183763
0.183767
0.18377
0.183771
0.183773
0.183774
0.183775
0.183775
0.183776
0.183776
0.183776
0.183777
0.183777
0.183777
0.183777
0.183777
0.183777
0.183777
0.183777
0.183777
0.183777
0.183777
0.183777
0.183777
0.183777
0.183776
0.183776
0.183776
0.183775
0.183775
0.183774
0.183773
0.183771
0.18377
0.183767
0.183763
0.183759
0.183752
0.183742
0.183728
0.183709
0.183681
0.183642
0.183589
0.183515
0.183416
0.183286
0.183116
0.20016
0.200338
0.200475
0.200579
0.200656
0.200713
0.200754
0.200784
0.200804
0.200819
0.20083
0.200837
0.200842
0.200846
0.200849
0.200851
0.200852
0.200854
0.200854
0.200855
0.200856
0.200856
0.200856
0.200856
0.200857
0.200857
0.200857
0.200857
0.200857
0.200857
0.200857
0.200857
0.200857
0.200857
0.200857
0.200857
0.200856
0.200856
0.200856
0.200856
0.200855
0.200854
0.200854
0.200852
0.200851
0.200849
0.200846
0.200842
0.200837
0.20083
0.200819
0.200804
0.200784
0.200754
0.200713
0.200656
0.200579
0.200475
0.200338
0.20016
0.217229
0.217414
0.217558
0.217667
0.217748
0.217808
0.217852
0.217883
0.217905
0.217921
0.217932
0.21794
0.217946
0.21795
0.217953
0.217955
0.217957
0.217958
0.217959
0.217959
0.21796
0.21796
0.217961
0.217961
0.217961
0.217961
0.217961
0.217961
0.217961
0.217961
0.217961
0.217961
0.217961
0.217961
0.217961
0.217961
0.217961
0.217961
0.21796
0.21796
0.217959
0.217959
0.217958
0.217957
0.217955
0.217953
0.21795
0.217946
0.21794
0.217932
0.217921
0.217905
0.217883
0.217852
0.217808
0.217748