/*--------------------------------*- C++ -*----------------------------------*\
| =========                 |                                                 |
| \\      /  F ield         | foam-extend: Open Source CFD                    |
|  \\    /   O peration     | Version:     4.0                                |
|   \\  /    A nd           | Web:         http://www.foam-extend.org         |
|    \\/     M anipulation  |                                                 |
\*---------------------------------------------------------------------------*/
FoamFile
{
    version     2.0;
    format      ascii;
    class       surfaceScalarField;
    location    "11";
    object      phi;
}
// * * * * * * * * * * * * * * * * * * * * * * * * * * * * * * * * * * * * * //

dimensions      [0 3 -1 0 0 0 0];

internalField   nonuniform List<scalar> 
13744
(
-7.7257e-09
7.72514e-09
3.78118e-09
-1.15069e-08
7.70252e-11
3.70416e-09
2.59346e-11
5.10881e-11
8.36387e-12
1.75699e-11
4.60061e-12
3.76277e-12
2.53293e-12
2.06835e-12
1.60244e-12
9.31477e-13
1.01926e-12
5.82978e-13
6.74544e-13
3.46057e-13
4.40978e-13
2.32481e-13
2.83627e-13
1.56763e-13
1.72285e-13
1.12244e-13
9.1336e-14
8.12683e-14
3.34703e-14
5.88418e-14
-8.71365e-15
4.17444e-14
-3.93873e-14
2.85327e-14
-6.023e-14
2.02061e-14
-7.35816e-14
1.35447e-14
-8.19076e-14
8.65974e-15
-8.45675e-14
3.9968e-15
-8.33709e-14
-1.55431e-15
-7.96821e-14
-1.55431e-15
-7.25656e-14
-5.66214e-15
-6.32788e-14
-9.88098e-15
-5.30692e-14
-8.77076e-15
-4.07365e-14
-1.12133e-14
-2.73773e-14
-1.37668e-14
-1.4233e-14
-1.19904e-14
-1.00023e-15
-1.27676e-14
1.65781e-14
-1.57652e-14
2.51034e-14
-1.05471e-14
4.06943e-14
-1.70974e-14
5.53517e-14
-1.42109e-14
6.09235e-14
-4.44089e-15
7.25415e-14
-1.0103e-14
8.19659e-14
-8.77076e-15
8.10391e-14
1.11022e-16
8.45788e-14
-2.55351e-15
8.42299e-14
1.11022e-16
7.12465e-14
1.17684e-14
6.02283e-14
1.11022e-14
4.17195e-14
1.80966e-14
6.39595e-15
3.54161e-14
-3.34727e-14
3.90799e-14
-8.89985e-14
5.4845e-14
-1.74566e-13
8.60423e-14
-2.83569e-13
1.0747e-13
-4.38583e-13
1.55209e-13
-6.76823e-13
2.3892e-13
-1.01922e-12
3.43059e-13
-1.60009e-12
5.79203e-13
-2.53521e-12
9.34586e-13
-4.60055e-12
2.06435e-12
-8.36149e-12
3.76288e-12
-2.59369e-11
1.75757e-11
-7.70252e-11
5.10875e-11
-3.78118e-09
3.70416e-09
7.72569e-09
-1.15069e-08
7.72569e-09
3.65754e-08
-2.88502e-08
5.13708e-09
1.99314e-08
2.30745e-10
8.61049e-09
7.98728e-11
2.01965e-10
2.59355e-11
7.15098e-11
1.44227e-11
1.52752e-11
7.88912e-12
8.60179e-12
5.05125e-12
3.76543e-12
3.19873e-12
2.43694e-12
2.14591e-12
1.39633e-12
1.4075e-12
9.71556e-13
9.25752e-13
6.38711e-13
5.71244e-13
4.64184e-13
3.26395e-13
3.2685e-13
1.41367e-13
2.42917e-13
9.78673e-15
1.7597e-13
-8.50912e-14
1.29563e-13
-1.51938e-13
8.70415e-14
-1.97345e-13
6.06182e-14
-2.21793e-13
3.15303e-14
-2.34194e-13
1.29896e-14
-2.34314e-13
-2.22045e-15
-2.22735e-13
-1.79856e-14
-2.05014e-13
-2.63123e-14
-1.80872e-13
-3.37508e-14
-1.49366e-13
-4.37428e-14
-1.15978e-13
-4.74065e-14
-7.9539e-14
-4.9627e-14
-3.85986e-14
-5.55112e-14
5.12106e-16
-5.15143e-14
3.33721e-14
-5.21805e-14
8.59124e-14
-5.83977e-14
1.15847e-13
-4.21885e-14
1.42854e-13
-4.16334e-14
1.87158e-13
-5.04041e-14
2.04929e-13
-3.01981e-14
2.16246e-13
-2.42029e-14
2.4067e-13
-2.10942e-14
2.34223e-13
5.21805e-15
2.15407e-13
2.35367e-14
2.03695e-13
2.81997e-14
1.51922e-13
6.42819e-14
7.87491e-14
9.35918e-14
-3.38933e-15
1.18017e-13
-1.41373e-13
1.79967e-13
-3.32727e-13
2.46914e-13
-5.64736e-13
3.18634e-13
-9.25572e-13
4.72289e-13
-1.41367e-12
6.42153e-13
-2.13938e-12
9.60565e-13
-3.19863e-12
1.40177e-12
-5.05753e-12
2.44305e-12
-7.8826e-12
3.76166e-12
-1.44225e-11
8.60612e-12
-2.59417e-11
1.52764e-11
-7.98662e-11
7.14984e-11
-2.30745e-10
2.01968e-10
-5.13709e-09
8.61049e-09
-3.65754e-08
1.99314e-08
-2.88497e-08
2.45239e-08
-5.33741e-08
8.8315e-09
3.56238e-08
3.78274e-10
1.70637e-08
1.35738e-10
4.44499e-10
4.49446e-11
1.62303e-10
2.51112e-11
3.5111e-11
1.37419e-11
1.99689e-11
8.84872e-12
8.66254e-12
5.61411e-12
5.66655e-12
3.80193e-12
3.21229e-12
2.51016e-12
2.2673e-12
1.68154e-12
1.4693e-12
1.06327e-12
1.08388e-12
6.39154e-13
7.50011e-13
3.16277e-13
5.63993e-13
8.87634e-14
3.99542e-13
-8.04792e-14
2.92516e-13
-1.97544e-13
2.05669e-13
-2.79047e-13
1.36557e-13
-3.26666e-13
8.29059e-14
-3.51791e-13
4.21607e-14
-3.55772e-13
2.27596e-15
-3.42736e-13
-2.82274e-14
-3.16685e-13
-5.19029e-14
-2.79945e-13
-6.69187e-14
-2.33253e-13
-8.64586e-14
-1.80952e-13
-9.79772e-14
-1.23518e-13
-1.08136e-13
-6.15341e-14
-1.16324e-13
-6.7677e-16
-1.14908e-13
5.92965e-14
-1.0969e-13
1.26705e-13
-1.33699e-13
1.80727e-13
-1.02973e-13
2.29822e-13
-9.09273e-14
2.82977e-13
-1.03528e-13
3.16534e-13
-6.43097e-14
3.39373e-13
-4.16334e-14
3.58925e-13
-4.80727e-14
3.51839e-13
9.90874e-15
3.23453e-13
4.13281e-14
2.82189e-13
6.37546e-14
1.97517e-13
1.46994e-13
7.73319e-14
2.11026e-13
-8.55278e-14
2.79415e-13
-3.16275e-13
4.07174e-13
-6.42267e-13
5.73513e-13
-1.05985e-12
7.32608e-13
-1.68124e-12
1.09066e-12
-2.51301e-12
1.47823e-12
-3.79845e-12
2.2527e-12
-5.61394e-12
3.21865e-12
-8.85175e-12
5.6771e-12
-1.37385e-11
8.64631e-12
-2.51109e-11
1.99774e-11
-4.49475e-11
3.51169e-11
-1.35735e-10
1.62286e-10
-3.78273e-10
4.44508e-10
-8.83151e-09
1.70637e-08
-2.45239e-08
3.56238e-08
-5.33735e-08
6.20186e-09
-5.95759e-08
7.48957e-09
3.43361e-08
5.15392e-10
2.40379e-08
1.92671e-10
7.67217e-10
6.54553e-11
2.89514e-10
3.66594e-11
6.39041e-11
2.01262e-11
3.65043e-11
1.30058e-11
1.57855e-11
8.28525e-12
1.03963e-11
5.65095e-12
5.84242e-12
3.76368e-12
4.1505e-12
2.55997e-12
2.66798e-12
1.65757e-12
1.98714e-12
1.03929e-12
1.36583e-12
5.67101e-13
1.03713e-12
2.34657e-13
7.34843e-13
-1.6476e-14
5.44592e-13
-1.90071e-13
3.77927e-13
-3.1322e-13
2.6628e-13
-3.89134e-13
1.55799e-13
-4.31681e-13
8.07965e-14
-4.43966e-13
1.39888e-14
-4.33855e-13
-3.98986e-14
-4.03663e-13
-7.8812e-14
-3.58472e-13
-1.15789e-13
-3.00772e-13
-1.45897e-13
-2.33642e-13
-1.63217e-13
-1.59353e-13
-1.80328e-13
-8.06965e-14
-1.95038e-13
-1.23869e-15
-1.91742e-13
8.11074e-14
-1.93082e-13
1.58958e-13
-2.04795e-13
2.33323e-13
-1.70898e-13
3.00663e-13
-1.59872e-13
3.57988e-13
-1.60386e-13
4.03455e-13
-1.08399e-13
4.33852e-13
-7.44682e-14
4.43674e-13
-5.28119e-14
4.31734e-13
1.7597e-14
3.89348e-13
9.29395e-14
3.12911e-13
1.44801e-13
1.90021e-13
2.65496e-13
1.67766e-14
3.84706e-13
-2.34828e-13
5.33192e-13
-5.67087e-13
7.41886e-13
-1.03894e-12
1.04521e-12
-1.65748e-12
1.35794e-12
-2.55956e-12
1.99402e-12
-3.76296e-12
2.67507e-12
-5.65079e-12
4.13781e-12
-8.285e-12
5.84874e-12
-1.30053e-11
1.04012e-11
-2.01261e-11
1.57689e-11
-3.6659e-11
3.65089e-11
-6.54546e-11
6.3911e-11
-1.9267e-10
2.89505e-10
-5.15392e-10
7.67228e-10
-7.48957e-09
2.40379e-08
-6.20186e-09
3.43361e-08
-5.95754e-08
4.57688e-09
-6.41528e-08
5.00441e-09
3.39085e-08
6.48718e-10
2.83936e-08
2.50421e-10
1.16552e-09
8.74761e-11
4.52464e-10
4.90869e-11
1.02296e-10
2.70598e-11
5.85285e-11
1.75359e-11
2.5302e-11
1.12214e-11
1.67062e-11
7.69918e-12
9.36616e-12
5.17326e-12
6.67098e-12
3.56454e-12
4.28292e-12
2.35621e-12
3.1941e-12
1.52902e-12
2.196e-12
8.95087e-13
1.6708e-12
4.47876e-13
1.18256e-12
1.07865e-13
8.87228e-13
-1.2921e-13
6.17471e-13
-3.002e-13
4.36453e-13
-4.08778e-13
2.63935e-13
-4.73952e-13
1.51722e-13
-4.99477e-13
4.11962e-14
-4.95843e-13
-4.18415e-14
-4.66156e-13
-1.1045e-13
-4.17062e-13
-1.64303e-13
-3.51659e-13
-2.13825e-13
-2.74185e-13
-2.44992e-13
-1.87515e-13
-2.66315e-13
-9.52319e-14
-2.87926e-13
-9.2791e-16
-2.88058e-13
9.50468e-14
-2.86715e-13
1.87109e-13
-2.96749e-13
2.73749e-13
-2.57641e-13
3.51256e-13
-2.34718e-13
4.16669e-13
-2.26947e-13
4.65874e-13
-1.58328e-13
4.956e-13
-1.01388e-13
4.9934e-13
-5.72563e-14
4.74024e-13
4.97588e-14
4.08797e-13
1.56465e-13
3.00027e-13
2.47653e-13
1.2915e-13
4.4512e-13
-1.0773e-13
6.239e-13
-4.47844e-13
8.7351e-13
-8.95053e-13
1.18789e-12
-1.5288e-12
1.67793e-12
-2.35586e-12
2.17712e-12
-3.56401e-12
3.20387e-12
-5.17259e-12
4.28827e-12
-7.69871e-12
6.66204e-12
-1.12211e-11
9.37432e-12
-1.75355e-11
1.67105e-11
-2.70594e-11
2.52877e-11
-4.90863e-11
5.85407e-11
-8.74755e-11
1.02301e-10
-2.5042e-10
4.52453e-10
-6.48717e-10
1.16552e-09
-5.00441e-09
2.83936e-08
-4.57688e-09
3.39085e-08
-6.41523e-08
7.6474e-09
-7.18002e-08
4.30969e-09
3.72462e-08
7.82248e-10
3.1921e-08
3.09094e-10
1.63867e-09
1.11019e-10
6.50538e-10
6.24122e-11
1.50899e-10
3.45612e-11
8.63817e-11
2.24506e-11
3.74229e-11
1.44308e-11
2.47268e-11
9.95222e-12
1.38458e-11
6.7419e-12
9.89312e-12
4.69701e-12
6.32167e-12
3.16028e-12
4.73295e-12
2.10794e-12
3.24988e-12
1.29961e-12
2.48031e-12
7.27707e-13
1.75284e-12
2.90873e-13
1.32372e-12
-1.65006e-14
9.20989e-13
-2.41263e-13
6.59191e-13
-3.87592e-13
4.13974e-13
-4.8026e-13
2.41033e-13
-5.23545e-13
8.12302e-14
-5.305e-13
-3.4403e-14
-5.05464e-13
-1.3585e-13
-4.56524e-13
-2.12292e-13
-3.87188e-13
-2.774e-13
-3.03287e-13
-3.24182e-13
-2.08116e-13
-3.64483e-13
-1.05775e-13
-3.90722e-13
-7.39251e-16
-3.90809e-13
1.04664e-13
-3.93623e-13
2.08324e-13
-4.05898e-13
3.02737e-13
-3.56028e-13
3.85889e-13
-3.21999e-13
4.56796e-13
-2.95118e-13
5.05112e-13
-2.06408e-13
5.29426e-13
-1.28644e-13
5.24155e-13
-5.11986e-14
4.80331e-13
9.05075e-14
3.86829e-13
2.46813e-13
2.4183e-13
3.98653e-13
1.6413e-14
6.66616e-13
-2.91495e-13
9.29465e-13
-7.2688e-13
1.30817e-12
-1.29954e-12
1.76083e-12
-2.10844e-12
2.49013e-12
-3.15906e-12
3.23137e-12
-4.69637e-12
4.73794e-12
-6.74184e-12
6.3338e-12
-9.95086e-12
9.86865e-12
-1.44304e-11
1.38571e-11
-2.24509e-11
2.47309e-11
-3.45599e-11
3.74035e-11
-6.24115e-11
8.63879e-11
-1.11019e-10
1.5091e-10
-3.09093e-10
6.50516e-10
-7.82247e-10
1.63868e-09
-4.30969e-09
3.1921e-08
-7.6474e-09
3.72462e-08
-7.17997e-08
8.189e-09
-7.99892e-08
4.4857e-09
4.09495e-08
9.14269e-10
3.54925e-08
3.6889e-10
2.18405e-09
1.36095e-10
8.83332e-10
7.66538e-11
2.10342e-10
4.26493e-11
1.20385e-10
2.77621e-11
5.23029e-11
1.7922e-11
3.45638e-11
1.24155e-11
1.9353e-11
8.47247e-12
1.38281e-11
5.95883e-12
8.84128e-12
4.07017e-12
6.61887e-12
2.7753e-12
4.54274e-12
1.77943e-12
3.47677e-12
1.07262e-12
2.45934e-12
5.30428e-13
1.86599e-12
1.459e-13
1.30938e-12
-1.3852e-13
9.42971e-13
-3.28001e-13
6.02587e-13
-4.52806e-13
3.6697e-13
-5.18121e-13
1.52309e-13
-5.39905e-13
-1.08143e-14
-5.23324e-13
-1.49658e-13
-4.78198e-13
-2.54814e-13
-4.08732e-13
-3.46542e-13
-3.21907e-13
-4.12535e-13
-2.21658e-13
-4.61801e-13
-1.1291e-13
-4.94649e-13
-8.11915e-16
-5.06203e-13
1.11559e-13
-5.05377e-13
2.21811e-13
-5.1022e-13
3.21221e-13
-4.50882e-13
4.07223e-13
-4.03198e-13
4.78442e-13
-3.70686e-13
5.2289e-13
-2.49228e-13
5.38684e-13
-1.43691e-13
5.18784e-13
-3.37473e-14
4.52873e-13
1.57929e-13
3.27142e-13
3.7563e-13
1.39128e-13
5.81136e-13
-1.46011e-13
9.52169e-13
-5.31123e-13
1.31292e-12
-1.07168e-12
1.85314e-12
-1.77933e-12
2.46743e-12
-2.77583e-12
3.48123e-12
-4.06879e-12
4.52175e-12
-5.95806e-12
6.62447e-12
-8.47237e-12
8.84666e-12
-1.24139e-11
1.38162e-11
-1.79215e-11
1.93631e-11
-2.77624e-11
3.45774e-11
-4.26478e-11
5.22873e-11
-7.66529e-11
1.20391e-10
-1.36095e-10
2.10348e-10
-3.68888e-10
8.83315e-10
-9.14268e-10
2.18406e-09
-4.4857e-09
3.54925e-08
-8.189e-09
4.09495e-08
-7.99887e-08
7.26133e-09
-8.72506e-08
4.52555e-09
4.36853e-08
1.04268e-09
3.89753e-08
4.2978e-10
2.79695e-09
1.6271e-10
1.1504e-09
9.18305e-11
2.81221e-10
5.1344e-11
1.6087e-10
3.34838e-11
7.0163e-11
2.17041e-11
4.63427e-11
1.50944e-11
2.59615e-11
1.03683e-11
1.85537e-11
7.35137e-12
1.18549e-11
5.08599e-12
8.88488e-12
3.53033e-12
6.09902e-12
2.33304e-12
4.67194e-12
1.48056e-12
3.31318e-12
8.24256e-13
2.52195e-12
3.55452e-13
1.77524e-12
5.35254e-15
1.29126e-12
-2.32574e-13
8.39726e-13
-3.94142e-13
5.2781e-13
-4.85679e-13
2.39524e-13
-5.26237e-13
2.05044e-14
-5.21728e-13
-1.565e-13
-4.83858e-13
-2.97347e-13
-4.17652e-13
-4.15244e-13
-3.31107e-13
-5.00579e-13
-2.28933e-13
-5.62822e-13
-1.17003e-13
-6.08499e-13
-9.18009e-16
-6.20894e-13
1.15622e-13
-6.26037e-13
2.28744e-13
-6.27874e-13
3.30279e-13
-5.55668e-13
4.1618e-13
-4.91931e-13
4.83796e-13
-4.37154e-13
5.21205e-13
-2.87576e-13
5.25134e-13
-1.45725e-13
4.86123e-13
1.04361e-14
3.94205e-13
2.49835e-13
2.31878e-13
5.41076e-13
-4.96945e-15
8.25919e-13
-3.55602e-13
1.30274e-12
-8.24744e-13
1.78807e-12
-1.47978e-12
2.50294e-12
-2.33291e-12
3.32437e-12
-3.53061e-12
4.68413e-12
-5.08471e-12
6.08075e-12
-7.35048e-12
8.89311e-12
-1.03678e-11
1.18661e-11
-1.50928e-11
1.85395e-11
-2.17035e-11
2.5973e-11
-3.34838e-11
4.63564e-11
-5.13425e-11
7.01462e-11
-9.18295e-11
1.60878e-10
-1.62709e-10
2.81233e-10
-4.29778e-10
1.15038e-09
-1.04268e-09
2.79696e-09
-4.52555e-09
3.89753e-08
-7.26133e-09
4.36853e-08
-8.725e-08
6.48903e-09
-9.37396e-08
4.36707e-09
4.58073e-08
1.1671e-09
4.21753e-08
4.9158e-10
3.47247e-09
1.90869e-10
1.45111e-09
1.07962e-10
3.64127e-10
6.06672e-11
2.08165e-10
3.96305e-11
9.11994e-11
2.57873e-11
6.01943e-11
1.79954e-11
3.37519e-11
1.24333e-11
2.41196e-11
8.87659e-12
1.54125e-11
6.20823e-12
1.15571e-11
4.37252e-12
7.93667e-12
2.95918e-12
6.08885e-12
1.94964e-12
4.31943e-12
1.17017e-12
3.29905e-12
6.09709e-13
2.33751e-12
1.87749e-13
1.71656e-12
-1.03881e-13
1.12929e-12
-3.06826e-13
7.32091e-13
-4.28679e-13
3.57686e-13
-4.91679e-13
9.10452e-14
-5.02675e-13
-1.5026e-13
-4.75261e-13
-3.2389e-13
-4.15328e-13
-4.76912e-13
-3.31975e-13
-5.84918e-13
-2.30715e-13
-6.66071e-13
-1.18349e-13
-7.23806e-13
-9.92809e-16
-7.34603e-13
1.16855e-13
-7.40467e-13
2.30237e-13
-7.39298e-13
3.30998e-13
-6.56388e-13
4.13815e-13
-5.73076e-13
4.74951e-13
-4.97033e-13
5.02057e-13
-3.16986e-13
4.90633e-13
-1.40395e-13
4.28956e-13
6.99683e-14
3.06874e-13
3.68443e-13
1.03275e-13
7.40597e-13
-1.87531e-13
1.10982e-12
-6.09886e-13
1.72553e-12
-1.17055e-12
2.34599e-12
-1.94894e-12
3.28323e-12
-2.959e-12
4.32942e-12
-4.37261e-12
6.09857e-12
-6.20698e-12
7.91554e-12
-8.87559e-12
1.15622e-11
-1.24326e-11
1.54257e-11
-1.79939e-11
2.40999e-11
-2.57866e-11
3.37659e-11
-3.96303e-11
6.01974e-11
-6.06657e-11
9.11812e-11
-1.07961e-10
2.08173e-10
-1.90868e-10
3.64138e-10
-4.91578e-10
1.45109e-09
-1.1671e-09
3.47248e-09
-4.36706e-09
4.21753e-08
-6.48903e-09
4.58073e-08
-9.3739e-08
6.0227e-09
-9.97623e-08
4.18743e-09
4.76426e-08
1.28764e-09
4.50751e-08
5.54113e-10
4.206e-09
2.20576e-10
1.78465e-09
1.25071e-10
4.59633e-10
7.0643e-11
2.62594e-10
4.62191e-11
1.15628e-10
3.01838e-11
7.62236e-11
2.11265e-11
4.28117e-11
1.46726e-11
3.05704e-11
1.05374e-11
1.9546e-11
7.43827e-12
1.46565e-11
5.30208e-12
1.00708e-11
3.65717e-12
7.73051e-12
2.47859e-12
5.49776e-12
1.56648e-12
4.21399e-12
9.06668e-13
2.99572e-12
4.06498e-13
2.21758e-12
5.5862e-14
1.48266e-12
-1.93054e-13
9.77399e-13
-3.49216e-13
5.18458e-13
-4.38234e-13
1.80889e-13
-4.67936e-13
-1.14735e-13
-4.53948e-13
-3.39269e-13
-4.03026e-13
-5.30968e-13
-3.25489e-13
-6.61666e-13
-2.27664e-13
-7.70735e-13
-1.17272e-13
-8.32185e-13
-1.05813e-15
-8.57603e-13
1.15606e-13
-8.54398e-13
2.26947e-13
-8.47142e-13
3.24356e-13
-7.50787e-13
4.01398e-13
-6.53907e-13
4.53438e-13
-5.49344e-13
4.67219e-13
-3.25008e-13
4.37161e-13
-1.05449e-13
3.49394e-13
1.55281e-13
1.9308e-13
5.31122e-13
-5.64427e-14
9.91334e-13
-4.0638e-13
1.46028e-12
-9.06884e-13
2.22487e-12
-1.56679e-12
3.0041e-12
-2.47791e-12
4.1916e-12
-3.65694e-12
5.51097e-12
-5.30204e-12
7.74325e-12
-7.43698e-12
1.00474e-11
-1.05363e-11
1.46636e-11
-1.46717e-11
1.95536e-11
-2.11249e-11
3.05567e-11
-3.0183e-11
4.28261e-11
-4.62187e-11
7.62326e-11
-7.06414e-11
1.15605e-10
-1.2507e-10
2.62605e-10
-2.20575e-10
4.59645e-10
-5.54111e-10
1.78463e-09
-1.28764e-09
4.20601e-09
-4.18742e-09
4.50751e-08
-6.0227e-09
4.76426e-08
-9.97617e-08
5.60126e-09
-1.05364e-07
4.03682e-09
4.9207e-08
1.40408e-09
4.77078e-08
6.17235e-10
4.99284e-09
2.51829e-10
2.15006e-09
1.43179e-10
5.68282e-10
8.1298e-11
3.24474e-10
5.32684e-11
1.43653e-10
3.49076e-11
9.45869e-11
2.44972e-11
5.32207e-11
1.70926e-11
3.79758e-11
1.23379e-11
2.43046e-11
8.77858e-12
1.82134e-11
6.32017e-12
1.25339e-11
4.42728e-12
9.62129e-12
3.06698e-12
6.85971e-12
2.01223e-12
5.27046e-12
1.24505e-12
3.76583e-12
6.60109e-13
2.80433e-12
2.44989e-13
1.90061e-12
-5.44934e-14
1.28327e-12
-2.48947e-13
7.10621e-13
-3.67435e-13
2.95163e-13
-4.18942e-13
-6.65587e-14
-4.21155e-13
-3.3821e-13
-3.8178e-13
-5.63021e-13
-3.12447e-13
-7.28313e-13
-2.20291e-13
-8.51429e-13
-1.14068e-13
-9.41342e-13
-1.11185e-15
-9.63991e-13
1.12212e-13
-9.73603e-13
2.19336e-13
-9.56375e-13
3.11124e-13
-8.39962e-13
3.80031e-13
-7.20324e-13
4.20439e-13
-5.91335e-13
4.18096e-13
-3.25235e-13
3.66323e-13
-5.22525e-14
2.49036e-13
2.76482e-13
5.44905e-14
7.23739e-13
-2.45575e-13
1.29031e-12
-6.60085e-13
1.87652e-12
-1.2453e-12
2.81078e-12
-2.01248e-12
3.77326e-12
-3.0663e-12
5.25388e-12
-4.42699e-12
6.87484e-12
-6.32002e-12
9.63384e-12
-8.77725e-12
1.2505e-11
-1.23367e-11
1.8222e-11
-1.70916e-11
2.43148e-11
-2.44954e-11
3.79573e-11
-3.49066e-11
5.32367e-11
-5.32678e-11
9.45944e-11
-8.12963e-11
1.43637e-10
-1.43178e-10
3.24485e-10
-2.51828e-10
5.68287e-10
-6.17233e-10
2.15004e-09
-1.40408e-09
4.99286e-09
-4.03682e-09
4.77078e-08
-5.60126e-09
4.9207e-08
-1.05363e-07
5.13958e-09
-1.10503e-07
3.8936e-09
5.0453e-08
1.51593e-09
5.00855e-08
6.80795e-10
5.82798e-09
2.84623e-10
2.54623e-09
1.6231e-10
6.90593e-10
9.26601e-11
3.94125e-10
6.07994e-11
1.75514e-10
3.99744e-11
1.15409e-10
2.81186e-11
6.50761e-11
1.97015e-11
4.63949e-11
1.42837e-11
2.97184e-11
1.02328e-11
2.22666e-11
7.42907e-12
1.53302e-11
5.27078e-12
1.17873e-11
3.71529e-12
8.41364e-12
2.50733e-12
6.47445e-12
1.62435e-12
4.64776e-12
9.47801e-13
3.47723e-12
4.62564e-13
2.38135e-12
1.07777e-13
1.63143e-12
-1.28955e-13
9.49067e-13
-2.80351e-13
4.47661e-13
-3.56667e-13
1.16964e-14
-3.77732e-13
-3.118e-13
-3.52333e-13
-5.87309e-13
-2.934e-13
-7.85479e-13
-2.09024e-13
-9.4867e-13
-1.08914e-13
-1.03444e-12
-1.19443e-15
-1.07733e-12
1.06893e-13
-1.07497e-12
2.07796e-13
-1.06207e-12
2.91886e-13
-9.31549e-13
3.50447e-13
-7.73923e-13
3.76802e-13
-6.16163e-13
3.55696e-13
-3.04748e-13
2.79207e-13
2.23961e-14
1.28918e-13
4.28682e-13
-1.07827e-13
9.5963e-13
-4.63131e-13
1.64249e-12
-9.47887e-13
2.36087e-12
-1.62464e-12
3.48812e-12
-2.50752e-12
4.65217e-12
-3.71463e-12
6.45389e-12
-5.27043e-12
8.42467e-12
-7.42879e-12
1.17952e-11
-1.02315e-11
1.53072e-11
-1.42823e-11
2.22734e-11
-1.97002e-11
2.97325e-11
-2.81167e-11
4.63729e-11
-3.99733e-11
6.50894e-11
-6.07986e-11
1.15419e-10
-9.26583e-11
1.75486e-10
-1.62308e-10
3.94132e-10
-2.84621e-10
6.9061e-10
-6.80792e-10
2.5462e-09
-1.51593e-09
5.82799e-09
-3.8936e-09
5.00855e-08
-5.13959e-09
5.0453e-08
-1.10503e-07
4.66418e-09
-1.15167e-07
3.7434e-09
5.13738e-08
1.62262e-09
5.22063e-08
7.44609e-10
6.70599e-09
3.1894e-10
2.9719e-09
1.82483e-10
8.27051e-10
1.04759e-10
4.71845e-10
6.88346e-11
2.11445e-10
4.54018e-11
1.38846e-10
3.20033e-11
7.84772e-11
2.25084e-11
5.58926e-11
1.63813e-11
3.58438e-11
1.18059e-11
2.68383e-11
8.63214e-12
1.85107e-11
6.18989e-12
1.42212e-11
4.42491e-12
1.01788e-11
3.05258e-12
7.85227e-12
2.04488e-12
5.65166e-12
1.26954e-12
4.25531e-12
7.08285e-13
2.94171e-12
2.93343e-13
2.05145e-12
1.02231e-14
1.23221e-12
-1.77558e-13
6.34019e-13
-2.81676e-13
1.12962e-13
-3.24229e-13
-2.69417e-13
-3.15132e-13
-6.01857e-13
-2.68744e-13
-8.35183e-13
-1.94049e-13
-1.0153e-12
-1.01971e-13
-1.12867e-12
-1.25893e-15
-1.17455e-12
9.97384e-14
-1.18108e-12
1.92563e-13
-1.15491e-12
2.67024e-13
-1.00305e-12
3.13098e-13
-8.31133e-13
3.23064e-13
-6.23516e-13
2.80571e-13
-2.58358e-13
1.76379e-13
1.26445e-13
-1.03963e-14
6.09497e-13
-2.93439e-13
1.23995e-12
-7.08843e-13
2.06013e-12
-1.26973e-12
2.92469e-12
-2.0452e-12
4.26024e-12
-3.05269e-12
5.66728e-12
-4.42427e-12
7.82147e-12
-6.18948e-12
1.01897e-11
-8.63171e-12
1.42371e-11
-1.18044e-11
1.84789e-11
-1.63798e-11
2.68457e-11
-2.25069e-11
3.58612e-11
-3.20014e-11
5.58715e-11
-4.54005e-11
7.84934e-11
-6.88336e-11
1.38852e-10
-1.04757e-10
2.11421e-10
-1.82481e-10
4.71855e-10
-3.18938e-10
8.2706e-10
-7.44607e-10
2.97188e-09
-1.62262e-09
6.706e-09
-3.7434e-09
5.22063e-08
-4.66418e-09
5.13738e-08
-1.15167e-07
4.19676e-09
-1.19364e-07
3.58644e-09
5.19841e-08
1.72361e-09
5.40691e-08
8.08467e-10
7.62113e-09
3.5475e-10
3.42561e-09
2.03718e-10
9.78086e-10
1.17623e-10
5.57947e-10
7.73974e-11
2.51663e-10
5.12083e-11
1.65035e-10
3.61654e-11
9.35202e-11
2.55239e-11
6.65284e-11
1.86385e-11
4.2739e-11
1.35034e-11
3.1979e-11
9.93358e-12
2.20779e-11
7.18775e-12
1.69687e-11
5.19807e-12
1.21694e-11
3.64948e-12
9.39831e-12
2.50763e-12
6.79398e-12
1.62591e-12
5.13392e-12
9.82479e-13
3.5895e-12
5.02275e-13
2.52861e-12
1.68532e-13
1.56298e-12
-5.91975e-14
8.65689e-13
-1.94163e-13
2.47909e-13
-2.60856e-13
-2.1276e-13
-2.70373e-13
-5.89548e-13
-2.38603e-13
-8.61382e-13
-1.7554e-13
-1.07668e-12
-9.32743e-14
-1.22323e-12
-1.34316e-15
-1.26786e-12
9.08342e-14
-1.2772e-12
1.73774e-13
-1.23157e-12
2.36657e-13
-1.0646e-12
2.68206e-13
-8.54577e-13
2.59441e-13
-6.16233e-13
1.92913e-13
-1.92806e-13
5.79651e-14
2.61757e-13
-1.68848e-13
8.40802e-13
-5.02424e-13
1.57943e-12
-9.83017e-13
2.53652e-12
-1.62623e-12
3.56246e-12
-2.50797e-12
5.14551e-12
-3.64955e-12
6.80035e-12
-5.19742e-12
9.37838e-12
-7.18727e-12
1.21819e-11
-9.93303e-12
1.69791e-11
-1.3502e-11
2.20498e-11
-1.8637e-11
3.19853e-11
-2.55222e-11
4.27399e-11
-3.61634e-11
6.65118e-11
-5.12068e-11
9.3539e-11
-7.73961e-11
1.65045e-10
-1.17621e-10
2.51637e-10
-2.03716e-10
5.57952e-10
-3.54748e-10
9.78094e-10
-8.08465e-10
3.4256e-09
-1.7236e-09
7.62115e-09
-3.58644e-09
5.40691e-08
-4.19676e-09
5.19841e-08
-1.19364e-07
3.7389e-09
-1.23103e-07
3.42508e-09
5.22979e-08
1.81832e-09
5.56759e-08
8.72126e-10
8.56731e-09
3.92009e-10
3.90573e-09
2.26026e-10
1.14407e-09
1.3128e-10
6.52686e-10
8.65114e-11
2.96434e-10
5.74135e-11
1.94134e-10
4.06194e-11
1.10309e-10
2.87595e-11
7.83885e-11
2.10641e-11
5.04244e-11
1.53322e-11
3.77085e-11
1.13385e-11
2.6069e-11
8.26818e-12
2.0041e-11
6.03762e-12
1.44025e-11
4.30021e-12
1.11393e-11
3.01418e-12
8.07849e-12
2.0181e-12
6.13268e-12
1.28592e-12
4.31943e-12
7.35127e-13
3.07773e-12
3.4634e-13
1.95722e-12
7.49261e-14
1.13739e-12
-9.40535e-14
4.16187e-13
-1.87536e-13
-1.10975e-13
-2.1805e-13
-5.62334e-13
-2.03008e-13
-8.83227e-13
-1.53525e-13
-1.13049e-12
-8.28128e-14
-1.28231e-12
-1.43366e-15
-1.34518e-12
8.01986e-14
-1.35024e-12
1.5143e-13
-1.30413e-12
2.00833e-13
-1.11532e-12
2.15722e-13
-8.72547e-13
1.8589e-13
-5.86379e-13
9.26223e-14
-9.9757e-14
-7.62294e-14
4.33623e-13
-3.46792e-13
1.10536e-12
-7.35355e-13
1.96156e-12
-1.28646e-12
3.09126e-12
-2.0185e-12
4.29566e-12
-3.01456e-12
6.13914e-12
-4.3002e-12
8.09296e-12
-6.037e-12
1.11062e-11
-8.26763e-12
1.44143e-11
-1.13378e-11
2.00536e-11
-1.53307e-11
2.60406e-11
-2.10624e-11
3.77145e-11
-2.87576e-11
5.04398e-11
-4.06173e-11
7.83665e-11
-5.74118e-11
1.1033e-10
-8.65099e-11
1.94143e-10
-1.31278e-10
2.96413e-10
-2.26023e-10
6.52702e-10
-3.92006e-10
1.14408e-09
-8.72123e-10
3.9057e-09
-1.81831e-09
8.56733e-09
-3.42508e-09
5.56759e-08
-3.7389e-09
5.22979e-08
-1.23102e-07
3.28798e-09
-1.26391e-07
3.2597e-09
5.23262e-08
1.90614e-09
5.70294e-08
9.35314e-10
9.53814e-09
4.3065e-10
4.41039e-09
2.49413e-10
1.32531e-09
1.45756e-10
7.56352e-10
9.62001e-11
3.45987e-10
6.40372e-11
2.26294e-10
4.5381e-11
1.28971e-10
3.22272e-11
9.15428e-11
2.36674e-11
5.89829e-11
1.72995e-11
4.40716e-11
1.28525e-11
3.05144e-11
9.4356e-12
2.34584e-11
6.94701e-12
1.68881e-11
5.0074e-12
1.30799e-11
3.56659e-12
9.525e-12
2.44763e-12
7.25363e-12
1.61982e-12
5.14723e-12
9.92818e-13
3.70897e-12
5.4429e-13
2.40212e-12
2.25313e-13
1.4486e-12
1.90561e-14
6.27068e-13
-1.04072e-13
1.39201e-14
-1.58002e-13
-5.06749e-13
-1.61848e-13
-8.82158e-13
-1.27879e-13
-1.16339e-12
-7.06026e-14
-1.34364e-12
-1.52602e-15
-1.41639e-12
6.77694e-14
-1.4187e-12
1.25477e-13
-1.36508e-12
1.59422e-13
-1.14866e-12
1.55504e-13
-8.70425e-13
1.02156e-13
-5.32203e-13
-2.06494e-14
2.67232e-14
-2.26711e-13
6.36606e-13
-5.44888e-13
1.4246e-12
-9.93092e-13
2.41761e-12
-1.62038e-12
3.72309e-12
-2.44813e-12
5.12382e-12
-3.56699e-12
7.26567e-12
-5.00736e-12
9.53129e-12
-6.94637e-12
1.30498e-11
-9.43497e-12
1.69019e-11
-1.28516e-11
2.34727e-11
-1.7298e-11
3.04894e-11
-2.36656e-11
4.40812e-11
-3.22251e-11
5.90018e-11
-4.53788e-11
9.15265e-11
-6.40354e-11
1.28994e-10
-9.61984e-11
2.26304e-10
-1.45753e-10
3.45959e-10
-2.4941e-10
7.56357e-10
-4.30647e-10
1.32531e-09
-9.35311e-10
4.41038e-09
-1.90614e-09
9.53815e-09
-3.2597e-09
5.70295e-08
-3.28798e-09
5.23262e-08
-1.2639e-07
2.84343e-09
-1.29234e-07
3.0898e-09
5.20798e-08
1.98645e-09
5.81328e-08
9.97727e-10
1.05269e-08
4.70588e-10
4.93753e-09
2.73876e-10
1.52201e-09
1.61074e-10
8.69143e-10
1.06486e-10
4.00581e-10
7.10995e-11
2.61678e-10
5.04659e-11
1.49601e-10
3.59398e-11
1.0607e-10
2.64583e-11
6.84725e-11
1.94132e-11
5.1131e-11
1.44818e-11
3.54516e-11
1.06949e-11
2.725e-11
7.93007e-12
1.96564e-11
5.77415e-12
1.52361e-11
4.16726e-12
1.11272e-11
2.91642e-12
8.50382e-12
1.98567e-12
6.08361e-12
1.27647e-12
4.4208e-12
7.63281e-13
2.91672e-12
3.92682e-13
1.83051e-12
1.45659e-13
8.72127e-13
-1.00498e-14
1.67341e-13
-8.99419e-14
-4.22747e-13
-1.14914e-13
-8.53451e-13
-9.85154e-14
-1.17617e-12
-5.65532e-14
-1.38209e-12
-1.61357e-15
-1.47222e-12
5.34836e-14
-1.47798e-12
9.57919e-14
-1.40081e-12
1.12228e-13
-1.16583e-12
8.7266e-14
-8.39773e-13
7.85988e-15
-4.53702e-13
-1.4745e-13
1.7466e-13
-3.94163e-13
8.83977e-13
-7.64037e-13
1.79655e-12
-1.27683e-12
2.92531e-12
-1.98625e-12
4.43062e-12
-2.91702e-12
6.04715e-12
-4.16769e-12
8.51169e-12
-5.77404e-12
1.11361e-11
-7.92943e-12
1.5206e-11
-1.06942e-11
1.96688e-11
-1.44808e-11
2.72606e-11
-1.94116e-11
3.54156e-11
-2.64563e-11
5.1135e-11
-3.59375e-11
6.84807e-11
-5.04635e-11
1.06053e-10
-7.10975e-11
1.49624e-10
-1.06484e-10
2.6169e-10
-1.61071e-10
4.00549e-10
-2.73873e-10
8.69158e-10
-4.70585e-10
1.52203e-09
-9.97724e-10
4.93752e-09
-1.98645e-09
1.05269e-08
-3.0898e-09
5.81328e-08
-2.84344e-09
5.20798e-08
-1.29234e-07
2.40578e-09
-1.3164e-07
2.91499e-09
5.15706e-08
2.05864e-09
5.89891e-08
1.05903e-09
1.15265e-08
5.11714e-10
5.48486e-09
2.99403e-10
1.73433e-09
1.77252e-10
9.91302e-10
1.17391e-10
4.60436e-10
7.86201e-11
3.00451e-10
5.58902e-11
1.72335e-10
3.99102e-11
1.22048e-10
2.94471e-11
7.89351e-11
2.16814e-11
5.88845e-11
1.62329e-11
4.08978e-11
1.20513e-11
3.1423e-11
8.99102e-12
2.27154e-11
6.60378e-12
1.7615e-11
4.81888e-12
1.29093e-11
3.42664e-12
9.89511e-12
2.3852e-12
7.11968e-12
1.5875e-12
5.21212e-12
1.00444e-12
3.49563e-12
5.77849e-13
2.2495e-12
2.86432e-13
1.16258e-12
9.5075e-14
3.61682e-13
-1.34965e-14
-3.18036e-13
-6.19543e-14
-8.06793e-13
-6.52537e-14
-1.174e-12
-4.06088e-14
-1.40945e-12
-1.71795e-15
-1.51651e-12
3.7306e-14
-1.5148e-12
6.21868e-14
-1.43058e-12
5.8997e-14
-1.16253e-12
1.06056e-14
-7.95459e-13
-9.75443e-14
-3.54346e-13
-2.88427e-13
3.7082e-13
-5.79437e-13
1.1772e-12
-1.00536e-12
2.22392e-12
-1.58793e-12
3.50961e-12
-2.38581e-12
5.22261e-12
-3.42732e-12
7.10403e-12
-4.81935e-12
9.90698e-12
-6.60363e-12
1.29212e-11
-8.99036e-12
1.75931e-11
-1.20505e-11
2.27243e-11
-1.62317e-11
3.14406e-11
-2.16797e-11
4.08712e-11
-2.9445e-11
5.88917e-11
-3.99077e-11
7.89418e-11
-5.58877e-11
1.22035e-10
-7.86179e-11
1.72357e-10
-1.17388e-10
3.00461e-10
-1.77249e-10
4.60416e-10
-2.994e-10
9.91313e-10
-5.11711e-10
1.73434e-09
-1.05903e-09
5.48483e-09
-2.05864e-09
1.15265e-08
-2.91499e-09
5.89892e-08
-2.40579e-09
5.15706e-08
-1.3164e-07
1.9756e-09
-1.33616e-07
2.73512e-09
5.08111e-08
2.12211e-09
5.96021e-08
1.11886e-09
1.25297e-08
5.53897e-10
6.04981e-09
3.25971e-10
1.96225e-09
1.94305e-10
1.12296e-09
1.28933e-10
5.25811e-10
8.66183e-11
3.42772e-10
6.167e-11
1.97277e-10
4.41517e-11
1.39573e-10
3.26443e-11
9.04424e-11
2.41128e-11
6.74222e-11
1.81126e-11
4.69017e-11
1.35104e-11
3.60287e-11
1.01343e-11
2.60938e-11
7.49998e-12
2.02548e-11
5.52442e-12
1.48941e-11
3.98068e-12
1.14392e-11
2.82031e-12
8.28093e-12
1.92744e-12
6.10838e-12
1.26898e-12
4.15621e-12
7.81841e-13
2.7446e-12
4.42156e-13
1.49856e-12
2.11857e-13
5.88949e-13
7.1808e-14
-1.85305e-13
-2.62588e-15
-7.307e-13
-2.78906e-14
-1.14791e-12
-2.2662e-14
-1.41076e-12
-1.80627e-15
-1.53692e-12
1.90802e-14
-1.53958e-12
2.44699e-14
-1.43667e-12
-6.10876e-16
-1.13851e-12
-7.49306e-14
-7.15324e-13
-2.146e-13
-2.05158e-13
-4.44371e-13
6.00449e-13
-7.83529e-13
1.51373e-12
-1.27007e-12
2.70652e-12
-1.92797e-12
4.16424e-12
-2.82094e-12
6.11904e-12
-3.98146e-12
8.24862e-12
-5.5249e-12
1.14503e-11
-7.49976e-12
1.48913e-11
-1.01337e-11
2.02288e-11
-1.35095e-11
2.61075e-11
-1.81114e-11
3.60324e-11
-2.41111e-11
4.68667e-11
-3.26421e-11
6.74195e-11
-4.4149e-11
9.04442e-11
-6.16673e-11
1.39545e-10
-8.66159e-11
1.97302e-10
-1.28931e-10
3.42779e-10
-1.94302e-10
5.25782e-10
-3.25968e-10
1.12297e-09
-5.53894e-10
1.96227e-09
-1.11886e-09
6.0498e-09
-2.12211e-09
1.25297e-08
-2.73512e-09
5.96022e-08
-1.9756e-09
5.08111e-08
-1.33615e-07
1.55347e-09
-1.35169e-07
2.55019e-09
4.98144e-08
2.1763e-09
5.9976e-08
1.17684e-09
1.35292e-08
5.96982e-10
6.62968e-09
3.53545e-10
2.20569e-09
2.12241e-10
1.26426e-09
1.41131e-10
5.96923e-10
9.51127e-11
3.88788e-10
6.78212e-11
2.2457e-10
4.86779e-11
1.58712e-10
3.60611e-11
1.03052e-10
2.67164e-11
7.67624e-11
2.01283e-11
5.34879e-11
1.50781e-11
4.10855e-11
1.13647e-11
2.98038e-11
8.46661e-12
2.31582e-11
6.28698e-12
1.70615e-11
4.58108e-12
1.31434e-11
3.29313e-12
9.57243e-12
2.29799e-12
7.10377e-12
1.55829e-12
4.89366e-12
1.00571e-12
3.2873e-12
6.13714e-13
1.89712e-12
3.40984e-13
8.62423e-13
1.6648e-13
-1.68724e-15
6.34162e-14
-6.22341e-13
1.38202e-14
-1.107e-12
-2.59463e-15
-1.4012e-12
-1.91318e-15
-1.53222e-12
-1.27413e-15
-1.53985e-12
-1.75986e-14
-1.41717e-12
-6.69385e-14
-1.08644e-12
-1.69825e-13
-6.19399e-13
-3.44042e-13
-3.57766e-14
-6.16151e-13
8.7242e-13
-1.00755e-12
1.90969e-12
-1.55955e-12
3.26932e-12
-2.29861e-12
4.89977e-12
-3.29379e-12
7.11642e-12
-4.58193e-12
9.55146e-12
-6.28753e-12
1.31495e-11
-8.46629e-12
1.70728e-11
-1.13641e-11
2.31209e-11
-1.50771e-11
2.98161e-11
-2.01269e-11
4.10983e-11
-2.67146e-11
5.34526e-11
-3.60588e-11
7.67702e-11
-4.8675e-11
1.03067e-10
-6.78184e-11
1.58696e-10
-9.51101e-11
2.24592e-10
-1.41129e-10
3.88796e-10
-2.12238e-10
5.96896e-10
-3.53541e-10
1.26428e-09
-5.96978e-10
2.20569e-09
-1.17684e-09
6.62966e-09
-2.17629e-09