/*--------------------------------*- C++ -*----------------------------------*\
| =========                 |                                                 |
| \\      /  F ield         | foam-extend: Open Source CFD                    |
|  \\    /   O peration     | Version:     4.0                                |
|   \\  /    A nd           | Web:         http://www.foam-extend.org         |
|    \\/     M anipulation  |                                                 |
\*---------------------------------------------------------------------------*/
FoamFile
{
    version     2.0;
    format      ascii;
    class       volVectorField;
    location    "11";
    object      U;
}
// * * * * * * * * * * * * * * * * * * * * * * * * * * * * * * * * * * * * * //

dimensions      [0 1 -1 0 0 0 0];

internalField   nonuniform List<vector> 
6960
(
(-1.72347e-06 -231.696 0)
(-1.03155e-06 -231.689 0)
(1.0762e-06 -231.689 0)
(4.3519e-07 -231.689 0)
(1.00359e-07 -231.689 0)
(6.36094e-08 -231.689 0)
(2.92212e-08 -231.689 0)
(2.06508e-08 -231.689 0)
(1.16117e-08 -231.689 0)
(8.49051e-09 -231.689 0)
(5.07007e-09 -231.689 0)
(3.63551e-09 -231.689 0)
(2.06926e-09 -231.689 0)
(1.31966e-09 -231.689 0)
(5.29088e-10 -231.689 0)
(1.19574e-10 -231.689 0)
(-2.8767e-10 -231.689 0)
(-5.00896e-10 -231.689 0)
(-6.94564e-10 -231.689 0)
(-7.81141e-10 -231.689 0)
(-8.43854e-10 -231.689 0)
(-8.43583e-10 -231.689 0)
(-8.22029e-10 -231.689 0)
(-7.61811e-10 -231.689 0)
(-6.83926e-10 -231.689 0)
(-5.82743e-10 -231.689 0)
(-4.69607e-10 -231.689 0)
(-3.424e-10 -231.689 0)
(-2.09264e-10 -231.689 0)
(-7.03749e-11 -231.689 0)
(6.98106e-11 -231.689 0)
(2.08645e-10 -231.689 0)
(3.41566e-10 -231.689 0)
(4.69616e-10 -231.689 0)
(5.82363e-10 -231.689 0)
(6.83249e-10 -231.689 0)
(7.61933e-10 -231.689 0)
(8.21683e-10 -231.689 0)
(8.43256e-10 -231.689 0)
(8.44388e-10 -231.689 0)
(7.81053e-10 -231.689 0)
(6.93996e-10 -231.689 0)
(5.0141e-10 -231.689 0)
(2.87823e-10 -231.689 0)
(-1.2007e-10 -231.689 0)
(-5.28635e-10 -231.689 0)
(-1.31935e-09 -231.689 0)
(-2.06921e-09 -231.689 0)
(-3.6344e-09 -231.689 0)
(-5.0694e-09 -231.689 0)
(-8.49066e-09 -231.689 0)
(-1.16109e-08 -231.689 0)
(-2.06505e-08 -231.689 0)
(-2.92211e-08 -231.689 0)
(-6.36084e-08 -231.689 0)
(-1.00358e-07 -231.689 0)
(-4.3519e-07 -231.689 0)
(-1.0762e-06 -231.689 0)
(1.03155e-06 -231.689 0)
(1.72347e-06 -231.696 0)
(0.000223452 14.5192 0)
(0.000225519 14.5263 0)
(3.18257e-06 14.5263 0)
(1.27255e-06 14.5263 0)
(3.05745e-07 14.5263 0)
(1.91856e-07 14.5263 0)
(8.90294e-08 14.5263 0)
(6.26607e-08 14.5263 0)
(3.55637e-08 14.5263 0)
(2.59886e-08 14.5263 0)
(1.57306e-08 14.5263 0)
(1.13541e-08 14.5263 0)
(6.64079e-09 14.5263 0)
(4.35988e-09 14.5263 0)
(1.98584e-09 14.5263 0)
(7.23286e-10 14.5263 0)
(-5.05131e-10 14.5263 0)
(-1.16035e-09 14.5263 0)
(-1.76815e-09 14.5263 0)
(-2.04452e-09 14.5263 0)
(-2.24857e-09 14.5263 0)
(-2.28262e-09 14.5263 0)
(-2.23769e-09 14.5263 0)
(-2.07927e-09 14.5263 0)
(-1.88419e-09 14.5263 0)
(-1.60534e-09 14.5263 0)
(-1.29133e-09 14.5263 0)
(-9.51571e-10 14.5263 0)
(-5.76007e-10 14.5263 0)
(-1.77401e-10 14.5263 0)
(1.54115e-10 14.5263 0)
(5.80336e-10 14.5263 0)
(9.95403e-10 14.5263 0)
(1.24506e-09 14.5263 0)
(1.60419e-09 14.5263 0)
(1.92839e-09 14.5263 0)
(2.03342e-09 14.5263 0)
(2.23673e-09 14.5263 0)
(2.32785e-09 14.5263 0)
(2.20389e-09 14.5263 0)
(2.04427e-09 14.5263 0)
(1.81267e-09 14.5263 0)
(1.1156e-09 14.5263 0)
(5.05618e-10 14.5263 0)
(-6.78479e-10 14.5263 0)
(-2.03071e-09 14.5263 0)
(-4.35895e-09 14.5263 0)
(-6.59437e-09 14.5263 0)
(-1.13971e-08 14.5263 0)
(-1.57285e-08 14.5263 0)
(-2.59428e-08 14.5263 0)
(-3.56077e-08 14.5263 0)
(-6.26598e-08 14.5263 0)
(-8.89828e-08 14.5263 0)
(-1.91899e-07 14.5263 0)
(-3.05743e-07 14.5263 0)
(-1.2725e-06 14.5263 0)
(-3.18262e-06 14.5263 0)
(-0.000225519 14.5263 0)
(-0.000223452 14.5192 0)
(0.000193018 41.5139 0)
(0.000196172 41.5102 0)
(4.95825e-06 41.5102 0)
(2.07319e-06 41.5102 0)
(5.17041e-07 41.5102 0)
(3.2264e-07 41.5102 0)
(1.51029e-07 41.5102 0)
(1.06052e-07 41.5102 0)
(6.06844e-08 41.5102 0)
(4.44018e-08 41.5102 0)
(2.72146e-08 41.5102 0)
(1.97821e-08 41.5102 0)
(1.18909e-08 41.5102 0)
(8.01864e-09 41.5102 0)
(4.02701e-09 41.5102 0)
(1.88697e-09 41.5102 0)
(-1.94564e-10 41.5102 0)
(-1.32895e-09 41.5102 0)
(-2.368e-09 41.5102 0)
(-2.87259e-09 41.5102 0)
(-3.25659e-09 41.5102 0)
(-3.34956e-09 41.5102 0)
(-3.32425e-09 41.5102 0)
(-3.11315e-09 41.5102 0)
(-2.83061e-09 41.5102 0)
(-2.42283e-09 41.5102 0)
(-1.95779e-09 41.5102 0)
(-1.43932e-09 41.5102 0)
(-8.76473e-10 41.5102 0)
(-2.80636e-10 41.5102 0)
(2.58839e-10 41.5102 0)
(8.78821e-10 41.5102 0)
(1.47607e-09 41.5102 0)
(1.91692e-09 41.5102 0)
(2.42087e-09 41.5102 0)
(2.86793e-09 41.5102 0)
(3.07307e-09 41.5102 0)
(3.32275e-09 41.5102 0)
(3.38861e-09 41.5102 0)
(3.21838e-09 41.5102 0)
(2.87215e-09 41.5102 0)
(2.40588e-09 41.5102 0)
(1.29061e-09 41.5102 0)
(1.95372e-10 41.5102 0)
(-1.84852e-09 41.5102 0)
(-4.06543e-09 41.5102 0)
(-8.0171e-09 41.5102 0)
(-1.18499e-08 41.5102 0)
(-1.98176e-08 41.5102 0)
(-2.72112e-08 41.5102 0)
(-4.43616e-08 41.5102 0)
(-6.07215e-08 41.5102 0)
(-1.0605e-07 41.5102 0)
(-1.50988e-07 41.5102 0)
(-3.22676e-07 41.5102 0)
(-5.17038e-07 41.5102 0)
(-2.07315e-06 41.5102 0)
(-4.95829e-06 41.5102 0)
(-0.000196172 41.5102 0)
(-0.000193018 41.5139 0)
(8.99984e-05 9.94733 0)
(9.40569e-05 9.94349 0)
(6.49209e-06 9.94348 0)
(2.81834e-06 9.94347 0)
(7.33055e-07 9.94347 0)
(4.55572e-07 9.94347 0)
(2.15099e-07 9.94347 0)
(1.5077e-07 9.94347 0)
(8.69612e-08 9.94347 0)
(6.37238e-08 9.94347 0)
(3.95311e-08 9.94347 0)
(2.89382e-08 9.94347 0)
(1.78345e-08 9.94347 0)
(1.23172e-08 9.94347 0)
(6.67978e-09 9.94347 0)
(3.63037e-09 9.94347 0)
(6.68264e-10 9.94347 0)
(-9.78561e-10 9.94347 0)
(-2.47477e-09 9.94347 0)
(-3.24287e-09 9.94347 0)
(-3.84258e-09 9.94347 0)
(-4.02888e-09 9.94347 0)
(-4.06382e-09 9.94347 0)
(-3.84345e-09 9.94347 0)
(-3.51357e-09 9.94347 0)
(-3.02379e-09 9.94347 0)
(-2.45587e-09 9.94347 0)
(-1.80328e-09 9.94347 0)
(-1.10427e-09 9.94347 0)
(-3.64786e-10 9.94347 0)
(3.51394e-10 9.94347 0)
(1.10267e-09 9.94347 0)
(1.81826e-09 9.94347 0)
(2.43506e-09 9.94347 0)
(3.02097e-09 9.94347 0)
(3.5293e-09 9.94347 0)
(3.82385e-09 9.94347 0)
(4.06185e-09 9.94347 0)
(4.04704e-09 9.94347 0)
(3.82547e-09 9.94347 0)
(3.24223e-09 9.94347 0)
(2.49133e-09 9.94347 0)
(9.6124e-10 9.94347 0)
(-6.67171e-10 9.94347 0)
(-3.61287e-09 9.94347 0)
(-6.69703e-09 9.94347 0)
(-1.2315e-08 9.94347 0)
(-1.78136e-08 9.94347 0)
(-2.89516e-08 9.94347 0)
(-3.95264e-08 9.94347 0)
(-6.37039e-08 9.94347 0)
(-8.69766e-08 9.94347 0)
(-1.50768e-07 9.94347 0)
(-2.15077e-07 9.94347 0)
(-4.55586e-07 9.94347 0)
(-7.33051e-07 9.94347 0)
(-2.81832e-06 9.94347 0)
(-6.4921e-06 9.94348 0)
(-9.40569e-05 9.94349 0)
(-8.99984e-05 9.94733 0)
(5.67809e-05 -1.51581 0)
(6.16979e-05 -1.51635 0)
(7.92457e-06 -1.51635 0)
(3.51137e-06 -1.51636 0)
(9.52927e-07 -1.51636 0)
(5.90271e-07 -1.51636 0)
(2.81097e-07 -1.51636 0)
(1.96718e-07 -1.51636 0)
(1.14331e-07 -1.51636 0)
(8.3893e-08 -1.51636 0)
(5.26291e-08 -1.51636 0)
(3.87766e-08 -1.51636 0)
(2.44218e-08 -1.51636 0)
(1.721e-08 -1.51636 0)
(9.90326e-09 -1.51636 0)
(5.90724e-09 -1.51636 0)
(2.04176e-09 -1.51636 0)
(-1.46071e-10 -1.51636 0)
(-2.12982e-09 -1.51636 0)
(-3.19143e-09 -1.51636 0)
(-4.03698e-09 -1.51636 0)
(-4.35471e-09 -1.51636 0)
(-4.48438e-09 -1.51636 0)
(-4.29173e-09 -1.51636 0)
(-3.95758e-09 -1.51636 0)
(-3.42593e-09 -1.51636 0)
(-2.7963e-09 -1.51636 0)
(-2.05669e-09 -1.51636 0)
(-1.26354e-09 -1.51636 0)
(-4.21034e-10 -1.51636 0)
(4.09482e-10 -1.51636 0)
(1.25988e-09 -1.51636 0)
(2.064e-09 -1.51636 0)
(2.78141e-09 -1.51636 0)
(3.42221e-09 -1.51636 0)
(3.96582e-09 -1.51636 0)
(4.2785e-09 -1.51636 0)
(4.48197e-09 -1.51636 0)
(4.36605e-09 -1.51636 0)
(4.0268e-09 -1.51636 0)
(3.19059e-09 -1.51636 0)
(2.13919e-09 -1.51636 0)
(1.35599e-10 -1.51636 0)
(-2.04041e-09 -1.51636 0)
(-5.89649e-09 -1.51636 0)
(-9.91341e-09 -1.51636 0)
(-1.72073e-08 -1.51636 0)
(-2.44069e-08 -1.51636 0)
(-3.87821e-08 -1.51636 0)
(-5.26232e-08 -1.51636 0)
(-8.38792e-08 -1.51636 0)
(-1.14339e-07 -1.51636 0)
(-1.96715e-07 -1.51636 0)
(-2.81081e-07 -1.51636 0)
(-5.90276e-07 -1.51636 0)
(-9.52922e-07 -1.51636 0)
(-3.51136e-06 -1.51636 0)
(-7.92457e-06 -1.51635 0)
(-6.16979e-05 -1.51635 0)
(-5.67809e-05 -1.51581 0)
(6.09848e-05 -0.86037 0)
(6.66974e-05 -0.859874 0)
(9.25176e-06 -0.859875 0)
(4.16504e-06 -0.859883 0)
(1.17587e-06 -0.859884 0)
(7.26361e-07 -0.859884 0)
(3.48883e-07 -0.859884 0)
(2.43789e-07 -0.859884 0)
(1.42717e-07 -0.859884 0)
(1.0484e-07 -0.859884 0)
(6.6445e-08 -0.859884 0)
(4.92342e-08 -0.859884 0)
(3.15927e-08 -0.859884 0)
(2.26367e-08 -0.859884 0)
(1.36373e-08 -0.859884 0)
(8.65987e-09 -0.859884 0)
(3.86909e-09 -0.859884 0)
(1.11282e-09 -0.859884 0)
(-1.38502e-09 -0.859884 0)
(-2.76806e-09 -0.859884 0)
(-3.88699e-09 -0.859884 0)
(-4.36913e-09 -0.859884 0)
(-4.62465e-09 -0.859884 0)
(-4.49303e-09 -0.859884 0)
(-4.19148e-09 -0.859884 0)
(-3.6538e-09 -0.859884 0)
(-2.99914e-09 -0.859884 0)
(-2.21275e-09 -0.859884 0)
(-1.36311e-09 -0.859884 0)
(-4.54634e-10 -0.859884 0)
(4.41447e-10 -0.859884 0)
(1.35842e-09 -0.859884 0)
(2.21993e-09 -0.859884 0)
(2.98255e-09 -0.859884 0)
(3.64917e-09 -0.859884 0)
(4.19979e-09 -0.859884 0)
(4.4786e-09 -0.859884 0)
(4.62183e-09 -0.859884 0)
(4.3812e-09 -0.859884 0)
(3.87613e-09 -0.859884 0)
(2.76699e-09 -0.859884 0)
(1.39476e-09 -0.859884 0)
(-1.12404e-09 -0.859884 0)
(-3.86751e-09 -0.859884 0)
(-8.64827e-09 -0.859884 0)
(-1.36479e-08 -0.859884 0)
(-2.26334e-08 -0.859884 0)
(-3.15764e-08 -0.859884 0)
(-4.92394e-08 -0.859884 0)
(-6.64379e-08 -0.859884 0)
(-1.04825e-07 -0.859884 0)
(-1.42725e-07 -0.859884 0)
(-2.43785e-07 -0.859884 0)
(-3.48865e-07 -0.859884 0)
(-7.26367e-07 -0.859884 0)
(-1.17587e-06 -0.859884 0)
(-4.16502e-06 -0.859883 0)
(-9.25176e-06 -0.859875 0)
(-6.66974e-05 -0.859874 0)
(-6.09848e-05 -0.86037 0)
(6.15965e-05 0.308258 0)
(6.80022e-05 0.30844 0)
(1.04388e-05 0.308439 0)
(4.78356e-06 0.308429 0)
(1.4011e-06 0.308429 0)
(8.63477e-07 0.308429 0)
(4.18324e-07 0.308429 0)
(2.91882e-07 0.308429 0)
(1.72046e-07 0.308429 0)
(1.26498e-07 0.308429 0)
(8.09153e-08 0.308429 0)
(6.02467e-08 0.308429 0)
(3.92861e-08 0.308429 0)
(2.85352e-08 0.308429 0)
(1.78199e-08 0.308429 0)
(1.18288e-08 0.308429 0)
(6.0913e-09 0.308429 0)
(2.74003e-09 0.308429 0)
(-2.94189e-10 0.308429 0)
(-2.02467e-09 0.308429 0)
(-3.44205e-09 0.308429 0)
(-4.11594e-09 0.308429 0)
(-4.5251e-09 0.308429 0)
(-4.48414e-09 0.308429 0)
(-4.24525e-09 0.308429 0)
(-3.73308e-09 0.308429 0)
(-3.08553e-09 0.308429 0)
(-2.28512e-09 0.308429 0)
(-1.41234e-09 0.308429 0)
(-4.71654e-10 0.308429 0)
(4.57229e-10 0.308429 0)
(1.40652e-09 0.308429 0)
(2.2914e-09 0.308429 0)
(3.06792e-09 0.308429 0)
(3.7275e-09 0.308429 0)
(4.25287e-09 0.308429 0)
(4.46923e-09 0.308429 0)
(4.5219e-09 0.308429 0)
(4.12796e-09 0.308429 0)
(3.43118e-09 0.308429 0)
(2.02335e-09 0.308429 0)
(3.03581e-10 0.308429 0)
(-2.75131e-09 0.308429 0)
(-6.0895e-09 0.308429 0)
(-1.1817e-08 0.308429 0)
(-1.78301e-08 0.308429 0)
(-2.85314e-08 0.308429 0)
(-3.9269e-08 0.308429 0)
(-6.0251e-08 0.308429 0)
(-8.09071e-08 0.308429 0)
(-1.26482e-07 0.308429 0)
(-1.72053e-07 0.308429 0)
(-2.91878e-07 0.308429 0)
(-4.18305e-07 0.308429 0)
(-8.63481e-07 0.308429 0)
(-1.40109e-06 0.308429 0)
(-4.78354e-06 0.308429 0)
(-1.04388e-05 0.308439 0)
(-6.80022e-05 0.30844 0)
(-6.15965e-05 0.308258 0)
(5.51167e-05 0.340117 0)
(6.21154e-05 0.340071 0)
(1.14862e-05 0.34007 0)
(5.3645e-06 0.340059 0)
(1.62782e-06 0.340059 0)
(1.00127e-06 0.340059 0)
(4.89295e-07 0.340059 0)
(3.40906e-07 0.340059 0)
(2.02252e-07 0.340059 0)
(1.48805e-07 0.340059 0)
(9.59814e-08 0.340059 0)
(7.17551e-08 0.340059 0)
(4.74432e-08 0.340059 0)
(3.48464e-08 0.340059 0)
(2.2392e-08 0.340059 0)
(1.53557e-08 0.340059 0)
(8.65136e-09 0.340059 0)
(4.68005e-09 0.340059 0)
(1.08958e-09 0.340059 0)
(-1.01173e-09 0.340059 0)
(-2.7495e-09 0.340059 0)
(-3.63864e-09 0.340059 0)
(-4.2252e-09 0.340059 0)
(-4.30011e-09 0.340059 0)
(-4.149e-09 0.340059 0)
(-3.68885e-09 0.340059 0)
(-3.07528e-09 0.340059 0)
(-2.28795e-09 0.340059 0)
(-1.41986e-09 0.340059 0)
(-4.75246e-10 0.340059 0)
(4.60299e-10 0.340059 0)
(1.41271e-09 0.340059 0)
(2.29187e-09 0.340059 0)
(3.05807e-09 0.340059 0)
(3.68229e-09 0.340059 0)
(4.15447e-09 0.340059 0)
(4.28616e-09 0.340059 0)
(4.22162e-09 0.340059 0)
(3.64913e-09 0.340059 0)
(2.73999e-09 0.340059 0)
(1.01015e-09 0.340059 0)
(-1.08193e-09 0.340059 0)
(-4.69e-09 0.340059 0)
(-8.64936e-09 0.340059 0)
(-1.53451e-08 0.340059 0)
(-2.24004e-08 0.340059 0)
(-3.48421e-08 0.340059 0)
(-4.74269e-08 0.340059 0)
(-7.17571e-08 0.340059 0)
(-9.59722e-08 0.340059 0)
(-1.48789e-07 0.340059 0)
(-2.02258e-07 0.340059 0)
(-3.40901e-07 0.340059 0)
(-4.89277e-07 0.340059 0)
(-1.00127e-06 0.340059 0)
(-1.62782e-06 0.340059 0)
(-5.36448e-06 0.340059 0)
(-1.14862e-05 0.34007 0)
(-6.21155e-05 0.340071 0)
(-5.51167e-05 0.340117 0)
(4.8072e-05 0.151513 0)
(5.55802e-05 0.151481 0)
(1.24089e-05 0.15148 0)
(5.90586e-06 0.151469 0)
(1.8553e-06 0.151468 0)
(1.13942e-06 0.151468 0)
(5.61691e-07 0.151468 0)
(3.90783e-07 0.151468 0)
(2.33282e-07 0.151468 0)
(1.71706e-07 0.151468 0)
(1.11593e-07 0.151468 0)
(8.3708e-08 0.151468 0)
(5.60124e-08 0.151468 0)
(4.15177e-08 0.151468 0)
(2.73013e-08 0.151468 0)
(1.91883e-08 0.151468 0)
(1.14978e-08 0.151468 0)
(6.88285e-09 0.151468 0)
(2.71789e-09 0.151468 0)
(2.24855e-10 0.151468 0)
(-1.85222e-09 0.151468 0)
(-2.97709e-09 0.151468 0)
(-3.76097e-09 0.151468 0)
(-3.97275e-09 0.151468 0)
(-3.93041e-09 0.151468 0)
(-3.54402e-09 0.151468 0)
(-2.9863e-09 0.151468 0)
(-2.23439e-09 0.151468 0)
(-1.39344e-09 0.151468 0)
(-4.67548e-10 0.151468 0)
(4.52168e-10 0.151468 0)
(1.38494e-09 0.151468 0)
(2.23579e-09 0.151468 0)
(2.96958e-09 0.151468 0)
(3.53645e-09 0.151468 0)
(3.93358e-09 0.151468 0)
(3.95985e-09 0.151468 0)
(3.757e-09 0.151468 0)
(2.98589e-09 0.151468 0)
(1.84411e-09 0.151468 0)
(-2.26719e-10 0.151468 0)
(-2.71206e-09 0.151468 0)
(-6.89139e-09 0.151468 0)
(-1.14956e-08 0.151468 0)
(-1.91789e-08 0.151468 0)
(-2.73078e-08 0.151468 0)
(-4.15129e-08 0.151468 0)
(-5.5997e-08 0.151468 0)
(-8.37077e-08 0.151468 0)
(-1.11583e-07 0.151468 0)
(-1.71692e-07 0.151468 0)
(-2.33285e-07 0.151468 0)
(-3.90777e-07 0.151468 0)
(-5.61673e-07 0.151468 0)
(-1.13942e-06 0.151468 0)
(-1.85529e-06 0.151468 0)
(-5.90585e-06 0.151469 0)
(-1.24089e-05 0.15148 0)
(-5.55802e-05 0.151481 0)
(-4.8072e-05 0.151513 0)
(4.24487e-05 0.0773662 0)
(5.0391e-05 0.0773826 0)
(1.32153e-05 0.0773817 0)
(6.40745e-06 0.0773697 0)
(2.0828e-06 0.0773691 0)
(1.27763e-06 0.0773687 0)
(6.35418e-07 0.0773686 0)
(4.41452e-07 0.0773686 0)
(2.65093e-07 0.0773686 0)
(1.95163e-07 0.0773686 0)
(1.27712e-07 0.0773686 0)
(9.60645e-08 0.0773686 0)
(6.49516e-08 0.0773686 0)
(4.85059e-08 0.0773686 0)
(3.25042e-08 0.0773686 0)
(2.32825e-08 0.0773686 0)
(1.45872e-08 0.0773686 0)
(9.30609e-09 0.0773686 0)
(4.54975e-09 0.0773686 0)
(1.64606e-09 0.0773686 0)
(-7.86802e-10 0.0773686 0)
(-2.16519e-09 0.0773686 0)
(-3.16314e-09 0.0773686 0)
(-3.52932e-09 0.0773686 0)
(-3.61308e-09 0.0773686 0)
(-3.31818e-09 0.0773686 0)
(-2.834e-09 0.0773686 0)
(-2.13562e-09 0.0773686 0)
(-1.33975e-09 0.0773686 0)
(-4.50654e-10 0.0773686 0)
(4.3474e-10 0.0773686 0)
(1.32997e-09 0.0773686 0)
(2.13475e-09 0.0773686 0)
(2.81743e-09 0.0773686 0)
(3.3096e-09 0.0773686 0)
(3.61423e-09 0.0773686 0)
(3.51713e-09 0.0773686 0)
(3.15877e-09 0.0773686 0)
(2.17256e-09 0.0773686 0)
(7.79736e-10 0.0773686 0)
(-1.64822e-09 0.0773686 0)
(-4.54544e-09 0.0773686 0)
(-9.31352e-09 0.0773686 0)
(-1.45849e-08 0.0773686 0)
(-2.32741e-08 0.0773686 0)
(-3.25091e-08 0.0773686 0)
(-4.85007e-08 0.0773686 0)
(-6.49367e-08 0.0773686 0)
(-9.60622e-08 0.0773686 0)
(-1.277e-07 0.0773686 0)
(-1.95149e-07 0.0773686 0)
(-2.65094e-07 0.0773686 0)
(-4.41445e-07 0.0773686 0)
(-6.354e-07 0.0773686 0)
(-1.27763e-06 0.0773687 0)
(-2.08278e-06 0.0773691 0)
(-6.40743e-06 0.0773697 0)
(-1.32153e-05 0.0773817 0)
(-5.0391e-05 0.0773826 0)
(-4.24487e-05 0.0773662 0)
(3.75439e-05 0.0633075 0)
(4.5847e-05 0.0633391 0)
(1.39084e-05 0.0633385 0)
(6.8695e-06 0.0633259 0)
(2.30958e-06 0.0633251 0)
(1.41562e-06 0.0633247 0)
(7.10398e-07 0.0633246 0)
(4.92866e-07 0.0633246 0)
(2.97659e-07 0.0633246 0)
(2.19147e-07 0.0633246 0)
(1.44309e-07 0.0633245 0)
(1.08795e-07 0.0633245 0)
(7.42294e-08 0.0633245 0)
(5.57782e-08 0.0633245 0)
(3.79669e-08 0.0633245 0)
(2.76042e-08 0.0633245 0)
(1.78856e-08 0.0633245 0)
(1.19161e-08 0.0633245 0)
(6.55262e-09 0.0633245 0)
(3.22074e-09 0.0633245 0)
(4.17415e-10 0.0633245 0)
(-1.23011e-09 0.0633245 0)
(-2.45641e-09 0.0633245 0)
(-2.9918e-09 0.0633245 0)
(-3.21599e-09 0.0633245 0)
(-3.02712e-09 0.0633245 0)
(-2.63082e-09 0.0633245 0)
(-2.0006e-09 0.0633245 0)
(-1.26425e-09 0.0633245 0)
(-4.26435e-10 0.0633245 0)
(4.09942e-10 0.0633245 0)
(1.25322e-09 0.0633245 0)
(1.99761e-09 0.0633245 0)
(2.61424e-09 0.0633245 0)
(3.01752e-09 0.0633245 0)
(3.21523e-09 0.0633245 0)
(2.98012e-09 0.0633245 0)
(2.45163e-09 0.0633245 0)
(1.23615e-09 0.0633245 0)
(-4.23632e-10 0.0633245 0)
(-3.22319e-09 0.0633245 0)
(-6.54966e-09 0.0633245 0)
(-1.19226e-08 0.0633245 0)
(-1.78831e-08 0.0633245 0)
(-2.75966e-08 0.0633245 0)
(-3.79704e-08 0.0633245 0)
(-5.57726e-08 0.0633245 0)
(-7.42151e-08 0.0633245 0)
(-1.08791e-07 0.0633245 0)
(-1.44297e-07 0.0633245 0)
(-2.19133e-07 0.0633246 0)
(-2.97658e-07 0.0633246 0)
(-4.92858e-07 0.0633246 0)
(-7.1038e-07 0.0633246 0)
(-1.41561e-06 0.0633247 0)
(-2.30957e-06 0.0633251 0)
(-6.86948e-06 0.0633259 0)
(-1.39084e-05 0.0633385 0)
(-4.5847e-05 0.0633391 0)
(-3.75439e-05 0.0633075 0)
(3.28522e-05 0.0535666 0)
(4.14448e-05 0.0535995 0)
(1.44906e-05 0.0535992 0)
(7.29199e-06 0.0535862 0)
(2.5349e-06 0.0535852 0)
(1.55312e-06 0.0535847 0)
(7.86556e-07 0.0535846 0)
(5.44987e-07 0.0535846 0)
(3.30961e-07 0.0535846 0)
(2.43641e-07 0.0535845 0)
(1.61367e-07 0.0535845 0)
(1.21878e-07 0.0535845 0)
(8.38243e-08 0.0535845 0)
(6.33113e-08 0.0535845 0)
(4.36651e-08 0.0535845 0)
(3.21284e-08 0.0535845 0)
(2.13678e-08 0.0535845 0)
(1.4688e-08 0.0535845 0)
(8.70206e-09 0.0535845 0)
(4.92541e-09 0.0535845 0)
(1.73824e-09 0.0535845 0)
(-1.92455e-10 0.0535845 0)
(-1.65958e-09 0.0535845 0)
(-2.37692e-09 0.0535845 0)
(-2.75359e-09 0.0535845 0)
(-2.68288e-09 0.0535845 0)
(-2.38629e-09 0.0535845 0)
(-1.8362e-09 0.0535845 0)
(-1.1711e-09 0.0535845 0)
(-3.96314e-10 0.0535845 0)
(3.79239e-10 0.0535845 0)
(1.15881e-09 0.0535845 0)
(1.8311e-09 0.0535845 0)
(2.36964e-09 0.0535845 0)
(2.67228e-09 0.0535845 0)
(2.75093e-09 0.0535845 0)
(2.36566e-09 0.0535845 0)
(1.65435e-09 0.0535845 0)
(1.97176e-10 0.0535845 0)
(-1.74369e-09 0.0535845 0)
(-4.92816e-09 0.0535845 0)
(-8.70039e-09 0.0535845 0)
(-1.46936e-08 0.0535845 0)
(-2.1365e-08 0.0535845 0)
(-3.21214e-08 0.0535845 0)
(-4.36671e-08 0.0535845 0)
(-6.33052e-08 0.0535845 0)
(-8.38105e-08 0.0535845 0)
(-1.21873e-07 0.0535845 0)
(-1.61355e-07 0.0535845 0)
(-2.43627e-07 0.0535845 0)
(-3.30958e-07 0.0535846 0)
(-5.44978e-07 0.0535846 0)
(-7.86539e-07 0.0535846 0)
(-1.55311e-06 0.0535847 0)
(-2.53489e-06 0.0535852 0)
(-7.29198e-06 0.0535862 0)
(-1.44906e-05 0.0535992 0)
(-4.14448e-05 0.0535995 0)
(-3.28523e-05 0.0535666 0)
(2.83671e-05 0.0409058 0)
(3.71802e-05 0.0409413 0)
(1.49647e-05 0.0409414 0)
(7.6747e-06 0.0409279 0)
(2.75796e-06 0.0409268 0)
(1.68985e-06 0.0409262 0)
(8.63819e-07 0.0409261 0)
(5.97783e-07 0.0409261 0)
(3.64988e-07 0.040926 0)
(2.68634e-07 0.040926 0)
(1.78878e-07 0.040926 0)
(1.35304e-07 0.040926 0)
(9.3723e-08 0.040926 0)
(7.109e-08 0.040926 0)
(4.95825e-08 0.040926 0)
(3.68379e-08 0.040926 0)
(2.50161e-08 0.040926 0)
(1.7604e-08 0.040926 0)
(1.09808e-08 0.040926 0)
(6.7433e-09 0.040926 0)
(3.15974e-09 0.040926 0)
(9.32902e-10 0.040926 0)
(-7.86231e-10 0.040926 0)
(-1.69681e-09 0.040926 0)
(-2.23639e-09 0.040926 0)
(-2.29425e-09 0.040926 0)
(-2.10734e-09 0.040926 0)
(-1.64742e-09 0.040926 0)
(-1.06328e-09 0.040926 0)
(-3.61298e-10 0.040926 0)
(3.43655e-10 0.040926 0)
(1.04977e-09 0.040926 0)
(1.64019e-09 0.040926 0)
(2.09055e-09 0.040926 0)
(2.28265e-09 0.040926 0)
(2.23187e-09 0.040926 0)
(1.68588e-09 0.040926 0)
(7.80513e-10 0.040926 0)
(-9.29506e-10 0.040926 0)
(-3.1645e-09 0.040926 0)
(-6.74634e-09 0.040926 0)
(-1.09803e-08 0.040926 0)
(-1.76088e-08 0.040926 0)
(-2.50132e-08 0.040926 0)
(-3.68315e-08 0.040926 0)
(-4.95832e-08 0.040926 0)
(-7.10835e-08 0.040926 0)
(-9.37097e-08 0.040926 0)
(-1.35297e-07 0.040926 0)
(-1.78864e-07 0.040926 0)
(-2.68621e-07 0.040926 0)
(-3.64984e-07 0.040926 0)
(-5.97774e-07 0.0409261 0)
(-8.63801e-07 0.0409261 0)
(-1.68984e-06 0.0409262 0)
(-2.75795e-06 0.0409268 0)
(-7.67469e-06 0.0409279 0)
(-1.49647e-05 0.0409414 0)
(-3.71802e-05 0.0409413 0)
(-2.83671e-05 0.0409058 0)
(2.41645e-05 0.0295488 0)
(3.31315e-05 0.0295888 0)
(1.53333e-05 0.0295893 0)
(8.01738e-06 0.0295755 0)
(2.97791e-06 0.0295743 0)
(1.82551e-06 0.0295736 0)
(9.42098e-07 0.0295735 0)
(6.51222e-07 0.0295734 0)
(3.99731e-07 0.0295733 0)
(2.94122e-07 0.0295733 0)
(1.96836e-07 0.0295733 0)
(1.49066e-07 0.0295733 0)
(1.03918e-07 0.0295733 0)
(7.91056e-08 0.0295733 0)
(5.57092e-08 0.0295733 0)
(4.17219e-08 0.0295733 0)
(2.88192e-08 0.0295733 0)
(2.06525e-08 0.0295733 0)
(1.33771e-08 0.0295733 0)
(8.66302e-09 0.0295733 0)
(4.671e-09 0.0295733 0)
(2.13572e-09 0.0295733 0)
(1.54244e-10 0.0295733 0)
(-9.59866e-10 0.0295733 0)
(-1.67172e-09 0.0295733 0)
(-1.86736e-09 0.0295733 0)
(-1.79883e-09 0.0295733 0)
(-1.43776e-09 0.0295733 0)
(-9.42918e-10 0.0295733 0)
(-3.22087e-10 0.0295733 0)
(3.03895e-10 0.0295733 0)
(9.282e-10 0.0295733 0)
(1.42844e-09 0.0295733 0)
(1.78184e-09 0.0295733 0)
(1.85476e-09 0.0295733 0)
(1.66538e-09 0.0295733 0)
(9.49186e-10 0.0295733 0)
(-1.60468e-10 0.0295733 0)
(-2.13362e-09 0.0295733 0)
(-4.67517e-09 0.0295733 0)
(-8.66634e-09 0.0295733 0)
(-1.33777e-08 0.0295733 0)
(-2.06566e-08 0.0295733 0)
(-2.88161e-08 0.0295733 0)
(-4.1716e-08 0.0295733 0)
(-5.57085e-08 0.0295733 0)
(-7.90987e-08 0.0295733 0)
(-1.03905e-07 0.0295733 0)
(-1.49058e-07 0.0295733 0)
(-1.96821e-07 0.0295733 0)
(-2.94109e-07 0.0295733 0)
(-3.99725e-07 0.0295733 0)
(-6.51212e-07 0.0295734 0)
(-9.42081e-07 0.0295735 0)
(-1.8255e-06 0.0295736 0)
(-2.97789e-06 0.0295743 0)
(-8.01737e-06 0.0295755 0)
(-1.53332e-05 0.0295893 0)
(-3.31315e-05 0.0295888 0)
(-2.41645e-05 0.0295488 0)
(2.02582e-05 0.0209234 0)
(2.93148e-05 0.0209677 0)
(1.55989e-05 0.0209685 0)
(8.31976e-06 0.0209545 0)
(3.19381e-06 0.0209532 0)
(1.95977e-06 0.0209524 0)
(1.02129e-06 0.0209522 0)
(7.05266e-07 0.0209521 0)
(4.3518e-07 0.0209521 0)
(3.20101e-07 0.0209521 0)
(2.15239e-07 0.0209521 0)
(1.63162e-07 0.0209521 0)
(1.14406e-07 0.0209521 0)
(8.73535e-08 0.0209521 0)
(6.20395e-08 0.0209521 0)
(4.67739e-08 0.0209521 0)
(3.277e-08 0.0209521 0)
(2.38262e-08 0.0209521 0)
(1.58836e-08 0.0209521 0)
(1.06772e-08 0.0209521 0)
(6.26481e-09 0.0209521 0)
(3.40922e-09 0.0209521 0)
(1.15557e-09 0.0209521 0)
(-1.71773e-10 0.0209521 0)
(-1.0645e-09 0.0209521 0)
(-1.40633e-09 0.0209521 0)
(-1.46402e-09 0.0209521 0)
(-1.2096e-09 0.0209521 0)
(-8.11476e-10 0.0209521 0)
(-2.79165e-10 0.0209521 0)
(2.6042e-10 0.0209521 0)
(7.95539e-10 0.0209521 0)
(1.19823e-09 0.0209521 0)
(1.44677e-09 0.0209521 0)
(1.39275e-09 0.0209521 0)
(1.0564e-09 0.0209521 0)
(1.61205e-10 0.0209521 0)
(-1.16232e-09 0.0209521 0)
(-3.40835e-09 0.0209521 0)
(-6.2685e-09 0.0209521 0)
(-1.06807e-08 0.0209521 0)
(-1.58851e-08 0.0209521 0)
(-2.38296e-08 0.0209521 0)
(-3.27668e-08 0.0209521 0)
(-4.67685e-08 0.0209521 0)
(-6.20376e-08 0.0209521 0)
(-8.73461e-08 0.0209521 0)
(-1.14394e-07 0.0209521 0)
(-1.63152e-07 0.0209521 0)
(-2.15225e-07 0.0209521 0)
(-3.20088e-07 0.0209521 0)
(-4.35172e-07 0.0209521 0)
(-7.05254e-07 0.0209521 0)
(-1.02127e-06 0.0209522 0)
(-1.95976e-06 0.0209524 0)
(-3.19379e-06 0.0209532 0)
(-8.31974e-06 0.0209545 0)
(-1.55989e-05 0.0209685 0)
(-2.93148e-05 0.0209677 0)
(-2.02582e-05 0.0209234 0)
(1.66321e-05 0.0146154 0)
(2.57159e-05 0.014663 0)
(1.57643e-05 0.0146642 0)
(8.58154e-06 0.01465 0)
(3.40466e-06 0.0146486 0)
(2.09227e-06 0.0146477 0)
(1.10127e-06 0.0146475 0)
(7.59865e-07 0.0146474 0)
(4.7132e-07 0.0146474 0)
(3.46566e-07 0.0146473 0)
(2.34088e-07 0.0146473 0)
(1.77591e-07 0.0146473 0)
(1.25186e-07 0.0146473 0)
(9.58318e-08 0.0146473 0)
(6.85707e-08 0.0146473 0)
(5.19905e-08 0.0146473 0)
(3.68646e-08 0.0146473 0)
(2.71206e-08 0.0146473 0)
(1.84956e-08 0.0146473 0)
(1.27811e-08 0.0146473 0)
(7.93661e-09 0.0146473 0)
(4.74903e-09 0.0146473 0)
(2.21369e-09 0.0146473 0)
(6.63797e-10 0.0146473 0)
(-4.17982e-10 0.0146473 0)
(-9.13912e-10 0.0146473 0)
(-1.10506e-09 0.0146473 0)
(-9.64484e-10 0.0146473 0)
(-6.69908e-10 0.0146473 0)
(-2.3286e-10 0.0146473 0)
(2.13546e-10 0.0146473 0)
(6.52744e-10 0.0146473 0)
(9.5114e-10 0.0146473 0)
(1.0875e-09 0.0146473 0)
(8.99343e-10 0.0146473 0)
(4.08152e-10 0.0146473 0)
(-6.74352e-10 0.0146473 0)
(-2.22099e-09 0.0146473 0)
(-4.74932e-09 0.0146473 0)
(-7.93992e-09 0.0146473 0)
(-1.27849e-08 0.0146473 0)
(-1.8498e-08 0.0146473 0)
(-2.71234e-08 0.0146473 0)
(-3.68613e-08 0.0146473 0)
(-5.19855e-08 0.0146473 0)
(-6.85676e-08 0.0146473 0)
(-9.5824e-08 0.0146473 0)
(-1.25174e-07 0.0146473 0)
(-1.7758e-07 0.0146473 0)
(-2.34072e-07 0.0146473 0)
(-3.46552e-07 0.0146473 0)
(-4.7131e-07 0.0146474 0)
(-7.59852e-07 0.0146474 0)
(-1.10125e-06 0.0146475 0)
(-2.09226e-06 0.0146477 0)
(-3.40465e-06 0.0146486 0)
(-8.58152e-06 0.01465 0)
(-1.57642e-05 0.0146642 0)
(-2.57159e-05 0.014663 0)
(-1.66321e-05 0.0146154 0)
(1.32705e-05 0.0100816 0)
(2.23217e-05 0.0101316 0)
(1.58322e-05 0.0101333 0)
(8.80239e-06 0.010119 0)
(3.6094e-06 0.0101174 0)
(2.2226e-06 0.0101164 0)
(1.18188e-06 0.0101162 0)
(8.14958e-07 0.0101161 0)
(5.08129e-07 0.010116 0)
(3.73509e-07 0.010116 0)
(2.53379e-07 0.010116 0)
(1.92353e-07 0.010116 0)
(1.36258e-07 0.010116 0)
(1.0454e-07 0.010116 0)
(7.53016e-08 0.010116 0)
(5.737e-08 0.010116 0)
(4.11007e-08 0.010116 0)
(3.05334e-08 0.010116 0)
(2.12104e-08 0.010116 0)
(1.49719e-08 0.010116 0)
(9.68356e-09 0.010116 0)
(6.15242e-09 0.010116 0)
(3.32599e-09 0.010116 0)
(1.54445e-09 0.010116 0)
(2.65727e-10 0.010116 0)
(-3.91873e-10 0.010116 0)
(-7.23399e-10 0.010116 0)
(-7.03457e-10 0.010116 0)
(-5.18822e-10 0.010116 0)
(-1.83408e-10 0.010116 0)
(1.63481e-10 0.010116 0)
(5.00462e-10 0.010116 0)
(6.8818e-10 0.010116 0)
(7.05454e-10 0.010116 0)
(3.76322e-10 0.010116 0)
(-2.77262e-10 0.010116 0)
(-1.55508e-09 0.010116 0)
(-3.33383e-09 0.010116 0)
(-6.15381e-09 0.010116 0)
(-9.6866e-09 0.010116 0)
(-1.4976e-08 0.010116 0)
(-2.12136e-08 0.010116 0)
(-3.05356e-08 0.010116 0)
(-4.10973e-08 0.010116 0)
(-5.73653e-08 0.010116 0)
(-7.52975e-08 0.010116 0)
(-1.04532e-07 0.010116 0)
(-1.36247e-07 0.010116 0)
(-1.92341e-07 0.010116 0)
(-2.53363e-07 0.010116 0)
(-3.73495e-07 0.010116 0)
(-5.08118e-07 0.010116 0)
(-8.14945e-07 0.0101161 0)
(-1.18186e-06 0.0101162 0)
(-2.22259e-06 0.0101164 0)
(-3.60938e-06 0.0101174 0)
(-8.80238e-06 0.010119 0)
(-1.58322e-05 0.0101333 0)
(-2.23217e-05 0.0101316 0)
(-1.32705e-05 0.0100816 0)
(1.01614e-05 0.00691594 0)
(1.9123e-05 0.00696781 0)
(1.58061e-05 0.00696984 0)
(8.98204e-06 0.00695556 0)
(3.80688e-06 0.00695382 0)
(2.35031e-06 0.00695274 0)
(1.26293e-06 0.00695253 0)
(8.70471e-07 0.00695238 0)
(5.45579e-07 0.00695234 0)
(4.00918e-07 0.0069523 0)
(2.73109e-07 0.00695229 0)
(2.07447e-07 0.00695227 0)
(1.47622e-07 0.00695227 0)
(1.13478e-07 0.00695226 0)
(8.22319e-08 0.00695226 0)
(6.29118e-08 0.00695226 0)
(4.54775e-08 0.00695226 0)
(3.40632e-08 0.00695226 0)
(2.40265e-08 0.00695225 0)
(1.72481e-08 0.00695225 0)
(1.1504e-08 0.00695225 0)
(7.61765e-09 0.00695225 0)
(4.49083e-09 0.00695225 0)
(2.46866e-09 0.00695225 0)
(9.85289e-10 0.00695225 0)
(1.58609e-10 0.00695225 0)
(-3.19989e-10 0.00695225 0)
(-4.27171e-10 0.00695225 0)
(-3.58636e-10 0.00695225 0)
(-1.30946e-10 0.00695225 0)
(1.10374e-10 0.00695225 0)
(3.39092e-10 0.00695225 0)
(4.10021e-10 0.00695225 0)
(3.01581e-10 0.00695225 0)
(-1.75132e-10 0.00695225 0)
(-9.98459e-10 0.00695225 0)
(-2.47945e-09 0.00695225 0)
(-4.49921e-09 0.00695225 0)
(-7.62014e-09 0.00695225 0)
(-1.15068e-08 0.00695225 0)
(-1.72524e-08 0.00695225 0)
(-2.40304e-08 0.00695225 0)
(-3.40649e-08 0.00695226 0)
(-4.5474e-08 0.00695226 0)
(-6.29073e-08 0.00695226 0)
(-8.22267e-08 0.00695226 0)
(-1.13469e-07 0.00695226 0)
(-1.4761e-07 0.00695227 0)
(-2.07434e-07 0.00695227 0)
(-2.73092e-07 0.00695229 0)
(-4.00904e-07 0.0069523 0)
(-5.45566e-07 0.00695234 0)
(-8.70456e-07 0.00695238 0)
(-1.26292e-06 0.00695253 0)
(-2.35029e-06 0.00695274 0)
(-3.80686e-06 0.00695382 0)
(-8.98202e-06 0.00695556 0)
(-1.58061e-05 0.00696984 0)
(-1.9123e-05 0.00696781 0)
(-1.01614e-05 0.00691594 0)
(7.2939e-06 0.00476791 0)
(1.61122e-05 0.00482108 0)
(1.56897e-05 0.00482352 0)
(9.12026e-06 0.00480932 0)
(3.99595e-06 0.00480744 0)
(2.4749e-06 0.00480626 0)
(1.34423e-06 0.00480603 0)
(9.26312e-07 0.00480586 0)
(5.83631e-07 0.0048058 0)
(4.28778e-07 0.00480576 0)
(2.93271e-07 0.00480575 0)
(2.2287e-07 0.00480573 0)
(1.59276e-07 0.00480573 0)
(1.22645e-07 0.00480572 0)
(8.93614e-08 0.00480572 0)
(6.86157e-08 0.00480572 0)
(4.99944e-08 0.00480571 0)
(3.77095e-08 0.00480571 0)
(2.69431e-08 0.00480571 0)
(1.96086e-08 0.00480571 0)
(1.33968e-08 0.00480571 0)
(9.14368e-09 0.00480571 0)
(5.70717e-09 0.00480571 0)
(3.43548e-09 0.00480571 0)
(1.73984e-09 0.00480571 0)
(7.36799e-10 0.00480571 0)
(1.04552e-10 0.00480571 0)
(-1.36075e-10 0.00480571 0)
(-1.89641e-10 0.00480571 0)
(-7.55738e-11 0.00480571 0)
(5.43472e-11 0.00480571 0)
(1.68904e-10 0.00480571 0)
(1.17119e-10 0.00480571 0)
(-1.23491e-10 0.00480571 0)
(-7.54292e-10 0.00480571 0)
(-1.75456e-09 0.00480571 0)
(-3.44651e-09 0.00480571 0)
(-5.71615e-09 0.00480571 0)
(-9.14725e-09 0.00480571 0)
(-1.33995e-08 0.00480571 0)
(-1.96132e-08 0.00480571 0)
(-2.69476e-08 0.00480571 0)
(-3.77107e-08 0.00480571 0)
(-4.99908e-08 0.00480571 0)
(-6.86114e-08 0.00480572 0)
(-8.93553e-08 0.00480572 0)
(-1.22636e-07 0.00480572 0)
(-1.59265e-07 0.00480573 0)
(-2.22856e-07 0.00480573 0)