/*--------------------------------*- C++ -*----------------------------------*\
| =========                 |                                                 |
| \\      /  F ield         | foam-extend: Open Source CFD                    |
|  \\    /   O peration     | Version:     4.0                                |
|   \\  /    A nd           | Web:         http://www.foam-extend.org         |
|    \\/     M anipulation  |                                                 |
\*---------------------------------------------------------------------------*/
FoamFile
{
    version     2.0;
    format      ascii;
    class       volScalarField;
    location    "720";
    object      psiE;
}
// * * * * * * * * * * * * * * * * * * * * * * * * * * * * * * * * * * * * * //

dimensions      [0 0 0 0 0 0 0];

internalField   nonuniform List<scalar> 
6960
(
0.354408
0.354421
0.354436
0.35445
0.354462
0.354472
0.35448
0.354487
0.354493
0.354497
0.354501
0.354504
0.354507
0.354509
0.354511
0.354512
0.354513
0.354514
0.354515
0.354516
0.354517
0.354517
0.354518
0.354518
0.354518
0.354519
0.354519
0.354519
0.354519
0.354519
0.354519
0.354519
0.354519
0.354519
0.354519
0.354518
0.354518
0.354518
0.354517
0.354517
0.354516
0.354515
0.354514
0.354513
0.354512
0.354511
0.354509
0.354507
0.354504
0.354501
0.354497
0.354493
0.354487
0.35448
0.354472
0.354462
0.35445
0.354436
0.354421
0.354408
0.915992
0.916046
0.916106
0.916162
0.916209
0.91625
0.916283
0.916311
0.916333
0.916352
0.916367
0.916379
0.916389
0.916398
0.916404
0.91641
0.916415
0.916418
0.916422
0.916424
0.916427
0.916428
0.91643
0.916431
0.916432
0.916433
0.916434
0.916434
0.916435
0.916435
0.916435
0.916435
0.916434
0.916434
0.916433
0.916432
0.916431
0.91643
0.916428
0.916427
0.916424
0.916422
0.916418
0.916415
0.91641
0.916404
0.916398
0.916389
0.916379
0.916367
0.916352
0.916333
0.916311
0.916283
0.91625
0.916209
0.916162
0.916106
0.916046
0.915992
1.44544
1.44554
1.44566
1.44576
1.44585
1.44593
1.446
1.44605
1.44609
1.44613
1.44616
1.44618
1.4462
1.44622
1.44623
1.44624
1.44625
1.44626
1.44626
1.44627
1.44627
1.44627
1.44628
1.44628
1.44628
1.44628
1.44628
1.44629
1.44629
1.44629
1.44629
1.44629
1.44629
1.44628
1.44628
1.44628
1.44628
1.44628
1.44627
1.44627
1.44627
1.44626
1.44626
1.44625
1.44624
1.44623
1.44622
1.4462
1.44618
1.44616
1.44613
1.44609
1.44605
1.446
1.44593
1.44585
1.44576
1.44566
1.44554
1.44544
1.9718
1.97196
1.97214
1.9723
1.97244
1.97256
1.97266
1.97274
1.97281
1.97286
1.97291
1.97294
1.97297
1.973
1.97302
1.97303
1.97305
1.97306
1.97307
1.97307
1.97308
1.97308
1.97309
1.97309
1.97309
1.9731
1.9731
1.9731
1.9731
1.9731
1.9731
1.9731
1.9731
1.9731
1.9731
1.97309
1.97309
1.97309
1.97308
1.97308
1.97307
1.97307
1.97306
1.97305
1.97303
1.97302
1.973
1.97297
1.97294
1.97291
1.97286
1.97281
1.97274
1.97266
1.97256
1.97244
1.9723
1.97214
1.97196
1.9718
2.50426
2.50448
2.50472
2.50494
2.50514
2.5053
2.50543
2.50555
2.50564
2.50571
2.50577
2.50582
2.50586
2.50589
2.50592
2.50594
2.50596
2.50597
2.50598
2.50599
2.506
2.50601
2.50601
2.50602
2.50602
2.50603
2.50603
2.50603
2.50603
2.50603
2.50603
2.50603
2.50603
2.50603
2.50603
2.50602
2.50602
2.50601
2.50601
2.506
2.50599
2.50598
2.50597
2.50596
2.50594
2.50592
2.50589
2.50586
2.50582
2.50577
2.50571
2.50564
2.50555
2.50543
2.5053
2.50514
2.50494
2.50472
2.50448
2.50426
3.04573
3.04601
3.04632
3.0466
3.04685
3.04705
3.04723
3.04737
3.04748
3.04758
3.04766
3.04772
3.04777
3.04781
3.04784
3.04787
3.04789
3.04791
3.04793
3.04794
3.04795
3.04796
3.04796
3.04797
3.04797
3.04798
3.04798
3.04798
3.04799
3.04799
3.04799
3.04799
3.04798
3.04798
3.04798
3.04797
3.04797
3.04796
3.04796
3.04795
3.04794
3.04793
3.04791
3.04789
3.04787
3.04784
3.04781
3.04777
3.04772
3.04766
3.04758
3.04748
3.04737
3.04723
3.04705
3.04685
3.0466
3.04632
3.04601
3.04573
3.59708
3.59741
3.59779
3.59814
3.59844
3.59869
3.5989
3.59907
3.59922
3.59933
3.59942
3.5995
3.59956
3.59961
3.59965
3.59968
3.59971
3.59973
3.59975
3.59977
3.59978
3.59979
3.5998
3.59981
3.59981
3.59982
3.59982
3.59982
3.59982
3.59982
3.59982
3.59982
3.59982
3.59982
3.59982
3.59981
3.59981
3.5998
3.59979
3.59978
3.59977
3.59975
3.59973
3.59971
3.59968
3.59965
3.59961
3.59956
3.5995
3.59942
3.59933
3.59922
3.59907
3.5989
3.59869
3.59844
3.59814
3.59779
3.59741
3.59708
4.15848
4.15888
4.15933
4.15973
4.16009
4.16039
4.16063
4.16084
4.16101
4.16114
4.16125
4.16134
4.16141
4.16147
4.16152
4.16156
4.16159
4.16162
4.16164
4.16166
4.16167
4.16168
4.16169
4.1617
4.16171
4.16171
4.16172
4.16172
4.16172
4.16172
4.16172
4.16172
4.16172
4.16172
4.16171
4.16171
4.1617
4.16169
4.16168
4.16167
4.16166
4.16164
4.16162
4.16159
4.16156
4.16152
4.16147
4.16141
4.16134
4.16125
4.16114
4.16101
4.16084
4.16063
4.16039
4.16009
4.15973
4.15933
4.15888
4.15848
4.72988
4.73034
4.73085
4.73132
4.73173
4.73208
4.73236
4.7326
4.73279
4.73295
4.73307
4.73318
4.73326
4.73333
4.73338
4.73343
4.73346
4.73349
4.73352
4.73354
4.73356
4.73357
4.73358
4.73359
4.7336
4.73361
4.73361
4.73362
4.73362
4.73362
4.73362
4.73362
4.73362
4.73361
4.73361
4.7336
4.73359
4.73358
4.73357
4.73356
4.73354
4.73352
4.73349
4.73346
4.73343
4.73338
4.73333
4.73326
4.73318
4.73307
4.73295
4.73279
4.7326
4.73236
4.73208
4.73173
4.73132
4.73085
4.73034
4.72988
5.31111
5.31162
5.3122
5.31274
5.3132
5.31359
5.31391
5.31418
5.3144
5.31458
5.31472
5.31484
5.31493
5.31501
5.31507
5.31512
5.31516
5.3152
5.31523
5.31525
5.31527
5.31529
5.3153
5.31531
5.31532
5.31533
5.31533
5.31533
5.31534
5.31534
5.31534
5.31534
5.31533
5.31533
5.31533
5.31532
5.31531
5.3153
5.31529
5.31527
5.31525
5.31523
5.3152
5.31516
5.31512
5.31507
5.31501
5.31493
5.31484
5.31472
5.31458
5.3144
5.31418
5.31391
5.31359
5.3132
5.31274
5.3122
5.31162
5.31111
5.90192
5.9025
5.90314
5.90374
5.90426
5.90469
5.90505
5.90535
5.9056
5.90579
5.90595
5.90609
5.90619
5.90628
5.90635
5.9064
5.90645
5.90649
5.90652
5.90655
5.90657
5.90659
5.9066
5.90662
5.90663
5.90663
5.90664
5.90664
5.90665
5.90665
5.90665
5.90665
5.90664
5.90664
5.90663
5.90663
5.90662
5.9066
5.90659
5.90657
5.90655
5.90652
5.90649
5.90645
5.9064
5.90635
5.90628
5.90619
5.90609
5.90595
5.90579
5.9056
5.90535
5.90505
5.90469
5.90426
5.90374
5.90314
5.9025
5.90192
6.50203
6.50267
6.50338
6.50404
6.50461
6.50509
6.50549
6.50582
6.50609
6.50631
6.50649
6.50663
6.50675
6.50684
6.50692
6.50698
6.50704
6.50708
6.50711
6.50714
6.50717
6.50719
6.5072
6.50722
6.50723
6.50724
6.50724
6.50725
6.50725
6.50725
6.50725
6.50725
6.50725
6.50724
6.50724
6.50723
6.50722
6.5072
6.50719
6.50717
6.50714
6.50711
6.50708
6.50704
6.50698
6.50692
6.50684
6.50675
6.50663
6.50649
6.50631
6.50609
6.50582
6.50549
6.50509
6.50461
6.50404
6.50338
6.50267
6.50203
7.11109
7.11178
7.11256
7.11328
7.11391
7.11443
7.11487
7.11523
7.11553
7.11577
7.11596
7.11612
7.11625
7.11635
7.11644
7.11651
7.11656
7.11661
7.11665
7.11668
7.11671
7.11673
7.11675
7.11676
7.11677
7.11678
7.11679
7.1168
7.1168
7.1168
7.1168
7.1168
7.1168
7.11679
7.11678
7.11677
7.11676
7.11675
7.11673
7.11671
7.11668
7.11665
7.11661
7.11656
7.11651
7.11644
7.11635
7.11625
7.11612
7.11596
7.11577
7.11553
7.11523
7.11487
7.11443
7.11391
7.11328
7.11256
7.11178
7.11109
7.72867
7.72942
7.73027
7.73105
7.73173
7.7323
7.73277
7.73316
7.73348
7.73374
7.73396
7.73413
7.73427
7.73438
7.73447
7.73455
7.73461
7.73466
7.7347
7.73474
7.73477
7.73479
7.73481
7.73483
7.73484
7.73485
7.73486
7.73486
7.73487
7.73487
7.73487
7.73487
7.73486
7.73486
7.73485
7.73484
7.73483
7.73481
7.73479
7.73477
7.73474
7.7347
7.73466
7.73461
7.73455
7.73447
7.73438
7.73427
7.73413
7.73396
7.73374
7.73348
7.73316
7.73277
7.7323
7.73173
7.73105
7.73027
7.72942
7.72867
8.35429
8.3551
8.35601
8.35685
8.35758
8.35819
8.35871
8.35913
8.35947
8.35975
8.35998
8.36016
8.36032
8.36044
8.36054
8.36062
8.36069
8.36074
8.36079
8.36082
8.36086
8.36088
8.3609
8.36092
8.36094
8.36095
8.36096
8.36096
8.36097
8.36097
8.36097
8.36097
8.36096
8.36096
8.36095
8.36094
8.36092
8.3609
8.36088
8.36086
8.36082
8.36079
8.36074
8.36069
8.36062
8.36054
8.36044
8.36032
8.36016
8.35998
8.35975
8.35947
8.35913
8.35871
8.35819
8.35758
8.35685
8.35601
8.3551
8.35429
8.98736
8.98823
8.98921
8.9901
8.99088
8.99154
8.99209
8.99254
8.99291
8.99321
8.99345
8.99365
8.99381
8.99395
8.99405
8.99414
8.99421
8.99427
8.99432
8.99436
8.9944
8.99442
8.99445
8.99447
8.99448
8.99449
8.9945
8.99451
8.99451
8.99452
8.99452
8.99451
8.99451
8.9945
8.99449
8.99448
8.99447
8.99445
8.99442
8.9944
8.99436
8.99432
8.99427
8.99421
8.99414
8.99405
8.99395
8.99381
8.99365
8.99345
8.99321
8.99291
8.99254
8.99209
8.99154
8.99088
8.9901
8.98921
8.98823
8.98736
9.62723
9.62815
9.62919
9.63014
9.63097
9.63167
9.63226
9.63274
9.63313
9.63345
9.63371
9.63392
9.63409
9.63423
9.63435
9.63444
9.63452
9.63458
9.63463
9.63468
9.63471
9.63474
9.63477
9.63479
9.6348
9.63482
9.63483
9.63483
9.63484
9.63484
9.63484
9.63484
9.63483
9.63483
9.63482
9.6348
9.63479
9.63477
9.63474
9.63471
9.63468
9.63463
9.63458
9.63452
9.63444
9.63435
9.63423
9.63409
9.63392
9.63371
9.63345
9.63313
9.63274
9.63226
9.63167
9.63097
9.63014
9.62919
9.62815
9.62723
10.2731
10.2741
10.2752
10.2762
10.2771
10.2778
10.2784
10.2789
10.2793
10.2797
10.28
10.2802
10.2804
10.2805
10.2806
10.2807
10.2808
10.2809
10.2809
10.281
10.281
10.2811
10.2811
10.2811
10.2811
10.2811
10.2812
10.2812
10.2812
10.2812
10.2812
10.2812
10.2812
10.2812
10.2811
10.2811
10.2811
10.2811
10.2811
10.281
10.281
10.2809
10.2809
10.2808
10.2807
10.2806
10.2805
10.2804
10.2802
10.28
10.2797
10.2793
10.2789
10.2784
10.2778
10.2771
10.2762
10.2752
10.2741
10.2731
10.9241
10.9251
10.9263
10.9274
10.9283
10.9291
10.9297
10.9302
10.9307
10.931
10.9313
10.9316
10.9318
10.9319
10.932
10.9321
10.9322
10.9323
10.9324
10.9324
10.9325
10.9325
10.9325
10.9325
10.9326
10.9326
10.9326
10.9326
10.9326
10.9326
10.9326
10.9326
10.9326
10.9326
10.9326
10.9326
10.9325
10.9325
10.9325
10.9325
10.9324
10.9324
10.9323
10.9322
10.9321
10.932
10.9319
10.9318
10.9316
10.9313
10.931
10.9307
10.9302
10.9297
10.9291
10.9283
10.9274
10.9263
10.9251
10.9241
11.5792
11.5803
11.5815
11.5826
11.5836
11.5844
11.5851
11.5856
11.5861
11.5865
11.5868
11.587
11.5872
11.5874
11.5875
11.5876
11.5877
11.5878
11.5878
11.5879
11.5879
11.588
11.588
11.588
11.5881
11.5881
11.5881
11.5881
11.5881
11.5881
11.5881
11.5881
11.5881
11.5881
11.5881
11.5881
11.588
11.588
11.588
11.5879
11.5879
11.5878
11.5878
11.5877
11.5876
11.5875
11.5874
11.5872
11.587
11.5868
11.5865
11.5861
11.5856
11.5851
11.5844
11.5836
11.5826
11.5815
11.5803
11.5792
12.2372
12.2383
12.2396
12.2407
12.2417
12.2426
12.2433
12.2439
12.2444
12.2447
12.2451
12.2453
12.2455
12.2457
12.2459
12.246
12.2461
12.2461
12.2462
12.2463
12.2463
12.2463
12.2464
12.2464
12.2464
12.2464
12.2465
12.2465
12.2465
12.2465
12.2465
12.2465
12.2465
12.2465
12.2464
12.2464
12.2464
12.2464
12.2463
12.2463
12.2463
12.2462
12.2461
12.2461
12.246
12.2459
12.2457
12.2455
12.2453
12.2451
12.2447
12.2444
12.2439
12.2433
12.2426
12.2417
12.2407
12.2396
12.2383
12.2372
12.8967
12.8979
12.8992
12.9004
12.9014
12.9023
12.903
12.9037
12.9042
12.9046
12.9049
12.9052
12.9054
12.9056
12.9057
12.9058
12.9059
12.906
12.9061
12.9061
12.9062
12.9062
12.9063
12.9063
12.9063
12.9063
12.9063
12.9063
12.9064
12.9064
12.9064
12.9064
12.9063
12.9063
12.9063
12.9063
12.9063
12.9063
12.9062
12.9062
12.9061
12.9061
12.906
12.9059
12.9058
12.9057
12.9056
12.9054
12.9052
12.9049
12.9046
12.9042
12.9037
12.903
12.9023
12.9014
12.9004
12.8992
12.8979
12.8967
13.5562
13.5574
13.5587
13.56
13.5611
13.562
13.5627
13.5634
13.5639
13.5643
13.5646
13.5649
13.5652
13.5653
13.5655
13.5656
13.5657
13.5658
13.5659
13.5659
13.566
13.566
13.5661
13.5661
13.5661
13.5661
13.5662
13.5662
13.5662
13.5662
13.5662
13.5662
13.5662
13.5662
13.5661
13.5661
13.5661
13.5661
13.566
13.566
13.5659
13.5659
13.5658
13.5657
13.5656
13.5655
13.5653
13.5652
13.5649
13.5646
13.5643
13.5639
13.5634
13.5627
13.562
13.5611
13.56
13.5587
13.5574
13.5562
14.2138
14.2151
14.2165
14.2177
14.2188
14.2198
14.2206
14.2212
14.2217
14.2222
14.2225
14.2228
14.223
14.2232
14.2234
14.2235
14.2236
14.2237
14.2238
14.2239
14.2239
14.224
14.224
14.224
14.2241
14.2241
14.2241
14.2241
14.2241
14.2241
14.2241
14.2241
14.2241
14.2241
14.2241
14.2241
14.224
14.224
14.224
14.2239
14.2239
14.2238
14.2237
14.2236
14.2235
14.2234
14.2232
14.223
14.2228
14.2225
14.2222
14.2217
14.2212
14.2206
14.2198
14.2188
14.2177
14.2165
14.2151
14.2138
14.8675
14.8688
14.8702
14.8715
14.8727
14.8736
14.8744
14.8751
14.8756
14.8761
14.8764
14.8767
14.877
14.8772
14.8773
14.8775
14.8776
14.8777
14.8777
14.8778
14.8779
14.8779
14.8779
14.878
14.878
14.878
14.878
14.878
14.8781
14.8781
14.8781
14.8781
14.878
14.878
14.878
14.878
14.878
14.8779
14.8779
14.8779
14.8778
14.8777
14.8777
14.8776
14.8775
14.8773
14.8772
14.877
14.8767
14.8764
14.8761
14.8756
14.8751
14.8744
14.8736
14.8727
14.8715
14.8702
14.8688
14.8675
15.5149
15.5162
15.5176
15.5189
15.5201
15.5211
15.5219
15.5225
15.5231
15.5235
15.5239
15.5242
15.5245
15.5247
15.5248
15.525
15.5251
15.5252
15.5253
15.5253
15.5254
15.5254
15.5255
15.5255
15.5255
15.5256
15.5256
15.5256
15.5256
15.5256
15.5256
15.5256
15.5256
15.5256
15.5256
15.5255
15.5255
15.5255
15.5254
15.5254
15.5253
15.5253
15.5252
15.5251
15.525
15.5248
15.5247
15.5245
15.5242
15.5239
15.5235
15.5231
15.5225
15.5219
15.5211
15.5201
15.5189
15.5176
15.5162
15.5149
16.1531
16.1544
16.1558
16.1572
16.1583
16.1593
16.1601
16.1608
16.1613
16.1618
16.1622
16.1625
16.1627
16.1629
16.1631
16.1632
16.1634
16.1635
16.1635
16.1636
16.1637
16.1637
16.1638
16.1638
16.1638
16.1638
16.1639
16.1639
16.1639
16.1639
16.1639
16.1639
16.1639
16.1639
16.1638
16.1638
16.1638
16.1638
16.1637
16.1637
16.1636
16.1635
16.1635
16.1634
16.1632
16.1631
16.1629
16.1627
16.1625
16.1622
16.1618
16.1613
16.1608
16.1601
16.1593
16.1583
16.1572
16.1558
16.1544
16.1531
16.7788
16.7801
16.7815
16.7829
16.784
16.785
16.7858
16.7865
16.7871
16.7875
16.7879
16.7882
16.7884
16.7887
16.7888
16.789
16.7891
16.7892
16.7893
16.7893
16.7894
16.7895
16.7895
16.7895
16.7896
16.7896
16.7896
16.7896
16.7896
16.7896
16.7896
16.7896
16.7896
16.7896
16.7896
16.7896
16.7895
16.7895
16.7895
16.7894
16.7893
16.7893
16.7892
16.7891
16.789
16.7888
16.7887
16.7884
16.7882
16.7879
16.7875
16.7871
16.7865
16.7858
16.785
16.784
16.7829
16.7815
16.7801
16.7788
17.3881
17.3894
17.3908
17.3922
17.3933
17.3943
17.3951
17.3958
17.3963
17.3968
17.3972
17.3975
17.3977
17.3979
17.3981
17.3983
17.3984
17.3985
17.3986
17.3986
17.3987
17.3987
17.3988
17.3988
17.3988
17.3989
17.3989
17.3989
17.3989
17.3989
17.3989
17.3989
17.3989
17.3989
17.3989
17.3988
17.3988
17.3988
17.3987
17.3987
17.3986
17.3986
17.3985
17.3984
17.3983
17.3981
17.3979
17.3977
17.3975
17.3972
17.3968
17.3963
17.3958
17.3951
17.3943
17.3933
17.3922
17.3908
17.3894
17.3881
17.9765
17.9778
17.9792
17.9805
17.9816
17.9826
17.9833
17.984
17.9846
17.985
17.9854
17.9857
17.9859
17.9861
17.9863
17.9865
17.9866
17.9867
17.9868
17.9868
17.9869
17.987
17.987
17.987
17.9871
17.9871
17.9871
17.9871
17.9871
17.9871
17.9871
17.9871
17.9871
17.9871
17.9871
17.9871
17.987
17.987
17.987
17.9869
17.9868
17.9868
17.9867
17.9866
17.9865
17.9863
17.9861
17.9859
17.9857
17.9854
17.985
17.9846
17.984
17.9833
17.9826
17.9816
17.9805
17.9792
17.9778
17.9765
18.5384
18.5396
18.541
18.5423
18.5433
18.5443
18.545
18.5457
18.5462
18.5466
18.547
18.5473
18.5475
18.5478
18.5479
18.5481
18.5482
18.5483
18.5484
18.5484
18.5485
18.5486
18.5486
18.5486
18.5487
18.5487
18.5487
18.5487
18.5487
18.5487
18.5487
18.5487
18.5487
18.5487
18.5487
18.5487
18.5486
18.5486
18.5486
18.5485
18.5484
18.5484
18.5483
18.5482
18.5481
18.5479
18.5478
18.5475
18.5473
18.547
18.5466
18.5462
18.5457
18.545
18.5443
18.5433
18.5423
18.541
18.5396
18.5384
19.0673
19.0685
19.0698
19.0709
19.072
19.0728
19.0736
19.0742
19.0747
19.0751
19.0755
19.0757
19.076
19.0762
19.0764
19.0765
19.0766
19.0767
19.0768
19.0769
19.0769
19.077
19.077
19.0771
19.0771
19.0771
19.0771
19.0772
19.0772
19.0772
19.0772
19.0772
19.0772
19.0771
19.0771
19.0771
19.0771
19.077
19.077
19.0769
19.0769
19.0768
19.0767
19.0766
19.0765
19.0764
19.0762
19.076
19.0757
19.0755
19.0751
19.0747
19.0742
19.0736
19.0728
19.072
19.0709
19.0698
19.0685
19.0673
19.5555
19.5566
19.5578
19.5589
19.5598
19.5606
19.5613
19.5619
19.5624
19.5627
19.5631
19.5633
19.5636
19.5638
19.5639
19.5641
19.5642
19.5643
19.5644
19.5644
19.5645
19.5645
19.5646
19.5646
19.5647
19.5647
19.5647
19.5647
19.5647
19.5647
19.5647
19.5647
19.5647
19.5647
19.5647
19.5647
19.5646
19.5646
19.5645
19.5645
19.5644
19.5644
19.5643
19.5642
19.5641
19.5639
19.5638
19.5636
19.5633
19.5631
19.5627
19.5624
19.5619
19.5613
19.5606
19.5598
19.5589
19.5578
19.5566
19.5555
19.9948
19.9957
19.9968
19.9977
19.9986
19.9993
19.9999
20.0004
20.0008
20.0012
20.0015
20.0018
20.002
20.0021
20.0023
20.0024
20.0025
20.0026
20.0027
20.0028
20.0028
20.0029
20.0029
20.003
20.003
20.003
20.0031
20.0031
20.0031
20.0031
20.0031
20.0031
20.0031
20.0031
20.003
20.003
20.003
20.0029
20.0029
20.0028
20.0028
20.0027
20.0026
20.0025
20.0024
20.0023
20.0021
20.002
20.0018
20.0015
20.0012
20.0008
20.0004
19.9999
19.9993
19.9986
19.9977
19.9968
19.9957
19.9948
20.3772
20.3781
20.3789
20.3798
20.3805
20.3811
20.3816
20.3821
20.3825
20.3828
20.383
20.3833
20.3834
20.3836
20.3837
20.3839
20.384
20.3841
20.3841
20.3842
20.3843
20.3843
20.3844
20.3844
20.3844
20.3845
20.3845
20.3845
20.3845
20.3845
20.3845
20.3845
20.3845
20.3845
20.3845
20.3844
20.3844
20.3844
20.3843
20.3843
20.3842
20.3841
20.3841
20.384
20.3839
20.3837
20.3836
20.3834
20.3833
20.383
20.3828
20.3825
20.3821
20.3816
20.3811
20.3805
20.3798
20.3789
20.3781
20.3772
20.6981
20.6987
20.6995
20.7001
20.7007
20.7012
20.7017
20.702
20.7023
20.7026
20.7028
20.703
20.7032
20.7034
20.7035
20.7036
20.7037
20.7038
20.7039
20.7039
20.704
20.704
20.7041
20.7041
20.7041
20.7042
20.7042
20.7042
20.7042
20.7042
20.7042
20.7042
20.7042
20.7042
20.7042
20.7041
20.7041
20.7041
20.704
20.704
20.7039
20.7039
20.7038
20.7037
20.7036
20.7035
20.7034
20.7032
20.703
20.7028
20.7026
20.7023
20.702
20.7017
20.7012
20.7007
20.7001
20.6995
20.6987
20.6981
20.9577
20.9581
20.9587
20.9592
20.9597
20.9601
20.9604
20.9607
20.961
20.9612
20.9614
20.9615
20.9617
20.9618
20.9619
20.962
20.9621
20.9622
20.9623
20.9624
20.9624
20.9625
20.9625
20.9625
20.9626
20.9626
20.9626
20.9626
20.9626
20.9626
20.9626
20.9626
20.9626
20.9626
20.9626
20.9626
20.9625
20.9625
20.9625
20.9624
20.9624
20.9623
20.9622
20.9621
20.962
20.9619
20.9618
20.9617
20.9615
20.9614
20.9612
20.961
20.9607
20.9604
20.9601
20.9597
20.9592
20.9587
20.9581
20.9577
21.1622
21.1625
21.1629
21.1633
21.1636
21.1639
21.1642
21.1644
21.1647
21.1648
21.165
21.1651
21.1653
21.1654
21.1655
21.1656
21.1657
21.1658
21.1658
21.1659
21.1659
21.166
21.166
21.1661
21.1661
21.1661
21.1661
21.1662
21.1662
21.1662
21.1662
21.1662
21.1662
21.1661
21.1661
21.1661
21.1661
21.166
21.166
21.1659
21.1659
21.1658
21.1658
21.1657
21.1656
21.1655
21.1654
21.1653
21.1651
21.165
21.1648
21.1647
21.1644
21.1642
21.1639
21.1636
21.1633
21.1629
21.1625
21.1622
21.322
21.3222
21.3225
21.3228
21.323
21.3232
21.3235
21.3236
21.3238
21.324
21.3241
21.3242
21.3244
21.3245
21.3246
21.3246
21.3247
21.3248
21.3249
21.3249
21.325
21.325
21.3251
21.3251
21.3251
21.3252
21.3252
21.3252
21.3252
21.3252
21.3252
21.3252
21.3252
21.3252
21.3252
21.3251
21.3251
21.3251
21.325
21.325
21.3249
21.3249
21.3248
21.3247
21.3246
21.3246
21.3245
21.3244
21.3242
21.3241
21.324
21.3238
21.3236
21.3235
21.3232
21.323
21.3228
21.3225
21.3222
21.322
21.4483
21.4485
21.4487
21.4489
21.4491
21.4492
21.4494
21.4496
21.4497
21.4498
21.45
21.4501
21.4502
21.4503
21.4504
21.4505
21.4505
21.4506
21.4507
21.4508
21.4508
21.4509
21.4509
21.4509
21.451
21.451
21.451
21.451
21.451
21.451
21.451
21.451
21.451
21.451
21.451
21.451
21.4509
21.4509
21.4509
21.4508
21.4508
21.4507
21.4506
21.4505
21.4505
21.4504
21.4503
21.4502
21.4501
21.45
21.4498
21.4497
21.4496
21.4494
21.4492
21.4491
21.4489
21.4487
21.4485
21.4483
21.5509
21.551
21.5511
21.5513
21.5514
21.5516
21.5517
21.5518
21.552
21.5521
21.5522
21.5523
21.5524
21.5525
21.5526
21.5527
21.5528
21.5528
21.5529
21.553
21.553
21.5531
21.5531
21.5532
21.5532
21.5532
21.5532
21.5533
21.5533
21.5533
21.5533
21.5533
21.5533
21.5532
21.5532
21.5532
21.5532
21.5531
21.5531
21.553
21.553
21.5529
21.5528
21.5528
21.5527
21.5526
21.5525
21.5524
21.5523
21.5522
21.5521
21.552
21.5518
21.5517
21.5516
21.5514
21.5513
21.5511
21.551
21.5509
21.6368
21.6369
21.637
21.6371
21.6372
21.6373
21.6374
21.6376
21.6377
21.6378
21.6379
21.638
21.6381
21.6382
21.6383
21.6384
21.6384
21.6385
21.6386
21.6386
21.6387
21.6387
21.6388
21.6388
21.6389
21.6389
21.6389
21.6389
21.6389
21.6389
21.6389
21.6389
21.6389
21.6389
21.6389
21.6389
21.6388
21.6388
21.6387
21.6387
21.6386
21.6386
21.6385
21.6384
21.6384
21.6383
21.6382
21.6381
21.638
21.6379
21.6378
21.6377
21.6376
21.6374
21.6373
21.6372
21.6371
21.637
21.6369
21.6368
21.7109
21.7109
21.711
21.711
21.7111
21.7112
21.7113
21.7115
21.7116
21.7117
21.7118
21.7119
21.712
21.7121
21.7121
21.7122
21.7123
21.7124
21.7125
21.7125
21.7126
21.7126
21.7127
21.7127
21.7127
21.7128
21.7128
21.7128
21.7128
21.7128
21.7128
21.7128
21.7128
21.7128
21.7128
21.7127
21.7127
21.7127
21.7126
21.7126
21.7125
21.7125
21.7124
21.7123
21.7122
21.7121
21.7121
21.712
21.7119
21.7118
21.7117
21.7116
21.7115
21.7113
21.7112
21.7111
21.711
21.711
21.7109
21.7109
21.7761
21.7761
21.7762
21.7763
21.7763
21.7764
21.7765
21.7766
21.7767
21.7768
21.7769
21.777
21.7771
21.7772
21.7773
21.7774
21.7775
21.7775
21.7776
21.7777
21.7777
21.7778
21.7778
21.7779
21.7779
21.778
21.778
21.778
21.778
21.778
21.778
21.778
21.778
21.778
21.778
21.7779
21.7779
21.7778
21.7778
21.7777
21.7777
21.7776
21.7775
21.7775
21.7774
21.7773
21.7772
21.7771
21.777
21.7769
21.7768
21.7767
21.7766
21.7765
21.7764
21.7763
21.7763
21.7762
21.7761
21.7761
21.8347
21.8347
21.8347
21.8348
21.8348
21.8349
21.835
21.8351
21.8352
21.8353
21.8354
21.8355
21.8356
21.8357
21.8358
21.8359
21.8359
21.836
21.8361
21.8362
21.8362
21.8363
21.8363
21.8364
21.8364
21.8364
21.8365
21.8365
21.8365
21.8365
21.8365
21.8365
21.8365
21.8365
21.8364
21.8364
21.8364
21.8363
21.8363
21.8362
21.8362
21.8361
21.836
21.8359
21.8359
21.8358
21.8357
21.8356
21.8355
21.8354
21.8353
21.8352
21.8351
21.835
21.8349
21.8348
21.8348
21.8347
21.8347
21.8347
21.8879
21.8879
21.8879
21.8879
21.888
21.8881
21.8881
21.8882
21.8883
21.8884
21.8885
21.8886
21.8887
21.8888
21.8889
21.889
21.8891
21.8892
21.8892
21.8893
21.8894
21.8894
21.8895
21.8895
21.8896
21.8896
21.8896
21.8896
21.8897
21.8897
21.8897
21.8897
21.8896
21.8896
21.8896
21.8896
21.8895
21.8895
21.8894
21.8894
21.8893
21.8892
21.8892
21.8891
21.889
21.8889
21.8888
21.8887
21.8886
21.8885
21.8884
21.8883
21.8882
21.8881
21.8881
21.888
21.8879
21.8879
21.8879
21.8879
21.9367
21.9367
21.9367
21.9367
21.9368
21.9369
21.9369
21.937
21.9371
21.9372
21.9373
21.9374
21.9375
21.9376
21.9377
21.9378
21.9379
21.938
21.938
21.9381
21.9382
21.9382
21.9383
21.9383
21.9384
21.9384
21.9384
21.9385
21.9385
21.9385
21.9385
21.9385
21.9385
21.9384
21.9384
21.9384
21.9383
21.9383
21.9382
21.9382
21.9381
21.938
21.938
21.9379
21.9378
21.9377
21.9376
21.9375
21.9374
21.9373
21.9372
21.9371
21.937
21.9369
21.9369
21.9368
21.9367
21.9367
21.9367
21.9367
21.9819
21.9819
21.9819
21.9819
21.982
21.982
21.9821
21.9822
21.9823
21.9824
21.9825
21.9826
21.9827
21.9828
21.9829
21.983
21.9831
21.9831
21.9832
21.9833
21.9834
21.9834
21.9835
21.9835
21.9836
21.9836
21.9836
21.9837
21.9837
21.9837
21.9837
21.9837
21.9837
21.9836
21.9836
21.9836
21.9835
21.9835
21.9834
21.9834
21.9833
21.9832
21.9831
21.9831
21.983
21.9829
21.9828
21.9827
21.9826
21.9825
21.9824
21.9823
21.9822
21.9821
21.982
21.982
21.9819
21.9819
21.9819
21.9819
22.024
22.024
22.024
22.024
22.0241
22.0241
22.0242
22.0243
22.0244
22.0245
22.0246
22.0247
22.0248
22.0249
22.025
22.0251
22.0252
22.0253
22.0253
22.0254
22.0255
22.0255
22.0256
22.0256
22.0257
22.0257
22.0258
22.0258
22.0258
22.0258
22.0258
22.0258
22.0258
22.0258
22.0257
22.0257
22.0256
22.0256
22.0255
22.0255
22.0254
22.0253
22.0253
22.0252
22.0251
22.025
22.0249
22.0248
22.0247
22.0246
22.0245
22.0244
22.0243
22.0242
22.0241
22.0241
22.024
22.024
22.024
22.024
22.0634
22.0634
22.0634
22.0635
22.0635
22.0636
22.0636
22.0637
22.0638
22.0639
22.064
22.0641
22.0642
22.0643
22.0644
22.0645
22.0646
22.0647
22.0648
22.0649
22.0649
22.065
22.0651
22.0651
22.0652
22.0652
22.0652
22.0653
22.0653
22.0653
22.0653
22.0653
22.0653
22.0652
22.0652
22.0652
22.0651
22.0651
22.065
22.0649
22.0649
22.0648
22.0647
22.0646
22.0645
22.0644
22.0643
22.0642
22.0641
22.064
22.0639
22.0638
22.0637
22.0636
22.0636
22.0635
22.0635
22.0634
22.0634
22.0634
22.1006
22.1006
22.1006
22.1006
22.1006
22.1007
22.1008
22.1008
22.1009
22.101
22.1011
22.1012
22.1014
22.1015
22.1016
22.1017
22.1018
22.1019
22.102
22.102
22.1021
22.1022
22.1022
22.1023
22.1023
22.1024
22.1024
22.1024
22.1024
22.1024
22.1024
22.1024
22.1024
22.1024
22.1024
22.1023
22.1023
22.1022
22.1022
22.1021
22.102
22.102
22.1019
22.1018
22.1017
22.1016
22.1015
22.1014
22.1012
22.1011
22.101
22.1009
22.1008
22.1008
22.1007
22.1006
22.1006
22.1006
22.1006
22.1006
22.1357
22.1357
22.1357
22.1357
22.1358
22.1358
22.1359
22.136
22.136
22.1361
22.1363
22.1364
22.1365
22.1366
22.1367
22.1368
22.1369
22.137
22.1371
22.1372
22.1373
22.1373
22.1374
22.1374
22.1375
22.1375
22.1376
22.1376
22.1376
22.1376
22.1376
22.1376
22.1376
22.1376
22.1375
22.1375
22.1374
22.1374
22.1373
22.1373
22.1372
22.1371
22.137
22.1369
22.1368
22.1367
22.1366
22.1365
22.1364
22.1363
22.1361
22.136
22.136
22.1359
22.1358
22.1358
22.1357
22.1357
22.1357
22.1357
22.169
22.169
22.169
22.169
22.1691
22.1691
22.1692
22.1693
22.1694
22.1695
22.1696
22.1697
22.1698
22.1699
22.17
22.1701
22.1702
22.1703
22.1704
22.1705
22.1706
22.1707
22.1707
22.1708
22.1708
22.1709
22.1709
22.1709
22.171
22.171
22.171
22.171
22.1709
22.1709
22.1709
22.1708
22.1708
22.1707
22.1707
22.1706
22.1705
22.1704
22.1703
22.1702
22.1701
22.17
22.1699
22.1698
22.1697
22.1696
22.1695
22.1694
22.1693
22.1692
22.1691
22.1691
22.169
22.169
22.169
22.169
22.2007
22.2007
22.2007
22.2007
22.2008
22.2008
22.2009
22.201
22.2011
22.2012
22.2013
22.2014
22.2015
22.2016
22.2018
22.2019
22.202
22.2021
22.2022
22.2023
22.2024
22.2024
22.2025
22.2026
22.2026
22.2026
22.2027
22.2027
22.2027
22.2027
22.2027
22.2027
22.2027
22.2027
22.2026
22.2026
22.2026
22.2025
22.2024
22.2024
22.2023
22.2022
22.2021
22.202
22.2019
22.2018
22.2016
22.2015
22.2014
22.2013
22.2012
22.2011
22.201
22.2009
22.2008
22.2008
22.2007
22.2007
22.2007
22.2007
22.231
22.231
22.231
22.231
22.231
22.2311
22.2312
22.2312
22.2313
22.2314
22.2316
22.2317
22.2318
22.2319
22.232
22.2322
22.2323
22.2324
22.2325
22.2326
22.2327
22.2327
22.2328
22.2329
22.2329
22.233
22.233
22.233
22.233
22.233
22.233
22.233
22.233
22.233
22.233
22.2329
22.2329
22.2328
22.2327
22.2327
22.2326
22.2325
22.2324
22.2323
22.2322
22.232
22.2319
22.2318
22.2317
22.2316
22.2314
22.2313
22.2312
22.2312
22.2311
22.231
22.231
22.231
22.231
22.231
22.2599
22.2599
22.2599
22.2599
22.26
22.26
22.2601
22.2602
22.2603
22.2604
22.2605
22.2607
22.2608
22.2609
22.261
22.2611
22.2613
22.2614
22.2615
22.2616
22.2617
22.2617
22.2618
22.2619
22.2619
22.262
22.262
22.262
22.2621
22.2621
22.2621
22.2621
22.262
22.262
22.262
22.2619
22.2619
22.2618
22.2617
22.2617
22.2616
22.2615
22.2614
22.2613
22.2611
22.261
22.2609
22.2608
22.2607
22.2605
22.2604
22.2603
22.2602
22.2601
22.26
22.26
22.2599
22.2599
22.2599
22.2599
22.2877
22.2877
22.2877
22.2877
22.2877
22.2878
22.2879
22.288
22.2881
22.2882
22.2883
22.2884
22.2886
22.2887
22.2888
22.2889
22.2891
22.2892
22.2893
22.2894
22.2895
22.2896
22.2896
22.2897
22.2898
22.2898
22.2898
22.2899
22.2899
22.2899
22.2899
22.2899
22.2899
22.2898
22.2898
22.2898
22.2897
22.2896
22.2896
22.2895
22.2894
22.2893
22.2892
22.2891
22.2889
22.2888
22.2887
22.2886
22.2884
22.2883
22.2882
22.2881
22.288
22.2879
22.2878
22.2877
22.2877
22.2877
22.2877
22.2877
22.3144
22.3144
22.3144
22.3144
22.3144
22.3145
22.3145
22.3146
22.3147
22.3149
22.315
22.3151
22.3153
22.3154
22.3155
22.3157
22.3158
22.3159
22.316
22.3161
22.3162
22.3163
22.3164
22.3164
22.3165
22.3165
22.3166
22.3166
22.3166
22.3166
22.3166
22.3166
22.3166
22.3166
22.3165
22.3165
22.3164
22.3164
22.3163
22.3162
22.3161
22.316
22.3159
22.3158
22.3157
22.3155
22.3154
22.3153
22.3151
22.315
22.3149
22.3147
22.3146
22.3145
22.3145
22.3144
22.3144
22.3144
22.3144
22.3144
22.34
22.34
22.34
22.34
22.3401
22.3401
22.3402
22.3403
22.3404
22.3405
22.3407
22.3408
22.341
22.3411
22.3412
22.3414
22.3415
22.3416
22.3417
22.3418
22.3419
22.342
22.3421
22.3422
22.3422
22.3423
22.3423
22.3423
22.3424
22.3424
22.3424
22.3424
22.3423
22.3423
22.3423
22.3422
22.3422
22.3421
22.342
22.3419
22.3418
22.3417
22.3416
22.3415
22.3414
22.3412
22.3411
22.341
22.3408
22.3407
22.3405
22.3404
22.3403
22.3402
22.3401
22.3401
22.34
22.34
22.34
22.34
22.3648
22.3647
22.3647
22.3648
22.3648
22.3649
22.365
22.3651
22.3652
22.3653
22.3654
22.3656
22.3657
22.3659
22.366
22.3661
22.3663
22.3664
22.3665
22.3666
22.3667
22.3668
22.3669
22.367
22.367
22.3671
22.3671
22.3672
22.3672
22.3672
22.3672
22.3672
22.3672
22.3671
22.3671
22.367
22.367
22.3669
22.3668
22.3667
22.3666
22.3665
22.3664
22.3663
22.3661
22.366
22.3659
22.3657
22.3656
22.3654
22.3653
22.3652
22.3651
22.365
22.3649
22.3648
22.3648
22.3647
22.3647
22.3648
22.3886
22.3886
22.3886
22.3886
22.3887
22.3887
22.3888
22.3889
22.3891
22.3892
22.3893
22.3895
22.3896
22.3898
22.3899
22.3901
22.3902
22.3903
22.3904
22.3906
22.3907
22.3908
22.3908
22.3909
22.391
22.391
22.3911
22.3911
22.3911
22.3911
22.3911
22.3911
22.3911
22.3911
22.391
22.391
22.3909
22.3908
22.3908
22.3907
22.3906
22.3904
22.3903
22.3902
22.3901
22.3899
22.3898
22.3896
22.3895
22.3893
22.3892
22.3891
22.3889
22.3888
22.3887
22.3887
22.3886
22.3886
22.3886
22.3886
22.4117
22.4117
22.4117
22.4117
22.4117
22.4118
22.4119
22.412
22.4121
22.4123
22.4124
22.4126
22.4127
22.4129
22.413
22.4132
22.4133
22.4134
22.4136