/*--------------------------------*- C++ -*----------------------------------*\
| =========                 |                                                 |
| \\      /  F ield         | foam-extend: Open Source CFD                    |
|  \\    /   O peration     | Version:     4.0                                |
|   \\  /    A nd           | Web:         http://www.foam-extend.org         |
|    \\/     M anipulation  |                                                 |
\*---------------------------------------------------------------------------*/
FoamFile
{
    version     2.0;
    format      ascii;
    class       volScalarField;
    location    "1100";
    object      cMinus;
}
// * * * * * * * * * * * * * * * * * * * * * * * * * * * * * * * * * * * * * //

dimensions      [0 0 0 0 0 0 0];

internalField   nonuniform List<scalar> 
6960
(
-2.27123e-21
-2.21167e-21
-2.20692e-21
-2.20615e-21
-2.20574e-21
-2.20547e-21
-2.20533e-21
-2.20528e-21
-2.20531e-21
-2.2054e-21
-2.20553e-21
-2.20569e-21
-2.20587e-21
-2.20606e-21
-2.20626e-21
-2.20646e-21
-2.20666e-21
-2.20684e-21
-2.20702e-21
-2.20718e-21
-2.20733e-21
-2.20747e-21
-2.20759e-21
-2.20769e-21
-2.20778e-21
-2.20786e-21
-2.20792e-21
-2.20796e-21
-2.20799e-21
-2.208e-21
-2.208e-21
-2.20799e-21
-2.20796e-21
-2.20792e-21
-2.20786e-21
-2.20778e-21
-2.20769e-21
-2.20759e-21
-2.20747e-21
-2.20733e-21
-2.20718e-21
-2.20702e-21
-2.20684e-21
-2.20666e-21
-2.20646e-21
-2.20626e-21
-2.20606e-21
-2.20587e-21
-2.20569e-21
-2.20553e-21
-2.2054e-21
-2.20531e-21
-2.20528e-21
-2.20533e-21
-2.20547e-21
-2.20574e-21
-2.20615e-21
-2.20692e-21
-2.21167e-21
-2.27123e-21
-2.85688e-21
-2.78201e-21
-2.77606e-21
-2.7751e-21
-2.77459e-21
-2.77426e-21
-2.77409e-21
-2.77403e-21
-2.77408e-21
-2.7742e-21
-2.77437e-21
-2.77458e-21
-2.77482e-21
-2.77507e-21
-2.77533e-21
-2.77559e-21
-2.77585e-21
-2.77609e-21
-2.77632e-21
-2.77653e-21
-2.77673e-21
-2.7769e-21
-2.77706e-21
-2.7772e-21
-2.77731e-21
-2.77741e-21
-2.77749e-21
-2.77754e-21
-2.77758e-21
-2.7776e-21
-2.7776e-21
-2.77758e-21
-2.77754e-21
-2.77749e-21
-2.77741e-21
-2.77731e-21
-2.7772e-21
-2.77706e-21
-2.7769e-21
-2.77673e-21
-2.77653e-21
-2.77632e-21
-2.77609e-21
-2.77585e-21
-2.77559e-21
-2.77533e-21
-2.77507e-21
-2.77482e-21
-2.77458e-21
-2.77437e-21
-2.7742e-21
-2.77408e-21
-2.77403e-21
-2.77409e-21
-2.77426e-21
-2.77459e-21
-2.7751e-21
-2.77606e-21
-2.78201e-21
-2.85688e-21
-5.20852e-21
-5.0725e-21
-5.06174e-21
-5.05999e-21
-5.05905e-21
-5.05846e-21
-5.05814e-21
-5.05805e-21
-5.05813e-21
-5.05835e-21
-5.05867e-21
-5.05906e-21
-5.0595e-21
-5.05997e-21
-5.06044e-21
-5.06092e-21
-5.06139e-21
-5.06184e-21
-5.06226e-21
-5.06265e-21
-5.06301e-21
-5.06333e-21
-5.06362e-21
-5.06387e-21
-5.06409e-21
-5.06426e-21
-5.0644e-21
-5.06451e-21
-5.06458e-21
-5.06461e-21
-5.06461e-21
-5.06458e-21
-5.06451e-21
-5.0644e-21
-5.06426e-21
-5.06409e-21
-5.06387e-21
-5.06362e-21
-5.06333e-21
-5.06301e-21
-5.06265e-21
-5.06226e-21
-5.06184e-21
-5.06139e-21
-5.06092e-21
-5.06044e-21
-5.05997e-21
-5.0595e-21
-5.05906e-21
-5.05867e-21
-5.05835e-21
-5.05813e-21
-5.05805e-21
-5.05814e-21
-5.05846e-21
-5.05905e-21
-5.05999e-21
-5.06174e-21
-5.0725e-21
-5.20852e-21
-1.03755e-20
-1.01056e-20
-1.00843e-20
-1.00808e-20
-1.00789e-20
-1.00778e-20
-1.00771e-20
-1.00769e-20
-1.00771e-20
-1.00775e-20
-1.00782e-20
-1.00789e-20
-1.00798e-20
-1.00807e-20
-1.00817e-20
-1.00826e-20
-1.00836e-20
-1.00845e-20
-1.00853e-20
-1.00861e-20
-1.00868e-20
-1.00874e-20
-1.0088e-20
-1.00885e-20
-1.00889e-20
-1.00893e-20
-1.00896e-20
-1.00898e-20
-1.00899e-20
-1.009e-20
-1.009e-20
-1.00899e-20
-1.00898e-20
-1.00896e-20
-1.00893e-20
-1.00889e-20
-1.00885e-20
-1.0088e-20
-1.00874e-20
-1.00868e-20
-1.00861e-20
-1.00853e-20
-1.00845e-20
-1.00836e-20
-1.00826e-20
-1.00817e-20
-1.00807e-20
-1.00798e-20
-1.00789e-20
-1.00782e-20
-1.00775e-20
-1.00771e-20
-1.00769e-20
-1.00771e-20
-1.00778e-20
-1.00789e-20
-1.00808e-20
-1.00843e-20
-1.01056e-20
-1.03755e-20
-2.07846e-20
-2.02461e-20
-2.02038e-20
-2.01968e-20
-2.01931e-20
-2.01907e-20
-2.01894e-20
-2.0189e-20
-2.01893e-20
-2.01902e-20
-2.01915e-20
-2.0193e-20
-2.01947e-20
-2.01966e-20
-2.01985e-20
-2.02004e-20
-2.02022e-20
-2.0204e-20
-2.02057e-20
-2.02072e-20
-2.02087e-20
-2.021e-20
-2.02111e-20
-2.02121e-20
-2.02129e-20
-2.02136e-20
-2.02142e-20
-2.02146e-20
-2.02149e-20
-2.0215e-20
-2.0215e-20
-2.02149e-20
-2.02146e-20
-2.02142e-20
-2.02136e-20
-2.02129e-20
-2.02121e-20
-2.02111e-20
-2.021e-20
-2.02087e-20
-2.02072e-20
-2.02057e-20
-2.0204e-20
-2.02022e-20
-2.02004e-20
-2.01985e-20
-2.01966e-20
-2.01947e-20
-2.0193e-20
-2.01915e-20
-2.01902e-20
-2.01893e-20
-2.0189e-20
-2.01894e-20
-2.01907e-20
-2.01931e-20
-2.01968e-20
-2.02038e-20
-2.02461e-20
-2.07846e-20
-4.13385e-20
-4.02717e-20
-4.01881e-20
-4.01743e-20
-4.01668e-20
-4.01621e-20
-4.01595e-20
-4.01587e-20
-4.01593e-20
-4.0161e-20
-4.01635e-20
-4.01666e-20
-4.01701e-20
-4.01737e-20
-4.01775e-20
-4.01812e-20
-4.01849e-20
-4.01884e-20
-4.01917e-20
-4.01948e-20
-4.01976e-20
-4.02002e-20
-4.02025e-20
-4.02044e-20
-4.02061e-20
-4.02075e-20
-4.02086e-20
-4.02094e-20
-4.021e-20
-4.02103e-20
-4.02103e-20
-4.021e-20
-4.02094e-20
-4.02086e-20
-4.02075e-20
-4.02061e-20
-4.02044e-20
-4.02025e-20
-4.02002e-20
-4.01976e-20
-4.01948e-20
-4.01917e-20
-4.01884e-20
-4.01849e-20
-4.01812e-20
-4.01775e-20
-4.01737e-20
-4.01701e-20
-4.01666e-20
-4.01635e-20
-4.0161e-20
-4.01593e-20
-4.01587e-20
-4.01595e-20
-4.01621e-20
-4.01668e-20
-4.01743e-20
-4.01881e-20
-4.02717e-20
-4.13385e-20
-8.17126e-20
-7.96124e-20
-7.94483e-20
-7.94212e-20
-7.94063e-20
-7.93969e-20
-7.93918e-20
-7.93903e-20
-7.93915e-20
-7.93948e-20
-7.93997e-20
-7.94058e-20
-7.94126e-20
-7.94198e-20
-7.94272e-20
-7.94346e-20
-7.94419e-20
-7.94488e-20
-7.94553e-20
-7.94614e-20
-7.9467e-20
-7.9472e-20
-7.94765e-20
-7.94803e-20
-7.94837e-20
-7.94864e-20
-7.94886e-20
-7.94902e-20
-7.94913e-20
-7.94918e-20
-7.94918e-20
-7.94913e-20
-7.94902e-20
-7.94886e-20
-7.94864e-20
-7.94837e-20
-7.94803e-20
-7.94765e-20
-7.9472e-20
-7.9467e-20
-7.94614e-20
-7.94553e-20
-7.94488e-20
-7.94419e-20
-7.94346e-20
-7.94272e-20
-7.94198e-20
-7.94126e-20
-7.94058e-20
-7.93997e-20
-7.93948e-20
-7.93915e-20
-7.93903e-20
-7.93918e-20
-7.93969e-20
-7.94063e-20
-7.94212e-20
-7.94483e-20
-7.96124e-20
-8.17126e-20
-1.60893e-19
-1.56774e-19
-1.56453e-19
-1.564e-19
-1.5637e-19
-1.56352e-19
-1.56342e-19
-1.56338e-19
-1.56341e-19
-1.56347e-19
-1.56357e-19
-1.56369e-19
-1.56382e-19
-1.56397e-19
-1.56411e-19
-1.56426e-19
-1.5644e-19
-1.56454e-19
-1.56466e-19
-1.56478e-19
-1.56489e-19
-1.56499e-19
-1.56508e-19
-1.56516e-19
-1.56522e-19
-1.56527e-19
-1.56532e-19
-1.56535e-19
-1.56537e-19
-1.56538e-19
-1.56538e-19
-1.56537e-19
-1.56535e-19
-1.56532e-19
-1.56527e-19
-1.56522e-19
-1.56516e-19
-1.56508e-19
-1.56499e-19
-1.56489e-19
-1.56478e-19
-1.56466e-19
-1.56454e-19
-1.5644e-19
-1.56426e-19
-1.56411e-19
-1.56397e-19
-1.56382e-19
-1.56369e-19
-1.56357e-19
-1.56347e-19
-1.56341e-19
-1.56338e-19
-1.56342e-19
-1.56352e-19
-1.5637e-19
-1.564e-19
-1.56453e-19
-1.56774e-19
-1.60893e-19
-3.16042e-19
-3.0798e-19
-3.07354e-19
-3.0725e-19
-3.07192e-19
-3.07155e-19
-3.07135e-19
-3.07129e-19
-3.07134e-19
-3.07147e-19
-3.07166e-19
-3.07189e-19
-3.07215e-19
-3.07243e-19
-3.07272e-19
-3.073e-19
-3.07328e-19
-3.07355e-19
-3.0738e-19
-3.07404e-19
-3.07425e-19
-3.07445e-19
-3.07462e-19
-3.07477e-19
-3.0749e-19
-3.075e-19
-3.07509e-19
-3.07515e-19
-3.07519e-19
-3.07521e-19
-3.07521e-19
-3.07519e-19
-3.07515e-19
-3.07509e-19
-3.075e-19
-3.0749e-19
-3.07477e-19
-3.07462e-19
-3.07445e-19
-3.07425e-19
-3.07404e-19
-3.0738e-19
-3.07355e-19
-3.07328e-19
-3.073e-19
-3.07272e-19
-3.07243e-19
-3.07215e-19
-3.07189e-19
-3.07166e-19
-3.07147e-19
-3.07134e-19
-3.07129e-19
-3.07135e-19
-3.07155e-19
-3.07192e-19
-3.0725e-19
-3.07354e-19
-3.0798e-19
-3.16042e-19
-6.19745e-19
-6.03983e-19
-6.02765e-19
-6.0256e-19
-6.02447e-19
-6.02375e-19
-6.02335e-19
-6.02323e-19
-6.02332e-19
-6.02357e-19
-6.02395e-19
-6.0244e-19
-6.02492e-19
-6.02547e-19
-6.02603e-19
-6.02659e-19
-6.02714e-19
-6.02767e-19
-6.02816e-19
-6.02862e-19
-6.02904e-19
-6.02942e-19
-6.02976e-19
-6.03005e-19
-6.03031e-19
-6.03051e-19
-6.03068e-19
-6.0308e-19
-6.03088e-19
-6.03092e-19
-6.03092e-19
-6.03088e-19
-6.0308e-19
-6.03068e-19
-6.03051e-19
-6.03031e-19
-6.03005e-19
-6.02976e-19
-6.02942e-19
-6.02904e-19
-6.02862e-19
-6.02816e-19
-6.02767e-19
-6.02714e-19
-6.02659e-19
-6.02603e-19
-6.02547e-19
-6.02492e-19
-6.0244e-19
-6.02395e-19
-6.02357e-19
-6.02332e-19
-6.02323e-19
-6.02335e-19
-6.02375e-19
-6.02447e-19
-6.0256e-19
-6.02765e-19
-6.03983e-19
-6.19745e-19
-1.21336e-18
-1.18256e-18
-1.1802e-18
-1.17979e-18
-1.17957e-18
-1.17943e-18
-1.17935e-18
-1.17933e-18
-1.17935e-18
-1.17939e-18
-1.17947e-18
-1.17956e-18
-1.17966e-18
-1.17977e-18
-1.17988e-18
-1.17999e-18
-1.18009e-18
-1.1802e-18
-1.1803e-18
-1.18039e-18
-1.18047e-18
-1.18054e-18
-1.18061e-18
-1.18067e-18
-1.18072e-18
-1.18076e-18
-1.18079e-18
-1.18081e-18
-1.18083e-18
-1.18084e-18
-1.18084e-18
-1.18083e-18
-1.18081e-18
-1.18079e-18
-1.18076e-18
-1.18072e-18
-1.18067e-18
-1.18061e-18
-1.18054e-18
-1.18047e-18
-1.18039e-18
-1.1803e-18
-1.1802e-18
-1.18009e-18
-1.17999e-18
-1.17988e-18
-1.17977e-18
-1.17966e-18
-1.17956e-18
-1.17947e-18
-1.17939e-18
-1.17935e-18
-1.17933e-18
-1.17935e-18
-1.17943e-18
-1.17957e-18
-1.17979e-18
-1.1802e-18
-1.18256e-18
-1.21336e-18
-2.37098e-18
-2.31084e-18
-2.30624e-18
-2.30545e-18
-2.30501e-18
-2.30473e-18
-2.30458e-18
-2.30453e-18
-2.30457e-18
-2.30466e-18
-2.30481e-18
-2.30498e-18
-2.30518e-18
-2.30539e-18
-2.30561e-18
-2.30583e-18
-2.30604e-18
-2.30624e-18
-2.30643e-18
-2.30661e-18
-2.30677e-18
-2.30692e-18
-2.30705e-18
-2.30716e-18
-2.30726e-18
-2.30734e-18
-2.3074e-18
-2.30745e-18
-2.30748e-18
-2.3075e-18
-2.3075e-18
-2.30748e-18
-2.30745e-18
-2.3074e-18
-2.30734e-18
-2.30726e-18
-2.30716e-18
-2.30705e-18
-2.30692e-18
-2.30677e-18
-2.30661e-18
-2.30643e-18
-2.30624e-18
-2.30604e-18
-2.30583e-18
-2.30561e-18
-2.30539e-18
-2.30518e-18
-2.30498e-18
-2.30481e-18
-2.30466e-18
-2.30457e-18
-2.30453e-18
-2.30458e-18
-2.30473e-18
-2.30501e-18
-2.30545e-18
-2.30624e-18
-2.31084e-18
-2.37098e-18
-4.62049e-18
-4.50309e-18
-4.49415e-18
-4.49261e-18
-4.49174e-18
-4.49119e-18
-4.49089e-18
-4.49079e-18
-4.49086e-18
-4.49105e-18
-4.49133e-18
-4.49168e-18
-4.49207e-18
-4.49248e-18
-4.49291e-18
-4.49333e-18
-4.49374e-18
-4.49414e-18
-4.49452e-18
-4.49486e-18
-4.49518e-18
-4.49547e-18
-4.49573e-18
-4.49595e-18
-4.49614e-18
-4.49629e-18
-4.49642e-18
-4.49651e-18
-4.49657e-18
-4.4966e-18
-4.4966e-18
-4.49657e-18
-4.49651e-18
-4.49642e-18
-4.49629e-18
-4.49614e-18
-4.49595e-18
-4.49573e-18
-4.49547e-18
-4.49518e-18
-4.49486e-18
-4.49452e-18
-4.49414e-18
-4.49374e-18
-4.49333e-18
-4.49291e-18
-4.49248e-18
-4.49207e-18
-4.49168e-18
-4.49133e-18
-4.49105e-18
-4.49086e-18
-4.49079e-18
-4.49089e-18
-4.49119e-18
-4.49174e-18
-4.49261e-18
-4.49415e-18
-4.50309e-18
-4.62049e-18
-8.96749e-18
-8.73837e-18
-8.72101e-18
-8.718e-18
-8.71629e-18
-8.7152e-18
-8.71461e-18
-8.71442e-18
-8.71454e-18
-8.71491e-18
-8.71546e-18
-8.71614e-18
-8.71691e-18
-8.71772e-18
-8.71855e-18
-8.71939e-18
-8.7202e-18
-8.72098e-18
-8.72171e-18
-8.7224e-18
-8.72302e-18
-8.72359e-18
-8.72409e-18
-8.72452e-18
-8.72489e-18
-8.7252e-18
-8.72545e-18
-8.72563e-18
-8.72575e-18
-8.72581e-18
-8.72581e-18
-8.72575e-18
-8.72563e-18
-8.72545e-18
-8.7252e-18
-8.72489e-18
-8.72452e-18
-8.72409e-18
-8.72359e-18
-8.72302e-18
-8.7224e-18
-8.72171e-18
-8.72098e-18
-8.7202e-18
-8.71939e-18
-8.71855e-18
-8.71772e-18
-8.71691e-18
-8.71614e-18
-8.71546e-18
-8.71491e-18
-8.71454e-18
-8.71442e-18
-8.71461e-18
-8.7152e-18
-8.71629e-18
-8.718e-18
-8.72101e-18
-8.73837e-18
-8.96749e-18
-1.72932e-17
-1.68462e-17
-1.68125e-17
-1.68066e-17
-1.68032e-17
-1.68011e-17
-1.67999e-17
-1.67995e-17
-1.67998e-17
-1.68005e-17
-1.68015e-17
-1.68029e-17
-1.68044e-17
-1.6806e-17
-1.68076e-17
-1.68092e-17
-1.68108e-17
-1.68124e-17
-1.68138e-17
-1.68151e-17
-1.68164e-17
-1.68175e-17
-1.68184e-17
-1.68193e-17
-1.682e-17
-1.68206e-17
-1.68211e-17
-1.68215e-17
-1.68217e-17
-1.68218e-17
-1.68218e-17
-1.68217e-17
-1.68215e-17
-1.68211e-17
-1.68206e-17
-1.682e-17
-1.68193e-17
-1.68184e-17
-1.68175e-17
-1.68164e-17
-1.68151e-17
-1.68138e-17
-1.68124e-17
-1.68108e-17
-1.68092e-17
-1.68076e-17
-1.6806e-17
-1.68044e-17
-1.68029e-17
-1.68015e-17
-1.68005e-17
-1.67998e-17
-1.67995e-17
-1.67999e-17
-1.68011e-17
-1.68032e-17
-1.68066e-17
-1.68125e-17
-1.68462e-17
-1.72932e-17
-3.30068e-17
-3.21348e-17
-3.20695e-17
-3.20579e-17
-3.20512e-17
-3.2047e-17
-3.20446e-17
-3.20438e-17
-3.20443e-17
-3.20457e-17
-3.20477e-17
-3.20503e-17
-3.20533e-17
-3.20564e-17
-3.20596e-17
-3.20628e-17
-3.20659e-17
-3.20689e-17
-3.20717e-17
-3.20743e-17
-3.20767e-17
-3.20789e-17
-3.20808e-17
-3.20825e-17
-3.20839e-17
-3.20851e-17
-3.2086e-17
-3.20867e-17
-3.20872e-17
-3.20874e-17
-3.20874e-17
-3.20872e-17
-3.20867e-17
-3.2086e-17
-3.20851e-17
-3.20839e-17
-3.20825e-17
-3.20808e-17
-3.20789e-17
-3.20767e-17
-3.20743e-17
-3.20717e-17
-3.20689e-17
-3.20659e-17
-3.20628e-17
-3.20596e-17
-3.20564e-17
-3.20533e-17
-3.20503e-17
-3.20477e-17
-3.20457e-17
-3.20443e-17
-3.20438e-17
-3.20446e-17
-3.2047e-17
-3.20512e-17
-3.20579e-17
-3.20695e-17
-3.21348e-17
-3.30068e-17
-6.19228e-17
-6.02226e-17
-6.00959e-17
-6.0073e-17
-6.00598e-17
-6.00513e-17
-6.00465e-17
-6.00449e-17
-6.00457e-17
-6.00483e-17
-6.00524e-17
-6.00574e-17
-6.0063e-17
-6.00691e-17
-6.00754e-17
-6.00816e-17
-6.00877e-17
-6.00935e-17
-6.0099e-17
-6.01041e-17
-6.01088e-17
-6.0113e-17
-6.01168e-17
-6.012e-17
-6.01228e-17
-6.01251e-17
-6.0127e-17
-6.01283e-17
-6.01292e-17
-6.01297e-17
-6.01297e-17
-6.01292e-17
-6.01283e-17
-6.0127e-17
-6.01251e-17
-6.01228e-17
-6.012e-17
-6.01168e-17
-6.0113e-17
-6.01088e-17
-6.01041e-17
-6.0099e-17
-6.00935e-17
-6.00877e-17
-6.00816e-17
-6.00754e-17
-6.00691e-17
-6.0063e-17
-6.00574e-17
-6.00524e-17
-6.00483e-17
-6.00457e-17
-6.00449e-17
-6.00465e-17
-6.00513e-17
-6.00598e-17
-6.0073e-17
-6.00959e-17
-6.02226e-17
-6.19228e-17
-1.12707e-16
-1.09393e-16
-1.09147e-16
-1.09102e-16
-1.09076e-16
-1.09058e-16
-1.09049e-16
-1.09045e-16
-1.09046e-16
-1.09051e-16
-1.09059e-16
-1.09069e-16
-1.0908e-16
-1.09091e-16
-1.09103e-16
-1.09116e-16
-1.09127e-16
-1.09139e-16
-1.09149e-16
-1.09159e-16
-1.09168e-16
-1.09177e-16
-1.09184e-16
-1.0919e-16
-1.09196e-16
-1.092e-16
-1.09204e-16
-1.09206e-16
-1.09208e-16
-1.09209e-16
-1.09209e-16
-1.09208e-16
-1.09206e-16
-1.09204e-16
-1.092e-16
-1.09196e-16
-1.0919e-16
-1.09184e-16
-1.09177e-16
-1.09168e-16
-1.09159e-16
-1.09149e-16
-1.09139e-16
-1.09127e-16
-1.09116e-16
-1.09103e-16
-1.09091e-16
-1.0908e-16
-1.09069e-16
-1.09059e-16
-1.09051e-16
-1.09046e-16
-1.09045e-16
-1.09049e-16
-1.09058e-16
-1.09076e-16
-1.09102e-16
-1.09147e-16
-1.09393e-16
-1.12707e-16
-1.93641e-16
-1.87182e-16
-1.86706e-16
-1.86616e-16
-1.86563e-16
-1.86528e-16
-1.86508e-16
-1.865e-16
-1.86501e-16
-1.8651e-16
-1.86524e-16
-1.86543e-16
-1.86563e-16
-1.86586e-16
-1.86609e-16
-1.86632e-16
-1.86655e-16
-1.86677e-16
-1.86697e-16
-1.86716e-16
-1.86734e-16
-1.86749e-16
-1.86763e-16
-1.86776e-16
-1.86786e-16
-1.86795e-16
-1.86802e-16
-1.86807e-16
-1.8681e-16
-1.86812e-16
-1.86812e-16
-1.8681e-16
-1.86807e-16
-1.86802e-16
-1.86795e-16
-1.86786e-16
-1.86776e-16
-1.86763e-16
-1.86749e-16
-1.86734e-16
-1.86716e-16
-1.86697e-16
-1.86677e-16
-1.86655e-16
-1.86632e-16
-1.86609e-16
-1.86586e-16
-1.86563e-16
-1.86543e-16
-1.86524e-16
-1.8651e-16
-1.86501e-16
-1.865e-16
-1.86508e-16
-1.86528e-16
-1.86563e-16
-1.86616e-16
-1.86706e-16
-1.87182e-16
-1.93641e-16
-2.9283e-16
-2.80246e-16
-2.79321e-16
-2.79141e-16
-2.79033e-16
-2.7896e-16
-2.78917e-16
-2.78897e-16
-2.78897e-16
-2.78911e-16
-2.78936e-16
-2.7897e-16
-2.79008e-16
-2.7905e-16
-2.79093e-16
-2.79137e-16
-2.79179e-16
-2.79221e-16
-2.79259e-16
-2.79296e-16
-2.79329e-16
-2.79359e-16
-2.79385e-16
-2.79408e-16
-2.79428e-16
-2.79444e-16
-2.79457e-16
-2.79467e-16
-2.79473e-16
-2.79476e-16
-2.79476e-16
-2.79473e-16
-2.79467e-16
-2.79457e-16
-2.79444e-16
-2.79428e-16
-2.79408e-16
-2.79385e-16
-2.79359e-16
-2.79329e-16
-2.79296e-16
-2.79259e-16
-2.79221e-16
-2.79179e-16
-2.79137e-16
-2.79093e-16
-2.7905e-16
-2.79008e-16
-2.7897e-16
-2.78936e-16
-2.78911e-16
-2.78897e-16
-2.78897e-16
-2.78917e-16
-2.7896e-16
-2.79033e-16
-2.79141e-16
-2.79321e-16
-2.80246e-16
-2.9283e-16
-2.94695e-16
-2.70182e-16
-2.68382e-16
-2.68017e-16
-2.67789e-16
-2.67633e-16
-2.67536e-16
-2.67486e-16
-2.67474e-16
-2.67492e-16
-2.67532e-16
-2.67588e-16
-2.67655e-16
-2.67729e-16
-2.67807e-16
-2.67886e-16
-2.67963e-16
-2.68038e-16
-2.68109e-16
-2.68176e-16
-2.68236e-16
-2.68291e-16
-2.6834e-16
-2.68382e-16
-2.68418e-16
-2.68448e-16
-2.68471e-16
-2.68489e-16
-2.68501e-16
-2.68507e-16
-2.68507e-16
-2.68501e-16
-2.68489e-16
-2.68471e-16
-2.68448e-16
-2.68418e-16
-2.68382e-16
-2.6834e-16
-2.68291e-16
-2.68236e-16
-2.68176e-16
-2.68109e-16
-2.68038e-16
-2.67963e-16
-2.67886e-16
-2.67807e-16
-2.67729e-16
-2.67655e-16
-2.67588e-16
-2.67532e-16
-2.67492e-16
-2.67474e-16
-2.67486e-16
-2.67536e-16
-2.67633e-16
-2.67789e-16
-2.68017e-16
-2.68382e-16
-2.70182e-16
-2.94695e-16
3.34721e-16
3.82465e-16
3.85983e-16
3.86745e-16
3.87239e-16
3.87591e-16
3.87826e-16
3.87964e-16
3.88025e-16
3.88025e-16
3.87981e-16
3.87902e-16
3.878e-16
3.87681e-16
3.87554e-16
3.87423e-16
3.87292e-16
3.87165e-16
3.87044e-16
3.86931e-16
3.86827e-16
3.86733e-16
3.8665e-16
3.86578e-16
3.86516e-16
3.86465e-16
3.86424e-16
3.86394e-16
3.86374e-16
3.86364e-16
3.86364e-16
3.86374e-16
3.86394e-16
3.86424e-16
3.86465e-16
3.86516e-16
3.86578e-16
3.8665e-16
3.86733e-16
3.86827e-16
3.86931e-16
3.87044e-16
3.87165e-16
3.87292e-16
3.87423e-16
3.87554e-16
3.87681e-16
3.878e-16
3.87902e-16
3.87981e-16
3.88025e-16
3.88025e-16
3.87964e-16
3.87826e-16
3.87591e-16
3.87239e-16
3.86745e-16
3.85983e-16
3.82465e-16
3.34721e-16
3.68267e-15
3.77568e-15
3.78262e-15
3.78427e-15
3.7854e-15
3.78625e-15
3.78686e-15
3.78727e-15
3.78752e-15
3.78765e-15
3.78768e-15
3.78763e-15
3.78753e-15
3.7874e-15
3.78724e-15
3.78706e-15
3.78688e-15
3.78671e-15
3.78653e-15
3.78637e-15
3.78622e-15
3.78609e-15
3.78597e-15
3.78586e-15
3.78577e-15
3.7857e-15
3.78564e-15
3.7856e-15
3.78557e-15
3.78555e-15
3.78555e-15
3.78557e-15
3.7856e-15
3.78564e-15
3.7857e-15
3.78577e-15
3.78586e-15
3.78597e-15
3.78609e-15
3.78622e-15
3.78637e-15
3.78653e-15
3.78671e-15
3.78688e-15
3.78706e-15
3.78724e-15
3.7874e-15
3.78753e-15
3.78763e-15
3.78768e-15
3.78765e-15
3.78752e-15
3.78727e-15
3.78686e-15
3.78625e-15
3.7854e-15
3.78427e-15
3.78262e-15
3.77568e-15
3.68267e-15
1.74189e-14
1.76002e-14
1.76142e-14
1.7618e-14
1.76208e-14
1.7623e-14
1.76247e-14
1.7626e-14
1.76269e-14
1.76276e-14
1.76281e-14
1.76284e-14
1.76286e-14
1.76287e-14
1.76287e-14
1.76286e-14
1.76285e-14
1.76284e-14
1.76283e-14
1.76282e-14
1.76281e-14
1.7628e-14
1.76279e-14
1.76279e-14
1.76278e-14
1.76278e-14
1.76277e-14
1.76277e-14
1.76277e-14
1.76277e-14
1.76277e-14
1.76277e-14
1.76277e-14
1.76277e-14
1.76278e-14
1.76278e-14
1.76279e-14
1.76279e-14
1.7628e-14
1.76281e-14
1.76282e-14
1.76283e-14
1.76284e-14
1.76285e-14
1.76286e-14
1.76287e-14
1.76287e-14
1.76286e-14
1.76284e-14
1.76281e-14
1.76276e-14
1.76269e-14
1.7626e-14
1.76247e-14
1.7623e-14
1.76208e-14
1.7618e-14
1.76142e-14
1.76002e-14
1.74189e-14
6.90709e-14
6.9425e-14
6.94537e-14
6.94632e-14
6.94707e-14
6.94769e-14
6.94821e-14
6.94865e-14
6.949e-14
6.9493e-14
6.94954e-14
6.94974e-14
6.9499e-14
6.95004e-14
6.95016e-14
6.95025e-14
6.95034e-14
6.95041e-14
6.95047e-14
6.95053e-14
6.95058e-14
6.95062e-14
6.95066e-14
6.95069e-14
6.95072e-14
6.95075e-14
6.95077e-14
6.95078e-14
6.95079e-14
6.9508e-14
6.9508e-14
6.95079e-14
6.95078e-14
6.95077e-14
6.95075e-14
6.95072e-14
6.95069e-14
6.95066e-14
6.95062e-14
6.95058e-14
6.95053e-14
6.95047e-14
6.95041e-14
6.95034e-14
6.95025e-14
6.95016e-14
6.95004e-14
6.9499e-14
6.94974e-14
6.94954e-14
6.9493e-14
6.949e-14
6.94865e-14
6.94821e-14
6.94769e-14
6.94707e-14
6.94632e-14
6.94537e-14
6.9425e-14
6.90709e-14
2.56839e-13
2.57534e-13
2.57596e-13
2.57622e-13
2.57644e-13
2.57663e-13
2.5768e-13
2.57695e-13
2.57708e-13
2.57719e-13
2.57729e-13
2.57738e-13
2.57747e-13
2.57754e-13
2.5776e-13
2.57766e-13
2.57771e-13
2.57776e-13
2.5778e-13
2.57784e-13
2.57788e-13
2.57791e-13
2.57793e-13
2.57796e-13
2.57798e-13
2.578e-13
2.57801e-13
2.57802e-13
2.57803e-13
2.57803e-13
2.57803e-13
2.57803e-13
2.57802e-13
2.57801e-13
2.578e-13
2.57798e-13
2.57796e-13
2.57793e-13
2.57791e-13
2.57788e-13
2.57784e-13
2.5778e-13
2.57776e-13
2.57771e-13
2.57766e-13
2.5776e-13
2.57754e-13
2.57747e-13
2.57738e-13
2.57729e-13
2.57719e-13
2.57708e-13
2.57695e-13
2.5768e-13
2.57663e-13
2.57644e-13
2.57622e-13
2.57596e-13
2.57534e-13
2.56839e-13
9.31926e-13
9.33298e-13
9.33444e-13
9.33521e-13
9.3359e-13
9.33654e-13
9.33712e-13
9.33764e-13
9.33812e-13
9.33856e-13
9.33896e-13
9.33932e-13
9.33965e-13
9.33996e-13
9.34024e-13
9.3405e-13
9.34073e-13
9.34095e-13
9.34114e-13
9.34132e-13
9.34148e-13
9.34163e-13
9.34175e-13
9.34186e-13
9.34196e-13
9.34204e-13
9.3421e-13
9.34215e-13
9.34218e-13
9.3422e-13
9.3422e-13
9.34218e-13
9.34215e-13
9.3421e-13
9.34204e-13
9.34196e-13
9.34186e-13
9.34175e-13
9.34163e-13
9.34148e-13
9.34132e-13
9.34114e-13
9.34095e-13
9.34073e-13
9.3405e-13
9.34024e-13
9.33996e-13
9.33965e-13
9.33932e-13
9.33896e-13
9.33856e-13
9.33812e-13
9.33764e-13
9.33712e-13
9.33654e-13
9.3359e-13
9.33521e-13
9.33444e-13
9.33298e-13
9.31926e-13
3.35849e-12
3.36124e-12
3.36162e-12
3.36187e-12
3.3621e-12
3.36232e-12
3.36252e-12
3.36272e-12
3.36289e-12
3.36306e-12
3.36321e-12
3.36335e-12
3.36348e-12
3.3636e-12
3.36371e-12
3.36381e-12
3.36391e-12
3.364e-12
3.36408e-12
3.36415e-12
3.36422e-12
3.36428e-12
3.36433e-12
3.36437e-12
3.36441e-12
3.36444e-12
3.36447e-12
3.36449e-12
3.3645e-12
3.36451e-12
3.36451e-12
3.3645e-12
3.36449e-12
3.36447e-12
3.36444e-12
3.36441e-12
3.36437e-12
3.36433e-12
3.36428e-12
3.36422e-12
3.36415e-12
3.36408e-12
3.364e-12
3.36391e-12
3.36381e-12
3.36371e-12
3.3636e-12
3.36348e-12
3.36335e-12
3.36321e-12
3.36306e-12
3.36289e-12
3.36272e-12
3.36252e-12
3.36232e-12
3.3621e-12
3.36187e-12
3.36162e-12
3.36124e-12
3.35849e-12
1.21219e-11
1.21276e-11
1.21287e-11
1.21295e-11
1.21303e-11
1.21311e-11
1.21319e-11
1.21326e-11
1.21332e-11
1.21338e-11
1.21344e-11
1.2135e-11
1.21355e-11
1.21359e-11
1.21364e-11
1.21368e-11
1.21371e-11
1.21375e-11
1.21378e-11
1.21381e-11
1.21383e-11
1.21386e-11
1.21388e-11
1.21389e-11
1.21391e-11
1.21392e-11
1.21393e-11
1.21394e-11
1.21394e-11
1.21395e-11
1.21395e-11
1.21394e-11
1.21394e-11
1.21393e-11
1.21392e-11
1.21391e-11
1.21389e-11
1.21388e-11
1.21386e-11
1.21383e-11
1.21381e-11
1.21378e-11
1.21375e-11
1.21371e-11
1.21368e-11
1.21364e-11
1.21359e-11
1.21355e-11
1.2135e-11
1.21344e-11
1.21338e-11
1.21332e-11
1.21326e-11
1.21319e-11
1.21311e-11
1.21303e-11
1.21295e-11
1.21287e-11
1.21276e-11
1.21219e-11
4.3973e-11
4.39853e-11
4.39887e-11
4.39918e-11
4.39948e-11
4.39977e-11
4.40004e-11
4.4003e-11
4.40055e-11
4.40078e-11
4.40099e-11
4.4012e-11
4.40139e-11
4.40156e-11
4.40173e-11
4.40188e-11
4.40202e-11
4.40216e-11
4.40228e-11
4.40238e-11
4.40248e-11
4.40257e-11
4.40265e-11
4.40272e-11
4.40278e-11
4.40282e-11
4.40286e-11
4.40289e-11
4.40291e-11
4.40292e-11
4.40292e-11
4.40291e-11
4.40289e-11
4.40286e-11
4.40282e-11
4.40278e-11
4.40272e-11
4.40265e-11
4.40257e-11
4.40248e-11
4.40238e-11
4.40228e-11
4.40216e-11
4.40202e-11
4.40188e-11
4.40173e-11
4.40156e-11
4.40139e-11
4.4012e-11
4.40099e-11
4.40078e-11
4.40055e-11
4.4003e-11
4.40004e-11
4.39977e-11
4.39948e-11
4.39918e-11
4.39887e-11
4.39853e-11
4.3973e-11
1.60428e-10
1.60457e-10
1.60469e-10
1.6048e-10
1.60491e-10
1.60502e-10
1.60512e-10
1.60522e-10
1.60531e-10
1.60539e-10
1.60548e-10
1.60555e-10
1.60562e-10
1.60569e-10
1.60575e-10
1.60581e-10
1.60587e-10
1.60592e-10
1.60596e-10
1.606e-10
1.60604e-10
1.60607e-10
1.6061e-10
1.60613e-10
1.60615e-10
1.60617e-10
1.60619e-10
1.6062e-10
1.6062e-10
1.60621e-10
1.60621e-10
1.6062e-10
1.6062e-10
1.60619e-10
1.60617e-10
1.60615e-10
1.60613e-10
1.6061e-10
1.60607e-10
1.60604e-10
1.606e-10
1.60596e-10
1.60592e-10
1.60587e-10
1.60581e-10
1.60575e-10
1.60569e-10
1.60562e-10
1.60555e-10
1.60548e-10
1.60539e-10
1.60531e-10
1.60522e-10
1.60512e-10
1.60502e-10
1.60491e-10
1.6048e-10
1.60469e-10
1.60457e-10
1.60428e-10
5.87955e-10
5.88029e-10
5.88071e-10
5.88113e-10
5.88155e-10
5.88195e-10
5.88233e-10
5.8827e-10
5.88304e-10
5.88337e-10
5.88368e-10
5.88397e-10
5.88424e-10
5.8845e-10
5.88473e-10
5.88495e-10
5.88516e-10
5.88535e-10
5.88552e-10
5.88568e-10
5.88582e-10
5.88595e-10
5.88606e-10
5.88616e-10
5.88624e-10
5.88631e-10
5.88637e-10
5.88641e-10
5.88644e-10
5.88645e-10
5.88645e-10
5.88644e-10
5.88641e-10
5.88637e-10
5.88631e-10
5.88624e-10
5.88616e-10
5.88606e-10
5.88595e-10
5.88582e-10
5.88568e-10
5.88552e-10
5.88535e-10
5.88516e-10
5.88495e-10
5.88473e-10
5.8845e-10
5.88424e-10
5.88397e-10
5.88368e-10
5.88337e-10
5.88304e-10
5.8827e-10
5.88233e-10
5.88195e-10
5.88155e-10
5.88113e-10
5.88071e-10
5.88029e-10
5.87955e-10
2.15923e-09
2.15944e-09
2.15959e-09
2.15975e-09
2.15991e-09
2.16006e-09
2.1602e-09
2.16034e-09
2.16047e-09
2.16059e-09
2.16071e-09
2.16082e-09
2.16092e-09
2.16101e-09
2.1611e-09
2.16119e-09
2.16126e-09
2.16133e-09
2.1614e-09
2.16146e-09
2.16151e-09
2.16156e-09
2.1616e-09
2.16164e-09
2.16167e-09
2.1617e-09
2.16172e-09
2.16174e-09
2.16175e-09
2.16175e-09
2.16175e-09
2.16175e-09
2.16174e-09
2.16172e-09
2.1617e-09
2.16167e-09
2.16164e-09
2.1616e-09
2.16156e-09
2.16151e-09
2.16146e-09
2.1614e-09
2.16133e-09
2.16126e-09
2.16119e-09
2.1611e-09
2.16101e-09
2.16092e-09
2.16082e-09
2.16071e-09
2.16059e-09
2.16047e-09
2.16034e-09
2.1602e-09
2.16006e-09
2.15991e-09
2.15975e-09
2.15959e-09
2.15944e-09
2.15923e-09
7.91799e-09
7.91866e-09
7.91923e-09
7.91981e-09
7.92039e-09
7.92095e-09
7.92149e-09
7.92201e-09
7.92249e-09
7.92295e-09
7.92339e-09
7.9238e-09
7.92418e-09
7.92454e-09
7.92487e-09
7.92518e-09
7.92547e-09
7.92574e-09
7.92598e-09
7.9262e-09
7.92641e-09
7.92659e-09
7.92674e-09
7.92688e-09
7.927e-09
7.9271e-09
7.92718e-09
7.92724e-09
7.92728e-09
7.9273e-09
7.9273e-09
7.92728e-09
7.92724e-09
7.92718e-09
7.9271e-09
7.927e-09
7.92688e-09
7.92674e-09
7.92659e-09
7.92641e-09
7.9262e-09
7.92598e-09
7.92574e-09
7.92547e-09
7.92518e-09
7.92487e-09
7.92454e-09
7.92418e-09
7.9238e-09
7.92339e-09
7.92295e-09
7.92249e-09
7.92201e-09
7.92149e-09
7.92095e-09
7.92039e-09
7.91981e-09
7.91923e-09
7.91866e-09
7.91799e-09
2.88655e-08
2.88677e-08
2.88698e-08
2.8872e-08
2.88741e-08
2.88762e-08
2.88782e-08
2.88801e-08
2.88819e-08
2.88836e-08
2.88852e-08
2.88867e-08
2.88881e-08
2.88895e-08
2.88907e-08
2.88918e-08
2.88929e-08
2.88939e-08
2.88948e-08
2.88956e-08
2.88964e-08
2.8897e-08
2.88976e-08
2.88981e-08
2.88986e-08
2.88989e-08
2.88992e-08
2.88994e-08
2.88996e-08
2.88997e-08
2.88997e-08
2.88996e-08
2.88994e-08
2.88992e-08
2.88989e-08
2.88986e-08
2.88981e-08
2.88976e-08
2.8897e-08
2.88964e-08
2.88956e-08
2.88948e-08
2.88939e-08
2.88929e-08
2.88918e-08
2.88907e-08
2.88895e-08
2.88881e-08
2.88867e-08
2.88852e-08
2.88836e-08
2.88819e-08
2.88801e-08
2.88782e-08
2.88762e-08
2.88741e-08
2.8872e-08
2.88698e-08
2.88677e-08
2.88655e-08
1.04066e-07
1.04073e-07
1.04081e-07
1.04089e-07
1.04097e-07
1.04104e-07
1.04111e-07
1.04118e-07
1.04125e-07
1.04131e-07
1.04137e-07
1.04143e-07
1.04148e-07
1.04153e-07
1.04157e-07
1.04161e-07
1.04165e-07
1.04169e-07
1.04172e-07
1.04175e-07
1.04178e-07
1.0418e-07
1.04182e-07
1.04184e-07
1.04186e-07
1.04187e-07
1.04188e-07
1.04189e-07
1.04189e-07
1.0419e-07
1.0419e-07
1.04189e-07
1.04189e-07
1.04188e-07
1.04187e-07
1.04186e-07
1.04184e-07
1.04182e-07
1.0418e-07
1.04178e-07
1.04175e-07
1.04172e-07
1.04169e-07
1.04165e-07
1.04161e-07
1.04157e-07
1.04153e-07
1.04148e-07
1.04143e-07
1.04137e-07
1.04131e-07
1.04125e-07
1.04118e-07
1.04111e-07
1.04104e-07
1.04097e-07
1.04089e-07
1.04081e-07
1.04073e-07
1.04066e-07
3.68766e-07
3.68792e-07
3.6882e-07
3.68848e-07
3.68876e-07
3.68903e-07
3.68928e-07
3.68953e-07
3.68976e-07
3.68998e-07
3.69019e-07
3.69039e-07
3.69057e-07
3.69074e-07
3.6909e-07
3.69105e-07
3.69119e-07
3.69132e-07
3.69143e-07
3.69154e-07
3.69164e-07
3.69172e-07
3.6918e-07
3.69186e-07
3.69192e-07
3.69197e-07
3.69201e-07
3.69203e-07
3.69205e-07
3.69206e-07
3.69206e-07
3.69205e-07
3.69203e-07
3.69201e-07
3.69197e-07
3.69192e-07
3.69186e-07
3.6918e-07
3.69172e-07
3.69164e-07
3.69154e-07
3.69143e-07
3.69132e-07
3.69119e-07
3.69105e-07
3.6909e-07
3.69074e-07
3.69057e-07
3.69039e-07
3.69019e-07
3.68998e-07
3.68976e-07
3.68953e-07
3.68928e-07
3.68903e-07
3.68876e-07
3.68848e-07
3.6882e-07
3.68792e-07
3.68766e-07
1.27548e-06
1.27557e-06
1.27566e-06
1.27576e-06
1.27585e-06
1.27595e-06
1.27603e-06
1.27612e-06
1.2762e-06
1.27628e-06
1.27635e-06
1.27642e-06
1.27648e-06
1.27654e-06
1.27659e-06
1.27664e-06
1.27669e-06
1.27674e-06
1.27678e-06
1.27681e-06
1.27685e-06
1.27687e-06
1.2769e-06
1.27692e-06
1.27694e-06
1.27696e-06
1.27697e-06
1.27698e-06
1.27699e-06
1.27699e-06
1.27699e-06
1.27699e-06
1.27698e-06
1.27697e-06
1.27696e-06
1.27694e-06
1.27692e-06
1.2769e-06
1.27687e-06
1.27685e-06
1.27681e-06
1.27678e-06
1.27674e-06
1.27669e-06
1.27664e-06
1.27659e-06
1.27654e-06
1.27648e-06
1.27642e-06
1.27635e-06
1.27628e-06
1.2762e-06
1.27612e-06
1.27603e-06
1.27595e-06
1.27585e-06
1.27576e-06
1.27566e-06
1.27557e-06
1.27548e-06
4.27186e-06
4.27216e-06
4.27247e-06
4.2728e-06
4.27311e-06
4.27342e-06
4.27372e-06
4.274e-06
4.27426e-06
4.27451e-06
4.27475e-06
4.27497e-06
4.27518e-06
4.27538e-06
4.27556e-06
4.27573e-06
4.27589e-06
4.27603e-06
4.27617e-06
4.27629e-06
4.2764e-06
4.2765e-06
4.27658e-06
4.27666e-06
4.27672e-06
4.27678e-06
4.27682e-06
4.27685e-06
4.27687e-06
4.27688e-06
4.27688e-06
4.27687e-06
4.27685e-06
4.27682e-06
4.27678e-06
4.27672e-06
4.27666e-06
4.27658e-06
4.2765e-06
4.2764e-06
4.27629e-06
4.27617e-06
4.27603e-06
4.27589e-06
4.27573e-06
4.27556e-06
4.27538e-06
4.27518e-06
4.27497e-06
4.27475e-06
4.27451e-06
4.27426e-06
4.274e-06
4.27372e-06
4.27342e-06
4.27311e-06
4.2728e-06
4.27247e-06
4.27216e-06
4.27186e-06
1.37302e-05
1.37311e-05
1.37321e-05
1.37331e-05
1.37341e-05
1.37351e-05
1.3736e-05