/*--------------------------------*- C++ -*----------------------------------*\
| =========                 |                                                 |
| \\      /  F ield         | foam-extend: Open Source CFD                    |
|  \\    /   O peration     | Version:     4.0                                |
|   \\  /    A nd           | Web:         http://www.foam-extend.org         |
|    \\/     M anipulation  |                                                 |
\*---------------------------------------------------------------------------*/
FoamFile
{
    version     2.0;
    format      ascii;
    class       volScalarField;
    location    "470";
    object      psiE;
}
// * * * * * * * * * * * * * * * * * * * * * * * * * * * * * * * * * * * * * //

dimensions      [0 0 0 0 0 0 0];

internalField   nonuniform List<scalar> 
6960
(
0.383095
0.383125
0.383151
0.383169
0.383182
0.38319
0.383196
0.3832
0.383202
0.383204
0.383206
0.383207
0.383207
0.383208
0.383209
0.383209
0.38321
0.38321
0.383211
0.383211
0.383212
0.383212
0.383212
0.383212
0.383213
0.383213
0.383213
0.383213
0.383213
0.383213
0.383213
0.383213
0.383213
0.383213
0.383213
0.383213
0.383212
0.383212
0.383212
0.383212
0.383211
0.383211
0.38321
0.38321
0.383209
0.383209
0.383208
0.383207
0.383207
0.383206
0.383204
0.383202
0.3832
0.383196
0.38319
0.383182
0.383169
0.383151
0.383125
0.383095
1.0327
1.03282
1.03292
1.033
1.03305
1.03308
1.0331
1.03312
1.03313
1.03313
1.03314
1.03314
1.03315
1.03315
1.03315
1.03315
1.03316
1.03316
1.03316
1.03316
1.03316
1.03316
1.03316
1.03316
1.03316
1.03316
1.03316
1.03316
1.03317
1.03317
1.03317
1.03317
1.03316
1.03316
1.03316
1.03316
1.03316
1.03316
1.03316
1.03316
1.03316
1.03316
1.03316
1.03316
1.03315
1.03315
1.03315
1.03315
1.03314
1.03314
1.03313
1.03313
1.03312
1.0331
1.03308
1.03305
1.033
1.03292
1.03282
1.0327
1.66812
1.66834
1.66854
1.66868
1.66877
1.66884
1.66888
1.6689
1.66892
1.66894
1.66895
1.66895
1.66896
1.66896
1.66897
1.66897
1.66897
1.66898
1.66898
1.66898
1.66898
1.66898
1.66898
1.66899
1.66899
1.66899
1.66899
1.66899
1.66899
1.66899
1.66899
1.66899
1.66899
1.66899
1.66899
1.66899
1.66899
1.66898
1.66898
1.66898
1.66898
1.66898
1.66898
1.66897
1.66897
1.66897
1.66896
1.66896
1.66895
1.66895
1.66894
1.66892
1.6689
1.66888
1.66884
1.66877
1.66868
1.66854
1.66834
1.66812
2.30845
2.30878
2.30907
2.30928
2.30942
2.30952
2.30958
2.30962
2.30965
2.30967
2.30968
2.30969
2.3097
2.30971
2.30971
2.30972
2.30972
2.30972
2.30973
2.30973
2.30973
2.30973
2.30974
2.30974
2.30974
2.30974
2.30974
2.30974
2.30974
2.30974
2.30974
2.30974
2.30974
2.30974
2.30974
2.30974
2.30974
2.30974
2.30973
2.30973
2.30973
2.30973
2.30972
2.30972
2.30972
2.30971
2.30971
2.3097
2.30969
2.30968
2.30967
2.30965
2.30962
2.30958
2.30952
2.30942
2.30928
2.30907
2.30878
2.30845
2.95778
2.95822
2.9586
2.95888
2.95907
2.9592
2.95928
2.95934
2.95937
2.9594
2.95942
2.95943
2.95944
2.95945
2.95946
2.95946
2.95947
2.95948
2.95948
2.95948
2.95949
2.95949
2.95949
2.9595
2.9595
2.9595
2.9595
2.9595
2.9595
2.9595
2.9595
2.9595
2.9595
2.9595
2.9595
2.9595
2.9595
2.95949
2.95949
2.95949
2.95948
2.95948
2.95948
2.95947
2.95946
2.95946
2.95945
2.95944
2.95943
2.95942
2.9594
2.95937
2.95934
2.95928
2.9592
2.95907
2.95888
2.9586
2.95822
2.95778
3.61673
3.61728
3.61776
3.61811
3.61835
3.61851
3.61861
3.61868
3.61873
3.61876
3.61878
3.6188
3.61881
3.61882
3.61883
3.61884
3.61885
3.61885
3.61886
3.61886
3.61887
3.61887
3.61888
3.61888
3.61888
3.61888
3.61888
3.61889
3.61889
3.61889
3.61889
3.61889
3.61889
3.61888
3.61888
3.61888
3.61888
3.61888
3.61887
3.61887
3.61886
3.61886
3.61885
3.61885
3.61884
3.61883
3.61882
3.61881
3.6188
3.61878
3.61876
3.61873
3.61868
3.61861
3.61851
3.61835
3.61811
3.61776
3.61728
3.61673
4.28509
4.28576
4.28633
4.28675
4.28704
4.28723
4.28735
4.28744
4.28749
4.28753
4.28756
4.28758
4.2876
4.28761
4.28762
4.28763
4.28764
4.28764
4.28765
4.28766
4.28766
4.28767
4.28767
4.28767
4.28768
4.28768
4.28768
4.28768
4.28768
4.28768
4.28768
4.28768
4.28768
4.28768
4.28768
4.28768
4.28767
4.28767
4.28767
4.28766
4.28766
4.28765
4.28764
4.28764
4.28763
4.28762
4.28761
4.2876
4.28758
4.28756
4.28753
4.28749
4.28744
4.28735
4.28723
4.28704
4.28675
4.28633
4.28576
4.28509
4.96242
4.96319
4.96387
4.96435
4.96469
4.96491
4.96505
4.96515
4.96522
4.96526
4.96529
4.96532
4.96534
4.96535
4.96536
4.96537
4.96538
4.96539
4.9654
4.96541
4.96541
4.96542
4.96542
4.96543
4.96543
4.96543
4.96544
4.96544
4.96544
4.96544
4.96544
4.96544
4.96544
4.96544
4.96543
4.96543
4.96543
4.96542
4.96542
4.96541
4.96541
4.9654
4.96539
4.96538
4.96537
4.96536
4.96535
4.96534
4.96532
4.96529
4.96526
4.96522
4.96515
4.96505
4.96491
4.96469
4.96435
4.96387
4.96319
4.96242
5.64814
5.64901
5.64978
5.65034
5.65072
5.65097
5.65114
5.65125
5.65132
5.65137
5.65141
5.65144
5.65146
5.65147
5.65149
5.6515
5.65151
5.65152
5.65153
5.65154
5.65155
5.65155
5.65156
5.65156
5.65157
5.65157
5.65157
5.65158
5.65158
5.65158
5.65158
5.65158
5.65158
5.65157
5.65157
5.65157
5.65156
5.65156
5.65155
5.65155
5.65154
5.65153
5.65152
5.65151
5.6515
5.65149
5.65147
5.65146
5.65144
5.65141
5.65137
5.65132
5.65125
5.65114
5.65097
5.65072
5.65034
5.64978
5.64901
5.64814
6.34156
6.34254
6.3434
6.34402
6.34445
6.34473
6.34492
6.34504
6.34513
6.34518
6.34522
6.34526
6.34528
6.3453
6.34532
6.34533
6.34534
6.34535
6.34536
6.34537
6.34538
6.34539
6.34539
6.3454
6.3454
6.34541
6.34541
6.34541
6.34541
6.34542
6.34542
6.34541
6.34541
6.34541
6.34541
6.3454
6.3454
6.34539
6.34539
6.34538
6.34537
6.34536
6.34535
6.34534
6.34533
6.34532
6.3453
6.34528
6.34526
6.34522
6.34518
6.34513
6.34504
6.34492
6.34473
6.34445
6.34402
6.3434
6.34254
6.34156
7.0419
7.04298
7.04393
7.04462
7.04509
7.0454
7.04561
7.04575
7.04584
7.04591
7.04595
7.04599
7.04601
7.04603
7.04605
7.04607
7.04608
7.0461
7.04611
7.04612
7.04613
7.04613
7.04614
7.04615
7.04615
7.04616
7.04616
7.04616
7.04616
7.04616
7.04616
7.04616
7.04616
7.04616
7.04616
7.04615
7.04615
7.04614
7.04613
7.04613
7.04612
7.04611
7.0461
7.04608
7.04607
7.04605
7.04603
7.04601
7.04599
7.04595
7.04591
7.04584
7.04575
7.04561
7.0454
7.04509
7.04462
7.04393
7.04298
7.0419
7.74824
7.74943
7.75046
7.75122
7.75173
7.75208
7.7523
7.75245
7.75256
7.75263
7.75268
7.75271
7.75274
7.75277
7.75279
7.75281
7.75282
7.75283
7.75285
7.75286
7.75287
7.75288
7.75288
7.75289
7.7529
7.7529
7.75291
7.75291
7.75291
7.75291
7.75291
7.75291
7.75291
7.75291
7.7529
7.7529
7.75289
7.75288
7.75288
7.75287
7.75286
7.75285
7.75283
7.75282
7.75281
7.75279
7.75277
7.75274
7.75271
7.75268
7.75263
7.75256
7.75245
7.7523
7.75208
7.75173
7.75122
7.75046
7.74943
7.74824
8.45955
8.46083
8.46195
8.46276
8.46332
8.46369
8.46394
8.4641
8.46421
8.46429
8.46435
8.46439
8.46442
8.46444
8.46447
8.46449
8.4645
8.46452
8.46453
8.46454
8.46456
8.46456
8.46457
8.46458
8.46459
8.46459
8.4646
8.4646
8.4646
8.4646
8.4646
8.4646
8.4646
8.4646
8.46459
8.46459
8.46458
8.46457
8.46456
8.46456
8.46454
8.46453
8.46452
8.4645
8.46449
8.46447
8.46444
8.46442
8.46439
8.46435
8.46429
8.46421
8.4641
8.46394
8.46369
8.46332
8.46276
8.46195
8.46083
8.45955
9.1746
9.17597
9.17717
9.17805
9.17865
9.17905
9.17931
9.17949
9.1796
9.17969
9.17975
9.17979
9.17983
9.17985
9.17988
9.1799
9.17992
9.17993
9.17995
9.17996
9.17997
9.17998
9.17999
9.18
9.18001
9.18001
9.18002
9.18002
9.18003
9.18003
9.18003
9.18003
9.18002
9.18002
9.18001
9.18001
9.18
9.17999
9.17998
9.17997
9.17996
9.17995
9.17993
9.17992
9.1799
9.17988
9.17985
9.17983
9.17979
9.17975
9.17969
9.1796
9.17949
9.17931
9.17905
9.17865
9.17805
9.17717
9.17597
9.1746
9.89201
9.89347
9.89475
9.89568
9.89631
9.89674
9.89702
9.89721
9.89733
9.89742
9.89748
9.89753
9.89757
9.8976
9.89763
9.89765
9.89767
9.89769
9.8977
9.89772
9.89773
9.89774
9.89775
9.89776
9.89777
9.89778
9.89778
9.89778
9.89779
9.89779
9.89779
9.89779
9.89778
9.89778
9.89778
9.89777
9.89776
9.89775
9.89774
9.89773
9.89772
9.8977
9.89769
9.89767
9.89765
9.89763
9.8976
9.89757
9.89753
9.89748
9.89742
9.89733
9.89721
9.89702
9.89674
9.89631
9.89568
9.89475
9.89347
9.89201
10.6102
10.6117
10.6131
10.614
10.6147
10.6152
10.6155
10.6157
10.6158
10.6159
10.616
10.616
10.616
10.6161
10.6161
10.6161
10.6162
10.6162
10.6162
10.6162
10.6162
10.6162
10.6162
10.6163
10.6163
10.6163
10.6163
10.6163
10.6163
10.6163
10.6163
10.6163
10.6163
10.6163
10.6163
10.6163
10.6163
10.6162
10.6162
10.6162
10.6162
10.6162
10.6162
10.6162
10.6161
10.6161
10.6161
10.616
10.616
10.616
10.6159
10.6158
10.6157
10.6155
10.6152
10.6147
10.614
10.6131
10.6117
10.6102
11.3273
11.3289
11.3303
11.3313
11.332
11.3325
11.3328
11.333
11.3331
11.3332
11.3333
11.3334
11.3334
11.3335
11.3335
11.3335
11.3335
11.3336
11.3336
11.3336
11.3336
11.3336
11.3336
11.3336
11.3336
11.3337
11.3337
11.3337
11.3337
11.3337
11.3337
11.3337
11.3337
11.3337
11.3337
11.3336
11.3336
11.3336
11.3336
11.3336
11.3336
11.3336
11.3336
11.3335
11.3335
11.3335
11.3335
11.3334
11.3334
11.3333
11.3332
11.3331
11.333
11.3328
11.3325
11.332
11.3313
11.3303
11.3289
11.3273
12.0411
12.0428
12.0443
12.0453
12.0461
12.0466
12.0469
12.0471
12.0473
12.0474
12.0474
12.0475
12.0475
12.0476
12.0476
12.0476
12.0477
12.0477
12.0477
12.0477
12.0477
12.0478
12.0478
12.0478
12.0478
12.0478
12.0478
12.0478
12.0478
12.0478
12.0478
12.0478
12.0478
12.0478
12.0478
12.0478
12.0478
12.0478
12.0478
12.0477
12.0477
12.0477
12.0477
12.0477
12.0476
12.0476
12.0476
12.0475
12.0475
12.0474
12.0474
12.0473
12.0471
12.0469
12.0466
12.0461
12.0453
12.0443
12.0428
12.0411
12.7493
12.7511
12.7526
12.7537
12.7544
12.755
12.7553
12.7555
12.7557
12.7558
12.7559
12.7559
12.756
12.756
12.756
12.7561
12.7561
12.7561
12.7561
12.7562
12.7562
12.7562
12.7562
12.7562
12.7562
12.7562
12.7562
12.7562
12.7562
12.7562
12.7562
12.7562
12.7562
12.7562
12.7562
12.7562
12.7562
12.7562
12.7562
12.7562
12.7562
12.7561
12.7561
12.7561
12.7561
12.756
12.756
12.756
12.7559
12.7559
12.7558
12.7557
12.7555
12.7553
12.755
12.7544
12.7537
12.7526
12.7511
12.7493
13.449
13.4508
13.4524
13.4535
13.4543
13.4548
13.4551
13.4554
13.4555
13.4556
13.4557
13.4558
13.4558
13.4559
13.4559
13.4559
13.456
13.456
13.456
13.456
13.456
13.4561
13.4561
13.4561
13.4561
13.4561
13.4561
13.4561
13.4561
13.4561
13.4561
13.4561
13.4561
13.4561
13.4561
13.4561
13.4561
13.4561
13.4561
13.456
13.456
13.456
13.456
13.456
13.4559
13.4559
13.4559
13.4558
13.4558
13.4557
13.4556
13.4555
13.4554
13.4551
13.4548
13.4543
13.4535
13.4524
13.4508
13.449
14.1368
14.1387
14.1402
14.1414
14.1422
14.1427
14.1431
14.1433
14.1435
14.1436
14.1437
14.1437
14.1438
14.1438
14.1439
14.1439
14.1439
14.144
14.144
14.144
14.144
14.144
14.1441
14.1441
14.1441
14.1441
14.1441
14.1441
14.1441
14.1441
14.1441
14.1441
14.1441
14.1441
14.1441
14.1441
14.1441
14.1441
14.144
14.144
14.144
14.144
14.144
14.1439
14.1439
14.1439
14.1438
14.1438
14.1437
14.1437
14.1436
14.1435
14.1433
14.1431
14.1427
14.1422
14.1414
14.1402
14.1387
14.1368
14.8089
14.8108
14.8124
14.8135
14.8143
14.8148
14.8152
14.8154
14.8156
14.8157
14.8158
14.8159
14.8159
14.816
14.816
14.8161
14.8161
14.8161
14.8161
14.8162
14.8162
14.8162
14.8162
14.8162
14.8162
14.8163
14.8163
14.8163
14.8163
14.8163
14.8163
14.8163
14.8163
14.8163
14.8163
14.8162
14.8162
14.8162
14.8162
14.8162
14.8162
14.8161
14.8161
14.8161
14.8161
14.816
14.816
14.8159
14.8159
14.8158
14.8157
14.8156
14.8154
14.8152
14.8148
14.8143
14.8135
14.8124
14.8108
14.8089
15.4607
15.4625
15.4641
15.4652
15.466
15.4665
15.4669
15.4671
15.4673
15.4674
15.4675
15.4676
15.4676
15.4677
15.4677
15.4678
15.4678
15.4678
15.4679
15.4679
15.4679
15.4679
15.4679
15.4679
15.468
15.468
15.468
15.468
15.468
15.468
15.468
15.468
15.468
15.468
15.468
15.468
15.4679
15.4679
15.4679
15.4679
15.4679
15.4679
15.4678
15.4678
15.4678
15.4677
15.4677
15.4676
15.4676
15.4675
15.4674
15.4673
15.4671
15.4669
15.4665
15.466
15.4652
15.4641
15.4625
15.4607
16.0865
16.0883
16.0898
16.091
16.0917
16.0923
16.0926
16.0929
16.093
16.0931
16.0932
16.0933
16.0934
16.0934
16.0935
16.0935
16.0935
16.0936
16.0936
16.0936
16.0936
16.0936
16.0937
16.0937
16.0937
16.0937
16.0937
16.0937
16.0937
16.0937
16.0937
16.0937
16.0937
16.0937
16.0937
16.0937
16.0937
16.0937
16.0936
16.0936
16.0936
16.0936
16.0936
16.0935
16.0935
16.0935
16.0934
16.0934
16.0933
16.0932
16.0931
16.093
16.0929
16.0926
16.0923
16.0917
16.091
16.0898
16.0883
16.0865
16.6798
16.6815
16.683
16.6841
16.6849
16.6854
16.6857
16.6859
16.6861
16.6862
16.6863
16.6864
16.6864
16.6865
16.6865
16.6866
16.6866
16.6866
16.6867
16.6867
16.6867
16.6867
16.6868
16.6868
16.6868
16.6868
16.6868
16.6868
16.6868
16.6868
16.6868
16.6868
16.6868
16.6868
16.6868
16.6868
16.6868
16.6868
16.6867
16.6867
16.6867
16.6867
16.6866
16.6866
16.6866
16.6865
16.6865
16.6864
16.6864
16.6863
16.6862
16.6861
16.6859
16.6857
16.6854
16.6849
16.6841
16.683
16.6815
16.6798
17.2326
17.2342
17.2356
17.2367
17.2374
17.2378
17.2382
17.2384
17.2385
17.2387
17.2388
17.2388
17.2389
17.2389
17.239
17.239
17.2391
17.2391
17.2391
17.2391
17.2392
17.2392
17.2392
17.2392
17.2392
17.2393
17.2393
17.2393
17.2393
17.2393
17.2393
17.2393
17.2393
17.2393
17.2393
17.2392
17.2392
17.2392
17.2392
17.2392
17.2391
17.2391
17.2391
17.2391
17.239
17.239
17.2389
17.2389
17.2388
17.2388
17.2387
17.2385
17.2384
17.2382
17.2378
17.2374
17.2367
17.2356
17.2342
17.2326
17.7357
17.7372
17.7385
17.7394
17.74
17.7405
17.7408
17.741
17.7411
17.7412
17.7413
17.7414
17.7414
17.7415
17.7415
17.7416
17.7416
17.7417
17.7417
17.7417
17.7417
17.7418
17.7418
17.7418
17.7418
17.7418
17.7418
17.7418
17.7419
17.7419
17.7419
17.7419
17.7418
17.7418
17.7418
17.7418
17.7418
17.7418
17.7418
17.7417
17.7417
17.7417
17.7417
17.7416
17.7416
17.7415
17.7415
17.7414
17.7414
17.7413
17.7412
17.7411
17.741
17.7408
17.7405
17.74
17.7394
17.7385
17.7372
17.7357
18.1794
18.1807
18.1818
18.1826
18.1832
18.1836
18.1838
18.184
18.1842
18.1843
18.1843
18.1844
18.1845
18.1845
18.1846
18.1846
18.1846
18.1847
18.1847
18.1847
18.1848
18.1848
18.1848
18.1848
18.1848
18.1849
18.1849
18.1849
18.1849
18.1849
18.1849
18.1849
18.1849
18.1849
18.1849
18.1848
18.1848
18.1848
18.1848
18.1848
18.1847
18.1847
18.1847
18.1846
18.1846
18.1846
18.1845
18.1845
18.1844
18.1843
18.1843
18.1842
18.184
18.1838
18.1836
18.1832
18.1826
18.1818
18.1807
18.1794
18.5558
18.5569
18.5578
18.5584
18.5589
18.5592
18.5595
18.5596
18.5597
18.5598
18.5599
18.56
18.56
18.5601
18.5601
18.5602
18.5602
18.5603
18.5603
18.5603
18.5604
18.5604
18.5604
18.5604
18.5604
18.5604
18.5605
18.5605
18.5605
18.5605
18.5605
18.5605
18.5605
18.5605
18.5604
18.5604
18.5604
18.5604
18.5604
18.5604
18.5603
18.5603
18.5603
18.5602
18.5602
18.5601
18.5601
18.56
18.56
18.5599
18.5598
18.5597
18.5596
18.5595
18.5592
18.5589
18.5584
18.5578
18.5569
18.5558
18.862
18.8628
18.8635
18.864
18.8643
18.8646
18.8648
18.8649
18.865
18.8651
18.8652
18.8653
18.8653
18.8654
18.8654
18.8655
18.8655
18.8655
18.8656
18.8656
18.8656
18.8657
18.8657
18.8657
18.8657
18.8657
18.8657
18.8658
18.8658
18.8658
18.8658
18.8658
18.8658
18.8657
18.8657
18.8657
18.8657
18.8657
18.8657
18.8656
18.8656
18.8656
18.8655
18.8655
18.8655
18.8654
18.8654
18.8653
18.8653
18.8652
18.8651
18.865
18.8649
18.8648
18.8646
18.8643
18.864
18.8635
18.8628
18.862
19.1022
19.1027
19.1032
19.1036
19.1039
19.1041
19.1043
19.1044
19.1045
19.1045
19.1046
19.1047
19.1047
19.1048
19.1048
19.1049
19.1049
19.105
19.105
19.105
19.105
19.1051
19.1051
19.1051
19.1051
19.1051
19.1052
19.1052
19.1052
19.1052
19.1052
19.1052
19.1052
19.1052
19.1051
19.1051
19.1051
19.1051
19.1051
19.105
19.105
19.105
19.105
19.1049
19.1049
19.1048
19.1048
19.1047
19.1047
19.1046
19.1045
19.1045
19.1044
19.1043
19.1041
19.1039
19.1036
19.1032
19.1027
19.1022
19.2871
19.2875
19.2878
19.2881
19.2883
19.2884
19.2886
19.2887
19.2887
19.2888
19.2889
19.2889
19.289
19.2891
19.2891
19.2892
19.2892
19.2892
19.2893
19.2893
19.2893
19.2894
19.2894
19.2894
19.2894
19.2894
19.2895
19.2895
19.2895
19.2895
19.2895
19.2895
19.2895
19.2895
19.2894
19.2894
19.2894
19.2894
19.2894
19.2893
19.2893
19.2893
19.2892
19.2892
19.2892
19.2891
19.2891
19.289
19.2889
19.2889
19.2888
19.2887
19.2887
19.2886
19.2884
19.2883
19.2881
19.2878
19.2875
19.2871
19.4301
19.4303
19.4305
19.4307
19.4309
19.431
19.4311
19.4312
19.4312
19.4313
19.4314
19.4314
19.4315
19.4316
19.4316
19.4316
19.4317
19.4317
19.4318
19.4318
19.4318
19.4319
19.4319
19.4319
19.4319
19.4319
19.432
19.432
19.432
19.432
19.432
19.432
19.432
19.432
19.4319
19.4319
19.4319
19.4319
19.4319
19.4318
19.4318
19.4318
19.4317
19.4317
19.4316
19.4316
19.4316
19.4315
19.4314
19.4314
19.4313
19.4312
19.4312
19.4311
19.431
19.4309
19.4307
19.4305
19.4303
19.4301
19.5433
19.5434
19.5435
19.5437
19.5438
19.5439
19.544
19.5441
19.5441
19.5442
19.5443
19.5443
19.5444
19.5444
19.5445
19.5445
19.5446
19.5446
19.5447
19.5447
19.5447
19.5448
19.5448
19.5448
19.5448
19.5448
19.5449
19.5449
19.5449
19.5449
19.5449
19.5449
19.5449
19.5449
19.5448
19.5448
19.5448
19.5448
19.5448
19.5447
19.5447
19.5447
19.5446
19.5446
19.5445
19.5445
19.5444
19.5444
19.5443
19.5443
19.5442
19.5441
19.5441
19.544
19.5439
19.5438
19.5437
19.5435
19.5434
19.5433
19.6359
19.636
19.6361
19.6362
19.6363
19.6364
19.6364
19.6365
19.6366
19.6366
19.6367
19.6368
19.6368
19.6369
19.6369
19.637
19.637
19.6371
19.6371
19.6372
19.6372
19.6372
19.6373
19.6373
19.6373
19.6373
19.6373
19.6373
19.6373
19.6374
19.6374
19.6373
19.6373
19.6373
19.6373
19.6373
19.6373
19.6373
19.6372
19.6372
19.6372
19.6371
19.6371
19.637
19.637
19.6369
19.6369
19.6368
19.6368
19.6367
19.6366
19.6366
19.6365
19.6364
19.6364
19.6363
19.6362
19.6361
19.636
19.6359
19.7143
19.7143
19.7143
19.7144
19.7145
19.7146
19.7146
19.7147
19.7148
19.7148
19.7149
19.715
19.715
19.7151
19.7151
19.7152
19.7152
19.7153
19.7153
19.7154
19.7154
19.7154
19.7155
19.7155
19.7155
19.7155
19.7155
19.7156
19.7156
19.7156
19.7156
19.7156
19.7156
19.7155
19.7155
19.7155
19.7155
19.7155
19.7154
19.7154
19.7154
19.7153
19.7153
19.7152
19.7152
19.7151
19.7151
19.715
19.715
19.7149
19.7148
19.7148
19.7147
19.7146
19.7146
19.7145
19.7144
19.7143
19.7143
19.7143
19.7822
19.7822
19.7823
19.7823
19.7824
19.7825
19.7825
19.7826
19.7827
19.7827
19.7828
19.7829
19.7829
19.783
19.783
19.7831
19.7831
19.7832
19.7832
19.7833
19.7833
19.7834
19.7834
19.7834
19.7834
19.7835
19.7835
19.7835
19.7835
19.7835
19.7835
19.7835
19.7835
19.7835
19.7835
19.7834
19.7834
19.7834
19.7834
19.7833
19.7833
19.7832
19.7832
19.7831
19.7831
19.783
19.783
19.7829
19.7829
19.7828
19.7827
19.7827
19.7826
19.7825
19.7825
19.7824
19.7823
19.7823
19.7822
19.7822
19.8424
19.8424
19.8424
19.8425
19.8425
19.8426
19.8427
19.8427
19.8428
19.8428
19.8429
19.843
19.843
19.8431
19.8432
19.8432
19.8433
19.8433
19.8434
19.8434
19.8435
19.8435
19.8435
19.8436
19.8436
19.8436
19.8436
19.8436
19.8436
19.8436
19.8436
19.8436
19.8436
19.8436
19.8436
19.8436
19.8436
19.8435
19.8435
19.8435
19.8434
19.8434
19.8433
19.8433
19.8432
19.8432
19.8431
19.843
19.843
19.8429
19.8428
19.8428
19.8427
19.8427
19.8426
19.8425
19.8425
19.8424
19.8424
19.8424
19.8965
19.8965
19.8965
19.8965
19.8966
19.8966
19.8967
19.8967
19.8968
19.8969
19.897
19.897
19.8971
19.8972
19.8972
19.8973
19.8973
19.8974
19.8974
19.8975
19.8975
19.8976
19.8976
19.8976
19.8977
19.8977
19.8977
19.8977
19.8977
19.8977
19.8977
19.8977
19.8977
19.8977
19.8977
19.8977
19.8976
19.8976
19.8976
19.8975
19.8975
19.8974
19.8974
19.8973
19.8973
19.8972
19.8972
19.8971
19.897
19.897
19.8969
19.8968
19.8967
19.8967
19.8966
19.8966
19.8965
19.8965
19.8965
19.8965
19.9457
19.9456
19.9456
19.9457
19.9457
19.9457
19.9458
19.9459
19.9459
19.946
19.9461
19.9461
19.9462
19.9463
19.9464
19.9464
19.9465
19.9465
19.9466
19.9466
19.9467
19.9467
19.9467
19.9468
19.9468
19.9468
19.9468
19.9469
19.9469
19.9469
19.9469
19.9469
19.9469
19.9468
19.9468
19.9468
19.9468
19.9467
19.9467
19.9467
19.9466
19.9466
19.9465
19.9465
19.9464
19.9464
19.9463
19.9462
19.9461
19.9461
19.946
19.9459
19.9459
19.9458
19.9457
19.9457
19.9457
19.9456
19.9456
19.9457
19.9908
19.9907
19.9907
19.9907
19.9907
19.9908
19.9908
19.9909
19.991
19.9911
19.9911
19.9912
19.9913
19.9913
19.9914
19.9915
19.9915
19.9916
19.9917
19.9917
19.9918
19.9918
19.9918
19.9919
19.9919
19.9919
19.9919
19.9919
19.9919
19.992
19.992
19.9919
19.9919
19.9919
19.9919
19.9919
19.9919
19.9918
19.9918
19.9918
19.9917
19.9917
19.9916
19.9915
19.9915
19.9914
19.9913
19.9913
19.9912
19.9911
19.9911
19.991
19.9909
19.9908
19.9908
19.9907
19.9907
19.9907
19.9907
19.9908
20.0324
20.0324
20.0323
20.0323
20.0324
20.0324
20.0325
20.0325
20.0326
20.0327
20.0328
20.0328
20.0329
20.033
20.0331
20.0331
20.0332
20.0332
20.0333
20.0334
20.0334
20.0334
20.0335
20.0335
20.0335
20.0336
20.0336
20.0336
20.0336
20.0336
20.0336
20.0336
20.0336
20.0336
20.0336
20.0335
20.0335
20.0335
20.0334
20.0334
20.0334
20.0333
20.0332
20.0332
20.0331
20.0331
20.033
20.0329
20.0328
20.0328
20.0327
20.0326
20.0325
20.0325
20.0324
20.0324
20.0323
20.0323
20.0324
20.0324
20.0711
20.071
20.071
20.071
20.0711
20.0711
20.0712
20.0712
20.0713
20.0714
20.0714
20.0715
20.0716
20.0717
20.0718
20.0718
20.0719
20.072
20.072
20.0721
20.0721
20.0722
20.0722
20.0722
20.0723
20.0723
20.0723
20.0723
20.0723
20.0723
20.0723
20.0723
20.0723
20.0723
20.0723
20.0723
20.0722
20.0722
20.0722
20.0721
20.0721
20.072
20.072
20.0719
20.0718
20.0718
20.0717
20.0716
20.0715
20.0714
20.0714
20.0713
20.0712
20.0712
20.0711
20.0711
20.071
20.071
20.071
20.0711
20.1072
20.1072
20.1072
20.1072
20.1072
20.1072
20.1073
20.1074
20.1074
20.1075
20.1076
20.1077
20.1077
20.1078
20.1079
20.108
20.1081
20.1081
20.1082
20.1082
20.1083
20.1083
20.1084
20.1084
20.1084
20.1085
20.1085
20.1085
20.1085
20.1085
20.1085
20.1085
20.1085
20.1085
20.1085
20.1084
20.1084
20.1084
20.1083
20.1083
20.1082
20.1082
20.1081
20.1081
20.108
20.1079
20.1078
20.1077
20.1077
20.1076
20.1075
20.1074
20.1074
20.1073
20.1072
20.1072
20.1072
20.1072
20.1072
20.1072
20.1412
20.1411
20.1411
20.1411
20.1411
20.1411
20.1412
20.1413
20.1413
20.1414
20.1415
20.1416
20.1417
20.1418
20.1418
20.1419
20.142
20.1421
20.1421
20.1422
20.1422
20.1423
20.1423
20.1424
20.1424
20.1424
20.1424
20.1425
20.1425
20.1425
20.1425
20.1425
20.1425
20.1424
20.1424
20.1424
20.1424
20.1423
20.1423
20.1422
20.1422
20.1421
20.1421
20.142
20.1419
20.1418
20.1418
20.1417
20.1416
20.1415
20.1414
20.1413
20.1413
20.1412
20.1411
20.1411
20.1411
20.1411
20.1411
20.1412
20.1731
20.1731
20.173
20.173
20.173
20.1731
20.1731
20.1732
20.1733
20.1734
20.1734
20.1735
20.1736
20.1737
20.1738
20.1739
20.1739
20.174
20.1741
20.1741
20.1742
20.1743
20.1743
20.1743
20.1744
20.1744
20.1744
20.1744
20.1745
20.1745
20.1745
20.1745
20.1744
20.1744
20.1744
20.1744
20.1743
20.1743
20.1743
20.1742
20.1741
20.1741
20.174
20.1739
20.1739
20.1738
20.1737
20.1736
20.1735
20.1734
20.1734
20.1733
20.1732
20.1731
20.1731
20.173
20.173
20.173
20.1731
20.1731
20.2033
20.2032
20.2032
20.2032
20.2032
20.2032
20.2033
20.2034
20.2035
20.2035
20.2036
20.2037
20.2038
20.2039
20.204
20.2041
20.2041
20.2042
20.2043
20.2044
20.2044
20.2045
20.2045
20.2046
20.2046
20.2046
20.2046
20.2047
20.2047
20.2047
20.2047
20.2047
20.2047
20.2046
20.2046
20.2046
20.2046
20.2045
20.2045
20.2044
20.2044
20.2043
20.2042
20.2041
20.2041
20.204
20.2039
20.2038
20.2037
20.2036
20.2035
20.2035
20.2034
20.2033
20.2032
20.2032
20.2032
20.2032
20.2032
20.2033
20.2319
20.2318
20.2318
20.2318
20.2318
20.2318
20.2319
20.232
20.232
20.2321
20.2322
20.2323
20.2324
20.2325
20.2326
20.2327
20.2328
20.2328
20.2329
20.233
20.233
20.2331
20.2331
20.2332
20.2332
20.2333
20.2333
20.2333
20.2333
20.2333
20.2333
20.2333
20.2333
20.2333
20.2333
20.2332
20.2332
20.2331
20.2331
20.233
20.233
20.2329
20.2328
20.2328
20.2327
20.2326
20.2325
20.2324
20.2323
20.2322
20.2321
20.232
20.232
20.2319
20.2318
20.2318
20.2318
20.2318
20.2318
20.2319
20.259
20.259
20.2589
20.2589
20.2589
20.259
20.259
20.2591
20.2592
20.2593
20.2594
20.2595
20.2596
20.2597
20.2598
20.2599
20.26
20.26
20.2601
20.2602
20.2602
20.2603
20.2604
20.2604
20.2604
20.2605
20.2605
20.2605
20.2605
20.2605
20.2605
20.2605
20.2605
20.2605
20.2605
20.2604
20.2604
20.2604
20.2603
20.2602
20.2602
20.2601
20.26
20.26
20.2599
20.2598
20.2597
20.2596
20.2595
20.2594
20.2593
20.2592
20.2591
20.259
20.259
20.2589
20.2589
20.2589
20.259
20.259
20.2849
20.2848
20.2848
20.2848
20.2848
20.2848
20.2849
20.285
20.285
20.2851
20.2852
20.2853
20.2854
20.2855
20.2856
20.2857
20.2858
20.2859
20.286
20.2861
20.2861
20.2862
20.2862
20.2863
20.2863
20.2864
20.2864
20.2864
20.2864
20.2864
20.2864
20.2864
20.2864
20.2864
20.2864
20.2863
20.2863
20.2862
20.2862
20.2861
20.2861
20.286
20.2859
20.2858
20.2857
20.2856
20.2855
20.2854
20.2853
20.2852
20.2851
20.285
20.285
20.2849
20.2848
20.2848
20.2848
20.2848
20.2848
20.2849
20.3095
20.3095
20.3094
20.3094
20.3094
20.3095
20.3095
20.3096
20.3097
20.3098
20.3099
20.31
20.3101
20.3102
20.3103
20.3104
20.3105
20.3106
20.3107
20.3108
20.3108
20.3109
20.3109
20.311
20.311
20.3111
20.3111
20.3111
20.3111
20.3111
20.3111
20.3111
20.3111
20.3111
20.3111
20.311
20.311
20.3109
20.3109
20.3108
20.3108
20.3107
20.3106
20.3105
20.3104
20.3103
20.3102
20.3101
20.31
20.3099
20.3098
20.3097
20.3096
20.3095
20.3095
20.3094
20.3094
20.3094
20.3095
20.3095
20.333
20.333
20.333
20.333
20.333
20.333
20.3331
20.3332
20.3332
20.3333
20.3335
20.3336
20.3337
20.3338
20.3339
20.334
20.3341
20.3342
20.3343
20.3343
20.3344
20.3345
20.3345
20.3346
20.3346
20.3347
20.3347
20.3347
20.3347
20.3347
20.3347
20.3347
20.3347
20.3347
20.3347
20.3346
20.3346
20.3345
20.3345
20.3344
20.3343
20.3343
20.3342
20.3341
20.334
20.3339
20.3338
20.3337
20.3336
20.3335
20.3333
20.3332
20.3332
20.3331
20.333
20.333
20.333
20.333
20.333
20.333
20.3555
20.3555
20.3555
20.3555
20.3555
20.3555
20.3556
20.3557
20.3558
20.3559
20.356
20.3561
20.3562
20.3563
20.3564
20.3565
20.3566
20.3567
20.3568
20.3569
20.357
20.357
20.3571
20.3572
20.3572
20.3572
20.3573
20.3573
20.3573
20.3573
20.3573
20.3573
20.3573
20.3573
20.3572
20.3572
20.3572
20.3571
20.357
20.357
20.3569
20.3568
20.3567
20.3566
20.3565
20.3564
20.3563
20.3562
20.3561
20.356
20.3559
20.3558
20.3557
20.3556
20.3555
20.3555
20.3555
20.3555
20.3555
20.3555
20.3771
20.3771
20.377
20.377
20.377
20.3771
20.3771
20.3772
20.3773
20.3774
20.3775
20.3777
20.3778
20.3779
20.378
20.3781
20.3782
20.3783
20.3784
20.3785
20.3786
20.3787
20.3787
20.3788
20.3788
20.3789
20.3789
20.3789
20.3789
20.3789
20.3789
20.3789
20.3789
20.3789
20.3789
20.3788
20.3788
20.3787
20.3787
20.3786
20.3785
20.3784
20.3783
20.3782
20.3781
20.378
20.3779
20.3778
20.3777
20.3775
20.3774
20.3773
20.3772
20.3771
20.3771
20.377
20.377
20.377
20.3771
20.3771
20.3978
20.3977
20.3977
20.3977
20.3977
20.3977
20.3978
20.3979
20.398
20.3981
20.3982
20.3983
20.3985
20.3986
20.3987
20.3988
20.3989
20.399
20.3991
20.3992
20.3993
20.3994
20.3994
20.3995
20.3995
20.3996
20.3996
20.3996
20.3997
20.3997
20.3997
20.3997
20.3996
20.3996
20.3996
20.3995
20.3995
20.3994
20.3994
20.3993
20.3992
20.3991
20.399
20.3989
20.3988
20.3987
20.3986
20.3985
20.3983
20.3982
20.3981
20.398
20.3979
20.3978
20.3977
20.3977
20.3977
20.3977
20.3977
20.3978
20.4176
20.4175
20.4175
20.4175
20.4175
20.4176
20.4176
20.4177
20.4178
20.4179
20.4181
20.4182
20.4183
20.4184
20.4186
20.4187
20.4188
20.4189
20.419
20.4191
20.4192
20.4192
20.4193
20.4194
20.4194
20.4195
20.4195
20.4195
20.4195
20.4195
20.4195
20.4195
20.4195
20.4195
20.4195
20.4194
20.4194
20.4193
20.4192
20.4192
20.4191
20.419
20.4189
20.4188
20.4187
20.4186
20.4184
20.4183
20.4182
20.4181
20.4179
20.4178
20.4177
20.4176
20.4176
20.4175
20.4175
20.4175
20.4175
20.4176
20.4366
20.4365
20.4365
20.4365
20.4365
20.4366
20.4366
20.4367
20.4368
20.437
20.4371
20.4372
20.4374
20.4375
20.4376
20.4377
20.4379
20.438
20.4381
20.4382
20.4382
20.4383
20.4384
20.4385
20.4385
20.4386
20.4386
20.4386
20.4386
20.4386
20.4386
20.4386
20.4386
20.4386
20.4386
20.4385
20.4385
20.4384
20.4383
20.4382
20.4382
20.4381
20.438
20.4379
20.4377
20.4376
20.4375
20.4374
20.4372
20.4371
20.437
20.4368
20.4367
20.4366
20.4366
20.4365
20.4365
20.4365
20.4365
20.4366
20.4548
20.4548
20.4548
20.4547
20.4548
20.4548
20.4549
20.455
20.4551
20.4552
20.4554
20.4555
20.4556
20.4558
20.4559
20.456
20.4562
20.4563
20.4564
20.4565
20.4566
20.4567
20.4567
20.4568
20.4568
20.4569
20.4569
20.4569
20.457
20.457
20.457
20.457
20.4569
20.4569
20.4569
20.4568
20.4568
20.4567
20.4567
20.4566
20.4565
20.4564
20.4563
20.4562
20.456
20.4559
20.4558
20.4556
20.4555
20.4554
20.4552
20.4551
20.455
20.4549
20.4548
20.4548
20.4547
20.4548
20.4548
20.4548
20.4723
20.4723
20.4723
20.4723
20.4723
20.4724
20.4724
20.4725
20.4727
20.4728
20.4729
20.4731
20.4732
20.4733
20.4735
20.4736
20.4737
20.4739
20.474
20.4741
20.4742
20.4743
20.4743
20.4744
20.4744
20.4745
20.4745
20.4746
20.4746
20.4746
20.4746
20.4746
20.4746
20.4745
20.4745
20.4744
20.4744
20.4743
20.4743
20.4742
20.4741
20.474
20.4739
20.4737
20.4736
20.4735
20.4733
20.4732
20.4731
20.4729
20.4728
20.4727
20.4725
20.4724
20.4724
20.4723
20.4723
20.4723
20.4723
20.4723
20.4892
20.4891
20.4891
20.4891
20.4891
20.4892
20.4893
20.4894
20.4895
20.4896
20.4898
20.4899
20.4901
20.4902
20.4904
20.4905
20.4906
20.4908
20.4909
20.491
20.4911
20.4912
20.4912
20.4913
20.4914
20.4914
20.4915
20.4915
20.4915
20.4915
20.4915
20.4915
20.4915
20.4915
20.4914
20.4914
20.4913
20.4912
20.4912
20.4911
20.491
20.4909
20.4908
20.4906
20.4905
20.4904
20.4902
20.4901
20.4899
20.4898
20.4896
20.4895
20.4894
20.4893
20.4892
20.4891
20.4891
20.4891
20.4891
20.4892
20.5053
20.5053
20.5053
20.5053
20.5053
20.5054
20.5054
20.5056
20.5057
20.5058
20.506
20.5061
20.5063
20.5064
20.5066
20.5067
20.5068
20.507
20.5071
20.5072
20.5073
20.5074
20.5075
20.5076
20.5076
20.5077
20.5077
20.5077
20.5078
20.5078
20.5078
20.5078
20.5077
20.5077
20.5077
20.5076
20.5076
20.5075
20.5074
20.5073
20.5072
20.5071
20.507
20.5068
20.5067
20.5066
20.5064
20.5063
20.5061
20.506
20.5058
20.5057
20.5056
20.5054
20.5054
20.5053
20.5053
20.5053
20.5053
20.5053
20.5208
20.5208
20.5208
20.5208
20.5208
20.5209
20.521
20.5211
20.5212
20.5213
20.5215
20.5217
20.5218
20.522
20.5221
20.5223
20.5224
20.5226
20.5227
20.5228