/*--------------------------------*- C++ -*----------------------------------*\
| =========                 |                                                 |
| \\      /  F ield         | foam-extend: Open Source CFD                    |
|  \\    /   O peration     | Version:     4.0                                |
|   \\  /    A nd           | Web:         http://www.foam-extend.org         |
|    \\/     M anipulation  |                                                 |
\*---------------------------------------------------------------------------*/
FoamFile
{
    version     2.0;
    format      ascii;
    class       volScalarField;
    location    "180";
    object      cPlus;
}
// * * * * * * * * * * * * * * * * * * * * * * * * * * * * * * * * * * * * * //

dimensions      [0 0 0 0 0 0 0];

internalField   nonuniform List<scalar> 
6960
(
0.27758
0.27755
0.277545
0.277545
0.277548
0.27755
0.277553
0.277555
0.277558
0.27756
0.277562
0.277564
0.277567
0.277569
0.277571
0.277573
0.277574
0.277576
0.277577
0.277579
0.27758
0.277581
0.277582
0.277583
0.277584
0.277585
0.277585
0.277586
0.277586
0.277586
0.277586
0.277586
0.277586
0.277585
0.277585
0.277584
0.277583
0.277582
0.277581
0.27758
0.277579
0.277577
0.277576
0.277574
0.277573
0.277571
0.277569
0.277567
0.277564
0.277562
0.27756
0.277558
0.277555
0.277553
0.27755
0.277548
0.277545
0.277545
0.27755
0.27758
0.110228
0.110234
0.110236
0.110238
0.11024
0.110242
0.110243
0.110245
0.110246
0.110248
0.110249
0.11025
0.110252
0.110253
0.110254
0.110255
0.110256
0.110257
0.110258
0.110259
0.11026
0.11026
0.110261
0.110262
0.110262
0.110262
0.110263
0.110263
0.110263
0.110263
0.110263
0.110263
0.110263
0.110263
0.110262
0.110262
0.110262
0.110261
0.11026
0.11026
0.110259
0.110258
0.110257
0.110256
0.110255
0.110254
0.110253
0.110252
0.11025
0.110249
0.110248
0.110246
0.110245
0.110243
0.110242
0.11024
0.110238
0.110236
0.110234
0.110228
0.0784203
0.0784456
0.0784518
0.0784542
0.0784557
0.078457
0.0784581
0.0784591
0.0784601
0.078461
0.0784619
0.0784628
0.0784636
0.0784644
0.0784651
0.0784658
0.0784664
0.078467
0.0784676
0.0784681
0.0784686
0.078469
0.0784694
0.0784697
0.07847
0.0784702
0.0784704
0.0784705
0.0784706
0.0784707
0.0784707
0.0784706
0.0784705
0.0784704
0.0784702
0.07847
0.0784697
0.0784694
0.078469
0.0784686
0.0784681
0.0784676
0.078467
0.0784664
0.0784658
0.0784651
0.0784644
0.0784636
0.0784628
0.0784619
0.078461
0.0784601
0.0784591
0.0784581
0.078457
0.0784557
0.0784542
0.0784518
0.0784456
0.0784203
0.0742351
0.0742704
0.0742787
0.0742816
0.0742831
0.0742842
0.0742852
0.0742861
0.074287
0.0742877
0.0742885
0.0742892
0.0742899
0.0742905
0.0742911
0.0742917
0.0742922
0.0742927
0.0742932
0.0742936
0.074294
0.0742943
0.0742946
0.0742949
0.0742951
0.0742953
0.0742954
0.0742956
0.0742956
0.0742957
0.0742957
0.0742956
0.0742956
0.0742954
0.0742953
0.0742951
0.0742949
0.0742946
0.0742943
0.074294
0.0742936
0.0742932
0.0742927
0.0742922
0.0742917
0.0742911
0.0742905
0.0742899
0.0742892
0.0742885
0.0742877
0.074287
0.0742861
0.0742852
0.0742842
0.0742831
0.0742816
0.0742787
0.0742704
0.0742351
0.0773531
0.0773956
0.0774056
0.077409
0.0774107
0.0774119
0.0774129
0.0774139
0.0774148
0.0774156
0.0774164
0.0774171
0.0774178
0.0774185
0.0774191
0.0774197
0.0774203
0.0774208
0.0774213
0.0774217
0.0774221
0.0774225
0.0774228
0.077423
0.0774233
0.0774235
0.0774236
0.0774238
0.0774238
0.0774239
0.0774239
0.0774238
0.0774238
0.0774236
0.0774235
0.0774233
0.077423
0.0774228
0.0774225
0.0774221
0.0774217
0.0774213
0.0774208
0.0774203
0.0774197
0.0774191
0.0774185
0.0774178
0.0774171
0.0774164
0.0774156
0.0774148
0.0774139
0.0774129
0.0774119
0.0774107
0.077409
0.0774056
0.0773956
0.0773531
0.083469
0.0835191
0.083531
0.083535
0.083537
0.0835384
0.0835397
0.0835408
0.0835419
0.0835428
0.0835438
0.0835446
0.0835455
0.0835463
0.083547
0.0835477
0.0835483
0.0835489
0.0835495
0.08355
0.0835505
0.0835509
0.0835513
0.0835516
0.0835519
0.0835521
0.0835523
0.0835524
0.0835525
0.0835526
0.0835526
0.0835525
0.0835524
0.0835523
0.0835521
0.0835519
0.0835516
0.0835513
0.0835509
0.0835505
0.08355
0.0835495
0.0835489
0.0835483
0.0835477
0.083547
0.0835463
0.0835455
0.0835446
0.0835438
0.0835428
0.0835419
0.0835408
0.0835397
0.0835384
0.083537
0.083535
0.083531
0.0835191
0.083469
0.0919556
0.0920156
0.0920298
0.0920346
0.0920371
0.0920389
0.0920404
0.0920418
0.0920431
0.0920443
0.0920454
0.0920465
0.0920475
0.0920485
0.0920494
0.0920503
0.0920511
0.0920518
0.0920525
0.0920532
0.0920537
0.0920543
0.0920547
0.0920551
0.0920555
0.0920558
0.092056
0.0920562
0.0920563
0.0920564
0.0920564
0.0920563
0.0920562
0.092056
0.0920558
0.0920555
0.0920551
0.0920547
0.0920543
0.0920537
0.0920532
0.0920525
0.0920518
0.0920511
0.0920503
0.0920494
0.0920485
0.0920475
0.0920465
0.0920454
0.0920443
0.0920431
0.0920418
0.0920404
0.0920389
0.0920371
0.0920346
0.0920298
0.0920156
0.0919556
0.103175
0.103248
0.103265
0.103271
0.103274
0.103276
0.103278
0.10328
0.103282
0.103283
0.103285
0.103286
0.103287
0.103289
0.10329
0.103291
0.103292
0.103293
0.103294
0.103294
0.103295
0.103296
0.103296
0.103297
0.103297
0.103298
0.103298
0.103298
0.103298
0.103298
0.103298
0.103298
0.103298
0.103298
0.103298
0.103297
0.103297
0.103296
0.103296
0.103295
0.103294
0.103294
0.103293
0.103292
0.103291
0.10329
0.103289
0.103287
0.103286
0.103285
0.103283
0.103282
0.10328
0.103278
0.103276
0.103274
0.103271
0.103265
0.103248
0.103175
0.117756
0.117845
0.117867
0.117874
0.117878
0.117881
0.117883
0.117885
0.117887
0.117889
0.117891
0.117893
0.117894
0.117896
0.117897
0.117899
0.1179
0.117901
0.117902
0.117903
0.117904
0.117905
0.117906
0.117906
0.117907
0.117907
0.117908
0.117908
0.117908
0.117908
0.117908
0.117908
0.117908
0.117908
0.117907
0.117907
0.117906
0.117906
0.117905
0.117904
0.117903
0.117902
0.117901
0.1179
0.117899
0.117897
0.117896
0.117894
0.117893
0.117891
0.117889
0.117887
0.117885
0.117883
0.117881
0.117878
0.117874
0.117867
0.117845
0.117756
0.136252
0.136362
0.136388
0.136397
0.136402
0.136405
0.136408
0.136411
0.136413
0.136416
0.136418
0.13642
0.136422
0.136423
0.136425
0.136427
0.136428
0.13643
0.136431
0.136432
0.136433
0.136434
0.136435
0.136436
0.136437
0.136437
0.136438
0.136438
0.136438
0.136438
0.136438
0.136438
0.136438
0.136438
0.136437
0.136437
0.136436
0.136435
0.136434
0.136433
0.136432
0.136431
0.13643
0.136428
0.136427
0.136425
0.136423
0.136422
0.13642
0.136418
0.136416
0.136413
0.136411
0.136408
0.136405
0.136402
0.136397
0.136388
0.136362
0.136252
0.158871
0.159004
0.159037
0.159048
0.159053
0.159057
0.15906
0.159063
0.159066
0.159069
0.159071
0.159074
0.159076
0.159078
0.15908
0.159082
0.159084
0.159085
0.159087
0.159088
0.159089
0.159091
0.159092
0.159092
0.159093
0.159094
0.159094
0.159095
0.159095
0.159095
0.159095
0.159095
0.159095
0.159094
0.159094
0.159093
0.159092
0.159092
0.159091
0.159089
0.159088
0.159087
0.159085
0.159084
0.159082
0.15908
0.159078
0.159076
0.159074
0.159071
0.159069
0.159066
0.159063
0.15906
0.159057
0.159053
0.159048
0.159037
0.159004
0.158871
0.185321
0.185478
0.185517
0.185529
0.185536
0.18554
0.185544
0.185547
0.18555
0.185553
0.185556
0.185558
0.185561
0.185563
0.185565
0.185567
0.185569
0.185571
0.185573
0.185574
0.185576
0.185577
0.185578
0.185579
0.18558
0.185581
0.185581
0.185582
0.185582
0.185582
0.185582
0.185582
0.185582
0.185581
0.185581
0.18558
0.185579
0.185578
0.185577
0.185576
0.185574
0.185573
0.185571
0.185569
0.185567
0.185565
0.185563
0.185561
0.185558
0.185556
0.185553
0.18555
0.185547
0.185544
0.18554
0.185536
0.185529
0.185517
0.185478
0.185321
0.214844
0.215024
0.215069
0.215083
0.21509
0.215095
0.215099
0.215102
0.215106
0.215109
0.215112
0.215114
0.215117
0.215119
0.215122
0.215124
0.215126
0.215128
0.21513
0.215131
0.215133
0.215134
0.215135
0.215136
0.215137
0.215138
0.215138
0.215139
0.215139
0.215139
0.215139
0.215139
0.215139
0.215138
0.215138
0.215137
0.215136
0.215135
0.215134
0.215133
0.215131
0.21513
0.215128
0.215126
0.215124
0.215122
0.215119
0.215117
0.215114
0.215112
0.215109
0.215106
0.215102
0.215099
0.215095
0.21509
0.215083
0.215069
0.215024
0.214844
0.246434
0.246635
0.246686
0.246702
0.24671
0.246714
0.246719
0.246722
0.246725
0.246729
0.246731
0.246734
0.246737
0.246739
0.246742
0.246744
0.246746
0.246748
0.24675
0.246751
0.246753
0.246754
0.246755
0.246756
0.246757
0.246758
0.246758
0.246759
0.246759
0.246759
0.246759
0.246759
0.246759
0.246758
0.246758
0.246757
0.246756
0.246755
0.246754
0.246753
0.246751
0.24675
0.246748
0.246746
0.246744
0.246742
0.246739
0.246737
0.246734
0.246731
0.246729
0.246725
0.246722
0.246719
0.246714
0.24671
0.246702
0.246686
0.246635
0.246434
0.279099
0.279318
0.279374
0.279392
0.2794
0.279405
0.279409
0.279412
0.279416
0.279419
0.279422
0.279424
0.279427
0.279429
0.279432
0.279434
0.279436
0.279438
0.279439
0.279441
0.279442
0.279444
0.279445
0.279446
0.279447
0.279447
0.279448
0.279448
0.279449
0.279449
0.279449
0.279449
0.279448
0.279448
0.279447
0.279447
0.279446
0.279445
0.279444
0.279442
0.279441
0.279439
0.279438
0.279436
0.279434
0.279432
0.279429
0.279427
0.279424
0.279422
0.279419
0.279416
0.279412
0.279409
0.279405
0.2794
0.279392
0.279374
0.279318
0.279099
0.312032
0.312267
0.312328
0.312347
0.312355
0.31236
0.312364
0.312368
0.312371
0.312374
0.312377
0.312379
0.312382
0.312384
0.312386
0.312388
0.31239
0.312392
0.312394
0.312395
0.312397
0.312398
0.312399
0.3124
0.312401
0.312401
0.312402
0.312402
0.312403
0.312403
0.312403
0.312403
0.312402
0.312402
0.312401
0.312401
0.3124
0.312399
0.312398
0.312397
0.312395
0.312394
0.312392
0.31239
0.312388
0.312386
0.312384
0.312382
0.312379
0.312377
0.312374
0.312371
0.312368
0.312364
0.31236
0.312355
0.312347
0.312328
0.312267
0.312032
0.344671
0.344919
0.344985
0.345005
0.345014
0.345018
0.345022
0.345026
0.345029
0.345031
0.345034
0.345036
0.345039
0.345041
0.345043
0.345045
0.345047
0.345049
0.34505
0.345051
0.345053
0.345054
0.345055
0.345056
0.345057
0.345057
0.345058
0.345058
0.345058
0.345059
0.345059
0.345058
0.345058
0.345058
0.345057
0.345057
0.345056
0.345055
0.345054
0.345053
0.345051
0.34505
0.345049
0.345047
0.345045
0.345043
0.345041
0.345039
0.345036
0.345034
0.345031
0.345029
0.345026
0.345022
0.345018
0.345014
0.345005
0.344985
0.344919
0.344671
0.37666
0.37692
0.376991
0.377012
0.377021
0.377025
0.377029
0.377032
0.377035
0.377038
0.37704
0.377042
0.377045
0.377047
0.377049
0.37705
0.377052
0.377054
0.377055
0.377056
0.377058
0.377059
0.37706
0.377061
0.377061
0.377062
0.377062
0.377063
0.377063
0.377063
0.377063
0.377063
0.377063
0.377062
0.377062
0.377061
0.377061
0.37706
0.377059
0.377058
0.377056
0.377055
0.377054
0.377052
0.37705
0.377049
0.377047
0.377045
0.377042
0.37704
0.377038
0.377035
0.377032
0.377029
0.377025
0.377021
0.377012
0.376991
0.37692
0.37666
0.407796
0.408066
0.408141
0.408163
0.408172
0.408177
0.40818
0.408183
0.408186
0.408188
0.408191
0.408193
0.408195
0.408197
0.408198
0.4082
0.408202
0.408203
0.408204
0.408206
0.408207
0.408208
0.408209
0.40821
0.40821
0.408211
0.408211
0.408212
0.408212
0.408212
0.408212
0.408212
0.408212
0.408211
0.408211
0.40821
0.40821
0.408209
0.408208
0.408207
0.408206
0.408204
0.408203
0.408202
0.4082
0.408198
0.408197
0.408195
0.408193
0.408191
0.408188
0.408186
0.408183
0.40818
0.408177
0.408172
0.408163
0.408141
0.408066
0.407796
0.437967
0.438246
0.438324
0.438348
0.438357
0.438361
0.438365
0.438367
0.43837
0.438372
0.438374
0.438376
0.438378
0.43838
0.438382
0.438383
0.438385
0.438386
0.438387
0.438388
0.438389
0.43839
0.438391
0.438392
0.438392
0.438393
0.438393
0.438394
0.438394
0.438394
0.438394
0.438394
0.438394
0.438393
0.438393
0.438392
0.438392
0.438391
0.43839
0.438389
0.438388
0.438387
0.438386
0.438385
0.438383
0.438382
0.43838
0.438378
0.438376
0.438374
0.438372
0.43837
0.438367
0.438365
0.438361
0.438357
0.438348
0.438324
0.438246
0.437967
0.467116
0.467402
0.467484
0.467509
0.467518
0.467523
0.467526
0.467529
0.467531
0.467533
0.467535
0.467537
0.467539
0.46754
0.467542
0.467543
0.467545
0.467546
0.467547
0.467548
0.467549
0.46755
0.467551
0.467551
0.467552
0.467552
0.467553
0.467553
0.467553
0.467553
0.467553
0.467553
0.467553
0.467553
0.467552
0.467552
0.467551
0.467551
0.46755
0.467549
0.467548
0.467547
0.467546
0.467545
0.467543
0.467542
0.46754
0.467539
0.467537
0.467535
0.467533
0.467531
0.467529
0.467526
0.467523
0.467518
0.467509
0.467484
0.467402
0.467116
0.495219
0.495511
0.495597
0.495623
0.495633
0.495637
0.49564
0.495642
0.495645
0.495647
0.495648
0.49565
0.495652
0.495653
0.495655
0.495656
0.495657
0.495658
0.495659
0.49566
0.495661
0.495662
0.495663
0.495663
0.495664
0.495664
0.495664
0.495665
0.495665
0.495665
0.495665
0.495665
0.495665
0.495664
0.495664
0.495664
0.495663
0.495663
0.495662
0.495661
0.49566
0.495659
0.495658
0.495657
0.495656
0.495655
0.495653
0.495652
0.49565
0.495648
0.495647
0.495645
0.495642
0.49564
0.495637
0.495633
0.495623
0.495597
0.495511
0.495219
0.522269
0.522566
0.522655
0.522683
0.522692
0.522697
0.522699
0.522702
0.522704
0.522705
0.522707
0.522709
0.52271
0.522712
0.522713
0.522714
0.522715
0.522716
0.522717
0.522718
0.522719
0.52272
0.52272
0.522721
0.522721
0.522722
0.522722
0.522722
0.522722
0.522722
0.522722
0.522722
0.522722
0.522722
0.522722
0.522721
0.522721
0.52272
0.52272
0.522719
0.522718
0.522717
0.522716
0.522715
0.522714
0.522713
0.522712
0.52271
0.522709
0.522707
0.522705
0.522704
0.522702
0.522699
0.522697
0.522692
0.522683
0.522655
0.522566
0.522269
0.54827
0.548571
0.548663
0.548692
0.548701
0.548706
0.548709
0.548711
0.548713
0.548714
0.548716
0.548717
0.548718
0.54872
0.548721
0.548722
0.548723
0.548724
0.548725
0.548726
0.548726
0.548727
0.548728
0.548728
0.548729
0.548729
0.548729
0.548729
0.54873
0.54873
0.54873
0.54873
0.548729
0.548729
0.548729
0.548729
0.548728
0.548728
0.548727
0.548726
0.548726
0.548725
0.548724
0.548723
0.548722
0.548721
0.54872
0.548718
0.548717
0.548716
0.548714
0.548713
0.548711
0.548709
0.548706
0.548701
0.548692
0.548663
0.548571
0.54827
0.573232
0.573536
0.573631
0.573661
0.573671
0.573676
0.573678
0.57368
0.573682
0.573684
0.573685
0.573686
0.573687
0.573689
0.57369
0.573691
0.573692
0.573692
0.573693
0.573694
0.573695
0.573695
0.573696
0.573696
0.573697
0.573697
0.573697
0.573697
0.573698
0.573698
0.573698
0.573698
0.573697
0.573697
0.573697
0.573697
0.573696
0.573696
0.573695
0.573695
0.573694
0.573693
0.573692
0.573692
0.573691
0.57369
0.573689
0.573687
0.573686
0.573685
0.573684
0.573682
0.57368
0.573678
0.573676
0.573671
0.573661
0.573631
0.573536
0.573232
0.597171
0.597477
0.597576
0.597606
0.597617
0.597621
0.597624
0.597626
0.597627
0.597629
0.59763
0.597631
0.597632
0.597633
0.597634
0.597635
0.597636
0.597637
0.597638
0.597638
0.597639
0.597639
0.59764
0.59764
0.597641
0.597641
0.597641
0.597641
0.597641
0.597641
0.597641
0.597641
0.597641
0.597641
0.597641
0.597641
0.59764
0.59764
0.597639
0.597639
0.597638
0.597638
0.597637
0.597636
0.597635
0.597634
0.597633
0.597632
0.597631
0.59763
0.597629
0.597627
0.597626
0.597624
0.597621
0.597617
0.597606
0.597576
0.597477
0.597171
0.620105
0.620413
0.620513
0.620545
0.620556
0.620561
0.620563
0.620565
0.620566
0.620567
0.620569
0.62057
0.620571
0.620572
0.620573
0.620573
0.620574
0.620575
0.620576
0.620576
0.620577
0.620577
0.620578
0.620578
0.620578
0.620579
0.620579
0.620579
0.620579
0.620579
0.620579
0.620579
0.620579
0.620579
0.620579
0.620578
0.620578
0.620578
0.620577
0.620577
0.620576
0.620576
0.620575
0.620574
0.620573
0.620573
0.620572
0.620571
0.62057
0.620569
0.620567
0.620566
0.620565
0.620563
0.620561
0.620556
0.620545
0.620513
0.620413
0.620105
0.642054
0.642362
0.642465
0.642498
0.642509
0.642514
0.642516
0.642518
0.642519
0.64252
0.642521
0.642522
0.642523
0.642524
0.642525
0.642526
0.642526
0.642527
0.642528
0.642528
0.642529
0.642529
0.642529
0.64253
0.64253
0.64253
0.642531
0.642531
0.642531
0.642531
0.642531
0.642531
0.642531
0.642531
0.64253
0.64253
0.64253
0.642529
0.642529
0.642529
0.642528
0.642528
0.642527
0.642526
0.642526
0.642525
0.642524
0.642523
0.642522
0.642521
0.64252
0.642519
0.642518
0.642516
0.642514
0.642509
0.642498
0.642465
0.642362
0.642054
0.663039
0.663346
0.663452
0.663486
0.663497
0.663502
0.663504
0.663506
0.663507
0.663508
0.663509
0.66351
0.663511
0.663512
0.663512
0.663513
0.663514
0.663514
0.663515
0.663515
0.663516
0.663516
0.663517
0.663517
0.663517
0.663517
0.663518
0.663518
0.663518
0.663518
0.663518
0.663518
0.663518
0.663518
0.663517
0.663517
0.663517
0.663517
0.663516
0.663516
0.663515
0.663515
0.663514
0.663514
0.663513
0.663512
0.663512
0.663511
0.66351
0.663509
0.663508
0.663507
0.663506
0.663504
0.663502
0.663497
0.663486
0.663452
0.663346
0.663039
0.683083
0.683389
0.683496
0.683532
0.683544
0.683548
0.68355
0.683552
0.683553
0.683554
0.683555
0.683556
0.683556
0.683557
0.683558
0.683558
0.683559
0.68356
0.68356
0.683561
0.683561
0.683561
0.683562
0.683562
0.683562
0.683562
0.683563
0.683563
0.683563
0.683563
0.683563
0.683563
0.683563
0.683563
0.683562
0.683562
0.683562
0.683562
0.683561
0.683561
0.683561
0.68356
0.68356
0.683559
0.683558
0.683558
0.683557
0.683556
0.683556
0.683555
0.683554
0.683553
0.683552
0.68355
0.683548
0.683544
0.683532
0.683496
0.683389
0.683083
0.702209
0.702513
0.702622
0.702658
0.702671
0.702675
0.702678
0.702679
0.70268
0.702681
0.702682
0.702683
0.702683
0.702684
0.702684
0.702685
0.702686
0.702686
0.702686
0.702687
0.702687
0.702688
0.702688
0.702688
0.702688
0.702689
0.702689
0.702689
0.702689
0.702689
0.702689
0.702689
0.702689
0.702689
0.702689
0.702688
0.702688
0.702688
0.702688
0.702687
0.702687
0.702686
0.702686
0.702686
0.702685
0.702684
0.702684
0.702683
0.702683
0.702682
0.702681
0.70268
0.702679
0.702678
0.702675
0.702671
0.702658
0.702622
0.702513
0.702209
0.720441
0.720742
0.720852
0.72089
0.720903
0.720908
0.72091
0.720911
0.720912
0.720913
0.720914
0.720914
0.720915
0.720916
0.720916
0.720917
0.720917
0.720918
0.720918
0.720918
0.720919
0.720919
0.720919
0.72092
0.72092
0.72092
0.72092
0.72092
0.72092
0.72092
0.72092
0.72092
0.72092
0.72092
0.72092
0.72092
0.72092
0.720919
0.720919
0.720919
0.720918
0.720918
0.720918
0.720917
0.720917
0.720916
0.720916
0.720915
0.720914
0.720914
0.720913
0.720912
0.720911
0.72091
0.720908
0.720903
0.72089
0.720852
0.720742
0.720441
0.737804
0.738101
0.738213
0.738251
0.738265
0.738269
0.738272
0.738273
0.738274
0.738275
0.738275
0.738276
0.738276
0.738277
0.738278
0.738278
0.738278
0.738279
0.738279
0.73828
0.73828
0.73828
0.73828
0.738281
0.738281
0.738281
0.738281
0.738281
0.738281
0.738281
0.738281
0.738281
0.738281
0.738281
0.738281
0.738281
0.738281
0.73828
0.73828
0.73828
0.73828
0.738279
0.738279
0.738278
0.738278
0.738278
0.738277
0.738276
0.738276
0.738275
0.738275
0.738274
0.738273
0.738272
0.738269
0.738265
0.738251
0.738213
0.738101
0.737804
0.754321
0.754615
0.754727
0.754767
0.754781
0.754786
0.754788
0.754789
0.75479
0.754791
0.754791
0.754792
0.754792
0.754793
0.754793
0.754794
0.754794
0.754794
0.754795
0.754795
0.754795
0.754796
0.754796
0.754796
0.754796
0.754796
0.754796
0.754796
0.754797
0.754797
0.754797
0.754797
0.754796
0.754796
0.754796
0.754796
0.754796
0.754796
0.754796
0.754795
0.754795
0.754795
0.754794
0.754794
0.754794
0.754793
0.754793
0.754792
0.754792
0.754791
0.754791
0.75479
0.754789
0.754788
0.754786
0.754781
0.754767
0.754727
0.754615
0.754321
0.770019
0.770308
0.770421
0.770462
0.770476
0.770481
0.770483
0.770485
0.770485
0.770486
0.770487
0.770487
0.770488
0.770488
0.770488
0.770489
0.770489
0.77049
0.77049
0.77049
0.77049
0.770491
0.770491
0.770491
0.770491
0.770491
0.770491
0.770491
0.770491
0.770491
0.770491
0.770491
0.770491
0.770491
0.770491
0.770491
0.770491
0.770491
0.770491
0.77049
0.77049
0.77049
0.77049
0.770489
0.770489
0.770488
0.770488
0.770488
0.770487
0.770487
0.770486
0.770485
0.770485
0.770483
0.770481
0.770476
0.770462
0.770421
0.770308
0.770019
0.784922
0.785206
0.78532
0.785362
0.785376
0.785382
0.785384
0.785385
0.785386
0.785386
0.785387
0.785387
0.785388
0.785388
0.785389
0.785389
0.785389
0.785389
0.78539
0.78539
0.78539
0.78539
0.785391
0.785391
0.785391
0.785391
0.785391
0.785391
0.785391
0.785391
0.785391
0.785391
0.785391
0.785391
0.785391
0.785391
0.785391
0.785391
0.78539
0.78539
0.78539
0.78539
0.785389
0.785389
0.785389
0.785389
0.785388
0.785388
0.785387
0.785387
0.785386
0.785386
0.785385
0.785384
0.785382
0.785376
0.785362
0.78532
0.785206
0.784922
0.799057
0.799335
0.799449
0.799492
0.799507
0.799512
0.799515
0.799516
0.799516
0.799517
0.799517
0.799518
0.799518
0.799519
0.799519
0.799519
0.79952
0.79952
0.79952
0.79952
0.79952
0.799521
0.799521
0.799521
0.799521
0.799521
0.799521
0.799521
0.799521
0.799521
0.799521
0.799521
0.799521
0.799521
0.799521
0.799521
0.799521
0.799521
0.799521
0.79952
0.79952
0.79952
0.79952
0.79952
0.799519
0.799519
0.799519
0.799518
0.799518
0.799517
0.799517
0.799516
0.799516
0.799515
0.799512
0.799507
0.799492
0.799449
0.799335
0.799057
0.812448
0.812721
0.812835
0.812878
0.812893
0.812899
0.812901
0.812902
0.812903
0.812904
0.812904
0.812904
0.812905
0.812905
0.812905
0.812906
0.812906
0.812906
0.812906
0.812907
0.812907
0.812907
0.812907
0.812907
0.812907
0.812907
0.812907
0.812908
0.812908
0.812908
0.812908
0.812908
0.812908
0.812907
0.812907
0.812907
0.812907
0.812907
0.812907
0.812907
0.812907
0.812906
0.812906
0.812906
0.812906
0.812905
0.812905
0.812905
0.812904
0.812904
0.812904
0.812903
0.812902
0.812901
0.812899
0.812893
0.812878
0.812835
0.812721
0.812448
0.825122
0.825388
0.825501
0.825545
0.825561
0.825567
0.82557
0.825571
0.825571
0.825572
0.825572
0.825573
0.825573
0.825573
0.825574
0.825574
0.825574
0.825574
0.825574
0.825575
0.825575
0.825575
0.825575
0.825575
0.825575
0.825575
0.825575
0.825575
0.825575
0.825575
0.825575
0.825575
0.825575
0.825575
0.825575
0.825575
0.825575
0.825575
0.825575
0.825575
0.825575
0.825574
0.825574
0.825574
0.825574
0.825574
0.825573
0.825573
0.825573
0.825572
0.825572
0.825571
0.825571
0.82557
0.825567
0.825561
0.825545
0.825501
0.825388
0.825122
0.837103
0.837363
0.837476
0.83752
0.837537
0.837543
0.837545
0.837547
0.837547
0.837548
0.837548
0.837548
0.837548
0.837549
0.837549
0.837549
0.837549
0.83755
0.83755
0.83755
0.83755
0.83755
0.83755
0.83755
0.83755
0.837551
0.837551
0.837551
0.837551
0.837551
0.837551
0.837551
0.837551
0.837551
0.837551
0.83755
0.83755
0.83755
0.83755
0.83755
0.83755
0.83755
0.83755
0.837549
0.837549
0.837549
0.837549
0.837548
0.837548
0.837548
0.837548
0.837547
0.837547
0.837545
0.837543
0.837537
0.83752
0.837476
0.837363
0.837103
0.848418
0.848671
0.848783
0.848828
0.848845
0.848851
0.848854
0.848855
0.848856
0.848856
0.848856
0.848857
0.848857
0.848857
0.848857
0.848857
0.848858
0.848858
0.848858
0.848858
0.848858
0.848858
0.848858
0.848859
0.848859
0.848859
0.848859
0.848859
0.848859
0.848859
0.848859
0.848859
0.848859
0.848859
0.848859
0.848859
0.848859
0.848858
0.848858
0.848858
0.848858
0.848858
0.848858
0.848858
0.848857
0.848857
0.848857
0.848857
0.848857
0.848856
0.848856
0.848856
0.848855
0.848854
0.848851
0.848845
0.848828
0.848783
0.848671
0.848418
0.859092
0.859337
0.859449
0.859494
0.859512
0.859518
0.859521
0.859522
0.859523
0.859523
0.859523
0.859523
0.859524
0.859524
0.859524
0.859524
0.859524
0.859524
0.859525
0.859525
0.859525
0.859525
0.859525
0.859525
0.859525
0.859525
0.859525
0.859525
0.859525
0.859525
0.859525
0.859525
0.859525
0.859525
0.859525
0.859525
0.859525
0.859525
0.859525
0.859525
0.859525
0.859525
0.859524
0.859524
0.859524
0.859524
0.859524
0.859524
0.859523
0.859523
0.859523
0.859523
0.859522
0.859521
0.859518
0.859512
0.859494
0.859449
0.859337
0.859092
0.86915
0.869388
0.869498
0.869544
0.869562
0.869569
0.869571
0.869573
0.869573
0.869573
0.869574
0.869574
0.869574
0.869574
0.869574
0.869575
0.869575
0.869575
0.869575
0.869575
0.869575
0.869575
0.869575
0.869575
0.869576
0.869576
0.869576
0.869576
0.869576
0.869576
0.869576
0.869576
0.869576
0.869576
0.869576
0.869576
0.869575
0.869575
0.869575
0.869575
0.869575
0.869575
0.869575
0.869575
0.869575
0.869574
0.869574
0.869574
0.869574
0.869574
0.869573
0.869573
0.869573
0.869571
0.869569
0.869562
0.869544
0.869498
0.869388
0.86915
0.878618
0.878848
0.878957
0.879003
0.879021
0.879028
0.879031
0.879032
0.879033
0.879033
0.879033
0.879033
0.879033
0.879034
0.879034
0.879034
0.879034
0.879034
0.879034
0.879034
0.879034
0.879034
0.879035
0.879035
0.879035
0.879035
0.879035
0.879035
0.879035
0.879035
0.879035
0.879035
0.879035
0.879035
0.879035
0.879035
0.879035
0.879035
0.879034
0.879034
0.879034
0.879034
0.879034
0.879034
0.879034
0.879034
0.879034
0.879033
0.879033
0.879033
0.879033
0.879033
0.879032
0.879031
0.879028
0.879021
0.879003
0.878957
0.878848
0.878618
0.887519
0.887742
0.887849
0.887895
0.887914
0.887921
0.887924
0.887925
0.887926
0.887926
0.887926
0.887926
0.887926
0.887927
0.887927
0.887927
0.887927
0.887927
0.887927
0.887927
0.887927
0.887927
0.887927
0.887927
0.887927
0.887928
0.887928
0.887928
0.887928
0.887928
0.887928
0.887928
0.887928
0.887928
0.887928
0.887927
0.887927
0.887927
0.887927
0.887927
0.887927
0.887927
0.887927
0.887927
0.887927
0.887927
0.887927
0.887926
0.887926
0.887926
0.887926
0.887926
0.887925
0.887924
0.887921
0.887914
0.887895
0.887849
0.887742
0.887519
0.89588
0.896094
0.896199
0.896246
0.896265
0.896272
0.896275
0.896276
0.896277
0.896277
0.896277
0.896278
0.896278
0.896278
0.896278
0.896278
0.896278
0.896278
0.896278
0.896278
0.896278
0.896278
0.896278
0.896278
0.896279
0.896279
0.896279
0.896279
0.896279
0.896279
0.896279
0.896279
0.896279
0.896279
0.896279
0.896279
0.896278
0.896278
0.896278
0.896278
0.896278
0.896278
0.896278
0.896278
0.896278
0.896278
0.896278
0.896278
0.896278
0.896277
0.896277
0.896277
0.896276
0.896275
0.896272
0.896265
0.896246
0.896199
0.896094
0.89588
0.903723
0.903929
0.904032
0.904079
0.904098
0.904106
0.904109
0.90411
0.904111
0.904111
0.904111
0.904111
0.904111
0.904111
0.904111
0.904111
0.904112
0.904112
0.904112
0.904112
0.904112
0.904112
0.904112
0.904112
0.904112
0.904112
0.904112
0.904112
0.904112
0.904112
0.904112
0.904112
0.904112
0.904112
0.904112
0.904112
0.904112
0.904112
0.904112
0.904112
0.904112
0.904112
0.904112
0.904112
0.904111
0.904111
0.904111
0.904111
0.904111
0.904111
0.904111
0.904111
0.90411
0.904109
0.904106
0.904098
0.904079
0.904032
0.903929
0.903723
0.911073
0.911271
0.911372
0.911418
0.911437
0.911445
0.911449
0.91145
0.91145
0.911451
0.911451
0.911451
0.911451
0.911451
0.911451
0.911451
0.911451
0.911451
0.911451
0.911451
0.911451
0.911451
0.911452
0.911452
0.911452
0.911452
0.911452
0.911452
0.911452
0.911452
0.911452
0.911452
0.911452
0.911452
0.911452
0.911452
0.911452
0.911452
0.911451
0.911451
0.911451
0.911451
0.911451
0.911451
0.911451
0.911451
0.911451
0.911451
0.911451
0.911451
0.911451
0.91145
0.91145
0.911449
0.911445
0.911437
0.911418
0.911372
0.911271
0.911073
0.917952
0.918142
0.918241
0.918287
0.918306
0.918315
0.918318
0.918319
0.91832
0.91832
0.91832
0.91832
0.91832
0.91832
0.91832
0.91832
0.91832
0.918321
0.918321
0.918321
0.918321
0.918321
0.918321
0.918321
0.918321
0.918321
0.918321
0.918321
0.918321
0.918321
0.918321
0.918321
0.918321
0.918321
0.918321
0.918321
0.918321
0.918321
0.918321
0.918321
0.918321
0.918321
0.918321
0.91832
0.91832
0.91832
0.91832
0.91832
0.91832
0.91832
0.91832
0.91832
0.918319
0.918318
0.918315
0.918306
0.918287
0.918241
0.918142
0.917952
0.924384
0.924566
0.924662
0.924708
0.924728
0.924736
0.92474
0.924741
0.924742
0.924742
0.924742
0.924742
0.924742
0.924742
0.924742
0.924742
0.924742
0.924742
0.924742
0.924742
0.924742
0.924742
0.924742
0.924742
0.924742
0.924742
0.924742
0.924742
0.924742
0.924742
0.924742
0.924742
0.924742
0.924742
0.924742
0.924742
0.924742
0.924742
0.924742
0.924742
0.924742
0.924742
0.924742
0.924742
0.924742
0.924742
0.924742
0.924742
0.924742
0.924742
0.924742
0.924742
0.924741
0.92474
0.924736
0.924728
0.924708
0.924662
0.924566
0.924384
0.930392
0.930566
0.930659
0.930704
0.930724
0.930733
0.930736
0.930738
0.930738
0.930739
0.930739
0.930739
0.930739
0.930739
0.930739
0.930739
0.930739
0.930739
0.930739
0.930739
0.930739
0.930739
0.930739
0.930739
0.930739
0.930739
0.930739
0.930739
0.930739
0.930739
0.930739
0.930739
0.930739
0.930739
0.930739
0.930739
0.930739
0.930739
0.930739
0.930739
0.930739
0.930739
0.930739
0.930739
0.930739
0.930739
0.930739
0.930739
0.930739
0.930739
0.930739
0.930738
0.930738
0.930736
0.930733
0.930724
0.930704
0.930659
0.930566
0.930392
0.935996
0.936162
0.936253
0.936297
0.936317
0.936326
0.93633
0.936331
0.936332
0.936332
0.936332
0.936332
0.936332
0.936332
0.936332
0.936332
0.936332
0.936332
0.936332
0.936332
0.936332
0.936332
0.936332
0.936332
0.936332
0.936332
0.936332
0.936332
0.936332
0.936332
0.936332
0.936332
0.936332
0.936332
0.936332
0.936332
0.936332
0.936332
0.936332
0.936332
0.936332
0.936332
0.936332
0.936332
0.936332
0.936332
0.936332
0.936332
0.936332
0.936332
0.936332
0.936332
0.936331
0.93633
0.936326
0.936317
0.936297
0.936253
0.936162
0.935996
0.941219
0.941377
0.941464
0.941508
0.941528
0.941537
0.941541
0.941543
0.941543
0.941543
0.941543
0.941543
0.941543
0.941543
0.941543
0.941543
0.941543
0.941543
0.941543
0.941543
0.941543
0.941543
0.941543
0.941543
0.941543
0.941543
0.941543
0.941543
0.941543
0.941543
0.941543
0.941543
0.941543
0.941543
0.941543
0.941543
0.941543
0.941543
0.941543
0.941543
0.941543
0.941543
0.941543
0.941543
0.941543
0.941543
0.941543
0.941543
0.941543
0.941543
0.941543
0.941543
0.941543
0.941541
0.941537
0.941528
0.941508
0.941464
0.941377
0.941219
0.94608
0.94623
0.946315
0.946358
0.946378
0.946387
0.946391
0.946393
0.946393
0.946393
0.946393
0.946393
0.946393
0.946393
0.946393
0.946393
0.946393
0.946393
0.946393
0.946393
0.946393
0.946393
0.946393
0.946393
0.946393
0.946393
0.946393
0.946393
0.946393
0.946393
0.946393
0.946393
0.946393
0.946393
0.946393
0.946393
0.946393
0.946393
0.946393
0.946393
0.946393
0.946393
0.946393
0.946393
0.946393
0.946393
0.946393
0.946393
0.946393
0.946393
0.946393
0.946393
0.946393
0.946391
0.946387
0.946378