/*--------------------------------*- C++ -*----------------------------------*\
| =========                 |                                                 |
| \\      /  F ield         | foam-extend: Open Source CFD                    |
|  \\    /   O peration     | Version:     4.0                                |
|   \\  /    A nd           | Web:         http://www.foam-extend.org         |
|    \\/     M anipulation  |                                                 |
\*---------------------------------------------------------------------------*/
FoamFile
{
    version     2.0;
    format      ascii;
    class       volScalarField;
    location    "510";
    object      cMinus;
}
// * * * * * * * * * * * * * * * * * * * * * * * * * * * * * * * * * * * * * //

dimensions      [0 0 0 0 0 0 0];

internalField   nonuniform List<scalar> 
6960
(
4.13183e-18
4.09978e-18
4.11217e-18
4.12116e-18
4.12695e-18
4.1304e-18
4.13225e-18
4.13302e-18
4.13308e-18
4.13269e-18
4.13201e-18
4.13115e-18
4.13019e-18
4.12918e-18
4.12815e-18
4.12713e-18
4.12615e-18
4.1252e-18
4.12432e-18
4.12349e-18
4.12273e-18
4.12204e-18
4.12143e-18
4.12089e-18
4.12043e-18
4.12004e-18
4.11973e-18
4.1195e-18
4.11935e-18
4.11927e-18
4.11927e-18
4.11935e-18
4.1195e-18
4.11973e-18
4.12004e-18
4.12043e-18
4.12089e-18
4.12143e-18
4.12204e-18
4.12273e-18
4.12349e-18
4.12432e-18
4.1252e-18
4.12615e-18
4.12713e-18
4.12815e-18
4.12918e-18
4.13019e-18
4.13115e-18
4.13201e-18
4.13269e-18
4.13308e-18
4.13302e-18
4.13225e-18
4.1304e-18
4.12695e-18
4.12116e-18
4.11217e-18
4.09978e-18
4.13183e-18
6.7358e-18
6.68539e-18
6.70573e-18
6.72048e-18
6.72998e-18
6.73567e-18
6.73873e-18
6.74001e-18
6.74014e-18
6.73953e-18
6.73843e-18
6.73705e-18
6.7355e-18
6.73386e-18
6.7322e-18
6.73055e-18
6.72895e-18
6.72743e-18
6.72599e-18
6.72465e-18
6.72342e-18
6.7223e-18
6.72131e-18
6.72043e-18
6.71969e-18
6.71906e-18
6.71856e-18
6.71819e-18
6.71794e-18
6.71782e-18
6.71782e-18
6.71794e-18
6.71819e-18
6.71856e-18
6.71906e-18
6.71969e-18
6.72043e-18
6.72131e-18
6.7223e-18
6.72342e-18
6.72465e-18
6.72599e-18
6.72743e-18
6.72895e-18
6.73055e-18
6.7322e-18
6.73386e-18
6.7355e-18
6.73705e-18
6.73843e-18
6.73953e-18
6.74014e-18
6.74001e-18
6.73873e-18
6.73567e-18
6.72998e-18
6.72048e-18
6.70573e-18
6.68539e-18
6.7358e-18
1.6863e-17
1.67409e-17
1.67918e-17
1.68286e-17
1.68523e-17
1.68665e-17
1.68741e-17
1.68773e-17
1.68776e-17
1.68761e-17
1.68733e-17
1.68699e-17
1.6866e-17
1.68619e-17
1.68577e-17
1.68536e-17
1.68496e-17
1.68458e-17
1.68422e-17
1.68388e-17
1.68358e-17
1.6833e-17
1.68305e-17
1.68283e-17
1.68264e-17
1.68249e-17
1.68236e-17
1.68227e-17
1.6822e-17
1.68217e-17
1.68217e-17
1.6822e-17
1.68227e-17
1.68236e-17
1.68249e-17
1.68264e-17
1.68283e-17
1.68305e-17
1.6833e-17
1.68358e-17
1.68388e-17
1.68422e-17
1.68458e-17
1.68496e-17
1.68536e-17
1.68577e-17
1.68619e-17
1.6866e-17
1.68699e-17
1.68733e-17
1.68761e-17
1.68776e-17
1.68773e-17
1.68741e-17
1.68665e-17
1.68523e-17
1.68286e-17
1.67918e-17
1.67409e-17
1.6863e-17
4.49938e-17
4.46779e-17
4.48137e-17
4.49118e-17
4.4975e-17
4.50128e-17
4.5033e-17
4.50415e-17
4.50423e-17
4.50381e-17
4.50308e-17
4.50215e-17
4.50111e-17
4.50002e-17
4.49891e-17
4.49781e-17
4.49674e-17
4.49572e-17
4.49475e-17
4.49386e-17
4.49304e-17
4.49229e-17
4.49163e-17
4.49104e-17
4.49054e-17
4.49013e-17
4.48979e-17
4.48954e-17
4.48938e-17
4.48929e-17
4.48929e-17
4.48938e-17
4.48954e-17
4.48979e-17
4.49013e-17
4.49054e-17
4.49104e-17
4.49163e-17
4.49229e-17
4.49304e-17
4.49386e-17
4.49475e-17
4.49572e-17
4.49674e-17
4.49781e-17
4.49891e-17
4.50002e-17
4.50111e-17
4.50215e-17
4.50308e-17
4.50381e-17
4.50423e-17
4.50415e-17
4.5033e-17
4.50128e-17
4.4975e-17
4.49118e-17
4.48137e-17
4.46779e-17
4.49938e-17
1.20643e-16
1.19823e-16
1.20188e-16
1.20451e-16
1.2062e-16
1.20721e-16
1.20775e-16
1.20798e-16
1.208e-16
1.20789e-16
1.20769e-16
1.20745e-16
1.20717e-16
1.20687e-16
1.20657e-16
1.20628e-16
1.20599e-16
1.20572e-16
1.20546e-16
1.20522e-16
1.205e-16
1.2048e-16
1.20462e-16
1.20446e-16
1.20433e-16
1.20422e-16
1.20413e-16
1.20406e-16
1.20402e-16
1.20399e-16
1.20399e-16
1.20402e-16
1.20406e-16
1.20413e-16
1.20422e-16
1.20433e-16
1.20446e-16
1.20462e-16
1.2048e-16
1.205e-16
1.20522e-16
1.20546e-16
1.20572e-16
1.20599e-16
1.20628e-16
1.20657e-16
1.20687e-16
1.20717e-16
1.20745e-16
1.20769e-16
1.20789e-16
1.208e-16
1.20798e-16
1.20775e-16
1.20721e-16
1.2062e-16
1.20451e-16
1.20188e-16
1.19823e-16
1.20643e-16
3.23483e-16
3.21365e-16
3.22344e-16
3.23048e-16
3.23502e-16
3.23774e-16
3.23919e-16
3.2398e-16
3.23986e-16
3.23956e-16
3.23903e-16
3.23836e-16
3.23761e-16
3.23682e-16
3.23602e-16
3.23523e-16
3.23446e-16
3.23373e-16
3.23303e-16
3.23239e-16
3.2318e-16
3.23126e-16
3.23078e-16
3.23036e-16
3.23e-16
3.2297e-16
3.22946e-16
3.22928e-16
3.22916e-16
3.2291e-16
3.2291e-16
3.22916e-16
3.22928e-16
3.22946e-16
3.2297e-16
3.23e-16
3.23036e-16
3.23078e-16
3.23126e-16
3.2318e-16
3.23239e-16
3.23303e-16
3.23373e-16
3.23446e-16
3.23523e-16
3.23602e-16
3.23682e-16
3.23761e-16
3.23836e-16
3.23903e-16
3.23956e-16
3.23986e-16
3.2398e-16
3.23919e-16
3.23774e-16
3.23502e-16
3.23048e-16
3.22344e-16
3.21365e-16
3.23483e-16
8.67705e-16
8.62252e-16
8.64884e-16
8.66774e-16
8.67992e-16
8.6872e-16
8.69111e-16
8.69274e-16
8.69289e-16
8.69209e-16
8.69067e-16
8.68888e-16
8.68687e-16
8.68475e-16
8.68261e-16
8.68048e-16
8.67841e-16
8.67644e-16
8.67458e-16
8.67285e-16
8.67127e-16
8.66983e-16
8.66854e-16
8.66742e-16
8.66645e-16
8.66564e-16
8.665e-16
8.66452e-16
8.66419e-16
8.66403e-16
8.66403e-16
8.66419e-16
8.66452e-16
8.665e-16
8.66564e-16
8.66645e-16
8.66742e-16
8.66854e-16
8.66983e-16
8.67127e-16
8.67285e-16
8.67458e-16
8.67644e-16
8.67841e-16
8.68048e-16
8.68261e-16
8.68475e-16
8.68687e-16
8.68888e-16
8.69067e-16
8.69209e-16
8.69289e-16
8.69274e-16
8.69111e-16
8.6872e-16
8.67992e-16
8.66774e-16
8.64884e-16
8.62252e-16
8.67705e-16
2.32992e-15
2.31594e-15
2.32301e-15
2.32809e-15
2.33136e-15
2.33332e-15
2.33436e-15
2.33481e-15
2.33485e-15
2.33463e-15
2.33425e-15
2.33377e-15
2.33323e-15
2.33266e-15
2.33209e-15
2.33152e-15
2.33096e-15
2.33043e-15
2.32993e-15
2.32947e-15
2.32904e-15
2.32866e-15
2.32831e-15
2.32801e-15
2.32775e-15
2.32753e-15
2.32736e-15
2.32723e-15
2.32715e-15
2.3271e-15
2.3271e-15
2.32715e-15
2.32723e-15
2.32736e-15
2.32753e-15
2.32775e-15
2.32801e-15
2.32831e-15
2.32866e-15
2.32904e-15
2.32947e-15
2.32993e-15
2.33043e-15
2.33096e-15
2.33152e-15
2.33209e-15
2.33266e-15
2.33323e-15
2.33377e-15
2.33425e-15
2.33463e-15
2.33485e-15
2.33481e-15
2.33436e-15
2.33332e-15
2.33136e-15
2.32809e-15
2.32301e-15
2.31594e-15
2.32992e-15
6.26791e-15
6.23225e-15
6.25132e-15
6.26496e-15
6.27376e-15
6.27903e-15
6.28185e-15
6.28304e-15
6.28315e-15
6.28257e-15
6.28155e-15
6.28027e-15
6.27882e-15
6.2773e-15
6.27575e-15
6.27422e-15
6.27273e-15
6.27131e-15
6.26997e-15
6.26872e-15
6.26758e-15
6.26654e-15
6.26561e-15
6.2648e-15
6.26411e-15
6.26353e-15
6.26306e-15
6.26271e-15
6.26248e-15
6.26237e-15
6.26237e-15
6.26248e-15
6.26271e-15
6.26306e-15
6.26353e-15
6.26411e-15
6.2648e-15
6.26561e-15
6.26654e-15
6.26758e-15
6.26872e-15
6.26997e-15
6.27131e-15
6.27273e-15
6.27422e-15
6.27575e-15
6.2773e-15
6.27882e-15
6.28027e-15
6.28155e-15
6.28257e-15
6.28315e-15
6.28304e-15
6.28185e-15
6.27903e-15
6.27376e-15
6.26496e-15
6.25132e-15
6.23225e-15
6.26791e-15
1.692e-14
1.68297e-14
1.68812e-14
1.6918e-14
1.69418e-14
1.6956e-14
1.69636e-14
1.69668e-14
1.69672e-14
1.69656e-14
1.69629e-14
1.69594e-14
1.69556e-14
1.69515e-14
1.69473e-14
1.69432e-14
1.69392e-14
1.69354e-14
1.69318e-14
1.69284e-14
1.69254e-14
1.69226e-14
1.69201e-14
1.69179e-14
1.6916e-14
1.69145e-14
1.69132e-14
1.69123e-14
1.69117e-14
1.69114e-14
1.69114e-14
1.69117e-14
1.69123e-14
1.69132e-14
1.69145e-14
1.6916e-14
1.69179e-14
1.69201e-14
1.69226e-14
1.69254e-14
1.69284e-14
1.69318e-14
1.69354e-14
1.69392e-14
1.69432e-14
1.69473e-14
1.69515e-14
1.69556e-14
1.69594e-14
1.69629e-14
1.69656e-14
1.69672e-14
1.69668e-14
1.69636e-14
1.6956e-14
1.69418e-14
1.6918e-14
1.68812e-14
1.68297e-14
1.692e-14
4.59816e-14
4.57554e-14
4.58953e-14
4.5995e-14
4.60595e-14
4.60981e-14
4.61189e-14
4.61278e-14
4.61288e-14
4.61248e-14
4.61175e-14
4.61082e-14
4.60978e-14
4.60868e-14
4.60757e-14
4.60646e-14
4.60539e-14
4.60436e-14
4.6034e-14
4.6025e-14
4.60167e-14
4.60092e-14
4.60025e-14
4.59967e-14
4.59916e-14
4.59875e-14
4.59841e-14
4.59816e-14
4.59799e-14
4.59791e-14
4.59791e-14
4.59799e-14
4.59816e-14
4.59841e-14
4.59875e-14
4.59916e-14
4.59967e-14
4.60025e-14
4.60092e-14
4.60167e-14
4.6025e-14
4.6034e-14
4.60436e-14
4.60539e-14
4.60646e-14
4.60757e-14
4.60868e-14
4.60978e-14
4.61082e-14
4.61175e-14
4.61248e-14
4.61288e-14
4.61278e-14
4.61189e-14
4.60981e-14
4.60595e-14
4.5995e-14
4.58953e-14
4.57554e-14
4.59816e-14
1.26661e-13
1.26105e-13
1.26489e-13
1.26764e-13
1.26941e-13
1.27048e-13
1.27106e-13
1.27131e-13
1.27134e-13
1.27124e-13
1.27105e-13
1.2708e-13
1.27052e-13
1.27023e-13
1.26993e-13
1.26963e-13
1.26934e-13
1.26907e-13
1.26881e-13
1.26856e-13
1.26834e-13
1.26814e-13
1.26796e-13
1.2678e-13
1.26767e-13
1.26756e-13
1.26747e-13
1.2674e-13
1.26735e-13
1.26733e-13
1.26733e-13
1.26735e-13
1.2674e-13
1.26747e-13
1.26756e-13
1.26767e-13
1.2678e-13
1.26796e-13
1.26814e-13
1.26834e-13
1.26856e-13
1.26881e-13
1.26907e-13
1.26934e-13
1.26963e-13
1.26993e-13
1.27023e-13
1.27052e-13
1.2708e-13
1.27105e-13
1.27124e-13
1.27134e-13
1.27131e-13
1.27106e-13
1.27048e-13
1.26941e-13
1.26764e-13
1.26489e-13
1.26105e-13
1.26661e-13
3.58691e-13
3.5738e-13
3.58467e-13
3.59242e-13
3.59747e-13
3.60053e-13
3.60221e-13
3.60297e-13
3.60312e-13
3.60288e-13
3.60239e-13
3.60174e-13
3.601e-13
3.60021e-13
3.5994e-13
3.59861e-13
3.59783e-13
3.59709e-13
3.59639e-13
3.59574e-13
3.59514e-13
3.5946e-13
3.59412e-13
3.5937e-13
3.59333e-13
3.59303e-13
3.59279e-13
3.59261e-13
3.59249e-13
3.59243e-13
3.59243e-13
3.59249e-13
3.59261e-13
3.59279e-13
3.59303e-13
3.59333e-13
3.5937e-13
3.59412e-13
3.5946e-13
3.59514e-13
3.59574e-13
3.59639e-13
3.59709e-13
3.59783e-13
3.59861e-13
3.5994e-13
3.60021e-13
3.601e-13
3.60174e-13
3.60239e-13
3.60288e-13
3.60312e-13
3.60297e-13
3.60221e-13
3.60053e-13
3.59747e-13
3.59242e-13
3.58467e-13
3.5738e-13
3.58691e-13
1.07301e-12
1.07026e-12
1.07352e-12
1.07585e-12
1.07739e-12
1.07834e-12
1.07887e-12
1.07914e-12
1.07921e-12
1.07917e-12
1.07905e-12
1.07889e-12
1.07869e-12
1.07849e-12
1.07827e-12
1.07806e-12
1.07785e-12
1.07765e-12
1.07746e-12
1.07729e-12
1.07713e-12
1.07698e-12
1.07685e-12
1.07674e-12
1.07664e-12
1.07656e-12
1.0765e-12
1.07645e-12
1.07642e-12
1.0764e-12
1.0764e-12
1.07642e-12
1.07645e-12
1.0765e-12
1.07656e-12
1.07664e-12
1.07674e-12
1.07685e-12
1.07698e-12
1.07713e-12
1.07729e-12
1.07746e-12
1.07765e-12
1.07785e-12
1.07806e-12
1.07827e-12
1.07849e-12
1.07869e-12
1.07889e-12
1.07905e-12
1.07917e-12
1.07921e-12
1.07914e-12
1.07887e-12
1.07834e-12
1.07739e-12
1.07585e-12
1.07352e-12
1.07026e-12
1.07301e-12
3.54171e-12
3.53805e-12
3.54905e-12
3.55699e-12
3.56231e-12
3.56568e-12
3.56769e-12
3.56876e-12
3.56921e-12
3.56926e-12
3.56904e-12
3.56866e-12
3.56819e-12
3.56765e-12
3.56709e-12
3.56653e-12
3.56598e-12
3.56545e-12
3.56495e-12
3.56448e-12
3.56405e-12
3.56366e-12
3.56331e-12
3.56301e-12
3.56275e-12
3.56253e-12
3.56236e-12
3.56223e-12
3.56214e-12
3.5621e-12
3.5621e-12
3.56214e-12
3.56223e-12
3.56236e-12
3.56253e-12
3.56275e-12
3.56301e-12
3.56331e-12
3.56366e-12
3.56405e-12
3.56448e-12
3.56495e-12
3.56545e-12
3.56598e-12
3.56653e-12
3.56709e-12
3.56765e-12
3.56819e-12
3.56866e-12
3.56904e-12
3.56926e-12
3.56921e-12
3.56876e-12
3.56769e-12
3.56568e-12
3.56231e-12
3.55699e-12
3.54905e-12
3.53805e-12
3.54171e-12
1.35286e-11
1.35399e-11
1.35842e-11
1.36165e-11
1.36387e-11
1.36532e-11
1.36623e-11
1.36677e-11
1.36705e-11
1.36717e-11
1.36718e-11
1.36713e-11
1.36703e-11
1.3669e-11
1.36676e-11
1.36662e-11
1.36648e-11
1.36634e-11
1.36621e-11
1.36608e-11
1.36597e-11
1.36586e-11
1.36577e-11
1.36569e-11
1.36562e-11
1.36557e-11
1.36552e-11
1.36548e-11
1.36546e-11
1.36545e-11
1.36545e-11
1.36546e-11
1.36548e-11
1.36552e-11
1.36557e-11
1.36562e-11
1.36569e-11
1.36577e-11
1.36586e-11
1.36597e-11
1.36608e-11
1.36621e-11
1.36634e-11
1.36648e-11
1.36662e-11
1.36676e-11
1.3669e-11
1.36703e-11
1.36713e-11
1.36718e-11
1.36717e-11
1.36705e-11
1.36677e-11
1.36623e-11
1.36532e-11
1.36387e-11
1.36165e-11
1.35842e-11
1.35399e-11
1.35286e-11
6.08875e-11
6.10456e-11
6.12608e-11
6.14202e-11
6.15316e-11
6.16067e-11
6.16555e-11
6.16863e-11
6.17047e-11
6.1715e-11
6.17199e-11
6.17213e-11
6.17206e-11
6.17185e-11
6.17157e-11
6.17124e-11
6.17089e-11
6.17055e-11
6.17021e-11
6.1699e-11
6.16961e-11
6.16934e-11
6.1691e-11
6.16889e-11
6.16872e-11
6.16857e-11
6.16845e-11
6.16836e-11
6.1683e-11
6.16827e-11
6.16827e-11
6.1683e-11
6.16836e-11
6.16845e-11
6.16857e-11
6.16872e-11
6.16889e-11
6.1691e-11
6.16934e-11
6.16961e-11
6.1699e-11
6.17021e-11
6.17055e-11
6.17089e-11
6.17124e-11
6.17157e-11
6.17185e-11
6.17206e-11
6.17213e-11
6.17199e-11
6.1715e-11
6.17047e-11
6.16863e-11
6.16555e-11
6.16067e-11
6.15316e-11
6.14202e-11
6.12608e-11
6.10456e-11
6.08875e-11
3.12927e-10
3.14145e-10
3.15346e-10
3.16243e-10
3.16878e-10
3.17313e-10
3.17602e-10
3.1779e-10
3.1791e-10
3.17983e-10
3.18027e-10
3.1805e-10
3.18061e-10
3.18064e-10
3.18062e-10
3.18057e-10
3.18051e-10
3.18044e-10
3.18036e-10
3.18029e-10
3.18022e-10
3.18016e-10
3.1801e-10
3.18005e-10
3.18001e-10
3.17997e-10
3.17995e-10
3.17992e-10
3.17991e-10
3.1799e-10
3.1799e-10
3.17991e-10
3.17992e-10
3.17995e-10
3.17997e-10
3.18001e-10
3.18005e-10
3.1801e-10
3.18016e-10
3.18022e-10
3.18029e-10
3.18036e-10
3.18044e-10
3.18051e-10
3.18057e-10
3.18062e-10
3.18064e-10
3.18061e-10
3.1805e-10
3.18027e-10
3.17983e-10
3.1791e-10
3.1779e-10
3.17602e-10
3.17313e-10
3.16878e-10
3.16243e-10
3.15346e-10
3.14145e-10
3.12927e-10
1.73599e-09
1.74417e-09
1.75132e-09
1.75669e-09
1.7605e-09
1.76314e-09
1.76491e-09
1.76608e-09
1.76684e-09
1.76733e-09
1.76764e-09
1.76783e-09
1.76794e-09
1.76801e-09
1.76804e-09
1.76805e-09
1.76805e-09
1.76804e-09
1.76803e-09
1.76802e-09
1.76801e-09
1.768e-09
1.76799e-09
1.76798e-09
1.76797e-09
1.76797e-09
1.76796e-09
1.76796e-09
1.76795e-09
1.76795e-09
1.76795e-09
1.76795e-09
1.76796e-09
1.76796e-09
1.76797e-09
1.76797e-09
1.76798e-09
1.76799e-09
1.768e-09
1.76801e-09
1.76802e-09
1.76803e-09
1.76804e-09
1.76805e-09
1.76805e-09
1.76804e-09
1.76801e-09
1.76794e-09
1.76783e-09
1.76764e-09
1.76733e-09
1.76684e-09
1.76608e-09
1.76491e-09
1.76314e-09
1.7605e-09
1.75669e-09
1.75132e-09
1.74417e-09
1.73599e-09
9.88947e-09
9.94086e-09
9.98388e-09
1.00162e-08
1.00393e-08
1.00552e-08
1.0066e-08
1.00732e-08
1.00779e-08
1.0081e-08
1.0083e-08
1.00843e-08
1.00851e-08
1.00856e-08
1.00859e-08
1.00861e-08
1.00862e-08
1.00863e-08
1.00863e-08
1.00863e-08
1.00863e-08
1.00863e-08
1.00864e-08
1.00864e-08
1.00864e-08
1.00864e-08
1.00864e-08
1.00864e-08
1.00864e-08
1.00864e-08
1.00864e-08
1.00864e-08
1.00864e-08
1.00864e-08
1.00864e-08
1.00864e-08
1.00864e-08
1.00864e-08
1.00863e-08
1.00863e-08
1.00863e-08
1.00863e-08
1.00863e-08
1.00862e-08
1.00861e-08
1.00859e-08
1.00856e-08
1.00851e-08
1.00843e-08
1.0083e-08
1.0081e-08
1.00779e-08
1.00732e-08
1.0066e-08
1.00552e-08
1.00393e-08
1.00162e-08
9.98388e-09
9.94086e-09
9.88947e-09
5.58742e-08
5.61808e-08
5.64334e-08
5.66232e-08
5.67587e-08
5.68525e-08
5.69161e-08
5.69586e-08
5.69867e-08
5.70051e-08
5.70172e-08
5.7025e-08
5.70302e-08
5.70335e-08
5.70357e-08
5.70372e-08
5.70382e-08
5.70389e-08
5.70393e-08
5.70397e-08
5.704e-08
5.70402e-08
5.70404e-08
5.70405e-08
5.70407e-08
5.70408e-08
5.70409e-08
5.70409e-08
5.7041e-08
5.7041e-08
5.7041e-08
5.7041e-08
5.70409e-08
5.70409e-08
5.70408e-08
5.70407e-08
5.70405e-08
5.70404e-08
5.70402e-08
5.704e-08
5.70397e-08
5.70393e-08
5.70389e-08
5.70382e-08
5.70372e-08
5.70357e-08
5.70335e-08
5.70302e-08
5.7025e-08
5.70172e-08
5.70051e-08
5.69867e-08
5.69586e-08
5.69161e-08
5.68525e-08
5.67587e-08
5.66232e-08
5.64334e-08
5.61808e-08
5.58742e-08
3.0564e-07
3.07368e-07
3.08783e-07
3.09845e-07
3.10603e-07
3.11129e-07
3.11485e-07
3.11723e-07
3.11881e-07
3.11985e-07
3.12054e-07
3.12099e-07
3.12129e-07
3.12148e-07
3.12162e-07
3.12171e-07
3.12177e-07
3.12182e-07
3.12185e-07
3.12188e-07
3.1219e-07
3.12192e-07
3.12193e-07
3.12194e-07
3.12195e-07
3.12196e-07
3.12197e-07
3.12198e-07
3.12198e-07
3.12198e-07
3.12198e-07
3.12198e-07
3.12198e-07
3.12197e-07
3.12196e-07
3.12195e-07
3.12194e-07
3.12193e-07
3.12192e-07
3.1219e-07
3.12188e-07
3.12185e-07
3.12182e-07
3.12177e-07
3.12171e-07
3.12162e-07
3.12148e-07
3.12129e-07
3.12099e-07
3.12054e-07
3.11985e-07
3.11881e-07
3.11723e-07
3.11485e-07
3.11129e-07
3.10603e-07
3.09845e-07
3.08783e-07
3.07368e-07
3.0564e-07
1.58868e-06
1.59777e-06
1.60519e-06
1.61076e-06
1.61473e-06
1.61748e-06
1.61934e-06
1.62059e-06
1.62142e-06
1.62197e-06
1.62233e-06
1.62257e-06
1.62273e-06
1.62284e-06
1.62291e-06
1.62296e-06
1.62299e-06
1.62302e-06
1.62304e-06
1.62306e-06
1.62307e-06
1.62308e-06
1.62309e-06
1.62309e-06
1.6231e-06
1.62311e-06
1.62311e-06
1.62311e-06
1.62312e-06
1.62312e-06
1.62312e-06
1.62312e-06
1.62311e-06
1.62311e-06
1.62311e-06
1.6231e-06
1.62309e-06
1.62309e-06
1.62308e-06
1.62307e-06
1.62306e-06
1.62304e-06
1.62302e-06
1.62299e-06
1.62296e-06
1.62291e-06
1.62284e-06
1.62273e-06
1.62257e-06
1.62233e-06
1.62197e-06
1.62142e-06
1.62059e-06
1.61934e-06
1.61748e-06
1.61473e-06
1.61076e-06
1.60519e-06
1.59777e-06
1.58868e-06
7.7171e-06
7.76111e-06
7.79694e-06
7.82378e-06
7.84291e-06
7.85616e-06
7.86515e-06
7.87118e-06
7.87518e-06
7.87782e-06
7.87957e-06
7.88074e-06
7.88151e-06
7.88204e-06
7.88239e-06
7.88264e-06
7.88282e-06
7.88295e-06
7.88305e-06
7.88313e-06
7.88319e-06
7.88324e-06
7.88329e-06
7.88333e-06
7.88336e-06
7.88339e-06
7.88341e-06
7.88342e-06
7.88343e-06
7.88344e-06
7.88344e-06
7.88343e-06
7.88342e-06
7.88341e-06
7.88339e-06
7.88336e-06
7.88333e-06
7.88329e-06
7.88324e-06
7.88319e-06
7.88313e-06
7.88305e-06
7.88295e-06
7.88282e-06
7.88264e-06
7.88239e-06
7.88204e-06
7.88151e-06
7.88074e-06
7.87957e-06
7.87782e-06
7.87518e-06
7.87118e-06
7.86515e-06
7.85616e-06
7.84291e-06
7.82378e-06
7.79694e-06
7.76111e-06
7.7171e-06
3.44691e-05
3.4662e-05
3.48185e-05
3.49356e-05
3.5019e-05
3.50767e-05
3.51158e-05
3.51421e-05
3.51595e-05
3.51711e-05
3.51787e-05
3.51838e-05
3.51872e-05
3.51896e-05
3.51911e-05
3.51923e-05
3.5193e-05
3.51936e-05
3.51941e-05
3.51944e-05
3.51947e-05
3.5195e-05
3.51952e-05
3.51953e-05
3.51955e-05
3.51956e-05
3.51957e-05
3.51958e-05
3.51958e-05
3.51958e-05
3.51958e-05
3.51958e-05
3.51958e-05
3.51957e-05
3.51956e-05
3.51955e-05
3.51953e-05
3.51952e-05
3.5195e-05
3.51947e-05
3.51944e-05
3.51941e-05
3.51936e-05
3.5193e-05
3.51923e-05
3.51911e-05
3.51896e-05
3.51872e-05
3.51838e-05
3.51787e-05
3.51711e-05
3.51595e-05
3.51421e-05
3.51158e-05
3.50767e-05
3.5019e-05
3.49356e-05
3.48185e-05
3.4662e-05
3.44691e-05
0.000139253
0.000140004
0.000140611
0.000141064
0.000141387
0.00014161
0.000141761
0.000141863
0.00014193
0.000141975
0.000142005
0.000142025
0.000142038
0.000142047
0.000142053
0.000142057
0.000142061
0.000142063
0.000142065
0.000142066
0.000142067
0.000142068
0.000142069
0.000142069
0.00014207
0.000142071
0.000142071
0.000142071
0.000142071
0.000142071
0.000142071
0.000142071
0.000142071
0.000142071
0.000142071
0.00014207
0.000142069
0.000142069
0.000142068
0.000142067
0.000142066
0.000142065
0.000142063
0.000142061
0.000142057
0.000142053
0.000142047
0.000142038
0.000142025
0.000142005
0.000141975
0.00014193
0.000141863
0.000141761
0.00014161
0.000141387
0.000141064
0.000140611
0.000140004
0.000139253
0.000500234
0.000502782
0.00050483
0.000506355
0.00050744
0.000508191
0.0005087
0.000509042
0.000509269
0.00050942
0.00050952
0.000509587
0.000509632
0.000509663
0.000509684
0.000509699
0.00050971
0.000509718
0.000509724
0.000509728
0.000509732
0.000509735
0.000509738
0.00050974
0.000509742
0.000509744
0.000509745
0.000509746
0.000509746
0.000509747
0.000509747
0.000509746
0.000509746
0.000509745
0.000509744
0.000509742
0.00050974
0.000509738
0.000509735
0.000509732
0.000509728
0.000509724
0.000509718
0.00050971
0.000509699
0.000509684
0.000509663
0.000509632
0.000509587
0.00050952
0.00050942
0.000509269
0.000509042
0.0005087
0.000508191
0.00050744
0.000506355
0.00050483
0.000502782
0.000500234
0.00157064
0.001578
0.00158388
0.00158825
0.00159136
0.00159351
0.00159496
0.00159594
0.00159659
0.00159703
0.00159732
0.00159751
0.00159764
0.00159773
0.00159779
0.00159783
0.00159786
0.00159788
0.0015979
0.00159792
0.00159793
0.00159794
0.00159794
0.00159795
0.00159796
0.00159796
0.00159796
0.00159797
0.00159797
0.00159797
0.00159797
0.00159797
0.00159797
0.00159796
0.00159796
0.00159796
0.00159795
0.00159794
0.00159794
0.00159793
0.00159792
0.0015979
0.00159788
0.00159786
0.00159783
0.00159779
0.00159773
0.00159764
0.00159751
0.00159732
0.00159703
0.00159659
0.00159594
0.00159496
0.00159351
0.00159136
0.00158825
0.00158388
0.001578
0.00157064
0.00424358
0.00426134
0.00427542
0.00428586
0.00429328
0.00429841
0.0043019
0.00430424
0.0043058
0.00430683
0.00430752
0.00430799
0.0043083
0.00430851
0.00430866
0.00430876
0.00430884
0.00430889
0.00430893
0.00430897
0.00430899
0.00430902
0.00430903
0.00430905
0.00430906
0.00430907
0.00430908
0.00430909
0.00430909
0.00430909
0.00430909
0.00430909
0.00430909
0.00430908
0.00430907
0.00430906
0.00430905
0.00430903
0.00430902
0.00430899
0.00430897
0.00430893
0.00430889
0.00430884
0.00430876
0.00430866
0.00430851
0.0043083
0.00430799
0.00430752
0.00430683
0.0043058
0.00430424
0.0043019
0.00429841
0.00429328
0.00428586
0.00427542
0.00426134
0.00424358
0.00976444
0.00979976
0.00982753
0.00984807
0.00986266
0.00987275
0.00987961
0.00988421
0.00988729
0.00988933
0.0098907
0.00989161
0.00989223
0.00989265
0.00989295
0.00989315
0.0098933
0.00989341
0.00989349
0.00989356
0.00989361
0.00989366
0.00989369
0.00989372
0.00989375
0.00989377
0.00989378
0.00989379
0.0098938
0.00989381
0.00989381
0.0098938
0.00989379
0.00989378
0.00989377
0.00989375
0.00989372
0.00989369
0.00989366
0.00989361
0.00989356
0.00989349
0.00989341
0.0098933
0.00989315
0.00989295
0.00989265
0.00989223
0.00989161
0.0098907
0.00988933
0.00988729
0.00988421
0.00987961
0.00987275
0.00986266
0.00984807
0.00982753
0.00979976
0.00976444
0.0191312
0.0191892
0.0192344
0.0192678
0.0192915
0.0193079
0.019319
0.0193265
0.0193315
0.0193349
0.0193371
0.0193386
0.0193396
0.0193403
0.0193408
0.0193411
0.0193414
0.0193416
0.0193417
0.0193418
0.0193419
0.019342
0.019342
0.0193421
0.0193421
0.0193421
0.0193422
0.0193422
0.0193422
0.0193422
0.0193422
0.0193422
0.0193422
0.0193422
0.0193421
0.0193421
0.0193421
0.019342
0.019342
0.0193419
0.0193418
0.0193417
0.0193416
0.0193414
0.0193411
0.0193408
0.0193403
0.0193396
0.0193386
0.0193371
0.0193349
0.0193315
0.0193265
0.019319
0.0193079
0.0192915
0.0192678
0.0192344
0.0191892
0.0191312
0.0323364
0.0324172
0.0324796
0.0325255
0.0325581
0.0325807
0.0325961
0.0326064
0.0326133
0.032618
0.0326211
0.0326231
0.0326246
0.0326255
0.0326262
0.0326267
0.032627
0.0326273
0.0326274
0.0326276
0.0326277
0.0326278
0.0326279
0.0326279
0.032628
0.032628
0.0326281
0.0326281
0.0326281
0.0326281
0.0326281
0.0326281
0.0326281
0.0326281
0.032628
0.032628
0.0326279
0.0326279
0.0326278
0.0326277
0.0326276
0.0326274
0.0326273
0.032627
0.0326267
0.0326262
0.0326255
0.0326246
0.0326231
0.0326211
0.032618
0.0326133
0.0326064
0.0325961
0.0325807
0.0325581
0.0325255
0.0324796
0.0324172
0.0323364
0.048318
0.0484175
0.0484936
0.0485495
0.0485892
0.0486167
0.0486354
0.0486481
0.0486565
0.0486622
0.048666
0.0486686
0.0486703
0.0486715
0.0486724
0.0486729
0.0486734
0.0486737
0.0486739
0.0486741
0.0486742
0.0486743
0.0486744
0.0486745
0.0486746
0.0486746
0.0486747
0.0486747
0.0486747
0.0486747
0.0486747
0.0486747
0.0486747
0.0486747
0.0486746
0.0486746
0.0486745
0.0486744
0.0486743
0.0486742
0.0486741
0.0486739
0.0486737
0.0486734
0.0486729
0.0486724
0.0486715
0.0486703
0.0486686
0.048666
0.0486622
0.0486565
0.0486481
0.0486354
0.0486167
0.0485892
0.0485495
0.0484936
0.0484175
0.048318
0.065719
0.0658326
0.0659187
0.0659819
0.0660268
0.0660579
0.0660792
0.0660935
0.0661032
0.0661097
0.066114
0.066117
0.066119
0.0661203
0.0661213
0.066122
0.0661225
0.0661228
0.0661231
0.0661233
0.0661234
0.0661236
0.0661237
0.0661238
0.0661238
0.0661239
0.0661239
0.066124
0.066124
0.066124
0.066124
0.066124
0.066124
0.0661239
0.0661239
0.0661238
0.0661238
0.0661237
0.0661236
0.0661234
0.0661233
0.0661231
0.0661228
0.0661225
0.066122
0.0661213
0.0661203
0.066119
0.066117
0.066114
0.0661097
0.0661032
0.0660935
0.0660792
0.0660579
0.0660268
0.0659819
0.0659187
0.0658326
0.065719
0.0835905
0.0837153
0.0838093
0.0838782
0.0839272
0.0839612
0.0839845
0.0840002
0.0840109
0.084018
0.0840228
0.0840261
0.0840283
0.0840298
0.0840309
0.0840317
0.0840322
0.0840326
0.0840329
0.0840331
0.0840333
0.0840334
0.0840335
0.0840336
0.0840337
0.0840338
0.0840338
0.0840338
0.0840339
0.0840339
0.0840339
0.0840339
0.0840338
0.0840338
0.0840338
0.0840337
0.0840336
0.0840335
0.0840334
0.0840333
0.0840331
0.0840329
0.0840326
0.0840322
0.0840317
0.0840309
0.0840298
0.0840283
0.0840261
0.0840228
0.084018
0.0840109
0.0840002
0.0839845
0.0839612
0.0839272
0.0838782
0.0838093
0.0837153
0.0835905
0.101517
0.101652
0.101753
0.101827
0.10188
0.101916
0.101941
0.101959
0.10197
0.101978
0.101983
0.101987
0.101989
0.101991
0.101992
0.101993
0.101993
0.101994
0.101994
0.101994
0.101995
0.101995
0.101995
0.101995
0.101995
0.101995
0.101995
0.101995
0.101995
0.101995
0.101995
0.101995
0.101995
0.101995
0.101995
0.101995
0.101995
0.101995
0.101995
0.101995
0.101994
0.101994
0.101994
0.101993
0.101993
0.101992
0.101991
0.101989
0.101987
0.101983
0.101978
0.10197
0.101959
0.101941
0.101916
0.10188
0.101827
0.101753
0.101652
0.101517
0.119403
0.119548
0.119656
0.119735
0.119791
0.11983
0.119858
0.119876
0.119888
0.119897
0.119903
0.119906
0.119909
0.119911
0.119912
0.119913
0.119914
0.119914
0.119915
0.119915
0.119915
0.119915
0.119915
0.119915
0.119916
0.119916
0.119916
0.119916
0.119916
0.119916
0.119916
0.119916
0.119916
0.119916
0.119916
0.119916
0.119915
0.119915
0.119915
0.119915
0.119915
0.119915
0.119914
0.119914
0.119913
0.119912
0.119911
0.119909
0.119906
0.119903
0.119897
0.119888
0.119876
0.119858
0.11983
0.119791
0.119735
0.119656
0.119548
0.119403
0.137264
0.137419
0.137534
0.137618
0.137679
0.137721
0.13775
0.13777
0.137783
0.137792
0.137798
0.137803
0.137805
0.137807
0.137809
0.13781
0.137811
0.137811
0.137811
0.137812
0.137812
0.137812
0.137812
0.137812
0.137812
0.137812
0.137813
0.137813
0.137813
0.137813
0.137813
0.137813
0.137813
0.137813
0.137812
0.137812
0.137812
0.137812
0.137812
0.137812
0.137812
0.137811
0.137811
0.137811
0.13781
0.137809
0.137807
0.137805
0.137803
0.137798
0.137792
0.137783
0.13777
0.13775
0.137721
0.137679
0.137618
0.137534
0.137419
0.137264
0.15513
0.155294
0.155416
0.155506
0.15557
0.155615
0.155646
0.155667
0.155682
0.155692
0.155699
0.155703
0.155706
0.155708
0.15571
0.155711
0.155712
0.155712
0.155713
0.155713
0.155713
0.155713
0.155714
0.155714
0.155714
0.155714
0.155714
0.155714
0.155714
0.155714
0.155714
0.155714
0.155714
0.155714
0.155714
0.155714
0.155714
0.155714
0.155713
0.155713
0.155713
0.155713
0.155712
0.155712
0.155711
0.15571
0.155708
0.155706
0.155703
0.155699
0.155692
0.155682
0.155667
0.155646
0.155615
0.15557
0.155506
0.155416
0.155294
0.15513
0.173015
0.173188
0.173317
0.173412
0.17348
0.173528
0.173561
0.173584
0.173599
0.17361
0.173617
0.173622
0.173625
0.173628
0.17363
0.173631
0.173632
0.173632
0.173633
0.173633
0.173633
0.173633
0.173633
0.173634
0.173634
0.173634
0.173634
0.173634
0.173634
0.173634
0.173634
0.173634
0.173634
0.173634
0.173634
0.173634
0.173634
0.173633
0.173633
0.173633
0.173633
0.173633
0.173632
0.173632
0.173631
0.17363
0.173628
0.173625
0.173622
0.173617
0.17361
0.173599
0.173584
0.173561
0.173528
0.17348
0.173412
0.173317
0.173188
0.173015
0.190918
0.1911
0.191236
0.191336
0.191408
0.191459
0.191494
0.191519
0.191535
0.191547
0.191555
0.19156
0.191564
0.191566
0.191568
0.191569
0.19157
0.191571
0.191571
0.191572
0.191572
0.191572
0.191572
0.191572
0.191573
0.191573
0.191573
0.191573
0.191573
0.191573
0.191573
0.191573
0.191573
0.191573
0.191573
0.191573
0.191572
0.191572
0.191572
0.191572
0.191572
0.191571
0.191571
0.19157
0.191569
0.191568
0.191566
0.191564
0.19156
0.191555
0.191547
0.191535
0.191519
0.191494
0.191459
0.191408
0.191336
0.191236
0.1911
0.190918
0.208833
0.209024
0.209167
0.209272
0.209348
0.209402
0.209439
0.209465
0.209483
0.209495
0.209504
0.209509
0.209513
0.209516
0.209518
0.209519
0.20952
0.209521
0.209522
0.209522
0.209522
0.209523
0.209523
0.209523
0.209523
0.209523
0.209523
0.209523
0.209523
0.209523
0.209523
0.209523
0.209523
0.209523
0.209523
0.209523
0.209523
0.209523
0.209523
0.209522
0.209522
0.209522
0.209521
0.20952
0.209519
0.209518
0.209516
0.209513
0.209509
0.209504
0.209495
0.209483
0.209465
0.209439
0.209402
0.209348
0.209272
0.209167
0.209024
0.208833
0.226748
0.226947
0.227097
0.227207
0.227287
0.227344
0.227384
0.227411
0.22743
0.227443
0.227452
0.227459
0.227463
0.227466
0.227468
0.227469
0.227471
0.227471
0.227472
0.227472
0.227473
0.227473
0.227473
0.227473
0.227473
0.227473
0.227473
0.227473
0.227473
0.227473
0.227473
0.227473
0.227473
0.227473
0.227473
0.227473
0.227473
0.227473
0.227473
0.227473
0.227472
0.227472
0.227471
0.227471
0.227469
0.227468
0.227466
0.227463
0.227459
0.227452
0.227443
0.22743
0.227411
0.227384
0.227344
0.227287
0.227207
0.227097
0.226947
0.226748
0.24465
0.244857
0.245013
0.245128
0.245212
0.245272
0.245314
0.245343
0.245364
0.245378
0.245387
0.245394
0.245399
0.245402
0.245404
0.245406
0.245407
0.245408
0.245408
0.245409
0.245409
0.245409
0.245409
0.24541
0.24541
0.24541
0.24541
0.24541
0.24541
0.24541
0.24541
0.24541
0.24541
0.24541
0.24541
0.24541
0.24541
0.245409
0.245409
0.245409
0.245409
0.245408
0.245408
0.245407
0.245406
0.245404
0.245402
0.245399
0.245394
0.245387
0.245378
0.245364
0.245343
0.245314
0.245272
0.245212
0.245128
0.245013
0.244857
0.24465
0.262524
0.262738
0.2629
0.263021
0.263109
0.263172
0.263216
0.263247
0.263268
0.263283
0.263294
0.263301
0.263306
0.263309
0.263312
0.263314
0.263315