/*--------------------------------*- C++ -*----------------------------------*\
| =========                 |                                                 |
| \\      /  F ield         | foam-extend: Open Source CFD                    |
|  \\    /   O peration     | Version:     4.0                                |
|   \\  /    A nd           | Web:         http://www.foam-extend.org         |
|    \\/     M anipulation  |                                                 |
\*---------------------------------------------------------------------------*/
FoamFile
{
    version     2.0;
    format      ascii;
    class       volScalarField;
    location    "170";
    object      cMinus;
}
// * * * * * * * * * * * * * * * * * * * * * * * * * * * * * * * * * * * * * //

dimensions      [0 0 0 0 0 0 0];

internalField   nonuniform List<scalar> 
6960
(
0.000658528
0.000659272
0.000659462
0.000659568
0.000659648
0.000659714
0.000659769
0.000659817
0.000659859
0.000659897
0.000659932
0.000659964
0.000659994
0.000660022
0.000660048
0.000660072
0.000660094
0.000660114
0.000660133
0.00066015
0.000660166
0.00066018
0.000660192
0.000660203
0.000660212
0.00066022
0.000660226
0.000660231
0.000660234
0.000660235
0.000660235
0.000660234
0.000660231
0.000660226
0.00066022
0.000660212
0.000660203
0.000660192
0.00066018
0.000660166
0.00066015
0.000660133
0.000660114
0.000660094
0.000660072
0.000660048
0.000660022
0.000659994
0.000659964
0.000659932
0.000659897
0.000659859
0.000659817
0.000659769
0.000659714
0.000659648
0.000659568
0.000659462
0.000659272
0.000658528
0.00287349
0.00287692
0.00287773
0.00287816
0.00287847
0.00287872
0.00287893
0.00287911
0.00287927
0.00287941
0.00287955
0.00287967
0.00287978
0.00287988
0.00287998
0.00288007
0.00288015
0.00288023
0.0028803
0.00288037
0.00288043
0.00288048
0.00288052
0.00288057
0.0028806
0.00288063
0.00288065
0.00288067
0.00288068
0.00288069
0.00288069
0.00288068
0.00288067
0.00288065
0.00288063
0.0028806
0.00288057
0.00288052
0.00288048
0.00288043
0.00288037
0.0028803
0.00288023
0.00288015
0.00288007
0.00287998
0.00287988
0.00287978
0.00287967
0.00287955
0.00287941
0.00287927
0.00287911
0.00287893
0.00287872
0.00287847
0.00287816
0.00287773
0.00287692
0.00287349
0.00801094
0.00802072
0.00802293
0.00802399
0.00802475
0.00802535
0.00802586
0.0080263
0.00802669
0.00802703
0.00802735
0.00802764
0.00802791
0.00802817
0.0080284
0.00802862
0.00802882
0.008029
0.00802917
0.00802933
0.00802947
0.00802959
0.00802971
0.0080298
0.00802989
0.00802996
0.00803001
0.00803005
0.00803008
0.00803009
0.00803009
0.00803008
0.00803005
0.00803001
0.00802996
0.00802989
0.0080298
0.00802971
0.00802959
0.00802947
0.00802933
0.00802917
0.008029
0.00802882
0.00802862
0.0080284
0.00802817
0.00802791
0.00802764
0.00802735
0.00802703
0.00802669
0.0080263
0.00802586
0.00802535
0.00802475
0.00802399
0.00802293
0.00802072
0.00801094
0.018254
0.0182762
0.0182809
0.018283
0.0182845
0.0182856
0.0182866
0.0182875
0.0182882
0.0182889
0.0182895
0.01829
0.0182905
0.018291
0.0182915
0.0182919
0.0182922
0.0182926
0.0182929
0.0182932
0.0182935
0.0182937
0.0182939
0.0182941
0.0182943
0.0182944
0.0182945
0.0182946
0.0182947
0.0182947
0.0182947
0.0182947
0.0182946
0.0182945
0.0182944
0.0182943
0.0182941
0.0182939
0.0182937
0.0182935
0.0182932
0.0182929
0.0182926
0.0182922
0.0182919
0.0182915
0.018291
0.0182905
0.01829
0.0182895
0.0182889
0.0182882
0.0182875
0.0182866
0.0182856
0.0182845
0.018283
0.0182809
0.0182762
0.018254
0.0359235
0.0359653
0.0359739
0.0359774
0.0359798
0.0359816
0.0359832
0.0359845
0.0359857
0.0359867
0.0359877
0.0359886
0.0359894
0.0359902
0.0359909
0.0359915
0.0359921
0.0359927
0.0359932
0.0359937
0.0359941
0.0359945
0.0359948
0.0359951
0.0359954
0.0359956
0.0359957
0.0359959
0.0359959
0.035996
0.035996
0.0359959
0.0359959
0.0359957
0.0359956
0.0359954
0.0359951
0.0359948
0.0359945
0.0359941
0.0359937
0.0359932
0.0359927
0.0359921
0.0359915
0.0359909
0.0359902
0.0359894
0.0359886
0.0359877
0.0359867
0.0359857
0.0359845
0.0359832
0.0359816
0.0359798
0.0359774
0.0359739
0.0359653
0.0359235
0.0623388
0.0624065
0.0624199
0.062425
0.0624282
0.0624308
0.0624329
0.0624347
0.0624363
0.0624377
0.062439
0.0624402
0.0624413
0.0624423
0.0624433
0.0624442
0.062445
0.0624458
0.0624465
0.0624471
0.0624477
0.0624482
0.0624486
0.062449
0.0624494
0.0624497
0.0624499
0.0624501
0.0624502
0.0624502
0.0624502
0.0624502
0.0624501
0.0624499
0.0624497
0.0624494
0.062449
0.0624486
0.0624482
0.0624477
0.0624471
0.0624465
0.0624458
0.062445
0.0624442
0.0624433
0.0624423
0.0624413
0.0624402
0.062439
0.0624377
0.0624363
0.0624347
0.0624329
0.0624308
0.0624282
0.062425
0.0624199
0.0624065
0.0623388
0.0968852
0.0969815
0.0969999
0.0970063
0.0970102
0.0970132
0.0970157
0.0970178
0.0970197
0.0970214
0.0970229
0.0970243
0.0970256
0.0970268
0.097028
0.097029
0.09703
0.0970309
0.0970317
0.0970324
0.0970331
0.0970337
0.0970343
0.0970347
0.0970351
0.0970355
0.0970357
0.0970359
0.0970361
0.0970361
0.0970361
0.0970361
0.0970359
0.0970357
0.0970355
0.0970351
0.0970347
0.0970343
0.0970337
0.0970331
0.0970324
0.0970317
0.0970309
0.09703
0.097029
0.097028
0.0970268
0.0970256
0.0970243
0.0970229
0.0970214
0.0970197
0.0970178
0.0970157
0.0970132
0.0970102
0.0970063
0.0969999
0.0969815
0.0968852
0.137199
0.137323
0.137346
0.137353
0.137358
0.137361
0.137363
0.137366
0.137368
0.137369
0.137371
0.137373
0.137374
0.137375
0.137376
0.137377
0.137379
0.137379
0.13738
0.137381
0.137382
0.137382
0.137383
0.137383
0.137384
0.137384
0.137385
0.137385
0.137385
0.137385
0.137385
0.137385
0.137385
0.137385
0.137384
0.137384
0.137383
0.137383
0.137382
0.137382
0.137381
0.13738
0.137379
0.137379
0.137377
0.137376
0.137375
0.137374
0.137373
0.137371
0.137369
0.137368
0.137366
0.137363
0.137361
0.137358
0.137353
0.137346
0.137323
0.137199
0.180359
0.180506
0.180533
0.180541
0.180545
0.180548
0.180551
0.180553
0.180555
0.180557
0.180558
0.18056
0.180561
0.180562
0.180564
0.180565
0.180566
0.180567
0.180567
0.180568
0.180569
0.18057
0.18057
0.180571
0.180571
0.180571
0.180572
0.180572
0.180572
0.180572
0.180572
0.180572
0.180572
0.180572
0.180571
0.180571
0.180571
0.18057
0.18057
0.180569
0.180568
0.180567
0.180567
0.180566
0.180565
0.180564
0.180562
0.180561
0.18056
0.180558
0.180557
0.180555
0.180553
0.180551
0.180548
0.180545
0.180541
0.180533
0.180506
0.180359
0.224029
0.224197
0.224228
0.224236
0.22424
0.224243
0.224245
0.224247
0.224249
0.224251
0.224252
0.224253
0.224255
0.224256
0.224257
0.224258
0.224259
0.22426
0.22426
0.224261
0.224262
0.224262
0.224263
0.224263
0.224264
0.224264
0.224264
0.224264
0.224264
0.224264
0.224264
0.224264
0.224264
0.224264
0.224264
0.224264
0.224263
0.224263
0.224262
0.224262
0.224261
0.22426
0.22426
0.224259
0.224258
0.224257
0.224256
0.224255
0.224253
0.224252
0.224251
0.224249
0.224247
0.224245
0.224243
0.22424
0.224236
0.224228
0.224197
0.224029
0.266871
0.267056
0.267089
0.267098
0.267101
0.267104
0.267106
0.267108
0.26711
0.267111
0.267113
0.267114
0.267115
0.267116
0.267117
0.267118
0.267119
0.267119
0.26712
0.267121
0.267121
0.267122
0.267122
0.267123
0.267123
0.267123
0.267123
0.267124
0.267124
0.267124
0.267124
0.267124
0.267124
0.267123
0.267123
0.267123
0.267123
0.267122
0.267122
0.267121
0.267121
0.26712
0.267119
0.267119
0.267118
0.267117
0.267116
0.267115
0.267114
0.267113
0.267111
0.26711
0.267108
0.267106
0.267104
0.267101
0.267098
0.267089
0.267056
0.266871
0.308329
0.308531
0.308567
0.308575
0.308579
0.308581
0.308583
0.308585
0.308586
0.308588
0.308589
0.30859
0.308591
0.308592
0.308593
0.308594
0.308594
0.308595
0.308596
0.308596
0.308597
0.308597
0.308598
0.308598
0.308598
0.308598
0.308599
0.308599
0.308599
0.308599
0.308599
0.308599
0.308599
0.308599
0.308598
0.308598
0.308598
0.308598
0.308597
0.308597
0.308596
0.308596
0.308595
0.308594
0.308594
0.308593
0.308592
0.308591
0.30859
0.308589
0.308588
0.308586
0.308585
0.308583
0.308581
0.308579
0.308575
0.308567
0.308531
0.308329
0.348275
0.348491
0.34853
0.348538
0.348542
0.348544
0.348546
0.348547
0.348548
0.34855
0.348551
0.348552
0.348552
0.348553
0.348554
0.348555
0.348555
0.348556
0.348557
0.348557
0.348557
0.348558
0.348558
0.348559
0.348559
0.348559
0.348559
0.348559
0.348559
0.34856
0.34856
0.348559
0.348559
0.348559
0.348559
0.348559
0.348559
0.348558
0.348558
0.348557
0.348557
0.348557
0.348556
0.348555
0.348555
0.348554
0.348553
0.348552
0.348552
0.348551
0.34855
0.348548
0.348547
0.348546
0.348544
0.348542
0.348538
0.34853
0.348491
0.348275
0.386731
0.38696
0.387001
0.38701
0.387013
0.387015
0.387017
0.387018
0.387019
0.38702
0.387021
0.387022
0.387023
0.387024
0.387024
0.387025
0.387025
0.387026
0.387026
0.387027
0.387027
0.387028
0.387028
0.387028
0.387028
0.387029
0.387029
0.387029
0.387029
0.387029
0.387029
0.387029
0.387029
0.387029
0.387029
0.387028
0.387028
0.387028
0.387028
0.387027
0.387027
0.387026
0.387026
0.387025
0.387025
0.387024
0.387024
0.387023
0.387022
0.387021
0.38702
0.387019
0.387018
0.387017
0.387015
0.387013
0.38701
0.387001
0.38696
0.386731
0.423746
0.423988
0.424032
0.42404
0.424043
0.424045
0.424047
0.424048
0.424049
0.42405
0.424051
0.424051
0.424052
0.424053
0.424053
0.424054
0.424054
0.424055
0.424055
0.424056
0.424056
0.424056
0.424057
0.424057
0.424057
0.424057
0.424057
0.424058
0.424058
0.424058
0.424058
0.424058
0.424058
0.424057
0.424057
0.424057
0.424057
0.424057
0.424056
0.424056
0.424056
0.424055
0.424055
0.424054
0.424054
0.424053
0.424053
0.424052
0.424051
0.424051
0.42405
0.424049
0.424048
0.424047
0.424045
0.424043
0.42404
0.424032
0.423988
0.423746
0.459358
0.459611
0.459657
0.459666
0.459669
0.459671
0.459672
0.459673
0.459674
0.459675
0.459676
0.459677
0.459677
0.459678
0.459678
0.459679
0.459679
0.45968
0.45968
0.45968
0.459681
0.459681
0.459681
0.459681
0.459682
0.459682
0.459682
0.459682
0.459682
0.459682
0.459682
0.459682
0.459682
0.459682
0.459682
0.459682
0.459681
0.459681
0.459681
0.459681
0.45968
0.45968
0.45968
0.459679
0.459679
0.459678
0.459678
0.459677
0.459677
0.459676
0.459675
0.459674
0.459673
0.459672
0.459671
0.459669
0.459666
0.459657
0.459611
0.459358
0.493587
0.493849
0.493898
0.493908
0.49391
0.493912
0.493913
0.493914
0.493915
0.493916
0.493916
0.493917
0.493917
0.493918
0.493918
0.493919
0.493919
0.49392
0.49392
0.49392
0.49392
0.493921
0.493921
0.493921
0.493921
0.493921
0.493922
0.493922
0.493922
0.493922
0.493922
0.493922
0.493922
0.493922
0.493921
0.493921
0.493921
0.493921
0.493921
0.49392
0.49392
0.49392
0.49392
0.493919
0.493919
0.493918
0.493918
0.493917
0.493917
0.493916
0.493916
0.493915
0.493914
0.493913
0.493912
0.49391
0.493908
0.493898
0.493849
0.493587
0.526441
0.526711
0.526762
0.526772
0.526775
0.526776
0.526777
0.526778
0.526779
0.52678
0.52678
0.526781
0.526781
0.526782
0.526782
0.526782
0.526783
0.526783
0.526783
0.526784
0.526784
0.526784
0.526784
0.526785
0.526785
0.526785
0.526785
0.526785
0.526785
0.526785
0.526785
0.526785
0.526785
0.526785
0.526785
0.526785
0.526785
0.526784
0.526784
0.526784
0.526784
0.526783
0.526783
0.526783
0.526782
0.526782
0.526782
0.526781
0.526781
0.52678
0.52678
0.526779
0.526778
0.526777
0.526776
0.526775
0.526772
0.526762
0.526711
0.526441
0.557922
0.5582
0.558254
0.558264
0.558266
0.558268
0.558269
0.558269
0.55827
0.558271
0.558271
0.558272
0.558272
0.558272
0.558273
0.558273
0.558273
0.558274
0.558274
0.558274
0.558274
0.558275
0.558275
0.558275
0.558275
0.558275
0.558275
0.558275
0.558275
0.558275
0.558275
0.558275
0.558275
0.558275
0.558275
0.558275
0.558275
0.558275
0.558275
0.558274
0.558274
0.558274
0.558274
0.558273
0.558273
0.558273
0.558272
0.558272
0.558272
0.558271
0.558271
0.55827
0.558269
0.558269
0.558268
0.558266
0.558264
0.558254
0.5582
0.557922
0.588035
0.588318
0.588374
0.588385
0.588387
0.588388
0.588389
0.58839
0.58839
0.588391
0.588391
0.588392
0.588392
0.588393
0.588393
0.588393
0.588393
0.588394
0.588394
0.588394
0.588394
0.588395
0.588395
0.588395
0.588395
0.588395
0.588395
0.588395
0.588395
0.588395
0.588395
0.588395
0.588395
0.588395
0.588395
0.588395
0.588395
0.588395
0.588395
0.588394
0.588394
0.588394
0.588394
0.588393
0.588393
0.588393
0.588393
0.588392
0.588392
0.588391
0.588391
0.58839
0.58839
0.588389
0.588388
0.588387
0.588385
0.588374
0.588318
0.588035
0.616782
0.61707
0.617128
0.617139
0.617141
0.617142
0.617143
0.617144
0.617144
0.617145
0.617145
0.617145
0.617146
0.617146
0.617146
0.617147
0.617147
0.617147
0.617147
0.617148
0.617148
0.617148
0.617148
0.617148
0.617148
0.617148
0.617148
0.617148
0.617148
0.617148
0.617148
0.617148
0.617148
0.617148
0.617148
0.617148
0.617148
0.617148
0.617148
0.617148
0.617148
0.617147
0.617147
0.617147
0.617147
0.617146
0.617146
0.617146
0.617145
0.617145
0.617145
0.617144
0.617144
0.617143
0.617142
0.617141
0.617139
0.617128
0.61707
0.616782
0.64417
0.644462
0.644522
0.644533
0.644535
0.644536
0.644537
0.644537
0.644538
0.644538
0.644539
0.644539
0.644539
0.644539
0.64454
0.64454
0.64454
0.64454
0.644541
0.644541
0.644541
0.644541
0.644541
0.644541
0.644541
0.644541
0.644541
0.644542
0.644542
0.644542
0.644542
0.644542
0.644542
0.644541
0.644541
0.644541
0.644541
0.644541
0.644541
0.644541
0.644541
0.644541
0.64454
0.64454
0.64454
0.64454
0.644539
0.644539
0.644539
0.644539
0.644538
0.644538
0.644537
0.644537
0.644536
0.644535
0.644533
0.644522
0.644462
0.64417
0.67021
0.670503
0.670565
0.670576
0.670579
0.67058
0.67058
0.670581
0.670581
0.670582
0.670582
0.670582
0.670582
0.670583
0.670583
0.670583
0.670583
0.670583
0.670584
0.670584
0.670584
0.670584
0.670584
0.670584
0.670584
0.670584
0.670584
0.670584
0.670585
0.670585
0.670585
0.670585
0.670584
0.670584
0.670584
0.670584
0.670584
0.670584
0.670584
0.670584
0.670584
0.670584
0.670583
0.670583
0.670583
0.670583
0.670583
0.670582
0.670582
0.670582
0.670582
0.670581
0.670581
0.67058
0.67058
0.670579
0.670576
0.670565
0.670503
0.67021
0.694914
0.695208
0.695272
0.695283
0.695286
0.695287
0.695287
0.695288
0.695288
0.695288
0.695289
0.695289
0.695289
0.695289
0.69529
0.69529
0.69529
0.69529
0.69529
0.69529
0.695291
0.695291
0.695291
0.695291
0.695291
0.695291
0.695291
0.695291
0.695291
0.695291
0.695291
0.695291
0.695291
0.695291
0.695291
0.695291
0.695291
0.695291
0.695291
0.695291
0.69529
0.69529
0.69529
0.69529
0.69529
0.69529
0.695289
0.695289
0.695289
0.695289
0.695288
0.695288
0.695288
0.695287
0.695287
0.695286
0.695283
0.695272
0.695208
0.694914
0.718301
0.718595
0.718659
0.718672
0.718674
0.718675
0.718675
0.718676
0.718676
0.718676
0.718677
0.718677
0.718677
0.718677
0.718677
0.718678
0.718678
0.718678
0.718678
0.718678
0.718678
0.718678
0.718678
0.718679
0.718679
0.718679
0.718679
0.718679
0.718679
0.718679
0.718679
0.718679
0.718679
0.718679
0.718679
0.718679
0.718679
0.718678
0.718678
0.718678
0.718678
0.718678
0.718678
0.718678
0.718678
0.718677
0.718677
0.718677
0.718677
0.718677
0.718676
0.718676
0.718676
0.718675
0.718675
0.718674
0.718672
0.718659
0.718595
0.718301
0.740391
0.740684
0.74075
0.740762
0.740765
0.740766
0.740766
0.740767
0.740767
0.740767
0.740767
0.740767
0.740768
0.740768
0.740768
0.740768
0.740768
0.740768
0.740768
0.740769
0.740769
0.740769
0.740769
0.740769
0.740769
0.740769
0.740769
0.740769
0.740769
0.740769
0.740769
0.740769
0.740769
0.740769
0.740769
0.740769
0.740769
0.740769
0.740769
0.740769
0.740769
0.740768
0.740768
0.740768
0.740768
0.740768
0.740768
0.740768
0.740767
0.740767
0.740767
0.740767
0.740767
0.740766
0.740766
0.740765
0.740762
0.74075
0.740684
0.740391
0.761211
0.761501
0.761568
0.761581
0.761584
0.761584
0.761585
0.761585
0.761585
0.761586
0.761586
0.761586
0.761586
0.761586
0.761586
0.761587
0.761587
0.761587
0.761587
0.761587
0.761587
0.761587
0.761587
0.761587
0.761587
0.761587
0.761587
0.761587
0.761587
0.761587
0.761587
0.761587
0.761587
0.761587
0.761587
0.761587
0.761587
0.761587
0.761587
0.761587
0.761587
0.761587
0.761587
0.761587
0.761587
0.761586
0.761586
0.761586
0.761586
0.761586
0.761586
0.761585
0.761585
0.761585
0.761584
0.761584
0.761581
0.761568
0.761501
0.761211
0.780789
0.781075
0.781143
0.781156
0.781159
0.78116
0.78116
0.781161
0.781161
0.781161
0.781161
0.781161
0.781161
0.781162
0.781162
0.781162
0.781162
0.781162
0.781162
0.781162
0.781162
0.781162
0.781162
0.781162
0.781162
0.781162
0.781162
0.781162
0.781162
0.781162
0.781162
0.781162
0.781162
0.781162
0.781162
0.781162
0.781162
0.781162
0.781162
0.781162
0.781162
0.781162
0.781162
0.781162
0.781162
0.781162
0.781162
0.781161
0.781161
0.781161
0.781161
0.781161
0.781161
0.78116
0.78116
0.781159
0.781156
0.781143
0.781075
0.780789
0.799156
0.799439
0.799507
0.799521
0.799524
0.799524
0.799525
0.799525
0.799525
0.799525
0.799525
0.799526
0.799526
0.799526
0.799526
0.799526
0.799526
0.799526
0.799526
0.799526
0.799526
0.799526
0.799526
0.799526
0.799526
0.799527
0.799527
0.799527
0.799527
0.799527
0.799527
0.799527
0.799527
0.799527
0.799527
0.799526
0.799526
0.799526
0.799526
0.799526
0.799526
0.799526
0.799526
0.799526
0.799526
0.799526
0.799526
0.799526
0.799526
0.799525
0.799525
0.799525
0.799525
0.799525
0.799524
0.799524
0.799521
0.799507
0.799439
0.799156
0.81635
0.816627
0.816695
0.81671
0.816712
0.816713
0.816713
0.816714
0.816714
0.816714
0.816714
0.816714
0.816714
0.816714
0.816714
0.816714
0.816715
0.816715
0.816715
0.816715
0.816715
0.816715
0.816715
0.816715
0.816715
0.816715
0.816715
0.816715
0.816715
0.816715
0.816715
0.816715
0.816715
0.816715
0.816715
0.816715
0.816715
0.816715
0.816715
0.816715
0.816715
0.816715
0.816715
0.816715
0.816714
0.816714
0.816714
0.816714
0.816714
0.816714
0.816714
0.816714
0.816714
0.816713
0.816713
0.816712
0.81671
0.816695
0.816627
0.81635
0.832406
0.832677
0.832746
0.83276
0.832763
0.832764
0.832764
0.832764
0.832765
0.832765
0.832765
0.832765
0.832765
0.832765
0.832765
0.832765
0.832765
0.832765
0.832765
0.832765
0.832766
0.832766
0.832766
0.832766
0.832766
0.832766
0.832766
0.832766
0.832766
0.832766
0.832766
0.832766
0.832766
0.832766
0.832766
0.832766
0.832766
0.832766
0.832766
0.832766
0.832765
0.832765
0.832765
0.832765
0.832765
0.832765
0.832765
0.832765
0.832765
0.832765
0.832765
0.832765
0.832764
0.832764
0.832764
0.832763
0.83276
0.832746
0.832677
0.832406
0.847366
0.84763
0.847699
0.847714
0.847717
0.847718
0.847718
0.847718
0.847718
0.847718
0.847718
0.847718
0.847718
0.847719
0.847719
0.847719
0.847719
0.847719
0.847719
0.847719
0.847719
0.847719
0.847719
0.847719
0.847719
0.847719
0.847719
0.847719
0.847719
0.847719
0.847719
0.847719
0.847719
0.847719
0.847719
0.847719
0.847719
0.847719
0.847719
0.847719
0.847719
0.847719
0.847719
0.847719
0.847719
0.847719
0.847719
0.847718
0.847718
0.847718
0.847718
0.847718
0.847718
0.847718
0.847718
0.847717
0.847714
0.847699
0.84763
0.847366
0.861272
0.861529
0.861597
0.861612
0.861615
0.861616
0.861616
0.861616
0.861617
0.861617
0.861617
0.861617
0.861617
0.861617
0.861617
0.861617
0.861617
0.861617
0.861617
0.861617
0.861617
0.861617
0.861617
0.861617
0.861617
0.861617
0.861617
0.861617
0.861617
0.861617
0.861617
0.861617
0.861617
0.861617
0.861617
0.861617
0.861617
0.861617
0.861617
0.861617
0.861617
0.861617
0.861617
0.861617
0.861617
0.861617
0.861617
0.861617
0.861617
0.861617
0.861617
0.861617
0.861616
0.861616
0.861616
0.861615
0.861612
0.861597
0.861529
0.861272
0.874168
0.874417
0.874484
0.8745
0.874503
0.874504
0.874504
0.874504
0.874504
0.874504
0.874504
0.874504
0.874504
0.874504
0.874504
0.874504
0.874505
0.874505
0.874505
0.874505
0.874505
0.874505
0.874505
0.874505
0.874505
0.874505
0.874505
0.874505
0.874505
0.874505
0.874505
0.874505
0.874505
0.874505
0.874505
0.874505
0.874505
0.874505
0.874505
0.874505
0.874505
0.874505
0.874505
0.874505
0.874504
0.874504
0.874504
0.874504
0.874504
0.874504
0.874504
0.874504
0.874504
0.874504
0.874504
0.874503
0.8745
0.874484
0.874417
0.874168
0.886099
0.886339
0.886406
0.886422
0.886425
0.886425
0.886426
0.886426
0.886426
0.886426
0.886426
0.886426
0.886426
0.886426
0.886426
0.886426
0.886426
0.886426
0.886426
0.886426
0.886426
0.886426
0.886426
0.886426
0.886426
0.886426
0.886427
0.886427
0.886427
0.886427
0.886427
0.886427
0.886427
0.886427
0.886426
0.886426
0.886426
0.886426
0.886426
0.886426
0.886426
0.886426
0.886426
0.886426
0.886426
0.886426
0.886426
0.886426
0.886426
0.886426
0.886426
0.886426
0.886426
0.886426
0.886425
0.886425
0.886422
0.886406
0.886339
0.886099
0.897112
0.897342
0.897408
0.897424
0.897427
0.897428
0.897428
0.897428
0.897428
0.897428
0.897428
0.897428
0.897428
0.897428
0.897429
0.897429
0.897429
0.897429
0.897429
0.897429
0.897429
0.897429
0.897429
0.897429
0.897429
0.897429
0.897429
0.897429
0.897429
0.897429
0.897429
0.897429
0.897429
0.897429
0.897429
0.897429
0.897429
0.897429
0.897429
0.897429
0.897429
0.897429
0.897429
0.897429
0.897429
0.897429
0.897428
0.897428
0.897428
0.897428
0.897428
0.897428
0.897428
0.897428
0.897428
0.897427
0.897424
0.897408
0.897342
0.897112
0.907252
0.907473
0.907538
0.907553
0.907557
0.907557
0.907558
0.907558
0.907558
0.907558
0.907558
0.907558
0.907558
0.907558
0.907558
0.907558
0.907558
0.907558
0.907558
0.907558
0.907558
0.907558
0.907558
0.907558
0.907558
0.907558
0.907558
0.907558
0.907558
0.907558
0.907558
0.907558
0.907558
0.907558
0.907558
0.907558
0.907558
0.907558
0.907558
0.907558
0.907558
0.907558
0.907558
0.907558
0.907558
0.907558
0.907558
0.907558
0.907558
0.907558
0.907558
0.907558
0.907558
0.907558
0.907557
0.907557
0.907553
0.907538
0.907473
0.907252
0.916566
0.916778
0.916841
0.916857
0.916861
0.916861
0.916862
0.916862
0.916862
0.916862
0.916862
0.916862
0.916862
0.916862
0.916862
0.916862
0.916862
0.916862
0.916862
0.916862
0.916862
0.916862
0.916862
0.916862
0.916862
0.916862
0.916862
0.916862
0.916862
0.916862
0.916862
0.916862
0.916862
0.916862
0.916862
0.916862
0.916862
0.916862
0.916862
0.916862
0.916862
0.916862
0.916862
0.916862
0.916862
0.916862
0.916862
0.916862
0.916862
0.916862
0.916862
0.916862
0.916862
0.916862
0.916861
0.916861
0.916857
0.916841
0.916778
0.916566
0.925103
0.925304
0.925366
0.925382
0.925386
0.925386
0.925387
0.925387
0.925387
0.925387
0.925387
0.925387
0.925387
0.925387
0.925387
0.925387
0.925387
0.925387
0.925387
0.925387
0.925387
0.925387
0.925387
0.925387
0.925387
0.925387
0.925387
0.925387
0.925387
0.925387
0.925387
0.925387
0.925387
0.925387
0.925387
0.925387
0.925387
0.925387
0.925387
0.925387
0.925387
0.925387
0.925387
0.925387
0.925387
0.925387
0.925387
0.925387
0.925387
0.925387
0.925387
0.925387
0.925387
0.925387
0.925386
0.925386
0.925382
0.925366
0.925304
0.925103
0.932907
0.933098
0.933159
0.933175
0.933178
0.933179
0.933179
0.933179
0.933179
0.933179
0.933179
0.933179
0.93318
0.93318
0.93318
0.93318
0.93318
0.93318
0.93318
0.93318
0.93318
0.93318
0.93318
0.93318
0.93318
0.93318
0.93318
0.93318
0.93318
0.93318
0.93318
0.93318
0.93318
0.93318
0.93318
0.93318
0.93318
0.93318
0.93318
0.93318
0.93318
0.93318
0.93318
0.93318
0.93318
0.93318
0.93318
0.93318
0.933179
0.933179
0.933179
0.933179
0.933179
0.933179
0.933179
0.933178
0.933175
0.933159
0.933098
0.932907
0.940025
0.940206
0.940265
0.940281
0.940284
0.940285
0.940285
0.940285
0.940286
0.940286
0.940286
0.940286
0.940286
0.940286
0.940286
0.940286
0.940286
0.940286
0.940286
0.940286
0.940286
0.940286
0.940286
0.940286
0.940286
0.940286
0.940286
0.940286
0.940286
0.940286
0.940286
0.940286
0.940286
0.940286
0.940286
0.940286
0.940286
0.940286
0.940286
0.940286
0.940286
0.940286
0.940286
0.940286
0.940286
0.940286
0.940286
0.940286
0.940286
0.940286
0.940286
0.940286
0.940285
0.940285
0.940285
0.940284
0.940281
0.940265
0.940206
0.940025
0.946502
0.946673
0.946729
0.946745
0.946749
0.94675
0.94675
0.94675
0.94675
0.94675
0.94675
0.94675
0.94675
0.94675
0.94675
0.94675
0.94675
0.94675
0.94675
0.94675
0.94675
0.94675
0.94675
0.94675
0.94675
0.94675
0.94675
0.94675
0.94675
0.94675
0.94675
0.94675
0.94675
0.94675
0.94675
0.94675
0.94675
0.94675
0.94675
0.94675
0.94675
0.94675
0.94675
0.94675
0.94675
0.94675
0.94675
0.94675
0.94675
0.94675
0.94675
0.94675
0.94675
0.94675
0.94675
0.946749
0.946745
0.946729
0.946673
0.946502
0.952381
0.952541
0.952596
0.952612
0.952615
0.952616
0.952617
0.952617
0.952617
0.952617
0.952617
0.952617
0.952617
0.952617
0.952617
0.952617
0.952617
0.952617
0.952617
0.952617
0.952617
0.952617
0.952617
0.952617
0.952617
0.952617
0.952617
0.952617
0.952617
0.952617
0.952617
0.952617
0.952617
0.952617
0.952617
0.952617
0.952617
0.952617
0.952617
0.952617
0.952617
0.952617
0.952617
0.952617
0.952617
0.952617
0.952617
0.952617
0.952617
0.952617
0.952617
0.952617
0.952617
0.952617
0.952616
0.952615
0.952612
0.952596
0.952541
0.952381
0.957704
0.957855
0.957908
0.957923
0.957927
0.957928
0.957928
0.957928
0.957928
0.957928
0.957928
0.957928
0.957928
0.957928
0.957928
0.957928
0.957928
0.957928
0.957928
0.957928
0.957928
0.957928
0.957928
0.957928
0.957928
0.957928
0.957928
0.957928
0.957928
0.957928
0.957928
0.957928
0.957928
0.957928
0.957928
0.957928
0.957928
0.957928
0.957928
0.957928
0.957928
0.957928
0.957928
0.957928
0.957928
0.957928
0.957928
0.957928
0.957928
0.957928
0.957928
0.957928
0.957928
0.957928
0.957928
0.957927
0.957923
0.957908
0.957855
0.957704
0.962513
0.962654
0.962705
0.96272
0.962723
0.962724
0.962725
0.962725
0.962725
0.962725
0.962725
0.962725
0.962725
0.962725
0.962725
0.962725
0.962725
0.962725
0.962725
0.962725
0.962725
0.962725
0.962725
0.962725
0.962725
0.962725
0.962725
0.962725
0.962725
0.962725
0.962725
0.962725
0.962725
0.962725
0.962725
0.962725
0.962725
0.962725
0.962725
0.962725
0.962725
0.962725
0.962725
0.962725
0.962725
0.962725
0.962725
0.962725
0.962725
0.962725
0.962725
0.962725
0.962725
0.962725
0.962724
0.962723
0.96272
0.962705
0.962654
0.962513
0.966847
0.966978
0.967027
0.967041
0.967045
0.967046
0.967046
0.967046
0.967047
0.967047
0.967047
0.967047
0.967047
0.967047
0.967047
0.967047
0.967047
0.967047
0.967047
0.967047
0.967047
0.967047
0.967047
0.967047
0.967047
0.967047
0.967047
0.967047
0.967047
0.967047
0.967047
0.967047
0.967047
0.967047
0.967047
0.967047
0.967047
0.967047
0.967047
0.967047
0.967047
0.967047
0.967047
0.967047
0.967047
0.967047
0.967047
0.967047
0.967047
0.967047
0.967047
0.967047
0.967046
0.967046
0.967046
0.967045
0.967041
0.967027
0.966978
0.966847
0.970743
0.970865
0.970911
0.970926
0.97093
0.970931
0.970931
0.970931
0.970931
0.970931
0.970931
0.970931
0.970931
0.970931
0.970931
0.970931
0.970931
0.970931
0.970931
0.970931
0.970931
0.970931
0.970931
0.970931
0.970931
0.970931
0.970931
0.970931
0.970931
0.970931
0.970931
0.970931
0.970931
0.970931
0.970931
0.970931
0.970931
0.970931
0.970931
0.970931
0.970931
0.970931
0.970931
0.970931
0.970931
0.970931
0.970931
0.970931
0.970931
0.970931
0.970931
0.970931
0.970931
0.970931
0.970931
0.97093
0.970926
0.970911
0.970865
0.970743
0.974238
0.974351
0.974394
0.974408
0.974412
0.974413
0.974414
0.974414
0.974414
0.974414
0.974414
0.974414
0.974414
0.974414
0.974414
0.974414
0.974414
0.974414
0.974414
0.974414
0.974414
0.974414
0.974414
0.974414
0.974414
0.974414
0.974414
0.974414
0.974414
0.974414
0.974414
0.974414
0.974414
0.974414
0.974414
0.974414
0.974414
0.974414
0.974414
0.974414
0.974414
0.974414
0.974414
0.974414
0.974414
0.974414
0.974414
0.974414
0.974414
0.974414
0.974414
0.974414
0.974414
0.974414
0.974413
0.974412
0.974408
0.974394
0.974351
0.974238
0.977364
0.977469
0.97751
0.977524
0.977527
0.977528
0.977529
0.977529
0.977529
0.977529
0.977529
0.977529
0.977529
0.977529
0.977529
0.977529
0.977529
0.977529
0.977529
0.977529
0.977529
0.977529
0.977529
0.977529
0.977529
0.977529
0.977529
0.977529
0.977529
0.977529
0.977529
0.977529
0.977529
0.977529
0.977529
0.977529
0.977529
0.977529
0.977529
0.977529
0.977529
0.977529
0.977529
0.977529
0.977529
0.977529
0.977529
0.977529
0.977529
0.977529
0.977529
0.977529
0.977529
0.977529
0.977528
0.977527
0.977524
0.97751
0.977469
0.977364
0.980155
0.980251
0.98029
0.980303
0.980307
0.980308
0.980308
0.980308
0.980308
0.980308
0.980308
0.980308
0.980308
0.980308
0.980308
0.980308
0.980308
0.980308
0.980308
0.980308
0.980308
0.980308
0.980308
0.980308
0.980308
0.980308
0.980308
0.980308
0.980308
0.980308
0.980308
0.980308
0.980308
0.980308
0.980308
0.980308
0.980308
0.980308
0.980308
0.980308
0.980308
0.980308
0.980308
0.980308
0.980308
0.980308
0.980308
0.980308
0.980308
0.980308
0.980308
0.980308
0.980308
0.980308
0.980308
0.980307
0.980303
0.98029
0.980251
0.980155
0.98264
0.982728
0.982765
0.982777
0.982781
0.982782
0.982783
0.982783
0.982783
0.982783
0.982783
0.982783
0.982783
0.982783
0.982783
0.982783
0.982783
0.982783
0.982783
0.982783
0.982783
0.982783
0.982783
0.982783
0.982783
0.982783
0.982783
0.982783
0.982783
0.982783
0.982783
0.982783
0.982783
0.982783
0.982783
0.982783
0.982783
0.982783
0.982783
0.982783
0.982783
0.982783
0.982783
0.982783
0.982783
0.982783
0.982783
0.982783
0.982783
0.982783
0.982783
0.982783
0.982783
0.982783
0.982782
0.982781
0.982777
0.982765
0.982728
0.98264
0.984847
0.984928
0.984962
0.984974
0.984978
0.984979
0.98498
0.98498
0.98498
0.98498
0.98498
0.98498
0.98498
0.98498
0.98498
0.98498
0.98498
0.98498
0.98498
0.98498
0.98498
0.98498
0.98498
0.98498
0.98498
0.98498
0.98498
0.98498
0.98498
0.98498
0.98498
0.98498
0.98498
0.98498
0.98498
0.98498
0.98498
0.98498
0.98498
0.98498
0.98498
0.98498
0.98498
0.98498
0.98498
0.98498
0.98498
0.98498
0.98498
0.98498
0.98498
0.98498
0.98498
0.98498
0.984979
0.984978
0.984974
0.984962
0.984928
0.984847
0.986803
0.986877
0.986909
0.986921
0.986924
0.986925
0.986926
0.986926
0.986926
0.986926
0.986926
0.986926
0.986926
0.986926
0.986926
0.986926
0.986926
0.986926
0.986926
0.986926
0.986926
0.986926
0.986926
0.986926
0.986926
0.986926
0.986926
0.986926
0.986926
0.986926
0.986926
0.986926
0.986926
0.986926
0.986926
0.986926
0.986926
0.986926
0.986926
0.986926
0.986926
0.986926
0.986926
0.986926
0.986926
0.986926
0.986926
0.986926
0.986926
0.986926
0.986926
0.986926
0.986926
0.986926
0.986925
0.986924
0.986921
0.986909
0.986877
0.986803
0.988533
0.9886
0.988629
0.98864
0.988644
0.988645
0.988645
0.988645
0.988645
0.988645
0.988645
0.988645
0.988645
0.988645
0.988645
0.988645
0.988645
0.988645