/*--------------------------------*- C++ -*----------------------------------*\
| =========                 |                                                 |
| \\      /  F ield         | foam-extend: Open Source CFD                    |
|  \\    /   O peration     | Version:     4.0                                |
|   \\  /    A nd           | Web:         http://www.foam-extend.org         |
|    \\/     M anipulation  |                                                 |
\*---------------------------------------------------------------------------*/
FoamFile
{
    version     2.0;
    format      ascii;
    class       volScalarField;
    location    "27";
    object      dPhi;
}
// * * * * * * * * * * * * * * * * * * * * * * * * * * * * * * * * * * * * * //

dimensions      [0 -1 0 0 0 0 0];

internalField   nonuniform List<scalar> 
6960
(
-2.54362e-15
7.34072e-16
-4.26687e-16
-2.92052e-16
2.03758e-15
3.41343e-16
-4.79944e-17
-5.34274e-15
4.49863e-16
-8.74384e-16
-2.20689e-15
2.67247e-15
-8.90077e-16
1.31757e-15
-3.13758e-15
-4.88628e-16
-1.39316e-15
3.9198e-15
2.12734e-15
-5.52968e-16
7.64653e-16
3.06691e-16
-1.48259e-15
2.82517e-16
7.1658e-16
1.15197e-15
1.14526e-15
-1.9686e-15
-6.40033e-16
1.13475e-15
-6.41046e-16
-1.08525e-15
-6.35766e-16
2.47809e-15
1.15084e-15
-3.27966e-15
1.61535e-15
2.95717e-15
3.07253e-16
3.87384e-15
2.11043e-15
7.95638e-16
1.25582e-15
3.82067e-16
-4.39764e-17
-9.16574e-16
4.2826e-16
-8.89514e-16
-1.32377e-15
-4.31668e-16
-4.2973e-16
-4.3775e-16
-1.47957e-17
-3.15605e-15
-1.02179e-16
1.59236e-15
-4.28829e-15
1.79439e-15
2.88744e-16
1.2154e-16
8.74663e-16
1.33419e-15
-1.72214e-15
2.86205e-15
-2.31358e-15
-9.47944e-16
-1.578e-15
3.47543e-15
-2.41902e-15
7.37449e-16
-2.69569e-15
-3.93526e-15
-4.21916e-16
-6.98469e-16
-5.39489e-16
-1.7199e-15
-1.35036e-15
-8.69868e-16
-1.83298e-15
-5.74421e-16
-3.53016e-15
-1.81937e-15
1.33922e-15
-4.90846e-16
2.38546e-16
-4.35464e-15
-4.72001e-15
3.80368e-15
-2.09801e-15
-2.18395e-16
2.55922e-15
7.30334e-18
-1.96743e-15
2.60951e-15
-1.36116e-15
-9.80654e-16
-1.15494e-15
-1.66251e-15
-1.51992e-16
3.57665e-16
5.31676e-16
8.336e-16
-5.41974e-15
-4.66302e-16
-1.05172e-15
-3.154e-16
-9.24635e-16
2.9108e-15
2.50608e-15
-2.57316e-16
-1.2589e-15
-2.63901e-15
2.25008e-15
3.30905e-15
-1.61201e-15
-6.52341e-16
-2.79802e-15
7.22636e-16
-1.33485e-15
-1.12145e-15
-3.94096e-15
-4.03865e-15
-1.08905e-15
-1.00734e-15
-1.74995e-15
6.00728e-16
3.63013e-15
-5.43217e-16
3.30608e-15
-3.47793e-15
-1.8627e-15
1.0342e-15
-1.31441e-15
4.39678e-16
2.65612e-15
5.6864e-16
-4.31302e-15
4.01321e-15
2.0675e-15
-2.63021e-16
6.69177e-15
-3.27098e-15
-3.38013e-16
3.5649e-15
-4.11108e-15
2.78201e-15
-1.33873e-15
3.06203e-15
-2.44437e-15
-2.69675e-15
1.86114e-15
-2.12327e-15
5.45497e-15
-4.16385e-15
-2.27584e-16
-2.55082e-15
-2.03923e-16
3.31372e-15
-8.78068e-16
4.69929e-15
4.46612e-16
5.62614e-15
3.40851e-15
-3.82543e-15
-2.03445e-15
-6.27524e-15
1.20484e-15
-5.08322e-15
7.07091e-16
3.78747e-15
8.07587e-17
6.69825e-15
3.49716e-15
-4.74604e-15
3.04924e-15
3.90029e-15
5.60453e-15
1.97071e-15
-3.49662e-15
1.11721e-15
4.25168e-15
2.83713e-15
4.10767e-15
1.77129e-15
-2.93395e-15
-5.63361e-15
-1.33118e-15
8.8579e-15
2.02767e-15
7.01503e-15
2.0207e-15
1.03535e-15
4.3634e-15
3.58856e-15
1.06376e-15
6.20225e-15
2.88921e-15
-4.27544e-15
-2.1809e-15
1.83974e-15
-5.0849e-15
7.54821e-15
3.9519e-16
-1.3975e-15
-7.46769e-15
-1.32064e-15
5.79509e-16
4.63305e-15
1.02277e-16
1.10422e-14
-7.31577e-15
1.26323e-15
-5.68809e-16
-2.56847e-15
1.14476e-15
-1.51188e-15
2.75418e-15
-1.02956e-14
-6.59106e-15
4.31255e-15
3.44463e-15
4.16434e-16
-9.56461e-16
5.35454e-15
-7.46516e-15
2.71743e-15
-2.68907e-15
-1.42137e-15
-7.60822e-15
-5.08952e-15
2.03393e-16
-3.98551e-16
-2.08247e-15
2.98729e-15
1.9323e-15
-7.76798e-15
-6.31687e-15
-8.80831e-15
-6.16341e-15
-2.3915e-15
-6.16578e-15
-3.44562e-15
-7.25428e-15
-5.64744e-15
6.17506e-15
4.41974e-15
8.53783e-15
-1.64495e-14
-1.16628e-16
6.25695e-16
-9.96007e-15
-7.63492e-16
-2.17896e-15
-2.18647e-15
1.51541e-16
-1.04341e-15
6.27969e-15
5.11788e-15
-5.23276e-15
-6.40671e-15
2.18827e-15
-3.47384e-15
1.49384e-15
4.48892e-15
5.72251e-15
-9.82213e-15
2.88908e-16
-5.16007e-15
9.24564e-15
-1.51751e-15
6.90796e-15
5.55063e-15
-1.33742e-14
-8.19905e-16
1.4984e-15
2.2127e-15
-8.69377e-15
8.41494e-15
9.97487e-15
-2.69561e-15
-5.24497e-15
-1.80386e-15
-8.20723e-16
3.90263e-15
9.24118e-15
-2.52566e-15
2.10573e-16
1.55551e-15
7.34257e-15
2.91497e-15
9.95321e-15
-6.33211e-15
-5.23944e-15
-1.89271e-16
-1.43131e-14
1.74525e-15
3.73634e-15
6.43604e-15
-7.41199e-15
-1.52367e-15
-3.0308e-15
1.67402e-15
5.04604e-15
5.97874e-16
-1.64123e-15
4.50617e-15
-1.51184e-15
-3.60239e-15
-5.72839e-16
4.14314e-15
5.88331e-15
-7.40617e-15
8.95987e-15
-9.68251e-15
2.17465e-15
4.64183e-15
-8.74613e-15
-2.8909e-15
-2.54528e-15
-2.29155e-15
9.52833e-15
-5.88499e-15
1.21544e-15
-2.81958e-15
3.03828e-15
-1.76046e-15
-2.45857e-15
4.78309e-15
-7.72292e-15
-8.10394e-16
-1.02292e-14
-1.66735e-15
1.23224e-14
9.1883e-15
1.09141e-14
-5.32705e-15
6.9393e-15
-8.45381e-15
-1.79145e-14
3.85312e-16
2.16654e-15
5.74214e-15
6.08711e-16
-8.46515e-15
-1.07877e-14
1.22805e-14
4.66068e-16
-3.81835e-15
-7.81901e-15
4.94436e-15
-6.46921e-15
1.47174e-15
5.56284e-15
-6.73789e-16
2.9299e-15
-1.00579e-14
1.39826e-14
-2.01099e-14
-2.32402e-15
-4.67744e-15
1.00877e-14
9.78539e-15
-1.20587e-14
-1.72871e-14
2.5284e-15
-9.58298e-17
3.93472e-15
1.07393e-14
4.27925e-15
-1.24908e-14
-4.92243e-15
3.55998e-15
1.29901e-15
1.43824e-14
3.83701e-15
-1.31957e-15
-1.07182e-14
4.73747e-15
8.04058e-15
1.28018e-14
-2.75792e-15
-6.62607e-15
-2.91666e-15
-3.09816e-15
2.72593e-15
-2.39318e-15
8.37258e-15
-1.91618e-15
-5.33295e-16
-5.64834e-15
-6.70045e-15
-1.47033e-15
-9.2496e-15
5.70825e-15
-1.37409e-14
2.91905e-15
-6.64567e-15
1.70731e-15
1.49166e-14
1.34624e-14
-1.42857e-14
-2.45403e-15
2.67372e-15
-2.21588e-15
1.41727e-14
-1.68288e-14
7.6693e-15
-8.6101e-15
7.91837e-16
-2.25617e-14
-5.12607e-15
1.81273e-15
1.49962e-15
5.90474e-15
-3.67565e-15
1.21177e-14
-1.35719e-14
1.17971e-14
1.05379e-14
4.86372e-15
-3.13266e-15
-7.18225e-15
1.08583e-14
1.09702e-15
-2.76945e-14
-6.83313e-15
6.43663e-15
-5.24081e-15
-9.78731e-15
2.75247e-15
2.08308e-14
-1.44581e-14
-2.76479e-15
-1.22058e-14
7.03255e-15
1.87142e-17
9.92742e-15
9.68272e-15
-1.32168e-14
-1.26466e-14
-1.0531e-14
1.01057e-14
8.29214e-15
3.31787e-15
9.71233e-15
1.2195e-14
1.12934e-14
8.93332e-15
-1.09648e-14
-4.466e-15
1.80177e-14
-8.72609e-15
3.87161e-15
4.98028e-15
1.33442e-14
5.01877e-15
8.1358e-15
-1.23103e-14
-5.99273e-15
-6.11188e-15
4.88482e-15
1.90476e-14
-1.35707e-14
-8.60862e-15
-2.62374e-14
2.8327e-16
-1.81084e-14
-1.40964e-14
7.12408e-15
2.26868e-14
2.64295e-14
1.53366e-14
4.00032e-17
6.03331e-15
-1.76472e-15
-1.92866e-14
1.22369e-14
1.35281e-14
9.10297e-15
6.02812e-15
8.87834e-15
-7.1015e-15
-3.04611e-15
1.00023e-14
1.66475e-14
-7.28394e-15
-2.13443e-15
1.76547e-15
1.63747e-15
2.06543e-14
-6.64112e-15
1.15808e-15
3.97763e-15
1.32614e-15
-2.62165e-15
-6.50728e-15
-2.33445e-14
1.10298e-15
2.32412e-15
4.37438e-15
1.39526e-14
-1.03691e-14
-1.22117e-14
-1.82448e-14
-1.03866e-14
-6.0759e-15
-7.82141e-15
-1.74285e-14
2.46498e-15
6.69986e-15
4.96449e-15
5.05661e-15
-7.75732e-15
-8.59345e-15
8.54049e-15
6.89767e-15
-4.85158e-15
1.90285e-14
6.40261e-15
1.48875e-14
1.20432e-14
1.16534e-14
8.01847e-15
1.18607e-14
6.57571e-15
4.81787e-15
1.41608e-14
7.21115e-15
-1.10882e-14
-3.48337e-15
-3.07363e-14
-9.71854e-15
-4.75865e-15
-1.03304e-14
1.29396e-14
2.83036e-15
9.20773e-15
-2.02623e-14
-2.45761e-14
-1.18533e-14
1.19572e-14
4.67433e-15
-3.10717e-15
-1.18861e-14
-7.28533e-15
7.05609e-15
-1.14485e-14
-4.05461e-16
2.24928e-15
-2.47743e-14
1.54844e-15
-1.11816e-14
-5.103e-16
-9.90915e-15
2.51537e-15
1.9473e-15
3.66622e-15
-1.07804e-14
-1.00031e-14
1.12043e-14
-9.39673e-15
4.29749e-15
2.58908e-14
1.67547e-15
-1.04203e-14
-2.60591e-14
1.04894e-14
1.08089e-15
-2.12443e-14
8.43106e-15
9.21885e-15
6.89234e-15
4.48898e-15
1.6735e-14
-5.0909e-15
-1.3316e-14
-2.06646e-14
-1.54015e-14
-1.35552e-14
5.45364e-15
-5.32291e-15
-7.35616e-15
-2.82939e-15
-1.82509e-14
1.89638e-14
1.47724e-15
1.62197e-14
8.56517e-15
1.60555e-14
1.31055e-15
1.93249e-14
-5.82701e-15
4.81043e-15
3.27746e-15
-1.19063e-14
-2.95237e-15
7.39036e-15
3.79549e-15
-8.35894e-16
-8.90934e-15
1.92199e-14
6.07293e-15
-6.27782e-15
2.12897e-14
9.71555e-15
5.90527e-15
1.14543e-14
6.86885e-15
1.49971e-14
1.51235e-14
1.52745e-16
-8.83948e-15
-1.55657e-14
6.56762e-15
-2.86933e-15
1.15841e-14
1.20212e-14
3.44539e-14
1.49885e-14
1.73434e-14
1.07887e-14
-1.11029e-14
-4.28441e-15
-1.05864e-14
2.02786e-14
8.52334e-16
-2.67699e-15
1.86262e-14
1.53859e-14
-1.46248e-14
6.27978e-15
1.10355e-14
6.38535e-15
-2.03372e-14
-7.62459e-15
1.13484e-14
1.09688e-14
2.09363e-14
1.05098e-14
2.544e-15
-1.13702e-14
1.26277e-14
-5.85467e-15
1.59459e-14
6.09021e-15
2.18074e-14
-1.30021e-14
-8.19292e-15
-2.26446e-14
-1.84834e-15
-1.20611e-14
8.0175e-15
8.94142e-15
7.59581e-15
-1.57068e-15
-3.3295e-15
1.23e-14
-1.53328e-14
-1.09862e-15
1.29945e-14
-2.26016e-14
1.24578e-14
9.58755e-15
-3.09315e-14
-1.66524e-14
2.6467e-14
4.61612e-15
-1.48291e-14
-1.50211e-14
1.22068e-14
-1.33306e-14
1.0692e-14
-7.10917e-15
-7.92467e-16
2.62616e-14
-1.53653e-14
-2.42092e-14
-6.07158e-16
-4.12019e-15
-1.20623e-14
-1.5695e-15
6.26152e-15
-7.02476e-16
1.34384e-14
-1.01134e-14
1.04986e-14
-6.57616e-15
-1.09738e-14
-5.36091e-15
-4.22166e-15
1.20748e-14
2.64868e-15
1.23002e-14
-1.04341e-14
1.79432e-14
3.50122e-16
1.24591e-14
-1.31933e-14
-2.10215e-15
6.10998e-16
-1.63334e-14
-7.57373e-15
1.91666e-14
7.64981e-16
-9.48839e-15
-1.78247e-14
9.47488e-15
5.1982e-15
1.97995e-14
1.26525e-14
8.13806e-15
8.12553e-15
-5.75549e-15
2.06875e-14
4.71091e-15
-7.49916e-15
-1.03132e-14
-3.50075e-15
1.2056e-14
-5.78343e-15
6.01797e-15
5.90676e-15
1.05359e-14
3.24835e-14
1.21135e-14
-3.65486e-14
-1.86576e-14
2.69841e-15
8.69671e-15
-2.77434e-14
2.84556e-14
9.27221e-15
2.3819e-14
-2.06336e-14
-2.74107e-14
1.28603e-14
2.61152e-14
-2.85597e-14
-8.70796e-15
4.13235e-15
-1.65778e-15
2.34261e-14
8.73487e-16
1.41257e-14
-2.61537e-15
7.58541e-15
2.62441e-15
-4.60391e-16
-7.6386e-15
-1.48683e-14
-3.42906e-15
-7.52038e-15
-8.76443e-15
1.66321e-14
-2.25696e-14
1.23264e-14
-1.72041e-14
-8.33005e-15
-3.23454e-14
-8.85818e-15
1.1995e-14
-9.36426e-15
-2.15984e-14
-1.14682e-14
1.63433e-14
-7.09347e-15
-2.35682e-16
-6.65152e-15
-8.99682e-15
-1.47753e-14
-1.01162e-14
5.97827e-16
2.37747e-14
-7.93694e-15
2.65823e-14
1.22172e-14
2.58715e-14
2.60618e-14
-1.93411e-14
-6.29496e-16
7.26474e-15
-8.87236e-15
-1.83069e-15
1.80836e-14
-1.19354e-14
2.29959e-14
-1.54342e-14
1.56071e-14
3.24619e-15
1.92227e-14
-7.34006e-15
-2.10537e-14
-1.49834e-14
9.64873e-15
3.97819e-14
-5.53232e-15
-2.4238e-14
3.7079e-15
5.50714e-15
2.20557e-15
-1.39948e-14
-5.53232e-14
2.02338e-15
-8.79741e-15
1.63215e-14
3.61996e-15
-9.99691e-15
1.10102e-14
-1.03883e-15
5.09405e-14
7.84418e-15
1.20734e-14
2.62407e-14
-4.17907e-15
1.01428e-14
-4.98684e-14
5.16975e-15
1.96709e-14
3.17458e-14
2.86848e-15
6.08137e-15
-2.34342e-14
1.63833e-14
2.11297e-14
-1.44646e-14
2.49941e-14
9.52331e-15
1.02168e-14
1.19229e-14
-7.68395e-15
1.07178e-15
6.93584e-16
-8.40189e-15
1.26839e-14
-2.62248e-14
1.15091e-14
8.29515e-15
-1.00864e-14
1.96571e-14
-2.89495e-14
6.42201e-15
-1.64631e-14
8.08891e-15
-2.75064e-14
1.40631e-14
-1.1187e-14
1.58576e-14
-5.37183e-15
-1.90652e-14
-1.19184e-15
-4.7703e-15
2.43069e-14
9.20469e-15
-6.82207e-16
-2.98185e-14
2.14499e-14
1.7328e-14
9.68798e-15
2.34909e-14
-1.10139e-14
1.68861e-14
3.13077e-15
1.51252e-14
-4.34265e-15
-9.4766e-16
-3.86587e-14
3.82337e-15
3.21889e-15
1.59686e-14
-4.05341e-14
-1.55211e-14
-3.0818e-14
-2.15149e-14
-3.20175e-14
-9.82091e-15
4.25602e-14
9.39003e-15
-2.56008e-14
-3.72742e-14
1.02368e-14
-9.34093e-15
2.59147e-14
-3.64997e-16
-3.1108e-14
-1.48106e-15
-5.87758e-15
-1.13409e-14
-7.13194e-15
-1.7259e-14
2.41453e-14
2.3332e-15
9.40419e-15
7.25441e-15
-1.69373e-14
4.19041e-15
-1.71836e-14
1.19987e-14
4.64442e-15
-1.21521e-14
3.56488e-15
2.40459e-14
1.93763e-14
-4.80112e-15
1.34683e-14
9.92595e-15
9.03181e-15
-1.08547e-14
8.69682e-15
3.17751e-14
2.05641e-15
3.90931e-15
-1.06335e-14
7.17612e-15
-3.52574e-14
2.5401e-14
-2.23066e-14
-1.98176e-14
-1.27348e-15
8.76941e-15
-7.98485e-15
2.14288e-14
2.4802e-14
7.99038e-15
6.95624e-16
-1.16196e-14
3.6592e-14
-2.05164e-15
-1.45973e-14
-1.21688e-14
1.90619e-14
1.32984e-14
1.65551e-14
1.71159e-14
3.77505e-14
8.95535e-15
-1.03964e-14
7.26334e-16
1.01765e-14
1.57565e-14
1.00945e-14
2.43885e-14
-2.81549e-14
-9.75587e-15
4.3103e-15
-6.20012e-15
1.98276e-14
1.72996e-14
-1.0531e-14
2.34873e-14
-1.94837e-14
-3.54491e-15
-6.98226e-17
1.22809e-14
2.02487e-14
1.19268e-14
-5.09163e-15
8.00556e-15
-1.41529e-14
-1.65838e-14
2.25738e-14
-1.80937e-14
6.01244e-15
-1.12117e-14
-1.16453e-14
-2.73295e-15
-1.48674e-14
8.20286e-15
-4.15802e-15
-4.23005e-14
1.60706e-14
-7.58378e-15
-4.94646e-15
-3.13887e-15
9.97119e-15
-1.15808e-14
9.39548e-15
9.6044e-15
4.80215e-15
-6.98237e-15
-6.30442e-15
-1.85095e-14
-3.12094e-14
-3.10516e-15
-1.31858e-14
1.46934e-14
-2.08143e-14
1.19939e-14
2.4345e-14
-1.51972e-14
-2.02019e-14
1.63203e-14
2.89157e-15
8.5099e-16
-1.47612e-14
-2.50505e-14
-1.35454e-14
8.79451e-15
-4.71357e-15
1.04347e-14
-2.66606e-14
-2.18684e-14
8.02451e-15
1.01961e-14
4.46182e-15
-3.16351e-14
-1.68734e-15
-3.68088e-14
1.40661e-14
-3.95413e-14
3.96318e-14
1.67154e-14
-1.06236e-14
-1.17312e-14
-1.46019e-14
-3.46045e-15
-9.49924e-15
-4.66957e-14
3.14874e-15
1.76144e-14
-6.64475e-15
2.28522e-14
6.12986e-15
-1.73798e-15
1.97245e-14
-1.67971e-14
1.70439e-14
9.35146e-15
3.80924e-15
1.98875e-14
-1.69697e-14
-1.33535e-14
-2.02898e-15
1.77649e-14
-4.95177e-15
-3.87494e-16
-2.7017e-14
1.06022e-14
9.04593e-15
2.80346e-14
-1.87725e-14
3.43954e-14
1.41315e-14
-2.36252e-14
-4.63128e-15
-2.37421e-14
-4.53825e-15
9.26928e-15
-2.0151e-14
-1.52612e-15
2.35823e-14
-2.28778e-14
-2.2196e-14
-2.40194e-15
1.93498e-14
2.59068e-14
1.82753e-14
-2.8328e-15
2.97349e-14
-1.92147e-14
1.00881e-14
-1.64127e-15
-6.25606e-15
-3.92741e-15
9.09342e-15
-1.30733e-14
-3.86518e-15
1.839e-14
-1.05369e-14
2.94842e-14
6.63532e-15
-7.60871e-15
4.08376e-15
-8.59621e-15
-1.68979e-14
6.2244e-15
-2.80223e-15
3.01126e-14
1.63396e-14
-2.44633e-14
6.14829e-15
-2.24465e-14
-2.93767e-14
2.10032e-15
1.34831e-15
-3.07697e-15
-1.02383e-14
5.55025e-15
2.42271e-14
-2.97548e-14
1.58385e-14
1.34549e-14
3.68238e-15
-2.28762e-14
-1.59677e-14
8.13846e-15
4.66333e-14
-1.21079e-14
-2.80028e-15
-4.04147e-15
9.43082e-15
-1.14886e-14
-2.12304e-14
3.08044e-15
-7.25331e-15
5.28744e-15
-5.05238e-15
7.82317e-15
-1.62791e-14
6.36687e-15
-9.90267e-15
-1.7695e-14
-1.01221e-15
5.80135e-15
9.47159e-15
2.30978e-14
-4.90189e-15
1.42551e-14
-2.49445e-14
2.77933e-14
3.77736e-15
1.84167e-14
-2.85991e-14
-4.38712e-15
1.73906e-15
-2.08167e-16
2.64641e-14
-8.49494e-15
-2.85058e-15
-3.23964e-14
8.45201e-15
1.67574e-14
9.90961e-15
1.04005e-14
2.37449e-14
3.81596e-15
-9.96902e-15
-2.42397e-14
8.41298e-15
2.6772e-14
-6.33694e-15
5.68764e-14
3.75533e-14
-8.82714e-15
2.0841e-14
-3.27429e-15
6.05852e-15
1.35968e-14
9.32674e-15
8.17922e-15
-6.67869e-17
1.42534e-14
8.80546e-15
7.21471e-15
3.90573e-15
-1.18594e-14
-1.79501e-14
-5.02983e-15
-1.0365e-15
-6.23286e-15
-6.7021e-15
2.57407e-14
7.3986e-15
-9.94864e-16
-1.69743e-15
-2.78753e-14
-1.3373e-14
1.35083e-14
3.19484e-14
-4.30472e-15
-3.78256e-15
2.50841e-15
-8.47846e-15
1.25646e-14
-3.46277e-14
-2.4928e-14
6.19903e-15
-1.96015e-14
1.04057e-14
-2.2332e-14
6.10276e-15
-2.25826e-14
2.64424e-14
-1.72883e-14
-3.33206e-14
-2.34734e-14
-4.01979e-14
2.79898e-15
1.65397e-14
1.35482e-14
-9.48113e-15
-4.96912e-15
1.14362e-14
2.6556e-14
-1.01568e-14
-2.84937e-14
1.81626e-15
5.11483e-15
-8.93209e-15
-1.15116e-14
1.2464e-14
-1.86344e-14
-2.30198e-14
2.3162e-14
-7.08357e-14
-6.34909e-15
1.07622e-14
-3.79904e-14
-2.33528e-14
-9.50975e-15
-1.14075e-14
-1.28959e-14
-1.91062e-14
-7.80973e-15
1.97203e-14
2.97991e-14
3.73312e-14
-1.27329e-14
4.34375e-15
2.67009e-14
1.07726e-14
-4.37948e-14
6.09929e-15
-5.37764e-16
-4.15987e-15
2.01575e-15
2.38178e-14
-5.13652e-14
-3.52496e-15
-1.01481e-14
-2.25098e-14
-1.24137e-14
1.79058e-14
-4.06099e-14
-5.38805e-15
3.26718e-14
1.56368e-14
1.02349e-15
-2.22045e-14
-4.86416e-15
-1.99632e-14
-7.324e-15
1.68858e-14
2.6458e-14
3.6731e-14
3.48332e-14
4.01242e-14
-1.40131e-14
-1.26843e-14
-6.63011e-15
2.51153e-14
2.32453e-15
-1.16226e-14
-4.40238e-14
6.56766e-15
2.96915e-14
1.08177e-14
-5.5754e-15
1.46411e-15
-1.00198e-14
-1.31041e-14
7.18176e-15
7.35523e-16
1.77983e-14
5.41442e-14
1.51615e-14
-7.18176e-15
2.36755e-14
-7.47319e-15
-1.75554e-15
2.83246e-14
3.76088e-15
1.59664e-14
7.18176e-15
-4.26326e-14
-4.38261e-14
-8.52096e-15
-1.05818e-14
-1.85893e-14
-3.83998e-14
-2.45706e-14
-4.16334e-17
-1.41345e-14
7.97973e-15
1.01724e-14
-7.75074e-15
-3.12389e-14
3.24393e-14
-2.26555e-14
4.85723e-15
3.11348e-14
1.6244e-14
2.80193e-14
4.80727e-14
-2.62984e-15
-8.2781e-15
4.54498e-15
1.91999e-14
7.72299e-15
2.43833e-14
2.94487e-14
-5.83561e-15
-1.72917e-14
-3.09267e-14
-1.40166e-14
6.16868e-15
-2.9747e-14
1.11161e-14
1.06581e-14
-1.98799e-14
-2.27596e-15
1.24969e-14
1.94914e-14
3.07532e-14
3.61516e-14
1.38778e-17
7.77156e-16
8.82627e-15
3.37438e-14
-1.0672e-14
3.1572e-15
-8.67362e-16
7.50788e-15
-2.45984e-14
-2.73809e-14
-2.53131e-14
-2.30232e-14
-3.4972e-14
-1.53766e-14
1.37876e-14
-1.24067e-14
-1.82077e-14
-2.26694e-14
-1.93179e-14
3.21063e-14
1.83048e-14
-1.55917e-14
7.91034e-15
3.56243e-14
2.95597e-14
-1.15116e-14
2.47719e-14
2.46678e-14
3.48402e-14
-1.44051e-14
3.80945e-15
-1.71252e-14
-2.9865e-14
2.74225e-14
-2.58127e-14
-3.6908e-14
-3.58741e-15
-3.01703e-14
-2.30232e-14
6.59195e-15
2.20379e-14
-8.32667e-16
1.29688e-14
1.41137e-14
-2.61666e-14
-9.96425e-15
-6.32133e-15
5.35683e-15
-2.27596e-15
2.56947e-14
-3.08226e-14
7.62584e-15
-7.16788e-15
1.38778e-16
2.52368e-14
-9.78384e-15
6.01602e-15
-1.53003e-14
-3.14748e-14
-3.51316e-14
-3.17524e-14
-4.62685e-14
7.93809e-15
-3.71092e-14
2.16563e-14
3.8497e-14
-2.8727e-15
-3.34732e-14
1.55848e-14
-1.17545e-14
3.67761e-15
-1.6126e-14
-2.1011e-14
-8.38218e-15
4.08007e-15
-1.00892e-14
6.06459e-15
1.6015e-14
5.19029e-14
8.50708e-15
-2.6909e-14
2.59931e-14
-5.96745e-15
-6.6197e-15
3.89133e-14
3.97044e-14
1.95122e-14
-3.2363e-14
-2.14273e-14
2.85882e-14
4.67681e-15
8.36831e-15
2.34812e-14
-2.19963e-14
8.25728e-15
9.85323e-16
-5.21805e-15
5.42622e-15
-6.30052e-15
8.65974e-15
-2.51327e-14
2.51327e-14
-3.19189e-15
-3.27377e-14
2.158e-14
1.77497e-14
-5.44009e-15
-6.85563e-15
-5.27356e-15
-2.67009e-14
3.2821e-14
1.55986e-14
-8.5626e-15
-3.67067e-14
-7.10543e-15
2.1802e-14
2.89491e-14
-1.22402e-14
5.47618e-14
9.10383e-15
2.35506e-14
2.89213e-14
2.7145e-14
3.12528e-14
-1.39472e-14
-1.45856e-14
1.76803e-14
2.96707e-14
-1.11855e-14
5.39291e-14
-4.96825e-15
3.32234e-14
2.26208e-14
-1.7486e-14
-8.79852e-15
-1.30451e-14
1.91513e-15
-1.65701e-14
-3.27793e-14
-3.13638e-15
2.46747e-14
-4.7462e-15
-3.85803e-15
-3.4972e-15
-5.61773e-14
-2.53686e-14
-3.28071e-14
-2.00673e-14
-2.95597e-14
-5.55112e-15
-2.63678e-14
1.55431e-14
1.39055e-14
1.72085e-15
-5.27356e-16
-6.60583e-15
3.36953e-14
5.55112e-15
1.35725e-14
-9.71445e-15
1.57929e-14
-6.77236e-15
-2.39531e-14
6.66689e-14
1.7264e-14
-1.78746e-14
1.58207e-15
-1.93734e-14
-3.46112e-14
4.55747e-14
-3.08087e-14
-1.69309e-14
1.25178e-14
3.81639e-14
1.44329e-15
-1.50435e-14
-1.71252e-14
1.82077e-14
-3.01148e-14
-6.63358e-15
2.05391e-15
4.52416e-15
-4.56024e-14
-1.66811e-14
1.83742e-14
5.16254e-15
-3.19189e-14
-1.71529e-14
1.95677e-14
-2.28428e-14
5.19029e-15
-2.498e-14
7.16094e-15
-1.66811e-14
1.08802e-14
8.13238e-15
-1.64313e-14
3.31679e-14
5.4956e-15
8.29892e-15
4.16334e-15
-7.02216e-15
2.20102e-14
-4.44089e-16
1.64313e-14
-2.22045e-15
-2.33702e-14
-1.27676e-15
5.56222e-14
3.61378e-14
-4.05231e-15
-1.07969e-14
-2.65898e-14
1.60982e-14
-1.27121e-14
-3.05311e-16
-4.07174e-14
-1.53766e-14
-2.48412e-14
-2.77278e-14
-1.38778e-15
-1.46827e-14
1.22957e-14
-4.12725e-14
-1.42109e-14
1.9984e-15
9.6867e-15
3.01703e-14
2.69784e-14
-1.3517e-14
1.93734e-14
-1.08247e-15
-3.41116e-14
1.43219e-14
3.91354e-15
2.67009e-14
-2.7478e-15
-5.71765e-15
2.498e-16
7.57727e-15
2.64233e-14
-4.27436e-15
1.58207e-14
3.83027e-15
-1.07969e-14
-3.40561e-14
2.77556e-15
2.67009e-14
-8.65974e-15
-3.16414e-15
-4.94049e-15
1.63758e-14
-1.2268e-14
9.49241e-15
-3.73035e-14
1.94844e-14
-4.38538e-15
-1.53211e-14
-9.21485e-15
1.07692e-14
-2.74225e-14
3.27516e-15
-6.93889e-15
9.15934e-15
-5.10703e-15
1.05471e-15
1.64868e-14
6.93889e-15
-2.79776e-14
-2.81997e-14
1.9984e-14
-4.32987e-15
3.08642e-14
4.996e-16
-8.43769e-15
1.59317e-14
4.45199e-14
1.20459e-14
1.95399e-14
3.43059e-14
-4.66294e-15
-1.28786e-14
-2.05391e-15
2.14828e-14
2.77556e-16
-2.42584e-14
1.0103e-14
-2.08167e-14
-2.58127e-14
-1.55431e-14
2.22045e-16
3.56937e-14
5.93969e-15
-1.73195e-14
-1.56541e-14
-1.45994e-14
7.88258e-15
-3.01981e-14
1.86517e-14
-6.10623e-16
-2.28706e-14
-5.55112e-17
2.20379e-14
-1.22125e-14
6.10623e-15
3.20299e-14
-1.66533e-16
-6.9722e-14
6.10623e-15
3.66374e-15
-7.49401e-15
5.10703e-15
6.10623e-15
3.49165e-14
3.475e-14
1.06581e-14
4.74065e-14
-3.13083e-14
1.55431e-14
-1.55431e-14
4.64073e-14
-2.5091e-14
-1.88738e-14
-3.20854e-14
2.48135e-14
1.80966e-14
-1.20459e-14
-3.39173e-14
3.28626e-14
2.63678e-14
6.66134e-16
-8.32667e-16
-1.12688e-14
-8.16014e-15
-2.58682e-14
-2.53131e-14
-9.21485e-15
-1.2379e-14
-1.14908e-14
-1.19349e-14
7.82707e-15
2.82552e-14
7.66054e-15
-1.03251e-14
3.2252e-14
2.65343e-14
2.33147e-15
2.38698e-14
-1.08802e-14
2.77001e-14
-3.29736e-14
-3.20299e-14
-9.15934e-15
2.11497e-14
3.14748e-14
-1.32672e-14
4.20775e-14
7.21645e-15
-8.10463e-15
9.4369e-16
4.17999e-14
-2.66454e-14
-3.60822e-15
2.44804e-14
1.28231e-14
-2.84772e-14
1.44329e-15
7.02771e-14
-1.55431e-14
1.55431e-14
9.88098e-15
-2.08722e-14
6.21725e-15
-2.40918e-14
-2.26485e-14
-3.18634e-14
-1.26565e-14
2.76446e-14
-1.15463e-14
2.94209e-14
-3.71925e-14
9.99201e-15
1.16573e-14
2.32037e-14
-1.34337e-14
-2.0095e-14
6.66134e-16
2.77556e-14
-2.56462e-14
-7.77156e-16
-2.64233e-14
1.18794e-14
-2.22045e-15
9.99201e-15
2.09832e-14
1.35447e-14
-5.10703e-15
-8.77076e-15
-3.33067e-16
-1.34337e-14
2.22045e-16
-1.88738e-15
8.88178e-16
1.93179e-14
-2.69784e-14
3.66374e-15
-1.63203e-14
-1.55431e-15
2.28706e-14
1.75415e-14
1.24345e-14
2.85327e-14
2.30926e-14
-2.22045e-15
-3.27516e-14
9.32587e-15
-3.24185e-14
-1.87628e-14
1.64313e-14
-2.77556e-15
-4.34097e-14
1.73195e-14
-2.4758e-14
-2.54241e-14
2.05391e-14
2.85327e-14
-3.10862e-15
-4.44089e-14
2.10942e-14
-3.51941e-14
7.10543e-15
4.50751e-14
-3.36398e-14
-4.88498e-15
2.91989e-14
2.67564e-14
-2.4869e-14
-1.60982e-14
1.43219e-14
-4.10783e-15
2.80886e-14
1.68754e-14
-3.21965e-15
-1.42109e-14
8.65974e-15
-4.44089e-16
1.75415e-14
-9.10383e-15
-5.44009e-15
-2.07612e-14
-8.32667e-15
1.44329e-14
-2.33147e-15
-1.05471e-14
-2.27596e-14
-1.9984e-14
1.66533e-14
3.44169e-15
1.68754e-14
8.99281e-15
-1.22125e-14
-1.17684e-14
-1.5099e-14
-4.88498e-15
9.32587e-15
-3.66374e-15
-1.03251e-14
-8.54872e-15
1.21014e-14
-1.78746e-14
-4.66294e-15
-3.9968e-15
-2.87548e-14
4.44089e-15
3.44169e-14
-8.88178e-15
7.21645e-15
1.11022e-16
-2.36478e-14
2.55351e-15
1.69864e-14
5.32907e-15
-9.21485e-15
5.9952e-15
1.44329e-15
-1.84297e-14
6.55032e-15
2.68674e-14
-1.08802e-14
3.14193e-14
-1.14353e-14
-3.58602e-14
3.19744e-14
1.19904e-14
-2.69784e-14
-7.43849e-15
1.70974e-14
4.55191e-15
-9.99201e-16
-2.43139e-14
6.43929e-15
-3.4972e-14
-1.07692e-14
-1.9984e-15
-1.05471e-14
2.12053e-14
-1.05471e-14
-8.43769e-15
1.77636e-15
4.44089e-14
7.77156e-15
-1.09912e-14
2.07612e-14
-4.44089e-16
1.96509e-14
1.75415e-14
6.88338e-15
-1.17684e-14
-8.65974e-15
-3.44169e-15
1.17684e-14
-1.24345e-14
1.85407e-14
-1.45439e-14
2.15383e-14
-1.33227e-15
2.52021e-14
-6.88338e-15
-1.14353e-14
8.88178e-15
2.16493e-14
1.25455e-14
1.55431e-14
-1.17684e-14
-3.77476e-15
-6.66134e-15
9.54792e-15
-8.54872e-15
4.55191e-15
-1.07692e-14
6.88338e-15
-2.70894e-14
1.0103e-14
1.11022e-15
-5.21805e-15
1.52101e-14
-2.9865e-14
7.54952e-15
7.99361e-15
-8.88178e-15
-1.75415e-14
-3.10862e-15
-1.87628e-14
6.32827e-15
-9.21485e-15
3.11973e-14
-1.44329e-15
2.22045e-15
-3.68594e-14
2.30926e-14
-1.16573e-14
4.07452e-14
1.76525e-14
2.77556e-14
1.25455e-14
-1.53211e-14
-1.21014e-14
2.02061e-14
2.06501e-14
-3.81917e-14
1.44329e-15
-4.21885e-15
-1.70974e-14
-1.69864e-14
-2.94209e-14
-1.0103e-14
1.44329e-15
2.0095e-14
1.46549e-14
9.4369e-15
-1.38778e-14
2.24265e-14
-5.9952e-15
7.77156e-16
-1.66533e-14
5.10703e-15
-1.73195e-14
1.05471e-14
1.37668e-14
8.32667e-15
-2.9754e-14
-2.76446e-14
-2.76446e-14
1.23235e-14
4.10783e-15
3.81917e-14
-6.32827e-15
1.15463e-14
-2.44249e-15
-9.65894e-15
-1.29896e-14
2.35367e-14
6.21725e-15
3.51941e-14
1.07692e-14
-2.62013e-14
4.66294e-14
-1.42109e-14
-1.5099e-14
-1.46549e-14
1.19904e-14
2.06501e-14
2.22045e-15
-2.59792e-14
1.88738e-14
-2.9976e-14
-2.08722e-14
1.42109e-14
3.88578e-14
4.44089e-15
4.88498e-15
-5.9952e-15
-2.04281e-14
-9.10383e-15
9.10383e-15
2.24265e-14
1.9984e-15
-9.10383e-15
-2.44249e-14
2.39808e-14
-2.4869e-14
-1.19904e-14
2.04281e-14
1.90958e-14
6.66134e-15
-3.9968e-15
-1.11022e-14
-1.11022e-14
-2.08722e-14
-6.88338e-15
1.46549e-14
-1.84297e-14
-2.22045e-15
-9.32587e-15
-1.84297e-14
-1.70974e-14
6.21725e-15
9.54792e-15
-2.95319e-14
-1.73195e-14
4.21885e-15
1.73195e-14
3.24185e-14
-4.44089e-16
-1.24345e-14
-4.4631e-14
-8.88178e-16
-5.77316e-15
7.99361e-15
1.28786e-14
1.24345e-14
2.88658e-15
1.26565e-14
-5.37348e-14
-2.57572e-14
2.55351e-14
-4.39648e-14
2.64233e-14
3.10862e-15
7.10543e-15
5.77316e-15
-2.73115e-14
1.95399e-14
1.9984e-15
-1.86517e-14
7.99361e-15
2.28706e-14
-7.77156e-15
-2.9976e-14
-1.59872e-14
-1.77636e-15
1.77636e-15
1.88738e-14
-1.44329e-14
-2.68674e-14
-2.44249e-14
3.24185e-14
-1.11022e-14
1.08802e-14
-7.77156e-15
9.32587e-15
2.04281e-14
-1.5099e-14
-1.33227e-15
4.44089e-15
2.88658e-15
1.53211e-14
5.32907e-15
2.10942e-14
2.66454e-15
-7.54952e-15
1.75415e-14
8.43769e-15
-9.76996e-15
4.70735e-14
7.54952e-15
1.11022e-15
-1.37668e-14
2.33147e-14
1.19904e-14
-1.11022e-15
4.21885e-15
-3.61933e-14
1.06581e-14
2.59792e-14
9.54792e-15
-2.39808e-14
2.28706e-14
-4.21885e-15
-1.53211e-14
-1.08802e-14
-1.02141e-14
-1.08802e-14
2.88658e-14
1.15463e-14
-2.4647e-14
8.43769e-15
-1.64313e-14
-1.22125e-14
-1.13243e-14
-9.76996e-15
2.4647e-14
-1.46549e-14
1.57652e-14
2.22045e-15
8.21565e-15
-2.08722e-14
4.44089e-16
6.66134e-15
1.90958e-14
1.62093e-14
6.43929e-15
1.39888e-14
1.57652e-14
6.66134e-15
2.26485e-14
-4.41869e-14
5.77316e-15
-6.66134e-16
4.88498e-15
5.32907e-15
-7.32747e-15
1.24345e-14
5.10703e-15
1.08802e-14
9.10383e-15
8.88178e-15
1.62093e-14
-8.43769e-15
-5.77316e-15
-5.9952e-15
-1.90958e-14
4.21885e-15
3.4861e-14
-1.15463e-14
1.44329e-14
-9.10383e-15
6.66134e-15
-9.99201e-15
-1.62093e-14
1.88738e-14
-1.53211e-14
3.59712e-14
-1.84297e-14
-4.90719e-14
1.19904e-14
3.44169e-14
-1.68754e-14
2.22045e-16
0
-5.77316e-15
1.70974e-14
2.62013e-14
-8.65974e-15
9.76996e-15
9.76996e-15
4.88498e-15
1.9984e-15
1.37668e-14
5.9952e-15
-8.43769e-15
-3.10862e-15
-1.02141e-14
2.22045e-16
-1.28786e-14
3.10862e-15
3.55271e-15
-8.21565e-15
3.70814e-14
-5.32907e-15
-1.82077e-14
7.32747e-15
-2.24265e-14
-2.44249e-15
3.55271e-15
1.77636e-15
7.99361e-15
-5.9952e-15
1.28786e-14
-7.32747e-15
-2.55351e-14
4.44089e-15
-1.19904e-14
1.9984e-15
-2.57572e-14
-4.21885e-15
-1.75415e-14
-3.19744e-14
9.54792e-15
-1.19904e-14
-4.44089e-15
2.39808e-14
-3.77476e-15
-3.61933e-14
1.39888e-14
-5.55112e-15
4.21885e-15
-5.55112e-15
-7.77156e-15
3.06422e-14
-2.53131e-14
-1.42109e-14
-2.79776e-14
1.75415e-14
1.73195e-14
-1.73195e-14
-2.02061e-14
3.10862e-15
-8.88178e-16
4.44089e-15
1.90958e-14
-8.43769e-15
-9.99201e-15
1.46549e-14
1.4877e-14
-1.57652e-14
2.33147e-14
-6.66134e-16
4.44089e-16
6.66134e-16
2.64233e-14
-1.68754e-14
1.59872e-14
-3.33067e-15
2.04281e-14
-7.10543e-15
-1.13243e-14
9.99201e-15
-3.08642e-14
1.04361e-14
2.5091e-14
-7.77156e-15
1.04361e-14
-1.55431e-15
7.99361e-15
-1.70974e-14
-3.10862e-15
3.19744e-14
-2.13163e-14
-1.08802e-14
1.15463e-14
-9.76996e-15
8.65974e-15
-1.26565e-14
5.55112e-15
-6.66134e-15
1.44329e-14
1.39888e-14
4.88498e-15
1.75415e-14
2.26485e-14
-6.43929e-15
-1.19904e-14
1.73195e-14
-1.06581e-14
1.35447e-14
-1.17684e-14
-1.13243e-14
6.66134e-16
-7.54952e-15
5.77316e-15
2.53131e-14
3.59712e-14
-1.15463e-14
8.88178e-15
1.57652e-14
4.66294e-15
-1.82077e-14
1.08802e-14
-2.44249e-15
-1.19904e-14
1.33227e-15
-1.77636e-15
-5.77316e-15
-1.62093e-14
6.66134e-16
-6.66134e-15
8.21565e-15
1.02141e-14
-6.88338e-15
-1.77636e-15
6.43929e-15
2.13163e-14
-1.55431e-15
-1.73195e-14
-8.88178e-16
1.46549e-14
-1.15463e-14
-1.33227e-15
-1.5099e-14
-2.84217e-14
9.32587e-15
6.88338e-15
1.73195e-14
-1.37668e-14
4.21885e-15
-1.70974e-14
-3.19744e-14
2.5091e-14
1.42109e-14
-7.99361e-15
2.44249e-15
-2.90878e-14
1.46549e-14
1.9984e-15
-7.10543e-15
-5.9952e-15
-1.86517e-14
-6.88338e-15
-1.57652e-14
-3.41949e-14
1.15463e-14
2.17604e-14
-1.24345e-14
8.65974e-15
-1.31006e-14
1.9984e-14
2.24265e-14
-2.22045e-16
2.44249e-15
0
1.22125e-14
-2.5091e-14
1.13243e-14
-2.88658e-15
-2.88658e-15
8.88178e-16
2.66454e-14
-1.93179e-14
2.66454e-15
1.9762e-14
5.9952e-15
1.77636e-15
2.06501e-14
-1.37668e-14
7.10543e-15
-1.55431e-14
7.54952e-15
-1.02141e-14
1.24345e-14
1.59872e-14
1.37668e-14
-2.62013e-14
-5.32907e-15
3.9968e-15
6.66134e-15
-7.99361e-15
0
-8.88178e-15
1.28786e-14
2.79776e-14
-1.19904e-14
-9.32587e-15
2.22045e-15
-1.46549e-14
1.06581e-14
1.59872e-14
1.9984e-14
-2.35367e-14
-1.46549e-14
1.73195e-14
-1.77636e-15
2.75335e-14
-2.66454e-14
7.54952e-15
1.33227e-14
2.39808e-14
1.68754e-14
4.44089e-15
1.24345e-14
2.39808e-14
-5.77316e-15
-2.88658e-14
-5.32907e-15
0
-2.66454e-15
-2.9754e-14
-1.5099e-14
0
-5.77316e-15
-6.66134e-15
-1.5099e-14
1.33227e-14
-1.55431e-14
-7.10543e-15
9.76996e-15
-7.10543e-15
1.15463e-14
6.66134e-15
9.32587e-15
-2.4869e-14
-1.59872e-14
4.44089e-16
-1.68754e-14
1.06581e-14
-8.43769e-15
2.35367e-14
-1.77636e-14
1.19904e-14
1.64313e-14
-7.10543e-15
-1.42109e-14
1.28786e-14
8.43769e-15
9.32587e-15
1.73195e-14
1.73195e-14
1.90958e-14
0