/*--------------------------------*- C++ -*----------------------------------*\
| =========                 |                                                 |
| \\      /  F ield         | foam-extend: Open Source CFD                    |
|  \\    /   O peration     | Version:     4.0                                |
|   \\  /    A nd           | Web:         http://www.foam-extend.org         |
|    \\/     M anipulation  |                                                 |
\*---------------------------------------------------------------------------*/
FoamFile
{
    version     2.0;
    format      ascii;
    class       surfaceScalarField;
    location    "27";
    object      phi;
}
// * * * * * * * * * * * * * * * * * * * * * * * * * * * * * * * * * * * * * //

dimensions      [0 3 -1 0 0 0 0];

internalField   nonuniform List<scalar> 
13744
(
-1.71108e-09
1.71137e-09
1.1808e-08
-1.35191e-08
9.41575e-09
2.39227e-09
9.02013e-09
3.95624e-10
7.91996e-09
1.10017e-09
6.50119e-09
1.41877e-09
5.02498e-09
1.47621e-09
3.64298e-09
1.382e-09
2.42672e-09
1.21627e-09
1.3984e-09
1.02832e-09
5.53501e-10
8.44895e-10
-1.24853e-10
6.78354e-10
-6.57615e-10
5.32762e-10
-1.06556e-09
4.07941e-10
-1.3674e-09
3.01846e-10
-1.57926e-09
2.11854e-10
-1.71468e-09
1.35417e-10
-1.78498e-09
7.02982e-11
-1.79963e-09
1.46579e-11
-1.76666e-09
-3.29701e-11
-1.69291e-09
-7.37512e-11
-1.58433e-09
-1.08583e-10
-1.44616e-09
-1.3817e-10
-1.28309e-09
-1.63068e-10
-1.09938e-09
-1.83713e-10
-8.98936e-10
-2.00444e-10
-6.85405e-10
-2.13531e-10
-4.62229e-10
-2.23178e-10
-2.32703e-10
-2.29526e-10
-2.64335e-14
-2.32677e-10
2.32655e-10
-2.32681e-10
4.62178e-10
-2.29522e-10
6.85358e-10
-2.23179e-10
8.98894e-10
-2.13535e-10
1.09934e-09
-2.00444e-10
1.28306e-09
-1.8372e-10
1.44613e-09
-1.63075e-10
1.5843e-09
-1.38173e-10
1.69289e-09
-1.08592e-10
1.76666e-09
-7.37608e-11
1.79963e-09
-3.29766e-11
1.78498e-09
1.46468e-11
1.7147e-09
7.02868e-11
1.57928e-09
1.35411e-10
1.36744e-09
2.11844e-10
1.0656e-09
3.01837e-10
6.5766e-10
4.07941e-10
1.24908e-10
5.32753e-10
-5.53438e-10
6.78344e-10
-1.39833e-09
8.44897e-10
-2.42664e-09
1.02831e-09
-3.64291e-09
1.21626e-09
-5.02491e-09
1.382e-09
-6.50112e-09
1.47621e-09
-7.91989e-09
1.41877e-09
-9.02007e-09
1.10018e-09
-9.4157e-09
3.95632e-10
-1.1808e-08
2.39229e-09
1.71109e-09
-1.35191e-08
1.71109e-09
4.9153e-08
-4.74416e-08
3.00166e-08
5.61732e-09
2.85992e-08
3.80967e-09
2.74334e-08
1.5614e-09
2.41119e-08
4.42167e-09
1.98114e-08
5.7193e-09
1.53272e-08
5.96039e-09
1.11234e-08
5.5858e-09
7.41956e-09
4.92009e-09
4.28535e-09
4.16252e-09
1.70823e-09
3.42202e-09
-3.62232e-10
2.74882e-09
-1.98931e-09
2.15984e-09
-3.2359e-09
1.65454e-09
-4.15889e-09
1.22483e-09
-4.80723e-09
8.60203e-10
-5.2222e-09
5.50393e-10
-5.43831e-09
2.864e-10
-5.48445e-09
6.08027e-11
-5.38507e-09
-1.32351e-10
-5.16109e-09
-2.97732e-10
-4.83067e-09
-4.38996e-10
-4.40983e-09
-5.59012e-10
-3.9129e-09
-6.60002e-10
-3.35286e-09
-7.43742e-10
-2.74169e-09
-8.11618e-10
-2.09051e-09
-8.64708e-10
-1.40985e-09
-9.03834e-10
-7.09781e-10
-9.29598e-10
-7.73786e-14
-9.42379e-10
7.09622e-10
-9.42379e-10
1.40971e-09
-9.29608e-10
2.09037e-09
-9.0384e-10
2.74155e-09
-8.64718e-10
3.35275e-09
-8.11644e-10
3.91279e-09
-7.43758e-10
4.40974e-09
-6.60023e-10
4.83061e-09
-5.59044e-10
5.16104e-09
-4.39024e-10
5.38504e-09
-2.97758e-10
5.48445e-09
-1.32388e-10
5.43833e-09
6.07725e-11
5.22225e-09
2.8637e-10
4.80731e-09
5.50349e-10
4.15899e-09
8.60171e-10
3.23602e-09
1.2248e-09
1.98946e-09
1.6545e-09
3.62399e-10
2.15982e-09
-1.70805e-09
2.7488e-09
-4.28514e-09
3.42198e-09
-7.41934e-09
4.16251e-09
-1.11232e-08
4.92009e-09
-1.5327e-08
5.58579e-09
-1.98111e-08
5.9604e-09
-2.41117e-08
5.71933e-09
-2.74332e-08
4.42169e-09
-2.8599e-08
1.56145e-09
-3.00165e-08
3.80973e-09
-4.91529e-08
5.61738e-09
-4.74418e-08
4.85876e-08
-9.60292e-08
5.05898e-08
3.61508e-09
4.81079e-08
6.29156e-09
4.62223e-08
3.44701e-09
4.0677e-08
9.96699e-09
3.34611e-08
1.29352e-08
2.59178e-08
1.35037e-08
1.88337e-08
1.26698e-08
1.25837e-08
1.11702e-08
7.28887e-09
9.4573e-09
2.93101e-09
7.77989e-09
-5.73024e-10
6.25285e-09
-3.3288e-09
4.91562e-09
-5.44173e-09
3.76747e-09
-7.00745e-09
2.79055e-09
-8.10844e-09
1.96119e-09
-8.81433e-09
1.25628e-09
-9.18339e-09
6.55456e-10
-9.2645e-09
1.4191e-10
-9.099e-09
-2.97848e-10
-8.72233e-09
-6.74408e-10
-8.16523e-09
-9.96094e-10
-7.45485e-09
-1.26939e-09
-6.61545e-09
-1.4994e-09
-5.66908e-09
-1.69012e-09
-4.63598e-09
-1.84471e-09
-3.53506e-09
-1.96563e-09
-2.38414e-09
-2.05475e-09
-1.2003e-09
-2.11344e-09
-1.32248e-13
-2.14255e-09
1.20004e-09
-2.14255e-09
2.38389e-09
-2.11346e-09
3.53481e-09
-2.05477e-09
4.63575e-09
-1.96565e-09
5.66887e-09
-1.84476e-09
6.61527e-09
-1.69016e-09
7.4547e-09
-1.49945e-09
8.16512e-09
-1.26947e-09
8.72225e-09
-9.96148e-10
9.09896e-09
-6.74465e-10
9.2645e-09
-2.97933e-10
9.18342e-09
1.41848e-10
8.81441e-09
6.55388e-10
8.10857e-09
1.25619e-09
7.00762e-09
1.96112e-09
5.44194e-09
2.79048e-09
3.32905e-09
3.76739e-09
5.73306e-10
4.91556e-09
-2.93069e-09
6.25279e-09
-7.28852e-09
7.77982e-09
-1.25833e-08
9.45726e-09
-1.88334e-08
1.11702e-08
-2.59174e-08
1.26698e-08
-3.34607e-08
1.35037e-08
-4.06766e-08
1.29353e-08
-4.6222e-08
9.96705e-09
-4.81077e-08
3.44712e-09
-5.05896e-08
6.29169e-09
-4.85875e-08
3.61522e-09
-9.60293e-08
4.2521e-08
-1.3855e-07
6.65301e-08
-2.0394e-08
6.76272e-08
5.19441e-09
6.50987e-08
5.97554e-09
5.73719e-08
1.76938e-08
4.72586e-08
2.30486e-08
3.6655e-08
2.41072e-08
2.66768e-08
2.26481e-08
1.7859e-08
1.9988e-08
1.03791e-08
1.69372e-08
4.21582e-09
1.39432e-08
-7.4484e-10
1.12135e-08
-4.64977e-09
8.82055e-09
-7.64647e-09
6.76417e-09
-9.86925e-09
5.01333e-09
-1.14342e-08
3.52615e-09
-1.24396e-08
2.26166e-09
-1.29677e-08
1.18352e-09
-1.30875e-08
2.61801e-10
-1.28578e-08
-5.27626e-10
-1.23285e-08
-1.20369e-09
-1.15433e-08
-1.7813e-09
-1.05406e-08
-2.27206e-09
-9.3549e-09
-2.6851e-09
-8.0174e-09
-3.02761e-09
-6.55685e-09
-3.30526e-09
-5.00005e-09
-3.52243e-09
-3.3723e-09
-3.6825e-09
-1.69783e-09
-3.7879e-09
-1.8729e-13
-3.8402e-09
1.69747e-09
-3.84021e-09
3.37194e-09
-3.78793e-09
4.9997e-09
-3.68253e-09
6.55653e-09
-3.52248e-09
8.01711e-09
-3.30534e-09
9.35464e-09
-3.0277e-09
1.05404e-08
-2.6852e-09
1.15431e-08
-2.27218e-09
1.23284e-08
-1.78141e-09
1.28577e-08
-1.20381e-09
1.30875e-08
-5.27765e-10
1.29677e-08
2.61678e-10
1.24397e-08
1.18339e-09
1.14344e-08
2.26151e-09
9.86948e-09
3.52602e-09
7.64676e-09
5.01321e-09
4.65012e-09
6.76403e-09
7.45239e-10
8.82044e-09
-4.21537e-09
1.12134e-08
-1.03786e-08
1.39431e-08
-1.78585e-08
1.69371e-08
-2.66762e-08
1.99879e-08
-3.66545e-08
2.26481e-08
-4.7258e-08
2.41073e-08
-5.73714e-08
2.30487e-08
-6.50983e-08
1.76939e-08
-6.76269e-08
5.97572e-09
-6.65298e-08
5.19464e-09
-4.25208e-08
-2.03938e-08
-1.3855e-07
5.16405e-08
-1.90191e-07
8.12597e-08
-5.00133e-08
8.6989e-08
-5.34857e-10
8.39027e-08
9.06176e-09
7.40627e-08
2.75338e-08
6.10993e-08
3.6012e-08
4.74626e-08
3.77438e-08
3.46009e-08
3.55099e-08
2.32145e-08
3.13743e-08
1.35414e-08
2.66103e-08
5.56079e-09
2.19238e-08
-8.69734e-10
1.7644e-08
-5.93691e-09
1.38877e-08
-9.82945e-09
1.06567e-08
-1.27199e-08
7.90375e-09
-1.47577e-08
5.56401e-09
-1.60698e-08
3.57373e-09
-1.67625e-08
1.87619e-09
-1.69252e-08
4.2456e-10
-1.66339e-08
-8.18958e-10
-1.59535e-08
-1.88407e-09
-1.49407e-08
-2.79416e-09
-1.36452e-08
-3.56748e-09
-1.21119e-08
-4.21839e-09
-1.03814e-08
-4.75817e-09
-8.4909e-09
-5.19575e-09
-6.4753e-09
-5.53804e-09
-4.36747e-09
-5.79033e-09
-2.19893e-09
-5.95645e-09
-2.41916e-13
-6.03888e-09
2.19845e-09
-6.03889e-09
4.36701e-09
-5.95649e-09
6.47485e-09
-5.79037e-09
8.49048e-09
-5.53811e-09
1.0381e-08
-5.19587e-09
1.21116e-08
-4.75831e-09
1.3645e-08
-4.21854e-09
1.49404e-08
-3.56767e-09
1.59534e-08
-2.79434e-09
1.66338e-08
-1.88426e-09
1.69252e-08
-8.19168e-10
1.67625e-08
4.2436e-10
1.607e-08
1.87599e-09
1.4758e-08
3.5735e-09
1.27202e-08
5.5638e-09
9.82983e-09
7.90354e-09
5.93736e-09
1.06565e-08
8.70251e-10
1.38876e-08
-5.56021e-09
1.76439e-08
-1.35408e-08
2.19236e-08
-2.32138e-08
2.66102e-08
-3.46002e-08
3.13743e-08
-4.74619e-08
3.55098e-08
-6.10986e-08
3.77439e-08
-7.40621e-08
3.60122e-08
-8.39022e-08
2.7534e-08
-8.69885e-08
9.06206e-09
-8.12594e-08
-5.34501e-10
-5.16403e-08
-5.00128e-08
-1.9019e-07
6.47604e-08
-2.54951e-07
9.72884e-08
-8.25413e-08
1.06046e-07
-9.29247e-09
1.02496e-07
1.26113e-08
9.06339e-08
3.93963e-08
7.48932e-08
5.17527e-08
5.82751e-08
5.4362e-08
4.25618e-08
5.12231e-08
2.86236e-08
4.53125e-08
1.67634e-08
3.84705e-08
6.96468e-09
3.17225e-08
-9.40532e-10
2.55492e-08
-7.17678e-09
2.0124e-08
-1.19727e-08
1.54526e-08
-1.55381e-08
1.14692e-08
-1.80558e-08
8.08164e-09
-1.96806e-08
5.19861e-09
-2.05432e-08
2.73871e-09
-2.07532e-08
6.34568e-10
-2.04038e-08
-1.1683e-09
-1.95751e-08
-2.71276e-09
-1.83367e-08
-4.0326e-09
-1.675e-08
-5.15419e-09
-1.48701e-08
-6.0983e-09
-1.2747e-08
-6.88129e-09
-1.04266e-08
-7.51605e-09
-7.95208e-09
-8.01261e-09
-5.36379e-09
-8.37861e-09
-2.70063e-09
-8.61961e-09
-2.96706e-13
-8.73922e-09
2.70004e-09
-8.73923e-09
5.36322e-09
-8.61967e-09
7.95153e-09
-8.37868e-09
1.04261e-08
-8.01272e-09
1.27465e-08
-7.51623e-09
1.48697e-08
-6.88149e-09
1.67497e-08
-6.09853e-09
1.83364e-08
-5.15445e-09
1.9575e-08
-4.03286e-09
2.04037e-08
-2.71303e-09
2.07532e-08
-1.1686e-09
2.05432e-08
6.34279e-10
1.96808e-08
2.73841e-09
1.8056e-08
5.19828e-09
1.55385e-08
8.08133e-09
1.19731e-08
1.14689e-08
7.17733e-09
1.54523e-08
9.41167e-10
2.01237e-08
-6.96397e-09
2.5549e-08
-1.67626e-08
3.17223e-08
-2.86228e-08
3.84703e-08
-4.2561e-08
4.53124e-08
-5.82742e-08
5.12231e-08
-7.48924e-08
5.43621e-08
-9.06331e-08
5.17529e-08
-1.02496e-07
3.93966e-08
-1.06045e-07
1.26117e-08
-9.7288e-08
-9.29194e-09
-6.47602e-08
-8.25407e-08
-2.54951e-07
7.51893e-08
-3.3014e-07
1.13608e-07
-1.2096e-07
1.24642e-07
-2.03267e-08
1.20738e-07
1.65154e-08
1.06966e-07
5.31682e-08
8.85476e-08
7.01716e-08
6.90245e-08
7.38851e-08
5.05139e-08
6.97337e-08
3.4059e-08
6.17675e-08
2.00323e-08
5.24972e-08
8.42606e-09
4.33288e-08
-9.49945e-10
3.49252e-08
-8.35557e-09
2.75296e-08
-1.40576e-08
2.11546e-08
-1.83023e-08
1.57139e-08
-2.13044e-08
1.10838e-08
-2.3247e-08
7.14122e-09
-2.42842e-08
3.77594e-09
-2.45461e-08
8.96474e-10
-2.41432e-08
-1.57128e-09
-2.31702e-08
-3.68569e-09
-2.171e-08
-5.49283e-09
-1.98355e-08
-7.02868e-09
-1.76122e-08
-8.32161e-09
-1.50995e-08
-9.39396e-09
-1.23522e-08
-1.02633e-08
-9.42138e-09
-1.09435e-08
-6.35519e-09
-1.14448e-08
-3.19989e-09
-1.17749e-08
-3.51442e-13
-1.19387e-08
3.19919e-09
-1.19388e-08
6.35451e-09
-1.1775e-08
9.42073e-09
-1.14449e-08
1.23516e-08
-1.09436e-08
1.5099e-08
-1.02636e-08
1.76117e-08
-9.39423e-09
1.98351e-08
-8.32192e-09
2.17097e-08
-7.02904e-09
2.317e-08
-5.49318e-09
2.41431e-08
-3.68606e-09
2.45461e-08
-1.57169e-09
2.42843e-08
8.96069e-10
2.32472e-08
3.77552e-09
2.13047e-08
7.14077e-09
1.83027e-08
1.10834e-08
1.40582e-08
1.57135e-08
8.35623e-09
2.11542e-08
9.50698e-10
2.75292e-08
-8.42522e-09
3.49249e-08
-2.00314e-08
4.33285e-08
-3.4058e-08
5.24969e-08
-5.05129e-08
6.17673e-08
-6.90235e-08
6.97336e-08
-8.85466e-08
7.38853e-08
-1.06966e-07
7.01718e-08
-1.20737e-07
5.31686e-08
-1.24642e-07
1.6516e-08
-1.13608e-07
-2.0326e-08
-7.5189e-08
-1.20959e-07
-3.3014e-07
8.38132e-08
-4.13953e-07
1.2915e-07
-1.66297e-07
1.42619e-07
-3.37964e-08
1.38484e-07
2.06511e-08
1.22939e-07
6.8713e-08
1.01967e-07
9.1143e-08
7.96415e-08
9.6211e-08
5.84101e-08
9.0965e-08
3.94922e-08
8.06854e-08
2.33348e-08
6.86546e-08
9.94334e-09
5.67203e-08
-8.90631e-10
4.57592e-08
-9.45926e-09
3.60982e-08
-1.60654e-08
2.77607e-08
-2.099e-08
2.06385e-08
-2.44792e-08
1.4573e-08
-2.67433e-08
9.40531e-09
-2.79597e-08
4.99234e-09
-2.82784e-08
1.21521e-09
-2.7827e-08
-2.02267e-09
-2.67153e-08
-4.79746e-09
-2.50387e-08
-7.16935e-09
-2.2882e-08
-9.1854e-09
-2.03209e-08
-1.08827e-08
-1.74243e-08
-1.22906e-08
-1.42556e-08
-1.3432e-08
-1.0874e-08
-1.43251e-08
-7.33547e-09
-1.49833e-08
-3.69359e-09
-1.54168e-08
-4.05588e-13
-1.56319e-08
3.69278e-09
-1.5632e-08
7.33469e-09
-1.54169e-08
1.08732e-08
-1.49835e-08
1.42549e-08
-1.43253e-08
1.74236e-08
-1.34323e-08
2.03204e-08
-1.22909e-08
2.28816e-08
-1.08831e-08
2.50384e-08
-9.18586e-09
2.6715e-08
-7.16981e-09
2.78269e-08
-4.79794e-09
2.82784e-08
-2.0232e-09
2.79598e-08
1.21469e-09
2.67435e-08
4.99179e-09
2.44796e-08
9.40472e-09
2.09905e-08
1.45724e-08
1.6066e-08
2.0638e-08
9.46002e-09
2.77602e-08
8.915e-10
3.60978e-08
-9.94237e-09
4.57588e-08
-2.33338e-08
5.67199e-08
-3.94911e-08
6.86543e-08
-5.84089e-08
8.06852e-08
-7.96403e-08
9.0965e-08
-1.01966e-07
9.62112e-08
-1.22938e-07
9.11434e-08
-1.38483e-07
6.87135e-08
-1.42619e-07
2.06518e-08
-1.29149e-07
-3.37955e-08
-8.38129e-08
-1.66296e-07
-4.13953e-07
9.20172e-08
-5.05971e-07
1.43707e-07
-2.17986e-07
1.59816e-07
-4.99055e-08
1.55584e-07
2.4883e-08
1.38426e-07
8.58712e-08
1.15054e-07
1.14515e-07
9.00542e-08
1.21211e-07
6.62017e-08
1.14818e-07
4.48939e-08
1.01993e-07
2.6657e-08
8.68915e-08
1.15146e-08
7.18626e-08
-7.55188e-10
5.8029e-08
-1.04735e-08
4.58165e-08
-1.79766e-08
3.52638e-08
-2.35784e-08
2.62403e-08
-2.7555e-08
1.85496e-08
-3.0143e-08
1.19933e-08
-3.15427e-08
6.39199e-09
-3.19234e-08
1.59599e-09
-3.14297e-08
-2.51638e-09
-3.01859e-08
-6.04131e-09
-2.83003e-08
-9.05489e-09
-2.58691e-08
-1.16167e-08
-2.29781e-08
-1.37737e-08
-1.97058e-08
-1.55629e-08
-1.61241e-08
-1.70137e-08
-1.23004e-08
-1.81488e-08
-8.29823e-09
-1.89855e-08
-4.17851e-09
-1.95365e-08
-4.58716e-13
-1.981e-08
4.1776e-09
-1.981e-08
8.29734e-09
-1.95366e-08
1.22996e-08
-1.89857e-08
1.61233e-08
-1.8149e-08
1.97051e-08
-1.70141e-08
2.29775e-08
-1.55634e-08
2.58685e-08
-1.37742e-08
2.82999e-08
-1.16173e-08
3.01856e-08
-9.05548e-09
3.14296e-08
-6.04193e-09
3.19234e-08
-2.51705e-09
3.15428e-08
1.59533e-09
3.01433e-08
6.39129e-09
2.75554e-08
1.19926e-08
2.3579e-08
1.85489e-08
1.79773e-08
2.62396e-08
1.04744e-08
3.52631e-08
7.56171e-10
4.5816e-08
-1.15135e-08
5.80285e-08
-2.66558e-08
7.18621e-08
-4.48926e-08
8.68911e-08
-6.62004e-08
1.01993e-07
-9.00528e-08
1.14817e-07
-1.15053e-07
1.21212e-07
-1.38425e-07
1.14515e-07
-1.55583e-07
8.58719e-08
-1.59815e-07
2.48839e-08
-1.43707e-07
-4.99043e-08
-9.20169e-08
-2.17985e-07
-5.05969e-07
9.98412e-08
-6.05812e-07
1.5729e-07
-2.75436e-07
1.76069e-07
-6.86841e-08
1.71887e-07
2.90646e-08
1.53299e-07
1.04459e-07
1.27708e-07
1.40106e-07
1.00188e-07
1.48731e-07
7.38379e-08
1.41168e-07
5.02332e-08
1.25598e-07
2.99839e-08
1.07141e-07
1.31377e-08
8.87088e-08
-5.36183e-10
7.1703e-08
-1.13837e-08
5.6664e-08
-1.97713e-08
4.36514e-08
-2.60439e-08
3.25128e-08
-3.05058e-08
2.30115e-08
-3.34189e-08
1.49065e-08
-3.50054e-08
7.97847e-09
-3.54538e-08
2.04433e-09
-3.49247e-08
-3.04545e-09
-3.35569e-08
-7.40909e-09
-3.14715e-08
-1.11403e-08
-2.87755e-08
-1.43126e-08
-2.55653e-08
-1.69839e-08
-2.19282e-08
-1.92e-08
-1.7945e-08
-2.0997e-08
-1.36908e-08
-2.24029e-08
-9.23684e-09
-2.34395e-08
-4.65133e-09
-2.4122e-08
-5.10476e-13
-2.44608e-08
4.65032e-09
-2.44608e-08
9.23585e-09
-2.41222e-08
1.36898e-08
-2.34397e-08
1.79441e-08
-2.24033e-08
2.19274e-08
-2.09974e-08
2.55646e-08
-1.92005e-08
2.87749e-08
-1.69846e-08
3.1471e-08
-1.43133e-08
3.35566e-08
-1.11411e-08
3.49245e-08
-7.40985e-09
3.54538e-08
-3.04627e-09
3.50056e-08
2.04351e-09
3.34193e-08
7.97761e-09
3.05063e-08
1.49056e-08
2.60445e-08
2.30107e-08
1.97721e-08
3.2512e-08
1.13846e-08
4.36506e-08
5.37278e-10
5.66633e-08
-1.31365e-08
7.17023e-08
-2.99826e-08
8.87081e-08
-5.02318e-08
1.0714e-07
-7.38365e-08
1.25598e-07
-1.00187e-07
1.41168e-07
-1.27706e-07
1.48731e-07
-1.53298e-07
1.40107e-07
-1.71886e-07
1.0446e-07
-1.76068e-07
2.90657e-08
-1.5729e-07
-6.86827e-08
-9.98408e-08
-2.75434e-07
-6.0581e-07
1.06953e-07
-7.12764e-07
1.69793e-07
-3.38276e-07
1.91212e-07
-9.01034e-08
1.87239e-07
3.30381e-08
1.67427e-07
1.24271e-07
1.39823e-07
1.6771e-07
1.09967e-07
1.78587e-07
8.12667e-08
1.69868e-07
5.54783e-08
1.51386e-07
3.33003e-08
1.29319e-07
1.48102e-08
1.07199e-07
-2.26241e-10
8.67394e-08
-1.2175e-08
6.86128e-08
-2.14294e-08
5.29059e-08
-2.83625e-08
3.94459e-08
-3.33052e-08
2.79542e-08
-3.65433e-08
1.81445e-08
-3.83197e-08
9.75493e-09
-3.88414e-08
2.56596e-09
-3.82848e-08
-3.60197e-09
-3.68027e-08
-8.89123e-09
-3.45283e-08
-1.34147e-08
-3.15798e-08
-1.72611e-08
-2.80632e-08
-2.05004e-08
-2.40753e-08
-2.3188e-08
-1.97048e-08
-2.53674e-08
-1.5035e-08
-2.70727e-08
-1.01445e-08
-2.833e-08
-5.10863e-09
-2.91579e-08
-5.6052e-13
-2.95689e-08
5.10752e-09
-2.95689e-08
1.01434e-08
-2.91581e-08
1.5034e-08
-2.83302e-08
1.97039e-08
-2.70731e-08
2.40744e-08
-2.5368e-08
2.80625e-08
-2.31886e-08
3.15791e-08
-2.05012e-08
3.45278e-08
-1.7262e-08
3.68024e-08
-1.34156e-08
3.82846e-08
-8.89215e-09
3.88414e-08
-3.60297e-09
3.83199e-08
2.56496e-09
3.65436e-08
9.75389e-09
3.33058e-08
1.81434e-08
2.83632e-08
2.79532e-08
2.14303e-08
3.94449e-08
1.2176e-08
5.29049e-08
2.27444e-10
6.86119e-08
-1.48088e-08
8.67386e-08
-3.32988e-08
1.07198e-07
-5.54767e-08
1.29318e-07
-8.12651e-08
1.51386e-07
-1.09965e-07
1.69868e-07
-1.39822e-07
1.78588e-07
-1.67426e-07
1.67711e-07
-1.87237e-07
1.24272e-07
-1.91211e-07
3.30395e-08
-1.69792e-07
-9.01017e-08
-1.06952e-07
-3.38274e-07
-7.12762e-07
1.1318e-07
-8.25945e-07
1.81046e-07
-4.06141e-07
2.05081e-07
-1.14138e-07
2.01483e-07
3.66358e-08
1.80678e-07
1.45076e-07
1.51297e-07
1.9709e-07
1.19313e-07
2.10571e-07
8.84351e-08
2.00746e-07
6.05967e-08
1.79225e-07
3.65902e-08
1.53325e-07
1.6529e-08
1.2726e-07
1.8182e-10
1.03087e-07
-1.28326e-08
8.16272e-08
-2.29306e-08
6.30039e-08
-3.05102e-08
4.70255e-08
-3.59266e-08
3.33707e-08
-3.9488e-08
2.17059e-08
-4.1457e-08
1.1724e-08
-4.2058e-08
3.16694e-09
-4.14828e-08
-4.17722e-09
-3.98973e-08
-1.04767e-08
-3.74468e-08
-1.58652e-08
-3.42601e-08
-2.04478e-08
-3.04529e-08
-2.43076e-08
-2.61306e-08
-2.75103e-08
-2.13904e-08
-3.01076e-08
-1.63231e-08
-3.21401e-08
-1.10145e-08
-3.36386e-08
-5.54698e-09
-3.46254e-08
-6.08466e-13
-3.51152e-08
5.54578e-09
-3.51153e-08
1.10133e-08
-3.46256e-08
1.63219e-08
-3.36388e-08
2.13893e-08
-3.21405e-08
2.61296e-08
-3.01083e-08
3.04521e-08
-2.7511e-08
3.42594e-08
-2.43085e-08
3.74463e-08
-2.04489e-08
3.98969e-08
-1.58663e-08
4.14826e-08
-1.04778e-08
4.2058e-08
-4.17841e-09
4.14572e-08
3.16575e-09
3.94884e-08
1.17228e-08
3.59272e-08
2.17046e-08
3.0511e-08
3.33694e-08
2.29316e-08
4.70243e-08
1.28338e-08
6.30028e-08
-1.80514e-10
8.16262e-08
-1.65276e-08
1.03086e-07
-3.65886e-08
1.27259e-07
-6.0595e-08
1.53325e-07
-8.84333e-08
1.79224e-07
-1.19312e-07
2.00746e-07
-1.51296e-07
2.10572e-07
-1.80676e-07
1.97091e-07
-2.01482e-07
1.45078e-07
-2.0508e-07
3.66374e-08
-1.81045e-07
-1.14136e-07
-1.1318e-07
-4.06139e-07
-8.25942e-07
1.18459e-07
-9.44404e-07
1.90894e-07
-4.78576e-07
2.17516e-07
-1.4076e-07
2.14471e-07
3.96806e-08
1.92923e-07
1.66624e-07
1.62027e-07
2.27986e-07
1.28151e-07
2.44447e-07
9.52907e-08
2.33607e-07
6.55561e-08
2.08959e-07
3.98376e-08
1.79044e-07
1.82912e-08
1.48806e-07
6.94804e-10
1.20683e-07
-1.33424e-08
9.56644e-08
-2.42552e-08
7.39167e-08
-3.24634e-08
5.52336e-08
-3.8344e-08
3.92513e-08
-4.22256e-08
2.55874e-08
-4.43894e-08
1.38878e-08
-4.5076e-08
3.85351e-09
-4.44916e-08
-4.76155e-09
-4.28152e-08
-1.21531e-08
-4.02033e-08
-1.84771e-08
-3.6795e-08
-2.38562e-08
-3.27153e-08
-2.83874e-08
-2.80781e-08
-3.21474e-08
-2.29885e-08
-3.51971e-08
-1.75448e-08
-3.75838e-08
-1.184e-08
-3.93435e-08
-5.96301e-09
-4.05024e-08
-6.53952e-13
-4.10776e-08
5.96172e-09
-4.10777e-08
1.18387e-08
-4.05026e-08
1.75436e-08
-3.93438e-08
2.29874e-08
-3.75843e-08
2.80771e-08
-3.51979e-08
3.27144e-08
-3.21484e-08
3.67943e-08
-2.83884e-08
4.02028e-08
-2.38573e-08
4.28148e-08
-1.84784e-08
4.44914e-08
-1.21544e-08
4.5076e-08
-4.76293e-09
4.43896e-08
3.85211e-09
4.2226e-08
1.38863e-08
3.83446e-08
2.55859e-08
3.24642e-08
3.92498e-08
2.42563e-08
5.52323e-08
1.33437e-08
7.39154e-08
-6.93399e-10
9.56632e-08
-1.82896e-08
1.20682e-07
-3.98359e-08
1.48805e-07
-6.55543e-08
1.79043e-07
-9.52888e-08
2.08959e-07
-1.28149e-07
2.33607e-07
-1.62025e-07
2.44447e-07
-1.92921e-07
2.27987e-07
-2.14469e-07
1.66626e-07
-2.17514e-07
3.96825e-08
-1.90893e-07
-1.40758e-07
-1.18459e-07
-4.78573e-07
-9.44401e-07
1.22728e-07
-1.06713e-06
1.99205e-07
-5.55053e-07
2.28367e-07
-1.69923e-07
2.26059e-07
4.19887e-08
2.0404e-07
1.88644e-07
1.71915e-07
2.60112e-07
1.36408e-07
2.79954e-07
1.01783e-07
2.68232e-07
7.0325e-08
2.40417e-07
4.30268e-08
2.06342e-07
2.00933e-08
1.7174e-07
1.31891e-09
1.39457e-07
-1.36909e-08
1.10674e-07
-2.53845e-08
8.56103e-08
-3.41996e-08
6.40488e-08
-4.05325e-08
4.55842e-08
-4.47299e-08
2.97848e-08
-4.70901e-08
1.6248e-08
-4.78687e-08
4.63217e-09
-4.72858e-08
-5.34449e-09
-4.55322e-08
-1.39067e-08
-4.27753e-08
-2.1234e-08
-3.91641e-08
-2.74674e-08
-3.48324e-08
-3.2719e-08
-2.99023e-08
-3.70775e-08
-2.44867e-08
-4.06128e-08
-1.86909e-08
-4.33796e-08
-1.26145e-08
-4.54197e-08
-6.35349e-09
-4.67634e-08
-6.96617e-13
-4.74304e-08
6.3521e-09
-4.74305e-08
1.26132e-08
-4.67637e-08
1.86896e-08
-4.54201e-08
2.44855e-08
-4.33802e-08
2.99012e-08
-4.06137e-08
3.48314e-08
-3.70785e-08
3.91633e-08
-3.27203e-08
4.27747e-08
-2.74688e-08
4.55318e-08
-2.12354e-08
4.72856e-08
-1.39082e-08
4.78687e-08
-5.34607e-09
4.70903e-08
4.63055e-09
4.47303e-08
1.62463e-08
4.05331e-08
2.97831e-08
3.42005e-08
4.55825e-08
2.53856e-08
6.40472e-08
1.36922e-08
8.56088e-08
-1.31741e-09
1.10673e-07
-2.00917e-08
1.39456e-07
-4.30249e-08
1.71739e-07
-7.03231e-08
2.06341e-07
-1.01781e-07
2.40417e-07
-1.36406e-07
2.68232e-07
-1.71913e-07
2.79954e-07
-2.04038e-07
2.60113e-07
-2.26058e-07
1.88645e-07
-2.28366e-07
4.19909e-08
-1.99204e-07
-1.6992e-07
-1.22727e-07
-5.55049e-07
-1.06713e-06
1.25919e-07
-1.19305e-06
2.05866e-07
-6.35e-07
2.37503e-07
-2.0156e-07
2.3612e-07
4.33717e-08
2.13917e-07
2.10847e-07
1.8087e-07
2.93158e-07
1.44015e-07
3.16809e-07
1.07864e-07
3.04382e-07
7.4874e-08
2.73408e-07
4.61426e-08
2.35073e-07
2.19318e-08
1.95951e-07
2.05947e-09
1.5933e-07
-1.3866e-08
1.266e-07
-2.63014e-08
9.80457e-08
-3.56985e-08
7.34459e-08
-4.24693e-08
5.2355e-08
-4.69769e-08
3.42925e-08
-4.95346e-08
1.88056e-08
-5.0412e-08
5.50959e-09
-4.98417e-08
-5.91482e-09
-4.80258e-08
-1.57226e-08
-4.5142e-08
-2.41178e-08
-4.13485e-08
-3.12609e-08
-3.67876e-08
-3.728e-08
-3.15892e-08
-4.22758e-08
-2.58734e-08
-4.63286e-08
-1.97523e-08
-4.95007e-08
-1.33324e-08
-5.18397e-08
-6.71544e-09
-5.33804e-08
-7.36127e-13
-5.41451e-08
6.71398e-09
-5.41452e-08
1.33309e-08
-5.33806e-08
1.9751e-08
-5.18402e-08
2.58721e-08
-4.95014e-08
3.15881e-08
-4.63296e-08
3.67866e-08
-4.22771e-08
4.13477e-08
-3.72814e-08
4.51414e-08
-3.12625e-08
4.80254e-08
-2.41194e-08
4.98415e-08
-1.57243e-08
5.0412e-08
-5.91664e-09
4.95348e-08
5.50774e-09
4.69774e-08
1.88037e-08
4.247e-08
3.42905e-08
3.56994e-08
5.23531e-08
2.63026e-08
7.3444e-08
1.38674e-08
9.80439e-08
-2.05788e-09
1.26598e-07
-2.19301e-08
1.59328e-07
-4.61406e-08
1.95949e-07
-7.48719e-08
2.35072e-07
-1.07862e-07
2.73407e-07
-1.44013e-07
3.04382e-07
-1.80868e-07
3.1681e-07
-2.13915e-07
2.93159e-07
-2.36118e-07
2.10849e-07
-2.37502e-07
4.33742e-08
-2.05865e-07
-2.01557e-07
-1.25918e-07
-6.34996e-07
-1.19305e-06
1.2798e-07
-1.32103e-06
2.1079e-07
-7.1781e-07
2.44814e-07
-2.35584e-07
2.44546e-07
4.36399e-08
2.22459e-07
2.32934e-07
1.88816e-07
3.268e-07
1.50914e-07
3.54711e-07
1.13494e-07
3.41803e-07
7.91767e-08
3.07725e-07
4.91713e-08
2.65079e-07
2.3803e-08
2.21319e-07
2.92058e-09
1.80212e-07
-1.38578e-08
1.43378e-07
-2.69916e-08
1.1118e-07
-3.69425e-08
8.33967e-08
-4.41352e-08
5.95477e-08
-4.89461e-08
3.91034e-08
-5.1702e-08
2.15615e-08
-5.2685e-08
6.49259e-09
-5.21391e-08
-6.46073e-09
-5.02769e-08
-1.75848e-08
-4.72857e-08
-2.7109e-08
-4.33322e-08
-3.52145e-08
-3.85667e-08
-4.20455e-08
-3.31266e-08
-4.7716e-08
-2.71387e-08
-5.23165e-08
-2.07218e-08
-5.59176e-08
-1.39883e-08
-5.85732e-08
-7.04633e-09
-6.03224e-08
-7.72234e-13
-6.11907e-08
7.0448e-09
-6.11908e-08
1.39868e-08
-6.03227e-08
2.07203e-08
-5.85737e-08
2.71373e-08
-5.59184e-08
3.31254e-08
-5.23176e-08
3.85656e-08
-4.77173e-08
4.33313e-08
-4.2047e-08
4.7285e-08
-3.52162e-08
5.02765e-08
-2.71108e-08
5.21388e-08
-1.75867e-08
5.2685e-08
-6.46279e-09
5.17022e-08
6.49051e-09
4.89466e-08
2.15593e-08
4.41359e-08
3.91012e-08
3.69435e-08
5.95455e-08
2.69929e-08
8.33947e-08
1.38592e-08
1.11178e-07
-2.91892e-09
1.43376e-07
-2.38011e-08
1.80211e-07
-4.91693e-08
2.21317e-07
-7.91745e-08
2.65078e-07
-1.13492e-07
3.07724e-07
-1.50912e-07
3.41803e-07
-1.88814e-07
3.54712e-07
-2.22457e-07
3.26802e-07
-2.44544e-07
2.32936e-07
-2.44813e-07
4.36428e-08
-2.10789e-07
-2.35581e-07
-1.2798e-07
-7.17805e-07
-1.32103e-06
1.28884e-07
-1.44992e-06
2.1392e-07
-8.02845e-07
2.50226e-07
-2.7189e-07
2.51259e-07
4.26066e-08
2.29595e-07
2.54598e-07
1.95694e-07
3.60702e-07
1.57059e-07
3.93345e-07
1.18638e-07
3.80224e-07
8.32116e-08
3.43152e-07
5.21013e-08
2.96189e-07
2.57031e-08
2.47717e-07
3.90475e-09
2.02011e-07
-1.36589e-08
1.60942e-07
-2.74445e-08
1.24965e-07
-3.79186e-08
9.38708e-08
-4.55151e-08
6.71442e-08
-5.06216e-08
4.42099e-08
-5.3576e-08
2.45159e-08
-5.46715e-08
7.58809e-09
-5.41624e-08
-6.9699e-09
-5.22707e-08
-1.94764e-08
-4.91926e-08
-3.01872e-08
-4.51026e-08
-3.93044e-08
-4.01587e-08
-4.69894e-08
-3.4505e-08
-5.33696e-08
-2.8275e-08
-5.85466e-08
-2.15934e-08
-6.25992e-08
-1.45786e-08
-6.5588e-08
-7.34419e-09
-6.75567e-08
-8.04717e-13
-6.8534e-08
7.34259e-09
-6.85342e-08
1.4577e-08
-6.75571e-08
2.15919e-08
-6.55885e-08
2.82736e-08
-6.26001e-08
3.45038e-08
-5.85478e-08
4.01576e-08
-5.33712e-08
4.51017e-08
-4.69911e-08
4.91919e-08
-3.93064e-08
5.22703e-08
-3.01892e-08
5.41621e-08
-1.94786e-08
5.46715e-08
-6.97219e-09
5.35763e-08
7.58575e-09
5.06222e-08
2.45135e-08
4.55159e-08
4.42074e-08
3.79196e-08
6.71418e-08
2.74458e-08
9.38685e-08
1.36604e-08
1.24963e-07
-3.90301e-09
1.6094e-07
-2.57012e-08
2.02009e-07
-5.20992e-08
2.47715e-07
-8.32094e-08
2.96188e-07
-1.18636e-07
3.43151e-07
-1.57057e-07
3.80224e-07
-1.95691e-07
3.93346e-07
-2.29593e-07
3.60703e-07
-2.51257e-07
2.54601e-07
-2.50224e-07
4.26098e-08
-2.13919e-07
-2.71886e-07
-1.28884e-07
-8.02841e-07
-1.44991e-06
1.28639e-07
-1.57856e-06
2.1525e-07
-8.89456e-07
2.53706e-07
-3.10346e-07
2.56219e-07
4.0093e-08
2.35285e-07
2.75533e-07
2.01466e-07
3.94521e-07
1.62421e-07
4.3239e-07
1.23276e-07
4.19369e-07
8.69639e-08
3.79464e-07
5.49238e-08
3.28229e-07
2.76285e-08
2.75012e-07
5.0124e-09
2.24627e-07
-1.32659e-08
1.7922e-07
-2.76541e-08
1.39353e-07
-3.86191e-08
1.04836e-07
-4.66006e-08
7.51257e-08
-5.19943e-08
4.96035e-08
-5.51473e-08
2.76689e-08
-5.63622e-08
8.80301e-09
-5.59024e-08
-7.42975e-09
-5.39985e-08
-2.13803e-08
-5.08545e-08
-3.33312e-08
-4.66525e-08
-4.35064e-08
-4.15571e-08
-5.20847e-08
-3.57191e-08
-5.92077e-08
-2.92777e-08
-6.49879e-08
-2.23636e-08
-6.95132e-08
-1.51007e-08
-7.28509e-08
-7.60786e-09
-7.50496e-08
-8.33466e-13
-7.61411e-08
7.6062e-09
-7.61412e-08
1.50991e-08
-7.505e-08
2.23621e-08
-7.28516e-08
2.92763e-08
-6.95143e-08
3.57178e-08
-6.49893e-08
4.1556e-08
-5.92094e-08
4.66515e-08
-5.20867e-08
5.08538e-08
-4.35086e-08
5.3998e-08
-3.33335e-08
5.59021e-08
-2.13827e-08
5.63622e-08
-7.43229e-09
5.51476e-08
8.80042e-09
5.19948e-08
2.76662e-08
4.66015e-08
4.96008e-08
3.86202e-08
7.51231e-08
2.76554e-08
1.04833e-07
1.32675e-08
1.39351e-07
-5.0106e-09
1.79218e-07
-2.76265e-08
2.24625e-07
-5.49216e-08
2.75011e-07
-8.69616e-08
3.28228e-07
-1.23274e-07
3.79463e-07
-1.62419e-07
4.19369e-07
-2.01464e-07
4.32391e-07
-2.35283e-07
3.94523e-07
-2.56218e-07
2.75535e-07
-2.53704e-07
4.00966e-08
-2.15249e-07
-3.10342e-07
-1.28639e-07
-8.89451e-07
-1.57855e-06
1.27301e-07
-1.70586e-06
2.1483e-07
-9.76985e-07
2.55278e-07
-3.50794e-07
2.59436e-07
3.59351e-08
2.3953e-07
2.9544e-07
2.06128e-07
4.27922e-07
1.66992e-07
4.71526e-07
1.27399e-07
4.58962e-07
9.04271e-08
4.16436e-07
5.76338e-08
3.61022e-07
2.95757e-08
3.03071e-07
6.24138e-09
2.47961e-07
-1.26798e-08
1.98141e-07
-2.76206e-08
1.54294e-07
-3.90439e-08
1.16259e-07
-4.7391e-08
8.34728e-08
-5.30631e-08
5.52757e-08
-5.64146e-08
3.10204e-08
-5.77558e-08
1.01442e-08
-5.73579e-08
-7.82769e-09
-5.5459e-08
-2.32791e-08
-5.22704e-08
-3.65199e-08
-4.79807e-08
-4.77961e-08
-4.27611e-08
-5.73043e-08
-3.6768e-08
-6.52008e-08
-3.01463e-08
-7.16095e-08
-2.30322e-08
-7.66274e-08
-1.55545e-08
-8.03286e-08
-7.83719e-09
-8.27669e-08
-8.58463e-13
-8.39774e-08
7.83548e-09
-8.39775e-08
1.55529e-08
-8.27673e-08
2.30306e-08
-8.03293e-08
3.01449e-08
-7.66285e-08
3.67666e-08
-7.16111e-08
4.27599e-08
-6.52027e-08
4.79798e-08
-5.73065e-08
5.22696e-08
-4.77985e-08
5.54585e-08
-3.65224e-08
5.73576e-08
-2.32817e-08
5.77558e-08
-7.8305e-09
5.64149e-08
1.01414e-08
5.30637e-08
3.10174e-08
4.73918e-08
5.52726e-08
3.9045e-08
8.34699e-08
2.7622e-08
1.16256e-07
1.26814e-08
1.54291e-07
-6.23952e-09
1.98139e-07
-2.95737e-08
2.47959e-07
-5.76316e-08
3.03068e-07
-9.04248e-08
3.61021e-07
-1.27396e-07
4.16435e-07
-1.6699e-07
4.58962e-07
-2.06126e-07
4.71527e-07
-2.39527e-07
4.27924e-07
-2.59434e-07
2.95443e-07
-2.55277e-07
3.5939e-08
-2.14829e-07
-3.50789e-07
-1.27301e-07
-9.76979e-07
-1.70585e-06
1.2499e-07
-1.83085e-06
2.12781e-07
-1.06478e-06
2.55033e-07
-3.93046e-07
2.60978e-07
2.99901e-08
2.42376e-07
3.14041e-07
2.09713e-07
4.60586e-07
1.70792e-07
5.10447e-07
1.31018e-07
4.98736e-07
9.36054e-08
4.53848e-07
6.02312e-08
3.94397e-07
3.15417e-08
3.3176e-07
7.58652e-09
2.71916e-07
-1.19072e-08
2.17635e-07
-2.73518e-08
1.69739e-07
-3.92011e-08
1.28108e-07
-4.78949e-08
9.21666e-08
-5.3837e-08
6.12178e-08
-5.73869e-08
3.45703e-08
-5.88612e-08
1.16184e-08
-5.85374e-08
-8.15148e-09
-5.66605e-08
-2.5156e-08
-5.34478e-08
-3.97326e-08
-4.90942e-08
-5.21496e-08
-4.37766e-08
-6.2622e-08
-3.76568e-08
-7.13206e-08
-3.0885e-08
-7.83813e-08
-2.36022e-08
-8.39102e-08
-1.59421e-08
-8.79887e-08
-8.03325e-09
-9.06757e-08
-8.7986e-13
-9.20098e-08
8.03151e-09
-9.20099e-08
1.59404e-08
-9.06762e-08
2.36006e-08
-8.79895e-08
3.08835e-08
-8.39114e-08
3.76554e-08
-7.8383e-08
4.37754e-08
-7.13227e-08
4.90933e-08
-6.26244e-08
5.3447e-08
-5.21522e-08
5.666e-08
-3.97353e-08
5.85371e-08
-2.51589e-08
5.88612e-08
-8.15455e-09
5.73872e-08
1.16153e-08
5.38376e-08
3.45671e-08
4.78957e-08
6.12145e-08
3.92022e-08
9.21634e-08
2.73532e-08
1.28105e-07
1.19089e-08
1.69736e-07
-7.58462e-09
2.17632e-07