/*--------------------------------*- C++ -*----------------------------------*\
| =========                 |                                                 |
| \\      /  F ield         | foam-extend: Open Source CFD                    |
|  \\    /   O peration     | Version:     4.0                                |
|   \\  /    A nd           | Web:         http://www.foam-extend.org         |
|    \\/     M anipulation  |                                                 |
\*---------------------------------------------------------------------------*/
FoamFile
{
    version     2.0;
    format      ascii;
    class       volScalarField;
    location    "1840";
    object      cPlus;
}
// * * * * * * * * * * * * * * * * * * * * * * * * * * * * * * * * * * * * * //

dimensions      [0 0 0 0 0 0 0];

internalField   nonuniform List<scalar> 
6960
(
0.352228
0.352227
0.352226
0.352224
0.352223
0.352221
0.35222
0.352218
0.352217
0.352216
0.352214
0.352213
0.352212
0.352211
0.35221
0.35221
0.352209
0.352208
0.352207
0.352207
0.352206
0.352206
0.352205
0.352205
0.352205
0.352204
0.352204
0.352204
0.352204
0.352204
0.352204
0.352204
0.352204
0.352204
0.352204
0.352205
0.352205
0.352205
0.352206
0.352206
0.352207
0.352207
0.352208
0.352209
0.35221
0.35221
0.352211
0.352212
0.352213
0.352214
0.352216
0.352217
0.352218
0.35222
0.352221
0.352223
0.352224
0.352226
0.352227
0.352228
0.127955
0.127954
0.127953
0.127952
0.12795
0.127949
0.127948
0.127947
0.127945
0.127944
0.127943
0.127942
0.127942
0.127941
0.12794
0.127939
0.127939
0.127938
0.127937
0.127937
0.127937
0.127936
0.127936
0.127935
0.127935
0.127935
0.127935
0.127935
0.127935
0.127935
0.127935
0.127935
0.127935
0.127935
0.127935
0.127935
0.127935
0.127936
0.127936
0.127937
0.127937
0.127937
0.127938
0.127939
0.127939
0.12794
0.127941
0.127942
0.127942
0.127943
0.127944
0.127945
0.127947
0.127948
0.127949
0.12795
0.127952
0.127953
0.127954
0.127955
0.0550258
0.0550252
0.0550244
0.0550235
0.0550226
0.0550217
0.0550208
0.05502
0.0550192
0.0550185
0.0550178
0.0550172
0.0550166
0.055016
0.0550155
0.055015
0.0550145
0.0550141
0.0550137
0.0550134
0.0550131
0.0550128
0.0550126
0.0550124
0.0550122
0.055012
0.0550119
0.0550118
0.0550118
0.0550117
0.0550117
0.0550118
0.0550118
0.0550119
0.055012
0.0550122
0.0550124
0.0550126
0.0550128
0.0550131
0.0550134
0.0550137
0.0550141
0.0550145
0.055015
0.0550155
0.055016
0.0550166
0.0550172
0.0550178
0.0550185
0.0550192
0.05502
0.0550208
0.0550217
0.0550226
0.0550235
0.0550244
0.0550252
0.0550258
0.0259512
0.0259509
0.0259504
0.0259499
0.0259493
0.0259488
0.0259483
0.0259478
0.0259473
0.0259469
0.0259464
0.025946
0.0259457
0.0259453
0.025945
0.0259447
0.0259444
0.0259442
0.025944
0.0259437
0.0259436
0.0259434
0.0259432
0.0259431
0.025943
0.0259429
0.0259428
0.0259428
0.0259427
0.0259427
0.0259427
0.0259427
0.0259428
0.0259428
0.0259429
0.025943
0.0259431
0.0259432
0.0259434
0.0259436
0.0259437
0.025944
0.0259442
0.0259444
0.0259447
0.025945
0.0259453
0.0259457
0.025946
0.0259464
0.0259469
0.0259473
0.0259478
0.0259483
0.0259488
0.0259493
0.0259499
0.0259504
0.0259509
0.0259512
0.0134198
0.0134197
0.0134194
0.0134192
0.0134189
0.0134186
0.0134183
0.0134181
0.0134178
0.0134176
0.0134174
0.0134172
0.013417
0.0134168
0.0134166
0.0134165
0.0134163
0.0134162
0.0134161
0.013416
0.0134159
0.0134158
0.0134157
0.0134156
0.0134156
0.0134155
0.0134155
0.0134154
0.0134154
0.0134154
0.0134154
0.0134154
0.0134154
0.0134155
0.0134155
0.0134156
0.0134156
0.0134157
0.0134158
0.0134159
0.013416
0.0134161
0.0134162
0.0134163
0.0134165
0.0134166
0.0134168
0.013417
0.0134172
0.0134174
0.0134176
0.0134178
0.0134181
0.0134183
0.0134186
0.0134189
0.0134192
0.0134194
0.0134197
0.0134198
0.00788744
0.00788741
0.00788732
0.00788721
0.00788709
0.00788698
0.00788687
0.00788677
0.00788667
0.00788658
0.00788649
0.00788641
0.00788633
0.00788626
0.00788619
0.00788613
0.00788607
0.00788602
0.00788597
0.00788592
0.00788588
0.00788585
0.00788582
0.00788579
0.00788577
0.00788575
0.00788573
0.00788572
0.00788571
0.00788571
0.00788571
0.00788571
0.00788572
0.00788573
0.00788575
0.00788577
0.00788579
0.00788582
0.00788585
0.00788588
0.00788592
0.00788597
0.00788602
0.00788607
0.00788613
0.00788619
0.00788626
0.00788633
0.00788641
0.00788649
0.00788658
0.00788667
0.00788677
0.00788687
0.00788698
0.00788709
0.00788721
0.00788732
0.00788741
0.00788744
0.0054516
0.00545163
0.00545164
0.00545164
0.00545163
0.00545162
0.00545161
0.0054516
0.00545159
0.00545158
0.00545157
0.00545156
0.00545155
0.00545155
0.00545154
0.00545153
0.00545153
0.00545152
0.00545152
0.00545152
0.00545151
0.00545151
0.00545151
0.0054515
0.0054515
0.0054515
0.0054515
0.0054515
0.0054515
0.0054515
0.0054515
0.0054515
0.0054515
0.0054515
0.0054515
0.0054515
0.0054515
0.00545151
0.00545151
0.00545151
0.00545152
0.00545152
0.00545152
0.00545153
0.00545153
0.00545154
0.00545155
0.00545155
0.00545156
0.00545157
0.00545158
0.00545159
0.0054516
0.00545161
0.00545162
0.00545163
0.00545164
0.00545164
0.00545163
0.0054516
0.00439979
0.00439987
0.00439993
0.00439999
0.00440004
0.00440009
0.00440013
0.00440018
0.00440022
0.00440026
0.00440029
0.00440033
0.00440036
0.00440039
0.00440042
0.00440044
0.00440047
0.00440049
0.00440051
0.00440053
0.00440055
0.00440056
0.00440057
0.00440059
0.0044006
0.0044006
0.00440061
0.00440061
0.00440062
0.00440062
0.00440062
0.00440062
0.00440061
0.00440061
0.0044006
0.0044006
0.00440059
0.00440057
0.00440056
0.00440055
0.00440053
0.00440051
0.00440049
0.00440047
0.00440044
0.00440042
0.00440039
0.00440036
0.00440033
0.00440029
0.00440026
0.00440022
0.00440018
0.00440013
0.00440009
0.00440004
0.00439999
0.00439993
0.00439987
0.00439979
0.00396258
0.00396268
0.00396277
0.00396286
0.00396294
0.00396302
0.0039631
0.00396317
0.00396324
0.0039633
0.00396336
0.00396342
0.00396347
0.00396352
0.00396357
0.00396361
0.00396365
0.00396369
0.00396373
0.00396376
0.00396378
0.00396381
0.00396383
0.00396385
0.00396387
0.00396388
0.00396389
0.0039639
0.0039639
0.00396391
0.00396391
0.0039639
0.0039639
0.00396389
0.00396388
0.00396387
0.00396385
0.00396383
0.00396381
0.00396378
0.00396376
0.00396373
0.00396369
0.00396365
0.00396361
0.00396357
0.00396352
0.00396347
0.00396342
0.00396336
0.0039633
0.00396324
0.00396317
0.0039631
0.00396302
0.00396294
0.00396286
0.00396277
0.00396268
0.00396258
0.00379452
0.00379464
0.00379474
0.00379485
0.00379494
0.00379504
0.00379513
0.00379522
0.0037953
0.00379538
0.00379545
0.00379552
0.00379559
0.00379565
0.0037957
0.00379576
0.0037958
0.00379585
0.00379589
0.00379593
0.00379596
0.00379599
0.00379602
0.00379604
0.00379606
0.00379607
0.00379609
0.0037961
0.0037961
0.00379611
0.00379611
0.0037961
0.0037961
0.00379609
0.00379607
0.00379606
0.00379604
0.00379602
0.00379599
0.00379596
0.00379593
0.00379589
0.00379585
0.0037958
0.00379576
0.0037957
0.00379565
0.00379559
0.00379552
0.00379545
0.00379538
0.0037953
0.00379522
0.00379513
0.00379504
0.00379494
0.00379485
0.00379474
0.00379464
0.00379452
0.00374255
0.00374268
0.00374279
0.0037429
0.00374301
0.00374312
0.00374322
0.00374331
0.0037434
0.00374348
0.00374357
0.00374364
0.00374371
0.00374378
0.00374384
0.0037439
0.00374395
0.003744
0.00374404
0.00374408
0.00374412
0.00374415
0.00374418
0.0037442
0.00374423
0.00374424
0.00374426
0.00374427
0.00374428
0.00374428
0.00374428
0.00374428
0.00374427
0.00374426
0.00374424
0.00374423
0.0037442
0.00374418
0.00374415
0.00374412
0.00374408
0.00374404
0.003744
0.00374395
0.0037439
0.00374384
0.00374378
0.00374371
0.00374364
0.00374357
0.00374348
0.0037434
0.00374331
0.00374322
0.00374312
0.00374301
0.0037429
0.00374279
0.00374268
0.00374255
0.00374017
0.00374029
0.00374041
0.00374053
0.00374064
0.00374075
0.00374086
0.00374096
0.00374105
0.00374114
0.00374122
0.0037413
0.00374137
0.00374144
0.00374151
0.00374157
0.00374162
0.00374167
0.00374172
0.00374176
0.0037418
0.00374183
0.00374186
0.00374189
0.00374191
0.00374193
0.00374194
0.00374196
0.00374196
0.00374197
0.00374197
0.00374196
0.00374196
0.00374194
0.00374193
0.00374191
0.00374189
0.00374186
0.00374183
0.0037418
0.00374176
0.00374172
0.00374167
0.00374162
0.00374157
0.00374151
0.00374144
0.00374137
0.0037413
0.00374122
0.00374114
0.00374105
0.00374096
0.00374086
0.00374075
0.00374064
0.00374053
0.00374041
0.00374029
0.00374017
0.00375912
0.00375925
0.00375937
0.00375949
0.00375961
0.00375972
0.00375982
0.00375993
0.00376002
0.00376011
0.0037602
0.00376028
0.00376036
0.00376043
0.00376049
0.00376055
0.00376061
0.00376066
0.00376071
0.00376075
0.00376079
0.00376083
0.00376086
0.00376089
0.00376091
0.00376093
0.00376094
0.00376095
0.00376096
0.00376096
0.00376096
0.00376096
0.00376095
0.00376094
0.00376093
0.00376091
0.00376089
0.00376086
0.00376083
0.00376079
0.00376075
0.00376071
0.00376066
0.00376061
0.00376055
0.00376049
0.00376043
0.00376036
0.00376028
0.0037602
0.00376011
0.00376002
0.00375993
0.00375982
0.00375972
0.00375961
0.00375949
0.00375937
0.00375925
0.00375912
0.00378775
0.00378788
0.003788
0.00378812
0.00378824
0.00378836
0.00378846
0.00378857
0.00378867
0.00378876
0.00378885
0.00378893
0.00378901
0.00378908
0.00378915
0.00378921
0.00378927
0.00378932
0.00378937
0.00378941
0.00378945
0.00378949
0.00378952
0.00378955
0.00378957
0.00378959
0.0037896
0.00378961
0.00378962
0.00378963
0.00378963
0.00378962
0.00378961
0.0037896
0.00378959
0.00378957
0.00378955
0.00378952
0.00378949
0.00378945
0.00378941
0.00378937
0.00378932
0.00378927
0.00378921
0.00378915
0.00378908
0.00378901
0.00378893
0.00378885
0.00378876
0.00378867
0.00378857
0.00378846
0.00378836
0.00378824
0.00378812
0.003788
0.00378788
0.00378775
0.00382141
0.00382154
0.00382167
0.00382179
0.00382191
0.00382203
0.00382214
0.00382224
0.00382234
0.00382244
0.00382252
0.00382261
0.00382269
0.00382276
0.00382283
0.00382289
0.00382295
0.003823
0.00382305
0.0038231
0.00382314
0.00382318
0.00382321
0.00382323
0.00382326
0.00382328
0.00382329
0.00382331
0.00382331
0.00382332
0.00382332
0.00382331
0.00382331
0.00382329
0.00382328
0.00382326
0.00382323
0.00382321
0.00382318
0.00382314
0.0038231
0.00382305
0.003823
0.00382295
0.00382289
0.00382283
0.00382276
0.00382269
0.00382261
0.00382252
0.00382244
0.00382234
0.00382224
0.00382214
0.00382203
0.00382191
0.00382179
0.00382167
0.00382154
0.00382141
0.00385837
0.0038585
0.00385863
0.00385876
0.00385888
0.003859
0.00385911
0.00385922
0.00385932
0.00385941
0.0038595
0.00385959
0.00385967
0.00385974
0.00385981
0.00385988
0.00385994
0.00385999
0.00386004
0.00386009
0.00386013
0.00386016
0.0038602
0.00386022
0.00386025
0.00386027
0.00386028
0.0038603
0.0038603
0.00386031
0.00386031
0.0038603
0.0038603
0.00386028
0.00386027
0.00386025
0.00386022
0.0038602
0.00386016
0.00386013
0.00386009
0.00386004
0.00385999
0.00385994
0.00385988
0.00385981
0.00385974
0.00385967
0.00385959
0.0038595
0.00385941
0.00385932
0.00385922
0.00385911
0.003859
0.00385888
0.00385876
0.00385863
0.0038585
0.00385837
0.00389808
0.00389822
0.00389835
0.00389848
0.0038986
0.00389872
0.00389883
0.00389894
0.00389904
0.00389914
0.00389923
0.00389932
0.0038994
0.00389948
0.00389955
0.00389961
0.00389967
0.00389973
0.00389978
0.00389983
0.00389987
0.0038999
0.00389994
0.00389997
0.00389999
0.00390001
0.00390003
0.00390004
0.00390005
0.00390005
0.00390005
0.00390005
0.00390004
0.00390003
0.00390001
0.00389999
0.00389997
0.00389994
0.0038999
0.00389987
0.00389983
0.00389978
0.00389973
0.00389967
0.00389961
0.00389955
0.00389948
0.0038994
0.00389932
0.00389923
0.00389914
0.00389904
0.00389894
0.00389883
0.00389872
0.0038986
0.00389848
0.00389835
0.00389822
0.00389808
0.00394047
0.00394061
0.00394075
0.00394087
0.003941
0.00394112
0.00394124
0.00394135
0.00394145
0.00394155
0.00394164
0.00394173
0.00394181
0.00394189
0.00394196
0.00394203
0.00394209
0.00394215
0.0039422
0.00394225
0.00394229
0.00394233
0.00394236
0.00394239
0.00394241
0.00394243
0.00394245
0.00394246
0.00394247
0.00394247
0.00394247
0.00394247
0.00394246
0.00394245
0.00394243
0.00394241
0.00394239
0.00394236
0.00394233
0.00394229
0.00394225
0.0039422
0.00394215
0.00394209
0.00394203
0.00394196
0.00394189
0.00394181
0.00394173
0.00394164
0.00394155
0.00394145
0.00394135
0.00394124
0.00394112
0.003941
0.00394087
0.00394075
0.00394061
0.00394047
0.00398567
0.00398581
0.00398595
0.00398608
0.00398621
0.00398633
0.00398645
0.00398656
0.00398667
0.00398677
0.00398687
0.00398695
0.00398704
0.00398712
0.00398719
0.00398726
0.00398732
0.00398738
0.00398743
0.00398748
0.00398752
0.00398756
0.00398759
0.00398762
0.00398765
0.00398767
0.00398769
0.0039877
0.00398771
0.00398771
0.00398771
0.00398771
0.0039877
0.00398769
0.00398767
0.00398765
0.00398762
0.00398759
0.00398756
0.00398752
0.00398748
0.00398743
0.00398738
0.00398732
0.00398726
0.00398719
0.00398712
0.00398704
0.00398695
0.00398687
0.00398677
0.00398667
0.00398656
0.00398645
0.00398633
0.00398621
0.00398608
0.00398595
0.00398581
0.00398567
0.0040339
0.00403405
0.00403419
0.00403432
0.00403445
0.00403458
0.0040347
0.00403481
0.00403492
0.00403502
0.00403512
0.00403521
0.0040353
0.00403538
0.00403545
0.00403552
0.00403558
0.00403564
0.0040357
0.00403575
0.00403579
0.00403583
0.00403586
0.00403589
0.00403592
0.00403594
0.00403596
0.00403597
0.00403598
0.00403598
0.00403598
0.00403598
0.00403597
0.00403596
0.00403594
0.00403592
0.00403589
0.00403586
0.00403583
0.00403579
0.00403575
0.0040357
0.00403564
0.00403558
0.00403552
0.00403545
0.00403538
0.0040353
0.00403521
0.00403512
0.00403502
0.00403492
0.00403481
0.0040347
0.00403458
0.00403445
0.00403432
0.00403419
0.00403405
0.0040339
0.00408545
0.0040856
0.00408574
0.00408588
0.00408601
0.00408614
0.00408626
0.00408638
0.00408649
0.0040866
0.00408669
0.00408679
0.00408687
0.00408696
0.00408703
0.0040871
0.00408717
0.00408723
0.00408728
0.00408733
0.00408738
0.00408742
0.00408745
0.00408748
0.00408751
0.00408753
0.00408755
0.00408756
0.00408757
0.00408757
0.00408757
0.00408757
0.00408756
0.00408755
0.00408753
0.00408751
0.00408748
0.00408745
0.00408742
0.00408738
0.00408733
0.00408728
0.00408723
0.00408717
0.0040871
0.00408703
0.00408696
0.00408687
0.00408679
0.00408669
0.0040866
0.00408649
0.00408638
0.00408626
0.00408614
0.00408601
0.00408588
0.00408574
0.0040856
0.00408545
0.00414065
0.0041408
0.00414095
0.00414109
0.00414122
0.00414135
0.00414148
0.0041416
0.00414171
0.00414182
0.00414192
0.00414201
0.0041421
0.00414218
0.00414226
0.00414233
0.0041424
0.00414246
0.00414252
0.00414257
0.00414261
0.00414265
0.00414269
0.00414272
0.00414275
0.00414277
0.00414279
0.0041428
0.00414281
0.00414281
0.00414281
0.00414281
0.0041428
0.00414279
0.00414277
0.00414275
0.00414272
0.00414269
0.00414265
0.00414261
0.00414257
0.00414252
0.00414246
0.0041424
0.00414233
0.00414226
0.00414218
0.0041421
0.00414201
0.00414192
0.00414182
0.00414171
0.0041416
0.00414148
0.00414135
0.00414122
0.00414109
0.00414095
0.0041408
0.00414065
0.00419988
0.00420003
0.00420018
0.00420032
0.00420046
0.0042006
0.00420072
0.00420085
0.00420096
0.00420107
0.00420117
0.00420127
0.00420136
0.00420145
0.00420152
0.0042016
0.00420167
0.00420173
0.00420179
0.00420184
0.00420188
0.00420193
0.00420196
0.004202
0.00420202
0.00420205
0.00420206
0.00420208
0.00420209
0.00420209
0.00420209
0.00420209
0.00420208
0.00420206
0.00420205
0.00420202
0.004202
0.00420196
0.00420193
0.00420188
0.00420184
0.00420179
0.00420173
0.00420167
0.0042016
0.00420152
0.00420145
0.00420136
0.00420127
0.00420117
0.00420107
0.00420096
0.00420085
0.00420072
0.0042006
0.00420046
0.00420032
0.00420018
0.00420003
0.00419988
0.00426357
0.00426373
0.00426389
0.00426403
0.00426418
0.00426431
0.00426444
0.00426457
0.00426469
0.0042648
0.0042649
0.004265
0.0042651
0.00426518
0.00426526
0.00426534
0.00426541
0.00426547
0.00426553
0.00426558
0.00426563
0.00426567
0.00426571
0.00426575
0.00426577
0.0042658
0.00426582
0.00426583
0.00426584
0.00426584
0.00426584
0.00426584
0.00426583
0.00426582
0.0042658
0.00426577
0.00426575
0.00426571
0.00426567
0.00426563
0.00426558
0.00426553
0.00426547
0.00426541
0.00426534
0.00426526
0.00426518
0.0042651
0.004265
0.0042649
0.0042648
0.00426469
0.00426457
0.00426444
0.00426431
0.00426418
0.00426403
0.00426389
0.00426373
0.00426357
0.00433225
0.00433242
0.00433258
0.00433273
0.00433287
0.00433301
0.00433315
0.00433327
0.0043334
0.00433351
0.00433362
0.00433372
0.00433382
0.00433391
0.00433399
0.00433407
0.00433414
0.0043342
0.00433426
0.00433432
0.00433437
0.00433441
0.00433445
0.00433448
0.00433451
0.00433454
0.00433456
0.00433457
0.00433458
0.00433458
0.00433458
0.00433458
0.00433457
0.00433456
0.00433454
0.00433451
0.00433448
0.00433445
0.00433441
0.00433437
0.00433432
0.00433426
0.0043342
0.00433414
0.00433407
0.00433399
0.00433391
0.00433382
0.00433372
0.00433362
0.00433351
0.0043334
0.00433327
0.00433315
0.00433301
0.00433287
0.00433273
0.00433258
0.00433242
0.00433225
0.00440651
0.00440668
0.00440684
0.004407
0.00440715
0.00440729
0.00440743
0.00440756
0.00440769
0.0044078
0.00440792
0.00440802
0.00440812
0.00440821
0.0044083
0.00440838
0.00440845
0.00440852
0.00440858
0.00440863
0.00440869
0.00440873
0.00440877
0.00440881
0.00440884
0.00440886
0.00440888
0.00440889
0.0044089
0.00440891
0.00440891
0.0044089
0.00440889
0.00440888
0.00440886
0.00440884
0.00440881
0.00440877
0.00440873
0.00440869
0.00440863
0.00440858
0.00440852
0.00440845
0.00440838
0.0044083
0.00440821
0.00440812
0.00440802
0.00440792
0.0044078
0.00440769
0.00440756
0.00440743
0.00440729
0.00440715
0.004407
0.00440684
0.00440668
0.00440651
0.00448704
0.00448722
0.00448738
0.00448754
0.0044877
0.00448785
0.00448799
0.00448813
0.00448825
0.00448838
0.00448849
0.0044886
0.0044887
0.00448879
0.00448888
0.00448896
0.00448904
0.00448911
0.00448917
0.00448923
0.00448928
0.00448933
0.00448937
0.00448941
0.00448944
0.00448946
0.00448948
0.0044895
0.00448951
0.00448951
0.00448951
0.00448951
0.0044895
0.00448948
0.00448946
0.00448944
0.00448941
0.00448937
0.00448933
0.00448928
0.00448923
0.00448917
0.00448911
0.00448904
0.00448896
0.00448888
0.00448879
0.0044887
0.0044886
0.00448849
0.00448838
0.00448825
0.00448813
0.00448799
0.00448785
0.0044877
0.00448754
0.00448738
0.00448722
0.00448704
0.00457467
0.00457485
0.00457502
0.00457519
0.00457535
0.0045755
0.00457565
0.00457579
0.00457592
0.00457605
0.00457616
0.00457628
0.00457638
0.00457648
0.00457657
0.00457665
0.00457673
0.0045768
0.00457687
0.00457693
0.00457698
0.00457703
0.00457707
0.00457711
0.00457714
0.00457717
0.00457719
0.0045772
0.00457722
0.00457722
0.00457722
0.00457722
0.0045772
0.00457719
0.00457717
0.00457714
0.00457711
0.00457707
0.00457703
0.00457698
0.00457693
0.00457687
0.0045768
0.00457673
0.00457665
0.00457657
0.00457648
0.00457638
0.00457628
0.00457616
0.00457605
0.00457592
0.00457579
0.00457565
0.0045755
0.00457535
0.00457519
0.00457502
0.00457485
0.00457467
0.00467036
0.00467055
0.00467073
0.0046709
0.00467106
0.00467122
0.00467138
0.00467152
0.00467166
0.00467179
0.00467191
0.00467203
0.00467214
0.00467224
0.00467233
0.00467242
0.0046725
0.00467257
0.00467264
0.0046727
0.00467276
0.00467281
0.00467285
0.00467289
0.00467293
0.00467295
0.00467297
0.00467299
0.004673
0.00467301
0.00467301
0.004673
0.00467299
0.00467297
0.00467295
0.00467293
0.00467289
0.00467285
0.00467281
0.00467276
0.0046727
0.00467264
0.00467257
0.0046725
0.00467242
0.00467233
0.00467224
0.00467214
0.00467203
0.00467191
0.00467179
0.00467166
0.00467152
0.00467138
0.00467122
0.00467106
0.0046709
0.00467073
0.00467055
0.00467036
0.00477529
0.00477549
0.00477567
0.00477585
0.00477602
0.00477619
0.00477635
0.0047765
0.00477664
0.00477677
0.0047769
0.00477702
0.00477713
0.00477724
0.00477734
0.00477743
0.00477751
0.00477759
0.00477766
0.00477773
0.00477778
0.00477784
0.00477788
0.00477792
0.00477796
0.00477798
0.00477801
0.00477802
0.00477803
0.00477804
0.00477804
0.00477803
0.00477802
0.00477801
0.00477798
0.00477796
0.00477792
0.00477788
0.00477784
0.00477778
0.00477773
0.00477766
0.00477759
0.00477751
0.00477743
0.00477734
0.00477724
0.00477713
0.00477702
0.0047769
0.00477677
0.00477664
0.0047765
0.00477635
0.00477619
0.00477602
0.00477585
0.00477567
0.00477549
0.00477529
0.00489087
0.00489108
0.00489127
0.00489145
0.00489163
0.0048918
0.00489197
0.00489213
0.00489227
0.00489242
0.00489255
0.00489267
0.00489279
0.0048929
0.004893
0.0048931
0.00489319
0.00489327
0.00489334
0.00489341
0.00489347
0.00489352
0.00489357
0.00489361
0.00489365
0.00489368
0.0048937
0.00489372
0.00489373
0.00489373
0.00489373
0.00489373
0.00489372
0.0048937
0.00489368
0.00489365
0.00489361
0.00489357
0.00489352
0.00489347
0.00489341
0.00489334
0.00489327
0.00489319
0.0048931
0.004893
0.0048929
0.00489279
0.00489267
0.00489255
0.00489242
0.00489227
0.00489213
0.00489197
0.0048918
0.00489163
0.00489145
0.00489127
0.00489108
0.00489087
0.00501882
0.00501904
0.00501924
0.00501943
0.00501962
0.0050198
0.00501997
0.00502013
0.00502029
0.00502044
0.00502058
0.00502071
0.00502083
0.00502095
0.00502105
0.00502115
0.00502124
0.00502133
0.00502141
0.00502148
0.00502154
0.0050216
0.00502165
0.00502169
0.00502173
0.00502176
0.00502178
0.0050218
0.00502181
0.00502182
0.00502182
0.00502181
0.0050218
0.00502178
0.00502176
0.00502173
0.00502169
0.00502165
0.0050216
0.00502154
0.00502148
0.00502141
0.00502133
0.00502124
0.00502115
0.00502105
0.00502095
0.00502083
0.00502071
0.00502058
0.00502044
0.00502029
0.00502013
0.00501997
0.0050198
0.00501962
0.00501943
0.00501924
0.00501904
0.00501882
0.00516127
0.0051615
0.00516171
0.00516191
0.00516211
0.0051623
0.00516248
0.00516266
0.00516282
0.00516297
0.00516312
0.00516326
0.00516339
0.00516351
0.00516362
0.00516373
0.00516382
0.00516391
0.00516399
0.00516407
0.00516413
0.00516419
0.00516425
0.00516429
0.00516433
0.00516436
0.00516439
0.00516441
0.00516442
0.00516443
0.00516443
0.00516442
0.00516441
0.00516439
0.00516436
0.00516433
0.00516429
0.00516425
0.00516419
0.00516413
0.00516407
0.00516399
0.00516391
0.00516382
0.00516373
0.00516362
0.00516351
0.00516339
0.00516326
0.00516312
0.00516297
0.00516282
0.00516266
0.00516248
0.0051623
0.00516211
0.00516191
0.00516171
0.0051615
0.00516127
0.00532089
0.00532113
0.00532136
0.00532157
0.00532178
0.00532198
0.00532217
0.00532235
0.00532253
0.00532269
0.00532285
0.00532299
0.00532313
0.00532326
0.00532338
0.00532349
0.00532359
0.00532368
0.00532377
0.00532385
0.00532392
0.00532398
0.00532404
0.00532408
0.00532412
0.00532416
0.00532419
0.00532421
0.00532422
0.00532423
0.00532423
0.00532422
0.00532421
0.00532419
0.00532416
0.00532412
0.00532408
0.00532404
0.00532398
0.00532392
0.00532385
0.00532377
0.00532368
0.00532359
0.00532349
0.00532338
0.00532326
0.00532313
0.00532299
0.00532285
0.00532269
0.00532253
0.00532235
0.00532217
0.00532198
0.00532178
0.00532157
0.00532136
0.00532113
0.00532089
0.00550106
0.00550132
0.00550155
0.00550178
0.00550201
0.00550222
0.00550242
0.00550262
0.0055028
0.00550297
0.00550314
0.00550329
0.00550344
0.00550358
0.0055037
0.00550382
0.00550393
0.00550403
0.00550412
0.0055042
0.00550428
0.00550434
0.0055044
0.00550446
0.0055045
0.00550454
0.00550456
0.00550459
0.0055046
0.00550461
0.00550461
0.0055046
0.00550459
0.00550456
0.00550454
0.0055045
0.00550446
0.0055044
0.00550434
0.00550428
0.0055042
0.00550412
0.00550403
0.00550393
0.00550382
0.0055037
0.00550358
0.00550344
0.00550329
0.00550314
0.00550297
0.0055028
0.00550262
0.00550242
0.00550222
0.00550201
0.00550178
0.00550155
0.00550132
0.00550106
0.00570614
0.00570641
0.00570667
0.00570691
0.00570715
0.00570738
0.00570759
0.0057078
0.005708
0.00570819
0.00570836
0.00570853
0.00570868
0.00570883
0.00570897
0.00570909
0.00570921
0.00570932
0.00570941
0.0057095
0.00570958
0.00570965
0.00570972
0.00570977
0.00570982
0.00570986
0.00570989
0.00570991
0.00570993
0.00570994
0.00570994
0.00570993
0.00570991
0.00570989
0.00570986
0.00570982
0.00570977
0.00570972
0.00570965
0.00570958
0.0057095
0.00570941
0.00570932
0.00570921
0.00570909
0.00570897
0.00570883
0.00570868
0.00570853
0.00570836
0.00570819
0.005708
0.0057078
0.00570759
0.00570738
0.00570715
0.00570691
0.00570667
0.00570641
0.00570614
0.00594184
0.00594214
0.00594241
0.00594268
0.00594293
0.00594318
0.00594342
0.00594364
0.00594385
0.00594406
0.00594425
0.00594443
0.00594459
0.00594475
0.0059449
0.00594503
0.00594516
0.00594527
0.00594538
0.00594548
0.00594556
0.00594564
0.00594571
0.00594577
0.00594582
0.00594586
0.0059459
0.00594592
0.00594594
0.00594595
0.00594595
0.00594594
0.00594592
0.0059459
0.00594586
0.00594582
0.00594577
0.00594571
0.00594564
0.00594556
0.00594548
0.00594538
0.00594527
0.00594516
0.00594503
0.0059449
0.00594475
0.00594459
0.00594443
0.00594425
0.00594406
0.00594385
0.00594364
0.00594342
0.00594318
0.00594293
0.00594268
0.00594241
0.00594214
0.00594184
0.00621584
0.00621616
0.00621646
0.00621674
0.00621702
0.00621729
0.00621755
0.0062178
0.00621803
0.00621825
0.00621846
0.00621865
0.00621884
0.00621901
0.00621917
0.00621932
0.00621945
0.00621958
0.0062197
0.0062198
0.0062199
0.00621998
0.00622005
0.00622012
0.00622017
0.00622022
0.00622026
0.00622028
0.0062203
0.00622031
0.00622031
0.0062203
0.00622028
0.00622026
0.00622022
0.00622017
0.00622012
0.00622005
0.00621998
0.0062199
0.0062198
0.0062197
0.00621958
0.00621945
0.00621932
0.00621917
0.00621901
0.00621884
0.00621865
0.00621846
0.00621825
0.00621803
0.0062178
0.00621755
0.00621729
0.00621702
0.00621674
0.00621646
0.00621616
0.00621584
0.0065386
0.00653896
0.00653928
0.0065396
0.00653991
0.00654021
0.00654049
0.00654076
0.00654102
0.00654127
0.00654149
0.00654171
0.00654191
0.0065421
0.00654228
0.00654244
0.0065426
0.00654274
0.00654286
0.00654298
0.00654308
0.00654318
0.00654326
0.00654333
0.00654339
0.00654344
0.00654349
0.00654352
0.00654354
0.00654355
0.00654355
0.00654354
0.00654352
0.00654349
0.00654344
0.00654339
0.00654333
0.00654326
0.00654318
0.00654308
0.00654298
0.00654286
0.00654274
0.0065426
0.00654244
0.00654228
0.0065421
0.00654191
0.00654171
0.00654149
0.00654127
0.00654102
0.00654076
0.00654049
0.00654021
0.00653991
0.0065396
0.00653928
0.00653896
0.0065386
0.00692482
0.00692521
0.00692558
0.00692594
0.00692629
0.00692662
0.00692694
0.00692724
0.00692753
0.0069278
0.00692806
0.0069283
0.00692853
0.00692874
0.00692894
0.00692913
0.0069293
0.00692945
0.0069296
0.00692973
0.00692984
0.00692995
0.00693004
0.00693012
0.00693019
0.00693025
0.00693029
0.00693033
0.00693035
0.00693036
0.00693036
0.00693035
0.00693033
0.00693029
0.00693025
0.00693019
0.00693012
0.00693004
0.00692995
0.00692984
0.00692973
0.0069296
0.00692945
0.0069293
0.00692913
0.00692894
0.00692874
0.00692853
0.0069283
0.00692806
0.0069278
0.00692753
0.00692724
0.00692694
0.00692662
0.00692629
0.00692594
0.00692558
0.00692521
0.00692482
0.00739547
0.00739592
0.00739634
0.00739675
0.00739714
0.00739752
0.00739789
0.00739823
0.00739856
0.00739888
0.00739917
0.00739945
0.00739971
0.00739995
0.00740018
0.00740039
0.00740058
0.00740076
0.00740092
0.00740107
0.00740121
0.00740133
0.00740143
0.00740153
0.0074016
0.00740167
0.00740172
0.00740176
0.00740179
0.0074018
0.0074018
0.00740179
0.00740176
0.00740172
0.00740167
0.0074016
0.00740153
0.00740143
0.00740133
0.00740121
0.00740107
0.00740092
0.00740076
0.00740058
0.00740039
0.00740018
0.00739995
0.00739971
0.00739945
0.00739917
0.00739888
0.00739856
0.00739823
0.00739789
0.00739752
0.00739714
0.00739675
0.00739634
0.00739592
0.00739547
0.00798096
0.00798148
0.00798197
0.00798244
0.0079829
0.00798335
0.00798377
0.00798418
0.00798456
0.00798493
0.00798527
0.00798559
0.0079859
0.00798618
0.00798645
0.00798669
0.00798692
0.00798713
0.00798732
0.00798749
0.00798765
0.00798779
0.00798791
0.00798802
0.00798811
0.00798819
0.00798825
0.0079883
0.00798833
0.00798834
0.00798834
0.00798833
0.0079883
0.00798825
0.00798819
0.00798811
0.00798802
0.00798791
0.00798779
0.00798765
0.00798749
0.00798732
0.00798713
0.00798692
0.00798669
0.00798645
0.00798618
0.0079859
0.00798559
0.00798527
0.00798493
0.00798456
0.00798418
0.00798377
0.00798335
0.0079829
0.00798244
0.00798197
0.00798148
0.00798096
0.00872529
0.0087259
0.00872648
0.00872705
0.0087276
0.00872813
0.00872864
0.00872913
0.00872959
0.00873002
0.00873043
0.00873082
0.00873118
0.00873152
0.00873184
0.00873213
0.00873241
0.00873266
0.00873289
0.00873309
0.00873328
0.00873345
0.0087336
0.00873373
0.00873384
0.00873393
0.008734
0.00873405
0.00873409
0.00873411
0.00873411
0.00873409
0.00873405
0.008734
0.00873393
0.00873384
0.00873373
0.0087336
0.00873345
0.00873328
0.00873309
0.00873289
0.00873266
0.00873241
0.00873213
0.00873184
0.00873152
0.00873118
0.00873082
0.00873043
0.00873002
0.00872959
0.00872913
0.00872864
0.00872813
0.0087276
0.00872705
0.00872648
0.0087259
0.00872529
0.00969056
0.0096913
0.00969202
0.00969271
0.00969338
0.00969403
0.00969466
0.00969525
0.00969581
0.00969635
0.00969685
0.00969732
0.00969777
0.00969819
0.00969857
0.00969893
0.00969927
0.00969957
0.00969985
0.00970011
0.00970034
0.00970054
0.00970072
0.00970088
0.00970102
0.00970113
0.00970122
0.00970128
0.00970133
0.00970135
0.00970135
0.00970133
0.00970128
0.00970122
0.00970113
0.00970102
0.00970088
0.00970072
0.00970054
0.00970034
0.00970011
0.00969985
0.00969957
0.00969927
0.00969893
0.00969857
0.00969819
0.00969777
0.00969732
0.00969685
0.00969635
0.00969581
0.00969525
0.00969466
0.00969403
0.00969338
0.00969271
0.00969202
0.0096913
0.00969056
0.0109594
0.0109603
0.0109612
0.010962
0.0109629
0.0109637
0.0109645
0.0109652
0.0109659
0.0109666
0.0109672
0.0109678
0.0109683
0.0109689
0.0109693
0.0109698
0.0109702
0.0109706
0.0109709
0.0109713
0.0109716
0.0109718
0.010972
0.0109722
0.0109724
0.0109725
0.0109726
0.0109727
0.0109728
0.0109728
0.0109728
0.0109728
0.0109727
0.0109726
0.0109725
0.0109724
0.0109722
0.010972
0.0109718
0.0109716
0.0109713
0.0109709
0.0109706
0.0109702
0.0109698
0.0109693
0.0109689
0.0109683
0.0109678
0.0109672
0.0109666
0.0109659
0.0109652
0.0109645
0.0109637
0.0109629
0.010962
0.0109612
0.0109603
0.0109594
0.0126305
0.0126316
0.0126328
0.0126338
0.0126349
0.0126359
0.0126369
0.0126378
0.0126387
0.0126396
0.0126403
0.0126411
0.0126418
0.0126424
0.0126431
0.0126436
0.0126441
0.0126446
0.0126451
0.0126455
0.0126458
0.0126462
0.0126464