/*--------------------------------*- C++ -*----------------------------------*\
| =========                 |                                                 |
| \\      /  F ield         | foam-extend: Open Source CFD                    |
|  \\    /   O peration     | Version:     4.0                                |
|   \\  /    A nd           | Web:         http://www.foam-extend.org         |
|    \\/     M anipulation  |                                                 |
\*---------------------------------------------------------------------------*/
FoamFile
{
    version     2.0;
    format      ascii;
    class       volScalarField;
    location    "290";
    object      cMinus;
}
// * * * * * * * * * * * * * * * * * * * * * * * * * * * * * * * * * * * * * //

dimensions      [0 0 0 0 0 0 0];

internalField   nonuniform List<scalar> 
6960
(
1.09004e-09
1.09085e-09
1.091e-09
1.09118e-09
1.09136e-09
1.09154e-09
1.09171e-09
1.09186e-09
1.092e-09
1.09213e-09
1.09225e-09
1.09236e-09
1.09246e-09
1.09255e-09
1.09264e-09
1.09271e-09
1.09279e-09
1.09285e-09
1.09291e-09
1.09297e-09
1.09302e-09
1.09307e-09
1.09311e-09
1.09314e-09
1.09317e-09
1.0932e-09
1.09322e-09
1.09323e-09
1.09324e-09
1.09325e-09
1.09325e-09
1.09324e-09
1.09323e-09
1.09322e-09
1.0932e-09
1.09317e-09
1.09314e-09
1.09311e-09
1.09307e-09
1.09302e-09
1.09297e-09
1.09291e-09
1.09285e-09
1.09279e-09
1.09271e-09
1.09264e-09
1.09255e-09
1.09246e-09
1.09236e-09
1.09225e-09
1.09213e-09
1.092e-09
1.09186e-09
1.09171e-09
1.09154e-09
1.09136e-09
1.09118e-09
1.091e-09
1.09085e-09
1.09004e-09
9.38181e-09
9.39487e-09
9.39745e-09
9.39941e-09
9.40127e-09
9.40305e-09
9.40475e-09
9.40636e-09
9.40788e-09
9.40932e-09
9.41068e-09
9.41196e-09
9.41317e-09
9.41432e-09
9.41539e-09
9.41639e-09
9.41733e-09
9.4182e-09
9.41901e-09
9.41974e-09
9.42042e-09
9.42102e-09
9.42156e-09
9.42203e-09
9.42243e-09
9.42277e-09
9.42304e-09
9.42324e-09
9.42338e-09
9.42345e-09
9.42345e-09
9.42338e-09
9.42324e-09
9.42304e-09
9.42277e-09
9.42243e-09
9.42203e-09
9.42156e-09
9.42102e-09
9.42042e-09
9.41974e-09
9.41901e-09
9.4182e-09
9.41733e-09
9.41639e-09
9.41539e-09
9.41432e-09
9.41317e-09
9.41196e-09
9.41068e-09
9.40932e-09
9.40788e-09
9.40636e-09
9.40475e-09
9.40305e-09
9.40127e-09
9.39941e-09
9.39745e-09
9.39487e-09
9.38181e-09
5.81953e-08
5.83082e-08
5.83336e-08
5.8348e-08
5.83598e-08
5.83707e-08
5.83809e-08
5.83906e-08
5.83998e-08
5.84085e-08
5.84167e-08
5.84245e-08
5.84318e-08
5.84388e-08
5.84453e-08
5.84514e-08
5.84571e-08
5.84624e-08
5.84673e-08
5.84718e-08
5.84759e-08
5.84795e-08
5.84828e-08
5.84857e-08
5.84882e-08
5.84902e-08
5.84919e-08
5.84931e-08
5.84939e-08
5.84943e-08
5.84943e-08
5.84939e-08
5.84931e-08
5.84919e-08
5.84902e-08
5.84882e-08
5.84857e-08
5.84828e-08
5.84795e-08
5.84759e-08
5.84718e-08
5.84673e-08
5.84624e-08
5.84571e-08
5.84514e-08
5.84453e-08
5.84388e-08
5.84318e-08
5.84245e-08
5.84167e-08
5.84085e-08
5.83998e-08
5.83906e-08
5.83809e-08
5.83707e-08
5.83598e-08
5.8348e-08
5.83336e-08
5.83082e-08
5.81953e-08
3.29309e-07
3.30111e-07
3.30305e-07
3.30398e-07
3.30465e-07
3.30524e-07
3.3058e-07
3.30632e-07
3.30681e-07
3.30728e-07
3.30772e-07
3.30814e-07
3.30853e-07
3.3089e-07
3.30925e-07
3.30958e-07
3.30989e-07
3.31017e-07
3.31044e-07
3.31068e-07
3.3109e-07
3.31109e-07
3.31127e-07
3.31143e-07
3.31156e-07
3.31167e-07
3.31176e-07
3.31182e-07
3.31187e-07
3.31189e-07
3.31189e-07
3.31187e-07
3.31182e-07
3.31176e-07
3.31167e-07
3.31156e-07
3.31143e-07
3.31127e-07
3.31109e-07
3.3109e-07
3.31068e-07
3.31044e-07
3.31017e-07
3.30989e-07
3.30958e-07
3.30925e-07
3.3089e-07
3.30853e-07
3.30814e-07
3.30772e-07
3.30728e-07
3.30681e-07
3.30632e-07
3.3058e-07
3.30524e-07
3.30465e-07
3.30398e-07
3.30305e-07
3.30111e-07
3.29309e-07
1.74896e-06
1.75396e-06
1.75521e-06
1.75575e-06
1.75611e-06
1.75641e-06
1.75669e-06
1.75695e-06
1.75719e-06
1.75742e-06
1.75764e-06
1.75785e-06
1.75805e-06
1.75823e-06
1.7584e-06
1.75857e-06
1.75872e-06
1.75886e-06
1.75899e-06
1.75911e-06
1.75922e-06
1.75932e-06
1.75941e-06
1.75948e-06
1.75955e-06
1.7596e-06
1.75965e-06
1.75968e-06
1.7597e-06
1.75971e-06
1.75971e-06
1.7597e-06
1.75968e-06
1.75965e-06
1.7596e-06
1.75955e-06
1.75948e-06
1.75941e-06
1.75932e-06
1.75922e-06
1.75911e-06
1.75899e-06
1.75886e-06
1.75872e-06
1.75857e-06
1.7584e-06
1.75823e-06
1.75805e-06
1.75785e-06
1.75764e-06
1.75742e-06
1.75719e-06
1.75695e-06
1.75669e-06
1.75641e-06
1.75611e-06
1.75575e-06
1.75521e-06
1.75396e-06
1.74896e-06
8.66917e-06
8.6968e-06
8.70393e-06
8.70679e-06
8.70852e-06
8.70993e-06
8.71121e-06
8.7124e-06
8.71353e-06
8.71459e-06
8.7156e-06
8.71655e-06
8.71744e-06
8.71829e-06
8.71908e-06
8.71983e-06
8.72053e-06
8.72117e-06
8.72177e-06
8.72232e-06
8.72282e-06
8.72327e-06
8.72367e-06
8.72402e-06
8.72432e-06
8.72457e-06
8.72477e-06
8.72492e-06
8.72502e-06
8.72507e-06
8.72507e-06
8.72502e-06
8.72492e-06
8.72477e-06
8.72457e-06
8.72432e-06
8.72402e-06
8.72367e-06
8.72327e-06
8.72282e-06
8.72232e-06
8.72177e-06
8.72117e-06
8.72053e-06
8.71983e-06
8.71908e-06
8.71829e-06
8.71744e-06
8.71655e-06
8.7156e-06
8.71459e-06
8.71353e-06
8.7124e-06
8.71121e-06
8.70993e-06
8.70852e-06
8.70679e-06
8.70393e-06
8.6968e-06
8.66917e-06
3.9624e-05
3.97595e-05
3.97951e-05
3.98086e-05
3.98163e-05
3.98223e-05
3.98277e-05
3.98327e-05
3.98374e-05
3.98418e-05
3.9846e-05
3.985e-05
3.98537e-05
3.98573e-05
3.98606e-05
3.98637e-05
3.98666e-05
3.98693e-05
3.98718e-05
3.98741e-05
3.98762e-05
3.9878e-05
3.98797e-05
3.98812e-05
3.98824e-05
3.98835e-05
3.98843e-05
3.98849e-05
3.98854e-05
3.98856e-05
3.98856e-05
3.98854e-05
3.98849e-05
3.98843e-05
3.98835e-05
3.98824e-05
3.98812e-05
3.98797e-05
3.9878e-05
3.98762e-05
3.98741e-05
3.98718e-05
3.98693e-05
3.98666e-05
3.98637e-05
3.98606e-05
3.98573e-05
3.98537e-05
3.985e-05
3.9846e-05
3.98418e-05
3.98374e-05
3.98327e-05
3.98277e-05
3.98223e-05
3.98163e-05
3.98086e-05
3.97951e-05
3.97595e-05
3.9624e-05
0.000164747
0.000165331
0.000165487
0.000165543
0.000165574
0.000165597
0.000165617
0.000165636
0.000165654
0.00016567
0.000165686
0.000165701
0.000165715
0.000165728
0.00016574
0.000165752
0.000165763
0.000165773
0.000165782
0.000165791
0.000165799
0.000165806
0.000165812
0.000165817
0.000165822
0.000165826
0.000165829
0.000165832
0.000165833
0.000165834
0.000165834
0.000165833
0.000165832
0.000165829
0.000165826
0.000165822
0.000165817
0.000165812
0.000165806
0.000165799
0.000165791
0.000165782
0.000165773
0.000165763
0.000165752
0.00016574
0.000165728
0.000165715
0.000165701
0.000165686
0.00016567
0.000165654
0.000165636
0.000165617
0.000165597
0.000165574
0.000165543
0.000165487
0.000165331
0.000164747
0.000614251
0.000616443
0.000617033
0.00061724
0.000617346
0.000617424
0.000617491
0.000617554
0.000617613
0.000617668
0.00061772
0.000617769
0.000617815
0.000617859
0.0006179
0.000617938
0.000617974
0.000618008
0.000618038
0.000618067
0.000618092
0.000618115
0.000618136
0.000618154
0.000618169
0.000618182
0.000618193
0.0006182
0.000618206
0.000618208
0.000618208
0.000618206
0.0006182
0.000618193
0.000618182
0.000618169
0.000618154
0.000618136
0.000618115
0.000618092
0.000618067
0.000618038
0.000618008
0.000617974
0.000617938
0.0006179
0.000617859
0.000617815
0.000617769
0.00061772
0.000617668
0.000617613
0.000617554
0.000617491
0.000617424
0.000617346
0.00061724
0.000617033
0.000616443
0.000614251
0.00202385
0.00203089
0.0020328
0.00203345
0.00203377
0.002034
0.0020342
0.00203438
0.00203455
0.0020347
0.00203485
0.00203499
0.00203513
0.00203525
0.00203537
0.00203548
0.00203558
0.00203567
0.00203576
0.00203584
0.00203592
0.00203598
0.00203604
0.00203609
0.00203614
0.00203617
0.0020362
0.00203623
0.00203624
0.00203625
0.00203625
0.00203624
0.00203623
0.0020362
0.00203617
0.00203614
0.00203609
0.00203604
0.00203598
0.00203592
0.00203584
0.00203576
0.00203567
0.00203558
0.00203548
0.00203537
0.00203525
0.00203513
0.00203499
0.00203485
0.0020347
0.00203455
0.00203438
0.0020342
0.002034
0.00203377
0.00203345
0.0020328
0.00203089
0.00202385
0.00580972
0.00582882
0.00583402
0.00583576
0.00583658
0.00583714
0.00583762
0.00583806
0.00583847
0.00583885
0.00583922
0.00583956
0.00583988
0.00584018
0.00584047
0.00584073
0.00584098
0.00584121
0.00584143
0.00584162
0.0058418
0.00584196
0.0058421
0.00584223
0.00584233
0.00584242
0.00584249
0.00584255
0.00584258
0.0058426
0.0058426
0.00584258
0.00584255
0.00584249
0.00584242
0.00584233
0.00584223
0.0058421
0.00584196
0.0058418
0.00584162
0.00584143
0.00584121
0.00584098
0.00584073
0.00584047
0.00584018
0.00583988
0.00583956
0.00583922
0.00583885
0.00583847
0.00583806
0.00583762
0.00583714
0.00583658
0.00583576
0.00583402
0.00582882
0.00580972
0.0143639
0.014407
0.0144188
0.0144227
0.0144244
0.0144256
0.0144266
0.0144275
0.0144283
0.0144291
0.0144298
0.0144305
0.0144312
0.0144318
0.0144323
0.0144329
0.0144334
0.0144339
0.0144343
0.0144347
0.014435
0.0144354
0.0144357
0.0144359
0.0144361
0.0144363
0.0144364
0.0144366
0.0144366
0.0144367
0.0144367
0.0144366
0.0144366
0.0144364
0.0144363
0.0144361
0.0144359
0.0144357
0.0144354
0.014435
0.0144347
0.0144343
0.0144339
0.0144334
0.0144329
0.0144323
0.0144318
0.0144312
0.0144305
0.0144298
0.0144291
0.0144283
0.0144275
0.0144266
0.0144256
0.0144244
0.0144227
0.0144188
0.014407
0.0143639
0.0304267
0.0305072
0.0305294
0.0305365
0.0305396
0.0305416
0.0305433
0.0305448
0.0305462
0.0305475
0.0305487
0.0305499
0.030551
0.030552
0.030553
0.0305539
0.0305547
0.0305555
0.0305562
0.0305569
0.0305575
0.030558
0.0305585
0.0305589
0.0305593
0.0305596
0.0305598
0.03056
0.0305601
0.0305602
0.0305602
0.0305601
0.03056
0.0305598
0.0305596
0.0305593
0.0305589
0.0305585
0.030558
0.0305575
0.0305569
0.0305562
0.0305555
0.0305547
0.0305539
0.030553
0.030552
0.030551
0.0305499
0.0305487
0.0305475
0.0305462
0.0305448
0.0305433
0.0305416
0.0305396
0.0305365
0.0305294
0.0305072
0.0304267
0.0554843
0.0556103
0.0556451
0.0556561
0.0556608
0.0556637
0.0556661
0.0556682
0.0556701
0.055672
0.0556737
0.0556753
0.0556768
0.0556783
0.0556796
0.0556809
0.055682
0.0556831
0.0556841
0.0556851
0.0556859
0.0556867
0.0556873
0.0556879
0.0556884
0.0556888
0.0556892
0.0556894
0.0556896
0.0556897
0.0556897
0.0556896
0.0556894
0.0556892
0.0556888
0.0556884
0.0556879
0.0556873
0.0556867
0.0556859
0.0556851
0.0556841
0.0556831
0.055682
0.0556809
0.0556796
0.0556783
0.0556768
0.0556753
0.0556737
0.055672
0.0556701
0.0556682
0.0556661
0.0556637
0.0556608
0.0556561
0.0556451
0.0556103
0.0554843
0.0884973
0.0886673
0.0887144
0.0887292
0.0887352
0.0887388
0.0887416
0.0887442
0.0887465
0.0887487
0.0887508
0.0887527
0.0887545
0.0887562
0.0887578
0.0887594
0.0887608
0.0887621
0.0887633
0.0887644
0.0887654
0.0887663
0.0887671
0.0887678
0.0887684
0.0887689
0.0887693
0.0887696
0.0887698
0.0887699
0.0887699
0.0887698
0.0887696
0.0887693
0.0887689
0.0887684
0.0887678
0.0887671
0.0887663
0.0887654
0.0887644
0.0887633
0.0887621
0.0887608
0.0887594
0.0887578
0.0887562
0.0887545
0.0887527
0.0887508
0.0887487
0.0887465
0.0887442
0.0887416
0.0887388
0.0887352
0.0887292
0.0887144
0.0886673
0.0884973
0.126461
0.126667
0.126724
0.126742
0.126749
0.126753
0.126756
0.126759
0.126761
0.126764
0.126766
0.126768
0.12677
0.126772
0.126773
0.126775
0.126777
0.126778
0.126779
0.12678
0.126781
0.126782
0.126783
0.126784
0.126785
0.126785
0.126786
0.126786
0.126786
0.126786
0.126786
0.126786
0.126786
0.126786
0.126785
0.126785
0.126784
0.126783
0.126782
0.126781
0.12678
0.126779
0.126778
0.126777
0.126775
0.126773
0.126772
0.12677
0.126768
0.126766
0.126764
0.126761
0.126759
0.126756
0.126753
0.126749
0.126742
0.126724
0.126667
0.126461
0.166214
0.166446
0.166511
0.166532
0.166539
0.166543
0.166546
0.166549
0.166552
0.166554
0.166556
0.166558
0.16656
0.166562
0.166564
0.166565
0.166567
0.166568
0.166569
0.16657
0.166571
0.166572
0.166573
0.166574
0.166574
0.166575
0.166575
0.166576
0.166576
0.166576
0.166576
0.166576
0.166576
0.166575
0.166575
0.166574
0.166574
0.166573
0.166572
0.166571
0.16657
0.166569
0.166568
0.166567
0.166565
0.166564
0.166562
0.16656
0.166558
0.166556
0.166554
0.166552
0.166549
0.166546
0.166543
0.166539
0.166532
0.166511
0.166446
0.166214
0.205681
0.205934
0.206006
0.206028
0.206036
0.20604
0.206043
0.206046
0.206048
0.20605
0.206052
0.206054
0.206056
0.206058
0.206059
0.206061
0.206062
0.206064
0.206065
0.206066
0.206067
0.206068
0.206069
0.206069
0.20607
0.20607
0.206071
0.206071
0.206071
0.206071
0.206071
0.206071
0.206071
0.206071
0.20607
0.20607
0.206069
0.206069
0.206068
0.206067
0.206066
0.206065
0.206064
0.206062
0.206061
0.206059
0.206058
0.206056
0.206054
0.206052
0.20605
0.206048
0.206046
0.206043
0.20604
0.206036
0.206028
0.206006
0.205934
0.205681
0.243953
0.244222
0.2443
0.244324
0.244332
0.244337
0.244339
0.244342
0.244344
0.244346
0.244348
0.24435
0.244352
0.244353
0.244355
0.244356
0.244358
0.244359
0.24436
0.244361
0.244362
0.244363
0.244363
0.244364
0.244365
0.244365
0.244366
0.244366
0.244366
0.244366
0.244366
0.244366
0.244366
0.244366
0.244365
0.244365
0.244364
0.244363
0.244363
0.244362
0.244361
0.24436
0.244359
0.244358
0.244356
0.244355
0.244353
0.244352
0.24435
0.244348
0.244346
0.244344
0.244342
0.244339
0.244337
0.244332
0.244324
0.2443
0.244222
0.243953
0.280802
0.281086
0.281169
0.281194
0.281203
0.281207
0.28121
0.281213
0.281215
0.281217
0.281219
0.28122
0.281222
0.281223
0.281225
0.281226
0.281227
0.281228
0.281229
0.28123
0.281231
0.281232
0.281233
0.281233
0.281234
0.281234
0.281235
0.281235
0.281235
0.281235
0.281235
0.281235
0.281235
0.281235
0.281234
0.281234
0.281233
0.281233
0.281232
0.281231
0.28123
0.281229
0.281228
0.281227
0.281226
0.281225
0.281223
0.281222
0.28122
0.281219
0.281217
0.281215
0.281213
0.28121
0.281207
0.281203
0.281194
0.281169
0.281086
0.280802
0.316258
0.316556
0.316645
0.316672
0.316681
0.316685
0.316688
0.31669
0.316692
0.316694
0.316696
0.316697
0.316699
0.3167
0.316702
0.316703
0.316704
0.316705
0.316706
0.316707
0.316708
0.316708
0.316709
0.31671
0.31671
0.316711
0.316711
0.316711
0.316711
0.316711
0.316711
0.316711
0.316711
0.316711
0.316711
0.31671
0.31671
0.316709
0.316708
0.316708
0.316707
0.316706
0.316705
0.316704
0.316703
0.316702
0.3167
0.316699
0.316697
0.316696
0.316694
0.316692
0.31669
0.316688
0.316685
0.316681
0.316672
0.316645
0.316556
0.316258
0.350406
0.350715
0.35081
0.350838
0.350848
0.350852
0.350855
0.350857
0.350859
0.350861
0.350862
0.350864
0.350865
0.350867
0.350868
0.350869
0.35087
0.350871
0.350872
0.350873
0.350874
0.350874
0.350875
0.350875
0.350876
0.350876
0.350876
0.350877
0.350877
0.350877
0.350877
0.350877
0.350877
0.350876
0.350876
0.350876
0.350875
0.350875
0.350874
0.350874
0.350873
0.350872
0.350871
0.35087
0.350869
0.350868
0.350867
0.350865
0.350864
0.350862
0.350861
0.350859
0.350857
0.350855
0.350852
0.350848
0.350838
0.35081
0.350715
0.350406
0.383312
0.383632
0.383731
0.383762
0.383772
0.383777
0.383779
0.383781
0.383783
0.383785
0.383786
0.383788
0.383789
0.38379
0.383791
0.383792
0.383793
0.383794
0.383795
0.383796
0.383796
0.383797
0.383798
0.383798
0.383799
0.383799
0.383799
0.383799
0.3838
0.3838
0.3838
0.3838
0.383799
0.383799
0.383799
0.383799
0.383798
0.383798
0.383797
0.383796
0.383796
0.383795
0.383794
0.383793
0.383792
0.383791
0.38379
0.383789
0.383788
0.383786
0.383785
0.383783
0.383781
0.383779
0.383777
0.383772
0.383762
0.383731
0.383632
0.383312
0.415023
0.415353
0.415457
0.415489
0.4155
0.415504
0.415507
0.415509
0.415511
0.415512
0.415513
0.415515
0.415516
0.415517
0.415518
0.415519
0.41552
0.415521
0.415522
0.415522
0.415523
0.415524
0.415524
0.415525
0.415525
0.415525
0.415526
0.415526
0.415526
0.415526
0.415526
0.415526
0.415526
0.415526
0.415525
0.415525
0.415525
0.415524
0.415524
0.415523
0.415522
0.415522
0.415521
0.41552
0.415519
0.415518
0.415517
0.415516
0.415515
0.415513
0.415512
0.415511
0.415509
0.415507
0.415504
0.4155
0.415489
0.415457
0.415353
0.415023
0.445572
0.445909
0.446018
0.446052
0.446064
0.446068
0.44607
0.446072
0.446074
0.446075
0.446077
0.446078
0.446079
0.44608
0.446081
0.446082
0.446083
0.446084
0.446084
0.446085
0.446086
0.446086
0.446087
0.446087
0.446087
0.446088
0.446088
0.446088
0.446088
0.446088
0.446088
0.446088
0.446088
0.446088
0.446088
0.446087
0.446087
0.446087
0.446086
0.446086
0.446085
0.446084
0.446084
0.446083
0.446082
0.446081
0.44608
0.446079
0.446078
0.446077
0.446075
0.446074
0.446072
0.44607
0.446068
0.446064
0.446052
0.446018
0.445909
0.445572
0.474982
0.475326
0.47544
0.475476
0.475488
0.475492
0.475495
0.475496
0.475498
0.475499
0.4755
0.475502
0.475503
0.475504
0.475504
0.475505
0.475506
0.475507
0.475507
0.475508
0.475509
0.475509
0.47551
0.47551
0.47551
0.475511
0.475511
0.475511
0.475511
0.475511
0.475511
0.475511
0.475511
0.475511
0.475511
0.47551
0.47551
0.47551
0.475509
0.475509
0.475508
0.475507
0.475507
0.475506
0.475505
0.475504
0.475504
0.475503
0.475502
0.4755
0.475499
0.475498
0.475496
0.475495
0.475492
0.475488
0.475476
0.47544
0.475326
0.474982
0.503276
0.503625
0.503743
0.503781
0.503794
0.503798
0.503801
0.503802
0.503804
0.503805
0.503806
0.503807
0.503808
0.503809
0.50381
0.503811
0.503811
0.503812
0.503813
0.503813
0.503814
0.503814
0.503815
0.503815
0.503815
0.503816
0.503816
0.503816
0.503816
0.503816
0.503816
0.503816
0.503816
0.503816
0.503816
0.503815
0.503815
0.503815
0.503814
0.503814
0.503813
0.503813
0.503812
0.503811
0.503811
0.50381
0.503809
0.503808
0.503807
0.503806
0.503805
0.503804
0.503802
0.503801
0.503798
0.503794
0.503781
0.503743
0.503625
0.503276
0.530473
0.530827
0.530949
0.530988
0.531001
0.531006
0.531009
0.53101
0.531011
0.531013
0.531014
0.531015
0.531015
0.531016
0.531017
0.531018
0.531018
0.531019
0.53102
0.53102
0.531021
0.531021
0.531021
0.531022
0.531022
0.531022
0.531022
0.531023
0.531023
0.531023
0.531023
0.531023
0.531023
0.531022
0.531022
0.531022
0.531022
0.531021
0.531021
0.531021
0.53102
0.53102
0.531019
0.531018
0.531018
0.531017
0.531016
0.531015
0.531015
0.531014
0.531013
0.531011
0.53101
0.531009
0.531006
0.531001
0.530988
0.530949
0.530827
0.530473
0.556593
0.556949
0.557075
0.557117
0.55713
0.557135
0.557137
0.557139
0.55714
0.557141
0.557142
0.557143
0.557144
0.557145
0.557145
0.557146
0.557147
0.557147
0.557148
0.557148
0.557149
0.557149
0.557149
0.55715
0.55715
0.55715
0.55715
0.557151
0.557151
0.557151
0.557151
0.557151
0.557151
0.55715
0.55715
0.55715
0.55715
0.557149
0.557149
0.557149
0.557148
0.557148
0.557147
0.557147
0.557146
0.557145
0.557145
0.557144
0.557143
0.557142
0.557141
0.55714
0.557139
0.557137
0.557135
0.55713
0.557117
0.557075
0.556949
0.556593
0.581655
0.582013
0.582142
0.582185
0.5822
0.582205
0.582207
0.582209
0.58221
0.582211
0.582212
0.582212
0.582213
0.582214
0.582215
0.582215
0.582216
0.582216
0.582217
0.582217
0.582218
0.582218
0.582218
0.582219
0.582219
0.582219
0.582219
0.582219
0.582219
0.582219
0.582219
0.582219
0.582219
0.582219
0.582219
0.582219
0.582219
0.582218
0.582218
0.582218
0.582217
0.582217
0.582216
0.582216
0.582215
0.582215
0.582214
0.582213
0.582212
0.582212
0.582211
0.58221
0.582209
0.582207
0.582205
0.5822
0.582185
0.582142
0.582013
0.581655
0.605678
0.606038
0.60617
0.606215
0.60623
0.606235
0.606238
0.606239
0.60624
0.606241
0.606242
0.606243
0.606243
0.606244
0.606244
0.606245
0.606246
0.606246
0.606247
0.606247
0.606247
0.606248
0.606248
0.606248
0.606248
0.606249
0.606249
0.606249
0.606249
0.606249
0.606249
0.606249
0.606249
0.606249
0.606249
0.606248
0.606248
0.606248
0.606248
0.606247
0.606247
0.606247
0.606246
0.606246
0.606245
0.606244
0.606244
0.606243
0.606243
0.606242
0.606241
0.60624
0.606239
0.606238
0.606235
0.60623
0.606215
0.60617
0.606038
0.605678
0.628685
0.629044
0.629179
0.629226
0.629241
0.629247
0.629249
0.629251
0.629252
0.629252
0.629253
0.629254
0.629254
0.629255
0.629256
0.629256
0.629257
0.629257
0.629257
0.629258
0.629258
0.629258
0.629259
0.629259
0.629259
0.629259
0.62926
0.62926
0.62926
0.62926
0.62926
0.62926
0.62926
0.62926
0.629259
0.629259
0.629259
0.629259
0.629258
0.629258
0.629258
0.629257
0.629257
0.629257
0.629256
0.629256
0.629255
0.629254
0.629254
0.629253
0.629252
0.629252
0.629251
0.629249
0.629247
0.629241
0.629226
0.629179
0.629044
0.628685
0.650694
0.651052
0.65119
0.651238
0.651255
0.651261
0.651263
0.651264
0.651265
0.651266
0.651267
0.651267
0.651268
0.651269
0.651269
0.65127
0.65127
0.65127
0.651271
0.651271
0.651271
0.651272
0.651272
0.651272
0.651272
0.651272
0.651273
0.651273
0.651273
0.651273
0.651273
0.651273
0.651273
0.651273
0.651272
0.651272
0.651272
0.651272
0.651272
0.651271
0.651271
0.651271
0.65127
0.65127
0.65127
0.651269
0.651269
0.651268
0.651267
0.651267
0.651266
0.651265
0.651264
0.651263
0.651261
0.651255
0.651238
0.65119
0.651052
0.650694
0.671729
0.672085
0.672225
0.672275
0.672292
0.672298
0.672301
0.672302
0.672303
0.672304
0.672304
0.672305
0.672305
0.672306
0.672306
0.672307
0.672307
0.672308
0.672308
0.672308
0.672308
0.672309
0.672309
0.672309
0.672309
0.672309
0.67231
0.67231
0.67231
0.67231
0.67231
0.67231
0.67231
0.67231
0.672309
0.672309
0.672309
0.672309
0.672309
0.672308
0.672308
0.672308
0.672308
0.672307
0.672307
0.672306
0.672306
0.672305
0.672305
0.672304
0.672304
0.672303
0.672302
0.672301
0.672298
0.672292
0.672275
0.672225
0.672085
0.671729
0.691812
0.692165
0.692306
0.692358
0.692376
0.692382
0.692385
0.692386
0.692387
0.692387
0.692388
0.692388
0.692389
0.692389
0.69239
0.69239
0.692391
0.692391
0.692391
0.692392
0.692392
0.692392
0.692392
0.692392
0.692393
0.692393
0.692393
0.692393
0.692393
0.692393
0.692393
0.692393
0.692393
0.692393
0.692393
0.692393
0.692392
0.692392
0.692392
0.692392
0.692392
0.692391
0.692391
0.692391
0.69239
0.69239
0.692389
0.692389
0.692388
0.692388
0.692387
0.692387
0.692386
0.692385
0.692382
0.692376
0.692358
0.692306
0.692165
0.691812
0.710964
0.711313
0.711456
0.711509
0.711528
0.711535
0.711537
0.711539
0.711539
0.71154
0.711541
0.711541
0.711541
0.711542
0.711542
0.711543
0.711543
0.711543
0.711544
0.711544
0.711544
0.711544
0.711544
0.711545
0.711545
0.711545
0.711545
0.711545
0.711545
0.711545
0.711545
0.711545
0.711545
0.711545
0.711545
0.711545
0.711545
0.711544
0.711544
0.711544
0.711544
0.711544
0.711543
0.711543
0.711543
0.711542
0.711542
0.711541
0.711541
0.711541
0.71154
0.711539
0.711539
0.711537
0.711535
0.711528
0.711509
0.711456
0.711313
0.710964
0.72921
0.729554
0.729699
0.729753
0.729773
0.72978
0.729782
0.729784
0.729784
0.729785
0.729785
0.729786
0.729786
0.729787
0.729787
0.729787
0.729788
0.729788
0.729788
0.729788
0.729789
0.729789
0.729789
0.729789
0.729789
0.729789
0.729789
0.729789
0.729789
0.729789
0.729789
0.729789
0.729789
0.729789
0.729789
0.729789
0.729789
0.729789
0.729789
0.729789
0.729788
0.729788
0.729788
0.729788
0.729787
0.729787
0.729787
0.729786
0.729786
0.729785
0.729785
0.729784
0.729784
0.729782
0.72978
0.729773
0.729753
0.729699
0.729554
0.72921
0.746573
0.746912
0.747057
0.747113
0.747133
0.747141
0.747143
0.747145
0.747145
0.747146
0.747146
0.747147
0.747147
0.747147
0.747148
0.747148
0.747148
0.747149
0.747149
0.747149
0.747149
0.747149
0.74715
0.74715
0.74715
0.74715
0.74715
0.74715
0.74715
0.74715
0.74715
0.74715
0.74715
0.74715
0.74715
0.74715
0.74715
0.74715
0.747149
0.747149
0.747149
0.747149
0.747149
0.747148
0.747148
0.747148
0.747147
0.747147
0.747147
0.747146
0.747146
0.747145
0.747145
0.747143
0.747141
0.747133
0.747113
0.747057
0.746912
0.746573
0.763077
0.763411
0.763556
0.763613
0.763634
0.763642
0.763645
0.763646
0.763647
0.763647
0.763648
0.763648
0.763648
0.763649
0.763649
0.763649
0.763649
0.76365
0.76365
0.76365
0.76365
0.76365
0.763651
0.763651
0.763651
0.763651
0.763651
0.763651
0.763651
0.763651
0.763651
0.763651
0.763651
0.763651
0.763651
0.763651
0.763651
0.763651
0.76365
0.76365
0.76365
0.76365
0.76365
0.763649
0.763649
0.763649
0.763649
0.763648
0.763648
0.763648
0.763647
0.763647
0.763646
0.763645
0.763642
0.763634
0.763613
0.763556
0.763411
0.763077
0.778747
0.779075
0.779221
0.779279
0.7793
0.779308
0.779311
0.779313
0.779313
0.779314
0.779314
0.779314
0.779315
0.779315
0.779315
0.779315
0.779316
0.779316
0.779316
0.779316
0.779316
0.779317
0.779317
0.779317
0.779317
0.779317
0.779317
0.779317
0.779317
0.779317
0.779317
0.779317
0.779317
0.779317
0.779317
0.779317
0.779317
0.779317
0.779317
0.779316
0.779316
0.779316
0.779316
0.779316
0.779315
0.779315
0.779315
0.779315
0.779314
0.779314
0.779314
0.779313
0.779313
0.779311
0.779308
0.7793
0.779279
0.779221
0.779075
0.778747
0.793609
0.793929
0.794075
0.794134
0.794157
0.794165
0.794168
0.794169
0.79417
0.79417
0.794171
0.794171
0.794171
0.794171
0.794172
0.794172
0.794172
0.794172
0.794172
0.794173
0.794173
0.794173
0.794173
0.794173
0.794173
0.794173
0.794173
0.794173
0.794173
0.794173
0.794173
0.794173
0.794173
0.794173
0.794173
0.794173
0.794173
0.794173
0.794173
0.794173
0.794173
0.794172
0.794172
0.794172
0.794172
0.794172
0.794171
0.794171
0.794171
0.794171
0.79417
0.79417
0.794169
0.794168
0.794165
0.794157
0.794134
0.794075
0.793929
0.793609
0.807687
0.808
0.808145
0.808205
0.808228
0.808237
0.80824
0.808241
0.808242
0.808242
0.808243
0.808243
0.808243
0.808243
0.808244
0.808244
0.808244
0.808244
0.808244
0.808244
0.808245
0.808245
0.808245
0.808245
0.808245
0.808245
0.808245
0.808245
0.808245
0.808245
0.808245
0.808245
0.808245
0.808245
0.808245
0.808245
0.808245
0.808245
0.808245
0.808245
0.808244
0.808244
0.808244
0.808244
0.808244
0.808244
0.808243
0.808243
0.808243
0.808243
0.808242
0.808242
0.808241
0.80824
0.808237
0.808228
0.808205
0.808145
0.808
0.807687
0.821007
0.821312
0.821456
0.821517
0.821541
0.82155
0.821553
0.821555
0.821555
0.821556
0.821556
0.821556
0.821556
0.821557
0.821557
0.821557
0.821557
0.821557
0.821557
0.821557
0.821558
0.821558
0.821558
0.821558
0.821558
0.821558
0.821558
0.821558
0.821558
0.821558
0.821558
0.821558
0.821558
0.821558
0.821558
0.821558
0.821558
0.821558
0.821558
0.821558
0.821557
0.821557
0.821557
0.821557
0.821557
0.821557
0.821557
0.821556
0.821556
0.821556
0.821556
0.821555
0.821555
0.821553
0.82155
0.821541
0.821517
0.821456
0.821312
0.821007
0.833595
0.833892
0.834034
0.834096
0.83412
0.83413
0.834133
0.834135
0.834135
0.834136
0.834136
0.834136
0.834136
0.834137
0.834137
0.834137
0.834137
0.834137
0.834137
0.834137
0.834137
0.834137
0.834138
0.834138
0.834138
0.834138
0.834138
0.834138
0.834138
0.834138
0.834138
0.834138
0.834138
0.834138
0.834138
0.834138
0.834138
0.834138
0.834137
0.834137
0.834137
0.834137
0.834137
0.834137
0.834137
0.834137
0.834137
0.834136
0.834136
0.834136
0.834136
0.834135
0.834135
0.834133
0.83413
0.83412
0.834096
0.834034
0.833892
0.833595
0.845476
0.845764
0.845906
0.845967
0.845993
0.846002
0.846006
0.846008
0.846008
0.846009
0.846009
0.846009
0.846009
0.846009
0.846009
0.84601
0.84601
0.84601
0.84601
0.84601
0.84601
0.84601
0.84601
0.84601
0.84601
0.84601
0.84601
0.84601
0.84601
0.84601
0.84601
0.84601
0.84601
0.84601
0.84601
0.84601
0.84601
0.84601
0.84601
0.84601
0.84601
0.84601
0.84601
0.84601
0.84601
0.846009
0.846009
0.846009
0.846009
0.846009
0.846009
0.846008
0.846008
0.846006
0.846002
0.845993
0.845967
0.845906
0.845764
0.845476
0.856677
0.856956
0.857096
0.857158
0.857184
0.857194
0.857198
0.857199
0.8572
0.8572
0.8572
0.857201
0.857201
0.857201
0.857201
0.857201
0.857201
0.857201
0.857201
0.857201
0.857201
0.857202
0.857202
0.857202
0.857202
0.857202
0.857202
0.857202
0.857202
0.857202
0.857202
0.857202
0.857202
0.857202
0.857202
0.857202
0.857202
0.857202
0.857202
0.857201
0.857201
0.857201
0.857201
0.857201
0.857201
0.857201
0.857201
0.857201
0.857201
0.8572
0.8572
0.8572
0.857199
0.857198
0.857194
0.857184
0.857158
0.857096
0.856956
0.856677
0.867223
0.867494
0.867631
0.867693
0.867719
0.86773
0.867734
0.867736
0.867736
0.867737
0.867737
0.867737
0.867737
0.867737
0.867737
0.867737
0.867737
0.867737
0.867738
0.867738
0.867738
0.867738
0.867738
0.867738
0.867738
0.867738
0.867738
0.867738
0.867738
0.867738
0.867738
0.867738
0.867738
0.867738
0.867738
0.867738
0.867738
0.867738
0.867738
0.867738
0.867738
0.867738
0.867737
0.867737
0.867737
0.867737
0.867737
0.867737
0.867737
0.867737
0.867737
0.867736
0.867736
0.867734
0.86773
0.867719
0.867693
0.867631
0.867494
0.867223
0.877141
0.877402
0.877537
0.877599
0.877626
0.877637
0.877641
0.877643
0.877643
0.877644
0.877644
0.877644
0.877644
0.877644
0.877644
0.877644
0.877644
0.877644
0.877644
0.877644
0.877645
0.877645
0.877645
0.877645
0.877645
0.877645
0.877645
0.877645
0.877645
0.877645
0.877645
0.877645
0.877645
0.877645
0.877645
0.877645
0.877645
0.877645
0.877645
0.877645
0.877644
0.877644
0.877644
0.877644
0.877644
0.877644
0.877644
0.877644
0.877644
0.877644
0.877644
0.877643
0.877643
0.877641
0.877637
0.877626
0.877599
0.877537
0.877402
0.877141
0.886456
0.886707
0.886839
0.886902
0.886929
0.88694
0.886945
0.886946
0.886947
0.886947
0.886947
0.886948
0.886948
0.886948
0.886948
0.886948
0.886948
0.886948
0.886948
0.886948
0.886948
0.886948
0.886948
0.886948
0.886948
0.886948
0.886948
0.886948
0.886948
0.886948
0.886948
0.886948
0.886948
0.886948
0.886948
0.886948
0.886948
0.886948
0.886948
0.886948
0.886948
0.886948
0.886948
0.886948
0.886948
0.886948
0.886948
0.886948
0.886948
0.886947
0.886947
0.886947
0.886946
0.886945
0.88694
0.886929
0.886902
0.886839
0.886707
0.886456
0.895193
0.895435
0.895564
0.895626
0.895654
0.895666
0.89567
0.895672
0.895673
0.895673
0.895673
0.895673
0.895673
0.895673
0.895673
0.895673
0.895673
0.895674
0.895674
0.895674
0.895674
0.895674
0.895674
0.895674
0.895674
0.895674
0.895674
0.895674
0.895674
0.895674
0.895674
0.895674
0.895674
0.895674
0.895674
0.895674
0.895674
0.895674
0.895674
0.895674
0.895674
0.895674
0.895674
0.895673
0.895673
0.895673
0.895673
0.895673
0.895673
0.895673
0.895673
0.895673
0.895672
0.89567
0.895666
0.895654
0.895626
0.895564
0.895435
0.895193
0.903379
0.903611
0.903737
0.903799
0.903827
0.903839
0.903844
0.903845
0.903846
0.903846
0.903847
0.903847
0.903847
0.903847
0.903847
0.903847
0.903847
0.903847
0.903847
0.903847
0.903847
0.903847
0.903847
0.903847
0.903847
0.903847
0.903847
0.903847
0.903847
0.903847
0.903847
0.903847
0.903847
0.903847
0.903847
0.903847
0.903847
0.903847
0.903847
0.903847
0.903847