/*--------------------------------*- C++ -*----------------------------------*\
| =========                 |                                                 |
| \\      /  F ield         | foam-extend: Open Source CFD                    |
|  \\    /   O peration     | Version:     4.0                                |
|   \\  /    A nd           | Web:         http://www.foam-extend.org         |
|    \\/     M anipulation  |                                                 |
\*---------------------------------------------------------------------------*/
FoamFile
{
    version     2.0;
    format      ascii;
    class       volScalarField;
    location    "290";
    object      psiE;
}
// * * * * * * * * * * * * * * * * * * * * * * * * * * * * * * * * * * * * * //

dimensions      [0 0 0 0 0 0 0];

internalField   nonuniform List<scalar> 
6960
(
0.405794
0.405838
0.405851
0.405854
0.405855
0.405855
0.405856
0.405856
0.405857
0.405857
0.405858
0.405859
0.405859
0.40586
0.405861
0.405861
0.405862
0.405863
0.405863
0.405864
0.405864
0.405865
0.405865
0.405865
0.405866
0.405866
0.405866
0.405866
0.405866
0.405867
0.405867
0.405866
0.405866
0.405866
0.405866
0.405866
0.405865
0.405865
0.405865
0.405864
0.405864
0.405863
0.405863
0.405862
0.405861
0.405861
0.40586
0.405859
0.405859
0.405858
0.405857
0.405857
0.405856
0.405856
0.405855
0.405855
0.405854
0.405851
0.405838
0.405794
1.11371
1.11388
1.11393
1.11394
1.11395
1.11395
1.11395
1.11395
1.11395
1.11395
1.11395
1.11395
1.11395
1.11396
1.11396
1.11396
1.11396
1.11396
1.11396
1.11397
1.11397
1.11397
1.11397
1.11397
1.11397
1.11397
1.11397
1.11397
1.11397
1.11397
1.11397
1.11397
1.11397
1.11397
1.11397
1.11397
1.11397
1.11397
1.11397
1.11397
1.11397
1.11396
1.11396
1.11396
1.11396
1.11396
1.11396
1.11395
1.11395
1.11395
1.11395
1.11395
1.11395
1.11395
1.11395
1.11395
1.11394
1.11393
1.11388
1.11371
1.80153
1.80183
1.80191
1.80193
1.80194
1.80194
1.80194
1.80194
1.80194
1.80194
1.80195
1.80195
1.80195
1.80195
1.80195
1.80196
1.80196
1.80196
1.80196
1.80197
1.80197
1.80197
1.80197
1.80197
1.80197
1.80198
1.80198
1.80198
1.80198
1.80198
1.80198
1.80198
1.80198
1.80198
1.80198
1.80197
1.80197
1.80197
1.80197
1.80197
1.80197
1.80196
1.80196
1.80196
1.80196
1.80195
1.80195
1.80195
1.80195
1.80195
1.80194
1.80194
1.80194
1.80194
1.80194
1.80194
1.80193
1.80191
1.80183
1.80153
2.47864
2.47906
2.47918
2.47921
2.47922
2.47922
2.47922
2.47922
2.47922
2.47922
2.47923
2.47923
2.47923
2.47923
2.47924
2.47924
2.47924
2.47925
2.47925
2.47925
2.47925
2.47926
2.47926
2.47926
2.47926
2.47926
2.47926
2.47927
2.47927
2.47927
2.47927
2.47927
2.47927
2.47926
2.47926
2.47926
2.47926
2.47926
2.47926
2.47925
2.47925
2.47925
2.47925
2.47924
2.47924
2.47924
2.47923
2.47923
2.47923
2.47923
2.47922
2.47922
2.47922
2.47922
2.47922
2.47922
2.47921
2.47918
2.47906
2.47864
3.14406
3.1446
3.14475
3.14479
3.1448
3.1448
3.1448
3.1448
3.1448
3.1448
3.1448
3.1448
3.14481
3.14481
3.14481
3.14482
3.14482
3.14483
3.14483
3.14483
3.14484
3.14484
3.14484
3.14484
3.14484
3.14485
3.14485
3.14485
3.14485
3.14485
3.14485
3.14485
3.14485
3.14485
3.14485
3.14484
3.14484
3.14484
3.14484
3.14484
3.14483
3.14483
3.14483
3.14482
3.14482
3.14481
3.14481
3.14481
3.1448
3.1448
3.1448
3.1448
3.1448
3.1448
3.1448
3.1448
3.14479
3.14475
3.1446
3.14406
3.79453
3.79516
3.79534
3.79539
3.79539
3.79539
3.79539
3.79539
3.79539
3.79539
3.7954
3.7954
3.7954
3.79541
3.79541
3.79542
3.79542
3.79542
3.79543
3.79543
3.79544
3.79544
3.79544
3.79544
3.79545
3.79545
3.79545
3.79545
3.79545
3.79545
3.79545
3.79545
3.79545
3.79545
3.79545
3.79545
3.79544
3.79544
3.79544
3.79544
3.79543
3.79543
3.79542
3.79542
3.79542
3.79541
3.79541
3.7954
3.7954
3.7954
3.79539
3.79539
3.79539
3.79539
3.79539
3.79539
3.79539
3.79534
3.79516
3.79453
4.4258
4.4265
4.4267
4.42675
4.42676
4.42676
4.42676
4.42676
4.42676
4.42676
4.42676
4.42676
4.42677
4.42677
4.42678
4.42678
4.42679
4.42679
4.4268
4.4268
4.4268
4.42681
4.42681
4.42681
4.42682
4.42682
4.42682
4.42682
4.42682
4.42682
4.42682
4.42682
4.42682
4.42682
4.42682
4.42682
4.42681
4.42681
4.42681
4.4268
4.4268
4.4268
4.42679
4.42679
4.42678
4.42678
4.42677
4.42677
4.42676
4.42676
4.42676
4.42676
4.42676
4.42676
4.42676
4.42676
4.42675
4.4267
4.4265
4.4258
5.03274
5.0335
5.03371
5.03377
5.03377
5.03377
5.03377
5.03376
5.03376
5.03376
5.03377
5.03377
5.03377
5.03378
5.03378
5.03379
5.03379
5.0338
5.0338
5.03381
5.03381
5.03382
5.03382
5.03382
5.03383
5.03383
5.03383
5.03383
5.03383
5.03383
5.03383
5.03383
5.03383
5.03383
5.03383
5.03383
5.03382
5.03382
5.03382
5.03381
5.03381
5.0338
5.0338
5.03379
5.03379
5.03378
5.03378
5.03377
5.03377
5.03377
5.03376
5.03376
5.03376
5.03377
5.03377
5.03377
5.03377
5.03371
5.0335
5.03274
5.60924
5.61002
5.61024
5.6103
5.6103
5.6103
5.61029
5.61029
5.61028
5.61028
5.61029
5.61029
5.61029
5.6103
5.6103
5.61031
5.61031
5.61032
5.61033
5.61033
5.61033
5.61034
5.61034
5.61035
5.61035
5.61035
5.61035
5.61036
5.61036
5.61036
5.61036
5.61036
5.61036
5.61035
5.61035
5.61035
5.61035
5.61034
5.61034
5.61033
5.61033
5.61033
5.61032
5.61031
5.61031
5.6103
5.6103
5.61029
5.61029
5.61029
5.61028
5.61028
5.61029
5.61029
5.6103
5.6103
5.6103
5.61024
5.61002
5.60924
6.14804
6.14881
6.14903
6.14908
6.14908
6.14908
6.14907
6.14906
6.14906
6.14906
6.14906
6.14906
6.14907
6.14907
6.14908
6.14908
6.14909
6.14909
6.1491
6.1491
6.14911
6.14911
6.14912
6.14912
6.14912
6.14913
6.14913
6.14913
6.14913
6.14913
6.14913
6.14913
6.14913
6.14913
6.14913
6.14912
6.14912
6.14912
6.14911
6.14911
6.1491
6.1491
6.14909
6.14909
6.14908
6.14908
6.14907
6.14907
6.14906
6.14906
6.14906
6.14906
6.14906
6.14907
6.14908
6.14908
6.14908
6.14903
6.14881
6.14804
6.6409
6.64162
6.64183
6.64187
6.64186
6.64185
6.64184
6.64183
6.64183
6.64183
6.64183
6.64183
6.64183
6.64184
6.64184
6.64185
6.64185
6.64186
6.64186
6.64187
6.64187
6.64188
6.64188
6.64189
6.64189
6.64189
6.64189
6.64189
6.6419
6.6419
6.6419
6.6419
6.64189
6.64189
6.64189
6.64189
6.64189
6.64188
6.64188
6.64187
6.64187
6.64186
6.64186
6.64185
6.64185
6.64184
6.64184
6.64183
6.64183
6.64183
6.64183
6.64183
6.64183
6.64184
6.64185
6.64186
6.64187
6.64183
6.64162
6.6409
7.07934
7.07997
7.08015
7.08018
7.08017
7.08015
7.08014
7.08013
7.08012
7.08012
7.08012
7.08012
7.08012
7.08013
7.08013
7.08014
7.08014
7.08015
7.08015
7.08016
7.08016
7.08017
7.08017
7.08017
7.08018
7.08018
7.08018
7.08018
7.08018
7.08018
7.08018
7.08018
7.08018
7.08018
7.08018
7.08018
7.08017
7.08017
7.08017
7.08016
7.08016
7.08015
7.08015
7.08014
7.08014
7.08013
7.08013
7.08012
7.08012
7.08012
7.08012
7.08012
7.08013
7.08014
7.08015
7.08017
7.08018
7.08015
7.07997
7.07934
7.45654
7.45704
7.45718
7.45719
7.45718
7.45716
7.45714
7.45713
7.45712
7.45712
7.45711
7.45711
7.45712
7.45712
7.45712
7.45713
7.45713
7.45714
7.45714
7.45715
7.45715
7.45716
7.45716
7.45717
7.45717
7.45717
7.45717
7.45717
7.45718
7.45718
7.45718
7.45718
7.45717
7.45717
7.45717
7.45717
7.45717
7.45716
7.45716
7.45715
7.45715
7.45714
7.45714
7.45713
7.45713
7.45712
7.45712
7.45712
7.45711
7.45711
7.45712
7.45712
7.45713
7.45714
7.45716
7.45718
7.45719
7.45718
7.45704
7.45654
7.76986
7.77022
7.77031
7.77031
7.77029
7.77027
7.77025
7.77023
7.77022
7.77022
7.77021
7.77021
7.77021
7.77022
7.77022
7.77022
7.77023
7.77023
7.77024
7.77025
7.77025
7.77025
7.77026
7.77026
7.77027
7.77027
7.77027
7.77027
7.77027
7.77027
7.77027
7.77027
7.77027
7.77027
7.77027
7.77027
7.77026
7.77026
7.77025
7.77025
7.77025
7.77024
7.77023
7.77023
7.77022
7.77022
7.77022
7.77021
7.77021
7.77021
7.77022
7.77022
7.77023
7.77025
7.77027
7.77029
7.77031
7.77031
7.77022
7.76986
8.02266
8.02287
8.02292
8.02291
8.02288
8.02285
8.02283
8.02282
8.0228
8.0228
8.02279
8.02279
8.02279
8.0228
8.0228
8.02281
8.02281
8.02282
8.02283
8.02283
8.02284
8.02284
8.02285
8.02285
8.02285
8.02286
8.02286
8.02286
8.02286
8.02286
8.02286
8.02286
8.02286
8.02286
8.02286
8.02285
8.02285
8.02285
8.02284
8.02284
8.02283
8.02283
8.02282
8.02281
8.02281
8.0228
8.0228
8.02279
8.02279
8.02279
8.0228
8.0228
8.02282
8.02283
8.02285
8.02288
8.02291
8.02292
8.02287
8.02266
8.22366
8.22375
8.22376
8.22373
8.2237
8.22367
8.22365
8.22363
8.22362
8.22361
8.22361
8.22361
8.22361
8.22362
8.22362
8.22363
8.22364
8.22364
8.22365
8.22366
8.22366
8.22367
8.22367
8.22368
8.22368
8.22369
8.22369
8.22369
8.22369
8.22369
8.22369
8.22369
8.22369
8.22369
8.22369
8.22368
8.22368
8.22367
8.22367
8.22366
8.22366
8.22365
8.22364
8.22364
8.22363
8.22362
8.22362
8.22361
8.22361
8.22361
8.22361
8.22362
8.22363
8.22365
8.22367
8.2237
8.22373
8.22376
8.22375
8.22366
8.38417
8.38417
8.38415
8.38412
8.38408
8.38405
8.38403
8.38401
8.384
8.38399
8.38399
8.38399
8.384
8.384
8.38401
8.38402
8.38403
8.38404
8.38405
8.38405
8.38406
8.38407
8.38408
8.38408
8.38409
8.38409
8.38409
8.3841
8.3841
8.3841
8.3841
8.3841
8.3841
8.38409
8.38409
8.38409
8.38408
8.38408
8.38407
8.38406
8.38405
8.38405
8.38404
8.38403
8.38402
8.38401
8.384
8.384
8.38399
8.38399
8.38399
8.384
8.38401
8.38403
8.38405
8.38408
8.38412
8.38415
8.38417
8.38417
8.51509
8.51502
8.51498
8.51494
8.5149
8.51487
8.51485
8.51483
8.51482
8.51482
8.51482
8.51482
8.51483
8.51484
8.51485
8.51486
8.51487
8.51488
8.51489
8.5149
8.51491
8.51492
8.51493
8.51494
8.51494
8.51495
8.51495
8.51495
8.51496
8.51496
8.51496
8.51496
8.51495
8.51495
8.51495
8.51494
8.51494
8.51493
8.51492
8.51491
8.5149
8.51489
8.51488
8.51487
8.51486
8.51485
8.51484
8.51483
8.51482
8.51482
8.51482
8.51482
8.51483
8.51485
8.51487
8.5149
8.51494
8.51498
8.51502
8.51509
8.62509
8.62498
8.62492
8.62488
8.62484
8.62481
8.62479
8.62478
8.62477
8.62477
8.62477
8.62478
8.62479
8.6248
8.62481
8.62483
8.62484
8.62485
8.62487
8.62488
8.62489
8.6249
8.62491
8.62492
8.62492
8.62493
8.62494
8.62494
8.62494
8.62494
8.62494
8.62494
8.62494
8.62494
8.62493
8.62492
8.62492
8.62491
8.6249
8.62489
8.62488
8.62487
8.62485
8.62484
8.62483
8.62481
8.6248
8.62479
8.62478
8.62477
8.62477
8.62477
8.62478
8.62479
8.62481
8.62484
8.62488
8.62492
8.62498
8.62509
8.72036
8.72022
8.72015
8.7201
8.72007
8.72004
8.72002
8.72001
8.72001
8.72001
8.72001
8.72002
8.72004
8.72005
8.72007
8.72008
8.7201
8.72012
8.72013
8.72015
8.72016
8.72017
8.72018
8.72019
8.7202
8.72021
8.72021
8.72022
8.72022
8.72022
8.72022
8.72022
8.72022
8.72021
8.72021
8.7202
8.72019
8.72018
8.72017
8.72016
8.72015
8.72013
8.72012
8.7201
8.72008
8.72007
8.72005
8.72004
8.72002
8.72001
8.72001
8.72001
8.72001
8.72002
8.72004
8.72007
8.7201
8.72015
8.72022
8.72036
8.80504
8.80488
8.8048
8.80475
8.80471
8.80469
8.80467
8.80466
8.80466
8.80467
8.80468
8.80469
8.8047
8.80472
8.80474
8.80476
8.80478
8.8048
8.80482
8.80484
8.80485
8.80487
8.80488
8.80489
8.8049
8.80491
8.80492
8.80492
8.80493
8.80493
8.80493
8.80493
8.80492
8.80492
8.80491
8.8049
8.80489
8.80488
8.80487
8.80485
8.80484
8.80482
8.8048
8.80478
8.80476
8.80474
8.80472
8.8047
8.80469
8.80468
8.80467
8.80466
8.80466
8.80467
8.80469
8.80471
8.80475
8.8048
8.80488
8.80504
8.88184
8.88168
8.88159
8.88154
8.88151
8.88148
8.88147
8.88146
8.88147
8.88147
8.88149
8.8815
8.88152
8.88155
8.88157
8.88159
8.88161
8.88164
8.88166
8.88168
8.8817
8.88171
8.88173
8.88174
8.88176
8.88176
8.88177
8.88178
8.88178
8.88178
8.88178
8.88178
8.88178
8.88177
8.88176
8.88176
8.88174
8.88173
8.88171
8.8817
8.88168
8.88166
8.88164
8.88161
8.88159
8.88157
8.88155
8.88152
8.8815
8.88149
8.88147
8.88147
8.88146
8.88147
8.88148
8.88151
8.88154
8.88159
8.88168
8.88184
8.95263
8.95246
8.95237
8.95232
8.95228
8.95226
8.95225
8.95225
8.95225
8.95227
8.95228
8.9523
8.95233
8.95235
8.95238
8.95241
8.95243
8.95246
8.95248
8.95251
8.95253
8.95255
8.95257
8.95258
8.95259
8.95261
8.95261
8.95262
8.95263
8.95263
8.95263
8.95263
8.95262
8.95261
8.95261
8.95259
8.95258
8.95257
8.95255
8.95253
8.95251
8.95248
8.95246
8.95243
8.95241
8.95238
8.95235
8.95233
8.9523
8.95228
8.95227
8.95225
8.95225
8.95225
8.95226
8.95228
8.95232
8.95237
8.95246
8.95263
9.01868
9.01851
9.01842
9.01836
9.01833
9.01831
9.0183
9.0183
9.01831
9.01833
9.01835
9.01837
9.0184
9.01843
9.01846
9.01849
9.01852
9.01855
9.01858
9.01861
9.01863
9.01865
9.01867
9.01869
9.01871
9.01872
9.01873
9.01874
9.01874
9.01874
9.01874
9.01874
9.01874
9.01873
9.01872
9.01871
9.01869
9.01867
9.01865
9.01863
9.01861
9.01858
9.01855
9.01852
9.01849
9.01846
9.01843
9.0184
9.01837
9.01835
9.01833
9.01831
9.0183
9.0183
9.01831
9.01833
9.01836
9.01842
9.01851
9.01868
9.08093
9.08075
9.08066
9.08061
9.08058
9.08056
9.08055
9.08056
9.08057
9.08059
9.08061
9.08064
9.08068
9.08071
9.08075
9.08078
9.08081
9.08085
9.08088
9.08091
9.08094
9.08096
9.08098
9.081
9.08102
9.08103
9.08104
9.08105
9.08106
9.08106
9.08106
9.08106
9.08105
9.08104
9.08103
9.08102
9.081
9.08098
9.08096
9.08094
9.08091
9.08088
9.08085
9.08081
9.08078
9.08075
9.08071
9.08068
9.08064
9.08061
9.08059
9.08057
9.08056
9.08055
9.08056
9.08058
9.08061
9.08066
9.08075
9.08093
9.14008
9.1399
9.13981
9.13975
9.13973
9.13971
9.13971
9.13972
9.13973
9.13976
9.13979
9.13982
9.13986
9.1399
9.13994
9.13997
9.14001
9.14005
9.14009
9.14012
9.14015
9.14018
9.1402
9.14022
9.14024
9.14026
9.14027
9.14028
9.14028
9.14029
9.14029
9.14028
9.14028
9.14027
9.14026
9.14024
9.14022
9.1402
9.14018
9.14015
9.14012
9.14009
9.14005
9.14001
9.13997
9.13994
9.1399
9.13986
9.13982
9.13979
9.13976
9.13973
9.13972
9.13971
9.13971
9.13973
9.13975
9.13981
9.1399
9.14008
9.19667
9.1965
9.19641
9.19635
9.19633
9.19631
9.19632
9.19633
9.19635
9.19638
9.19641
9.19645
9.19649
9.19653
9.19658
9.19662
9.19666
9.19671
9.19674
9.19678
9.19681
9.19684
9.19687
9.19689
9.19691
9.19693
9.19695
9.19696
9.19696
9.19697
9.19697
9.19696
9.19696
9.19695
9.19693
9.19691
9.19689
9.19687
9.19684
9.19681
9.19678
9.19674
9.19671
9.19666
9.19662
9.19658
9.19653
9.19649
9.19645
9.19641
9.19638
9.19635
9.19633
9.19632
9.19631
9.19633
9.19635
9.19641
9.1965
9.19667
9.25116
9.25099
9.25089
9.25084
9.25081
9.25081
9.25081
9.25083
9.25085
9.25088
9.25092
9.25097
9.25101
9.25106
9.25111
9.25116
9.2512
9.25125
9.25129
9.25133
9.25137
9.2514
9.25143
9.25146
9.25148
9.2515
9.25151
9.25152
9.25153
9.25154
9.25154
9.25153
9.25152
9.25151
9.2515
9.25148
9.25146
9.25143
9.2514
9.25137
9.25133
9.25129
9.25125
9.2512
9.25116
9.25111
9.25106
9.25101
9.25097
9.25092
9.25088
9.25085
9.25083
9.25081
9.25081
9.25081
9.25084
9.25089
9.25099
9.25116
9.30388
9.30371
9.30362
9.30357
9.30354
9.30354
9.30355
9.30357
9.3036
9.30363
9.30368
9.30372
9.30378
9.30383
9.30388
9.30394
9.30399
9.30404
9.30408
9.30413
9.30417
9.3042
9.30423
9.30426
9.30429
9.30431
9.30432
9.30434
9.30434
9.30435
9.30435
9.30434
9.30434
9.30432
9.30431
9.30429
9.30426
9.30423
9.3042
9.30417
9.30413
9.30408
9.30404
9.30399
9.30394
9.30388
9.30383
9.30378
9.30372
9.30368
9.30363
9.3036
9.30357
9.30355
9.30354
9.30354
9.30357
9.30362
9.30371
9.30388
9.35513
9.35497
9.35488
9.35483
9.35481
9.3548
9.35482
9.35484
9.35487
9.35492
9.35497
9.35502
9.35508
9.35513
9.35519
9.35525
9.35531
9.35536
9.35541
9.35546
9.3555
9.35554
9.35557
9.35561
9.35563
9.35565
9.35567
9.35569
9.35569
9.3557
9.3557
9.35569
9.35569
9.35567
9.35565
9.35563
9.35561
9.35557
9.35554
9.3555
9.35546
9.35541
9.35536
9.35531
9.35525
9.35519
9.35513
9.35508
9.35502
9.35497
9.35492
9.35487
9.35484
9.35482
9.3548
9.35481
9.35483
9.35488
9.35497
9.35513
9.40517
9.40501
9.40492
9.40487
9.40485
9.40485
9.40487
9.4049
9.40494
9.40498
9.40504
9.4051
9.40516
9.40522
9.40528
9.40535
9.40541
9.40547
9.40552
9.40557
9.40562
9.40566
9.4057
9.40573
9.40576
9.40579
9.4058
9.40582
9.40583
9.40583
9.40583
9.40583
9.40582
9.4058
9.40579
9.40576
9.40573
9.4057
9.40566
9.40562
9.40557
9.40552
9.40547
9.40541
9.40535
9.40528
9.40522
9.40516
9.4051
9.40504
9.40498
9.40494
9.4049
9.40487
9.40485
9.40485
9.40487
9.40492
9.40501
9.40517
9.45419
9.45404
9.45395
9.4539
9.45389
9.45389
9.45391
9.45394
9.45399
9.45404
9.4541
9.45417
9.45423
9.4543
9.45437
9.45444
9.4545
9.45457
9.45463
9.45468
9.45473
9.45478
9.45482
9.45485
9.45489
9.45491
9.45493
9.45495
9.45496
9.45496
9.45496
9.45496
9.45495
9.45493
9.45491
9.45489
9.45485
9.45482
9.45478
9.45473
9.45468
9.45463
9.45457
9.4545
9.45444
9.45437
9.4543
9.45423
9.45417
9.4541
9.45404
9.45399
9.45394
9.45391
9.45389
9.45389
9.4539
9.45395
9.45404
9.45419
9.50239
9.50225
9.50216
9.50211
9.5021
9.50211
9.50213
9.50217
9.50222
9.50227
9.50234
9.50241
9.50248
9.50256
9.50263
9.5027
9.50278
9.50284
9.50291
9.50297
9.50302
9.50307
9.50311
9.50315
9.50319
9.50321
9.50324
9.50325
9.50326
9.50327
9.50327
9.50326
9.50325
9.50324
9.50321
9.50319
9.50315
9.50311
9.50307
9.50302
9.50297
9.50291
9.50284
9.50278
9.5027
9.50263
9.50256
9.50248
9.50241
9.50234
9.50227
9.50222
9.50217
9.50213
9.50211
9.5021
9.50211
9.50216
9.50225
9.50239
9.54992
9.54978
9.54969
9.54965
9.54964
9.54965
9.54968
9.54972
9.54978
9.54984
9.54991
9.54999
9.55007
9.55015
9.55023
9.55031
9.55038
9.55046
9.55052
9.55059
9.55065
9.5507
9.55075
9.55079
9.55082
9.55085
9.55088
9.55089
9.55091
9.55091
9.55091
9.55091
9.55089
9.55088
9.55085
9.55082
9.55079
9.55075
9.5507
9.55065
9.55059
9.55052
9.55046
9.55038
9.55031
9.55023
9.55015
9.55007
9.54999
9.54991
9.54984
9.54978
9.54972
9.54968
9.54965
9.54964
9.54965
9.54969
9.54978
9.54992
9.59693
9.5968
9.59671
9.59667
9.59666
9.59668
9.59671
9.59676
9.59682
9.59689
9.59696
9.59704
9.59713
9.59722
9.5973
9.59739
9.59747
9.59755
9.59762
9.59769
9.59775
9.59781
9.59786
9.5979
9.59794
9.59797
9.598
9.59801
9.59803
9.59803
9.59803
9.59803
9.59801
9.598
9.59797
9.59794
9.5979
9.59786
9.59781
9.59775
9.59769
9.59762
9.59755
9.59747
9.59739
9.5973
9.59722
9.59713
9.59704
9.59696
9.59689
9.59682
9.59676
9.59671
9.59668
9.59666
9.59667
9.59671
9.5968
9.59693
9.64354
9.64341
9.64332
9.64329
9.64328
9.6433
9.64334
9.64339
9.64346
9.64353
9.64361
9.6437
9.64379
9.64389
9.64398
9.64407
9.64416
9.64424
9.64432
9.64439
9.64446
9.64452
9.64457
9.64462
9.64466
9.64469
9.64472
9.64474
9.64475
9.64476
9.64476
9.64475
9.64474
9.64472
9.64469
9.64466
9.64462
9.64457
9.64452
9.64446
9.64439
9.64432
9.64424
9.64416
9.64407
9.64398
9.64389
9.64379
9.6437
9.64361
9.64353
9.64346
9.64339
9.64334
9.6433
9.64328
9.64329
9.64332
9.64341
9.64354
9.68986
9.68974
9.68965
9.68962
9.68962
9.68964
9.68968
9.68974
9.68981
9.68989
9.68998
9.69008
9.69017
9.69027
9.69037
9.69047
9.69056
9.69065
9.69073
9.69081
9.69088
9.69095
9.691
9.69105
9.6911
9.69113
9.69116
9.69118
9.6912
9.6912
9.6912
9.6912
9.69118
9.69116
9.69113
9.6911
9.69105
9.691
9.69095
9.69088
9.69081
9.69073
9.69065
9.69056
9.69047
9.69037
9.69027
9.69017
9.69008
9.68998
9.68989
9.68981
9.68974
9.68968
9.68964
9.68962
9.68962
9.68965
9.68974
9.68986
9.736
9.73588
9.7358
9.73577
9.73577
9.7358
9.73584
9.73591
9.73599
9.73607
9.73617
9.73627
9.73638
9.73648
9.73659
9.73669
9.73679
9.73688
9.73697
9.73705
9.73713
9.7372
9.73726
9.73731
9.73736
9.7374
9.73743
9.73745
9.73746
9.73747
9.73747
9.73746
9.73745
9.73743
9.7374
9.73736
9.73731
9.73726
9.7372
9.73713
9.73705
9.73697
9.73688
9.73679
9.73669
9.73659
9.73648
9.73638
9.73627
9.73617
9.73607
9.73599
9.73591
9.73584
9.7358
9.73577
9.73577
9.7358
9.73588
9.736
9.78205
9.78194
9.78186
9.78183
9.78184
9.78187
9.78192
9.78199
9.78208
9.78217
9.78227
9.78238
9.78249
9.78261
9.78272
9.78283
9.78293
9.78303
9.78313
9.78321
9.78329
9.78337
9.78343
9.78349
9.78354
9.78358
9.78361
9.78363
9.78365
9.78366
9.78366
9.78365
9.78363
9.78361
9.78358
9.78354
9.78349
9.78343
9.78337
9.78329
9.78321
9.78313
9.78303
9.78293
9.78283
9.78272
9.78261
9.78249
9.78238
9.78227
9.78217
9.78208
9.78199
9.78192
9.78187
9.78184
9.78183
9.78186
9.78194
9.78205
9.82811
9.828
9.82793
9.8279
9.82791
9.82795
9.82801
9.82808
9.82817
9.82827
9.82838
9.8285
9.82862
9.82874
9.82886
9.82897
9.82908
9.82919
9.82929
9.82938
9.82947
9.82954
9.82961
9.82967
9.82972
9.82977
9.8298
9.82983
9.82984
9.82985
9.82985
9.82984
9.82983
9.8298
9.82977
9.82972
9.82967
9.82961
9.82954
9.82947
9.82938
9.82929
9.82919
9.82908
9.82897
9.82886
9.82874
9.82862
9.8285
9.82838
9.82827
9.82817
9.82808
9.82801
9.82795
9.82791
9.8279
9.82793
9.828
9.82811
9.87426
9.87416
9.87409
9.87406
9.87407
9.87412
9.87418
9.87426
9.87436
9.87447
9.87458
9.87471
9.87483
9.87496
9.87509
9.87521
9.87533
9.87544
9.87554
9.87564
9.87573
9.87581
9.87588
9.87595
9.876
9.87605
9.87608
9.87611
9.87613
9.87614
9.87614
9.87613
9.87611
9.87608
9.87605
9.876
9.87595
9.87588
9.87581
9.87573
9.87564
9.87554
9.87544
9.87533
9.87521
9.87509
9.87496
9.87483
9.87471
9.87458
9.87447
9.87436
9.87426
9.87418
9.87412
9.87407
9.87406
9.87409
9.87416
9.87426
9.92057
9.92047
9.92041
9.92039
9.9204
9.92045
9.92052
9.92061
9.92071
9.92083
9.92095
9.92108
9.92122
9.92135
9.92148
9.92161
9.92174
9.92186
9.92197
9.92207
9.92216
9.92225
9.92233
9.92239
9.92245
9.9225
9.92254
9.92257
9.92259
9.9226
9.9226
9.92259
9.92257
9.92254
9.9225
9.92245
9.92239
9.92233
9.92225
9.92216
9.92207
9.92197
9.92186
9.92174
9.92161
9.92148
9.92135
9.92122
9.92108
9.92095
9.92083
9.92071
9.92061
9.92052
9.92045
9.9204
9.92039
9.92041
9.92047
9.92057
9.96712
9.96703
9.96697
9.96695
9.96697
9.96702
9.9671
9.96719
9.9673
9.96743
9.96756
9.9677
9.96784
9.96798
9.96812
9.96826
9.96839
9.96852
9.96863
9.96874
9.96884
9.96893
9.96901
9.96909
9.96915
9.9692
9.96924
9.96927
9.96929
9.9693
9.9693
9.96929
9.96927
9.96924
9.9692
9.96915
9.96909
9.96901
9.96893
9.96884
9.96874
9.96863
9.96852
9.96839
9.96826
9.96812
9.96798
9.96784
9.9677
9.96756
9.96743
9.9673
9.96719
9.9671
9.96702
9.96697
9.96695
9.96697
9.96703
9.96712
10.014
10.0139
10.0138
10.0138
10.0139
10.0139
10.014
10.0141
10.0142
10.0143
10.0145
10.0146
10.0148
10.0149
10.0151
10.0152
10.0154
10.0155
10.0156
10.0157
10.0158
10.0159
10.016
10.0161
10.0162
10.0162
10.0163
10.0163
10.0163
10.0163
10.0163
10.0163
10.0163
10.0163
10.0162
10.0162
10.0161
10.016
10.0159
10.0158
10.0157
10.0156
10.0155
10.0154
10.0152
10.0151
10.0149
10.0148
10.0146
10.0145
10.0143
10.0142
10.0141
10.014
10.0139
10.0139
10.0138
10.0138
10.0139
10.014
10.0612
10.0611
10.0611
10.0611
10.0611
10.0612
10.0613
10.0614
10.0615
10.0616
10.0618
10.0619
10.0621
10.0623
10.0624
10.0626
10.0627
10.0629
10.063
10.0631
10.0632
10.0633
10.0634
10.0635
10.0636
10.0636
10.0637
10.0637
10.0637
10.0637
10.0637
10.0637
10.0637
10.0637
10.0636
10.0636
10.0635
10.0634
10.0633
10.0632
10.0631
10.063
10.0629
10.0627
10.0626
10.0624
10.0623
10.0621
10.0619
10.0618
10.0616
10.0615
10.0614
10.0613
10.0612
10.0611
10.0611
10.0611
10.0611
10.0612
10.1089
10.1088
10.1088
10.1088
10.1088
10.1089
10.109
10.1091
10.1092
10.1094
10.1095
10.1097
10.1099
10.11
10.1102
10.1104
10.1105
10.1107
10.1108
10.1109
10.111
10.1112
10.1112
10.1113
10.1114
10.1115
10.1115
10.1115
10.1116
10.1116
10.1116
10.1116
10.1115
10.1115
10.1115
10.1114
10.1113
10.1112
10.1112
10.111
10.1109
10.1108
10.1107
10.1105
10.1104
10.1102
10.11
10.1099
10.1097
10.1095
10.1094
10.1092
10.1091
10.109
10.1089
10.1088
10.1088
10.1088
10.1088
10.1089
10.1571
10.1571
10.157
10.157
10.157
10.1571
10.1572
10.1573
10.1575
10.1576
10.1578
10.158
10.1582
10.1583
10.1585
10.1587
10.1588
10.159
10.1591
10.1593
10.1594
10.1595
10.1596
10.1597
10.1598
10.1598
10.1599
10.1599
10.1599
10.16
10.16
10.1599
10.1599
10.1599
10.1598
10.1598
10.1597
10.1596
10.1595
10.1594
10.1593
10.1591
10.159
10.1588
10.1587
10.1585
10.1583
10.1582
10.158
10.1578
10.1576
10.1575
10.1573
10.1572
10.1571
10.157
10.157
10.157
10.1571
10.1571
10.2059
10.2058
10.2058
10.2058
10.2058
10.2059
10.206
10.2062
10.2063
10.2065
10.2067
10.2068
10.207
10.2072
10.2074
10.2076
10.2077
10.2079
10.2081
10.2082
10.2083
10.2084
10.2085
10.2086
10.2087
10.2088
10.2088
10.2089
10.2089
10.2089
10.2089
10.2089
10.2089
10.2088
10.2088
10.2087
10.2086
10.2085
10.2084
10.2083
10.2082
10.2081
10.2079
10.2077
10.2076
10.2074
10.2072
10.207
10.2068
10.2067
10.2065
10.2063
10.2062
10.206
10.2059
10.2058
10.2058
10.2058
10.2058
10.2059
10.2553
10.2553
10.2552
10.2552
10.2553
10.2554
10.2555
10.2556
10.2558
10.256
10.2561
10.2563
10.2565
10.2567
10.2569
10.2571
10.2573
10.2575
10.2576
10.2578
10.2579
10.258
10.2581
10.2582
10.2583
10.2584
10.2584
10.2585
10.2585
10.2585
10.2585
10.2585
10.2585
10.2584
10.2584
10.2583
10.2582
10.2581
10.258
10.2579
10.2578
10.2576
10.2575
10.2573
10.2571
10.2569
10.2567
10.2565
10.2563
10.2561
10.256
10.2558
10.2556
10.2555
10.2554
10.2553
10.2552
10.2552
10.2553
10.2553
10.3054
10.3054
10.3053
10.3054
10.3054
10.3055
10.3056
10.3058
10.3059
10.3061
10.3063
10.3065
10.3067
10.3069
10.3071
10.3073
10.3075
10.3077
10.3079
10.308
10.3082
10.3083
10.3084
10.3085
10.3086
10.3087
10.3087
10.3088
10.3088
10.3088
10.3088
10.3088
10.3088
10.3087
10.3087
10.3086
10.3085
10.3084
10.3083
10.3082
10.308
10.3079
10.3077
10.3075
10.3073
10.3071
10.3069
10.3067
10.3065
10.3063
10.3061
10.3059
10.3058
10.3056
10.3055
10.3054
10.3054
10.3053
10.3054
10.3054
10.3563
10.3563
10.3562
10.3562
10.3563
10.3564
10.3565
10.3567
10.3569
10.3571
10.3573
10.3575
10.3577
10.3579
10.3581
10.3583
10.3585
10.3587
10.3589
10.3591
10.3592
10.3593
10.3595
10.3596
10.3597
10.3597
10.3598
10.3598
10.3599
10.3599
10.3599
10.3599
10.3598
10.3598
10.3597
10.3597
10.3596
10.3595
10.3593
10.3592
10.3591
10.3589
10.3587
10.3585
10.3583
10.3581
10.3579
10.3577
10.3575
10.3573
10.3571
10.3569
10.3567
10.3565
10.3564
10.3563
10.3562
10.3562
10.3563
10.3563
10.408
10.4079
10.4079
10.4079
10.408
10.4081
10.4083
10.4084
10.4086
10.4088
10.409
10.4093
10.4095
10.4097
10.4099
10.4102
10.4104
10.4106
10.4107
10.4109
10.4111
10.4112
10.4113
10.4114
10.4115
10.4116
10.4117
10.4117
10.4118
10.4118
10.4118
10.4118
10.4117
10.4117
10.4116
10.4115
10.4114
10.4113
10.4112
10.4111
10.4109
10.4107
10.4106
10.4104
10.4102
10.4099
10.4097
10.4095
10.4093
10.409
10.4088
10.4086
10.4084
10.4083
10.4081
10.408
10.4079
10.4079
10.4079
10.408
10.4606
10.4605
10.4605
10.4605
10.4606
10.4607
10.4609
10.461
10.4612
10.4615
10.4617
10.4619
10.4622
10.4624
10.4626
10.4629
10.4631
10.4633
10.4635
10.4636
10.4638
10.464
10.4641
10.4642
10.4643
10.4644
10.4644
10.4645
10.4645
10.4645
10.4645
10.4645
10.4645
10.4644
10.4644
10.4643
10.4642
10.4641
10.464
10.4638
10.4636
10.4635
10.4633
10.4631
10.4629
10.4626
10.4624
10.4622
10.4619
10.4617
10.4615
10.4612
10.461
10.4609
10.4607
10.4606
10.4605
10.4605
10.4605
10.4606
10.5141
10.514
10.514
10.514
10.5141
10.5143
10.5144
10.5146
10.5148
10.515
10.5153
10.5155
10.5158
10.516
10.5163
10.5165
10.5167
10.5169
10.5171
10.5173
10.5175
10.5177
10.5178
10.5179
10.518
10.5181
10.5182
10.5182
10.5183
10.5183
10.5183
10.5183
10.5182
10.5182
10.5181
10.518
10.5179
10.5178
10.5177
10.5175
10.5173
10.5171
10.5169
10.5167
10.5165
10.5163
10.516
10.5158
10.5155
10.5153
10.515
10.5148
10.5146
10.5144
10.5143
10.5141
10.514
10.514
10.514
10.5141
10.5686
10.5685
10.5685
10.5686
10.5687
10.5688
10.569
10.5692
10.5694
10.5696
10.5699
10.5701
10.5704
10.5707
10.5709
10.5712
10.5714
10.5716
10.5718
10.572
10.5722
10.5724
10.5725
10.5726
10.5727
10.5728
10.5729
10.5729
10.573
10.573
10.573
10.573
10.5729
10.5729
10.5728
10.5727
10.5726
10.5725
10.5724
10.5722
10.572
10.5718
10.5716
10.5714
10.5712
10.5709
10.5707
10.5704
10.5701
10.5699
10.5696
10.5694
10.5692
10.569
10.5688
10.5687
10.5686
10.5685
10.5685
10.5686
10.6241
10.6241
10.6241
10.6241
10.6242
10.6244
10.6246
10.6248
10.625
10.6253
10.6255
10.6258
10.6261
10.6263
10.6266
10.6269
10.6271
10.6273
10.6276
10.6278
10.628
10.6281
10.6283
10.6284
10.6285
10.6286
10.6287
10.6287
10.6288
10.6288
10.6288
10.6288
10.6287
10.6287
10.6286
10.6285
10.6284
10.6283
10.6281
10.628
10.6278
10.6276
10.6273
10.6271
10.6269
10.6266
10.6263
10.6261
10.6258
10.6255
10.6253
10.625
10.6248
10.6246
10.6244
10.6242
10.6241
10.6241
10.6241
10.6241
10.6808
10.6808
10.6808
10.6808
10.6809
10.6811
10.6813
10.6815
10.6817
10.682
10.6823
10.6826
10.6829
10.6831
10.6834
10.6837
10.684
10.6842
10.6844
10.6846
10.6848
10.685
10.6852
10.6853
10.6854
10.6855
10.6856
10.6856
10.6857
10.6857
10.6857
10.6857
10.6856
10.6856
10.6855
10.6854
10.6853
10.6852
10.685
10.6848
10.6846
10.6844
10.6842
10.684
10.6837
10.6834
10.6831
10.6829
10.6826
10.6823
10.682
10.6817
10.6815
10.6813
10.6811
10.6809
10.6808
10.6808
10.6808
10.6808
10.7386
10.7386
10.7386
10.7387
10.7388
10.739
10.7392
10.7394
10.7397
10.7399
10.7402
10.7405
10.7408
10.7411
10.7414
10.7417
10.742
10.7422
10.7425
10.7427
10.7429
10.7431
10.7432
10.7434
10.7435
10.7436
10.7437
10.7437
10.7438
10.7438
10.7438
10.7438
10.7437
10.7437
10.7436
10.7435
10.7434
10.7432
10.7431
10.7429
10.7427
10.7425
10.7422
10.742
10.7417
10.7414
10.7411
10.7408
10.7405
10.7402
10.7399
10.7397
10.7394
10.7392
10.739
10.7388
10.7387
10.7386
10.7386
10.7386
10.7977
10.7977
10.7977
10.7978
10.7979
10.7981
10.7983
10.7986
10.7988
10.7991
10.7994
10.7997
10.8001
10.8004
10.8007
10.801
10.8013
10.8015
10.8018
10.802
10.8022
10.8024
10.8026
10.8027
10.8028
10.8029
10.803
10.8031
10.8031
10.8032
10.8032
10.8031
10.8031
10.803
10.8029
10.8028
10.8027
10.8026
10.8024
10.8022
10.802
10.8018
10.8015
10.8013
10.801
10.8007
10.8004
10.8001
10.7997
10.7994
10.7991
10.7988
10.7986
10.7983
10.7981
10.7979
10.7978
10.7977
10.7977
10.7977
10.8581
10.8581
10.8581
10.8582
10.8583
10.8585
10.8588
10.859
10.8593
10.8596
10.8599
10.8603
10.8606
10.8609
10.8612
10.8615
10.8618
10.8621
10.8624
10.8626
10.8628
10.863
10.8632
10.8634
10.8635
10.8636
10.8637
10.8638
10.8638
10.8638
10.8638
10.8638
10.8638
10.8637
10.8636
10.8635
10.8634
10.8632
10.863
10.8628
10.8626
10.8624
10.8621
10.8618
10.8615
10.8612
10.8609
10.8606
10.8603
10.8599
10.8596
10.8593
10.859
10.8588
10.8585
10.8583
10.8582
10.8581
10.8581
10.8581
10.9199
10.9199
10.9199
10.92
10.9201
10.9203
10.9206
10.9208
10.9211
10.9215
10.9218
10.9221
10.9225
10.9228
10.9232
10.9235
10.9238
10.9241
10.9243
10.9246
10.9248
10.925
10.9252
10.9254
10.9255
10.9256
10.9257
10.9258
10.9258
10.9259
10.9259
10.9258
10.9258
10.9257
10.9256
10.9255
10.9254
10.9252
10.925
10.9248
10.9246
10.9243
10.9241
10.9238
10.9235
10.9232
10.9228
10.9225
10.9221
10.9218
10.9215
10.9211
10.9208
10.9206
10.9203
10.9201
10.92
10.9199
10.9199
10.9199
10.983
10.983
10.9831
10.9832
10.9833
10.9835
10.9838
10.9841
10.9844
10.9847
10.9851
10.9854
10.9858
10.9862
10.9865
10.9868
10.9872
10.9875