/*--------------------------------*- C++ -*----------------------------------*\
| =========                 |                                                 |
| \\      /  F ield         | foam-extend: Open Source CFD                    |
|  \\    /   O peration     | Version:     4.0                                |
|   \\  /    A nd           | Web:         http://www.foam-extend.org         |
|    \\/     M anipulation  |                                                 |
\*---------------------------------------------------------------------------*/
FoamFile
{
    version     2.0;
    format      ascii;
    class       volScalarField;
    location    "1030";
    object      cMinus;
}
// * * * * * * * * * * * * * * * * * * * * * * * * * * * * * * * * * * * * * //

dimensions      [0 0 0 0 0 0 0];

internalField   nonuniform List<scalar> 
6960
(
5.49786e-23
5.49551e-23
5.49288e-23
5.48992e-23
5.48718e-23
5.48473e-23
5.48258e-23
5.48069e-23
5.47903e-23
5.47756e-23
5.47625e-23
5.47507e-23
5.47402e-23
5.47306e-23
5.4722e-23
5.47143e-23
5.47072e-23
5.47008e-23
5.46951e-23
5.469e-23
5.46854e-23
5.46814e-23
5.46778e-23
5.46748e-23
5.46722e-23
5.46701e-23
5.46684e-23
5.46672e-23
5.46664e-23
5.46659e-23
5.46659e-23
5.46664e-23
5.46672e-23
5.46684e-23
5.46701e-23
5.46722e-23
5.46748e-23
5.46778e-23
5.46814e-23
5.46854e-23
5.469e-23
5.46951e-23
5.47008e-23
5.47072e-23
5.47143e-23
5.4722e-23
5.47306e-23
5.47402e-23
5.47507e-23
5.47625e-23
5.47756e-23
5.47903e-23
5.48069e-23
5.48258e-23
5.48473e-23
5.48718e-23
5.48992e-23
5.49288e-23
5.49551e-23
5.49786e-23
2.65525e-22
2.65553e-22
2.65435e-22
2.65303e-22
2.65183e-22
2.65078e-22
2.64989e-22
2.64914e-22
2.6485e-22
2.64795e-22
2.64748e-22
2.64708e-22
2.64674e-22
2.64644e-22
2.64618e-22
2.64595e-22
2.64575e-22
2.64558e-22
2.64543e-22
2.6453e-22
2.64518e-22
2.64508e-22
2.645e-22
2.64493e-22
2.64487e-22
2.64482e-22
2.64478e-22
2.64475e-22
2.64473e-22
2.64472e-22
2.64472e-22
2.64473e-22
2.64475e-22
2.64478e-22
2.64482e-22
2.64487e-22
2.64493e-22
2.645e-22
2.64508e-22
2.64518e-22
2.6453e-22
2.64543e-22
2.64558e-22
2.64575e-22
2.64595e-22
2.64618e-22
2.64644e-22
2.64674e-22
2.64708e-22
2.64748e-22
2.64795e-22
2.6485e-22
2.64914e-22
2.64989e-22
2.65078e-22
2.65183e-22
2.65303e-22
2.65435e-22
2.65553e-22
2.65525e-22
9.84839e-22
9.8513e-22
9.84859e-22
9.84513e-22
9.84185e-22
9.83894e-22
9.83641e-22
9.83421e-22
9.8323e-22
9.83065e-22
9.82922e-22
9.82797e-22
9.82687e-22
9.82591e-22
9.82507e-22
9.82432e-22
9.82367e-22
9.8231e-22
9.82259e-22
9.82215e-22
9.82177e-22
9.82144e-22
9.82115e-22
9.82091e-22
9.82071e-22
9.82054e-22
9.82041e-22
9.82032e-22
9.82026e-22
9.82023e-22
9.82023e-22
9.82026e-22
9.82032e-22
9.82041e-22
9.82054e-22
9.82071e-22
9.82091e-22
9.82115e-22
9.82144e-22
9.82177e-22
9.82215e-22
9.82259e-22
9.8231e-22
9.82367e-22
9.82432e-22
9.82507e-22
9.82591e-22
9.82687e-22
9.82797e-22
9.82922e-22
9.83065e-22
9.8323e-22
9.83421e-22
9.83641e-22
9.83894e-22
9.84185e-22
9.84513e-22
9.84859e-22
9.8513e-22
9.84839e-22
3.48585e-21
3.48754e-21
3.48726e-21
3.48663e-21
3.48596e-21
3.48532e-21
3.48473e-21
3.4842e-21
3.48371e-21
3.48327e-21
3.48287e-21
3.48251e-21
3.48218e-21
3.48189e-21
3.48163e-21
3.48139e-21
3.48118e-21
3.481e-21
3.48083e-21
3.48069e-21
3.48056e-21
3.48045e-21
3.48035e-21
3.48027e-21
3.4802e-21
3.48014e-21
3.4801e-21
3.48007e-21
3.48005e-21
3.48003e-21
3.48003e-21
3.48005e-21
3.48007e-21
3.4801e-21
3.48014e-21
3.4802e-21
3.48027e-21
3.48035e-21
3.48045e-21
3.48056e-21
3.48069e-21
3.48083e-21
3.481e-21
3.48118e-21
3.48139e-21
3.48163e-21
3.48189e-21
3.48218e-21
3.48251e-21
3.48287e-21
3.48327e-21
3.48371e-21
3.4842e-21
3.48473e-21
3.48532e-21
3.48596e-21
3.48663e-21
3.48726e-21
3.48754e-21
3.48585e-21
1.24343e-20
1.24428e-20
1.24444e-20
1.24445e-20
1.2444e-20
1.24432e-20
1.24423e-20
1.24413e-20
1.24403e-20
1.24392e-20
1.24382e-20
1.24373e-20
1.24363e-20
1.24355e-20
1.24347e-20
1.2434e-20
1.24333e-20
1.24327e-20
1.24322e-20
1.24317e-20
1.24313e-20
1.24309e-20
1.24306e-20
1.24303e-20
1.24301e-20
1.24299e-20
1.24297e-20
1.24296e-20
1.24295e-20
1.24295e-20
1.24295e-20
1.24295e-20
1.24296e-20
1.24297e-20
1.24299e-20
1.24301e-20
1.24303e-20
1.24306e-20
1.24309e-20
1.24313e-20
1.24317e-20
1.24322e-20
1.24327e-20
1.24333e-20
1.2434e-20
1.24347e-20
1.24355e-20
1.24363e-20
1.24373e-20
1.24382e-20
1.24392e-20
1.24403e-20
1.24413e-20
1.24423e-20
1.24432e-20
1.2444e-20
1.24445e-20
1.24444e-20
1.24428e-20
1.24343e-20
4.54221e-20
4.54629e-20
4.54785e-20
4.54872e-20
4.54926e-20
4.54955e-20
4.54967e-20
4.54967e-20
4.54957e-20
4.5494e-20
4.5492e-20
4.54897e-20
4.54873e-20
4.54849e-20
4.54826e-20
4.54804e-20
4.54783e-20
4.54764e-20
4.54746e-20
4.5473e-20
4.54716e-20
4.54704e-20
4.54693e-20
4.54683e-20
4.54675e-20
4.54669e-20
4.54664e-20
4.5466e-20
4.54657e-20
4.54656e-20
4.54656e-20
4.54657e-20
4.5466e-20
4.54664e-20
4.54669e-20
4.54675e-20
4.54683e-20
4.54693e-20
4.54704e-20
4.54716e-20
4.5473e-20
4.54746e-20
4.54764e-20
4.54783e-20
4.54804e-20
4.54826e-20
4.54849e-20
4.54873e-20
4.54897e-20
4.5492e-20
4.5494e-20
4.54957e-20
4.54967e-20
4.54967e-20
4.54955e-20
4.54926e-20
4.54872e-20
4.54785e-20
4.54629e-20
4.54221e-20
1.70753e-19
1.70944e-19
1.71041e-19
1.71107e-19
1.71155e-19
1.71188e-19
1.7121e-19
1.71224e-19
1.71231e-19
1.71233e-19
1.71232e-19
1.71228e-19
1.71223e-19
1.71217e-19
1.7121e-19
1.71204e-19
1.71197e-19
1.71191e-19
1.71186e-19
1.71181e-19
1.71176e-19
1.71172e-19
1.71168e-19
1.71165e-19
1.71162e-19
1.7116e-19
1.71158e-19
1.71156e-19
1.71156e-19
1.71155e-19
1.71155e-19
1.71156e-19
1.71156e-19
1.71158e-19
1.7116e-19
1.71162e-19
1.71165e-19
1.71168e-19
1.71172e-19
1.71176e-19
1.71181e-19
1.71186e-19
1.71191e-19
1.71197e-19
1.71204e-19
1.7121e-19
1.71217e-19
1.71223e-19
1.71228e-19
1.71232e-19
1.71233e-19
1.71231e-19
1.71224e-19
1.7121e-19
1.71188e-19
1.71155e-19
1.71107e-19
1.71041e-19
1.70944e-19
1.70753e-19
6.6157e-19
6.62461e-19
6.62986e-19
6.63376e-19
6.63671e-19
6.63889e-19
6.64046e-19
6.64153e-19
6.64223e-19
6.64264e-19
6.64285e-19
6.6429e-19
6.64286e-19
6.64274e-19
6.64259e-19
6.64241e-19
6.64223e-19
6.64204e-19
6.64186e-19
6.64169e-19
6.64153e-19
6.64138e-19
6.64126e-19
6.64115e-19
6.64105e-19
6.64097e-19
6.64091e-19
6.64086e-19
6.64083e-19
6.64082e-19
6.64082e-19
6.64083e-19
6.64086e-19
6.64091e-19
6.64097e-19
6.64105e-19
6.64115e-19
6.64126e-19
6.64138e-19
6.64153e-19
6.64169e-19
6.64186e-19
6.64204e-19
6.64223e-19
6.64241e-19
6.64259e-19
6.64274e-19
6.64286e-19
6.6429e-19
6.64285e-19
6.64264e-19
6.64223e-19
6.64153e-19
6.64046e-19
6.63889e-19
6.63671e-19
6.63376e-19
6.62986e-19
6.62461e-19
6.6157e-19
2.6428e-18
2.64697e-18
2.64968e-18
2.65178e-18
2.65341e-18
2.65465e-18
2.65556e-18
2.65621e-18
2.65667e-18
2.65697e-18
2.65716e-18
2.65726e-18
2.65731e-18
2.65731e-18
2.65729e-18
2.65725e-18
2.6572e-18
2.65715e-18
2.65709e-18
2.65704e-18
2.65698e-18
2.65694e-18
2.65689e-18
2.65685e-18
2.65682e-18
2.65679e-18
2.65677e-18
2.65676e-18
2.65675e-18
2.65674e-18
2.65674e-18
2.65675e-18
2.65676e-18
2.65677e-18
2.65679e-18
2.65682e-18
2.65685e-18
2.65689e-18
2.65694e-18
2.65698e-18
2.65704e-18
2.65709e-18
2.65715e-18
2.6572e-18
2.65725e-18
2.65729e-18
2.65731e-18
2.65731e-18
2.65726e-18
2.65716e-18
2.65697e-18
2.65667e-18
2.65621e-18
2.65556e-18
2.65465e-18
2.65341e-18
2.65178e-18
2.64968e-18
2.64697e-18
2.6428e-18
1.08846e-17
1.09044e-17
1.09181e-17
1.09291e-17
1.09377e-17
1.09443e-17
1.09492e-17
1.09529e-17
1.09555e-17
1.09573e-17
1.09585e-17
1.09593e-17
1.09598e-17
1.096e-17
1.09601e-17
1.09601e-17
1.096e-17
1.09598e-17
1.09597e-17
1.09595e-17
1.09593e-17
1.09592e-17
1.0959e-17
1.09589e-17
1.09588e-17
1.09587e-17
1.09586e-17
1.09586e-17
1.09585e-17
1.09585e-17
1.09585e-17
1.09585e-17
1.09586e-17
1.09586e-17
1.09587e-17
1.09588e-17
1.09589e-17
1.0959e-17
1.09592e-17
1.09593e-17
1.09595e-17
1.09597e-17
1.09598e-17
1.096e-17
1.09601e-17
1.09601e-17
1.096e-17
1.09598e-17
1.09593e-17
1.09585e-17
1.09573e-17
1.09555e-17
1.09529e-17
1.09492e-17
1.09443e-17
1.09377e-17
1.09291e-17
1.09181e-17
1.09044e-17
1.08846e-17
4.62042e-17
4.62991e-17
4.63685e-17
4.64247e-17
4.64694e-17
4.65041e-17
4.65304e-17
4.655e-17
4.65643e-17
4.65745e-17
4.65816e-17
4.65864e-17
4.65895e-17
4.65915e-17
4.65925e-17
4.65929e-17
4.6593e-17
4.65928e-17
4.65924e-17
4.65919e-17
4.65914e-17
4.65909e-17
4.65904e-17
4.659e-17
4.65896e-17
4.65893e-17
4.6589e-17
4.65888e-17
4.65887e-17
4.65886e-17
4.65886e-17
4.65887e-17
4.65888e-17
4.6589e-17
4.65893e-17
4.65896e-17
4.659e-17
4.65904e-17
4.65909e-17
4.65914e-17
4.65919e-17
4.65924e-17
4.65928e-17
4.6593e-17
4.65929e-17
4.65925e-17
4.65915e-17
4.65895e-17
4.65864e-17
4.65816e-17
4.65745e-17
4.65643e-17
4.655e-17
4.65304e-17
4.65041e-17
4.64694e-17
4.64247e-17
4.63685e-17
4.62991e-17
4.62042e-17
2.02023e-16
2.02486e-16
2.02839e-16
2.03128e-16
2.0336e-16
2.03541e-16
2.03679e-16
2.03783e-16
2.0386e-16
2.03915e-16
2.03955e-16
2.03983e-16
2.04001e-16
2.04014e-16
2.04021e-16
2.04026e-16
2.04028e-16
2.04029e-16
2.04028e-16
2.04028e-16
2.04026e-16
2.04025e-16
2.04023e-16
2.04022e-16
2.0402e-16
2.04019e-16
2.04018e-16
2.04018e-16
2.04017e-16
2.04017e-16
2.04017e-16
2.04017e-16
2.04018e-16
2.04018e-16
2.04019e-16
2.0402e-16
2.04022e-16
2.04023e-16
2.04025e-16
2.04026e-16
2.04028e-16
2.04028e-16
2.04029e-16
2.04028e-16
2.04026e-16
2.04021e-16
2.04014e-16
2.04001e-16
2.03983e-16
2.03955e-16
2.03915e-16
2.0386e-16
2.03783e-16
2.03679e-16
2.03541e-16
2.0336e-16
2.03128e-16
2.02839e-16
2.02486e-16
2.02023e-16
9.09006e-16
9.11305e-16
9.13116e-16
9.14617e-16
9.15824e-16
9.16771e-16
9.17499e-16
9.18049e-16
9.18459e-16
9.18759e-16
9.18976e-16
9.19131e-16
9.19239e-16
9.19312e-16
9.19361e-16
9.19393e-16
9.19412e-16
9.19422e-16
9.19427e-16
9.19427e-16
9.19425e-16
9.19422e-16
9.19417e-16
9.19413e-16
9.19409e-16
9.19405e-16
9.19402e-16
9.19399e-16
9.19398e-16
9.19397e-16
9.19397e-16
9.19398e-16
9.19399e-16
9.19402e-16
9.19405e-16
9.19409e-16
9.19413e-16
9.19417e-16
9.19422e-16
9.19425e-16
9.19427e-16
9.19427e-16
9.19422e-16
9.19412e-16
9.19393e-16
9.19361e-16
9.19312e-16
9.19239e-16
9.19131e-16
9.18976e-16
9.18759e-16
9.18459e-16
9.18049e-16
9.17499e-16
9.16771e-16
9.15824e-16
9.14617e-16
9.13116e-16
9.11305e-16
9.09006e-16
4.20355e-15
4.21518e-15
4.22459e-15
4.23246e-15
4.2388e-15
4.2438e-15
4.24766e-15
4.25059e-15
4.25278e-15
4.2544e-15
4.25558e-15
4.25643e-15
4.25704e-15
4.25746e-15
4.25776e-15
4.25795e-15
4.25808e-15
4.25816e-15
4.25821e-15
4.25823e-15
4.25824e-15
4.25824e-15
4.25823e-15
4.25822e-15
4.25821e-15
4.2582e-15
4.25818e-15
4.25818e-15
4.25817e-15
4.25817e-15
4.25817e-15
4.25817e-15
4.25818e-15
4.25818e-15
4.2582e-15
4.25821e-15
4.25822e-15
4.25823e-15
4.25824e-15
4.25824e-15
4.25823e-15
4.25821e-15
4.25816e-15
4.25808e-15
4.25795e-15
4.25776e-15
4.25746e-15
4.25704e-15
4.25643e-15
4.25558e-15
4.2544e-15
4.25278e-15
4.25059e-15
4.24766e-15
4.2438e-15
4.2388e-15
4.23246e-15
4.22459e-15
4.21518e-15
4.20355e-15
1.99436e-14
2.00034e-14
2.0053e-14
2.00947e-14
2.01284e-14
2.01551e-14
2.01757e-14
2.01914e-14
2.02032e-14
2.0212e-14
2.02184e-14
2.02231e-14
2.02265e-14
2.02289e-14
2.02306e-14
2.02318e-14
2.02326e-14
2.02331e-14
2.02334e-14
2.02336e-14
2.02338e-14
2.02338e-14
2.02338e-14
2.02338e-14
2.02338e-14
2.02338e-14
2.02337e-14
2.02337e-14
2.02337e-14
2.02337e-14
2.02337e-14
2.02337e-14
2.02337e-14
2.02337e-14
2.02338e-14
2.02338e-14
2.02338e-14
2.02338e-14
2.02338e-14
2.02338e-14
2.02336e-14
2.02334e-14
2.02331e-14
2.02326e-14
2.02318e-14
2.02306e-14
2.02289e-14
2.02265e-14
2.02231e-14
2.02184e-14
2.0212e-14
2.02032e-14
2.01914e-14
2.01757e-14
2.01551e-14
2.01284e-14
2.00947e-14
2.0053e-14
2.00034e-14
1.99436e-14
9.68664e-14
9.71789e-14
9.74435e-14
9.7667e-14
9.78483e-14
9.79917e-14
9.8103e-14
9.8188e-14
9.82522e-14
9.83e-14
9.83354e-14
9.83613e-14
9.83801e-14
9.83936e-14
9.84032e-14
9.841e-14
9.84148e-14
9.8418e-14
9.84202e-14
9.84217e-14
9.84226e-14
9.84231e-14
9.84234e-14
9.84236e-14
9.84236e-14
9.84236e-14
9.84235e-14
9.84235e-14
9.84234e-14
9.84234e-14
9.84234e-14
9.84234e-14
9.84235e-14
9.84235e-14
9.84236e-14
9.84236e-14
9.84236e-14
9.84234e-14
9.84231e-14
9.84226e-14
9.84217e-14
9.84202e-14
9.8418e-14
9.84148e-14
9.841e-14
9.84032e-14
9.83936e-14
9.83801e-14
9.83613e-14
9.83354e-14
9.83e-14
9.82522e-14
9.8188e-14
9.8103e-14
9.79917e-14
9.78483e-14
9.7667e-14
9.74435e-14
9.71789e-14
9.68664e-14
4.80319e-13
4.81975e-13
4.83403e-13
4.84613e-13
4.85597e-13
4.86376e-13
4.86982e-13
4.87446e-13
4.87797e-13
4.8806e-13
4.88255e-13
4.88398e-13
4.88503e-13
4.88579e-13
4.88633e-13
4.88672e-13
4.887e-13
4.8872e-13
4.88733e-13
4.88742e-13
4.88749e-13
4.88753e-13
4.88755e-13
4.88757e-13
4.88757e-13
4.88758e-13
4.88758e-13
4.88758e-13
4.88758e-13
4.88758e-13
4.88758e-13
4.88758e-13
4.88758e-13
4.88758e-13
4.88758e-13
4.88757e-13
4.88757e-13
4.88755e-13
4.88753e-13
4.88749e-13
4.88742e-13
4.88733e-13
4.8872e-13
4.887e-13
4.88672e-13
4.88633e-13
4.88579e-13
4.88503e-13
4.88398e-13
4.88255e-13
4.8806e-13
4.87797e-13
4.87446e-13
4.86982e-13
4.86376e-13
4.85597e-13
4.84613e-13
4.83403e-13
4.81975e-13
4.80319e-13
2.42333e-12
2.4322e-12
2.43997e-12
2.44658e-12
2.45195e-12
2.45622e-12
2.45954e-12
2.46209e-12
2.46402e-12
2.46547e-12
2.46655e-12
2.46734e-12
2.46793e-12
2.46835e-12
2.46866e-12
2.46889e-12
2.46905e-12
2.46916e-12
2.46924e-12
2.4693e-12
2.46934e-12
2.46936e-12
2.46938e-12
2.46939e-12
2.4694e-12
2.4694e-12
2.46941e-12
2.46941e-12
2.46941e-12
2.46941e-12
2.46941e-12
2.46941e-12
2.46941e-12
2.46941e-12
2.4694e-12
2.4694e-12
2.46939e-12
2.46938e-12
2.46936e-12
2.46934e-12
2.4693e-12
2.46924e-12
2.46916e-12
2.46905e-12
2.46889e-12
2.46866e-12
2.46835e-12
2.46793e-12
2.46734e-12
2.46655e-12
2.46547e-12
2.46402e-12
2.46209e-12
2.45954e-12
2.45622e-12
2.45195e-12
2.44658e-12
2.43997e-12
2.4322e-12
2.42333e-12
1.23896e-11
1.24375e-11
1.248e-11
1.25162e-11
1.25457e-11
1.25692e-11
1.25874e-11
1.26015e-11
1.26121e-11
1.26201e-11
1.26261e-11
1.26305e-11
1.26338e-11
1.26362e-11
1.26379e-11
1.26392e-11
1.26401e-11
1.26408e-11
1.26412e-11
1.26416e-11
1.26418e-11
1.2642e-11
1.26421e-11
1.26422e-11
1.26422e-11
1.26423e-11
1.26423e-11
1.26423e-11
1.26423e-11
1.26423e-11
1.26423e-11
1.26423e-11
1.26423e-11
1.26423e-11
1.26423e-11
1.26422e-11
1.26422e-11
1.26421e-11
1.2642e-11
1.26418e-11
1.26416e-11
1.26412e-11
1.26408e-11
1.26401e-11
1.26392e-11
1.26379e-11
1.26362e-11
1.26338e-11
1.26305e-11
1.26261e-11
1.26201e-11
1.26121e-11
1.26015e-11
1.25874e-11
1.25692e-11
1.25457e-11
1.25162e-11
1.248e-11
1.24375e-11
1.23896e-11
6.38813e-11
6.41405e-11
6.4373e-11
6.45714e-11
6.47333e-11
6.4862e-11
6.49624e-11
6.50396e-11
6.50983e-11
6.51425e-11
6.51755e-11
6.52e-11
6.52181e-11
6.52315e-11
6.52412e-11
6.52484e-11
6.52536e-11
6.52573e-11
6.52601e-11
6.5262e-11
6.52634e-11
6.52644e-11
6.52651e-11
6.52656e-11
6.52659e-11
6.52662e-11
6.52663e-11
6.52664e-11
6.52665e-11
6.52665e-11
6.52665e-11
6.52665e-11
6.52664e-11
6.52663e-11
6.52662e-11
6.52659e-11
6.52656e-11
6.52651e-11
6.52644e-11
6.52634e-11
6.5262e-11
6.52601e-11
6.52573e-11
6.52536e-11
6.52484e-11
6.52412e-11
6.52315e-11
6.52181e-11
6.52e-11
6.51755e-11
6.51425e-11
6.50983e-11
6.50396e-11
6.49624e-11
6.4862e-11
6.47333e-11
6.45714e-11
6.4373e-11
6.41405e-11
6.38813e-11
3.30293e-10
3.31691e-10
3.32956e-10
3.34038e-10
3.34921e-10
3.35623e-10
3.36171e-10
3.36594e-10
3.36915e-10
3.37157e-10
3.37338e-10
3.37473e-10
3.37573e-10
3.37647e-10
3.37701e-10
3.37741e-10
3.3777e-10
3.37791e-10
3.37806e-10
3.37818e-10
3.37826e-10
3.37832e-10
3.37836e-10
3.37839e-10
3.37841e-10
3.37842e-10
3.37843e-10
3.37844e-10
3.37844e-10
3.37844e-10
3.37844e-10
3.37844e-10
3.37844e-10
3.37843e-10
3.37842e-10
3.37841e-10
3.37839e-10
3.37836e-10
3.37832e-10
3.37826e-10
3.37818e-10
3.37806e-10
3.37791e-10
3.3777e-10
3.37741e-10
3.37701e-10
3.37647e-10
3.37573e-10
3.37473e-10
3.37338e-10
3.37157e-10
3.36915e-10
3.36594e-10
3.36171e-10
3.35623e-10
3.34921e-10
3.34038e-10
3.32956e-10
3.31691e-10
3.30293e-10
1.70131e-09
1.70878e-09
1.71558e-09
1.72141e-09
1.72616e-09
1.72995e-09
1.7329e-09
1.73518e-09
1.73692e-09
1.73823e-09
1.73921e-09
1.73994e-09
1.74048e-09
1.74088e-09
1.74118e-09
1.7414e-09
1.74156e-09
1.74168e-09
1.74176e-09
1.74183e-09
1.74187e-09
1.7419e-09
1.74193e-09
1.74194e-09
1.74196e-09
1.74197e-09
1.74197e-09
1.74198e-09
1.74198e-09
1.74198e-09
1.74198e-09
1.74198e-09
1.74198e-09
1.74197e-09
1.74197e-09
1.74196e-09
1.74194e-09
1.74193e-09
1.7419e-09
1.74187e-09
1.74183e-09
1.74176e-09
1.74168e-09
1.74156e-09
1.7414e-09
1.74118e-09
1.74088e-09
1.74048e-09
1.73994e-09
1.73921e-09
1.73823e-09
1.73692e-09
1.73518e-09
1.7329e-09
1.72995e-09
1.72616e-09
1.72141e-09
1.71558e-09
1.70878e-09
1.70131e-09
8.66482e-09
8.704e-09
8.7399e-09
8.77061e-09
8.79572e-09
8.81571e-09
8.83134e-09
8.84338e-09
8.85256e-09
8.8595e-09
8.8647e-09
8.86859e-09
8.87148e-09
8.87362e-09
8.8752e-09
8.87637e-09
8.87723e-09
8.87786e-09
8.87833e-09
8.87867e-09
8.87892e-09
8.8791e-09
8.87923e-09
8.87933e-09
8.8794e-09
8.87944e-09
8.87948e-09
8.8795e-09
8.87951e-09
8.87952e-09
8.87952e-09
8.87951e-09
8.8795e-09
8.87948e-09
8.87944e-09
8.8794e-09
8.87933e-09
8.87923e-09
8.8791e-09
8.87892e-09
8.87867e-09
8.87833e-09
8.87786e-09
8.87723e-09
8.87637e-09
8.8752e-09
8.87362e-09
8.87148e-09
8.86859e-09
8.8647e-09
8.8595e-09
8.85256e-09
8.84338e-09
8.83134e-09
8.81571e-09
8.79572e-09
8.77061e-09
8.7399e-09
8.704e-09
8.66482e-09
4.32639e-08
4.34639e-08
4.36479e-08
4.38054e-08
4.39342e-08
4.40367e-08
4.41169e-08
4.41787e-08
4.42259e-08
4.42615e-08
4.42883e-08
4.43083e-08
4.43232e-08
4.43343e-08
4.43425e-08
4.43486e-08
4.4353e-08
4.43564e-08
4.43588e-08
4.43606e-08
4.43619e-08
4.43629e-08
4.43636e-08
4.43641e-08
4.43645e-08
4.43647e-08
4.43649e-08
4.43651e-08
4.43651e-08
4.43652e-08
4.43652e-08
4.43651e-08
4.43651e-08
4.43649e-08
4.43647e-08
4.43645e-08
4.43641e-08
4.43636e-08
4.43629e-08
4.43619e-08
4.43606e-08
4.43588e-08
4.43564e-08
4.4353e-08
4.43486e-08
4.43425e-08
4.43343e-08
4.43232e-08
4.43083e-08
4.42883e-08
4.42615e-08
4.42259e-08
4.41787e-08
4.41169e-08
4.40367e-08
4.39342e-08
4.38054e-08
4.36479e-08
4.34639e-08
4.32639e-08
2.09764e-07
2.10749e-07
2.11656e-07
2.12433e-07
2.13068e-07
2.13573e-07
2.13969e-07
2.14274e-07
2.14507e-07
2.14683e-07
2.14816e-07
2.14915e-07
2.14989e-07
2.15044e-07
2.15084e-07
2.15115e-07
2.15137e-07
2.15154e-07
2.15166e-07
2.15175e-07
2.15182e-07
2.15187e-07
2.1519e-07
2.15193e-07
2.15195e-07
2.15196e-07
2.15197e-07
2.15198e-07
2.15198e-07
2.15198e-07
2.15198e-07
2.15198e-07
2.15198e-07
2.15197e-07
2.15196e-07
2.15195e-07
2.15193e-07
2.1519e-07
2.15187e-07
2.15182e-07
2.15175e-07
2.15166e-07
2.15154e-07
2.15137e-07
2.15115e-07
2.15084e-07
2.15044e-07
2.14989e-07
2.14915e-07
2.14816e-07
2.14683e-07
2.14507e-07
2.14274e-07
2.13969e-07
2.13573e-07
2.13068e-07
2.12433e-07
2.11656e-07
2.10749e-07
2.09764e-07
9.77185e-07
9.818e-07
9.86057e-07
9.89697e-07
9.92673e-07
9.95043e-07
9.96898e-07
9.98329e-07
9.99422e-07
1.00025e-06
1.00087e-06
1.00134e-06
1.00169e-06
1.00195e-06
1.00214e-06
1.00228e-06
1.00239e-06
1.00247e-06
1.00252e-06
1.00257e-06
1.0026e-06
1.00262e-06
1.00264e-06
1.00265e-06
1.00266e-06
1.00267e-06
1.00267e-06
1.00268e-06
1.00268e-06
1.00268e-06
1.00268e-06
1.00268e-06
1.00268e-06
1.00267e-06
1.00267e-06
1.00266e-06
1.00265e-06
1.00264e-06
1.00262e-06
1.0026e-06
1.00257e-06
1.00252e-06
1.00247e-06
1.00239e-06
1.00228e-06
1.00214e-06
1.00195e-06
1.00169e-06
1.00134e-06
1.00087e-06
1.00025e-06
9.99422e-07
9.98329e-07
9.96898e-07
9.95043e-07
9.92673e-07
9.89697e-07
9.86057e-07
9.818e-07
9.77185e-07
4.32308e-06
4.34342e-06
4.36217e-06
4.37819e-06
4.39128e-06
4.40171e-06
4.40987e-06
4.41617e-06
4.42099e-06
4.42464e-06
4.42738e-06
4.42944e-06
4.43098e-06
4.43212e-06
4.43297e-06
4.43361e-06
4.43408e-06
4.43443e-06
4.43469e-06
4.43488e-06
4.43503e-06
4.43513e-06
4.43521e-06
4.43527e-06
4.43531e-06
4.43534e-06
4.43537e-06
4.43538e-06
4.43539e-06
4.4354e-06
4.4354e-06
4.43539e-06
4.43538e-06
4.43537e-06
4.43534e-06
4.43531e-06
4.43527e-06
4.43521e-06
4.43513e-06
4.43503e-06
4.43488e-06
4.43469e-06
4.43443e-06
4.43408e-06
4.43361e-06
4.43297e-06
4.43212e-06
4.43098e-06
4.42944e-06
4.42738e-06
4.42464e-06
4.42099e-06
4.41617e-06
4.40987e-06
4.40171e-06
4.39128e-06
4.37819e-06
4.36217e-06
4.34342e-06
4.32308e-06
1.79322e-05
1.80153e-05
1.80918e-05
1.8157e-05
1.82103e-05
1.82527e-05
1.8286e-05
1.83116e-05
1.83313e-05
1.83461e-05
1.83573e-05
1.83657e-05
1.8372e-05
1.83767e-05
1.83802e-05
1.83828e-05
1.83847e-05
1.83861e-05
1.83872e-05
1.8388e-05
1.83886e-05
1.83891e-05
1.83894e-05
1.83896e-05
1.83898e-05
1.83899e-05
1.839e-05
1.83901e-05
1.83901e-05
1.83902e-05
1.83902e-05
1.83901e-05
1.83901e-05
1.839e-05
1.83899e-05
1.83898e-05
1.83896e-05
1.83894e-05
1.83891e-05
1.83886e-05
1.8388e-05
1.83872e-05
1.83861e-05
1.83847e-05
1.83828e-05
1.83802e-05
1.83767e-05
1.8372e-05
1.83657e-05
1.83573e-05
1.83461e-05
1.83313e-05
1.83116e-05
1.8286e-05
1.82527e-05
1.82103e-05
1.8157e-05
1.80918e-05
1.80153e-05
1.79322e-05
6.87777e-05
6.90874e-05
6.93714e-05
6.96132e-05
6.98108e-05
6.99681e-05
7.00913e-05
7.01864e-05
7.02592e-05
7.03143e-05
7.03559e-05
7.03871e-05
7.04104e-05
7.04279e-05
7.04409e-05
7.04506e-05
7.04578e-05
7.04632e-05
7.04672e-05
7.04702e-05
7.04725e-05
7.04742e-05
7.04754e-05
7.04763e-05
7.0477e-05
7.04775e-05
7.04778e-05
7.04781e-05
7.04782e-05
7.04783e-05
7.04783e-05
7.04782e-05
7.04781e-05
7.04778e-05
7.04775e-05
7.0477e-05
7.04763e-05
7.04754e-05
7.04742e-05
7.04725e-05
7.04702e-05
7.04672e-05
7.04632e-05
7.04578e-05
7.04506e-05
7.04409e-05
7.04279e-05
7.04104e-05
7.03871e-05
7.03559e-05
7.03143e-05
7.02592e-05
7.01864e-05
7.00913e-05
6.99681e-05
6.98108e-05
6.96132e-05
6.93714e-05
6.90874e-05
6.87777e-05
0.000240254
0.000241288
0.000242231
0.000243033
0.000243688
0.000244209
0.000244618
0.000244933
0.000245174
0.000245357
0.000245495
0.000245599
0.000245676
0.000245734
0.000245778
0.00024581
0.000245834
0.000245852
0.000245866
0.000245876
0.000245883
0.000245889
0.000245893
0.000245896
0.000245899
0.0002459
0.000245901
0.000245902
0.000245903
0.000245903
0.000245903
0.000245903
0.000245902
0.000245901
0.0002459
0.000245899
0.000245896
0.000245893
0.000245889
0.000245883
0.000245876
0.000245866
0.000245852
0.000245834
0.00024581
0.000245778
0.000245734
0.000245676
0.000245599
0.000245495
0.000245357
0.000245174
0.000244933
0.000244618
0.000244209
0.000243688
0.000243033
0.000242231
0.000241288
0.000240254
0.000752187
0.000755215
0.000757963
0.000760295
0.000762196
0.000763711
0.000764896
0.000765812
0.000766513
0.000767045
0.000767446
0.000767748
0.000767973
0.000768143
0.000768269
0.000768363
0.000768434
0.000768487
0.000768527
0.000768556
0.000768579
0.000768595
0.000768608
0.000768617
0.000768624
0.000768629
0.000768632
0.000768635
0.000768636
0.000768637
0.000768637
0.000768636
0.000768635
0.000768632
0.000768629
0.000768624
0.000768617
0.000768608
0.000768595
0.000768579
0.000768556
0.000768527
0.000768487
0.000768434
0.000768363
0.000768269
0.000768143
0.000767973
0.000767748
0.000767446
0.000767045
0.000766513
0.000765812
0.000764896
0.000763711
0.000762196
0.000760295
0.000757963
0.000755215
0.000752187
0.00207699
0.00208462
0.00209149
0.00209731
0.00210205
0.00210582
0.00210878
0.00211106
0.00211281
0.00211414
0.00211514
0.00211589
0.00211646
0.00211688
0.0021172
0.00211744
0.00211761
0.00211775
0.00211785
0.00211792
0.00211798
0.00211802
0.00211805
0.00211807
0.00211809
0.0021181
0.00211811
0.00211812
0.00211812
0.00211813
0.00211813
0.00211812
0.00211812
0.00211811
0.0021181
0.00211809
0.00211807
0.00211805
0.00211802
0.00211798
0.00211792
0.00211785
0.00211775
0.00211761
0.00211744
0.0021172
0.00211688
0.00211646
0.00211589
0.00211514
0.00211414
0.00211281
0.00211106
0.00210878
0.00210582
0.00210205
0.00209731
0.00209149
0.00208462
0.00207699
0.00498945
0.00500567
0.00502018
0.00503242
0.00504239
0.00505032
0.00505654
0.00506134
0.00506502
0.00506781
0.00506992
0.00507151
0.0050727
0.00507359
0.00507426
0.00507476
0.00507514
0.00507542
0.00507563
0.00507579
0.00507591
0.005076
0.00507607
0.00507612
0.00507616
0.00507618
0.0050762
0.00507622
0.00507623
0.00507623
0.00507623
0.00507623
0.00507622
0.0050762
0.00507618
0.00507616
0.00507612
0.00507607
0.005076
0.00507591
0.00507579
0.00507563
0.00507542
0.00507514
0.00507476
0.00507426
0.00507359
0.0050727
0.00507151
0.00506992
0.00506781
0.00506502
0.00506134
0.00505654
0.00505032
0.00504239
0.00503242
0.00502018
0.00500567
0.00498945
0.0103514
0.0103804
0.010406
0.0104275
0.0104451
0.010459
0.01047
0.0104784
0.0104849
0.0104898
0.0104935
0.0104963
0.0104984
0.0105
0.0105012
0.0105021
0.0105027
0.0105032
0.0105036
0.0105039
0.0105041
0.0105043
0.0105044
0.0105045
0.0105046
0.0105046
0.0105046
0.0105047
0.0105047
0.0105047
0.0105047
0.0105047
0.0105047
0.0105046
0.0105046
0.0105046
0.0105045
0.0105044
0.0105043
0.0105041
0.0105039
0.0105036
0.0105032
0.0105027
0.0105021
0.0105012
0.0105
0.0104984
0.0104963
0.0104935
0.0104898
0.0104849
0.0104784
0.01047
0.010459
0.0104451
0.0104275
0.010406
0.0103804
0.0103514
0.018607
0.0186506
0.0186888
0.0187209
0.0187469
0.0187677
0.0187839
0.0187965
0.0188061
0.0188134
0.018819
0.0188232
0.0188263
0.0188287
0.0188304
0.0188318
0.0188328
0.0188335
0.0188341
0.0188345
0.0188348
0.0188351
0.0188353
0.0188354
0.0188355
0.0188356
0.0188356
0.0188357
0.0188357
0.0188357
0.0188357
0.0188357
0.0188357
0.0188356
0.0188356
0.0188355
0.0188354
0.0188353
0.0188351
0.0188348
0.0188345
0.0188341
0.0188335
0.0188328
0.0188318
0.0188304
0.0188287
0.0188263
0.0188232
0.018819
0.0188134
0.0188061
0.0187965
0.0187839
0.0187677
0.0187469
0.0187209
0.0186888
0.0186506
0.018607
0.0294208
0.029478
0.0295275
0.029569
0.0296026
0.0296294
0.0296504
0.0296667
0.0296791
0.0296886
0.0296958
0.0297012
0.0297053
0.0297084
0.0297107
0.0297124
0.0297137
0.0297147
0.0297155
0.029716
0.0297165
0.0297168
0.029717
0.0297172
0.0297173
0.0297174
0.0297175
0.0297176
0.0297176
0.0297176
0.0297176
0.0297176
0.0297176
0.0297175
0.0297174
0.0297173
0.0297172
0.029717
0.0297168
0.0297165
0.029716
0.0297155
0.0297147
0.0297137
0.0297124
0.0297107
0.0297084
0.0297053
0.0297012
0.0296958
0.0296886
0.0296791
0.0296667
0.0296504
0.0296294
0.0296026
0.029569
0.0295275
0.029478
0.0294208
0.041903
0.0419709
0.0420293
0.0420779
0.0421173
0.0421487
0.0421734
0.0421924
0.0422071
0.0422182
0.0422267
0.0422331
0.0422379
0.0422416
0.0422443
0.0422464
0.0422479
0.0422491
0.04225
0.0422507
0.0422512
0.0422516
0.0422519
0.0422521
0.0422523
0.0422524
0.0422525
0.0422525
0.0422526
0.0422526
0.0422526
0.0422526
0.0422525
0.0422525
0.0422524
0.0422523
0.0422521
0.0422519
0.0422516
0.0422512
0.0422507
0.04225
0.0422491
0.0422479
0.0422464
0.0422443
0.0422416
0.0422379
0.0422331
0.0422267
0.0422182
0.0422071
0.0421924
0.0421734
0.0421487
0.0421173
0.0420779
0.0420293
0.0419709
0.041903
0.0551762
0.0552527
0.0553176
0.0553715
0.0554153
0.0554501
0.0554775
0.0554987
0.055515
0.0555275
0.0555369
0.0555441
0.0555495
0.0555536
0.0555566
0.055559
0.0555607
0.0555621
0.0555631
0.0555638
0.0555644
0.0555648
0.0555652
0.0555654
0.0555656
0.0555658
0.0555659
0.0555659
0.055566
0.055566
0.055566
0.055566
0.0555659
0.0555659
0.0555658
0.0555656
0.0555654
0.0555652
0.0555648
0.0555644
0.0555638
0.0555631
0.0555621
0.0555607
0.055559
0.0555566
0.0555536
0.0555495
0.0555441
0.0555369
0.0555275
0.055515
0.0554987
0.0554775
0.0554501
0.0554153
0.0553715
0.0553176
0.0552527
0.0551762
0.0687158
0.0687994
0.0688698
0.0689282
0.0689756
0.0690133
0.069043
0.069066
0.0690837
0.0690973
0.0691076
0.0691154
0.0691213
0.0691258
0.0691291
0.0691317
0.0691336
0.0691351
0.0691362
0.0691371
0.0691377
0.0691382
0.0691386
0.0691389
0.0691391
0.0691392
0.0691393
0.0691394
0.0691395
0.0691395
0.0691395
0.0691395
0.0691394
0.0691393
0.0691392
0.0691391
0.0691389
0.0691386
0.0691382
0.0691377
0.0691371
0.0691362
0.0691351
0.0691336
0.0691317
0.0691291
0.0691258
0.0691213
0.0691154
0.0691076
0.0690973
0.0690837
0.069066
0.069043
0.0690133
0.0689756
0.0689282
0.0688698
0.0687994
0.0687158
0.0823262
0.0824166
0.0824922
0.0825548
0.0826056
0.0826461
0.0826779
0.0827027
0.0827218
0.0827364
0.0827476
0.082756
0.0827624
0.0827673
0.082771
0.0827738
0.0827759
0.0827775
0.0827787
0.0827797
0.0827804
0.0827809
0.0827813
0.0827816
0.0827819
0.082782
0.0827822
0.0827823
0.0827823
0.0827823
0.0827823
0.0827823
0.0827823
0.0827822
0.082782
0.0827819
0.0827816
0.0827813
0.0827809
0.0827804
0.0827797
0.0827787
0.0827775
0.0827759
0.0827738
0.082771
0.0827673
0.0827624
0.082756
0.0827476
0.0827364
0.0827218
0.0827027
0.0826779
0.0826461
0.0826056
0.0825548
0.0824922
0.0824166
0.0823262
0.095981
0.096078
0.0961589
0.0962257
0.0962799
0.0963232
0.0963573
0.0963839
0.0964044
0.0964201
0.0964321
0.0964413
0.0964482
0.0964535
0.0964575
0.0964605
0.0964628
0.0964646
0.0964659
0.0964669
0.0964677
0.0964683
0.0964688
0.0964691
0.0964694
0.0964696
0.0964697
0.0964698
0.0964699
0.0964699
0.0964699
0.0964699
0.0964698
0.0964697
0.0964696
0.0964694
0.0964691
0.0964688
0.0964683
0.0964677
0.0964669
0.0964659
0.0964646
0.0964628
0.0964605
0.0964575
0.0964535
0.0964482
0.0964413
0.0964321
0.0964201
0.0964044
0.0963839
0.0963573
0.0963232
0.0962799
0.0962257
0.0961589
0.096078
0.095981
0.109702
0.109806
0.109892
0.109963
0.110021
0.110067
0.110104
0.110132
0.110154
0.110171
0.110184
0.110194
0.110201
0.110207
0.110211
0.110215
0.110217
0.110219
0.110221
0.110222
0.110223
0.110223
0.110224
0.110224
0.110224
0.110225
0.110225
0.110225
0.110225
0.110225
0.110225
0.110225
0.110225
0.110225
0.110225
0.110224
0.110224
0.110224
0.110223
0.110223
0.110222
0.110221
0.110219
0.110217
0.110215
0.110211
0.110207
0.110201
0.110194
0.110184
0.110171
0.110154
0.110132
0.110104
0.110067
0.110021
0.109963
0.109892
0.109806
0.109702
0.123512
0.123622
0.123714
0.12379
0.123851
0.1239
0.123939
0.123969
0.123993
0.124011
0.124025
0.124035
0.124043
0.12405
0.124054
0.124058
0.12406
0.124063
0.124064
0.124065
0.124066
0.124067
0.124068
0.124068
0.124068
0.124069
0.124069
0.124069
0.124069
0.124069
0.124069
0.124069
0.124069
0.124069
0.124069
0.124068
0.124068
0.124068
0.124067
0.124066
0.124065
0.124064
0.124063
0.12406
0.124058
0.124054
0.12405
0.124043