/*--------------------------------*- C++ -*----------------------------------*\
| =========                 |                                                 |
| \\      /  F ield         | foam-extend: Open Source CFD                    |
|  \\    /   O peration     | Version:     4.0                                |
|   \\  /    A nd           | Web:         http://www.foam-extend.org         |
|    \\/     M anipulation  |                                                 |
\*---------------------------------------------------------------------------*/
FoamFile
{
    version     2.0;
    format      ascii;
    class       volScalarField;
    location    "1030";
    object      cPlus;
}
// * * * * * * * * * * * * * * * * * * * * * * * * * * * * * * * * * * * * * //

dimensions      [0 0 0 0 0 0 0];

internalField   nonuniform List<scalar> 
6960
(
0.279809
0.279778
0.279745
0.279716
0.279692
0.279673
0.279658
0.279646
0.279637
0.27963
0.279625
0.279621
0.279618
0.279615
0.279613
0.279612
0.279611
0.27961
0.27961
0.279609
0.279609
0.279609
0.279608
0.279608
0.279608
0.279608
0.279608
0.279608
0.279608
0.279608
0.279608
0.279608
0.279608
0.279608
0.279608
0.279608
0.279608
0.279608
0.279609
0.279609
0.279609
0.27961
0.27961
0.279611
0.279612
0.279613
0.279615
0.279618
0.279621
0.279625
0.27963
0.279637
0.279646
0.279658
0.279673
0.279692
0.279716
0.279745
0.279778
0.279809
0.0782465
0.0782299
0.0782118
0.078196
0.0781828
0.0781723
0.078164
0.0781575
0.0781525
0.0781487
0.0781458
0.0781436
0.0781419
0.0781406
0.0781396
0.0781389
0.0781383
0.0781379
0.0781375
0.0781373
0.0781371
0.0781369
0.0781368
0.0781367
0.0781366
0.0781366
0.0781365
0.0781365
0.0781365
0.0781365
0.0781365
0.0781365
0.0781365
0.0781365
0.0781366
0.0781366
0.0781367
0.0781368
0.0781369
0.0781371
0.0781373
0.0781375
0.0781379
0.0781383
0.0781389
0.0781396
0.0781406
0.0781419
0.0781436
0.0781458
0.0781487
0.0781525
0.0781575
0.078164
0.0781723
0.0781828
0.078196
0.0782118
0.0782299
0.0782465
0.0283251
0.0283194
0.0283127
0.0283067
0.0283017
0.0282977
0.0282946
0.0282921
0.0282902
0.0282887
0.0282876
0.0282867
0.0282861
0.0282856
0.0282852
0.0282849
0.0282847
0.0282845
0.0282844
0.0282843
0.0282842
0.0282841
0.0282841
0.028284
0.028284
0.028284
0.028284
0.028284
0.028284
0.028284
0.028284
0.028284
0.028284
0.028284
0.028284
0.028284
0.028284
0.0282841
0.0282841
0.0282842
0.0282843
0.0282844
0.0282845
0.0282847
0.0282849
0.0282852
0.0282856
0.0282861
0.0282867
0.0282876
0.0282887
0.0282902
0.0282921
0.0282946
0.0282977
0.0283017
0.0283067
0.0283127
0.0283194
0.0283251
0.0145491
0.0145489
0.014548
0.0145471
0.0145463
0.0145456
0.0145451
0.0145446
0.0145443
0.014544
0.0145438
0.0145437
0.0145435
0.0145435
0.0145434
0.0145433
0.0145433
0.0145432
0.0145432
0.0145432
0.0145432
0.0145432
0.0145431
0.0145431
0.0145431
0.0145431
0.0145431
0.0145431
0.0145431
0.0145431
0.0145431
0.0145431
0.0145431
0.0145431
0.0145431
0.0145431
0.0145431
0.0145431
0.0145432
0.0145432
0.0145432
0.0145432
0.0145432
0.0145433
0.0145433
0.0145434
0.0145435
0.0145435
0.0145437
0.0145438
0.014544
0.0145443
0.0145446
0.0145451
0.0145456
0.0145463
0.0145471
0.014548
0.0145489
0.0145491
0.0107595
0.0107617
0.0107633
0.0107645
0.0107655
0.0107662
0.0107668
0.0107673
0.0107676
0.0107679
0.010768
0.0107682
0.0107683
0.0107684
0.0107684
0.0107685
0.0107685
0.0107685
0.0107685
0.0107685
0.0107685
0.0107686
0.0107686
0.0107686
0.0107686
0.0107686
0.0107686
0.0107686
0.0107686
0.0107686
0.0107686
0.0107686
0.0107686
0.0107686
0.0107686
0.0107686
0.0107686
0.0107686
0.0107686
0.0107685
0.0107685
0.0107685
0.0107685
0.0107685
0.0107685
0.0107684
0.0107684
0.0107683
0.0107682
0.010768
0.0107679
0.0107676
0.0107673
0.0107668
0.0107662
0.0107655
0.0107645
0.0107633
0.0107617
0.0107595
0.00979066
0.00979381
0.00979634
0.00979841
0.00980007
0.00980137
0.00980239
0.00980317
0.00980376
0.00980421
0.00980455
0.0098048
0.00980499
0.00980513
0.00980524
0.00980532
0.00980538
0.00980542
0.00980546
0.00980548
0.0098055
0.00980552
0.00980553
0.00980554
0.00980554
0.00980555
0.00980555
0.00980555
0.00980556
0.00980556
0.00980556
0.00980556
0.00980555
0.00980555
0.00980555
0.00980554
0.00980554
0.00980553
0.00980552
0.0098055
0.00980548
0.00980546
0.00980542
0.00980538
0.00980532
0.00980524
0.00980513
0.00980499
0.0098048
0.00980455
0.00980421
0.00980376
0.00980317
0.00980239
0.00980137
0.00980007
0.00979841
0.00979634
0.00979381
0.00979066
0.00960873
0.00961225
0.00961514
0.00961751
0.00961943
0.00962094
0.00962212
0.00962302
0.00962371
0.00962424
0.00962463
0.00962493
0.00962515
0.00962532
0.00962544
0.00962554
0.00962561
0.00962566
0.0096257
0.00962573
0.00962576
0.00962577
0.00962579
0.0096258
0.0096258
0.00962581
0.00962581
0.00962582
0.00962582
0.00962582
0.00962582
0.00962582
0.00962582
0.00962581
0.00962581
0.0096258
0.0096258
0.00962579
0.00962577
0.00962576
0.00962573
0.0096257
0.00962566
0.00962561
0.00962554
0.00962544
0.00962532
0.00962515
0.00962493
0.00962463
0.00962424
0.00962371
0.00962302
0.00962212
0.00962094
0.00961943
0.00961751
0.00961514
0.00961225
0.00960873
0.00964417
0.00964785
0.00965089
0.0096534
0.00965542
0.00965702
0.00965827
0.00965922
0.00965996
0.00966051
0.00966093
0.00966124
0.00966148
0.00966166
0.00966179
0.00966189
0.00966197
0.00966202
0.00966207
0.0096621
0.00966212
0.00966214
0.00966216
0.00966217
0.00966218
0.00966218
0.00966219
0.00966219
0.00966219
0.00966219
0.00966219
0.00966219
0.00966219
0.00966219
0.00966218
0.00966218
0.00966217
0.00966216
0.00966214
0.00966212
0.0096621
0.00966207
0.00966202
0.00966197
0.00966189
0.00966179
0.00966166
0.00966148
0.00966124
0.00966093
0.00966051
0.00965996
0.00965922
0.00965827
0.00965702
0.00965542
0.0096534
0.00965089
0.00964785
0.00964417
0.00974226
0.00974604
0.00974918
0.00975176
0.00975384
0.00975549
0.00975678
0.00975777
0.00975852
0.00975909
0.00975952
0.00975985
0.00976009
0.00976028
0.00976042
0.00976052
0.0097606
0.00976066
0.0097607
0.00976074
0.00976076
0.00976078
0.0097608
0.00976081
0.00976082
0.00976082
0.00976083
0.00976083
0.00976083
0.00976083
0.00976083
0.00976083
0.00976083
0.00976083
0.00976082
0.00976082
0.00976081
0.0097608
0.00976078
0.00976076
0.00976074
0.0097607
0.00976066
0.0097606
0.00976052
0.00976042
0.00976028
0.00976009
0.00975985
0.00975952
0.00975909
0.00975852
0.00975777
0.00975678
0.00975549
0.00975384
0.00975176
0.00974918
0.00974604
0.00974226
0.00986277
0.00986664
0.00986985
0.0098725
0.00987463
0.00987632
0.00987763
0.00987865
0.00987942
0.00988001
0.00988045
0.00988079
0.00988104
0.00988123
0.00988137
0.00988147
0.00988155
0.00988162
0.00988166
0.0098817
0.00988172
0.00988174
0.00988176
0.00988177
0.00988178
0.00988179
0.00988179
0.00988179
0.0098818
0.0098818
0.0098818
0.0098818
0.00988179
0.00988179
0.00988179
0.00988178
0.00988177
0.00988176
0.00988174
0.00988172
0.0098817
0.00988166
0.00988162
0.00988155
0.00988147
0.00988137
0.00988123
0.00988104
0.00988079
0.00988045
0.00988001
0.00987942
0.00987865
0.00987763
0.00987632
0.00987463
0.0098725
0.00986985
0.00986664
0.00986277
0.00999612
0.0100001
0.0100034
0.0100061
0.0100083
0.01001
0.0100113
0.0100124
0.0100132
0.0100138
0.0100142
0.0100146
0.0100148
0.010015
0.0100152
0.0100153
0.0100154
0.0100154
0.0100155
0.0100155
0.0100155
0.0100155
0.0100156
0.0100156
0.0100156
0.0100156
0.0100156
0.0100156
0.0100156
0.0100156
0.0100156
0.0100156
0.0100156
0.0100156
0.0100156
0.0100156
0.0100156
0.0100156
0.0100155
0.0100155
0.0100155
0.0100155
0.0100154
0.0100154
0.0100153
0.0100152
0.010015
0.0100148
0.0100146
0.0100142
0.0100138
0.0100132
0.0100124
0.0100113
0.01001
0.0100083
0.0100061
0.0100034
0.0100001
0.00999612
0.0101407
0.0101448
0.0101482
0.0101509
0.0101532
0.010155
0.0101563
0.0101574
0.0101582
0.0101588
0.0101593
0.0101596
0.0101599
0.0101601
0.0101603
0.0101604
0.0101605
0.0101605
0.0101606
0.0101606
0.0101606
0.0101607
0.0101607
0.0101607
0.0101607
0.0101607
0.0101607
0.0101607
0.0101607
0.0101607
0.0101607
0.0101607
0.0101607
0.0101607
0.0101607
0.0101607
0.0101607
0.0101607
0.0101607
0.0101606
0.0101606
0.0101606
0.0101605
0.0101605
0.0101604
0.0101603
0.0101601
0.0101599
0.0101596
0.0101593
0.0101588
0.0101582
0.0101574
0.0101563
0.010155
0.0101532
0.0101509
0.0101482
0.0101448
0.0101407
0.0102972
0.0103014
0.0103048
0.0103077
0.01031
0.0103118
0.0103132
0.0103143
0.0103151
0.0103158
0.0103163
0.0103166
0.0103169
0.0103171
0.0103172
0.0103174
0.0103174
0.0103175
0.0103176
0.0103176
0.0103176
0.0103176
0.0103177
0.0103177
0.0103177
0.0103177
0.0103177
0.0103177
0.0103177
0.0103177
0.0103177
0.0103177
0.0103177
0.0103177
0.0103177
0.0103177
0.0103177
0.0103177
0.0103176
0.0103176
0.0103176
0.0103176
0.0103175
0.0103174
0.0103174
0.0103172
0.0103171
0.0103169
0.0103166
0.0103163
0.0103158
0.0103151
0.0103143
0.0103132
0.0103118
0.01031
0.0103077
0.0103048
0.0103014
0.0102972
0.0104667
0.010471
0.0104746
0.0104775
0.0104799
0.0104817
0.0104832
0.0104843
0.0104852
0.0104858
0.0104863
0.0104867
0.010487
0.0104872
0.0104874
0.0104875
0.0104876
0.0104876
0.0104877
0.0104877
0.0104877
0.0104878
0.0104878
0.0104878
0.0104878
0.0104878
0.0104878
0.0104878
0.0104878
0.0104878
0.0104878
0.0104878
0.0104878
0.0104878
0.0104878
0.0104878
0.0104878
0.0104878
0.0104878
0.0104877
0.0104877
0.0104877
0.0104876
0.0104876
0.0104875
0.0104874
0.0104872
0.010487
0.0104867
0.0104863
0.0104858
0.0104852
0.0104843
0.0104832
0.0104817
0.0104799
0.0104775
0.0104746
0.010471
0.0104667
0.0106509
0.0106554
0.010659
0.010662
0.0106645
0.0106664
0.0106679
0.0106691
0.0106699
0.0106706
0.0106711
0.0106715
0.0106718
0.010672
0.0106722
0.0106723
0.0106724
0.0106725
0.0106725
0.0106725
0.0106726
0.0106726
0.0106726
0.0106726
0.0106726
0.0106727
0.0106727
0.0106727
0.0106727
0.0106727
0.0106727
0.0106727
0.0106727
0.0106727
0.0106727
0.0106726
0.0106726
0.0106726
0.0106726
0.0106726
0.0106725
0.0106725
0.0106725
0.0106724
0.0106723
0.0106722
0.010672
0.0106718
0.0106715
0.0106711
0.0106706
0.0106699
0.0106691
0.0106679
0.0106664
0.0106645
0.010662
0.010659
0.0106554
0.0106509
0.0108517
0.0108562
0.01086
0.0108631
0.0108656
0.0108676
0.0108692
0.0108704
0.0108713
0.010872
0.0108725
0.0108729
0.0108732
0.0108734
0.0108736
0.0108737
0.0108738
0.0108739
0.0108739
0.010874
0.010874
0.010874
0.0108741
0.0108741
0.0108741
0.0108741
0.0108741
0.0108741
0.0108741
0.0108741
0.0108741
0.0108741
0.0108741
0.0108741
0.0108741
0.0108741
0.0108741
0.0108741
0.010874
0.010874
0.010874
0.0108739
0.0108739
0.0108738
0.0108737
0.0108736
0.0108734
0.0108732
0.0108729
0.0108725
0.010872
0.0108713
0.0108704
0.0108692
0.0108676
0.0108656
0.0108631
0.01086
0.0108562
0.0108517
0.0110712
0.0110759
0.0110798
0.0110831
0.0110857
0.0110877
0.0110893
0.0110906
0.0110915
0.0110922
0.0110928
0.0110932
0.0110935
0.0110937
0.0110939
0.011094
0.0110941
0.0110942
0.0110943
0.0110943
0.0110943
0.0110944
0.0110944
0.0110944
0.0110944
0.0110944
0.0110944
0.0110944
0.0110944
0.0110944
0.0110944
0.0110944
0.0110944
0.0110944
0.0110944
0.0110944
0.0110944
0.0110944
0.0110944
0.0110943
0.0110943
0.0110943
0.0110942
0.0110941
0.011094
0.0110939
0.0110937
0.0110935
0.0110932
0.0110928
0.0110922
0.0110915
0.0110906
0.0110893
0.0110877
0.0110857
0.0110831
0.0110798
0.0110759
0.0110712
0.0113122
0.0113171
0.0113212
0.0113245
0.0113272
0.0113294
0.011331
0.0113323
0.0113333
0.011334
0.0113346
0.011335
0.0113354
0.0113356
0.0113358
0.0113359
0.011336
0.0113361
0.0113362
0.0113362
0.0113362
0.0113363
0.0113363
0.0113363
0.0113363
0.0113363
0.0113363
0.0113363
0.0113363
0.0113363
0.0113363
0.0113363
0.0113363
0.0113363
0.0113363
0.0113363
0.0113363
0.0113363
0.0113363
0.0113362
0.0113362
0.0113362
0.0113361
0.011336
0.0113359
0.0113358
0.0113356
0.0113354
0.011335
0.0113346
0.011334
0.0113333
0.0113323
0.011331
0.0113294
0.0113272
0.0113245
0.0113212
0.0113171
0.0113122
0.011578
0.0115831
0.0115873
0.0115908
0.0115936
0.0115958
0.0115976
0.0115989
0.0115999
0.0116007
0.0116013
0.0116018
0.0116021
0.0116023
0.0116025
0.0116027
0.0116028
0.0116029
0.0116029
0.011603
0.011603
0.011603
0.0116031
0.0116031
0.0116031
0.0116031
0.0116031
0.0116031
0.0116031
0.0116031
0.0116031
0.0116031
0.0116031
0.0116031
0.0116031
0.0116031
0.0116031
0.0116031
0.011603
0.011603
0.011603
0.0116029
0.0116029
0.0116028
0.0116027
0.0116025
0.0116023
0.0116021
0.0116018
0.0116013
0.0116007
0.0115999
0.0115989
0.0115976
0.0115958
0.0115936
0.0115908
0.0115873
0.0115831
0.011578
0.0118725
0.0118779
0.0118823
0.0118859
0.0118888
0.0118912
0.011893
0.0118944
0.0118955
0.0118963
0.0118969
0.0118974
0.0118977
0.011898
0.0118982
0.0118983
0.0118984
0.0118985
0.0118986
0.0118986
0.0118987
0.0118987
0.0118987
0.0118987
0.0118987
0.0118988
0.0118988
0.0118988
0.0118988
0.0118988
0.0118988
0.0118988
0.0118988
0.0118988
0.0118988
0.0118987
0.0118987
0.0118987
0.0118987
0.0118987
0.0118986
0.0118986
0.0118985
0.0118984
0.0118983
0.0118982
0.011898
0.0118977
0.0118974
0.0118969
0.0118963
0.0118955
0.0118944
0.011893
0.0118912
0.0118888
0.0118859
0.0118823
0.0118779
0.0118725
0.0122007
0.0122063
0.0122109
0.0122148
0.0122178
0.0122203
0.0122222
0.0122237
0.0122248
0.0122257
0.0122263
0.0122268
0.0122272
0.0122274
0.0122276
0.0122278
0.0122279
0.012228
0.0122281
0.0122281
0.0122282
0.0122282
0.0122282
0.0122282
0.0122283
0.0122283
0.0122283
0.0122283
0.0122283
0.0122283
0.0122283
0.0122283
0.0122283
0.0122283
0.0122283
0.0122283
0.0122282
0.0122282
0.0122282
0.0122282
0.0122281
0.0122281
0.012228
0.0122279
0.0122278
0.0122276
0.0122274
0.0122272
0.0122268
0.0122263
0.0122257
0.0122248
0.0122237
0.0122222
0.0122203
0.0122178
0.0122148
0.0122109
0.0122063
0.0122007
0.0125687
0.0125746
0.0125795
0.0125836
0.0125868
0.0125894
0.0125914
0.012593
0.0125942
0.0125951
0.0125957
0.0125963
0.0125967
0.0125969
0.0125972
0.0125973
0.0125975
0.0125976
0.0125976
0.0125977
0.0125977
0.0125978
0.0125978
0.0125978
0.0125978
0.0125978
0.0125978
0.0125978
0.0125978
0.0125978
0.0125978
0.0125978
0.0125978
0.0125978
0.0125978
0.0125978
0.0125978
0.0125978
0.0125978
0.0125977
0.0125977
0.0125976
0.0125976
0.0125975
0.0125973
0.0125972
0.0125969
0.0125967
0.0125963
0.0125957
0.0125951
0.0125942
0.012593
0.0125914
0.0125894
0.0125868
0.0125836
0.0125795
0.0125746
0.0125687
0.0129844
0.0129907
0.0129959
0.0130002
0.0130036
0.0130064
0.0130085
0.0130101
0.0130114
0.0130124
0.0130131
0.0130137
0.0130141
0.0130144
0.0130146
0.0130148
0.0130149
0.013015
0.0130151
0.0130152
0.0130152
0.0130152
0.0130153
0.0130153
0.0130153
0.0130153
0.0130153
0.0130153
0.0130153
0.0130153
0.0130153
0.0130153
0.0130153
0.0130153
0.0130153
0.0130153
0.0130153
0.0130153
0.0130152
0.0130152
0.0130152
0.0130151
0.013015
0.0130149
0.0130148
0.0130146
0.0130144
0.0130141
0.0130137
0.0130131
0.0130124
0.0130114
0.0130101
0.0130085
0.0130064
0.0130036
0.0130002
0.0129959
0.0129907
0.0129844
0.0134578
0.0134646
0.0134701
0.0134747
0.0134784
0.0134813
0.0134836
0.0134854
0.0134867
0.0134878
0.0134885
0.0134891
0.0134896
0.0134899
0.0134902
0.0134903
0.0134905
0.0134906
0.0134907
0.0134907
0.0134908
0.0134908
0.0134908
0.0134909
0.0134909
0.0134909
0.0134909
0.0134909
0.0134909
0.0134909
0.0134909
0.0134909
0.0134909
0.0134909
0.0134909
0.0134909
0.0134909
0.0134908
0.0134908
0.0134908
0.0134907
0.0134907
0.0134906
0.0134905
0.0134903
0.0134902
0.0134899
0.0134896
0.0134891
0.0134885
0.0134878
0.0134867
0.0134854
0.0134836
0.0134813
0.0134784
0.0134747
0.0134701
0.0134646
0.0134578
0.0140023
0.0140096
0.0140156
0.0140205
0.0140245
0.0140276
0.0140301
0.014032
0.0140335
0.0140346
0.0140354
0.0140361
0.0140365
0.0140369
0.0140372
0.0140374
0.0140375
0.0140376
0.0140377
0.0140378
0.0140378
0.0140379
0.0140379
0.0140379
0.0140379
0.014038
0.014038
0.014038
0.014038
0.014038
0.014038
0.014038
0.014038
0.014038
0.014038
0.0140379
0.0140379
0.0140379
0.0140379
0.0140378
0.0140378
0.0140377
0.0140376
0.0140375
0.0140374
0.0140372
0.0140369
0.0140365
0.0140361
0.0140354
0.0140346
0.0140335
0.014032
0.0140301
0.0140276
0.0140245
0.0140205
0.0140156
0.0140096
0.0140023
0.0146357
0.0146436
0.0146501
0.0146555
0.0146598
0.0146632
0.0146659
0.014668
0.0146696
0.0146708
0.0146717
0.0146724
0.0146729
0.0146733
0.0146736
0.0146738
0.014674
0.0146741
0.0146742
0.0146743
0.0146743
0.0146744
0.0146744
0.0146744
0.0146744
0.0146745
0.0146745
0.0146745
0.0146745
0.0146745
0.0146745
0.0146745
0.0146745
0.0146745
0.0146745
0.0146744
0.0146744
0.0146744
0.0146744
0.0146743
0.0146743
0.0146742
0.0146741
0.014674
0.0146738
0.0146736
0.0146733
0.0146729
0.0146724
0.0146717
0.0146708
0.0146696
0.014668
0.0146659
0.0146632
0.0146598
0.0146555
0.0146501
0.0146436
0.0146357
0.0153824
0.0153911
0.0153982
0.0154041
0.0154089
0.0154127
0.0154156
0.0154179
0.0154197
0.015421
0.015422
0.0154228
0.0154233
0.0154238
0.0154241
0.0154243
0.0154245
0.0154247
0.0154248
0.0154249
0.0154249
0.015425
0.015425
0.015425
0.015425
0.0154251
0.0154251
0.0154251
0.0154251
0.0154251
0.0154251
0.0154251
0.0154251
0.0154251
0.0154251
0.015425
0.015425
0.015425
0.015425
0.0154249
0.0154249
0.0154248
0.0154247
0.0154245
0.0154243
0.0154241
0.0154238
0.0154233
0.0154228
0.015422
0.015421
0.0154197
0.0154179
0.0154156
0.0154127
0.0154089
0.0154041
0.0153982
0.0153911
0.0153824
0.0162769
0.0162867
0.0162946
0.0163012
0.0163066
0.0163108
0.0163141
0.0163167
0.0163186
0.0163201
0.0163212
0.0163221
0.0163227
0.0163232
0.0163236
0.0163239
0.0163241
0.0163242
0.0163243
0.0163244
0.0163245
0.0163245
0.0163246
0.0163246
0.0163246
0.0163247
0.0163247
0.0163247
0.0163247
0.0163247
0.0163247
0.0163247
0.0163247
0.0163247
0.0163247
0.0163246
0.0163246
0.0163246
0.0163245
0.0163245
0.0163244
0.0163243
0.0163242
0.0163241
0.0163239
0.0163236
0.0163232
0.0163227
0.0163221
0.0163212
0.0163201
0.0163186
0.0163167
0.0163141
0.0163108
0.0163066
0.0163012
0.0162946
0.0162867
0.0162769
0.0173696
0.0173806
0.0173897
0.0173972
0.0174033
0.0174081
0.0174119
0.0174148
0.017417
0.0174187
0.01742
0.017421
0.0174217
0.0174223
0.0174227
0.017423
0.0174232
0.0174234
0.0174236
0.0174237
0.0174237
0.0174238
0.0174238
0.0174239
0.0174239
0.0174239
0.0174239
0.0174239
0.0174239
0.0174239
0.0174239
0.0174239
0.0174239
0.0174239
0.0174239
0.0174239
0.0174239
0.0174238
0.0174238
0.0174237
0.0174237
0.0174236
0.0174234
0.0174232
0.017423
0.0174227
0.0174223
0.0174217
0.017421
0.01742
0.0174187
0.017417
0.0174148
0.0174119
0.0174081
0.0174033
0.0173972
0.0173897
0.0173806
0.0173696
0.0187349
0.0187477
0.0187583
0.0187671
0.0187742
0.0187798
0.0187842
0.0187876
0.0187902
0.0187922
0.0187937
0.0187948
0.0187957
0.0187963
0.0187968
0.0187972
0.0187975
0.0187977
0.0187978
0.0187979
0.018798
0.0187981
0.0187982
0.0187982
0.0187982
0.0187982
0.0187983
0.0187983
0.0187983
0.0187983
0.0187983
0.0187983
0.0187983
0.0187983
0.0187982
0.0187982
0.0187982
0.0187982
0.0187981
0.018798
0.0187979
0.0187978
0.0187977
0.0187975
0.0187972
0.0187968
0.0187963
0.0187957
0.0187948
0.0187937
0.0187922
0.0187902
0.0187876
0.0187842
0.0187798
0.0187742
0.0187671
0.0187583
0.0187477
0.0187349
0.0204854
0.0205007
0.0205134
0.0205239
0.0205324
0.0205391
0.0205444
0.0205485
0.0205516
0.020554
0.0205558
0.0205572
0.0205582
0.020559
0.0205595
0.02056
0.0205603
0.0205606
0.0205607
0.0205609
0.020561
0.0205611
0.0205611
0.0205612
0.0205612
0.0205612
0.0205613
0.0205613
0.0205613
0.0205613
0.0205613
0.0205613
0.0205613
0.0205613
0.0205612
0.0205612
0.0205612
0.0205611
0.0205611
0.020561
0.0205609
0.0205607
0.0205606
0.0205603
0.02056
0.0205595
0.020559
0.0205582
0.0205572
0.0205558
0.020554
0.0205516
0.0205485
0.0205444
0.0205391
0.0205324
0.0205239
0.0205134
0.0205007
0.0204854
0.022788
0.0228068
0.0228224
0.0228354
0.0228458
0.0228542
0.0228607
0.0228658
0.0228696
0.0228726
0.0228748
0.0228765
0.0228778
0.0228787
0.0228794
0.02288
0.0228804
0.0228807
0.0228809
0.0228811
0.0228812
0.0228813
0.0228814
0.0228815
0.0228815
0.0228815
0.0228816
0.0228816
0.0228816
0.0228816
0.0228816
0.0228816
0.0228816
0.0228816
0.0228815
0.0228815
0.0228815
0.0228814
0.0228813
0.0228812
0.0228811
0.0228809
0.0228807
0.0228804
0.02288
0.0228794
0.0228787
0.0228778
0.0228765
0.0228748
0.0228726
0.0228696
0.0228658
0.0228607
0.0228542
0.0228458
0.0228354
0.0228224
0.0228068
0.022788
0.0258772
0.0259009
0.0259206
0.025937
0.0259503
0.0259609
0.0259692
0.0259756
0.0259805
0.0259842
0.0259871
0.0259892
0.0259908
0.025992
0.0259929
0.0259936
0.0259941
0.0259945
0.0259948
0.0259951
0.0259952
0.0259954
0.0259955
0.0259955
0.0259956
0.0259956
0.0259956
0.0259957
0.0259957
0.0259957
0.0259957
0.0259957
0.0259957
0.0259956
0.0259956
0.0259956
0.0259955
0.0259955
0.0259954
0.0259952
0.0259951
0.0259948
0.0259945
0.0259941
0.0259936
0.0259929
0.025992
0.0259908
0.0259892
0.0259871
0.0259842
0.0259805
0.0259756
0.0259692
0.0259609
0.0259503
0.025937
0.0259206
0.0259009
0.0258772
0.0300468
0.030077
0.0301024
0.0301235
0.0301406
0.0301542
0.0301649
0.0301731
0.0301794
0.0301842
0.0301879
0.0301906
0.0301927
0.0301943
0.0301955
0.0301963
0.030197
0.0301975
0.0301979
0.0301982
0.0301984
0.0301986
0.0301987
0.0301988
0.0301989
0.0301989
0.030199
0.030199
0.030199
0.030199
0.030199
0.030199
0.030199
0.030199
0.0301989
0.0301989
0.0301988
0.0301987
0.0301986
0.0301984
0.0301982
0.0301979
0.0301975
0.030197
0.0301963
0.0301955
0.0301943
0.0301927
0.0301906
0.0301879
0.0301842
0.0301794
0.0301731
0.0301649
0.0301542
0.0301406
0.0301235
0.0301024
0.030077
0.0300468
0.0355981
0.0356367
0.0356692
0.0356963
0.0357182
0.0357356
0.0357493
0.0357598
0.0357679
0.0357741
0.0357788
0.0357823
0.035785
0.035787
0.0357885
0.0357897
0.0357905
0.0357912
0.0357917
0.0357921
0.0357923
0.0357926
0.0357927
0.0357928
0.0357929
0.035793
0.0357931
0.0357931
0.0357931
0.0357931
0.0357931
0.0357931
0.0357931
0.0357931
0.035793
0.0357929
0.0357928
0.0357927
0.0357926
0.0357923
0.0357921
0.0357917
0.0357912
0.0357905
0.0357897
0.0357885
0.035787
0.035785
0.0357823
0.0357788
0.0357741
0.0357679
0.0357598
0.0357493
0.0357356
0.0357182
0.0356963
0.0356692
0.0356367
0.0355981
0.0427442
0.0427927
0.0428335
0.0428674
0.0428948
0.0429167
0.0429338
0.0429471
0.0429573
0.042965
0.0429709
0.0429754
0.0429787
0.0429813
0.0429832
0.0429846
0.0429857
0.0429865
0.0429872
0.0429876
0.042988
0.0429883
0.0429885
0.0429886
0.0429887
0.0429888
0.0429889
0.0429889
0.042989
0.042989
0.042989
0.042989
0.0429889
0.0429889
0.0429888
0.0429887
0.0429886
0.0429885
0.0429883
0.042988
0.0429876
0.0429872
0.0429865
0.0429857
0.0429846
0.0429832
0.0429813
0.0429787
0.0429754
0.0429709
0.042965
0.0429573
0.0429471
0.0429338
0.0429167
0.0428948
0.0428674
0.0428335
0.0427927
0.0427442
0.0515162
0.0515752
0.0516247
0.0516657
0.051699
0.0517255
0.0517463
0.0517624
0.0517748
0.0517843
0.0517914
0.0517969
0.051801
0.0518041
0.0518064
0.0518082
0.0518095
0.0518105
0.0518113
0.0518118
0.0518123
0.0518126
0.0518129
0.0518131
0.0518132
0.0518133
0.0518134
0.0518134
0.0518135
0.0518135
0.0518135
0.0518135
0.0518134
0.0518134
0.0518133
0.0518132
0.0518131
0.0518129
0.0518126
0.0518123
0.0518118
0.0518113
0.0518105
0.0518095
0.0518082
0.0518064
0.0518041
0.051801
0.0517969
0.0517914
0.0517843
0.0517748
0.0517624
0.0517463
0.0517255
0.051699
0.0516657
0.0516247
0.0515752
0.0515162
0.0617416
0.0618108
0.0618687
0.0619167
0.0619556
0.0619866
0.0620109
0.0620298
0.0620443
0.0620554
0.0620639
0.0620702
0.0620751
0.0620787
0.0620815
0.0620836
0.0620851
0.0620863
0.0620872
0.0620879
0.0620885
0.0620889
0.0620892
0.0620894
0.0620896
0.0620897
0.0620898
0.0620898
0.0620899
0.0620899
0.0620899
0.0620899
0.0620898
0.0620898
0.0620897
0.0620896
0.0620894
0.0620892
0.0620889
0.0620885
0.0620879
0.0620872
0.0620863
0.0620851
0.0620836
0.0620815
0.0620787
0.0620751
0.0620702
0.0620639
0.0620554
0.0620443
0.0620298
0.0620109
0.0619866
0.0619556
0.0619167
0.0618687
0.0618108
0.0617416
0.0731172
0.0731958
0.0732615
0.0733158
0.0733598
0.0733949
0.0734225
0.073444
0.0734605
0.0734731
0.0734827
0.07349
0.0734955
0.0734997
0.0735028
0.0735052
0.073507
0.0735084
0.0735095
0.0735102
0.0735109
0.0735113
0.0735117
0.0735119
0.0735121
0.0735123
0.0735124
0.0735125
0.0735125
0.0735125
0.0735125
0.0735125
0.0735125
0.0735124
0.0735123
0.0735121
0.0735119
0.0735117
0.0735113
0.0735109
0.0735102
0.0735095
0.0735084
0.073507
0.0735052
0.0735028
0.0734997
0.0734955
0.07349
0.0734827
0.0734731
0.0734605
0.073444
0.0734225
0.0733949
0.0733598
0.0733158
0.0732615
0.0731958
0.0731172
0.085321
0.0854083
0.0854809
0.085541
0.0855897
0.0856285
0.085659
0.0856828
0.0857011
0.0857152
0.0857259
0.085734
0.0857401
0.0857448
0.0857484
0.085751
0.0857531
0.0857546
0.0857558
0.0857567
0.0857574
0.0857579
0.0857583
0.0857586
0.0857589
0.085759
0.0857591
0.0857592
0.0857593
0.0857593
0.0857593
0.0857593
0.0857592
0.0857591
0.085759
0.0857589
0.0857586
0.0857583
0.0857579
0.0857574
0.0857567
0.0857558
0.0857546
0.0857531
0.085751
0.0857484
0.0857448
0.0857401
0.085734
0.0857259
0.0857152
0.0857011
0.0856828
0.085659
0.0856285
0.0855897
0.085541
0.0854809
0.0854083
0.085321
0.0980923
0.0981874
0.0982665
0.0983318
0.0983847
0.098427
0.0984603
0.0984862
0.0985062
0.0985216
0.0985333
0.0985423
0.0985491
0.0985542
0.0985581
0.0985611
0.0985634
0.0985651
0.0985664
0.0985674
0.0985682
0.0985687
0.0985692
0.0985695
0.0985698
0.09857
0.0985701
0.0985702
0.0985703
0.0985703
0.0985703
0.0985703
0.0985702
0.0985701
0.09857
0.0985698
0.0985695
0.0985692
0.0985687
0.0985682
0.0985674
0.0985664
0.0985651
0.0985634
0.0985611
0.0985581
0.0985542
0.0985491
0.0985423
0.0985333
0.0985216
0.0985062
0.0984862
0.0984603
0.098427
0.0983847
0.0983318
0.0982665
0.0981874
0.0980923
0.111253
0.111355
0.111441
0.111511
0.111568
0.111613
0.111649
0.111677
0.111699
0.111715
0.111728
0.111738
0.111745
0.111751
0.111755
0.111758
0.111761
0.111763
0.111764
0.111765
0.111766
0.111767
0.111767
0.111768
0.111768
0.111768
0.111768
0.111769
0.111769
0.111769
0.111769
0.111769
0.111769
0.111768
0.111768
0.111768
0.111768
0.111767
0.111767
0.111766
0.111765
0.111764
0.111763
0.111761
0.111758
0.111755
0.111751
0.111745
0.111738
0.111728
0.111715
0.111699
0.111677
0.111649
0.111613
0.111568
0.111511
0.111441
0.111355
0.111253
0.124693
0.124802
0.124893
0.124968
0.125029
0.125078
0.125116
0.125146
0.12517
0.125188
0.125201
0.125212
0.12522
0.125226
0.125231
0.125234
0.125237
0.125239
0.125241
0.125242
0.125243
0.125243
0.125244
0.125244
0.125245
0.125245
0.125245
0.125245
0.125245
0.125245
0.125245
0.125245
0.125245
0.125245
0.125245
0.125245
0.125244
0.125244
0.125243
0.125243
0.125242
0.125241
0.125239
0.125237
0.125234
0.125231
0.125226
0.12522
0.125212
0.125201
0.125188
0.12517
0.125146
0.125116
0.125078
0.125029
0.124968
0.124893
0.124802
0.124693
0.138346
0.138462
0.138559
0.138639
0.138703
0.138755
0.138796
0.138828
0.138853
0.138872
0.138887
0.138898
0.138907
0.138914
0.138919
0.138922
0.138925
0.138928
0.138929
0.138931
0.138932
0.138932
0.138933
0.138934
0.138934
0.138934
0.138934
0.138934
0.138935
0.138935
0.138935
0.138935
0.138934
0.138934
0.138934
0.138934
0.138934
0.138933
0.138932
0.138932
0.138931
0.138929
0.138928
0.138925
0.138922
0.138919
0.138914
0.138907
0.138898
0.138887
0.138872
0.138853
0.138828
0.138796
0.138755
0.138703
0.138639
0.138559
0.138462
0.138346
0.152171
0.152294
0.152396
0.15248
0.152549
0.152604
0.152647
0.152681
0.152708
0.152728
0.152744
0.152756
0.152766
0.152773
0.152778
0.152782
0.152785
0.152788
0.15279
0.152791
0.152792
0.152793
0.152794
0.152794
0.152795
0.152795
0.152795
0.152795
0.152795
0.152796
0.152796
0.152795
0.152795
0.152795
0.152795
0.152795
0.152794
0.152794
0.152793
0.152792
0.152791
0.15279
0.152788
0.152785
0.152782
0.152778
0.152773
0.152766
0.152756
0.152744
0.152728
0.152708
0.152681
0.152647
0.152604
0.152549
0.15248
0.152396
0.152294
0.152171
0.16614
0.166269
0.166377
0.166465
0.166537
0.166595
0.166642
0.166678
0.166706
0.166728
0.166745
0.166758
0.166768
0.166775
0.166781
0.166786
0.166789
0.166792
0.166794
0.166795
0.166797
0.166797
0.166798
0.166799
0.166799
0.166799
0.1668
0.1668
0.1668
0.1668
0.1668
0.1668
0.1668
0.1668
0.166799
0.166799
0.166799
0.166798
0.166797
0.166797
0.166795
0.166794
0.166792
0.166789
0.166786
0.166781
0.166775
0.166768
0.166758
0.166745
0.166728
0.166706
0.166678
0.166642
0.166595
0.166537
0.166465
0.166377
0.166269
0.16614
0.180232
0.180367
0.18048
0.180573
0.180648
0.18071
0.180758
0.180796
0.180826
0.18085
0.180868
0.180881
0.180892
0.1809
0.180907
0.180911
0.180915
0.180918
0.18092
0.180922
0.180923
0.180924
0.180925
0.180926
0.180926
0.180926
0.180927
0.180927
0.180927
0.180927
0.180927
0.180927
0.180927
0.180927
0.180926
0.180926
0.180926
0.180925
0.180924
0.180923
0.180922
0.18092
0.180918
0.180915
0.180911
0.180907
0.1809
0.180892
0.180881
0.180868
0.18085
0.180826
0.180796
0.180758
0.18071
0.180648
0.180573
0.18048
0.180367
0.180232
0.194428
0.19457
0.194687
0.194785
0.194865
0.194929
0.19498
0.19502
0.195052
0.195077
0.195096
0.19511
0.195122
0.195131
0.195137
0.195142
0.195146
0.19515
0.195152
0.195154
0.195155
0.195156
0.195157
0.195158
0.195158
0.195159
0.195159
0.195159
0.195159
0.195159
0.195159
0.195159
0.195159
0.195159
0.195159
0.195158
0.195158
0.195157
0.195156
0.195155
0.195154
0.195152
0.19515
0.195146
0.195142
0.195137
0.195131
0.195122
0.19511
0.195096
0.195077
0.195052
0.19502
0.19498
0.194929
0.194865
0.194785
0.194687
0.19457
0.194428
0.208716
0.208863
0.208986
0.209087
0.209171
0.209238
0.209292
0.209334
0.209368
0.209394
0.209414
0.20943
0.209442
0.209451
0.209458
0.209464
0.209468
0.209471
0.209474
0.209476
0.209478
0.209479
0.20948
0.20948
0.209481
0.209481
0.209482
0.209482
0.209482
0.209482
0.209482
0.209482
0.209482
0.209482
0.209481
0.209481
0.20948
0.20948
0.209479
0.209478
0.209476
0.209474
0.209471
0.209468
0.209464
0.209458
0.209451
0.209442
0.20943
0.209414
0.209394
0.209368
0.209334
0.209292
0.209238
0.209171
0.209087
0.208986
0.208863
0.208716
0.22308
0.223233
0.223361
0.223467
0.223554
0.223624
0.22368
0.223725
0.22376
0.223788
0.223809
0.223826
0.223839
0.223849
0.223856
0.223862
0.223867
0.22387
0.223873
0.223875
0.223877
0.223878
0.223879
0.22388
0.223881
0.223881
0.223881
0.223882
0.223882
0.223882