/*--------------------------------*- C++ -*----------------------------------*\
| =========                 |                                                 |
| \\      /  F ield         | foam-extend: Open Source CFD                    |
|  \\    /   O peration     | Version:     4.0                                |
|   \\  /    A nd           | Web:         http://www.foam-extend.org         |
|    \\/     M anipulation  |                                                 |
\*---------------------------------------------------------------------------*/
FoamFile
{
    version     2.0;
    format      ascii;
    class       volScalarField;
    location    "860";
    object      cPlus;
}
// * * * * * * * * * * * * * * * * * * * * * * * * * * * * * * * * * * * * * //

dimensions      [0 0 0 0 0 0 0];

internalField   nonuniform List<scalar> 
6960
(
0.190855
0.19077
0.190721
0.190697
0.190685
0.19068
0.190677
0.190676
0.190675
0.190675
0.190675
0.190675
0.190675
0.190674
0.190674
0.190674
0.190674
0.190674
0.190674
0.190674
0.190674
0.190674
0.190674
0.190674
0.190674
0.190674
0.190674
0.190674
0.190674
0.190674
0.190674
0.190674
0.190674
0.190674
0.190674
0.190674
0.190674
0.190674
0.190674
0.190674
0.190674
0.190674
0.190674
0.190674
0.190674
0.190674
0.190674
0.190675
0.190675
0.190675
0.190675
0.190675
0.190676
0.190677
0.19068
0.190685
0.190697
0.190721
0.19077
0.190855
0.0473365
0.0473195
0.0473086
0.0473031
0.0473005
0.0472992
0.0472986
0.0472983
0.0472982
0.0472981
0.0472981
0.0472981
0.0472981
0.0472981
0.0472981
0.0472982
0.0472982
0.0472982
0.0472982
0.0472982
0.0472982
0.0472983
0.0472983
0.0472983
0.0472983
0.0472983
0.0472983
0.0472983
0.0472983
0.0472983
0.0472983
0.0472983
0.0472983
0.0472983
0.0472983
0.0472983
0.0472983
0.0472983
0.0472983
0.0472982
0.0472982
0.0472982
0.0472982
0.0472982
0.0472982
0.0472981
0.0472981
0.0472981
0.0472981
0.0472981
0.0472981
0.0472982
0.0472983
0.0472986
0.0472992
0.0473005
0.0473031
0.0473086
0.0473195
0.0473365
0.0269348
0.0269415
0.026944
0.0269451
0.0269456
0.0269459
0.026946
0.0269461
0.0269462
0.0269462
0.0269462
0.0269463
0.0269463
0.0269464
0.0269464
0.0269464
0.0269464
0.0269465
0.0269465
0.0269465
0.0269465
0.0269466
0.0269466
0.0269466
0.0269466
0.0269466
0.0269466
0.0269466
0.0269466
0.0269466
0.0269466
0.0269466
0.0269466
0.0269466
0.0269466
0.0269466
0.0269466
0.0269466
0.0269466
0.0269465
0.0269465
0.0269465
0.0269465
0.0269464
0.0269464
0.0269464
0.0269464
0.0269463
0.0269463
0.0269462
0.0269462
0.0269462
0.0269461
0.026946
0.0269459
0.0269456
0.0269451
0.026944
0.0269415
0.0269348
0.0242505
0.0242633
0.0242692
0.024272
0.0242733
0.0242739
0.0242743
0.0242744
0.0242746
0.0242746
0.0242747
0.0242747
0.0242748
0.0242748
0.0242749
0.0242749
0.0242749
0.024275
0.024275
0.024275
0.024275
0.0242751
0.0242751
0.0242751
0.0242751
0.0242751
0.0242751
0.0242751
0.0242751
0.0242751
0.0242751
0.0242751
0.0242751
0.0242751
0.0242751
0.0242751
0.0242751
0.0242751
0.0242751
0.024275
0.024275
0.024275
0.024275
0.0242749
0.0242749
0.0242749
0.0242748
0.0242748
0.0242747
0.0242747
0.0242746
0.0242746
0.0242744
0.0242743
0.0242739
0.0242733
0.024272
0.0242692
0.0242633
0.0242505
0.0242478
0.0242622
0.024269
0.0242722
0.0242737
0.0242745
0.0242748
0.024275
0.0242752
0.0242752
0.0242753
0.0242754
0.0242754
0.0242755
0.0242755
0.0242755
0.0242756
0.0242756
0.0242756
0.0242756
0.0242757
0.0242757
0.0242757
0.0242757
0.0242757
0.0242758
0.0242758
0.0242758
0.0242758
0.0242758
0.0242758
0.0242758
0.0242758
0.0242758
0.0242758
0.0242757
0.0242757
0.0242757
0.0242757
0.0242757
0.0242756
0.0242756
0.0242756
0.0242756
0.0242755
0.0242755
0.0242755
0.0242754
0.0242754
0.0242753
0.0242752
0.0242752
0.024275
0.0242748
0.0242745
0.0242737
0.0242722
0.024269
0.0242622
0.0242478
0.0246743
0.0246895
0.0246966
0.0247
0.0247016
0.0247024
0.0247028
0.024703
0.0247031
0.0247032
0.0247033
0.0247034
0.0247034
0.0247034
0.0247035
0.0247035
0.0247036
0.0247036
0.0247036
0.0247037
0.0247037
0.0247037
0.0247037
0.0247037
0.0247038
0.0247038
0.0247038
0.0247038
0.0247038
0.0247038
0.0247038
0.0247038
0.0247038
0.0247038
0.0247038
0.0247038
0.0247037
0.0247037
0.0247037
0.0247037
0.0247037
0.0247036
0.0247036
0.0247036
0.0247035
0.0247035
0.0247034
0.0247034
0.0247034
0.0247033
0.0247032
0.0247031
0.024703
0.0247028
0.0247024
0.0247016
0.0247
0.0246966
0.0246895
0.0246743
0.0252054
0.0252211
0.0252285
0.0252321
0.0252337
0.0252346
0.025235
0.0252352
0.0252353
0.0252354
0.0252355
0.0252355
0.0252356
0.0252356
0.0252357
0.0252357
0.0252358
0.0252358
0.0252358
0.0252359
0.0252359
0.0252359
0.0252359
0.025236
0.025236
0.025236
0.025236
0.025236
0.025236
0.025236
0.025236
0.025236
0.025236
0.025236
0.025236
0.025236
0.025236
0.0252359
0.0252359
0.0252359
0.0252359
0.0252358
0.0252358
0.0252358
0.0252357
0.0252357
0.0252356
0.0252356
0.0252355
0.0252355
0.0252354
0.0252353
0.0252352
0.025235
0.0252346
0.0252337
0.0252321
0.0252285
0.0252211
0.0252054
0.0258015
0.0258179
0.0258257
0.0258293
0.0258311
0.0258319
0.0258324
0.0258326
0.0258327
0.0258328
0.0258329
0.025833
0.025833
0.0258331
0.0258331
0.0258332
0.0258332
0.0258332
0.0258333
0.0258333
0.0258333
0.0258333
0.0258334
0.0258334
0.0258334
0.0258334
0.0258334
0.0258334
0.0258334
0.0258334
0.0258334
0.0258334
0.0258334
0.0258334
0.0258334
0.0258334
0.0258334
0.0258334
0.0258333
0.0258333
0.0258333
0.0258333
0.0258332
0.0258332
0.0258332
0.0258331
0.0258331
0.025833
0.025833
0.0258329
0.0258328
0.0258327
0.0258326
0.0258324
0.0258319
0.0258311
0.0258293
0.0258257
0.0258179
0.0258015
0.0264658
0.026483
0.0264911
0.0264949
0.0264967
0.0264976
0.0264981
0.0264983
0.0264985
0.0264986
0.0264986
0.0264987
0.0264988
0.0264988
0.0264989
0.0264989
0.0264989
0.026499
0.026499
0.026499
0.0264991
0.0264991
0.0264991
0.0264991
0.0264992
0.0264992
0.0264992
0.0264992
0.0264992
0.0264992
0.0264992
0.0264992
0.0264992
0.0264992
0.0264992
0.0264992
0.0264991
0.0264991
0.0264991
0.0264991
0.026499
0.026499
0.026499
0.0264989
0.0264989
0.0264989
0.0264988
0.0264988
0.0264987
0.0264986
0.0264986
0.0264985
0.0264983
0.0264981
0.0264976
0.0264967
0.0264949
0.0264911
0.026483
0.0264658
0.0272093
0.0272273
0.0272357
0.0272398
0.0272417
0.0272426
0.0272431
0.0272434
0.0272435
0.0272436
0.0272437
0.0272438
0.0272438
0.0272439
0.0272439
0.027244
0.027244
0.0272441
0.0272441
0.0272441
0.0272442
0.0272442
0.0272442
0.0272443
0.0272443
0.0272443
0.0272443
0.0272443
0.0272443
0.0272443
0.0272443
0.0272443
0.0272443
0.0272443
0.0272443
0.0272443
0.0272443
0.0272442
0.0272442
0.0272442
0.0272441
0.0272441
0.0272441
0.027244
0.027244
0.0272439
0.0272439
0.0272438
0.0272438
0.0272437
0.0272436
0.0272435
0.0272434
0.0272431
0.0272426
0.0272417
0.0272398
0.0272357
0.0272273
0.0272093
0.0280466
0.0280656
0.0280746
0.0280788
0.0280809
0.0280818
0.0280823
0.0280826
0.0280828
0.0280829
0.028083
0.028083
0.0280831
0.0280832
0.0280832
0.0280833
0.0280833
0.0280834
0.0280834
0.0280834
0.0280835
0.0280835
0.0280835
0.0280835
0.0280836
0.0280836
0.0280836
0.0280836
0.0280836
0.0280836
0.0280836
0.0280836
0.0280836
0.0280836
0.0280836
0.0280836
0.0280835
0.0280835
0.0280835
0.0280835
0.0280834
0.0280834
0.0280834
0.0280833
0.0280833
0.0280832
0.0280832
0.0280831
0.028083
0.028083
0.0280829
0.0280828
0.0280826
0.0280823
0.0280818
0.0280809
0.0280788
0.0280746
0.0280656
0.0280466
0.028997
0.0290171
0.0290266
0.0290311
0.0290333
0.0290343
0.0290349
0.0290352
0.0290353
0.0290355
0.0290355
0.0290356
0.0290357
0.0290358
0.0290358
0.0290359
0.0290359
0.029036
0.029036
0.029036
0.0290361
0.0290361
0.0290361
0.0290362
0.0290362
0.0290362
0.0290362
0.0290362
0.0290362
0.0290362
0.0290362
0.0290362
0.0290362
0.0290362
0.0290362
0.0290362
0.0290362
0.0290361
0.0290361
0.0290361
0.029036
0.029036
0.029036
0.0290359
0.0290359
0.0290358
0.0290358
0.0290357
0.0290356
0.0290355
0.0290355
0.0290353
0.0290352
0.0290349
0.0290343
0.0290333
0.0290311
0.0290266
0.0290171
0.028997
0.0300851
0.0301066
0.0301168
0.0301216
0.0301239
0.0301251
0.0301256
0.0301259
0.0301261
0.0301263
0.0301264
0.0301264
0.0301265
0.0301266
0.0301267
0.0301267
0.0301268
0.0301268
0.0301269
0.0301269
0.0301269
0.030127
0.030127
0.030127
0.0301271
0.0301271
0.0301271
0.0301271
0.0301271
0.0301271
0.0301271
0.0301271
0.0301271
0.0301271
0.0301271
0.0301271
0.030127
0.030127
0.030127
0.0301269
0.0301269
0.0301269
0.0301268
0.0301268
0.0301267
0.0301267
0.0301266
0.0301265
0.0301264
0.0301264
0.0301263
0.0301261
0.0301259
0.0301256
0.0301251
0.0301239
0.0301216
0.0301168
0.0301066
0.0300851
0.0313441
0.0313672
0.0313782
0.0313834
0.0313859
0.0313871
0.0313877
0.0313881
0.0313883
0.0313884
0.0313885
0.0313886
0.0313887
0.0313888
0.0313888
0.0313889
0.031389
0.031389
0.0313891
0.0313891
0.0313892
0.0313892
0.0313892
0.0313893
0.0313893
0.0313893
0.0313893
0.0313893
0.0313893
0.0313893
0.0313893
0.0313893
0.0313893
0.0313893
0.0313893
0.0313893
0.0313893
0.0313892
0.0313892
0.0313892
0.0313891
0.0313891
0.031389
0.031389
0.0313889
0.0313888
0.0313888
0.0313887
0.0313886
0.0313885
0.0313884
0.0313883
0.0313881
0.0313877
0.0313871
0.0313859
0.0313834
0.0313782
0.0313672
0.0313441
0.0328186
0.0328438
0.0328558
0.0328614
0.0328642
0.0328655
0.0328662
0.0328665
0.0328667
0.0328669
0.032867
0.0328671
0.0328672
0.0328673
0.0328674
0.0328674
0.0328675
0.0328676
0.0328676
0.0328677
0.0328677
0.0328678
0.0328678
0.0328678
0.0328679
0.0328679
0.0328679
0.0328679
0.0328679
0.0328679
0.0328679
0.0328679
0.0328679
0.0328679
0.0328679
0.0328679
0.0328678
0.0328678
0.0328678
0.0328677
0.0328677
0.0328676
0.0328676
0.0328675
0.0328674
0.0328674
0.0328673
0.0328672
0.0328671
0.032867
0.0328669
0.0328667
0.0328665
0.0328662
0.0328655
0.0328642
0.0328614
0.0328558
0.0328438
0.0328186
0.0345712
0.034599
0.0346122
0.0346185
0.0346215
0.0346229
0.0346237
0.0346241
0.0346243
0.0346245
0.0346247
0.0346248
0.0346249
0.034625
0.034625
0.0346251
0.0346252
0.0346253
0.0346253
0.0346254
0.0346254
0.0346255
0.0346255
0.0346256
0.0346256
0.0346256
0.0346256
0.0346257
0.0346257
0.0346257
0.0346257
0.0346257
0.0346257
0.0346256
0.0346256
0.0346256
0.0346256
0.0346255
0.0346255
0.0346254
0.0346254
0.0346253
0.0346253
0.0346252
0.0346251
0.034625
0.034625
0.0346249
0.0346248
0.0346247
0.0346245
0.0346243
0.0346241
0.0346237
0.0346229
0.0346215
0.0346185
0.0346122
0.034599
0.0345712
0.0366918
0.0367229
0.0367377
0.0367447
0.0367481
0.0367498
0.0367506
0.0367511
0.0367513
0.0367515
0.0367517
0.0367518
0.0367519
0.036752
0.0367521
0.0367522
0.0367523
0.0367524
0.0367525
0.0367525
0.0367526
0.0367526
0.0367527
0.0367527
0.0367528
0.0367528
0.0367528
0.0367528
0.0367528
0.0367528
0.0367528
0.0367528
0.0367528
0.0367528
0.0367528
0.0367528
0.0367527
0.0367527
0.0367526
0.0367526
0.0367525
0.0367525
0.0367524
0.0367523
0.0367522
0.0367521
0.036752
0.0367519
0.0367518
0.0367517
0.0367515
0.0367513
0.0367511
0.0367506
0.0367498
0.0367481
0.0367447
0.0367377
0.0367229
0.0366918
0.0393135
0.0393492
0.039366
0.0393741
0.039378
0.0393799
0.0393809
0.0393814
0.0393817
0.0393819
0.0393821
0.0393823
0.0393824
0.0393825
0.0393826
0.0393828
0.0393828
0.0393829
0.039383
0.0393831
0.0393832
0.0393832
0.0393833
0.0393833
0.0393834
0.0393834
0.0393834
0.0393835
0.0393835
0.0393835
0.0393835
0.0393835
0.0393835
0.0393834
0.0393834
0.0393834
0.0393833
0.0393833
0.0393832
0.0393832
0.0393831
0.039383
0.0393829
0.0393828
0.0393828
0.0393826
0.0393825
0.0393824
0.0393823
0.0393821
0.0393819
0.0393817
0.0393814
0.0393809
0.0393799
0.039378
0.0393741
0.039366
0.0393492
0.0393135
0.0426397
0.0426814
0.0427013
0.0427108
0.0427154
0.0427176
0.0427187
0.0427193
0.0427197
0.04272
0.0427202
0.0427204
0.0427206
0.0427207
0.0427209
0.042721
0.0427211
0.0427212
0.0427213
0.0427214
0.0427215
0.0427216
0.0427216
0.0427217
0.0427217
0.0427218
0.0427218
0.0427218
0.0427218
0.0427219
0.0427219
0.0427218
0.0427218
0.0427218
0.0427218
0.0427217
0.0427217
0.0427216
0.0427216
0.0427215
0.0427214
0.0427213
0.0427212
0.0427211
0.042721
0.0427209
0.0427207
0.0427206
0.0427204
0.0427202
0.04272
0.0427197
0.0427193
0.0427187
0.0427176
0.0427154
0.0427108
0.0427013
0.0426814
0.0426397
0.0469827
0.0470331
0.0470572
0.0470688
0.0470743
0.047077
0.0470784
0.0470792
0.0470797
0.04708
0.0470803
0.0470805
0.0470807
0.0470809
0.047081
0.0470812
0.0470813
0.0470815
0.0470816
0.0470817
0.0470818
0.0470819
0.047082
0.0470821
0.0470821
0.0470822
0.0470822
0.0470822
0.0470823
0.0470823
0.0470823
0.0470823
0.0470822
0.0470822
0.0470822
0.0470821
0.0470821
0.047082
0.0470819
0.0470818
0.0470817
0.0470816
0.0470815
0.0470813
0.0470812
0.047081
0.0470809
0.0470807
0.0470805
0.0470803
0.04708
0.0470797
0.0470792
0.0470784
0.047077
0.0470743
0.0470688
0.0470572
0.0470331
0.0469827
0.05281
0.0528729
0.0529031
0.0529176
0.0529246
0.052928
0.0529297
0.0529307
0.0529313
0.0529317
0.0529321
0.0529324
0.0529326
0.0529328
0.0529331
0.0529333
0.0529334
0.0529336
0.0529338
0.0529339
0.052934
0.0529342
0.0529343
0.0529344
0.0529344
0.0529345
0.0529346
0.0529346
0.0529346
0.0529346
0.0529346
0.0529346
0.0529346
0.0529346
0.0529345
0.0529344
0.0529344
0.0529343
0.0529342
0.052934
0.0529339
0.0529338
0.0529336
0.0529334
0.0529333
0.0529331
0.0529328
0.0529326
0.0529324
0.0529321
0.0529317
0.0529313
0.0529307
0.0529297
0.052928
0.0529246
0.0529176
0.0529031
0.0528729
0.05281
0.0607623
0.0608428
0.0608816
0.0609003
0.0609092
0.0609136
0.0609159
0.0609172
0.060918
0.0609185
0.060919
0.0609193
0.0609197
0.0609199
0.0609202
0.0609205
0.0609207
0.0609209
0.0609211
0.0609213
0.0609215
0.0609217
0.0609218
0.0609219
0.060922
0.0609221
0.0609222
0.0609222
0.0609223
0.0609223
0.0609223
0.0609223
0.0609222
0.0609222
0.0609221
0.060922
0.0609219
0.0609218
0.0609217
0.0609215
0.0609213
0.0609211
0.0609209
0.0609207
0.0609205
0.0609202
0.0609199
0.0609197
0.0609193
0.060919
0.0609185
0.060918
0.0609172
0.0609159
0.0609136
0.0609092
0.0609003
0.0608816
0.0608428
0.0607623
0.0715782
0.0716822
0.0717326
0.0717569
0.0717686
0.0717743
0.0717773
0.0717789
0.07178
0.0717807
0.0717812
0.0717817
0.0717822
0.0717825
0.0717829
0.0717832
0.0717835
0.0717838
0.0717841
0.0717843
0.0717846
0.0717848
0.0717849
0.0717851
0.0717852
0.0717853
0.0717854
0.0717855
0.0717855
0.0717856
0.0717856
0.0717855
0.0717855
0.0717854
0.0717853
0.0717852
0.0717851
0.0717849
0.0717848
0.0717846
0.0717843
0.0717841
0.0717838
0.0717835
0.0717832
0.0717829
0.0717825
0.0717822
0.0717817
0.0717812
0.0717807
0.07178
0.0717789
0.0717773
0.0717743
0.0717686
0.0717569
0.0717326
0.0716822
0.0715782
0.0858769
0.0860097
0.0860742
0.0861054
0.0861204
0.0861278
0.0861316
0.0861337
0.086135
0.0861359
0.0861367
0.0861373
0.0861378
0.0861383
0.0861388
0.0861392
0.0861396
0.0861399
0.0861403
0.0861406
0.0861408
0.0861411
0.0861413
0.0861415
0.0861417
0.0861418
0.0861419
0.086142
0.0861421
0.0861421
0.0861421
0.0861421
0.086142
0.0861419
0.0861418
0.0861417
0.0861415
0.0861413
0.0861411
0.0861408
0.0861406
0.0861403
0.0861399
0.0861396
0.0861392
0.0861388
0.0861383
0.0861378
0.0861373
0.0861367
0.0861359
0.086135
0.0861337
0.0861316
0.0861278
0.0861204
0.0861054
0.0860742
0.0860097
0.0858769
0.103868
0.104032
0.104112
0.104151
0.10417
0.104179
0.104184
0.104186
0.104188
0.104189
0.10419
0.104191
0.104191
0.104192
0.104192
0.104193
0.104193
0.104194
0.104194
0.104195
0.104195
0.104195
0.104196
0.104196
0.104196
0.104196
0.104196
0.104196
0.104196
0.104196
0.104196
0.104196
0.104196
0.104196
0.104196
0.104196
0.104196
0.104196
0.104195
0.104195
0.104195
0.104194
0.104194
0.104193
0.104193
0.104192
0.104192
0.104191
0.104191
0.10419
0.104189
0.104188
0.104186
0.104184
0.104179
0.10417
0.104151
0.104112
0.104032
0.103868
0.125198
0.125393
0.125488
0.125534
0.125556
0.125567
0.125573
0.125576
0.125578
0.12558
0.125581
0.125581
0.125582
0.125583
0.125584
0.125584
0.125585
0.125585
0.125586
0.125586
0.125586
0.125587
0.125587
0.125587
0.125588
0.125588
0.125588
0.125588
0.125588
0.125588
0.125588
0.125588
0.125588
0.125588
0.125588
0.125588
0.125587
0.125587
0.125587
0.125586
0.125586
0.125586
0.125585
0.125585
0.125584
0.125584
0.125583
0.125582
0.125581
0.125581
0.12558
0.125578
0.125576
0.125573
0.125567
0.125556
0.125534
0.125488
0.125393
0.125198
0.149077
0.149299
0.149408
0.149462
0.149487
0.1495
0.149507
0.14951
0.149512
0.149514
0.149515
0.149516
0.149517
0.149518
0.149518
0.149519
0.14952
0.14952
0.149521
0.149521
0.149522
0.149522
0.149522
0.149523
0.149523
0.149523
0.149523
0.149523
0.149523
0.149523
0.149523
0.149523
0.149523
0.149523
0.149523
0.149523
0.149523
0.149522
0.149522
0.149522
0.149521
0.149521
0.14952
0.14952
0.149519
0.149518
0.149518
0.149517
0.149516
0.149515
0.149514
0.149512
0.14951
0.149507
0.1495
0.149487
0.149462
0.149408
0.149299
0.149077
0.174593
0.17484
0.174961
0.17502
0.175049
0.175064
0.175071
0.175075
0.175077
0.175079
0.17508
0.175081
0.175082
0.175083
0.175084
0.175084
0.175085
0.175086
0.175086
0.175087
0.175087
0.175088
0.175088
0.175088
0.175088
0.175089
0.175089
0.175089
0.175089
0.175089
0.175089
0.175089
0.175089
0.175089
0.175089
0.175088
0.175088
0.175088
0.175088
0.175087
0.175087
0.175086
0.175086
0.175085
0.175084
0.175084
0.175083
0.175082
0.175081
0.17508
0.175079
0.175077
0.175075
0.175071
0.175064
0.175049
0.17502
0.174961
0.17484
0.174593
0.200976
0.201242
0.201374
0.201439
0.201471
0.201487
0.201495
0.201499
0.201502
0.201504
0.201505
0.201506
0.201507
0.201508
0.201509
0.201509
0.20151
0.201511
0.201511
0.201512
0.201512
0.201513
0.201513
0.201513
0.201513
0.201514
0.201514
0.201514
0.201514
0.201514
0.201514
0.201514
0.201514
0.201514
0.201514
0.201513
0.201513
0.201513
0.201513
0.201512
0.201512
0.201511
0.201511
0.20151
0.201509
0.201509
0.201508
0.201507
0.201506
0.201505
0.201504
0.201502
0.201499
0.201495
0.201487
0.201471
0.201439
0.201374
0.201242
0.200976
0.227687
0.227971
0.228113
0.228183
0.228218
0.228235
0.228243
0.228248
0.228251
0.228253
0.228254
0.228256
0.228257
0.228257
0.228258
0.228259
0.22826
0.22826
0.228261
0.228261
0.228262
0.228262
0.228263
0.228263
0.228263
0.228263
0.228264
0.228264
0.228264
0.228264
0.228264
0.228264
0.228264
0.228264
0.228263
0.228263
0.228263
0.228263
0.228262
0.228262
0.228261
0.228261
0.22826
0.22826
0.228259
0.228258
0.228257
0.228257
0.228256
0.228254
0.228253
0.228251
0.228248
0.228243
0.228235
0.228218
0.228183
0.228113
0.227971
0.227687
0.254397
0.254696
0.254847
0.254922
0.254959
0.254977
0.254987
0.254992
0.254995
0.254997
0.254998
0.255
0.255001
0.255001
0.255002
0.255003
0.255004
0.255004
0.255005
0.255005
0.255006
0.255006
0.255007
0.255007
0.255007
0.255007
0.255008
0.255008
0.255008
0.255008
0.255008
0.255008
0.255008
0.255008
0.255007
0.255007
0.255007
0.255007
0.255006
0.255006
0.255005
0.255005
0.255004
0.255004
0.255003
0.255002
0.255001
0.255001
0.255
0.254998
0.254997
0.254995
0.254992
0.254987
0.254977
0.254959
0.254922
0.254847
0.254696
0.254397
0.280908
0.281221
0.28138
0.281459
0.281499
0.281519
0.281529
0.281534
0.281538
0.28154
0.281541
0.281543
0.281544
0.281544
0.281545
0.281546
0.281547
0.281547
0.281548
0.281548
0.281549
0.281549
0.28155
0.28155
0.28155
0.281551
0.281551
0.281551
0.281551
0.281551
0.281551
0.281551
0.281551
0.281551
0.281551
0.28155
0.28155
0.28155
0.281549
0.281549
0.281548
0.281548
0.281547
0.281547
0.281546
0.281545
0.281544
0.281544
0.281543
0.281541
0.28154
0.281538
0.281534
0.281529
0.281519
0.281499
0.281459
0.28138
0.281221
0.280908
0.307102
0.307427
0.307594
0.307678
0.30772
0.307741
0.307752
0.307758
0.307761
0.307764
0.307765
0.307766
0.307767
0.307768
0.307769
0.30777
0.307771
0.307771
0.307772
0.307772
0.307773
0.307773
0.307774
0.307774
0.307774
0.307774
0.307775
0.307775
0.307775
0.307775
0.307775
0.307775
0.307775
0.307775
0.307774
0.307774
0.307774
0.307774
0.307773
0.307773
0.307772
0.307772
0.307771
0.307771
0.30777
0.307769
0.307768
0.307767
0.307766
0.307765
0.307764
0.307761
0.307758
0.307752
0.307741
0.30772
0.307678
0.307594
0.307427
0.307102
0.332902
0.333237
0.333412
0.3335
0.333545
0.333567
0.333579
0.333585
0.333589
0.333592
0.333593
0.333594
0.333595
0.333596
0.333597
0.333598
0.333599
0.333599
0.3336
0.3336
0.333601
0.333601
0.333602
0.333602
0.333602
0.333602
0.333603
0.333603
0.333603
0.333603
0.333603
0.333603
0.333603
0.333603
0.333602
0.333602
0.333602
0.333602
0.333601
0.333601
0.3336
0.3336
0.333599
0.333599
0.333598
0.333597
0.333596
0.333595
0.333594
0.333593
0.333592
0.333589
0.333585
0.333579
0.333567
0.333545
0.3335
0.333412
0.333237
0.332902
0.358254
0.3586
0.358781
0.358874
0.358921
0.358945
0.358957
0.358964
0.358968
0.35897
0.358972
0.358973
0.358975
0.358975
0.358976
0.358977
0.358978
0.358978
0.358979
0.358979
0.35898
0.35898
0.358981
0.358981
0.358981
0.358981
0.358982
0.358982
0.358982
0.358982
0.358982
0.358982
0.358982
0.358982
0.358981
0.358981
0.358981
0.358981
0.35898
0.35898
0.358979
0.358979
0.358978
0.358978
0.358977
0.358976
0.358975
0.358975
0.358973
0.358972
0.35897
0.358968
0.358964
0.358957
0.358945
0.358921
0.358874
0.358781
0.3586
0.358254
0.38312
0.383474
0.383661
0.383758
0.383808
0.383834
0.383847
0.383854
0.383858
0.383861
0.383863
0.383864
0.383865
0.383866
0.383867
0.383868
0.383868
0.383869
0.383869
0.38387
0.38387
0.383871
0.383871
0.383871
0.383872
0.383872
0.383872
0.383872
0.383872
0.383872
0.383872
0.383872
0.383872
0.383872
0.383872
0.383872
0.383871
0.383871
0.383871
0.38387
0.38387
0.383869
0.383869
0.383868
0.383868
0.383867
0.383866
0.383865
0.383864
0.383863
0.383861
0.383858
0.383854
0.383847
0.383834
0.383808
0.383758
0.383661
0.383474
0.38312
0.407469
0.407829
0.408023
0.408124
0.408176
0.408203
0.408218
0.408225
0.40823
0.408233
0.408234
0.408236
0.408237
0.408238
0.408239
0.408239
0.40824
0.40824
0.408241
0.408241
0.408242
0.408242
0.408243
0.408243
0.408243
0.408243
0.408244
0.408244
0.408244
0.408244
0.408244
0.408244
0.408244
0.408244
0.408243
0.408243
0.408243
0.408243
0.408242
0.408242
0.408241
0.408241
0.40824
0.40824
0.408239
0.408239
0.408238
0.408237
0.408236
0.408234
0.408233
0.40823
0.408225
0.408218
0.408203
0.408176
0.408124
0.408023
0.407829
0.407469
0.431276
0.431643
0.431842
0.431947
0.432002
0.43203
0.432045
0.432054
0.432058
0.432061
0.432063
0.432064
0.432066
0.432066
0.432067
0.432068
0.432069
0.432069
0.43207
0.43207
0.432071
0.432071
0.432071
0.432072
0.432072
0.432072
0.432072
0.432072
0.432073
0.432073
0.432073
0.432073
0.432072
0.432072
0.432072
0.432072
0.432072
0.432071
0.432071
0.432071
0.43207
0.43207
0.432069
0.432069
0.432068
0.432067
0.432066
0.432066
0.432064
0.432063
0.432061
0.432058
0.432054
0.432045
0.43203
0.432002
0.431947
0.431842
0.431643
0.431276
0.454523
0.454894
0.455099
0.455208
0.455265
0.455295
0.455311
0.45532
0.455325
0.455328
0.45533
0.455331
0.455332
0.455333
0.455334
0.455335
0.455335
0.455336
0.455336
0.455337
0.455337
0.455338
0.455338
0.455338
0.455339
0.455339
0.455339
0.455339
0.455339
0.455339
0.455339
0.455339
0.455339
0.455339
0.455339
0.455339
0.455338
0.455338
0.455338
0.455337
0.455337
0.455336
0.455336
0.455335
0.455335
0.455334
0.455333
0.455332
0.455331
0.45533
0.455328
0.455325
0.45532
0.455311
0.455295
0.455265
0.455208
0.455099
0.454894
0.454523
0.477194
0.477569
0.477778
0.477891
0.477951
0.477982
0.477999
0.478009
0.478014
0.478017
0.478019
0.478021
0.478022
0.478023
0.478023
0.478024
0.478025
0.478025
0.478026
0.478026
0.478027
0.478027
0.478027
0.478028
0.478028
0.478028
0.478028
0.478028
0.478028
0.478028
0.478028
0.478028
0.478028
0.478028
0.478028
0.478028
0.478028
0.478027
0.478027
0.478027
0.478026
0.478026
0.478025
0.478025
0.478024
0.478023
0.478023
0.478022
0.478021
0.478019
0.478017
0.478014
0.478009
0.477999
0.477982
0.477951
0.477891
0.477778
0.477569
0.477194
0.499278
0.499655
0.499869
0.499985
0.500047
0.50008
0.500098
0.500108
0.500114
0.500117
0.500119
0.500121
0.500122
0.500123
0.500124
0.500124
0.500125
0.500125
0.500126
0.500126
0.500127
0.500127
0.500127
0.500128
0.500128
0.500128
0.500128
0.500128
0.500128
0.500128
0.500128
0.500128
0.500128
0.500128
0.500128
0.500128
0.500128
0.500127
0.500127
0.500127
0.500126
0.500126
0.500125
0.500125
0.500124
0.500124
0.500123
0.500122
0.500121
0.500119
0.500117
0.500114
0.500108
0.500098
0.50008
0.500047
0.499985
0.499869
0.499655
0.499278
0.520765
0.521144
0.521361
0.521481
0.521545
0.52158
0.521599
0.521609
0.521615
0.521619
0.521621
0.521623
0.521624
0.521625
0.521625
0.521626
0.521627
0.521627
0.521628
0.521628
0.521628
0.521629
0.521629
0.521629
0.52163
0.52163
0.52163
0.52163
0.52163
0.52163
0.52163
0.52163
0.52163
0.52163
0.52163
0.52163
0.521629
0.521629
0.521629
0.521628
0.521628
0.521628
0.521627
0.521627
0.521626
0.521625
0.521625
0.521624
0.521623
0.521621
0.521619
0.521615
0.521609
0.521599
0.52158
0.521545
0.521481
0.521361
0.521144
0.520765
0.541648
0.542028
0.542249
0.542372
0.542439
0.542475
0.542495
0.542506
0.542512
0.542516
0.542518
0.54252
0.542521
0.542522
0.542522
0.542523
0.542524
0.542524
0.542525
0.542525
0.542525
0.542526
0.542526
0.542526
0.542527
0.542527
0.542527
0.542527
0.542527
0.542527
0.542527
0.542527
0.542527
0.542527
0.542527
0.542527
0.542526
0.542526
0.542526
0.542525
0.542525
0.542525
0.542524
0.542524
0.542523
0.542522
0.542522
0.542521
0.54252
0.542518
0.542516
0.542512
0.542506
0.542495
0.542475
0.542439
0.542372
0.542249
0.542028
0.541648
0.561924
0.562304
0.562527
0.562653
0.562723
0.56276
0.562781
0.562793
0.562799
0.562803
0.562806
0.562808
0.562809
0.56281
0.56281
0.562811
0.562812
0.562812
0.562813
0.562813
0.562813
0.562814
0.562814
0.562814
0.562814
0.562815
0.562815
0.562815
0.562815
0.562815
0.562815
0.562815
0.562815
0.562815
0.562815
0.562814
0.562814
0.562814
0.562814
0.562813
0.562813
0.562813
0.562812
0.562812
0.562811
0.56281
0.56281
0.562809
0.562808
0.562806
0.562803
0.562799
0.562793
0.562781
0.56276
0.562723
0.562653
0.562527
0.562304
0.561924
0.581591
0.581969
0.582195
0.582323
0.582395
0.582435
0.582456
0.582469
0.582476
0.58248
0.582483
0.582484
0.582485
0.582486
0.582487
0.582488
0.582488
0.582489
0.582489
0.58249
0.58249
0.58249
0.58249
0.582491
0.582491
0.582491
0.582491
0.582491
0.582491
0.582491
0.582491
0.582491
0.582491
0.582491
0.582491
0.582491
0.582491
0.58249
0.58249
0.58249
0.58249
0.582489
0.582489
0.582488
0.582488
0.582487
0.582486
0.582485
0.582484
0.582483
0.58248
0.582476
0.582469
0.582456
0.582435
0.582395
0.582323
0.582195
0.581969
0.581591
0.600647
0.601023
0.601251
0.601382
0.601456
0.601497
0.60152
0.601533
0.60154
0.601545
0.601547
0.601549
0.60155
0.601551
0.601552
0.601553
0.601553
0.601554
0.601554
0.601554
0.601555
0.601555
0.601555
0.601556
0.601556
0.601556
0.601556
0.601556
0.601556
0.601556
0.601556
0.601556
0.601556
0.601556
0.601556
0.601556
0.601556
0.601555
0.601555
0.601555
0.601554
0.601554
0.601554
0.601553
0.601553
0.601552
0.601551
0.60155
0.601549
0.601547
0.601545
0.60154
0.601533
0.60152
0.601497
0.601456
0.601382
0.601251
0.601023
0.600647
0.619094
0.619468
0.619697
0.61983
0.619906
0.619949
0.619973
0.619987
0.619994
0.619999
0.620002
0.620004
0.620005
0.620006
0.620007
0.620007
0.620008
0.620008
0.620009
0.620009
0.620009
0.62001
0.62001
0.62001
0.62001
0.62001
0.620011
0.620011
0.620011
0.620011
0.620011
0.620011
0.620011
0.620011
0.62001
0.62001
0.62001
0.62001
0.62001
0.620009
0.620009
0.620009
0.620008
0.620008
0.620007
0.620007
0.620006
0.620005
0.620004
0.620002
0.619999
0.619994
0.619987
0.619973
0.619949
0.619906
0.61983
0.619697
0.619468
0.619094
0.636935
0.637306
0.637535
0.637671
0.637749
0.637793
0.637818
0.637833
0.637841
0.637846
0.637849
0.637851
0.637852
0.637853
0.637854
0.637855
0.637855
0.637855
0.637856
0.637856
0.637856
0.637857
0.637857
0.637857
0.637857
0.637857
0.637858
0.637858
0.637858
0.637858
0.637858
0.637858
0.637858
0.637858
0.637857
0.637857
0.637857
0.637857
0.637857
0.637856
0.637856
0.637856
0.637855
0.637855
0.637855
0.637854
0.637853
0.637852
0.637851
0.637849
0.637846
0.637841
0.637833
0.637818
0.637793
0.637749
0.637671
0.637535
0.637306
0.636935
0.654174
0.654541
0.654771
0.654909
0.654989
0.655035
0.655061
0.655076
0.655084
0.65509
0.655093
0.655095
0.655096
0.655097
0.655098
0.655099
0.655099
0.655099
0.6551
0.6551
0.6551
0.655101
0.655101
0.655101
0.655101
0.655101
0.655101
0.655101
0.655101
0.655102
0.655102
0.655101
0.655101
0.655101
0.655101
0.655101
0.655101
0.655101
0.655101
0.6551
0.6551
0.6551
0.655099
0.655099
0.655099
0.655098
0.655097
0.655096
0.655095
0.655093
0.65509
0.655084
0.655076
0.655061
0.655035
0.654989
0.654909
0.654771
0.654541
0.654174
0.670817
0.671179
0.671409
0.671549
0.67163
0.671678
0.671705
0.671721
0.67173
0.671736
0.671739
0.671741
0.671743
0.671744
0.671744
0.671745
0.671745
0.671746
0.671746
0.671746
0.671747
0.671747
0.671747
0.671747
0.671747
0.671747
0.671748
0.671748
0.671748
0.671748
0.671748
0.671748
0.671748
0.671748
0.671747
0.671747
0.671747
0.671747
0.671747
0.671747
0.671746
0.671746
0.671746
0.671745
0.671745
0.671744
0.671744
0.671743
0.671741
0.671739
0.671736
0.67173
0.671721
0.671705
0.671678
0.67163
0.671549
0.671409
0.671179
0.670817
0.68687
0.687228
0.687457
0.687598
0.687681
0.68773
0.687759
0.687775
0.687785
0.687791
0.687794
0.687796
0.687798
0.687799
0.6878
0.6878
0.687801
0.687801
0.687801
0.687802
0.687802
0.687802
0.687802
0.687802
0.687802
0.687803
0.687803
0.687803
0.687803
0.687803
0.687803
0.687803
0.687803
0.687803
0.687803
0.687802
0.687802
0.687802
0.687802
0.687802
0.687802
0.687801
0.687801
0.687801
0.6878
0.6878
0.687799
0.687798
0.687796
0.687794
0.687791
0.687785
0.687775
0.687759
0.68773
0.687681
0.687598
0.687457
0.687228
0.68687
0.702342
0.702693
0.702922
0.703064
0.703149
0.703199
0.703229
0.703246
0.703256
0.703262
0.703266
0.703268
0.70327
0.703271
0.703272
0.703272
0.703273
0.703273
0.703273
0.703274
0.703274
0.703274
0.703274
0.703274
0.703274
0.703275
0.703275
0.703275
0.703275
0.703275
0.703275
0.703275
0.703275
0.703275
0.703275
0.703274
0.703274
0.703274
0.703274
0.703274
0.703274
0.703273
0.703273
0.703273
0.703272
0.703272
0.703271
0.70327
0.703268
0.703266
0.703262
0.703256
0.703246
0.703229
0.703199
0.703149
0.703064
0.702922
0.702693