/*--------------------------------*- C++ -*----------------------------------*\
| =========                 |                                                 |
| \\      /  F ield         | foam-extend: Open Source CFD                    |
|  \\    /   O peration     | Version:     4.0                                |
|   \\  /    A nd           | Web:         http://www.foam-extend.org         |
|    \\/     M anipulation  |                                                 |
\*---------------------------------------------------------------------------*/
FoamFile
{
    version     2.0;
    format      ascii;
    class       volScalarField;
    location    "1040";
    object      cPlus;
}
// * * * * * * * * * * * * * * * * * * * * * * * * * * * * * * * * * * * * * //

dimensions      [0 0 0 0 0 0 0];

internalField   nonuniform List<scalar> 
6960
(
0.280914
0.280883
0.280851
0.280822
0.280798
0.280779
0.280764
0.280752
0.280743
0.280736
0.28073
0.280726
0.280723
0.280721
0.280719
0.280717
0.280716
0.280715
0.280715
0.280714
0.280714
0.280714
0.280713
0.280713
0.280713
0.280713
0.280713
0.280713
0.280713
0.280713
0.280713
0.280713
0.280713
0.280713
0.280713
0.280713
0.280713
0.280713
0.280714
0.280714
0.280714
0.280715
0.280715
0.280716
0.280717
0.280719
0.280721
0.280723
0.280726
0.28073
0.280736
0.280743
0.280752
0.280764
0.280779
0.280798
0.280822
0.280851
0.280883
0.280914
0.0788475
0.078831
0.0788131
0.0787972
0.078784
0.0787734
0.078765
0.0787585
0.0787534
0.0787495
0.0787465
0.0787442
0.0787424
0.0787411
0.0787401
0.0787393
0.0787387
0.0787382
0.0787379
0.0787376
0.0787374
0.0787372
0.0787371
0.078737
0.0787369
0.0787369
0.0787368
0.0787368
0.0787368
0.0787368
0.0787368
0.0787368
0.0787368
0.0787368
0.0787369
0.0787369
0.078737
0.0787371
0.0787372
0.0787374
0.0787376
0.0787379
0.0787382
0.0787387
0.0787393
0.0787401
0.0787411
0.0787424
0.0787442
0.0787465
0.0787495
0.0787534
0.0787585
0.078765
0.0787734
0.078784
0.0787972
0.0788131
0.078831
0.0788475
0.0285456
0.0285398
0.0285331
0.028527
0.028522
0.0285179
0.0285146
0.0285121
0.0285101
0.0285086
0.0285074
0.0285065
0.0285059
0.0285053
0.0285049
0.0285046
0.0285044
0.0285042
0.0285041
0.028504
0.0285039
0.0285038
0.0285038
0.0285037
0.0285037
0.0285037
0.0285036
0.0285036
0.0285036
0.0285036
0.0285036
0.0285036
0.0285036
0.0285036
0.0285037
0.0285037
0.0285037
0.0285038
0.0285038
0.0285039
0.028504
0.0285041
0.0285042
0.0285044
0.0285046
0.0285049
0.0285053
0.0285059
0.0285065
0.0285074
0.0285086
0.0285101
0.0285121
0.0285146
0.0285179
0.028522
0.028527
0.0285331
0.0285398
0.0285456
0.0145743
0.014574
0.014573
0.014572
0.0145712
0.0145704
0.0145699
0.0145694
0.014569
0.0145687
0.0145685
0.0145683
0.0145682
0.0145681
0.014568
0.014568
0.0145679
0.0145679
0.0145678
0.0145678
0.0145678
0.0145678
0.0145678
0.0145678
0.0145678
0.0145678
0.0145677
0.0145677
0.0145677
0.0145677
0.0145677
0.0145677
0.0145677
0.0145677
0.0145678
0.0145678
0.0145678
0.0145678
0.0145678
0.0145678
0.0145678
0.0145678
0.0145679
0.0145679
0.014568
0.014568
0.0145681
0.0145682
0.0145683
0.0145685
0.0145687
0.014569
0.0145694
0.0145699
0.0145704
0.0145712
0.014572
0.014573
0.014574
0.0145743
0.0107008
0.010703
0.0107045
0.0107057
0.0107066
0.0107073
0.0107079
0.0107083
0.0107086
0.0107089
0.0107091
0.0107092
0.0107093
0.0107094
0.0107094
0.0107095
0.0107095
0.0107095
0.0107096
0.0107096
0.0107096
0.0107096
0.0107096
0.0107096
0.0107096
0.0107096
0.0107096
0.0107096
0.0107096
0.0107096
0.0107096
0.0107096
0.0107096
0.0107096
0.0107096
0.0107096
0.0107096
0.0107096
0.0107096
0.0107096
0.0107096
0.0107096
0.0107095
0.0107095
0.0107095
0.0107094
0.0107094
0.0107093
0.0107092
0.0107091
0.0107089
0.0107086
0.0107083
0.0107079
0.0107073
0.0107066
0.0107057
0.0107045
0.010703
0.0107008
0.00969955
0.00970263
0.0097051
0.00970712
0.00970875
0.00971005
0.00971105
0.00971183
0.00971243
0.00971288
0.00971322
0.00971348
0.00971367
0.00971381
0.00971392
0.00971401
0.00971407
0.00971412
0.00971415
0.00971418
0.0097142
0.00971421
0.00971423
0.00971423
0.00971424
0.00971425
0.00971425
0.00971425
0.00971425
0.00971425
0.00971425
0.00971425
0.00971425
0.00971425
0.00971425
0.00971424
0.00971423
0.00971423
0.00971421
0.0097142
0.00971418
0.00971415
0.00971412
0.00971407
0.00971401
0.00971392
0.00971381
0.00971367
0.00971348
0.00971322
0.00971288
0.00971243
0.00971183
0.00971105
0.00971005
0.00970875
0.00970712
0.0097051
0.00970263
0.00969955
0.0095053
0.00950874
0.00951158
0.00951392
0.00951582
0.00951732
0.0095185
0.0095194
0.0095201
0.00952063
0.00952103
0.00952133
0.00952156
0.00952173
0.00952186
0.00952196
0.00952203
0.00952209
0.00952213
0.00952216
0.00952219
0.00952221
0.00952222
0.00952223
0.00952224
0.00952225
0.00952225
0.00952225
0.00952226
0.00952226
0.00952226
0.00952226
0.00952225
0.00952225
0.00952225
0.00952224
0.00952223
0.00952222
0.00952221
0.00952219
0.00952216
0.00952213
0.00952209
0.00952203
0.00952196
0.00952186
0.00952173
0.00952156
0.00952133
0.00952103
0.00952063
0.0095201
0.0095194
0.0095185
0.00951732
0.00951582
0.00951392
0.00951158
0.00950874
0.0095053
0.00953543
0.00953903
0.00954203
0.0095445
0.00954651
0.0095481
0.00954934
0.0095503
0.00955104
0.0095516
0.00955203
0.00955235
0.00955259
0.00955278
0.00955292
0.00955302
0.0095531
0.00955316
0.0095532
0.00955324
0.00955326
0.00955328
0.0095533
0.00955331
0.00955332
0.00955333
0.00955333
0.00955333
0.00955334
0.00955334
0.00955334
0.00955334
0.00955333
0.00955333
0.00955333
0.00955332
0.00955331
0.0095533
0.00955328
0.00955326
0.00955324
0.0095532
0.00955316
0.0095531
0.00955302
0.00955292
0.00955278
0.00955259
0.00955235
0.00955203
0.0095516
0.00955104
0.0095503
0.00954934
0.0095481
0.00954651
0.0095445
0.00954203
0.00953903
0.00953543
0.00963036
0.00963406
0.00963715
0.0096397
0.00964177
0.00964341
0.00964469
0.00964568
0.00964645
0.00964703
0.00964747
0.0096478
0.00964805
0.00964824
0.00964838
0.00964849
0.00964857
0.00964863
0.00964868
0.00964872
0.00964874
0.00964876
0.00964878
0.00964879
0.0096488
0.00964881
0.00964881
0.00964882
0.00964882
0.00964882
0.00964882
0.00964882
0.00964882
0.00964881
0.00964881
0.0096488
0.00964879
0.00964878
0.00964876
0.00964874
0.00964872
0.00964868
0.00964863
0.00964857
0.00964849
0.00964838
0.00964824
0.00964805
0.0096478
0.00964747
0.00964703
0.00964645
0.00964568
0.00964469
0.00964341
0.00964177
0.0096397
0.00963715
0.00963406
0.00963036
0.00974822
0.00975201
0.00975517
0.00975778
0.0097599
0.00976158
0.00976289
0.00976391
0.00976469
0.00976529
0.00976574
0.00976608
0.00976634
0.00976653
0.00976668
0.00976679
0.00976688
0.00976694
0.00976699
0.00976702
0.00976705
0.00976707
0.00976709
0.0097671
0.00976711
0.00976712
0.00976712
0.00976713
0.00976713
0.00976713
0.00976713
0.00976713
0.00976713
0.00976712
0.00976712
0.00976711
0.0097671
0.00976709
0.00976707
0.00976705
0.00976702
0.00976699
0.00976694
0.00976688
0.00976679
0.00976668
0.00976653
0.00976634
0.00976608
0.00976574
0.00976529
0.00976469
0.00976391
0.00976289
0.00976158
0.0097599
0.00975778
0.00975517
0.00975201
0.00974822
0.0098789
0.00988278
0.00988601
0.00988869
0.00989085
0.00989257
0.00989392
0.00989496
0.00989576
0.00989637
0.00989684
0.00989719
0.00989745
0.00989765
0.0098978
0.00989791
0.009898
0.00989806
0.00989811
0.00989815
0.00989818
0.0098982
0.00989822
0.00989823
0.00989824
0.00989825
0.00989825
0.00989826
0.00989826
0.00989826
0.00989826
0.00989826
0.00989826
0.00989825
0.00989825
0.00989824
0.00989823
0.00989822
0.0098982
0.00989818
0.00989815
0.00989811
0.00989806
0.009898
0.00989791
0.0098978
0.00989765
0.00989745
0.00989719
0.00989684
0.00989637
0.00989576
0.00989496
0.00989392
0.00989257
0.00989085
0.00988869
0.00988601
0.00988278
0.0098789
0.0100207
0.0100246
0.010028
0.0100307
0.0100329
0.0100347
0.0100361
0.0100371
0.0100379
0.0100386
0.010039
0.0100394
0.0100397
0.0100399
0.01004
0.0100401
0.0100402
0.0100403
0.0100404
0.0100404
0.0100404
0.0100404
0.0100405
0.0100405
0.0100405
0.0100405
0.0100405
0.0100405
0.0100405
0.0100405
0.0100405
0.0100405
0.0100405
0.0100405
0.0100405
0.0100405
0.0100405
0.0100405
0.0100404
0.0100404
0.0100404
0.0100404
0.0100403
0.0100402
0.0100401
0.01004
0.0100399
0.0100397
0.0100394
0.010039
0.0100386
0.0100379
0.0100371
0.0100361
0.0100347
0.0100329
0.0100307
0.010028
0.0100246
0.0100207
0.010174
0.0101781
0.0101815
0.0101843
0.0101866
0.0101884
0.0101898
0.0101909
0.0101917
0.0101924
0.0101929
0.0101932
0.0101935
0.0101937
0.0101939
0.010194
0.0101941
0.0101942
0.0101942
0.0101943
0.0101943
0.0101943
0.0101943
0.0101943
0.0101943
0.0101944
0.0101944
0.0101944
0.0101944
0.0101944
0.0101944
0.0101944
0.0101944
0.0101944
0.0101944
0.0101943
0.0101943
0.0101943
0.0101943
0.0101943
0.0101943
0.0101942
0.0101942
0.0101941
0.010194
0.0101939
0.0101937
0.0101935
0.0101932
0.0101929
0.0101924
0.0101917
0.0101909
0.0101898
0.0101884
0.0101866
0.0101843
0.0101815
0.0101781
0.010174
0.0103401
0.0103443
0.0103478
0.0103507
0.010353
0.0103549
0.0103563
0.0103575
0.0103583
0.010359
0.0103595
0.0103599
0.0103602
0.0103604
0.0103605
0.0103607
0.0103607
0.0103608
0.0103609
0.0103609
0.0103609
0.010361
0.010361
0.010361
0.010361
0.010361
0.010361
0.010361
0.010361
0.010361
0.010361
0.010361
0.010361
0.010361
0.010361
0.010361
0.010361
0.010361
0.010361
0.0103609
0.0103609
0.0103609
0.0103608
0.0103607
0.0103607
0.0103605
0.0103604
0.0103602
0.0103599
0.0103595
0.010359
0.0103583
0.0103575
0.0103563
0.0103549
0.010353
0.0103507
0.0103478
0.0103443
0.0103401
0.0105205
0.0105248
0.0105284
0.0105314
0.0105338
0.0105357
0.0105372
0.0105383
0.0105392
0.0105399
0.0105404
0.0105408
0.0105411
0.0105414
0.0105415
0.0105416
0.0105417
0.0105418
0.0105419
0.0105419
0.0105419
0.010542
0.010542
0.010542
0.010542
0.010542
0.010542
0.010542
0.010542
0.010542
0.010542
0.010542
0.010542
0.010542
0.010542
0.010542
0.010542
0.010542
0.010542
0.0105419
0.0105419
0.0105419
0.0105418
0.0105417
0.0105416
0.0105415
0.0105414
0.0105411
0.0105408
0.0105404
0.0105399
0.0105392
0.0105383
0.0105372
0.0105357
0.0105338
0.0105314
0.0105284
0.0105248
0.0105205
0.0107169
0.0107214
0.0107251
0.0107282
0.0107307
0.0107327
0.0107342
0.0107354
0.0107363
0.010737
0.0107376
0.010738
0.0107383
0.0107385
0.0107387
0.0107388
0.0107389
0.010739
0.010739
0.0107391
0.0107391
0.0107391
0.0107392
0.0107392
0.0107392
0.0107392
0.0107392
0.0107392
0.0107392
0.0107392
0.0107392
0.0107392
0.0107392
0.0107392
0.0107392
0.0107392
0.0107392
0.0107392
0.0107391
0.0107391
0.0107391
0.010739
0.010739
0.0107389
0.0107388
0.0107387
0.0107385
0.0107383
0.010738
0.0107376
0.010737
0.0107363
0.0107354
0.0107342
0.0107327
0.0107307
0.0107282
0.0107251
0.0107214
0.0107169
0.0109317
0.0109363
0.0109402
0.0109433
0.0109459
0.010948
0.0109496
0.0109508
0.0109518
0.0109525
0.010953
0.0109535
0.0109538
0.010954
0.0109542
0.0109543
0.0109544
0.0109545
0.0109546
0.0109546
0.0109547
0.0109547
0.0109547
0.0109547
0.0109547
0.0109547
0.0109548
0.0109548
0.0109548
0.0109548
0.0109548
0.0109548
0.0109548
0.0109548
0.0109547
0.0109547
0.0109547
0.0109547
0.0109547
0.0109547
0.0109546
0.0109546
0.0109545
0.0109544
0.0109543
0.0109542
0.010954
0.0109538
0.0109535
0.010953
0.0109525
0.0109518
0.0109508
0.0109496
0.010948
0.0109459
0.0109433
0.0109402
0.0109363
0.0109317
0.0111674
0.0111722
0.0111762
0.0111794
0.0111821
0.0111842
0.0111859
0.0111872
0.0111882
0.0111889
0.0111895
0.0111899
0.0111903
0.0111905
0.0111907
0.0111909
0.011191
0.011191
0.0111911
0.0111912
0.0111912
0.0111912
0.0111912
0.0111913
0.0111913
0.0111913
0.0111913
0.0111913
0.0111913
0.0111913
0.0111913
0.0111913
0.0111913
0.0111913
0.0111913
0.0111913
0.0111913
0.0111912
0.0111912
0.0111912
0.0111912
0.0111911
0.011191
0.011191
0.0111909
0.0111907
0.0111905
0.0111903
0.0111899
0.0111895
0.0111889
0.0111882
0.0111872
0.0111859
0.0111842
0.0111821
0.0111794
0.0111762
0.0111722
0.0111674
0.011427
0.0114321
0.0114362
0.0114396
0.0114424
0.0114446
0.0114464
0.0114477
0.0114487
0.0114495
0.0114501
0.0114506
0.0114509
0.0114512
0.0114514
0.0114515
0.0114516
0.0114517
0.0114518
0.0114518
0.0114519
0.0114519
0.0114519
0.0114519
0.0114519
0.011452
0.011452
0.011452
0.011452
0.011452
0.011452
0.011452
0.011452
0.011452
0.011452
0.0114519
0.0114519
0.0114519
0.0114519
0.0114519
0.0114518
0.0114518
0.0114517
0.0114516
0.0114515
0.0114514
0.0114512
0.0114509
0.0114506
0.0114501
0.0114495
0.0114487
0.0114477
0.0114464
0.0114446
0.0114424
0.0114396
0.0114362
0.0114321
0.011427
0.0117146
0.0117199
0.0117242
0.0117278
0.0117307
0.011733
0.0117348
0.0117362
0.0117373
0.0117381
0.0117387
0.0117392
0.0117396
0.0117398
0.01174
0.0117402
0.0117403
0.0117404
0.0117405
0.0117405
0.0117406
0.0117406
0.0117406
0.0117406
0.0117406
0.0117407
0.0117407
0.0117407
0.0117407
0.0117407
0.0117407
0.0117407
0.0117407
0.0117407
0.0117407
0.0117406
0.0117406
0.0117406
0.0117406
0.0117406
0.0117405
0.0117405
0.0117404
0.0117403
0.0117402
0.01174
0.0117398
0.0117396
0.0117392
0.0117387
0.0117381
0.0117373
0.0117362
0.0117348
0.011733
0.0117307
0.0117278
0.0117242
0.0117199
0.0117146
0.0120348
0.0120403
0.0120449
0.0120486
0.0120517
0.0120541
0.012056
0.0120575
0.0120586
0.0120595
0.0120601
0.0120606
0.012061
0.0120613
0.0120615
0.0120617
0.0120618
0.0120619
0.012062
0.012062
0.012062
0.0120621
0.0120621
0.0120621
0.0120621
0.0120621
0.0120622
0.0120622
0.0120622
0.0120622
0.0120622
0.0120622
0.0120622
0.0120622
0.0120621
0.0120621
0.0120621
0.0120621
0.0120621
0.012062
0.012062
0.012062
0.0120619
0.0120618
0.0120617
0.0120615
0.0120613
0.012061
0.0120606
0.0120601
0.0120595
0.0120586
0.0120575
0.012056
0.0120541
0.0120517
0.0120486
0.0120449
0.0120403
0.0120348
0.0123936
0.0123994
0.0124042
0.0124081
0.0124113
0.0124139
0.0124159
0.0124174
0.0124186
0.0124196
0.0124202
0.0124208
0.0124212
0.0124215
0.0124217
0.0124219
0.012422
0.0124221
0.0124222
0.0124222
0.0124223
0.0124223
0.0124223
0.0124224
0.0124224
0.0124224
0.0124224
0.0124224
0.0124224
0.0124224
0.0124224
0.0124224
0.0124224
0.0124224
0.0124224
0.0124224
0.0124224
0.0124223
0.0124223
0.0124223
0.0124222
0.0124222
0.0124221
0.012422
0.0124219
0.0124217
0.0124215
0.0124212
0.0124208
0.0124202
0.0124196
0.0124186
0.0124174
0.0124159
0.0124139
0.0124113
0.0124081
0.0124042
0.0123994
0.0123936
0.0127983
0.0128045
0.0128096
0.0128138
0.0128172
0.0128199
0.012822
0.0128237
0.0128249
0.0128259
0.0128266
0.0128272
0.0128276
0.0128279
0.0128282
0.0128284
0.0128285
0.0128286
0.0128287
0.0128288
0.0128288
0.0128288
0.0128289
0.0128289
0.0128289
0.0128289
0.0128289
0.0128289
0.0128289
0.0128289
0.0128289
0.0128289
0.0128289
0.0128289
0.0128289
0.0128289
0.0128289
0.0128289
0.0128288
0.0128288
0.0128288
0.0128287
0.0128286
0.0128285
0.0128284
0.0128282
0.0128279
0.0128276
0.0128272
0.0128266
0.0128259
0.0128249
0.0128237
0.012822
0.0128199
0.0128172
0.0128138
0.0128096
0.0128045
0.0127983
0.0132588
0.0132654
0.0132708
0.0132753
0.0132789
0.0132818
0.0132841
0.0132859
0.0132872
0.0132882
0.013289
0.0132896
0.0132901
0.0132904
0.0132907
0.0132909
0.013291
0.0132911
0.0132912
0.0132913
0.0132913
0.0132914
0.0132914
0.0132914
0.0132914
0.0132915
0.0132915
0.0132915
0.0132915
0.0132915
0.0132915
0.0132915
0.0132915
0.0132915
0.0132915
0.0132914
0.0132914
0.0132914
0.0132914
0.0132913
0.0132913
0.0132912
0.0132911
0.013291
0.0132909
0.0132907
0.0132904
0.0132901
0.0132896
0.013289
0.0132882
0.0132872
0.0132859
0.0132841
0.0132818
0.0132789
0.0132753
0.0132708
0.0132654
0.0132588
0.0137876
0.0137947
0.0138005
0.0138054
0.0138093
0.0138124
0.0138148
0.0138167
0.0138182
0.0138193
0.0138202
0.0138208
0.0138213
0.0138217
0.0138219
0.0138221
0.0138223
0.0138224
0.0138225
0.0138226
0.0138226
0.0138227
0.0138227
0.0138227
0.0138228
0.0138228
0.0138228
0.0138228
0.0138228
0.0138228
0.0138228
0.0138228
0.0138228
0.0138228
0.0138228
0.0138228
0.0138227
0.0138227
0.0138227
0.0138226
0.0138226
0.0138225
0.0138224
0.0138223
0.0138221
0.0138219
0.0138217
0.0138213
0.0138208
0.0138202
0.0138193
0.0138182
0.0138167
0.0138148
0.0138124
0.0138093
0.0138054
0.0138005
0.0137947
0.0137876
0.0144017
0.0144094
0.0144157
0.014421
0.0144252
0.0144286
0.0144313
0.0144333
0.0144349
0.0144361
0.0144371
0.0144378
0.0144383
0.0144387
0.014439
0.0144392
0.0144394
0.0144395
0.0144396
0.0144397
0.0144398
0.0144398
0.0144398
0.0144399
0.0144399
0.0144399
0.0144399
0.0144399
0.0144399
0.0144399
0.0144399
0.0144399
0.0144399
0.0144399
0.0144399
0.0144399
0.0144399
0.0144398
0.0144398
0.0144398
0.0144397
0.0144396
0.0144395
0.0144394
0.0144392
0.014439
0.0144387
0.0144383
0.0144378
0.0144371
0.0144361
0.0144349
0.0144333
0.0144313
0.0144286
0.0144252
0.014421
0.0144157
0.0144094
0.0144017
0.0151243
0.0151327
0.0151397
0.0151454
0.0151501
0.0151538
0.0151568
0.015159
0.0151608
0.0151621
0.0151631
0.0151639
0.0151645
0.0151649
0.0151653
0.0151655
0.0151657
0.0151658
0.015166
0.015166
0.0151661
0.0151661
0.0151662
0.0151662
0.0151662
0.0151663
0.0151663
0.0151663
0.0151663
0.0151663
0.0151663
0.0151663
0.0151663
0.0151663
0.0151663
0.0151662
0.0151662
0.0151662
0.0151661
0.0151661
0.015166
0.015166
0.0151658
0.0151657
0.0151655
0.0151653
0.0151649
0.0151645
0.0151639
0.0151631
0.0151621
0.0151608
0.015159
0.0151568
0.0151538
0.0151501
0.0151454
0.0151397
0.0151327
0.0151243
0.0159879
0.0159973
0.016005
0.0160115
0.0160167
0.0160208
0.0160241
0.0160266
0.0160286
0.0160301
0.0160312
0.0160321
0.0160327
0.0160332
0.0160336
0.0160339
0.0160341
0.0160342
0.0160344
0.0160345
0.0160345
0.0160346
0.0160346
0.0160347
0.0160347
0.0160347
0.0160347
0.0160347
0.0160347
0.0160347
0.0160347
0.0160347
0.0160347
0.0160347
0.0160347
0.0160347
0.0160347
0.0160346
0.0160346
0.0160345
0.0160345
0.0160344
0.0160342
0.0160341
0.0160339
0.0160336
0.0160332
0.0160327
0.0160321
0.0160312
0.0160301
0.0160286
0.0160266
0.0160241
0.0160208
0.0160167
0.0160115
0.016005
0.0159973
0.0159879
0.0170397
0.0170503
0.0170592
0.0170665
0.0170724
0.0170771
0.0170808
0.0170837
0.0170859
0.0170876
0.0170889
0.0170899
0.0170906
0.0170912
0.0170916
0.0170919
0.0170922
0.0170924
0.0170925
0.0170926
0.0170927
0.0170928
0.0170928
0.0170928
0.0170929
0.0170929
0.0170929
0.0170929
0.0170929
0.0170929
0.0170929
0.0170929
0.0170929
0.0170929
0.0170929
0.0170929
0.0170928
0.0170928
0.0170928
0.0170927
0.0170926
0.0170925
0.0170924
0.0170922
0.0170919
0.0170916
0.0170912
0.0170906
0.0170899
0.0170889
0.0170876
0.0170859
0.0170837
0.0170808
0.0170771
0.0170724
0.0170665
0.0170592
0.0170503
0.0170397
0.0183497
0.018362
0.0183722
0.0183807
0.0183876
0.0183931
0.0183974
0.0184008
0.0184034
0.0184053
0.0184068
0.018408
0.0184088
0.0184095
0.01841
0.0184103
0.0184106
0.0184108
0.018411
0.0184111
0.0184112
0.0184113
0.0184113
0.0184114
0.0184114
0.0184114
0.0184115
0.0184115
0.0184115
0.0184115
0.0184115
0.0184115
0.0184115
0.0184115
0.0184114
0.0184114
0.0184114
0.0184113
0.0184113
0.0184112
0.0184111
0.018411
0.0184108
0.0184106
0.0184103
0.01841
0.0184095
0.0184088
0.018408
0.0184068
0.0184053
0.0184034
0.0184008
0.0183974
0.0183931
0.0183876
0.0183807
0.0183722
0.018362
0.0183497
0.020023
0.0200377
0.0200499
0.02006
0.0200682
0.0200748
0.02008
0.020084
0.020087
0.0200894
0.0200912
0.0200926
0.0200936
0.0200944
0.020095
0.0200954
0.0200957
0.020096
0.0200962
0.0200963
0.0200965
0.0200965
0.0200966
0.0200966
0.0200967
0.0200967
0.0200967
0.0200967
0.0200968
0.0200968
0.0200968
0.0200968
0.0200967
0.0200967
0.0200967
0.0200967
0.0200966
0.0200966
0.0200965
0.0200965
0.0200963
0.0200962
0.020096
0.0200957
0.0200954
0.020095
0.0200944
0.0200936
0.0200926
0.0200912
0.0200894
0.020087
0.020084
0.02008
0.0200748
0.0200682
0.02006
0.0200499
0.0200377
0.020023
0.0222166
0.0222345
0.0222495
0.0222619
0.022272
0.0222801
0.0222864
0.0222914
0.0222952
0.0222981
0.0223003
0.022302
0.0223032
0.0223042
0.0223049
0.0223055
0.0223059
0.0223062
0.0223064
0.0223066
0.0223068
0.0223069
0.0223069
0.022307
0.0223071
0.0223071
0.0223071
0.0223071
0.0223071
0.0223071
0.0223071
0.0223071
0.0223071
0.0223071
0.0223071
0.0223071
0.022307
0.0223069
0.0223069
0.0223068
0.0223066
0.0223064
0.0223062
0.0223059
0.0223055
0.0223049
0.0223042
0.0223032
0.022302
0.0223003
0.0222981
0.0222952
0.0222914
0.0222864
0.0222801
0.022272
0.0222619
0.0222495
0.0222345
0.0222166
0.0251527
0.0251752
0.0251941
0.0252098
0.0252226
0.0252328
0.0252408
0.0252471
0.0252519
0.0252556
0.0252583
0.0252605
0.0252621
0.0252633
0.0252642
0.0252649
0.0252654
0.0252658
0.0252661
0.0252664
0.0252665
0.0252667
0.0252668
0.0252668
0.0252669
0.0252669
0.025267
0.025267
0.025267
0.025267
0.025267
0.025267
0.025267
0.025267
0.0252669
0.0252669
0.0252668
0.0252668
0.0252667
0.0252665
0.0252664
0.0252661
0.0252658
0.0252654
0.0252649
0.0252642
0.0252633
0.0252621
0.0252605
0.0252583
0.0252556
0.0252519
0.0252471
0.0252408
0.0252328
0.0252226
0.0252098
0.0251941
0.0251752
0.0251527
0.0291154
0.0291441
0.0291684
0.0291885
0.029205
0.0292181
0.0292284
0.0292364
0.0292426
0.0292473
0.0292509
0.0292536
0.0292557
0.0292573
0.0292585
0.0292594
0.02926
0.0292605
0.0292609
0.0292612
0.0292614
0.0292616
0.0292617
0.0292618
0.0292619
0.029262
0.029262
0.029262
0.0292621
0.0292621
0.0292621
0.0292621
0.029262
0.029262
0.029262
0.0292619
0.0292618
0.0292617
0.0292616
0.0292614
0.0292612
0.0292609
0.0292605
0.02926
0.0292594
0.0292585
0.0292573
0.0292557
0.0292536
0.0292509
0.0292473
0.0292426
0.0292364
0.0292284
0.0292181
0.029205
0.0291885
0.0291684
0.0291441
0.0291154
0.0344058
0.0344426
0.0344737
0.0344996
0.0345206
0.0345375
0.0345507
0.034561
0.034569
0.034575
0.0345797
0.0345832
0.0345858
0.0345878
0.0345894
0.0345905
0.0345914
0.0345921
0.0345926
0.0345929
0.0345932
0.0345934
0.0345936
0.0345937
0.0345938
0.0345939
0.034594
0.034594
0.034594
0.034594
0.034594
0.034594
0.034594
0.034594
0.0345939
0.0345938
0.0345937
0.0345936
0.0345934
0.0345932
0.0345929
0.0345926
0.0345921
0.0345914
0.0345905
0.0345894
0.0345878
0.0345858
0.0345832
0.0345797
0.034575
0.034569
0.034561
0.0345507
0.0345375
0.0345206
0.0344996
0.0344737
0.0344426
0.0344058
0.0412525
0.0412988
0.0413379
0.0413704
0.0413969
0.0414181
0.0414348
0.0414478
0.0414578
0.0414655
0.0414713
0.0414757
0.0414791
0.0414816
0.0414836
0.041485
0.0414861
0.041487
0.0414876
0.0414881
0.0414885
0.0414887
0.0414889
0.0414891
0.0414892
0.0414893
0.0414894
0.0414894
0.0414895
0.0414895
0.0414895
0.0414895
0.0414894
0.0414894
0.0414893
0.0414892
0.0414891
0.0414889
0.0414887
0.0414885
0.0414881
0.0414876
0.041487
0.0414861
0.041485
0.0414836
0.0414816
0.0414791
0.0414757
0.0414713
0.0414655
0.0414578
0.0414478
0.0414348
0.0414181
0.0413969
0.0413704
0.0413379
0.0412988
0.0412525
0.0497141
0.0497707
0.0498183
0.049858
0.0498903
0.0499161
0.0499364
0.0499522
0.0499645
0.0499738
0.049981
0.0499864
0.0499905
0.0499936
0.049996
0.0499978
0.0499991
0.0500002
0.050001
0.0500016
0.050002
0.0500024
0.0500026
0.0500028
0.050003
0.0500031
0.0500032
0.0500032
0.0500032
0.0500033
0.0500033
0.0500032
0.0500032
0.0500032
0.0500031
0.050003
0.0500028
0.0500026
0.0500024
0.050002
0.0500016
0.050001
0.0500002
0.0499991
0.0499978
0.049996
0.0499936
0.0499905
0.0499864
0.049981
0.0499738
0.0499645
0.0499522
0.0499364
0.0499161
0.0498903
0.049858
0.0498183
0.0497707
0.0497141
0.059646
0.0597126
0.0597687
0.0598153
0.0598532
0.0598835
0.0599074
0.059926
0.0599404
0.0599514
0.0599599
0.0599663
0.0599712
0.0599748
0.0599776
0.0599798
0.0599814
0.0599826
0.0599835
0.0599843
0.0599848
0.0599852
0.0599855
0.0599858
0.0599859
0.0599861
0.0599862
0.0599862
0.0599863
0.0599863
0.0599863
0.0599863
0.0599862
0.0599862
0.0599861
0.0599859
0.0599858
0.0599855
0.0599852
0.0599848
0.0599843
0.0599835
0.0599826
0.0599814
0.0599798
0.0599776
0.0599748
0.0599712
0.0599663
0.0599599
0.0599514
0.0599404
0.059926
0.0599074
0.0598835
0.0598532
0.0598153
0.0597687
0.0597126
0.059646
0.0707605
0.0708365
0.0709003
0.0709532
0.0709963
0.0710308
0.071058
0.0710792
0.0710956
0.0711082
0.0711179
0.0711252
0.0711308
0.071135
0.0711382
0.0711407
0.0711426
0.071144
0.0711451
0.0711459
0.0711465
0.071147
0.0711474
0.0711476
0.0711478
0.071148
0.0711481
0.0711482
0.0711482
0.0711483
0.0711483
0.0711482
0.0711482
0.0711481
0.071148
0.0711478
0.0711476
0.0711474
0.071147
0.0711465
0.0711459
0.0711451
0.071144
0.0711426
0.0711407
0.0711382
0.071135
0.0711308
0.0711252
0.0711179
0.0711082
0.0710956
0.0710792
0.071058
0.0710308
0.0709963
0.0709532
0.0709003
0.0708365
0.0707605
0.0827369
0.0828216
0.0828923
0.082951
0.0829987
0.083037
0.0830672
0.0830908
0.083109
0.0831231
0.0831339
0.0831421
0.0831483
0.0831531
0.0831567
0.0831594
0.0831615
0.0831631
0.0831644
0.0831653
0.083166
0.0831666
0.083167
0.0831673
0.0831675
0.0831677
0.0831678
0.0831679
0.083168
0.083168
0.083168
0.083168
0.0831679
0.0831678
0.0831677
0.0831675
0.0831673
0.083167
0.0831666
0.083166
0.0831653
0.0831644
0.0831631
0.0831615
0.0831594
0.0831567
0.0831531
0.0831483
0.0831421
0.0831339
0.0831231
0.083109
0.0830908
0.0830672
0.083037
0.0829987
0.082951
0.0828923
0.0828216
0.0827369
0.0953073
0.0953997
0.0954769
0.0955408
0.0955928
0.0956345
0.0956675
0.0956933
0.0957133
0.0957287
0.0957405
0.0957496
0.0957564
0.0957617
0.0957657
0.0957687
0.0957711
0.0957728
0.0957742
0.0957752
0.095776
0.0957767
0.0957771
0.0957775
0.0957777
0.0957779
0.0957781
0.0957782
0.0957783
0.0957783
0.0957783
0.0957783
0.0957782
0.0957781
0.0957779
0.0957777
0.0957775
0.0957771
0.0957767
0.095776
0.0957752
0.0957742
0.0957728
0.0957711
0.0957687
0.0957657
0.0957617
0.0957564
0.0957496
0.0957405
0.0957287
0.0957133
0.0956933
0.0956675
0.0956345
0.0955928
0.0955408
0.0954769
0.0953997
0.0953073
0.108285
0.108385
0.108468
0.108537
0.108593
0.108638
0.108673
0.108701
0.108723
0.10874
0.108752
0.108762
0.10877
0.108775
0.10878
0.108783
0.108786
0.108788
0.108789
0.10879
0.108791
0.108792
0.108792
0.108793
0.108793
0.108793
0.108793
0.108794
0.108794
0.108794
0.108794
0.108794
0.108794
0.108793
0.108793
0.108793
0.108793
0.108792
0.108792
0.108791
0.10879
0.108789
0.108788
0.108786
0.108783
0.10878
0.108775
0.10877
0.108762
0.108752
0.10874
0.108723
0.108701
0.108673
0.108638
0.108593
0.108537
0.108468
0.108385
0.108285
0.121553
0.12166
0.121749
0.121823
0.121882
0.121931
0.121969
0.121999
0.122022
0.12204
0.122054
0.122065
0.122073
0.122079
0.122084
0.122087
0.12209
0.122092
0.122094
0.122095
0.122096
0.122097
0.122097
0.122098
0.122098
0.122098
0.122099
0.122099
0.122099
0.122099
0.122099
0.122099
0.122099
0.122099
0.122098
0.122098
0.122098
0.122097
0.122097
0.122096
0.122095
0.122094
0.122092
0.12209
0.122087
0.122084
0.122079
0.122073
0.122065
0.122054
0.12204
0.122022
0.121999
0.121969
0.121931
0.121882
0.121823
0.121749
0.12166
0.121553
0.135043
0.135156
0.135251
0.135329
0.135392
0.135444
0.135484
0.135516
0.135541
0.135561
0.135576
0.135587
0.135596
0.135603
0.135608
0.135612
0.135615
0.135617
0.135619
0.13562
0.135621
0.135622
0.135623
0.135623
0.135624
0.135624
0.135624
0.135624
0.135624
0.135624
0.135624
0.135624
0.135624
0.135624
0.135624
0.135624
0.135623
0.135623
0.135622
0.135621
0.13562
0.135619
0.135617
0.135615
0.135612
0.135608
0.135603
0.135596
0.135587
0.135576
0.135561
0.135541
0.135516
0.135484
0.135444
0.135392
0.135329
0.135251
0.135156
0.135043
0.14871
0.14883
0.14893
0.149012
0.14908
0.149134
0.149177
0.149211
0.149238
0.149259
0.149275
0.149287
0.149296
0.149303
0.149309
0.149313
0.149317
0.149319
0.149321
0.149323
0.149324
0.149325
0.149325
0.149326
0.149326
0.149327
0.149327
0.149327
0.149327
0.149327
0.149327
0.149327
0.149327
0.149327
0.149327
0.149326
0.149326
0.149325
0.149325
0.149324
0.149323
0.149321
0.149319
0.149317
0.149313
0.149309
0.149303
0.149296
0.149287
0.149275
0.149259
0.149238
0.149211
0.149177
0.149134
0.14908
0.149012
0.14893
0.14883
0.14871
0.162525
0.162652
0.162757
0.162844
0.162915
0.162972
0.163018
0.163054
0.163083
0.163105
0.163122
0.163135
0.163145
0.163153
0.163159
0.163163
0.163167
0.16317
0.163172
0.163173
0.163175
0.163176
0.163176
0.163177
0.163177
0.163178
0.163178
0.163178
0.163178
0.163178
0.163178
0.163178
0.163178
0.163178
0.163178
0.163177
0.163177
0.163176
0.163176
0.163175
0.163173
0.163172
0.16317
0.163167
0.163163
0.163159
0.163153
0.163145
0.163135
0.163122
0.163105
0.163083
0.163054
0.163018
0.162972
0.162915
0.162844
0.162757
0.162652
0.162525
0.176468
0.1766
0.176711
0.176802
0.176877
0.176938
0.176986
0.177024
0.177054
0.177077
0.177096
0.17711
0.17712
0.177129
0.177135
0.17714
0.177144
0.177147
0.177149
0.177151
0.177152
0.177153
0.177154
0.177155
0.177155
0.177156
0.177156
0.177156
0.177156
0.177156
0.177156
0.177156
0.177156
0.177156
0.177156
0.177155
0.177155
0.177154
0.177153
0.177152
0.177151
0.177149
0.177147
0.177144
0.17714
0.177135
0.177129
0.17712
0.17711
0.177096
0.177077
0.177054
0.177024
0.176986
0.176938
0.176877
0.176802
0.176711
0.1766
0.176468
0.19052
0.190659
0.190774
0.19087
0.190949
0.191012
0.191063
0.191103
0.191135
0.19116
0.191179
0.191194
0.191205
0.191214
0.191221
0.191227
0.191231
0.191234
0.191236
0.191238
0.19124
0.191241
0.191242
0.191242
0.191243
0.191243
0.191244
0.191244
0.191244
0.191244
0.191244
0.191244
0.191244
0.191244
0.191243
0.191243
0.191242
0.191242
0.191241
0.19124
0.191238
0.191236
0.191234
0.191231
0.191227
0.191221
0.191214
0.191205
0.191194
0.191179
0.19116
0.191135
0.191103
0.191063
0.191012
0.190949
0.19087
0.190774
0.190659
0.19052
0.204667
0.204811
0.204932
0.205032
0.205114
0.205181
0.205235
0.205277
0.20531
0.205337
0.205357
0.205373
0.205385
0.205395
0.205402
0.205408
0.205412
0.205416
0.205418
0.20542
0.205422
0.205423
0.205424
0.205425
0.205426
0.205426
0.205426
0.205426
0.205427
0.205427
0.205427
0.205427
0.205426
0.205426
0.205426
0.205426
0.205425
0.205424
0.205423
0.205422
0.20542
0.205418
0.205416
0.205412
0.205408
0.205402
0.205395
0.205385
0.205373
0.205357
0.205337
0.20531
0.205277
0.205235
0.205181
0.205114
0.205032
0.204932
0.204811
0.204667
0.218896
0.219046
0.219171
0.219276
0.219362
0.219431
0.219487
0.219532
0.219567
0.219595
0.219616
0.219633
0.219646
0.219656
0.219664
0.21967
0.219675
0.219679
0.219682
0.219684
0.219686
0.219687
0.219688
0.219689
0.21969
0.21969
0.21969
0.219691
0.219691
0.219691
0.219691