/*--------------------------------*- C++ -*----------------------------------*\
| =========                 |                                                 |
| \\      /  F ield         | foam-extend: Open Source CFD                    |
|  \\    /   O peration     | Version:     4.0                                |
|   \\  /    A nd           | Web:         http://www.foam-extend.org         |
|    \\/     M anipulation  |                                                 |
\*---------------------------------------------------------------------------*/
FoamFile
{
    version     2.0;
    format      ascii;
    class       volScalarField;
    location    "1520";
    object      cMinus;
}
// * * * * * * * * * * * * * * * * * * * * * * * * * * * * * * * * * * * * * //

dimensions      [0 0 0 0 0 0 0];

internalField   nonuniform List<scalar> 
6960
(
2.60589e-23
2.60725e-23
2.60695e-23
2.60637e-23
2.60577e-23
2.60521e-23
2.6047e-23
2.60425e-23
2.60385e-23
2.60351e-23
2.6032e-23
2.60294e-23
2.60272e-23
2.60253e-23
2.60236e-23
2.60222e-23
2.6021e-23
2.602e-23
2.60191e-23
2.60184e-23
2.60178e-23
2.60173e-23
2.60169e-23
2.60165e-23
2.60163e-23
2.60161e-23
2.60159e-23
2.60158e-23
2.60157e-23
2.60157e-23
2.60157e-23
2.60157e-23
2.60158e-23
2.60159e-23
2.60161e-23
2.60163e-23
2.60165e-23
2.60169e-23
2.60173e-23
2.60178e-23
2.60184e-23
2.60191e-23
2.602e-23
2.6021e-23
2.60222e-23
2.60236e-23
2.60253e-23
2.60272e-23
2.60294e-23
2.6032e-23
2.60351e-23
2.60385e-23
2.60425e-23
2.6047e-23
2.60521e-23
2.60577e-23
2.60637e-23
2.60695e-23
2.60725e-23
2.60589e-23
8.35305e-23
8.35798e-23
8.35772e-23
8.35656e-23
8.35526e-23
8.35401e-23
8.35287e-23
8.35185e-23
8.35096e-23
8.35017e-23
8.34948e-23
8.34889e-23
8.34837e-23
8.34792e-23
8.34754e-23
8.34721e-23
8.34693e-23
8.34669e-23
8.34649e-23
8.34632e-23
8.34617e-23
8.34605e-23
8.34596e-23
8.34588e-23
8.34581e-23
8.34576e-23
8.34572e-23
8.34569e-23
8.34568e-23
8.34567e-23
8.34567e-23
8.34568e-23
8.34569e-23
8.34572e-23
8.34576e-23
8.34581e-23
8.34588e-23
8.34596e-23
8.34605e-23
8.34617e-23
8.34632e-23
8.34649e-23
8.34669e-23
8.34693e-23
8.34721e-23
8.34754e-23
8.34792e-23
8.34837e-23
8.34889e-23
8.34948e-23
8.35017e-23
8.35096e-23
8.35185e-23
8.35287e-23
8.35401e-23
8.35526e-23
8.35656e-23
8.35772e-23
8.35798e-23
8.35305e-23
2.39976e-22
2.40138e-22
2.40155e-22
2.40145e-22
2.40129e-22
2.40113e-22
2.40098e-22
2.40084e-22
2.40071e-22
2.40059e-22
2.40049e-22
2.40041e-22
2.40033e-22
2.40026e-22
2.4002e-22
2.40015e-22
2.4001e-22
2.40006e-22
2.40003e-22
2.4e-22
2.39998e-22
2.39996e-22
2.39995e-22
2.39993e-22
2.39992e-22
2.39991e-22
2.39991e-22
2.3999e-22
2.3999e-22
2.3999e-22
2.3999e-22
2.3999e-22
2.3999e-22
2.39991e-22
2.39991e-22
2.39992e-22
2.39993e-22
2.39995e-22
2.39996e-22
2.39998e-22
2.4e-22
2.40003e-22
2.40006e-22
2.4001e-22
2.40015e-22
2.4002e-22
2.40026e-22
2.40033e-22
2.40041e-22
2.40049e-22
2.40059e-22
2.40071e-22
2.40084e-22
2.40098e-22
2.40113e-22
2.40129e-22
2.40145e-22
2.40155e-22
2.40138e-22
2.39976e-22
6.74619e-22
6.7514e-22
6.75263e-22
6.7531e-22
6.75335e-22
6.75351e-22
6.75362e-22
6.7537e-22
6.75376e-22
6.7538e-22
6.75383e-22
6.75384e-22
6.75385e-22
6.75384e-22
6.75384e-22
6.75383e-22
6.75381e-22
6.7538e-22
6.75379e-22
6.75378e-22
6.75377e-22
6.75376e-22
6.75375e-22
6.75375e-22
6.75374e-22
6.75374e-22
6.75374e-22
6.75374e-22
6.75373e-22
6.75373e-22
6.75373e-22
6.75373e-22
6.75374e-22
6.75374e-22
6.75374e-22
6.75374e-22
6.75375e-22
6.75375e-22
6.75376e-22
6.75377e-22
6.75378e-22
6.75379e-22
6.7538e-22
6.75381e-22
6.75383e-22
6.75384e-22
6.75384e-22
6.75385e-22
6.75384e-22
6.75383e-22
6.7538e-22
6.75376e-22
6.7537e-22
6.75362e-22
6.75351e-22
6.75335e-22
6.7531e-22
6.75263e-22
6.7514e-22
6.74619e-22
1.91225e-21
1.91392e-21
1.9145e-21
1.91487e-21
1.91515e-21
1.91538e-21
1.91558e-21
1.91575e-21
1.91589e-21
1.91601e-21
1.91611e-21
1.9162e-21
1.91627e-21
1.91632e-21
1.91637e-21
1.91641e-21
1.91644e-21
1.91647e-21
1.91649e-21
1.91651e-21
1.91652e-21
1.91653e-21
1.91654e-21
1.91655e-21
1.91656e-21
1.91656e-21
1.91656e-21
1.91657e-21
1.91657e-21
1.91657e-21
1.91657e-21
1.91657e-21
1.91657e-21
1.91656e-21
1.91656e-21
1.91656e-21
1.91655e-21
1.91654e-21
1.91653e-21
1.91652e-21
1.91651e-21
1.91649e-21
1.91647e-21
1.91644e-21
1.91641e-21
1.91637e-21
1.91632e-21
1.91627e-21
1.9162e-21
1.91611e-21
1.91601e-21
1.91589e-21
1.91575e-21
1.91558e-21
1.91538e-21
1.91515e-21
1.91487e-21
1.9145e-21
1.91392e-21
1.91225e-21
5.52713e-21
5.53254e-21
5.53493e-21
5.53667e-21
5.53812e-21
5.53937e-21
5.54045e-21
5.54137e-21
5.54217e-21
5.54285e-21
5.54343e-21
5.54391e-21
5.54432e-21
5.54467e-21
5.54495e-21
5.54519e-21
5.54539e-21
5.54555e-21
5.54569e-21
5.5458e-21
5.54589e-21
5.54597e-21
5.54603e-21
5.54609e-21
5.54613e-21
5.54616e-21
5.54619e-21
5.5462e-21
5.54622e-21
5.54622e-21
5.54622e-21
5.54622e-21
5.5462e-21
5.54619e-21
5.54616e-21
5.54613e-21
5.54609e-21
5.54603e-21
5.54597e-21
5.54589e-21
5.5458e-21
5.54569e-21
5.54555e-21
5.54539e-21
5.54519e-21
5.54495e-21
5.54467e-21
5.54432e-21
5.54391e-21
5.54343e-21
5.54285e-21
5.54217e-21
5.54137e-21
5.54045e-21
5.53937e-21
5.53812e-21
5.53667e-21
5.53493e-21
5.53254e-21
5.52713e-21
1.63614e-20
1.63791e-20
1.63883e-20
1.63956e-20
1.64019e-20
1.64073e-20
1.6412e-20
1.64162e-20
1.64197e-20
1.64227e-20
1.64253e-20
1.64275e-20
1.64293e-20
1.64309e-20
1.64322e-20
1.64333e-20
1.64342e-20
1.64349e-20
1.64356e-20
1.64361e-20
1.64365e-20
1.64369e-20
1.64372e-20
1.64374e-20
1.64376e-20
1.64378e-20
1.64379e-20
1.6438e-20
1.6438e-20
1.64381e-20
1.64381e-20
1.6438e-20
1.6438e-20
1.64379e-20
1.64378e-20
1.64376e-20
1.64374e-20
1.64372e-20
1.64369e-20
1.64365e-20
1.64361e-20
1.64356e-20
1.64349e-20
1.64342e-20
1.64333e-20
1.64322e-20
1.64309e-20
1.64293e-20
1.64275e-20
1.64253e-20
1.64227e-20
1.64197e-20
1.64162e-20
1.6412e-20
1.64073e-20
1.64019e-20
1.63956e-20
1.63883e-20
1.63791e-20
1.63614e-20
4.96906e-20
4.97502e-20
4.97848e-20
4.98135e-20
4.98386e-20
4.98605e-20
4.98797e-20
4.98964e-20
4.99108e-20
4.99232e-20
4.99338e-20
4.99427e-20
4.99503e-20
4.99567e-20
4.99621e-20
4.99666e-20
4.99704e-20
4.99736e-20
4.99762e-20
4.99784e-20
4.99802e-20
4.99817e-20
4.9983e-20
4.9984e-20
4.99848e-20
4.99855e-20
4.9986e-20
4.99863e-20
4.99865e-20
4.99867e-20
4.99867e-20
4.99865e-20
4.99863e-20
4.9986e-20
4.99855e-20
4.99848e-20
4.9984e-20
4.9983e-20
4.99817e-20
4.99802e-20
4.99784e-20
4.99762e-20
4.99736e-20
4.99704e-20
4.99666e-20
4.99621e-20
4.99567e-20
4.99503e-20
4.99427e-20
4.99338e-20
4.99232e-20
4.99108e-20
4.98964e-20
4.98797e-20
4.98605e-20
4.98386e-20
4.98135e-20
4.97848e-20
4.97502e-20
4.96906e-20
1.54955e-19
1.55158e-19
1.55287e-19
1.55398e-19
1.55495e-19
1.55581e-19
1.55657e-19
1.55722e-19
1.55779e-19
1.55828e-19
1.55869e-19
1.55905e-19
1.55935e-19
1.5596e-19
1.55981e-19
1.55999e-19
1.56014e-19
1.56027e-19
1.56038e-19
1.56046e-19
1.56054e-19
1.5606e-19
1.56065e-19
1.56069e-19
1.56072e-19
1.56074e-19
1.56076e-19
1.56078e-19
1.56079e-19
1.56079e-19
1.56079e-19
1.56079e-19
1.56078e-19
1.56076e-19
1.56074e-19
1.56072e-19
1.56069e-19
1.56065e-19
1.5606e-19
1.56054e-19
1.56046e-19
1.56038e-19
1.56027e-19
1.56014e-19
1.55999e-19
1.55981e-19
1.5596e-19
1.55935e-19
1.55905e-19
1.55869e-19
1.55828e-19
1.55779e-19
1.55722e-19
1.55657e-19
1.55581e-19
1.55495e-19
1.55398e-19
1.55287e-19
1.55158e-19
1.54955e-19
4.96337e-19
4.97044e-19
4.97528e-19
4.9795e-19
4.98326e-19
4.98659e-19
4.9895e-19
4.99204e-19
4.99424e-19
4.99613e-19
4.99775e-19
4.99913e-19
5.0003e-19
5.00129e-19
5.00213e-19
5.00283e-19
5.00341e-19
5.00391e-19
5.00432e-19
5.00466e-19
5.00495e-19
5.00518e-19
5.00538e-19
5.00554e-19
5.00567e-19
5.00577e-19
5.00584e-19
5.0059e-19
5.00594e-19
5.00595e-19
5.00595e-19
5.00594e-19
5.0059e-19
5.00584e-19
5.00577e-19
5.00567e-19
5.00554e-19
5.00538e-19
5.00518e-19
5.00495e-19
5.00466e-19
5.00432e-19
5.00391e-19
5.00341e-19
5.00283e-19
5.00213e-19
5.00129e-19
5.0003e-19
4.99913e-19
4.99775e-19
4.99613e-19
4.99424e-19
4.99204e-19
4.9895e-19
4.98659e-19
4.98326e-19
4.9795e-19
4.97528e-19
4.97044e-19
4.96337e-19
1.6333e-18
1.63581e-18
1.63764e-18
1.63926e-18
1.64071e-18
1.64199e-18
1.64312e-18
1.64411e-18
1.64496e-18
1.64569e-18
1.64632e-18
1.64686e-18
1.64731e-18
1.6477e-18
1.64802e-18
1.6483e-18
1.64852e-18
1.64872e-18
1.64888e-18
1.64901e-18
1.64912e-18
1.64922e-18
1.64929e-18
1.64935e-18
1.6494e-18
1.64944e-18
1.64947e-18
1.6495e-18
1.64951e-18
1.64952e-18
1.64952e-18
1.64951e-18
1.6495e-18
1.64947e-18
1.64944e-18
1.6494e-18
1.64935e-18
1.64929e-18
1.64922e-18
1.64912e-18
1.64901e-18
1.64888e-18
1.64872e-18
1.64852e-18
1.6483e-18
1.64802e-18
1.6477e-18
1.64731e-18
1.64686e-18
1.64632e-18
1.64569e-18
1.64496e-18
1.64411e-18
1.64312e-18
1.64199e-18
1.64071e-18
1.63926e-18
1.63764e-18
1.63581e-18
1.6333e-18
5.52194e-18
5.53109e-18
5.53806e-18
5.54433e-18
5.54997e-18
5.55497e-18
5.55937e-18
5.5632e-18
5.56653e-18
5.56939e-18
5.57185e-18
5.57394e-18
5.57572e-18
5.57723e-18
5.5785e-18
5.57957e-18
5.58047e-18
5.58122e-18
5.58185e-18
5.58238e-18
5.58282e-18
5.58318e-18
5.58348e-18
5.58372e-18
5.58392e-18
5.58407e-18
5.58419e-18
5.58428e-18
5.58433e-18
5.58436e-18
5.58436e-18
5.58433e-18
5.58428e-18
5.58419e-18
5.58407e-18
5.58392e-18
5.58372e-18
5.58348e-18
5.58318e-18
5.58282e-18
5.58238e-18
5.58185e-18
5.58122e-18
5.58047e-18
5.57957e-18
5.5785e-18
5.57723e-18
5.57572e-18
5.57394e-18
5.57185e-18
5.56939e-18
5.56653e-18
5.5632e-18
5.55937e-18
5.55497e-18
5.54997e-18
5.54433e-18
5.53806e-18
5.53109e-18
5.52194e-18
1.91788e-17
1.92128e-17
1.92399e-17
1.92644e-17
1.92866e-17
1.93063e-17
1.93236e-17
1.93387e-17
1.93518e-17
1.93631e-17
1.93728e-17
1.93811e-17
1.93881e-17
1.93941e-17
1.93991e-17
1.94034e-17
1.94069e-17
1.94099e-17
1.94124e-17
1.94145e-17
1.94162e-17
1.94176e-17
1.94188e-17
1.94198e-17
1.94206e-17
1.94212e-17
1.94217e-17
1.9422e-17
1.94222e-17
1.94223e-17
1.94223e-17
1.94222e-17
1.9422e-17
1.94217e-17
1.94212e-17
1.94206e-17
1.94198e-17
1.94188e-17
1.94176e-17
1.94162e-17
1.94145e-17
1.94124e-17
1.94099e-17
1.94069e-17
1.94034e-17
1.93991e-17
1.93941e-17
1.93881e-17
1.93811e-17
1.93728e-17
1.93631e-17
1.93518e-17
1.93387e-17
1.93236e-17
1.93063e-17
1.92866e-17
1.92644e-17
1.92399e-17
1.92128e-17
1.91788e-17
6.84163e-17
6.85459e-17
6.86525e-17
6.87502e-17
6.88386e-17
6.89172e-17
6.89864e-17
6.90469e-17
6.90993e-17
6.91446e-17
6.91833e-17
6.92164e-17
6.92446e-17
6.92684e-17
6.92886e-17
6.93056e-17
6.93198e-17
6.93318e-17
6.93418e-17
6.93502e-17
6.93572e-17
6.93629e-17
6.93677e-17
6.93715e-17
6.93747e-17
6.93771e-17
6.9379e-17
6.93804e-17
6.93813e-17
6.93817e-17
6.93817e-17
6.93813e-17
6.93804e-17
6.9379e-17
6.93771e-17
6.93747e-17
6.93715e-17
6.93677e-17
6.93629e-17
6.93572e-17
6.93502e-17
6.93418e-17
6.93318e-17
6.93198e-17
6.93056e-17
6.92886e-17
6.92684e-17
6.92446e-17
6.92164e-17
6.91833e-17
6.91446e-17
6.90993e-17
6.90469e-17
6.89864e-17
6.89172e-17
6.88386e-17
6.87502e-17
6.86525e-17
6.85459e-17
6.84163e-17
2.50579e-16
2.51084e-16
2.51512e-16
2.51907e-16
2.52265e-16
2.52584e-16
2.52865e-16
2.53111e-16
2.53324e-16
2.53507e-16
2.53665e-16
2.538e-16
2.53914e-16
2.54011e-16
2.54093e-16
2.54162e-16
2.5422e-16
2.54269e-16
2.5431e-16
2.54344e-16
2.54372e-16
2.54396e-16
2.54415e-16
2.54431e-16
2.54444e-16
2.54454e-16
2.54462e-16
2.54467e-16
2.54471e-16
2.54473e-16
2.54473e-16
2.54471e-16
2.54467e-16
2.54462e-16
2.54454e-16
2.54444e-16
2.54431e-16
2.54415e-16
2.54396e-16
2.54372e-16
2.54344e-16
2.5431e-16
2.54269e-16
2.5422e-16
2.54162e-16
2.54093e-16
2.54011e-16
2.53914e-16
2.538e-16
2.53665e-16
2.53507e-16
2.53324e-16
2.53111e-16
2.52865e-16
2.52584e-16
2.52265e-16
2.51907e-16
2.51512e-16
2.51084e-16
2.50579e-16
9.41746e-16
9.43757e-16
9.45507e-16
9.47134e-16
9.4861e-16
9.49926e-16
9.51086e-16
9.521e-16
9.5298e-16
9.53739e-16
9.5439e-16
9.54947e-16
9.5542e-16
9.55822e-16
9.56161e-16
9.56447e-16
9.56688e-16
9.56889e-16
9.57058e-16
9.572e-16
9.57317e-16
9.57414e-16
9.57494e-16
9.5756e-16
9.57613e-16
9.57654e-16
9.57686e-16
9.57709e-16
9.57725e-16
9.57732e-16
9.57732e-16
9.57725e-16
9.57709e-16
9.57686e-16
9.57654e-16
9.57613e-16
9.5756e-16
9.57494e-16
9.57414e-16
9.57317e-16
9.572e-16
9.57058e-16
9.56889e-16
9.56688e-16
9.56447e-16
9.56161e-16
9.55822e-16
9.5542e-16
9.54947e-16
9.5439e-16
9.53739e-16
9.5298e-16
9.521e-16
9.51086e-16
9.49926e-16
9.4861e-16
9.47134e-16
9.45507e-16
9.43757e-16
9.41746e-16
3.62903e-15
3.63721e-15
3.64451e-15
3.65132e-15
3.65752e-15
3.66304e-15
3.66791e-15
3.67217e-15
3.67587e-15
3.67906e-15
3.6818e-15
3.68414e-15
3.68613e-15
3.68782e-15
3.68925e-15
3.69045e-15
3.69146e-15
3.69231e-15
3.69302e-15
3.69362e-15
3.69411e-15
3.69452e-15
3.69486e-15
3.69514e-15
3.69536e-15
3.69553e-15
3.69567e-15
3.69577e-15
3.69583e-15
3.69586e-15
3.69586e-15
3.69583e-15
3.69577e-15
3.69567e-15
3.69553e-15
3.69536e-15
3.69514e-15
3.69486e-15
3.69452e-15
3.69411e-15
3.69362e-15
3.69302e-15
3.69231e-15
3.69146e-15
3.69045e-15
3.68925e-15
3.68782e-15
3.68613e-15
3.68414e-15
3.6818e-15
3.67906e-15
3.67587e-15
3.67217e-15
3.66791e-15
3.66304e-15
3.65752e-15
3.65132e-15
3.64451e-15
3.63721e-15
3.62903e-15
1.43242e-14
1.43582e-14
1.43891e-14
1.44182e-14
1.44446e-14
1.44682e-14
1.4489e-14
1.45072e-14
1.4523e-14
1.45366e-14
1.45484e-14
1.45584e-14
1.45669e-14
1.45741e-14
1.45802e-14
1.45854e-14
1.45897e-14
1.45933e-14
1.45964e-14
1.45989e-14
1.4601e-14
1.46028e-14
1.46042e-14
1.46054e-14
1.46064e-14
1.46071e-14
1.46077e-14
1.46081e-14
1.46084e-14
1.46085e-14
1.46085e-14
1.46084e-14
1.46081e-14
1.46077e-14
1.46071e-14
1.46064e-14
1.46054e-14
1.46042e-14
1.46028e-14
1.4601e-14
1.45989e-14
1.45964e-14
1.45933e-14
1.45897e-14
1.45854e-14
1.45802e-14
1.45741e-14
1.45669e-14
1.45584e-14
1.45484e-14
1.45366e-14
1.4523e-14
1.45072e-14
1.4489e-14
1.44682e-14
1.44446e-14
1.44182e-14
1.43891e-14
1.43582e-14
1.43242e-14
5.78357e-14
5.79799e-14
5.81136e-14
5.82394e-14
5.83541e-14
5.84565e-14
5.85469e-14
5.86259e-14
5.86945e-14
5.87538e-14
5.88047e-14
5.88482e-14
5.88852e-14
5.89166e-14
5.89432e-14
5.89656e-14
5.89844e-14
5.90003e-14
5.90135e-14
5.90246e-14
5.90338e-14
5.90414e-14
5.90477e-14
5.90529e-14
5.9057e-14
5.90603e-14
5.90628e-14
5.90646e-14
5.90658e-14
5.90664e-14
5.90664e-14
5.90658e-14
5.90646e-14
5.90628e-14
5.90603e-14
5.9057e-14
5.90529e-14
5.90477e-14
5.90414e-14
5.90338e-14
5.90246e-14
5.90135e-14
5.90003e-14
5.89844e-14
5.89656e-14
5.89432e-14
5.89166e-14
5.88852e-14
5.88482e-14
5.88047e-14
5.87538e-14
5.86945e-14
5.86259e-14
5.85469e-14
5.84565e-14
5.83541e-14
5.82394e-14
5.81136e-14
5.79799e-14
5.78357e-14
2.38479e-13
2.39102e-13
2.39688e-13
2.40242e-13
2.40747e-13
2.41198e-13
2.41597e-13
2.41945e-13
2.42248e-13
2.42509e-13
2.42734e-13
2.42926e-13
2.43089e-13
2.43228e-13
2.43345e-13
2.43444e-13
2.43527e-13
2.43597e-13
2.43655e-13
2.43704e-13
2.43745e-13
2.43779e-13
2.43807e-13
2.43829e-13
2.43848e-13
2.43862e-13
2.43873e-13
2.43881e-13
2.43886e-13
2.43889e-13
2.43889e-13
2.43886e-13
2.43881e-13
2.43873e-13
2.43862e-13
2.43848e-13
2.43829e-13
2.43807e-13
2.43779e-13
2.43745e-13
2.43704e-13
2.43655e-13
2.43597e-13
2.43527e-13
2.43444e-13
2.43345e-13
2.43228e-13
2.43089e-13
2.42926e-13
2.42734e-13
2.42509e-13
2.42248e-13
2.41945e-13
2.41597e-13
2.41198e-13
2.40747e-13
2.40242e-13
2.39688e-13
2.39102e-13
2.38479e-13
1.00217e-12
1.0049e-12
1.00751e-12
1.00998e-12
1.01224e-12
1.01426e-12
1.01603e-12
1.01759e-12
1.01894e-12
1.02011e-12
1.02112e-12
1.02197e-12
1.0227e-12
1.02332e-12
1.02385e-12
1.02429e-12
1.02466e-12
1.02498e-12
1.02524e-12
1.02546e-12
1.02564e-12
1.02579e-12
1.02591e-12
1.02602e-12
1.0261e-12
1.02616e-12
1.02621e-12
1.02625e-12
1.02627e-12
1.02628e-12
1.02628e-12
1.02627e-12
1.02625e-12
1.02621e-12
1.02616e-12
1.0261e-12
1.02602e-12
1.02591e-12
1.02579e-12
1.02564e-12
1.02546e-12
1.02524e-12
1.02498e-12
1.02466e-12
1.02429e-12
1.02385e-12
1.02332e-12
1.0227e-12
1.02197e-12
1.02112e-12
1.02011e-12
1.01894e-12
1.01759e-12
1.01603e-12
1.01426e-12
1.01224e-12
1.00998e-12
1.00751e-12
1.0049e-12
1.00217e-12
4.28144e-12
4.29359e-12
4.30534e-12
4.31648e-12
4.32666e-12
4.33576e-12
4.3438e-12
4.35084e-12
4.35695e-12
4.36222e-12
4.36676e-12
4.37063e-12
4.37393e-12
4.37674e-12
4.37911e-12
4.38111e-12
4.38279e-12
4.38421e-12
4.38539e-12
4.38638e-12
4.3872e-12
4.38789e-12
4.38845e-12
4.38891e-12
4.38928e-12
4.38957e-12
4.3898e-12
4.38996e-12
4.39006e-12
4.39012e-12
4.39012e-12
4.39006e-12
4.38996e-12
4.3898e-12
4.38957e-12
4.38928e-12
4.38891e-12
4.38845e-12
4.38789e-12
4.3872e-12
4.38638e-12
4.38539e-12
4.38421e-12
4.38279e-12
4.38111e-12
4.37911e-12
4.37674e-12
4.37393e-12
4.37063e-12
4.36676e-12
4.36222e-12
4.35695e-12
4.35084e-12
4.3438e-12
4.33576e-12
4.32666e-12
4.31648e-12
4.30534e-12
4.29359e-12
4.28144e-12
1.85392e-11
1.85938e-11
1.86471e-11
1.86978e-11
1.87442e-11
1.87856e-11
1.88222e-11
1.88542e-11
1.8882e-11
1.89061e-11
1.89267e-11
1.89444e-11
1.89594e-11
1.89722e-11
1.8983e-11
1.89921e-11
1.89998e-11
1.90062e-11
1.90116e-11
1.90161e-11
1.90199e-11
1.9023e-11
1.90256e-11
1.90277e-11
1.90294e-11
1.90307e-11
1.90317e-11
1.90325e-11
1.90329e-11
1.90332e-11
1.90332e-11
1.90329e-11
1.90325e-11
1.90317e-11
1.90307e-11
1.90294e-11
1.90277e-11
1.90256e-11
1.9023e-11
1.90199e-11
1.90161e-11
1.90116e-11
1.90062e-11
1.89998e-11
1.89921e-11
1.8983e-11
1.89722e-11
1.89594e-11
1.89444e-11
1.89267e-11
1.89061e-11
1.8882e-11
1.88542e-11
1.88222e-11
1.87856e-11
1.87442e-11
1.86978e-11
1.86471e-11
1.85938e-11
1.85392e-11
8.10769e-11
8.13237e-11
8.15673e-11
8.1799e-11
8.20108e-11
8.22002e-11
8.23676e-11
8.25141e-11
8.26414e-11
8.27513e-11
8.28458e-11
8.29266e-11
8.29954e-11
8.30539e-11
8.31033e-11
8.3145e-11
8.31802e-11
8.32097e-11
8.32344e-11
8.3255e-11
8.32722e-11
8.32865e-11
8.32982e-11
8.33078e-11
8.33155e-11
8.33217e-11
8.33263e-11
8.33297e-11
8.33319e-11
8.3333e-11
8.3333e-11
8.33319e-11
8.33297e-11
8.33263e-11
8.33217e-11
8.33155e-11
8.33078e-11
8.32982e-11
8.32865e-11
8.32722e-11
8.3255e-11
8.32344e-11
8.32097e-11
8.31802e-11
8.3145e-11
8.31033e-11
8.30539e-11
8.29954e-11
8.29266e-11
8.28458e-11
8.27513e-11
8.26414e-11
8.25141e-11
8.23676e-11
8.22002e-11
8.20108e-11
8.1799e-11
8.15673e-11
8.13237e-11
8.10769e-11
3.56605e-10
3.57724e-10
3.58836e-10
3.59895e-10
3.60864e-10
3.6173e-10
3.62496e-10
3.63166e-10
3.63748e-10
3.64251e-10
3.64683e-10
3.65053e-10
3.65368e-10
3.65635e-10
3.65862e-10
3.66053e-10
3.66213e-10
3.66348e-10
3.66461e-10
3.66556e-10
3.66635e-10
3.667e-10
3.66754e-10
3.66798e-10
3.66833e-10
3.66861e-10
3.66882e-10
3.66898e-10
3.66908e-10
3.66913e-10
3.66913e-10
3.66908e-10
3.66898e-10
3.66882e-10
3.66861e-10
3.66833e-10
3.66798e-10
3.66754e-10
3.667e-10
3.66635e-10
3.66556e-10
3.66461e-10
3.66348e-10
3.66213e-10
3.66053e-10
3.65862e-10
3.65635e-10
3.65368e-10
3.65053e-10
3.64683e-10
3.64251e-10
3.63748e-10
3.63166e-10
3.62496e-10
3.6173e-10
3.60864e-10
3.59895e-10
3.58836e-10
3.57724e-10
3.56605e-10
1.56978e-09
1.57483e-09
1.57989e-09
1.58471e-09
1.58912e-09
1.59306e-09
1.59654e-09
1.59959e-09
1.60224e-09
1.60453e-09
1.6065e-09
1.60818e-09
1.60961e-09
1.61083e-09
1.61186e-09
1.61273e-09
1.61346e-09
1.61408e-09
1.61459e-09
1.61502e-09
1.61538e-09
1.61568e-09
1.61592e-09
1.61612e-09
1.61628e-09
1.61641e-09
1.61651e-09
1.61658e-09
1.61663e-09
1.61665e-09
1.61665e-09
1.61663e-09
1.61658e-09
1.61651e-09
1.61641e-09
1.61628e-09
1.61612e-09
1.61592e-09
1.61568e-09
1.61538e-09
1.61502e-09
1.61459e-09
1.61408e-09
1.61346e-09
1.61273e-09
1.61186e-09
1.61083e-09
1.60961e-09
1.60818e-09
1.6065e-09
1.60453e-09
1.60224e-09
1.59959e-09
1.59654e-09
1.59306e-09
1.58912e-09
1.58471e-09
1.57989e-09
1.57483e-09
1.56978e-09
6.87696e-09
6.89958e-09
6.92234e-09
6.94402e-09
6.96385e-09
6.98159e-09
6.99726e-09
7.01099e-09
7.02292e-09
7.03322e-09
7.04208e-09
7.04965e-09
7.05611e-09
7.06158e-09
7.06622e-09
7.07014e-09
7.07343e-09
7.0762e-09
7.07852e-09
7.08046e-09
7.08207e-09
7.08341e-09
7.08451e-09
7.08541e-09
7.08614e-09
7.08671e-09
7.08715e-09
7.08747e-09
7.08768e-09
7.08778e-09
7.08778e-09
7.08768e-09
7.08747e-09
7.08715e-09
7.08671e-09
7.08614e-09
7.08541e-09
7.08451e-09
7.08341e-09
7.08207e-09
7.08046e-09
7.07852e-09
7.0762e-09
7.07343e-09
7.07014e-09
7.06622e-09
7.06158e-09
7.05611e-09
7.04965e-09
7.04208e-09
7.03322e-09
7.02292e-09
7.01099e-09
6.99726e-09
6.98159e-09
6.96385e-09
6.94402e-09
6.92234e-09
6.89958e-09
6.87696e-09
2.97887e-08
2.98883e-08
2.99889e-08
3.00848e-08
3.01724e-08
3.02508e-08
3.03201e-08
3.03808e-08
3.04335e-08
3.0479e-08
3.05182e-08
3.05517e-08
3.05802e-08
3.06044e-08
3.06249e-08
3.06422e-08
3.06568e-08
3.0669e-08
3.06793e-08
3.06879e-08
3.0695e-08
3.07009e-08
3.07058e-08
3.07098e-08
3.0713e-08
3.07155e-08
3.07175e-08
3.07189e-08
3.07198e-08
3.07202e-08
3.07202e-08
3.07198e-08
3.07189e-08
3.07175e-08
3.07155e-08
3.0713e-08
3.07098e-08
3.07058e-08
3.07009e-08
3.0695e-08
3.06879e-08
3.06793e-08
3.0669e-08
3.06568e-08
3.06422e-08
3.06249e-08
3.06044e-08
3.05802e-08
3.05517e-08
3.05182e-08
3.0479e-08
3.04335e-08
3.03808e-08
3.03201e-08
3.02508e-08
3.01724e-08
3.00848e-08
2.99889e-08
2.98883e-08
2.97887e-08
1.26651e-07
1.27079e-07
1.27513e-07
1.27926e-07
1.28304e-07
1.28641e-07
1.2894e-07
1.29201e-07
1.29428e-07
1.29624e-07
1.29793e-07
1.29937e-07
1.3006e-07
1.30164e-07
1.30252e-07
1.30327e-07
1.3039e-07
1.30443e-07
1.30487e-07
1.30524e-07
1.30554e-07
1.3058e-07
1.30601e-07
1.30618e-07
1.30632e-07
1.30643e-07
1.30651e-07
1.30657e-07
1.30661e-07
1.30663e-07
1.30663e-07
1.30661e-07
1.30657e-07
1.30651e-07
1.30643e-07
1.30632e-07
1.30618e-07
1.30601e-07
1.3058e-07
1.30554e-07
1.30524e-07
1.30487e-07
1.30443e-07
1.3039e-07
1.30327e-07
1.30252e-07
1.30164e-07
1.3006e-07
1.29937e-07
1.29793e-07
1.29624e-07
1.29428e-07
1.29201e-07
1.2894e-07
1.28641e-07
1.28304e-07
1.27926e-07
1.27513e-07
1.27079e-07
1.26651e-07
5.24168e-07
5.25949e-07
5.27755e-07
5.29474e-07
5.31043e-07
5.32448e-07
5.33688e-07
5.34775e-07
5.35719e-07
5.36534e-07
5.37235e-07
5.37835e-07
5.38346e-07
5.3878e-07
5.39147e-07
5.39457e-07
5.39718e-07
5.39938e-07
5.40121e-07
5.40275e-07
5.40403e-07
5.40509e-07
5.40596e-07
5.40667e-07
5.40725e-07
5.4077e-07
5.40805e-07
5.4083e-07
5.40847e-07
5.40855e-07
5.40855e-07
5.40847e-07
5.4083e-07
5.40805e-07
5.4077e-07
5.40725e-07
5.40667e-07
5.40596e-07
5.40509e-07
5.40403e-07
5.40275e-07
5.40121e-07
5.39938e-07
5.39718e-07
5.39457e-07
5.39147e-07
5.3878e-07
5.38346e-07
5.37835e-07
5.37235e-07
5.36534e-07
5.35719e-07
5.34775e-07
5.33688e-07
5.32448e-07
5.31043e-07
5.29474e-07
5.27755e-07
5.25949e-07
5.24168e-07
2.09218e-06
2.09928e-06
2.10647e-06
2.1133e-06
2.11954e-06
2.12512e-06
2.13005e-06
2.13437e-06
2.13812e-06
2.14136e-06
2.14414e-06
2.14653e-06
2.14856e-06
2.15028e-06
2.15174e-06
2.15297e-06
2.15401e-06
2.15488e-06
2.15561e-06
2.15622e-06
2.15673e-06
2.15715e-06
2.1575e-06
2.15778e-06
2.15801e-06
2.15819e-06
2.15833e-06
2.15843e-06
2.15849e-06
2.15853e-06
2.15853e-06
2.15849e-06
2.15843e-06
2.15833e-06
2.15819e-06
2.15801e-06
2.15778e-06
2.1575e-06
2.15715e-06
2.15673e-06
2.15622e-06
2.15561e-06
2.15488e-06
2.15401e-06
2.15297e-06
2.15174e-06
2.15028e-06
2.14856e-06
2.14653e-06
2.14414e-06
2.14136e-06
2.13812e-06
2.13437e-06
2.13005e-06
2.12512e-06
2.11954e-06
2.1133e-06
2.10647e-06
2.09928e-06
2.09218e-06
7.97069e-06
7.99742e-06
8.02448e-06
8.05015e-06
8.07357e-06
8.09452e-06
8.11302e-06
8.12922e-06
8.1433e-06
8.15546e-06
8.16591e-06
8.17485e-06
8.18247e-06
8.18894e-06
8.19442e-06
8.19904e-06
8.20293e-06
8.2062e-06
8.20894e-06
8.21123e-06
8.21314e-06
8.21472e-06
8.21602e-06
8.21709e-06
8.21795e-06
8.21862e-06
8.21914e-06
8.21952e-06
8.21976e-06
8.21988e-06
8.21988e-06
8.21976e-06
8.21952e-06
8.21914e-06
8.21862e-06
8.21795e-06
8.21709e-06
8.21602e-06
8.21472e-06
8.21314e-06
8.21123e-06
8.20894e-06
8.2062e-06
8.20293e-06
8.19904e-06
8.19442e-06
8.18894e-06
8.18247e-06
8.17485e-06
8.16591e-06
8.15546e-06
8.1433e-06
8.12922e-06
8.11302e-06
8.09452e-06
8.07357e-06
8.05015e-06
8.02448e-06
7.99742e-06
7.97069e-06
2.86521e-05
2.87461e-05
2.88411e-05
2.8931e-05
2.9013e-05
2.90862e-05
2.9151e-05
2.92076e-05
2.92568e-05
2.92994e-05
2.93359e-05
2.93672e-05
2.93938e-05
2.94165e-05
2.94356e-05
2.94518e-05
2.94654e-05
2.94768e-05
2.94864e-05
2.94944e-05
2.95011e-05
2.95066e-05
2.95112e-05
2.95149e-05
2.95179e-05
2.95203e-05
2.95221e-05
2.95234e-05
2.95243e-05
2.95247e-05
2.95247e-05
2.95243e-05
2.95234e-05
2.95221e-05
2.95203e-05
2.95179e-05
2.95149e-05
2.95112e-05
2.95066e-05
2.95011e-05
2.94944e-05
2.94864e-05
2.94768e-05
2.94654e-05
2.94518e-05
2.94356e-05
2.94165e-05
2.93938e-05
2.93672e-05
2.93359e-05
2.92994e-05
2.92568e-05
2.92076e-05
2.9151e-05
2.90862e-05
2.9013e-05
2.8931e-05
2.88411e-05
2.87461e-05
2.86521e-05
9.59496e-05
9.6254e-05
9.65598e-05
9.68489e-05
9.71123e-05
9.73477e-05
9.75556e-05
9.77374e-05
9.78955e-05
9.8032e-05
9.81493e-05
9.82497e-05
9.83352e-05
9.84078e-05
9.84693e-05
9.85212e-05
9.85649e-05
9.86016e-05
9.86324e-05
9.86581e-05
9.86795e-05
9.86973e-05
9.87119e-05
9.87239e-05
9.87335e-05
9.87411e-05
9.87469e-05
9.87512e-05
9.87539e-05
9.87553e-05
9.87553e-05
9.87539e-05
9.87512e-05
9.87469e-05
9.87411e-05
9.87335e-05
9.87239e-05
9.87119e-05
9.86973e-05
9.86795e-05
9.86581e-05
9.86324e-05
9.86016e-05
9.85649e-05
9.85212e-05
9.84693e-05
9.84078e-05
9.83352e-05
9.82497e-05
9.81493e-05
9.8032e-05
9.78955e-05
9.77374e-05
9.75556e-05
9.73477e-05
9.71123e-05
9.68489e-05
9.65598e-05
9.6254e-05
9.59496e-05
0.000295186
0.000296076
0.000296966
0.000297805
0.000298569
0.000299251
0.000299853
0.00030038
0.000300838
0.000301233
0.000301573
0.000301864
0.000302111
0.000302322
0.0003025
0.00030265
0.000302776
0.000302883
0.000302972
0.000303046
0.000303108
0.00030316
0.000303202
0.000303237
0.000303265
0.000303287
0.000303304
0.000303316
0.000303324
0.000303328
0.000303328
0.000303324
0.000303316
0.000303304
0.000303287
0.000303265
0.000303237
0.000303202
0.00030316
0.000303108
0.000303046
0.000302972
0.000302883
0.000302776
0.00030265
0.0003025
0.000302322
0.000302111
0.000301864
0.000301573
0.000301233
0.000300838
0.00030038
0.000299853
0.000299251
0.000298569
0.000297805
0.000296966
0.000296076
0.000295186
0.000822041
0.00082435
0.000826644
0.0008288
0.000830761
0.000832512
0.000834057
0.000835408
0.000836582
0.000837596
0.000838468
0.000839213
0.000839848
0.000840387
0.000840844
0.000841229
0.000841554
0.000841827
0.000842055
0.000842246
0.000842405
0.000842537
0.000842646
0.000842735
0.000842806
0.000842863
0.000842906
0.000842938
0.000842958
0.000842968
0.000842968
0.000842958
0.000842938
0.000842906
0.000842863
0.000842806
0.000842735
0.000842646
0.000842537
0.000842405
0.000842246
0.000842055
0.000841827
0.000841554
0.000841229
0.000840844
0.000840387
0.000839848
0.000839213
0.000838468
0.000837596
0.000836582
0.000835408
0.000834057
0.000832512
0.000830761
0.0008288
0.000826644
0.00082435
0.000822041
0.00204257
0.00204778
0.00205292
0.00205774
0.00206212
0.00206602
0.00206947
0.00207248
0.0020751
0.00207736
0.0020793
0.00208096
0.00208237
0.00208357
0.00208459
0.00208545
0.00208617
0.00208678
0.00208729
0.00208772
0.00208807
0.00208837
0.00208861
0.00208881
0.00208897
0.00208909
0.00208919
0.00208926
0.00208931
0.00208933
0.00208933
0.00208931
0.00208926
0.00208919
0.00208909
0.00208897
0.00208881
0.00208861
0.00208837
0.00208807
0.00208772
0.00208729
0.00208678
0.00208617
0.00208545
0.00208459
0.00208357
0.00208237
0.00208096
0.0020793
0.00207736
0.0020751
0.00207248
0.00206947
0.00206602
0.00206212
0.00205774
0.00205292
0.00204778
0.00204257
0.00447638
0.00448649
0.00449636
0.00450559
0.00451395
0.00452141
0.00452798
0.00453373
0.00453873
0.00454304
0.00454675
0.00454992
0.00455262
0.00455491
0.00455685
0.00455849
0.00455987
0.00456103
0.004562
0.00456282
0.0045635
0.00456406
0.00456452
0.0045649
0.0045652
0.00456544
0.00456563
0.00456576
0.00456585
0.00456589
0.00456589
0.00456585
0.00456576
0.00456563
0.00456544
0.0045652
0.0045649
0.00456452
0.00456406
0.0045635
0.00456282
0.004562
0.00456103
0.00455987
0.00455849
0.00455685
0.00455491
0.00455262
0.00454992
0.00454675
0.00454304
0.00453873
0.00453373
0.00452798
0.00452141
0.00451395
0.00450559
0.00449636
0.00448649
0.00447638
0.00860861
0.00862534
0.00864152
0.00865658
0.00867021
0.00868236
0.00869307
0.00870243
0.00871056
0.00871758
0.00872361
0.00872877
0.00873316
0.0087369
0.00874006
0.00874273
0.00874498
0.00874687
0.00874845
0.00874977
0.00875088
0.00875179
0.00875255
0.00875316
0.00875366
0.00875406
0.00875436
0.00875457
0.00875472
0.00875479
0.00875479
0.00875472
0.00875457
0.00875436
0.00875406
0.00875366
0.00875316
0.00875255
0.00875179
0.00875088
0.00874977
0.00874845
0.00874687
0.00874498
0.00874273
0.00874006
0.0087369
0.00873316
0.00872877
0.00872361
0.00871758
0.00871056
0.00870243
0.00869307
0.00868236
0.00867021
0.00865658
0.00864152
0.00862534
0.00860861
0.0145933
0.0146173
0.0146402
0.0146614
0.0146805
0.0146976
0.0147127
0.0147258
0.0147372
0.0147471
0.0147556
0.0147628
0.014769
0.0147742
0.0147787
0.0147824
0.0147856
0.0147882
0.0147905
0.0147923
0.0147939
0.0147952
0.0147962
0.0147971
0.0147978
0.0147984
0.0147988
0.0147991
0.0147993
0.0147994
0.0147994
0.0147993
0.0147991
0.0147988
0.0147984
0.0147978
0.0147971
0.0147962
0.0147952
0.0147939
0.0147923
0.0147905
0.0147882
0.0147856
0.0147824
0.0147787
0.0147742
0.014769
0.0147628
0.0147556
0.0147471
0.0147372
0.0147258
0.0147127
0.0146976
0.0146805
0.0146614
0.0146402
0.0146173
0.0145933
0.0221249
0.0221553
0.022184
0.0222105
0.0222345
0.0222558
0.0222745
0.0222909
0.0223051
0.0223174
0.022328
0.0223371
0.0223448
0.0223513
0.0223569
0.0223615
0.0223655
0.0223688
0.0223716
0.0223739
0.0223759
0.0223775
0.0223788
0.0223799
0.0223808
0.0223815
0.022382
0.0223824
0.0223826
0.0223828
0.0223828
0.0223826
0.0223824
0.022382
0.0223815
0.0223808
0.0223799
0.0223788
0.0223775
0.0223759
0.0223739
0.0223716
0.0223688
0.0223655
0.0223615
0.0223569
0.0223513
0.0223448
0.0223371
0.022328
0.0223174
0.0223051
0.0222909
0.0222745
0.0222558
0.0222345
0.0222105
0.022184
0.0221553
0.0221249
0.0306381
0.0306738
0.030707
0.0307376
0.0307651
0.0307896
0.0308112
0.03083
0.0308464
0.0308606
0.0308727
0.0308831
0.030892
0.0308996
0.0309059
0.0309113
0.0309159
0.0309197
0.030923
0.0309256
0.0309279
0.0309297
0.0309313
0.0309325
0.0309335
0.0309343
0.030935
0.0309354