/*--------------------------------*- C++ -*----------------------------------*\
| =========                 |                                                 |
| \\      /  F ield         | foam-extend: Open Source CFD                    |
|  \\    /   O peration     | Version:     4.0                                |
|   \\  /    A nd           | Web:         http://www.foam-extend.org         |
|    \\/     M anipulation  |                                                 |
\*---------------------------------------------------------------------------*/
FoamFile
{
    version     2.0;
    format      ascii;
    class       volScalarField;
    location    "50";
    object      psiE;
}
// * * * * * * * * * * * * * * * * * * * * * * * * * * * * * * * * * * * * * //

dimensions      [0 0 0 0 0 0 0];

internalField   nonuniform List<scalar> 
6960
(
0.183912
0.183888
0.183883
0.183881
0.18388
0.18388
0.18388
0.18388
0.18388
0.18388
0.18388
0.183881
0.183881
0.183881
0.183882
0.183882
0.183882
0.183882
0.183883
0.183883
0.183883
0.183883
0.183884
0.183884
0.183884
0.183884
0.183884
0.183884
0.183884
0.183884
0.183884
0.183884
0.183884
0.183884
0.183884
0.183884
0.183884
0.183884
0.183883
0.183883
0.183883
0.183883
0.183882
0.183882
0.183882
0.183882
0.183881
0.183881
0.183881
0.18388
0.18388
0.18388
0.18388
0.18388
0.18388
0.18388
0.183881
0.183883
0.183888
0.183912
0.345084
0.345031
0.345018
0.345014
0.345012
0.345011
0.345011
0.345012
0.345012
0.345013
0.345014
0.345015
0.345016
0.345017
0.345018
0.345019
0.34502
0.345021
0.345022
0.345023
0.345023
0.345024
0.345025
0.345025
0.345026
0.345026
0.345026
0.345026
0.345027
0.345027
0.345027
0.345027
0.345026
0.345026
0.345026
0.345026
0.345025
0.345025
0.345024
0.345023
0.345023
0.345022
0.345021
0.34502
0.345019
0.345018
0.345017
0.345016
0.345015
0.345014
0.345013
0.345012
0.345012
0.345011
0.345011
0.345012
0.345014
0.345018
0.345031
0.345084
0.424116
0.424048
0.424031
0.424024
0.424022
0.424021
0.424021
0.424022
0.424023
0.424025
0.424026
0.424028
0.42403
0.424031
0.424033
0.424035
0.424037
0.424038
0.42404
0.424041
0.424042
0.424044
0.424045
0.424046
0.424046
0.424047
0.424048
0.424048
0.424048
0.424048
0.424048
0.424048
0.424048
0.424048
0.424047
0.424046
0.424046
0.424045
0.424044
0.424042
0.424041
0.42404
0.424038
0.424037
0.424035
0.424033
0.424031
0.42403
0.424028
0.424026
0.424025
0.424023
0.424022
0.424021
0.424021
0.424022
0.424024
0.424031
0.424048
0.424116
0.46938
0.469304
0.469284
0.469277
0.469274
0.469273
0.469274
0.469275
0.469277
0.469279
0.469281
0.469284
0.469286
0.469289
0.469292
0.469294
0.469297
0.469299
0.469301
0.469303
0.469305
0.469307
0.469308
0.46931
0.469311
0.469312
0.469312
0.469313
0.469313
0.469314
0.469314
0.469313
0.469313
0.469312
0.469312
0.469311
0.46931
0.469308
0.469307
0.469305
0.469303
0.469301
0.469299
0.469297
0.469294
0.469292
0.469289
0.469286
0.469284
0.469281
0.469279
0.469277
0.469275
0.469274
0.469273
0.469274
0.469277
0.469284
0.469304
0.46938
0.500569
0.50049
0.500467
0.500459
0.500456
0.500456
0.500457
0.500459
0.500461
0.500464
0.500467
0.500471
0.500474
0.500477
0.500481
0.500484
0.500487
0.500491
0.500493
0.500496
0.500499
0.500501
0.500503
0.500505
0.500506
0.500507
0.500509
0.500509
0.50051
0.50051
0.50051
0.50051
0.500509
0.500509
0.500507
0.500506
0.500505
0.500503
0.500501
0.500499
0.500496
0.500493
0.500491
0.500487
0.500484
0.500481
0.500477
0.500474
0.500471
0.500467
0.500464
0.500461
0.500459
0.500457
0.500456
0.500456
0.500459
0.500467
0.50049
0.500569
0.525392
0.525311
0.525287
0.525278
0.525275
0.525275
0.525277
0.525279
0.525282
0.525286
0.52529
0.525294
0.525299
0.525303
0.525307
0.525311
0.525315
0.525319
0.525323
0.525326
0.525329
0.525332
0.525335
0.525337
0.525339
0.525341
0.525342
0.525343
0.525344
0.525344
0.525344
0.525344
0.525343
0.525342
0.525341
0.525339
0.525337
0.525335
0.525332
0.525329
0.525326
0.525323
0.525319
0.525315
0.525311
0.525307
0.525303
0.525299
0.525294
0.52529
0.525286
0.525282
0.525279
0.525277
0.525275
0.525275
0.525278
0.525287
0.525311
0.525392
0.546799
0.546718
0.546693
0.546683
0.54668
0.546681
0.546683
0.546686
0.54669
0.546694
0.546699
0.546704
0.54671
0.546715
0.54672
0.546725
0.54673
0.546735
0.546739
0.546743
0.546747
0.546751
0.546754
0.546756
0.546759
0.546761
0.546762
0.546763
0.546764
0.546765
0.546765
0.546764
0.546763
0.546762
0.546761
0.546759
0.546756
0.546754
0.546751
0.546747
0.546743
0.546739
0.546735
0.54673
0.546725
0.54672
0.546715
0.54671
0.546704
0.546699
0.546694
0.54669
0.546686
0.546683
0.546681
0.54668
0.546683
0.546693
0.546718
0.546799
0.56596
0.565879
0.565852
0.565842
0.56584
0.56584
0.565843
0.565846
0.565851
0.565857
0.565862
0.565869
0.565875
0.565881
0.565887
0.565893
0.565899
0.565905
0.56591
0.565915
0.565919
0.565923
0.565927
0.56593
0.565933
0.565935
0.565937
0.565938
0.565939
0.56594
0.56594
0.565939
0.565938
0.565937
0.565935
0.565933
0.56593
0.565927
0.565923
0.565919
0.565915
0.56591
0.565905
0.565899
0.565893
0.565887
0.565881
0.565875
0.565869
0.565862
0.565857
0.565851
0.565846
0.565843
0.56584
0.56584
0.565842
0.565852
0.565879
0.56596
0.5834
0.583319
0.583291
0.583281
0.583279
0.58328
0.583283
0.583287
0.583293
0.583299
0.583306
0.583313
0.58332
0.583328
0.583335
0.583342
0.583349
0.583355
0.583361
0.583367
0.583372
0.583377
0.583381
0.583384
0.583388
0.58339
0.583392
0.583394
0.583395
0.583396
0.583396
0.583395
0.583394
0.583392
0.58339
0.583388
0.583384
0.583381
0.583377
0.583372
0.583367
0.583361
0.583355
0.583349
0.583342
0.583335
0.583328
0.58332
0.583313
0.583306
0.583299
0.583293
0.583287
0.583283
0.58328
0.583279
0.583281
0.583291
0.583319
0.5834
0.599414
0.599333
0.599305
0.599295
0.599292
0.599293
0.599297
0.599303
0.599309
0.599316
0.599324
0.599332
0.59934
0.599349
0.599357
0.599365
0.599373
0.59938
0.599387
0.599393
0.599399
0.599405
0.599409
0.599414
0.599417
0.59942
0.599423
0.599424
0.599426
0.599426
0.599426
0.599426
0.599424
0.599423
0.59942
0.599417
0.599414
0.599409
0.599405
0.599399
0.599393
0.599387
0.59938
0.599373
0.599365
0.599357
0.599349
0.59934
0.599332
0.599324
0.599316
0.599309
0.599303
0.599297
0.599293
0.599292
0.599295
0.599305
0.599333
0.599414
0.614204
0.614124
0.614094
0.614084
0.614082
0.614083
0.614088
0.614094
0.614101
0.61411
0.614118
0.614128
0.614137
0.614146
0.614156
0.614165
0.614173
0.614182
0.614189
0.614197
0.614203
0.614209
0.614215
0.61422
0.614224
0.614227
0.61423
0.614232
0.614233
0.614234
0.614234
0.614233
0.614232
0.61423
0.614227
0.614224
0.61422
0.614215
0.614209
0.614203
0.614197
0.614189
0.614182
0.614173
0.614165
0.614156
0.614146
0.614137
0.614128
0.614118
0.61411
0.614101
0.614094
0.614088
0.614083
0.614082
0.614084
0.614094
0.614124
0.614204
0.627928
0.627848
0.627818
0.627807
0.627805
0.627808
0.627813
0.62782
0.627828
0.627837
0.627847
0.627857
0.627868
0.627878
0.627889
0.627899
0.627909
0.627918
0.627927
0.627935
0.627942
0.627949
0.627955
0.62796
0.627965
0.627969
0.627972
0.627974
0.627975
0.627976
0.627976
0.627975
0.627974
0.627972
0.627969
0.627965
0.62796
0.627955
0.627949
0.627942
0.627935
0.627927
0.627918
0.627909
0.627899
0.627889
0.627878
0.627868
0.627857
0.627847
0.627837
0.627828
0.62782
0.627813
0.627808
0.627805
0.627807
0.627818
0.627848
0.627928
0.640716
0.640637
0.640606
0.640596
0.640594
0.640597
0.640603
0.640611
0.64062
0.64063
0.640641
0.640653
0.640664
0.640676
0.640687
0.640699
0.640709
0.64072
0.640729
0.640738
0.640746
0.640754
0.640761
0.640766
0.640771
0.640776
0.640779
0.640782
0.640783
0.640784
0.640784
0.640783
0.640782
0.640779
0.640776
0.640771
0.640766
0.640761
0.640754
0.640746
0.640738
0.640729
0.64072
0.640709
0.640699
0.640687
0.640676
0.640664
0.640653
0.640641
0.64063
0.64062
0.640611
0.640603
0.640597
0.640594
0.640596
0.640606
0.640637
0.640716
0.652682
0.652603
0.652572
0.652561
0.65256
0.652563
0.65257
0.652578
0.652589
0.6526
0.652612
0.652625
0.652638
0.652651
0.652663
0.652675
0.652687
0.652699
0.652709
0.652719
0.652728
0.652736
0.652744
0.65275
0.652756
0.65276
0.652764
0.652767
0.652769
0.65277
0.65277
0.652769
0.652767
0.652764
0.65276
0.652756
0.65275
0.652744
0.652736
0.652728
0.652719
0.652709
0.652699
0.652687
0.652675
0.652663
0.652651
0.652638
0.652625
0.652612
0.6526
0.652589
0.652578
0.65257
0.652563
0.65256
0.652561
0.652572
0.652603
0.652682
0.663921
0.663843
0.663811
0.663801
0.663799
0.663803
0.663811
0.66382
0.663832
0.663844
0.663858
0.663871
0.663885
0.6639
0.663913
0.663927
0.66394
0.663952
0.663964
0.663975
0.663984
0.663993
0.664002
0.664009
0.664015
0.66402
0.664024
0.664027
0.664029
0.66403
0.66403
0.664029
0.664027
0.664024
0.66402
0.664015
0.664009
0.664002
0.663993
0.663984
0.663975
0.663964
0.663952
0.66394
0.663927
0.663913
0.6639
0.663885
0.663871
0.663858
0.663844
0.663832
0.66382
0.663811
0.663803
0.663799
0.663801
0.663811
0.663843
0.663921
0.674519
0.674442
0.67441
0.674399
0.674398
0.674403
0.674411
0.674422
0.674434
0.674448
0.674462
0.674478
0.674493
0.674508
0.674523
0.674538
0.674552
0.674565
0.674578
0.67459
0.674601
0.67461
0.674619
0.674627
0.674634
0.674639
0.674643
0.674647
0.674649
0.67465
0.67465
0.674649
0.674647
0.674643
0.674639
0.674634
0.674627
0.674619
0.67461
0.674601
0.67459
0.674578
0.674565
0.674552
0.674538
0.674523
0.674508
0.674493
0.674478
0.674462
0.674448
0.674434
0.674422
0.674411
0.674403
0.674398
0.674399
0.67441
0.674442
0.674519
0.684552
0.684475
0.684443
0.684432
0.684432
0.684437
0.684446
0.684458
0.684472
0.684486
0.684502
0.684519
0.684535
0.684552
0.684568
0.684584
0.684599
0.684614
0.684628
0.68464
0.684652
0.684663
0.684672
0.684681
0.684688
0.684694
0.684699
0.684702
0.684705
0.684706
0.684706
0.684705
0.684702
0.684699
0.684694
0.684688
0.684681
0.684672
0.684663
0.684652
0.68464
0.684628
0.684614
0.684599
0.684584
0.684568
0.684552
0.684535
0.684519
0.684502
0.684486
0.684472
0.684458
0.684446
0.684437
0.684432
0.684432
0.684443
0.684475
0.684552
0.694086
0.69401
0.693978
0.693968
0.693968
0.693974
0.693984
0.693996
0.694011
0.694027
0.694044
0.694062
0.69408
0.694098
0.694115
0.694133
0.694149
0.694165
0.69418
0.694194
0.694206
0.694218
0.694228
0.694237
0.694245
0.694251
0.694256
0.69426
0.694263
0.694264
0.694264
0.694263
0.69426
0.694256
0.694251
0.694245
0.694237
0.694228
0.694218
0.694206
0.694194
0.69418
0.694165
0.694149
0.694133
0.694115
0.694098
0.69408
0.694062
0.694044
0.694027
0.694011
0.693996
0.693984
0.693974
0.693968
0.693968
0.693978
0.69401
0.694086
0.703183
0.703108
0.703076
0.703066
0.703066
0.703073
0.703084
0.703097
0.703113
0.703131
0.703149
0.703168
0.703188
0.703207
0.703226
0.703244
0.703262
0.703279
0.703295
0.70331
0.703324
0.703336
0.703347
0.703357
0.703365
0.703372
0.703378
0.703382
0.703385
0.703386
0.703386
0.703385
0.703382
0.703378
0.703372
0.703365
0.703357
0.703347
0.703336
0.703324
0.70331
0.703295
0.703279
0.703262
0.703244
0.703226
0.703207
0.703188
0.703168
0.703149
0.703131
0.703113
0.703097
0.703084
0.703073
0.703066
0.703066
0.703076
0.703108
0.703183
0.711897
0.711823
0.711791
0.711781
0.711782
0.711789
0.711801
0.711816
0.711833
0.711852
0.711872
0.711892
0.711913
0.711934
0.711954
0.711974
0.711993
0.712011
0.712028
0.712044
0.712059
0.712072
0.712084
0.712094
0.712103
0.712111
0.712117
0.712121
0.712124
0.712126
0.712126
0.712124
0.712121
0.712117
0.712111
0.712103
0.712094
0.712084
0.712072
0.712059
0.712044
0.712028
0.712011
0.711993
0.711974
0.711954
0.711934
0.711913
0.711892
0.711872
0.711852
0.711833
0.711816
0.711801
0.711789
0.711782
0.711781
0.711791
0.711823
0.711897
0.720278
0.720206
0.720174
0.720164
0.720165
0.720173
0.720186
0.720202
0.720221
0.720241
0.720262
0.720284
0.720306
0.720328
0.72035
0.720371
0.720392
0.720411
0.72043
0.720447
0.720462
0.720477
0.720489
0.7205
0.72051
0.720518
0.720524
0.720529
0.720532
0.720534
0.720534
0.720532
0.720529
0.720524
0.720518
0.72051
0.7205
0.720489
0.720477
0.720462
0.720447
0.72043
0.720411
0.720392
0.720371
0.72035
0.720328
0.720306
0.720284
0.720262
0.720241
0.720221
0.720202
0.720186
0.720173
0.720165
0.720164
0.720174
0.720206
0.720278
0.728371
0.728301
0.728269
0.728259
0.728261
0.72827
0.728284
0.728301
0.728321
0.728342
0.728365
0.728389
0.728412
0.728436
0.72846
0.728482
0.728504
0.728525
0.728544
0.728563
0.728579
0.728594
0.728608
0.72862
0.72863
0.728639
0.728646
0.728651
0.728654
0.728656
0.728656
0.728654
0.728651
0.728646
0.728639
0.72863
0.72862
0.728608
0.728594
0.728579
0.728563
0.728544
0.728525
0.728504
0.728482
0.72846
0.728436
0.728412
0.728389
0.728365
0.728342
0.728321
0.728301
0.728284
0.72827
0.728261
0.728259
0.728269
0.728301
0.728371
0.73622
0.736151
0.736119
0.73611
0.736112
0.736122
0.736137
0.736155
0.736176
0.736199
0.736224
0.736249
0.736274
0.736299
0.736324
0.736348
0.736372
0.736394
0.736415
0.736434
0.736452
0.736468
0.736482
0.736495
0.736506
0.736515
0.736522
0.736528
0.736531
0.736533
0.736533
0.736531
0.736528
0.736522
0.736515
0.736506
0.736495
0.736482
0.736468
0.736452
0.736434
0.736415
0.736394
0.736372
0.736348
0.736324
0.736299
0.736274
0.736249
0.736224
0.736199
0.736176
0.736155
0.736137
0.736122
0.736112
0.73611
0.736119
0.736151
0.73622
0.743861
0.743794
0.743763
0.743754
0.743757
0.743768
0.743784
0.743803
0.743826
0.74385
0.743876
0.743902
0.743929
0.743956
0.743983
0.744009
0.744033
0.744057
0.744079
0.7441
0.744119
0.744136
0.744151
0.744165
0.744176
0.744186
0.744194
0.744199
0.744203
0.744205
0.744205
0.744203
0.744199
0.744194
0.744186
0.744176
0.744165
0.744151
0.744136
0.744119
0.7441
0.744079
0.744057
0.744033
0.744009
0.743983
0.743956
0.743929
0.743902
0.743876
0.74385
0.743826
0.743803
0.743784
0.743768
0.743757
0.743754
0.743763
0.743794
0.743861
0.751332
0.751266
0.751236
0.751227
0.751231
0.751242
0.751259
0.75128
0.751304
0.75133
0.751358
0.751386
0.751415
0.751443
0.751471
0.751499
0.751525
0.75155
0.751573
0.751595
0.751615
0.751634
0.75165
0.751664
0.751677
0.751687
0.751695
0.751701
0.751705
0.751707
0.751707
0.751705
0.751701
0.751695
0.751687
0.751677
0.751664
0.75165
0.751634
0.751615
0.751595
0.751573
0.75155
0.751525
0.751499
0.751471
0.751443
0.751415
0.751386
0.751358
0.75133
0.751304
0.75128
0.751259
0.751242
0.751231
0.751227
0.751236
0.751266
0.751332
0.758665
0.758601
0.758571
0.758563
0.758567
0.75858
0.758598
0.758621
0.758646
0.758673
0.758702
0.758732
0.758763
0.758793
0.758823
0.758852
0.75888
0.758906
0.758931
0.758954
0.758976
0.758995
0.759012
0.759027
0.75904
0.759051
0.75906
0.759067
0.759071
0.759073
0.759073
0.759071
0.759067
0.75906
0.759051
0.75904
0.759027
0.759012
0.758995
0.758976
0.758954
0.758931
0.758906
0.75888
0.758852
0.758823
0.758793
0.758763
0.758732
0.758702
0.758673
0.758646
0.758621
0.758598
0.75858
0.758567
0.758563
0.758571
0.758601
0.758665
0.765891
0.765829
0.7658
0.765792
0.765798
0.765811
0.765831
0.765854
0.765881
0.765911
0.765941
0.765973
0.766005
0.766037
0.766069
0.7661
0.766129
0.766157
0.766183
0.766208
0.766231
0.766251
0.766269
0.766285
0.766299
0.766311
0.76632
0.766327
0.766331
0.766334
0.766334
0.766331
0.766327
0.76632
0.766311
0.766299
0.766285
0.766269
0.766251
0.766231
0.766208
0.766183
0.766157
0.766129
0.7661
0.766069
0.766037
0.766005
0.765973
0.765941
0.765911
0.765881
0.765854
0.765831
0.765811
0.765798
0.765792
0.7658
0.765829
0.765891
0.77304
0.77298
0.772952
0.772945
0.772951
0.772965
0.772986
0.773011
0.77304
0.773071
0.773103
0.773137
0.773171
0.773205
0.773238
0.773271
0.773302
0.773331
0.773359
0.773385
0.773409
0.77343
0.77345
0.773467
0.773481
0.773493
0.773503
0.77351
0.773515
0.773518
0.773518
0.773515
0.77351
0.773503
0.773493
0.773481
0.773467
0.77345
0.77343
0.773409
0.773385
0.773359
0.773331
0.773302
0.773271
0.773238
0.773205
0.773171
0.773137
0.773103
0.773071
0.77304
0.773011
0.772986
0.772965
0.772951
0.772945
0.772952
0.77298
0.77304
0.780139
0.780081
0.780053
0.780047
0.780054
0.78007
0.780092
0.780118
0.780148
0.780181
0.780215
0.780251
0.780287
0.780323
0.780358
0.780392
0.780425
0.780456
0.780486
0.780513
0.780538
0.780561
0.780581
0.780599
0.780615
0.780627
0.780638
0.780645
0.78065
0.780653
0.780653
0.78065
0.780645
0.780638
0.780627
0.780615
0.780599
0.780581
0.780561
0.780538
0.780513
0.780486
0.780456
0.780425
0.780392
0.780358
0.780323
0.780287
0.780251
0.780215
0.780181
0.780148
0.780118
0.780092
0.78007
0.780054
0.780047
0.780053
0.780081
0.780139
0.787212
0.787157
0.78713
0.787125
0.787133
0.787149
0.787173
0.787201
0.787233
0.787267
0.787304
0.787341
0.787379
0.787417
0.787454
0.78749
0.787525
0.787558
0.787589
0.787617
0.787644
0.787668
0.787689
0.787708
0.787724
0.787738
0.787749
0.787757
0.787762
0.787765
0.787765
0.787762
0.787757
0.787749
0.787738
0.787724
0.787708
0.787689
0.787668
0.787644
0.787617
0.787589
0.787558
0.787525
0.78749
0.787454
0.787417
0.787379
0.787341
0.787304
0.787267
0.787233
0.787201
0.787173
0.787149
0.787133
0.787125
0.78713
0.787157
0.787212
0.794286
0.794233
0.794207
0.794202
0.794211
0.794229
0.794254
0.794284
0.794317
0.794354
0.794392
0.794431
0.794471
0.794511
0.79455
0.794588
0.794625
0.794659
0.794692
0.794722
0.79475
0.794775
0.794798
0.794818
0.794835
0.794849
0.79486
0.794869
0.794875
0.794877
0.794877
0.794875
0.794869
0.79486
0.794849
0.794835
0.794818
0.794798
0.794775
0.79475
0.794722
0.794692
0.794659
0.794625
0.794588
0.79455
0.794511
0.794471
0.794431
0.794392
0.794354
0.794317
0.794284
0.794254
0.794229
0.794211
0.794202
0.794207
0.794233
0.794286
0.801381
0.801331
0.801306
0.801302
0.801312
0.801331
0.801357
0.801389
0.801424
0.801462
0.801503
0.801544
0.801586
0.801628
0.801669
0.801709
0.801747
0.801784
0.801818
0.80185
0.801879
0.801906
0.80193
0.801951
0.801969
0.801984
0.801996
0.802004
0.80201
0.802013
0.802013
0.80201
0.802004
0.801996
0.801984
0.801969
0.801951
0.80193
0.801906
0.801879
0.80185
0.801818
0.801784
0.801747
0.801709
0.801669
0.801628
0.801586
0.801544
0.801503
0.801462
0.801424
0.801389
0.801357
0.801331
0.801312
0.801302
0.801306
0.801331
0.801381
0.808519
0.808472
0.808448
0.808445
0.808456
0.808477
0.808504
0.808538
0.808575
0.808615
0.808658
0.808701
0.808745
0.808789
0.808833
0.808875
0.808915
0.808953
0.808989
0.809023
0.809054
0.809082
0.809107
0.809128
0.809147
0.809163
0.809176
0.809185
0.809191
0.809194
0.809194
0.809191
0.809185
0.809176
0.809163
0.809147
0.809128
0.809107
0.809082
0.809054
0.809023
0.808989
0.808953
0.808915
0.808875
0.808833
0.808789
0.808745
0.808701
0.808658
0.808615
0.808575
0.808538
0.808504
0.808477
0.808456
0.808445
0.808448
0.808472
0.808519
0.815722
0.815677
0.815655
0.815653
0.815665
0.815686
0.815716
0.815751
0.81579
0.815832
0.815877
0.815923
0.815969
0.816015
0.816061
0.816105
0.816147
0.816188
0.816225
0.816261
0.816293
0.816322
0.816348
0.816371
0.816391
0.816408
0.816421
0.816431
0.816437
0.816441
0.816441
0.816437
0.816431
0.816421
0.816408
0.816391
0.816371
0.816348
0.816322
0.816293
0.816261
0.816225
0.816188
0.816147
0.816105
0.816061
0.816015
0.815969
0.815923
0.815877
0.815832
0.81579
0.815751
0.815716
0.815686
0.815665
0.815653
0.815655
0.815677
0.815722
0.823007
0.822965
0.822944
0.822943
0.822956
0.82298
0.82301
0.823047
0.823089
0.823133
0.82318
0.823228
0.823277
0.823325
0.823373
0.823419
0.823464
0.823506
0.823545
0.823582
0.823616
0.823647
0.823674
0.823699
0.823719
0.823737
0.82375
0.823761
0.823768
0.823771
0.823771
0.823768
0.823761
0.82375
0.823737
0.823719
0.823699
0.823674
0.823647
0.823616
0.823582
0.823545
0.823506
0.823464
0.823419
0.823373
0.823325
0.823277
0.823228
0.82318
0.823133
0.823089
0.823047
0.82301
0.82298
0.822956
0.822943
0.822944
0.822965
0.823007
0.830394
0.830354
0.830335
0.830335
0.830349
0.830374
0.830407
0.830445
0.830489
0.830535
0.830584
0.830635
0.830686
0.830737
0.830787
0.830835
0.830882
0.830926
0.830968
0.831007
0.831042
0.831074
0.831103
0.831128
0.83115
0.831168
0.831183
0.831194
0.831201
0.831204
0.831204
0.831201
0.831194
0.831183
0.831168
0.83115
0.831128
0.831103
0.831074
0.831042
0.831007
0.830968
0.830926
0.830882
0.830835
0.830787
0.830737
0.830686
0.830635
0.830584
0.830535
0.830489
0.830445
0.830407
0.830374
0.830349
0.830335
0.830335
0.830354
0.830394
0.837898
0.837862
0.837844
0.837845
0.837861
0.837887
0.837922
0.837962
0.838008
0.838057
0.838108
0.838161
0.838215
0.838268
0.83832
0.838371
0.83842
0.838466
0.83851
0.83855
0.838588
0.838621
0.838651
0.838678
0.838701
0.83872
0.838735
0.838746
0.838754
0.838758
0.838758
0.838754
0.838746
0.838735
0.83872
0.838701
0.838678
0.838651
0.838621
0.838588
0.83855
0.83851
0.838466
0.83842
0.838371
0.83832
0.838268
0.838215
0.838161
0.838108
0.838057
0.838008
0.837962
0.837922
0.837887
0.837861
0.837845
0.837844
0.837862
0.837898
0.845538
0.845504
0.845488
0.84549
0.845507
0.845535
0.845572
0.845614
0.845662
0.845713
0.845767
0.845823
0.845879
0.845934
0.845989
0.846043
0.846094
0.846142
0.846188
0.84623
0.846269
0.846304
0.846336
0.846364
0.846387
0.846407
0.846423
0.846435
0.846443
0.846447
0.846447
0.846443
0.846435
0.846423
0.846407
0.846387
0.846364
0.846336
0.846304
0.846269
0.84623
0.846188
0.846142
0.846094
0.846043
0.845989
0.845934
0.845879
0.845823
0.845767
0.845713
0.845662
0.845614
0.845572
0.845535
0.845507
0.84549
0.845488
0.845504
0.845538
0.853328
0.853297
0.853282
0.853286
0.853305
0.853334
0.853372
0.853417
0.853467
0.853521
0.853577
0.853635
0.853694
0.853752
0.85381
0.853865
0.853919
0.85397
0.854017
0.854062
0.854102
0.854139
0.854172
0.854201
0.854226
0.854247
0.854264
0.854276
0.854284
0.854288
0.854288
0.854284
0.854276
0.854264
0.854247
0.854226
0.854201
0.854172
0.854139
0.854102
0.854062
0.854017
0.85397
0.853919
0.853865
0.85381
0.853752
0.853694
0.853635
0.853577
0.853521
0.853467
0.853417
0.853372
0.853334
0.853305
0.853286
0.853282
0.853297
0.853328
0.861282
0.861254
0.861242
0.861247
0.861267
0.861298
0.861338
0.861385
0.861438
0.861494
0.861553
0.861614
0.861675
0.861736
0.861796
0.861855
0.861911
0.861964
0.862013
0.86206
0.862102
0.862141
0.862175
0.862206
0.862232
0.862253
0.862271
0.862284
0.862292
0.862297
0.862297
0.862292
0.862284
0.862271
0.862253
0.862232
0.862206
0.862175
0.862141
0.862102
0.86206
0.862013
0.861964
0.861911
0.861855
0.861796
0.861736
0.861675
0.861614
0.861553
0.861494
0.861438
0.861385
0.861338
0.861298
0.861267
0.861247
0.861242
0.861254
0.861282
0.869417
0.869391
0.869381
0.869388
0.869409
0.869442
0.869484
0.869534
0.869588
0.869647
0.869709
0.869773
0.869837
0.869901
0.869963
0.870024
0.870083
0.870138
0.87019
0.870239
0.870283
0.870323
0.870359
0.870391
0.870418
0.870441
0.870459
0.870473
0.870482
0.870486
0.870486
0.870482
0.870473
0.870459
0.870441
0.870418
0.870391
0.870359
0.870323
0.870283
0.870239
0.87019
0.870138
0.870083
0.870024
0.869963
0.869901
0.869837
0.869773
0.869709
0.869647
0.869588
0.869534
0.869484
0.869442
0.869409
0.869388
0.869381
0.869391
0.869417
0.877744
0.877721
0.877713
0.877721
0.877744
0.877779
0.877823
0.877875
0.877933
0.877994
0.878059
0.878125
0.878192
0.878259
0.878324
0.878388
0.878449
0.878507
0.878561
0.878612
0.878658
0.8787
0.878738
0.878771
0.878799
0.878823
0.878842
0.878856
0.878865
0.87887
0.87887
0.878865
0.878856
0.878842
0.878823
0.878799
0.878771
0.878738
0.8787
0.878658
0.878612
0.878561
0.878507
0.878449
0.878388
0.878324
0.878259
0.878192
0.878125
0.878059
0.877994
0.877933
0.877875
0.877823
0.877779
0.877744
0.877721
0.877713
0.877721
0.877744
0.886277
0.886257
0.886251
0.886261
0.886286
0.886322
0.886369
0.886423
0.886483
0.886548
0.886615
0.886684
0.886754
0.886824
0.886893
0.886959
0.887023
0.887083
0.88714
0.887193
0.887241
0.887285
0.887324
0.887359
0.887388
0.887413
0.887433
0.887447
0.887457
0.887462
0.887462
0.887457
0.887447
0.887433
0.887413
0.887388
0.887359
0.887324
0.887285
0.887241
0.887193
0.88714
0.887083
0.887023
0.886959
0.886893
0.886824
0.886754
0.886684
0.886615
0.886548
0.886483
0.886423
0.886369
0.886322
0.886286
0.886261
0.886251
0.886257
0.886277
0.895029
0.895012
0.895007
0.895019
0.895046
0.895085
0.895133
0.89519
0.895253
0.89532
0.895391
0.895463
0.895536
0.895609
0.89568
0.89575
0.895816
0.895879
0.895938
0.895993
0.896044
0.89609
0.896131
0.896166
0.896197
0.896223
0.896244
0.896259
0.896269
0.896274
0.896274
0.896269
0.896259
0.896244
0.896223
0.896197
0.896166
0.896131
0.89609
0.896044
0.895993
0.895938
0.895879
0.895816
0.89575
0.89568
0.895609
0.895536
0.895463
0.895391
0.89532
0.895253
0.89519
0.895133
0.895085
0.895046
0.895019
0.895007
0.895012
0.895029
0.904012
0.903997
0.903994
0.904008
0.904037
0.904078
0.904129
0.904188
0.904254
0.904324
0.904398
0.904473
0.90455
0.904626
0.9047
0.904772
0.904842
0.904907
0.904969
0.905026
0.905079
0.905127
0.905169
0.905207
0.905239
0.905266
0.905287
0.905303
0.905314
0.905319
0.905319
0.905314
0.905303
0.905287
0.905266
0.905239
0.905207
0.905169
0.905127
0.905079
0.905026
0.904969
0.904907
0.904842
0.904772
0.9047
0.904626
0.90455
0.904473
0.904398
0.904324
0.904254
0.904188
0.904129
0.904078
0.904037
0.904008
0.903994
0.903997
0.904012
0.913237
0.913224
0.913224
0.913239
0.91327
0.913313
0.913367
0.913429
0.913498
0.913571
0.913648
0.913727
0.913806
0.913886
0.913963
0.914039
0.914111
0.914179
0.914244
0.914304
0.914358
0.914408
0.914453
0.914492
0.914525
0.914553
0.914575
0.914592
0.914603
0.914609
0.914609
0.914603
0.914592
0.914575
0.914553
0.914525
0.914492
0.914453
0.914408
0.914358
0.914304
0.914244
0.914179
0.914111
0.914039
0.913963
0.913886
0.913806
0.913727
0.913648
0.913571
0.913498
0.913429
0.913367
0.913313
0.91327
0.913239
0.913224
0.913224
0.913237
0.922716
0.922706
0.922707
0.922725
0.922758
0.922803
0.922859
0.922924
0.922996
0.923073
0.923153
0.923235
0.923318
0.923401
0.923482
0.92356
0.923636
0.923707
0.923774
0.923836
0.923894
0.923945
0.923992
0.924032
0.924067
0.924096
0.924119
0.924137
0.924148
0.924154
0.924154
0.924148
0.924137
0.924119
0.924096
0.924067
0.924032
0.923992
0.923945
0.923894
0.923836
0.923774
0.923707
0.923636
0.92356
0.923482
0.923401
0.923318
0.923235
0.923153
0.923073
0.922996
0.922924
0.922859
0.922803
0.922758
0.922725
0.922707
0.922706
0.922716
0.93246
0.932452
0.932456
0.932476
0.932511
0.932559
0.932618
0.932685
0.93276
0.93284
0.932924
0.93301
0.933097
0.933183
0.933267
0.933349
0.933427
0.933502
0.933571
0.933636
0.933696
0.93375
0.933798
0.93384
0.933876
0.933907
0.933931
0.933949
0.933961
0.933967
0.933967
0.933961
0.933949
0.933931
0.933907
0.933876
0.93384
0.933798
0.93375
0.933696
0.933636
0.933571
0.933502
0.933427
0.933349
0.933267
0.933183
0.933097
0.93301
0.932924
0.93284
0.93276
0.932685
0.932618
0.932559
0.932511
0.932476
0.932456
0.932452
0.93246
0.94248
0.942475
0.942481
0.942503
0.94254
0.942591
0.942652
0.942723
0.942802
0.942885
0.942972
0.943062
0.943152
0.943242
0.94333
0.943415
0.943497
0.943574
0.943647
0.943714
0.943776
0.943832
0.943882
0.943926
0.943964
0.943996
0.944021
0.94404
0.944052
0.944058
0.944058
0.944052
0.94404
0.944021
0.943996
0.943964
0.943926
0.943882
0.943832
0.943776
0.943714
0.943647
0.943574
0.943497
0.943415
0.94333
0.943242
0.943152
0.943062
0.942972
0.942885
0.942802
0.942723
0.942652
0.942591
0.94254
0.942503
0.942481
0.942475
0.94248
0.952788
0.952785
0.952793
0.952818
0.952857
0.95291
0.952975
0.953049
0.953131
0.953218
0.953309
0.953402
0.953496
0.95359
0.953681
0.95377
0.953855
0.953936
0.954011
0.954081
0.954146
0.954204
0.954256
0.954302
0.954341
0.954374
0.9544
0.95442
0.954433
0.95444
0.95444
0.954433
0.95442
0.9544
0.954374
0.954341
0.954302
0.954256
0.954204
0.954146
0.954081
0.954011
0.953936
0.953855
0.95377
0.953681
0.95359
0.953496
0.953402
0.953309
0.953218
0.953131
0.953049
0.952975
0.95291
0.952857
0.952818
0.952793
0.952785
0.952788
0.963395
0.963393
0.963404
0.96343
0.963472
0.963528
0.963596
0.963673
0.963759
0.96385
0.963945
0.964042
0.96414
0.964237
0.964332
0.964425
0.964513
0.964597
0.964676
0.964749
0.964816
0.964877
0.964931
0.964978
0.965019
0.965053
0.96508
0.965101
0.965114
0.965121
0.965121
0.965114
0.965101
0.96508
0.965053
0.965019
0.964978
0.964931
0.964877
0.964816
0.964749
0.964676
0.964597
0.964513
0.964425
0.964332
0.964237
0.96414
0.964042
0.963945
0.96385
0.963759
0.963673
0.963596
0.963528
0.963472
0.96343
0.963404
0.963393
0.963395
0.97431
0.97431
0.974323
0.974352
0.974397
0.974456
0.974527
0.974607
0.974696
0.974791
0.97489
0.974991
0.975093
0.975195
0.975294
0.97539
0.975482
0.975569
0.975651
0.975727
0.975797
0.97586
0.975916
0.975966
0.976008
0.976044
0.976072
0.976093
0.976107
0.976114
0.976114
0.976107
0.976093
0.976072
0.976044
0.976008
0.975966
0.975916
0.97586
0.975797
0.975727
0.975651
0.975569
0.975482
0.97539
0.975294
0.975195
0.975093
0.974991
0.97489
0.974791
0.974696
0.974607
0.974527
0.974456
0.974397
0.974352
0.974323
0.97431
0.97431
0.985545
0.985548
0.985563
0.985594
0.985641
0.985703
0.985777
0.985862
0.985955
0.986054
0.986157
0.986262
0.986368
0.986474
0.986577
0.986677
0.986773
0.986864
0.986949
0.987028
0.9871
0.987166
0.987224
0.987276
0.98732
0.987357
0.987386
0.987408
0.987423
0.98743
0.98743
0.987423
0.987408
0.987386
0.987357
0.98732
0.987276
0.987224
0.987166
0.9871
0.987028
0.986949
0.986864
0.986773
0.986677
0.986577
0.986474
0.986368
0.986262
0.986157
0.986054
0.985955
0.985862
0.985777
0.985703
0.985641
0.985594
0.985563
0.985548
0.985545
0.997111
0.997115
0.997133
0.997167
0.997217
0.997282
0.997359
0.997448
0.997545
0.997648
0.997755
0.997865
0.997975
0.998085
0.998193
0.998297
0.998396
0.998491
0.998579
0.998662
0.998737
0.998805
0.998866
0.998919
0.998965
0.999003
0.999034
0.999056
0.999072
0.999079
0.999079
0.999072
0.999056
0.999034
0.999003
0.998965
0.998919
0.998866
0.998805
0.998737
0.998662
0.998579
0.998491
0.998396
0.998297
0.998193
0.998085
0.997975
0.997865
0.997755
0.997648
0.997545
0.997448
0.997359
0.997282
0.997217
0.997167
0.997133
0.997115
0.997111
1.00902
1.00903
1.00905
1.00908
1.00913
1.0092
1.00928
1.00938
1.00948
1.00958
1.0097
1.00981
1.00993
1.01004
1.01015
1.01026
1.01036
1.01046
1.01055
1.01064
1.01072
1.01079
1.01085
1.01091
1.01095
1.01099
1.01103
1.01105
1.01107
1.01107
1.01107
1.01107
1.01105
1.01103
1.01099
1.01095
1.01091
1.01085
1.01079
1.01072