/*--------------------------------*- C++ -*----------------------------------*\
| =========                 |                                                 |
| \\      /  F ield         | foam-extend: Open Source CFD                    |
|  \\    /   O peration     | Version:     4.0                                |
|   \\  /    A nd           | Web:         http://www.foam-extend.org         |
|    \\/     M anipulation  |                                                 |
\*---------------------------------------------------------------------------*/
FoamFile
{
    version     2.0;
    format      ascii;
    class       volVectorField;
    location    "22";
    object      U;
}
// * * * * * * * * * * * * * * * * * * * * * * * * * * * * * * * * * * * * * //

dimensions      [0 1 -1 0 0 0 0];

internalField   nonuniform List<vector> 
6960
(
(-4.21696e-27 -1.1274e-25 0)
(-3.27965e-27 -1.58874e-27 0)
(4.02075e-28 -1.50767e-27 0)
(-2.08078e-28 -1.37907e-27 0)
(1.18734e-28 -1.36684e-27 0)
(-6.44219e-29 -1.4059e-27 0)
(4.55001e-29 -1.41076e-27 0)
(-3.62144e-29 -1.43041e-27 0)
(9.00269e-30 -1.54089e-27 0)
(-2.74449e-29 -1.689e-27 0)
(-4.26257e-30 -1.74365e-27 0)
(-1.68329e-29 -1.65319e-27 0)
(-1.00982e-30 -1.50836e-27 0)
(-2.94303e-30 -1.43251e-27 0)
(5.18427e-30 -1.45533e-27 0)
(2.6005e-30 -1.51842e-27 0)
(4.84721e-30 -1.54427e-27 0)
(4.65824e-30 -1.45376e-27 0)
(9.02778e-30 -1.21604e-27 0)
(1.21854e-29 -9.51659e-28 0)
(1.58678e-29 -8.79122e-28 0)
(1.68371e-29 -1.10633e-27 0)
(1.62425e-29 -1.52066e-27 0)
(1.35309e-29 -1.87691e-27 0)
(1.01659e-29 -1.97606e-27 0)
(6.56223e-30 -1.81683e-27 0)
(3.77622e-30 -1.57659e-27 0)
(1.81218e-30 -1.42046e-27 0)
(5.00232e-31 -1.37542e-27 0)
(-9.97506e-31 -1.3623e-27 0)
(-3.39479e-30 -1.32478e-27 0)
(-6.8042e-30 -1.32741e-27 0)
(-1.07967e-29 -1.45861e-27 0)
(-1.53392e-29 -1.66814e-27 0)
(-2.02e-29 -1.80937e-27 0)
(-2.42928e-29 -1.81174e-27 0)
(-2.62216e-29 -1.69387e-27 0)
(-2.5736e-29 -1.48207e-27 0)
(-2.39535e-29 -1.2278e-27 0)
(-2.17113e-29 -1.05318e-27 0)
(-1.92467e-29 -1.08999e-27 0)
(-1.71704e-29 -1.32125e-27 0)
(-1.59558e-29 -1.55175e-27 0)
(-1.4755e-29 -1.61486e-27 0)
(-1.27822e-29 -1.54443e-27 0)
(-1.09226e-29 -1.4852e-27 0)
(-1.10477e-29 -1.51401e-27 0)
(-1.3243e-29 -1.61575e-27 0)
(-1.55929e-29 -1.75008e-27 0)
(-1.66123e-29 -1.8434e-27 0)
(-1.74708e-29 -1.8158e-27 0)
(-1.87291e-29 -1.70598e-27 0)
(-2.04447e-29 -1.6371e-27 0)
(-2.0793e-29 -1.65315e-27 0)
(-1.932e-29 -1.69691e-27 0)
(-1.58933e-29 -1.72824e-27 0)
(-1.15464e-29 -1.73648e-27 0)
(-6.91261e-30 -1.67762e-27 0)
(-5.72183e-30 -1.46929e-27 0)
(1.9763e-30 -1.24869e-27 0)
(-9.00777e-27 -2.34784e-25 0)
(-6.34594e-27 -2.82241e-27 0)
(1.09953e-27 -2.52428e-27 0)
(-6.18071e-28 -2.22671e-27 0)
(3.32817e-28 -2.22275e-27 0)
(-1.98079e-28 -2.30173e-27 0)
(1.2463e-28 -2.32533e-27 0)
(-1.13994e-28 -2.37554e-27 0)
(1.54887e-29 -2.56332e-27 0)
(-8.7518e-29 -2.78446e-27 0)
(-1.14036e-29 -2.846e-27 0)
(-4.01793e-29 -2.6969e-27 0)
(6.67637e-30 -2.49529e-27 0)
(-3.63818e-30 -2.42446e-27 0)
(1.52441e-29 -2.49998e-27 0)
(6.84572e-30 -2.59198e-27 0)
(1.74084e-29 -2.5632e-27 0)
(2.40656e-29 -2.31158e-27 0)
(4.08841e-29 -1.83435e-27 0)
(4.38111e-29 -1.37201e-27 0)
(3.89325e-29 -1.31053e-27 0)
(2.73499e-29 -1.82722e-27 0)
(2.2918e-29 -2.68848e-27 0)
(2.58811e-29 -3.40347e-27 0)
(3.24063e-29 -3.58578e-27 0)
(3.21473e-29 -3.25886e-27 0)
(2.35062e-29 -2.77886e-27 0)
(1.15743e-29 -2.4323e-27 0)
(3.35217e-30 -2.24846e-27 0)
(-1.54861e-30 -2.13347e-27 0)
(-9.93213e-30 -2.05719e-27 0)
(-2.60494e-29 -2.12768e-27 0)
(-4.42177e-29 -2.44819e-27 0)
(-5.70062e-29 -2.91778e-27 0)
(-6.39505e-29 -3.27476e-27 0)
(-6.75648e-29 -3.33305e-27 0)
(-6.65649e-29 -3.06608e-27 0)
(-6.10161e-29 -2.55872e-27 0)
(-5.73864e-29 -1.99819e-27 0)
(-6.07761e-29 -1.64479e-27 0)
(-6.7104e-29 -1.70885e-27 0)
(-6.72664e-29 -2.13624e-27 0)
(-5.7956e-29 -2.57732e-27 0)
(-4.46777e-29 -2.72023e-27 0)
(-3.55872e-29 -2.60104e-27 0)
(-3.4201e-29 -2.48076e-27 0)
(-3.98048e-29 -2.51018e-27 0)
(-4.83646e-29 -2.65244e-27 0)
(-5.31534e-29 -2.83868e-27 0)
(-4.98137e-29 -2.98622e-27 0)
(-4.57301e-29 -2.97405e-27 0)
(-4.84809e-29 -2.81125e-27 0)
(-5.77497e-29 -2.66623e-27 0)
(-6.22345e-29 -2.66621e-27 0)
(-5.84947e-29 -2.78131e-27 0)
(-4.77626e-29 -2.91496e-27 0)
(-3.28788e-29 -2.97026e-27 0)
(-1.33657e-29 -2.86539e-27 0)
(-3.01991e-30 -2.49986e-27 0)
(1.02929e-29 -2.10828e-27 0)
(-1.33654e-26 -2.30004e-25 0)
(-9.10365e-27 -1.69335e-27 0)
(1.69644e-27 -1.1781e-27 0)
(-1.03451e-27 -8.91579e-28 0)
(5.26383e-28 -9.57382e-28 0)
(-3.36188e-28 -1.02723e-27 0)
(1.94581e-28 -1.09475e-27 0)
(-1.92822e-28 -1.13485e-27 0)
(2.20931e-29 -1.14343e-27 0)
(-1.43128e-28 -1.10062e-27 0)
(-1.73564e-29 -1.05496e-27 0)
(-6.48367e-29 -1.06702e-27 0)
(1.05698e-29 -1.16198e-27 0)
(-6.34938e-30 -1.30338e-27 0)
(2.63861e-29 -1.39804e-27 0)
(1.60008e-29 -1.34443e-27 0)
(3.58284e-29 -1.12731e-27 0)
(4.60938e-29 -8.38992e-28 0)
(6.95642e-29 -6.08908e-28 0)
(6.84849e-29 -5.45e-28 0)
(5.47791e-29 -7.13976e-28 0)
(3.25638e-29 -1.10307e-27 0)
(2.68095e-29 -1.57866e-27 0)
(3.79009e-29 -1.93055e-27 0)
(5.58214e-29 -2.01934e-27 0)
(5.96009e-29 -1.87868e-27 0)
(4.66922e-29 -1.62664e-27 0)
(2.76221e-29 -1.31185e-27 0)
(1.30265e-29 -9.6087e-28 0)
(1.71679e-31 -7.01346e-28 0)
(-2.02657e-29 -6.72176e-28 0)
(-5.14496e-29 -8.65924e-28 0)
(-8.34478e-29 -1.18696e-27 0)
(-1.04927e-28 -1.57286e-27 0)
(-1.13439e-28 -1.92883e-27 0)
(-1.11948e-28 -2.06526e-27 0)
(-1.02532e-28 -1.86214e-27 0)
(-9.13039e-29 -1.44451e-27 0)
(-8.9501e-29 -1.07278e-27 0)
(-1.00987e-28 -8.98577e-28 0)
(-1.15322e-28 -9.12176e-28 0)
(-1.16791e-28 -1.04422e-27 0)
(-1.00374e-28 -1.2107e-27 0)
(-7.62004e-29 -1.31285e-27 0)
(-5.98246e-29 -1.30193e-27 0)
(-5.78779e-29 -1.22799e-27 0)
(-6.71917e-29 -1.15288e-27 0)
(-7.98371e-29 -1.06812e-27 0)
(-8.68798e-29 -9.83437e-28 0)
(-8.245e-29 -9.79487e-28 0)
(-7.60622e-29 -1.06147e-27 0)
(-7.87051e-29 -1.1036e-27 0)
(-9.30509e-29 -1.0365e-27 0)
(-1.03092e-28 -9.78782e-28 0)
(-1.00364e-28 -1.06422e-27 0)
(-8.23485e-29 -1.22558e-27 0)
(-5.52563e-29 -1.29754e-27 0)
(-2.21035e-29 -1.27511e-27 0)
(-2.95831e-30 -1.21262e-27 0)
(1.45884e-29 -1.14164e-27 0)
(-1.78233e-26 -2.14983e-25 0)
(-1.20894e-26 -5.38528e-28 0)
(2.18664e-27 2.3447e-29 0)
(-1.46032e-27 3.37989e-28 0)
(7.00109e-28 2.60384e-28 0)
(-4.78255e-28 2.15946e-28 0)
(2.55946e-28 8.21786e-29 0)
(-2.6738e-28 7.83345e-29 0)
(3.71181e-29 2.66979e-28 0)
(-1.89435e-28 5.15338e-28 0)
(-2.4694e-29 5.75837e-28 0)
(-9.78773e-29 3.83678e-28 0)
(5.23099e-30 7.51466e-29 0)
(-1.12654e-29 -1.40842e-28 0)
(4.22903e-29 -1.30224e-28 0)
(3.29127e-29 1.0852e-28 0)
(5.68747e-29 4.20654e-28 0)
(5.88569e-29 5.55459e-28 0)
(7.86786e-29 3.56236e-28 0)
(7.63899e-29 -5.76557e-29 0)
(7.03927e-29 -3.81062e-28 0)
(5.5964e-29 -3.98843e-28 0)
(5.50148e-29 -1.60038e-28 0)
(6.38403e-29 7.27853e-29 0)
(7.57902e-29 5.91709e-29 0)
(7.45302e-29 -1.5242e-28 0)
(6.18372e-29 -2.60511e-28 0)
(4.49542e-29 -6.72615e-29 0)
(2.71177e-29 3.02965e-28 0)
(1.65949e-30 5.54606e-28 0)
(-3.50986e-29 5.29821e-28 0)
(-7.85376e-29 3.359e-28 0)
(-1.18494e-28 1.49025e-28 0)
(-1.47774e-28 4.17405e-30 0)
(-1.62336e-28 -1.33227e-28 0)
(-1.60867e-28 -2.21645e-28 0)
(-1.47741e-28 -2.2812e-28 0)
(-1.35411e-28 -2.33736e-28 0)
(-1.35656e-28 -3.08791e-28 0)
(-1.46387e-28 -3.71221e-28 0)
(-1.54879e-28 -2.71347e-28 0)
(-1.50939e-28 -1.92094e-29 0)
(-1.33783e-28 1.76724e-28 0)
(-1.09659e-28 1.63209e-28 0)
(-8.96118e-29 3.93571e-29 0)
(-8.19309e-29 2.17476e-29 0)
(-8.7792e-29 1.98603e-28 0)
(-1.00595e-28 4.97548e-28 0)
(-1.11525e-28 7.85473e-28 0)
(-1.13677e-28 9.09224e-28 0)
(-1.13051e-28 7.94443e-28 0)
(-1.1624e-28 5.76943e-28 0)
(-1.29804e-28 4.71963e-28 0)
(-1.40967e-28 5.18066e-28 0)
(-1.39364e-28 5.85891e-28 0)
(-1.15859e-28 6.03722e-28 0)
(-8.0253e-29 5.77788e-28 0)
(-4.15834e-29 4.48578e-28 0)
(-1.86727e-29 1.7542e-28 0)
(8.73706e-30 -1.02364e-28 0)
(-2.21387e-26 -2.12528e-25 0)
(-1.50658e-26 -1.33442e-27 0)
(2.56735e-27 -8.45317e-28 0)
(-1.89106e-27 -3.26482e-28 0)
(8.5609e-28 -3.65917e-28 0)
(-6.23247e-28 -3.55154e-28 0)
(3.09776e-28 -4.78871e-28 0)
(-3.39797e-28 -4.47045e-28 0)
(5.24153e-29 -2.94588e-28 0)
(-2.35141e-28 -1.6744e-28 0)
(-3.43519e-29 -2.22375e-28 0)
(-1.30862e-28 -3.98987e-28 0)
(2.06502e-30 -5.60261e-28 0)
(-1.09996e-29 -5.73084e-28 0)
(6.33506e-29 -3.98497e-28 0)
(5.18065e-29 -1.28629e-28 0)
(7.3505e-29 3.75445e-29 0)
(6.1545e-29 -6.51686e-29 0)
(7.63554e-29 -4.31524e-28 0)
(7.83587e-29 -8.43815e-28 0)
(9.08185e-29 -1.01295e-27 0)
(9.42529e-29 -7.97357e-28 0)
(9.93962e-29 -3.43839e-28 0)
(9.65062e-29 -1.51536e-29 0)
(9.09616e-29 -7.00328e-29 0)
(8.15006e-29 -3.62537e-28 0)
(7.31082e-29 -5.15094e-28 0)
(6.08088e-29 -3.94514e-28 0)
(3.83139e-29 -1.94234e-28 0)
(3.62231e-31 -9.72278e-29 0)
(-4.97456e-29 -1.03179e-28 0)
(-1.03142e-28 -1.51039e-28 0)
(-1.49702e-28 -2.06285e-28 0)
(-1.84872e-28 -2.21462e-28 0)
(-2.06479e-28 -1.77411e-28 0)
(-2.12782e-28 -1.72642e-28 0)
(-2.05844e-28 -3.51161e-28 0)
(-1.95337e-28 -6.978e-28 0)
(-1.91496e-28 -9.98103e-28 0)
(-1.92445e-28 -1.05838e-27 0)
(-1.88996e-28 -8.75328e-28 0)
(-1.78071e-28 -5.8881e-28 0)
(-1.62926e-28 -3.67835e-28 0)
(-1.43881e-28 -3.19191e-28 0)
(-1.22681e-28 -3.96012e-28 0)
(-1.06963e-28 -4.1737e-28 0)
(-1.06372e-28 -2.72733e-28 0)
(-1.19579e-28 -4.33852e-29 0)
(-1.35719e-28 1.43083e-28 0)
(-1.44512e-28 2.39411e-28 0)
(-1.50936e-28 2.1765e-28 0)
(-1.58154e-28 5.46706e-29 0)
(-1.71222e-28 -1.58842e-28 0)
(-1.77479e-28 -2.20816e-28 0)
(-1.71253e-28 -4.85762e-29 0)
(-1.44442e-28 1.78324e-28 0)
(-1.07565e-28 2.05055e-28 0)
(-6.6979e-29 1.84855e-30 0)
(-3.97192e-29 -2.26709e-28 0)
(-1.21537e-30 -4.45422e-28 0)
(-2.62095e-26 -2.13466e-25 0)
(-1.79314e-26 -2.87118e-27 0)
(2.83955e-27 -2.27927e-27 0)
(-2.3256e-27 -1.51042e-27 0)
(9.94765e-28 -1.61435e-27 0)
(-7.67448e-28 -1.52674e-27 0)
(3.58687e-28 -1.55176e-27 0)
(-4.14236e-28 -1.4967e-27 0)
(5.87856e-29 -1.51375e-27 0)
(-2.86018e-28 -1.59372e-27 0)
(-4.3522e-29 -1.71284e-27 0)
(-1.5469e-28 -1.73301e-27 0)
(9.91065e-30 -1.61395e-27 0)
(-2.46527e-30 -1.37892e-27 0)
(8.5337e-29 -1.13033e-27 0)
(6.43961e-29 -1.01044e-27 0)
(8.07606e-29 -1.12595e-27 0)
(5.98155e-29 -1.41385e-27 0)
(7.86684e-29 -1.66799e-27 0)
(9.03208e-29 -1.70148e-27 0)
(1.18242e-28 -1.50737e-27 0)
(1.31568e-28 -1.23972e-27 0)
(1.37031e-28 -1.06646e-27 0)
(1.23937e-28 -1.04525e-27 0)
(1.07656e-28 -1.11007e-27 0)
(9.42602e-29 -1.15269e-27 0)
(8.68305e-29 -1.14047e-27 0)
(7.19867e-29 -1.13984e-27 0)
(4.21942e-29 -1.1991e-27 0)
(-3.59167e-30 -1.25963e-27 0)
(-6.11838e-29 -1.23945e-27 0)
(-1.23777e-28 -1.15261e-27 0)
(-1.7925e-28 -1.06619e-27 0)
(-2.20701e-28 -9.86962e-28 0)
(-2.49348e-28 -9.04574e-28 0)
(-2.6704e-28 -9.10577e-28 0)
(-2.70601e-28 -1.12785e-27 0)
(-2.60627e-28 -1.49718e-27 0)
(-2.47117e-28 -1.77129e-27 0)
(-2.36719e-28 -1.80365e-27 0)
(-2.26267e-28 -1.71133e-27 0)
(-2.1183e-28 -1.65136e-27 0)
(-1.94734e-28 -1.59874e-27 0)
(-1.74704e-28 -1.47058e-27 0)
(-1.52112e-28 -1.31218e-27 0)
(-1.33596e-28 -1.229e-27 0)
(-1.31749e-28 -1.24337e-27 0)
(-1.47084e-28 -1.29781e-27 0)
(-1.65576e-28 -1.31825e-27 0)
(-1.74828e-28 -1.25892e-27 0)
(-1.84608e-28 -1.16988e-27 0)
(-1.99021e-28 -1.18998e-27 0)
(-2.16322e-28 -1.35654e-27 0)
(-2.16403e-28 -1.48274e-27 0)
(-2.0104e-28 -1.3882e-27 0)
(-1.70906e-28 -1.18071e-27 0)
(-1.35168e-28 -1.10976e-27 0)
(-8.86301e-29 -1.17314e-27 0)
(-5.17309e-29 -1.11109e-27 0)
(-7.33591e-30 -1.07066e-27 0)
(-3.00375e-26 -2.13189e-25 0)
(-2.06825e-26 -3.7446e-27 0)
(3.007e-27 -2.7404e-27 0)
(-2.76918e-27 -1.7485e-27 0)
(1.11239e-27 -2.06031e-27 0)
(-9.1005e-28 -1.95989e-27 0)
(4.03374e-28 -1.93134e-27 0)
(-4.90752e-28 -1.84817e-27 0)
(5.82875e-29 -1.91922e-27 0)
(-3.37509e-28 -2.01027e-27 0)
(-4.88734e-29 -2.06489e-27 0)
(-1.69613e-28 -1.95813e-27 0)
(2.56139e-29 -1.71107e-27 0)
(9.36854e-30 -1.42332e-27 0)
(1.02654e-28 -1.27304e-27 0)
(6.72117e-29 -1.36879e-27 0)
(7.96632e-29 -1.66947e-27 0)
(5.86353e-29 -1.95394e-27 0)
(9.20657e-29 -1.96469e-27 0)
(1.17269e-28 -1.62127e-27 0)
(1.52742e-28 -1.16091e-27 0)
(1.61942e-28 -9.49768e-28 0)
(1.61075e-28 -1.09721e-27 0)
(1.45786e-28 -1.32731e-27 0)
(1.31643e-28 -1.32289e-27 0)
(1.16479e-28 -1.1178e-27 0)
(1.00663e-28 -1.00747e-27 0)
(7.54545e-29 -1.13151e-27 0)
(3.8971e-29 -1.35411e-27 0)
(-1.0451e-29 -1.51116e-27 0)
(-7.20558e-29 -1.54559e-27 0)
(-1.40812e-28 -1.43818e-27 0)
(-2.04329e-28 -1.22186e-27 0)
(-2.55508e-28 -1.03444e-27 0)
(-2.95078e-28 -9.93251e-28 0)
(-3.23219e-28 -1.067e-27 0)
(-3.3343e-28 -1.17323e-27 0)
(-3.23184e-28 -1.3064e-27 0)
(-3.03683e-28 -1.48061e-27 0)
(-2.8698e-28 -1.66603e-27 0)
(-2.72854e-28 -1.84763e-27 0)
(-2.53884e-28 -2.00764e-27 0)
(-2.28099e-28 -2.03656e-27 0)
(-1.9907e-28 -1.8252e-27 0)
(-1.74518e-28 -1.48232e-27 0)
(-1.61851e-28 -1.30557e-27 0)
(-1.67026e-28 -1.44089e-27 0)
(-1.84065e-28 -1.69856e-27 0)
(-1.99034e-28 -1.81411e-27 0)
(-2.0444e-28 -1.75094e-27 0)
(-2.15691e-28 -1.64032e-27 0)
(-2.36392e-28 -1.57925e-27 0)
(-2.59804e-28 -1.59344e-27 0)
(-2.58957e-28 -1.68213e-27 0)
(-2.37581e-28 -1.79094e-27 0)
(-2.00146e-28 -1.8046e-27 0)
(-1.57717e-28 -1.65643e-27 0)
(-1.00439e-28 -1.40013e-27 0)
(-5.44414e-29 -1.10739e-27 0)
(-9.71061e-30 -9.6865e-28 0)
(-3.36229e-26 -2.12144e-25 0)
(-2.33144e-26 -4.15465e-27 0)
(3.07405e-27 -2.59821e-27 0)
(-3.22478e-27 -1.29087e-27 0)
(1.20454e-27 -1.80602e-27 0)
(-1.05534e-27 -1.79117e-27 0)
(4.42082e-28 -1.84491e-27 0)
(-5.64877e-28 -1.69542e-27 0)
(5.9461e-29 -1.60459e-27 0)
(-3.83286e-28 -1.49875e-27 0)
(-5.0683e-29 -1.44895e-27 0)
(-1.81985e-28 -1.35333e-27 0)
(3.99295e-29 -1.22604e-27 0)
(1.61452e-29 -1.13601e-27 0)
(1.11805e-28 -1.20485e-27 0)
(6.39559e-29 -1.41867e-27 0)
(7.86649e-29 -1.63741e-27 0)
(6.45135e-29 -1.66553e-27 0)
(1.15673e-28 -1.39837e-27 0)
(1.51938e-28 -9.17986e-28 0)
(1.87638e-28 -5.16822e-28 0)
(1.85935e-28 -4.66215e-28 0)
(1.78369e-28 -7.22479e-28 0)
(1.66735e-28 -9.59517e-28 0)
(1.59674e-28 -9.4322e-28 0)
(1.41782e-28 -7.67356e-28 0)
(1.13722e-28 -6.66925e-28 0)
(7.63698e-29 -7.26543e-28 0)
(3.29657e-29 -8.80613e-28 0)
(-2.1001e-29 -1.05843e-27 0)
(-8.61018e-29 -1.18127e-27 0)
(-1.57376e-28 -1.14423e-27 0)
(-2.26729e-28 -9.59814e-28 0)
(-2.90572e-28 -8.12812e-28 0)
(-3.43709e-28 -8.23107e-28 0)
(-3.77999e-28 -8.62e-28 0)
(-3.88185e-28 -7.63599e-28 0)
(-3.79152e-28 -6.20241e-28 0)
(-3.63739e-28 -6.77707e-28 0)
(-3.48549e-28 -9.98056e-28 0)
(-3.294e-28 -1.39928e-27 0)
(-2.99875e-28 -1.66967e-27 0)
(-2.61211e-28 -1.71405e-27 0)
(-2.2161e-28 -1.54746e-27 0)
(-1.95312e-28 -1.29046e-27 0)
(-1.90854e-28 -1.14754e-27 0)
(-2.05358e-28 -1.22347e-27 0)
(-2.23415e-28 -1.38187e-27 0)
(-2.33252e-28 -1.43525e-27 0)
(-2.35262e-28 -1.38624e-27 0)
(-2.47534e-28 -1.3278e-27 0)
(-2.70896e-28 -1.26192e-27 0)
(-2.99721e-28 -1.19854e-27 0)
(-3.04981e-28 -1.27156e-27 0)
(-2.83519e-28 -1.5187e-27 0)
(-2.32782e-28 -1.67093e-27 0)
(-1.72294e-28 -1.44799e-27 0)
(-1.03473e-28 -9.88215e-28 0)
(-5.54662e-29 -6.59359e-28 0)
(-1.22052e-29 -5.57688e-28 0)
(-3.69603e-26 -2.1096e-25 0)
(-2.58207e-26 -4.65838e-27 0)
(3.04413e-27 -2.61124e-27 0)
(-3.68822e-27 -7.87828e-28 0)
(1.27105e-27 -1.3533e-27 0)
(-1.20758e-27 -1.42053e-27 0)
(4.73058e-28 -1.6291e-27 0)
(-6.31875e-28 -1.39924e-27 0)
(6.88513e-29 -1.06325e-27 0)
(-4.21074e-28 -7.07922e-28 0)
(-5.27077e-29 -5.96383e-28 0)
(-2.00035e-28 -6.49939e-28 0)
(4.33013e-29 -8.36634e-28 0)
(1.19327e-29 -1.08268e-27 0)
(1.14704e-28 -1.33051e-27 0)
(6.37779e-29 -1.4466e-27 0)
(8.8388e-29 -1.3413e-27 0)
(8.21942e-29 -1.01441e-27 0)
(1.44013e-28 -5.94652e-28 0)
(1.81861e-28 -2.63358e-28 0)
(2.14045e-28 -1.61036e-28 0)
(2.0621e-28 -2.64561e-28 0)
(1.97737e-28 -4.22645e-28 0)
(1.88327e-28 -5.40311e-28 0)
(1.82719e-28 -6.41281e-28 0)
(1.62486e-28 -7.14845e-28 0)
(1.29465e-28 -6.69961e-28 0)
(8.42444e-29 -5.18549e-28 0)
(3.04842e-29 -4.32004e-28 0)
(-3.31292e-29 -5.07216e-28 0)
(-1.03914e-28 -6.41371e-28 0)
(-1.79084e-28 -7.25486e-28 0)
(-2.55481e-28 -7.88408e-28 0)
(-3.30009e-28 -8.69635e-28 0)
(-3.91425e-28 -8.94799e-28 0)
(-4.26905e-28 -7.5949e-28 0)
(-4.3525e-28 -4.79338e-28 0)
(-4.29516e-28 -2.19493e-28 0)
(-4.23173e-28 -1.65287e-28 0)
(-4.13806e-28 -3.60395e-28 0)
(-3.90038e-28 -6.834e-28 0)
(-3.48514e-28 -9.64054e-28 0)
(-2.98566e-28 -1.1242e-27 0)
(-2.52278e-28 -1.20349e-27 0)
(-2.23536e-28 -1.24601e-27 0)
(-2.19648e-28 -1.22601e-27 0)
(-2.36255e-28 -1.11273e-27 0)
(-2.55791e-28 -9.49012e-28 0)
(-2.66227e-28 -8.21929e-28 0)
(-2.68745e-28 -7.71381e-28 0)
(-2.81992e-28 -7.65041e-28 0)
(-3.07004e-28 -7.73778e-28 0)
(-3.41297e-28 -8.28596e-28 0)
(-3.53128e-28 -9.68716e-28 0)
(-3.30924e-28 -1.1346e-27 0)
(-2.65017e-28 -1.16285e-27 0)
(-1.85393e-28 -9.63249e-28 0)
(-1.07105e-28 -6.6464e-28 0)
(-5.8506e-29 -4.62169e-28 0)
(-1.45043e-29 -3.17374e-28 0)
(-4.00492e-26 -2.09595e-25 0)
(-2.82023e-26 -5.3552e-27 0)
(2.91963e-27 -2.91535e-27 0)
(-4.15266e-27 -4.49533e-28 0)
(1.31661e-27 -9.19657e-28 0)
(-1.36557e-27 -9.11211e-28 0)
(4.95551e-28 -1.19692e-27 0)
(-6.92898e-28 -9.43145e-28 0)
(8.50158e-29 -5.21873e-28 0)
(-4.52925e-28 -5.83255e-29 0)
(-5.85944e-29 3.93449e-29 0)
(-2.29135e-28 -2.00191e-28 0)
(3.14687e-29 -6.9936e-28 0)
(-2.13198e-30 -1.18778e-27 0)
(1.1854e-28 -1.42785e-27 0)
(7.49958e-29 -1.27562e-27 0)
(1.11859e-28 -8.36495e-28 0)
(1.06882e-28 -3.47923e-28 0)
(1.67688e-28 -4.70632e-29 0)
(1.99786e-28 -6.56803e-30 0)
(2.317e-28 -1.24907e-28 0)
(2.27571e-28 -2.21949e-28 0)
(2.22379e-28 -2.38615e-28 0)
(2.08545e-28 -3.1081e-28 0)
(1.96369e-28 -5.57216e-28 0)
(1.75922e-28 -8.31956e-28 0)
(1.4788e-28 -8.61791e-28 0)
(1.01387e-28 -6.05189e-28 0)
(3.63576e-29 -2.96963e-28 0)
(-4.14073e-29 -1.47823e-28 0)
(-1.24034e-28 -1.93073e-28 0)
(-2.10428e-28 -4.13296e-28 0)
(-2.96666e-28 -7.63686e-28 0)
(-3.75211e-28 -1.06184e-27 0)
(-4.35035e-28 -1.077e-27 0)
(-4.6924e-28 -7.98337e-28 0)
(-4.80037e-28 -4.53513e-28 0)
(-4.78638e-28 -2.20204e-28 0)
(-4.7627e-28 -6.90743e-29 0)
(-4.69673e-28 5.25319e-29 0)
(-4.46121e-28 5.26387e-29 0)
(-4.01554e-28 -1.66076e-28 0)
(-3.47495e-28 -5.50164e-28 0)
(-2.97185e-28 -9.63124e-28 0)
(-2.61813e-28 -1.26518e-27 0)
(-2.47681e-28 -1.31672e-27 0)
(-2.56751e-28 -1.06827e-27 0)
(-2.77422e-28 -6.65797e-28 0)
(-2.94737e-28 -3.39873e-28 0)
(-3.02862e-28 -1.9105e-28 0)
(-3.20251e-28 -1.92661e-28 0)
(-3.50415e-28 -3.3544e-28 0)
(-3.89421e-28 -5.81792e-28 0)
(-3.99394e-28 -7.5465e-28 0)
(-3.69578e-28 -6.98632e-28 0)
(-2.94308e-28 -5.16978e-28 0)
(-2.07403e-28 -4.49323e-28 0)
(-1.21301e-28 -5.09214e-28 0)
(-6.26561e-29 -4.79246e-28 0)
(-1.37011e-29 -2.73732e-28 0)
(-4.28907e-26 -2.0803e-25 0)
(-3.04599e-26 -6.12457e-27 0)
(2.701e-27 -3.30594e-27 0)
(-4.61631e-27 -2.45116e-28 0)
(1.34706e-27 -6.05451e-28 0)
(-1.52208e-27 -3.23218e-28 0)
(5.10637e-28 -5.21328e-28 0)
(-7.55287e-28 -3.09812e-28 0)
(9.77534e-29 -7.65619e-29 0)
(-4.85486e-28 2.2709e-28 0)
(-6.9979e-29 2.01132e-28 0)
(-2.66752e-28 -1.32713e-28 0)
(1.08501e-29 -6.85213e-28 0)
(-1.73166e-29 -1.10132e-27 0)
(1.29918e-28 -1.13841e-27 0)
(9.71392e-29 -7.66366e-28 0)
(1.40138e-28 -2.7228e-28 0)
(1.26145e-28 2.47625e-29 0)
(1.80042e-28 1.29797e-29 0)
(2.09831e-28 -1.2823e-28 0)
(2.4939e-28 -1.86253e-28 0)
(2.52742e-28 -1.36066e-28 0)
(2.47792e-28 -1.25853e-28 0)
(2.2515e-28 -2.78912e-28 0)
(2.05135e-28 -5.66555e-28 0)
(1.85194e-28 -8.4033e-28 0)
(1.63937e-28 -9.43697e-28 0)
(1.21009e-28 -7.90161e-28 0)
(5.02531e-29 -4.35757e-28 0)
(-4.24097e-29 -1.0531e-28 0)
(-1.448e-28 -4.67019e-29 0)
(-2.49562e-28 -3.14716e-28 0)
(-3.45824e-28 -7.36724e-28 0)
(-4.23503e-28 -1.05852e-27 0)
(-4.7754e-28 -1.10636e-27 0)
(-5.10623e-28 -8.97201e-28 0)
(-5.26299e-28 -6.11616e-28 0)
(-5.27494e-28 -3.76286e-28 0)
(-5.21359e-28 -1.16207e-28 0)
(-5.11996e-28 2.37774e-28 0)
(-4.9391e-28 4.89791e-28 0)
(-4.58899e-28 3.57427e-28 0)
(-4.08984e-28 -1.52355e-28 0)
(-3.53024e-28 -7.2794e-28 0)
(-3.04635e-28 -1.07005e-27 0)
(-2.75595e-28 -1.10288e-27 0)
(-2.74564e-28 -9.00746e-28 0)
(-2.9392e-28 -5.50742e-28 0)
(-3.17143e-28 -1.56202e-28 0)
(-3.34152e-28 1.27549e-28 0)
(-3.61887e-28 1.6981e-28 0)
(-4.0067e-28 -2.28195e-29 0)
(-4.40547e-28 -2.7383e-28 0)
(-4.4063e-28 -3.53397e-28 0)
(-4.00541e-28 -2.06635e-28 0)
(-3.23874e-28 -4.38924e-29 0)
(-2.39758e-28 -1.04892e-28 0)
(-1.45694e-28 -3.14917e-28 0)
(-7.01339e-29 -3.95822e-28 0)
(-1.25365e-29 -3.8342e-28 0)
(-4.54823e-26 -2.06387e-25 0)
(-3.25878e-26 -6.91764e-27 0)
(2.38809e-27 -3.64092e-27 0)
(-5.08382e-27 -8.01367e-29 0)
(1.3641e-27 -4.34507e-28 0)
(-1.67044e-27 1.64278e-28 0)
(5.20665e-28 1.32264e-28 0)
(-8.25661e-28 3.03821e-28 0)
(9.51766e-29 2.13641e-28 0)
(-5.28001e-28 1.56252e-28 0)
(-8.71162e-29 -9.37629e-29 0)
(-3.02756e-28 -3.73487e-28 0)
(-3.12571e-30 -6.21516e-28 0)
(-2.23498e-29 -6.317e-28 0)
(1.48568e-28 -4.05022e-28 0)
(1.18559e-28 -7.38997e-29 0)
(1.5772e-28 8.69384e-29 0)
(1.3072e-28 -3.97643e-29 0)
(1.83802e-28 -2.98864e-28 0)
(2.22603e-28 -3.77403e-28 0)
(2.74548e-28 -2.05355e-28 0)
(2.79882e-28 -2.97945e-29 0)
(2.68857e-28 -8.14106e-29 0)
(2.39161e-28 -3.02727e-28 0)
(2.15969e-28 -5.17241e-28 0)
(1.94587e-28 -6.78748e-28 0)
(1.74201e-28 -8.10906e-28 0)
(1.34914e-28 -8.26204e-28 0)
(6.43122e-29 -6.38417e-28 0)
(-4.02849e-29 -3.82577e-28 0)
(-1.6375e-28 -2.92848e-28 0)
(-2.86673e-28 -4.10135e-28 0)
(-3.91707e-28 -6.01199e-28 0)
(-4.71759e-28 -7.78289e-28 0)
(-5.25785e-28 -9.14471e-28 0)
(-5.58313e-28 -9.30029e-28 0)
(-5.73608e-28 -7.53785e-28 0)
(-5.72937e-28 -4.42745e-28 0)
(-5.62163e-28 -9.95526e-29 0)
(-5.50212e-28 2.21674e-28 0)
(-5.38478e-28 4.20557e-28 0)
(-5.15902e-28 3.44149e-28 0)
(-4.72024e-28 9.62689e-31 0)
(-4.08432e-28 -3.64774e-28 0)
(-3.4581e-28 -5.39245e-28 0)
(-3.06488e-28 -5.65963e-28 0)
(-3.00437e-28 -5.70273e-28 0)
(-3.15963e-28 -5.00079e-28 0)
(-3.38449e-28 -2.61202e-28 0)
(-3.62366e-28 2.66069e-29 0)
(-4.01878e-28 1.67893e-28 0)
(-4.47515e-28 1.73793e-28 0)
(-4.8572e-28 1.88967e-28 0)
(-4.79793e-28 2.29389e-28 0)
(-4.3651e-28 1.93456e-28 0)
(-3.59281e-28 8.08047e-29 0)
(-2.7298e-28 -9.58876e-30 0)
(-1.70537e-28 -4.9332e-29 0)
(-8.69253e-29 -1.47759e-28 0)
(-1.86251e-29 -5.23679e-28 0)
(-4.78196e-26 -2.04677e-25 0)
(-3.45769e-26 -7.80483e-27 0)
(1.9841e-27 -3.97487e-27 0)
(-5.56019e-27 1.16355e-28 0)
(1.36279e-27 -3.51731e-28 0)
(-1.81265e-27 3.86906e-28 0)
(5.26133e-28 4.08821e-28 0)
(-9.03804e-28 5.94011e-28 0)
(7.40853e-29 3.03893e-28 0)
(-5.8498e-28 -4.1406e-29 0)
(-1.08898e-28 -4.77305e-28 0)
(-3.27133e-28 -6.0162e-28 0)
(2.50867e-30 -3.95276e-28 0)
(-1.1765e-29 6.64961e-29 0)
(1.67235e-28 4.36608e-28 0)
(1.2459e-28 4.77656e-28 0)
(1.54379e-28 1.3011e-28 0)
(1.22344e-28 -3.53725e-28 0)
(1.88261e-28 -6.29943e-28 0)
(2.44086e-28 -5.16487e-28 0)
(3.05705e-28 -2.00305e-28 0)
(3.0627e-28 -1.13124e-29 0)
(2.87419e-28 -6.56788e-29 0)
(2.5445e-28 -2.16918e-28 0)
(2.30766e-28 -3.30842e-28 0)
(2.05773e-28 -4.13303e-28 0)
(1.80827e-28 -5.08715e-28 0)
(1.39616e-28 -6.14689e-28 0)
(6.71892e-29 -7.12174e-28 0)
(-4.41413e-29 -7.70582e-28 0)
(-1.77981e-28 -7.27295e-28 0)
(-3.1096e-28 -5.63589e-28 0)
(-4.26271e-28 -3.98733e-28 0)
(-5.18468e-28 -4.0197e-28 0)
(-5.81496e-28 -5.83514e-28 0)
(-6.1338e-28 -7.31546e-28 0)
(-6.21284e-28 -6.30199e-28 0)
(-6.15799e-28 -3.23709e-28 0)
(-6.06226e-28 -5.44083e-29 0)
(-5.97486e-28 2.75472e-29 0)
(-5.87971e-28 -2.45174e-29 0)
(-5.66328e-28 -7.1964e-29 0)
(-5.2046e-28 -2.61065e-29 0)
(-4.51147e-28 9.35622e-29 0)
(-3.83771e-28 1.70137e-28 0)
(-3.44696e-28 7.99893e-29 0)
(-3.3987e-28 -1.70941e-28 0)
(-3.51582e-28 -4.14299e-28 0)
(-3.68139e-28 -4.80619e-28 0)
(-3.90544e-28 -3.46168e-28 0)
(-4.32393e-28 -6.59416e-29 0)
(-4.79573e-28 3.02897e-28 0)
(-5.21444e-28 6.19254e-28 0)
(-5.23788e-28 6.56674e-28 0)
(-4.86268e-28 3.5829e-28 0)
(-4.01408e-28 1.39876e-29 0)
(-2.99678e-28 -5.19609e-29 0)
(-1.89146e-28 8.9233e-29 0)
(-1.11863e-28 4.19722e-29 0)
(-3.21665e-29 -4.34188e-28 0)
(-4.9904e-26 -2.02743e-25 0)
(-3.64235e-26 -8.83225e-27 0)
(1.49571e-27 -4.43746e-27 0)
(-6.04589e-27 2.99993e-28 0)
(1.33467e-27 -3.47326e-28 0)
(-1.95923e-27 2.97669e-28 0)
(5.23536e-28 1.66083e-28 0)
(-9.83721e-28 3.96299e-28 0)
(4.43169e-29 1.76426e-28 0)
(-6.48745e-28 -9.76451e-29 0)
(-1.31302e-28 -4.7235e-28 0)
(-3.39072e-28 -4.33668e-28 0)
(2.48793e-29 -3.05788e-30 0)
(7.70254e-30 6.0138e-28 0)
(1.77922e-28 8.81342e-28 0)
(1.1141e-28 6.33686e-28 0)
(1.34645e-28 9.27261e-30 0)
(1.10813e-28 -5.34082e-28 0)
(1.98883e-28 -6.89832e-28 0)
(2.70244e-28 -4.92407e-28 0)
(3.36206e-28 -2.23049e-28 0)
(3.32364e-28 -6.65582e-29 0)
(3.09716e-28 -1.28703e-29 0)
(2.73979e-28 -6.59197e-30 0)
(2.47394e-28 -4.48954e-29 0)
(2.1831e-28 -9.67582e-29 0)
(1.87177e-28 -1.43904e-28 0)
(1.36089e-28 -2.83794e-28 0)
(5.44604e-29 -5.98167e-28 0)
(-5.84834e-29 -9.20191e-28 0)
(-1.87907e-28 -9.46858e-28 0)
(-3.21783e-28 -6.29408e-28 0)
(-4.50325e-28 -2.68524e-28 0)
(-5.61752e-28 -1.43576e-28 0)
(-6.3736e-28 -2.15011e-28 0)
(-6.69625e-28 -2.62733e-28 0)
(-6.71937e-28 -1.85416e-28 0)
(-6.65116e-28 -8.26155e-29 0)
(-6.61264e-28 -9.95532e-29 0)
(-6.57669e-28 -2.68814e-28 0)
(-6.43485e-28 -4.60104e-28 0)
(-6.07573e-28 -4.36245e-28 0)
(-5.48598e-28 -7.53536e-29 0)
(-4.77557e-28 4.23461e-28 0)
(-4.1932e-28 6.92602e-28 0)
(-3.91097e-28 5.63802e-28 0)
(-3.91541e-28 1.65996e-28 0)
(-4.01395e-28 -2.74874e-28 0)
(-4.10016e-28 -5.72112e-28 0)
(-4.20325e-28 -5.67053e-28 0)
(-4.51936e-28 -1.98876e-28 0)
(-4.98966e-28 3.38161e-28 0)
(-5.54343e-28 6.77126e-28 0)
(-5.74215e-28 6.15368e-28 0)
(-5.42883e-28 2.86483e-28 0)
(-4.45539e-28 -1.1095e-29 0)
(-3.24509e-28 -1.01759e-28 0)
(-2.04856e-28 -3.31063e-29 0)
(-1.31452e-28 7.96908e-30 0)
(-4.09471e-29 -2.46906e-29 0)
(-5.17415e-26 -2.00504e-25 0)
(-3.81315e-26 -9.91502e-27 0)
(9.27301e-28 -5.04624e-27 0)
(-6.54021e-27 3.37896e-28 0)
(1.27382e-27 -5.2069e-28 0)
(-2.11971e-27 -3.97191e-29 0)
(5.07974e-28 -4.19587e-28 0)
(-1.05941e-27 -1.46382e-28 0)
(2.21793e-29 -9.14881e-29 0)
(-7.01602e-28 9.59858e-29 0)
(-1.47492e-28 9.31003e-29 0)
(-3.48438e-28 2.36016e-28 0)
(4.35894e-29 4.472e-28 0)
(1.89927e-29 6.78513e-28 0)
(1.78306e-28 6.64788e-28 0)
(9.19675e-29 3.78329e-28 0)
(1.15871e-28 -5.19275e-29 0)
(1.04593e-28 -3.61271e-28 0)
(2.11427e-28 -4.52548e-28 0)
(2.92339e-28 -3.77474e-28 0)
(3.62539e-28 -2.42037e-28 0)
(3.60444e-28 -7.76682e-29 0)
(3.38012e-28 9.283e-29 0)
(2.97552e-28 2.0831e-28 0)
(2.64953e-28 2.31895e-28 0)
(2.3101e-28 2.06561e-28 0)
(1.92386e-28 1.4167e-28 0)
(1.27893e-28 -3.35401e-29 0)
(3.47133e-29 -3.3446e-28 0)
(-7.82383e-29 -6.19686e-28 0)
(-1.99513e-28 -6.9792e-28 0)
(-3.31428e-28 -5.28605e-28 0)
(-4.71004e-28 -2.67113e-28 0)
(-5.98127e-28 -6.12661e-29 0)
(-6.83746e-28 1.04239e-28 0)
(-7.21051e-28 2.68924e-28 0)
(-7.29507e-28 3.22518e-28 0)
(-7.29968e-28 1.35322e-28 0)
(-7.2985e-28 -2.06924e-28 0)
(-7.23123e-28 -4.79062e-28 0)
(-6.97185e-28 -5.50795e-28 0)
(-6.42722e-28 -3.94916e-28 0)
(-5.68593e-28 -2.40885e-29 0)
(-4.97301e-28 4.28856e-28 0)
(-4.52797e-28 7.13337e-28 0)
(-4.39997e-28 6.62255e-28 0)
(-4.48538e-28 3.27913e-28 0)
(-4.57614e-28 -8.253e-29 0)
(-4.56599e-28 -3.42696e-28 0)
(-4.51175e-28 -3.19011e-28 0)
(-4.72062e-28 -6.19037e-29 0)
(-5.23289e-28 1.94591e-28 0)
(-5.93485e-28 2.49211e-28 0)
(-6.23607e-28 1.49374e-28 0)
(-5.91597e-28 5.63012e-29 0)
(-4.86749e-28 -1.99942e-29 0)
(-3.55733e-28 -1.55068e-28 0)
(-2.23319e-28 -2.46341e-28 0)
(-1.3375e-28 -1.17229e-28 0)
(-3.44793e-29 3.92174e-28 0)
(-5.33356e-26 -1.98116e-25 0)
(-3.97033e-26 -1.09636e-26 0)
(2.76918e-28 -5.71334e-27 0)
(-7.04736e-27 1.6088e-28 0)
(1.17959e-27 -9.49054e-28 0)
(-2.29358e-27 -5.02097e-28 0)
(4.79022e-28 -1.01157e-27 0)
(-1.12841e-27 -6.63389e-28 0)
(1.78717e-29 -3.13929e-28 0)
(-7.29763e-28 4.29394e-28 0)
(-1.52709e-28 8.83904e-28 0)
(-3.67557e-28 1.05022e-27 0)
(3.6167e-29 7.71806e-28 0)
(6.63869e-30 3.61319e-28 0)
(1.72159e-28 1.80955e-29 0)
(8.49768e-29 -7.47477e-29 0)
(1.14648e-28 -2.67478e-29 0)
(1.05892e-28 -5.93819e-30 0)
(2.18473e-28 -1.17442e-28 0)
(3.05858e-28 -2.27767e-28 0)
(3.85888e-28 -1.85173e-28 0)
(3.90325e-28 2.89357e-30 0)
(3.68387e-28 1.98502e-28 0)
(3.22743e-28 3.24739e-28 0)
(2.83565e-28 3.80413e-28 0)
(2.41804e-28 3.50525e-28 0)
(1.94028e-28 2.16908e-28 0)
(1.21169e-28 6.43009e-29 0)
(2.2352e-29 -4.06442e-32 0)
(-9.4811e-29 -2.30562e-29 0)
(-2.19607e-28 -1.24424e-28 0)
(-3.53997e-28 -2.65481e-28 0)
(-4.95952e-28 -2.76002e-28 0)
(-6.26892e-28 -7.24068e-29 0)
(-7.19048e-28 2.5584e-28 0)
(-7.684e-28 5.19733e-28 0)
(-7.94157e-28 5.24155e-28 0)
(-8.07547e-28 2.0738e-28 0)
(-8.05285e-28 -2.12895e-28 0)
(-7.83735e-28 -3.9191e-28 0)
(-7.42474e-28 -2.4819e-28 0)
(-6.78874e-28 -2.12091e-29 0)
(-5.99958e-28 8.91656e-29 0)
(-5.26951e-28 1.35928e-28 0)
(-4.86395e-28 2.25388e-28 0)
(-4.82729e-28 2.98915e-28 0)
(-4.98638e-28 2.5638e-28 0)
(-5.0638e-28 1.74909e-28 0)
(-4.97226e-28 1.94883e-28 0)
(-4.8615e-28 2.54296e-28 0)
(-5.10164e-28 1.59442e-28 0)
(-5.68592e-28 -1.16457e-28 0)
(-6.40658e-28 -3.69005e-28 0)
(-6.64707e-28 -4.09711e-28 0)
(-6.27412e-28 -2.92826e-28 0)
(-5.22979e-28 -2.22987e-28 0)
(-3.89666e-28 -2.68293e-28 0)
(-2.4241e-28 -2.72335e-28 0)
(-1.25544e-28 -1.08601e-28 0)
(-1.98716e-29 4.04631e-28 0)
(-5.46838e-26 -1.95803e-25 0)
(-4.1133e-26 -1.20857e-26 0)
(-4.57687e-28 -6.43e-27 0)
(-7.5744e-27 -1.42328e-28 0)
(1.05435e-27 -1.51173e-27 0)
(-2.47192e-27 -9.27929e-28 0)
(4.43027e-28 -1.35415e-27 0)
(-1.19088e-27 -8.4127e-28 0)
(2.73032e-29 -3.35154e-28 0)
(-7.37684e-28 6.58689e-28 0)
(-1.50917e-28 1.28646e-27 0)
(-4.00709e-28 1.39902e-27 0)
(-9.64699e-31 7.86406e-28 0)
(-2.92346e-29 -1.05106e-29 0)
(1.6413e-28 -5.16293e-28 0)
(9.57835e-29 -4.504e-28 0)
(1.3269e-28 -1.02223e-28 0)
(1.13639e-28 1.2417e-28 0)
(2.20621e-28 5.20323e-29 0)
(3.13782e-28 -8.77145e-29 0)
(4.0718e-28 -6.91516e-29 0)
(4.18557e-28 8.57293e-29 0)
(3.96121e-28 2.28516e-28 0)
(3.46092e-28 3.05498e-28 0)
(3.00094e-28 3.03497e-28 0)
(2.48724e-28 1.98169e-28 0)
(1.94741e-28 5.59842e-29 0)
(1.2274e-28 5.71652e-29 0)
(2.36255e-29 2.56071e-28 0)
(-1.05286e-28 4.34039e-28 0)
(-2.47953e-28 3.47352e-28 0)
(-3.91294e-28 5.30469e-29 0)
(-5.29487e-28 -1.55878e-28 0)
(-6.556e-28 -9.9407e-29 0)
(-7.52765e-28 1.17337e-28 0)
(-8.16885e-28 2.75842e-28 0)
(-8.59766e-28 2.61776e-28 0)