/*--------------------------------*- C++ -*----------------------------------*\
| =========                 |                                                 |
| \\      /  F ield         | foam-extend: Open Source CFD                    |
|  \\    /   O peration     | Version:     4.0                                |
|   \\  /    A nd           | Web:         http://www.foam-extend.org         |
|    \\/     M anipulation  |                                                 |
\*---------------------------------------------------------------------------*/
FoamFile
{
    version     2.0;
    format      ascii;
    class       volScalarField;
    location    "1280";
    object      cMinus;
}
// * * * * * * * * * * * * * * * * * * * * * * * * * * * * * * * * * * * * * //

dimensions      [0 0 0 0 0 0 0];

internalField   nonuniform List<scalar> 
6960
(
7.25282e-22
7.24868e-22
7.23894e-22
7.23094e-22
7.22503e-22
7.2208e-22
7.21781e-22
7.21569e-22
7.2142e-22
7.21312e-22
7.21235e-22
7.21178e-22
7.21136e-22
7.21105e-22
7.21082e-22
7.21064e-22
7.21051e-22
7.21041e-22
7.21034e-22
7.21029e-22
7.21025e-22
7.21023e-22
7.21021e-22
7.2102e-22
7.21019e-22
7.21019e-22
7.21018e-22
7.21018e-22
7.21018e-22
7.21018e-22
7.21018e-22
7.21018e-22
7.21018e-22
7.21018e-22
7.21019e-22
7.21019e-22
7.2102e-22
7.21021e-22
7.21023e-22
7.21025e-22
7.21029e-22
7.21034e-22
7.21041e-22
7.21051e-22
7.21064e-22
7.21082e-22
7.21105e-22
7.21136e-22
7.21178e-22
7.21235e-22
7.21312e-22
7.2142e-22
7.21569e-22
7.21781e-22
7.2208e-22
7.22503e-22
7.23094e-22
7.23894e-22
7.24868e-22
7.25282e-22
3.33109e-21
3.33014e-21
3.32651e-21
3.32346e-21
3.32118e-21
3.31953e-21
3.31835e-21
3.3175e-21
3.3169e-21
3.31646e-21
3.31615e-21
3.31591e-21
3.31574e-21
3.31561e-21
3.31551e-21
3.31544e-21
3.31538e-21
3.31534e-21
3.31531e-21
3.31529e-21
3.31527e-21
3.31526e-21
3.31526e-21
3.31525e-21
3.31525e-21
3.31525e-21
3.31525e-21
3.31525e-21
3.31525e-21
3.31525e-21
3.31525e-21
3.31525e-21
3.31525e-21
3.31525e-21
3.31525e-21
3.31525e-21
3.31525e-21
3.31526e-21
3.31526e-21
3.31527e-21
3.31529e-21
3.31531e-21
3.31534e-21
3.31538e-21
3.31544e-21
3.31551e-21
3.31561e-21
3.31574e-21
3.31591e-21
3.31615e-21
3.31646e-21
3.3169e-21
3.3175e-21
3.31835e-21
3.31953e-21
3.32118e-21
3.32346e-21
3.32651e-21
3.33014e-21
3.33109e-21
1.44976e-20
1.44981e-20
1.44865e-20
1.44764e-20
1.44686e-20
1.44629e-20
1.44587e-20
1.44556e-20
1.44534e-20
1.44518e-20
1.44506e-20
1.44497e-20
1.4449e-20
1.44485e-20
1.44482e-20
1.44479e-20
1.44476e-20
1.44475e-20
1.44474e-20
1.44473e-20
1.44472e-20
1.44472e-20
1.44472e-20
1.44472e-20
1.44472e-20
1.44471e-20
1.44472e-20
1.44472e-20
1.44472e-20
1.44472e-20
1.44472e-20
1.44472e-20
1.44472e-20
1.44472e-20
1.44471e-20
1.44472e-20
1.44472e-20
1.44472e-20
1.44472e-20
1.44472e-20
1.44473e-20
1.44474e-20
1.44475e-20
1.44476e-20
1.44479e-20
1.44482e-20
1.44485e-20
1.4449e-20
1.44497e-20
1.44506e-20
1.44518e-20
1.44534e-20
1.44556e-20
1.44587e-20
1.44629e-20
1.44686e-20
1.44764e-20
1.44865e-20
1.44981e-20
1.44976e-20
6.40289e-20
6.40534e-20
6.40221e-20
6.39919e-20
6.39678e-20
6.39494e-20
6.39355e-20
6.39251e-20
6.39174e-20
6.39115e-20
6.39071e-20
6.39037e-20
6.39011e-20
6.38992e-20
6.38977e-20
6.38965e-20
6.38957e-20
6.38951e-20
6.38946e-20
6.38943e-20
6.38941e-20
6.3894e-20
6.38939e-20
6.38939e-20
6.38939e-20
6.38939e-20
6.38939e-20
6.38939e-20
6.38939e-20
6.38939e-20
6.38939e-20
6.38939e-20
6.38939e-20
6.38939e-20
6.38939e-20
6.38939e-20
6.38939e-20
6.38939e-20
6.3894e-20
6.38941e-20
6.38943e-20
6.38946e-20
6.38951e-20
6.38957e-20
6.38965e-20
6.38977e-20
6.38992e-20
6.39011e-20
6.39037e-20
6.39071e-20
6.39115e-20
6.39174e-20
6.39251e-20
6.39355e-20
6.39494e-20
6.39678e-20
6.39919e-20
6.40221e-20
6.40534e-20
6.40289e-20
2.91477e-19
2.91693e-19
2.91645e-19
2.91577e-19
2.91515e-19
2.91464e-19
2.91423e-19
2.9139e-19
2.91364e-19
2.91343e-19
2.91327e-19
2.91315e-19
2.91305e-19
2.91297e-19
2.91291e-19
2.91287e-19
2.91284e-19
2.91281e-19
2.9128e-19
2.91278e-19
2.91278e-19
2.91277e-19
2.91277e-19
2.91277e-19
2.91277e-19
2.91277e-19
2.91277e-19
2.91277e-19
2.91277e-19
2.91277e-19
2.91277e-19
2.91277e-19
2.91277e-19
2.91277e-19
2.91277e-19
2.91277e-19
2.91277e-19
2.91277e-19
2.91277e-19
2.91278e-19
2.91278e-19
2.9128e-19
2.91281e-19
2.91284e-19
2.91287e-19
2.91291e-19
2.91297e-19
2.91305e-19
2.91315e-19
2.91327e-19
2.91343e-19
2.91364e-19
2.9139e-19
2.91423e-19
2.91464e-19
2.91515e-19
2.91577e-19
2.91645e-19
2.91693e-19
2.91477e-19
1.37235e-18
1.37386e-18
1.37409e-18
1.37411e-18
1.37405e-18
1.37397e-18
1.37388e-18
1.37379e-18
1.37372e-18
1.37365e-18
1.37359e-18
1.37355e-18
1.37351e-18
1.37348e-18
1.37346e-18
1.37344e-18
1.37343e-18
1.37342e-18
1.37342e-18
1.37341e-18
1.37341e-18
1.37341e-18
1.37341e-18
1.37341e-18
1.37341e-18
1.37341e-18
1.37341e-18
1.37341e-18
1.37341e-18
1.37341e-18
1.37341e-18
1.37341e-18
1.37341e-18
1.37341e-18
1.37341e-18
1.37341e-18
1.37341e-18
1.37341e-18
1.37341e-18
1.37341e-18
1.37341e-18
1.37342e-18
1.37342e-18
1.37343e-18
1.37344e-18
1.37346e-18
1.37348e-18
1.37351e-18
1.37355e-18
1.37359e-18
1.37365e-18
1.37372e-18
1.37379e-18
1.37388e-18
1.37397e-18
1.37405e-18
1.37411e-18
1.37409e-18
1.37386e-18
1.37235e-18
6.68506e-18
6.6949e-18
6.69827e-18
6.70003e-18
6.70094e-18
6.70132e-18
6.70141e-18
6.70134e-18
6.70119e-18
6.70102e-18
6.70085e-18
6.70069e-18
6.70056e-18
6.70046e-18
6.70037e-18
6.7003e-18
6.70025e-18
6.70022e-18
6.70019e-18
6.70018e-18
6.70017e-18
6.70017e-18
6.70017e-18
6.70017e-18
6.70018e-18
6.70018e-18
6.70019e-18
6.70019e-18
6.7002e-18
6.7002e-18
6.7002e-18
6.7002e-18
6.70019e-18
6.70019e-18
6.70018e-18
6.70018e-18
6.70017e-18
6.70017e-18
6.70017e-18
6.70017e-18
6.70018e-18
6.70019e-18
6.70022e-18
6.70025e-18
6.7003e-18
6.70037e-18
6.70046e-18
6.70056e-18
6.70069e-18
6.70085e-18
6.70102e-18
6.70119e-18
6.70134e-18
6.70141e-18
6.70132e-18
6.70094e-18
6.70003e-18
6.69827e-18
6.6949e-18
6.68506e-18
3.36717e-17
3.37339e-17
3.37624e-17
3.37799e-17
3.37905e-17
3.37965e-17
3.37996e-17
3.3801e-17
3.38014e-17
3.38013e-17
3.3801e-17
3.38006e-17
3.38002e-17
3.37998e-17
3.37995e-17
3.37993e-17
3.37991e-17
3.37989e-17
3.37989e-17
3.37988e-17
3.37988e-17
3.37988e-17
3.37988e-17
3.37989e-17
3.37989e-17
3.37989e-17
3.3799e-17
3.3799e-17
3.3799e-17
3.3799e-17
3.3799e-17
3.3799e-17
3.3799e-17
3.3799e-17
3.37989e-17
3.37989e-17
3.37989e-17
3.37988e-17
3.37988e-17
3.37988e-17
3.37988e-17
3.37989e-17
3.37989e-17
3.37991e-17
3.37993e-17
3.37995e-17
3.37998e-17
3.38002e-17
3.38006e-17
3.3801e-17
3.38013e-17
3.38014e-17
3.3801e-17
3.37996e-17
3.37965e-17
3.37905e-17
3.37799e-17
3.37624e-17
3.37339e-17
3.36717e-17
1.75171e-16
1.75561e-16
1.7577e-16
1.75906e-16
1.75993e-16
1.76046e-16
1.76076e-16
1.76093e-16
1.76101e-16
1.76105e-16
1.76106e-16
1.76106e-16
1.76105e-16
1.76104e-16
1.76103e-16
1.76102e-16
1.76101e-16
1.76101e-16
1.76101e-16
1.76101e-16
1.76101e-16
1.76101e-16
1.76101e-16
1.76101e-16
1.76102e-16
1.76102e-16
1.76102e-16
1.76102e-16
1.76102e-16
1.76102e-16
1.76102e-16
1.76102e-16
1.76102e-16
1.76102e-16
1.76102e-16
1.76102e-16
1.76101e-16
1.76101e-16
1.76101e-16
1.76101e-16
1.76101e-16
1.76101e-16
1.76101e-16
1.76101e-16
1.76102e-16
1.76103e-16
1.76104e-16
1.76105e-16
1.76106e-16
1.76106e-16
1.76105e-16
1.76101e-16
1.76093e-16
1.76076e-16
1.76046e-16
1.75993e-16
1.75906e-16
1.7577e-16
1.75561e-16
1.75171e-16
9.3975e-16
9.42194e-16
9.43646e-16
9.44624e-16
9.4526e-16
9.45658e-16
9.45899e-16
9.4604e-16
9.46118e-16
9.4616e-16
9.46181e-16
9.46189e-16
9.46192e-16
9.46191e-16
9.4619e-16
9.46188e-16
9.46187e-16
9.46186e-16
9.46186e-16
9.46187e-16
9.46188e-16
9.46189e-16
9.46191e-16
9.46193e-16
9.46194e-16
9.46196e-16
9.46197e-16
9.46198e-16
9.46199e-16
9.46199e-16
9.46199e-16
9.46199e-16
9.46198e-16
9.46197e-16
9.46196e-16
9.46194e-16
9.46193e-16
9.46191e-16
9.46189e-16
9.46188e-16
9.46187e-16
9.46186e-16
9.46186e-16
9.46187e-16
9.46188e-16
9.4619e-16
9.46191e-16
9.46192e-16
9.46189e-16
9.46181e-16
9.4616e-16
9.46118e-16
9.4604e-16
9.45899e-16
9.45658e-16
9.4526e-16
9.44624e-16
9.43646e-16
9.42194e-16
9.3975e-16
5.18805e-15
5.2035e-15
5.21334e-15
5.2201e-15
5.22456e-15
5.2274e-15
5.22916e-15
5.23022e-15
5.23084e-15
5.2312e-15
5.23139e-15
5.2315e-15
5.23155e-15
5.23157e-15
5.23159e-15
5.23159e-15
5.2316e-15
5.2316e-15
5.23161e-15
5.23162e-15
5.23163e-15
5.23164e-15
5.23165e-15
5.23166e-15
5.23167e-15
5.23168e-15
5.23169e-15
5.2317e-15
5.2317e-15
5.2317e-15
5.2317e-15
5.2317e-15
5.2317e-15
5.23169e-15
5.23168e-15
5.23167e-15
5.23166e-15
5.23165e-15
5.23164e-15
5.23163e-15
5.23162e-15
5.23161e-15
5.2316e-15
5.2316e-15
5.23159e-15
5.23159e-15
5.23157e-15
5.23155e-15
5.2315e-15
5.23139e-15
5.2312e-15
5.23084e-15
5.23022e-15
5.22916e-15
5.2274e-15
5.22456e-15
5.2201e-15
5.21334e-15
5.2035e-15
5.18805e-15
2.93947e-14
2.94932e-14
2.95592e-14
2.96052e-14
2.96358e-14
2.96555e-14
2.96679e-14
2.96755e-14
2.96801e-14
2.96828e-14
2.96844e-14
2.96853e-14
2.96858e-14
2.96861e-14
2.96863e-14
2.96864e-14
2.96865e-14
2.96866e-14
2.96866e-14
2.96867e-14
2.96868e-14
2.96869e-14
2.9687e-14
2.9687e-14
2.96871e-14
2.96872e-14
2.96872e-14
2.96873e-14
2.96873e-14
2.96873e-14
2.96873e-14
2.96873e-14
2.96873e-14
2.96872e-14
2.96872e-14
2.96871e-14
2.9687e-14
2.9687e-14
2.96869e-14
2.96868e-14
2.96867e-14
2.96866e-14
2.96866e-14
2.96865e-14
2.96864e-14
2.96863e-14
2.96861e-14
2.96858e-14
2.96853e-14
2.96844e-14
2.96828e-14
2.96801e-14
2.96755e-14
2.96679e-14
2.96555e-14
2.96358e-14
2.96052e-14
2.95592e-14
2.94932e-14
2.93947e-14
1.70346e-13
1.70981e-13
1.71422e-13
1.71732e-13
1.7194e-13
1.72075e-13
1.7216e-13
1.72213e-13
1.72246e-13
1.72266e-13
1.72278e-13
1.72285e-13
1.72289e-13
1.72292e-13
1.72293e-13
1.72295e-13
1.72295e-13
1.72296e-13
1.72297e-13
1.72297e-13
1.72298e-13
1.72299e-13
1.72299e-13
1.723e-13
1.723e-13
1.72301e-13
1.72301e-13
1.72301e-13
1.72301e-13
1.72301e-13
1.72301e-13
1.72301e-13
1.72301e-13
1.72301e-13
1.72301e-13
1.723e-13
1.723e-13
1.72299e-13
1.72299e-13
1.72298e-13
1.72297e-13
1.72297e-13
1.72296e-13
1.72295e-13
1.72295e-13
1.72293e-13
1.72292e-13
1.72289e-13
1.72285e-13
1.72278e-13
1.72266e-13
1.72246e-13
1.72213e-13
1.7216e-13
1.72075e-13
1.7194e-13
1.71732e-13
1.71422e-13
1.70981e-13
1.70346e-13
1.00551e-12
1.00961e-12
1.01255e-12
1.01463e-12
1.01603e-12
1.01695e-12
1.01754e-12
1.0179e-12
1.01813e-12
1.01827e-12
1.01835e-12
1.01841e-12
1.01844e-12
1.01846e-12
1.01847e-12
1.01848e-12
1.01849e-12
1.0185e-12
1.0185e-12
1.01851e-12
1.01851e-12
1.01852e-12
1.01852e-12
1.01852e-12
1.01853e-12
1.01853e-12
1.01853e-12
1.01853e-12
1.01853e-12
1.01853e-12
1.01853e-12
1.01853e-12
1.01853e-12
1.01853e-12
1.01853e-12
1.01853e-12
1.01852e-12
1.01852e-12
1.01852e-12
1.01851e-12
1.01851e-12
1.0185e-12
1.0185e-12
1.01849e-12
1.01848e-12
1.01847e-12
1.01846e-12
1.01844e-12
1.01841e-12
1.01835e-12
1.01827e-12
1.01813e-12
1.0179e-12
1.01754e-12
1.01695e-12
1.01603e-12
1.01463e-12
1.01255e-12
1.00961e-12
1.00551e-12
6.01484e-12
6.04146e-12
6.06098e-12
6.07487e-12
6.08428e-12
6.09045e-12
6.0944e-12
6.0969e-12
6.09846e-12
6.09943e-12
6.10003e-12
6.10041e-12
6.10065e-12
6.1008e-12
6.10091e-12
6.10098e-12
6.10104e-12
6.10108e-12
6.10112e-12
6.10115e-12
6.10118e-12
6.10121e-12
6.10124e-12
6.10126e-12
6.10128e-12
6.1013e-12
6.10131e-12
6.10132e-12
6.10133e-12
6.10133e-12
6.10133e-12
6.10133e-12
6.10132e-12
6.10131e-12
6.1013e-12
6.10128e-12
6.10126e-12
6.10124e-12
6.10121e-12
6.10118e-12
6.10115e-12
6.10112e-12
6.10108e-12
6.10104e-12
6.10098e-12
6.10091e-12
6.1008e-12
6.10065e-12
6.10041e-12
6.10003e-12
6.09943e-12
6.09846e-12
6.0969e-12
6.0944e-12
6.09045e-12
6.08428e-12
6.07487e-12
6.06098e-12
6.04146e-12
6.01484e-12
3.62436e-11
3.64158e-11
3.65444e-11
3.66363e-11
3.66987e-11
3.67397e-11
3.67662e-11
3.67829e-11
3.67935e-11
3.68001e-11
3.68042e-11
3.68069e-11
3.68086e-11
3.68097e-11
3.68104e-11
3.6811e-11
3.68114e-11
3.68117e-11
3.6812e-11
3.68122e-11
3.68124e-11
3.68126e-11
3.68128e-11
3.68129e-11
3.68131e-11
3.68132e-11
3.68133e-11
3.68133e-11
3.68134e-11
3.68134e-11
3.68134e-11
3.68134e-11
3.68133e-11
3.68133e-11
3.68132e-11
3.68131e-11
3.68129e-11
3.68128e-11
3.68126e-11
3.68124e-11
3.68122e-11
3.6812e-11
3.68117e-11
3.68114e-11
3.6811e-11
3.68104e-11
3.68097e-11
3.68086e-11
3.68069e-11
3.68042e-11
3.68001e-11
3.67935e-11
3.67829e-11
3.67662e-11
3.67397e-11
3.66987e-11
3.66363e-11
3.65444e-11
3.64158e-11
3.62436e-11
2.18439e-10
2.19543e-10
2.20379e-10
2.20978e-10
2.21386e-10
2.21655e-10
2.21828e-10
2.21939e-10
2.22009e-10
2.22053e-10
2.22081e-10
2.22099e-10
2.2211e-10
2.22118e-10
2.22123e-10
2.22127e-10
2.2213e-10
2.22132e-10
2.22134e-10
2.22136e-10
2.22137e-10
2.22138e-10
2.22139e-10
2.2214e-10
2.22141e-10
2.22142e-10
2.22143e-10
2.22143e-10
2.22143e-10
2.22144e-10
2.22144e-10
2.22143e-10
2.22143e-10
2.22143e-10
2.22142e-10
2.22141e-10
2.2214e-10
2.22139e-10
2.22138e-10
2.22137e-10
2.22136e-10
2.22134e-10
2.22132e-10
2.2213e-10
2.22127e-10
2.22123e-10
2.22118e-10
2.2211e-10
2.22099e-10
2.22081e-10
2.22053e-10
2.22009e-10
2.21939e-10
2.21828e-10
2.21655e-10
2.21386e-10
2.20978e-10
2.20379e-10
2.19543e-10
2.18439e-10
1.30608e-09
1.31303e-09
1.31835e-09
1.32217e-09
1.32478e-09
1.3265e-09
1.32762e-09
1.32833e-09
1.32879e-09
1.32907e-09
1.32926e-09
1.32937e-09
1.32945e-09
1.3295e-09
1.32954e-09
1.32956e-09
1.32958e-09
1.3296e-09
1.32961e-09
1.32962e-09
1.32963e-09
1.32964e-09
1.32964e-09
1.32965e-09
1.32966e-09
1.32966e-09
1.32966e-09
1.32967e-09
1.32967e-09
1.32967e-09
1.32967e-09
1.32967e-09
1.32967e-09
1.32966e-09
1.32966e-09
1.32966e-09
1.32965e-09
1.32964e-09
1.32964e-09
1.32963e-09
1.32962e-09
1.32961e-09
1.3296e-09
1.32958e-09
1.32956e-09
1.32954e-09
1.3295e-09
1.32945e-09
1.32937e-09
1.32926e-09
1.32907e-09
1.32879e-09
1.32833e-09
1.32762e-09
1.3265e-09
1.32478e-09
1.32217e-09
1.31835e-09
1.31303e-09
1.30608e-09
7.67558e-09
7.71815e-09
7.75104e-09
7.7747e-09
7.79086e-09
7.80156e-09
7.8085e-09
7.81294e-09
7.81578e-09
7.81758e-09
7.81873e-09
7.81948e-09
7.81997e-09
7.8203e-09
7.82053e-09
7.8207e-09
7.82082e-09
7.82092e-09
7.821e-09
7.82106e-09
7.82112e-09
7.82117e-09
7.82122e-09
7.82126e-09
7.82129e-09
7.82132e-09
7.82134e-09
7.82136e-09
7.82137e-09
7.82137e-09
7.82137e-09
7.82137e-09
7.82136e-09
7.82134e-09
7.82132e-09
7.82129e-09
7.82126e-09
7.82122e-09
7.82117e-09
7.82112e-09
7.82106e-09
7.821e-09
7.82092e-09
7.82082e-09
7.8207e-09
7.82053e-09
7.8203e-09
7.81997e-09
7.81948e-09
7.81873e-09
7.81758e-09
7.81578e-09
7.81294e-09
7.8085e-09
7.80156e-09
7.79086e-09
7.7747e-09
7.75104e-09
7.71815e-09
7.67558e-09
4.38757e-08
4.4127e-08
4.43223e-08
4.44629e-08
4.4559e-08
4.46228e-08
4.46642e-08
4.46908e-08
4.47078e-08
4.47187e-08
4.47256e-08
4.47302e-08
4.47331e-08
4.47352e-08
4.47366e-08
4.47376e-08
4.47384e-08
4.4739e-08
4.47394e-08
4.47399e-08
4.47402e-08
4.47405e-08
4.47408e-08
4.4741e-08
4.47412e-08
4.47414e-08
4.47415e-08
4.47416e-08
4.47417e-08
4.47417e-08
4.47417e-08
4.47417e-08
4.47416e-08
4.47415e-08
4.47414e-08
4.47412e-08
4.4741e-08
4.47408e-08
4.47405e-08
4.47402e-08
4.47399e-08
4.47394e-08
4.4739e-08
4.47384e-08
4.47376e-08
4.47366e-08
4.47352e-08
4.47331e-08
4.47302e-08
4.47256e-08
4.47187e-08
4.47078e-08
4.46908e-08
4.46642e-08
4.46228e-08
4.4559e-08
4.44629e-08
4.43223e-08
4.4127e-08
4.38757e-08
2.41164e-07
2.42575e-07
2.43676e-07
2.44469e-07
2.45012e-07
2.45372e-07
2.45607e-07
2.45757e-07
2.45854e-07
2.45916e-07
2.45956e-07
2.45982e-07
2.45999e-07
2.46011e-07
2.46019e-07
2.46025e-07
2.46029e-07
2.46033e-07
2.46035e-07
2.46038e-07
2.4604e-07
2.46042e-07
2.46043e-07
2.46044e-07
2.46045e-07
2.46046e-07
2.46047e-07
2.46048e-07
2.46048e-07
2.46048e-07
2.46048e-07
2.46048e-07
2.46048e-07
2.46047e-07
2.46046e-07
2.46045e-07
2.46044e-07
2.46043e-07
2.46042e-07
2.4604e-07
2.46038e-07
2.46035e-07
2.46033e-07
2.46029e-07
2.46025e-07
2.46019e-07
2.46011e-07
2.45999e-07
2.45982e-07
2.45956e-07
2.45916e-07
2.45854e-07
2.45757e-07
2.45607e-07
2.45372e-07
2.45012e-07
2.44469e-07
2.43676e-07
2.42575e-07
2.41164e-07
1.2587e-06
1.26614e-06
1.27196e-06
1.27615e-06
1.27902e-06
1.28093e-06
1.28217e-06
1.28297e-06
1.28348e-06
1.28381e-06
1.28403e-06
1.28417e-06
1.28426e-06
1.28432e-06
1.28437e-06
1.2844e-06
1.28442e-06
1.28444e-06
1.28446e-06
1.28447e-06
1.28448e-06
1.28449e-06
1.2845e-06
1.2845e-06
1.28451e-06
1.28451e-06
1.28452e-06
1.28452e-06
1.28452e-06
1.28452e-06
1.28452e-06
1.28452e-06
1.28452e-06
1.28452e-06
1.28451e-06
1.28451e-06
1.2845e-06
1.2845e-06
1.28449e-06
1.28448e-06
1.28447e-06
1.28446e-06
1.28444e-06
1.28442e-06
1.2844e-06
1.28437e-06
1.28432e-06
1.28426e-06
1.28417e-06
1.28403e-06
1.28381e-06
1.28348e-06
1.28297e-06
1.28217e-06
1.28093e-06
1.27902e-06
1.27615e-06
1.27196e-06
1.26614e-06
1.2587e-06
6.15415e-06
6.19046e-06
6.21886e-06
6.23931e-06
6.25332e-06
6.26263e-06
6.26871e-06
6.27263e-06
6.27515e-06
6.27677e-06
6.27782e-06
6.27851e-06
6.27897e-06
6.27928e-06
6.2795e-06
6.27966e-06
6.27978e-06
6.27987e-06
6.27995e-06
6.28001e-06
6.28006e-06
6.28011e-06
6.28014e-06
6.28018e-06
6.28021e-06
6.28023e-06
6.28025e-06
6.28026e-06
6.28027e-06
6.28028e-06
6.28028e-06
6.28027e-06
6.28026e-06
6.28025e-06
6.28023e-06
6.28021e-06
6.28018e-06
6.28014e-06
6.28011e-06
6.28006e-06
6.28001e-06
6.27995e-06
6.27987e-06
6.27978e-06
6.27966e-06
6.2795e-06
6.27928e-06
6.27897e-06
6.27851e-06
6.27782e-06
6.27677e-06
6.27515e-06
6.27263e-06
6.26871e-06
6.26263e-06
6.25332e-06
6.23931e-06
6.21886e-06
6.19046e-06
6.15415e-06
2.77797e-05
2.79411e-05
2.80671e-05
2.81577e-05
2.82198e-05
2.82612e-05
2.82881e-05
2.83056e-05
2.83168e-05
2.8324e-05
2.83287e-05
2.83318e-05
2.83339e-05
2.83353e-05
2.83363e-05
2.8337e-05
2.83375e-05
2.8338e-05
2.83383e-05
2.83386e-05
2.83388e-05
2.8339e-05
2.83392e-05
2.83393e-05
2.83394e-05
2.83395e-05
2.83396e-05
2.83397e-05
2.83397e-05
2.83398e-05
2.83398e-05
2.83397e-05
2.83397e-05
2.83396e-05
2.83395e-05
2.83394e-05
2.83393e-05
2.83392e-05
2.8339e-05
2.83388e-05
2.83386e-05
2.83383e-05
2.8338e-05
2.83375e-05
2.8337e-05
2.83363e-05
2.83353e-05
2.83339e-05
2.83318e-05
2.83287e-05
2.8324e-05
2.83168e-05
2.83056e-05
2.82881e-05
2.82612e-05
2.82198e-05
2.81577e-05
2.80671e-05
2.79411e-05
2.77797e-05
0.000113981
0.000114622
0.000115121
0.00011548
0.000115726
0.000115889
0.000115996
0.000116066
0.00011611
0.000116139
0.000116158
0.00011617
0.000116178
0.000116184
0.000116188
0.000116191
0.000116193
0.000116195
0.000116196
0.000116197
0.000116198
0.000116199
0.0001162
0.0001162
0.000116201
0.000116201
0.000116201
0.000116202
0.000116202
0.000116202
0.000116202
0.000116202
0.000116202
0.000116201
0.000116201
0.000116201
0.0001162
0.0001162
0.000116199
0.000116198
0.000116197
0.000116196
0.000116195
0.000116193
0.000116191
0.000116188
0.000116184
0.000116178
0.00011617
0.000116158
0.000116139
0.00011611
0.000116066
0.000115996
0.000115889
0.000115726
0.00011548
0.000115121
0.000114622
0.000113981
0.00041809
0.000420321
0.000422052
0.000423295
0.000424147
0.000424714
0.000425085
0.000425325
0.000425479
0.00042558
0.000425645
0.000425688
0.000425717
0.000425737
0.000425751
0.000425761
0.000425768
0.000425774
0.000425779
0.000425783
0.000425786
0.000425789
0.000425791
0.000425793
0.000425795
0.000425796
0.000425797
0.000425798
0.000425799
0.000425799
0.000425799
0.000425799
0.000425798
0.000425797
0.000425796
0.000425795
0.000425793
0.000425791
0.000425789
0.000425786
0.000425783
0.000425779
0.000425774
0.000425768
0.000425761
0.000425751
0.000425737
0.000425717
0.000425688
0.000425645
0.00042558
0.000425479
0.000425325
0.000425085
0.000424714
0.000424147
0.000423295
0.000422052
0.000420321
0.00041809
0.00134755
0.00135422
0.00135936
0.00136304
0.00136557
0.00136725
0.00136835
0.00136907
0.00136953
0.00136983
0.00137002
0.00137015
0.00137024
0.00137029
0.00137034
0.00137037
0.00137039
0.00137041
0.00137042
0.00137043
0.00137044
0.00137045
0.00137046
0.00137046
0.00137047
0.00137047
0.00137048
0.00137048
0.00137048
0.00137048
0.00137048
0.00137048
0.00137048
0.00137048
0.00137047
0.00137047
0.00137046
0.00137046
0.00137045
0.00137044
0.00137043
0.00137042
0.00137041
0.00137039
0.00137037
0.00137034
0.00137029
0.00137024
0.00137015
0.00137002
0.00136983
0.00136953
0.00136907
0.00136835
0.00136725
0.00136557
0.00136304
0.00135936
0.00135422
0.00134755
0.00375417
0.00377087
0.00378368
0.00379285
0.00379912
0.00380331
0.00380605
0.00380782
0.00380897
0.00380972
0.0038102
0.00381053
0.00381074
0.00381089
0.003811
0.00381108
0.00381113
0.00381118
0.00381121
0.00381124
0.00381127
0.00381129
0.00381131
0.00381132
0.00381133
0.00381134
0.00381135
0.00381136
0.00381136
0.00381136
0.00381136
0.00381136
0.00381136
0.00381135
0.00381134
0.00381133
0.00381132
0.00381131
0.00381129
0.00381127
0.00381124
0.00381121
0.00381118
0.00381113
0.00381108
0.003811
0.00381089
0.00381074
0.00381053
0.0038102
0.00380972
0.00380897
0.00380782
0.00380605
0.00380331
0.00379912
0.00379285
0.00378368
0.00377087
0.00375417
0.00892927
0.00896385
0.00899018
0.00900898
0.00902186
0.00903044
0.00903606
0.00903972
0.00904208
0.00904362
0.00904463
0.00904529
0.00904574
0.00904606
0.00904627
0.00904643
0.00904655
0.00904665
0.00904672
0.00904678
0.00904683
0.00904687
0.00904691
0.00904694
0.00904696
0.00904698
0.009047
0.00904701
0.00904702
0.00904702
0.00904702
0.00904702
0.00904701
0.009047
0.00904698
0.00904696
0.00904694
0.00904691
0.00904687
0.00904683
0.00904678
0.00904672
0.00904665
0.00904655
0.00904643
0.00904627
0.00904606
0.00904574
0.00904529
0.00904463
0.00904362
0.00904208
0.00903972
0.00903606
0.00903044
0.00902186
0.00900898
0.00899018
0.00896385
0.00892927
0.0180731
0.0181322
0.0181767
0.0182085
0.0182303
0.0182448
0.0182543
0.0182605
0.0182645
0.0182671
0.0182688
0.01827
0.0182707
0.0182713
0.0182717
0.0182719
0.0182721
0.0182723
0.0182724
0.0182725
0.0182726
0.0182727
0.0182727
0.0182728
0.0182728
0.0182729
0.0182729
0.0182729
0.0182729
0.0182729
0.0182729
0.0182729
0.0182729
0.0182729
0.0182729
0.0182728
0.0182728
0.0182727
0.0182727
0.0182726
0.0182725
0.0182724
0.0182723
0.0182721
0.0182719
0.0182717
0.0182713
0.0182707
0.01827
0.0182688
0.0182671
0.0182645
0.0182605
0.0182543
0.0182448
0.0182303
0.0182085
0.0181767
0.0181322
0.0180731
0.031436
0.0315208
0.0315842
0.0316294
0.0316603
0.0316809
0.0316945
0.0317033
0.031709
0.0317128
0.0317152
0.0317168
0.0317179
0.0317187
0.0317193
0.0317197
0.0317199
0.0317202
0.0317204
0.0317205
0.0317206
0.0317207
0.0317208
0.0317209
0.0317209
0.031721
0.031721
0.031721
0.0317211
0.0317211
0.0317211
0.0317211
0.031721
0.031721
0.031721
0.0317209
0.0317209
0.0317208
0.0317207
0.0317206
0.0317205
0.0317204
0.0317202
0.0317199
0.0317197
0.0317193
0.0317187
0.0317179
0.0317168
0.0317152
0.0317128
0.031709
0.0317033
0.0316945
0.0316809
0.0316603
0.0316294
0.0315842
0.0315208
0.031436
0.0480496
0.0481562
0.0482352
0.0482913
0.0483298
0.0483554
0.0483723
0.0483834
0.0483905
0.0483952
0.0483983
0.0484004
0.0484018
0.0484027
0.0484034
0.0484039
0.0484043
0.0484046
0.0484048
0.048405
0.0484051
0.0484053
0.0484054
0.0484054
0.0484055
0.0484056
0.0484056
0.0484057
0.0484057
0.0484057
0.0484057
0.0484057
0.0484057
0.0484056
0.0484056
0.0484055
0.0484054
0.0484054
0.0484053
0.0484051
0.048405
0.0484048
0.0484046
0.0484043
0.0484039
0.0484034
0.0484027
0.0484018
0.0484004
0.0483983
0.0483952
0.0483905
0.0483834
0.0483723
0.0483554
0.0483298
0.0482913
0.0482352
0.0481562
0.0480496
0.0664334
0.0665565
0.066647
0.0667111
0.0667551
0.0667845
0.0668039
0.0668165
0.0668248
0.0668302
0.0668338
0.0668362
0.0668378
0.0668389
0.0668397
0.0668403
0.0668408
0.0668411
0.0668414
0.0668416
0.0668417
0.0668419
0.066842
0.0668421
0.0668422
0.0668422
0.0668423
0.0668423
0.0668424
0.0668424
0.0668424
0.0668424
0.0668423
0.0668423
0.0668422
0.0668422
0.0668421
0.066842
0.0668419
0.0668417
0.0668416
0.0668414
0.0668411
0.0668408
0.0668403
0.0668397
0.0668389
0.0668378
0.0668362
0.0668338
0.0668302
0.0668248
0.0668165
0.0668039
0.0667845
0.0667551
0.0667111
0.066647
0.0665565
0.0664334
0.0854471
0.085583
0.0856822
0.0857525
0.0858006
0.0858329
0.0858543
0.0858683
0.0858774
0.0858834
0.0858874
0.0858901
0.0858919
0.0858932
0.0858941
0.0858947
0.0858952
0.0858956
0.0858958
0.0858961
0.0858963
0.0858964
0.0858966
0.0858967
0.0858968
0.0858968
0.0858969
0.0858969
0.085897
0.085897
0.085897
0.085897
0.0858969
0.0858969
0.0858968
0.0858968
0.0858967
0.0858966
0.0858964
0.0858963
0.0858961
0.0858958
0.0858956
0.0858952
0.0858947
0.0858941
0.0858932
0.0858919
0.0858901
0.0858874
0.0858834
0.0858774
0.0858683
0.0858543
0.0858329
0.0858006
0.0857525
0.0856822
0.085583
0.0854471
0.104545
0.104692
0.104799
0.104875
0.104927
0.104962
0.104985
0.105
0.10501
0.105017
0.105021
0.105024
0.105026
0.105027
0.105028
0.105029
0.105029
0.10503
0.10503
0.10503
0.105031
0.105031
0.105031
0.105031
0.105031
0.105031
0.105031
0.105031
0.105031
0.105031
0.105031
0.105031
0.105031
0.105031
0.105031
0.105031
0.105031
0.105031
0.105031
0.105031
0.10503
0.10503
0.10503
0.105029
0.105029
0.105028
0.105027
0.105026
0.105024
0.105021
0.105017
0.10501
0.105
0.104985
0.104962
0.104927
0.104875
0.104799
0.104692
0.104545
0.12358
0.123737
0.123852
0.123933
0.123988
0.124026
0.124051
0.124067
0.124078
0.124085
0.12409
0.124093
0.124095
0.124097
0.124098
0.124099
0.124099
0.1241
0.1241
0.1241
0.124101
0.124101
0.124101
0.124101
0.124101
0.124101
0.124101
0.124101
0.124101
0.124101
0.124101
0.124101
0.124101
0.124101
0.124101
0.124101
0.124101
0.124101
0.124101
0.124101
0.1241
0.1241
0.1241
0.124099
0.124099
0.124098
0.124097
0.124095
0.124093
0.12409
0.124085
0.124078
0.124067
0.124051
0.124026
0.123988
0.123933
0.123852
0.123737
0.12358
0.142555
0.142724
0.142846
0.142932
0.142991
0.143032
0.143058
0.143076
0.143088
0.143095
0.143101
0.143104
0.143106
0.143108
0.143109
0.14311
0.143111
0.143111
0.143112
0.143112
0.143112
0.143112
0.143112
0.143113
0.143113
0.143113
0.143113
0.143113
0.143113
0.143113
0.143113
0.143113
0.143113
0.143113
0.143113
0.143113
0.143113
0.143112
0.143112
0.143112
0.143112
0.143112
0.143111
0.143111
0.14311
0.143109
0.143108
0.143106
0.143104
0.143101
0.143095
0.143088
0.143076
0.143058
0.143032
0.142991
0.142932
0.142846
0.142724
0.142555
0.161502
0.161681
0.16181
0.161902
0.161965
0.162008
0.162037
0.162056
0.162068
0.162077
0.162082
0.162086
0.162089
0.16209
0.162092
0.162093
0.162093
0.162094
0.162094
0.162095
0.162095
0.162095
0.162095
0.162095
0.162096
0.162096
0.162096
0.162096
0.162096
0.162096
0.162096
0.162096
0.162096
0.162096
0.162096
0.162096
0.162095
0.162095
0.162095
0.162095
0.162095
0.162094
0.162094
0.162093
0.162093
0.162092
0.16209
0.162089
0.162086
0.162082
0.162077
0.162068
0.162056
0.162037
0.162008
0.161965
0.161902
0.16181
0.161681
0.161502
0.180436
0.180625
0.180761
0.180858
0.180926
0.180971
0.181002
0.181022
0.181036
0.181045
0.181051
0.181055
0.181058
0.18106
0.181061
0.181062
0.181063
0.181064
0.181064
0.181065
0.181065
0.181065
0.181065
0.181065
0.181065
0.181066
0.181066
0.181066
0.181066
0.181066
0.181066
0.181066
0.181066
0.181066
0.181066
0.181065
0.181065
0.181065
0.181065
0.181065
0.181065
0.181064
0.181064
0.181063
0.181062
0.181061
0.18106
0.181058
0.181055
0.181051
0.181045
0.181036
0.181022
0.181002
0.180971
0.180926
0.180858
0.180761
0.180625
0.180436
0.199358
0.199556
0.1997
0.199803
0.199874
0.199922
0.199955
0.199977
0.199992
0.200001
0.200008
0.200012
0.200015
0.200017
0.200019
0.20002
0.200021
0.200021
0.200022
0.200022
0.200023
0.200023
0.200023
0.200023
0.200023
0.200023
0.200024
0.200024
0.200024
0.200024
0.200024
0.200024
0.200024
0.200024
0.200023
0.200023
0.200023
0.200023
0.200023
0.200023
0.200022
0.200022
0.200021
0.200021
0.20002
0.200019
0.200017
0.200015
0.200012
0.200008
0.200001
0.199992
0.199977
0.199955
0.199922
0.199874
0.199803
0.1997
0.199556
0.199358
0.218259
0.218467
0.218618
0.218726
0.218801
0.218853
0.218888
0.218911
0.218927
0.218937
0.218944
0.218949
0.218952
0.218955
0.218956
0.218957
0.218958
0.218959
0.218959
0.21896
0.21896
0.21896
0.218961
0.218961
0.218961
0.218961
0.218961
0.218961
0.218961
0.218961
0.218961
0.218961
0.218961
0.218961
0.218961
0.218961
0.218961
0.218961
0.21896
0.21896
0.21896
0.218959
0.218959
0.218958
0.218957
0.218956
0.218955
0.218952
0.218949
0.218944
0.218937
0.218927
0.218911
0.218888
0.218853
0.218801
0.218726
0.218618
0.218467
0.218259
0.237128
0.237345
0.237503
0.237616
0.237695
0.23775
0.237787
0.237811
0.237828
0.237839
0.237847
0.237852
0.237856
0.237858
0.23786
0.237861
0.237862
0.237863
0.237863
0.237864
0.237864
0.237864
0.237865
0.237865
0.237865
0.237865
0.237865
0.237865
0.237865
0.237865
0.237865
0.237865
0.237865
0.237865
0.237865
0.237865
0.237865
0.237865
0.237864
0.237864
0.237864
0.237863
0.237863
0.237862
0.237861
0.23786
0.237858
0.237856
0.237852
0.237847
0.237839
0.237828
0.237811
0.237787
0.23775
0.237695
0.237616
0.237503
0.237345
0.237128
0.255948
0.256173
0.256338
0.256457
0.25654
0.256597
0.256636
0.256663
0.25668
0.256692
0.256701
0.256706
0.25671
0.256713
0.256715
0.256716
0.256717
0.256718
0.256718
0.256719
0.256719
0.25672
0.25672
0.25672
0.25672
0.25672
0.25672
0.25672
0.25672
0.25672
0.25672
0.25672
0.25672
0.25672
0.25672
0.25672
0.25672
0.25672
0.25672
0.256719
0.256719
0.256718
0.256718
0.256717
0.256716
0.256715
0.256713
0.25671
0.256706
0.256701
0.256692
0.25668
0.256663
0.256636
0.256597
0.25654
0.256457
0.256338
0.256173
0.255948
0.274704
0.274937
0.275108
0.275232
0.275319
0.27538
0.275421
0.275449
0.275468
0.27548
0.275489
0.275495
0.275499
0.275502
0.275504
0.275506
0.275507
0.275508
0.275508
0.275509
0.275509
0.27551
0.27551
0.27551
0.27551
0.27551
0.27551
0.27551
0.27551
0.27551
0.27551
0.27551
0.27551
0.27551
0.27551
0.27551
0.27551
0.27551
0.27551
0.275509
0.275509
0.275508
0.275508
0.275507
0.275506
0.275504
0.275502
0.275499
0.275495
0.275489
0.27548
0.275468
0.275449
0.275421
0.27538
0.275319
0.275232
0.275108
0.274937
0.274704
0.293378
0.293619
0.293797
0.293925
0.294016
0.29408
0.294123
0.294153
0.294173
0.294187
0.294196
0.294202
0.294207
0.29421
0.294212
0.294214
0.294215
0.294216
0.294217
0.294217
0.294217
0.294218
0.294218
0.294218
0.294218
0.294219
0.294219
0.294219
0.294219
0.294219
0.294219
0.294219
0.294219
0.294219
0.294219
0.294218
0.294218
0.294218
0.294218