/*--------------------------------*- C++ -*----------------------------------*\
| =========                 |                                                 |
| \\      /  F ield         | foam-extend: Open Source CFD                    |
|  \\    /   O peration     | Version:     4.0                                |
|   \\  /    A nd           | Web:         http://www.foam-extend.org         |
|    \\/     M anipulation  |                                                 |
\*---------------------------------------------------------------------------*/
FoamFile
{
    version     2.0;
    format      ascii;
    class       volVectorField;
    location    "18";
    object      bodyForce;
}
// * * * * * * * * * * * * * * * * * * * * * * * * * * * * * * * * * * * * * //

dimensions      [0 -1 0 0 0 0 0];

internalField   nonuniform List<vector> 
6960
(
(-2.90424e-05 -9.64356e+08 -0)
(-5.15126e-05 -9.64356e+08 -0)
(-3.29234e-05 -9.64356e+08 -0)
(-1.49575e-05 -9.64356e+08 -0)
(-6.81867e-06 -9.64356e+08 -0)
(-3.62322e-06 -9.64356e+08 -0)
(-2.09631e-06 -9.64356e+08 -0)
(-1.25779e-06 -9.64356e+08 -0)
(-7.36541e-07 -9.64356e+08 -0)
(-4.02265e-07 -9.64356e+08 -0)
(-1.69971e-07 -9.64356e+08 -0)
(-5.6657e-09 -9.64356e+08 -0)
(1.30311e-07 -9.64356e+08 -0)
(2.09631e-07 -9.64356e+08 -0)
(2.77619e-07 -9.64356e+08 -0)
(3.31444e-07 -9.64356e+08 -0)
(3.45608e-07 -9.64356e+08 -0)
(3.68271e-07 -9.64356e+08 -0)
(3.85268e-07 -9.64356e+08 -0)
(3.85268e-07 -9.64356e+08 -0)
(3.54106e-07 -9.64356e+08 -0)
(3.31444e-07 -9.64356e+08 -0)
(3.14446e-07 -9.64356e+08 -0)
(2.94616e-07 -9.64356e+08 -0)
(2.54957e-07 -9.64356e+08 -0)
(1.95467e-07 -9.64356e+08 -0)
(1.55807e-07 -9.64356e+08 -0)
(1.16147e-07 -9.64356e+08 -0)
(7.93198e-08 -9.64356e+08 -0)
(3.11614e-08 -9.64356e+08 -0)
(-2.54957e-08 -9.64356e+08 -0)
(-7.08213e-08 -9.64356e+08 -0)
(-1.27478e-07 -9.64356e+08 -0)
(-1.81302e-07 -9.64356e+08 -0)
(-2.12464e-07 -9.64356e+08 -0)
(-2.43625e-07 -9.64356e+08 -0)
(-2.86118e-07 -9.64356e+08 -0)
(-3.08781e-07 -9.64356e+08 -0)
(-3.28611e-07 -9.64356e+08 -0)
(-3.65438e-07 -9.64356e+08 -0)
(-3.82435e-07 -9.64356e+08 -0)
(-3.82435e-07 -9.64356e+08 -0)
(-3.76769e-07 -9.64356e+08 -0)
(-3.56939e-07 -9.64356e+08 -0)
(-3.31444e-07 -9.64356e+08 -0)
(-2.69121e-07 -9.64356e+08 -0)
(-1.983e-07 -9.64356e+08 -0)
(-1.16147e-07 -9.64356e+08 -0)
(1.983e-08 -9.64356e+08 -0)
(1.84135e-07 -9.64356e+08 -0)
(3.93766e-07 -9.64356e+08 -0)
(7.39374e-07 -9.64356e+08 -0)
(1.24645e-06 -9.64356e+08 -0)
(2.07648e-06 -9.64356e+08 -0)
(3.60339e-06 -9.64356e+08 -0)
(6.8215e-06 -9.64356e+08 -0)
(1.4966e-05 -9.64356e+08 -0)
(3.29319e-05 -9.64356e+08 -0)
(5.15239e-05 -9.64356e+08 -0)
(2.90367e-05 -9.64356e+08 -0)
(-7.23759e-05 -2.03851e+08 -0)
(-0.00012889 -2.03851e+08 -0)
(-8.30962e-05 -2.03851e+08 -0)
(-3.80037e-05 -2.03851e+08 -0)
(-1.73012e-05 -2.03851e+08 -0)
(-9.18584e-06 -2.03851e+08 -0)
(-5.32237e-06 -2.03851e+08 -0)
(-3.1885e-06 -2.03851e+08 -0)
(-1.87549e-06 -2.03851e+08 -0)
(-1.02651e-06 -2.03851e+08 -0)
(-4.28884e-07 -2.03851e+08 -0)
(-8.7886e-09 -2.03851e+08 -0)
(3.12874e-07 -2.03851e+08 -0)
(5.30831e-07 -2.03851e+08 -0)
(7.04846e-07 -2.03851e+08 -0)
(8.27886e-07 -2.03851e+08 -0)
(8.7886e-07 -2.03851e+08 -0)
(9.36865e-07 -2.03851e+08 -0)
(9.82565e-07 -2.03851e+08 -0)
(9.6323e-07 -2.03851e+08 -0)
(9.10499e-07 -2.03851e+08 -0)
(8.48979e-07 -2.03851e+08 -0)
(7.90974e-07 -2.03851e+08 -0)
(7.2418e-07 -2.03851e+08 -0)
(6.36294e-07 -2.03851e+08 -0)
(5.06223e-07 -2.03851e+08 -0)
(3.91971e-07 -2.03851e+08 -0)
(3.07601e-07 -2.03851e+08 -0)
(2.05653e-07 -2.03851e+08 -0)
(6.50356e-08 -2.03851e+08 -0)
(-5.97625e-08 -2.03851e+08 -0)
(-1.79287e-07 -2.03851e+08 -0)
(-3.1639e-07 -2.03851e+08 -0)
(-4.49976e-07 -2.03851e+08 -0)
(-5.37862e-07 -2.03851e+08 -0)
(-6.27506e-07 -2.03851e+08 -0)
(-7.31211e-07 -2.03851e+08 -0)
(-7.76912e-07 -2.03851e+08 -0)
(-8.34917e-07 -2.03851e+08 -0)
(-9.24561e-07 -2.03851e+08 -0)
(-9.6323e-07 -2.03851e+08 -0)
(-9.66746e-07 -2.03851e+08 -0)
(-9.56199e-07 -2.03851e+08 -0)
(-9.12256e-07 -2.03851e+08 -0)
(-8.26128e-07 -2.03851e+08 -0)
(-6.83753e-07 -2.03851e+08 -0)
(-5.04466e-07 -2.03851e+08 -0)
(-2.82993e-07 -2.03851e+08 -0)
(3.86698e-08 -2.03851e+08 -0)
(4.64038e-07 -2.03851e+08 -0)
(1.01596e-06 -2.03851e+08 -0)
(1.87549e-06 -2.03851e+08 -0)
(3.1639e-06 -2.03851e+08 -0)
(5.26964e-06 -2.03851e+08 -0)
(9.15948e-06 -2.03851e+08 -0)
(1.73012e-05 -2.03851e+08 -0)
(3.8016e-05 -2.03851e+08 -0)
(8.31032e-05 -2.03851e+08 -0)
(0.000128918 -2.03851e+08 -0)
(7.23864e-05 -2.03851e+08 -0)
(-7.18608e-05 -7.37372e+07 -0)
(-0.000130322 -7.37372e+07 -0)
(-8.54814e-05 -7.37372e+07 -0)
(-3.87133e-05 -7.37372e+07 -0)
(-1.77025e-05 -7.37372e+07 -0)
(-9.4039e-06 -7.37372e+07 -0)
(-5.45368e-06 -7.37372e+07 -0)
(-3.26434e-06 -7.37372e+07 -0)
(-1.92741e-06 -7.37372e+07 -0)
(-1.05077e-06 -7.37372e+07 -0)
(-4.39081e-07 -7.37372e+07 -0)
(-1.05985e-08 -7.37372e+07 -0)
(3.16441e-07 -7.37372e+07 -0)
(5.42037e-07 -7.37372e+07 -0)
(7.22212e-07 -7.37372e+07 -0)
(8.41824e-07 -7.37372e+07 -0)
(9.00872e-07 -7.37372e+07 -0)
(9.59921e-07 -7.37372e+07 -0)
(1.00232e-06 -7.37372e+07 -0)
(9.82632e-07 -7.37372e+07 -0)
(9.31154e-07 -7.37372e+07 -0)
(8.72105e-07 -7.37372e+07 -0)
(8.10028e-07 -7.37372e+07 -0)
(7.37353e-07 -7.37372e+07 -0)
(6.52565e-07 -7.37372e+07 -0)
(5.16298e-07 -7.37372e+07 -0)
(3.99715e-07 -7.37372e+07 -0)
(3.13413e-07 -7.37372e+07 -0)
(2.07428e-07 -7.37372e+07 -0)
(6.81332e-08 -7.37372e+07 -0)
(-6.20769e-08 -7.37372e+07 -0)
(-1.83203e-07 -7.37372e+07 -0)
(-3.20983e-07 -7.37372e+07 -0)
(-4.55735e-07 -7.37372e+07 -0)
(-5.58692e-07 -7.37372e+07 -0)
(-6.4348e-07 -7.37372e+07 -0)
(-7.44923e-07 -7.37372e+07 -0)
(-7.91859e-07 -7.37372e+07 -0)
(-8.56964e-07 -7.37372e+07 -0)
(-9.43266e-07 -7.37372e+07 -0)
(-9.82632e-07 -7.37372e+07 -0)
(-9.90203e-07 -7.37372e+07 -0)
(-9.7809e-07 -7.37372e+07 -0)
(-9.2964e-07 -7.37372e+07 -0)
(-8.41824e-07 -7.37372e+07 -0)
(-6.99501e-07 -7.37372e+07 -0)
(-5.11756e-07 -7.37372e+07 -0)
(-2.86159e-07 -7.37372e+07 -0)
(3.93659e-08 -7.37372e+07 -0)
(4.7239e-07 -7.37372e+07 -0)
(1.04622e-06 -7.37372e+07 -0)
(1.92438e-06 -7.37372e+07 -0)
(3.23708e-06 -7.37372e+07 -0)
(5.39615e-06 -7.37372e+07 -0)
(9.37816e-06 -7.37372e+07 -0)
(1.77055e-05 -7.37372e+07 -0)
(3.87254e-05 -7.37372e+07 -0)
(8.54905e-05 -7.37372e+07 -0)
(0.000130343 -7.37372e+07 -0)
(7.18669e-05 -7.37372e+07 -0)
(-6.47177e-05 -3.5393e+07 -0)
(-0.000117987 -3.5393e+07 -0)
(-7.77434e-05 -3.5393e+07 -0)
(-3.51366e-05 -3.5393e+07 -0)
(-1.61421e-05 -3.5393e+07 -0)
(-8.57911e-06 -3.5393e+07 -0)
(-4.98042e-06 -3.5393e+07 -0)
(-2.98238e-06 -3.5393e+07 -0)
(-1.75929e-06 -3.5393e+07 -0)
(-9.61342e-07 -3.5393e+07 -0)
(-4.00559e-07 -3.5393e+07 -0)
(-1.11046e-08 -3.5393e+07 -0)
(2.85547e-07 -3.5393e+07 -0)
(4.90189e-07 -3.5393e+07 -0)
(6.56759e-07 -3.5393e+07 -0)
(7.70977e-07 -3.5393e+07 -0)
(8.20155e-07 -3.5393e+07 -0)
(8.71712e-07 -3.5393e+07 -0)
(9.14544e-07 -3.5393e+07 -0)
(8.94715e-07 -3.5393e+07 -0)
(8.45537e-07 -3.5393e+07 -0)
(7.97153e-07 -3.5393e+07 -0)
(7.37664e-07 -3.5393e+07 -0)
(6.71829e-07 -3.5393e+07 -0)
(5.9489e-07 -3.5393e+07 -0)
(4.7036e-07 -3.5393e+07 -0)
(3.64866e-07 -3.5393e+07 -0)
(2.8634e-07 -3.5393e+07 -0)
(1.87985e-07 -3.5393e+07 -0)
(6.26617e-08 -3.5393e+07 -0)
(-5.47299e-08 -3.5393e+07 -0)
(-1.67362e-07 -3.5393e+07 -0)
(-2.94272e-07 -3.5393e+07 -0)
(-4.16423e-07 -3.5393e+07 -0)
(-5.08433e-07 -3.5393e+07 -0)
(-5.86165e-07 -3.5393e+07 -0)
(-6.77381e-07 -3.5393e+07 -0)
(-7.23386e-07 -3.5393e+07 -0)
(-7.81289e-07 -3.5393e+07 -0)
(-8.61401e-07 -3.5393e+07 -0)
(-8.94714e-07 -3.5393e+07 -0)
(-8.99474e-07 -3.5393e+07 -0)
(-8.86783e-07 -3.5393e+07 -0)
(-8.47916e-07 -3.5393e+07 -0)
(-7.67011e-07 -3.5393e+07 -0)
(-6.36136e-07 -3.5393e+07 -0)
(-4.65601e-07 -3.5393e+07 -0)
(-2.60958e-07 -3.5393e+07 -0)
(3.64866e-08 -3.5393e+07 -0)
(4.307e-07 -3.5393e+07 -0)
(9.61342e-07 -3.5393e+07 -0)
(1.75929e-06 -3.5393e+07 -0)
(2.95383e-06 -3.5393e+07 -0)
(4.9241e-06 -3.5393e+07 -0)
(8.55848e-06 -3.5393e+07 -0)
(1.61461e-05 -3.5393e+07 -0)
(3.51453e-05 -3.5393e+07 -0)
(7.77561e-05 -3.5393e+07 -0)
(0.000118006 -3.5393e+07 -0)
(6.47232e-05 -3.5393e+07 -0)
(-5.99503e-05 -2.10845e+07 -0)
(-0.000109306 -2.10845e+07 -0)
(-7.20026e-05 -2.10845e+07 -0)
(-3.25814e-05 -2.10845e+07 -0)
(-1.50428e-05 -2.10845e+07 -0)
(-8.00183e-06 -2.10845e+07 -0)
(-4.64528e-06 -2.10845e+07 -0)
(-2.784e-06 -2.10845e+07 -0)
(-1.64435e-06 -2.10845e+07 -0)
(-8.98448e-07 -2.10845e+07 -0)
(-3.73941e-07 -2.10845e+07 -0)
(-1.3868e-08 -2.10845e+07 -0)
(2.64978e-07 -2.10845e+07 -0)
(4.57644e-07 -2.10845e+07 -0)
(6.11678e-07 -2.10845e+07 -0)
(7.16183e-07 -2.10845e+07 -0)
(7.61749e-07 -2.10845e+07 -0)
(8.13259e-07 -2.10845e+07 -0)
(8.51891e-07 -2.10845e+07 -0)
(8.33565e-07 -2.10845e+07 -0)
(7.87504e-07 -2.10845e+07 -0)
(7.41938e-07 -2.10845e+07 -0)
(6.86961e-07 -2.10845e+07 -0)
(6.24555e-07 -2.10845e+07 -0)
(5.51748e-07 -2.10845e+07 -0)
(4.40309e-07 -2.10845e+07 -0)
(3.40261e-07 -2.10845e+07 -0)
(2.66464e-07 -2.10845e+07 -0)
(1.76322e-07 -2.10845e+07 -0)
(5.74531e-08 -2.10845e+07 -0)
(-5.10144e-08 -2.10845e+07 -0)
(-1.57005e-07 -2.10845e+07 -0)
(-2.73398e-07 -2.10845e+07 -0)
(-3.87809e-07 -2.10845e+07 -0)
(-4.72998e-07 -2.10845e+07 -0)
(-5.4729e-07 -2.10845e+07 -0)
(-6.33965e-07 -2.10845e+07 -0)
(-6.72598e-07 -2.10845e+07 -0)
(-7.27574e-07 -2.10845e+07 -0)
(-7.99391e-07 -2.10845e+07 -0)
(-8.32575e-07 -2.10845e+07 -0)
(-8.38023e-07 -2.10845e+07 -0)
(-8.25146e-07 -2.10845e+07 -0)
(-7.8899e-07 -2.10845e+07 -0)
(-7.14202e-07 -2.10845e+07 -0)
(-5.93352e-07 -2.10845e+07 -0)
(-4.31889e-07 -2.10845e+07 -0)
(-2.41204e-07 -2.10845e+07 -0)
(3.71464e-08 -2.10845e+07 -0)
(4.05144e-07 -2.10845e+07 -0)
(8.97457e-07 -2.10845e+07 -0)
(1.64336e-06 -2.10845e+07 -0)
(2.75725e-06 -2.10845e+07 -0)
(4.59377e-06 -2.10845e+07 -0)
(7.98301e-06 -2.10845e+07 -0)
(1.50463e-05 -2.10845e+07 -0)
(3.25858e-05 -2.10845e+07 -0)
(7.2013e-05 -2.10845e+07 -0)
(0.000109324 -2.10845e+07 -0)
(5.99563e-05 -2.10845e+07 -0)
(-5.96273e-05 -1.5079e+07 -0)
(-0.000108599 -1.5079e+07 -0)
(-7.14564e-05 -1.5079e+07 -0)
(-3.24147e-05 -1.5079e+07 -0)
(-1.50417e-05 -1.5079e+07 -0)
(-8.00708e-06 -1.5079e+07 -0)
(-4.65233e-06 -1.5079e+07 -0)
(-2.79052e-06 -1.5079e+07 -0)
(-1.64676e-06 -1.5079e+07 -0)
(-9.02473e-07 -1.5079e+07 -0)
(-3.76152e-07 -1.5079e+07 -0)
(-1.31216e-08 -1.5079e+07 -0)
(2.62431e-07 -1.5079e+07 -0)
(4.5561e-07 -1.5079e+07 -0)
(6.08695e-07 -1.5079e+07 -0)
(7.14397e-07 -1.5079e+07 -0)
(7.62509e-07 -1.5079e+07 -0)
(8.12809e-07 -1.5079e+07 -0)
(8.49257e-07 -1.5079e+07 -0)
(8.32491e-07 -1.5079e+07 -0)
(7.88023e-07 -1.5079e+07 -0)
(7.42098e-07 -1.5079e+07 -0)
(6.87425e-07 -1.5079e+07 -0)
(6.21817e-07 -1.5079e+07 -0)
(5.51106e-07 -1.5079e+07 -0)
(4.39573e-07 -1.5079e+07 -0)
(3.41161e-07 -1.5079e+07 -0)
(2.67534e-07 -1.5079e+07 -0)
(1.76412e-07 -1.5079e+07 -0)
(5.97761e-08 -1.5079e+07 -0)
(-5.39442e-08 -1.5079e+07 -0)
(-1.5673e-07 -1.5079e+07 -0)
(-2.7045e-07 -1.5079e+07 -0)
(-3.87086e-07 -1.5079e+07 -0)
(-4.73835e-07 -1.5079e+07 -0)
(-5.48919e-07 -1.5079e+07 -0)
(-6.34209e-07 -1.5079e+07 -0)
(-6.73574e-07 -1.5079e+07 -0)
(-7.2606e-07 -1.5079e+07 -0)
(-7.98229e-07 -1.5079e+07 -0)
(-8.31762e-07 -1.5079e+07 -0)
(-8.37594e-07 -1.5079e+07 -0)
(-8.25201e-07 -1.5079e+07 -0)
(-7.86565e-07 -1.5079e+07 -0)
(-7.11481e-07 -1.5079e+07 -0)
(-5.92658e-07 -1.5079e+07 -0)
(-4.30825e-07 -1.5079e+07 -0)
(-2.36917e-07 -1.5079e+07 -0)
(3.86357e-08 -1.5079e+07 -0)
(4.07498e-07 -1.5079e+07 -0)
(9.02473e-07 -1.5079e+07 -0)
(1.64603e-06 -1.5079e+07 -0)
(2.76136e-06 -1.5079e+07 -0)
(4.59984e-06 -1.5079e+07 -0)
(7.99104e-06 -1.5079e+07 -0)
(1.50439e-05 -1.5079e+07 -0)
(3.24198e-05 -1.5079e+07 -0)
(7.14674e-05 -1.5079e+07 -0)
(0.000108616 -1.5079e+07 -0)
(5.96339e-05 -1.5079e+07 -0)
(-6.33315e-05 -1.23841e+07 -0)
(-0.000115235 -1.23841e+07 -0)
(-7.57825e-05 -1.23841e+07 -0)
(-3.44926e-05 -1.23841e+07 -0)
(-1.60833e-05 -1.23841e+07 -0)
(-8.57345e-06 -1.23841e+07 -0)
(-4.98395e-06 -1.23841e+07 -0)
(-2.99013e-06 -1.23841e+07 -0)
(-1.76692e-06 -1.23841e+07 -0)
(-9.68779e-07 -1.23841e+07 -0)
(-4.04881e-07 -1.23841e+07 -0)
(-1.59017e-08 -1.23841e+07 -0)
(2.78279e-07 -1.23841e+07 -0)
(4.8439e-07 -1.23841e+07 -0)
(6.49522e-07 -1.23841e+07 -0)
(7.62057e-07 -1.23841e+07 -0)
(8.14655e-07 -1.23841e+07 -0)
(8.66642e-07 -1.23841e+07 -0)
(9.08231e-07 -1.23841e+07 -0)
(8.91106e-07 -1.23841e+07 -0)
(8.41566e-07 -1.23841e+07 -0)
(7.92638e-07 -1.23841e+07 -0)
(7.35147e-07 -1.23841e+07 -0)
(6.65424e-07 -1.23841e+07 -0)
(5.87139e-07 -1.23841e+07 -0)
(4.69711e-07 -1.23841e+07 -0)
(3.66962e-07 -1.23841e+07 -0)
(2.86842e-07 -1.23841e+07 -0)
(1.87151e-07 -1.23841e+07 -0)
(6.23835e-08 -1.23841e+07 -0)
(-5.56559e-08 -1.23841e+07 -0)
(-1.67579e-07 -1.23841e+07 -0)
(-2.90511e-07 -1.23841e+07 -0)
(-4.14055e-07 -1.23841e+07 -0)
(-5.05796e-07 -1.23841e+07 -0)
(-5.87751e-07 -1.23841e+07 -0)
(-6.78879e-07 -1.23841e+07 -0)
(-7.18634e-07 -1.23841e+07 -0)
(-7.74901e-07 -1.23841e+07 -0)
(-8.53798e-07 -1.23841e+07 -0)
(-8.88048e-07 -1.23841e+07 -0)
(-8.95999e-07 -1.23841e+07 -0)
(-8.80708e-07 -1.23841e+07 -0)
(-8.38508e-07 -1.23841e+07 -0)
(-7.61446e-07 -1.23841e+07 -0)
(-6.31786e-07 -1.23841e+07 -0)
(-4.57479e-07 -1.23841e+07 -0)
(-2.5198e-07 -1.23841e+07 -0)
(4.40354e-08 -1.23841e+07 -0)
(4.39743e-07 -1.23841e+07 -0)
(9.68779e-07 -1.23841e+07 -0)
(1.76509e-06 -1.23841e+07 -0)
(2.96016e-06 -1.23841e+07 -0)
(4.92707e-06 -1.23841e+07 -0)
(8.55633e-06 -1.23841e+07 -0)
(1.60852e-05 -1.23841e+07 -0)
(3.44981e-05 -1.23841e+07 -0)
(7.57941e-05 -1.23841e+07 -0)
(0.000115254 -1.23841e+07 -0)
(6.33388e-05 -1.23841e+07 -0)
(-6.98117e-05 -1.11031e+07 -0)
(-0.000126966 -1.11031e+07 -0)
(-8.35373e-05 -1.11031e+07 -0)
(-3.81816e-05 -1.11031e+07 -0)
(-1.78927e-05 -1.11031e+07 -0)
(-9.55029e-06 -1.11031e+07 -0)
(-5.55673e-06 -1.11031e+07 -0)
(-3.33561e-06 -1.11031e+07 -0)
(-1.97272e-06 -1.11031e+07 -0)
(-1.08259e-06 -1.11031e+07 -0)
(-4.55415e-07 -1.11031e+07 -0)
(-1.90223e-08 -1.11031e+07 -0)
(3.07153e-07 -1.11031e+07 -0)
(5.3598e-07 -1.11031e+07 -0)
(7.20608e-07 -1.11031e+07 -0)
(8.45931e-07 -1.11031e+07 -0)
(9.05795e-07 -1.11031e+07 -0)
(9.62862e-07 -1.11031e+07 -0)
(1.01098e-06 -1.11031e+07 -0)
(9.92514e-07 -1.11031e+07 -0)
(9.33769e-07 -1.11031e+07 -0)
(8.80059e-07 -1.11031e+07 -0)
(8.17397e-07 -1.11031e+07 -0)
(7.40749e-07 -1.11031e+07 -0)
(6.52911e-07 -1.11031e+07 -0)
(5.21993e-07 -1.11031e+07 -0)
(4.10097e-07 -1.11031e+07 -0)
(3.17783e-07 -1.11031e+07 -0)
(2.06447e-07 -1.11031e+07 -0)
(7.04942e-08 -1.11031e+07 -0)
(-6.21021e-08 -1.11031e+07 -0)
(-1.85187e-07 -1.11031e+07 -0)
(-3.217e-07 -1.11031e+07 -0)
(-4.6045e-07 -1.11031e+07 -0)
(-5.65073e-07 -1.11031e+07 -0)
(-6.55149e-07 -1.11031e+07 -0)
(-7.54176e-07 -1.11031e+07 -0)
(-7.99494e-07 -1.11031e+07 -0)
(-8.62156e-07 -1.11031e+07 -0)
(-9.47196e-07 -1.11031e+07 -0)
(-9.88598e-07 -1.11031e+07 -0)
(-9.95871e-07 -1.11031e+07 -0)
(-9.78527e-07 -1.11031e+07 -0)
(-9.31531e-07 -1.11031e+07 -0)
(-8.44812e-07 -1.11031e+07 -0)
(-6.99907e-07 -1.11031e+07 -0)
(-5.08565e-07 -1.11031e+07 -0)
(-2.75823e-07 -1.11031e+07 -0)
(5.42694e-08 -1.11031e+07 -0)
(4.9346e-07 -1.11031e+07 -0)
(1.08315e-06 -1.11031e+07 -0)
(1.97048e-06 -1.11031e+07 -0)
(3.30204e-06 -1.11031e+07 -0)
(5.49351e-06 -1.11031e+07 -0)
(9.53127e-06 -1.11031e+07 -0)
(1.78938e-05 -1.11031e+07 -0)
(3.81849e-05 -1.11031e+07 -0)
(8.3548e-05 -1.11031e+07 -0)
(0.000126989 -1.11031e+07 -0)
(6.98212e-05 -1.11031e+07 -0)
(-7.77118e-05 -1.04345e+07 -0)
(-0.00014134 -1.04345e+07 -0)
(-9.31392e-05 -1.04345e+07 -0)
(-4.27925e-05 -1.04345e+07 -0)
(-2.01544e-05 -1.04345e+07 -0)
(-1.07773e-05 -1.04345e+07 -0)
(-6.27721e-06 -1.04345e+07 -0)
(-3.7688e-06 -1.04345e+07 -0)
(-2.23472e-06 -1.04345e+07 -0)
(-1.22705e-06 -1.04345e+07 -0)
(-5.17276e-07 -1.04345e+07 -0)
(-2.41969e-08 -1.04345e+07 -0)
(3.44133e-07 -1.04345e+07 -0)
(6.00083e-07 -1.04345e+07 -0)
(8.08714e-07 -1.04345e+07 -0)
(9.49056e-07 -1.04345e+07 -0)
(1.01681e-06 -1.04345e+07 -0)
(1.08348e-06 -1.04345e+07 -0)
(1.1394e-06 -1.04345e+07 -0)
(1.11951e-06 -1.04345e+07 -0)
(1.05014e-06 -1.04345e+07 -0)
(9.92072e-07 -1.04345e+07 -0)
(9.20019e-07 -1.04345e+07 -0)
(8.35599e-07 -1.04345e+07 -0)
(7.35048e-07 -1.04345e+07 -0)
(5.8664e-07 -1.04345e+07 -0)
(4.63505e-07 -1.04345e+07 -0)
(3.59189e-07 -1.04345e+07 -0)
(2.31752e-07 -1.04345e+07 -0)
(7.79677e-08 -1.04345e+07 -0)
(-6.93644e-08 -1.04345e+07 -0)
(-2.08631e-07 -1.04345e+07 -0)
(-3.61878e-07 -1.04345e+07 -0)
(-5.18889e-07 -1.04345e+07 -0)
(-6.36647e-07 -1.04345e+07 -0)
(-7.38812e-07 -1.04345e+07 -0)
(-8.50117e-07 -1.04345e+07 -0)
(-9.00662e-07 -1.04345e+07 -0)
(-9.70026e-07 -1.04345e+07 -0)
(-1.06735e-06 -1.04345e+07 -0)
(-1.11252e-06 -1.04345e+07 -0)
(-1.12005e-06 -1.04345e+07 -0)
(-1.09961e-06 -1.04345e+07 -0)
(-1.04638e-06 -1.04345e+07 -0)
(-9.51206e-07 -1.04345e+07 -0)
(-7.86668e-07 -1.04345e+07 -0)
(-5.70509e-07 -1.04345e+07 -0)
(-3.06494e-07 -1.04345e+07 -0)
(6.56004e-08 -1.04345e+07 -0)
(5.62981e-07 -1.04345e+07 -0)
(1.22974e-06 -1.04345e+07 -0)
(2.22773e-06 -1.04345e+07 -0)
(3.73224e-06 -1.04345e+07 -0)
(6.20569e-06 -1.04345e+07 -0)
(1.07552e-05 -1.04345e+07 -0)
(2.01582e-05 -1.04345e+07 -0)
(4.27935e-05 -1.04345e+07 -0)
(9.31499e-05 -1.04345e+07 -0)
(0.000141366 -1.04345e+07 -0)
(7.77182e-05 -1.04345e+07 -0)
(-8.57702e-05 -1.0013e+07 -0)
(-0.000156103 -1.0013e+07 -0)
(-0.000103148 -1.0013e+07 -0)
(-4.76938e-05 -1.0013e+07 -0)
(-2.2592e-05 -1.0013e+07 -0)
(-1.21029e-05 -1.0013e+07 -0)
(-7.05986e-06 -1.0013e+07 -0)
(-4.24461e-06 -1.0013e+07 -0)
(-2.51623e-06 -1.0013e+07 -0)
(-1.38483e-06 -1.0013e+07 -0)
(-5.87438e-07 -1.0013e+07 -0)
(-3.28711e-08 -1.0013e+07 -0)
(3.80668e-07 -1.0013e+07 -0)
(6.68025e-07 -1.0013e+07 -0)
(9.04485e-07 -1.0013e+07 -0)
(1.06248e-06 -1.0013e+07 -0)
(1.13988e-06 -1.0013e+07 -0)
(1.21199e-06 -1.0013e+07 -0)
(1.27667e-06 -1.0013e+07 -0)
(1.25652e-06 -1.0013e+07 -0)
(1.17594e-06 -1.0013e+07 -0)
(1.10913e-06 -1.0013e+07 -0)
(1.03173e-06 -1.0013e+07 -0)
(9.36296e-07 -1.0013e+07 -0)
(8.23898e-07 -1.0013e+07 -0)
(6.56361e-07 -1.0013e+07 -0)
(5.20636e-07 -1.0013e+07 -0)
(4.06117e-07 -1.0013e+07 -0)
(2.58727e-07 -1.0013e+07 -0)
(8.48286e-08 -1.0013e+07 -0)
(-7.63457e-08 -1.0013e+07 -0)
(-2.34339e-07 -1.0013e+07 -0)
(-4.08238e-07 -1.0013e+07 -0)
(-5.82136e-07 -1.0013e+07 -0)
(-7.14681e-07 -1.0013e+07 -0)
(-8.28139e-07 -1.0013e+07 -0)
(-9.51141e-07 -1.0013e+07 -0)
(-1.00734e-06 -1.0013e+07 -0)
(-1.08793e-06 -1.0013e+07 -0)
(-1.19608e-06 -1.0013e+07 -0)
(-1.24486e-06 -1.0013e+07 -0)
(-1.25334e-06 -1.0013e+07 -0)
(-1.23214e-06 -1.0013e+07 -0)
(-1.17063e-06 -1.0013e+07 -0)
(-1.0646e-06 -1.0013e+07 -0)
(-8.77976e-07 -1.0013e+07 -0)
(-6.35154e-07 -1.0013e+07 -0)
(-3.37194e-07 -1.0013e+07 -0)
(8.16475e-08 -1.0013e+07 -0)
(6.40456e-07 -1.0013e+07 -0)
(1.38801e-06 -1.0013e+07 -0)
(2.51093e-06 -1.0013e+07 -0)
(4.20114e-06 -1.0013e+07 -0)
(6.97397e-06 -1.0013e+07 -0)
(1.20807e-05 -1.0013e+07 -0)
(2.25952e-05 -1.0013e+07 -0)
(4.76938e-05 -1.0013e+07 -0)
(0.00010316 -1.0013e+07 -0)
(0.000156128 -1.0013e+07 -0)
(8.57798e-05 -1.0013e+07 -0)
(-9.28191e-05 -9.65697e+06 -0)
(-0.000169139 -9.65697e+06 -0)
(-0.000112221 -9.65697e+06 -0)
(-5.23052e-05 -9.65697e+06 -0)
(-2.49324e-05 -9.65697e+06 -0)
(-1.33897e-05 -9.65697e+06 -0)
(-7.82564e-06 -9.65697e+06 -0)
(-4.70829e-06 -9.65697e+06 -0)
(-2.79472e-06 -9.65697e+06 -0)
(-1.54228e-06 -9.65697e+06 -0)
(-6.57954e-07 -9.65697e+06 -0)
(-4.12544e-08 -9.65697e+06 -0)
(4.14659e-07 -9.65697e+06 -0)
(7.30943e-07 -9.65697e+06 -0)
(9.9222e-07 -9.65697e+06 -0)
(1.16464e-06 -9.65697e+06 -0)
(1.25561e-06 -9.65697e+06 -0)
(1.33812e-06 -9.65697e+06 -0)
(1.41217e-06 -9.65697e+06 -0)
(1.38784e-06 -9.65697e+06 -0)
(1.29581e-06 -9.65697e+06 -0)
(1.22176e-06 -9.65697e+06 -0)
(1.14137e-06 -9.65697e+06 -0)
(1.03453e-06 -9.65697e+06 -0)
(9.07596e-07 -9.65697e+06 -0)
(7.23538e-07 -9.65697e+06 -0)
(5.76503e-07 -9.65697e+06 -0)
(4.47451e-07 -9.65697e+06 -0)
(2.87723e-07 -9.65697e+06 -0)
(9.30868e-08 -9.65697e+06 -0)
(-8.35665e-08 -9.65697e+06 -0)
(-2.59162e-07 -9.65697e+06 -0)
(-4.51682e-07 -9.65697e+06 -0)
(-6.43145e-07 -9.65697e+06 -0)
(-7.9018e-07 -9.65697e+06 -0)
(-9.15001e-07 -9.65697e+06 -0)
(-1.04934e-06 -9.65697e+06 -0)
(-1.11387e-06 -9.65697e+06 -0)
(-1.20061e-06 -9.65697e+06 -0)
(-1.31802e-06 -9.65697e+06 -0)
(-1.37197e-06 -9.65697e+06 -0)
(-1.38467e-06 -9.65697e+06 -0)
(-1.35716e-06 -9.65697e+06 -0)
(-1.28735e-06 -9.65697e+06 -0)
(-1.1731e-06 -9.65697e+06 -0)
(-9.62602e-07 -9.65697e+06 -0)
(-6.9392e-07 -9.65697e+06 -0)
(-3.67058e-07 -9.65697e+06 -0)
(9.83758e-08 -9.65697e+06 -0)
(7.17191e-07 -9.65697e+06 -0)
(1.54863e-06 -9.65697e+06 -0)
(2.79155e-06 -9.65697e+06 -0)
(4.66069e-06 -9.65697e+06 -0)
(7.72832e-06 -9.65697e+06 -0)
(1.33643e-05 -9.65697e+06 -0)
(2.49367e-05 -9.65697e+06 -0)
(5.23031e-05 -9.65697e+06 -0)
(0.000112232 -9.65697e+06 -0)
(0.000169168 -9.65697e+06 -0)
(9.28244e-05 -9.65697e+06 -0)
(-9.7657e-05 -9.26281e+06 -0)
(-0.00017832 -9.26281e+06 -0)
(-0.000118997 -9.26281e+06 -0)
(-5.60202e-05 -9.26281e+06 -0)
(-2.69061e-05 -9.26281e+06 -0)
(-1.44956e-05 -9.26281e+06 -0)
(-8.48781e-06 -9.26281e+06 -0)
(-5.11661e-06 -9.26281e+06 -0)
(-3.04308e-06 -9.26281e+06 -0)
(-1.6819e-06 -9.26281e+06 -0)
(-7.21872e-07 -9.26281e+06 -0)
(-5.39816e-08 -9.26281e+06 -0)
(4.41379e-07 -9.26281e+06 -0)
(7.81146e-07 -9.26281e+06 -0)
(1.05952e-06 -9.26281e+06 -0)
(1.25428e-06 -9.26281e+06 -0)
(1.35589e-06 -9.26281e+06 -0)
(1.44692e-06 -9.26281e+06 -0)
(1.52207e-06 -9.26281e+06 -0)
(1.49667e-06 -9.26281e+06 -0)
(1.39717e-06 -9.26281e+06 -0)
(1.3199e-06 -9.26281e+06 -0)
(1.22782e-06 -9.26281e+06 -0)
(1.11668e-06 -9.26281e+06 -0)
(9.82253e-07 -9.26281e+06 -0)
(7.81146e-07 -9.26281e+06 -0)
(6.22376e-07 -9.26281e+06 -0)
(4.85834e-07 -9.26281e+06 -0)
(3.1013e-07 -9.26281e+06 -0)
(1.02671e-07 -9.26281e+06 -0)
(-8.99693e-08 -9.26281e+06 -0)
(-2.8261e-07 -9.26281e+06 -0)
(-4.85834e-07 -9.26281e+06 -0)
(-6.93293e-07 -9.26281e+06 -0)
(-8.57355e-07 -9.26281e+06 -0)
(-9.92838e-07 -9.26281e+06 -0)
(-1.13467e-06 -9.26281e+06 -0)
(-1.2003e-06 -9.26281e+06 -0)
(-1.29238e-06 -9.26281e+06 -0)
(-1.4194e-06 -9.26281e+06 -0)
(-1.48079e-06 -9.26281e+06 -0)
(-1.49455e-06 -9.26281e+06 -0)
(-1.46385e-06 -9.26281e+06 -0)
(-1.38659e-06 -9.26281e+06 -0)
(-1.25745e-06 -9.26281e+06 -0)
(-1.03518e-06 -9.26281e+06 -0)
(-7.43041e-07 -9.26281e+06 -0)
(-3.8528e-07 -9.26281e+06 -0)
(1.16431e-07 -9.26281e+06 -0)
(7.90672e-07 -9.26281e+06 -0)
(1.6946e-06 -9.26281e+06 -0)
(3.03673e-06 -9.26281e+06 -0)
(5.06263e-06 -9.26281e+06 -0)
(8.37879e-06 -9.26281e+06 -0)
(1.4466e-05 -9.26281e+06 -0)
(2.69135e-05 -9.26281e+06 -0)
(5.6016e-05 -9.26281e+06 -0)
(0.000119006 -9.26281e+06 -0)
(0.00017835 -9.26281e+06 -0)
(9.76665e-05 -9.26281e+06 -0)
(-9.90549e-05 -8.76102e+06 -0)
(-0.000181412 -8.76102e+06 -0)
(-0.000122032 -8.76102e+06 -0)
(-5.81865e-05 -8.76102e+06 -0)
(-2.82063e-05 -8.76102e+06 -0)
(-1.52571e-05 -8.76102e+06 -0)
(-8.95712e-06 -8.76102e+06 -0)
(-5.41036e-06 -8.76102e+06 -0)
(-3.22279e-06 -8.76102e+06 -0)
(-1.78552e-06 -8.76102e+06 -0)
(-7.75623e-07 -8.76102e+06 -0)
(-6.85925e-08 -8.76102e+06 -0)
(4.51655e-07 -8.76102e+06 -0)
(8.12557e-07 -8.76102e+06 -0)
(1.10381e-06 -8.76102e+06 -0)
(1.30748e-06 -8.76102e+06 -0)
(1.42145e-06 -8.76102e+06 -0)
(1.51326e-06 -8.76102e+06 -0)
(1.59557e-06 -8.76102e+06 -0)
(1.57235e-06 -8.76102e+06 -0)
(1.46471e-06 -8.76102e+06 -0)
(1.3824e-06 -8.76102e+06 -0)
(1.28848e-06 -8.76102e+06 -0)
(1.17135e-06 -8.76102e+06 -0)
(1.02994e-06 -8.76102e+06 -0)
(8.19944e-07 -8.76102e+06 -0)
(6.55322e-07 -8.76102e+06 -0)
(5.09695e-07 -8.76102e+06 -0)
(3.25023e-07 -8.76102e+06 -0)
(1.07637e-07 -8.76102e+06 -0)
(-9.60295e-08 -8.76102e+06 -0)
(-2.95475e-07 -8.76102e+06 -0)
(-5.1075e-07 -8.76102e+06 -0)
(-7.29191e-07 -8.76102e+06 -0)
(-9.012e-07 -8.76102e+06 -0)
(-1.04472e-06 -8.76102e+06 -0)
(-1.18929e-06 -8.76102e+06 -0)
(-1.25894e-06 -8.76102e+06 -0)
(-1.35602e-06 -8.76102e+06 -0)
(-1.48476e-06 -8.76102e+06 -0)
(-1.55125e-06 -8.76102e+06 -0)
(-1.56496e-06 -8.76102e+06 -0)
(-1.5312e-06 -8.76102e+06 -0)
(-1.45099e-06 -8.76102e+06 -0)
(-1.31487e-06 -8.76102e+06 -0)
(-1.07849e-06 -8.76102e+06 -0)
(-7.69291e-07 -8.76102e+06 -0)
(-3.91505e-07 -8.76102e+06 -0)
(1.40351e-07 -8.76102e+06 -0)
(8.52657e-07 -8.76102e+06 -0)
(1.80029e-06 -8.76102e+06 -0)
(3.21963e-06 -8.76102e+06 -0)
(5.35338e-06 -8.76102e+06 -0)
(8.83788e-06 -8.76102e+06 -0)
(1.52212e-05 -8.76102e+06 -0)
(2.82158e-05 -8.76102e+06 -0)
(5.81823e-05 -8.76102e+06 -0)
(0.00012204 -8.76102e+06 -0)
(0.00018144 -8.76102e+06 -0)
(9.90634e-05 -8.76102e+06 -0)
(-9.5854e-05 -8.1029e+06 -0)
(-0.000176305 -8.1029e+06 -0)
(-0.000119912 -8.1029e+06 -0)
(-5.81379e-05 -8.1029e+06 -0)
(-2.85092e-05 -8.1029e+06 -0)
(-1.55049e-05 -8.1029e+06 -0)
(-9.13818e-06 -8.1029e+06 -0)
(-5.52728e-06 -8.1029e+06 -0)
(-3.29845e-06 -8.1029e+06 -0)
(-1.83722e-06 -8.1029e+06 -0)
(-8.08209e-07 -8.1029e+06 -0)
(-8.2279e-08 -8.1029e+06 -0)
(4.46806e-07 -8.1029e+06 -0)
(8.05085e-07 -8.1029e+06 -0)
(1.10296e-06 -8.1029e+06 -0)
(1.31751e-06 -8.1029e+06 -0)
(1.43728e-06 -8.1029e+06 -0)
(1.53101e-06 -8.1029e+06 -0)
(1.61121e-06 -8.1029e+06 -0)
(1.59142e-06 -8.1029e+06 -0)
(1.47998e-06 -8.1029e+06 -0)
(1.39354e-06 -8.1029e+06 -0)
(1.30397e-06 -8.1029e+06 -0)
(1.19044e-06 -8.1029e+06 -0)
(1.04359e-06 -8.1029e+06 -0)
(8.26956e-07 -8.1029e+06 -0)
(6.64481e-07 -8.1029e+06 -0)
(5.16587e-07 -8.1029e+06 -0)
(3.33282e-07 -8.1029e+06 -0)
(1.11441e-07 -8.1029e+06 -0)
(-9.89431e-08 -8.1029e+06 -0)
(-2.97871e-07 -8.1029e+06 -0)
(-5.19712e-07 -8.1029e+06 -0)
(-7.40511e-07 -8.1029e+06 -0)
(-9.15484e-07 -8.1029e+06 -0)
(-1.06234e-06 -8.1029e+06 -0)
(-1.20398e-06 -8.1029e+06 -0)
(-1.27064e-06 -8.1029e+06 -0)
(-1.36958e-06 -8.1029e+06 -0)
(-1.49977e-06 -8.1029e+06 -0)
(-1.56434e-06 -8.1029e+06 -0)
(-1.58413e-06 -8.1029e+06 -0)
(-1.5456e-06 -8.1029e+06 -0)
(-1.46123e-06 -8.1029e+06 -0)
(-1.3248e-06 -8.1029e+06 -0)
(-1.08317e-06 -8.1029e+06 -0)
(-7.65507e-07 -8.1029e+06 -0)
(-3.75984e-07 -8.1029e+06 -0)
(1.64558e-07 -8.1029e+06 -0)
(8.86322e-07 -8.1029e+06 -0)
(1.85284e-06 -8.1029e+06 -0)
(3.29845e-06 -8.1029e+06 -0)
(5.47208e-06 -8.1029e+06 -0)
(9.00799e-06 -8.1029e+06 -0)
(1.54653e-05 -8.1029e+06 -0)
(2.85227e-05 -8.1029e+06 -0)
(5.81296e-05 -8.1029e+06 -0)
(0.000119917 -8.1029e+06 -0)
(0.000176328 -8.1029e+06 -0)
(9.58572e-05 -8.1029e+06 -0)
(-8.72952e-05 -7.26472e+06 -0)
(-0.00016158 -7.26472e+06 -0)
(-0.000111625 -7.26472e+06 -0)
(-5.53319e-05 -7.26472e+06 -0)
(-2.75411e-05 -7.26472e+06 -0)
(-1.50838e-05 -7.26472e+06 -0)
(-8.92739e-06 -7.26472e+06 -0)
(-5.41869e-06 -7.26472e+06 -0)
(-3.24798e-06 -7.26472e+06 -0)
(-1.81297e-06 -7.26472e+06 -0)
(-8.05426e-07 -7.26472e+06 -0)
(-9.70149e-08 -7.26472e+06 -0)
(4.11303e-07 -7.26472e+06 -0)
(7.63992e-07 -7.26472e+06 -0)
(1.05504e-06 -7.26472e+06 -0)
(1.26423e-06 -7.26472e+06 -0)
(1.3865e-06 -7.26472e+06 -0)
(1.47746e-06 -7.26472e+06 -0)
(1.5583e-06 -7.26472e+06 -0)
(1.54618e-06 -7.26472e+06 -0)
(1.43097e-06 -7.26472e+06 -0)
(1.3481e-06 -7.26472e+06 -0)
(1.2622e-06 -7.26472e+06 -0)
(1.14902e-06 -7.26472e+06 -0)
(1.00855e-06 -7.26472e+06 -0)
(8.02394e-07 -7.26472e+06 -0)
(6.47777e-07 -7.26472e+06 -0)
(5.03265e-07 -7.26472e+06 -0)
(3.24394e-07 -7.26472e+06 -0)
(1.08131e-07 -7.26472e+06 -0)
(-9.49938e-08 -7.26472e+06 -0)
(-2.88013e-07 -7.26472e+06 -0)
(-5.02254e-07 -7.26472e+06 -0)
(-7.2357e-07 -7.26472e+06 -0)
(-8.93346e-07 -7.26472e+06 -0)
(-1.03382e-06 -7.26472e+06 -0)
(-1.16418e-06 -7.26472e+06 -0)
(-1.23189e-06 -7.26472e+06 -0)
(-1.32183e-06 -7.26472e+06 -0)
(-1.44613e-06 -7.26472e+06 -0)
(-1.51283e-06 -7.26472e+06 -0)
(-1.53001e-06 -7.26472e+06 -0)
(-1.49261e-06 -7.26472e+06 -0)
(-1.40773e-06 -7.26472e+06 -0)
(-1.2713e-06 -7.26472e+06 -0)
(-1.03685e-06 -7.26472e+06 -0)
(-7.26601e-07 -7.26472e+06 -0)
(-3.43594e-07 -7.26472e+06 -0)
(1.86956e-07 -7.26472e+06 -0)
(8.93346e-07 -7.26472e+06 -0)
(1.83217e-06 -7.26472e+06 -0)
(3.24596e-06 -7.26472e+06 -0)
(5.36311e-06 -7.26472e+06 -0)
(8.79602e-06 -7.26472e+06 -0)
(1.50403e-05 -7.26472e+06 -0)
(2.75563e-05 -7.26472e+06 -0)
(5.53278e-05 -7.26472e+06 -0)
(0.000111626 -7.26472e+06 -0)
(0.0001616 -7.26472e+06 -0)
(8.72932e-05 -7.26472e+06 -0)
(-7.35273e-05 -6.25953e+06 -0)
(-0.000137404 -6.25953e+06 -0)
(-9.70855e-05 -6.25953e+06 -0)
(-4.96084e-05 -6.25953e+06 -0)
(-2.51822e-05 -6.25953e+06 -0)
(-1.39199e-05 -6.25953e+06 -0)
(-8.2888e-06 -6.25953e+06 -0)
(-5.04927e-06 -6.25953e+06 -0)
(-3.0376e-06 -6.25953e+06 -0)
(-1.70829e-06 -6.25953e+06 -0)
(-7.74234e-07 -6.25953e+06 -0)
(-1.10058e-07 -6.25953e+06 -0)
(3.57928e-07 -6.25953e+06 -0)
(6.8236e-07 -6.25953e+06 -0)
(9.47456e-07 -6.25953e+06 -0)
(1.14747e-06 -6.25953e+06 -0)
(1.26806e-06 -6.25953e+06 -0)
(1.35132e-06 -6.25953e+06 -0)
(1.43554e-06 -6.25953e+06 -0)
(1.41927e-06 -6.25953e+06 -0)
(1.3073e-06 -6.25953e+06 -0)
(1.23456e-06 -6.25953e+06 -0)
(1.15704e-06 -6.25953e+06 -0)
(1.05464e-06 -6.25953e+06 -0)
(9.29272e-07 -6.25953e+06 -0)
(7.37867e-07 -6.25953e+06 -0)
(5.93356e-07 -6.25953e+06 -0)
(4.63201e-07 -6.25953e+06 -0)
(3.00506e-07 -6.25953e+06 -0)
(1.04316e-07 -6.25953e+06 -0)
(-8.51753e-08 -6.25953e+06 -0)
(-2.66053e-07 -6.25953e+06 -0)
(-4.66072e-07 -6.25953e+06 -0)
(-6.65133e-07 -6.25953e+06 -0)
(-8.23999e-07 -6.25953e+06 -0)
(-9.57026e-07 -6.25953e+06 -0)
(-1.07187e-06 -6.25953e+06 -0)
(-1.12929e-06 -6.25953e+06 -0)
(-1.20968e-06 -6.25953e+06 -0)
(-1.3207e-06 -6.25953e+06 -0)
(-1.38673e-06 -6.25953e+06 -0)
(-1.39917e-06 -6.25953e+06 -0)
(-1.35993e-06 -6.25953e+06 -0)
(-1.27954e-06 -6.25953e+06 -0)
(-1.15896e-06 -6.25953e+06 -0)
(-9.41714e-07 -6.25953e+06 -0)
(-6.4695e-07 -6.25953e+06 -0)
(-2.85194e-07 -6.25953e+06 -0)
(2.05761e-07 -6.25953e+06 -0)
(8.58452e-07 -6.25953e+06 -0)
(1.72935e-06 -6.25953e+06 -0)
(3.03664e-06 -6.25953e+06 -0)
(4.99759e-06 -6.25953e+06 -0)
(8.16439e-06 -6.25953e+06 -0)
(1.38711e-05 -6.25953e+06 -0)
(2.51985e-05 -6.25953e+06 -0)
(4.96055e-05 -6.25953e+06 -0)
(9.70788e-05 -6.25953e+06 -0)
(0.000137416 -6.25953e+06 -0)
(7.35293e-05 -6.25953e+06 -0)
(-5.59766e-05 -5.14481e+06 -0)
(-0.000106181 -5.14481e+06 -0)
(-7.76251e-05 -5.14481e+06 -0)
(-4.14014e-05 -5.14481e+06 -0)
(-2.15756e-05 -5.14481e+06 -0)
(-1.20796e-05 -5.14481e+06 -0)