/*--------------------------------*- C++ -*----------------------------------*\
| =========                 |                                                 |
| \\      /  F ield         | foam-extend: Open Source CFD                    |
|  \\    /   O peration     | Version:     4.0                                |
|   \\  /    A nd           | Web:         http://www.foam-extend.org         |
|    \\/     M anipulation  |                                                 |
\*---------------------------------------------------------------------------*/
FoamFile
{
    version     2.0;
    format      ascii;
    class       volVectorField;
    location    "18";
    object      bodyForce;
}
// * * * * * * * * * * * * * * * * * * * * * * * * * * * * * * * * * * * * * //

dimensions      [0 -1 0 0 0 0 0];

internalField   nonuniform List<vector> 
6960
(
(2.65675e-05 -4.48295e+08 -0)
(2.5776e-05 -4.48295e+08 -0)
(-1.27208e-05 -4.48295e+08 -0)
(-1.87503e-05 -4.48295e+08 -0)
(-1.2239e-05 -4.48295e+08 -0)
(-8.83125e-06 -4.48295e+08 -0)
(-5.96464e-06 -4.48295e+08 -0)
(-4.25966e-06 -4.48295e+08 -0)
(-2.9717e-06 -4.48295e+08 -0)
(-2.11865e-06 -4.48295e+08 -0)
(-1.47802e-06 -4.48295e+08 -0)
(-1.0297e-06 -4.48295e+08 -0)
(-6.83111e-07 -4.48295e+08 -0)
(-4.36028e-07 -4.48295e+08 -0)
(-2.30312e-07 -4.48295e+08 -0)
(-7.37894e-08 -4.48295e+08 -0)
(4.24848e-08 -4.48295e+08 -0)
(1.22982e-07 -4.48295e+08 -0)
(1.71057e-07 -4.48295e+08 -0)
(2.1466e-07 -4.48295e+08 -0)
(2.35902e-07 -4.48295e+08 -0)
(2.41493e-07 -4.48295e+08 -0)
(2.40375e-07 -4.48295e+08 -0)
(2.3143e-07 -4.48295e+08 -0)
(2.07952e-07 -4.48295e+08 -0)
(1.62113e-07 -4.48295e+08 -0)
(1.35281e-07 -4.48295e+08 -0)
(1.0733e-07 -4.48295e+08 -0)
(7.04353e-08 -4.48295e+08 -0)
(2.34784e-08 -4.48295e+08 -0)
(-2.57145e-08 -4.48295e+08 -0)
(-6.14912e-08 -4.48295e+08 -0)
(-1.05094e-07 -4.48295e+08 -0)
(-1.39753e-07 -4.48295e+08 -0)
(-1.72175e-07 -4.48295e+08 -0)
(-2.10188e-07 -4.48295e+08 -0)
(-2.21368e-07 -4.48295e+08 -0)
(-2.34784e-07 -4.48295e+08 -0)
(-2.48201e-07 -4.48295e+08 -0)
(-2.32548e-07 -4.48295e+08 -0)
(-2.2025e-07 -4.48295e+08 -0)
(-1.84473e-07 -4.48295e+08 -0)
(-1.1292e-07 -4.48295e+08 -0)
(-3.46587e-08 -4.48295e+08 -0)
(7.71435e-08 -4.48295e+08 -0)
(2.3143e-07 -4.48295e+08 -0)
(4.2932e-07 -4.48295e+08 -0)
(6.84229e-07 -4.48295e+08 -0)
(1.02858e-06 -4.48295e+08 -0)
(1.47914e-06 -4.48295e+08 -0)
(2.1153e-06 -4.48295e+08 -0)
(2.96387e-06 -4.48295e+08 -0)
(4.2686e-06 -4.48295e+08 -0)
(5.97247e-06 -4.48295e+08 -0)
(8.82901e-06 -4.48295e+08 -0)
(1.22524e-05 -4.48295e+08 -0)
(1.8757e-05 -4.48295e+08 -0)
(1.27208e-05 -4.48295e+08 -0)
(-2.57682e-05 -4.48295e+08 -0)
(-2.65675e-05 -4.48295e+08 -0)
(4.57453e-05 -1.63318e+08 -0)
(4.43863e-05 -1.63318e+08 -0)
(-2.19234e-05 -1.63318e+08 -0)
(-3.23471e-05 -1.63318e+08 -0)
(-2.11263e-05 -1.63318e+08 -0)
(-1.52413e-05 -1.63318e+08 -0)
(-1.03046e-05 -1.63318e+08 -0)
(-7.35782e-06 -1.63318e+08 -0)
(-5.12834e-06 -1.63318e+08 -0)
(-3.66614e-06 -1.63318e+08 -0)
(-2.55299e-06 -1.63318e+08 -0)
(-1.77401e-06 -1.63318e+08 -0)
(-1.18444e-06 -1.63318e+08 -0)
(-7.51319e-07 -1.63318e+08 -0)
(-3.99072e-07 -1.63318e+08 -0)
(-1.30895e-07 -1.63318e+08 -0)
(7.34292e-08 -1.63318e+08 -0)
(2.14967e-07 -1.63318e+08 -0)
(2.96909e-07 -1.63318e+08 -0)
(3.70338e-07 -1.63318e+08 -0)
(4.08649e-07 -1.63318e+08 -0)
(4.12906e-07 -1.63318e+08 -0)
(4.12906e-07 -1.63318e+08 -0)
(4.00136e-07 -1.63318e+08 -0)
(3.5544e-07 -1.63318e+08 -0)
(2.85203e-07 -1.63318e+08 -0)
(2.3625e-07 -1.63318e+08 -0)
(1.83041e-07 -1.63318e+08 -0)
(1.2451e-07 -1.63318e+08 -0)
(4.15034e-08 -1.63318e+08 -0)
(-4.4696e-08 -1.63318e+08 -0)
(-1.09612e-07 -1.63318e+08 -0)
(-1.83041e-07 -1.63318e+08 -0)
(-2.39443e-07 -1.63318e+08 -0)
(-2.95845e-07 -1.63318e+08 -0)
(-3.58632e-07 -1.63318e+08 -0)
(-3.85237e-07 -1.63318e+08 -0)
(-4.07585e-07 -1.63318e+08 -0)
(-4.23548e-07 -1.63318e+08 -0)
(-4.04393e-07 -1.63318e+08 -0)
(-3.82045e-07 -1.63318e+08 -0)
(-3.16065e-07 -1.63318e+08 -0)
(-2.00068e-07 -1.63318e+08 -0)
(-6.06589e-08 -1.63318e+08 -0)
(1.38345e-07 -1.63318e+08 -0)
(4.02264e-07 -1.63318e+08 -0)
(7.35356e-07 -1.63318e+08 -0)
(1.17912e-06 -1.63318e+08 -0)
(1.78146e-06 -1.63318e+08 -0)
(2.55512e-06 -1.63318e+08 -0)
(3.6523e-06 -1.63318e+08 -0)
(5.12408e-06 -1.63318e+08 -0)
(7.37378e-06 -1.63318e+08 -0)
(1.03141e-05 -1.63318e+08 -0)
(1.52456e-05 -1.63318e+08 -0)
(2.11508e-05 -1.63318e+08 -0)
(3.23567e-05 -1.63318e+08 -0)
(2.19159e-05 -1.63318e+08 -0)
(-4.43714e-05 -1.63318e+08 -0)
(-4.57315e-05 -1.63318e+08 -0)
(4.99169e-05 -7.5696e+07 -0)
(4.807e-05 -7.5696e+07 -0)
(-2.40127e-05 -7.5696e+07 -0)
(-3.49285e-05 -7.5696e+07 -0)
(-2.28804e-05 -7.5696e+07 -0)
(-1.65173e-05 -7.5696e+07 -0)
(-1.11739e-05 -7.5696e+07 -0)
(-7.97882e-06 -7.5696e+07 -0)
(-5.56405e-06 -7.5696e+07 -0)
(-3.97298e-06 -7.5696e+07 -0)
(-2.76795e-06 -7.5696e+07 -0)
(-1.92548e-06 -7.5696e+07 -0)
(-1.28482e-06 -7.5696e+07 -0)
(-8.14309e-07 -7.5696e+07 -0)
(-4.34142e-07 -7.5696e+07 -0)
(-1.43149e-07 -7.5696e+07 -0)
(8.21349e-08 -7.5696e+07 -0)
(2.31151e-07 -7.5696e+07 -0)
(3.23846e-07 -7.5696e+07 -0)
(4.00114e-07 -7.5696e+07 -0)
(4.42355e-07 -7.5696e+07 -0)
(4.51742e-07 -7.5696e+07 -0)
(4.48222e-07 -7.5696e+07 -0)
(4.31795e-07 -7.5696e+07 -0)
(3.86034e-07 -7.5696e+07 -0)
(3.10939e-07 -7.5696e+07 -0)
(2.55792e-07 -7.5696e+07 -0)
(1.97124e-07 -7.5696e+07 -0)
(1.34936e-07 -7.5696e+07 -0)
(4.57609e-08 -7.5696e+07 -0)
(-4.92809e-08 -7.5696e+07 -0)
(-1.19682e-07 -7.5696e+07 -0)
(-1.97124e-07 -7.5696e+07 -0)
(-2.56965e-07 -7.5696e+07 -0)
(-3.23846e-07 -7.5696e+07 -0)
(-3.90727e-07 -7.5696e+07 -0)
(-4.16541e-07 -7.5696e+07 -0)
(-4.43528e-07 -7.5696e+07 -0)
(-4.63476e-07 -7.5696e+07 -0)
(-4.40008e-07 -7.5696e+07 -0)
(-4.10675e-07 -7.5696e+07 -0)
(-3.391e-07 -7.5696e+07 -0)
(-2.17071e-07 -7.5696e+07 -0)
(-7.04013e-08 -7.5696e+07 -0)
(1.5371e-07 -7.5696e+07 -0)
(4.34142e-07 -7.5696e+07 -0)
(7.99055e-07 -7.5696e+07 -0)
(1.28013e-06 -7.5696e+07 -0)
(1.93252e-06 -7.5696e+07 -0)
(2.76795e-06 -7.5696e+07 -0)
(3.96477e-06 -7.5696e+07 -0)
(5.56053e-06 -7.5696e+07 -0)
(7.99407e-06 -7.5696e+07 -0)
(1.11844e-05 -7.5696e+07 -0)
(1.6515e-05 -7.5696e+07 -0)
(2.29051e-05 -7.5696e+07 -0)
(3.49437e-05 -7.5696e+07 -0)
(2.40092e-05 -7.5696e+07 -0)
(-4.80583e-05 -7.5696e+07 -0)
(-4.99063e-05 -7.5696e+07 -0)
(4.85064e-05 -4.04755e+07 -0)
(4.65147e-05 -4.04755e+07 -0)
(-2.34456e-05 -4.04755e+07 -0)
(-3.39028e-05 -4.04755e+07 -0)
(-2.23112e-05 -4.04755e+07 -0)
(-1.61082e-05 -4.04755e+07 -0)
(-1.09099e-05 -4.04755e+07 -0)
(-7.79076e-06 -4.04755e+07 -0)
(-5.43449e-06 -4.04755e+07 -0)
(-3.87987e-06 -4.04755e+07 -0)
(-2.70456e-06 -4.04755e+07 -0)
(-1.88036e-06 -4.04755e+07 -0)
(-1.25639e-06 -4.04755e+07 -0)
(-7.94587e-07 -4.04755e+07 -0)
(-4.23027e-07 -4.04755e+07 -0)
(-1.39599e-07 -4.04755e+07 -0)
(7.89651e-08 -4.04755e+07 -0)
(2.24205e-07 -4.04755e+07 -0)
(3.16566e-07 -4.04755e+07 -0)
(3.90595e-07 -4.04755e+07 -0)
(4.30783e-07 -4.04755e+07 -0)
(4.42064e-07 -4.04755e+07 -0)
(4.38538e-07 -4.04755e+07 -0)
(4.22322e-07 -4.04755e+07 -0)
(3.7861e-07 -4.04755e+07 -0)
(3.0317e-07 -4.04755e+07 -0)
(2.49586e-07 -4.04755e+07 -0)
(1.92478e-07 -4.04755e+07 -0)
(1.30433e-07 -4.04755e+07 -0)
(4.72381e-08 -4.04755e+07 -0)
(-4.72381e-08 -4.04755e+07 -0)
(-1.19153e-07 -4.04755e+07 -0)
(-1.92478e-07 -4.04755e+07 -0)
(-2.49586e-07 -4.04755e+07 -0)
(-3.20796e-07 -4.04755e+07 -0)
(-3.8002e-07 -4.04755e+07 -0)
(-4.03286e-07 -4.04755e+07 -0)
(-4.34308e-07 -4.04755e+07 -0)
(-4.54755e-07 -4.04755e+07 -0)
(-4.30783e-07 -4.04755e+07 -0)
(-4.01876e-07 -4.04755e+07 -0)
(-3.30666e-07 -4.04755e+07 -0)
(-2.12219e-07 -4.04755e+07 -0)
(-6.55693e-08 -4.04755e+07 -0)
(1.4947e-07 -4.04755e+07 -0)
(4.23027e-07 -4.04755e+07 -0)
(7.81191e-07 -4.04755e+07 -0)
(1.24934e-06 -4.04755e+07 -0)
(1.8867e-06 -4.04755e+07 -0)
(2.70174e-06 -4.04755e+07 -0)
(3.87705e-06 -4.04755e+07 -0)
(5.43379e-06 -4.04755e+07 -0)
(7.80345e-06 -4.04755e+07 -0)
(1.09162e-05 -4.04755e+07 -0)
(1.61096e-05 -4.04755e+07 -0)
(2.23337e-05 -4.04755e+07 -0)
(3.39183e-05 -4.04755e+07 -0)
(2.34477e-05 -4.04755e+07 -0)
(-4.65055e-05 -4.04755e+07 -0)
(-4.84966e-05 -4.04755e+07 -0)
(4.47744e-05 -2.38344e+07 -0)
(4.28678e-05 -2.38344e+07 -0)
(-2.17726e-05 -2.38344e+07 -0)
(-3.15022e-05 -2.38344e+07 -0)
(-2.08499e-05 -2.38344e+07 -0)
(-1.5062e-05 -2.38344e+07 -0)
(-1.02111e-05 -2.38344e+07 -0)
(-7.29199e-06 -2.38344e+07 -0)
(-5.08984e-06 -2.38344e+07 -0)
(-3.63342e-06 -2.38344e+07 -0)
(-2.53189e-06 -2.38344e+07 -0)
(-1.761e-06 -2.38344e+07 -0)
(-1.1779e-06 -2.38344e+07 -0)
(-7.43934e-07 -2.38344e+07 -0)
(-3.9353e-07 -2.38344e+07 -0)
(-1.2938e-07 -2.38344e+07 -0)
(7.27761e-08 -2.38344e+07 -0)
(2.09344e-07 -2.38344e+07 -0)
(2.96495e-07 -2.38344e+07 -0)
(3.66576e-07 -2.38344e+07 -0)
(4.04312e-07 -2.38344e+07 -0)
(4.13297e-07 -2.38344e+07 -0)
(4.12398e-07 -2.38344e+07 -0)
(3.95327e-07 -2.38344e+07 -0)
(3.53099e-07 -2.38344e+07 -0)
(2.84815e-07 -2.38344e+07 -0)
(2.33602e-07 -2.38344e+07 -0)
(1.80593e-07 -2.38344e+07 -0)
(1.2309e-07 -2.38344e+07 -0)
(4.40251e-08 -2.38344e+07 -0)
(-4.40251e-08 -2.38344e+07 -0)
(-1.12309e-07 -2.38344e+07 -0)
(-1.81491e-07 -2.38344e+07 -0)
(-2.34501e-07 -2.38344e+07 -0)
(-3.00089e-07 -2.38344e+07 -0)
(-3.53997e-07 -2.38344e+07 -0)
(-3.79155e-07 -2.38344e+07 -0)
(-4.10601e-07 -2.38344e+07 -0)
(-4.25875e-07 -2.38344e+07 -0)
(-4.01616e-07 -2.38344e+07 -0)
(-3.76459e-07 -2.38344e+07 -0)
(-3.09074e-07 -2.38344e+07 -0)
(-1.97664e-07 -2.38344e+07 -0)
(-6.19945e-08 -2.38344e+07 -0)
(1.39263e-07 -2.38344e+07 -0)
(3.96226e-07 -2.38344e+07 -0)
(7.31355e-07 -2.38344e+07 -0)
(1.16891e-06 -2.38344e+07 -0)
(1.76909e-06 -2.38344e+07 -0)
(2.53009e-06 -2.38344e+07 -0)
(3.62892e-06 -2.38344e+07 -0)
(5.08714e-06 -2.38344e+07 -0)
(7.30277e-06 -2.38344e+07 -0)
(1.02165e-05 -2.38344e+07 -0)
(1.50638e-05 -2.38344e+07 -0)
(2.08733e-05 -2.38344e+07 -0)
(3.15157e-05 -2.38344e+07 -0)
(2.17753e-05 -2.38344e+07 -0)
(-4.28588e-05 -2.38344e+07 -0)
(-4.47663e-05 -2.38344e+07 -0)
(4.03629e-05 -1.50856e+07 -0)
(3.86193e-05 -1.50856e+07 -0)
(-1.97682e-05 -1.50856e+07 -0)
(-2.86911e-05 -1.50856e+07 -0)
(-1.91166e-05 -1.50856e+07 -0)
(-1.38187e-05 -1.50856e+07 -0)
(-9.37671e-06 -1.50856e+07 -0)
(-6.69688e-06 -1.50856e+07 -0)
(-4.67397e-06 -1.50856e+07 -0)
(-3.34035e-06 -1.50856e+07 -0)
(-2.3244e-06 -1.50856e+07 -0)
(-1.61833e-06 -1.50856e+07 -0)
(-1.08368e-06 -1.50856e+07 -0)
(-6.82694e-07 -1.50856e+07 -0)
(-3.62625e-07 -1.50856e+07 -0)
(-1.19876e-07 -1.50856e+07 -0)
(6.71306e-08 -1.50856e+07 -0)
(1.93e-07 -1.50856e+07 -0)
(2.72119e-07 -1.50856e+07 -0)
(3.37451e-07 -1.50856e+07 -0)
(3.71616e-07 -1.50856e+07 -0)
(3.81805e-07 -1.50856e+07 -0)
(3.78808e-07 -1.50856e+07 -0)
(3.61426e-07 -1.50856e+07 -0)
(3.24864e-07 -1.50856e+07 -0)
(2.61929e-07 -1.50856e+07 -0)
(2.15777e-07 -1.50856e+07 -0)
(1.65429e-07 -1.50856e+07 -0)
(1.13882e-07 -1.50856e+07 -0)
(4.19566e-08 -1.50856e+07 -0)
(-4.13572e-08 -1.50856e+07 -0)
(-1.03093e-07 -1.50856e+07 -0)
(-1.66628e-07 -1.50856e+07 -0)
(-2.15178e-07 -1.50856e+07 -0)
(-2.75116e-07 -1.50856e+07 -0)
(-3.26063e-07 -1.50856e+07 -0)
(-3.50638e-07 -1.50856e+07 -0)
(-3.78808e-07 -1.50856e+07 -0)
(-3.90197e-07 -1.50856e+07 -0)
(-3.69818e-07 -1.50856e+07 -0)
(-3.44044e-07 -1.50856e+07 -0)
(-2.85305e-07 -1.50856e+07 -0)
(-1.8341e-07 -1.50856e+07 -0)
(-5.63418e-08 -1.50856e+07 -0)
(1.28867e-07 -1.50856e+07 -0)
(3.63224e-07 -1.50856e+07 -0)
(6.72505e-07 -1.50856e+07 -0)
(1.07589e-06 -1.50856e+07 -0)
(1.62432e-06 -1.50856e+07 -0)
(2.3256e-06 -1.50856e+07 -0)
(3.33495e-06 -1.50856e+07 -0)
(4.67337e-06 -1.50856e+07 -0)
(6.70407e-06 -1.50856e+07 -0)
(9.3815e-06 -1.50856e+07 -0)
(1.38205e-05 -1.50856e+07 -0)
(1.9137e-05 -1.50856e+07 -0)
(2.87067e-05 -1.50856e+07 -0)
(1.97694e-05 -1.50856e+07 -0)
(-3.86097e-05 -1.50856e+07 -0)
(-4.03527e-05 -1.50856e+07 -0)
(3.61194e-05 -1.01347e+07 -0)
(3.45425e-05 -1.01347e+07 -0)
(-1.78329e-05 -1.01347e+07 -0)
(-2.59846e-05 -1.01347e+07 -0)
(-1.74333e-05 -1.01347e+07 -0)
(-1.26117e-05 -1.01347e+07 -0)
(-8.56583e-06 -1.01347e+07 -0)
(-6.11774e-06 -1.01347e+07 -0)
(-4.27084e-06 -1.01347e+07 -0)
(-3.0522e-06 -1.01347e+07 -0)
(-2.12604e-06 -1.01347e+07 -0)
(-1.48027e-06 -1.01347e+07 -0)
(-9.90737e-07 -1.01347e+07 -0)
(-6.23273e-07 -1.01347e+07 -0)
(-3.32468e-07 -1.01347e+07 -0)
(-1.09156e-07 -1.01347e+07 -0)
(6.20773e-08 -1.01347e+07 -0)
(1.74983e-07 -1.01347e+07 -0)
(2.49559e-07 -1.01347e+07 -0)
(3.07887e-07 -1.01347e+07 -0)
(3.39134e-07 -1.01347e+07 -0)
(3.49966e-07 -1.01347e+07 -0)
(3.4705e-07 -1.01347e+07 -0)
(3.31634e-07 -1.01347e+07 -0)
(2.96221e-07 -1.01347e+07 -0)
(2.39977e-07 -1.01347e+07 -0)
(1.97064e-07 -1.01347e+07 -0)
(1.52485e-07 -1.01347e+07 -0)
(1.04573e-07 -1.01347e+07 -0)
(3.58299e-08 -1.01347e+07 -0)
(-3.58299e-08 -1.01347e+07 -0)
(-9.33243e-08 -1.01347e+07 -0)
(-1.53735e-07 -1.01347e+07 -0)
(-1.97481e-07 -1.01347e+07 -0)
(-2.52475e-07 -1.01347e+07 -0)
(-2.97054e-07 -1.01347e+07 -0)
(-3.20386e-07 -1.01347e+07 -0)
(-3.4705e-07 -1.01347e+07 -0)
(-3.56632e-07 -1.01347e+07 -0)
(-3.37884e-07 -1.01347e+07 -0)
(-3.15386e-07 -1.01347e+07 -0)
(-2.60808e-07 -1.01347e+07 -0)
(-1.679e-07 -1.01347e+07 -0)
(-5.1245e-08 -1.01347e+07 -0)
(1.16239e-07 -1.01347e+07 -0)
(3.32468e-07 -1.01347e+07 -0)
(6.1619e-07 -1.01347e+07 -0)
(9.82405e-07 -1.01347e+07 -0)
(1.48527e-06 -1.01347e+07 -0)
(2.12479e-06 -1.01347e+07 -0)
(3.04762e-06 -1.01347e+07 -0)
(4.27375e-06 -1.01347e+07 -0)
(6.12399e-06 -1.01347e+07 -0)
(8.57e-06 -1.01347e+07 -0)
(1.26142e-05 -1.01347e+07 -0)
(1.745e-05 -1.01347e+07 -0)
(2.59983e-05 -1.01347e+07 -0)
(1.78349e-05 -1.01347e+07 -0)
(-3.4535e-05 -1.01347e+07 -0)
(-3.61098e-05 -1.01347e+07 -0)
(3.24769e-05 -7.18499e+06 -0)
(3.1042e-05 -7.18499e+06 -0)
(-1.61774e-05 -7.18499e+06 -0)
(-2.36604e-05 -7.18499e+06 -0)
(-1.59837e-05 -7.18499e+06 -0)
(-1.15726e-05 -7.18499e+06 -0)
(-7.86879e-06 -7.18499e+06 -0)
(-5.62039e-06 -7.18499e+06 -0)
(-3.9252e-06 -7.18499e+06 -0)
(-2.80643e-06 -7.18499e+06 -0)
(-1.95491e-06 -7.18499e+06 -0)
(-1.36038e-06 -7.18499e+06 -0)
(-9.11244e-07 -7.18499e+06 -0)
(-5.72808e-07 -7.18499e+06 -0)
(-3.06161e-07 -7.18499e+06 -0)
(-1.01652e-07 -7.18499e+06 -0)
(5.85175e-08 -7.18499e+06 -0)
(1.62884e-07 -7.18499e+06 -0)
(2.29545e-07 -7.18499e+06 -0)
(2.82935e-07 -7.18499e+06 -0)
(3.11289e-07 -7.18499e+06 -0)
(3.21545e-07 -7.18499e+06 -0)
(3.19735e-07 -7.18499e+06 -0)
(3.04955e-07 -7.18499e+06 -0)
(2.73283e-07 -7.18499e+06 -0)
(2.21401e-07 -7.18499e+06 -0)
(1.80982e-07 -7.18499e+06 -0)
(1.39658e-07 -7.18499e+06 -0)
(9.50155e-08 -7.18499e+06 -0)
(3.22751e-08 -7.18499e+06 -0)
(-3.25767e-08 -7.18499e+06 -0)
(-8.47599e-08 -7.18499e+06 -0)
(-1.39959e-07 -7.18499e+06 -0)
(-1.81585e-07 -7.18499e+06 -0)
(-2.33165e-07 -7.18499e+06 -0)
(-2.74489e-07 -7.18499e+06 -0)
(-2.95001e-07 -7.18499e+06 -0)
(-3.19131e-07 -7.18499e+06 -0)
(-3.27577e-07 -7.18499e+06 -0)
(-3.10987e-07 -7.18499e+06 -0)
(-2.89571e-07 -7.18499e+06 -0)
(-2.41611e-07 -7.18499e+06 -0)
(-1.54136e-07 -7.18499e+06 -0)
(-4.55471e-08 -7.18499e+06 -0)
(1.05573e-07 -7.18499e+06 -0)
(3.05256e-07 -7.18499e+06 -0)
(5.66172e-07 -7.18499e+06 -0)
(9.04005e-07 -7.18499e+06 -0)
(1.36581e-06 -7.18499e+06 -0)
(1.9534e-06 -7.18499e+06 -0)
(2.8022e-06 -7.18499e+06 -0)
(3.92791e-06 -7.18499e+06 -0)
(5.62612e-06 -7.18499e+06 -0)
(7.87181e-06 -7.18499e+06 -0)
(1.15759e-05 -7.18499e+06 -0)
(1.59988e-05 -7.18499e+06 -0)
(2.36721e-05 -7.18499e+06 -0)
(1.61792e-05 -7.18499e+06 -0)
(-3.10348e-05 -7.18499e+06 -0)
(-3.24682e-05 -7.18499e+06 -0)
(2.96226e-05 -5.36348e+06 -0)
(2.82915e-05 -5.36348e+06 -0)
(-1.48977e-05 -5.36348e+06 -0)
(-2.18605e-05 -5.36348e+06 -0)
(-1.48667e-05 -5.36348e+06 -0)
(-1.07739e-05 -5.36348e+06 -0)
(-7.33422e-06 -5.36348e+06 -0)
(-5.23931e-06 -5.36348e+06 -0)
(-3.66073e-06 -5.36348e+06 -0)
(-2.61761e-06 -5.36348e+06 -0)
(-1.82376e-06 -5.36348e+06 -0)
(-1.27007e-06 -5.36348e+06 -0)
(-8.49902e-07 -5.36348e+06 -0)
(-5.34549e-07 -5.36348e+06 -0)
(-2.86187e-07 -5.36348e+06 -0)
(-9.38765e-08 -5.36348e+06 -0)
(5.46854e-08 -5.36348e+06 -0)
(1.51296e-07 -5.36348e+06 -0)
(2.16007e-07 -5.36348e+06 -0)
(2.63857e-07 -5.36348e+06 -0)
(2.90288e-07 -5.36348e+06 -0)
(3.00769e-07 -5.36348e+06 -0)
(2.98491e-07 -5.36348e+06 -0)
(2.84364e-07 -5.36348e+06 -0)
(2.54743e-07 -5.36348e+06 -0)
(2.06893e-07 -5.36348e+06 -0)
(1.68613e-07 -5.36348e+06 -0)
(1.31245e-07 -5.36348e+06 -0)
(8.79523e-08 -5.36348e+06 -0)
(3.00769e-08 -5.36348e+06 -0)
(-2.96212e-08 -5.36348e+06 -0)
(-7.92938e-08 -5.36348e+06 -0)
(-1.30333e-07 -5.36348e+06 -0)
(-1.69525e-07 -5.36348e+06 -0)
(-2.1783e-07 -5.36348e+06 -0)
(-2.56565e-07 -5.36348e+06 -0)
(-2.75705e-07 -5.36348e+06 -0)
(-2.98035e-07 -5.36348e+06 -0)
(-3.05782e-07 -5.36348e+06 -0)
(-2.90744e-07 -5.36348e+06 -0)
(-2.70237e-07 -5.36348e+06 -0)
(-2.25121e-07 -5.36348e+06 -0)
(-1.44005e-07 -5.36348e+06 -0)
(-4.19254e-08 -5.36348e+06 -0)
(9.79779e-08 -5.36348e+06 -0)
(2.83908e-07 -5.36348e+06 -0)
(5.29081e-07 -5.36348e+06 -0)
(8.42154e-07 -5.36348e+06 -0)
(1.27417e-06 -5.36348e+06 -0)
(1.8233e-06 -5.36348e+06 -0)
(2.6135e-06 -5.36348e+06 -0)
(3.66346e-06 -5.36348e+06 -0)
(5.24387e-06 -5.36348e+06 -0)
(7.33695e-06 -5.36348e+06 -0)
(1.0778e-05 -5.36348e+06 -0)
(1.48813e-05 -5.36348e+06 -0)
(2.18705e-05 -5.36348e+06 -0)
(1.48995e-05 -5.36348e+06 -0)
(-2.82851e-05 -5.36348e+06 -0)
(-2.96149e-05 -5.36348e+06 -0)
(2.76029e-05 -4.21057e+06 -0)
(2.63333e-05 -4.21057e+06 -0)
(-1.40265e-05 -4.21057e+06 -0)
(-2.0633e-05 -4.21057e+06 -0)
(-1.41222e-05 -4.21057e+06 -0)
(-1.02464e-05 -4.21057e+06 -0)
(-6.98213e-06 -4.21057e+06 -0)
(-4.98899e-06 -4.21057e+06 -0)
(-3.48765e-06 -4.21057e+06 -0)
(-2.49467e-06 -4.21057e+06 -0)
(-1.73807e-06 -4.21057e+06 -0)
(-1.21028e-06 -4.21057e+06 -0)
(-8.10211e-07 -4.21057e+06 -0)
(-5.0872e-07 -4.21057e+06 -0)
(-2.73068e-07 -4.21057e+06 -0)
(-8.95837e-08 -4.21057e+06 -0)
(5.21672e-08 -4.21057e+06 -0)
(1.44629e-07 -4.21057e+06 -0)
(2.0615e-07 -4.21057e+06 -0)
(2.52202e-07 -4.21057e+06 -0)
(2.77026e-07 -4.21057e+06 -0)
(2.8638e-07 -4.21057e+06 -0)
(2.84941e-07 -4.21057e+06 -0)
(2.7055e-07 -4.21057e+06 -0)
(2.42488e-07 -4.21057e+06 -0)
(1.97876e-07 -4.21057e+06 -0)
(1.61179e-07 -4.21057e+06 -0)
(1.25921e-07 -4.21057e+06 -0)
(8.31078e-08 -4.21057e+06 -0)
(2.77026e-08 -4.21057e+06 -0)
(-2.77026e-08 -4.21057e+06 -0)
(-7.55525e-08 -4.21057e+06 -0)
(-1.24122e-07 -4.21057e+06 -0)
(-1.61539e-07 -4.21057e+06 -0)
(-2.07949e-07 -4.21057e+06 -0)
(-2.45006e-07 -4.21057e+06 -0)
(-2.62635e-07 -4.21057e+06 -0)
(-2.84221e-07 -4.21057e+06 -0)
(-2.91777e-07 -4.21057e+06 -0)
(-2.78105e-07 -4.21057e+06 -0)
(-2.57958e-07 -4.21057e+06 -0)
(-2.14425e-07 -4.21057e+06 -0)
(-1.37793e-07 -4.21057e+06 -0)
(-3.92154e-08 -4.21057e+06 -0)
(9.35412e-08 -4.21057e+06 -0)
(2.6983e-07 -4.21057e+06 -0)
(5.03324e-07 -4.21057e+06 -0)
(8.03735e-07 -4.21057e+06 -0)
(1.2146e-06 -4.21057e+06 -0)
(1.73699e-06 -4.21057e+06 -0)
(2.49072e-06 -4.21057e+06 -0)
(3.49017e-06 -4.21057e+06 -0)
(4.99366e-06 -4.21057e+06 -0)
(6.98465e-06 -4.21057e+06 -0)
(1.02507e-05 -4.21057e+06 -0)
(1.41366e-05 -4.21057e+06 -0)
(2.06424e-05 -4.21057e+06 -0)
(1.40276e-05 -4.21057e+06 -0)
(-2.63265e-05 -4.21057e+06 -0)
(-2.75947e-05 -4.21057e+06 -0)
(2.63696e-05 -3.46853e+06 -0)
(2.51209e-05 -3.46853e+06 -0)
(-1.35492e-05 -3.46853e+06 -0)
(-1.99677e-05 -3.46853e+06 -0)
(-1.37513e-05 -3.46853e+06 -0)
(-9.98845e-06 -3.46853e+06 -0)
(-6.81451e-06 -3.46853e+06 -0)
(-4.8706e-06 -3.46853e+06 -0)
(-3.40666e-06 -3.46853e+06 -0)
(-2.43753e-06 -3.46853e+06 -0)
(-1.69754e-06 -3.46853e+06 -0)
(-1.18285e-06 -3.46853e+06 -0)
(-7.91929e-07 -3.46853e+06 -0)
(-4.97478e-07 -3.46853e+06 -0)
(-2.66846e-07 -3.46853e+06 -0)
(-8.78602e-08 -3.46853e+06 -0)
(5.13507e-08 -3.46853e+06 -0)
(1.42179e-07 -3.46853e+06 -0)
(2.02138e-07 -3.46853e+06 -0)
(2.46365e-07 -3.46853e+06 -0)
(2.70407e-07 -3.46853e+06 -0)
(2.80203e-07 -3.46853e+06 -0)
(2.79015e-07 -3.46853e+06 -0)
(2.65065e-07 -3.46853e+06 -0)
(2.36569e-07 -3.46853e+06 -0)
(1.9353e-07 -3.46853e+06 -0)
(1.57911e-07 -3.46853e+06 -0)
(1.22886e-07 -3.46853e+06 -0)
(8.133e-08 -3.46853e+06 -0)
(2.70111e-08 -3.46853e+06 -0)
(-2.70111e-08 -3.46853e+06 -0)
(-7.30189e-08 -3.46853e+06 -0)
(-1.21401e-07 -3.46853e+06 -0)
(-1.58208e-07 -3.46853e+06 -0)
(-2.03028e-07 -3.46853e+06 -0)
(-2.39835e-07 -3.46853e+06 -0)
(-2.57644e-07 -3.46853e+06 -0)
(-2.78422e-07 -3.46853e+06 -0)
(-2.85249e-07 -3.46853e+06 -0)
(-2.71892e-07 -3.46853e+06 -0)
(-2.52598e-07 -3.46853e+06 -0)
(-2.10152e-07 -3.46853e+06 -0)
(-1.34758e-07 -3.46853e+06 -0)
(-3.85872e-08 -3.46853e+06 -0)
(9.08284e-08 -3.46853e+06 -0)
(2.63877e-07 -3.46853e+06 -0)
(4.92432e-07 -3.46853e+06 -0)
(7.85102e-07 -3.46853e+06 -0)
(1.187e-06 -3.46853e+06 -0)
(1.69724e-06 -3.46853e+06 -0)
(2.43456e-06 -3.46853e+06 -0)
(3.40933e-06 -3.46853e+06 -0)
(4.87475e-06 -3.46853e+06 -0)
(6.81718e-06 -3.46853e+06 -0)
(9.99202e-06 -3.46853e+06 -0)
(1.37656e-05 -3.46853e+06 -0)
(1.9976e-05 -3.46853e+06 -0)
(1.35512e-05 -3.46853e+06 -0)
(-2.51144e-05 -3.46853e+06 -0)
(-2.63637e-05 -3.46853e+06 -0)
(2.58302e-05 -2.98542e+06 -0)
(2.45604e-05 -2.98542e+06 -0)
(-1.34317e-05 -2.98542e+06 -0)
(-1.98113e-05 -2.98542e+06 -0)
(-1.3726e-05 -2.98542e+06 -0)
(-9.98324e-06 -2.98542e+06 -0)
(-6.81935e-06 -2.98542e+06 -0)
(-4.87498e-06 -2.98542e+06 -0)
(-3.41274e-06 -2.98542e+06 -0)
(-2.44183e-06 -2.98542e+06 -0)
(-1.70063e-06 -2.98542e+06 -0)
(-1.18505e-06 -2.98542e+06 -0)
(-7.92758e-07 -2.98542e+06 -0)
(-4.98728e-07 -2.98542e+06 -0)
(-2.67996e-07 -2.98542e+06 -0)
(-8.78007e-08 -2.98542e+06 -0)
(5.18126e-08 -2.98542e+06 -0)
(1.43442e-07 -2.98542e+06 -0)
(2.03167e-07 -2.98542e+06 -0)
(2.46812e-07 -2.98542e+06 -0)
(2.70804e-07 -2.98542e+06 -0)
(2.81013e-07 -2.98542e+06 -0)
(2.80247e-07 -2.98542e+06 -0)
(2.65699e-07 -2.98542e+06 -0)
(2.36858e-07 -2.98542e+06 -0)
(1.93723e-07 -2.98542e+06 -0)
(1.58501e-07 -2.98542e+06 -0)
(1.24044e-07 -2.98542e+06 -0)
(8.14198e-08 -2.98542e+06 -0)
(2.67996e-08 -2.98542e+06 -0)
(-2.73101e-08 -2.98542e+06 -0)
(-7.32523e-08 -2.98542e+06 -0)
(-1.20981e-07 -2.98542e+06 -0)
(-1.58501e-07 -2.98542e+06 -0)
(-2.04188e-07 -2.98542e+06 -0)
(-2.40431e-07 -2.98542e+06 -0)
(-2.59063e-07 -2.98542e+06 -0)
(-2.79737e-07 -2.98542e+06 -0)
(-2.85863e-07 -2.98542e+06 -0)
(-2.73101e-07 -2.98542e+06 -0)
(-2.53193e-07 -2.98542e+06 -0)
(-2.10313e-07 -2.98542e+06 -0)
(-1.3604e-07 -2.98542e+06 -0)
(-3.82852e-08 -2.98542e+06 -0)
(9.11187e-08 -2.98542e+06 -0)
(2.63402e-07 -2.98542e+06 -0)
(4.93368e-07 -2.98542e+06 -0)
(7.87143e-07 -2.98542e+06 -0)
(1.18914e-06 -2.98542e+06 -0)
(1.70063e-06 -2.98542e+06 -0)
(2.43902e-06 -2.98542e+06 -0)
(3.41529e-06 -2.98542e+06 -0)
(4.87906e-06 -2.98542e+06 -0)
(6.82191e-06 -2.98542e+06 -0)
(9.98681e-06 -2.98542e+06 -0)
(1.3739e-05 -2.98542e+06 -0)
(1.98202e-05 -2.98542e+06 -0)
(1.34345e-05 -2.98542e+06 -0)
(-2.45536e-05 -2.98542e+06 -0)
(-2.58244e-05 -2.98542e+06 -0)
(2.586e-05 -2.66811e+06 -0)
(2.45318e-05 -2.66811e+06 -0)
(-1.36241e-05 -2.66811e+06 -0)
(-2.00949e-05 -2.66811e+06 -0)
(-1.40025e-05 -2.66811e+06 -0)
(-1.01981e-05 -2.66811e+06 -0)
(-6.97498e-06 -2.66811e+06 -0)
(-4.98857e-06 -2.66811e+06 -0)
(-3.49466e-06 -2.66811e+06 -0)
(-2.501e-06 -2.66811e+06 -0)
(-1.74244e-06 -2.66811e+06 -0)
(-1.21511e-06 -2.66811e+06 -0)
(-8.1159e-07 -2.66811e+06 -0)
(-5.10032e-07 -2.66811e+06 -0)
(-2.74475e-07 -2.66811e+06 -0)
(-9.01261e-08 -2.66811e+06 -0)
(5.30287e-08 -2.66811e+06 -0)
(1.47024e-07 -2.66811e+06 -0)
(2.08473e-07 -2.66811e+06 -0)
(2.53764e-07 -2.66811e+06 -0)
(2.78572e-07 -2.66811e+06 -0)
(2.87675e-07 -2.66811e+06 -0)
(2.86537e-07 -2.66811e+06 -0)
(2.73109e-07 -2.66811e+06 -0)
(2.43295e-07 -2.66811e+06 -0)
(1.98915e-07 -2.66811e+06 -0)
(1.63183e-07 -2.66811e+06 -0)
(1.26996e-07 -2.66811e+06 -0)
(8.30708e-08 -2.66811e+06 -0)
(2.68557e-08 -2.66811e+06 -0)
(-2.75385e-08 -2.66811e+06 -0)
(-7.51051e-08 -2.66811e+06 -0)
(-1.24037e-07 -2.66811e+06 -0)
(-1.62955e-07 -2.66811e+06 -0)
(-2.09156e-07 -2.66811e+06 -0)
(-2.47164e-07 -2.66811e+06 -0)
(-2.65826e-07 -2.66811e+06 -0)
(-2.86992e-07 -2.66811e+06 -0)
(-2.92455e-07 -2.66811e+06 -0)
(-2.80847e-07 -2.66811e+06 -0)
(-2.59226e-07 -2.66811e+06 -0)
(-2.15756e-07 -2.66811e+06 -0)
(-1.39741e-07 -2.66811e+06 -0)
(-3.96009e-08 -2.66811e+06 -0)
(9.33124e-08 -2.66811e+06 -0)
(2.69013e-07 -2.66811e+06 -0)
(5.05252e-07 -2.66811e+06 -0)
(8.06355e-07 -2.66811e+06 -0)
(1.21898e-06 -2.66811e+06 -0)
(1.74267e-06 -2.66811e+06 -0)
(2.49781e-06 -2.66811e+06 -0)
(3.49694e-06 -2.66811e+06 -0)
(4.99312e-06 -2.66811e+06 -0)
(6.97863e-06 -2.66811e+06 -0)
(1.02025e-05 -2.66811e+06 -0)
(1.40148e-05 -2.66811e+06 -0)
(2.01031e-05 -2.66811e+06 -0)
(1.3627e-05 -2.66811e+06 -0)
(-2.45243e-05 -2.66811e+06 -0)
(-2.5853e-05 -2.66811e+06 -0)
(2.63285e-05 -2.45787e+06 -0)
(2.4905e-05 -2.45787e+06 -0)
(-1.40697e-05 -2.45787e+06 -0)
(-2.07347e-05 -2.45787e+06 -0)
(-1.45299e-05 -2.45787e+06 -0)
(-1.05979e-05 -2.45787e+06 -0)
(-7.25828e-06 -2.45787e+06 -0)
(-5.19482e-06 -2.45787e+06 -0)
(-3.64054e-06 -2.45787e+06 -0)
(-2.60609e-06 -2.45787e+06 -0)
(-1.8165e-06 -2.45787e+06 -0)
(-1.26572e-06 -2.45787e+06 -0)
(-8.46252e-07 -2.45787e+06 -0)
(-5.33011e-07 -2.45787e+06 -0)
(-2.86057e-07 -2.45787e+06 -0)
(-9.30522e-08 -2.45787e+06 -0)
(5.56222e-08 -2.45787e+06 -0)
(1.54111e-07 -2.45787e+06 -0)
(2.17889e-07 -2.45787e+06 -0)
(2.64728e-07 -2.45787e+06 -0)
(2.91076e-07 -2.45787e+06 -0)
(3.00067e-07 -2.45787e+06 -0)
(2.99022e-07 -2.45787e+06 -0)
(2.85012e-07 -2.45787e+06 -0)
(2.53855e-07 -2.45787e+06 -0)
(2.08061e-07 -2.45787e+06 -0)
(1.70003e-07 -2.45787e+06 -0)
(1.32155e-07 -2.45787e+06 -0)
(8.65699e-08 -2.45787e+06 -0)
(2.88566e-08 -2.45787e+06 -0)
(-2.82293e-08 -2.45787e+06 -0)
(-7.79966e-08 -2.45787e+06 -0)
(-1.29855e-07 -2.45787e+06 -0)
(-1.70421e-07 -2.45787e+06 -0)
(-2.18098e-07 -2.45787e+06 -0)
(-2.58455e-07 -2.45787e+06 -0)
(-2.77902e-07 -2.45787e+06 -0)
(-2.99858e-07 -2.45787e+06 -0)
(-3.05086e-07 -2.45787e+06 -0)
(-2.93167e-07 -2.45787e+06 -0)
(-2.70583e-07 -2.45787e+06 -0)
(-2.24998e-07 -2.45787e+06 -0)
(-1.46583e-07 -2.45787e+06 -0)
(-4.16121e-08 -2.45787e+06 -0)
(9.6607e-08 -2.45787e+06 -0)
(2.80202e-07 -2.45787e+06 -0)
(5.27156e-07 -2.45787e+06 -0)
(8.41443e-07 -2.45787e+06 -0)
(1.27074e-06 -2.45787e+06 -0)
(1.8165e-06 -2.45787e+06 -0)
(2.60253e-06 -2.45787e+06 -0)
(3.64242e-06 -2.45787e+06 -0)
(5.19921e-06 -2.45787e+06 -0)
(7.26414e-06 -2.45787e+06 -0)
(1.06031e-05 -2.45787e+06 -0)
(1.45414e-05 -2.45787e+06 -0)
(2.07427e-05 -2.45787e+06 -0)
(1.4073e-05 -2.45787e+06 -0)
(-2.48978e-05 -2.45787e+06 -0)
(-2.63223e-05 -2.45787e+06 -0)
(2.71055e-05 -2.31683e+06 -0)
(2.55511e-05 -2.31683e+06 -0)
(-1.4714e-05 -2.31683e+06 -0)
(-2.16462e-05 -2.31683e+06 -0)
(-1.52529e-05 -2.31683e+06 -0)
(-1.11435e-05 -2.31683e+06 -0)
(-7.64413e-06 -2.31683e+06 -0)
(-5.47341e-06 -2.31683e+06 -0)
(-3.83917e-06 -2.31683e+06 -0)
(-2.7489e-06 -2.31683e+06 -0)
(-1.91742e-06 -2.31683e+06 -0)
(-1.33571e-06 -2.31683e+06 -0)
(-8.92438e-07 -2.31683e+06 -0)
(-5.61264e-07 -2.31683e+06 -0)
(-3.02461e-07 -2.31683e+06 -0)
(-9.79361e-08 -2.31683e+06 -0)
(5.89977e-08 -2.31683e+06 -0)
(1.63227e-07 -2.31683e+06 -0)
(2.30484e-07 -2.31683e+06 -0)
(2.79649e-07 -2.31683e+06 -0)
(3.07968e-07 -2.31683e+06 -0)
(3.17801e-07 -2.31683e+06 -0)
(3.15834e-07 -2.31683e+06 -0)
(3.00888e-07 -2.31683e+06 -0)
(2.68636e-07 -2.31683e+06 -0)
(2.20258e-07 -2.31683e+06 -0)
(1.79353e-07 -2.31683e+06 -0)
(1.40021e-07 -2.31683e+06 -0)
(9.1643e-08 -2.31683e+06 -0)
(3.02855e-08 -2.31683e+06 -0)
(-2.98921e-08 -2.31683e+06 -0)
(-8.22034e-08 -2.31683e+06 -0)
(-1.37268e-07 -2.31683e+06 -0)
(-1.80533e-07 -2.31683e+06 -0)
(-2.30484e-07 -2.31683e+06 -0)
(-2.73356e-07 -2.31683e+06 -0)
(-2.93808e-07 -2.31683e+06 -0)
(-3.17014e-07 -2.31683e+06 -0)
(-3.22914e-07 -2.31683e+06 -0)
(-3.10328e-07 -2.31683e+06 -0)
(-2.86335e-07 -2.31683e+06 -0)
(-2.37564e-07 -2.31683e+06 -0)
(-1.5536e-07 -2.31683e+06 -0)
(-4.40516e-08 -2.31683e+06 -0)
(1.01869e-07 -2.31683e+06 -0)
(2.95382e-07 -2.31683e+06 -0)
(5.56151e-07 -2.31683e+06 -0)
(8.88111e-07 -2.31683e+06 -0)
(1.34161e-06 -2.31683e+06 -0)
(1.91585e-06 -2.31683e+06 -0)
(2.74457e-06 -2.31683e+06 -0)
(3.84114e-06 -2.31683e+06 -0)
(5.47852e-06 -2.31683e+06 -0)
(7.65082e-06 -2.31683e+06 -0)
(1.11494e-05 -2.31683e+06 -0)
(1.52643e-05 -2.31683e+06 -0)
(2.16545e-05 -2.31683e+06 -0)
(1.47179e-05 -2.31683e+06 -0)
(-2.55436e-05 -2.31683e+06 -0)
(-2.70988e-05 -2.31683e+06 -0)
(2.80666e-05 -2.22018e+06 -0)
(2.63464e-05 -2.22018e+06 -0)
(-1.55051e-05 -2.22018e+06 -0)
(-2.27465e-05 -2.22018e+06 -0)
(-1.61179e-05 -2.22018e+06 -0)
(-1.17959e-05 -2.22018e+06 -0)
(-8.10599e-06 -2.22018e+06 -0)
(-5.80763e-06 -2.22018e+06 -0)
(-4.07652e-06 -2.22018e+06 -0)
(-2.92094e-06 -2.22018e+06 -0)
(-2.03788e-06 -2.22018e+06 -0)
(-1.4202e-06 -2.22018e+06 -0)
(-9.48177e-07 -2.22018e+06 -0)
(-5.9661e-07 -2.22018e+06 -0)
(-3.21078e-07 -2.22018e+06 -0)
(-1.03889e-07 -2.22018e+06 -0)
(6.32369e-08 -2.22018e+06 -0)
(1.73525e-07 -2.22018e+06 -0)
(2.46549e-07 -2.22018e+06 -0)
(2.97364e-07 -2.22018e+06 -0)
(3.27477e-07 -2.22018e+06 -0)
(3.39522e-07 -2.22018e+06 -0)
(3.36887e-07 -2.22018e+06 -0)
(3.19949e-07 -2.22018e+06 -0)
(2.86448e-07 -2.22018e+06 -0)
(2.34127e-07 -2.22018e+06 -0)
(1.90463e-07 -2.22018e+06 -0)
(1.50188e-07 -2.22018e+06 -0)
(9.74902e-08 -2.22018e+06 -0)
(3.23713e-08 -2.22018e+06 -0)
(-3.16184e-08 -2.22018e+06 -0)
(-8.84564e-08 -2.22018e+06 -0)
(-1.468e-07 -2.22018e+06 -0)
(-1.92346e-07 -2.22018e+06 -0)
(-2.44667e-07 -2.22018e+06 -0)
(-2.90965e-07 -2.22018e+06 -0)
(-3.12797e-07 -2.22018e+06 -0)
(-3.38016e-07 -2.22018e+06 -0)
(-3.44039e-07 -2.22018e+06 -0)
(-3.31241e-07 -2.22018e+06 -0)
(-3.05269e-07 -2.22018e+06 -0)
(-2.52571e-07 -2.22018e+06 -0)
(-1.65244e-07 -2.22018e+06 -0)
(-4.81805e-08 -2.22018e+06 -0)
(1.08783e-07 -2.22018e+06 -0)
(3.13926e-07 -2.22018e+06 -0)
(5.89835e-07 -2.22018e+06 -0)
(9.44036e-07 -2.22018e+06 -0)
(1.42584e-06 -2.22018e+06 -0)
(2.03638e-06 -2.22018e+06 -0)
(2.91605e-06 -2.22018e+06 -0)
(4.07878e-06 -2.22018e+06 -0)
(5.81441e-06 -2.22018e+06 -0)
(8.11314e-06 -2.22018e+06 -0)
(1.18023e-05 -2.22018e+06 -0)
(1.61295e-05 -2.22018e+06 -0)
(2.27555e-05 -2.22018e+06 -0)
(1.55092e-05 -2.22018e+06 -0)
(-2.63389e-05 -2.22018e+06 -0)
(-2.80591e-05 -2.22018e+06 -0)