/*--------------------------------*- C++ -*----------------------------------*\
| =========                 |                                                 |
| \\      /  F ield         | foam-extend: Open Source CFD                    |
|  \\    /   O peration     | Version:     4.0                                |
|   \\  /    A nd           | Web:         http://www.foam-extend.org         |
|    \\/     M anipulation  |                                                 |
\*---------------------------------------------------------------------------*/
FoamFile
{
    version     2.0;
    format      ascii;
    class       surfaceScalarField;
    location    "12";
    object      phi;
}
// * * * * * * * * * * * * * * * * * * * * * * * * * * * * * * * * * * * * * //

dimensions      [0 3 -1 0 0 0 0];

internalField   nonuniform List<scalar> 
13744
(
-3.81373e-09
3.81379e-09
1.72966e-09
-5.54339e-09
4.92575e-11
1.68041e-09
1.78039e-11
3.14541e-11
9.43401e-12
8.36997e-12
5.43402e-12
3.99986e-12
3.57661e-12
1.8574e-12
2.39784e-12
1.18056e-12
1.70187e-12
6.96387e-13
1.24124e-12
4.60409e-13
9.27909e-13
3.13582e-13
7.11246e-13
2.16549e-13
5.51388e-13
1.59261e-13
4.35311e-13
1.16018e-13
3.45623e-13
9.06497e-14
2.78124e-13
6.81677e-14
2.23822e-13
5.44009e-14
1.81936e-13
4.26326e-14
1.47803e-13
3.39173e-14
1.20211e-13
2.79776e-14
9.76984e-14
2.14273e-14
7.93516e-14
1.90403e-14
6.35939e-14
1.70974e-14
5.07541e-14
1.2601e-14
3.97611e-14
1.11577e-14
2.99372e-14
9.49241e-15
2.16017e-14
8.9373e-15
1.41238e-14
7.43849e-15
6.74821e-15
6.82787e-15
-4.46874e-16
8.54872e-15
-5.59425e-15
4.71845e-15
-1.51834e-14
8.88178e-15
-2.15928e-14
7.60503e-15
-2.88157e-14
6.27276e-15
-4.08571e-14
1.34337e-14
-5.07045e-14
9.99201e-15
-6.24373e-14
1.18794e-14
-8.04612e-14
1.94289e-14
-9.77005e-14
1.77636e-14
-1.19093e-13
2.05946e-14
-1.48939e-13
3.16969e-14
-1.81953e-13
3.20854e-14
-2.22723e-13
4.11893e-14
-2.79262e-13
5.62328e-14
-3.45631e-13
6.65024e-14
-4.34188e-13
8.90954e-14
-5.52482e-13
1.17739e-13
-7.11241e-13
1.59484e-13
-9.26808e-13
2.14495e-13
-1.24238e-12
3.14748e-13
-1.70186e-12
4.59355e-13
-2.39672e-12
6.9611e-13
-3.57769e-12
1.1805e-12
-5.434e-12
1.85596e-12
-9.43289e-12
3.99825e-12
-1.7805e-11
8.37297e-12
-4.92576e-11
3.14525e-11
-1.72966e-09
1.6804e-09
3.81373e-09
-5.54339e-09
3.81373e-09
1.6052e-08
-1.22382e-08
2.61362e-09
7.89502e-09
1.49968e-10
4.14405e-09
5.41204e-11
1.273e-10
2.94468e-11
3.30437e-11
1.66894e-11
1.67573e-11
1.12088e-11
7.3383e-12
7.38843e-12
4.99745e-12
5.33994e-12
2.74536e-12
3.83323e-12
1.96804e-12
2.91109e-12
1.2349e-12
2.20185e-12
9.26093e-13
1.72711e-12
6.35325e-13
1.35097e-12
4.92162e-13
1.08195e-12
3.57214e-13
8.63416e-13
2.86327e-13
7.00779e-13
2.16049e-13
5.65972e-13
1.77081e-13
4.61332e-13
1.37335e-13
3.75004e-13
1.12077e-13
3.05277e-13
9.25371e-14
2.46573e-13
7.67164e-14
1.99345e-13
6.30052e-14
1.5823e-13
5.44564e-14
1.23499e-13
4.61853e-14
9.40639e-14
3.91909e-14
6.74706e-14
3.43059e-14
4.33301e-14
3.23075e-14
2.20325e-14
3.06422e-14
2.27307e-16
2.70894e-14
-2.41244e-14
3.03646e-14
-4.04921e-14
2.7256e-14
-6.74511e-14
3.26961e-14
-9.6781e-14
3.82472e-14
-1.20701e-13
3.43059e-14
-1.58091e-13
4.67404e-14
-2.01962e-13
5.65104e-14
-2.43814e-13
5.72875e-14
-3.05275e-13
7.9603e-14
-3.77738e-13
9.39249e-14
-4.58649e-13
1.08968e-13
-5.66022e-13
1.41165e-13
-7.03568e-13
1.77081e-13
-8.6074e-13
2.14384e-13
-1.08197e-12
2.87659e-13
-1.35368e-12
3.60878e-13
-1.72431e-12
4.88387e-13
-2.20184e-12
6.35603e-13
-2.91388e-12
9.2848e-13
-3.83054e-12
1.23257e-12
-5.33993e-12
1.96865e-12
-7.39113e-12
2.7448e-12
-1.12059e-11
4.99567e-12
-1.66893e-11
7.34024e-12
-2.94495e-11
1.67588e-11
-5.41177e-11
3.30395e-11
-1.49968e-10
1.27305e-10
-2.61362e-09
4.14406e-09
-1.6052e-08
7.89502e-09
-1.22383e-08
1.27411e-08
-2.49793e-08
4.30376e-09
1.63324e-08
2.49576e-10
8.19824e-09
9.20359e-11
2.84843e-10
5.10195e-11
7.40604e-11
2.87916e-11
3.89879e-11
1.94948e-11
1.66337e-11
1.27766e-11
1.17181e-11
9.30069e-12
6.21828e-12
6.6394e-12
4.62688e-12
5.07179e-12
2.80515e-12
3.8181e-12
2.1802e-12
3.00933e-12
1.44204e-12
2.34455e-12
1.15671e-12
1.88463e-12
8.1829e-13
1.50013e-12
6.69936e-13
1.22013e-12
4.98795e-13
9.83712e-13
4.10588e-13
8.03686e-13
3.21937e-13
6.51764e-13
2.67536e-13
5.31568e-13
2.15772e-13
4.29255e-13
1.78357e-13
3.46771e-13
1.44412e-13
2.75315e-13
1.27509e-13
2.15383e-13
1.05554e-13
1.6337e-13
9.20652e-14
1.17495e-13
8.09353e-14
7.57552e-14
7.18037e-14
3.7809e-14
6.36713e-14
-1.73144e-16
6.42264e-14
-3.88558e-14
6.66689e-14
-7.38576e-14
5.81757e-14
-1.17459e-13
7.89091e-14
-1.65076e-13
8.14626e-14
-2.13542e-13
8.48766e-14
-2.75086e-13
1.06165e-13
-3.48306e-13
1.26732e-13
-4.27478e-13
1.37557e-13
-5.31562e-13
1.79745e-13
-6.53492e-13
2.17132e-13
-8.02034e-13
2.59071e-13
-9.83799e-13
3.21243e-13
-1.22195e-12
4.16861e-13
-1.4985e-12
4.88498e-13
-1.88467e-12
6.74349e-13
-2.34624e-12
8.22842e-13
-3.00749e-12
1.15083e-12
-3.81807e-12
1.44376e-12
-5.0736e-12
2.18234e-12
-6.63774e-12
2.79671e-12
-9.30069e-12
4.63241e-12
-1.27783e-11
6.2233e-12
-1.9493e-11
1.17095e-11
-2.87915e-11
1.66362e-11
-5.10212e-11
3.89925e-11
-9.20341e-11
7.4054e-11
-2.49576e-10
2.84844e-10
-4.30376e-09
8.19824e-09
-1.27411e-08
1.63324e-08
-2.49794e-08
4.00634e-09
-2.89857e-08
3.78412e-09
1.65546e-08
3.44826e-10
1.16375e-08
1.3145e-10
4.98218e-10
7.40883e-11
1.31421e-10
4.18446e-11
7.12284e-11
2.84286e-11
3.00523e-11
1.86126e-11
2.15322e-11
1.35864e-11
1.12496e-11
9.68445e-12
8.53127e-12
7.414e-12
5.07232e-12
5.57358e-12
4.01865e-12
4.40092e-12
2.62013e-12
3.42427e-12
2.13391e-12
2.75641e-12
1.48297e-12
2.19242e-12
1.23582e-12
1.78445e-12
9.04124e-13
1.43803e-12
7.60836e-13
1.17596e-12
5.79183e-13
9.52762e-13
4.8675e-13
7.77682e-13
3.89855e-13
6.28091e-13
3.30236e-13
5.07102e-13
2.65989e-13
4.02737e-13
2.29511e-13
3.15438e-13
1.90736e-13
2.38752e-13
1.69177e-13
1.71941e-13
1.49887e-13
1.11082e-13
1.36044e-13
5.47632e-14
1.24172e-13
-4.06492e-16
1.232e-13
-5.44329e-14
1.21993e-13
-1.10834e-13
1.19696e-13
-1.71902e-13
1.33574e-13
-2.38789e-13
1.54578e-13
-3.1521e-13
1.60066e-13
-4.0242e-13
2.00194e-13
-5.06898e-13
2.34604e-13
-6.27945e-13
2.61402e-13
-7.77669e-13
3.31873e-13
-9.52834e-13
3.90521e-13
-1.17599e-12
4.83016e-13
-1.43813e-12
5.88009e-13
-1.78466e-12
7.63514e-13
-2.19248e-12
9.00627e-13
-2.75646e-12
1.23787e-12
-3.42429e-12
1.48582e-12
-4.4007e-12
2.12792e-12
-5.57353e-12
2.6241e-12
-7.41418e-12
4.02193e-12
-9.68447e-12
5.06668e-12
-1.35863e-11
8.53231e-12
-1.86126e-11
1.12511e-11
-2.84284e-11
2.15285e-11
-4.18444e-11
3.00554e-11
-7.40884e-11
7.12295e-11
-1.3145e-10
1.31415e-10
-3.44826e-10
4.98223e-10
-3.78412e-09
1.16375e-08
-4.00634e-09
1.65546e-08
-2.89857e-08
1.80895e-09
-3.07946e-08
2.48174e-09
1.58818e-08
4.38211e-10
1.36811e-08
1.72243e-10
7.64184e-10
9.86871e-11
2.04977e-10
5.589e-11
1.14024e-10
3.80422e-11
4.78982e-11
2.49218e-11
3.4655e-11
1.82158e-11
1.79526e-11
1.29828e-11
1.37634e-11
9.94924e-12
8.11047e-12
7.47723e-12
6.49657e-12
5.90867e-12
4.18191e-12
4.59604e-12
3.44584e-12
3.70183e-12
2.37928e-12
2.94376e-12
1.99366e-12
2.397e-12
1.44876e-12
1.93136e-12
1.22476e-12
1.57993e-12
9.31824e-13
1.27991e-12
7.91749e-13
1.04498e-12
6.23793e-13
8.43945e-13
5.30027e-13
6.81461e-13
4.29885e-13
5.41212e-13
3.68976e-13
4.2399e-13
3.11175e-13
3.20877e-13
2.71255e-13
2.31124e-13
2.32099e-13
1.493e-13
2.16376e-13
7.34427e-14
1.99292e-13
-2.41077e-16
1.96142e-13
-7.30985e-14
1.96676e-13
-1.4925e-13
1.92145e-13
-2.31065e-13
2.19845e-13
-3.20734e-13
2.38691e-13
-4.23882e-13
2.63588e-13
-5.40813e-13
3.1531e-13
-6.81005e-13
3.73708e-13
-8.43952e-13
4.22863e-13
-1.04496e-12
5.35808e-13
-1.27979e-12
6.23862e-13
-1.58016e-12
7.8438e-13
-1.93151e-12
9.30901e-13
-2.39708e-12
1.22776e-12
-2.94403e-12
1.44536e-12
-3.7019e-12
1.99549e-12
-4.59586e-12
2.38545e-12
-5.90859e-12
3.43851e-12
-7.47717e-12
4.18609e-12
-9.94927e-12
6.49673e-12
-1.29831e-11
8.10174e-12
-1.82158e-11
1.37703e-11
-2.49216e-11
1.79533e-11
-3.80421e-11
3.46463e-11
-5.58898e-11
4.79067e-11
-9.86869e-11
1.14025e-10
-1.72243e-10
2.04969e-10
-4.38211e-10
7.64187e-10
-2.48174e-09
1.36811e-08
-1.80895e-09
1.58818e-08
-3.07947e-08
2.35481e-09
-3.31495e-08
1.84802e-09
1.63886e-08
5.31597e-10
1.49975e-08
2.14472e-10
1.08131e-09
1.24845e-10
2.94601e-10
7.09689e-11
1.67901e-10
4.83682e-11
7.04977e-11
3.17303e-11
5.12958e-11
2.32087e-11
2.64731e-11
1.65501e-11
2.04225e-11
1.26892e-11
1.19647e-11
9.53843e-12
9.6391e-12
7.54012e-12
6.18212e-12
5.86572e-12
5.11967e-12
4.72571e-12
3.52261e-12
3.75818e-12
2.95979e-12
3.06084e-12
2.1506e-12
2.46637e-12
1.81875e-12
2.01787e-12
1.3816e-12
1.63482e-12
1.17422e-12
1.3349e-12
9.19181e-13
1.07812e-12
7.85184e-13
8.70684e-13
6.36376e-13
6.91505e-13
5.49647e-13
5.41748e-13
4.60632e-13
4.1007e-13
3.99417e-13
2.95377e-13
3.54997e-13
1.90755e-13
3.20913e-13
9.38431e-14
3.01079e-13
-7.82735e-17
2.90785e-13
-9.37825e-14
2.90327e-13
-1.90461e-13
2.90216e-13
-2.95306e-13
3.23679e-13
-4.10165e-13
3.58623e-13
-5.41343e-13
3.97855e-13
-6.9102e-13
4.57297e-13
-8.70394e-13
5.55604e-13
-1.07785e-12
6.30305e-13
-1.33487e-12
7.90801e-13
-1.63494e-12
9.28316e-13
-2.01789e-12
1.16218e-12
-2.46654e-12
1.38337e-12
-3.0612e-12
1.82162e-12
-3.75825e-12
2.14032e-12
-4.72578e-12
2.96087e-12
-5.86577e-12
3.52257e-12
-7.53976e-12
5.11233e-12
-9.53836e-12
6.18589e-12
-1.26895e-11
9.64748e-12
-1.65501e-11
1.19613e-11
-2.32087e-11
2.04248e-11
-3.17302e-11
2.64782e-11
-4.83677e-11
5.12846e-11
-7.09687e-11
7.05001e-11
-1.24845e-10
1.67909e-10
-2.14471e-10
2.946e-10
-5.31597e-10
1.08132e-09
-1.84802e-09
1.49975e-08
-2.35481e-09
1.63886e-08
-3.31495e-08
2.20831e-09
-3.53578e-08
1.66324e-09
1.69337e-08
6.24301e-10
1.60364e-08
2.58258e-10
1.44735e-09
1.52586e-10
4.00273e-10
8.71215e-11
2.33368e-10
5.94393e-11
9.81837e-11
3.90645e-11
7.1664e-11
2.85852e-11
3.69547e-11
2.04021e-11
2.86055e-11
1.56462e-11
1.67242e-11
1.17671e-11
1.35206e-11
9.30313e-12
8.65081e-12
7.23955e-12
7.18577e-12
5.8331e-12
4.92742e-12
4.63992e-12
4.15467e-12
3.77927e-12
3.01244e-12
3.04579e-12
2.55326e-12
2.49211e-12
1.93654e-12
2.0193e-12
1.64628e-12
1.64897e-12
1.29215e-12
1.33192e-12
1.10475e-12
1.07571e-12
8.94857e-13
8.54417e-13
7.69503e-13
6.69414e-13
6.4599e-13
5.06762e-13
5.6968e-13
3.65035e-13
4.9662e-13
2.3575e-13
4.4767e-13
1.15942e-13
4.09402e-13
-2.42518e-17
4.0536e-13
-1.15918e-13
4.02327e-13
-2.35423e-13
4.09887e-13
-3.6495e-13
4.56239e-13
-5.0686e-13
4.95933e-13
-6.68971e-13
5.56617e-13
-8.53835e-13
6.52565e-13
-1.07536e-12
7.74349e-13
-1.3316e-12
8.8712e-13
-1.64892e-12
1.10624e-12
-2.01945e-12
1.29869e-12
-2.49213e-12
1.63913e-12
-3.046e-12
1.93847e-12
-3.77969e-12
2.55864e-12
-4.64001e-12
3.00422e-12
-5.83318e-12
4.15154e-12
-7.23958e-12
4.93398e-12
-9.30271e-12
7.17935e-12
-1.1767e-11
8.65341e-12
-1.56466e-11
1.35262e-11
-2.04021e-11
1.67154e-11
-2.85852e-11
2.86111e-11
-3.90644e-11
3.69541e-11
-5.94388e-11
7.16599e-11
-8.71212e-11
9.81868e-11
-1.52586e-10
2.33368e-10
-2.58257e-10
4.00273e-10
-6.24301e-10
1.44735e-09
-1.66324e-09
1.60364e-08
-2.20831e-09
1.69337e-08
-3.53578e-08
1.40697e-09
-3.67647e-08
1.48731e-09
1.68533e-08
7.15176e-10
1.68086e-08
3.03634e-10
1.85889e-09
1.81926e-10
5.21984e-10
1.04386e-10
3.10907e-10
7.12882e-11
1.31279e-10
4.69517e-11
9.59997e-11
3.43662e-11
4.95401e-11
2.45557e-11
3.84152e-11
1.88331e-11
2.24459e-11
1.41734e-11
1.81841e-11
1.12058e-11
1.16126e-11
8.72415e-12
9.66746e-12
7.02934e-12
6.62182e-12
5.59333e-12
5.58779e-12
4.55586e-12
4.04421e-12
3.67258e-12
3.44176e-12
3.00503e-12
2.59867e-12
2.43534e-12
2.2121e-12
1.9888e-12
1.74098e-12
1.60666e-12
1.48306e-12
1.29761e-12
1.2013e-12
1.03081e-12
1.03606e-12
8.07671e-13
8.7105e-13
6.11461e-13
7.60406e-13
4.40471e-13
6.62859e-13
2.84488e-13
6.09256e-13
1.39868e-13
5.65738e-13
1.63411e-18
5.45647e-13
-1.39747e-13
5.4361e-13
-2.84277e-13
5.5338e-13
-4.40387e-13
6.07535e-13
-6.11425e-13
6.65214e-13
-8.07291e-13
7.53838e-13
-1.03015e-12
8.7301e-13
-1.29706e-12
1.04176e-12
-1.60644e-12
1.19639e-12
-1.98872e-12
1.49022e-12
-2.43537e-12
1.74223e-12
-3.00519e-12
2.2095e-12
-3.67281e-12
2.60648e-12
-4.5562e-12
3.44338e-12
-5.59357e-12
4.03796e-12
-7.02943e-12
5.59847e-12
-8.72404e-12
6.62306e-12
-1.12055e-11
9.65421e-12
-1.41733e-11
1.16176e-11
-1.88333e-11
1.81876e-11
-2.45558e-11
2.24419e-11
-3.43661e-11
3.84162e-11
-4.69515e-11
4.95439e-11
-7.12878e-11
9.59914e-11
-1.04386e-10
1.31283e-10
-1.81926e-10
3.10911e-10
-3.03634e-10
5.21975e-10
-7.15176e-10
1.8589e-09
-1.48731e-09
1.68086e-08
-1.40697e-09
1.68533e-08
-3.67648e-08
6.05076e-10
-3.73698e-08
1.24282e-09
1.62156e-08
8.03752e-10
1.72476e-08
3.50556e-10
2.31209e-09
2.12872e-10
6.59668e-10
1.228e-10
4.00979e-10
8.3947e-11
1.70129e-10
5.54195e-11
1.24534e-10
4.0573e-11
6.43821e-11
2.90278e-11
4.99582e-11
2.22633e-11
2.92139e-11
1.67683e-11
2.36703e-11
1.32568e-11
1.5124e-11
1.03265e-11
1.25967e-11
8.32006e-12
8.62595e-12
6.62298e-12
7.28506e-12
5.3944e-12
5.27613e-12
4.34979e-12
4.47723e-12
3.55916e-12
3.39765e-12
2.88505e-12
2.88603e-12
2.35608e-12
2.26589e-12
1.90373e-12
1.93935e-12
1.53754e-12
1.56835e-12
1.2216e-12
1.35699e-12
9.57187e-13
1.12718e-12
7.2473e-13
9.90432e-13
5.22097e-13
8.65918e-13
3.37235e-13
7.86213e-13
1.65742e-13
7.31366e-13
3.99669e-17
7.13232e-13
-1.65559e-13
7.08617e-13
-3.37117e-13
7.26821e-13
-5.21994e-13
7.95487e-13
-7.2458e-13
8.72578e-13
-9.56881e-13
9.89209e-13
-1.22085e-12
1.1348e-12
-1.5368e-12
1.35817e-12
-1.90357e-12
1.56217e-12
-2.35599e-12
1.94482e-12
-2.88495e-12
2.26939e-12
-3.55945e-12
2.88274e-12
-4.35007e-12
3.39553e-12
-5.39467e-12
4.48463e-12
-6.62335e-12
5.27211e-12
-8.32017e-12
7.2851e-12
-1.03263e-11
8.62848e-12
-1.32566e-11
1.2587e-11
-1.67682e-11
1.51325e-11
-2.22634e-11
2.36823e-11
-2.9028e-11
2.92047e-11
-4.05729e-11
4.99649e-11
-5.54192e-11
6.43902e-11
-8.39466e-11
1.24528e-10
-1.228e-10
1.70138e-10
-2.12871e-10
4.00984e-10
-3.50556e-10
6.59657e-10
-8.03752e-10
2.31209e-09
-1.24282e-09
1.72476e-08
-6.05075e-10
1.62156e-08
-3.73699e-08
-5.94545e-11
-3.73104e-08
9.90572e-10
1.51656e-08
8.8989e-10
1.73483e-08
3.98969e-10
2.80301e-09
2.45423e-10
8.13212e-10
1.42397e-10
5.04006e-10
9.74472e-11
2.15087e-10
6.44958e-11
1.57484e-10
4.72276e-11
8.166e-11
3.38362e-11
6.3356e-11
2.59507e-11
3.70914e-11
1.9563e-11
3.00661e-11
1.54651e-11
1.9223e-11
1.20539e-11
1.60038e-11
9.71116e-12
1.09717e-11
7.73374e-12
9.26271e-12
6.29882e-12
6.71135e-12
5.08075e-12
5.69666e-12
4.15717e-12
4.31506e-12
3.37063e-12
3.6777e-12
2.75266e-12
2.88326e-12
2.2246e-12
2.46847e-12
1.7967e-12
1.9989e-12
1.42771e-12
1.72069e-12
1.11875e-12
1.44283e-12
8.47162e-13
1.26726e-12
6.10306e-13
1.10698e-12
3.94247e-13
1.00783e-12
1.93732e-13
9.34369e-13
8.04808e-17
9.02197e-13
-1.93498e-13
9.02485e-13
-3.94197e-13
9.23567e-13
-6.1019e-13
1.0113e-12
-8.46918e-13
1.11224e-12
-1.11848e-12
1.25574e-12
-1.4269e-12
1.44717e-12
-1.79581e-12
1.7289e-12
-2.22448e-12
1.98975e-12
-2.75255e-12
2.46763e-12
-3.37044e-12
2.89343e-12
-4.15756e-12
3.66659e-12
-5.08105e-12
4.31639e-12
-6.29905e-12
5.70281e-12
-7.73423e-12
6.70687e-12
-9.71127e-12
9.26188e-12
-1.20536e-11
1.09759e-11
-1.54648e-11
1.59962e-11
-1.95628e-11
1.92264e-11
-2.59508e-11
3.00713e-11
-3.38366e-11
3.70832e-11
-4.72275e-11
6.33523e-11
-6.44954e-11
8.16526e-11
-9.74468e-11
1.57472e-10
-1.42396e-10
2.15086e-10
-2.45423e-10
5.04007e-10
-3.98969e-10
8.13211e-10
-8.8989e-10
2.80302e-09
-9.90572e-10
1.73483e-08
5.94548e-11
1.51655e-08
-3.73104e-08
-6.65481e-10
-3.66449e-08
7.59175e-10
1.37409e-08
9.73396e-10
1.71341e-08
4.48831e-10
3.32758e-09
2.79568e-10
9.82474e-10
1.63207e-10
6.20363e-10
1.11819e-10
2.6646e-10
7.42086e-11
1.95096e-10
5.43524e-11
1.01513e-10
3.89993e-11
7.86997e-11
2.99099e-11
4.61827e-11
2.25691e-11
3.74087e-11
1.78399e-11
2.39541e-11
1.39141e-11
1.9938e-11
1.12088e-11
1.36745e-11
8.93071e-12
1.15483e-11
7.27331e-12
8.36811e-12
5.86886e-12
7.1098e-12
4.80191e-12
5.38603e-12
3.89441e-12
4.5842e-12
3.18043e-12
3.60323e-12
2.57085e-12
3.07592e-12
2.07635e-12
2.48564e-12
1.65022e-12
2.14678e-12
1.29314e-12
1.7992e-12
9.79354e-13
1.57945e-12
7.05555e-13
1.37931e-12
4.55811e-13
1.25398e-12
2.23952e-13
1.16399e-12
1.24572e-16
1.12746e-12
-2.23683e-13
1.12937e-12
-4.55815e-13
1.15784e-12
-7.05419e-13
1.25898e-12
-9.79042e-13
1.37717e-12
-1.2929e-12
1.57443e-12
-1.64933e-12
1.79697e-12
-2.07533e-12
2.15121e-12
-2.57076e-12
2.48845e-12
-3.18028e-12
3.08002e-12
-3.89415e-12
3.60062e-12
-4.80238e-12
4.58315e-12
-5.86918e-12
5.3912e-12
-7.2735e-12
7.10768e-12
-8.9313e-12
8.35989e-12
-1.12089e-11
1.15448e-11
-1.39136e-11
1.3679e-11
-1.78397e-11
1.99271e-11
-2.25689e-11
2.3957e-11
-2.99099e-11
3.74057e-11
-3.89998e-11
4.61862e-11
-5.43523e-11
7.87139e-11
-7.42081e-11
1.01514e-10
-1.11819e-10
1.95089e-10
-1.63206e-10
2.66474e-10
-2.79568e-10
6.20371e-10
-4.48831e-10
9.82469e-10
-9.73396e-10
3.32758e-09
-7.59175e-10
1.71341e-08
6.65482e-10
1.37409e-08
-3.66449e-08
-1.24622e-09
-3.53987e-08
5.47689e-10
1.1947e-08
1.05401e-09
1.66278e-08
5.00098e-10
3.88149e-09
3.15285e-10
1.16729e-09
1.85257e-10
7.50395e-10
1.27093e-10
3.24637e-10
8.45859e-11
2.376e-10
6.19699e-11
1.24123e-10
4.45359e-11
9.61382e-11
3.41557e-11
5.65722e-11
2.57989e-11
4.57582e-11
2.03911e-11
2.93639e-11
1.59149e-11
2.44072e-11
1.28196e-11
1.67762e-11
1.02192e-11
1.41363e-11
8.32227e-12
1.02636e-11
6.71776e-12
8.71011e-12
5.49636e-12
6.60941e-12
4.45887e-12
5.61803e-12
3.64141e-12
4.41645e-12
2.94412e-12
3.77023e-12
2.37787e-12
3.05608e-12
1.89018e-12
2.64058e-12
1.48123e-12
2.20633e-12
1.12197e-12
1.93814e-12
8.08302e-13
1.6842e-12
5.22238e-13
1.54551e-12
2.56572e-13
1.43143e-12
1.74234e-16
1.38299e-12
-2.56262e-13
1.38044e-12
-5.22302e-13
1.42319e-12
-8.08167e-13
1.54879e-12
-1.12156e-12
1.69849e-12
-1.48103e-12
1.9348e-12
-1.88921e-12
2.20907e-12
-2.37669e-12
2.64213e-12
-2.94407e-12
3.04999e-12
-3.64123e-12
3.77932e-12
-4.45851e-12
4.42227e-12
-5.4969e-12
5.61007e-12
-6.71812e-12
6.60341e-12
-8.32242e-12
8.71469e-12
-1.02199e-11
1.02594e-11
-1.28197e-11
1.4143e-11
-1.59144e-11
1.67738e-11
-2.0391e-11
2.43988e-11
-2.57988e-11
2.93652e-11
-3.41556e-11
4.57683e-11
-4.45365e-11
5.65571e-11
-6.19698e-11
9.61411e-11
-8.45852e-11
1.24128e-10
-1.27093e-10
2.37594e-10
-1.85257e-10
3.2464e-10
-3.15285e-10
7.50399e-10
-5.00098e-10
1.16729e-09
-1.05401e-09
3.88149e-09
-5.47688e-10
1.66278e-08
1.24622e-09
1.1947e-08
-3.53987e-08
-1.78526e-09
-3.36134e-08
3.55612e-10
9.80613e-09
1.13149e-09
1.58519e-08
5.52716e-10
4.46027e-09
3.52541e-10
1.36746e-09
2.08571e-10
8.94368e-10
1.43295e-10
3.89912e-10
9.56553e-11
2.85239e-10
7.01032e-11
1.49681e-10
5.04652e-11
1.15776e-10
3.87035e-11
6.832e-11
2.92651e-11
5.51935e-11
2.31289e-11
3.54965e-11
1.80649e-11
2.94779e-11
1.45503e-11
2.02829e-11
1.1605e-11
1.7092e-11
9.4503e-12
1.24207e-11
7.63128e-12
1.05276e-11
6.24364e-12
7.99081e-12
5.0666e-12
6.79463e-12
4.13774e-12
5.34371e-12
3.34618e-12
4.5635e-12
2.70265e-12
3.70408e-12
2.14873e-12
3.18765e-12
1.6839e-12
2.67616e-12
1.27567e-12
2.3488e-12
9.19084e-13
2.05338e-12
5.93851e-13
1.86756e-12
2.91732e-13
1.7288e-12
2.05593e-16
1.67478e-12
-2.91382e-13
1.67796e-12
-5.93959e-13
1.72914e-12
-9.1891e-13
1.87061e-12
-1.2752e-12
2.05352e-12
-1.68374e-12
2.34147e-12
-2.1477e-12
2.67728e-12
-2.70134e-12
3.1959e-12
-3.34615e-12
3.70161e-12
-4.13754e-12
4.5676e-12
-5.06618e-12
5.34948e-12
-6.24427e-12
6.79543e-12
-7.63165e-12
7.99605e-12
-9.45042e-12
1.05338e-11
-1.16057e-11
1.242e-11
-1.45504e-11
1.70848e-11
-1.80643e-11
2.02877e-11
-2.31288e-11
2.94637e-11
-2.92649e-11
3.5504e-11
-3.87034e-11
5.52024e-11
-5.04658e-11
6.83254e-11
-7.01031e-11
1.15775e-10
-9.56545e-11
1.49674e-10
-1.43295e-10
2.85231e-10
-2.0857e-10
3.89916e-10
-3.5254e-10
8.94366e-10
-5.52716e-10
1.36746e-09
-1.13149e-09
4.46027e-09
-3.55611e-10
1.58519e-08
1.78526e-09
9.80612e-09
-3.36135e-08
-2.26032e-09
-3.13531e-08
1.88568e-10
7.35724e-09
1.20566e-09
1.48348e-08
6.06618e-10
5.05931e-09
3.91286e-10
1.5828e-09
2.33164e-10
1.05249e-09
1.60451e-10
4.62614e-10
1.07444e-10
3.38248e-10
7.87752e-11
1.78352e-10
5.68068e-11
1.3775e-10
4.35693e-11
8.15703e-11
3.29807e-11
6.57955e-11
2.60639e-11
4.24135e-11
2.03728e-11
3.51614e-11
1.64081e-11
2.42478e-11
1.30938e-11
2.03992e-11
1.06623e-11
1.48505e-11
8.61344e-12
1.25778e-11
7.0471e-12
9.5611e-12
5.72035e-12
8.123e-12
4.67169e-12
6.39779e-12
3.77891e-12
5.46014e-12
3.0522e-12
4.42789e-12
2.42711e-12
3.81415e-12
1.90212e-12
3.19569e-12
1.44123e-12
2.80277e-12
1.03837e-12
2.4544e-12
6.70984e-13
2.23323e-12
3.29628e-13
2.07865e-12
2.54806e-16
2.00343e-12
-3.29229e-13
2.00538e-12
-6.71153e-13
2.07863e-12
-1.03818e-12
2.23766e-12
-1.44068e-12
2.45047e-12
-1.90199e-12
2.80072e-12
-2.42602e-12
3.19769e-12
-3.05077e-12
3.81816e-12
-3.77888e-12
4.42135e-12
-4.67145e-12
5.46423e-12
-5.71985e-12
6.39704e-12
-7.0478e-12
8.1256e-12
-8.61383e-12
9.55689e-12
-1.06623e-11
1.25745e-11
-1.30947e-11
1.48464e-11
-1.64082e-11
2.04013e-11
-2.03721e-11
2.42531e-11
-2.60638e-11
3.51611e-11
-3.29805e-11
4.24176e-11
-4.35691e-11
6.57949e-11
-5.68074e-11
8.15616e-11
-7.87751e-11
1.37749e-10
-1.07443e-10
1.78352e-10
-1.60451e-10
3.38243e-10
-2.33164e-10
4.62623e-10
-3.91285e-10
1.05249e-09
-6.06619e-10
1.58279e-09
-1.20566e-09
5.05931e-09
-1.88567e-10
1.48348e-08
2.26032e-09
7.35723e-09
-3.13531e-08
-2.65468e-09
-2.86984e-08
5.40457e-11
4.64851e-09
1.27634e-09
1.36125e-08
6.61724e-10
5.67391e-09
4.3146e-10
1.81305e-09
2.59048e-10
1.2249e-09
1.78583e-10
5.43092e-10
1.19978e-10
3.96852e-10
8.8009e-11
2.10322e-10
6.35806e-11
1.62173e-10
4.87692e-11
9.63687e-11
3.69593e-11
7.75941e-11
2.92071e-11
5.01721e-11
2.28476e-11
4.15253e-11
1.84003e-11
2.86954e-11
1.4692e-11
2.4109e-11
1.19633e-11
1.75774e-11
9.66847e-12
1.48738e-11
7.91023e-12
1.13247e-11
6.42302e-12
9.61828e-12
5.24563e-12
7.57194e-12
4.24421e-12
6.45667e-12
3.42812e-12
5.24081e-12
2.72657e-12
4.52088e-12
2.1369e-12
3.7907e-12
1.61941e-12
3.32547e-12
1.16674e-12
2.89855e-12
7.54033e-13
2.65146e-12
3.70403e-13
2.45785e-12
2.945e-16
2.38018e-12
-3.69961e-13
2.37059e-12
-7.54239e-13
2.45163e-12
-1.16655e-12
2.65444e-12
-1.61878e-12
2.90656e-12
-2.13679e-12
3.31998e-12
-2.72543e-12
3.78661e-12
-3.42659e-12
4.52159e-12
-4.24418e-12
5.24888e-12
-5.24536e-12
6.46209e-12
-6.42244e-12
7.57489e-12
-7.91098e-12
9.60176e-12
-9.66888e-12
1.1321e-11
-1.19633e-11
1.48767e-11
-1.46929e-11
1.75794e-11
-1.84004e-11
2.411e-11
-2.28468e-11
2.86969e-11
-2.92071e-11
4.15119e-11
-3.69591e-11
5.01682e-11
-4.87691e-11
7.76058e-11
-6.35814e-11
9.63717e-11
-8.80088e-11
1.62173e-10
-1.19977e-10
2.10318e-10
-1.78583e-10
3.96842e-10
-2.59047e-10
5.43097e-10
-4.3146e-10
1.2249e-09
-6.61724e-10
1.81306e-09
-1.27634e-09
5.67392e-09
-5.40449e-11
1.36125e-08
2.65468e-09
4.6485e-09
-2.86985e-08
-2.95407e-09
-2.57443e-08
-4.11058e-11
1.73555e-09
1.34339e-09
1.2228e-08
7.17935e-10
6.29937e-09
4.72986e-10
2.05801e-09
2.86225e-10
1.41165e-09
1.97712e-10
6.31596e-10
1.33284e-10
4.61282e-10
9.78272e-11
2.4577e-10
7.08069e-11
1.89197e-10
5.43201e-11
1.12867e-10
4.12149e-11
9.07078e-11
3.25699e-11
5.88114e-11
2.54989e-11
4.85973e-11
2.05349e-11
3.36608e-11
1.64059e-11
2.8237e-11
1.33586e-11
2.06305e-11
1.08008e-11
1.74291e-11
8.83668e-12
1.32786e-11
7.17762e-12
1.1266e-11
5.86206e-12
8.89199e-12
4.74418e-12
7.57671e-12
3.8321e-12
6.15237e-12
3.04849e-12
5.29815e-12
2.3893e-12
4.44696e-12
1.81099e-12
3.9033e-12
1.30483e-12
3.40979e-12
8.43335e-13
3.10952e-12
4.14294e-13
2.88754e-12
3.07681e-16
2.78604e-12
-4.13805e-13
2.78924e-12
-8.43559e-13
2.88086e-12
-1.30461e-12
3.10407e-12
-1.81032e-12
3.40734e-12
-2.38921e-12
3.90101e-12
-3.0473e-12
4.44858e-12
-3.83046e-12
5.30267e-12
-4.74415e-12
6.15495e-12
-5.86176e-12
7.58447e-12
-7.17702e-12
8.88779e-12
-8.83745e-12
1.12743e-11
-1.08012e-11
1.3282e-11
-1.33586e-11
1.74338e-11
-1.64068e-11
2.06212e-11
-2.05349e-11
2.82385e-11
-2.5498e-11
3.36602e-11
-3.25699e-11
4.85885e-11
-4.12147e-11
5.88157e-11
-5.43198e-11
9.07088e-11
-7.08077e-11
1.12857e-10
-9.7827e-11
1.89189e-10
-1.33283e-10
2.45771e-10
-1.97711e-10
4.61279e-10
-2.86225e-10
6.31603e-10
-4.72986e-10
1.41166e-09
-7.17935e-10
2.05801e-09
-1.34339e-09
6.29938e-09
4.11067e-11
1.2228e-08
2.95407e-09
1.73554e-09
-2.57444e-08
-3.14569e-09
-2.25986e-08
-9.12782e-11
-1.31887e-09
1.40669e-09
1.073e-08
7.75129e-10
6.93093e-09
5.15771e-10
2.31736e-09
3.14692e-10
1.61274e-09
2.17851e-10
7.28445e-10
1.47384e-10
5.31753e-10
1.08252e-10
2.84913e-10
7.85059e-11
2.18938e-10
6.02387e-11
1.31138e-10
4.57617e-11
1.05177e-10
3.61642e-11
6.84114e-11
2.83364e-11
5.64276e-11
2.28198e-11
3.9182e-11
1.82423e-11
3.28243e-11
1.48539e-11
2.40197e-11
1.20151e-11
2.02683e-11
9.83031e-12
1.54661e-11
7.98743e-12
1.31177e-11
6.52363e-12
1.03533e-11
5.28098e-12
8.82623e-12
4.26589e-12
7.17157e-12
3.3943e-12
6.16918e-12
2.66045e-12
5.17579e-12
2.01688e-12
4.54476e-12
1.45321e-12
3.97725e-12
9.3933e-13
3.62045e-12
4.6146e-13
3.36345e-12
3.45316e-16
3.25348e-12
-4.60952e-13
3.24888e-12
-9.39569e-13
3.36377e-12
-1.45295e-12
3.6305e-12
-2.01615e-12
3.97852e-12
-2.66036e-12
4.54027e-12
-3.39306e-12
5.18102e-12
-4.26418e-12
6.17638e-12
-5.28092e-12
7.1786e-12
-6.52332e-12
8.825e-12
-7.98673e-12
1.03593e-11
-9.83111e-12
1.31139e-11
-1.20156e-11
1.54682e-11
-1.48539e-11
2.02681e-11
-1.82433e-11
2.40192e-11
-2.28199e-11
3.28097e-11
-2.83355e-11
3.91807e-11
-3.61641e-11
5.64197e-11
-4.57615e-11
6.84096e-11
-6.02384e-11
1.05187e-10
-7.85067e-11
1.31132e-10
-1.08252e-10
2.18943e-10
-1.47383e-10
2.84902e-10
-2.17851e-10
5.31741e-10
-3.14691e-10
7.28448e-10
-5.1577e-10
1.61275e-09
-7.75129e-10
2.31736e-09
-1.40669e-09
6.93094e-09
9.12791e-11
1.073e-08
3.14569e-09
-1.31887e-09
-2.25987e-08
-3.22002e-09
-1.93786e-08
-9.25636e-11
-4.44632e-09
1.46609e-09
9.17139e-09
8.33151e-10
7.56387e-09
5.59701e-10
2.59081e-09
3.44433e-10
1.828e-09
2.39013e-10
8.33866e-10
1.62302e-10
6.08455e-10
1.19306e-10
3.27903e-10
8.6698e-11
2.51551e-10
6.65422e-11
1.51281e-10
5.06145e-11
1.21112e-10
4.00019e-11
7.90152e-11
3.13705e-11
6.50517e-11
2.52636e-11
4.52907e-11
2.02083e-11
3.78721e-11
1.6455e-11
2.7771e-11
1.33163e-11
2.3405e-11
1.08952e-11
1.78916e-11
8.85572e-12
1.51517e-11
7.23314e-12
1.19737e-11
5.8569e-12
1.01956e-11
4.73136e-12
8.29679e-12
3.76548e-12
7.13814e-12
2.95157e-12
5.99781e-12
2.23798e-12
5.26551e-12
1.61255e-12
4.59474e-12
1.04244e-12
4.19824e-12
5.12147e-13
3.89705e-12
3.56162e-16
3.75661e-12
-5.11588e-13
3.76309e-12
-1.04266e-12
3.89444e-12
-1.61228e-12
4.19685e-12
-2.23722e-12
4.59881e-12
-2.95143e-12
5.26094e-12
-3.76421e-12
5.98663e-12
-4.7296e-12
7.13971e-12
-5.85682e-12
8.30418e-12
-7.23277e-12
1.01955e-11
-8.85501e-12
1.19784e-11
-1.0896e-11
1.51546e-11
-1.33167e-11
1.78799e-11
-1.6455e-11
2.34129e-11
-2.02093e-11
2.77651e-11
-2.52636e-11
3.78694e-11
-3.13696e-11
4.5279e-11
-4.00019e-11
6.50494e-11
-5.06142e-11
7.90289e-11
-6.6542e-11
1.2111e-10
-8.66987e-11
1.51287e-10
-1.19306e-10
2.51539e-10
-1.62301e-10
3.279e-10
-2.39012e-10
6.08457e-10
-3.44432e-10
8.33863e-10
-5.597e-10
1.82801e-09
-8.33151e-10
2.59082e-09
-1.46609e-09
7.56387e-09
9.25645e-11
9.1714e-09
3.22002e-09
-4.44633e-09
-1.93787e-08
-3.17285e-09
-1.62058e-08
-4.34191e-11
-7.57575e-09
1.52144e-09
7.60654e-09
8.91811e-10
8.19349e-09
6.04648e-10
2.87798e-09
3.75424e-10
2.05723e-09
2.61202e-10
9.48086e-10
1.78056e-10
6.91606e-10
1.3101e-10
3.7495e-10
9.5403e-11
2.87158e-10
7.32481e-11
1.73439e-10
5.57882e-11
1.38564e-10
4.40957e-11
9.07204e-11
3.46116e-11
7.45433e-11
2.78749e-11
5.20165e-11
2.23112e-11
4.34349e-11
1.8168e-11
3.19111e-11
1.47094e-11
2.68676e-11
1.20355e-11
2.05634e-11
9.78608e-12
1.74024e-11
7.99348e-12
1.3763e-11
6.47436e-12
1.17161e-11
5.23049e-12
9.53911e-12
4.16364e-12
8.20368e-12
3.26388e-12
6.89826e-12
2.47521e-12
6.04775e-12
1.78358e-12
5.29486e-12
1.1531e-12
4.82356e-12
5.66529e-13
4.48826e-12
3.95599e-16
4.33066e-12
-5.65966e-13
4.32846e-12
-1.1533e-12
4.47812e-12
-1.78327e-12
4.82296e-12
-2.47444e-12
5.2916e-12
-3.26373e-12
6.04284e-12
-4.16233e-12
6.89369e-12
-5.22869e-12
8.21095e-12
-6.47425e-12
9.54637e-12
-7.99306e-12
1.17191e-11
-9.78535e-12
1.37688e-11
-1.20363e-11
1.74051e-11
-1.47098e-11
2.05637e-11
-1.8168e-11
2.68605e-11
-2.23121e-11
3.19232e-11
-2.78749e-11
4.34305e-11
-3.46106e-11
5.20181e-11
-4.40957e-11
7.45318e-11
-5.57879e-11
9.07141e-11
-7.32478e-11
1.38568e-10
-9.54038e-11
1.7344e-10
-1.31009e-10
2.87154e-10
-1.78055e-10
3.7494e-10
-2.61201e-10
6.91599e-10
-3.75424e-10
9.48092e-10
-6.04647e-10
2.05723e-09
-8.91811e-10
2.87799e-09
-1.52144e-09
8.19349e-09
4.34201e-11
7.60654e-09
3.17285e-09
-7.57575e-09
-1.62058e-08
-3.00666e-09
-1.31991e-08
5.47572e-11
-1.06372e-08
1.57254e-09
6.08876e-09
9.50873e-10
8.81517e-09
6.50461e-10
3.17839e-09
4.07629e-10
2.30006e-09
2.84418e-10
1.0713e-09
1.94664e-10
7.81359e-10
1.43382e-10
4.26227e-10
1.04641e-10
3.25899e-10
8.03737e-11
1.97706e-10
6.12981e-11
1.57641e-10
4.84584e-11
1.03556e-10
3.80705e-11
8.49341e-11
3.06629e-11
5.94322e-11
2.45586e-11
4.9538e-11
1.99992e-11
3.64681e-11
1.61997e-11
3.06667e-11
1.32557e-11
2.35039e-11
1.07822e-11
1.98782e-11
8.80772e-12
1.57491e-11
7.13589e-12
1.33828e-11
5.76533e-12
1.09054e-11
4.59047e-12
9.38492e-12
3.59868e-12
7.88602e-12
2.72967e-12
6.9156e-12
1.96699e-12
6.05484e-12
1.27184e-12
5.51956e-12
6.24881e-13
5.12351e-12
4.04507e-16
4.95679e-12
-6.24328e-13
4.9475e-12
-1.27198e-12
5.13604e-12
-1.96665e-12
5.51337e-12
-2.72888e-12
6.04957e-12
-3.59849e-12
6.91981e-12
-4.5891e-12
7.88051e-12
-5.76355e-12
9.37646e-12
-7.13571e-12
1.09196e-11
-8.80725e-12
1.33903e-11
-1.07814e-11
1.57441e-11
-1.32564e-11
1.98814e-11
-1.62001e-11
2.35103e-11
-1.99992e-11
3.06704e-11
-2.45595e-11
3.64692e-11
-3.06629e-11
4.95287e-11
-3.80696e-11
5.9425e-11
-4.84583e-11
8.49212e-11
-6.12978e-11
1.03551e-10
-8.03733e-11
1.57653e-10
-1.04642e-10
1.97715e-10
-1.43382e-10
3.25894e-10
-1.94662e-10
4.26222e-10
-2.84418e-10
7.8136e-10
-4.07628e-10
1.0713e-09
-6.5046e-10
2.30007e-09
-9.50873e-10
3.1784e-09
-1.57254e-09
8.81517e-09
-5.47562e-11
6.08875e-09
3.00666e-09
-1.06372e-08
-1.31992e-08
-2.73116e-09
-1.04679e-08
1.97355e-10
-1.35657e-08
1.61918e-09
4.66693e-09
1.01005e-09
9.42429e-09
6.9697e-10
3.49147e-09
4.40998e-10
2.55603e-09
3.08655e-10
1.20364e-09
2.12139e-10
8.77881e-10