/*--------------------------------*- C++ -*----------------------------------*\
| =========                 |                                                 |
| \\      /  F ield         | foam-extend: Open Source CFD                    |
|  \\    /   O peration     | Version:     4.0                                |
|   \\  /    A nd           | Web:         http://www.foam-extend.org         |
|    \\/     M anipulation  |                                                 |
\*---------------------------------------------------------------------------*/
FoamFile
{
    version     2.0;
    format      ascii;
    class       volVectorField;
    location    "12";
    object      U;
}
// * * * * * * * * * * * * * * * * * * * * * * * * * * * * * * * * * * * * * //

dimensions      [0 1 -1 0 0 0 0];

internalField   nonuniform List<vector> 
6960
(
(-3.36213e-06 -228.875 0)
(-2.42109e-06 -228.868 0)
(1.34908e-06 -228.868 0)
(4.96458e-07 -228.868 0)
(1.54615e-07 -228.868 0)
(9.24967e-08 -228.868 0)
(4.8372e-08 -228.868 0)
(3.32743e-08 -228.868 0)
(2.10095e-08 -228.868 0)
(1.5549e-08 -228.868 0)
(1.08338e-08 -228.868 0)
(8.37337e-09 -228.868 0)
(6.18499e-09 -228.868 0)
(4.90788e-09 -228.868 0)
(3.76051e-09 -228.868 0)
(3.02954e-09 -228.868 0)
(2.37472e-09 -228.868 0)
(1.92731e-09 -228.868 0)
(1.53131e-09 -228.868 0)
(1.24513e-09 -228.868 0)
(9.94196e-10 -228.868 0)
(8.04299e-10 -228.868 0)
(6.39621e-10 -228.868 0)
(5.10055e-10 -228.868 0)
(3.97539e-10 -228.868 0)
(3.05545e-10 -228.868 0)
(2.23384e-10 -228.868 0)
(1.54153e-10 -228.868 0)
(8.98409e-11 -228.868 0)
(2.91502e-11 -228.868 0)
(-2.88594e-11 -228.868 0)
(-8.94271e-11 -228.868 0)
(-1.55019e-10 -228.868 0)
(-2.22982e-10 -228.868 0)
(-3.06133e-10 -228.868 0)
(-3.98228e-10 -228.868 0)
(-5.08761e-10 -228.868 0)
(-6.39777e-10 -228.868 0)
(-8.05621e-10 -228.868 0)
(-9.93471e-10 -228.868 0)
(-1.24528e-09 -228.868 0)
(-1.5323e-09 -228.868 0)
(-1.92702e-09 -228.868 0)
(-2.37489e-09 -228.868 0)
(-3.03033e-09 -228.868 0)
(-3.75943e-09 -228.868 0)
(-4.90753e-09 -228.868 0)
(-6.18616e-09 -228.868 0)
(-8.37302e-09 -228.868 0)
(-1.08344e-08 -228.868 0)
(-1.55503e-08 -228.868 0)
(-2.10091e-08 -228.868 0)
(-3.32749e-08 -228.868 0)
(-4.8374e-08 -228.868 0)
(-9.24954e-08 -228.868 0)
(-1.54614e-07 -228.868 0)
(-4.96459e-07 -228.868 0)
(-1.34908e-06 -228.868 0)
(2.4211e-06 -228.868 0)
(3.36214e-06 -228.875 0)
(0.000214745 15.9314 0)
(0.000217532 15.9382 0)
(3.98298e-06 15.9382 0)
(1.46615e-06 15.9382 0)
(4.6891e-07 15.9382 0)
(2.78941e-07 15.9382 0)
(1.46635e-07 15.9382 0)
(1.00572e-07 15.9382 0)
(6.36869e-08 15.9382 0)
(4.70362e-08 15.9382 0)
(3.28361e-08 15.9382 0)
(2.53506e-08 15.9382 0)
(1.87406e-08 15.9382 0)
(1.48609e-08 15.9382 0)
(1.14025e-08 15.9382 0)
(9.17076e-09 15.9382 0)
(7.19768e-09 15.9382 0)
(5.84396e-09 15.9382 0)
(4.63657e-09 15.9382 0)
(3.77296e-09 15.9382 0)
(3.01888e-09 15.9382 0)
(2.43267e-09 15.9382 0)
(1.9392e-09 15.9382 0)
(1.55126e-09 15.9382 0)
(1.20037e-09 15.9382 0)
(9.26359e-10 15.9382 0)
(6.82617e-10 15.9382 0)
(4.62391e-10 15.9382 0)
(2.75438e-10 15.9382 0)
(1.05589e-10 15.9382 0)
(-1.25995e-10 15.9382 0)
(-2.68152e-10 15.9382 0)
(-4.19451e-10 15.9382 0)
(-7.26901e-10 15.9382 0)
(-9.28021e-10 15.9382 0)
(-1.15691e-09 15.9382 0)
(-1.59293e-09 15.9382 0)
(-1.93963e-09 15.9382 0)
(-2.39103e-09 15.9382 0)
(-3.06221e-09 15.9382 0)
(-3.77344e-09 15.9382 0)
(-4.59406e-09 15.9382 0)
(-5.88854e-09 15.9382 0)
(-7.19817e-09 15.9382 0)
(-9.12766e-09 15.9382 0)
(-1.14448e-08 15.9382 0)
(-1.48599e-08 15.9382 0)
(-1.86986e-08 15.9382 0)
(-2.53951e-08 15.9382 0)
(-3.28378e-08 15.9382 0)
(-4.69946e-08 15.9382 0)
(-6.37314e-08 15.9382 0)
(-1.00574e-07 15.9382 0)
(-1.46595e-07 15.9382 0)
(-2.78983e-07 15.9382 0)
(-4.6891e-07 15.9382 0)
(-1.46611e-06 15.9382 0)
(-3.98303e-06 15.9382 0)
(-0.000217532 15.9382 0)
(-0.000214745 15.9314 0)
(0.000178633 41.8821 0)
(0.000182971 41.8783 0)
(6.29595e-06 41.8783 0)
(2.41701e-06 41.8783 0)
(7.92023e-07 41.8783 0)
(4.69359e-07 41.8783 0)
(2.47833e-07 41.8783 0)
(1.69598e-07 41.8783 0)
(1.07642e-07 41.8783 0)
(7.93908e-08 41.8783 0)
(5.55019e-08 41.8783 0)
(4.28015e-08 41.8783 0)
(3.16811e-08 41.8783 0)
(2.51007e-08 41.8783 0)
(1.92696e-08 41.8783 0)
(1.54973e-08 41.8783 0)
(1.21667e-08 41.8783 0)
(9.8706e-09 41.8783 0)
(7.84194e-09 41.8783 0)
(6.37623e-09 41.8783 0)
(5.09928e-09 41.8783 0)
(4.11601e-09 41.8783 0)
(3.27852e-09 41.8783 0)
(2.61823e-09 41.8783 0)
(2.03372e-09 41.8783 0)
(1.56613e-09 41.8783 0)
(1.15031e-09 41.8783 0)
(7.85967e-10 41.8783 0)
(4.63179e-10 41.8783 0)
(1.64508e-10 41.8783 0)
(-1.81579e-10 41.8783 0)
(-4.55988e-10 41.8783 0)
(-7.50629e-10 41.8783 0)
(-1.18778e-09 41.8783 0)
(-1.56877e-09 41.8783 0)
(-1.99755e-09 41.8783 0)
(-2.65148e-09 41.8783 0)
(-3.27921e-09 41.8783 0)
(-4.08276e-09 41.8783 0)
(-5.13534e-09 41.8783 0)
(-6.3771e-09 41.8783 0)
(-7.80737e-09 41.8783 0)
(-9.90859e-09 41.8783 0)
(-1.21675e-08 41.8783 0)
(-1.54618e-08 41.8783 0)
(-1.93038e-08 41.8783 0)
(-2.50991e-08 41.8783 0)
(-3.16476e-08 41.8783 0)
(-4.28395e-08 41.8783 0)
(-5.55047e-08 41.8783 0)
(-7.93578e-08 41.8783 0)
(-1.0768e-07 41.8783 0)
(-1.69601e-07 41.8783 0)
(-2.47803e-07 41.8783 0)
(-4.69392e-07 41.8783 0)
(-7.92022e-07 41.8783 0)
(-2.41697e-06 41.8783 0)
(-6.29598e-06 41.8783 0)
(-0.000182971 41.8783 0)
(-0.000178633 41.8821 0)
(7.25233e-05 9.54683 0)
(7.82237e-05 9.54303 0)
(8.37815e-06 9.54303 0)
(3.33122e-06 9.54302 0)
(1.12309e-06 9.54302 0)
(6.63545e-07 9.54302 0)
(3.51943e-07 9.54302 0)
(2.40356e-07 9.54302 0)
(1.52893e-07 9.54302 0)
(1.12621e-07 9.54302 0)
(7.88434e-08 9.54302 0)
(6.074e-08 9.54302 0)
(4.50107e-08 9.54302 0)
(3.56338e-08 9.54302 0)
(2.73715e-08 9.54302 0)
(2.20095e-08 9.54302 0)
(1.72855e-08 9.54302 0)
(1.40145e-08 9.54302 0)
(1.11458e-08 9.54302 0)
(9.05697e-09 9.54302 0)
(7.2413e-09 9.54302 0)
(5.85154e-09 9.54302 0)
(4.65869e-09 9.54302 0)
(3.71601e-09 9.54302 0)
(2.89421e-09 9.54302 0)
(2.22544e-09 9.54302 0)
(1.631e-09 9.54302 0)
(1.12104e-09 9.54302 0)
(6.55744e-10 9.54302 0)
(2.2005e-10 9.54302 0)
(-2.27169e-10 9.54302 0)
(-6.50597e-10 9.54302 0)
(-1.10743e-09 9.54302 0)
(-1.64745e-09 9.54302 0)
(-2.22893e-09 9.54302 0)
(-2.87942e-09 9.54302 0)
(-3.72675e-09 9.54302 0)
(-4.65966e-09 9.54302 0)
(-5.84078e-09 9.54302 0)
(-7.25601e-09 9.54302 0)
(-9.05832e-09 9.54302 0)
(-1.11333e-08 9.54302 0)
(-1.40317e-08 9.54302 0)
(-1.72865e-08 9.54302 0)
(-2.19957e-08 9.54302 0)
(-2.73835e-08 9.54302 0)
(-3.56317e-08 9.54302 0)
(-4.49999e-08 9.54302 0)
(-6.07574e-08 9.54302 0)
(-7.88473e-08 9.54302 0)
(-1.12611e-07 9.54302 0)
(-1.5291e-07 9.54302 0)
(-2.4036e-07 9.54302 0)
(-3.51937e-07 9.54302 0)
(-6.63555e-07 9.54302 0)
(-1.12309e-06 9.54302 0)
(-3.3312e-06 9.54302 0)
(-8.37817e-06 9.54303 0)
(-7.82237e-05 9.54303 0)
(-7.25232e-05 9.54683 0)
(3.8495e-05 -2.31754 0)
(4.55e-05 -2.31791 0)
(1.03622e-05 -2.31791 0)
(4.21108e-06 -2.31792 0)
(1.46124e-06 -2.31792 0)
(8.61278e-07 -2.31792 0)
(4.58932e-07 -2.31792 0)
(3.12843e-07 -2.31792 0)
(1.99456e-07 -2.31792 0)
(1.46736e-07 -2.31792 0)
(1.02872e-07 -2.31792 0)
(7.91788e-08 -2.31792 0)
(5.87348e-08 -2.31792 0)
(4.64672e-08 -2.31792 0)
(3.57172e-08 -2.31792 0)
(2.87089e-08 -2.31792 0)
(2.25582e-08 -2.31792 0)
(1.8282e-08 -2.31792 0)
(1.45478e-08 -2.31792 0)
(1.18175e-08 -2.31792 0)
(9.45001e-09 -2.31792 0)
(7.63766e-09 -2.31792 0)
(6.08103e-09 -2.31792 0)
(4.84885e-09 -2.31792 0)
(3.7795e-09 -2.31792 0)
(2.90497e-09 -2.31792 0)
(2.12841e-09 -2.31792 0)
(1.46477e-09 -2.31792 0)
(8.55268e-10 -2.31792 0)
(2.83117e-10 -2.31792 0)
(-2.8712e-10 -2.31792 0)
(-8.50285e-10 -2.31792 0)
(-1.45824e-09 -2.31792 0)
(-2.13833e-09 -2.31792 0)
(-2.90919e-09 -2.31792 0)
(-3.77148e-09 -2.31792 0)
(-4.85174e-09 -2.31792 0)
(-6.0823e-09 -2.31792 0)
(-7.63475e-09 -2.31792 0)
(-9.45807e-09 -2.31792 0)
(-1.18194e-08 -2.31792 0)
(-1.45428e-08 -2.31792 0)
(-1.8293e-08 -2.31792 0)
(-2.25593e-08 -2.31792 0)
(-2.87023e-08 -2.31792 0)
(-3.57215e-08 -2.31792 0)
(-4.64646e-08 -2.31792 0)
(-5.87322e-08 -2.31792 0)
(-7.91902e-08 -2.31792 0)
(-1.02877e-07 -2.31792 0)
(-1.46734e-07 -2.31792 0)
(-1.99467e-07 -2.31792 0)
(-3.12849e-07 -2.31792 0)
(-4.58934e-07 -2.31792 0)
(-8.6128e-07 -2.31792 0)
(-1.46124e-06 -2.31792 0)
(-4.21108e-06 -2.31792 0)
(-1.03622e-05 -2.31791 0)
(-4.55e-05 -2.31791 0)
(-3.8495e-05 -2.31754 0)
(4.32698e-05 -1.91117 0)
(5.14956e-05 -1.91045 0)
(1.22346e-05 -1.91045 0)
(5.06794e-06 -1.91046 0)
(1.80554e-06 -1.91046 0)
(1.0623e-06 -1.91046 0)
(5.68754e-07 -1.91046 0)
(3.87053e-07 -1.91046 0)
(2.4734e-07 -1.91046 0)
(1.81747e-07 -1.91046 0)
(1.276e-07 -1.91046 0)
(9.81266e-08 -1.91046 0)
(7.28622e-08 -1.91046 0)
(5.76076e-08 -1.91046 0)
(4.43117e-08 -1.91046 0)
(3.56011e-08 -1.91046 0)
(2.79887e-08 -1.91046 0)
(2.26759e-08 -1.91046 0)
(1.80515e-08 -1.91046 0)
(1.46602e-08 -1.91046 0)
(1.17267e-08 -1.91046 0)
(9.4768e-09 -1.91046 0)
(7.5469e-09 -1.91046 0)
(6.01714e-09 -1.91046 0)
(4.69127e-09 -1.91046 0)
(3.60542e-09 -1.91046 0)
(2.64231e-09 -1.91046 0)
(1.81828e-09 -1.91046 0)
(1.06153e-09 -1.91046 0)
(3.51227e-10 -1.91046 0)
(-3.55813e-10 -1.91046 0)
(-1.05572e-09 -1.91046 0)
(-1.81096e-09 -1.91046 0)
(-2.6535e-09 -1.91046 0)
(-3.61025e-09 -1.91046 0)
(-4.68211e-09 -1.91046 0)
(-6.0201e-09 -1.91046 0)
(-7.5485e-09 -1.91046 0)
(-9.47385e-09 -1.91046 0)
(-1.17361e-08 -1.91046 0)
(-1.46627e-08 -1.91046 0)
(-1.80461e-08 -1.91046 0)
(-2.26885e-08 -1.91046 0)
(-2.799e-08 -1.91046 0)
(-3.55937e-08 -1.91046 0)
(-4.43163e-08 -1.91046 0)
(-5.76045e-08 -1.91046 0)
(-7.286e-08 -1.91046 0)
(-9.81398e-08 -1.91046 0)
(-1.27606e-07 -1.91046 0)
(-1.81745e-07 -1.91046 0)
(-2.47353e-07 -1.91046 0)
(-3.87059e-07 -1.91046 0)
(-5.68758e-07 -1.91046 0)
(-1.0623e-06 -1.91046 0)
(-1.80554e-06 -1.91046 0)
(-5.06793e-06 -1.91046 0)
(-1.22346e-05 -1.91045 0)
(-5.14955e-05 -1.91045 0)
(-4.32698e-05 -1.91117 0)
(4.5496e-05 -0.967501 0)
(5.48121e-05 -0.967047 0)
(1.3952e-05 -0.967048 0)
(5.90422e-06 -0.967056 0)
(2.15494e-06 -0.967057 0)
(1.26631e-06 -0.967057 0)
(6.81349e-07 -0.967057 0)
(4.62969e-07 -0.967057 0)
(2.9655e-07 -0.967057 0)
(2.17663e-07 -0.967057 0)
(1.53036e-07 -0.967057 0)
(1.17591e-07 -0.967057 0)
(8.7402e-08 -0.967057 0)
(6.90616e-08 -0.967057 0)
(5.316e-08 -0.967057 0)
(4.26918e-08 -0.967057 0)
(3.35812e-08 -0.967057 0)
(2.71986e-08 -0.967057 0)
(2.16608e-08 -0.967057 0)
(1.75876e-08 -0.967057 0)
(1.40725e-08 -0.967057 0)
(1.13716e-08 -0.967057 0)
(9.05777e-09 -0.967057 0)
(7.22114e-09 -0.967057 0)
(5.63139e-09 -0.967057 0)
(4.32757e-09 -0.967057 0)
(3.17236e-09 -0.967057 0)
(2.18292e-09 -0.967057 0)
(1.27417e-09 -0.967057 0)
(4.21288e-10 -0.967057 0)
(-4.26235e-10 -0.967057 0)
(-1.26771e-09 -0.967057 0)
(-2.17529e-09 -0.967057 0)
(-3.18423e-09 -0.967057 0)
(-4.33286e-09 -0.967057 0)
(-5.62159e-09 -0.967057 0)
(-7.22372e-09 -0.967057 0)
(-9.05973e-09 -0.967057 0)
(-1.13691e-08 -0.967057 0)
(-1.40828e-08 -0.967057 0)
(-1.75907e-08 -0.967057 0)
(-2.16555e-08 -0.967057 0)
(-2.72123e-08 -0.967057 0)
(-3.35825e-08 -0.967057 0)
(-4.26842e-08 -0.967057 0)
(-5.31643e-08 -0.967057 0)
(-6.90583e-08 -0.967057 0)
(-8.74008e-08 -0.967057 0)
(-1.17606e-07 -0.967057 0)
(-1.53043e-07 -0.967057 0)
(-2.17662e-07 -0.967057 0)
(-2.96564e-07 -0.967057 0)
(-4.62977e-07 -0.967057 0)
(-6.81354e-07 -0.967057 0)
(-1.26631e-06 -0.967057 0)
(-2.15494e-06 -0.967057 0)
(-5.90421e-06 -0.967056 0)
(-1.3952e-05 -0.967048 0)
(-5.4812e-05 -0.967047 0)
(-4.54959e-05 -0.967501 0)
(4.17573e-05 -1.09485 0)
(5.20304e-05 -1.09458 0)
(1.55078e-05 -1.09458 0)
(6.71535e-06 -1.09459 0)
(2.50827e-06 -1.09459 0)
(1.47298e-06 -1.09459 0)
(7.96635e-07 -1.09459 0)
(5.40569e-07 -1.09459 0)
(3.47086e-07 -1.09459 0)
(2.54492e-07 -1.09459 0)
(1.79191e-07 -1.09459 0)
(1.37581e-07 -1.09459 0)
(1.02362e-07 -1.09459 0)
(8.08359e-08 -1.09459 0)
(6.22676e-08 -1.09459 0)
(4.99859e-08 -1.09459 0)
(3.93398e-08 -1.09459 0)
(3.18535e-08 -1.09459 0)
(2.53788e-08 -1.09459 0)
(2.06021e-08 -1.09459 0)
(1.64894e-08 -1.09459 0)
(1.33239e-08 -1.09459 0)
(1.06151e-08 -1.09459 0)
(8.46195e-09 -1.09459 0)
(6.60089e-09 -1.09459 0)
(5.07221e-09 -1.09459 0)
(3.7191e-09 -1.09459 0)
(2.55916e-09 -1.09459 0)
(1.49343e-09 -1.09459 0)
(4.93096e-10 -1.09459 0)
(-4.97927e-10 -1.09459 0)
(-1.48653e-09 -1.09459 0)
(-2.5524e-09 -1.09459 0)
(-3.73036e-09 -1.09459 0)
(-5.07777e-09 -1.09459 0)
(-6.59164e-09 -1.09459 0)
(-8.46309e-09 -1.09459 0)
(-1.06175e-08 -1.09459 0)
(-1.33231e-08 -1.09459 0)
(-1.64995e-08 -1.09459 0)
(-2.06059e-08 -1.09459 0)
(-2.53747e-08 -1.09459 0)
(-3.18671e-08 -1.09459 0)
(-3.93412e-08 -1.09459 0)
(-4.99792e-08 -1.09459 0)
(-6.22705e-08 -1.09459 0)
(-8.08324e-08 -1.09459 0)
(-1.02363e-07 -1.09459 0)
(-1.37596e-07 -1.09459 0)
(-1.79199e-07 -1.09459 0)
(-2.54492e-07 -1.09459 0)
(-3.471e-07 -1.09459 0)
(-5.40578e-07 -1.09459 0)
(-7.96642e-07 -1.09459 0)
(-1.47298e-06 -1.09459 0)
(-2.50827e-06 -1.09459 0)
(-6.71534e-06 -1.09459 0)
(-1.55078e-05 -1.09458 0)
(-5.20303e-05 -1.09458 0)
(-4.17572e-05 -1.09485 0)
(3.84346e-05 -1.33107 0)
(4.95433e-05 -1.33075 0)
(1.69103e-05 -1.33075 0)
(7.49674e-06 -1.33076 0)
(2.86427e-06 -1.33076 0)
(1.68192e-06 -1.33076 0)
(9.14511e-07 -1.33076 0)
(6.19822e-07 -1.33076 0)
(3.98948e-07 -1.33076 0)
(2.92237e-07 -1.33076 0)
(2.0607e-07 -1.33076 0)
(1.58104e-07 -1.33076 0)
(1.17749e-07 -1.33076 0)
(9.29367e-08 -1.33076 0)
(7.16403e-08 -1.33076 0)
(5.74881e-08 -1.33076 0)
(4.52686e-08 -1.33076 0)
(3.66442e-08 -1.33076 0)
(2.92082e-08 -1.33076 0)
(2.37062e-08 -1.33076 0)
(1.89798e-08 -1.33076 0)
(1.53354e-08 -1.33076 0)
(1.22205e-08 -1.33076 0)
(9.74095e-09 -1.33076 0)
(7.60064e-09 -1.33076 0)
(5.8401e-09 -1.33076 0)
(4.28323e-09 -1.33076 0)
(2.94731e-09 -1.33076 0)
(1.71963e-09 -1.33076 0)
(5.67233e-10 -1.33076 0)
(-5.72019e-10 -1.33076 0)
(-1.7123e-09 -1.33076 0)
(-2.94128e-09 -1.33076 0)
(-4.29392e-09 -1.33076 0)
(-5.84576e-09 -1.33076 0)
(-7.59184e-09 -1.33076 0)
(-9.74088e-09 -1.33076 0)
(-1.22232e-08 -1.33076 0)
(-1.5336e-08 -1.33076 0)
(-1.89898e-08 -1.33076 0)
(-2.37109e-08 -1.33076 0)
(-2.92053e-08 -1.33076 0)
(-3.66578e-08 -1.33076 0)
(-4.527e-08 -1.33076 0)
(-5.74821e-08 -1.33076 0)
(-7.16419e-08 -1.33076 0)
(-9.29332e-08 -1.33076 0)
(-1.17752e-07 -1.33076 0)
(-1.58119e-07 -1.33076 0)
(-2.0608e-07 -1.33076 0)
(-2.92239e-07 -1.33076 0)
(-3.98962e-07 -1.33076 0)
(-6.19832e-07 -1.33076 0)
(-9.14521e-07 -1.33076 0)
(-1.68192e-06 -1.33076 0)
(-2.86427e-06 -1.33076 0)
(-7.49673e-06 -1.33076 0)
(-1.69103e-05 -1.33075 0)
(-4.95433e-05 -1.33075 0)
(-3.84345e-05 -1.33107 0)
(3.70961e-05 -1.34469 0)
(4.89239e-05 -1.34433 0)
(1.81621e-05 -1.34432 0)
(8.24517e-06 -1.34433 0)
(3.2216e-06 -1.34434 0)
(1.89271e-06 -1.34434 0)
(1.03485e-06 -1.34434 0)
(7.00685e-07 -1.34434 0)
(4.52127e-07 -1.34434 0)
(3.30901e-07 -1.34434 0)
(2.33683e-07 -1.34434 0)
(1.79167e-07 -1.34434 0)
(1.33571e-07 -1.34434 0)
(1.0537e-07 -1.34434 0)
(8.12835e-08 -1.34434 0)
(6.52028e-08 -1.34434 0)
(5.13716e-08 -1.34434 0)
(4.15744e-08 -1.34434 0)
(3.31519e-08 -1.34434 0)
(2.69025e-08 -1.34434 0)
(2.15458e-08 -1.34434 0)
(1.74078e-08 -1.34434 0)
(1.38753e-08 -1.34434 0)
(1.10594e-08 -1.34434 0)
(8.6316e-09 -1.34434 0)
(6.63204e-09 -1.34434 0)
(4.86535e-09 -1.34434 0)
(3.34775e-09 -1.34434 0)
(1.95303e-09 -1.34434 0)
(6.43887e-10 -1.34434 0)
(-6.48858e-10 -1.34434 0)
(-1.94527e-09 -1.34434 0)
(-3.34202e-09 -1.34434 0)
(-4.87587e-09 -1.34434 0)
(-6.63767e-09 -1.34434 0)
(-8.62284e-09 -1.34434 0)
(-1.10587e-08 -1.34434 0)
(-1.38784e-08 -1.34434 0)
(-1.74095e-08 -1.34434 0)
(-2.15562e-08 -1.34434 0)
(-2.69079e-08 -1.34434 0)
(-3.31498e-08 -1.34434 0)
(-4.15882e-08 -1.34434 0)
(-5.1373e-08 -1.34434 0)
(-6.51973e-08 -1.34434 0)
(-8.12842e-08 -1.34434 0)
(-1.05367e-07 -1.34434 0)
(-1.33575e-07 -1.34434 0)
(-1.79182e-07 -1.34434 0)
(-2.33692e-07 -1.34434 0)
(-3.30904e-07 -1.34434 0)
(-4.52142e-07 -1.34434 0)
(-7.00696e-07 -1.34434 0)
(-1.03487e-06 -1.34434 0)
(-1.89271e-06 -1.34434 0)
(-3.2216e-06 -1.34434 0)
(-8.24516e-06 -1.34433 0)
(-1.81621e-05 -1.34432 0)
(-4.89239e-05 -1.34433 0)
(-3.7096e-05 -1.34469 0)
(3.65857e-05 -1.21689 0)
(4.90162e-05 -1.21652 0)
(1.92613e-05 -1.21652 0)
(8.95748e-06 -1.21653 0)
(3.57884e-06 -1.21653 0)
(2.10486e-06 -1.21653 0)
(1.15752e-06 -1.21653 0)
(7.83105e-07 -1.21653 0)
(5.06612e-07 -1.21653 0)
(3.70483e-07 -1.21653 0)
(2.62032e-07 -1.21653 0)
(2.00776e-07 -1.21653 0)
(1.49832e-07 -1.21653 0)
(1.18142e-07 -1.21653 0)
(9.12026e-08 -1.21653 0)
(7.31348e-08 -1.21653 0)
(5.76528e-08 -1.21653 0)
(4.66472e-08 -1.21653 0)
(3.72129e-08 -1.21653 0)
(3.01935e-08 -1.21653 0)
(2.41895e-08 -1.21653 0)
(1.95428e-08 -1.21653 0)
(1.5581e-08 -1.21653 0)
(1.24186e-08 -1.21653 0)
(9.69482e-09 -1.21653 0)
(7.4488e-09 -1.21653 0)
(5.46606e-09 -1.21653 0)
(3.76089e-09 -1.21653 0)
(2.19386e-09 -1.21653 0)
(7.23077e-10 -1.21653 0)
(-7.28289e-10 -1.21653 0)
(-2.18569e-09 -1.21653 0)
(-3.75528e-09 -1.21653 0)
(-5.47654e-09 -1.21653 0)
(-7.45428e-09 -1.21653 0)
(-9.68595e-09 -1.21653 0)
(-1.24175e-08 -1.21653 0)
(-1.55847e-08 -1.21653 0)
(-1.95455e-08 -1.21653 0)
(-2.42006e-08 -1.21653 0)
(-3.01997e-08 -1.21653 0)
(-3.72115e-08 -1.21653 0)
(-4.66615e-08 -1.21653 0)
(-5.76542e-08 -1.21653 0)
(-7.31296e-08 -1.21653 0)
(-9.12026e-08 -1.21653 0)
(-1.18139e-07 -1.21653 0)
(-1.49839e-07 -1.21653 0)
(-2.00792e-07 -1.21653 0)
(-2.62042e-07 -1.21653 0)
(-3.70488e-07 -1.21653 0)
(-5.06627e-07 -1.21653 0)
(-7.83117e-07 -1.21653 0)
(-1.15753e-06 -1.21653 0)
(-2.10486e-06 -1.21653 0)
(-3.57884e-06 -1.21653 0)
(-8.95747e-06 -1.21653 0)
(-1.92613e-05 -1.21652 0)
(-4.90162e-05 -1.21652 0)
(-3.65856e-05 -1.21689 0)
(3.60152e-05 -1.03557 0)
(4.89332e-05 -1.03523 0)
(2.02063e-05 -1.03523 0)
(9.62998e-06 -1.03524 0)
(3.93446e-06 -1.03524 0)
(2.31785e-06 -1.03524 0)
(1.28234e-06 -1.03524 0)
(8.6702e-07 -1.03524 0)
(5.62381e-07 -1.03524 0)
(4.10979e-07 -1.03524 0)
(2.91121e-07 -1.03524 0)
(2.22936e-07 -1.03524 0)
(1.6654e-07 -1.03524 0)
(1.31258e-07 -1.03524 0)
(1.01402e-07 -1.03524 0)
(8.12884e-08 -1.03524 0)
(6.41161e-08 -1.03524 0)
(5.18662e-08 -1.03524 0)
(4.13941e-08 -1.03524 0)
(3.35816e-08 -1.03524 0)
(2.69129e-08 -1.03524 0)
(2.17423e-08 -1.03524 0)
(1.73393e-08 -1.03524 0)
(1.38197e-08 -1.03524 0)
(1.07913e-08 -1.03524 0)
(8.29116e-09 -1.03524 0)
(6.08593e-09 -1.03524 0)
(4.18716e-09 -1.03524 0)
(2.44234e-09 -1.03524 0)
(8.04799e-10 -1.03524 0)
(-8.10269e-10 -1.03524 0)
(-2.43381e-09 -1.03524 0)
(-4.18166e-09 -1.03524 0)
(-6.09632e-09 -1.03524 0)
(-8.29635e-09 -1.03524 0)
(-1.07823e-08 -1.03524 0)
(-1.38183e-08 -1.03524 0)
(-1.73434e-08 -1.03524 0)
(-2.17461e-08 -1.03524 0)
(-2.69247e-08 -1.03524 0)
(-3.35885e-08 -1.03524 0)
(-4.13933e-08 -1.03524 0)
(-5.18808e-08 -1.03524 0)
(-6.41175e-08 -1.03524 0)
(-8.12835e-08 -1.03524 0)
(-1.01402e-07 -1.03524 0)
(-1.31255e-07 -1.03524 0)
(-1.66549e-07 -1.03524 0)
(-2.22952e-07 -1.03524 0)
(-2.91132e-07 -1.03524 0)
(-4.10985e-07 -1.03524 0)
(-5.62398e-07 -1.03524 0)
(-8.67033e-07 -1.03524 0)
(-1.28235e-06 -1.03524 0)
(-2.31785e-06 -1.03524 0)
(-3.93446e-06 -1.03524 0)
(-9.62997e-06 -1.03524 0)
(-2.02063e-05 -1.03523 0)
(-4.89331e-05 -1.03523 0)
(-3.60151e-05 -1.03557 0)
(3.50833e-05 -0.840227 0)
(4.83761e-05 -0.839929 0)
(2.09972e-05 -0.839927 0)
(1.02588e-05 -0.839939 0)
(4.28687e-06 -0.83994 0)
(2.53111e-06 -0.839941 0)
(1.4091e-06 -0.839941 0)
(9.52351e-07 -0.839941 0)
(6.19411e-07 -0.839941 0)
(4.52382e-07 -0.839941 0)
(3.2095e-07 -0.839941 0)
(2.4565e-07 -0.839941 0)
(1.83699e-07 -0.839941 0)
(1.44723e-07 -0.839941 0)
(1.11888e-07 -0.839941 0)
(8.96679e-08 -0.839941 0)
(7.07651e-08 -0.839941 0)
(5.72344e-08 -0.839941 0)
(4.56984e-08 -0.839941 0)
(3.70692e-08 -0.839941 0)
(2.97182e-08 -0.839941 0)
(2.4008e-08 -0.839941 0)
(1.91514e-08 -0.839941 0)
(1.5264e-08 -0.839941 0)
(1.19221e-08 -0.839941 0)
(9.15992e-09 -0.839941 0)
(6.72553e-09 -0.839941 0)
(4.62699e-09 -0.839941 0)
(2.69872e-09 -0.839941 0)
(8.89109e-10 -0.839941 0)
(-8.94785e-10 -0.839941 0)
(-2.68992e-09 -0.839941 0)
(-4.6216e-09 -0.839941 0)
(-6.7357e-09 -0.839941 0)
(-9.16471e-09 -0.839941 0)
(-1.1913e-08 -0.839941 0)
(-1.52623e-08 -0.839941 0)
(-1.91561e-08 -0.839941 0)
(-2.40129e-08 -0.839941 0)
(-2.97306e-08 -0.839941 0)
(-3.7077e-08 -0.839941 0)
(-4.56982e-08 -0.839941 0)
(-5.72493e-08 -0.839941 0)
(-7.07666e-08 -0.839941 0)
(-8.96633e-08 -0.839941 0)
(-1.11886e-07 -0.839941 0)
(-1.4472e-07 -0.839941 0)
(-1.83709e-07 -0.839941 0)
(-2.45668e-07 -0.839941 0)
(-3.20962e-07 -0.839941 0)
(-4.52389e-07 -0.839941 0)
(-6.19429e-07 -0.839941 0)
(-9.52365e-07 -0.839941 0)
(-1.40912e-06 -0.839941 0)
(-2.53111e-06 -0.839941 0)
(-4.28687e-06 -0.83994 0)
(-1.02588e-05 -0.839939 0)
(-2.09972e-05 -0.839927 0)
(-4.83761e-05 -0.839929 0)
(-3.50832e-05 -0.840227 0)
(3.36842e-05 -0.653476 0)
(4.72427e-05 -0.653219 0)
(2.16349e-05 -0.653217 0)
(1.08402e-05 -0.653229 0)
(4.63439e-06 -0.65323 0)
(2.744e-06 -0.653231 0)
(1.5376e-06 -0.653231 0)
(1.03901e-06 -0.653232 0)
(6.77668e-07 -0.653232 0)
(4.94681e-07 -0.653232 0)
(3.51519e-07 -0.653232 0)
(2.68922e-07 -0.653232 0)
(2.01314e-07 -0.653232 0)
(1.58542e-07 -0.653232 0)
(1.22663e-07 -0.653232 0)
(9.82772e-08 -0.653232 0)
(7.76035e-08 -0.653232 0)
(6.27551e-08 -0.653232 0)
(5.01284e-08 -0.653232 0)
(4.06587e-08 -0.653232 0)
(3.26073e-08 -0.653232 0)
(2.63417e-08 -0.653232 0)
(2.10188e-08 -0.653232 0)
(1.67525e-08 -0.653232 0)
(1.3088e-08 -0.653232 0)
(1.00558e-08 -0.653232 0)
(7.38547e-09 -0.653232 0)
(5.08077e-09 -0.653232 0)
(2.96319e-09 -0.653232 0)
(9.76035e-10 -0.653232 0)
(-9.81905e-10 -0.653232 0)
(-2.95422e-09 -0.653232 0)
(-5.07559e-09 -0.653232 0)
(-7.39519e-09 -0.653232 0)
(-1.00601e-08 -0.653232 0)
(-1.30791e-08 -0.653232 0)
(-1.67506e-08 -0.653232 0)
(-2.10241e-08 -0.653232 0)
(-2.63477e-08 -0.653232 0)
(-3.26203e-08 -0.653232 0)
(-4.06673e-08 -0.653232 0)
(-5.0129e-08 -0.653232 0)
(-6.27701e-08 -0.653232 0)
(-7.7605e-08 -0.653232 0)
(-9.82733e-08 -0.653232 0)
(-1.22661e-07 -0.653232 0)
(-1.58539e-07 -0.653232 0)
(-2.01325e-07 -0.653232 0)
(-2.6894e-07 -0.653232 0)
(-3.51532e-07 -0.653232 0)
(-4.94689e-07 -0.653232 0)
(-6.77686e-07 -0.653232 0)
(-1.03902e-06 -0.653232 0)
(-1.53762e-06 -0.653231 0)
(-2.744e-06 -0.653231 0)
(-4.6344e-06 -0.65323 0)
(-1.08402e-05 -0.653229 0)
(-2.16349e-05 -0.653217 0)
(-4.72427e-05 -0.653219 0)
(-3.36841e-05 -0.653476 0)
(3.17742e-05 -0.490776 0)
(4.54931e-05 -0.490559 0)
(2.21209e-05 -0.490556 0)
(1.13708e-05 -0.490568 0)
(4.97531e-06 -0.49057 0)
(2.95585e-06 -0.490571 0)
(1.66757e-06 -0.490571 0)
(1.12689e-06 -0.490571 0)
(7.3711e-07 -0.490572 0)
(5.3786e-07 -0.490572 0)
(3.82824e-07 -0.490572 0)
(2.92753e-07 -0.490572 0)
(2.19386e-07 -0.490572 0)
(1.72717e-07 -0.490572 0)
(1.33731e-07 -0.490572 0)
(1.0712e-07 -0.490572 0)
(8.46346e-08 -0.490572 0)
(6.84312e-08 -0.490572 0)
(5.46869e-08 -0.490572 0)
(4.43524e-08 -0.490572 0)
(3.55823e-08 -0.490572 0)
(2.8745e-08 -0.490572 0)
(2.29429e-08 -0.490572 0)
(1.82864e-08 -0.490572 0)
(1.42902e-08 -0.490572 0)
(1.09796e-08 -0.490572 0)
(8.0663e-09 -0.490572 0)
(5.54891e-09 -0.490572 0)
(3.23605e-09 -0.490572 0)
(1.06567e-09 -0.490572 0)
(-1.07173e-09 -0.490572 0)
(-3.22693e-09 -0.490572 0)
(-5.54401e-09 -0.490572 0)
(-8.07543e-09 -0.490572 0)
(-1.09834e-08 -0.490572 0)
(-1.42815e-08 -0.490572 0)
(-1.82843e-08 -0.490572 0)
(-2.29489e-08 -0.490572 0)
(-2.87523e-08 -0.490572 0)
(-3.55958e-08 -0.490572 0)
(-4.43619e-08 -0.490572 0)
(-5.46882e-08 -0.490572 0)
(-6.84462e-08 -0.490572 0)
(-8.46362e-08 -0.490572 0)
(-1.07117e-07 -0.490572 0)
(-1.33728e-07 -0.490572 0)
(-1.72715e-07 -0.490572 0)
(-2.194e-07 -0.490572 0)
(-2.9277e-07 -0.490572 0)
(-3.82837e-07 -0.490572 0)
(-5.37869e-07 -0.490572 0)
(-7.3713e-07 -0.490572 0)
(-1.1269e-06 -0.490571 0)
(-1.66759e-06 -0.490571 0)
(-2.95585e-06 -0.490571 0)
(-4.97532e-06 -0.49057 0)
(-1.13708e-05 -0.490568 0)
(-2.21209e-05 -0.490556 0)
(-4.5493e-05 -0.490559 0)
(-3.17741e-05 -0.490776 0)
(2.9381e-05 -0.359264 0)
(4.31594e-05 -0.359082 0)
(2.24579e-05 -0.359079 0)
(1.18474e-05 -0.359092 0)
(5.30784e-06 -0.359094 0)
(3.16594e-06 -0.359095 0)
(1.79873e-06 -0.359095 0)
(1.21587e-06 -0.359095 0)
(7.97689e-07 -0.359095 0)
(5.81898e-07 -0.359095 0)
(4.14858e-07 -0.359095 0)
(3.1714e-07 -0.359095 0)
(2.37919e-07 -0.359095 0)
(1.87253e-07 -0.359095 0)
(1.45097e-07 -0.359095 0)
(1.162e-07 -0.359095 0)
(9.18616e-08 -0.359095 0)
(7.42657e-08 -0.359095 0)
(5.93764e-08 -0.359095 0)
(4.81525e-08 -0.359095 0)
(3.86449e-08 -0.359095 0)
(3.12197e-08 -0.359095 0)
(2.49253e-08 -0.359095 0)
(1.9867e-08 -0.359095 0)
(1.55295e-08 -0.359095 0)
(1.1932e-08 -0.359095 0)
(8.7686e-09 -0.359095 0)
(6.03188e-09 -0.359095 0)
(3.51752e-09 -0.359095 0)
(1.15808e-09 -0.359095 0)
(-1.16429e-09 -0.359095 0)
(-3.5083e-09 -0.359095 0)
(-6.02729e-09 -0.359095 0)
(-8.77698e-09 -0.359095 0)
(-1.19353e-08 -0.359095 0)
(-1.55211e-08 -0.359095 0)
(-1.98647e-08 -0.359095 0)
(-2.49319e-08 -0.359095 0)
(-3.12282e-08 -0.359095 0)
(-3.86589e-08 -0.359095 0)
(-4.81629e-08 -0.359095 0)
(-5.93785e-08 -0.359095 0)
(-7.42805e-08 -0.359095 0)
(-9.18635e-08 -0.359095 0)
(-1.16198e-07 -0.359095 0)
(-1.45093e-07 -0.359095 0)
(-1.87251e-07 -0.359095 0)
(-2.37935e-07 -0.359095 0)
(-3.17158e-07 -0.359095 0)
(-4.14871e-07 -0.359095 0)
(-5.81908e-07 -0.359095 0)
(-7.97709e-07 -0.359095 0)
(-1.21588e-06 -0.359095 0)
(-1.79875e-06 -0.359095 0)
(-3.16594e-06 -0.359095 0)
(-5.30785e-06 -0.359094 0)
(-1.18474e-05 -0.359092 0)
(-2.24579e-05 -0.359079 0)
(-4.31593e-05 -0.359082 0)
(-2.93809e-05 -0.359264 0)
(2.65948e-05 -0.258819 0)
(4.03365e-05 -0.258666 0)
(2.26492e-05 -0.258662 0)
(1.22673e-05 -0.258675 0)
(5.63015e-06 -0.258677 0)
(3.37348e-06 -0.258678 0)
(1.93076e-06 -0.258679 0)
(1.30581e-06 -0.258679 0)
(8.59345e-07 -0.258679 0)
(6.26769e-07 -0.258679 0)
(4.4761e-07 -0.258679 0)
(3.42084e-07 -0.258679 0)
(2.56913e-07 -0.258679 0)
(2.02152e-07 -0.258679 0)
(1.56763e-07 -0.258679 0)
(1.25521e-07 -0.258679 0)
(9.92877e-08 -0.258679 0)
(8.02613e-08 -0.258679 0)
(6.41993e-08 -0.258679 0)
(5.20612e-08 -0.258679 0)
(4.17972e-08 -0.258679 0)
(3.37673e-08 -0.258679 0)
(2.69671e-08 -0.258679 0)
(2.14953e-08 -0.258679 0)
(1.68069e-08 -0.258679 0)
(1.29137e-08 -0.258679 0)
(9.49292e-09 -0.258679 0)
(6.52998e-09 -0.258679 0)
(3.80783e-09 -0.258679 0)
(1.2534e-09 -0.258679 0)
(-1.25971e-09 -0.258679 0)
(-3.79855e-09 -0.258679 0)
(-6.52576e-09 -0.258679 0)
(-9.50045e-09 -0.258679 0)
(-1.29165e-08 -0.258679 0)
(-1.6799e-08 -0.258679 0)
(-2.14928e-08 -0.258679 0)
(-2.69745e-08 -0.258679 0)
(-3.37771e-08 -0.258679 0)
(-4.18115e-08 -0.258679 0)
(-5.20725e-08 -0.258679 0)
(-6.42023e-08 -0.258679 0)
(-8.02758e-08 -0.258679 0)
(-9.92898e-08 -0.258679 0)
(-1.25519e-07 -0.258679 0)
(-1.56759e-07 -0.258679 0)
(-2.0215e-07 -0.258679 0)
(-2.56931e-07 -0.258679 0)
(-3.42101e-07 -0.258679 0)
(-4.47624e-07 -0.258679 0)
(-6.26781e-07 -0.258679 0)
(-8.59366e-07 -0.258679 0)
(-1.30582e-06 -0.258679 0)
(-1.93078e-06 -0.258679 0)
(-3.37348e-06 -0.258678 0)
(-5.63015e-06 -0.258677 0)
(-1.22673e-05 -0.258675 0)
(-2.26492e-05 -0.258662 0)
(-4.03364e-05 -0.258666 0)
(-2.65947e-05 -0.258819 0)
(2.35348e-05 -0.185181 0)
(3.71491e-05 -0.185051 0)
(2.26992e-05 -0.185046 0)
(1.26283e-05 -0.185059 0)
(5.94038e-06 -0.185062 0)
(3.57767e-06 -0.185063 0)
(2.06331e-06 -0.185063 0)
(1.39655e-06 -0.185064 0)
(9.22009e-07 -0.185064 0)
(6.72443e-07 -0.185064 0)
(4.81067e-07 -0.185064 0)
(3.67577e-07 -0.185064 0)
(2.76368e-07 -0.185064 0)
(2.17415e-07 -0.185064 0)
(1.68732e-07 -0.185064 0)
(1.35084e-07 -0.185064 0)
(1.06915e-07 -0.185064 0)
(8.64206e-08 -0.185064 0)
(6.9158e-08 -0.185064 0)
(5.60806e-08 -0.185064 0)
(4.50409e-08 -0.185064 0)
(3.63894e-08 -0.185064 0)
(2.90697e-08 -0.185064 0)
(2.31725e-08 -0.185064 0)
(1.81233e-08 -0.185064 0)
(1.39255e-08 -0.185064 0)
(1.02398e-08 -0.185064 0)
(7.04361e-09 -0.185064 0)
(4.1072e-09 -0.185064 0)
(1.35169e-09 -0.185064 0)
(-1.35809e-09 -0.185064 0)
(-4.0979e-09 -0.185064 0)
(-7.03975e-09 -0.185064 0)
(-1.02464e-08 -0.185064 0)
(-1.3928e-08 -0.185064 0)
(-1.8116e-08 -0.185064 0)
(-2.31699e-08 -0.185064 0)
(-2.90779e-08 -0.185064 0)
(-3.64006e-08 -0.185064 0)
(-4.50555e-08 -0.185064 0)
(-5.60929e-08 -0.185064 0)
(-6.9162e-08 -0.185064 0)
(-8.64348e-08 -0.185064 0)
(-1.06918e-07 -0.185064 0)
(-1.35083e-07 -0.185064 0)
(-1.68727e-07 -0.185064 0)
(-2.17414e-07 -0.185064 0)
(-2.76387e-07 -0.185064 0)
(-3.67594e-07 -0.185064 0)
(-4.81082e-07 -0.185064 0)
(-6.72456e-07 -0.185064 0)
(-9.2203e-07 -0.185064 0)
(-1.39657e-06 -0.185064 0)
(-2.06333e-06 -0.185063 0)
(-3.57766e-06 -0.185063 0)
(-5.94038e-06 -0.185062 0)
(-1.26283e-05 -0.185059 0)
(-2.26992e-05 -0.185046 0)
(-3.71491e-05 -0.185051 0)
(-2.35347e-05 -0.185181 0)
(2.03214e-05 -0.132695 0)
(3.37233e-05 -0.132581 0)
(2.26132e-05 -0.132577 0)
(1.29286e-05 -0.13259 0)
(6.23666e-06 -0.132592 0)
(3.77762e-06 -0.132594 0)
(2.196e-06 -0.132594 0)
(1.48792e-06 -0.132594 0)
(9.85599e-07 -0.132595 0)
(7.1888e-07 -0.132595 0)
(5.15213e-07 -0.132595 0)
(3.93614e-07 -0.132595 0)
(2.96282e-07 -0.132595 0)
(2.33044e-07 -0.132595 0)
(1.81005e-07 -0.132595 0)
(1.44893e-07 -0.132595 0)
(1.14747e-07 -0.132595 0)
(9.2746e-08 -0.132595 0)
(7.42547e-08 -0.132595 0)
(6.02127e-08 -0.132595 0)
(4.83778e-08 -0.132595 0)
(3.90875e-08 -0.132595 0)
(3.12346e-08 -0.132595 0)
(2.48997e-08 -0.132595 0)
(1.94796e-08 -0.132595 0)
(1.49682e-08 -0.132595 0)
(1.10098e-08 -0.132595 0)
(7.57316e-09 -0.132595 0)
(4.41595e-09 -0.132595 0)
(1.45306e-09 -0.132595 0)
(-1.45954e-09 -0.132595 0)
(-4.40656e-09 -0.132595 0)
(-7.56957e-09 -0.132595 0)
(-1.10154e-08 -0.132595 0)
(-1.49704e-08 -0.132595 0)
(-1.94729e-08 -0.132595 0)
(-2.4897e-08 -0.132595 0)
(-3.12435e-08 -0.132595 0)
(-3.91e-08 -0.132595 0)
(-4.83926e-08 -0.132595 0)
(-6.0226e-08 -0.132595 0)
(-7.42596e-08 -0.132595 0)
(-9.27597e-08 -0.132595 0)
(-1.1475e-07 -0.132595 0)
(-1.44893e-07 -0.132595 0)
(-1.80999e-07 -0.132595 0)
(-2.33043e-07 -0.132595 0)
(-2.96303e-07 -0.132595 0)
(-3.93631e-07 -0.132595 0)
(-5.15228e-07 -0.132595 0)
(-7.18894e-07 -0.132595 0)
(-9.85621e-07 -0.132595 0)
(-1.48794e-06 -0.132594 0)
(-2.19602e-06 -0.132594 0)
(-3.77762e-06 -0.132594 0)
(-6.23667e-06 -0.132592 0)
(-1.29286e-05 -0.13259 0)