/*--------------------------------*- C++ -*----------------------------------*\
| =========                 |                                                 |
| \\      /  F ield         | foam-extend: Open Source CFD                    |
|  \\    /   O peration     | Version:     4.0                                |
|   \\  /    A nd           | Web:         http://www.foam-extend.org         |
|    \\/     M anipulation  |                                                 |
\*---------------------------------------------------------------------------*/
FoamFile
{
    version     2.0;
    format      ascii;
    class       volScalarField;
    location    "680";
    object      cPlus;
}
// * * * * * * * * * * * * * * * * * * * * * * * * * * * * * * * * * * * * * //

dimensions      [0 0 0 0 0 0 0];

internalField   nonuniform List<scalar> 
6960
(
0.214774
0.214705
0.214653
0.214621
0.214603
0.214592
0.214585
0.214582
0.21458
0.214578
0.214578
0.214577
0.214577
0.214577
0.214576
0.214576
0.214576
0.214576
0.214576
0.214576
0.214576
0.214576
0.214576
0.214576
0.214576
0.214576
0.214576
0.214576
0.214576
0.214576
0.214576
0.214576
0.214576
0.214576
0.214576
0.214576
0.214576
0.214576
0.214576
0.214576
0.214576
0.214576
0.214576
0.214576
0.214576
0.214576
0.214577
0.214577
0.214577
0.214578
0.214578
0.21458
0.214582
0.214585
0.214592
0.214603
0.214621
0.214653
0.214705
0.214774
0.051489
0.0514684
0.0514522
0.0514419
0.0514358
0.0514323
0.0514303
0.0514291
0.0514284
0.051428
0.0514278
0.0514276
0.0514275
0.0514274
0.0514274
0.0514273
0.0514273
0.0514273
0.0514272
0.0514272
0.0514272
0.0514272
0.0514272
0.0514272
0.0514272
0.0514272
0.0514272
0.0514272
0.0514272
0.0514272
0.0514272
0.0514272
0.0514272
0.0514272
0.0514272
0.0514272
0.0514272
0.0514272
0.0514272
0.0514272
0.0514272
0.0514272
0.0514273
0.0514273
0.0514273
0.0514274
0.0514274
0.0514275
0.0514276
0.0514278
0.051428
0.0514284
0.0514291
0.0514303
0.0514323
0.0514358
0.0514419
0.0514522
0.0514684
0.051489
0.0234159
0.0234166
0.0234159
0.0234154
0.0234149
0.0234147
0.0234145
0.0234145
0.0234144
0.0234144
0.0234144
0.0234143
0.0234143
0.0234143
0.0234144
0.0234144
0.0234144
0.0234144
0.0234144
0.0234144
0.0234144
0.0234144
0.0234144
0.0234144
0.0234144
0.0234144
0.0234144
0.0234144
0.0234144
0.0234144
0.0234144
0.0234144
0.0234144
0.0234144
0.0234144
0.0234144
0.0234144
0.0234144
0.0234144
0.0234144
0.0234144
0.0234144
0.0234144
0.0234144
0.0234144
0.0234144
0.0234143
0.0234143
0.0234143
0.0234144
0.0234144
0.0234144
0.0234145
0.0234145
0.0234147
0.0234149
0.0234154
0.0234159
0.0234166
0.0234159
0.0185221
0.0185296
0.0185338
0.0185362
0.0185376
0.0185383
0.0185388
0.018539
0.0185392
0.0185393
0.0185393
0.0185394
0.0185394
0.0185394
0.0185394
0.0185394
0.0185395
0.0185395
0.0185395
0.0185395
0.0185395
0.0185395
0.0185395
0.0185395
0.0185396
0.0185396
0.0185396
0.0185396
0.0185396
0.0185396
0.0185396
0.0185396
0.0185396
0.0185396
0.0185396
0.0185396
0.0185395
0.0185395
0.0185395
0.0185395
0.0185395
0.0185395
0.0185395
0.0185395
0.0185394
0.0185394
0.0185394
0.0185394
0.0185394
0.0185393
0.0185393
0.0185392
0.018539
0.0185388
0.0185383
0.0185376
0.0185362
0.0185338
0.0185296
0.0185221
0.0178685
0.0178778
0.0178833
0.0178866
0.0178885
0.0178895
0.0178901
0.0178905
0.0178907
0.0178908
0.0178909
0.0178909
0.017891
0.017891
0.017891
0.017891
0.0178911
0.0178911
0.0178911
0.0178911
0.0178911
0.0178911
0.0178911
0.0178912
0.0178912
0.0178912
0.0178912
0.0178912
0.0178912
0.0178912
0.0178912
0.0178912
0.0178912
0.0178912
0.0178912
0.0178912
0.0178912
0.0178911
0.0178911
0.0178911
0.0178911
0.0178911
0.0178911
0.0178911
0.017891
0.017891
0.017891
0.017891
0.0178909
0.0178909
0.0178908
0.0178907
0.0178905
0.0178901
0.0178895
0.0178885
0.0178866
0.0178833
0.0178778
0.0178685
0.0179902
0.0180001
0.0180061
0.0180096
0.0180116
0.0180128
0.0180134
0.0180138
0.018014
0.0180141
0.0180142
0.0180143
0.0180143
0.0180144
0.0180144
0.0180144
0.0180144
0.0180144
0.0180145
0.0180145
0.0180145
0.0180145
0.0180145
0.0180145
0.0180145
0.0180145
0.0180145
0.0180146
0.0180146
0.0180146
0.0180146
0.0180146
0.0180146
0.0180145
0.0180145
0.0180145
0.0180145
0.0180145
0.0180145
0.0180145
0.0180145
0.0180145
0.0180144
0.0180144
0.0180144
0.0180144
0.0180144
0.0180143
0.0180143
0.0180142
0.0180141
0.018014
0.0180138
0.0180134
0.0180128
0.0180116
0.0180096
0.0180061
0.0180001
0.0179902
0.0182659
0.0182762
0.0182824
0.0182861
0.0182882
0.0182894
0.01829
0.0182904
0.0182907
0.0182908
0.0182909
0.0182909
0.018291
0.018291
0.0182911
0.0182911
0.0182911
0.0182911
0.0182911
0.0182912
0.0182912
0.0182912
0.0182912
0.0182912
0.0182912
0.0182912
0.0182912
0.0182912
0.0182912
0.0182912
0.0182912
0.0182912
0.0182912
0.0182912
0.0182912
0.0182912
0.0182912
0.0182912
0.0182912
0.0182912
0.0182912
0.0182911
0.0182911
0.0182911
0.0182911
0.0182911
0.018291
0.018291
0.0182909
0.0182909
0.0182908
0.0182907
0.0182904
0.01829
0.0182894
0.0182882
0.0182861
0.0182824
0.0182762
0.0182659
0.0185904
0.0186011
0.0186075
0.0186112
0.0186134
0.0186146
0.0186153
0.0186157
0.018616
0.0186161
0.0186162
0.0186163
0.0186163
0.0186163
0.0186164
0.0186164
0.0186164
0.0186164
0.0186165
0.0186165
0.0186165
0.0186165
0.0186165
0.0186165
0.0186165
0.0186165
0.0186165
0.0186166
0.0186166
0.0186166
0.0186166
0.0186166
0.0186166
0.0186165
0.0186165
0.0186165
0.0186165
0.0186165
0.0186165
0.0186165
0.0186165
0.0186165
0.0186164
0.0186164
0.0186164
0.0186164
0.0186163
0.0186163
0.0186163
0.0186162
0.0186161
0.018616
0.0186157
0.0186153
0.0186146
0.0186134
0.0186112
0.0186075
0.0186011
0.0185904
0.0189491
0.0189601
0.0189667
0.0189706
0.0189729
0.0189741
0.0189748
0.0189753
0.0189755
0.0189757
0.0189757
0.0189758
0.0189759
0.0189759
0.0189759
0.018976
0.018976
0.018976
0.018976
0.018976
0.0189761
0.0189761
0.0189761
0.0189761
0.0189761
0.0189761
0.0189761
0.0189761
0.0189761
0.0189761
0.0189761
0.0189761
0.0189761
0.0189761
0.0189761
0.0189761
0.0189761
0.0189761
0.0189761
0.0189761
0.018976
0.018976
0.018976
0.018976
0.018976
0.0189759
0.0189759
0.0189759
0.0189758
0.0189757
0.0189757
0.0189755
0.0189753
0.0189748
0.0189741
0.0189729
0.0189706
0.0189667
0.0189601
0.0189491
0.0193434
0.0193548
0.0193616
0.0193657
0.019368
0.0193693
0.0193701
0.0193705
0.0193707
0.0193709
0.019371
0.0193711
0.0193711
0.0193711
0.0193712
0.0193712
0.0193712
0.0193713
0.0193713
0.0193713
0.0193713
0.0193713
0.0193713
0.0193713
0.0193714
0.0193714
0.0193714
0.0193714
0.0193714
0.0193714
0.0193714
0.0193714
0.0193714
0.0193714
0.0193714
0.0193714
0.0193713
0.0193713
0.0193713
0.0193713
0.0193713
0.0193713
0.0193713
0.0193712
0.0193712
0.0193712
0.0193711
0.0193711
0.0193711
0.019371
0.0193709
0.0193707
0.0193705
0.0193701
0.0193693
0.019368
0.0193657
0.0193616
0.0193548
0.0193434
0.019778
0.0197898
0.0197969
0.0198011
0.0198036
0.0198049
0.0198057
0.0198062
0.0198064
0.0198066
0.0198067
0.0198068
0.0198068
0.0198068
0.0198069
0.0198069
0.0198069
0.019807
0.019807
0.019807
0.019807
0.019807
0.019807
0.0198071
0.0198071
0.0198071
0.0198071
0.0198071
0.0198071
0.0198071
0.0198071
0.0198071
0.0198071
0.0198071
0.0198071
0.0198071
0.0198071
0.019807
0.019807
0.019807
0.019807
0.019807
0.019807
0.0198069
0.0198069
0.0198069
0.0198068
0.0198068
0.0198068
0.0198067
0.0198066
0.0198064
0.0198062
0.0198057
0.0198049
0.0198036
0.0198011
0.0197969
0.0197898
0.019778
0.0202592
0.0202716
0.020279
0.0202833
0.0202859
0.0202873
0.0202881
0.0202886
0.0202888
0.020289
0.0202891
0.0202892
0.0202893
0.0202893
0.0202893
0.0202894
0.0202894
0.0202894
0.0202894
0.0202895
0.0202895
0.0202895
0.0202895
0.0202895
0.0202895
0.0202895
0.0202895
0.0202895
0.0202896
0.0202896
0.0202896
0.0202896
0.0202895
0.0202895
0.0202895
0.0202895
0.0202895
0.0202895
0.0202895
0.0202895
0.0202895
0.0202894
0.0202894
0.0202894
0.0202894
0.0202893
0.0202893
0.0202893
0.0202892
0.0202891
0.020289
0.0202888
0.0202886
0.0202881
0.0202873
0.0202859
0.0202833
0.020279
0.0202716
0.0202592
0.0207948
0.0208077
0.0208155
0.0208201
0.0208227
0.0208242
0.0208251
0.0208255
0.0208258
0.020826
0.0208261
0.0208262
0.0208263
0.0208263
0.0208263
0.0208264
0.0208264
0.0208264
0.0208265
0.0208265
0.0208265
0.0208265
0.0208265
0.0208265
0.0208266
0.0208266
0.0208266
0.0208266
0.0208266
0.0208266
0.0208266
0.0208266
0.0208266
0.0208266
0.0208266
0.0208266
0.0208265
0.0208265
0.0208265
0.0208265
0.0208265
0.0208265
0.0208264
0.0208264
0.0208264
0.0208263
0.0208263
0.0208263
0.0208262
0.0208261
0.020826
0.0208258
0.0208255
0.0208251
0.0208242
0.0208227
0.0208201
0.0208155
0.0208077
0.0207948
0.0213945
0.0214081
0.0214163
0.0214211
0.0214239
0.0214254
0.0214263
0.0214269
0.0214272
0.0214273
0.0214275
0.0214275
0.0214276
0.0214277
0.0214277
0.0214277
0.0214278
0.0214278
0.0214278
0.0214278
0.0214279
0.0214279
0.0214279
0.0214279
0.0214279
0.0214279
0.0214279
0.0214279
0.0214279
0.0214279
0.0214279
0.0214279
0.0214279
0.0214279
0.0214279
0.0214279
0.0214279
0.0214279
0.0214279
0.0214279
0.0214278
0.0214278
0.0214278
0.0214278
0.0214277
0.0214277
0.0214277
0.0214276
0.0214275
0.0214275
0.0214273
0.0214272
0.0214269
0.0214263
0.0214254
0.0214239
0.0214211
0.0214163
0.0214081
0.0213945
0.0220707
0.022085
0.0220936
0.0220987
0.0221017
0.0221033
0.0221043
0.0221048
0.0221051
0.0221053
0.0221055
0.0221056
0.0221056
0.0221057
0.0221057
0.0221058
0.0221058
0.0221058
0.0221058
0.0221059
0.0221059
0.0221059
0.0221059
0.0221059
0.0221059
0.022106
0.022106
0.022106
0.022106
0.022106
0.022106
0.022106
0.022106
0.022106
0.022106
0.0221059
0.0221059
0.0221059
0.0221059
0.0221059
0.0221059
0.0221058
0.0221058
0.0221058
0.0221058
0.0221057
0.0221057
0.0221056
0.0221056
0.0221055
0.0221053
0.0221051
0.0221048
0.0221043
0.0221033
0.0221017
0.0220987
0.0220936
0.022085
0.0220707
0.0228389
0.0228542
0.0228634
0.0228688
0.0228719
0.0228737
0.0228747
0.0228753
0.0228756
0.0228758
0.022876
0.0228761
0.0228761
0.0228762
0.0228762
0.0228763
0.0228763
0.0228764
0.0228764
0.0228764
0.0228764
0.0228764
0.0228765
0.0228765
0.0228765
0.0228765
0.0228765
0.0228765
0.0228765
0.0228765
0.0228765
0.0228765
0.0228765
0.0228765
0.0228765
0.0228765
0.0228765
0.0228765
0.0228764
0.0228764
0.0228764
0.0228764
0.0228764
0.0228763
0.0228763
0.0228762
0.0228762
0.0228761
0.0228761
0.022876
0.0228758
0.0228756
0.0228753
0.0228747
0.0228737
0.0228719
0.0228688
0.0228634
0.0228542
0.0228389
0.02372
0.0237364
0.0237462
0.023752
0.0237553
0.0237573
0.0237583
0.023759
0.0237593
0.0237596
0.0237597
0.0237598
0.0237599
0.0237599
0.02376
0.02376
0.0237601
0.0237601
0.0237601
0.0237602
0.0237602
0.0237602
0.0237602
0.0237602
0.0237603
0.0237603
0.0237603
0.0237603
0.0237603
0.0237603
0.0237603
0.0237603
0.0237603
0.0237603
0.0237603
0.0237603
0.0237602
0.0237602
0.0237602
0.0237602
0.0237602
0.0237601
0.0237601
0.0237601
0.02376
0.02376
0.0237599
0.0237599
0.0237598
0.0237597
0.0237596
0.0237593
0.023759
0.0237583
0.0237573
0.0237553
0.023752
0.0237462
0.0237364
0.02372
0.0247413
0.024759
0.0247696
0.0247759
0.0247795
0.0247816
0.0247828
0.0247834
0.0247838
0.0247841
0.0247842
0.0247844
0.0247844
0.0247845
0.0247846
0.0247846
0.0247846
0.0247847
0.0247847
0.0247847
0.0247848
0.0247848
0.0247848
0.0247848
0.0247848
0.0247849
0.0247849
0.0247849
0.0247849
0.0247849
0.0247849
0.0247849
0.0247849
0.0247849
0.0247849
0.0247848
0.0247848
0.0247848
0.0247848
0.0247848
0.0247847
0.0247847
0.0247847
0.0247846
0.0247846
0.0247846
0.0247845
0.0247844
0.0247844
0.0247842
0.0247841
0.0247838
0.0247834
0.0247828
0.0247816
0.0247795
0.0247759
0.0247696
0.024759
0.0247413
0.0259403
0.0259597
0.0259713
0.0259782
0.0259821
0.0259844
0.0259857
0.0259864
0.0259869
0.0259871
0.0259873
0.0259874
0.0259875
0.0259876
0.0259876
0.0259877
0.0259877
0.0259878
0.0259878
0.0259878
0.0259879
0.0259879
0.0259879
0.0259879
0.025988
0.025988
0.025988
0.025988
0.025988
0.025988
0.025988
0.025988
0.025988
0.025988
0.025988
0.025988
0.0259879
0.0259879
0.0259879
0.0259879
0.0259878
0.0259878
0.0259878
0.0259877
0.0259877
0.0259876
0.0259876
0.0259875
0.0259874
0.0259873
0.0259871
0.0259869
0.0259864
0.0259857
0.0259844
0.0259821
0.0259782
0.0259713
0.0259597
0.0259403
0.0273697
0.0273911
0.027404
0.0274116
0.027416
0.0274185
0.02742
0.0274208
0.0274213
0.0274216
0.0274218
0.0274219
0.027422
0.0274221
0.0274221
0.0274222
0.0274223
0.0274223
0.0274223
0.0274224
0.0274224
0.0274224
0.0274225
0.0274225
0.0274225
0.0274225
0.0274225
0.0274225
0.0274225
0.0274226
0.0274226
0.0274225
0.0274225
0.0274225
0.0274225
0.0274225
0.0274225
0.0274225
0.0274224
0.0274224
0.0274224
0.0274223
0.0274223
0.0274223
0.0274222
0.0274221
0.0274221
0.027422
0.0274219
0.0274218
0.0274216
0.0274213
0.0274208
0.02742
0.0274185
0.027416
0.0274116
0.027404
0.0273911
0.0273697
0.0291054
0.0291296
0.0291441
0.0291527
0.0291577
0.0291605
0.0291621
0.029163
0.0291636
0.0291639
0.0291642
0.0291643
0.0291644
0.0291645
0.0291646
0.0291646
0.0291647
0.0291647
0.0291648
0.0291648
0.0291649
0.0291649
0.0291649
0.029165
0.029165
0.029165
0.029165
0.029165
0.029165
0.029165
0.029165
0.029165
0.029165
0.029165
0.029165
0.029165
0.029165
0.0291649
0.0291649
0.0291649
0.0291648
0.0291648
0.0291647
0.0291647
0.0291646
0.0291646
0.0291645
0.0291644
0.0291643
0.0291642
0.0291639
0.0291636
0.029163
0.0291621
0.0291605
0.0291577
0.0291527
0.0291441
0.0291296
0.0291054
0.031261
0.0312887
0.0313054
0.0313154
0.0313211
0.0313244
0.0313263
0.0313273
0.031328
0.0313284
0.0313286
0.0313288
0.0313289
0.031329
0.0313291
0.0313292
0.0313292
0.0313293
0.0313294
0.0313294
0.0313294
0.0313295
0.0313295
0.0313296
0.0313296
0.0313296
0.0313296
0.0313296
0.0313296
0.0313296
0.0313296
0.0313296
0.0313296
0.0313296
0.0313296
0.0313296
0.0313296
0.0313295
0.0313295
0.0313294
0.0313294
0.0313294
0.0313293
0.0313292
0.0313292
0.0313291
0.031329
0.0313289
0.0313288
0.0313286
0.0313284
0.031328
0.0313273
0.0313263
0.0313244
0.0313211
0.0313154
0.0313054
0.0312887
0.031261
0.0340097
0.0340424
0.0340622
0.034074
0.0340808
0.0340847
0.034087
0.0340882
0.034089
0.0340895
0.0340898
0.03409
0.0340901
0.0340902
0.0340903
0.0340904
0.0340905
0.0340906
0.0340906
0.0340907
0.0340908
0.0340908
0.0340908
0.0340909
0.0340909
0.0340909
0.034091
0.034091
0.034091
0.034091
0.034091
0.034091
0.034091
0.034091
0.0340909
0.0340909
0.0340909
0.0340908
0.0340908
0.0340908
0.0340907
0.0340906
0.0340906
0.0340905
0.0340904
0.0340903
0.0340902
0.0340901
0.03409
0.0340898
0.0340895
0.034089
0.0340882
0.034087
0.0340847
0.0340808
0.034074
0.0340622
0.0340424
0.0340097
0.0376179
0.0376577
0.0376819
0.0376964
0.0377047
0.0377095
0.0377122
0.0377138
0.0377147
0.0377153
0.0377157
0.0377159
0.0377161
0.0377163
0.0377164
0.0377165
0.0377166
0.0377167
0.0377168
0.0377168
0.0377169
0.037717
0.037717
0.0377171
0.0377171
0.0377171
0.0377172
0.0377172
0.0377172
0.0377172
0.0377172
0.0377172
0.0377172
0.0377172
0.0377171
0.0377171
0.0377171
0.037717
0.037717
0.0377169
0.0377168
0.0377168
0.0377167
0.0377166
0.0377165
0.0377164
0.0377163
0.0377161
0.0377159
0.0377157
0.0377153
0.0377147
0.0377138
0.0377122
0.0377095
0.0377047
0.0376964
0.0376819
0.0376577
0.0376179
0.0424799
0.04253
0.0425606
0.0425788
0.0425894
0.0425955
0.0425989
0.0426009
0.0426021
0.0426028
0.0426033
0.0426036
0.0426038
0.042604
0.0426042
0.0426043
0.0426045
0.0426046
0.0426047
0.0426048
0.0426048
0.0426049
0.042605
0.042605
0.0426051
0.0426051
0.0426052
0.0426052
0.0426052
0.0426052
0.0426052
0.0426052
0.0426052
0.0426052
0.0426051
0.0426051
0.042605
0.042605
0.0426049
0.0426048
0.0426048
0.0426047
0.0426046
0.0426045
0.0426043
0.0426042
0.042604
0.0426038
0.0426036
0.0426033
0.0426028
0.0426021
0.0426009
0.0425989
0.0425955
0.0425894
0.0425788
0.0425606
0.04253
0.0424799
0.0491262
0.0491907
0.0492302
0.0492538
0.0492675
0.0492754
0.0492798
0.0492824
0.049284
0.0492849
0.0492855
0.0492859
0.0492863
0.0492865
0.0492867
0.0492869
0.049287
0.0492872
0.0492873
0.0492874
0.0492875
0.0492876
0.0492877
0.0492878
0.0492879
0.0492879
0.049288
0.049288
0.049288
0.049288
0.049288
0.049288
0.049288
0.049288
0.0492879
0.0492879
0.0492878
0.0492877
0.0492876
0.0492875
0.0492874
0.0492873
0.0492872
0.049287
0.0492869
0.0492867
0.0492865
0.0492863
0.0492859
0.0492855
0.0492849
0.049284
0.0492824
0.0492798
0.0492754
0.0492675
0.0492538
0.0492302
0.0491907
0.0491262
0.0581502
0.0582337
0.058285
0.0583157
0.0583335
0.0583437
0.0583496
0.0583529
0.0583549
0.0583562
0.058357
0.0583575
0.0583579
0.0583582
0.0583585
0.0583587
0.0583589
0.0583591
0.0583593
0.0583594
0.0583596
0.0583597
0.0583598
0.0583599
0.05836
0.0583601
0.0583601
0.0583602
0.0583602
0.0583602
0.0583602
0.0583602
0.0583602
0.0583601
0.0583601
0.05836
0.0583599
0.0583598
0.0583597
0.0583596
0.0583594
0.0583593
0.0583591
0.0583589
0.0583587
0.0583585
0.0583582
0.0583579
0.0583575
0.058357
0.0583562
0.0583549
0.0583529
0.0583496
0.0583437
0.0583335
0.0583157
0.058285
0.0582337
0.0581502
0.0700246
0.070131
0.0701965
0.0702357
0.0702585
0.0702716
0.0702791
0.0702834
0.0702859
0.0702875
0.0702886
0.0702893
0.0702898
0.0702902
0.0702905
0.0702908
0.0702911
0.0702913
0.0702915
0.0702917
0.0702919
0.0702921
0.0702922
0.0702923
0.0702924
0.0702925
0.0702926
0.0702926
0.0702927
0.0702927
0.0702927
0.0702927
0.0702926
0.0702926
0.0702925
0.0702924
0.0702923
0.0702922
0.0702921
0.0702919
0.0702917
0.0702915
0.0702913
0.0702911
0.0702908
0.0702905
0.0702902
0.0702898
0.0702893
0.0702886
0.0702875
0.0702859
0.0702834
0.0702791
0.0702716
0.0702585
0.0702357
0.0701965
0.070131
0.0700246
0.0848802
0.0850113
0.085092
0.0851404
0.0851686
0.0851848
0.085194
0.0851994
0.0852026
0.0852045
0.0852058
0.0852067
0.0852073
0.0852078
0.0852083
0.0852086
0.0852089
0.0852092
0.0852095
0.0852097
0.0852099
0.0852101
0.0852103
0.0852104
0.0852106
0.0852107
0.0852107
0.0852108
0.0852109
0.0852109
0.0852109
0.0852109
0.0852108
0.0852107
0.0852107
0.0852106
0.0852104
0.0852103
0.0852101
0.0852099
0.0852097
0.0852095
0.0852092
0.0852089
0.0852086
0.0852083
0.0852078
0.0852073
0.0852067
0.0852058
0.0852045
0.0852026
0.0851994
0.085194
0.0851848
0.0851686
0.0851404
0.085092
0.0850113
0.0848802
0.102411
0.102566
0.102661
0.102719
0.102752
0.102771
0.102782
0.102789
0.102793
0.102795
0.102797
0.102798
0.102798
0.102799
0.102799
0.1028
0.1028
0.102801
0.102801
0.102801
0.102801
0.102802
0.102802
0.102802
0.102802
0.102802
0.102802
0.102802
0.102802
0.102802
0.102802
0.102802
0.102802
0.102802
0.102802
0.102802
0.102802
0.102802
0.102802
0.102801
0.102801
0.102801
0.102801
0.1028
0.1028
0.102799
0.102799
0.102798
0.102798
0.102797
0.102795
0.102793
0.102789
0.102782
0.102771
0.102752
0.102719
0.102661
0.102566
0.102411
0.121997
0.122174
0.122283
0.122349
0.122387
0.122409
0.122422
0.12243
0.122434
0.122437
0.122438
0.12244
0.122441
0.122441
0.122442
0.122442
0.122443
0.122443
0.122443
0.122444
0.122444
0.122444
0.122444
0.122445
0.122445
0.122445
0.122445
0.122445
0.122445
0.122445
0.122445
0.122445
0.122445
0.122445
0.122445
0.122445
0.122445
0.122444
0.122444
0.122444
0.122444
0.122443
0.122443
0.122443
0.122442
0.122442
0.122441
0.122441
0.12244
0.122438
0.122437
0.122434
0.12243
0.122422
0.122409
0.122387
0.122349
0.122283
0.122174
0.121997
0.142955
0.143151
0.143272
0.143345
0.143387
0.143412
0.143426
0.143435
0.14344
0.143443
0.143445
0.143446
0.143447
0.143448
0.143448
0.143449
0.143449
0.14345
0.14345
0.14345
0.143451
0.143451
0.143451
0.143451
0.143451
0.143452
0.143452
0.143452
0.143452
0.143452
0.143452
0.143452
0.143452
0.143452
0.143452
0.143451
0.143451
0.143451
0.143451
0.143451
0.14345
0.14345
0.14345
0.143449
0.143449
0.143448
0.143448
0.143447
0.143446
0.143445
0.143443
0.14344
0.143435
0.143426
0.143412
0.143387
0.143345
0.143272
0.143151
0.142955
0.164717
0.16493
0.165061
0.165141
0.165187
0.165215
0.16523
0.165239
0.165245
0.165248
0.16525
0.165252
0.165253
0.165254
0.165254
0.165255
0.165255
0.165256
0.165256
0.165257
0.165257
0.165257
0.165257
0.165258
0.165258
0.165258
0.165258
0.165258
0.165258
0.165258
0.165258
0.165258
0.165258
0.165258
0.165258
0.165258
0.165258
0.165257
0.165257
0.165257
0.165257
0.165256
0.165256
0.165255
0.165255
0.165254
0.165254
0.165253
0.165252
0.16525
0.165248
0.165245
0.165239
0.16523
0.165215
0.165187
0.165141
0.165061
0.16493
0.164717
0.186896
0.187124
0.187265
0.187351
0.187401
0.187431
0.187448
0.187458
0.187464
0.187468
0.18747
0.187472
0.187473
0.187474
0.187474
0.187475
0.187475
0.187476
0.187476
0.187477
0.187477
0.187477
0.187477
0.187478
0.187478
0.187478
0.187478
0.187478
0.187478
0.187478
0.187478
0.187478
0.187478
0.187478
0.187478
0.187478
0.187478
0.187477
0.187477
0.187477
0.187477
0.187476
0.187476
0.187475
0.187475
0.187474
0.187474
0.187473
0.187472
0.18747
0.187468
0.187464
0.187458
0.187448
0.187431
0.187401
0.187351
0.187265
0.187124
0.186896
0.209254
0.209496
0.209646
0.209737
0.209792
0.209823
0.209842
0.209853
0.209859
0.209863
0.209866
0.209867
0.209869
0.209869
0.20987
0.209871
0.209871
0.209872
0.209872
0.209872
0.209873
0.209873
0.209873
0.209874
0.209874
0.209874
0.209874
0.209874
0.209874
0.209874
0.209874
0.209874
0.209874
0.209874
0.209874
0.209874
0.209874
0.209873
0.209873
0.209873
0.209872
0.209872
0.209872
0.209871
0.209871
0.20987
0.209869
0.209869
0.209867
0.209866
0.209863
0.209859
0.209853
0.209842
0.209823
0.209792
0.209737
0.209646
0.209496
0.209254
0.231647
0.231901
0.23206
0.232157
0.232214
0.232248
0.232268
0.23228
0.232287
0.232291
0.232294
0.232296
0.232297
0.232298
0.232299
0.2323
0.2323
0.232301
0.232301
0.232301
0.232302
0.232302
0.232302
0.232302
0.232303
0.232303
0.232303
0.232303
0.232303
0.232303
0.232303
0.232303
0.232303
0.232303
0.232303
0.232303
0.232302
0.232302
0.232302
0.232302
0.232301
0.232301
0.232301
0.2323
0.2323
0.232299
0.232298
0.232297
0.232296
0.232294
0.232291
0.232287
0.23228
0.232268
0.232248
0.232214
0.232157
0.23206
0.231901
0.231647
0.253984
0.25425
0.254417
0.254519
0.25458
0.254617
0.254638
0.25465
0.254658
0.254663
0.254666
0.254668
0.254669
0.25467
0.254671
0.254672
0.254672
0.254673
0.254673
0.254673
0.254674
0.254674
0.254674
0.254674
0.254675
0.254675
0.254675
0.254675
0.254675
0.254675
0.254675
0.254675
0.254675
0.254675
0.254675
0.254675
0.254674
0.254674
0.254674
0.254674
0.254673
0.254673
0.254673
0.254672
0.254672
0.254671
0.25467
0.254669
0.254668
0.254666
0.254663
0.254658
0.25465
0.254638
0.254617
0.25458
0.254519
0.254417
0.25425
0.253984
0.276204
0.27648
0.276655
0.276763
0.276828
0.276866
0.276889
0.276902
0.276911
0.276916
0.276919
0.276921
0.276922
0.276923
0.276924
0.276925
0.276926
0.276926
0.276926
0.276927
0.276927
0.276927
0.276928
0.276928
0.276928
0.276928
0.276928
0.276929
0.276929
0.276929
0.276929
0.276929
0.276929
0.276928
0.276928
0.276928
0.276928
0.276928
0.276927
0.276927
0.276927
0.276926
0.276926
0.276926
0.276925
0.276924
0.276923
0.276922
0.276921
0.276919
0.276916
0.276911
0.276902
0.276889
0.276866
0.276828
0.276763
0.276655
0.27648
0.276204
0.298261
0.298547
0.298729
0.298842
0.29891
0.298951
0.298975
0.29899
0.298999
0.299004
0.299007
0.29901
0.299011
0.299013
0.299013
0.299014
0.299015
0.299015
0.299016
0.299016
0.299016
0.299017
0.299017
0.299017
0.299017
0.299017
0.299018
0.299018
0.299018
0.299018
0.299018
0.299018
0.299018
0.299018
0.299017
0.299017
0.299017
0.299017
0.299017
0.299016
0.299016
0.299016
0.299015
0.299015
0.299014
0.299013
0.299013
0.299011
0.29901
0.299007
0.299004
0.298999
0.29899
0.298975
0.298951
0.29891
0.298842
0.298729
0.298547
0.298261
0.320118
0.320413
0.320602
0.32072
0.320792
0.320835
0.320861
0.320876
0.320885
0.320891
0.320895
0.320897
0.320899
0.3209
0.320901
0.320902
0.320903
0.320903
0.320903
0.320904
0.320904
0.320904
0.320905
0.320905
0.320905
0.320905
0.320905
0.320906
0.320906
0.320906
0.320906
0.320906
0.320906
0.320905
0.320905
0.320905
0.320905
0.320905
0.320904
0.320904
0.320904
0.320903
0.320903
0.320903
0.320902
0.320901
0.3209
0.320899
0.320897
0.320895
0.320891
0.320885
0.320876
0.320861
0.320835
0.320792
0.32072
0.320602
0.320413
0.320118
0.341744
0.342047
0.342243
0.342366
0.342441
0.342486
0.342514
0.34253
0.34254
0.342546
0.34255
0.342553
0.342555
0.342556
0.342557
0.342558
0.342558
0.342559
0.342559
0.34256
0.34256
0.34256
0.34256
0.342561
0.342561
0.342561
0.342561
0.342561
0.342561
0.342561
0.342561
0.342561
0.342561
0.342561
0.342561
0.342561
0.342561
0.34256
0.34256
0.34256
0.34256
0.342559
0.342559
0.342558
0.342558
0.342557
0.342556
0.342555
0.342553
0.34255
0.342546
0.34254
0.34253
0.342514
0.342486
0.342441
0.342366
0.342243
0.342047
0.341744
0.363112
0.363422
0.363624
0.363752
0.363831
0.363879
0.363907
0.363925
0.363936
0.363942
0.363947
0.363949
0.363951
0.363953
0.363954
0.363954
0.363955
0.363955
0.363956
0.363956
0.363957
0.363957
0.363957
0.363957
0.363958
0.363958
0.363958
0.363958
0.363958
0.363958
0.363958
0.363958
0.363958
0.363958
0.363958
0.363958
0.363957
0.363957
0.363957
0.363957
0.363956
0.363956
0.363955
0.363955
0.363954
0.363954
0.363953
0.363951
0.363949
0.363947
0.363942
0.363936
0.363925
0.363907
0.363879
0.363831
0.363752
0.363624
0.363422
0.363112
0.384198
0.384515
0.384723
0.384855
0.384938
0.384988
0.385018
0.385037
0.385048
0.385055
0.38506
0.385063
0.385065
0.385066
0.385067
0.385068
0.385069
0.385069
0.38507
0.38507
0.385071
0.385071
0.385071
0.385071
0.385071
0.385072
0.385072
0.385072
0.385072
0.385072
0.385072
0.385072
0.385072
0.385072
0.385072
0.385071
0.385071
0.385071
0.385071
0.385071
0.38507
0.38507
0.385069
0.385069
0.385068
0.385067
0.385066
0.385065
0.385063
0.38506
0.385055
0.385048
0.385037
0.385018
0.384988
0.384938
0.384855
0.384723
0.384515
0.384198
0.404982
0.405304
0.405518
0.405655
0.405741
0.405793
0.405825
0.405845
0.405857
0.405865
0.40587
0.405873
0.405875
0.405876
0.405877
0.405878
0.405879
0.405879
0.40588
0.40588
0.405881
0.405881
0.405881
0.405881
0.405882
0.405882
0.405882
0.405882
0.405882
0.405882
0.405882
0.405882
0.405882
0.405882
0.405882
0.405882
0.405881
0.405881
0.405881
0.405881
0.40588
0.40588
0.405879
0.405879
0.405878
0.405877
0.405876
0.405875
0.405873
0.40587
0.405865
0.405857
0.405845
0.405825
0.405793
0.405741
0.405655
0.405518
0.405304
0.404982
0.425444
0.425772
0.42599
0.426132
0.42622
0.426275
0.426309
0.42633
0.426343
0.426351
0.426356
0.42636
0.426362
0.426363
0.426365
0.426365
0.426366
0.426367
0.426367
0.426368
0.426368
0.426368
0.426368
0.426369
0.426369
0.426369
0.426369
0.426369
0.426369
0.426369
0.426369
0.426369
0.426369
0.426369
0.426369
0.426369
0.426369
0.426368
0.426368
0.426368
0.426368
0.426367
0.426367
0.426366
0.426365
0.426365
0.426363
0.426362
0.42636
0.426356
0.426351
0.426343
0.42633
0.426309
0.426275
0.42622
0.426132
0.42599
0.425772
0.425444
0.445567
0.445899
0.446123
0.446268
0.44636
0.446418
0.446453
0.446475
0.446489
0.446497
0.446503
0.446507
0.446509
0.446511
0.446512
0.446513
0.446513
0.446514
0.446514
0.446515
0.446515
0.446515
0.446516
0.446516
0.446516
0.446516
0.446516
0.446516
0.446516
0.446516
0.446516
0.446516
0.446516
0.446516
0.446516
0.446516
0.446516
0.446516
0.446515
0.446515
0.446515
0.446514
0.446514
0.446513
0.446513
0.446512
0.446511
0.446509
0.446507
0.446503
0.446497
0.446489
0.446475
0.446453
0.446418
0.44636
0.446268
0.446123
0.445899
0.445567
0.465337
0.465672
0.4659
0.466049
0.466144
0.466204
0.466242
0.466265
0.466279
0.466288
0.466294
0.466298
0.466301
0.466303
0.466304
0.466305
0.466305
0.466306
0.466306
0.466307
0.466307
0.466307
0.466308
0.466308
0.466308
0.466308
0.466308
0.466308
0.466308
0.466308
0.466308
0.466308
0.466308
0.466308
0.466308
0.466308
0.466308
0.466308
0.466307
0.466307
0.466307
0.466306
0.466306
0.466305
0.466305
0.466304
0.466303
0.466301
0.466298
0.466294
0.466288
0.466279
0.466265
0.466242
0.466204
0.466144
0.466049
0.4659
0.465672
0.465337
0.484738
0.485077
0.485308
0.485461
0.48556
0.485622
0.485661
0.485685
0.485701
0.48571
0.485717
0.485721
0.485724
0.485725
0.485727
0.485728
0.485728
0.485729
0.485729
0.48573
0.48573
0.48573
0.485731
0.485731
0.485731
0.485731
0.485731
0.485731
0.485731
0.485731
0.485731
0.485731
0.485731
0.485731
0.485731
0.485731
0.485731
0.485731
0.48573
0.48573
0.48573
0.485729
0.485729
0.485728
0.485728
0.485727
0.485725
0.485724
0.485721
0.485717
0.48571
0.485701
0.485685
0.485661
0.485622
0.48556
0.485461
0.485308
0.485077
0.484738
0.50376
0.504101
0.504336
0.504492
0.504594
0.504658
0.504699
0.504725
0.504741
0.504751
0.504758
0.504762
0.504765
0.504767
0.504769
0.50477
0.50477
0.504771
0.504771
0.504772
0.504772
0.504772
0.504773
0.504773
0.504773
0.504773
0.504773
0.504773
0.504773
0.504773
0.504773
0.504773
0.504773
0.504773
0.504773
0.504773
0.504773
0.504773
0.504772
0.504772
0.504772
0.504771
0.504771
0.50477
0.50477
0.504769
0.504767
0.504765
0.504762
0.504758
0.504751
0.504741
0.504725
0.504699
0.504658
0.504594
0.504492
0.504336
0.504101
0.50376
0.522392
0.522734
0.522972
0.523132
0.523236
0.523303
0.523345
0.523372
0.523389
0.5234
0.523407
0.523412
0.523415
0.523417
0.523419
0.52342
0.52342
0.523421
0.523421
0.523422
0.523422
0.523422
0.523423
0.523423
0.523423
0.523423
0.523423
0.523423
0.523423
0.523423
0.523423
0.523423
0.523423
0.523423
0.523423
0.523423
0.523423
0.523423
0.523422
0.523422
0.523422
0.523421
0.523421
0.52342
0.52342
0.523419
0.523417
0.523415
0.523412
0.523407
0.5234
0.523389
0.523372
0.523345
0.523303
0.523236
0.523132
0.522972
0.522734
0.522392
0.540624
0.540966
0.541207
0.54137
0.541477
0.541546
0.54159
0.541618
0.541636
0.541648
0.541655
0.54166
0.541664
0.541666
0.541667
0.541669
0.541669
0.54167
0.54167
0.541671
0.541671
0.541671
0.541672
0.541672
0.541672
0.541672
0.541672
0.541672
0.541672
0.541672
0.541672
0.541672
0.541672
0.541672
0.541672
0.541672
0.541672
0.541672
0.541671
0.541671
0.541671
0.54167
0.54167
0.541669
0.541669
0.541667
0.541666
0.541664
0.54166
0.541655
0.541648
0.541636
0.541618
0.54159
0.541546
0.541477
0.54137
0.541207
0.540966
0.540624
0.558448
0.558791
0.559033
0.559198
0.559308
0.559379
0.559426
0.559455
0.559474
0.559486
0.559494
0.5595
0.559503
0.559506
0.559507
0.559508
0.559509
0.55951
0.55951
0.559511
0.559511
0.559511
0.559511
0.559511
0.559512
0.559512
0.559512
0.559512