/*--------------------------------*- C++ -*----------------------------------*\
| =========                 |                                                 |
| \\      /  F ield         | foam-extend: Open Source CFD                    |
|  \\    /   O peration     | Version:     4.0                                |
|   \\  /    A nd           | Web:         http://www.foam-extend.org         |
|    \\/     M anipulation  |                                                 |
\*---------------------------------------------------------------------------*/
FoamFile
{
    version     2.0;
    format      ascii;
    class       volVectorField;
    location    "24";
    object      bodyForce;
}
// * * * * * * * * * * * * * * * * * * * * * * * * * * * * * * * * * * * * * //

dimensions      [1 -2 -2 0 0 0 0];

internalField   nonuniform List<vector> 
6960
(
(3.87283e-31 -9.94067e-15 -0)
(3.13515e-31 -9.94067e-15 -0)
(-1.8442e-32 -9.94067e-15 -0)
(-1.8442e-31 -9.94067e-15 -0)
(-2.39746e-31 -9.94067e-15 -0)
(7.00797e-31 -9.94067e-15 -0)
(6.82355e-31 -9.94067e-15 -0)
(-4.42609e-31 -9.94067e-15 -0)
(-4.42609e-31 -9.94067e-15 -0)
(1.47536e-31 -9.94067e-15 -0)
(1.29094e-31 -9.94067e-15 -0)
(-6.08587e-31 -9.94067e-15 -0)
(-3.13515e-31 -9.94067e-15 -0)
(-2.95073e-31 -9.94067e-15 -0)
(-9.9587e-31 -9.94067e-15 -0)
(-3.31957e-31 -9.94067e-15 -0)
(1.01431e-30 -9.94067e-15 -0)
(1.40159e-30 -9.94067e-15 -0)
(1.29094e-31 -9.94067e-15 -0)
(-8.29891e-31 -9.94067e-15 -0)
(-3.87283e-31 -9.94067e-15 -0)
(-4.61051e-31 -9.94067e-15 -0)
(1.47536e-31 -9.94067e-15 -0)
(2.95073e-31 -9.94067e-15 -0)
(-5.53261e-32 -9.94067e-15 -0)
(-0 -9.94067e-15 -0)
(-7.56123e-31 -9.94067e-15 -0)
(-7.37681e-32 -9.94067e-15 -0)
(1.06964e-30 -9.94067e-15 -0)
(9.0366e-31 -9.94067e-15 -0)
(-2.58188e-31 -9.94067e-15 -0)
(-1.38315e-30 -9.94067e-15 -0)
(-5.53261e-32 -9.94067e-15 -0)
(3.13515e-31 -9.94067e-15 -0)
(-7.37681e-32 -9.94067e-15 -0)
(-3.68841e-32 -9.94067e-15 -0)
(-4.61051e-31 -9.94067e-15 -0)
(-2.58188e-31 -9.94067e-15 -0)
(3.87283e-31 -9.94067e-15 -0)
(8.11449e-31 -9.94067e-15 -0)
(2.7663e-31 -9.94067e-15 -0)
(-7.37681e-32 -9.94067e-15 -0)
(8.11449e-31 -9.94067e-15 -0)
(8.66775e-31 -9.94067e-15 -0)
(3.50399e-31 -9.94067e-15 -0)
(1.10652e-31 -9.94067e-15 -0)
(-1.10652e-31 -9.94067e-15 -0)
(4.79493e-31 -9.94067e-15 -0)
(1.8442e-31 -9.94067e-15 -0)
(-3.68841e-32 -9.94067e-15 -0)
(4.97935e-31 -9.94067e-15 -0)
(5.53261e-31 -9.94067e-15 -0)
(-9.58986e-31 -9.94067e-15 -0)
(-1.16185e-30 -9.94067e-15 -0)
(5.34819e-31 -9.94067e-15 -0)
(-4.24167e-31 -9.94067e-15 -0)
(-1.18029e-30 -9.94067e-15 -0)
(-4.79493e-31 -9.94067e-15 -0)
(-7.93007e-31 -9.94067e-15 -0)
(-4.97935e-31 -9.94067e-15 -0)
(1.5756e-30 -9.94067e-15 -0)
(1.14589e-30 -9.94067e-15 -0)
(-5.01328e-31 -9.94067e-15 -0)
(-5.72947e-31 -9.94067e-15 -0)
(-6.44565e-31 -9.94067e-15 -0)
(2.14855e-30 -9.94067e-15 -0)
(2.07693e-30 -9.94067e-15 -0)
(-1.43237e-30 -9.94067e-15 -0)
(-1.36075e-30 -9.94067e-15 -0)
(5.01328e-31 -9.94067e-15 -0)
(3.58092e-31 -9.94067e-15 -0)
(-1.79046e-30 -9.94067e-15 -0)
(-1.07428e-30 -9.94067e-15 -0)
(-9.31038e-31 -9.94067e-15 -0)
(-3.00797e-30 -9.94067e-15 -0)
(-9.31038e-31 -9.94067e-15 -0)
(3.00797e-30 -9.94067e-15 -0)
(4.44034e-30 -9.94067e-15 -0)
(2.86473e-31 -9.94067e-15 -0)
(-2.64988e-30 -9.94067e-15 -0)
(-1.14589e-30 -9.94067e-15 -0)
(-1.36075e-30 -9.94067e-15 -0)
(5.01328e-31 -9.94067e-15 -0)
(1.00266e-30 -9.94067e-15 -0)
(-0 -9.94067e-15 -0)
(-1.43237e-31 -9.94067e-15 -0)
(-2.29179e-30 -9.94067e-15 -0)
(-7.16183e-32 -9.94067e-15 -0)
(3.15121e-30 -9.94067e-15 -0)
(2.79312e-30 -9.94067e-15 -0)
(-9.31038e-31 -9.94067e-15 -0)
(-4.2971e-30 -9.94067e-15 -0)
(-7.16183e-32 -9.94067e-15 -0)
(8.5942e-31 -9.94067e-15 -0)
(-5.01328e-31 -9.94067e-15 -0)
(2.14855e-31 -9.94067e-15 -0)
(-1.50399e-30 -9.94067e-15 -0)
(-7.87802e-31 -9.94067e-15 -0)
(1.36075e-30 -9.94067e-15 -0)
(2.36341e-30 -9.94067e-15 -0)
(8.5942e-31 -9.94067e-15 -0)
(-2.14855e-31 -9.94067e-15 -0)
(2.29179e-30 -9.94067e-15 -0)
(2.7215e-30 -9.94067e-15 -0)
(1.21751e-30 -9.94067e-15 -0)
(2.14855e-31 -9.94067e-15 -0)
(-3.58092e-31 -9.94067e-15 -0)
(1.5756e-30 -9.94067e-15 -0)
(5.72947e-31 -9.94067e-15 -0)
(-2.14855e-31 -9.94067e-15 -0)
(1.64722e-30 -9.94067e-15 -0)
(1.50399e-30 -9.94067e-15 -0)
(-2.79312e-30 -9.94067e-15 -0)
(-3.58092e-30 -9.94067e-15 -0)
(1.50399e-30 -9.94067e-15 -0)
(-1.14589e-30 -9.94067e-15 -0)
(-3.43768e-30 -9.94067e-15 -0)
(-1.71884e-30 -9.94067e-15 -0)
(-2.36341e-30 -9.94067e-15 -0)
(-1.28913e-30 -9.94067e-15 -0)
(2.225e-30 -9.94067e-15 -0)
(1.80781e-30 -9.94067e-15 -0)
(-4.17187e-31 -9.94067e-15 -0)
(-6.95312e-31 -9.94067e-15 -0)
(-1.25156e-30 -9.94067e-15 -0)
(3.3375e-30 -9.94067e-15 -0)
(3.3375e-30 -9.94067e-15 -0)
(-2.08594e-30 -9.94067e-15 -0)
(-2.08594e-30 -9.94067e-15 -0)
(6.95312e-31 -9.94067e-15 -0)
(5.5625e-31 -9.94067e-15 -0)
(-2.92031e-30 -9.94067e-15 -0)
(-1.80781e-30 -9.94067e-15 -0)
(-1.80781e-30 -9.94067e-15 -0)
(-4.86718e-30 -9.94067e-15 -0)
(-1.80781e-30 -9.94067e-15 -0)
(5.00625e-30 -9.94067e-15 -0)
(7.78749e-30 -9.94067e-15 -0)
(4.17187e-31 -9.94067e-15 -0)
(-4.45e-30 -9.94067e-15 -0)
(-1.80781e-30 -9.94067e-15 -0)
(-2.36406e-30 -9.94067e-15 -0)
(5.5625e-31 -9.94067e-15 -0)
(1.80781e-30 -9.94067e-15 -0)
(-2.78125e-31 -9.94067e-15 -0)
(-2.78125e-31 -9.94067e-15 -0)
(-3.19844e-30 -9.94067e-15 -0)
(-6.95312e-31 -9.94067e-15 -0)
(5.28437e-30 -9.94067e-15 -0)
(5.00625e-30 -9.94067e-15 -0)
(-1.39062e-30 -9.94067e-15 -0)
(-6.95312e-30 -9.94067e-15 -0)
(-0 -9.94067e-15 -0)
(1.25156e-30 -9.94067e-15 -0)
(-8.34374e-31 -9.94067e-15 -0)
(1.39062e-31 -9.94067e-15 -0)
(-2.36406e-30 -9.94067e-15 -0)
(-1.52969e-30 -9.94067e-15 -0)
(2.08594e-30 -9.94067e-15 -0)
(4.17187e-30 -9.94067e-15 -0)
(1.52969e-30 -9.94067e-15 -0)
(-4.17187e-31 -9.94067e-15 -0)
(3.89375e-30 -9.94067e-15 -0)
(4.17187e-30 -9.94067e-15 -0)
(2.36406e-30 -9.94067e-15 -0)
(8.34374e-31 -9.94067e-15 -0)
(-8.34374e-31 -9.94067e-15 -0)
(2.50312e-30 -9.94067e-15 -0)
(9.73437e-31 -9.94067e-15 -0)
(-2.78125e-31 -9.94067e-15 -0)
(2.36406e-30 -9.94067e-15 -0)
(2.78125e-30 -9.94067e-15 -0)
(-4.72812e-30 -9.94067e-15 -0)
(-5.97968e-30 -9.94067e-15 -0)
(2.64219e-30 -9.94067e-15 -0)
(-2.08594e-30 -9.94067e-15 -0)
(-5.97968e-30 -9.94067e-15 -0)
(-2.50312e-30 -9.94067e-15 -0)
(-4.03281e-30 -9.94067e-15 -0)
(-2.225e-30 -9.94067e-15 -0)
(3.37524e-30 -9.94067e-15 -0)
(2.29517e-30 -9.94067e-15 -0)
(-9.45068e-31 -9.94067e-15 -0)
(-9.45068e-31 -9.94067e-15 -0)
(-1.75513e-30 -9.94067e-15 -0)
(4.99536e-30 -9.94067e-15 -0)
(5.26538e-30 -9.94067e-15 -0)
(-3.37524e-30 -9.94067e-15 -0)
(-3.24023e-30 -9.94067e-15 -0)
(8.10059e-31 -9.94067e-15 -0)
(4.05029e-31 -9.94067e-15 -0)
(-4.05029e-30 -9.94067e-15 -0)
(-2.29517e-30 -9.94067e-15 -0)
(-2.29517e-30 -9.94067e-15 -0)
(-7.02051e-30 -9.94067e-15 -0)
(-2.56519e-30 -9.94067e-15 -0)
(7.29053e-30 -9.94067e-15 -0)
(1.05308e-29 -9.94067e-15 -0)
(8.10059e-31 -9.94067e-15 -0)
(-6.07544e-30 -9.94067e-15 -0)
(-2.7002e-30 -9.94067e-15 -0)
(-3.37524e-30 -9.94067e-15 -0)
(8.10059e-31 -9.94067e-15 -0)
(2.56519e-30 -9.94067e-15 -0)
(-4.05029e-31 -9.94067e-15 -0)
(-4.05029e-31 -9.94067e-15 -0)
(-4.45532e-30 -9.94067e-15 -0)
(-1.21509e-30 -9.94067e-15 -0)
(7.56055e-30 -9.94067e-15 -0)
(7.29053e-30 -9.94067e-15 -0)
(-1.75513e-30 -9.94067e-15 -0)
(-9.7207e-30 -9.94067e-15 -0)
(-2.7002e-31 -9.94067e-15 -0)
(2.16016e-30 -9.94067e-15 -0)
(-1.3501e-30 -9.94067e-15 -0)
(-0 -9.94067e-15 -0)
(-3.10522e-30 -9.94067e-15 -0)
(-2.29517e-30 -9.94067e-15 -0)
(2.97021e-30 -9.94067e-15 -0)
(6.07544e-30 -9.94067e-15 -0)
(2.43018e-30 -9.94067e-15 -0)
(-9.45068e-31 -9.94067e-15 -0)
(5.5354e-30 -9.94067e-15 -0)
(6.48047e-30 -9.94067e-15 -0)
(2.56519e-30 -9.94067e-15 -0)
(8.10059e-31 -9.94067e-15 -0)
(-1.08008e-30 -9.94067e-15 -0)
(3.78027e-30 -9.94067e-15 -0)
(1.62012e-30 -9.94067e-15 -0)
(-4.05029e-31 -9.94067e-15 -0)
(3.51025e-30 -9.94067e-15 -0)
(3.78027e-30 -9.94067e-15 -0)
(-6.48047e-30 -9.94067e-15 -0)
(-8.2356e-30 -9.94067e-15 -0)
(3.51025e-30 -9.94067e-15 -0)
(-3.10522e-30 -9.94067e-15 -0)
(-8.37061e-30 -9.94067e-15 -0)
(-3.37524e-30 -9.94067e-15 -0)
(-5.80542e-30 -9.94067e-15 -0)
(-3.51025e-30 -9.94067e-15 -0)
(4.71871e-30 -9.94067e-15 -0)
(2.6215e-30 -9.94067e-15 -0)
(-1.31075e-30 -9.94067e-15 -0)
(-1.0486e-30 -9.94067e-15 -0)
(-2.0972e-30 -9.94067e-15 -0)
(6.29161e-30 -9.94067e-15 -0)
(7.34021e-30 -9.94067e-15 -0)
(-4.45656e-30 -9.94067e-15 -0)
(-4.45656e-30 -9.94067e-15 -0)
(1.31075e-30 -9.94067e-15 -0)
(7.86451e-31 -9.94067e-15 -0)
(-5.24301e-30 -9.94067e-15 -0)
(-2.6215e-30 -9.94067e-15 -0)
(-3.14581e-30 -9.94067e-15 -0)
(-9.43742e-30 -9.94067e-15 -0)
(-3.14581e-30 -9.94067e-15 -0)
(9.43742e-30 -9.94067e-15 -0)
(1.3894e-29 -9.94067e-15 -0)
(1.31075e-30 -9.94067e-15 -0)
(-8.12666e-30 -9.94067e-15 -0)
(-3.67011e-30 -9.94067e-15 -0)
(-4.45656e-30 -9.94067e-15 -0)
(1.31075e-30 -9.94067e-15 -0)
(3.14581e-30 -9.94067e-15 -0)
(-5.24301e-31 -9.94067e-15 -0)
(-0 -9.94067e-15 -0)
(-6.02946e-30 -9.94067e-15 -0)
(-1.0486e-30 -9.94067e-15 -0)
(9.69957e-30 -9.94067e-15 -0)
(8.91312e-30 -9.94067e-15 -0)
(-3.14581e-30 -9.94067e-15 -0)
(-1.28454e-29 -9.94067e-15 -0)
(5.24301e-31 -9.94067e-15 -0)
(2.35935e-30 -9.94067e-15 -0)
(-1.5729e-30 -9.94067e-15 -0)
(2.6215e-31 -9.94067e-15 -0)
(-4.19441e-30 -9.94067e-15 -0)
(-3.40796e-30 -9.94067e-15 -0)
(3.93226e-30 -9.94067e-15 -0)
(8.12666e-30 -9.94067e-15 -0)
(2.6215e-30 -9.94067e-15 -0)
(-1.31075e-30 -9.94067e-15 -0)
(7.86451e-30 -9.94067e-15 -0)
(8.12666e-30 -9.94067e-15 -0)
(3.93226e-30 -9.94067e-15 -0)
(1.0486e-30 -9.94067e-15 -0)
(-1.5729e-30 -9.94067e-15 -0)
(5.24301e-30 -9.94067e-15 -0)
(2.35935e-30 -9.94067e-15 -0)
(-7.86451e-31 -9.94067e-15 -0)
(3.93226e-30 -9.94067e-15 -0)
(4.98086e-30 -9.94067e-15 -0)
(-8.38881e-30 -9.94067e-15 -0)
(-1.07482e-29 -9.94067e-15 -0)
(4.45656e-30 -9.94067e-15 -0)
(-3.67011e-30 -9.94067e-15 -0)
(-1.10103e-29 -9.94067e-15 -0)
(-4.71871e-30 -9.94067e-15 -0)
(-7.60236e-30 -9.94067e-15 -0)
(-4.98086e-30 -9.94067e-15 -0)
(5.85375e-30 -9.94067e-15 -0)
(3.56315e-30 -9.94067e-15 -0)
(-1.27255e-30 -9.94067e-15 -0)
(-7.63532e-31 -9.94067e-15 -0)
(-2.03609e-30 -9.94067e-15 -0)
(8.39885e-30 -9.94067e-15 -0)
(8.14434e-30 -9.94067e-15 -0)
(-5.34473e-30 -9.94067e-15 -0)
(-6.10826e-30 -9.94067e-15 -0)
(2.03609e-30 -9.94067e-15 -0)
(1.52706e-30 -9.94067e-15 -0)
(-7.1263e-30 -9.94067e-15 -0)
(-3.30864e-30 -9.94067e-15 -0)
(-3.56315e-30 -9.94067e-15 -0)
(-1.17075e-29 -9.94067e-15 -0)
(-3.56315e-30 -9.94067e-15 -0)
(1.06895e-29 -9.94067e-15 -0)
(1.70522e-29 -9.94067e-15 -0)
(2.54511e-30 -9.94067e-15 -0)
(-9.16239e-30 -9.94067e-15 -0)
(-5.85375e-30 -9.94067e-15 -0)
(-5.59924e-30 -9.94067e-15 -0)
(2.03609e-30 -9.94067e-15 -0)
(4.07217e-30 -9.94067e-15 -0)
(-5.09021e-31 -9.94067e-15 -0)
(-0 -9.94067e-15 -0)
(-6.87179e-30 -9.94067e-15 -0)
(-1.52706e-30 -9.94067e-15 -0)
(1.17075e-29 -9.94067e-15 -0)
(1.06895e-29 -9.94067e-15 -0)
(-4.32668e-30 -9.94067e-15 -0)
(-1.55252e-29 -9.94067e-15 -0)
(-0 -9.94067e-15 -0)
(3.05413e-30 -9.94067e-15 -0)
(-1.27255e-30 -9.94067e-15 -0)
(2.54511e-31 -9.94067e-15 -0)
(-5.59924e-30 -9.94067e-15 -0)
(-4.58119e-30 -9.94067e-15 -0)
(4.8357e-30 -9.94067e-15 -0)
(1.04349e-29 -9.94067e-15 -0)
(3.56315e-30 -9.94067e-15 -0)
(-1.52706e-30 -9.94067e-15 -0)
(9.4169e-30 -9.94067e-15 -0)
(1.04349e-29 -9.94067e-15 -0)
(4.32668e-30 -9.94067e-15 -0)
(1.27255e-30 -9.94067e-15 -0)
(-1.52706e-30 -9.94067e-15 -0)
(6.36277e-30 -9.94067e-15 -0)
(2.79962e-30 -9.94067e-15 -0)
(-1.27255e-30 -9.94067e-15 -0)
(5.85375e-30 -9.94067e-15 -0)
(6.36277e-30 -9.94067e-15 -0)
(-1.0944e-29 -9.94067e-15 -0)
(-1.37436e-29 -9.94067e-15 -0)
(5.59924e-30 -9.94067e-15 -0)
(-4.8357e-30 -9.94067e-15 -0)
(-1.32346e-29 -9.94067e-15 -0)
(-5.85375e-30 -9.94067e-15 -0)
(-9.92592e-30 -9.94067e-15 -0)
(-6.36277e-30 -9.94067e-15 -0)
(7.16572e-30 -9.94067e-15 -0)
(5.43606e-30 -9.94067e-15 -0)
(-1.97675e-30 -9.94067e-15 -0)
(-1.72966e-30 -9.94067e-15 -0)
(-2.47094e-30 -9.94067e-15 -0)
(9.88375e-30 -9.94067e-15 -0)
(9.14246e-30 -9.94067e-15 -0)
(-6.17734e-30 -9.94067e-15 -0)
(-6.67153e-30 -9.94067e-15 -0)
(1.72966e-30 -9.94067e-15 -0)
(1.72966e-30 -9.94067e-15 -0)
(-8.15409e-30 -9.94067e-15 -0)
(-3.9535e-30 -9.94067e-15 -0)
(-4.20059e-30 -9.94067e-15 -0)
(-1.26018e-29 -9.94067e-15 -0)
(-4.94187e-30 -9.94067e-15 -0)
(1.33431e-29 -9.94067e-15 -0)
(2.00146e-29 -9.94067e-15 -0)
(1.97675e-30 -9.94067e-15 -0)
(-9.88375e-30 -9.94067e-15 -0)
(-6.42443e-30 -9.94067e-15 -0)
(-8.15409e-30 -9.94067e-15 -0)
(2.47094e-30 -9.94067e-15 -0)
(5.68315e-30 -9.94067e-15 -0)
(-2.47094e-31 -9.94067e-15 -0)
(-9.88375e-31 -9.94067e-15 -0)
(-8.15409e-30 -9.94067e-15 -0)
(-1.72966e-30 -9.94067e-15 -0)
(1.40843e-29 -9.94067e-15 -0)
(1.3096e-29 -9.94067e-15 -0)
(-5.93025e-30 -9.94067e-15 -0)
(-1.82849e-29 -9.94067e-15 -0)
(1.23547e-30 -9.94067e-15 -0)
(2.96512e-30 -9.94067e-15 -0)
(-2.22384e-30 -9.94067e-15 -0)
(1.23547e-30 -9.94067e-15 -0)
(-7.41281e-30 -9.94067e-15 -0)
(-4.94187e-30 -9.94067e-15 -0)
(5.68315e-30 -9.94067e-15 -0)
(1.21076e-29 -9.94067e-15 -0)
(4.69478e-30 -9.94067e-15 -0)
(-1.72966e-30 -9.94067e-15 -0)
(1.03779e-29 -9.94067e-15 -0)
(1.21076e-29 -9.94067e-15 -0)
(5.43606e-30 -9.94067e-15 -0)
(1.23547e-30 -9.94067e-15 -0)
(-1.23547e-30 -9.94067e-15 -0)
(7.907e-30 -9.94067e-15 -0)
(3.45931e-30 -9.94067e-15 -0)
(-9.88375e-31 -9.94067e-15 -0)
(7.6599e-30 -9.94067e-15 -0)
(6.67153e-30 -9.94067e-15 -0)
(-1.38372e-29 -9.94067e-15 -0)
(-1.5814e-29 -9.94067e-15 -0)
(6.67153e-30 -9.94067e-15 -0)
(-5.43606e-30 -9.94067e-15 -0)
(-1.55669e-29 -9.94067e-15 -0)
(-7.907e-30 -9.94067e-15 -0)
(-1.23547e-29 -9.94067e-15 -0)
(-7.16572e-30 -9.94067e-15 -0)
(7.19678e-30 -9.94067e-15 -0)
(5.27764e-30 -9.94067e-15 -0)
(-1.43936e-30 -9.94067e-15 -0)
(-1.91914e-30 -9.94067e-15 -0)
(-1.91914e-30 -9.94067e-15 -0)
(1.24744e-29 -9.94067e-15 -0)
(9.59571e-30 -9.94067e-15 -0)
(-8.63614e-30 -9.94067e-15 -0)
(-7.19678e-30 -9.94067e-15 -0)
(2.39893e-30 -9.94067e-15 -0)
(1.43936e-30 -9.94067e-15 -0)
(-9.11592e-30 -9.94067e-15 -0)
(-4.31807e-30 -9.94067e-15 -0)
(-4.79785e-30 -9.94067e-15 -0)
(-1.53531e-29 -9.94067e-15 -0)
(-4.79785e-30 -9.94067e-15 -0)
(1.58329e-29 -9.94067e-15 -0)
(2.25499e-29 -9.94067e-15 -0)
(2.39893e-30 -9.94067e-15 -0)
(-1.24744e-29 -9.94067e-15 -0)
(-7.19678e-30 -9.94067e-15 -0)
(-8.63614e-30 -9.94067e-15 -0)
(2.87871e-30 -9.94067e-15 -0)
(5.75742e-30 -9.94067e-15 -0)
(-4.79785e-31 -9.94067e-15 -0)
(-0 -9.94067e-15 -0)
(-1.15148e-29 -9.94067e-15 -0)
(-2.39893e-30 -9.94067e-15 -0)
(1.77521e-29 -9.94067e-15 -0)
(1.63127e-29 -9.94067e-15 -0)
(-6.717e-30 -9.94067e-15 -0)
(-2.25499e-29 -9.94067e-15 -0)
(9.59571e-31 -9.94067e-15 -0)
(5.27764e-30 -9.94067e-15 -0)
(-2.39893e-30 -9.94067e-15 -0)
(-0 -9.94067e-15 -0)
(-8.15635e-30 -9.94067e-15 -0)
(-5.75742e-30 -9.94067e-15 -0)
(7.19678e-30 -9.94067e-15 -0)
(1.3434e-29 -9.94067e-15 -0)
(5.27764e-30 -9.94067e-15 -0)
(-2.39893e-30 -9.94067e-15 -0)
(1.3434e-29 -9.94067e-15 -0)
(1.39138e-29 -9.94067e-15 -0)
(5.27764e-30 -9.94067e-15 -0)
(2.87871e-30 -9.94067e-15 -0)
(-1.91914e-30 -9.94067e-15 -0)
(9.59571e-30 -9.94067e-15 -0)
(3.3585e-30 -9.94067e-15 -0)
(-1.91914e-30 -9.94067e-15 -0)
(9.11592e-30 -9.94067e-15 -0)
(8.15635e-30 -9.94067e-15 -0)
(-1.58329e-29 -9.94067e-15 -0)
(-1.91914e-29 -9.94067e-15 -0)
(8.15635e-30 -9.94067e-15 -0)
(-6.717e-30 -9.94067e-15 -0)
(-1.87116e-29 -9.94067e-15 -0)
(-8.15635e-30 -9.94067e-15 -0)
(-1.58329e-29 -9.94067e-15 -0)
(-8.63614e-30 -9.94067e-15 -0)
(7.45285e-30 -9.94067e-15 -0)
(6.52125e-30 -9.94067e-15 -0)
(-3.26062e-30 -9.94067e-15 -0)
(-2.32902e-30 -9.94067e-15 -0)
(-1.86321e-30 -9.94067e-15 -0)
(1.21109e-29 -9.94067e-15 -0)
(1.39741e-29 -9.94067e-15 -0)
(-9.78187e-30 -9.94067e-15 -0)
(-9.78187e-30 -9.94067e-15 -0)
(2.32902e-30 -9.94067e-15 -0)
(3.26062e-30 -9.94067e-15 -0)
(-1.02477e-29 -9.94067e-15 -0)
(-5.58964e-30 -9.94067e-15 -0)
(-5.12384e-30 -9.94067e-15 -0)
(-1.72347e-29 -9.94067e-15 -0)
(-4.65803e-30 -9.94067e-15 -0)
(1.77005e-29 -9.94067e-15 -0)
(2.51534e-29 -9.94067e-15 -0)
(3.72643e-30 -9.94067e-15 -0)
(-1.25767e-29 -9.94067e-15 -0)
(-1.07135e-29 -9.94067e-15 -0)
(-1.11793e-29 -9.94067e-15 -0)
(2.79482e-30 -9.94067e-15 -0)
(7.91866e-30 -9.94067e-15 -0)
(4.65803e-31 -9.94067e-15 -0)
(-4.65803e-31 -9.94067e-15 -0)
(-1.21109e-29 -9.94067e-15 -0)
(-2.79482e-30 -9.94067e-15 -0)
(1.95637e-29 -9.94067e-15 -0)
(1.90979e-29 -9.94067e-15 -0)
(-7.45285e-30 -9.94067e-15 -0)
(-2.56192e-29 -9.94067e-15 -0)
(9.31606e-31 -9.94067e-15 -0)
(4.65803e-30 -9.94067e-15 -0)
(-2.32902e-30 -9.94067e-15 -0)
(9.31606e-31 -9.94067e-15 -0)
(-1.11793e-29 -9.94067e-15 -0)
(-6.98705e-30 -9.94067e-15 -0)
(8.85026e-30 -9.94067e-15 -0)
(1.53715e-29 -9.94067e-15 -0)
(6.98705e-30 -9.94067e-15 -0)
(-1.86321e-30 -9.94067e-15 -0)
(1.44399e-29 -9.94067e-15 -0)
(1.53715e-29 -9.94067e-15 -0)
(8.38446e-30 -9.94067e-15 -0)
(3.72643e-30 -9.94067e-15 -0)
(-3.26062e-30 -9.94067e-15 -0)
(1.11793e-29 -9.94067e-15 -0)
(2.32902e-30 -9.94067e-15 -0)
(-1.86321e-30 -9.94067e-15 -0)
(1.16451e-29 -9.94067e-15 -0)
(1.02477e-29 -9.94067e-15 -0)
(-1.86321e-29 -9.94067e-15 -0)
(-2.23586e-29 -9.94067e-15 -0)
(9.78187e-30 -9.94067e-15 -0)
(-7.45285e-30 -9.94067e-15 -0)
(-2.18928e-29 -9.94067e-15 -0)
(-1.11793e-29 -9.94067e-15 -0)
(-1.81663e-29 -9.94067e-15 -0)
(-1.02477e-29 -9.94067e-15 -0)
(8.59234e-30 -9.94067e-15 -0)
(5.87897e-30 -9.94067e-15 -0)
(-4.52229e-30 -9.94067e-15 -0)
(-2.26114e-30 -9.94067e-15 -0)
(-4.52229e-31 -9.94067e-15 -0)
(1.49235e-29 -9.94067e-15 -0)
(1.49235e-29 -9.94067e-15 -0)
(-1.08535e-29 -9.94067e-15 -0)
(-1.13057e-29 -9.94067e-15 -0)
(2.26114e-30 -9.94067e-15 -0)
(3.1656e-30 -9.94067e-15 -0)
(-1.17579e-29 -9.94067e-15 -0)
(-6.78343e-30 -9.94067e-15 -0)
(-4.97451e-30 -9.94067e-15 -0)
(-1.94458e-29 -9.94067e-15 -0)
(-4.97451e-30 -9.94067e-15 -0)
(1.98981e-29 -9.94067e-15 -0)
(2.80382e-29 -9.94067e-15 -0)
(4.52229e-30 -9.94067e-15 -0)
(-1.49235e-29 -9.94067e-15 -0)
(-1.17579e-29 -9.94067e-15 -0)
(-1.26624e-29 -9.94067e-15 -0)
(2.26114e-30 -9.94067e-15 -0)
(9.94903e-30 -9.94067e-15 -0)
(4.52229e-31 -9.94067e-15 -0)
(-2.26114e-30 -9.94067e-15 -0)
(-1.31146e-29 -9.94067e-15 -0)
(-2.26114e-30 -9.94067e-15 -0)
(2.1707e-29 -9.94067e-15 -0)
(2.1707e-29 -9.94067e-15 -0)
(-8.59234e-30 -9.94067e-15 -0)
(-2.80382e-29 -9.94067e-15 -0)
(9.04457e-31 -9.94067e-15 -0)
(4.07006e-30 -9.94067e-15 -0)
(-1.80891e-30 -9.94067e-15 -0)
(9.04457e-31 -9.94067e-15 -0)
(-1.26624e-29 -9.94067e-15 -0)
(-8.14011e-30 -9.94067e-15 -0)
(9.94903e-30 -9.94067e-15 -0)
(1.89936e-29 -9.94067e-15 -0)
(6.3312e-30 -9.94067e-15 -0)
(-1.35669e-30 -9.94067e-15 -0)
(1.5828e-29 -9.94067e-15 -0)
(1.76369e-29 -9.94067e-15 -0)
(9.94903e-30 -9.94067e-15 -0)
(3.1656e-30 -9.94067e-15 -0)
(-1.80891e-30 -9.94067e-15 -0)
(1.17579e-29 -9.94067e-15 -0)
(2.26114e-30 -9.94067e-15 -0)
(-1.80891e-30 -9.94067e-15 -0)
(1.44713e-29 -9.94067e-15 -0)
(1.04013e-29 -9.94067e-15 -0)
(-2.21592e-29 -9.94067e-15 -0)
(-2.44203e-29 -9.94067e-15 -0)
(1.08535e-29 -9.94067e-15 -0)
(-8.59234e-30 -9.94067e-15 -0)
(-2.35159e-29 -9.94067e-15 -0)
(-1.31146e-29 -9.94067e-15 -0)
(-2.21592e-29 -9.94067e-15 -0)
(-1.17579e-29 -9.94067e-15 -0)
(8.78099e-30 -9.94067e-15 -0)
(6.14669e-30 -9.94067e-15 -0)
(-3.07335e-30 -9.94067e-15 -0)
(-4.39049e-31 -9.94067e-15 -0)
(-2.6343e-30 -9.94067e-15 -0)
(1.66839e-29 -9.94067e-15 -0)
(1.58058e-29 -9.94067e-15 -0)
(-1.22934e-29 -9.94067e-15 -0)
(-1.18543e-29 -9.94067e-15 -0)
(1.7562e-30 -9.94067e-15 -0)
(4.82954e-30 -9.94067e-15 -0)
(-1.31715e-29 -9.94067e-15 -0)
(-6.58574e-30 -9.94067e-15 -0)
(-7.02479e-30 -9.94067e-15 -0)
(-2.06353e-29 -9.94067e-15 -0)
(-3.95145e-30 -9.94067e-15 -0)
(2.19525e-29 -9.94067e-15 -0)
(3.02944e-29 -9.94067e-15 -0)
(3.95145e-30 -9.94067e-15 -0)
(-1.40496e-29 -9.94067e-15 -0)
(-1.36105e-29 -9.94067e-15 -0)
(-1.53667e-29 -9.94067e-15 -0)
(2.6343e-30 -9.94067e-15 -0)
(1.18543e-29 -9.94067e-15 -0)
(4.39049e-31 -9.94067e-15 -0)
(-3.07335e-30 -9.94067e-15 -0)
(-1.53667e-29 -9.94067e-15 -0)
(-3.5124e-30 -9.94067e-15 -0)
(2.50258e-29 -9.94067e-15 -0)
(2.41477e-29 -9.94067e-15 -0)
(-9.65909e-30 -9.94067e-15 -0)
(-3.20506e-29 -9.94067e-15 -0)
(1.7562e-30 -9.94067e-15 -0)
(5.26859e-30 -9.94067e-15 -0)
(-3.07335e-30 -9.94067e-15 -0)
(4.39049e-31 -9.94067e-15 -0)
(-1.44886e-29 -9.94067e-15 -0)
(-8.34194e-30 -9.94067e-15 -0)
(1.14153e-29 -9.94067e-15 -0)
(2.01963e-29 -9.94067e-15 -0)
(5.26859e-30 -9.94067e-15 -0)
(-2.6343e-30 -9.94067e-15 -0)
(2.01963e-29 -9.94067e-15 -0)
(2.01963e-29 -9.94067e-15 -0)
(1.18543e-29 -9.94067e-15 -0)
(4.39049e-30 -9.94067e-15 -0)
(-3.07335e-30 -9.94067e-15 -0)
(1.27324e-29 -9.94067e-15 -0)
(3.07335e-30 -9.94067e-15 -0)
(-2.19525e-30 -9.94067e-15 -0)
(1.62448e-29 -9.94067e-15 -0)
(1.22934e-29 -9.94067e-15 -0)
(-2.45868e-29 -9.94067e-15 -0)
(-2.80992e-29 -9.94067e-15 -0)
(1.31715e-29 -9.94067e-15 -0)
(-8.78099e-30 -9.94067e-15 -0)
(-2.6782e-29 -9.94067e-15 -0)
(-1.49277e-29 -9.94067e-15 -0)
(-2.59039e-29 -9.94067e-15 -0)
(-1.44886e-29 -9.94067e-15 -0)
(1.02301e-29 -9.94067e-15 -0)
(5.11505e-30 -9.94067e-15 -0)
(-3.41004e-30 -9.94067e-15 -0)
(-8.52509e-31 -9.94067e-15 -0)
(-0 -9.94067e-15 -0)
(1.87552e-29 -9.94067e-15 -0)
(1.61977e-29 -9.94067e-15 -0)
(-1.53452e-29 -9.94067e-15 -0)
(-1.27876e-29 -9.94067e-15 -0)
(2.55753e-30 -9.94067e-15 -0)
(5.96756e-30 -9.94067e-15 -0)
(-1.44927e-29 -9.94067e-15 -0)
(-8.52509e-30 -9.94067e-15 -0)
(-5.96756e-30 -9.94067e-15 -0)
(-2.30177e-29 -9.94067e-15 -0)
(-5.96756e-30 -9.94067e-15 -0)
(2.55753e-29 -9.94067e-15 -0)
(3.15428e-29 -9.94067e-15 -0)
(5.96756e-30 -9.94067e-15 -0)
(-1.61977e-29 -9.94067e-15 -0)
(-1.44927e-29 -9.94067e-15 -0)
(-1.53452e-29 -9.94067e-15 -0)
(2.55753e-30 -9.94067e-15 -0)
(1.27876e-29 -9.94067e-15 -0)
(-0 -9.94067e-15 -0)
(-5.11505e-30 -9.94067e-15 -0)
(-1.79027e-29 -9.94067e-15 -0)
(-1.70502e-30 -9.94067e-15 -0)
(2.64278e-29 -9.94067e-15 -0)
(2.64278e-29 -9.94067e-15 -0)
(-1.02301e-29 -9.94067e-15 -0)
(-3.41004e-29 -9.94067e-15 -0)
(8.52509e-31 -9.94067e-15 -0)
(5.96756e-30 -9.94067e-15 -0)
(-2.55753e-30 -9.94067e-15 -0)
(8.52509e-31 -9.94067e-15 -0)
(-1.44927e-29 -9.94067e-15 -0)
(-1.19351e-29 -9.94067e-15 -0)
(1.10826e-29 -9.94067e-15 -0)
(2.30177e-29 -9.94067e-15 -0)
(7.67258e-30 -9.94067e-15 -0)
(-2.55753e-30 -9.94067e-15 -0)
(2.04602e-29 -9.94067e-15 -0)
(2.47228e-29 -9.94067e-15 -0)
(1.27876e-29 -9.94067e-15 -0)
(4.26254e-30 -9.94067e-15 -0)
(-2.55753e-30 -9.94067e-15 -0)
(1.44927e-29 -9.94067e-15 -0)
(8.52509e-31 -9.94067e-15 -0)
(-2.55753e-30 -9.94067e-15 -0)
(1.96077e-29 -9.94067e-15 -0)
(1.44926e-29 -9.94067e-15 -0)
(-2.89853e-29 -9.94067e-15 -0)
(-3.06903e-29 -9.94067e-15 -0)
(1.36401e-29 -9.94067e-15 -0)
(-9.3776e-30 -9.94067e-15 -0)
(-2.72803e-29 -9.94067e-15 -0)
(-1.70502e-29 -9.94067e-15 -0)
(-3.06903e-29 -9.94067e-15 -0)
(-1.53452e-29 -9.94067e-15 -0)
(9.10431e-30 -9.94067e-15 -0)
(6.62132e-30 -9.94067e-15 -0)
(-1.65533e-30 -9.94067e-15 -0)
(-0 -9.94067e-15 -0)
(-3.31066e-30 -9.94067e-15 -0)
(2.23469e-29 -9.94067e-15 -0)
(1.82086e-29 -9.94067e-15 -0)
(-1.7381e-29 -9.94067e-15 -0)
(-1.40703e-29 -9.94067e-15 -0)
(3.31066e-30 -9.94067e-15 -0)
(6.62132e-30 -9.94067e-15 -0)
(-1.4898e-29 -9.94067e-15 -0)
(-9.10431e-30 -9.94067e-15 -0)
(-9.10431e-30 -9.94067e-15 -0)
(-2.40023e-29 -9.94067e-15 -0)
(-4.96599e-30 -9.94067e-15 -0)
(2.81406e-29 -9.94067e-15 -0)
(3.55896e-29 -9.94067e-15 -0)
(4.96599e-30 -9.94067e-15 -0)
(-1.90363e-29 -9.94067e-15 -0)
(-1.57256e-29 -9.94067e-15 -0)
(-1.57256e-29 -9.94067e-15 -0)
(2.48299e-30 -9.94067e-15 -0)
(1.2415e-29 -9.94067e-15 -0)
(-0 -9.94067e-15 -0)
(-4.13832e-30 -9.94067e-15 -0)
(-1.7381e-29 -9.94067e-15 -0)
(-4.13832e-30 -9.94067e-15 -0)
(2.81406e-29 -9.94067e-15 -0)
(2.73129e-29 -9.94067e-15 -0)
(-1.2415e-29 -9.94067e-15 -0)
(-3.89002e-29 -9.94067e-15 -0)
(2.48299e-30 -9.94067e-15 -0)
(7.44898e-30 -9.94067e-15 -0)
(-2.48299e-30 -9.94067e-15 -0)
(1.65533e-30 -9.94067e-15 -0)
(-1.65533e-29 -9.94067e-15 -0)
(-1.40703e-29 -9.94067e-15 -0)
(1.07596e-29 -9.94067e-15 -0)
(2.40023e-29 -9.94067e-15 -0)
(9.10431e-30 -9.94067e-15 -0)
(-0 -9.94067e-15 -0)
(2.15193e-29 -9.94067e-15 -0)
(2.56576e-29 -9.94067e-15 -0)
(1.82086e-29 -9.94067e-15 -0)
(4.96599e-30 -9.94067e-15 -0)
(-2.48299e-30 -9.94067e-15 -0)
(1.4898e-29 -9.94067e-15 -0)
(-0 -9.94067e-15 -0)
(-4.96599e-30 -9.94067e-15 -0)
(2.15193e-29 -9.94067e-15 -0)
(1.7381e-29 -9.94067e-15 -0)
(-3.14513e-29 -9.94067e-15 -0)
(-3.39342e-29 -9.94067e-15 -0)
(1.65533e-29 -9.94067e-15 -0)
(-9.10431e-30 -9.94067e-15 -0)
(-3.22789e-29 -9.94067e-15 -0)
(-2.06916e-29 -9.94067e-15 -0)
(-3.39342e-29 -9.94067e-15 -0)
(-1.90363e-29 -9.94067e-15 -0)
(1.20532e-29 -9.94067e-15 -0)
(8.83899e-30 -9.94067e-15 -0)
(-2.41063e-30 -9.94067e-15 -0)
(-1.60709e-30 -9.94067e-15 -0)
(-1.60709e-30 -9.94067e-15 -0)
(2.57134e-29 -9.94067e-15 -0)
(1.7678e-29 -9.94067e-15 -0)
(-1.92851e-29 -9.94067e-15 -0)
(-1.36603e-29 -9.94067e-15 -0)
(2.41063e-30 -9.94067e-15 -0)
(7.2319e-30 -9.94067e-15 -0)
(-1.68744e-29 -9.94067e-15 -0)
(-1.12496e-29 -9.94067e-15 -0)
(-9.64253e-30 -9.94067e-15 -0)
(-2.57134e-29 -9.94067e-15 -0)
(-4.01772e-30 -9.94067e-15 -0)
(3.05347e-29 -9.94067e-15 -0)
(4.09808e-29 -9.94067e-15 -0)
(6.42835e-30 -9.94067e-15 -0)
(-2.24992e-29 -9.94067e-15 -0)
(-1.84815e-29 -9.94067e-15 -0)
(-1.84815e-29 -9.94067e-15 -0)
(4.01772e-30 -9.94067e-15 -0)
(1.60709e-29 -9.94067e-15 -0)
(-2.41063e-30 -9.94067e-15 -0)
(-6.42835e-30 -9.94067e-15 -0)
(-1.84815e-29 -9.94067e-15 -0)
(-4.01772e-30 -9.94067e-15 -0)
(3.13382e-29 -9.94067e-15 -0)
(2.89276e-29 -9.94067e-15 -0)
(-1.60709e-29 -9.94067e-15 -0)
(-4.01772e-29 -9.94067e-15 -0)
(5.62481e-30 -9.94067e-15 -0)
(5.62481e-30 -9.94067e-15 -0)
(-2.41063e-30 -9.94067e-15 -0)
(5.62481e-30 -9.94067e-15 -0)
(-2.00886e-29 -9.94067e-15 -0)
(-1.7678e-29 -9.94067e-15 -0)
(1.36603e-29 -9.94067e-15 -0)
(2.41063e-29 -9.94067e-15 -0)
(1.12496e-29 -9.94067e-15 -0)
(2.41063e-30 -9.94067e-15 -0)
(2.16957e-29 -9.94067e-15 -0)
(2.89276e-29 -9.94067e-15 -0)
(1.92851e-29 -9.94067e-15 -0)
(2.41063e-30 -9.94067e-15 -0)
(-8.03544e-31 -9.94067e-15 -0)
(2.00886e-29 -9.94067e-15 -0)
(-4.01772e-30 -9.94067e-15 -0)
(-7.2319e-30 -9.94067e-15 -0)
(2.8124e-29 -9.94067e-15 -0)
(1.68744e-29 -9.94067e-15 -0)
(-3.61595e-29 -9.94067e-15 -0)
(-3.45524e-29 -9.94067e-15 -0)
(1.68744e-29 -9.94067e-15 -0)
(-8.83899e-30 -9.94067e-15 -0)
(-3.21418e-29 -9.94067e-15 -0)
(-2.49099e-29 -9.94067e-15 -0)
(-3.93737e-29 -9.94067e-15 -0)
(-1.92851e-29 -9.94067e-15 -0)
(1.17019e-29 -9.94067e-15 -0)
(9.36152e-30 -9.94067e-15 -0)
(-3.90063e-30 -9.94067e-15 -0)
(-1.56025e-30 -9.94067e-15 -0)
(-7.80127e-31 -9.94067e-15 -0)
(2.73044e-29 -9.94067e-15 -0)
(2.34038e-29 -9.94067e-15 -0)
(-2.26237e-29 -9.94067e-15 -0)
(-1.71628e-29 -9.94067e-15 -0)
(3.90063e-30 -9.94067e-15 -0)
(8.5814e-30 -9.94067e-15 -0)
(-1.71628e-29 -9.94067e-15 -0)
(-1.32622e-29 -9.94067e-15 -0)
(-9.36152e-30 -9.94067e-15 -0)
(-2.96448e-29 -9.94067e-15 -0)
(-4.68076e-30 -9.94067e-15 -0)
(3.51057e-29 -9.94067e-15 -0)
(4.2907e-29 -9.94067e-15 -0)
(3.90064e-30 -9.94067e-15 -0)
(-2.34038e-29 -9.94067e-15 -0)
(-1.8723e-29 -9.94067e-15 -0)
(-1.71628e-29 -9.94067e-15 -0)
(2.34038e-30 -9.94067e-15 -0)
(1.63827e-29 -9.94067e-15 -0)
(-7.80127e-31 -9.94067e-15 -0)
(-9.36152e-30 -9.94067e-15 -0)
(-2.10634e-29 -9.94067e-15 -0)
(-5.46089e-30 -9.94067e-15 -0)
(3.35455e-29 -9.94067e-15 -0)
(3.19852e-29 -9.94067e-15 -0)
(-1.32622e-29 -9.94067e-15 -0)
(-4.36871e-29 -9.94067e-15 -0)
(3.12051e-30 -9.94067e-15 -0)
(9.36152e-30 -9.94067e-15 -0)
(-3.12051e-30 -9.94067e-15 -0)
(4.68076e-30 -9.94067e-15 -0)
(-2.02833e-29 -9.94067e-15 -0)
(-2.02833e-29 -9.94067e-15 -0)
(1.2482e-29 -9.94067e-15 -0)
(2.57442e-29 -9.94067e-15 -0)
(1.09218e-29 -9.94067e-15 -0)
(3.90063e-30 -9.94067e-15 -0)
(2.57442e-29 -9.94067e-15 -0)
(3.19852e-29 -9.94067e-15 -0)
(2.18436e-29 -9.94067e-15 -0)
(3.12051e-30 -9.94067e-15 -0)
(-1.56025e-30 -9.94067e-15 -0)
(1.95032e-29 -9.94067e-15 -0)
(-4.68076e-30 -9.94067e-15 -0)
(-8.5814e-30 -9.94067e-15 -0)
(2.96448e-29 -9.94067e-15 -0)
(1.95032e-29 -9.94067e-15 -0)
(-3.74461e-29 -9.94067e-15 -0)
(-3.74461e-29 -9.94067e-15 -0)
(1.8723e-29 -9.94067e-15 -0)
(-1.01416e-29 -9.94067e-15 -0)
(-3.35455e-29 -9.94067e-15 -0)
(-2.73044e-29 -9.94067e-15 -0)
(-4.36871e-29 -9.94067e-15 -0)
(-2.10634e-29 -9.94067e-15 -0)
(1.51478e-29 -9.94067e-15 -0)
(9.8461e-30 -9.94067e-15 -0)
(-3.78696e-30 -9.94067e-15 -0)
(3.02957e-30 -9.94067e-15 -0)
(7.57392e-31 -9.94067e-15 -0)
(2.87809e-29 -9.94067e-15 -0)
(2.34792e-29 -9.94067e-15 -0)
(-2.27218e-29 -9.94067e-15 -0)
(-1.81774e-29 -9.94067e-15 -0)
(3.78696e-30 -9.94067e-15 -0)
(9.0887e-30 -9.94067e-15 -0)
(-1.96922e-29 -9.94067e-15 -0)
(-1.59052e-29 -9.94067e-15 -0)
(-9.8461e-30 -9.94067e-15 -0)
(-3.10531e-29 -9.94067e-15 -0)
(-5.30174e-30 -9.94067e-15 -0)
(3.78696e-29 -9.94067e-15 -0)
(4.62009e-29 -9.94067e-15 -0)
(6.05914e-30 -9.94067e-15 -0)
(-2.72661e-29 -9.94067e-15 -0)
(-2.1207e-29 -9.94067e-15 -0)
(-1.81774e-29 -9.94067e-15 -0)
(4.54435e-30 -9.94067e-15 -0)
(1.96922e-29 -9.94067e-15 -0)
(-3.78696e-30 -9.94067e-15 -0)
(-1.28757e-29 -9.94067e-15 -0)
(-2.04496e-29 -9.94067e-15 -0)
(-4.54435e-30 -9.94067e-15 -0)
(3.78696e-29 -9.94067e-15 -0)
(3.63548e-29 -9.94067e-15 -0)
(-1.81774e-29 -9.94067e-15 -0)
(-5.07453e-29 -9.94067e-15 -0)
(5.30174e-30 -9.94067e-15 -0)
(7.57392e-30 -9.94067e-15 -0)
(-3.02957e-30 -9.94067e-15 -0)
(8.33131e-30 -9.94067e-15 -0)
(-2.57513e-29 -9.94067e-15 -0)
(-2.19644e-29 -9.94067e-15 -0)
(1.742e-29 -9.94067e-15 -0)
(2.80235e-29 -9.94067e-15 -0)
(1.36331e-29 -9.94067e-15 -0)
(6.81653e-30 -9.94067e-15 -0)
(2.42365e-29 -9.94067e-15 -0)
(3.25679e-29 -9.94067e-15 -0)
(2.34792e-29 -9.94067e-15 -0)
(2.27218e-30 -9.94067e-15 -0)
(-7.57392e-31 -9.94067e-15 -0)
(2.42365e-29 -9.94067e-15 -0)
(-7.57392e-30 -9.94067e-15 -0)
(-1.13609e-29 -9.94067e-15 -0)
(3.33253e-29 -9.94067e-15 -0)
(2.34792e-29 -9.94067e-15 -0)
(-4.2414e-29 -9.94067e-15 -0)
(-3.78696e-29 -9.94067e-15 -0)
(1.742e-29 -9.94067e-15 -0)
(-1.13609e-29 -9.94067e-15 -0)
(-3.33253e-29 -9.94067e-15 -0)
(-2.72661e-29 -9.94067e-15 -0)
(-4.84731e-29 -9.94067e-15 -0)
(-2.49939e-29 -9.94067e-15 -0)
(1.69124e-29 -9.94067e-15 -0)
(9.55916e-30 -9.94067e-15 -0)