/*--------------------------------*- C++ -*----------------------------------*\
| =========                 |                                                 |
| \\      /  F ield         | foam-extend: Open Source CFD                    |
|  \\    /   O peration     | Version:     4.0                                |
|   \\  /    A nd           | Web:         http://www.foam-extend.org         |
|    \\/     M anipulation  |                                                 |
\*---------------------------------------------------------------------------*/
FoamFile
{
    version     2.0;
    format      ascii;
    class       volScalarField;
    location    "24";
    object      p;
}
// * * * * * * * * * * * * * * * * * * * * * * * * * * * * * * * * * * * * * //

dimensions      [0 2 -2 0 0 0 0];

internalField   nonuniform List<scalar> 
6960
(
2.49848e-07
3.1118e-07
3.51333e-07
3.06981e-07
3.48e-07
3.78621e-07
3.63585e-07
3.65275e-07
3.52935e-07
3.54252e-07
3.4054e-07
3.29066e-07
3.17504e-07
3.22866e-07
3.24052e-07
3.29687e-07
3.36838e-07
3.44659e-07
3.57154e-07
3.57742e-07
3.58214e-07
3.56454e-07
3.54493e-07
3.52147e-07
3.45246e-07
3.42593e-07
3.42008e-07
3.41444e-07
3.40108e-07
3.38554e-07
3.40692e-07
3.42986e-07
3.44662e-07
3.46396e-07
3.49355e-07
3.53008e-07
3.54209e-07
3.53848e-07
3.52799e-07
3.52287e-07
3.50475e-07
3.47292e-07
3.44469e-07
3.42613e-07
3.42622e-07
3.41542e-07
3.42062e-07
3.44732e-07
3.48328e-07
3.52993e-07
3.54411e-07
3.56469e-07
3.56152e-07
3.54121e-07
3.50445e-07
3.46081e-07
3.44775e-07
3.43839e-07
3.4498e-07
3.46061e-07
3.51445e-07
3.10874e-07
3.51408e-07
3.07018e-07
3.48056e-07
3.78713e-07
3.63666e-07
3.65342e-07
3.52961e-07
3.54233e-07
3.40483e-07
3.29e-07
3.17417e-07
3.228e-07
3.24001e-07
3.29675e-07
3.36864e-07
3.44704e-07
3.5722e-07
3.57803e-07
3.58263e-07
3.56476e-07
3.54483e-07
3.52116e-07
3.452e-07
3.42545e-07
3.41966e-07
3.41417e-07
3.40102e-07
3.38566e-07
3.40717e-07
3.43019e-07
3.44698e-07
3.46426e-07
3.49372e-07
3.53008e-07
3.54191e-07
3.53817e-07
3.5276e-07
3.5225e-07
3.50451e-07
3.4729e-07
3.44488e-07
3.42649e-07
3.42665e-07
3.41579e-07
3.42086e-07
3.44731e-07
3.48306e-07
3.52959e-07
3.54373e-07
3.56442e-07
3.5614e-07
3.54127e-07
3.50463e-07
3.46101e-07
3.44788e-07
3.43837e-07
3.44972e-07
3.46045e-07
3.67193e-07
3.10465e-07
3.51417e-07
3.0699e-07
3.48039e-07
3.78721e-07
3.63772e-07
3.65415e-07
3.53091e-07
3.54268e-07
3.4051e-07
3.29005e-07
3.17351e-07
3.22745e-07
3.239e-07
3.29614e-07
3.36829e-07
3.44688e-07
3.57247e-07
3.5784e-07
3.58319e-07
3.56517e-07
3.54496e-07
3.52113e-07
3.45177e-07
3.42515e-07
3.41934e-07
3.41394e-07
3.40098e-07
3.38574e-07
3.40732e-07
3.43036e-07
3.44714e-07
3.46437e-07
3.49371e-07
3.52993e-07
3.54167e-07
3.53788e-07
3.5273e-07
3.52226e-07
3.50441e-07
3.47304e-07
3.44521e-07
3.42695e-07
3.4271e-07
3.41611e-07
3.42099e-07
3.44711e-07
3.48263e-07
3.52904e-07
3.54323e-07
3.56416e-07
3.56137e-07
3.54154e-07
3.50501e-07
3.46138e-07
3.44805e-07
3.43832e-07
3.44958e-07
3.46029e-07
3.60224e-07
3.09979e-07
3.51377e-07
3.06914e-07
3.47959e-07
3.7865e-07
3.63885e-07
3.65482e-07
3.53309e-07
3.54343e-07
3.4061e-07
3.29072e-07
3.17311e-07
3.22708e-07
3.2376e-07
3.29517e-07
3.36744e-07
3.4462e-07
3.57238e-07
3.57852e-07
3.58377e-07
3.56571e-07
3.54525e-07
3.5213e-07
3.45173e-07
3.42503e-07
3.41911e-07
3.41375e-07
3.40097e-07
3.38583e-07
3.40742e-07
3.43041e-07
3.44716e-07
3.46431e-07
3.49355e-07
3.52963e-07
3.54135e-07
3.53758e-07
3.52705e-07
3.52211e-07
3.50442e-07
3.47334e-07
3.44569e-07
3.42755e-07
3.4276e-07
3.41642e-07
3.42106e-07
3.44672e-07
3.48199e-07
3.52826e-07
3.54257e-07
3.56386e-07
3.56139e-07
3.54197e-07
3.50557e-07
3.46194e-07
3.4483e-07
3.43828e-07
3.44942e-07
3.46012e-07
3.56979e-07
3.09433e-07
3.51271e-07
3.06785e-07
3.47813e-07
3.78499e-07
3.64008e-07
3.65551e-07
3.53622e-07
3.54461e-07
3.40789e-07
3.29202e-07
3.17298e-07
3.22687e-07
3.23577e-07
3.29379e-07
3.36603e-07
3.44498e-07
3.5719e-07
3.57839e-07
3.58439e-07
3.56641e-07
3.54575e-07
3.52169e-07
3.45188e-07
3.42507e-07
3.41896e-07
3.41359e-07
3.40097e-07
3.38591e-07
3.40745e-07
3.43035e-07
3.44703e-07
3.46411e-07
3.49324e-07
3.5292e-07
3.54095e-07
3.53727e-07
3.52687e-07
3.52204e-07
3.50454e-07
3.47377e-07
3.4463e-07
3.42827e-07
3.42816e-07
3.41673e-07
3.42107e-07
3.44617e-07
3.48116e-07
3.52725e-07
3.54177e-07
3.56352e-07
3.56146e-07
3.54256e-07
3.50632e-07
3.46268e-07
3.44862e-07
3.43824e-07
3.44922e-07
3.45996e-07
3.56918e-07
3.08828e-07
3.511e-07
3.06603e-07
3.47596e-07
3.78268e-07
3.64129e-07
3.65617e-07
3.54024e-07
3.5462e-07
3.41048e-07
3.29397e-07
3.17318e-07
3.22686e-07
3.23354e-07
3.29203e-07
3.36408e-07
3.44322e-07
3.57103e-07
3.57798e-07
3.58504e-07
3.56724e-07
3.54643e-07
3.5223e-07
3.45224e-07
3.42529e-07
3.41891e-07
3.41346e-07
3.401e-07
3.38599e-07
3.40742e-07
3.43016e-07
3.44674e-07
3.46374e-07
3.49277e-07
3.52862e-07
3.54047e-07
3.53696e-07
3.52675e-07
3.52206e-07
3.50477e-07
3.47435e-07
3.44705e-07
3.42911e-07
3.42876e-07
3.41702e-07
3.42102e-07
3.44546e-07
3.48014e-07
3.52602e-07
3.54082e-07
3.56313e-07
3.56157e-07
3.5433e-07
3.50724e-07
3.4636e-07
3.44903e-07
3.43821e-07
3.44901e-07
3.45979e-07
3.56936e-07
3.08164e-07
3.5087e-07
3.06371e-07
3.47304e-07
3.77956e-07
3.64239e-07
3.65678e-07
3.54506e-07
3.54816e-07
3.41386e-07
3.29653e-07
3.17373e-07
3.22707e-07
3.23098e-07
3.28995e-07
3.3616e-07
3.44093e-07
3.56974e-07
3.57727e-07
3.58567e-07
3.56818e-07
3.54727e-07
3.52312e-07
3.45279e-07
3.4257e-07
3.41896e-07
3.41338e-07
3.40107e-07
3.38609e-07
3.40734e-07
3.42985e-07
3.4463e-07
3.46322e-07
3.49215e-07
3.52789e-07
3.5399e-07
3.53663e-07
3.52668e-07
3.52217e-07
3.5051e-07
3.47507e-07
3.44794e-07
3.43008e-07
3.4294e-07
3.41732e-07
3.42091e-07
3.44459e-07
3.47893e-07
3.52456e-07
3.53972e-07
3.56268e-07
3.56171e-07
3.54417e-07
3.50834e-07
3.4647e-07
3.44952e-07
3.43819e-07
3.44877e-07
3.45963e-07
3.56546e-07
3.07446e-07
3.50586e-07
3.0609e-07
3.46936e-07
3.77564e-07
3.64327e-07
3.65732e-07
3.55059e-07
3.55044e-07
3.41802e-07
3.29969e-07
3.17469e-07
3.22754e-07
3.22813e-07
3.28759e-07
3.35863e-07
3.43813e-07
3.56804e-07
3.57623e-07
3.58627e-07
3.56919e-07
3.54826e-07
3.52414e-07
3.45355e-07
3.42631e-07
3.41912e-07
3.41337e-07
3.40118e-07
3.38619e-07
3.40722e-07
3.42944e-07
3.44572e-07
3.46255e-07
3.49136e-07
3.527e-07
3.53923e-07
3.53628e-07
3.52666e-07
3.52236e-07
3.50554e-07
3.47594e-07
3.44896e-07
3.43117e-07
3.4301e-07
3.41761e-07
3.42075e-07
3.44358e-07
3.47755e-07
3.52289e-07
3.53846e-07
3.56216e-07
3.56187e-07
3.54517e-07
3.50959e-07
3.46597e-07
3.45011e-07
3.43821e-07
3.44852e-07
3.45948e-07
3.56026e-07
3.06679e-07
3.50253e-07
3.05763e-07
3.4649e-07
3.77092e-07
3.64382e-07
3.65774e-07
3.55673e-07
3.553e-07
3.42295e-07
3.30344e-07
3.17611e-07
3.2283e-07
3.22505e-07
3.285e-07
3.35518e-07
3.43483e-07
3.56589e-07
3.57485e-07
3.5868e-07
3.57023e-07
3.54938e-07
3.52535e-07
3.4545e-07
3.42711e-07
3.41941e-07
3.41342e-07
3.40135e-07
3.38633e-07
3.40707e-07
3.42893e-07
3.445e-07
3.46171e-07
3.49042e-07
3.52595e-07
3.53846e-07
3.53591e-07
3.52669e-07
3.52263e-07
3.50609e-07
3.47694e-07
3.45013e-07
3.43238e-07
3.43085e-07
3.41791e-07
3.42055e-07
3.44244e-07
3.47599e-07
3.52101e-07
3.53705e-07
3.56156e-07
3.56204e-07
3.54628e-07
3.51101e-07
3.46743e-07
3.4508e-07
3.43826e-07
3.44827e-07
3.45934e-07
3.55487e-07
3.05868e-07
3.49876e-07
3.0539e-07
3.45964e-07
3.76542e-07
3.64394e-07
3.65803e-07
3.56338e-07
3.55579e-07
3.42861e-07
3.30775e-07
3.17802e-07
3.22938e-07
3.22181e-07
3.28223e-07
3.35128e-07
3.43106e-07
3.5633e-07
3.5731e-07
3.58722e-07
3.57128e-07
3.55059e-07
3.52672e-07
3.45563e-07
3.42812e-07
3.41982e-07
3.41356e-07
3.40159e-07
3.38651e-07
3.4069e-07
3.42833e-07
3.44415e-07
3.46073e-07
3.4893e-07
3.52475e-07
3.53758e-07
3.53549e-07
3.52676e-07
3.52298e-07
3.50675e-07
3.47808e-07
3.45143e-07
3.43371e-07
3.43165e-07
3.41821e-07
3.4203e-07
3.44116e-07
3.47426e-07
3.51892e-07
3.53548e-07
3.56088e-07
3.56221e-07
3.54749e-07
3.51257e-07
3.46905e-07
3.45159e-07
3.43836e-07
3.44802e-07
3.4592e-07
3.54931e-07
3.05019e-07
3.49461e-07
3.04975e-07
3.45359e-07
3.75915e-07
3.64353e-07
3.65815e-07
3.57044e-07
3.55877e-07
3.43499e-07
3.31259e-07
3.18047e-07
3.23081e-07
3.21845e-07
3.27933e-07
3.34696e-07
3.42683e-07
3.56026e-07
3.57095e-07
3.58752e-07
3.57229e-07
3.55189e-07
3.52824e-07
3.45695e-07
3.42933e-07
3.42036e-07
3.41378e-07
3.40191e-07
3.38673e-07
3.40672e-07
3.42765e-07
3.44317e-07
3.45961e-07
3.48803e-07
3.52337e-07
3.53659e-07
3.53503e-07
3.52685e-07
3.52339e-07
3.5075e-07
3.47936e-07
3.45287e-07
3.43516e-07
3.43251e-07
3.41854e-07
3.42002e-07
3.43978e-07
3.47237e-07
3.51662e-07
3.53376e-07
3.5601e-07
3.56236e-07
3.54877e-07
3.51426e-07
3.47085e-07
3.4525e-07
3.43852e-07
3.44778e-07
3.45907e-07
3.54351e-07
3.04139e-07
3.49015e-07
3.04518e-07
3.44674e-07
3.75212e-07
3.64249e-07
3.65809e-07
3.5778e-07
3.56189e-07
3.44206e-07
3.31793e-07
3.18349e-07
3.23261e-07
3.21505e-07
3.27636e-07
3.34225e-07
3.42218e-07
3.55676e-07
3.56841e-07
3.58766e-07
3.57325e-07
3.55325e-07
3.52991e-07
3.45845e-07
3.43074e-07
3.42104e-07
3.41411e-07
3.40231e-07
3.387e-07
3.40654e-07
3.4269e-07
3.44209e-07
3.45835e-07
3.48659e-07
3.52184e-07
3.53547e-07
3.53452e-07
3.52696e-07
3.52385e-07
3.50835e-07
3.48076e-07
3.45444e-07
3.43674e-07
3.43344e-07
3.4189e-07
3.41972e-07
3.43829e-07
3.47033e-07
3.51412e-07
3.53187e-07
3.55921e-07
3.56247e-07
3.55012e-07
3.51609e-07
3.47282e-07
3.45353e-07
3.43874e-07
3.44755e-07
3.45894e-07
3.53753e-07
3.03233e-07
3.48544e-07
3.04022e-07
3.43911e-07
3.74434e-07
3.64072e-07
3.65781e-07
3.58535e-07
3.5651e-07
3.4498e-07
3.32373e-07
3.18712e-07
3.2348e-07
3.21165e-07
3.27337e-07
3.33719e-07
3.41713e-07
3.5528e-07
3.56544e-07
3.58761e-07
3.5741e-07
3.55465e-07
3.53169e-07
3.46011e-07
3.43237e-07
3.42186e-07
3.41455e-07
3.4028e-07
3.38733e-07
3.40637e-07
3.42609e-07
3.4409e-07
3.45696e-07
3.485e-07
3.52013e-07
3.53422e-07
3.53394e-07
3.52707e-07
3.52436e-07
3.50928e-07
3.48228e-07
3.45614e-07
3.43843e-07
3.43444e-07
3.41929e-07
3.4194e-07
3.43672e-07
3.46815e-07
3.51144e-07
3.52982e-07
3.55819e-07
3.56253e-07
3.55151e-07
3.51802e-07
3.47495e-07
3.45468e-07
3.43903e-07
3.44734e-07
3.45884e-07
3.53145e-07
3.02307e-07
3.48057e-07
3.03488e-07
3.43072e-07
3.73584e-07
3.63814e-07
3.6573e-07
3.59297e-07
3.56836e-07
3.45815e-07
3.32997e-07
3.1914e-07
3.2374e-07
3.20833e-07
3.27041e-07
3.33181e-07
3.41171e-07
3.54838e-07
3.56204e-07
3.58735e-07
3.57482e-07
3.55606e-07
3.53357e-07
3.46193e-07
3.43419e-07
3.42283e-07
3.41511e-07
3.40339e-07
3.38774e-07
3.40623e-07
3.42524e-07
3.43963e-07
3.45546e-07
3.48326e-07
3.51827e-07
3.53284e-07
3.53329e-07
3.52718e-07
3.52491e-07
3.51029e-07
3.48391e-07
3.45797e-07
3.44024e-07
3.43552e-07
3.41973e-07
3.41909e-07
3.43509e-07
3.46585e-07
3.50857e-07
3.5276e-07
3.55703e-07
3.56253e-07
3.55293e-07
3.52005e-07
3.47723e-07
3.45596e-07
3.43941e-07
3.44717e-07
3.45874e-07
3.52533e-07
3.0137e-07
3.4756e-07
3.02919e-07
3.4216e-07
3.72663e-07
3.63465e-07
3.65654e-07
3.60055e-07
3.57161e-07
3.46708e-07
3.33659e-07
3.19635e-07
3.24043e-07
3.20515e-07
3.26755e-07
3.32615e-07
3.40597e-07
3.54351e-07
3.5582e-07
3.58686e-07
3.57537e-07
3.55746e-07
3.53553e-07
3.4639e-07
3.43622e-07
3.42393e-07
3.41578e-07
3.40408e-07
3.38822e-07
3.40613e-07
3.42436e-07
3.43828e-07
3.45385e-07
3.48137e-07
3.51625e-07
3.53132e-07
3.53256e-07
3.52726e-07
3.52548e-07
3.51136e-07
3.48564e-07
3.45992e-07
3.44218e-07
3.43667e-07
3.42023e-07
3.41879e-07
3.4334e-07
3.46344e-07
3.50553e-07
3.52522e-07
3.55573e-07
3.56244e-07
3.55434e-07
3.52217e-07
3.47966e-07
3.45737e-07
3.43989e-07
3.44704e-07
3.45866e-07
3.51926e-07
3.00428e-07
3.47062e-07
3.02317e-07
3.41179e-07
3.71673e-07
3.63019e-07
3.6555e-07
3.60796e-07
3.5748e-07
3.47653e-07
3.34355e-07
3.20199e-07
3.24391e-07
3.20217e-07
3.26483e-07
3.32025e-07
3.39995e-07
3.53819e-07
3.55391e-07
3.5861e-07
3.57573e-07
3.55882e-07
3.53754e-07
3.46599e-07
3.43844e-07
3.42518e-07
3.41659e-07
3.40489e-07
3.38878e-07
3.40607e-07
3.42346e-07
3.43688e-07
3.45215e-07
3.47935e-07
3.51407e-07
3.52966e-07
3.53174e-07
3.52731e-07
3.52605e-07
3.51248e-07
3.48745e-07
3.46199e-07
3.44422e-07
3.43792e-07
3.42081e-07
3.41853e-07
3.43169e-07
3.46093e-07
3.50233e-07
3.52267e-07
3.55427e-07
3.56225e-07
3.55573e-07
3.52435e-07
3.48224e-07
3.45892e-07
3.44048e-07
3.44695e-07
3.4586e-07
3.51329e-07
2.99489e-07
3.46572e-07
3.01684e-07
3.40135e-07
3.70617e-07
3.62468e-07
3.65417e-07
3.61507e-07
3.57789e-07
3.48646e-07
3.3508e-07
3.20835e-07
3.24783e-07
3.19945e-07
3.26232e-07
3.31416e-07
3.39368e-07
3.53243e-07
3.54918e-07
3.58506e-07
3.57584e-07
3.56013e-07
3.53958e-07
3.4682e-07
3.44084e-07
3.42657e-07
3.41753e-07
3.40581e-07
3.38944e-07
3.40607e-07
3.42255e-07
3.43544e-07
3.45038e-07
3.47721e-07
3.51175e-07
3.52785e-07
3.53081e-07
3.52732e-07
3.52661e-07
3.51364e-07
3.48935e-07
3.46416e-07
3.44638e-07
3.43926e-07
3.42147e-07
3.4183e-07
3.42997e-07
3.45835e-07
3.49898e-07
3.51995e-07
3.55263e-07
3.56193e-07
3.55707e-07
3.52657e-07
3.48493e-07
3.4606e-07
3.44117e-07
3.44692e-07
3.45855e-07
3.50748e-07
2.98561e-07
3.46096e-07
3.01023e-07
3.39034e-07
3.69498e-07
3.61806e-07
3.65254e-07
3.62177e-07
3.58082e-07
3.49678e-07
3.35829e-07
3.21544e-07
3.2522e-07
3.19704e-07
3.26007e-07
3.30792e-07
3.38723e-07
3.52624e-07
3.544e-07
3.58371e-07
3.57569e-07
3.56135e-07
3.54163e-07
3.47051e-07
3.44342e-07
3.42809e-07
3.41861e-07
3.40684e-07
3.39019e-07
3.40614e-07
3.42166e-07
3.43398e-07
3.44854e-07
3.47496e-07
3.50928e-07
3.52591e-07
3.52978e-07
3.52726e-07
3.52715e-07
3.51481e-07
3.4913e-07
3.46643e-07
3.44865e-07
3.4407e-07
3.42222e-07
3.41814e-07
3.42827e-07
3.4557e-07
3.49549e-07
3.51707e-07
3.5508e-07
3.56147e-07
3.55833e-07
3.52881e-07
3.48775e-07
3.46242e-07
3.442e-07
3.44695e-07
3.45853e-07
3.50189e-07
2.97653e-07
3.45644e-07
3.00336e-07
3.37883e-07
3.68318e-07
3.61029e-07
3.65058e-07
3.62793e-07
3.58355e-07
3.50744e-07
3.36595e-07
3.22327e-07
3.25702e-07
3.19502e-07
3.25813e-07
3.30158e-07
3.38063e-07
3.51965e-07
3.53838e-07
3.58205e-07
3.57525e-07
3.56246e-07
3.54365e-07
3.47291e-07
3.44617e-07
3.42974e-07
3.41982e-07
3.40799e-07
3.39105e-07
3.4063e-07
3.42079e-07
3.43251e-07
3.44666e-07
3.47262e-07
3.50669e-07
3.52382e-07
3.52862e-07
3.52712e-07
3.52764e-07
3.516e-07
3.4933e-07
3.46879e-07
3.45102e-07
3.44224e-07
3.42309e-07
3.41806e-07
3.42661e-07
3.45302e-07
3.49188e-07
3.51403e-07
3.54878e-07
3.56084e-07
3.5595e-07
3.53106e-07
3.49066e-07
3.46438e-07
3.44295e-07
3.44705e-07
3.45853e-07
3.49657e-07
2.96773e-07
3.45225e-07
2.99626e-07
3.36691e-07
3.6708e-07
3.60131e-07
3.6483e-07
3.63342e-07
3.58603e-07
3.51836e-07
3.37373e-07
3.23183e-07
3.26229e-07
3.19344e-07
3.25655e-07
3.29519e-07
3.37394e-07
3.51267e-07
3.53233e-07
3.58005e-07
3.57447e-07
3.56343e-07
3.54562e-07
3.47536e-07
3.44906e-07
3.43152e-07
3.42117e-07
3.40926e-07
3.39201e-07
3.40654e-07
3.41997e-07
3.43107e-07
3.44475e-07
3.47019e-07
3.50398e-07
3.52158e-07
3.52735e-07
3.52688e-07
3.52808e-07
3.51717e-07
3.49533e-07
3.47122e-07
3.45349e-07
3.4439e-07
3.42408e-07
3.41808e-07
3.42501e-07
3.45032e-07
3.48817e-07
3.51083e-07
3.54655e-07
3.56003e-07
3.56055e-07
3.53329e-07
3.49367e-07
3.46647e-07
3.44404e-07
3.44722e-07
3.45857e-07
3.49153e-07
2.95929e-07
3.44845e-07
2.98896e-07
3.35469e-07
3.65787e-07
3.59111e-07
3.64568e-07
3.63812e-07
3.58821e-07
3.52944e-07
3.38155e-07
3.24112e-07
3.26798e-07
3.19235e-07
3.25539e-07
3.28881e-07
3.36723e-07
3.50533e-07
3.52587e-07
3.5777e-07
3.57334e-07
3.56425e-07
3.54751e-07
3.47785e-07
3.45209e-07
3.4334e-07
3.42265e-07
3.41065e-07
3.39309e-07
3.40689e-07
3.4192e-07
3.42965e-07
3.44284e-07
3.46771e-07
3.50115e-07
3.51921e-07
3.52593e-07
3.52654e-07
3.52843e-07
3.51831e-07
3.49738e-07
3.47371e-07
3.45605e-07
3.44568e-07
3.4252e-07
3.41822e-07
3.42349e-07
3.44762e-07
3.48437e-07
3.50747e-07
3.54411e-07
3.55902e-07
3.56144e-07
3.53547e-07
3.49673e-07
3.46869e-07
3.44528e-07
3.44748e-07
3.45863e-07
3.48683e-07
2.95131e-07
3.44513e-07
2.98149e-07
3.34226e-07
3.64443e-07
3.57967e-07
3.64272e-07
3.64192e-07
3.59006e-07
3.54061e-07
3.38937e-07
3.25114e-07
3.27408e-07
3.19181e-07
3.25469e-07
3.28249e-07
3.36055e-07
3.49766e-07
3.51903e-07
3.57499e-07
3.57184e-07
3.56489e-07
3.54929e-07
3.48036e-07
3.45523e-07
3.43538e-07
3.42427e-07
3.41216e-07
3.39428e-07
3.40735e-07
3.41851e-07
3.4283e-07
3.44094e-07
3.46517e-07
3.49824e-07
3.5167e-07
3.52439e-07
3.52608e-07
3.52869e-07
3.51939e-07
3.49941e-07
3.47626e-07
3.4587e-07
3.44757e-07
3.42648e-07
3.41849e-07
3.42209e-07
3.44495e-07
3.48051e-07
3.50398e-07
3.54144e-07
3.55779e-07
3.56215e-07
3.53758e-07
3.49985e-07
3.47103e-07
3.44667e-07
3.44784e-07
3.45872e-07
3.48247e-07
2.94388e-07
3.44237e-07
2.97389e-07
3.32975e-07
3.6305e-07
3.56701e-07
3.63941e-07
3.6447e-07
3.59152e-07
3.55176e-07
3.3971e-07
3.26185e-07
3.28056e-07
3.19186e-07
3.25449e-07
3.27628e-07
3.35396e-07
3.48969e-07
3.51182e-07
3.57192e-07
3.56994e-07
3.56532e-07
3.55092e-07
3.48286e-07
3.45846e-07
3.43745e-07
3.42602e-07
3.41377e-07
3.39558e-07
3.40793e-07
3.4179e-07
3.42702e-07
3.43908e-07
3.46262e-07
3.49524e-07
3.51406e-07
3.5227e-07
3.52548e-07
3.52883e-07
3.52041e-07
3.50141e-07
3.47883e-07
3.46142e-07
3.44958e-07
3.42791e-07
3.41891e-07
3.42082e-07
3.44233e-07
3.47661e-07
3.50034e-07
3.53856e-07
3.55632e-07
3.56266e-07
3.53958e-07
3.50299e-07
3.47349e-07
3.44821e-07
3.44828e-07
3.45885e-07
3.47845e-07
2.93709e-07
3.44023e-07
2.9662e-07
3.31729e-07
3.61613e-07
3.55315e-07
3.63577e-07
3.64635e-07
3.59258e-07
3.56279e-07
3.40467e-07
3.27322e-07
3.28738e-07
3.19254e-07
3.25483e-07
3.27024e-07
3.34754e-07
3.48146e-07
3.50428e-07
3.56848e-07
3.56762e-07
3.56552e-07
3.55237e-07
3.48534e-07
3.46177e-07
3.43959e-07
3.42789e-07
3.41549e-07
3.39701e-07
3.40864e-07
3.4174e-07
3.42584e-07
3.43727e-07
3.46006e-07
3.49219e-07
3.51131e-07
3.52087e-07
3.52472e-07
3.52884e-07
3.52133e-07
3.50336e-07
3.48143e-07
3.4642e-07
3.45171e-07
3.4295e-07
3.41951e-07
3.41972e-07
3.4398e-07
3.47269e-07
3.49659e-07
3.53545e-07
3.5546e-07
3.56293e-07
3.54147e-07
3.50614e-07
3.47605e-07
3.4499e-07
3.44883e-07
3.45902e-07
3.4748e-07
2.93103e-07
3.43877e-07
2.95845e-07
3.30501e-07
3.60134e-07
3.53811e-07
3.63179e-07
3.64676e-07
3.59319e-07
3.5736e-07
3.41202e-07
3.28522e-07
3.29451e-07
3.19389e-07
3.25574e-07
3.26443e-07
3.34134e-07
3.473e-07
3.49644e-07
3.56468e-07
3.56486e-07
3.56548e-07
3.55362e-07
3.48776e-07
3.46512e-07
3.44178e-07
3.42988e-07
3.41731e-07
3.39855e-07
3.40948e-07
3.41701e-07
3.42477e-07
3.43554e-07
3.45752e-07
3.4891e-07
3.50844e-07
3.5189e-07
3.52381e-07
3.5287e-07
3.52213e-07
3.50525e-07
3.48401e-07
3.46704e-07
3.45397e-07
3.43127e-07
3.42029e-07
3.41881e-07
3.43738e-07
3.46878e-07
3.49273e-07
3.53211e-07
3.55261e-07
3.56295e-07
3.54319e-07
3.50925e-07
3.47871e-07
3.45175e-07
3.44949e-07
3.45923e-07
3.47148e-07
2.92579e-07
3.43804e-07
2.95068e-07
3.29305e-07
3.58616e-07
3.52197e-07
3.62749e-07
3.64586e-07
3.59334e-07
3.58406e-07
3.41907e-07
3.2978e-07
3.3019e-07
3.19595e-07
3.25724e-07
3.2589e-07
3.33543e-07
3.46436e-07
3.48836e-07
3.56052e-07
3.56167e-07
3.56519e-07
3.55464e-07
3.4901e-07
3.4685e-07
3.44401e-07
3.43197e-07
3.41922e-07
3.40021e-07
3.41045e-07
3.41674e-07
3.42384e-07
3.4339e-07
3.45502e-07
3.48598e-07
3.50548e-07
3.51679e-07
3.52274e-07
3.52839e-07
3.52281e-07
3.50703e-07
3.48657e-07
3.46991e-07
3.45633e-07
3.43322e-07
3.42127e-07
3.41811e-07
3.43509e-07
3.46491e-07
3.48878e-07
3.52855e-07
3.55035e-07
3.56269e-07
3.54473e-07
3.51232e-07
3.48144e-07
3.45374e-07
3.45025e-07
3.45948e-07
3.46848e-07
2.92147e-07
3.43808e-07
2.94295e-07
3.28158e-07
3.57064e-07
3.5048e-07
3.62287e-07
3.64355e-07
3.59301e-07
3.59407e-07
3.42576e-07
3.3109e-07
3.30949e-07
3.19874e-07
3.25935e-07
3.2537e-07
3.32988e-07
3.45559e-07
3.48007e-07
3.55602e-07
3.55804e-07
3.56461e-07
3.55538e-07
3.49233e-07
3.47186e-07
3.44626e-07
3.43415e-07
3.4212e-07
3.40198e-07
3.41156e-07
3.4166e-07
3.42305e-07
3.43238e-07
3.45259e-07
3.48287e-07
3.50243e-07
3.51455e-07
3.52148e-07
3.5279e-07
3.52332e-07
3.5087e-07
3.48909e-07
3.4728e-07
3.4588e-07
3.43535e-07
3.42247e-07
3.41764e-07
3.43297e-07
3.46111e-07
3.48477e-07
3.52479e-07
3.54781e-07
3.56212e-07
3.54605e-07
3.51531e-07
3.48423e-07
3.45589e-07
3.45113e-07
3.45978e-07
3.46579e-07
2.91813e-07
3.43892e-07
2.93529e-07
3.27073e-07
3.55481e-07
3.4867e-07
3.61796e-07
3.63977e-07
3.59219e-07
3.60351e-07
3.43202e-07
3.32446e-07
3.31722e-07
3.20228e-07
3.26208e-07
3.2489e-07
3.32475e-07
3.44673e-07
3.47164e-07
3.55117e-07
3.55396e-07
3.56375e-07
3.55583e-07
3.49444e-07
3.47519e-07
3.4485e-07
3.43642e-07
3.42325e-07
3.40385e-07
3.41281e-07
3.41661e-07
3.42244e-07
3.431e-07
3.45026e-07
3.47978e-07
3.49932e-07
3.51217e-07
3.52005e-07
3.52723e-07
3.52367e-07
3.51022e-07
3.49154e-07
3.47569e-07
3.46138e-07
3.43767e-07
3.4239e-07
3.41744e-07
3.43105e-07
3.45741e-07
3.48071e-07
3.52082e-07
3.54497e-07
3.56123e-07
3.54713e-07
3.51818e-07
3.48706e-07
3.45817e-07
3.45212e-07
3.46013e-07
3.46336e-07
2.91588e-07
3.44057e-07
2.92776e-07
3.26067e-07
3.53869e-07
3.46778e-07
3.61277e-07
3.63446e-07
3.59088e-07
3.61225e-07
3.43778e-07
3.3384e-07
3.32502e-07
3.20658e-07
3.26543e-07
3.24454e-07
3.3201e-07
3.43783e-07
3.46311e-07
3.54601e-07
3.54944e-07
3.56259e-07
3.55596e-07
3.4964e-07
3.47846e-07
3.45072e-07
3.43876e-07
3.42535e-07
3.40583e-07
3.41419e-07
3.41677e-07
3.42201e-07
3.42978e-07
3.44803e-07
3.47674e-07
3.49617e-07
3.50968e-07
3.51844e-07
3.52634e-07
3.52382e-07
3.51158e-07
3.49389e-07
3.47856e-07
3.46404e-07
3.44016e-07
3.42557e-07
3.41751e-07
3.42936e-07
3.45384e-07
3.47663e-07
3.51667e-07
3.54185e-07
3.56e-07
3.54793e-07
3.52091e-07
3.48991e-07
3.46057e-07
3.45322e-07
3.46053e-07
3.46115e-07
2.91478e-07
3.44303e-07
2.92041e-07
3.25155e-07
3.52232e-07
3.44817e-07
3.60731e-07
3.62758e-07
3.58908e-07
3.62017e-07
3.44299e-07
3.35264e-07
3.33282e-07
3.21165e-07
3.26937e-07
3.24066e-07
3.31599e-07
3.42895e-07
3.45456e-07
3.54055e-07
3.54449e-07
3.56113e-07
3.55574e-07
3.49819e-07
3.48163e-07
3.4529e-07
3.44114e-07
3.42749e-07
3.4079e-07
3.41569e-07
3.41708e-07
3.42177e-07
3.42872e-07
3.44595e-07
3.47377e-07
3.49299e-07
3.50709e-07
3.51664e-07
3.52525e-07
3.52376e-07
3.51275e-07
3.49612e-07
3.48139e-07
3.46677e-07
3.44283e-07
3.42748e-07
3.41789e-07
3.42792e-07
3.45043e-07
3.47256e-07
3.51235e-07
3.53844e-07
3.55841e-07
3.54844e-07
3.52346e-07
3.49274e-07
3.46309e-07
3.45442e-07
3.46098e-07
3.45913e-07
2.9149e-07
3.44628e-07
2.91331e-07
3.24351e-07
3.50573e-07
3.42804e-07
3.60161e-07
3.61912e-07
3.58681e-07
3.62716e-07
3.4476e-07
3.36709e-07
3.34054e-07
3.21747e-07
3.2739e-07
3.23732e-07
3.31248e-07
3.42013e-07
3.44604e-07
3.53482e-07
3.53914e-07
3.55937e-07
3.55515e-07
3.49978e-07
3.48467e-07
3.45501e-07
3.44356e-07
3.42964e-07
3.41005e-07
3.41732e-07
3.41755e-07
3.42173e-07
3.42786e-07
3.44404e-07
3.47091e-07
3.48981e-07
3.5044e-07
3.51467e-07
3.52394e-07
3.52348e-07
3.51371e-07
3.49821e-07
3.48416e-07
3.46955e-07
3.44566e-07
3.42963e-07
3.41858e-07
3.42676e-07
3.44723e-07
3.46854e-07
3.50789e-07
3.53475e-07
3.55646e-07
3.54862e-07
3.5258e-07
3.49554e-07
3.46571e-07
3.45573e-07
3.46148e-07
3.45724e-07
2.91631e-07
3.45027e-07
2.90651e-07
3.23671e-07
3.48894e-07
3.40755e-07
3.59569e-07
3.60906e-07
3.58409e-07
3.6331e-07
3.45155e-07
3.38165e-07
3.3481e-07
3.22404e-07
3.27898e-07
3.23455e-07
3.3096e-07
3.41143e-07
3.43762e-07
3.52884e-07
3.53341e-07
3.55731e-07
3.55417e-07
3.50116e-07
3.48755e-07
3.45703e-07
3.44599e-07
3.4318e-07
3.41227e-07
3.41906e-07
3.41817e-07
3.42191e-07
3.42719e-07
3.44231e-07
3.46816e-07
3.48666e-07
3.50165e-07
3.51253e-07
3.52242e-07
3.52296e-07
3.51445e-07
3.50013e-07
3.48683e-07
3.47238e-07
3.44865e-07
3.43204e-07
3.41959e-07
3.42591e-07
3.44427e-07
3.46459e-07
3.50332e-07
3.53079e-07
3.55413e-07
3.54845e-07
3.52789e-07
3.49828e-07
3.4684e-07
3.45713e-07
3.46203e-07
3.45544e-07
2.91907e-07
3.45496e-07
2.90007e-07
3.23126e-07
3.47199e-07
3.3869e-07
3.58957e-07
3.59743e-07
3.58096e-07
3.63787e-07
3.45483e-07
3.39621e-07
3.3554e-07
3.23132e-07
3.28456e-07
3.23238e-07
3.30741e-07
3.4029e-07
3.42938e-07
3.52266e-07
3.52731e-07
3.55495e-07
3.5528e-07
3.50232e-07
3.49025e-07
3.45894e-07
3.44842e-07
3.43393e-07
3.41455e-07
3.4209e-07
3.41894e-07
3.42229e-07
3.42674e-07
3.44078e-07
3.46557e-07
3.48356e-07
3.49884e-07
3.51024e-07
3.52068e-07
3.52219e-07
3.51493e-07
3.50186e-07
3.48939e-07
3.47521e-07
3.45177e-07
3.43468e-07
3.42094e-07
3.4254e-07
3.44157e-07
3.46077e-07
3.49867e-07
3.52658e-07
3.55143e-07
3.5479e-07
3.5297e-07
3.50091e-07
3.47115e-07
3.45862e-07
3.46264e-07
3.45365e-07
2.92321e-07
3.46026e-07
2.89407e-07
3.22729e-07
3.4549e-07
3.36627e-07
3.58327e-07
3.58427e-07
3.57744e-07
3.64138e-07
3.45739e-07
3.41066e-07
3.36238e-07
3.2393e-07
3.2906e-07
3.23085e-07
3.30594e-07
3.39459e-07
3.42138e-07
3.51629e-07
3.52091e-07
3.5523e-07
3.55101e-07
3.50324e-07
3.49273e-07
3.46072e-07
3.45081e-07
3.43602e-07
3.41688e-07
3.42282e-07
3.41986e-07
3.4229e-07
3.42651e-07
3.43948e-07
3.46315e-07
3.48053e-07
3.49601e-07
3.50781e-07
3.51873e-07
3.52117e-07
3.51515e-07
3.50337e-07
3.4918e-07
3.47803e-07
3.45501e-07
3.43756e-07
3.42263e-07
3.42524e-07
3.43919e-07
3.45709e-07
3.49397e-07
3.52214e-07
3.54835e-07
3.54697e-07
3.5312e-07
3.50341e-07
3.47393e-07
3.46019e-07
3.46329e-07
3.45184e-07
2.92876e-07
3.46609e-07
2.88858e-07
3.22491e-07
3.4377e-07
3.34589e-07
3.57681e-07
3.56963e-07
3.57359e-07
3.64352e-07
3.45922e-07
3.42488e-07
3.36893e-07
3.24793e-07
3.29703e-07
3.22998e-07
3.3052e-07
3.38655e-07
3.41371e-07
3.50978e-07
3.51422e-07
3.54937e-07
3.54881e-07
3.50391e-07
3.49496e-07
3.46235e-07
3.45317e-07
3.43804e-07
3.41923e-07
3.4248e-07
3.42092e-07
3.42371e-07
3.4265e-07
3.43843e-07
3.46093e-07
3.47761e-07
3.49317e-07
3.50525e-07
3.51658e-07
3.5199e-07
3.5151e-07
3.50463e-07
3.49404e-07
3.48081e-07
3.45834e-07
3.44066e-07
3.42466e-07
3.42545e-07
3.43715e-07
3.45361e-07
3.48927e-07
3.51751e-07
3.5449e-07
3.54564e-07
3.53236e-07
3.50575e-07
3.47671e-07
3.46182e-07
3.46399e-07
3.44993e-07
2.93576e-07
3.47231e-07
2.88368e-07
3.22419e-07
3.4204e-07
3.32597e-07
3.5702e-07
3.55361e-07
3.56945e-07
3.64422e-07
3.46032e-07
3.43876e-07
3.37498e-07
3.25716e-07
3.30377e-07
3.22979e-07
3.30521e-07
3.37883e-07
3.40642e-07
3.50317e-07
3.50731e-07
3.54619e-07
3.5462e-07
3.50433e-07
3.49693e-07
3.46382e-07
3.45545e-07
3.43998e-07
3.42159e-07
3.42684e-07
3.4221e-07
3.42472e-07
3.42672e-07
3.43763e-07
3.45893e-07
3.47483e-07
3.49036e-07
3.50259e-07
3.51425e-07
3.51837e-07
3.51476e-07
3.50563e-07
3.49608e-07
3.48352e-07
3.46173e-07
3.44396e-07
3.42702e-07
3.42605e-07
3.43547e-07
3.45037e-07
3.4846e-07
3.5127e-07
3.54111e-07
3.5439e-07
3.53314e-07
3.50788e-07
3.47946e-07
3.46349e-07
3.46474e-07
3.44787e-07
2.9442e-07
3.47881e-07
2.87943e-07
3.22518e-07
3.40304e-07
3.30675e-07
3.56346e-07
3.5363e-07
3.56509e-07
3.64339e-07
3.4607e-07
3.45218e-07
3.38045e-07
3.26693e-07
3.31074e-07
3.23028e-07
3.30597e-07
3.37147e-07
3.39958e-07
3.49649e-07
3.50022e-07
3.54276e-07
3.54317e-07
3.5045e-07
3.4986e-07
3.4651e-07
3.45764e-07
3.44182e-07
3.42394e-07
3.42889e-07
3.42339e-07
3.42593e-07
3.42716e-07
3.4371e-07
3.45716e-07
3.47221e-07
3.4876e-07
3.49985e-07
3.51175e-07
3.5166e-07
3.51413e-07
3.50635e-07
3.49789e-07
3.48612e-07
3.46516e-07
3.44744e-07
3.42972e-07
3.42705e-07
3.4342e-07
3.44741e-07
3.48002e-07
3.50776e-07
3.53698e-07
3.54174e-07
3.53353e-07
3.50977e-07
3.48214e-07
3.46519e-07
3.46552e-07
3.44561e-07
2.95407e-07
3.48543e-07
2.87592e-07
3.22793e-07
3.38564e-07
3.28844e-07
3.55659e-07
3.51784e-07
3.56057e-07
3.64098e-07
3.46038e-07
3.465e-07
3.38527e-07
3.27718e-07
3.31785e-07
3.23145e-07
3.30747e-07
3.3645e-07
3.39326e-07
3.48978e-07
3.49302e-07
3.53912e-07
3.53975e-07
3.50441e-07
3.49996e-07
3.4662e-07
3.45972e-07
3.44352e-07
3.42626e-07
3.43095e-07
3.42478e-07
3.42732e-07
3.42782e-07
3.43684e-07
3.45565e-07
3.46977e-07
3.48493e-07
3.49707e-07
3.5091e-07
3.51459e-07
3.5132e-07
3.50677e-07
3.49945e-07
3.48858e-07
3.46858e-07
3.45107e-07
3.43272e-07
3.42845e-07
3.43336e-07
3.44476e-07
3.47558e-07
3.50274e-07
3.53255e-07
3.53917e-07
3.5335e-07
3.51138e-07
3.48472e-07
3.4669e-07
3.46633e-07
3.44307e-07
2.96535e-07
3.492e-07
2.87323e-07
3.23243e-07
3.36822e-07
3.27128e-07
3.54959e-07
3.49838e-07
3.55595e-07
3.63695e-07
3.4594e-07
3.47711e-07
3.38936e-07
3.28782e-07
3.32499e-07
3.23331e-07
3.30969e-07
3.35797e-07
3.38751e-07
3.48308e-07
3.48575e-07
3.53529e-07
3.53594e-07
3.50407e-07
3.50099e-07
3.46709e-07
3.46167e-07
3.44509e-07
3.42853e-07
3.43299e-07
3.42624e-07
3.42887e-07
3.42869e-07
3.43686e-07
3.45441e-07
3.46756e-07
3.48237e-07
3.49427e-07
3.50633e-07
3.51236e-07
3.51199e-07
3.50688e-07
3.50073e-07
3.49088e-07
3.47196e-07
3.45482e-07
3.43602e-07
3.43025e-07
3.43296e-07
3.44248e-07
3.47132e-07
3.49767e-07
3.52785e-07
3.53619e-07
3.53303e-07
3.51269e-07
3.48717e-07
3.4686e-07
3.46716e-07
3.44022e-07
2.978e-07
3.49834e-07
2.87144e-07
3.23866e-07
3.35081e-07
3.25549e-07
3.54246e-07
3.4781e-07
3.55129e-07
3.63127e-07
3.4578e-07
3.48839e-07
3.39268e-07
3.29879e-07
3.33208e-07
3.23584e-07
3.31259e-07
3.35191e-07
3.38239e-07
3.47643e-07
3.47849e-07
3.53129e-07
3.53178e-07
3.5035e-07
3.50169e-07
3.46777e-07
3.46347e-07
3.44648e-07
3.43074e-07
3.43497e-07
3.42776e-07
3.43056e-07
3.42975e-07
3.43715e-07
3.45345e-07
3.46559e-07
3.47996e-07
3.49149e-07
3.50347e-07
3.50993e-07
3.51048e-07
3.50667e-07
3.50171e-07
3.49296e-07
3.47526e-07
3.45866e-07
3.43958e-07
3.43245e-07
3.43302e-07
3.44059e-07
3.46729e-07
3.49262e-07
3.52292e-07
3.53283e-07
3.53211e-07
3.51366e-07
3.48944e-07
3.47025e-07
3.468e-07
3.43699e-07
2.99196e-07
3.50426e-07
2.87064e-07
3.24655e-07
3.33345e-07
3.24126e-07
3.53518e-07
3.45719e-07
3.54666e-07
3.62394e-07
3.45565e-07
3.49872e-07
3.39519e-07
3.30998e-07
3.33899e-07
3.23902e-07
3.31613e-07
3.34633e-07
3.37794e-07
3.46986e-07
3.4713e-07
3.52716e-07
3.52728e-07
3.50271e-07
3.50203e-07
3.46824e-07
3.4651e-07
3.4477e-07
3.43287e-07
3.43688e-07
3.42931e-07
3.43236e-07
3.43099e-07
3.43771e-07
3.45277e-07
3.46387e-07
3.47772e-07
3.48876e-07
3.50056e-07
3.50732e-07
3.50871e-07
3.50613e-07
3.50237e-07
3.49481e-07
3.47844e-07
3.46253e-07
3.44337e-07
3.43504e-07