/*--------------------------------*- C++ -*----------------------------------*\
| =========                 |                                                 |
| \\      /  F ield         | foam-extend: Open Source CFD                    |
|  \\    /   O peration     | Version:     4.0                                |
|   \\  /    A nd           | Web:         http://www.foam-extend.org         |
|    \\/     M anipulation  |                                                 |
\*---------------------------------------------------------------------------*/
FoamFile
{
    version     2.0;
    format      ascii;
    class       volScalarField;
    location    "900";
    object      cMinus;
}
// * * * * * * * * * * * * * * * * * * * * * * * * * * * * * * * * * * * * * //

dimensions      [0 0 0 0 0 0 0];

internalField   nonuniform List<scalar> 
6960
(
6.56294e-19
6.55227e-19
6.54109e-19
6.53486e-19
6.53165e-19
6.53005e-19
6.52929e-19
6.52894e-19
6.52882e-19
6.5288e-19
6.52885e-19
6.52892e-19
6.529e-19
6.5291e-19
6.52919e-19
6.52928e-19
6.52937e-19
6.52946e-19
6.52954e-19
6.52961e-19
6.52968e-19
6.52975e-19
6.52981e-19
6.52986e-19
6.5299e-19
6.52994e-19
6.52997e-19
6.52999e-19
6.53001e-19
6.53002e-19
6.53002e-19
6.53001e-19
6.52999e-19
6.52997e-19
6.52994e-19
6.5299e-19
6.52986e-19
6.52981e-19
6.52975e-19
6.52968e-19
6.52961e-19
6.52954e-19
6.52946e-19
6.52937e-19
6.52928e-19
6.52919e-19
6.5291e-19
6.529e-19
6.52892e-19
6.52885e-19
6.5288e-19
6.52882e-19
6.52894e-19
6.52929e-19
6.53005e-19
6.53165e-19
6.53486e-19
6.54109e-19
6.55227e-19
6.56294e-19
4.13843e-18
4.13414e-18
4.12851e-18
4.12534e-18
4.12372e-18
4.12294e-18
4.1226e-18
4.12248e-18
4.12248e-18
4.12254e-18
4.12264e-18
4.12275e-18
4.12287e-18
4.12299e-18
4.12311e-18
4.12323e-18
4.12334e-18
4.12344e-18
4.12354e-18
4.12364e-18
4.12372e-18
4.1238e-18
4.12387e-18
4.12393e-18
4.12399e-18
4.12403e-18
4.12407e-18
4.1241e-18
4.12412e-18
4.12412e-18
4.12412e-18
4.12412e-18
4.1241e-18
4.12407e-18
4.12403e-18
4.12399e-18
4.12393e-18
4.12387e-18
4.1238e-18
4.12372e-18
4.12364e-18
4.12354e-18
4.12344e-18
4.12334e-18
4.12323e-18
4.12311e-18
4.12299e-18
4.12287e-18
4.12275e-18
4.12264e-18
4.12254e-18
4.12248e-18
4.12248e-18
4.1226e-18
4.12294e-18
4.12372e-18
4.12534e-18
4.12851e-18
4.13414e-18
4.13843e-18
2.52945e-17
2.52845e-17
2.52601e-17
2.5246e-17
2.52388e-17
2.52354e-17
2.5234e-17
2.52337e-17
2.5234e-17
2.52346e-17
2.52353e-17
2.52361e-17
2.52369e-17
2.52378e-17
2.52386e-17
2.52394e-17
2.52402e-17
2.52409e-17
2.52416e-17
2.52422e-17
2.52428e-17
2.52433e-17
2.52438e-17
2.52442e-17
2.52446e-17
2.52449e-17
2.52452e-17
2.52453e-17
2.52455e-17
2.52455e-17
2.52455e-17
2.52455e-17
2.52453e-17
2.52452e-17
2.52449e-17
2.52446e-17
2.52442e-17
2.52438e-17
2.52433e-17
2.52428e-17
2.52422e-17
2.52416e-17
2.52409e-17
2.52402e-17
2.52394e-17
2.52386e-17
2.52378e-17
2.52369e-17
2.52361e-17
2.52353e-17
2.52346e-17
2.5234e-17
2.52337e-17
2.5234e-17
2.52354e-17
2.52388e-17
2.5246e-17
2.52601e-17
2.52845e-17
2.52945e-17
1.58467e-16
1.5851e-16
1.58423e-16
1.5837e-16
1.58342e-16
1.58329e-16
1.58326e-16
1.58326e-16
1.58329e-16
1.58334e-16
1.58339e-16
1.58345e-16
1.58351e-16
1.58356e-16
1.58362e-16
1.58368e-16
1.58373e-16
1.58378e-16
1.58382e-16
1.58387e-16
1.58391e-16
1.58394e-16
1.58398e-16
1.584e-16
1.58403e-16
1.58405e-16
1.58407e-16
1.58408e-16
1.58409e-16
1.58409e-16
1.58409e-16
1.58409e-16
1.58408e-16
1.58407e-16
1.58405e-16
1.58403e-16
1.584e-16
1.58398e-16
1.58394e-16
1.58391e-16
1.58387e-16
1.58382e-16
1.58378e-16
1.58373e-16
1.58368e-16
1.58362e-16
1.58356e-16
1.58351e-16
1.58345e-16
1.58339e-16
1.58334e-16
1.58329e-16
1.58326e-16
1.58326e-16
1.58329e-16
1.58342e-16
1.5837e-16
1.58423e-16
1.5851e-16
1.58467e-16
1.0253e-15
1.02627e-15
1.02614e-15
1.02603e-15
1.02596e-15
1.02594e-15
1.02595e-15
1.02597e-15
1.026e-15
1.02603e-15
1.02607e-15
1.02611e-15
1.02615e-15
1.02619e-15
1.02623e-15
1.02627e-15
1.0263e-15
1.02634e-15
1.02637e-15
1.0264e-15
1.02643e-15
1.02645e-15
1.02647e-15
1.02649e-15
1.02651e-15
1.02652e-15
1.02654e-15
1.02654e-15
1.02655e-15
1.02655e-15
1.02655e-15
1.02655e-15
1.02654e-15
1.02654e-15
1.02652e-15
1.02651e-15
1.02649e-15
1.02647e-15
1.02645e-15
1.02643e-15
1.0264e-15
1.02637e-15
1.02634e-15
1.0263e-15
1.02627e-15
1.02623e-15
1.02619e-15
1.02615e-15
1.02611e-15
1.02607e-15
1.02603e-15
1.026e-15
1.02597e-15
1.02595e-15
1.02594e-15
1.02596e-15
1.02603e-15
1.02614e-15
1.02627e-15
1.0253e-15
6.84014e-15
6.85122e-15
6.85332e-15
6.85408e-15
6.85444e-15
6.85468e-15
6.85492e-15
6.85516e-15
6.85543e-15
6.85571e-15
6.85599e-15
6.85628e-15
6.85657e-15
6.85685e-15
6.85712e-15
6.85739e-15
6.85764e-15
6.85787e-15
6.85809e-15
6.8583e-15
6.85849e-15
6.85866e-15
6.85881e-15
6.85895e-15
6.85906e-15
6.85916e-15
6.85924e-15
6.8593e-15
6.85934e-15
6.85936e-15
6.85936e-15
6.85934e-15
6.8593e-15
6.85924e-15
6.85916e-15
6.85906e-15
6.85895e-15
6.85881e-15
6.85866e-15
6.85849e-15
6.8583e-15
6.85809e-15
6.85787e-15
6.85764e-15
6.85739e-15
6.85712e-15
6.85685e-15
6.85657e-15
6.85628e-15
6.85599e-15
6.85571e-15
6.85543e-15
6.85516e-15
6.85492e-15
6.85468e-15
6.85444e-15
6.85408e-15
6.85332e-15
6.85122e-15
6.84014e-15
4.68665e-14
4.69739e-14
4.70083e-14
4.70241e-14
4.70319e-14
4.70363e-14
4.70392e-14
4.70416e-14
4.70438e-14
4.7046e-14
4.70481e-14
4.70502e-14
4.70523e-14
4.70543e-14
4.70562e-14
4.70581e-14
4.70599e-14
4.70615e-14
4.70631e-14
4.70645e-14
4.70659e-14
4.70671e-14
4.70681e-14
4.70691e-14
4.70699e-14
4.70706e-14
4.70711e-14
4.70715e-14
4.70718e-14
4.7072e-14
4.7072e-14
4.70718e-14
4.70715e-14
4.70711e-14
4.70706e-14
4.70699e-14
4.70691e-14
4.70681e-14
4.70671e-14
4.70659e-14
4.70645e-14
4.70631e-14
4.70615e-14
4.70599e-14
4.70581e-14
4.70562e-14
4.70543e-14
4.70523e-14
4.70502e-14
4.70481e-14
4.7046e-14
4.70438e-14
4.70416e-14
4.70392e-14
4.70363e-14
4.70319e-14
4.70241e-14
4.70083e-14
4.69739e-14
4.68665e-14
3.28068e-13
3.29036e-13
3.29416e-13
3.29599e-13
3.2969e-13
3.29739e-13
3.29769e-13
3.29791e-13
3.29809e-13
3.29826e-13
3.29842e-13
3.29857e-13
3.29872e-13
3.29887e-13
3.29901e-13
3.29914e-13
3.29927e-13
3.29938e-13
3.2995e-13
3.2996e-13
3.29969e-13
3.29978e-13
3.29986e-13
3.29992e-13
3.29998e-13
3.30003e-13
3.30007e-13
3.3001e-13
3.30012e-13
3.30013e-13
3.30013e-13
3.30012e-13
3.3001e-13
3.30007e-13
3.30003e-13
3.29998e-13
3.29992e-13
3.29986e-13
3.29978e-13
3.29969e-13
3.2996e-13
3.2995e-13
3.29938e-13
3.29927e-13
3.29914e-13
3.29901e-13
3.29887e-13
3.29872e-13
3.29857e-13
3.29842e-13
3.29826e-13
3.29809e-13
3.29791e-13
3.29769e-13
3.29739e-13
3.2969e-13
3.29599e-13
3.29416e-13
3.29036e-13
3.28068e-13
2.3311e-12
2.33946e-12
2.34312e-12
2.34492e-12
2.34583e-12
2.3463e-12
2.34658e-12
2.34677e-12
2.34691e-12
2.34704e-12
2.34716e-12
2.34727e-12
2.34738e-12
2.34749e-12
2.34759e-12
2.34768e-12
2.34777e-12
2.34786e-12
2.34794e-12
2.34801e-12
2.34808e-12
2.34814e-12
2.3482e-12
2.34824e-12
2.34829e-12
2.34832e-12
2.34835e-12
2.34837e-12
2.34838e-12
2.34839e-12
2.34839e-12
2.34838e-12
2.34837e-12
2.34835e-12
2.34832e-12
2.34829e-12
2.34824e-12
2.3482e-12
2.34814e-12
2.34808e-12
2.34801e-12
2.34794e-12
2.34786e-12
2.34777e-12
2.34768e-12
2.34759e-12
2.34749e-12
2.34738e-12
2.34727e-12
2.34716e-12
2.34704e-12
2.34691e-12
2.34677e-12
2.34658e-12
2.3463e-12
2.34583e-12
2.34492e-12
2.34312e-12
2.33946e-12
2.3311e-12
1.66834e-11
1.67534e-11
1.67861e-11
1.68025e-11
1.68107e-11
1.68149e-11
1.68174e-11
1.68189e-11
1.68201e-11
1.68211e-11
1.6822e-11
1.68228e-11
1.68236e-11
1.68243e-11
1.68251e-11
1.68257e-11
1.68264e-11
1.6827e-11
1.68276e-11
1.68281e-11
1.68286e-11
1.6829e-11
1.68294e-11
1.68298e-11
1.68301e-11
1.68303e-11
1.68305e-11
1.68307e-11
1.68308e-11
1.68308e-11
1.68308e-11
1.68308e-11
1.68307e-11
1.68305e-11
1.68303e-11
1.68301e-11
1.68298e-11
1.68294e-11
1.6829e-11
1.68286e-11
1.68281e-11
1.68276e-11
1.6827e-11
1.68264e-11
1.68257e-11
1.68251e-11
1.68243e-11
1.68236e-11
1.68228e-11
1.6822e-11
1.68211e-11
1.68201e-11
1.68189e-11
1.68174e-11
1.68149e-11
1.68107e-11
1.68025e-11
1.67861e-11
1.67534e-11
1.66834e-11
1.19177e-10
1.19744e-10
1.20022e-10
1.20162e-10
1.20232e-10
1.20268e-10
1.20288e-10
1.20301e-10
1.2031e-10
1.20317e-10
1.20324e-10
1.2033e-10
1.20335e-10
1.20341e-10
1.20346e-10
1.20351e-10
1.20356e-10
1.2036e-10
1.20364e-10
1.20368e-10
1.20371e-10
1.20374e-10
1.20377e-10
1.20379e-10
1.20382e-10
1.20383e-10
1.20385e-10
1.20386e-10
1.20386e-10
1.20387e-10
1.20387e-10
1.20386e-10
1.20386e-10
1.20385e-10
1.20383e-10
1.20382e-10
1.20379e-10
1.20377e-10
1.20374e-10
1.20371e-10
1.20368e-10
1.20364e-10
1.2036e-10
1.20356e-10
1.20351e-10
1.20346e-10
1.20341e-10
1.20335e-10
1.2033e-10
1.20324e-10
1.20317e-10
1.2031e-10
1.20301e-10
1.20288e-10
1.20268e-10
1.20232e-10
1.20162e-10
1.20022e-10
1.19744e-10
1.19177e-10
8.40925e-10
8.45359e-10
8.47597e-10
8.48731e-10
8.493e-10
8.49591e-10
8.49751e-10
8.49849e-10
8.49918e-10
8.49972e-10
8.5002e-10
8.50063e-10
8.50103e-10
8.50141e-10
8.50177e-10
8.50212e-10
8.50244e-10
8.50274e-10
8.50302e-10
8.50328e-10
8.50352e-10
8.50374e-10
8.50393e-10
8.5041e-10
8.50425e-10
8.50437e-10
8.50447e-10
8.50454e-10
8.50459e-10
8.50462e-10
8.50462e-10
8.50459e-10
8.50454e-10
8.50447e-10
8.50437e-10
8.50425e-10
8.5041e-10
8.50393e-10
8.50374e-10
8.50352e-10
8.50328e-10
8.50302e-10
8.50274e-10
8.50244e-10
8.50212e-10
8.50177e-10
8.50141e-10
8.50103e-10
8.50063e-10
8.5002e-10
8.49972e-10
8.49918e-10
8.49849e-10
8.49751e-10
8.49591e-10
8.493e-10
8.48731e-10
8.47597e-10
8.45359e-10
8.40925e-10
5.79298e-09
5.82611e-09
5.8432e-09
5.8519e-09
5.85626e-09
5.85849e-09
5.8597e-09
5.86043e-09
5.86092e-09
5.86131e-09
5.86164e-09
5.86194e-09
5.86221e-09
5.86247e-09
5.86272e-09
5.86295e-09
5.86317e-09
5.86337e-09
5.86356e-09
5.86374e-09
5.8639e-09
5.86405e-09
5.86418e-09
5.86429e-09
5.86439e-09
5.86447e-09
5.86454e-09
5.86459e-09
5.86462e-09
5.86464e-09
5.86464e-09
5.86462e-09
5.86459e-09
5.86454e-09
5.86447e-09
5.86439e-09
5.86429e-09
5.86418e-09
5.86405e-09
5.8639e-09
5.86374e-09
5.86356e-09
5.86337e-09
5.86317e-09
5.86295e-09
5.86272e-09
5.86247e-09
5.86221e-09
5.86194e-09
5.86164e-09
5.86131e-09
5.86092e-09
5.86043e-09
5.8597e-09
5.85849e-09
5.85626e-09
5.8519e-09
5.8432e-09
5.82611e-09
5.79298e-09
3.8463e-08
3.86971e-08
3.88199e-08
3.88825e-08
3.89138e-08
3.89298e-08
3.89384e-08
3.89435e-08
3.8947e-08
3.89496e-08
3.89518e-08
3.89537e-08
3.89555e-08
3.89572e-08
3.89588e-08
3.89603e-08
3.89617e-08
3.89631e-08
3.89643e-08
3.89654e-08
3.89665e-08
3.89674e-08
3.89682e-08
3.8969e-08
3.89696e-08
3.89701e-08
3.89706e-08
3.89709e-08
3.89711e-08
3.89712e-08
3.89712e-08
3.89711e-08
3.89709e-08
3.89706e-08
3.89701e-08
3.89696e-08
3.8969e-08
3.89682e-08
3.89674e-08
3.89665e-08
3.89654e-08
3.89643e-08
3.89631e-08
3.89617e-08
3.89603e-08
3.89588e-08
3.89572e-08
3.89555e-08
3.89537e-08
3.89518e-08
3.89496e-08
3.8947e-08
3.89435e-08
3.89384e-08
3.89298e-08
3.89138e-08
3.88825e-08
3.88199e-08
3.86971e-08
3.8463e-08
2.42754e-07
2.44299e-07
2.45119e-07
2.45537e-07
2.45747e-07
2.45853e-07
2.4591e-07
2.45944e-07
2.45966e-07
2.45982e-07
2.45996e-07
2.46008e-07
2.46019e-07
2.4603e-07
2.46039e-07
2.46048e-07
2.46057e-07
2.46065e-07
2.46073e-07
2.46079e-07
2.46086e-07
2.46091e-07
2.46097e-07
2.46101e-07
2.46105e-07
2.46108e-07
2.46111e-07
2.46113e-07
2.46114e-07
2.46115e-07
2.46115e-07
2.46114e-07
2.46113e-07
2.46111e-07
2.46108e-07
2.46105e-07
2.46101e-07
2.46097e-07
2.46091e-07
2.46086e-07
2.46079e-07
2.46073e-07
2.46065e-07
2.46057e-07
2.46048e-07
2.46039e-07
2.4603e-07
2.46019e-07
2.46008e-07
2.45996e-07
2.45982e-07
2.45966e-07
2.45944e-07
2.4591e-07
2.45853e-07
2.45747e-07
2.45537e-07
2.45119e-07
2.44299e-07
2.42754e-07
1.43517e-06
1.44455e-06
1.44957e-06
1.45213e-06
1.45342e-06
1.45407e-06
1.45441e-06
1.45462e-06
1.45475e-06
1.45484e-06
1.45492e-06
1.45499e-06
1.45506e-06
1.45512e-06
1.45517e-06
1.45522e-06
1.45527e-06
1.45532e-06
1.45536e-06
1.4554e-06
1.45543e-06
1.45547e-06
1.45549e-06
1.45552e-06
1.45554e-06
1.45556e-06
1.45557e-06
1.45558e-06
1.45559e-06
1.4556e-06
1.4556e-06
1.45559e-06
1.45558e-06
1.45557e-06
1.45556e-06
1.45554e-06
1.45552e-06
1.45549e-06
1.45547e-06
1.45543e-06
1.4554e-06
1.45536e-06
1.45532e-06
1.45527e-06
1.45522e-06
1.45517e-06
1.45512e-06
1.45506e-06
1.45499e-06
1.45492e-06
1.45484e-06
1.45475e-06
1.45462e-06
1.45441e-06
1.45407e-06
1.45342e-06
1.45213e-06
1.44957e-06
1.44455e-06
1.43517e-06
7.82677e-06
7.87847e-06
7.90623e-06
7.92042e-06
7.92753e-06
7.93113e-06
7.93304e-06
7.93414e-06
7.93485e-06
7.93537e-06
7.93579e-06
7.93615e-06
7.93648e-06
7.93678e-06
7.93707e-06
7.93734e-06
7.93759e-06
7.93782e-06
7.93804e-06
7.93824e-06
7.93842e-06
7.93859e-06
7.93874e-06
7.93886e-06
7.93898e-06
7.93907e-06
7.93914e-06
7.9392e-06
7.93924e-06
7.93926e-06
7.93926e-06
7.93924e-06
7.9392e-06
7.93914e-06
7.93907e-06
7.93898e-06
7.93886e-06
7.93874e-06
7.93859e-06
7.93842e-06
7.93824e-06
7.93804e-06
7.93782e-06
7.93759e-06
7.93734e-06
7.93707e-06
7.93678e-06
7.93648e-06
7.93615e-06
7.93579e-06
7.93537e-06
7.93485e-06
7.93414e-06
7.93304e-06
7.93113e-06
7.92753e-06
7.92042e-06
7.90623e-06
7.87847e-06
7.82677e-06
3.87504e-05
3.90042e-05
3.91408e-05
3.92107e-05
3.92456e-05
3.92633e-05
3.92727e-05
3.9278e-05
3.92815e-05
3.92839e-05
3.92859e-05
3.92876e-05
3.92891e-05
3.92906e-05
3.92919e-05
3.92931e-05
3.92943e-05
3.92954e-05
3.92964e-05
3.92973e-05
3.92981e-05
3.92989e-05
3.92996e-05
3.93002e-05
3.93007e-05
3.93011e-05
3.93015e-05
3.93017e-05
3.93019e-05
3.9302e-05
3.9302e-05
3.93019e-05
3.93017e-05
3.93015e-05
3.93011e-05
3.93007e-05
3.93002e-05
3.92996e-05
3.92989e-05
3.92981e-05
3.92973e-05
3.92964e-05
3.92954e-05
3.92943e-05
3.92931e-05
3.92919e-05
3.92906e-05
3.92891e-05
3.92876e-05
3.92859e-05
3.92839e-05
3.92815e-05
3.9278e-05
3.92727e-05
3.92633e-05
3.92456e-05
3.92107e-05
3.91408e-05
3.90042e-05
3.87504e-05
0.000171307
0.000172397
0.000172984
0.000173284
0.000173434
0.00017351
0.00017355
0.000173573
0.000173587
0.000173598
0.000173606
0.000173613
0.000173619
0.000173625
0.00017363
0.000173635
0.00017364
0.000173644
0.000173649
0.000173652
0.000173656
0.000173659
0.000173662
0.000173664
0.000173666
0.000173668
0.000173669
0.00017367
0.000173671
0.000173671
0.000173671
0.000173671
0.00017367
0.000173669
0.000173668
0.000173666
0.000173664
0.000173662
0.000173659
0.000173656
0.000173652
0.000173649
0.000173644
0.00017364
0.000173635
0.00017363
0.000173625
0.000173619
0.000173613
0.000173606
0.000173598
0.000173587
0.000173573
0.00017355
0.00017351
0.000173434
0.000173284
0.000172984
0.000172397
0.000171307
0.00066464
0.000668657
0.000670817
0.00067192
0.000672473
0.000672752
0.000672898
0.000672982
0.000673034
0.000673071
0.0006731
0.000673125
0.000673147
0.000673167
0.000673186
0.000673204
0.00067322
0.000673235
0.000673249
0.000673262
0.000673274
0.000673285
0.000673295
0.000673303
0.00067331
0.000673316
0.000673321
0.000673325
0.000673327
0.000673328
0.000673328
0.000673327
0.000673325
0.000673321
0.000673316
0.00067331
0.000673303
0.000673295
0.000673285
0.000673274
0.000673262
0.000673249
0.000673235
0.00067322
0.000673204
0.000673186
0.000673167
0.000673147
0.000673125
0.0006731
0.000673071
0.000673034
0.000672982
0.000672898
0.000672752
0.000672473
0.00067192
0.000670817
0.000668657
0.00066464
0.00222403
0.00223644
0.0022431
0.0022465
0.0022482
0.00224906
0.00224951
0.00224976
0.00224992
0.00225003
0.00225012
0.00225019
0.00225026
0.00225032
0.00225037
0.00225043
0.00225047
0.00225052
0.00225056
0.0022506
0.00225063
0.00225067
0.00225069
0.00225072
0.00225074
0.00225076
0.00225077
0.00225078
0.00225079
0.00225079
0.00225079
0.00225079
0.00225078
0.00225077
0.00225076
0.00225074
0.00225072
0.00225069
0.00225067
0.00225063
0.0022506
0.00225056
0.00225052
0.00225047
0.00225043
0.00225037
0.00225032
0.00225026
0.00225019
0.00225012
0.00225003
0.00224992
0.00224976
0.00224951
0.00224906
0.0022482
0.0022465
0.0022431
0.00223644
0.00222403
0.00631736
0.00634887
0.00636572
0.00637431
0.00637861
0.00638079
0.00638193
0.00638257
0.00638296
0.00638324
0.00638345
0.00638363
0.00638379
0.00638394
0.00638407
0.00638419
0.00638431
0.00638442
0.00638452
0.00638461
0.00638469
0.00638477
0.00638484
0.0063849
0.00638495
0.00638499
0.00638502
0.00638505
0.00638507
0.00638507
0.00638507
0.00638507
0.00638505
0.00638502
0.00638499
0.00638495
0.0063849
0.00638484
0.00638477
0.00638469
0.00638461
0.00638452
0.00638442
0.00638431
0.00638419
0.00638407
0.00638394
0.00638379
0.00638363
0.00638345
0.00638324
0.00638296
0.00638257
0.00638193
0.00638079
0.00637861
0.00637431
0.00636572
0.00634887
0.00631736
0.0150753
0.0151402
0.0151747
0.0151923
0.0152011
0.0152056
0.0152079
0.0152092
0.01521
0.0152106
0.015211
0.0152114
0.0152117
0.015212
0.0152122
0.0152125
0.0152127
0.0152129
0.0152131
0.0152133
0.0152134
0.0152136
0.0152137
0.0152138
0.0152139
0.015214
0.0152141
0.0152141
0.0152142
0.0152142
0.0152142
0.0152142
0.0152141
0.0152141
0.015214
0.0152139
0.0152138
0.0152137
0.0152136
0.0152134
0.0152133
0.0152131
0.0152129
0.0152127
0.0152125
0.0152122
0.015212
0.0152117
0.0152114
0.015211
0.0152106
0.01521
0.0152092
0.0152079
0.0152056
0.0152011
0.0151923
0.0151747
0.0151402
0.0150753
0.0302405
0.0303493
0.0304068
0.0304362
0.0304509
0.0304583
0.0304622
0.0304644
0.0304657
0.0304666
0.0304673
0.0304679
0.0304684
0.0304688
0.0304693
0.0304696
0.03047
0.0304703
0.0304706
0.0304709
0.0304712
0.0304714
0.0304716
0.0304718
0.030472
0.0304721
0.0304722
0.0304723
0.0304723
0.0304724
0.0304724
0.0304723
0.0304723
0.0304722
0.0304721
0.030472
0.0304718
0.0304716
0.0304714
0.0304712
0.0304709
0.0304706
0.0304703
0.03047
0.0304696
0.0304693
0.0304688
0.0304684
0.0304679
0.0304673
0.0304666
0.0304657
0.0304644
0.0304622
0.0304583
0.0304509
0.0304362
0.0304068
0.0303493
0.0302405
0.0517676
0.0519201
0.0520004
0.0520413
0.0520618
0.0520722
0.0520777
0.0520807
0.0520825
0.0520837
0.0520847
0.0520855
0.0520861
0.0520867
0.0520873
0.0520878
0.0520883
0.0520887
0.0520891
0.0520895
0.0520898
0.0520901
0.0520904
0.0520906
0.0520908
0.052091
0.0520912
0.0520913
0.0520913
0.0520914
0.0520914
0.0520913
0.0520913
0.0520912
0.052091
0.0520908
0.0520906
0.0520904
0.0520901
0.0520898
0.0520895
0.0520891
0.0520887
0.0520883
0.0520878
0.0520873
0.0520867
0.0520861
0.0520855
0.0520847
0.0520837
0.0520825
0.0520807
0.0520777
0.0520722
0.0520618
0.0520413
0.0520004
0.0519201
0.0517676
0.0777243
0.0779117
0.07801
0.0780602
0.0780854
0.0780981
0.0781048
0.0781085
0.0781107
0.0781122
0.0781133
0.0781142
0.078115
0.0781157
0.0781163
0.0781169
0.0781175
0.078118
0.0781184
0.0781189
0.0781193
0.0781196
0.0781199
0.0781202
0.0781204
0.0781206
0.0781208
0.0781209
0.078121
0.078121
0.078121
0.078121
0.0781209
0.0781208
0.0781206
0.0781204
0.0781202
0.0781199
0.0781196
0.0781193
0.0781189
0.0781184
0.078118
0.0781175
0.0781169
0.0781163
0.0781157
0.078115
0.0781142
0.0781133
0.0781122
0.0781107
0.0781085
0.0781048
0.0780981
0.0780854
0.0780602
0.07801
0.0779117
0.0777243
0.105697
0.10591
0.106021
0.106078
0.106106
0.106121
0.106128
0.106133
0.106135
0.106137
0.106138
0.106139
0.10614
0.106141
0.106141
0.106142
0.106142
0.106143
0.106143
0.106144
0.106144
0.106145
0.106145
0.106145
0.106146
0.106146
0.106146
0.106146
0.106146
0.106146
0.106146
0.106146
0.106146
0.106146
0.106146
0.106146
0.106145
0.106145
0.106145
0.106144
0.106144
0.106143
0.106143
0.106142
0.106142
0.106141
0.106141
0.10614
0.106139
0.106138
0.106137
0.106135
0.106133
0.106128
0.106121
0.106106
0.106078
0.106021
0.10591
0.105697
0.134041
0.134273
0.134395
0.134457
0.134488
0.134504
0.134512
0.134517
0.134519
0.134521
0.134523
0.134524
0.134524
0.134525
0.134526
0.134527
0.134527
0.134528
0.134528
0.134529
0.134529
0.13453
0.13453
0.13453
0.13453
0.134531
0.134531
0.134531
0.134531
0.134531
0.134531
0.134531
0.134531
0.134531
0.134531
0.13453
0.13453
0.13453
0.13453
0.134529
0.134529
0.134528
0.134528
0.134527
0.134527
0.134526
0.134525
0.134524
0.134524
0.134523
0.134521
0.134519
0.134517
0.134512
0.134504
0.134488
0.134457
0.134395
0.134273
0.134041
0.162057
0.162306
0.162436
0.162503
0.162536
0.162554
0.162563
0.162568
0.162571
0.162572
0.162574
0.162575
0.162576
0.162577
0.162577
0.162578
0.162579
0.162579
0.16258
0.16258
0.162581
0.162581
0.162581
0.162582
0.162582
0.162582
0.162582
0.162582
0.162582
0.162582
0.162582
0.162582
0.162582
0.162582
0.162582
0.162582
0.162582
0.162581
0.162581
0.162581
0.16258
0.16258
0.162579
0.162579
0.162578
0.162577
0.162577
0.162576
0.162575
0.162574
0.162572
0.162571
0.162568
0.162563
0.162554
0.162536
0.162503
0.162436
0.162306
0.162057
0.189584
0.189848
0.189986
0.190057
0.190094
0.190112
0.190122
0.190127
0.19013
0.190132
0.190134
0.190135
0.190136
0.190137
0.190137
0.190138
0.190139
0.190139
0.19014
0.19014
0.190141
0.190141
0.190141
0.190142
0.190142
0.190142
0.190142
0.190143
0.190143
0.190143
0.190143
0.190143
0.190143
0.190142
0.190142
0.190142
0.190142
0.190141
0.190141
0.190141
0.19014
0.19014
0.190139
0.190139
0.190138
0.190137
0.190137
0.190136
0.190135
0.190134
0.190132
0.19013
0.190127
0.190122
0.190112
0.190094
0.190057
0.189986
0.189848
0.189584
0.216639
0.216917
0.217064
0.21714
0.217178
0.217198
0.217209
0.217215
0.217218
0.21722
0.217222
0.217223
0.217224
0.217225
0.217225
0.217226
0.217227
0.217227
0.217228
0.217228
0.217229
0.217229
0.217229
0.21723
0.21723
0.21723
0.21723
0.21723
0.217231
0.217231
0.217231
0.217231
0.21723
0.21723
0.21723
0.21723
0.21723
0.217229
0.217229
0.217229
0.217228
0.217228
0.217227
0.217227
0.217226
0.217225
0.217225
0.217224
0.217223
0.217222
0.21722
0.217218
0.217215
0.217209
0.217198
0.217178
0.21714
0.217064
0.216917
0.216639
0.243258
0.24355
0.243705
0.243785
0.243827
0.243848
0.24386
0.243866
0.243869
0.243872
0.243873
0.243875
0.243876
0.243876
0.243877
0.243878
0.243878
0.243879
0.24388
0.24388
0.24388
0.243881
0.243881
0.243881
0.243882
0.243882
0.243882
0.243882
0.243882
0.243882
0.243882
0.243882
0.243882
0.243882
0.243882
0.243882
0.243881
0.243881
0.243881
0.24388
0.24388
0.24388
0.243879
0.243878
0.243878
0.243877
0.243876
0.243876
0.243875
0.243873
0.243872
0.243869
0.243866
0.24386
0.243848
0.243827
0.243785
0.243705
0.24355
0.243258
0.269457
0.269762
0.269925
0.27001
0.270054
0.270077
0.270089
0.270096
0.2701
0.270102
0.270104
0.270105
0.270106
0.270107
0.270108
0.270109
0.270109
0.27011
0.27011
0.270111
0.270111
0.270112
0.270112
0.270112
0.270113
0.270113
0.270113
0.270113
0.270113
0.270113
0.270113
0.270113
0.270113
0.270113
0.270113
0.270113
0.270112
0.270112
0.270112
0.270111
0.270111
0.27011
0.27011
0.270109
0.270109
0.270108
0.270107
0.270106
0.270105
0.270104
0.270102
0.2701
0.270096
0.270089
0.270077
0.270054
0.27001
0.269925
0.269762
0.269457
0.295234
0.29555
0.295721
0.295811
0.295858
0.295882
0.295895
0.295902
0.295906
0.295909
0.295911
0.295912
0.295913
0.295914
0.295915
0.295915
0.295916
0.295917
0.295917
0.295918
0.295918
0.295918
0.295919
0.295919
0.295919
0.29592
0.29592
0.29592
0.29592
0.29592
0.29592
0.29592
0.29592
0.29592
0.29592
0.295919
0.295919
0.295919
0.295918
0.295918
0.295918
0.295917
0.295917
0.295916
0.295915
0.295915
0.295914
0.295913
0.295912
0.295911
0.295909
0.295906
0.295902
0.295895
0.295882
0.295858
0.295811
0.295721
0.29555
0.295234
0.320575
0.320902
0.32108
0.321175
0.321224
0.32125
0.321264
0.321272
0.321276
0.321279
0.321281
0.321282
0.321283
0.321284
0.321285
0.321286
0.321286
0.321287
0.321287
0.321288
0.321288
0.321289
0.321289
0.321289
0.321289
0.32129
0.32129
0.32129
0.32129
0.32129
0.32129
0.32129
0.32129
0.32129
0.32129
0.321289
0.321289
0.321289
0.321289
0.321288
0.321288
0.321287
0.321287
0.321286
0.321286
0.321285
0.321284
0.321283
0.321282
0.321281
0.321279
0.321276
0.321272
0.321264
0.32125
0.321224
0.321175
0.32108
0.320902
0.320575
0.345465
0.345801
0.345986
0.346085
0.346137
0.346165
0.34618
0.346188
0.346193
0.346196
0.346198
0.346199
0.3462
0.346201
0.346202
0.346202
0.346203
0.346204
0.346204
0.346205
0.346205
0.346205
0.346206
0.346206
0.346206
0.346206
0.346207
0.346207
0.346207
0.346207
0.346207
0.346207
0.346207
0.346207
0.346206
0.346206
0.346206
0.346206
0.346205
0.346205
0.346205
0.346204
0.346204
0.346203
0.346202
0.346202
0.346201
0.3462
0.346199
0.346198
0.346196
0.346193
0.346188
0.34618
0.346165
0.346137
0.346085
0.345986
0.345801
0.345465
0.369885
0.370229
0.370421
0.370525
0.37058
0.370609
0.370625
0.370633
0.370638
0.370641
0.370643
0.370645
0.370646
0.370647
0.370648
0.370648
0.370649
0.37065
0.37065
0.370651
0.370651
0.370651
0.370652
0.370652
0.370652
0.370652
0.370653
0.370653
0.370653
0.370653
0.370653
0.370653
0.370653
0.370653
0.370652
0.370652
0.370652
0.370652
0.370651
0.370651
0.370651
0.37065
0.37065
0.370649
0.370648
0.370648
0.370647
0.370646
0.370645
0.370643
0.370641
0.370638
0.370633
0.370625
0.370609
0.37058
0.370525
0.370421
0.370229
0.369885
0.393818
0.39417
0.394368
0.394476
0.394534
0.394565
0.394581
0.394591
0.394596
0.394599
0.394601
0.394603
0.394604
0.394605
0.394606
0.394606
0.394607
0.394608
0.394608
0.394608
0.394609
0.394609
0.39461
0.39461
0.39461
0.39461
0.39461
0.394611
0.394611
0.394611
0.394611
0.394611
0.394611
0.39461
0.39461
0.39461
0.39461
0.39461
0.394609
0.394609
0.394608
0.394608
0.394608
0.394607
0.394606
0.394606
0.394605
0.394604
0.394603
0.394601
0.394599
0.394596
0.394591
0.394581
0.394565
0.394534
0.394476
0.394368
0.39417
0.393818
0.41725
0.417607
0.417811
0.417923
0.417984
0.418016
0.418034
0.418044
0.41805
0.418053
0.418055
0.418057
0.418058
0.418059
0.41806
0.41806
0.418061
0.418062
0.418062
0.418063
0.418063
0.418063
0.418064
0.418064
0.418064
0.418064
0.418064
0.418065
0.418065
0.418065
0.418065
0.418065
0.418065
0.418064
0.418064
0.418064
0.418064
0.418064
0.418063
0.418063
0.418063
0.418062
0.418062
0.418061
0.41806
0.41806
0.418059
0.418058
0.418057
0.418055
0.418053
0.41805
0.418044
0.418034
0.418016
0.417984
0.417923
0.417811
0.417607
0.41725
0.440164
0.440527
0.440736
0.440852
0.440915
0.44095
0.440969
0.440979
0.440985
0.440989
0.440991
0.440993
0.440994
0.440995
0.440996
0.440996
0.440997
0.440997
0.440998
0.440998
0.440999
0.440999
0.440999
0.441
0.441
0.441
0.441
0.441
0.441
0.441
0.441
0.441
0.441
0.441
0.441
0.441
0.441
0.440999
0.440999
0.440999
0.440998
0.440998
0.440997
0.440997
0.440996
0.440996
0.440995
0.440994
0.440993
0.440991
0.440989
0.440985
0.440979
0.440969
0.44095
0.440915
0.440852
0.440736
0.440527
0.440164
0.462549
0.462916
0.46313
0.46325
0.463316
0.463352
0.463372
0.463383
0.46339
0.463393
0.463396
0.463398
0.463399
0.4634
0.463401
0.463401
0.463402
0.463402
0.463403
0.463403
0.463404
0.463404
0.463404
0.463405
0.463405
0.463405
0.463405
0.463405
0.463405
0.463405
0.463405
0.463405
0.463405
0.463405
0.463405
0.463405
0.463405
0.463404
0.463404
0.463404
0.463403
0.463403
0.463402
0.463402
0.463401
0.463401
0.4634
0.463399
0.463398
0.463396
0.463393
0.46339
0.463383
0.463372
0.463352
0.463316
0.46325
0.46313
0.462916
0.462549
0.484394
0.484764
0.484983
0.485106
0.485175
0.485213
0.485234
0.485246
0.485252
0.485257
0.485259
0.485261
0.485262
0.485263
0.485264
0.485265
0.485265
0.485266
0.485266
0.485267
0.485267
0.485267
0.485268
0.485268
0.485268
0.485268
0.485268
0.485269
0.485269
0.485269
0.485269
0.485269
0.485269
0.485268
0.485268
0.485268
0.485268
0.485268
0.485267
0.485267
0.485267
0.485266
0.485266
0.485265
0.485265
0.485264
0.485263
0.485262
0.485261
0.485259
0.485257
0.485252
0.485246
0.485234
0.485213
0.485175
0.485106
0.484983
0.484764
0.484394
0.50569
0.506062
0.506284
0.506412
0.506483
0.506523
0.506545
0.506557
0.506564
0.506569
0.506572
0.506573
0.506575
0.506576
0.506577
0.506577
0.506578
0.506578
0.506579
0.506579
0.506579
0.50658
0.50658
0.50658
0.506581
0.506581
0.506581
0.506581
0.506581
0.506581
0.506581
0.506581
0.506581
0.506581
0.506581
0.506581
0.50658
0.50658
0.50658
0.506579
0.506579
0.506579
0.506578
0.506578
0.506577
0.506577
0.506576
0.506575
0.506573
0.506572
0.506569
0.506564
0.506557
0.506545
0.506523
0.506483
0.506412
0.506284
0.506062
0.50569
0.526429
0.526803
0.527028
0.527159
0.527233
0.527274
0.527298
0.527311
0.527318
0.527323
0.527326
0.527328
0.527329
0.52733
0.527331
0.527332
0.527332
0.527333
0.527333
0.527334
0.527334
0.527334
0.527335
0.527335
0.527335
0.527335
0.527335
0.527335
0.527335
0.527336
0.527336
0.527335
0.527335
0.527335
0.527335
0.527335
0.527335
0.527335
0.527334
0.527334
0.527334
0.527333
0.527333
0.527332
0.527332
0.527331
0.52733
0.527329
0.527328
0.527326
0.527323
0.527318
0.527311
0.527298
0.527274
0.527233
0.527159
0.527028
0.526803
0.526429
0.546606
0.54698
0.547209
0.547343
0.547419
0.547462
0.547487
0.547501
0.547509
0.547514
0.547517
0.547519
0.54752
0.547521
0.547522
0.547523
0.547523
0.547524
0.547524
0.547524
0.547525
0.547525
0.547525
0.547526
0.547526
0.547526
0.547526
0.547526
0.547526
0.547526
0.547526
0.547526
0.547526
0.547526
0.547526
0.547526
0.547526
0.547525
0.547525
0.547525
0.547524
0.547524
0.547524
0.547523
0.547523
0.547522
0.547521
0.54752
0.547519
0.547517
0.547514
0.547509
0.547501
0.547487
0.547462
0.547419
0.547343
0.547209
0.54698
0.546606
0.566217
0.566591
0.566822
0.566959
0.567038
0.567083
0.567108
0.567123
0.567132
0.567137
0.56714
0.567142
0.567144
0.567145
0.567145
0.567146
0.567147
0.567147
0.567147
0.567148
0.567148
0.567148
0.567149
0.567149
0.567149
0.567149
0.567149
0.567149
0.56715
0.56715
0.56715
0.56715
0.567149
0.567149
0.567149
0.567149
0.567149
0.567149
0.567148
0.567148
0.567148
0.567147
0.567147
0.567147
0.567146
0.567145
0.567145
0.567144
0.567142
0.56714
0.567137
0.567132
0.567123
0.567108
0.567083
0.567038
0.566959
0.566822
0.566591
0.566217
0.58526
0.585632
0.585866
0.586005
0.586086
0.586133
0.58616
0.586175
0.586184
0.58619
0.586193
0.586196
0.586197
0.586198
0.586199
0.5862
0.5862
0.586201
0.586201
0.586201
0.586202
0.586202
0.586202
0.586202
0.586203
0.586203
0.586203
0.586203
0.586203
0.586203
0.586203
0.586203
0.586203
0.586203
0.586203
0.586203
0.586202
0.586202
0.586202
0.586202
0.586201
0.586201
0.586201
0.5862
0.5862
0.586199
0.586198
0.586197
0.586196
0.586193
0.58619
0.586184
0.586175
0.58616
0.586133
0.586086
0.586005
0.585866
0.585632
0.58526
0.603733
0.604104
0.604339
0.60448
0.604564
0.604612