/*--------------------------------*- C++ -*----------------------------------*\
| =========                 |                                                 |
| \\      /  F ield         | foam-extend: Open Source CFD                    |
|  \\    /   O peration     | Version:     4.0                                |
|   \\  /    A nd           | Web:         http://www.foam-extend.org         |
|    \\/     M anipulation  |                                                 |
\*---------------------------------------------------------------------------*/
FoamFile
{
    version     2.0;
    format      ascii;
    class       volScalarField;
    location    "500";
    object      cPlus;
}
// * * * * * * * * * * * * * * * * * * * * * * * * * * * * * * * * * * * * * //

dimensions      [0 0 0 0 0 0 0];

internalField   nonuniform List<scalar> 
6960
(
0.193461
0.193379
0.193328
0.193303
0.19329
0.193284
0.193282
0.19328
0.19328
0.193279
0.193279
0.193279
0.193279
0.193279
0.193279
0.193279
0.193279
0.193279
0.193279
0.193279
0.193279
0.193279
0.193279
0.193279
0.193279
0.193279
0.193279
0.193279
0.193279
0.193279
0.193279
0.193279
0.193279
0.193279
0.193279
0.193279
0.193279
0.193279
0.193279
0.193279
0.193279
0.193279
0.193279
0.193279
0.193279
0.193279
0.193279
0.193279
0.193279
0.193279
0.193279
0.19328
0.19328
0.193282
0.193284
0.19329
0.193303
0.193328
0.193379
0.193461
0.0474027
0.0473851
0.0473733
0.0473671
0.0473641
0.0473627
0.047362
0.0473617
0.0473616
0.0473615
0.0473615
0.0473615
0.0473615
0.0473615
0.0473616
0.0473616
0.0473616
0.0473616
0.0473617
0.0473617
0.0473617
0.0473617
0.0473617
0.0473617
0.0473618
0.0473618
0.0473618
0.0473618
0.0473618
0.0473618
0.0473618
0.0473618
0.0473618
0.0473618
0.0473618
0.0473618
0.0473617
0.0473617
0.0473617
0.0473617
0.0473617
0.0473617
0.0473616
0.0473616
0.0473616
0.0473616
0.0473615
0.0473615
0.0473615
0.0473615
0.0473615
0.0473616
0.0473617
0.047362
0.0473627
0.0473641
0.0473671
0.0473733
0.0473851
0.0474027
0.0261066
0.0261123
0.0261144
0.0261153
0.0261157
0.0261159
0.026116
0.0261161
0.0261161
0.0261161
0.0261162
0.0261162
0.0261163
0.0261163
0.0261163
0.0261163
0.0261164
0.0261164
0.0261164
0.0261164
0.0261165
0.0261165
0.0261165
0.0261165
0.0261165
0.0261165
0.0261165
0.0261166
0.0261166
0.0261166
0.0261166
0.0261166
0.0261166
0.0261165
0.0261165
0.0261165
0.0261165
0.0261165
0.0261165
0.0261165
0.0261164
0.0261164
0.0261164
0.0261164
0.0261163
0.0261163
0.0261163
0.0261163
0.0261162
0.0261162
0.0261161
0.0261161
0.0261161
0.026116
0.0261159
0.0261157
0.0261153
0.0261144
0.0261123
0.0261066
0.0231774
0.0231892
0.023195
0.0231977
0.0231991
0.0231997
0.0232
0.0232002
0.0232003
0.0232003
0.0232004
0.0232004
0.0232005
0.0232005
0.0232005
0.0232006
0.0232006
0.0232006
0.0232006
0.0232007
0.0232007
0.0232007
0.0232007
0.0232007
0.0232007
0.0232008
0.0232008
0.0232008
0.0232008
0.0232008
0.0232008
0.0232008
0.0232008
0.0232008
0.0232008
0.0232007
0.0232007
0.0232007
0.0232007
0.0232007
0.0232007
0.0232006
0.0232006
0.0232006
0.0232006
0.0232005
0.0232005
0.0232005
0.0232004
0.0232004
0.0232003
0.0232003
0.0232002
0.0232
0.0231997
0.0231991
0.0231977
0.023195
0.0231892
0.0231774
0.0230937
0.0231072
0.0231138
0.023117
0.0231186
0.0231193
0.0231197
0.0231199
0.02312
0.0231201
0.0231201
0.0231202
0.0231202
0.0231203
0.0231203
0.0231203
0.0231203
0.0231204
0.0231204
0.0231204
0.0231204
0.0231205
0.0231205
0.0231205
0.0231205
0.0231205
0.0231205
0.0231205
0.0231205
0.0231205
0.0231205
0.0231205
0.0231205
0.0231205
0.0231205
0.0231205
0.0231205
0.0231205
0.0231205
0.0231204
0.0231204
0.0231204
0.0231204
0.0231203
0.0231203
0.0231203
0.0231203
0.0231202
0.0231202
0.0231201
0.0231201
0.02312
0.0231199
0.0231197
0.0231193
0.0231186
0.023117
0.0231138
0.0231072
0.0230937
0.0234696
0.0234837
0.0234907
0.0234941
0.0234958
0.0234966
0.0234969
0.0234971
0.0234973
0.0234973
0.0234974
0.0234974
0.0234975
0.0234975
0.0234976
0.0234976
0.0234976
0.0234977
0.0234977
0.0234977
0.0234977
0.0234977
0.0234978
0.0234978
0.0234978
0.0234978
0.0234978
0.0234978
0.0234978
0.0234978
0.0234978
0.0234978
0.0234978
0.0234978
0.0234978
0.0234978
0.0234978
0.0234978
0.0234977
0.0234977
0.0234977
0.0234977
0.0234977
0.0234976
0.0234976
0.0234976
0.0234975
0.0234975
0.0234974
0.0234974
0.0234973
0.0234973
0.0234971
0.0234969
0.0234966
0.0234958
0.0234941
0.0234907
0.0234837
0.0234696
0.0239507
0.0239653
0.0239726
0.0239762
0.0239779
0.0239787
0.0239791
0.0239793
0.0239794
0.0239795
0.0239796
0.0239796
0.0239797
0.0239797
0.0239797
0.0239798
0.0239798
0.0239798
0.0239799
0.0239799
0.0239799
0.0239799
0.02398
0.02398
0.02398
0.02398
0.02398
0.02398
0.02398
0.02398
0.02398
0.02398
0.02398
0.02398
0.02398
0.02398
0.02398
0.02398
0.0239799
0.0239799
0.0239799
0.0239799
0.0239798
0.0239798
0.0239798
0.0239797
0.0239797
0.0239797
0.0239796
0.0239796
0.0239795
0.0239794
0.0239793
0.0239791
0.0239787
0.0239779
0.0239762
0.0239726
0.0239653
0.0239507
0.0244912
0.0245064
0.024514
0.0245177
0.0245195
0.0245203
0.0245207
0.0245209
0.0245211
0.0245212
0.0245212
0.0245213
0.0245213
0.0245214
0.0245214
0.0245214
0.0245215
0.0245215
0.0245215
0.0245216
0.0245216
0.0245216
0.0245216
0.0245216
0.0245217
0.0245217
0.0245217
0.0245217
0.0245217
0.0245217
0.0245217
0.0245217
0.0245217
0.0245217
0.0245217
0.0245217
0.0245216
0.0245216
0.0245216
0.0245216
0.0245216
0.0245215
0.0245215
0.0245215
0.0245214
0.0245214
0.0245214
0.0245213
0.0245213
0.0245212
0.0245212
0.0245211
0.0245209
0.0245207
0.0245203
0.0245195
0.0245177
0.024514
0.0245064
0.0244912
0.0250918
0.0251077
0.0251156
0.0251194
0.0251213
0.0251222
0.0251226
0.0251228
0.025123
0.0251231
0.0251231
0.0251232
0.0251232
0.0251233
0.0251233
0.0251234
0.0251234
0.0251234
0.0251235
0.0251235
0.0251235
0.0251235
0.0251236
0.0251236
0.0251236
0.0251236
0.0251236
0.0251236
0.0251236
0.0251236
0.0251236
0.0251236
0.0251236
0.0251236
0.0251236
0.0251236
0.0251236
0.0251236
0.0251235
0.0251235
0.0251235
0.0251235
0.0251234
0.0251234
0.0251234
0.0251233
0.0251233
0.0251232
0.0251232
0.0251231
0.0251231
0.025123
0.0251228
0.0251226
0.0251222
0.0251213
0.0251194
0.0251156
0.0251077
0.0250918
0.0257614
0.0257781
0.0257864
0.0257904
0.0257924
0.0257933
0.0257937
0.025794
0.0257941
0.0257942
0.0257943
0.0257943
0.0257944
0.0257944
0.0257945
0.0257945
0.0257946
0.0257946
0.0257946
0.0257947
0.0257947
0.0257947
0.0257947
0.0257948
0.0257948
0.0257948
0.0257948
0.0257948
0.0257948
0.0257948
0.0257948
0.0257948
0.0257948
0.0257948
0.0257948
0.0257948
0.0257948
0.0257947
0.0257947
0.0257947
0.0257947
0.0257946
0.0257946
0.0257946
0.0257945
0.0257945
0.0257944
0.0257944
0.0257943
0.0257943
0.0257942
0.0257941
0.025794
0.0257937
0.0257933
0.0257924
0.0257904
0.0257864
0.0257781
0.0257614
0.0265125
0.0265301
0.0265387
0.026543
0.026545
0.026546
0.0265465
0.0265468
0.0265469
0.026547
0.0265471
0.0265471
0.0265472
0.0265472
0.0265473
0.0265473
0.0265474
0.0265474
0.0265475
0.0265475
0.0265475
0.0265475
0.0265476
0.0265476
0.0265476
0.0265476
0.0265476
0.0265476
0.0265476
0.0265476
0.0265476
0.0265476
0.0265476
0.0265476
0.0265476
0.0265476
0.0265476
0.0265476
0.0265475
0.0265475
0.0265475
0.0265475
0.0265474
0.0265474
0.0265473
0.0265473
0.0265472
0.0265472
0.0265471
0.0265471
0.026547
0.0265469
0.0265468
0.0265465
0.026546
0.026545
0.026543
0.0265387
0.0265301
0.0265125
0.0273608
0.0273794
0.0273885
0.027393
0.0273952
0.0273962
0.0273968
0.027397
0.0273972
0.0273973
0.0273974
0.0273974
0.0273975
0.0273975
0.0273976
0.0273976
0.0273977
0.0273977
0.0273978
0.0273978
0.0273978
0.0273979
0.0273979
0.0273979
0.0273979
0.0273979
0.0273979
0.027398
0.027398
0.027398
0.027398
0.027398
0.027398
0.0273979
0.0273979
0.0273979
0.0273979
0.0273979
0.0273979
0.0273978
0.0273978
0.0273978
0.0273977
0.0273977
0.0273976
0.0273976
0.0273975
0.0273975
0.0273974
0.0273974
0.0273973
0.0273972
0.027397
0.0273968
0.0273962
0.0273952
0.027393
0.0273885
0.0273794
0.0273608
0.0283267
0.0283464
0.0283562
0.0283609
0.0283633
0.0283644
0.0283649
0.0283652
0.0283654
0.0283655
0.0283656
0.0283656
0.0283657
0.0283658
0.0283658
0.0283659
0.0283659
0.028366
0.028366
0.028366
0.0283661
0.0283661
0.0283661
0.0283661
0.0283662
0.0283662
0.0283662
0.0283662
0.0283662
0.0283662
0.0283662
0.0283662
0.0283662
0.0283662
0.0283662
0.0283662
0.0283661
0.0283661
0.0283661
0.0283661
0.028366
0.028366
0.028366
0.0283659
0.0283659
0.0283658
0.0283658
0.0283657
0.0283656
0.0283656
0.0283655
0.0283654
0.0283652
0.0283649
0.0283644
0.0283633
0.0283609
0.0283562
0.0283464
0.0283267
0.0294368
0.0294579
0.0294684
0.0294735
0.029476
0.0294772
0.0294778
0.0294781
0.0294783
0.0294784
0.0294785
0.0294786
0.0294786
0.0294787
0.0294788
0.0294788
0.0294789
0.0294789
0.029479
0.029479
0.029479
0.0294791
0.0294791
0.0294791
0.0294791
0.0294792
0.0294792
0.0294792
0.0294792
0.0294792
0.0294792
0.0294792
0.0294792
0.0294792
0.0294792
0.0294791
0.0294791
0.0294791
0.0294791
0.029479
0.029479
0.029479
0.0294789
0.0294789
0.0294788
0.0294788
0.0294787
0.0294786
0.0294786
0.0294785
0.0294784
0.0294783
0.0294781
0.0294778
0.0294772
0.029476
0.0294735
0.0294684
0.0294579
0.0294368
0.0307269
0.0307498
0.0307611
0.0307667
0.0307694
0.0307707
0.0307713
0.0307716
0.0307718
0.030772
0.0307721
0.0307722
0.0307722
0.0307723
0.0307724
0.0307724
0.0307725
0.0307725
0.0307726
0.0307726
0.0307727
0.0307727
0.0307727
0.0307728
0.0307728
0.0307728
0.0307728
0.0307728
0.0307728
0.0307728
0.0307728
0.0307728
0.0307728
0.0307728
0.0307728
0.0307728
0.0307728
0.0307727
0.0307727
0.0307727
0.0307726
0.0307726
0.0307725
0.0307725
0.0307724
0.0307724
0.0307723
0.0307722
0.0307722
0.0307721
0.030772
0.0307718
0.0307716
0.0307713
0.0307707
0.0307694
0.0307667
0.0307611
0.0307498
0.0307269
0.0322461
0.0322712
0.0322836
0.0322897
0.0322926
0.032294
0.0322947
0.0322951
0.0322953
0.0322955
0.0322956
0.0322957
0.0322958
0.0322958
0.0322959
0.032296
0.032296
0.0322961
0.0322961
0.0322962
0.0322962
0.0322963
0.0322963
0.0322964
0.0322964
0.0322964
0.0322964
0.0322964
0.0322964
0.0322964
0.0322964
0.0322964
0.0322964
0.0322964
0.0322964
0.0322964
0.0322964
0.0322963
0.0322963
0.0322962
0.0322962
0.0322961
0.0322961
0.032296
0.032296
0.0322959
0.0322958
0.0322958
0.0322957
0.0322956
0.0322955
0.0322953
0.0322951
0.0322947
0.032294
0.0322926
0.0322897
0.0322836
0.0322712
0.0322461
0.0340637
0.0340915
0.0341053
0.0341121
0.0341153
0.0341169
0.0341177
0.0341181
0.0341184
0.0341185
0.0341186
0.0341188
0.0341188
0.0341189
0.034119
0.0341191
0.0341192
0.0341192
0.0341193
0.0341193
0.0341194
0.0341194
0.0341195
0.0341195
0.0341195
0.0341196
0.0341196
0.0341196
0.0341196
0.0341196
0.0341196
0.0341196
0.0341196
0.0341196
0.0341196
0.0341195
0.0341195
0.0341195
0.0341194
0.0341194
0.0341193
0.0341193
0.0341192
0.0341192
0.0341191
0.034119
0.0341189
0.0341188
0.0341188
0.0341186
0.0341185
0.0341184
0.0341181
0.0341177
0.0341169
0.0341153
0.0341121
0.0341053
0.0340915
0.0340637
0.0362806
0.0363119
0.0363275
0.0363351
0.0363389
0.0363406
0.0363415
0.036342
0.0363423
0.0363425
0.0363426
0.0363427
0.0363429
0.036343
0.036343
0.0363431
0.0363432
0.0363433
0.0363434
0.0363434
0.0363435
0.0363435
0.0363436
0.0363436
0.0363437
0.0363437
0.0363437
0.0363437
0.0363437
0.0363438
0.0363438
0.0363437
0.0363437
0.0363437
0.0363437
0.0363437
0.0363436
0.0363436
0.0363435
0.0363435
0.0363434
0.0363434
0.0363433
0.0363432
0.0363431
0.036343
0.036343
0.0363429
0.0363427
0.0363426
0.0363425
0.0363423
0.036342
0.0363415
0.0363406
0.0363389
0.0363351
0.0363275
0.0363119
0.0362806
0.0390481
0.0390843
0.0391023
0.0391112
0.0391155
0.0391176
0.0391186
0.0391191
0.0391195
0.0391197
0.0391199
0.03912
0.0391201
0.0391203
0.0391204
0.0391205
0.0391206
0.0391207
0.0391207
0.0391208
0.0391209
0.0391209
0.039121
0.0391211
0.0391211
0.0391211
0.0391212
0.0391212
0.0391212
0.0391212
0.0391212
0.0391212
0.0391212
0.0391212
0.0391211
0.0391211
0.0391211
0.039121
0.0391209
0.0391209
0.0391208
0.0391207
0.0391207
0.0391206
0.0391205
0.0391204
0.0391203
0.0391201
0.03912
0.0391199
0.0391197
0.0391195
0.0391191
0.0391186
0.0391176
0.0391155
0.0391112
0.0391023
0.0390843
0.0390481
0.0425993
0.0426422
0.0426636
0.0426742
0.0426793
0.0426818
0.042683
0.0426837
0.0426841
0.0426843
0.0426845
0.0426847
0.0426849
0.042685
0.0426851
0.0426853
0.0426854
0.0426855
0.0426856
0.0426857
0.0426858
0.0426858
0.0426859
0.042686
0.042686
0.0426861
0.0426861
0.0426861
0.0426862
0.0426862
0.0426862
0.0426862
0.0426861
0.0426861
0.0426861
0.042686
0.042686
0.0426859
0.0426858
0.0426858
0.0426857
0.0426856
0.0426855
0.0426854
0.0426853
0.0426851
0.042685
0.0426849
0.0426847
0.0426845
0.0426843
0.0426841
0.0426837
0.042683
0.0426818
0.0426793
0.0426742
0.0426636
0.0426422
0.0425993
0.0472909
0.0473435
0.0473698
0.0473828
0.0473891
0.0473922
0.0473937
0.0473946
0.047395
0.0473954
0.0473956
0.0473959
0.0473961
0.0473962
0.0473964
0.0473966
0.0473967
0.0473968
0.047397
0.0473971
0.0473972
0.0473973
0.0473974
0.0473975
0.0473975
0.0473976
0.0473976
0.0473977
0.0473977
0.0473977
0.0473977
0.0473977
0.0473977
0.0473976
0.0473976
0.0473975
0.0473975
0.0473974
0.0473973
0.0473972
0.0473971
0.047397
0.0473968
0.0473967
0.0473966
0.0473964
0.0473962
0.0473961
0.0473959
0.0473956
0.0473954
0.047395
0.0473946
0.0473937
0.0473922
0.0473891
0.0473828
0.0473698
0.0473435
0.0472909
0.0536447
0.0537111
0.0537445
0.0537611
0.0537691
0.053773
0.053775
0.053776
0.0537766
0.0537771
0.0537774
0.0537777
0.0537779
0.0537782
0.0537784
0.0537786
0.0537788
0.0537789
0.0537791
0.0537793
0.0537794
0.0537795
0.0537796
0.0537797
0.0537798
0.0537799
0.05378
0.05378
0.05378
0.05378
0.05378
0.05378
0.05378
0.05378
0.0537799
0.0537798
0.0537797
0.0537796
0.0537795
0.0537794
0.0537793
0.0537791
0.0537789
0.0537788
0.0537786
0.0537784
0.0537782
0.0537779
0.0537777
0.0537774
0.0537771
0.0537766
0.053776
0.053775
0.053773
0.0537691
0.0537611
0.0537445
0.0537111
0.0536447
0.0623386
0.0624242
0.0624674
0.0624889
0.0624994
0.0625044
0.062507
0.0625083
0.0625092
0.0625097
0.0625101
0.0625105
0.0625108
0.0625112
0.0625114
0.0625117
0.062512
0.0625122
0.0625124
0.0625126
0.0625128
0.0625129
0.0625131
0.0625132
0.0625133
0.0625134
0.0625135
0.0625136
0.0625136
0.0625136
0.0625136
0.0625136
0.0625136
0.0625135
0.0625134
0.0625133
0.0625132
0.0625131
0.0625129
0.0625128
0.0625126
0.0625124
0.0625122
0.062512
0.0625117
0.0625114
0.0625112
0.0625108
0.0625105
0.0625101
0.0625097
0.0625092
0.0625083
0.062507
0.0625044
0.0624994
0.0624889
0.0624674
0.0624242
0.0623386
0.0740815
0.0741921
0.0742481
0.074276
0.0742896
0.0742962
0.0742995
0.0743013
0.0743023
0.0743031
0.0743036
0.0743041
0.0743045
0.0743049
0.0743053
0.0743056
0.0743059
0.0743062
0.0743065
0.0743068
0.074307
0.0743072
0.0743074
0.0743076
0.0743077
0.0743078
0.0743079
0.074308
0.0743081
0.0743081
0.0743081
0.0743081
0.074308
0.0743079
0.0743078
0.0743077
0.0743076
0.0743074
0.0743072
0.074307
0.0743068
0.0743065
0.0743062
0.0743059
0.0743056
0.0743053
0.0743049
0.0743045
0.0743041
0.0743036
0.0743031
0.0743023
0.0743013
0.0742995
0.0742962
0.0742896
0.074276
0.0742481
0.0741921
0.0740815
0.0893575
0.0894972
0.0895682
0.0896037
0.0896209
0.0896294
0.0896336
0.0896358
0.0896372
0.0896381
0.0896388
0.0896394
0.0896399
0.0896404
0.0896409
0.0896413
0.0896417
0.0896421
0.0896424
0.0896427
0.089643
0.0896433
0.0896435
0.0896437
0.0896439
0.089644
0.0896442
0.0896442
0.0896443
0.0896443
0.0896443
0.0896443
0.0896442
0.0896442
0.089644
0.0896439
0.0896437
0.0896435
0.0896433
0.089643
0.0896427
0.0896424
0.0896421
0.0896417
0.0896413
0.0896409
0.0896404
0.0896399
0.0896394
0.0896388
0.0896381
0.0896372
0.0896358
0.0896336
0.0896294
0.0896209
0.0896037
0.0895682
0.0894972
0.0893575
0.108168
0.108338
0.108425
0.108468
0.10849
0.1085
0.108505
0.108508
0.108509
0.108511
0.108511
0.108512
0.108513
0.108513
0.108514
0.108514
0.108515
0.108515
0.108516
0.108516
0.108516
0.108517
0.108517
0.108517
0.108517
0.108518
0.108518
0.108518
0.108518
0.108518
0.108518
0.108518
0.108518
0.108518
0.108518
0.108517
0.108517
0.108517
0.108517
0.108516
0.108516
0.108516
0.108515
0.108515
0.108514
0.108514
0.108513
0.108513
0.108512
0.108511
0.108511
0.108509
0.108508
0.108505
0.1085
0.10849
0.108468
0.108425
0.108338
0.108168
0.129984
0.130183
0.130285
0.130336
0.130361
0.130373
0.130379
0.130383
0.130384
0.130386
0.130387
0.130388
0.130388
0.130389
0.130389
0.13039
0.130391
0.130391
0.130392
0.130392
0.130392
0.130393
0.130393
0.130393
0.130393
0.130394
0.130394
0.130394
0.130394
0.130394
0.130394
0.130394
0.130394
0.130394
0.130394
0.130393
0.130393
0.130393
0.130393
0.130392
0.130392
0.130392
0.130391
0.130391
0.13039
0.130389
0.130389
0.130388
0.130388
0.130387
0.130386
0.130384
0.130383
0.130379
0.130373
0.130361
0.130336
0.130285
0.130183
0.129984
0.153964
0.154189
0.154304
0.154362
0.15439
0.154404
0.154411
0.154415
0.154417
0.154419
0.15442
0.15442
0.154421
0.154422
0.154423
0.154423
0.154424
0.154424
0.154425
0.154425
0.154426
0.154426
0.154426
0.154427
0.154427
0.154427
0.154427
0.154427
0.154427
0.154428
0.154428
0.154427
0.154427
0.154427
0.154427
0.154427
0.154427
0.154426
0.154426
0.154426
0.154425
0.154425
0.154424
0.154424
0.154423
0.154423
0.154422
0.154421
0.15442
0.15442
0.154419
0.154417
0.154415
0.154411
0.154404
0.15439
0.154362
0.154304
0.154189
0.153964
0.179261
0.179508
0.179635
0.179699
0.17973
0.179746
0.179754
0.179758
0.17976
0.179762
0.179763
0.179764
0.179765
0.179765
0.179766
0.179767
0.179767
0.179768
0.179768
0.179769
0.179769
0.17977
0.17977
0.17977
0.179771
0.179771
0.179771
0.179771
0.179771
0.179771
0.179771
0.179771
0.179771
0.179771
0.179771
0.179771
0.17977
0.17977
0.17977
0.179769
0.179769
0.179768
0.179768
0.179767
0.179767
0.179766
0.179765
0.179765
0.179764
0.179763
0.179762
0.17976
0.179758
0.179754
0.179746
0.17973
0.179699
0.179635
0.179508
0.179261
0.205218
0.205483
0.205621
0.205691
0.205725
0.205742
0.205751
0.205755
0.205758
0.205759
0.205761
0.205762
0.205763
0.205763
0.205764
0.205765
0.205765
0.205766
0.205766
0.205767
0.205767
0.205768
0.205768
0.205768
0.205769
0.205769
0.205769
0.205769
0.205769
0.205769
0.205769
0.205769
0.205769
0.205769
0.205769
0.205769
0.205768
0.205768
0.205768
0.205767
0.205767
0.205766
0.205766
0.205765
0.205765
0.205764
0.205763
0.205763
0.205762
0.205761
0.205759
0.205758
0.205755
0.205751
0.205742
0.205725
0.205691
0.205621
0.205483
0.205218
0.231402
0.231684
0.231831
0.231905
0.231943
0.231961
0.231971
0.231976
0.231978
0.23198
0.231981
0.231982
0.231983
0.231984
0.231985
0.231985
0.231986
0.231987
0.231987
0.231988
0.231988
0.231988
0.231989
0.231989
0.231989
0.231989
0.23199
0.23199
0.23199
0.23199
0.23199
0.23199
0.23199
0.23199
0.231989
0.231989
0.231989
0.231989
0.231988
0.231988
0.231988
0.231987
0.231987
0.231986
0.231985
0.231985
0.231984
0.231983
0.231982
0.231981
0.23198
0.231978
0.231976
0.231971
0.231961
0.231943
0.231905
0.231831
0.231684
0.231402
0.25755
0.257847
0.258003
0.258083
0.258123
0.258143
0.258153
0.258158
0.258161
0.258163
0.258164
0.258165
0.258166
0.258167
0.258168
0.258168
0.258169
0.25817
0.25817
0.258171
0.258171
0.258171
0.258172
0.258172
0.258172
0.258173
0.258173
0.258173
0.258173
0.258173
0.258173
0.258173
0.258173
0.258173
0.258173
0.258172
0.258172
0.258172
0.258171
0.258171
0.258171
0.25817
0.25817
0.258169
0.258168
0.258168
0.258167
0.258166
0.258165
0.258164
0.258163
0.258161
0.258158
0.258153
0.258143
0.258123
0.258083
0.258003
0.257847
0.25755
0.283508
0.283818
0.283982
0.284067
0.28411
0.284131
0.284142
0.284148
0.284151
0.284153
0.284154
0.284155
0.284156
0.284157
0.284158
0.284158
0.284159
0.284159
0.28416
0.28416
0.284161
0.284161
0.284162
0.284162
0.284162
0.284162
0.284162
0.284163
0.284163
0.284163
0.284163
0.284163
0.284163
0.284162
0.284162
0.284162
0.284162
0.284162
0.284161
0.284161
0.28416
0.28416
0.284159
0.284159
0.284158
0.284158
0.284157
0.284156
0.284155
0.284154
0.284153
0.284151
0.284148
0.284142
0.284131
0.28411
0.284067
0.283982
0.283818
0.283508
0.309177
0.309499
0.309671
0.309761
0.309806
0.309829
0.30984
0.309847
0.30985
0.309852
0.309853
0.309855
0.309855
0.309856
0.309857
0.309858
0.309858
0.309859
0.309859
0.30986
0.30986
0.30986
0.309861
0.309861
0.309861
0.309862
0.309862
0.309862
0.309862
0.309862
0.309862
0.309862
0.309862
0.309862
0.309862
0.309861
0.309861
0.309861
0.30986
0.30986
0.30986
0.309859
0.309859
0.309858
0.309858
0.309857
0.309856
0.309855
0.309855
0.309853
0.309852
0.30985
0.309847
0.30984
0.309829
0.309806
0.309761
0.309671
0.309499
0.309177
0.334492
0.334824
0.335004
0.335098
0.335146
0.33517
0.335183
0.335189
0.335193
0.335195
0.335197
0.335198
0.335199
0.335199
0.3352
0.335201
0.335201
0.335202
0.335202
0.335203
0.335203
0.335204
0.335204
0.335204
0.335204
0.335205
0.335205
0.335205
0.335205
0.335205
0.335205
0.335205
0.335205
0.335205
0.335205
0.335204
0.335204
0.335204
0.335204
0.335203
0.335203
0.335202
0.335202
0.335201
0.335201
0.3352
0.335199
0.335199
0.335198
0.335197
0.335195
0.335193
0.335189
0.335183
0.33517
0.335146
0.335098
0.335004
0.334824
0.334492
0.359403
0.359745
0.359932
0.360031
0.360081
0.360107
0.360121
0.360128
0.360132
0.360134
0.360135
0.360137
0.360137
0.360138
0.360139
0.36014
0.36014
0.360141
0.360141
0.360142
0.360142
0.360142
0.360143
0.360143
0.360143
0.360143
0.360144
0.360144
0.360144
0.360144
0.360144
0.360144
0.360144
0.360144
0.360143
0.360143
0.360143
0.360143
0.360142
0.360142
0.360142
0.360141
0.360141
0.36014
0.36014
0.360139
0.360138
0.360137
0.360137
0.360135
0.360134
0.360132
0.360128
0.360121
0.360107
0.360081
0.360031
0.359932
0.359745
0.359403
0.383876
0.384226
0.384419
0.384522
0.384576
0.384603
0.384617
0.384625
0.384629
0.384631
0.384633
0.384634
0.384635
0.384636
0.384636
0.384637
0.384638
0.384638
0.384639
0.384639
0.384639
0.38464
0.38464
0.38464
0.384641
0.384641
0.384641
0.384641
0.384641
0.384641
0.384641
0.384641
0.384641
0.384641
0.384641
0.384641
0.38464
0.38464
0.38464
0.384639
0.384639
0.384639
0.384638
0.384638
0.384637
0.384636
0.384636
0.384635
0.384634
0.384633
0.384631
0.384629
0.384625
0.384617
0.384603
0.384576
0.384522
0.384419
0.384226
0.383876
0.407878
0.408235
0.408435
0.408542
0.408598
0.408627
0.408643
0.408651
0.408655
0.408658
0.408659
0.40866
0.408661
0.408662
0.408663
0.408663
0.408664
0.408664
0.408665
0.408665
0.408666
0.408666
0.408666
0.408667
0.408667
0.408667
0.408667
0.408667
0.408667
0.408667
0.408667
0.408667
0.408667
0.408667
0.408667
0.408667
0.408667
0.408666
0.408666
0.408666
0.408665
0.408665
0.408664
0.408664
0.408663
0.408663
0.408662
0.408661
0.40866
0.408659
0.408658
0.408655
0.408651
0.408643
0.408627
0.408598
0.408542
0.408435
0.408235
0.407878
0.431386
0.43175
0.431955
0.432067
0.432125
0.432156
0.432172
0.432181
0.432185
0.432188
0.43219
0.432191
0.432192
0.432193
0.432193
0.432194
0.432194
0.432195
0.432195
0.432196
0.432196
0.432196
0.432197
0.432197
0.432197
0.432197
0.432198
0.432198
0.432198
0.432198
0.432198
0.432198
0.432198
0.432198
0.432197
0.432197
0.432197
0.432197
0.432196
0.432196
0.432196
0.432195
0.432195
0.432194
0.432194
0.432193
0.432193
0.432192
0.432191
0.43219
0.432188
0.432185
0.432181
0.432172
0.432156
0.432125
0.432067
0.431955
0.43175
0.431386
0.45438
0.454749
0.454959
0.455075
0.455137
0.455169
0.455186
0.455195
0.4552
0.455203
0.455205
0.455206
0.455207
0.455207
0.455208
0.455209
0.455209
0.45521
0.45521
0.45521
0.455211
0.455211
0.455211
0.455212
0.455212
0.455212
0.455212
0.455212
0.455212
0.455212
0.455212
0.455212
0.455212
0.455212
0.455212
0.455212
0.455212
0.455211
0.455211
0.455211
0.45521
0.45521
0.45521
0.455209
0.455209
0.455208
0.455207
0.455207
0.455206
0.455205
0.455203
0.4552
0.455195
0.455186
0.455169
0.455137
0.455075
0.454959
0.454749
0.45438
0.476843
0.477216
0.477431
0.477551
0.477615
0.477649
0.477667
0.477676
0.477682
0.477685
0.477687
0.477688
0.477689
0.47769
0.47769
0.477691
0.477691
0.477692
0.477692
0.477692
0.477693
0.477693
0.477693
0.477694
0.477694
0.477694
0.477694
0.477694
0.477694
0.477694
0.477694
0.477694
0.477694
0.477694
0.477694
0.477694
0.477694
0.477693
0.477693
0.477693
0.477692
0.477692
0.477692
0.477691
0.477691
0.47769
0.47769
0.477689
0.477688
0.477687
0.477685
0.477682
0.477676
0.477667
0.477649
0.477615
0.477551
0.477431
0.477216
0.476843
0.498761
0.499137
0.499357
0.49948
0.499546
0.499582
0.499601
0.499611
0.499617
0.49962
0.499622
0.499624
0.499624
0.499625
0.499626
0.499626
0.499627
0.499627
0.499628
0.499628
0.499628
0.499629
0.499629
0.499629
0.499629
0.499629
0.49963
0.49963
0.49963
0.49963
0.49963
0.49963
0.49963
0.49963
0.499629
0.499629
0.499629
0.499629
0.499629
0.499628
0.499628
0.499628
0.499627
0.499627
0.499626
0.499626
0.499625
0.499624
0.499624
0.499622
0.49962
0.499617
0.499611
0.499601
0.499582
0.499546
0.49948
0.499357
0.499137
0.498761
0.520123
0.520501
0.520724
0.520851
0.52092
0.520958
0.520978
0.520989
0.520995
0.520998
0.521
0.521001
0.521002
0.521003
0.521004
0.521004
0.521005
0.521005
0.521005
0.521006
0.521006
0.521006
0.521006
0.521007
0.521007
0.521007
0.521007
0.521007
0.521007
0.521007
0.521007
0.521007
0.521007
0.521007
0.521007
0.521007
0.521007
0.521006
0.521006
0.521006
0.521006
0.521005
0.521005
0.521005
0.521004
0.521004
0.521003
0.521002
0.521001
0.521
0.520998
0.520995
0.520989
0.520978
0.520958
0.52092
0.520851
0.520724
0.520501
0.520123
0.54092
0.541298
0.541525
0.541655
0.541727
0.541766
0.541787
0.541799
0.541805
0.541809
0.541811
0.541813
0.541813
0.541814
0.541815
0.541815
0.541816
0.541816
0.541816
0.541817
0.541817
0.541817
0.541817
0.541818
0.541818
0.541818
0.541818
0.541818
0.541818
0.541818
0.541818
0.541818
0.541818
0.541818
0.541818
0.541818
0.541818
0.541817
0.541817
0.541817
0.541817
0.541816
0.541816
0.541816
0.541815
0.541815
0.541814
0.541813
0.541813
0.541811
0.541809
0.541805
0.541799
0.541787
0.541766
0.541727
0.541655
0.541525
0.541298
0.54092
0.561145
0.561523
0.561753
0.561886
0.561961
0.562002
0.562024
0.562036
0.562043
0.562047
0.562049
0.56205
0.562051
0.562052
0.562053
0.562053
0.562053
0.562054
0.562054
0.562054
0.562055
0.562055
0.562055
0.562055
0.562055
0.562056
0.562056
0.562056
0.562056
0.562056
0.562056
0.562056
0.562056
0.562056
0.562056
0.562055
0.562055
0.562055
0.562055
0.562055
0.562054
0.562054
0.562054
0.562053
0.562053
0.562053
0.562052
0.562051
0.56205
0.562049
0.562047
0.562043
0.562036
0.562024
0.562002
0.561961
0.561886
0.561753
0.561523
0.561145
0.580793
0.581171
0.581403
0.581539
0.581616
0.581658
0.581682
0.581695
0.581702
0.581706
0.581708
0.58171
0.581711
0.581712
0.581712
0.581713
0.581713
0.581713
0.581714
0.581714
0.581714
0.581714
0.581714
0.581715
0.581715
0.581715
0.581715
0.581715
0.581715
0.581715
0.581715
0.581715
0.581715
0.581715
0.581715
0.581715
0.581715
0.581714
0.581714
0.581714
0.581714
0.581714
0.581713
0.581713
0.581713
0.581712
0.581712
0.581711
0.58171
0.581708
0.581706
0.581702
0.581695
0.581682
0.581658
0.581616
0.581539
0.581403
0.581171
0.580793
0.599861
0.600238
0.600472
0.600611
0.60069
0.600734
0.600759
0.600772
0.60078
0.600784
0.600787
0.600788
0.600789
0.60079
0.60079
0.600791
0.600791
0.600792
0.600792
0.600792
0.600792
0.600792
0.600793
0.600793
0.600793
0.600793
0.600793
0.600793
0.600793
0.600793
0.600793
0.600793
0.600793
0.600793
0.600793
0.600793
0.600793
0.600793
0.600792
0.600792
0.600792
0.600792
0.600792
0.600791
0.600791
0.60079
0.60079
0.600789
0.600788
0.600787
0.600784
0.60078
0.600772
0.600759
0.600734
0.60069
0.600611
0.600472
0.600238
0.599861
0.618349
0.618723
0.618959
0.6191
0.619181
0.619227
0.619253
0.619267
0.619275
0.61928
0.619283
0.619284
0.619285
0.619286
0.619286
0.619287
0.619287
0.619287
0.619288
0.619288
0.619288
0.619288
0.619288
0.619289
0.619289
0.619289
0.619289
0.619289
0.619289
0.619289
0.619289
0.619289
0.619289
0.619289
0.619289
0.619289
0.619289
0.619288
0.619288
0.619288
0.619288
0.619288
0.619287
0.619287
0.619287
0.619286
0.619286
0.619285
0.619284
0.619283
0.61928
0.619275
0.619267
0.619253
0.619227
0.619181
0.6191
0.618959
0.618723
0.618349
0.636255
0.636627
0.636864
0.637007
0.63709
0.637138
0.637165
0.63718
0.637189
0.637193
0.637196
0.637198
0.637199
0.6372
0.6372
0.637201
0.637201
0.637201
0.637201
0.637201
0.637202
0.637202
0.637202
0.637202
0.637202
0.637202
0.637202
0.637202
0.637202
0.637202
0.637202
0.637202
0.637202
0.637202
0.637202
0.637202
0.637202
0.637202
0.637202
0.637202
0.637201
0.637201
0.637201
0.637201
0.637201
0.6372
0.6372
0.637199
0.637198
0.637196
0.637193
0.637189
0.63718
0.637165
0.637138
0.63709
0.637007
0.636864
0.636627
0.636255
0.653583
0.653952
0.654189
0.654334
0.654419
0.654468
0.654496
0.654512
0.654521
0.654526
0.654529
0.654531
0.654532
0.654533
0.654533
0.654534
0.654534
0.654534
0.654534
0.654535
0.654535
0.654535
0.654535
0.654535
0.654535
0.654535
0.654535
0.654535
0.654535
0.654535
0.654535
0.654535
0.654535
0.654535
0.654535
0.654535
0.654535
0.654535
0.654535
0.654535
0.654535
0.654534
0.654534
0.654534
0.654534
0.654533
0.654533
0.654532
0.654531
0.654529
0.654526
0.654521
0.654512
0.654496
0.654468
0.654419
0.654334
0.654189
0.653952
0.653583
0.670334
0.670699
0.670936
0.671083
0.67117
0.671221
0.67125
0.671267
0.671276
0.671282
0.671285
0.671287
0.671288
0.671289
0.671289
0.671289
0.67129
0.67129
0.67129
0.67129
0.67129
0.67129
0.67129
0.671291
0.671291
0.671291
0.671291
0.671291
0.671291
0.671291
0.671291
0.671291
0.671291
0.671291
0.671291
0.671291
0.671291
0.67129
0.67129
0.67129
0.67129
0.67129
0.67129
0.67129
0.671289
0.671289
0.671289
0.671288
0.671287
0.671285
0.671282
0.671276
0.671267
0.67125
0.671221
0.67117
0.671083
0.670936
0.670699
0.670334
0.686514
0.686874
0.687111
0.687258
0.687348
0.6874
0.68743
0.687448
0.687458
0.687464
0.687467
0.687469
0.68747
0.687471
0.687471
0.687472
0.687472
0.687472
0.687472
0.687472
0.687472
0.687473
0.687473
0.687473
0.687473
0.687473
0.687473
0.687473
0.687473
0.687473
0.687473
0.687473
0.687473
0.687473
0.687473
0.687473
0.687473
0.687473
0.687473
0.687472
0.687472
0.687472
0.687472
0.687472
0.687472
0.687471
0.687471
0.68747
0.687469
0.687467
0.687464
0.687458
0.687448
0.68743
0.6874