/*--------------------------------*- C++ -*----------------------------------*\
| =========                 |                                                 |
| \\      /  F ield         | foam-extend: Open Source CFD                    |
|  \\    /   O peration     | Version:     4.0                                |
|   \\  /    A nd           | Web:         http://www.foam-extend.org         |
|    \\/     M anipulation  |                                                 |
\*---------------------------------------------------------------------------*/
FoamFile
{
    version     2.0;
    format      ascii;
    class       volScalarField;
    location    "1730";
    object      cMinus;
}
// * * * * * * * * * * * * * * * * * * * * * * * * * * * * * * * * * * * * * //

dimensions      [0 0 0 0 0 0 0];

internalField   nonuniform List<scalar> 
6960
(
7.9953e-24
7.99657e-24
7.99697e-24
7.99717e-24
7.99733e-24
7.99747e-24
7.99761e-24
7.99776e-24
7.99791e-24
7.99806e-24
7.99821e-24
7.99837e-24
7.99852e-24
7.99867e-24
7.99882e-24
7.99896e-24
7.9991e-24
7.99923e-24
7.99935e-24
7.99946e-24
7.99956e-24
7.99966e-24
7.99974e-24
7.99982e-24
7.99988e-24
7.99994e-24
7.99998e-24
8.00001e-24
8.00004e-24
8.00005e-24
8.00005e-24
8.00004e-24
8.00001e-24
7.99998e-24
7.99994e-24
7.99988e-24
7.99982e-24
7.99974e-24
7.99966e-24
7.99956e-24
7.99946e-24
7.99935e-24
7.99923e-24
7.9991e-24
7.99896e-24
7.99882e-24
7.99867e-24
7.99852e-24
7.99837e-24
7.99821e-24
7.99806e-24
7.99791e-24
7.99776e-24
7.99761e-24
7.99747e-24
7.99733e-24
7.99717e-24
7.99697e-24
7.99657e-24
7.9953e-24
2.20203e-23
2.2024e-23
2.20253e-23
2.2026e-23
2.20266e-23
2.20272e-23
2.20278e-23
2.20284e-23
2.20289e-23
2.20295e-23
2.20301e-23
2.20307e-23
2.20312e-23
2.20317e-23
2.20323e-23
2.20327e-23
2.20332e-23
2.20337e-23
2.20341e-23
2.20345e-23
2.20348e-23
2.20351e-23
2.20354e-23
2.20357e-23
2.20359e-23
2.20361e-23
2.20362e-23
2.20363e-23
2.20364e-23
2.20364e-23
2.20364e-23
2.20364e-23
2.20363e-23
2.20362e-23
2.20361e-23
2.20359e-23
2.20357e-23
2.20354e-23
2.20351e-23
2.20348e-23
2.20345e-23
2.20341e-23
2.20337e-23
2.20332e-23
2.20327e-23
2.20323e-23
2.20317e-23
2.20312e-23
2.20307e-23
2.20301e-23
2.20295e-23
2.20289e-23
2.20284e-23
2.20278e-23
2.20272e-23
2.20266e-23
2.2026e-23
2.20253e-23
2.2024e-23
2.20203e-23
5.2552e-23
5.25611e-23
5.25647e-23
5.2567e-23
5.25691e-23
5.2571e-23
5.25729e-23
5.25748e-23
5.25766e-23
5.25785e-23
5.25803e-23
5.2582e-23
5.25837e-23
5.25853e-23
5.25869e-23
5.25884e-23
5.25898e-23
5.25911e-23
5.25923e-23
5.25934e-23
5.25944e-23
5.25954e-23
5.25962e-23
5.25969e-23
5.25976e-23
5.25981e-23
5.25985e-23
5.25988e-23
5.2599e-23
5.25991e-23
5.25991e-23
5.2599e-23
5.25988e-23
5.25985e-23
5.25981e-23
5.25976e-23
5.25969e-23
5.25962e-23
5.25954e-23
5.25944e-23
5.25934e-23
5.25923e-23
5.25911e-23
5.25898e-23
5.25884e-23
5.25869e-23
5.25853e-23
5.25837e-23
5.2582e-23
5.25803e-23
5.25785e-23
5.25766e-23
5.25748e-23
5.25729e-23
5.2571e-23
5.25691e-23
5.2567e-23
5.25647e-23
5.25611e-23
5.2552e-23
1.19463e-22
1.19485e-22
1.19494e-22
1.19501e-22
1.19507e-22
1.19513e-22
1.19519e-22
1.19525e-22
1.1953e-22
1.19535e-22
1.19541e-22
1.19546e-22
1.1955e-22
1.19555e-22
1.19559e-22
1.19564e-22
1.19568e-22
1.19571e-22
1.19575e-22
1.19578e-22
1.19581e-22
1.19583e-22
1.19585e-22
1.19587e-22
1.19589e-22
1.1959e-22
1.19592e-22
1.19592e-22
1.19593e-22
1.19593e-22
1.19593e-22
1.19593e-22
1.19592e-22
1.19592e-22
1.1959e-22
1.19589e-22
1.19587e-22
1.19585e-22
1.19583e-22
1.19581e-22
1.19578e-22
1.19575e-22
1.19571e-22
1.19568e-22
1.19564e-22
1.19559e-22
1.19555e-22
1.1955e-22
1.19546e-22
1.19541e-22
1.19535e-22
1.1953e-22
1.19525e-22
1.19519e-22
1.19513e-22
1.19507e-22
1.19501e-22
1.19494e-22
1.19485e-22
1.19463e-22
2.6859e-22
2.68641e-22
2.68666e-22
2.68686e-22
2.68703e-22
2.6872e-22
2.68737e-22
2.68753e-22
2.68768e-22
2.68783e-22
2.68798e-22
2.68812e-22
2.68825e-22
2.68838e-22
2.6885e-22
2.68861e-22
2.68872e-22
2.68882e-22
2.68891e-22
2.68899e-22
2.68907e-22
2.68914e-22
2.6892e-22
2.68925e-22
2.6893e-22
2.68934e-22
2.68937e-22
2.68939e-22
2.6894e-22
2.68941e-22
2.68941e-22
2.6894e-22
2.68939e-22
2.68937e-22
2.68934e-22
2.6893e-22
2.68925e-22
2.6892e-22
2.68914e-22
2.68907e-22
2.68899e-22
2.68891e-22
2.68882e-22
2.68872e-22
2.68861e-22
2.6885e-22
2.68838e-22
2.68825e-22
2.68812e-22
2.68798e-22
2.68783e-22
2.68768e-22
2.68753e-22
2.68737e-22
2.6872e-22
2.68703e-22
2.68686e-22
2.68666e-22
2.68641e-22
2.6859e-22
6.07473e-22
6.07596e-22
6.07661e-22
6.07714e-22
6.07764e-22
6.07811e-22
6.07857e-22
6.07901e-22
6.07944e-22
6.07986e-22
6.08026e-22
6.08064e-22
6.081e-22
6.08134e-22
6.08167e-22
6.08197e-22
6.08226e-22
6.08252e-22
6.08276e-22
6.08299e-22
6.08319e-22
6.08337e-22
6.08353e-22
6.08367e-22
6.0838e-22
6.0839e-22
6.08398e-22
6.08404e-22
6.08408e-22
6.0841e-22
6.0841e-22
6.08408e-22
6.08404e-22
6.08398e-22
6.0839e-22
6.0838e-22
6.08367e-22
6.08353e-22
6.08337e-22
6.08319e-22
6.08299e-22
6.08276e-22
6.08252e-22
6.08226e-22
6.08197e-22
6.08167e-22
6.08134e-22
6.081e-22
6.08064e-22
6.08026e-22
6.07986e-22
6.07944e-22
6.07901e-22
6.07857e-22
6.07811e-22
6.07764e-22
6.07714e-22
6.07661e-22
6.07596e-22
6.07473e-22
1.39333e-21
1.39363e-21
1.3938e-21
1.39395e-21
1.39408e-21
1.39421e-21
1.39434e-21
1.39446e-21
1.39458e-21
1.39469e-21
1.3948e-21
1.3949e-21
1.395e-21
1.39509e-21
1.39518e-21
1.39526e-21
1.39534e-21
1.39541e-21
1.39547e-21
1.39553e-21
1.39558e-21
1.39563e-21
1.39567e-21
1.39571e-21
1.39574e-21
1.39577e-21
1.39579e-21
1.39581e-21
1.39582e-21
1.39582e-21
1.39582e-21
1.39582e-21
1.39581e-21
1.39579e-21
1.39577e-21
1.39574e-21
1.39571e-21
1.39567e-21
1.39563e-21
1.39558e-21
1.39553e-21
1.39547e-21
1.39541e-21
1.39534e-21
1.39526e-21
1.39518e-21
1.39509e-21
1.395e-21
1.3949e-21
1.3948e-21
1.39469e-21
1.39458e-21
1.39446e-21
1.39434e-21
1.39421e-21
1.39408e-21
1.39395e-21
1.3938e-21
1.39363e-21
1.39333e-21
3.25387e-21
3.2546e-21
3.25505e-21
3.25544e-21
3.25581e-21
3.25617e-21
3.25651e-21
3.25684e-21
3.25716e-21
3.25747e-21
3.25776e-21
3.25804e-21
3.25831e-21
3.25855e-21
3.25879e-21
3.25901e-21
3.25921e-21
3.2594e-21
3.25957e-21
3.25973e-21
3.25987e-21
3.26e-21
3.26012e-21
3.26021e-21
3.2603e-21
3.26037e-21
3.26043e-21
3.26047e-21
3.2605e-21
3.26051e-21
3.26051e-21
3.2605e-21
3.26047e-21
3.26043e-21
3.26037e-21
3.2603e-21
3.26021e-21
3.26012e-21
3.26e-21
3.25987e-21
3.25973e-21
3.25957e-21
3.2594e-21
3.25921e-21
3.25901e-21
3.25879e-21
3.25855e-21
3.25831e-21
3.25804e-21
3.25776e-21
3.25747e-21
3.25716e-21
3.25684e-21
3.25651e-21
3.25617e-21
3.25581e-21
3.25544e-21
3.25505e-21
3.2546e-21
3.25387e-21
7.75255e-21
7.75438e-21
7.75557e-21
7.75663e-21
7.75764e-21
7.75862e-21
7.75957e-21
7.76048e-21
7.76136e-21
7.76219e-21
7.76299e-21
7.76375e-21
7.76446e-21
7.76514e-21
7.76577e-21
7.76636e-21
7.76691e-21
7.76741e-21
7.76788e-21
7.76831e-21
7.76869e-21
7.76904e-21
7.76934e-21
7.76961e-21
7.76983e-21
7.77002e-21
7.77017e-21
7.77028e-21
7.77036e-21
7.7704e-21
7.7704e-21
7.77036e-21
7.77028e-21
7.77017e-21
7.77002e-21
7.76983e-21
7.76961e-21
7.76934e-21
7.76904e-21
7.76869e-21
7.76831e-21
7.76788e-21
7.76741e-21
7.76691e-21
7.76636e-21
7.76577e-21
7.76514e-21
7.76446e-21
7.76375e-21
7.76299e-21
7.76219e-21
7.76136e-21
7.76048e-21
7.75957e-21
7.75862e-21
7.75764e-21
7.75663e-21
7.75557e-21
7.75438e-21
7.75255e-21
1.88655e-20
1.88702e-20
1.88734e-20
1.88763e-20
1.88791e-20
1.88818e-20
1.88844e-20
1.88869e-20
1.88894e-20
1.88917e-20
1.88938e-20
1.88959e-20
1.88979e-20
1.88997e-20
1.89014e-20
1.89031e-20
1.89046e-20
1.89059e-20
1.89072e-20
1.89084e-20
1.89094e-20
1.89103e-20
1.89112e-20
1.89119e-20
1.89125e-20
1.8913e-20
1.89134e-20
1.89137e-20
1.89139e-20
1.8914e-20
1.8914e-20
1.89139e-20
1.89137e-20
1.89134e-20
1.8913e-20
1.89125e-20
1.89119e-20
1.89112e-20
1.89103e-20
1.89094e-20
1.89084e-20
1.89072e-20
1.89059e-20
1.89046e-20
1.89031e-20
1.89014e-20
1.88997e-20
1.88979e-20
1.88959e-20
1.88938e-20
1.88917e-20
1.88894e-20
1.88869e-20
1.88844e-20
1.88818e-20
1.88791e-20
1.88763e-20
1.88734e-20
1.88702e-20
1.88655e-20
4.69205e-20
4.69327e-20
4.69414e-20
4.69495e-20
4.69573e-20
4.69649e-20
4.69722e-20
4.69792e-20
4.69859e-20
4.69923e-20
4.69984e-20
4.70041e-20
4.70095e-20
4.70146e-20
4.70194e-20
4.70239e-20
4.7028e-20
4.70318e-20
4.70353e-20
4.70385e-20
4.70413e-20
4.70439e-20
4.70462e-20
4.70482e-20
4.70499e-20
4.70513e-20
4.70524e-20
4.70532e-20
4.70538e-20
4.70541e-20
4.70541e-20
4.70538e-20
4.70532e-20
4.70524e-20
4.70513e-20
4.70499e-20
4.70482e-20
4.70462e-20
4.70439e-20
4.70413e-20
4.70385e-20
4.70353e-20
4.70318e-20
4.7028e-20
4.70239e-20
4.70194e-20
4.70146e-20
4.70095e-20
4.70041e-20
4.69984e-20
4.69923e-20
4.69859e-20
4.69792e-20
4.69722e-20
4.69649e-20
4.69573e-20
4.69495e-20
4.69414e-20
4.69327e-20
4.69205e-20
1.19322e-19
1.19355e-19
1.19379e-19
1.19402e-19
1.19424e-19
1.19445e-19
1.19466e-19
1.19486e-19
1.19504e-19
1.19522e-19
1.1954e-19
1.19556e-19
1.19571e-19
1.19585e-19
1.19599e-19
1.19611e-19
1.19623e-19
1.19633e-19
1.19643e-19
1.19652e-19
1.1966e-19
1.19667e-19
1.19673e-19
1.19679e-19
1.19684e-19
1.19688e-19
1.19691e-19
1.19693e-19
1.19695e-19
1.19695e-19
1.19695e-19
1.19695e-19
1.19693e-19
1.19691e-19
1.19688e-19
1.19684e-19
1.19679e-19
1.19673e-19
1.19667e-19
1.1966e-19
1.19652e-19
1.19643e-19
1.19633e-19
1.19623e-19
1.19611e-19
1.19599e-19
1.19585e-19
1.19571e-19
1.19556e-19
1.1954e-19
1.19522e-19
1.19504e-19
1.19486e-19
1.19466e-19
1.19445e-19
1.19424e-19
1.19402e-19
1.19379e-19
1.19355e-19
1.19322e-19
3.10378e-19
3.10466e-19
3.10535e-19
3.10599e-19
3.10663e-19
3.10724e-19
3.10783e-19
3.1084e-19
3.10894e-19
3.10945e-19
3.10994e-19
3.1104e-19
3.11083e-19
3.11124e-19
3.11162e-19
3.11198e-19
3.11231e-19
3.11261e-19
3.11289e-19
3.11314e-19
3.11337e-19
3.11357e-19
3.11375e-19
3.11391e-19
3.11404e-19
3.11415e-19
3.11424e-19
3.11431e-19
3.11435e-19
3.11437e-19
3.11437e-19
3.11435e-19
3.11431e-19
3.11424e-19
3.11415e-19
3.11404e-19
3.11391e-19
3.11375e-19
3.11357e-19
3.11337e-19
3.11314e-19
3.11289e-19
3.11261e-19
3.11231e-19
3.11198e-19
3.11162e-19
3.11124e-19
3.11083e-19
3.1104e-19
3.10994e-19
3.10945e-19
3.10894e-19
3.1084e-19
3.10783e-19
3.10724e-19
3.10663e-19
3.10599e-19
3.10535e-19
3.10466e-19
3.10378e-19
8.26007e-19
8.26253e-19
8.26448e-19
8.26636e-19
8.2682e-19
8.26999e-19
8.27171e-19
8.27335e-19
8.27493e-19
8.27642e-19
8.27784e-19
8.27918e-19
8.28044e-19
8.28162e-19
8.28272e-19
8.28375e-19
8.2847e-19
8.28557e-19
8.28638e-19
8.28711e-19
8.28777e-19
8.28836e-19
8.28888e-19
8.28933e-19
8.28972e-19
8.29004e-19
8.29029e-19
8.29048e-19
8.29061e-19
8.29067e-19
8.29067e-19
8.29061e-19
8.29048e-19
8.29029e-19
8.29004e-19
8.28972e-19
8.28933e-19
8.28888e-19
8.28836e-19
8.28777e-19
8.28711e-19
8.28638e-19
8.28557e-19
8.2847e-19
8.28375e-19
8.28272e-19
8.28162e-19
8.28044e-19
8.27918e-19
8.27784e-19
8.27642e-19
8.27493e-19
8.27335e-19
8.27171e-19
8.26999e-19
8.2682e-19
8.26636e-19
8.26448e-19
8.26253e-19
8.26007e-19
2.24951e-18
2.25021e-18
2.25078e-18
2.25134e-18
2.25188e-18
2.25241e-18
2.25292e-18
2.25341e-18
2.25387e-18
2.25431e-18
2.25473e-18
2.25513e-18
2.2555e-18
2.25585e-18
2.25617e-18
2.25648e-18
2.25676e-18
2.25701e-18
2.25725e-18
2.25747e-18
2.25766e-18
2.25783e-18
2.25799e-18
2.25812e-18
2.25823e-18
2.25833e-18
2.2584e-18
2.25846e-18
2.25849e-18
2.25851e-18
2.25851e-18
2.25849e-18
2.25846e-18
2.2584e-18
2.25833e-18
2.25823e-18
2.25812e-18
2.25799e-18
2.25783e-18
2.25766e-18
2.25747e-18
2.25725e-18
2.25701e-18
2.25676e-18
2.25648e-18
2.25617e-18
2.25585e-18
2.2555e-18
2.25513e-18
2.25473e-18
2.25431e-18
2.25387e-18
2.25341e-18
2.25292e-18
2.25241e-18
2.25188e-18
2.25134e-18
2.25078e-18
2.25021e-18
2.24951e-18
6.27e-18
6.27202e-18
6.27373e-18
6.2754e-18
6.27704e-18
6.27864e-18
6.28017e-18
6.28164e-18
6.28304e-18
6.28437e-18
6.28563e-18
6.28682e-18
6.28794e-18
6.28898e-18
6.28996e-18
6.29087e-18
6.29171e-18
6.29249e-18
6.29319e-18
6.29384e-18
6.29442e-18
6.29494e-18
6.2954e-18
6.2958e-18
6.29614e-18
6.29642e-18
6.29665e-18
6.29681e-18
6.29693e-18
6.29698e-18
6.29698e-18
6.29693e-18
6.29681e-18
6.29665e-18
6.29642e-18
6.29614e-18
6.2958e-18
6.2954e-18
6.29494e-18
6.29442e-18
6.29384e-18
6.29319e-18
6.29249e-18
6.29171e-18
6.29087e-18
6.28996e-18
6.28898e-18
6.28794e-18
6.28682e-18
6.28563e-18
6.28437e-18
6.28304e-18
6.28164e-18
6.28017e-18
6.27864e-18
6.27704e-18
6.2754e-18
6.27373e-18
6.27202e-18
6.27e-18
1.78878e-17
1.78938e-17
1.7899e-17
1.79041e-17
1.79092e-17
1.79141e-17
1.79188e-17
1.79233e-17
1.79276e-17
1.79317e-17
1.79355e-17
1.79392e-17
1.79426e-17
1.79458e-17
1.79488e-17
1.79516e-17
1.79541e-17
1.79565e-17
1.79587e-17
1.79607e-17
1.79624e-17
1.7964e-17
1.79654e-17
1.79666e-17
1.79677e-17
1.79685e-17
1.79692e-17
1.79697e-17
1.79701e-17
1.79703e-17
1.79703e-17
1.79701e-17
1.79697e-17
1.79692e-17
1.79685e-17
1.79677e-17
1.79666e-17
1.79654e-17
1.7964e-17
1.79624e-17
1.79607e-17
1.79587e-17
1.79565e-17
1.79541e-17
1.79516e-17
1.79488e-17
1.79458e-17
1.79426e-17
1.79392e-17
1.79355e-17
1.79317e-17
1.79276e-17
1.79233e-17
1.79188e-17
1.79141e-17
1.79092e-17
1.79041e-17
1.7899e-17
1.78938e-17
1.78878e-17
5.22348e-17
5.22531e-17
5.22693e-17
5.22853e-17
5.2301e-17
5.23164e-17
5.23311e-17
5.23452e-17
5.23587e-17
5.23714e-17
5.23835e-17
5.23949e-17
5.24056e-17
5.24156e-17
5.2425e-17
5.24336e-17
5.24417e-17
5.24491e-17
5.24558e-17
5.2462e-17
5.24675e-17
5.24725e-17
5.24768e-17
5.24806e-17
5.24839e-17
5.24866e-17
5.24887e-17
5.24903e-17
5.24914e-17
5.24919e-17
5.24919e-17
5.24914e-17
5.24903e-17
5.24887e-17
5.24866e-17
5.24839e-17
5.24806e-17
5.24768e-17
5.24725e-17
5.24675e-17
5.2462e-17
5.24558e-17
5.24491e-17
5.24417e-17
5.24336e-17
5.2425e-17
5.24156e-17
5.24056e-17
5.23949e-17
5.23835e-17
5.23714e-17
5.23587e-17
5.23452e-17
5.23311e-17
5.23164e-17
5.2301e-17
5.22853e-17
5.22693e-17
5.22531e-17
5.22348e-17
1.56115e-16
1.56172e-16
1.56223e-16
1.56274e-16
1.56325e-16
1.56374e-16
1.56421e-16
1.56466e-16
1.56509e-16
1.56549e-16
1.56588e-16
1.56624e-16
1.56658e-16
1.5669e-16
1.5672e-16
1.56747e-16
1.56773e-16
1.56797e-16
1.56818e-16
1.56838e-16
1.56855e-16
1.56871e-16
1.56885e-16
1.56897e-16
1.56907e-16
1.56916e-16
1.56923e-16
1.56928e-16
1.56931e-16
1.56933e-16
1.56933e-16
1.56931e-16
1.56928e-16
1.56923e-16
1.56916e-16
1.56907e-16
1.56897e-16
1.56885e-16
1.56871e-16
1.56855e-16
1.56838e-16
1.56818e-16
1.56797e-16
1.56773e-16
1.56747e-16
1.5672e-16
1.5669e-16
1.56658e-16
1.56624e-16
1.56588e-16
1.56549e-16
1.56509e-16
1.56466e-16
1.56421e-16
1.56374e-16
1.56325e-16
1.56274e-16
1.56223e-16
1.56172e-16
1.56115e-16
4.77461e-16
4.77641e-16
4.77806e-16
4.77972e-16
4.78136e-16
4.78295e-16
4.78448e-16
4.78595e-16
4.78735e-16
4.78867e-16
4.78992e-16
4.7911e-16
4.79221e-16
4.79324e-16
4.79421e-16
4.79511e-16
4.79594e-16
4.7967e-16
4.7974e-16
4.79803e-16
4.79861e-16
4.79912e-16
4.79957e-16
4.79996e-16
4.80029e-16
4.80057e-16
4.80079e-16
4.80096e-16
4.80107e-16
4.80112e-16
4.80112e-16
4.80107e-16
4.80096e-16
4.80079e-16
4.80057e-16
4.80029e-16
4.79996e-16
4.79957e-16
4.79912e-16
4.79861e-16
4.79803e-16
4.7974e-16
4.7967e-16
4.79594e-16
4.79511e-16
4.79421e-16
4.79324e-16
4.79221e-16
4.7911e-16
4.78992e-16
4.78867e-16
4.78735e-16
4.78595e-16
4.78448e-16
4.78295e-16
4.78136e-16
4.77972e-16
4.77806e-16
4.77641e-16
4.77461e-16
1.49386e-15
1.49445e-15
1.49499e-15
1.49554e-15
1.49609e-15
1.49661e-15
1.49712e-15
1.49761e-15
1.49807e-15
1.49851e-15
1.49893e-15
1.49932e-15
1.49968e-15
1.50003e-15
1.50035e-15
1.50064e-15
1.50092e-15
1.50117e-15
1.5014e-15
1.50161e-15
1.5018e-15
1.50197e-15
1.50212e-15
1.50225e-15
1.50236e-15
1.50245e-15
1.50252e-15
1.50258e-15
1.50262e-15
1.50263e-15
1.50263e-15
1.50262e-15
1.50258e-15
1.50252e-15
1.50245e-15
1.50236e-15
1.50225e-15
1.50212e-15
1.50197e-15
1.5018e-15
1.50161e-15
1.5014e-15
1.50117e-15
1.50092e-15
1.50064e-15
1.50035e-15
1.50003e-15
1.49968e-15
1.49932e-15
1.49893e-15
1.49851e-15
1.49807e-15
1.49761e-15
1.49712e-15
1.49661e-15
1.49609e-15
1.49554e-15
1.49499e-15
1.49445e-15
1.49386e-15
4.77949e-15
4.78142e-15
4.78326e-15
4.78511e-15
4.78695e-15
4.78874e-15
4.79046e-15
4.7921e-15
4.79367e-15
4.79515e-15
4.79655e-15
4.79787e-15
4.79911e-15
4.80027e-15
4.80135e-15
4.80236e-15
4.80328e-15
4.80414e-15
4.80492e-15
4.80563e-15
4.80627e-15
4.80684e-15
4.80734e-15
4.80778e-15
4.80815e-15
4.80846e-15
4.8087e-15
4.80889e-15
4.80901e-15
4.80907e-15
4.80907e-15
4.80901e-15
4.80889e-15
4.8087e-15
4.80846e-15
4.80815e-15
4.80778e-15
4.80734e-15
4.80684e-15
4.80627e-15
4.80563e-15
4.80492e-15
4.80414e-15
4.80328e-15
4.80236e-15
4.80135e-15
4.80027e-15
4.79911e-15
4.79787e-15
4.79655e-15
4.79515e-15
4.79367e-15
4.7921e-15
4.79046e-15
4.78874e-15
4.78695e-15
4.78511e-15
4.78326e-15
4.78142e-15
4.77949e-15
1.56278e-14
1.56343e-14
1.56406e-14
1.5647e-14
1.56533e-14
1.56595e-14
1.56654e-14
1.56711e-14
1.56765e-14
1.56816e-14
1.56864e-14
1.5691e-14
1.56952e-14
1.56992e-14
1.57029e-14
1.57064e-14
1.57096e-14
1.57125e-14
1.57152e-14
1.57176e-14
1.57198e-14
1.57218e-14
1.57235e-14
1.5725e-14
1.57263e-14
1.57274e-14
1.57282e-14
1.57289e-14
1.57293e-14
1.57295e-14
1.57295e-14
1.57293e-14
1.57289e-14
1.57282e-14
1.57274e-14
1.57263e-14
1.5725e-14
1.57235e-14
1.57218e-14
1.57198e-14
1.57176e-14
1.57152e-14
1.57125e-14
1.57096e-14
1.57064e-14
1.57029e-14
1.56992e-14
1.56952e-14
1.5691e-14
1.56864e-14
1.56816e-14
1.56765e-14
1.56711e-14
1.56654e-14
1.56595e-14
1.56533e-14
1.5647e-14
1.56406e-14
1.56343e-14
1.56278e-14
5.21831e-14
5.22056e-14
5.22276e-14
5.225e-14
5.22722e-14
5.22938e-14
5.23146e-14
5.23345e-14
5.23534e-14
5.23713e-14
5.23882e-14
5.24042e-14
5.24191e-14
5.24331e-14
5.24462e-14
5.24583e-14
5.24694e-14
5.24797e-14
5.24891e-14
5.24976e-14
5.25053e-14
5.25122e-14
5.25183e-14
5.25235e-14
5.2528e-14
5.25317e-14
5.25347e-14
5.25369e-14
5.25384e-14
5.25391e-14
5.25391e-14
5.25384e-14
5.25369e-14
5.25347e-14
5.25317e-14
5.2528e-14
5.25235e-14
5.25183e-14
5.25122e-14
5.25053e-14
5.24976e-14
5.24891e-14
5.24797e-14
5.24694e-14
5.24583e-14
5.24462e-14
5.24331e-14
5.24191e-14
5.24042e-14
5.23882e-14
5.23713e-14
5.23534e-14
5.23345e-14
5.23146e-14
5.22938e-14
5.22722e-14
5.225e-14
5.22276e-14
5.22056e-14
5.21831e-14
1.77769e-13
1.77849e-13
1.77927e-13
1.78007e-13
1.78086e-13
1.78163e-13
1.78237e-13
1.78308e-13
1.78376e-13
1.7844e-13
1.785e-13
1.78557e-13
1.7861e-13
1.7866e-13
1.78707e-13
1.7875e-13
1.7879e-13
1.78826e-13
1.7886e-13
1.7889e-13
1.78918e-13
1.78942e-13
1.78964e-13
1.78982e-13
1.78998e-13
1.79012e-13
1.79022e-13
1.7903e-13
1.79035e-13
1.79038e-13
1.79038e-13
1.79035e-13
1.7903e-13
1.79022e-13
1.79012e-13
1.78998e-13
1.78982e-13
1.78964e-13
1.78942e-13
1.78918e-13
1.7889e-13
1.7886e-13
1.78826e-13
1.7879e-13
1.7875e-13
1.78707e-13
1.7866e-13
1.7861e-13
1.78557e-13
1.785e-13
1.7844e-13
1.78376e-13
1.78308e-13
1.78237e-13
1.78163e-13
1.78086e-13
1.78007e-13
1.77927e-13
1.77849e-13
1.77769e-13
6.17102e-13
6.17384e-13
6.17667e-13
6.17957e-13
6.18245e-13
6.18524e-13
6.18794e-13
6.19051e-13
6.19296e-13
6.19527e-13
6.19746e-13
6.19952e-13
6.20146e-13
6.20326e-13
6.20495e-13
6.20651e-13
6.20795e-13
6.20928e-13
6.21049e-13
6.21159e-13
6.21258e-13
6.21347e-13
6.21425e-13
6.21492e-13
6.2155e-13
6.21598e-13
6.21636e-13
6.21665e-13
6.21684e-13
6.21693e-13
6.21693e-13
6.21684e-13
6.21665e-13
6.21636e-13
6.21598e-13
6.2155e-13
6.21492e-13
6.21425e-13
6.21347e-13
6.21258e-13
6.21159e-13
6.21049e-13
6.20928e-13
6.20795e-13
6.20651e-13
6.20495e-13
6.20326e-13
6.20146e-13
6.19952e-13
6.19746e-13
6.19527e-13
6.19296e-13
6.19051e-13
6.18794e-13
6.18524e-13
6.18245e-13
6.17957e-13
6.17667e-13
6.17384e-13
6.17102e-13
2.17964e-12
2.18067e-12
2.18171e-12
2.18277e-12
2.18383e-12
2.18486e-12
2.18585e-12
2.1868e-12
2.1877e-12
2.18855e-12
2.18936e-12
2.19011e-12
2.19082e-12
2.19149e-12
2.19211e-12
2.19268e-12
2.19321e-12
2.1937e-12
2.19414e-12
2.19455e-12
2.19491e-12
2.19524e-12
2.19552e-12
2.19577e-12
2.19598e-12
2.19616e-12
2.1963e-12
2.1964e-12
2.19647e-12
2.19651e-12
2.19651e-12
2.19647e-12
2.1964e-12
2.1963e-12
2.19616e-12
2.19598e-12
2.19577e-12
2.19552e-12
2.19524e-12
2.19491e-12
2.19455e-12
2.19414e-12
2.1937e-12
2.19321e-12
2.19268e-12
2.19211e-12
2.19149e-12
2.19082e-12
2.19011e-12
2.18936e-12
2.18855e-12
2.1877e-12
2.1868e-12
2.18585e-12
2.18486e-12
2.18383e-12
2.18277e-12
2.18171e-12
2.18067e-12
2.17964e-12
7.81925e-12
7.82303e-12
7.82689e-12
7.83086e-12
7.8348e-12
7.83864e-12
7.84233e-12
7.84586e-12
7.84921e-12
7.85238e-12
7.85538e-12
7.8582e-12
7.86084e-12
7.86331e-12
7.86561e-12
7.86775e-12
7.86972e-12
7.87153e-12
7.87319e-12
7.87469e-12
7.87605e-12
7.87725e-12
7.87832e-12
7.87925e-12
7.88003e-12
7.88069e-12
7.88121e-12
7.8816e-12
7.88186e-12
7.88198e-12
7.88198e-12
7.88186e-12
7.8816e-12
7.88121e-12
7.88069e-12
7.88003e-12
7.87925e-12
7.87832e-12
7.87725e-12
7.87605e-12
7.87469e-12
7.87319e-12
7.87153e-12
7.86972e-12
7.86775e-12
7.86561e-12
7.86331e-12
7.86084e-12
7.8582e-12
7.85538e-12
7.85238e-12
7.84921e-12
7.84586e-12
7.84233e-12
7.83864e-12
7.8348e-12
7.83086e-12
7.82689e-12
7.82303e-12
7.81925e-12
2.84291e-11
2.84432e-11
2.84577e-11
2.84727e-11
2.84875e-11
2.85019e-11
2.85158e-11
2.85291e-11
2.85417e-11
2.85537e-11
2.85649e-11
2.85755e-11
2.85855e-11
2.85948e-11
2.86034e-11
2.86114e-11
2.86188e-11
2.86257e-11
2.86319e-11
2.86375e-11
2.86426e-11
2.86472e-11
2.86512e-11
2.86546e-11
2.86576e-11
2.866e-11
2.8662e-11
2.86635e-11
2.86644e-11
2.86649e-11
2.86649e-11
2.86644e-11
2.86635e-11
2.8662e-11
2.866e-11
2.86576e-11
2.86546e-11
2.86512e-11
2.86472e-11
2.86426e-11
2.86375e-11
2.86319e-11
2.86257e-11
2.86188e-11
2.86114e-11
2.86034e-11
2.85948e-11
2.85855e-11
2.85755e-11
2.85649e-11
2.85537e-11
2.85417e-11
2.85291e-11
2.85158e-11
2.85019e-11
2.84875e-11
2.84727e-11
2.84577e-11
2.84432e-11
2.84291e-11
1.0449e-10
1.04543e-10
1.04598e-10
1.04654e-10
1.04711e-10
1.04766e-10
1.04818e-10
1.04869e-10
1.04916e-10
1.04962e-10
1.05004e-10
1.05044e-10
1.05082e-10
1.05117e-10
1.0515e-10
1.0518e-10
1.05209e-10
1.05234e-10
1.05258e-10
1.05279e-10
1.05299e-10
1.05316e-10
1.05331e-10
1.05344e-10
1.05355e-10
1.05365e-10
1.05372e-10
1.05377e-10
1.05381e-10
1.05383e-10
1.05383e-10
1.05381e-10
1.05377e-10
1.05372e-10
1.05365e-10
1.05355e-10
1.05344e-10
1.05331e-10
1.05316e-10
1.05299e-10
1.05279e-10
1.05258e-10
1.05234e-10
1.05209e-10
1.0518e-10
1.0515e-10
1.05117e-10
1.05082e-10
1.05044e-10
1.05004e-10
1.04962e-10
1.04916e-10
1.04869e-10
1.04818e-10
1.04766e-10
1.04711e-10
1.04654e-10
1.04598e-10
1.04543e-10
1.0449e-10
3.87076e-10
3.87276e-10
3.87485e-10
3.87701e-10
3.87915e-10
3.88124e-10
3.88324e-10
3.88516e-10
3.88698e-10
3.8887e-10
3.89032e-10
3.89185e-10
3.89329e-10
3.89462e-10
3.89587e-10
3.89703e-10
3.89809e-10
3.89907e-10
3.89997e-10
3.90078e-10
3.90152e-10
3.90217e-10
3.90274e-10
3.90325e-10
3.90367e-10
3.90402e-10
3.90431e-10
3.90452e-10
3.90466e-10
3.90473e-10
3.90473e-10
3.90466e-10
3.90452e-10
3.90431e-10
3.90402e-10
3.90367e-10
3.90325e-10
3.90274e-10
3.90217e-10
3.90152e-10
3.90078e-10
3.89997e-10
3.89907e-10
3.89809e-10
3.89703e-10
3.89587e-10
3.89462e-10
3.89329e-10
3.89185e-10
3.89032e-10
3.8887e-10
3.88698e-10
3.88516e-10
3.88324e-10
3.88124e-10
3.87915e-10
3.87701e-10
3.87485e-10
3.87276e-10
3.87076e-10
1.44015e-09
1.4409e-09
1.4417e-09
1.44252e-09
1.44334e-09
1.44413e-09
1.4449e-09
1.44563e-09
1.44632e-09
1.44697e-09
1.44759e-09
1.44818e-09
1.44872e-09
1.44923e-09
1.4497e-09
1.45014e-09
1.45055e-09
1.45092e-09
1.45126e-09
1.45157e-09
1.45185e-09
1.4521e-09
1.45232e-09
1.45251e-09
1.45267e-09
1.45281e-09
1.45291e-09
1.45299e-09
1.45305e-09
1.45307e-09
1.45307e-09
1.45305e-09
1.45299e-09
1.45291e-09
1.45281e-09
1.45267e-09
1.45251e-09
1.45232e-09
1.4521e-09
1.45185e-09
1.45157e-09
1.45126e-09
1.45092e-09
1.45055e-09
1.45014e-09
1.4497e-09
1.44923e-09
1.44872e-09
1.44818e-09
1.44759e-09
1.44697e-09
1.44632e-09
1.44563e-09
1.4449e-09
1.44413e-09
1.44334e-09
1.44252e-09
1.4417e-09
1.4409e-09
1.44015e-09
5.35969e-09
5.36254e-09
5.36557e-09
5.36869e-09
5.3718e-09
5.37481e-09
5.37771e-09
5.38048e-09
5.3831e-09
5.38559e-09
5.38794e-09
5.39014e-09
5.39221e-09
5.39414e-09
5.39594e-09
5.39761e-09
5.39915e-09
5.40056e-09
5.40185e-09
5.40303e-09
5.40408e-09
5.40502e-09
5.40585e-09
5.40657e-09
5.40719e-09
5.4077e-09
5.4081e-09
5.4084e-09
5.4086e-09
5.40871e-09
5.40871e-09
5.4086e-09
5.4084e-09
5.4081e-09
5.4077e-09
5.40719e-09
5.40657e-09
5.40585e-09
5.40502e-09
5.40408e-09
5.40303e-09
5.40185e-09
5.40056e-09
5.39915e-09
5.39761e-09
5.39594e-09
5.39414e-09
5.39221e-09
5.39014e-09
5.38794e-09
5.38559e-09
5.3831e-09
5.38048e-09
5.37771e-09
5.37481e-09
5.3718e-09
5.36869e-09
5.36557e-09
5.36254e-09
5.35969e-09
1.98591e-08
1.98698e-08
1.98812e-08
1.98929e-08
1.99046e-08
1.9916e-08
1.99268e-08
1.99372e-08
1.99471e-08
1.99565e-08
1.99653e-08
1.99736e-08
1.99814e-08
1.99886e-08
1.99954e-08
2.00016e-08
2.00074e-08
2.00127e-08
2.00176e-08
2.0022e-08
2.00259e-08
2.00295e-08
2.00326e-08
2.00353e-08
2.00376e-08
2.00395e-08
2.0041e-08
2.00421e-08
2.00429e-08
2.00433e-08
2.00433e-08
2.00429e-08
2.00421e-08
2.0041e-08
2.00395e-08
2.00376e-08
2.00353e-08
2.00326e-08
2.00295e-08
2.00259e-08
2.0022e-08
2.00176e-08
2.00127e-08
2.00074e-08
2.00016e-08
1.99954e-08
1.99886e-08
1.99814e-08
1.99736e-08
1.99653e-08
1.99565e-08
1.99471e-08
1.99372e-08
1.99268e-08
1.9916e-08
1.99046e-08
1.98929e-08
1.98812e-08
1.98698e-08
1.98591e-08
7.2867e-08
7.29066e-08
7.29488e-08
7.29924e-08
7.30356e-08
7.30776e-08
7.3118e-08
7.31565e-08
7.31931e-08
7.32277e-08
7.32603e-08
7.3291e-08
7.33197e-08
7.33466e-08
7.33716e-08
7.33947e-08
7.34161e-08
7.34357e-08
7.34537e-08
7.347e-08
7.34846e-08
7.34977e-08
7.35092e-08
7.35192e-08
7.35277e-08
7.35348e-08
7.35404e-08
7.35446e-08
7.35474e-08
7.35488e-08
7.35488e-08
7.35474e-08
7.35446e-08
7.35404e-08
7.35348e-08
7.35277e-08
7.35192e-08
7.35092e-08
7.34977e-08
7.34846e-08
7.347e-08
7.34537e-08
7.34357e-08
7.34161e-08
7.33947e-08
7.33716e-08
7.33466e-08
7.33197e-08
7.3291e-08
7.32603e-08
7.32277e-08
7.31931e-08
7.31565e-08
7.3118e-08
7.30776e-08
7.30356e-08
7.29924e-08
7.29488e-08
7.29066e-08
7.2867e-08
2.63141e-07
2.63285e-07
2.63438e-07
2.63596e-07
2.63753e-07
2.63905e-07
2.64051e-07
2.64191e-07
2.64323e-07
2.64448e-07
2.64567e-07
2.64678e-07
2.64782e-07
2.64879e-07
2.64969e-07
2.65053e-07
2.65131e-07
2.65202e-07
2.65267e-07
2.65326e-07
2.65379e-07
2.65426e-07
2.65468e-07
2.65504e-07
2.65535e-07
2.6556e-07
2.6558e-07
2.65596e-07
2.65606e-07
2.65611e-07
2.65611e-07
2.65606e-07
2.65596e-07
2.6558e-07
2.6556e-07
2.65535e-07
2.65504e-07
2.65468e-07
2.65426e-07
2.65379e-07
2.65326e-07
2.65267e-07
2.65202e-07
2.65131e-07
2.65053e-07
2.64969e-07
2.64879e-07
2.64782e-07
2.64678e-07
2.64567e-07
2.64448e-07
2.64323e-07
2.64191e-07
2.64051e-07
2.63905e-07
2.63753e-07
2.63596e-07
2.63438e-07
2.63285e-07
2.63141e-07
9.28766e-07
9.29271e-07
9.29812e-07
9.30369e-07
9.3092e-07
9.31456e-07
9.3197e-07
9.3246e-07
9.32926e-07
9.33367e-07
9.33782e-07
9.34173e-07
9.34538e-07
9.3488e-07
9.35198e-07
9.35492e-07
9.35764e-07
9.36014e-07
9.36242e-07
9.36449e-07
9.36635e-07
9.36801e-07
9.36948e-07
9.37075e-07
9.37183e-07
9.37273e-07
9.37344e-07
9.37398e-07
9.37433e-07
9.37451e-07
9.37451e-07
9.37433e-07
9.37398e-07
9.37344e-07
9.37273e-07
9.37183e-07
9.37075e-07
9.36948e-07
9.36801e-07
9.36635e-07
9.36449e-07
9.36242e-07
9.36014e-07
9.35764e-07
9.35492e-07
9.35198e-07
9.3488e-07
9.34538e-07
9.34173e-07
9.33782e-07
9.33367e-07
9.32926e-07
9.3246e-07
9.3197e-07
9.31456e-07
9.3092e-07
9.30369e-07
9.29812e-07
9.29271e-07
9.28766e-07
3.17875e-06
3.18046e-06
3.1823e-06
3.18418e-06
3.18605e-06
3.18786e-06
3.1896e-06
3.19126e-06
3.19284e-06
3.19433e-06
3.19573e-06
3.19705e-06
3.19829e-06
3.19944e-06
3.20052e-06
3.20151e-06
3.20243e-06
3.20328e-06
3.20405e-06
3.20475e-06
3.20538e-06
3.20594e-06
3.20643e-06
3.20686e-06
3.20723e-06
3.20753e-06
3.20777e-06
3.20795e-06
3.20807e-06
3.20813e-06
3.20813e-06
3.20807e-06
3.20795e-06
3.20777e-06
3.20753e-06
3.20723e-06
3.20686e-06
3.20643e-06
3.20594e-06
3.20538e-06
3.20475e-06
3.20405e-06
3.20328e-06
3.20243e-06
3.20151e-06
3.20052e-06
3.19944e-06
3.19829e-06
3.19705e-06
3.19573e-06
3.19433e-06
3.19284e-06
3.19126e-06
3.1896e-06
3.18786e-06
3.18605e-06
3.18418e-06
3.1823e-06
3.18046e-06
3.17875e-06
1.0456e-05
1.04616e-05
1.04675e-05
1.04736e-05
1.04796e-05
1.04855e-05
1.04911e-05
1.04964e-05
1.05015e-05
1.05063e-05
1.05108e-05
1.05151e-05
1.05191e-05
1.05228e-05
1.05262e-05
1.05294e-05
1.05324e-05
1.05351e-05
1.05376e-05
1.05398e-05
1.05419e-05
1.05437e-05
1.05453e-05
1.05466e-05
1.05478e-05
1.05488e-05
1.05496e-05
1.05502e-05
1.05505e-05
1.05507e-05
1.05507e-05
1.05505e-05
1.05502e-05
1.05496e-05
1.05488e-05
1.05478e-05
1.05466e-05
1.05453e-05
1.05437e-05
1.05419e-05
1.05398e-05
1.05376e-05
1.05351e-05
1.05324e-05
1.05294e-05
1.05262e-05
1.05228e-05
1.05191e-05
1.05151e-05
1.05108e-05
1.05063e-05
1.05015e-05
1.04964e-05
1.04911e-05
1.04855e-05
1.04796e-05
1.04736e-05
1.04675e-05
1.04616e-05
1.0456e-05
3.27252e-05
3.27421e-05
3.27602e-05
3.27787e-05
3.2797e-05
3.28147e-05
3.28317e-05
3.28479e-05
3.28633e-05
3.28778e-05
3.28915e-05
3.29044e-05
3.29164e-05
3.29277e-05
3.29382e-05
3.29479e-05
3.29568e-05
3.2965e-05
3.29725e-05
3.29794e-05
3.29855e-05
3.2991e-05
3.29958e-05
3.3e-05
3.30035e-05
3.30065e-05
3.30088e-05
3.30106e-05
3.30117e-05
3.30123e-05
3.30123e-05
3.30117e-05
3.30106e-05
3.30088e-05
3.30065e-05
3.30035e-05
3.3e-05
3.29958e-05
3.2991e-05
3.29855e-05
3.29794e-05
3.29725e-05
3.2965e-05
3.29568e-05
3.29479e-05
3.29382e-05
3.29277e-05
3.29164e-05
3.29044e-05
3.28915e-05
3.28778e-05
3.28633e-05
3.28479e-05
3.28317e-05
3.28147e-05
3.2797e-05
3.27787e-05
3.27602e-05
3.27421e-05
3.27252e-05
9.63657e-05
9.64138e-05
9.64649e-05
9.65171e-05
9.65685e-05
9.66183e-05
9.66661e-05
9.67117e-05
9.67549e-05
9.67958e-05
9.68343e-05
9.68705e-05
9.69044e-05
9.69361e-05
9.69655e-05
9.69928e-05
9.70179e-05
9.70411e-05
9.70621e-05
9.70813e-05
9.70985e-05
9.71139e-05
9.71274e-05
9.71392e-05
9.71492e-05
9.71575e-05
9.71641e-05
9.7169e-05
9.71723e-05
9.71739e-05
9.71739e-05
9.71723e-05
9.7169e-05
9.71641e-05
9.71575e-05
9.71492e-05
9.71392e-05
9.71274e-05
9.71139e-05
9.70985e-05
9.70813e-05
9.70621e-05
9.70411e-05
9.70179e-05
9.69928e-05
9.69655e-05
9.69361e-05
9.69044e-05
9.68705e-05
9.68343e-05