/*--------------------------------*- C++ -*----------------------------------*\
| =========                 |                                                 |
| \\      /  F ield         | foam-extend: Open Source CFD                    |
|  \\    /   O peration     | Version:     4.0                                |
|   \\  /    A nd           | Web:         http://www.foam-extend.org         |
|    \\/     M anipulation  |                                                 |
\*---------------------------------------------------------------------------*/
FoamFile
{
    version     2.0;
    format      ascii;
    class       volScalarField;
    location    "26";
    object      dC2;
}
// * * * * * * * * * * * * * * * * * * * * * * * * * * * * * * * * * * * * * //

dimensions      [0 -1 0 0 0 0 0];

internalField   nonuniform List<scalar> 
6960
(
1.45462e-18
1.46446e-18
1.48266e-18
1.50663e-18
1.53339e-18
1.56012e-18
1.58467e-18
1.6056e-18
1.6222e-18
1.6343e-18
1.64211e-18
1.64605e-18
1.6467e-18
1.6446e-18
1.64032e-18
1.63438e-18
1.62724e-18
1.61931e-18
1.61092e-18
1.6024e-18
1.59399e-18
1.58591e-18
1.57833e-18
1.5714e-18
1.56525e-18
1.56e-18
1.5557e-18
1.55243e-18
1.55023e-18
1.54911e-18
1.54911e-18
1.55022e-18
1.55243e-18
1.55571e-18
1.56e-18
1.56525e-18
1.5714e-18
1.57832e-18
1.5859e-18
1.59399e-18
1.6024e-18
1.61093e-18
1.61931e-18
1.62725e-18
1.63438e-18
1.64032e-18
1.64459e-18
1.6467e-18
1.64606e-18
1.64211e-18
1.6343e-18
1.6222e-18
1.60561e-18
1.58467e-18
1.56012e-18
1.53338e-18
1.50663e-18
1.48266e-18
1.46446e-18
1.45462e-18
4.72931e-18
4.76054e-18
4.81825e-18
4.89433e-18
4.97915e-18
5.06395e-18
5.14182e-18
5.20823e-18
5.26094e-18
5.29935e-18
5.32416e-18
5.33673e-18
5.33877e-18
5.33215e-18
5.31863e-18
5.29983e-18
5.27719e-18
5.25204e-18
5.22545e-18
5.19841e-18
5.17172e-18
5.14603e-18
5.12196e-18
5.09999e-18
5.08051e-18
5.0638e-18
5.05016e-18
5.03977e-18
5.03274e-18
5.02923e-18
5.02922e-18
5.03276e-18
5.03973e-18
5.05015e-18
5.0638e-18
5.08052e-18
5.09999e-18
5.122e-18
5.14605e-18
5.17171e-18
5.19843e-18
5.22543e-18
5.25203e-18
5.27718e-18
5.29981e-18
5.31863e-18
5.33217e-18
5.33877e-18
5.33672e-18
5.32413e-18
5.29936e-18
5.26093e-18
5.20822e-18
5.14182e-18
5.06394e-18
4.97916e-18
4.89431e-18
4.81827e-18
4.76052e-18
4.72931e-18
1.27024e-17
1.27846e-17
1.29368e-17
1.31371e-17
1.33607e-17
1.35841e-17
1.37894e-17
1.39647e-17
1.41036e-17
1.4205e-17
1.42705e-17
1.43038e-17
1.43095e-17
1.42922e-17
1.42565e-17
1.4207e-17
1.41474e-17
1.40811e-17
1.40111e-17
1.39397e-17
1.38693e-17
1.38015e-17
1.37381e-17
1.368e-17
1.36285e-17
1.35844e-17
1.35484e-17
1.3521e-17
1.35024e-17
1.34931e-17
1.34932e-17
1.35024e-17
1.3521e-17
1.35484e-17
1.35845e-17
1.36285e-17
1.36801e-17
1.3738e-17
1.38015e-17
1.38693e-17
1.39397e-17
1.4011e-17
1.40811e-17
1.41474e-17
1.4207e-17
1.42566e-17
1.42921e-17
1.43094e-17
1.43038e-17
1.42706e-17
1.42049e-17
1.41036e-17
1.39647e-17
1.37895e-17
1.35842e-17
1.33606e-17
1.31371e-17
1.29367e-17
1.27846e-17
1.27023e-17
3.09823e-17
3.11814e-17
3.15492e-17
3.20341e-17
3.25752e-17
3.31163e-17
3.36133e-17
3.40375e-17
3.43745e-17
3.46202e-17
3.47795e-17
3.48605e-17
3.48744e-17
3.48328e-17
3.47471e-17
3.46273e-17
3.44829e-17
3.43225e-17
3.41528e-17
3.39798e-17
3.38091e-17
3.36451e-17
3.3491e-17
3.33505e-17
3.32257e-17
3.31188e-17
3.30314e-17
3.29646e-17
3.292e-17
3.28974e-17
3.28972e-17
3.292e-17
3.29646e-17
3.30314e-17
3.31187e-17
3.32257e-17
3.33504e-17
3.3491e-17
3.3645e-17
3.38092e-17
3.39799e-17
3.41527e-17
3.43226e-17
3.4483e-17
3.46274e-17
3.47469e-17
3.48328e-17
3.48745e-17
3.48605e-17
3.47795e-17
3.46205e-17
3.43745e-17
3.40374e-17
3.36133e-17
3.31164e-17
3.25753e-17
3.20342e-17
3.15493e-17
3.11813e-17
3.09824e-17
7.26546e-17
7.31216e-17
7.39859e-17
7.51248e-17
7.63959e-17
7.76676e-17
7.88363e-17
7.98342e-17
8.06268e-17
8.12065e-17
8.15815e-17
8.1773e-17
8.18068e-17
8.171e-17
8.15083e-17
8.12272e-17
8.08888e-17
8.05109e-17
8.01112e-17
7.97051e-17
7.93032e-17
7.89167e-17
7.85548e-17
7.82232e-17
7.79293e-17
7.76774e-17
7.74719e-17
7.73151e-17
7.72088e-17
7.71557e-17
7.71561e-17
7.72091e-17
7.7315e-17
7.74715e-17
7.76776e-17
7.79292e-17
7.82232e-17
7.85546e-17
7.8917e-17
7.93033e-17
7.97048e-17
8.01118e-17
8.05107e-17
8.08884e-17
8.1227e-17
8.15087e-17
8.17097e-17
8.18068e-17
8.17735e-17
8.15818e-17
8.12062e-17
8.06268e-17
7.98347e-17
7.8836e-17
7.76675e-17
7.63958e-17
7.51246e-17
7.39858e-17
7.31214e-17
7.26543e-17
1.67769e-16
1.68856e-16
1.70864e-16
1.73512e-16
1.76468e-16
1.79426e-16
1.82145e-16
1.84469e-16
1.86316e-16
1.87665e-16
1.88541e-16
1.8899e-16
1.89071e-16
1.88845e-16
1.88379e-16
1.87725e-16
1.86936e-16
1.86059e-16
1.8513e-16
1.84182e-16
1.83247e-16
1.82347e-16
1.81501e-16
1.8073e-16
1.80045e-16
1.79459e-16
1.78979e-16
1.78614e-16
1.78368e-16
1.78244e-16
1.78244e-16
1.78367e-16
1.78614e-16
1.7898e-16
1.79459e-16
1.80046e-16
1.80731e-16
1.81502e-16
1.82346e-16
1.83247e-16
1.84182e-16
1.85129e-16
1.86059e-16
1.86938e-16
1.87726e-16
1.88379e-16
1.88847e-16
1.89071e-16
1.88989e-16
1.88541e-16
1.87665e-16
1.86316e-16
1.84468e-16
1.82145e-16
1.79426e-16
1.76469e-16
1.73512e-16
1.70865e-16
1.68856e-16
1.6777e-16
3.84595e-16
3.87104e-16
3.91745e-16
3.97862e-16
4.04695e-16
4.11531e-16
4.1782e-16
4.23196e-16
4.27472e-16
4.306e-16
4.32629e-16
4.33673e-16
4.33863e-16
4.33351e-16
4.32273e-16
4.30763e-16
4.28941e-16
4.26906e-16
4.24757e-16
4.22566e-16
4.204e-16
4.18316e-16
4.16361e-16
4.14574e-16
4.12988e-16
4.11628e-16
4.10519e-16
4.09669e-16
4.09101e-16
4.08813e-16
4.08812e-16
4.091e-16
4.09672e-16
4.10518e-16
4.11627e-16
4.12987e-16
4.14573e-16
4.16362e-16
4.18317e-16
4.20399e-16
4.22565e-16
4.24758e-16
4.26907e-16
4.28937e-16
4.30761e-16
4.32272e-16
4.33349e-16
4.33863e-16
4.33674e-16
4.32631e-16
4.306e-16
4.2747e-16
4.23199e-16
4.17823e-16
4.11533e-16
4.04695e-16
3.97861e-16
3.91743e-16
3.87104e-16
3.84593e-16
8.75016e-16
8.8076e-16
8.91403e-16
9.05431e-16
9.21101e-16
9.36787e-16
9.51214e-16
9.63554e-16
9.73368e-16
9.80558e-16
9.85233e-16
9.87633e-16
9.88079e-16
9.86908e-16
9.84436e-16
9.8098e-16
9.768e-16
9.72141e-16
9.67203e-16
9.62177e-16
9.57195e-16
9.52404e-16
9.4792e-16
9.43811e-16
9.40172e-16
9.37049e-16
9.34493e-16
9.32551e-16
9.31235e-16
9.30575e-16
9.30575e-16
9.31238e-16
9.32547e-16
9.34493e-16
9.37053e-16
9.40171e-16
9.43816e-16
9.47919e-16
9.52411e-16
9.57202e-16
9.62176e-16
9.67204e-16
9.72139e-16
9.76803e-16
9.80986e-16
9.8444e-16
9.86906e-16
9.88079e-16
9.87631e-16
9.85225e-16
9.80554e-16
9.73371e-16
9.63551e-16
9.51214e-16
9.36778e-16
9.21094e-16
9.05432e-16
8.91403e-16
8.8076e-16
8.75012e-16
1.96709e-15
1.98012e-15
2.00422e-15
2.03599e-15
2.07149e-15
2.10703e-15
2.13975e-15
2.16771e-15
2.19e-15
2.20629e-15
2.21691e-15
2.22238e-15
2.22343e-15
2.22078e-15
2.21522e-15
2.20739e-15
2.19792e-15
2.18734e-15
2.17614e-15
2.16472e-15
2.15345e-15
2.1426e-15
2.1324e-15
2.12309e-15
2.1148e-15
2.10772e-15
2.10193e-15
2.09751e-15
2.09454e-15
2.09304e-15
2.09304e-15
2.09453e-15
2.09751e-15
2.10193e-15
2.10772e-15
2.11481e-15
2.12308e-15
2.13239e-15
2.14259e-15
2.15345e-15
2.16474e-15
2.17614e-15
2.18734e-15
2.19792e-15
2.20737e-15
2.21523e-15
2.22079e-15
2.22343e-15
2.22238e-15
2.21693e-15
2.20631e-15
2.19e-15
2.16772e-15
2.13973e-15
2.10704e-15
2.0715e-15
2.036e-15
2.00422e-15
1.98012e-15
1.96709e-15
4.342e-15
4.37096e-15
4.4246e-15
4.49526e-15
4.57425e-15
4.65336e-15
4.72613e-15
4.78846e-15
4.83808e-15
4.87444e-15
4.89812e-15
4.91036e-15
4.91274e-15
4.9069e-15
4.89449e-15
4.87709e-15
4.85599e-15
4.83247e-15
4.80755e-15
4.78215e-15
4.75699e-15
4.73279e-15
4.7101e-15
4.6893e-15
4.67091e-15
4.65508e-15
4.64214e-15
4.63234e-15
4.62569e-15
4.62234e-15
4.62234e-15
4.62571e-15
4.63234e-15
4.64218e-15
4.65507e-15
4.67089e-15
4.6893e-15
4.71008e-15
4.73281e-15
4.75701e-15
4.78213e-15
4.80758e-15
4.83246e-15
4.85599e-15
4.8771e-15
4.89448e-15
4.90691e-15
4.91274e-15
4.91038e-15
4.89811e-15
4.87443e-15
4.83805e-15
4.78846e-15
4.72618e-15
4.65336e-15
4.57429e-15
4.49527e-15
4.42455e-15
4.37095e-15
4.342e-15
9.34355e-15
9.40647e-15
9.52271e-15
9.67627e-15
9.84767e-15
1.00194e-14
1.01775e-14
1.03129e-14
1.04205e-14
1.04997e-14
1.05513e-14
1.05779e-14
1.05832e-14
1.05706e-14
1.05438e-14
1.0506e-14
1.04602e-14
1.04091e-14
1.0355e-14
1.02997e-14
1.02452e-14
1.01925e-14
1.01431e-14
1.0098e-14
1.00579e-14
1.00235e-14
9.99557e-15
9.97399e-15
9.95963e-15
9.95228e-15
9.95238e-15
9.95954e-15
9.97401e-15
9.99545e-15
1.00236e-14
1.00579e-14
1.0098e-14
1.01431e-14
1.01925e-14
1.02451e-14
1.02998e-14
1.03549e-14
1.04092e-14
1.04603e-14
1.05059e-14
1.05438e-14
1.05706e-14
1.05831e-14
1.05779e-14
1.05513e-14
1.04997e-14
1.04206e-14
1.03129e-14
1.01775e-14
1.00194e-14
9.8476e-15
9.67619e-15
9.52284e-15
9.40649e-15
9.34355e-15
1.94659e-14
1.95979e-14
1.98425e-14
2.01647e-14
2.0525e-14
2.08859e-14
2.12182e-14
2.15028e-14
2.17298e-14
2.18961e-14
2.20048e-14
2.20612e-14
2.20725e-14
2.20459e-14
2.19898e-14
2.19105e-14
2.18142e-14
2.17069e-14
2.15931e-14
2.14769e-14
2.13618e-14
2.12511e-14
2.11473e-14
2.10524e-14
2.09678e-14
2.08958e-14
2.08364e-14
2.07916e-14
2.07611e-14
2.07459e-14
2.07458e-14
2.07612e-14
2.07916e-14
2.08366e-14
2.08956e-14
2.09679e-14
2.10522e-14
2.11473e-14
2.12512e-14
2.13619e-14
2.14767e-14
2.15931e-14
2.17068e-14
2.18143e-14
2.19106e-14
2.19899e-14
2.20463e-14
2.20724e-14
2.20612e-14
2.20049e-14
2.18961e-14
2.17297e-14
2.15027e-14
2.12184e-14
2.0886e-14
2.0525e-14
2.01647e-14
1.98424e-14
1.95979e-14
1.94658e-14
3.90441e-14
3.9311e-14
3.98039e-14
4.04553e-14
4.11826e-14
4.19115e-14
4.25833e-14
4.3158e-14
4.36168e-14
4.39537e-14
4.4174e-14
4.42882e-14
4.43114e-14
4.42588e-14
4.41454e-14
4.39852e-14
4.37915e-14
4.35743e-14
4.33439e-14
4.31088e-14
4.28766e-14
4.26531e-14
4.24424e-14
4.22502e-14
4.20796e-14
4.19329e-14
4.18135e-14
4.17221e-14
4.16608e-14
4.16295e-14
4.16293e-14
4.16611e-14
4.17219e-14
4.18132e-14
4.19331e-14
4.20798e-14
4.22504e-14
4.24427e-14
4.26523e-14
4.28764e-14
4.3109e-14
4.3344e-14
4.35743e-14
4.37909e-14
4.39855e-14
4.41452e-14
4.42588e-14
4.43115e-14
4.42881e-14
4.41736e-14
4.39539e-14
4.36166e-14
4.31585e-14
4.25826e-14
4.19114e-14
4.11827e-14
4.04553e-14
3.98043e-14
3.93108e-14
3.90438e-14
7.5128e-14
7.56412e-14
7.65927e-14
7.78451e-14
7.92465e-14
8.06522e-14
8.19449e-14
8.30551e-14
8.39402e-14
8.45921e-14
8.50176e-14
8.524e-14
8.52855e-14
8.5186e-14
8.49669e-14
8.46587e-14
8.42846e-14
8.38657e-14
8.34216e-14
8.2969e-14
8.25195e-14
8.20875e-14
8.1682e-14
8.13112e-14
8.09811e-14
8.06992e-14
8.04681e-14
8.02918e-14
8.01728e-14
8.01138e-14
8.01137e-14
8.01726e-14
8.02924e-14
8.04681e-14
8.06992e-14
8.0981e-14
8.13105e-14
8.16823e-14
8.20889e-14
8.25207e-14
8.29696e-14
8.34223e-14
8.38661e-14
8.42859e-14
8.46589e-14
8.49676e-14
8.51853e-14
8.52852e-14
8.52397e-14
8.50172e-14
8.45914e-14
8.39414e-14
8.30554e-14
8.19463e-14
8.06511e-14
7.92467e-14
7.7845e-14
7.65919e-14
7.56419e-14
7.51288e-14
1.37635e-13
1.38567e-13
1.40294e-13
1.42573e-13
1.45121e-13
1.47676e-13
1.50034e-13
1.52056e-13
1.53673e-13
1.54861e-13
1.55639e-13
1.56049e-13
1.56139e-13
1.55958e-13
1.55564e-13
1.55006e-13
1.54325e-13
1.53561e-13
1.5275e-13
1.51926e-13
1.51107e-13
1.50316e-13
1.49577e-13
1.48897e-13
1.48297e-13
1.4778e-13
1.47357e-13
1.47036e-13
1.4682e-13
1.46707e-13
1.46709e-13
1.46818e-13
1.47034e-13
1.47357e-13
1.47779e-13
1.48298e-13
1.48898e-13
1.49575e-13
1.50315e-13
1.51104e-13
1.51924e-13
1.5275e-13
1.53561e-13
1.54323e-13
1.55003e-13
1.55564e-13
1.55959e-13
1.56139e-13
1.56049e-13
1.55641e-13
1.54861e-13
1.53671e-13
1.52054e-13
1.50033e-13
1.47676e-13
1.45119e-13
1.42571e-13
1.40293e-13
1.38565e-13
1.37635e-13
2.31022e-13
2.32568e-13
2.35427e-13
2.3921e-13
2.43441e-13
2.47693e-13
2.51621e-13
2.54996e-13
2.57694e-13
2.59687e-13
2.60999e-13
2.61695e-13
2.61844e-13
2.61554e-13
2.60906e-13
2.5998e-13
2.58837e-13
2.57572e-13
2.56228e-13
2.5484e-13
2.53475e-13
2.5216e-13
2.50918e-13
2.49789e-13
2.48775e-13
2.4791e-13
2.47206e-13
2.46668e-13
2.46307e-13
2.46125e-13
2.46122e-13
2.4631e-13
2.4667e-13
2.47207e-13
2.47916e-13
2.48773e-13
2.49782e-13
2.50916e-13
2.52159e-13
2.53476e-13
2.54844e-13
2.56226e-13
2.57571e-13
2.58841e-13
2.5998e-13
2.60907e-13
2.61554e-13
2.61849e-13
2.61699e-13
2.60999e-13
2.59688e-13
2.5769e-13
2.54997e-13
2.51616e-13
2.47693e-13
2.43444e-13
2.39213e-13
2.35425e-13
2.32571e-13
2.31021e-13
3.06575e-13
3.08661e-13
3.12487e-13
3.17551e-13
3.23242e-13
3.28961e-13
3.34275e-13
3.3884e-13
3.42517e-13
3.45245e-13
3.4705e-13
3.48023e-13
3.48257e-13
3.47889e-13
3.47019e-13
3.45755e-13
3.44245e-13
3.4252e-13
3.40683e-13
3.38819e-13
3.36956e-13
3.35169e-13
3.33481e-13
3.3193e-13
3.30567e-13
3.29393e-13
3.28428e-13
3.2769e-13
3.27194e-13
3.26945e-13
3.26959e-13
3.2719e-13
3.27704e-13
3.28429e-13
3.29388e-13
3.30576e-13
3.31943e-13
3.33476e-13
3.3517e-13
3.36957e-13
3.38811e-13
3.4068e-13
3.42518e-13
3.44245e-13
3.45765e-13
3.47014e-13
3.47887e-13
3.48251e-13
3.48016e-13
3.4705e-13
3.45237e-13
3.42528e-13
3.38845e-13
3.34274e-13
3.2897e-13
3.23243e-13
3.17544e-13
3.12501e-13
3.08655e-13
3.06592e-13
1.4665e-13
1.47793e-13
1.50026e-13
1.52987e-13
1.56332e-13
1.59784e-13
1.62969e-13
1.65798e-13
1.68091e-13
1.69844e-13
1.71007e-13
1.71684e-13
1.71882e-13
1.71699e-13
1.71206e-13
1.70486e-13
1.69552e-13
1.68512e-13
1.67381e-13
1.66218e-13
1.65063e-13
1.63921e-13
1.62886e-13
1.61935e-13
1.6108e-13
1.60318e-13
1.59723e-13
1.59279e-13
1.58951e-13
1.58807e-13
1.58798e-13
1.58967e-13
1.59264e-13
1.59732e-13
1.60331e-13
1.61052e-13
1.61909e-13
1.62922e-13
1.63918e-13
1.65064e-13
1.6621e-13
1.67378e-13
1.68496e-13
1.69534e-13
1.70473e-13
1.71222e-13
1.71718e-13
1.71892e-13
1.71686e-13
1.71027e-13
1.69841e-13
1.68074e-13
1.65785e-13
1.62967e-13
1.59745e-13
1.56332e-13
1.52986e-13
1.50018e-13
1.47803e-13
1.46623e-13
-5.7818e-13
-5.81568e-13
-5.87915e-13
-5.9618e-13
-6.05278e-13
-6.14444e-13
-6.22692e-13
-6.29734e-13
-6.35274e-13
-6.3934e-13
-6.41911e-13
-6.4322e-13
-6.43416e-13
-6.42718e-13
-6.41244e-13
-6.39301e-13
-6.36896e-13
-6.34255e-13
-6.3138e-13
-6.28525e-13
-6.25697e-13
-6.22938e-13
-6.20432e-13
-6.18077e-13
-6.16011e-13
-6.14197e-13
-6.12724e-13
-6.11695e-13
-6.109e-13
-6.10559e-13
-6.1053e-13
-6.10876e-13
-6.11641e-13
-6.12762e-13
-6.14249e-13
-6.15973e-13
-6.18078e-13
-6.20457e-13
-6.22933e-13
-6.25729e-13
-6.28563e-13
-6.3139e-13
-6.34234e-13
-6.36874e-13
-6.39301e-13
-6.41252e-13
-6.42756e-13
-6.43404e-13
-6.43201e-13
-6.41921e-13
-6.39339e-13
-6.35242e-13
-6.29737e-13
-6.22647e-13
-6.14383e-13
-6.05302e-13
-5.9618e-13
-5.87925e-13
-5.81564e-13
-5.78169e-13
-1.38284e-12
-1.39275e-12
-1.41072e-12
-1.43455e-12
-1.46131e-12
-1.4881e-12
-1.51281e-12
-1.53399e-12
-1.55091e-12
-1.56342e-12
-1.57167e-12
-1.57601e-12
-1.57693e-12
-1.57502e-12
-1.57099e-12
-1.56512e-12
-1.55801e-12
-1.55002e-12
-1.54158e-12
-1.53282e-12
-1.52431e-12
-1.51601e-12
-1.50812e-12
-1.50117e-12
-1.49466e-12
-1.4894e-12
-1.48498e-12
-1.48141e-12
-1.4791e-12
-1.47808e-12
-1.47816e-12
-1.47919e-12
-1.48153e-12
-1.485e-12
-1.48923e-12
-1.49477e-12
-1.50111e-12
-1.50819e-12
-1.51603e-12
-1.52427e-12
-1.53293e-12
-1.54149e-12
-1.5499e-12
-1.55805e-12
-1.56506e-12
-1.57106e-12
-1.57499e-12
-1.57691e-12
-1.57591e-12
-1.57166e-12
-1.56336e-12
-1.55092e-12
-1.53398e-12
-1.51288e-12
-1.48807e-12
-1.46118e-12
-1.43456e-12
-1.41066e-12
-1.39269e-12
-1.38286e-12
-1.82984e-13
-1.86879e-13
-1.95071e-13
-2.05493e-13
-2.17569e-13
-2.29675e-13
-2.41343e-13
-2.51738e-13
-2.60224e-13
-2.66424e-13
-2.70743e-13
-2.7316e-13
-2.73989e-13
-2.73612e-13
-2.71615e-13
-2.69026e-13
-2.65387e-13
-2.61723e-13
-2.57621e-13
-2.5361e-13
-2.49159e-13
-2.45325e-13
-2.4157e-13
-2.37874e-13
-2.34938e-13
-2.32157e-13
-2.29848e-13
-2.28462e-13
-2.27252e-13
-2.26566e-13
-2.2642e-13
-2.27128e-13
-2.28175e-13
-2.29835e-13
-2.32336e-13
-2.34733e-13
-2.3773e-13
-2.4146e-13
-2.45075e-13
-2.49355e-13
-2.53357e-13
-2.57804e-13
-2.62058e-13
-2.65434e-13
-2.69071e-13
-2.71592e-13
-2.73657e-13
-2.74243e-13
-2.7336e-13
-2.70831e-13
-2.66693e-13
-2.60115e-13
-2.51664e-13
-2.41266e-13
-2.298e-13
-2.17705e-13
-2.05539e-13
-1.95167e-13
-1.87071e-13
-1.82809e-13
3.12215e-12
3.14096e-12
3.1772e-12
3.22418e-12
3.27641e-12
3.32868e-12
3.37613e-12
3.41727e-12
3.44936e-12
3.47317e-12
3.48817e-12
3.49659e-12
3.4976e-12
3.49411e-12
3.48566e-12
3.47413e-12
3.45993e-12
3.44474e-12
3.42833e-12
3.4124e-12
3.39537e-12
3.38035e-12
3.36501e-12
3.35126e-12
3.33936e-12
3.32915e-12
3.32034e-12
3.31423e-12
3.30946e-12
3.30734e-12
3.30708e-12
3.30928e-12
3.31392e-12
3.32049e-12
3.32927e-12
3.33907e-12
3.35113e-12
3.36497e-12
3.37973e-12
3.39578e-12
3.41188e-12
3.42864e-12
3.44539e-12
3.45995e-12
3.47427e-12
3.48543e-12
3.49399e-12
3.49774e-12
3.49639e-12
3.4883e-12
3.47348e-12
3.4495e-12
3.41741e-12
3.37626e-12
3.32858e-12
3.27682e-12
3.22396e-12
3.17727e-12
3.14095e-12
3.1213e-12
3.43404e-12
3.46251e-12
3.51579e-12
3.58592e-12
3.66487e-12
3.7437e-12
3.81694e-12
3.87924e-12
3.92936e-12
3.96613e-12
3.99123e-12
4.00337e-12
4.00642e-12
4.00085e-12
3.98904e-12
3.97175e-12
3.95124e-12
3.92695e-12
3.90204e-12
3.87589e-12
3.85064e-12
3.82585e-12
3.80304e-12
3.78253e-12
3.76354e-12
3.74745e-12
3.7349e-12
3.72491e-12
3.71847e-12
3.71447e-12
3.71481e-12
3.71806e-12
3.72458e-12
3.73437e-12
3.74744e-12
3.76358e-12
3.78272e-12
3.80322e-12
3.82626e-12
3.85067e-12
3.87605e-12
3.90153e-12
3.92657e-12
3.95106e-12
3.97165e-12
3.98908e-12
4.00102e-12
4.00662e-12
4.00335e-12
3.99078e-12
3.96629e-12
3.92961e-12
3.87892e-12
3.81669e-12
3.74367e-12
3.66434e-12
3.58605e-12
3.51562e-12
3.46291e-12
3.4349e-12
-5.96936e-13
-5.9387e-13
-5.89527e-13
-5.82884e-13
-5.76247e-13
-5.67152e-13
-5.59275e-13
-5.51801e-13
-5.44649e-13
-5.40223e-13
-5.3734e-13
-5.34511e-13
-5.32776e-13
-5.33142e-13
-5.34922e-13
-5.36222e-13
-5.39359e-13
-5.41466e-13
-5.44105e-13
-5.47996e-13
-5.50716e-13
-5.54017e-13
-5.56492e-13
-5.5965e-13
-5.6197e-13
-5.63349e-13
-5.65826e-13
-5.67304e-13
-5.67997e-13
-5.6757e-13
-5.68431e-13
-5.67126e-13
-5.66948e-13
-5.65747e-13
-5.63445e-13
-5.61897e-13
-5.59394e-13
-5.56536e-13
-5.53785e-13
-5.50535e-13
-5.47162e-13
-5.4362e-13
-5.41078e-13
-5.38968e-13
-5.3606e-13
-5.34833e-13
-5.33664e-13
-5.34135e-13
-5.34138e-13
-5.35982e-13
-5.40096e-13
-5.45031e-13
-5.51899e-13
-5.59158e-13
-5.67142e-13
-5.75625e-13
-5.83259e-13
-5.89061e-13
-5.95067e-13
-5.97224e-13
-2.79785e-12
-2.81691e-12
-2.85315e-12
-2.90165e-12
-2.95391e-12
-3.00734e-12
-3.05798e-12
-3.09828e-12
-3.13232e-12
-3.15534e-12
-3.17049e-12
-3.17897e-12
-3.18124e-12
-3.17765e-12
-3.16707e-12
-3.15652e-12
-3.14233e-12
-3.12689e-12
-3.11051e-12
-3.09349e-12
-3.07585e-12
-3.05934e-12
-3.04554e-12
-3.03039e-12
-3.01802e-12
-3.00877e-12
-2.99888e-12
-2.99215e-12
-2.98875e-12
-2.98589e-12
-2.98579e-12
-2.98815e-12
-2.9931e-12
-2.99797e-12
-3.00881e-12
-3.01748e-12
-3.03102e-12
-3.04612e-12
-3.05969e-12
-3.07673e-12
-3.09379e-12
-3.11116e-12
-3.12762e-12
-3.14287e-12
-3.15686e-12
-3.16717e-12
-3.1761e-12
-3.17942e-12
-3.17839e-12
-3.17143e-12
-3.1554e-12
-3.1317e-12
-3.0981e-12
-3.05676e-12
-3.00854e-12
-2.95429e-12
-2.90035e-12
-2.85422e-12
-2.81461e-12
-2.79758e-12
-1.46888e-12
-1.48202e-12
-1.50835e-12
-1.54189e-12
-1.58216e-12
-1.6204e-12
-1.65361e-12
-1.6854e-12
-1.71149e-12
-1.72921e-12
-1.74186e-12
-1.74798e-12
-1.75023e-12
-1.74669e-12
-1.74221e-12
-1.73352e-12
-1.72225e-12
-1.71086e-12
-1.69878e-12
-1.68509e-12
-1.6737e-12
-1.66205e-12
-1.65001e-12
-1.64049e-12
-1.63058e-12
-1.62213e-12
-1.61629e-12
-1.61079e-12
-1.60741e-12
-1.60805e-12
-1.6054e-12
-1.6082e-12
-1.61005e-12
-1.61766e-12
-1.62193e-12
-1.63185e-12
-1.63977e-12
-1.64911e-12
-1.66123e-12
-1.67193e-12
-1.68571e-12
-1.69774e-12
-1.70887e-12
-1.72226e-12
-1.73154e-12
-1.74282e-12
-1.74951e-12
-1.75149e-12
-1.74926e-12
-1.74242e-12
-1.73003e-12
-1.7124e-12
-1.68691e-12
-1.656e-12
-1.61896e-12
-1.58032e-12
-1.54338e-12
-1.50775e-12
-1.48462e-12
-1.4692e-12
-1.3149e-13
-1.36373e-13
-1.41157e-13
-1.48061e-13
-1.54327e-13
-1.61767e-13
-1.71456e-13
-1.78505e-13
-1.827e-13
-1.89058e-13
-1.89182e-13
-1.93021e-13
-1.91425e-13
-1.90908e-13
-1.90898e-13
-1.88128e-13
-1.86082e-13
-1.83453e-13
-1.80358e-13
-1.77629e-13
-1.77006e-13
-1.71717e-13
-1.6843e-13
-1.67076e-13
-1.65825e-13
-1.62389e-13
-1.64108e-13
-1.61108e-13
-1.60215e-13
-1.58191e-13
-1.60576e-13
-1.60779e-13
-1.63052e-13
-1.6231e-13
-1.64548e-13
-1.66346e-13
-1.66791e-13
-1.7042e-13
-1.72716e-13
-1.77699e-13
-1.78833e-13
-1.82723e-13
-1.84105e-13
-1.85926e-13
-1.89481e-13
-1.8786e-13
-1.89826e-13
-1.91226e-13
-1.92114e-13
-1.88869e-13
-1.87557e-13
-1.8116e-13
-1.77503e-13
-1.71096e-13
-1.63575e-13
-1.55199e-13
-1.48057e-13
-1.4227e-13
-1.33782e-13
-1.32639e-13
3.1941e-14
3.35825e-14
3.33086e-14
3.46237e-14
3.48407e-14
3.39446e-14
3.38079e-14
3.37909e-14
3.47861e-14
3.53636e-14
3.19602e-14
3.44528e-14
3.34001e-14
3.26249e-14
3.31105e-14
3.36624e-14
3.17321e-14
3.37847e-14
3.34812e-14
3.04433e-14
3.56953e-14
3.26115e-14
3.14389e-14
3.15025e-14
3.21269e-14
3.20127e-14
3.62226e-14
3.18843e-14
3.11122e-14
3.17755e-14
3.25453e-14
3.533e-14
3.52554e-14
3.3218e-14
3.35212e-14
3.46524e-14
3.26579e-14
3.23064e-14
3.23398e-14
3.57165e-14
3.31493e-14
3.57326e-14
3.1893e-14
3.31035e-14
3.48139e-14
3.23315e-14
3.43561e-14
3.41346e-14
3.48272e-14
3.36234e-14
3.55476e-14
3.34837e-14
3.42465e-14
3.50938e-14
3.56719e-14
3.45827e-14
3.4457e-14
3.38582e-14
3.11385e-14
3.21186e-14
-1.28311e-13
-1.28871e-13
-1.30411e-13
-1.33143e-13
-1.32812e-13
-1.34998e-13
-1.36493e-13
-1.39214e-13
-1.41398e-13
-1.4417e-13
-1.41824e-13
-1.42565e-13
-1.43085e-13
-1.44936e-13
-1.43579e-13
-1.44714e-13
-1.4092e-13
-1.42421e-13
-1.40396e-13
-1.39053e-13
-1.40071e-13
-1.37831e-13
-1.40708e-13
-1.38364e-13
-1.36215e-13
-1.35475e-13
-1.4036e-13
-1.35491e-13
-1.35844e-13
-1.36282e-13
-1.36614e-13
-1.36306e-13
-1.38354e-13
-1.34421e-13
-1.35664e-13
-1.4056e-13
-1.37567e-13
-1.39024e-13
-1.38295e-13
-1.40007e-13
-1.3798e-13
-1.43418e-13
-1.41318e-13
-1.42957e-13
-1.45434e-13
-1.42193e-13
-1.44982e-13
-1.45283e-13
-1.43347e-13
-1.43905e-13
-1.43348e-13
-1.40795e-13
-1.41941e-13
-1.38905e-13
-1.39116e-13
-1.37389e-13
-1.325e-13
-1.29357e-13
-1.27018e-13
-1.29814e-13
-1.62996e-13
-1.64582e-13
-1.67152e-13
-1.67457e-13
-1.74987e-13
-1.76031e-13
-1.81631e-13
-1.79617e-13
-1.84798e-13
-1.83834e-13
-1.88147e-13
-1.87172e-13
-1.88168e-13
-1.8626e-13
-1.85505e-13
-1.85645e-13
-1.87571e-13
-1.83929e-13
-1.85289e-13
-1.82568e-13
-1.79608e-13
-1.75532e-13
-1.77061e-13
-1.74616e-13
-1.76459e-13
-1.75395e-13
-1.75086e-13
-1.7475e-13
-1.73041e-13
-1.75684e-13
-1.74944e-13
-1.77779e-13
-1.72894e-13
-1.78554e-13
-1.74145e-13
-1.74218e-13
-1.81301e-13
-1.76571e-13
-1.8164e-13
-1.82741e-13
-1.83639e-13
-1.84771e-13
-1.83547e-13
-1.84396e-13
-1.83369e-13
-1.87539e-13
-1.87141e-13
-1.86637e-13
-1.89512e-13
-1.84007e-13
-1.82705e-13
-1.86521e-13
-1.7891e-13
-1.79957e-13
-1.76035e-13
-1.71279e-13
-1.68141e-13
-1.65654e-13
-1.63835e-13
-1.61122e-13
-1.09787e-13
-1.09685e-13
-1.07522e-13
-1.13568e-13
-1.16693e-13
-1.18283e-13
-1.17162e-13
-1.2644e-13
-1.24878e-13
-1.28958e-13
-1.28072e-13
-1.29858e-13
-1.29647e-13
-1.29867e-13
-1.26245e-13
-1.27066e-13
-1.25603e-13
-1.26821e-13
-1.2399e-13
-1.26729e-13
-1.23325e-13
-1.26587e-13
-1.18657e-13
-1.23433e-13
-1.1961e-13
-1.2026e-13
-1.15487e-13
-1.19196e-13
-1.18445e-13
-1.2023e-13
-1.16411e-13
-1.16252e-13
-1.22119e-13
-1.18344e-13
-1.21167e-13
-1.20969e-13
-1.1601e-13
-1.24254e-13
-1.21151e-13
-1.2083e-13
-1.24016e-13
-1.20328e-13
-1.27197e-13
-1.27646e-13
-1.29732e-13
-1.27552e-13
-1.27287e-13
-1.29127e-13
-1.2615e-13
-1.31283e-13
-1.29772e-13
-1.22503e-13
-1.27026e-13
-1.20912e-13
-1.17145e-13
-1.18141e-13
-1.13412e-13
-1.13692e-13
-1.11647e-13
-1.09174e-13
-5.29172e-14
-5.4855e-14
-5.74371e-14
-5.78898e-14
-5.62396e-14
-5.80632e-14
-6.6066e-14
-6.01291e-14
-6.37564e-14
-6.11997e-14
-6.17328e-14
-6.33577e-14
-6.1212e-14
-6.53862e-14
-6.95883e-14
-6.38782e-14
-6.09684e-14
-6.13917e-14
-6.33266e-14
-5.77486e-14
-5.85816e-14
-5.61239e-14
-6.44163e-14
-5.87449e-14
-5.84027e-14
-5.99561e-14
-6.09103e-14
-6.05586e-14
-5.97357e-14
-5.48439e-14
-5.90291e-14
-5.86104e-14
-5.97173e-14
-5.84642e-14
-6.4121e-14
-6.17753e-14
-6.12843e-14
-5.92389e-14
-6.24155e-14
-6.35107e-14
-6.28553e-14
-6.73902e-14
-6.12965e-14
-6.32894e-14
-5.98238e-14
-6.35035e-14
-6.49673e-14
-6.0772e-14
-6.59141e-14
-6.33431e-14
-6.014e-14
-6.63439e-14
-5.49352e-14
-6.02458e-14
-5.84978e-14
-5.6672e-14
-5.67595e-14
-5.51408e-14
-5.14686e-14
-5.15356e-14
-1.81296e-14
-1.67293e-14
-2.09809e-14
-1.82854e-14
-2.30787e-14
-2.63765e-14
-1.71252e-14
-2.29745e-14
-2.1783e-14
-2.38539e-14
-2.59519e-14
-2.24424e-14
-2.75265e-14
-2.2287e-14
-2.07458e-14
-2.7291e-14
-2.63559e-14
-2.50301e-14
-2.33322e-14
-2.26981e-14
-2.34901e-14
-2.62779e-14
-1.87699e-14
-2.05539e-14
-2.10188e-14
-2.39991e-14
-2.1362e-14
-2.03081e-14
-2.23142e-14
-2.49192e-14
-2.13761e-14
-2.40471e-14
-1.64024e-14
-2.16296e-14
-1.77372e-14
-1.83753e-14
-2.15753e-14
-2.19709e-14
-2.27213e-14
-2.30619e-14
-1.78511e-14
-1.95803e-14
-2.27044e-14
-2.38068e-14
-2.62294e-14
-2.51334e-14
-2.57834e-14
-2.72134e-14
-2.43739e-14
-2.04146e-14
-2.52881e-14
-2.36211e-14
-2.81539e-14
-2.23705e-14
-2.53151e-14
-1.8379e-14
-2.17649e-14
-1.70276e-14
-1.77527e-14
-2.18019e-14
-5.56484e-15
-4.46167e-15
-5.82873e-16
-6.96847e-15
-1.56904e-16
-3.88242e-16
-9.40896e-15
-5.48978e-15
-1.03954e-14
-6.45684e-15
-7.75014e-15
-7.748e-15
-6.51156e-15
-8.19662e-15
-5.92728e-15
-2.65277e-15
-9.45872e-15
-4.69245e-15
-4.38147e-15
-5.28078e-15
-5.15351e-15
-6.18815e-15
-5.60152e-15
-1.16128e-14
-9.27844e-15
-3.01696e-15
-6.15287e-15
-6.36911e-15
-6.08132e-15
-4.4521e-15
-4.52062e-15
-2.75689e-15
-8.97973e-15
-6.88027e-15
-6.91141e-15
-9.51528e-15
-7.12214e-15
-5.348e-15
-1.73828e-15
-3.45907e-15
-1.1383e-14
-9.08053e-15
-7.44267e-15
-5.14314e-15
-5.4203e-15
-4.42898e-15
-6.55527e-15
-7.44414e-15
-3.31791e-15
-7.76118e-15
-9.8737e-15
-4.01099e-15
-2.18604e-15
-3.61765e-15
-4.66337e-16
-7.31094e-15
-8.83055e-16
-8.56115e-15
-6.47188e-15
-3.23465e-15
7.84708e-15
1.46274e-15
3.9692e-15
4.27459e-15
1.05403e-16
6.81725e-16
2.51106e-15
3.81419e-15
5.94571e-15
4.73242e-15
3.19405e-15
2.7201e-15
8.02651e-16
5.39967e-15
-5.40743e-16
-2.07116e-15
7.29597e-15
6.64257e-15
1.71587e-15
1.23809e-15
1.68703e-15
5.4009e-15
-3.28964e-16
9.42886e-15
7.31553e-15
2.65836e-15
6.90231e-15
1.18733e-15
5.36457e-15
6.16801e-15
3.48825e-15
-2.62979e-15
5.34864e-15
-2.47189e-16
6.60362e-16
1.33135e-15
3.58116e-15
6.37227e-15
2.56546e-15
2.15986e-15
9.13823e-15
6.32588e-15
5.54703e-15
4.05072e-17
1.72895e-15
4.50494e-16
4.56009e-15
4.61982e-15
2.7721e-15
3.54334e-15
6.73903e-15
6.37215e-16
1.39017e-15
2.12964e-15
-2.51637e-15
1.52463e-16
2.37634e-15
2.57748e-15
1.48252e-15
2.01447e-15
2.93592e-15
6.77806e-15
1.42588e-15
1.13383e-14
9.16314e-15
2.45846e-15
7.10013e-15
5.0187e-15
2.90319e-15
2.90057e-15
4.67797e-15
6.3655e-15
8.35542e-15
1.72108e-15
4.42527e-15
7.80429e-15
7.02167e-15
-2.54886e-15
3.79708e-15
7.51301e-15
8.09157e-15
4.11085e-15
6.24749e-15
9.85366e-16
3.60522e-15
3.09286e-15
2.00004e-15
4.62869e-15
6.43027e-15
-2.80282e-15
1.76856e-15
8.50052e-15
4.10351e-15
9.61564e-15
8.21372e-15
3.20895e-15
5.26921e-15
1.98806e-15
-5.3333e-15
3.03412e-15
-2.93352e-16
2.19138e-15
5.41096e-15
5.81511e-15
9.78496e-15
7.14873e-15
1.96203e-15
8.98285e-15
6.20999e-15
4.0509e-15
4.22683e-15
3.3099e-15
9.6519e-15
5.99031e-15
8.79046e-15
7.39022e-15
4.57555e-15
8.71445e-15
-3.04447e-15
4.94598e-15
7.31367e-15
6.32686e-15
8.86432e-15
-3.78878e-15
3.10411e-15
5.69676e-15
2.32968e-15
5.61778e-15
9.73992e-15
4.54834e-15
7.20353e-15
1.78793e-15
2.90192e-15
7.31661e-15
6.58637e-15
2.87058e-15
3.3023e-15
8.93039e-15
4.26679e-15
9.31694e-16
3.82694e-15
8.81746e-15
3.48686e-15
5.74996e-15
5.57695e-15
5.97562e-15
4.82442e-15
7.97247e-15
3.83083e-17
1.06151e-14
8.00585e-15
6.69441e-15
6.04471e-15
5.2718e-15
2.88118e-15
7.93121e-15
4.81019e-15
5.49242e-15
1.58616e-14
8.84004e-15
8.49727e-15
4.59257e-15
6.63841e-15
6.44612e-15
3.48225e-15
1.26103e-15
9.9633e-15
-1.15829e-15
4.21456e-15
3.8263e-15
7.8443e-15
3.56677e-15
2.73446e-15
7.00558e-15
2.02152e-15
5.78151e-16
2.25294e-15
-1.40803e-15
8.45242e-15
7.81087e-15
-5.08318e-16
5.07429e-15
4.34305e-15
9.70129e-15
3.10331e-15
3.53173e-15
8.18732e-15
4.51073e-15
4.23343e-15
6.64437e-15
7.94583e-15
1.23625e-14
7.43728e-15
4.32001e-15
3.32795e-15
1.13633e-14
1.17963e-15
6.95638e-15
4.87064e-15
9.64688e-15
4.06862e-15
-1.65213e-15
1.06664e-14
4.1131e-15
-9.81932e-16
1.2043e-15
7.26769e-15
1.30378e-15
3.3763e-15
2.94792e-15
5.70688e-15
6.4132e-15
6.15114e-15
4.77412e-15
7.28688e-15
4.7753e-15
4.17165e-15
2.63465e-15
3.95689e-15
3.15668e-16
1.4765e-15
4.57701e-15
2.03801e-16
4.34868e-15
6.43453e-15
1.22405e-14
1.66395e-15
5.72204e-15
6.85441e-16
6.80549e-15
5.89455e-15
5.85676e-15
4.56595e-15
3.47877e-15
7.28956e-15
6.57863e-15
1.40586e-14
6.43531e-15
2.62824e-15
5.38104e-16
1.00148e-14
2.88411e-15
-1.18655e-16
-1.15479e-16
7.88228e-15
1.41875e-15
2.92261e-16
4.36607e-15
5.70375e-15
5.20017e-15
6.87471e-15
4.24936e-16
3.82961e-15
9.37915e-15
6.80751e-15
3.18844e-15
9.81801e-15
4.53389e-15
3.50045e-15
-6.74359e-16
2.33511e-15
9.17683e-15
-4.05971e-15
2.89401e-15
1.40745e-14
8.88158e-15
1.46651e-15
5.41605e-15
8.62458e-15
5.5225e-15
-4.36262e-16
5.47194e-15
1.0129e-14
8.16995e-17
1.78978e-15
3.50301e-15
6.46647e-15
5.98712e-15
3.02393e-15
6.19152e-15
7.01642e-15
8.25876e-15
4.68518e-15
2.99601e-16
2.88882e-15
-4.97404e-15
9.73894e-15
3.50662e-15
1.04559e-14
1.16915e-15
7.27068e-15
7.05524e-15
8.3544e-15
3.2259e-15
5.06985e-15
7.69683e-15
-1.25492e-15
3.93399e-15
6.16595e-15
7.59518e-15
-1.51255e-15
6.47022e-15
1.20385e-14
3.50902e-15
1.44895e-15
7.72849e-15
8.87363e-15
2.21278e-15
5.51722e-15
2.4005e-15
-1.71246e-15
6.72171e-15
5.97959e-17
4.95567e-15
4.04701e-15
1.59697e-15
3.89653e-15
2.18115e-15
3.02241e-15
1.33252e-14
7.55371e-15
8.33709e-15
1.42645e-14
1.74894e-15
-2.79569e-15
4.80873e-15
9.87441e-15
6.05208e-15
-2.6111e-15
1.35139e-16
1.49827e-14
-2.92604e-15
-6.22248e-15
5.47368e-15
1.07928e-14
3.07258e-16
4.97366e-15
3.10456e-15
2.88308e-15
1.39556e-15
4.93061e-15
3.80117e-15
5.17551e-15
1.31821e-14