/*--------------------------------*- C++ -*----------------------------------*\
| =========                 |                                                 |
| \\      /  F ield         | foam-extend: Open Source CFD                    |
|  \\    /   O peration     | Version:     4.0                                |
|   \\  /    A nd           | Web:         http://www.foam-extend.org         |
|    \\/     M anipulation  |                                                 |
\*---------------------------------------------------------------------------*/
FoamFile
{
    version     2.0;
    format      ascii;
    class       surfaceScalarField;
    location    "26";
    object      phi;
}
// * * * * * * * * * * * * * * * * * * * * * * * * * * * * * * * * * * * * * //

dimensions      [0 3 -1 0 0 0 0];

internalField   nonuniform List<scalar> 
13744
(
8.77833e-07
-8.77832e-07
1.64936e-06
-7.71526e-07
2.15416e-06
-5.04796e-07
2.39604e-06
-2.41882e-07
2.39556e-06
4.76154e-10
2.21026e-06
1.853e-07
1.90518e-06
3.05084e-07
1.53829e-06
3.66882e-07
1.15421e-06
3.84082e-07
7.83462e-07
3.70751e-07
4.44654e-07
3.38807e-07
1.47516e-07
2.97138e-07
-1.04259e-07
2.51775e-07
-3.10743e-07
2.06484e-07
-4.74161e-07
1.63418e-07
-5.97827e-07
1.23666e-07
-6.85488e-07
8.76615e-08
-7.40951e-07
5.54626e-08
-7.6788e-07
2.69295e-08
-7.69713e-07
1.83274e-09
-7.49627e-07
-2.0086e-08
-7.10546e-07
-3.90811e-08
-6.55159e-07
-5.53872e-08
-5.85946e-07
-6.92127e-08
-5.05208e-07
-8.07378e-08
-4.15094e-07
-9.01146e-08
-3.17625e-07
-9.74683e-08
-2.14728e-07
-1.02898e-07
-1.08251e-07
-1.06477e-07
2.88595e-12
-1.08254e-07
1.08257e-07
-1.08254e-07
2.14733e-07
-1.06476e-07
3.17631e-07
-1.02897e-07
4.15099e-07
-9.74679e-08
5.05213e-07
-9.01142e-08
5.8595e-07
-8.07373e-08
6.55162e-07
-6.92121e-08
7.10549e-07
-5.53866e-08
7.49629e-07
-3.90804e-08
7.69714e-07
-2.00852e-08
7.67881e-07
1.83357e-09
7.4095e-07
2.69304e-08
6.85487e-07
5.54635e-08
5.97825e-07
8.76625e-08
4.74158e-07
1.23667e-07
3.10739e-07
1.63419e-07
1.04254e-07
2.06485e-07
-1.47522e-07
2.51776e-07
-4.44661e-07
2.97139e-07
-7.83469e-07
3.38808e-07
-1.15422e-06
3.70752e-07
-1.5383e-06
3.84083e-07
-1.90519e-06
3.66883e-07
-2.21027e-06
3.05084e-07
-2.39557e-06
1.853e-07
-2.39605e-06
4.75525e-10
-2.15416e-06
-2.41883e-07
-1.64937e-06
-5.04798e-07
-8.77836e-07
-7.71529e-07
-8.77836e-07
2.75324e-06
-3.63107e-06
4.95921e-06
-2.97749e-06
6.49523e-06
-2.04082e-06
7.22848e-06
-9.75131e-07
7.23143e-06
-2.47656e-09
6.67643e-06
7.40309e-07
5.75889e-06
1.22262e-06
4.65347e-06
1.4723e-06
3.4948e-06
1.54275e-06
2.37526e-06
1.4903e-06
1.35134e-06
1.36273e-06
4.52701e-07
1.19577e-06
-3.09233e-07
1.01371e-06
-9.34487e-07
8.31737e-07
-1.42964e-06
6.58568e-07
-1.8046e-06
4.98625e-07
-2.07062e-06
3.53691e-07
-2.23919e-06
2.24024e-07
-2.32134e-06
1.09084e-07
-2.32747e-06
7.96114e-09
-2.26718e-06
-8.03752e-08
-2.14932e-06
-1.56942e-07
-1.98203e-06
-2.22678e-07
-1.77282e-06
-2.78421e-07
-1.52866e-06
-3.24894e-07
-1.25607e-06
-3.62706e-07
-9.61179e-07
-3.92362e-07
-6.49817e-07
-4.1426e-07
-3.27599e-07
-4.28694e-07
8.74239e-12
-4.35862e-07
3.27617e-07
-4.35862e-07
6.49834e-07
-4.28693e-07
9.61195e-07
-4.14259e-07
1.25609e-06
-3.92361e-07
1.52868e-06
-3.62705e-07
1.77283e-06
-3.24891e-07
1.98204e-06
-2.78419e-07
2.14933e-06
-2.22676e-07
2.26719e-06
-1.56939e-07
2.32747e-06
-8.03721e-08
2.32134e-06
7.96446e-09
2.23919e-06
1.09088e-07
2.07062e-06
2.24028e-07
1.80459e-06
3.53694e-07
1.42963e-06
4.98629e-07
9.34475e-07
6.58571e-07
3.09219e-07
8.31741e-07
-4.52718e-07
1.01371e-06
-1.35135e-06
1.19578e-06
-2.37528e-06
1.36273e-06
-3.49483e-06
1.4903e-06
-4.6535e-06
1.54276e-06
-5.75892e-06
1.4723e-06
-6.67646e-06
1.22262e-06
-7.23146e-06
7.40308e-07
-7.22851e-06
-2.47919e-09
-6.49526e-06
-9.75137e-07
-4.95922e-06
-2.04083e-06
-2.75325e-06
-2.97751e-06
-3.63108e-06
4.53831e-06
-8.16938e-06
8.30025e-06
-6.73943e-06
1.08759e-05
-4.61646e-06
1.21111e-05
-2.21036e-06
1.21244e-05
-1.58137e-08
1.12023e-05
1.66247e-06
9.67054e-06
2.75436e-06
7.82123e-06
3.32161e-06
5.88004e-06
3.48394e-06
4.00229e-06
3.36805e-06
2.28327e-06
3.08174e-06
7.73336e-07
2.70571e-06
-5.07881e-07
2.29493e-06
-1.56002e-06
1.88387e-06
-2.39383e-06
1.49238e-06
-3.02574e-06
1.13054e-06
-3.47454e-06
8.02492e-07
-3.7594e-06
5.08878e-07
-3.89884e-06
2.48523e-07
-3.91028e-06
1.94027e-08
-3.80986e-06
-1.8079e-07
-3.61246e-06
-3.54341e-07
-3.33178e-06
-5.03366e-07
-2.98045e-06
-6.29751e-07
-2.57021e-06
-7.35127e-07
-2.11205e-06
-8.20875e-07
-1.61628e-06
-8.8813e-07
-1.09275e-06
-9.37792e-07
-5.5091e-07
-9.70529e-07
1.4702e-11
-9.86787e-07
5.5094e-07
-9.86787e-07
1.09277e-06
-9.70528e-07
1.61631e-06
-9.37789e-07
2.11207e-06
-8.88127e-07
2.57024e-06
-8.20871e-07
2.98047e-06
-7.35122e-07
3.33179e-06
-6.29746e-07
3.61248e-06
-5.0336e-07
3.80987e-06
-3.54334e-07
3.91029e-06
-1.80783e-07
3.89884e-06
1.94102e-08
3.7594e-06
2.48531e-07
3.47454e-06
5.08886e-07
3.02573e-06
8.025e-07
2.39381e-06
1.13055e-06
1.56e-06
1.49238e-06
5.07857e-07
1.88388e-06
-7.73365e-07
2.29493e-06
-2.28331e-06
2.70572e-06
-4.00232e-06
3.08175e-06
-5.88008e-06
3.36806e-06
-7.82127e-06
3.48395e-06
-9.67059e-06
3.32162e-06
-1.12023e-05
2.75437e-06
-1.21245e-05
1.66247e-06
-1.21112e-05
-1.58197e-08
-1.08759e-05
-2.21037e-06
-8.30028e-06
-4.61648e-06
-4.53832e-06
-6.73946e-06
-8.16941e-06
6.31183e-06
-1.44812e-05
1.16332e-05
-1.20608e-05
1.5263e-05
-8.24628e-06
1.70081e-05
-3.95538e-06
1.70398e-05
-4.75781e-08
1.57569e-05
2.94545e-06
1.36144e-05
4.89677e-06
1.10218e-05
5.91429e-06
8.29592e-06
6.20979e-06
5.65581e-06
6.00815e-06
3.23632e-06
5.50123e-06
1.10912e-06
4.83291e-06
-6.97383e-07
4.10143e-06
-2.18207e-06
3.36856e-06
-3.35961e-06
2.66991e-06
-4.25282e-06
2.02375e-06
-4.88792e-06
1.43759e-06
-5.29177e-06
9.1273e-07
-5.4904e-06
4.47151e-07
-5.50831e-06
3.7307e-08
-5.36822e-06
-3.20877e-07
-5.09111e-06
-6.31454e-07
-4.69629e-06
-8.98184e-07
-4.20162e-06
-1.12442e-06
-3.62367e-06
-1.31307e-06
-2.97795e-06
-1.4666e-06
-2.27906e-06
-1.58702e-06
-1.54091e-06
-1.67594e-06
-7.76873e-07
-1.73457e-06
2.07352e-11
-1.76368e-06
7.76914e-07
-1.76368e-06
1.54095e-06
-1.73457e-06
2.2791e-06
-1.67594e-06
2.97799e-06
-1.58701e-06
3.62371e-06
-1.46659e-06
4.20165e-06
-1.31306e-06
4.69631e-06
-1.12441e-06
5.09113e-06
-8.98174e-07
5.36823e-06
-6.31442e-07
5.50832e-06
-3.20865e-07
5.4904e-06
3.73205e-08
5.29177e-06
4.47165e-07
4.88791e-06
9.12744e-07
4.25281e-06
1.43761e-06
3.35959e-06
2.02377e-06
2.18204e-06
2.66993e-06
6.97349e-07
3.36858e-06
-1.10916e-06
4.10144e-06
-3.23637e-06
4.83293e-06
-5.65586e-06
5.50124e-06
-8.29597e-06
6.00817e-06
-1.10218e-05
6.2098e-06
-1.36145e-05
5.91431e-06
-1.57569e-05
4.89678e-06
-1.70399e-05
2.94545e-06
-1.70081e-05
-4.75888e-08
-1.52631e-05
-3.9554e-06
-1.16333e-05
-8.24632e-06
-6.31185e-06
-1.20609e-05
-1.44813e-05
8.09877e-06
-2.258e-05
1.49342e-05
-1.88963e-05
1.96164e-05
-1.29285e-05
2.18753e-05
-6.21426e-06
2.19345e-05
-1.06772e-07
2.03014e-05
4.57856e-06
1.75582e-05
7.63997e-06
1.42298e-05
9.2427e-06
1.07243e-05
9.7153e-06
7.32431e-06
9.40812e-06
4.2048e-06
8.62074e-06
1.45932e-06
7.57839e-06
-8.74424e-07
6.43518e-06
-2.79411e-06
5.28825e-06
-4.318e-06
4.1938e-06
-5.47505e-06
3.18081e-06
-6.29878e-06
2.26132e-06
-6.82365e-06
1.4376e-06
-7.08312e-06
7.06625e-07
-7.10877e-06
6.29564e-08
-6.92992e-06
-4.99724e-07
-6.57366e-06
-9.87719e-07
-6.06495e-06
-1.40689e-06
-5.42689e-06
-1.76248e-06
-4.68094e-06
-2.05902e-06
-3.84716e-06
-2.30038e-06
-2.94447e-06
-2.4897e-06
-1.9909e-06
-2.62952e-06
-1.00377e-06
-2.7217e-06
2.6797e-11
-2.76747e-06
1.00382e-06
-2.76747e-06
1.99095e-06
-2.72169e-06
2.94452e-06
-2.62951e-06
3.8472e-06
-2.48969e-06
4.68098e-06
-2.30036e-06
5.42693e-06
-2.05901e-06
6.06498e-06
-1.76246e-06
6.57368e-06
-1.40688e-06
6.92994e-06
-9.87701e-07
7.10878e-06
-4.99704e-07
7.08312e-06
6.29775e-08
6.82364e-06
7.06648e-07
6.29877e-06
1.43762e-06
5.47503e-06
2.26135e-06
4.31797e-06
3.18083e-06
2.79407e-06
4.19382e-06
8.7438e-07
5.28827e-06
-1.45937e-06
6.4352e-06
-4.20486e-06
7.57841e-06
-7.32437e-06
8.62076e-06
-1.07243e-05
9.40814e-06
-1.42299e-05
9.71532e-06
-1.75583e-05
9.24272e-06
-2.03015e-05
7.63998e-06
-2.19346e-05
4.57856e-06
-2.18754e-05
-1.06789e-07
-1.96165e-05
-6.21429e-06
-1.49343e-05
-1.29285e-05
-8.09879e-06
-1.88964e-05
-2.258e-05
9.86142e-06
-3.24414e-05
1.81808e-05
-2.72157e-05
2.39e-05
-1.86477e-05
2.66735e-05
-8.98773e-06
2.677e-05
-2.03273e-07
2.48013e-05
6.54725e-06
2.14728e-05
1.09684e-05
1.74228e-05
1.32928e-05
1.3149e-05
1.39891e-05
8.99754e-06
1.35595e-05
5.18368e-06
1.24346e-05
1.82333e-06
1.09387e-05
-1.03599e-06
9.29449e-06
-3.39025e-06
7.64252e-06
-5.26092e-06
6.06447e-06
-6.68278e-06
4.60267e-06
-7.69641e-06
3.27495e-06
-8.3437e-06
2.08489e-06
-8.66547e-06
1.02839e-06
-8.70027e-06
9.77598e-08
-8.484e-06
-7.16003e-07
-8.0498e-06
-1.42191e-06
-7.42831e-06
-2.02838e-06
-6.64787e-06
-2.54293e-06
-5.7348e-06
-2.97209e-06
-4.71376e-06
-3.32142e-06
-3.608e-06
-3.59546e-06
-2.43966e-06
-3.79786e-06
-1.23006e-06
-3.9313e-06
3.28451e-11
-3.99757e-06
1.23012e-06
-3.99756e-06
2.43972e-06
-3.93129e-06
3.60806e-06
-3.79785e-06
4.71381e-06
-3.59545e-06
5.73485e-06
-3.3214e-06
6.64791e-06
-2.97207e-06
7.42835e-06
-2.54291e-06
8.04983e-06
-2.02836e-06
8.48402e-06
-1.42189e-06
8.70029e-06
-7.15974e-07
8.66548e-06
9.77903e-08
8.3437e-06
1.02842e-06
7.69639e-06
2.08492e-06
6.68276e-06
3.27499e-06
5.26088e-06
4.6027e-06
3.39021e-06
6.0645e-06
1.03593e-06
7.64255e-06
-1.82339e-06
9.29452e-06
-5.18376e-06
1.09388e-05
-8.99763e-06
1.24346e-05
-1.31491e-05
1.35596e-05
-1.74229e-05
1.39891e-05
-2.14729e-05
1.32928e-05
-2.48014e-05
1.09684e-05
-2.67701e-05
6.54724e-06
-2.66736e-05
-2.03297e-07
-2.39001e-05
-8.98778e-06
-1.81808e-05
-1.86478e-05
-9.86145e-06
-2.72158e-05
-3.24415e-05
1.15716e-05
-4.4013e-05
2.13442e-05
-3.69882e-05
2.80788e-05
-2.53824e-05
3.13644e-05
-1.22733e-05
3.15089e-05
-3.47782e-07
2.9223e-05
8.83317e-06
2.53303e-05
1.48611e-05
2.05788e-05
1.80442e-05
1.55543e-05
1.90136e-05
1.06656e-05
1.84482e-05
6.16813e-06
1.69321e-05
2.20058e-06
1.49063e-05
-1.17914e-06
1.26742e-05
-3.96481e-06
1.04282e-05
-6.18057e-06
8.28023e-06
-7.86667e-06
6.28877e-06
-9.07045e-06
4.47873e-06
-9.841e-06
2.85544e-06
-1.02263e-05
1.4137e-06
-1.02718e-05
1.4325e-07
-1.00198e-05
-9.67981e-07
-9.50956e-06
-1.93217e-06
-8.77725e-06
-2.76069e-06
-7.85642e-06
-3.46376e-06
-6.77828e-06
-4.05023e-06
-5.57204e-06
-4.52765e-06
-4.26528e-06
-4.90223e-06
-2.88426e-06
-5.17888e-06
-1.45427e-06
-5.36128e-06
3.88402e-11
-5.45188e-06
1.45435e-06
-5.45187e-06
2.88434e-06
-5.36128e-06
4.26535e-06
-5.17887e-06
5.57211e-06
-4.90221e-06
6.77834e-06
-4.52763e-06
7.85647e-06
-4.05021e-06
8.77729e-06
-3.46373e-06
9.50959e-06
-2.76066e-06
1.00198e-05
-1.93213e-06
1.02718e-05
-9.67942e-07
1.02263e-05
1.43292e-07
9.84099e-06
1.41374e-06
9.07043e-06
2.85549e-06
7.86664e-06
4.47877e-06
6.18053e-06
6.28882e-06
3.96475e-06
8.28027e-06
1.17908e-06
1.04282e-05
-2.20065e-06
1.26743e-05
-6.16821e-06
1.49063e-05
-1.06657e-05
1.69321e-05
-1.55544e-05
1.84483e-05
-2.05789e-05
1.90136e-05
-2.53304e-05
1.80443e-05
-2.92231e-05
1.48612e-05
-3.15091e-05
8.83317e-06
-3.13645e-05
-3.47816e-07
-2.8079e-05
-1.22734e-05
-2.13442e-05
-2.53825e-05
-1.15717e-05
-3.69883e-05
-4.40132e-05
1.32166e-05
-5.72296e-05
2.43955e-05
-4.81671e-05
3.21181e-05
-3.31049e-05
3.59099e-05
-1.60652e-05
3.61139e-05
-5.51786e-07
3.35328e-05
1.14143e-05
2.91023e-05
1.92916e-05
2.36759e-05
2.34706e-05
1.79245e-05
2.4765e-05
1.23185e-05
2.40543e-05
7.15319e-06
2.20974e-05
2.59045e-06
1.9469e-05
-1.30098e-06
1.65656e-05
-4.51205e-06
1.36392e-05
-7.06908e-06
1.08373e-05
-9.01731e-06
8.237e-06
-1.04104e-05
5.87186e-06
-1.13045e-05
3.74949e-06
-1.17544e-05
1.86358e-06
-1.18122e-05
2.01083e-07
-1.15267e-05
-1.25352e-06
-1.09429e-05
-2.51597e-06
-1.01025e-05
-3.60102e-06
-9.04435e-06
-4.52193e-06
-7.80435e-06
-5.29023e-06
-6.41626e-06
-5.91574e-06
-4.91193e-06
-6.40655e-06
-3.32174e-06
-6.76908e-06
-1.67491e-06
-7.00811e-06
4.47433e-11
-7.12683e-06
1.675e-06
-7.12683e-06
3.32182e-06
-7.0081e-06
4.91202e-06
-6.76906e-06
6.41633e-06
-6.40653e-06
7.80442e-06
-5.91571e-06
9.04441e-06
-5.2902e-06
1.01026e-05
-4.52189e-06
1.09429e-05
-3.60098e-06
1.15267e-05
-2.51593e-06
1.18122e-05
-1.25347e-06
1.17544e-05
2.01137e-07
1.13045e-05
1.86363e-06
1.04104e-05
3.74955e-06
9.01727e-06
5.87192e-06
7.06903e-06
8.23706e-06
4.51198e-06
1.08373e-05
1.3009e-06
1.36393e-05
-2.59053e-06
1.65657e-05
-7.15329e-06
1.94691e-05
-1.23186e-05
2.20974e-05
-1.79247e-05
2.40544e-05
-2.36761e-05
2.47651e-05
-2.91025e-05
2.34707e-05
-3.3533e-05
1.92916e-05
-3.61141e-05
1.14143e-05
-3.59101e-05
-5.5183e-07
-3.21182e-05
-1.60652e-05
-2.43956e-05
-3.31051e-05
-1.32166e-05
-4.81673e-05
-5.72298e-05
1.47843e-05
-7.20139e-05
2.73073e-05
-6.06902e-05
3.59821e-05
-4.17796e-05
4.02711e-05
-2.03541e-05
4.05468e-05
-8.2751e-07
3.76963e-05
1.42648e-05
3.27601e-05
2.42278e-05
2.66915e-05
2.95391e-05
2.02434e-05
3.12132e-05
1.39458e-05
3.03519e-05
8.13375e-06
2.79094e-05
2.99224e-06
2.46105e-05
-1.39855e-06
2.09564e-05
-5.02615e-06
1.72668e-05
-7.91844e-06
1.37295e-05
-1.01251e-05
1.04436e-05
-1.17057e-05
7.45249e-06
-1.27229e-05
4.76667e-06
-1.32382e-05
2.37885e-06
-1.33101e-05
2.73037e-07
-1.29936e-05
-1.57008e-06
-1.23394e-05
-3.17015e-06
-1.13947e-05
-4.5457e-06
-1.02033e-05
-5.71337e-06
-8.80579e-06
-6.6877e-06
-7.2405e-06
-7.48104e-06
-5.54345e-06
-8.1036e-06
-3.74905e-06
-8.56347e-06
-1.89045e-06
-8.86671e-06
5.05142e-11
-9.01733e-06
1.89055e-06
-9.01732e-06
3.74915e-06
-8.8667e-06
5.54354e-06
-8.56345e-06
7.24058e-06
-8.10357e-06
8.80587e-06
-7.48101e-06
1.02033e-05
-6.68766e-06
1.13948e-05
-5.71332e-06
1.23394e-05
-4.54565e-06
1.29936e-05
-3.17009e-06
1.33101e-05
-1.57001e-06
1.32382e-05
2.73106e-07
1.27229e-05
2.37892e-06
1.17057e-05
4.76674e-06
1.0125e-05
7.45257e-06
7.91839e-06
1.04437e-05
5.02608e-06
1.37296e-05
1.39847e-06
1.72669e-05
-2.99234e-06
2.09565e-05
-8.13387e-06
2.46106e-05
-1.39459e-05
2.79095e-05
-2.02435e-05
3.0352e-05
-2.66917e-05
3.12132e-05
-3.27602e-05
2.95392e-05
-3.76964e-05
2.42278e-05
-4.0547e-05
1.42648e-05
-4.02712e-05
-8.27566e-07
-3.59822e-05
-2.03542e-05
-2.73074e-05
-4.17798e-05
-1.47844e-05
-6.06904e-05
-7.20142e-05
1.62599e-05
-8.82738e-05
3.00522e-05
-7.44824e-05
3.96349e-05
-5.13623e-05
4.44083e-05
-2.51275e-05
4.47686e-05
-1.18787e-06
4.16783e-05
1.73552e-05
3.6274e-05
2.96321e-05
2.96025e-05
3.62106e-05
2.24942e-05
3.83214e-05
1.5537e-05
3.73091e-05
9.10453e-06
3.43419e-05
3.4052e-06
3.03099e-05
-1.46891e-06
2.58305e-05
-5.50122e-06
2.12992e-05
-8.72049e-06
1.69488e-05
-1.11802e-05
1.29033e-05
-1.29454e-05
9.21767e-06
-1.40847e-05
5.90597e-06
-1.46659e-05
2.96011e-06
-1.47539e-05
3.61012e-07
-1.44093e-05
-1.91467e-06
-1.36886e-05
-3.89086e-06
-1.26441e-05
-5.59016e-06
-1.13246e-05
-7.03294e-06
-9.77525e-06
-8.23702e-06
-8.03872e-06
-9.21757e-06
-6.15522e-06
-9.98711e-06
-4.16309e-06
-1.05556e-05
-2.09931e-06
-1.09305e-05
5.61115e-11
-1.11167e-05
2.09942e-06
-1.11167e-05
4.16319e-06
-1.09305e-05
6.15532e-06
-1.05556e-05
8.03882e-06
-9.98707e-06
9.77534e-06
-9.21752e-06
1.13246e-05
-8.23697e-06
1.26442e-05
-7.03288e-06
1.36886e-05
-5.59009e-06
1.44093e-05
-3.89079e-06
1.47539e-05
-1.91459e-06
1.46659e-05
3.61097e-07
1.40847e-05
2.9602e-06
1.29453e-05
5.90606e-06
1.11801e-05
9.21776e-06
8.72043e-06
1.29034e-05
5.50115e-06
1.69489e-05
1.46882e-06
2.12992e-05
-3.40531e-06
2.58306e-05
-9.10465e-06
3.031e-05
-1.55371e-05
3.4342e-05
-2.24944e-05
3.73092e-05
-2.96027e-05
3.83215e-05
-3.62742e-05
3.62107e-05
-4.16784e-05
2.96321e-05
-4.47688e-05
1.73552e-05
-4.44084e-05
-1.18794e-06
-3.9635e-05
-2.51277e-05
-3.00523e-05
-5.13625e-05
-1.626e-05
-7.44827e-05
-8.82741e-05
1.76277e-05
-0.000105902
3.26023e-05
-8.94571e-05
4.30403e-05
-6.18003e-05
4.82818e-05
-3.03691e-05
4.87404e-05
-1.64639e-06
4.54434e-05
2.06521e-05
3.96143e-05
3.54612e-05
3.23854e-05
4.34394e-05
2.46601e-05
4.60468e-05
1.70812e-05
4.48881e-05
1.00601e-05
4.1363e-05
3.82847e-06
3.65415e-05
-1.50914e-06
3.11682e-05
-5.93135e-06
2.57214e-05
-9.46702e-06
2.04845e-05
-1.21728e-05
1.56091e-05
-1.41184e-05
1.11633e-05
-1.53782e-05
7.16574e-06
-1.60258e-05
3.60772e-06
-1.61318e-05
4.67025e-07
-1.57625e-05
-2.28392e-06
-1.49798e-05
-4.67358e-06
-1.3841e-05
-6.72894e-06
-1.23996e-05
-8.47441e-06
-1.07053e-05
-9.93135e-06
-8.80484e-06
-1.1118e-05
-6.74258e-06
-1.20494e-05
-4.56071e-06
-1.27375e-05
-2.29992e-06
-1.31913e-05
6.14937e-11
-1.34167e-05
2.30004e-06
-1.34167e-05
4.56082e-06
-1.31913e-05
6.74269e-06
-1.27374e-05
8.80494e-06
-1.20493e-05
1.07053e-05
-1.11179e-05
1.23997e-05
-9.93129e-06
1.38411e-05
-8.47434e-06
1.49799e-05
-6.72886e-06
1.57626e-05
-4.67349e-06
1.61318e-05
-2.28382e-06
1.60258e-05
4.67128e-07
1.53782e-05
3.60783e-06
1.41184e-05
7.16586e-06
1.21727e-05
1.11634e-05
9.46695e-06
1.56092e-05
5.93126e-06
2.04846e-05
1.50904e-06
2.57215e-05
-3.82859e-06
3.11683e-05
-1.00602e-05
3.65416e-05
-1.70813e-05
4.13631e-05
-2.46603e-05
4.48882e-05
-3.23856e-05
4.60469e-05
-3.96145e-05
4.34395e-05
-4.54436e-05
3.54613e-05
-4.87406e-05
2.06521e-05
-4.8282e-05
-1.64647e-06
-4.30404e-05
-3.03693e-05
-3.26024e-05
-6.18005e-05
-1.76277e-05
-8.94574e-05
-0.000105902
1.88727e-05
-0.000124774
3.49306e-05
-0.000105515
4.61629e-05
-7.30327e-05
5.18528e-05
-3.60589e-05
5.24235e-05
-2.21712e-06
4.89568e-05
2.41189e-05
4.27514e-05
4.16666e-05
3.50172e-05
5.11737e-05
2.67243e-05
5.43396e-05
1.85676e-05
5.30448e-05
1.09949e-05
4.89356e-05
4.26113e-06
4.32753e-05
-1.51641e-06
3.69457e-05
-6.31071e-06
3.05157e-05
-1.01499e-05
2.43237e-05
-1.3093e-05
1.85522e-05
-1.52139e-05
1.32842e-05
-1.65919e-05
8.5437e-06
-1.7306e-05
4.32179e-06
-1.74321e-05
5.93207e-07
-1.7042e-05
-2.67402e-06
-1.62025e-05
-5.51311e-06
-1.49758e-05
-7.9557e-06
-1.34197e-05
-1.00305e-05
-1.15884e-05
-1.17626e-05
-9.53277e-06
-1.31736e-05
-7.30092e-06
-1.42812e-05
-4.93879e-06
-1.50996e-05
-2.49071e-06
-1.56393e-05
6.66193e-11
-1.59075e-05
2.49084e-06
-1.59074e-05
4.93891e-06
-1.56393e-05
7.30104e-06
-1.50996e-05
9.53289e-06
-1.42812e-05
1.15885e-05
-1.31735e-05
1.34198e-05
-1.17626e-05
1.49758e-05
-1.00304e-05
1.62026e-05
-7.95561e-06
1.70421e-05
-5.513e-06
1.74322e-05
-2.6739e-06
1.7306e-05
5.93329e-07
1.65919e-05
4.32192e-06
1.52139e-05
8.54383e-06
1.3093e-05
1.32843e-05
1.01499e-05
1.85523e-05
6.31062e-06
2.43238e-05
1.5163e-06
3.05158e-05
-4.26126e-06
3.69458e-05
-1.09951e-05
4.32754e-05
-1.85678e-05
4.89357e-05
-2.67245e-05
5.30449e-05
-3.50174e-05
5.43397e-05
-4.27516e-05
5.11737e-05
-4.8957e-05
4.16667e-05
-5.24237e-05
2.41188e-05
-5.1853e-05
-2.21722e-06
-4.61631e-05
-3.60591e-05
-3.49307e-05
-7.3033e-05
-1.88728e-05
-0.000105515
-0.000124775
1.99809e-05
-0.000144755
3.7011e-05
-0.000122545
4.89691e-05
-8.49907e-05
5.50838e-05
-4.21737e-05
5.57812e-05
-2.91448e-06
5.21848e-05
2.77152e-05
4.5657e-05
4.81944e-05
3.74753e-05
5.93554e-05
2.86705e-05
6.31444e-05
1.99857e-05
6.17296e-05
1.19037e-05
5.70176e-05
4.7022e-06
5.04768e-05
-1.48808e-06
4.3136e-05
-6.63376e-06
3.56613e-05
-1.07614e-05
2.84514e-05
-1.39316e-05
2.17223e-05
-1.62215e-05
1.55741e-05
-1.77147e-05
1.00369e-05
-1.84951e-05
5.10221e-06
-1.86437e-05
7.41791e-07
-1.82369e-05
-3.08077e-06
-1.73464e-05
-6.40361e-06
-1.60389e-05
-9.26324e-06
-1.43765e-05
-1.16928e-05
-1.24175e-05
-1.37216e-05
-1.02167e-05
-1.53745e-05
-7.82574e-06
-1.66721e-05
-5.29431e-06
-1.7631e-05
-2.67015e-06
-1.82635e-05
7.14485e-11
-1.85777e-05
2.67029e-06
-1.85777e-05
5.29444e-06
-1.82635e-05
7.82588e-06
-1.7631e-05
1.02168e-05
-1.66721e-05
1.24177e-05
-1.53744e-05
1.43766e-05
-1.37215e-05
1.6039e-05
-1.16927e-05
1.73465e-05
-9.26312e-06
1.8237e-05
-6.40349e-06
1.86437e-05
-3.08063e-06
1.84951e-05
7.41934e-07
1.77146e-05
5.10236e-06
1.62214e-05
1.00371e-05
1.39315e-05
1.55742e-05
1.07614e-05
2.17225e-05
6.63366e-06
2.84515e-05
1.48796e-06
3.56615e-05
-4.70234e-06
4.31361e-05
-1.19039e-05
5.04769e-05
-1.99859e-05
5.70178e-05
-2.86707e-05
6.17298e-05
-3.74755e-05
6.31446e-05
-4.56573e-05
5.93555e-05
-5.2185e-05
4.81945e-05
-5.57814e-05
2.77152e-05
-5.5084e-05
-2.9146e-06
-4.89692e-05
-4.21739e-05
-3.70111e-05
-8.49911e-05
-1.99809e-05
-0.000122546
-0.000144756
2.09394e-05
-0.000165695
3.882e-05
-0.000140426
5.14277e-05
-9.75984e-05
5.79406e-05
-4.86866e-05
5.87793e-05
-3.75313e-06
5.50963e-05
3.13981e-05
4.83046e-05
5.49861e-05
3.97388e-05
6.79212e-05
3.04833e-05
7.23999e-05
2.13255e-05
7.08874e-05
1.27813e-05
6.55619e-05
5.15065e-06
5.81074e-05
-1.42175e-06
4.97084e-05
-6.8954e-06
4.1135e-05
-1.12944e-05
3.28504e-05
-1.46797e-05
2.51077e-05
-1.71312e-05
1.80256e-05
-1.87361e-05
1.16418e-05
-1.95826e-05
5.94863e-06
-1.97559e-05
9.151e-07
-1.9337e-05
-3.4996e-06
-1.8402e-05
-7.33864e-06
-1.70217e-05
-1.06435e-05
-1.52623e-05
-1.34522e-05
-1.3186e-05
-1.5798e-05
-1.08511e-05
-1.77094e-05
-8.3129e-06
-1.92103e-05
-5.62445e-06
-2.03195e-05
-2.83683e-06
-2.10511e-05
7.59443e-11
-2.14146e-05
2.83698e-06
-2.14146e-05
5.6246e-06
-2.10511e-05
8.31304e-06
-2.03194e-05
1.08512e-05
-1.92102e-05
1.31861e-05
-1.77093e-05
1.52624e-05
-1.57979e-05
1.70218e-05
-1.34521e-05
1.84021e-05
-1.06434e-05
1.93371e-05
-7.3385e-06
1.97559e-05
-3.49945e-06
1.95826e-05
9.15264e-07
1.87361e-05
5.94881e-06
1.71312e-05
1.1642e-05
1.46797e-05
1.80258e-05
1.12943e-05
2.51078e-05
6.89529e-06
3.28505e-05
1.42162e-06
4.11352e-05
-5.15079e-06
4.97085e-05
-1.27814e-05
5.81076e-05
-2.13257e-05
6.55621e-05
-3.04835e-05
7.08876e-05
-3.9739e-05
7.24e-05
-4.83049e-05
6.79213e-05
-5.50966e-05
5.49862e-05
-5.87795e-05
3.13981e-05
-5.79408e-05
-3.75326e-06
-5.14279e-05
-4.86868e-05
-3.88202e-05
-9.75988e-05
-2.09395e-05
-0.000140426
-0.000165695
2.17375e-05
-0.000187432
4.03376e-05
-0.000159026
5.35125e-05
-0.000110773
6.03937e-05
-5.55678e-05
6.13882e-05
-4.74769e-06
5.76642e-05
3.51221e-05
5.0671e-05
6.19794e-05
4.17892e-05
7.6803e-05
3.21493e-05
8.20398e-05
2.25782e-05
8.04584e-05
1.36229e-05
7.45172e-05
5.60543e-06
6.61249e-05
-1.31545e-06
5.66293e-05
-7.09122e-06
4.69108e-05
-1.17424e-05
3.75016e-05
-1.53298e-05
2.8695e-05
-1.79347e-05
2.06305e-05
-1.96472e-05
1.33544e-05
-2.05591e-05
6.86049e-06
-2.07595e-05
1.11553e-06
-2.03335e-05
-3.92564e-06
-1.93609e-05
-8.31125e-06
-1.79165e-05
-1.20879e-05
-1.60703e-05
-1.52984e-05
-1.38879e-05
-1.79804e-05
-1.14311e-05
-2.01662e-05
-8.75868e-06
-2.18827e-05
-5.92673e-06
-2.31514e-05
-2.98949e-06
-2.39884e-05
8.00739e-11
-2.44042e-05
2.98965e-06
-2.44041e-05
5.92688e-06
-2.39883e-05
8.75883e-06
-2.31514e-05
1.14312e-05
-2.18827e-05
1.3888e-05
-2.01661e-05
1.60704e-05
-1.79802e-05
1.79166e-05
-1.52983e-05
1.93609e-05
-1.20878e-05
2.03335e-05
-8.31108e-06
2.07595e-05
-3.92546e-06
2.05591e-05
1.11572e-06
1.96472e-05
6.86068e-06
1.79346e-05
1.33546e-05
1.53297e-05
2.06307e-05
1.17423e-05
2.86952e-05
7.0911e-06
3.75018e-05
1.31532e-06
4.69109e-05
-5.60559e-06
5.66294e-05
-1.36231e-05
6.6125e-05
-2.25784e-05
7.45174e-05
-3.21495e-05
8.04586e-05
-4.17894e-05
8.204e-05
-5.06712e-05
7.68031e-05
-5.76645e-05
6.19795e-05
-6.13885e-05
3.51221e-05
-6.03939e-05
-4.74785e-06
-5.35127e-05
-5.55681e-05
-4.03377e-05
-0.000110774
-2.17376e-05
-0.000159026
-0.000187433
2.2367e-05
-0.000209799
4.15484e-05
-0.000178207
5.5203e-05
-0.000124428
6.24201e-05
-6.27848e-05
6.35849e-05
-5.91253e-06
5.98669e-05
3.88402e-05
5.27374e-05
6.91089e-05
4.36114e-05
8.5929e-05
3.36571e-05
9.19941e-05
2.37363e-05
9.03792e-05
1.44246e-05
8.38289e-05
6.06552e-06
7.4484e-05
-1.16775e-06
6.38625e-05
-7.21778e-06
5.29608e-05
-1.21007e-05
4.23845e-05
-1.58757e-05
3.247e-05
-1.86249e-05
2.33797e-05
-2.04405e-05
1.517e-05
-2.14171e-05
7.83703e-06
-2.16471e-05
1.34553e-06
-2.1219e-05
-4.35375e-06
-2.02162e-05
-9.31403e-06
-1.8717e-05
-1.35871e-05
-1.67947e-05
-1.72206e-05
-1.45184e-05
-2.02567e-05
-1.19529e-05
-2.27316e-05
-9.16012e-06
-2.46755e-05
-6.19913e-06
-2.61124e-05
-3.12711e-06
-2.70604e-05
8.38114e-11
-2.75313e-05
3.12728e-06
-2.75313e-05
6.19929e-06
-2.70603e-05
9.16027e-06
-2.61124e-05
1.19531e-05
-2.46754e-05
1.45185e-05
-2.27315e-05
1.67949e-05
-2.02566e-05
1.87171e-05
-1.72205e-05
2.02163e-05
-1.3587e-05
2.1219e-05
-9.31385e-06
2.16471e-05
-4.35355e-06
2.14171e-05
1.34574e-06
2.04405e-05
7.83725e-06
1.86248e-05
1.51702e-05
1.58756e-05
2.33799e-05
1.21006e-05
3.24702e-05
7.21766e-06
4.23847e-05
1.16761e-06
5.2961e-05
-6.06569e-06
6.38627e-05
-1.44248e-05
7.44842e-05
-2.37366e-05
8.38291e-05
-3.36573e-05
9.03794e-05
-4.36117e-05
9.19943e-05
-5.27377e-05
8.59291e-05
-5.98672e-05
6.9109e-05
-6.35852e-05
3.88401e-05
-6.24203e-05
-5.9127e-06
-5.52032e-05
-6.27852e-05
-4.15485e-05
-0.000124429
-2.23671e-05
-0.000178208
-0.0002098
2.28233e-05
-0.000232622
4.24439e-05
-0.000197828
5.64875e-05
-0.000138472
6.4006e-05
-7.03034e-05
6.53549e-05
-7.26137e-06
6.16904e-05
4.25046e-05
5.44916e-05
7.63077e-05
4.51954e-05
9.52252e-05
3.49991e-05
0.00010219
2.47946e-05
0.000100584
1.51834e-05
9.34401e-05
6.52991e-06
8.31375e-05
-9.77919e-07
7.13704e-05
-7.27299e-06
5.92559e-05
-1.23659e-05
4.74773e-05
-1.63133e-05
3.64175e-05
-1.91973e-05
2.62637e-05
-2.11112e-05
1.70839e-05
-2.21515e-05
8.87737e-06
-2.24136e-05
1.60757e-06
-2.19887e-05
-4.77864e-06
-2.09634e-05
-1.03393e-05
-1.9419e-05
-1.51315e-05
-1.7432e-05
-1.92076e-05
-1.50743e-05
-2.26144e-05
-1.24138e-05
-2.53921e-05
-9.51519e-06
-2.75742e-05
-6.44029e-06
-2.91873e-05
-3.24903e-06
-3.02516e-05
8.71393e-11
-3.07805e-05
3.2492e-06
-3.07804e-05
6.44046e-06
-3.02516e-05
9.51535e-06
-2.91873e-05
1.2414e-05
-2.75741e-05
1.50745e-05
-2.5392e-05
1.74322e-05
-2.26143e-05
1.94191e-05
-1.92074e-05
2.09635e-05
-1.51313e-05
2.19887e-05
-1.03391e-05
2.24136e-05
-4.77841e-06
2.21515e-05
1.6078e-06
2.11112e-05
8.87762e-06
1.91973e-05
1.70841e-05
1.63133e-05
2.6264e-05
1.23658e-05
3.64177e-05
7.27287e-06
4.74776e-05
9.77771e-07
5.92561e-05
-6.53008e-06
7.13706e-05
-1.51836e-05
8.31377e-05
-2.47948e-05
9.34403e-05
-3.49993e-05
0.000100584
-4.51956e-05
0.000102191
-5.44919e-05
9.52254e-05
-6.16907e-05
7.63078e-05
-6.53551e-05
4.25045e-05
-6.40063e-05
-7.26157e-06
-5.64877e-05
-7.03038e-05
-4.2444e-05
-0.000138472
-2.28233e-05
-0.000197828
-0.000232623
2.31067e-05
-0.000255729
4.30239e-05
-0.000217745
5.73647e-05
-0.000152812
6.51492e-05
-7.80879e-05
6.66947e-05
-8.8069e-06
6.3131e-05
4.60683e-05
5.59294e-05
8.35092e-05
4.65371e-05
0.000104618
3.61719e-05
0.000112556
2.57503e-05
0.000111005
1.58976e-05
0.000103293
6.99768e-06
9.20374e-05
-7.46166e-07
7.91142e-05
-7.25642e-06
6.57661e-05
-1.25371e-05
5.2758e-05
-1.66416e-05
4.0522e-05
-1.96505e-05
2.92726e-05
-2.16575e-05
1.90909e-05
-2.27607e-05
9.98053e-06
-2.30572e-05
1.90408e-06
-2.26409e-05
-5.19497e-06
-2.16008e-05
-1.13794e-05
-2.0021e-05
-1.67112e-05
-1.79807e-05
-2.12479e-05
-1.55545e-05
-2.50407e-05
-1.28129e-05
-2.81337e-05
-9.82316e-06
-3.05639e-05
-6.64972e-06
-3.23608e-05
-3.35497e-06
-3.35464e-05
9.00521e-11
-3.41355e-05
3.35515e-06
-3.41355e-05
6.64989e-06
-3.35464e-05
9.82333e-06
-3.23607e-05
1.28131e-05
-3.05638e-05
1.55546e-05
-2.81336e-05
1.79809e-05
-2.50405e-05
2.00211e-05
-2.12477e-05
2.16009e-05
-1.6711e-05
2.26409e-05
-1.13792e-05
2.30572e-05
-5.19472e-06
2.27607e-05
1.90435e-06
2.16575e-05
9.98081e-06
1.96504e-05
1.90912e-05
1.66415e-05
2.92729e-05
1.2537e-05
4.05222e-05
7.2563e-06
5.27583e-05
7.46013e-07
6.57664e-05
-6.99785e-06
7.91145e-05
-1.58978e-05
9.20377e-05
-2.57506e-05
0.000103293
-3.61722e-05
0.000111006
-4.65374e-05
0.000112556
-5.59297e-05
0.000104618
-6.31312e-05
8.35093e-05
-6.6695e-05
4.60683e-05
-6.51494e-05
-8.80712e-06
-5.73649e-05
-7.80883e-05
-4.30241e-05
-0.000152813
-2.31068e-05
-0.000217746
-0.00025573
2.32235e-05
-0.000278952
4.32987e-05
-0.00023782
5.78468e-05
-0.00016736
6.58616e-05
-8.61026e-05
6.7615e-05
-1.05603e-05
6.41967e-05
4.94866e-05
5.70569e-05
9.0649e-05
4.76405e-05
0.000114034
3.71779e-05
0.000123018
2.66046e-05
0.000121579
1.6567e-05
0.00011333
7.46803e-06
0.000101136
-4.73794e-07
8.7056e-05
-7.16975e-06
7.24621e-05
-1.26163e-05
5.82046e-05
-1.68624e-05
4.4768e-05
-1.99865e-05
3.23966e-05
-2.20817e-05
2.11861e-05
-2.32466e-05
1.11455e-05
-2.358e-05
2.23748e-06
-2.31775e-05
-5.59751e-06
-2.21303e-05
-1.24266e-05
-2.05247e-05
-1.83168e-05
-1.84424e-05
-2.33302e-05
-1.59602e-05
-2.75228e-05
-1.31512e-05
-3.09428e-05
-1.00848e-05
-3.36303e-05
-6.82795e-06
-3.56177e-05
-3.44522e-06
-3.69291e-05
9.25584e-11
-3.75808e-05
3.4454e-06
-3.75808e-05
6.82813e-06
-3.69291e-05
1.0085e-05
-3.56176e-05
1.31514e-05
-3.36302e-05
1.59604e-05
-3.09426e-05
1.84425e-05
-2.75227e-05
2.05249e-05
-2.333e-05
2.21304e-05
-1.83165e-05
2.31776e-05
-1.24264e-05
2.35801e-05
-5.59724e-06
2.32467e-05
2.23777e-06
2.20816e-05
1.11458e-05
1.99864e-05
2.11864e-05
1.68623e-05
3.2397e-05
1.26162e-05
4.47683e-05
7.16962e-06
5.82049e-05
4.73636e-07
7.24624e-05
-7.46822e-06
8.70563e-05
-1.65672e-05
0.000101137
-2.66048e-05
0.000113331
-3.71781e-05
0.000121579
-4.76408e-05
0.000123019
-5.70572e-05
0.000114034
-6.4197e-05
9.06491e-05
-6.76153e-05
4.94866e-05
-6.58619e-05
-1.05605e-05
-5.78471e-05
-8.61031e-05
-4.32989e-05
-0.000167361
-2.32235e-05
-0.000237821
-0.000278953
2.31864e-05
-0.000302139
4.32903e-05
-0.000257924
5.7961e-05
-0.000182031
6.61716e-05
-9.43132e-05
6.81419e-05
-1.25306e-05
6.49099e-05
5.27186e-05
5.78915e-05
9.76674e-05
4.85185e-05
0.000123407
3.80254e-05
0.000133511
2.73622e-05
0.000132242
1.71935e-05
0.000123499
7.94037e-06
0.000110389
-1.6335e-07
9.51597e-05
-7.01701e-06
7.93157e-05
-1.26087e-05
6.37963e-05
-1.69818e-05
4.91411e-05
-2.02117e-05
3.56266e-05
-2.23904e-05
2.33647e-05
-2.36162e-05
1.23714e-05
-2.39888e-05
2.61002e-06
-2.3605e-05
-5.98129e-06
-2.25579e-05
-1.34738e-05
-2.09356e-05
-1.9939e-05
-1.88219e-05
-2.5444e-05
-1.62957e-05
-3.00491e-05
-1.34321e-05
-3.38063e-05
-1.03028e-05
-3.67595e-05
-6.97677e-06
-3.89437e-05
-3.52066e-06
-4.03852e-05
9.46832e-11
-4.11016e-05
3.52085e-06
-4.11016e-05
6.97695e-06
-4.03852e-05
1.0303e-05
-3.89436e-05
1.34323e-05
-3.67594e-05
1.62958e-05
-3.38062e-05
1.8822e-05
-3.00489e-05
2.09358e-05
-2.54438e-05
2.2558e-05
-1.99387e-05
2.36051e-05
-1.34735e-05
2.39888e-05
-5.98099e-06
2.36163e-05
2.61034e-06
2.23903e-05
1.23717e-05
2.02117e-05
2.33651e-05
1.69817e-05
3.56269e-05
1.26086e-05