/*--------------------------------*- C++ -*----------------------------------*\
| =========                 |                                                 |
| \\      /  F ield         | foam-extend: Open Source CFD                    |
|  \\    /   O peration     | Version:     4.0                                |
|   \\  /    A nd           | Web:         http://www.foam-extend.org         |
|    \\/     M anipulation  |                                                 |
\*---------------------------------------------------------------------------*/
FoamFile
{
    version     2.0;
    format      ascii;
    class       volScalarField;
    location    "1520";
    object      cMinus;
}
// * * * * * * * * * * * * * * * * * * * * * * * * * * * * * * * * * * * * * //

dimensions      [0 0 0 0 0 0 0];

internalField   nonuniform List<scalar> 
6960
(
1.56324e-23
1.5641e-23
1.56403e-23
1.56379e-23
1.56352e-23
1.56327e-23
1.56304e-23
1.56283e-23
1.56265e-23
1.56249e-23
1.56236e-23
1.56224e-23
1.56213e-23
1.56205e-23
1.56197e-23
1.5619e-23
1.56185e-23
1.5618e-23
1.56176e-23
1.56173e-23
1.5617e-23
1.56168e-23
1.56166e-23
1.56164e-23
1.56163e-23
1.56162e-23
1.56162e-23
1.56161e-23
1.56161e-23
1.5616e-23
1.5616e-23
1.56161e-23
1.56161e-23
1.56162e-23
1.56162e-23
1.56163e-23
1.56164e-23
1.56166e-23
1.56168e-23
1.5617e-23
1.56173e-23
1.56176e-23
1.5618e-23
1.56185e-23
1.5619e-23
1.56197e-23
1.56205e-23
1.56213e-23
1.56224e-23
1.56236e-23
1.56249e-23
1.56265e-23
1.56283e-23
1.56304e-23
1.56327e-23
1.56352e-23
1.56379e-23
1.56403e-23
1.5641e-23
1.56324e-23
6.51743e-23
6.52146e-23
6.52164e-23
6.52111e-23
6.52045e-23
6.5198e-23
6.5192e-23
6.51866e-23
6.51819e-23
6.51777e-23
6.51741e-23
6.5171e-23
6.51682e-23
6.51659e-23
6.51639e-23
6.51622e-23
6.51607e-23
6.51595e-23
6.51584e-23
6.51575e-23
6.51568e-23
6.51562e-23
6.51557e-23
6.51553e-23
6.5155e-23
6.51548e-23
6.51546e-23
6.51545e-23
6.51544e-23
6.51543e-23
6.51543e-23
6.51544e-23
6.51545e-23
6.51546e-23
6.51548e-23
6.5155e-23
6.51553e-23
6.51557e-23
6.51562e-23
6.51568e-23
6.51575e-23
6.51584e-23
6.51595e-23
6.51607e-23
6.51622e-23
6.51639e-23
6.51659e-23
6.51682e-23
6.5171e-23
6.51741e-23
6.51777e-23
6.51819e-23
6.51866e-23
6.5192e-23
6.5198e-23
6.52045e-23
6.52111e-23
6.52164e-23
6.52146e-23
6.51743e-23
1.98531e-22
1.98668e-22
1.98691e-22
1.98691e-22
1.98687e-22
1.98681e-22
1.98675e-22
1.9867e-22
1.98665e-22
1.98661e-22
1.98658e-22
1.98654e-22
1.98652e-22
1.98649e-22
1.98647e-22
1.98645e-22
1.98644e-22
1.98643e-22
1.98641e-22
1.98641e-22
1.9864e-22
1.98639e-22
1.98639e-22
1.98638e-22
1.98638e-22
1.98638e-22
1.98638e-22
1.98638e-22
1.98638e-22
1.98638e-22
1.98638e-22
1.98638e-22
1.98638e-22
1.98638e-22
1.98638e-22
1.98638e-22
1.98638e-22
1.98639e-22
1.98639e-22
1.9864e-22
1.98641e-22
1.98641e-22
1.98643e-22
1.98644e-22
1.98645e-22
1.98647e-22
1.98649e-22
1.98652e-22
1.98654e-22
1.98658e-22
1.98661e-22
1.98665e-22
1.9867e-22
1.98675e-22
1.98681e-22
1.98687e-22
1.98691e-22
1.98691e-22
1.98668e-22
1.98531e-22
5.60692e-22
5.61125e-22
5.61243e-22
5.613e-22
5.61338e-22
5.61368e-22
5.61393e-22
5.61415e-22
5.61434e-22
5.6145e-22
5.61464e-22
5.61476e-22
5.61486e-22
5.61494e-22
5.61502e-22
5.61508e-22
5.61513e-22
5.61518e-22
5.61522e-22
5.61525e-22
5.61528e-22
5.6153e-22
5.61532e-22
5.61534e-22
5.61536e-22
5.61537e-22
5.61538e-22
5.61538e-22
5.61539e-22
5.61539e-22
5.61539e-22
5.61539e-22
5.61538e-22
5.61538e-22
5.61537e-22
5.61536e-22
5.61534e-22
5.61532e-22
5.6153e-22
5.61528e-22
5.61525e-22
5.61522e-22
5.61518e-22
5.61513e-22
5.61508e-22
5.61502e-22
5.61494e-22
5.61486e-22
5.61476e-22
5.61464e-22
5.6145e-22
5.61434e-22
5.61415e-22
5.61393e-22
5.61368e-22
5.61338e-22
5.613e-22
5.61243e-22
5.61125e-22
5.60692e-22
1.56632e-21
1.56767e-21
1.56817e-21
1.5685e-21
1.56877e-21
1.56899e-21
1.56919e-21
1.56936e-21
1.56951e-21
1.56964e-21
1.56976e-21
1.56985e-21
1.56994e-21
1.57001e-21
1.57007e-21
1.57012e-21
1.57017e-21
1.57021e-21
1.57024e-21
1.57027e-21
1.57029e-21
1.57031e-21
1.57032e-21
1.57034e-21
1.57035e-21
1.57036e-21
1.57037e-21
1.57037e-21
1.57037e-21
1.57038e-21
1.57038e-21
1.57037e-21
1.57037e-21
1.57037e-21
1.57036e-21
1.57035e-21
1.57034e-21
1.57032e-21
1.57031e-21
1.57029e-21
1.57027e-21
1.57024e-21
1.57021e-21
1.57017e-21
1.57012e-21
1.57007e-21
1.57001e-21
1.56994e-21
1.56985e-21
1.56976e-21
1.56964e-21
1.56951e-21
1.56936e-21
1.56919e-21
1.56899e-21
1.56877e-21
1.5685e-21
1.56817e-21
1.56767e-21
1.56632e-21
4.42811e-21
4.43235e-21
4.43427e-21
4.4357e-21
4.43692e-21
4.43799e-21
4.43893e-21
4.43975e-21
4.44048e-21
4.44111e-21
4.44165e-21
4.44212e-21
4.44253e-21
4.44288e-21
4.44317e-21
4.44343e-21
4.44364e-21
4.44382e-21
4.44398e-21
4.44411e-21
4.44422e-21
4.44431e-21
4.44439e-21
4.44445e-21
4.44451e-21
4.44455e-21
4.44458e-21
4.4446e-21
4.44462e-21
4.44463e-21
4.44463e-21
4.44462e-21
4.4446e-21
4.44458e-21
4.44455e-21
4.44451e-21
4.44445e-21
4.44439e-21
4.44431e-21
4.44422e-21
4.44411e-21
4.44398e-21
4.44382e-21
4.44364e-21
4.44343e-21
4.44317e-21
4.44288e-21
4.44253e-21
4.44212e-21
4.44165e-21
4.44111e-21
4.44048e-21
4.43975e-21
4.43893e-21
4.43799e-21
4.43692e-21
4.4357e-21
4.43427e-21
4.43235e-21
4.42811e-21
1.27797e-20
1.27931e-20
1.28002e-20
1.28059e-20
1.28108e-20
1.28152e-20
1.2819e-20
1.28224e-20
1.28254e-20
1.2828e-20
1.28303e-20
1.28322e-20
1.28339e-20
1.28353e-20
1.28366e-20
1.28376e-20
1.28385e-20
1.28393e-20
1.28399e-20
1.28404e-20
1.28409e-20
1.28413e-20
1.28416e-20
1.28418e-20
1.28421e-20
1.28422e-20
1.28424e-20
1.28425e-20
1.28425e-20
1.28426e-20
1.28426e-20
1.28425e-20
1.28425e-20
1.28424e-20
1.28422e-20
1.28421e-20
1.28418e-20
1.28416e-20
1.28413e-20
1.28409e-20
1.28404e-20
1.28399e-20
1.28393e-20
1.28385e-20
1.28376e-20
1.28366e-20
1.28353e-20
1.28339e-20
1.28322e-20
1.28303e-20
1.2828e-20
1.28254e-20
1.28224e-20
1.2819e-20
1.28152e-20
1.28108e-20
1.28059e-20
1.28002e-20
1.27931e-20
1.27797e-20
3.77821e-20
3.78257e-20
3.78512e-20
3.78726e-20
3.78916e-20
3.79084e-20
3.79233e-20
3.79364e-20
3.7948e-20
3.7958e-20
3.79667e-20
3.79743e-20
3.79808e-20
3.79863e-20
3.79911e-20
3.79952e-20
3.79986e-20
3.80015e-20
3.8004e-20
3.80061e-20
3.80079e-20
3.80094e-20
3.80106e-20
3.80116e-20
3.80124e-20
3.80131e-20
3.80136e-20
3.8014e-20
3.80142e-20
3.80143e-20
3.80143e-20
3.80142e-20
3.8014e-20
3.80136e-20
3.80131e-20
3.80124e-20
3.80116e-20
3.80106e-20
3.80094e-20
3.80079e-20
3.80061e-20
3.8004e-20
3.80015e-20
3.79986e-20
3.79952e-20
3.79911e-20
3.79863e-20
3.79808e-20
3.79743e-20
3.79667e-20
3.7958e-20
3.7948e-20
3.79364e-20
3.79233e-20
3.79084e-20
3.78916e-20
3.78726e-20
3.78512e-20
3.78257e-20
3.77821e-20
1.14588e-19
1.14732e-19
1.14824e-19
1.14903e-19
1.14974e-19
1.15037e-19
1.15093e-19
1.15143e-19
1.15186e-19
1.15224e-19
1.15257e-19
1.15286e-19
1.1531e-19
1.15331e-19
1.15349e-19
1.15364e-19
1.15377e-19
1.15389e-19
1.15398e-19
1.15406e-19
1.15412e-19
1.15418e-19
1.15423e-19
1.15426e-19
1.1543e-19
1.15432e-19
1.15434e-19
1.15435e-19
1.15436e-19
1.15437e-19
1.15437e-19
1.15436e-19
1.15435e-19
1.15434e-19
1.15432e-19
1.1543e-19
1.15426e-19
1.15423e-19
1.15418e-19
1.15412e-19
1.15406e-19
1.15398e-19
1.15389e-19
1.15377e-19
1.15364e-19
1.15349e-19
1.15331e-19
1.1531e-19
1.15286e-19
1.15257e-19
1.15224e-19
1.15186e-19
1.15143e-19
1.15093e-19
1.15037e-19
1.14974e-19
1.14903e-19
1.14824e-19
1.14732e-19
1.14588e-19
3.56746e-19
3.57231e-19
3.57564e-19
3.57856e-19
3.5812e-19
3.58355e-19
3.58565e-19
3.58749e-19
3.58911e-19
3.59053e-19
3.59176e-19
3.59282e-19
3.59374e-19
3.59452e-19
3.59519e-19
3.59577e-19
3.59626e-19
3.59667e-19
3.59702e-19
3.59731e-19
3.59756e-19
3.59777e-19
3.59794e-19
3.59809e-19
3.5982e-19
3.59829e-19
3.59836e-19
3.59842e-19
3.59845e-19
3.59847e-19
3.59847e-19
3.59845e-19
3.59842e-19
3.59836e-19
3.59829e-19
3.5982e-19
3.59809e-19
3.59794e-19
3.59777e-19
3.59756e-19
3.59731e-19
3.59702e-19
3.59667e-19
3.59626e-19
3.59577e-19
3.59519e-19
3.59452e-19
3.59374e-19
3.59282e-19
3.59176e-19
3.59053e-19
3.58911e-19
3.58749e-19
3.58565e-19
3.58355e-19
3.5812e-19
3.57856e-19
3.57564e-19
3.57231e-19
3.56746e-19
1.14045e-18
1.14212e-18
1.14333e-18
1.14442e-18
1.1454e-18
1.14628e-18
1.14706e-18
1.14775e-18
1.14836e-18
1.14889e-18
1.14935e-18
1.14974e-18
1.15009e-18
1.15038e-18
1.15063e-18
1.15085e-18
1.15103e-18
1.15118e-18
1.15132e-18
1.15143e-18
1.15152e-18
1.1516e-18
1.15166e-18
1.15171e-18
1.15176e-18
1.15179e-18
1.15182e-18
1.15184e-18
1.15185e-18
1.15186e-18
1.15186e-18
1.15185e-18
1.15184e-18
1.15182e-18
1.15179e-18
1.15176e-18
1.15171e-18
1.15166e-18
1.1516e-18
1.15152e-18
1.15143e-18
1.15132e-18
1.15118e-18
1.15103e-18
1.15085e-18
1.15063e-18
1.15038e-18
1.15009e-18
1.14974e-18
1.14935e-18
1.14889e-18
1.14836e-18
1.14775e-18
1.14706e-18
1.14628e-18
1.1454e-18
1.14442e-18
1.14333e-18
1.14212e-18
1.14045e-18
3.74407e-18
3.74995e-18
3.75443e-18
3.75849e-18
3.76217e-18
3.76548e-18
3.76843e-18
3.77103e-18
3.77332e-18
3.77531e-18
3.77705e-18
3.77855e-18
3.77984e-18
3.78095e-18
3.78189e-18
3.7827e-18
3.78339e-18
3.78398e-18
3.78447e-18
3.78489e-18
3.78524e-18
3.78553e-18
3.78577e-18
3.78597e-18
3.78614e-18
3.78627e-18
3.78637e-18
3.78644e-18
3.78649e-18
3.78651e-18
3.78651e-18
3.78649e-18
3.78644e-18
3.78637e-18
3.78627e-18
3.78614e-18
3.78597e-18
3.78577e-18
3.78553e-18
3.78524e-18
3.78489e-18
3.78447e-18
3.78398e-18
3.78339e-18
3.7827e-18
3.78189e-18
3.78095e-18
3.77984e-18
3.77855e-18
3.77705e-18
3.77531e-18
3.77332e-18
3.77103e-18
3.76843e-18
3.76548e-18
3.76217e-18
3.75849e-18
3.75443e-18
3.74995e-18
3.74407e-18
1.26228e-17
1.2644e-17
1.26608e-17
1.26762e-17
1.26902e-17
1.27028e-17
1.27141e-17
1.2724e-17
1.27327e-17
1.27403e-17
1.27469e-17
1.27526e-17
1.27576e-17
1.27618e-17
1.27654e-17
1.27685e-17
1.27711e-17
1.27734e-17
1.27752e-17
1.27768e-17
1.27782e-17
1.27793e-17
1.27802e-17
1.2781e-17
1.27816e-17
1.27821e-17
1.27825e-17
1.27828e-17
1.27829e-17
1.2783e-17
1.2783e-17
1.27829e-17
1.27828e-17
1.27825e-17
1.27821e-17
1.27816e-17
1.2781e-17
1.27802e-17
1.27793e-17
1.27782e-17
1.27768e-17
1.27752e-17
1.27734e-17
1.27711e-17
1.27685e-17
1.27654e-17
1.27618e-17
1.27576e-17
1.27526e-17
1.27469e-17
1.27403e-17
1.27327e-17
1.2724e-17
1.27141e-17
1.27028e-17
1.26902e-17
1.26762e-17
1.26608e-17
1.2644e-17
1.26228e-17
4.36973e-17
4.37754e-17
4.38395e-17
4.38988e-17
4.3953e-17
4.40017e-17
4.40451e-17
4.40835e-17
4.41172e-17
4.41466e-17
4.41722e-17
4.41943e-17
4.42134e-17
4.42297e-17
4.42438e-17
4.42557e-17
4.42659e-17
4.42745e-17
4.42818e-17
4.4288e-17
4.42931e-17
4.42975e-17
4.43011e-17
4.4304e-17
4.43064e-17
4.43083e-17
4.43098e-17
4.43109e-17
4.43116e-17
4.43119e-17
4.43119e-17
4.43116e-17
4.43109e-17
4.43098e-17
4.43083e-17
4.43064e-17
4.4304e-17
4.43011e-17
4.42975e-17
4.42931e-17
4.4288e-17
4.42818e-17
4.42745e-17
4.42659e-17
4.42557e-17
4.42438e-17
4.42297e-17
4.42134e-17
4.41943e-17
4.41722e-17
4.41466e-17
4.41172e-17
4.40835e-17
4.40451e-17
4.40017e-17
4.3953e-17
4.38988e-17
4.38395e-17
4.37754e-17
4.36973e-17
1.5528e-16
1.55575e-16
1.55824e-16
1.56056e-16
1.56269e-16
1.5646e-16
1.56631e-16
1.56781e-16
1.56914e-16
1.5703e-16
1.5713e-16
1.57217e-16
1.57292e-16
1.57357e-16
1.57412e-16
1.57459e-16
1.57499e-16
1.57533e-16
1.57561e-16
1.57586e-16
1.57606e-16
1.57623e-16
1.57637e-16
1.57649e-16
1.57658e-16
1.57666e-16
1.57672e-16
1.57676e-16
1.57678e-16
1.5768e-16
1.5768e-16
1.57678e-16
1.57676e-16
1.57672e-16
1.57666e-16
1.57658e-16
1.57649e-16
1.57637e-16
1.57623e-16
1.57606e-16
1.57586e-16
1.57561e-16
1.57533e-16
1.57499e-16
1.57459e-16
1.57412e-16
1.57357e-16
1.57292e-16
1.57217e-16
1.5713e-16
1.5703e-16
1.56914e-16
1.56781e-16
1.56631e-16
1.5646e-16
1.56269e-16
1.56056e-16
1.55824e-16
1.55575e-16
1.5528e-16
5.66168e-16
5.67304e-16
5.68292e-16
5.69217e-16
5.70066e-16
5.70831e-16
5.71513e-16
5.72116e-16
5.72646e-16
5.73109e-16
5.73511e-16
5.73859e-16
5.74159e-16
5.74417e-16
5.74638e-16
5.74826e-16
5.74986e-16
5.75122e-16
5.75237e-16
5.75334e-16
5.75415e-16
5.75483e-16
5.7554e-16
5.75586e-16
5.75624e-16
5.75654e-16
5.75677e-16
5.75694e-16
5.75705e-16
5.7571e-16
5.7571e-16
5.75705e-16
5.75694e-16
5.75677e-16
5.75654e-16
5.75624e-16
5.75586e-16
5.7554e-16
5.75483e-16
5.75415e-16
5.75334e-16
5.75237e-16
5.75122e-16
5.74986e-16
5.74826e-16
5.74638e-16
5.74417e-16
5.74159e-16
5.73859e-16
5.73511e-16
5.73109e-16
5.72646e-16
5.72116e-16
5.71513e-16
5.70831e-16
5.70066e-16
5.69217e-16
5.68292e-16
5.67304e-16
5.66168e-16
2.11673e-15
2.12121e-15
2.1252e-15
2.12896e-15
2.13241e-15
2.13552e-15
2.13829e-15
2.14075e-15
2.14291e-15
2.14479e-15
2.14643e-15
2.14785e-15
2.14907e-15
2.15012e-15
2.15102e-15
2.15178e-15
2.15243e-15
2.15299e-15
2.15346e-15
2.15385e-15
2.15418e-15
2.15446e-15
2.15469e-15
2.15488e-15
2.15503e-15
2.15516e-15
2.15525e-15
2.15532e-15
2.15536e-15
2.15538e-15
2.15538e-15
2.15536e-15
2.15532e-15
2.15525e-15
2.15516e-15
2.15503e-15
2.15488e-15
2.15469e-15
2.15446e-15
2.15418e-15
2.15385e-15
2.15346e-15
2.15299e-15
2.15243e-15
2.15178e-15
2.15102e-15
2.15012e-15
2.14907e-15
2.14785e-15
2.14643e-15
2.14479e-15
2.14291e-15
2.14075e-15
2.13829e-15
2.13552e-15
2.13241e-15
2.12896e-15
2.1252e-15
2.12121e-15
2.11673e-15
8.10778e-15
8.12581e-15
8.14223e-15
8.15776e-15
8.17204e-15
8.18492e-15
8.19641e-15
8.20658e-15
8.21552e-15
8.22332e-15
8.23011e-15
8.23599e-15
8.24105e-15
8.2454e-15
8.24912e-15
8.25229e-15
8.255e-15
8.25729e-15
8.25923e-15
8.26087e-15
8.26225e-15
8.2634e-15
8.26435e-15
8.26514e-15
8.26577e-15
8.26628e-15
8.26667e-15
8.26695e-15
8.26714e-15
8.26723e-15
8.26723e-15
8.26714e-15
8.26695e-15
8.26667e-15
8.26628e-15
8.26577e-15
8.26514e-15
8.26435e-15
8.2634e-15
8.26225e-15
8.26087e-15
8.25923e-15
8.25729e-15
8.255e-15
8.25229e-15
8.24912e-15
8.2454e-15
8.24105e-15
8.23599e-15
8.23011e-15
8.22332e-15
8.21552e-15
8.20658e-15
8.19641e-15
8.18492e-15
8.17204e-15
8.15776e-15
8.14223e-15
8.12581e-15
8.10778e-15
3.17807e-14
3.18548e-14
3.19236e-14
3.19889e-14
3.2049e-14
3.21033e-14
3.21517e-14
3.21945e-14
3.22322e-14
3.22651e-14
3.22937e-14
3.23185e-14
3.23398e-14
3.23581e-14
3.23738e-14
3.23872e-14
3.23986e-14
3.24083e-14
3.24165e-14
3.24234e-14
3.24292e-14
3.2434e-14
3.2438e-14
3.24413e-14
3.2444e-14
3.24462e-14
3.24478e-14
3.2449e-14
3.24498e-14
3.24502e-14
3.24502e-14
3.24498e-14
3.2449e-14
3.24478e-14
3.24462e-14
3.2444e-14
3.24413e-14
3.2438e-14
3.2434e-14
3.24292e-14
3.24234e-14
3.24165e-14
3.24083e-14
3.23986e-14
3.23872e-14
3.23738e-14
3.23581e-14
3.23398e-14
3.23185e-14
3.22937e-14
3.22651e-14
3.22322e-14
3.21945e-14
3.21517e-14
3.21033e-14
3.2049e-14
3.19889e-14
3.19236e-14
3.18548e-14
3.17807e-14
1.273e-13
1.27611e-13
1.27904e-13
1.28183e-13
1.2844e-13
1.28673e-13
1.2888e-13
1.29063e-13
1.29224e-13
1.29365e-13
1.29488e-13
1.29594e-13
1.29685e-13
1.29764e-13
1.29831e-13
1.29888e-13
1.29937e-13
1.29979e-13
1.30014e-13
1.30043e-13
1.30068e-13
1.30089e-13
1.30106e-13
1.3012e-13
1.30132e-13
1.30141e-13
1.30148e-13
1.30153e-13
1.30156e-13
1.30158e-13
1.30158e-13
1.30156e-13
1.30153e-13
1.30148e-13
1.30141e-13
1.30132e-13
1.3012e-13
1.30106e-13
1.30089e-13
1.30068e-13
1.30043e-13
1.30014e-13
1.29979e-13
1.29937e-13
1.29888e-13
1.29831e-13
1.29764e-13
1.29685e-13
1.29594e-13
1.29488e-13
1.29365e-13
1.29224e-13
1.29063e-13
1.2888e-13
1.28673e-13
1.2844e-13
1.28183e-13
1.27904e-13
1.27611e-13
1.273e-13
5.20148e-13
5.21473e-13
5.2274e-13
5.23951e-13
5.25068e-13
5.26076e-13
5.26976e-13
5.27773e-13
5.28474e-13
5.29086e-13
5.29618e-13
5.30079e-13
5.30476e-13
5.30817e-13
5.31109e-13
5.31358e-13
5.31571e-13
5.31751e-13
5.31903e-13
5.32031e-13
5.32139e-13
5.3223e-13
5.32305e-13
5.32366e-13
5.32416e-13
5.32456e-13
5.32486e-13
5.32509e-13
5.32523e-13
5.3253e-13
5.3253e-13
5.32523e-13
5.32509e-13
5.32486e-13
5.32456e-13
5.32416e-13
5.32366e-13
5.32305e-13
5.3223e-13
5.32139e-13
5.32031e-13
5.31903e-13
5.31751e-13
5.31571e-13
5.31358e-13
5.31109e-13
5.30817e-13
5.30476e-13
5.30079e-13
5.29618e-13
5.29086e-13
5.28474e-13
5.27773e-13
5.26976e-13
5.26076e-13
5.25068e-13
5.23951e-13
5.2274e-13
5.21473e-13
5.20148e-13
2.16327e-12
2.169e-12
2.17455e-12
2.17987e-12
2.18478e-12
2.18922e-12
2.19318e-12
2.19668e-12
2.19976e-12
2.20245e-12
2.2048e-12
2.20682e-12
2.20857e-12
2.21007e-12
2.21136e-12
2.21245e-12
2.21339e-12
2.21418e-12
2.21485e-12
2.21542e-12
2.21589e-12
2.21629e-12
2.21662e-12
2.21689e-12
2.21711e-12
2.21728e-12
2.21742e-12
2.21752e-12
2.21758e-12
2.21761e-12
2.21761e-12
2.21758e-12
2.21752e-12
2.21742e-12
2.21728e-12
2.21711e-12
2.21689e-12
2.21662e-12
2.21629e-12
2.21589e-12
2.21542e-12
2.21485e-12
2.21418e-12
2.21339e-12
2.21245e-12
2.21136e-12
2.21007e-12
2.20857e-12
2.20682e-12
2.2048e-12
2.20245e-12
2.19976e-12
2.19668e-12
2.19318e-12
2.18922e-12
2.18478e-12
2.17987e-12
2.17455e-12
2.169e-12
2.16327e-12
9.1334e-12
9.15851e-12
9.18312e-12
9.20674e-12
9.22853e-12
9.24823e-12
9.26582e-12
9.28139e-12
9.29508e-12
9.30704e-12
9.31745e-12
9.32645e-12
9.33422e-12
9.34089e-12
9.3466e-12
9.35148e-12
9.35563e-12
9.35915e-12
9.36213e-12
9.36464e-12
9.36675e-12
9.36851e-12
9.36998e-12
9.37118e-12
9.37216e-12
9.37294e-12
9.37353e-12
9.37397e-12
9.37425e-12
9.37439e-12
9.37439e-12
9.37425e-12
9.37397e-12
9.37353e-12
9.37294e-12
9.37216e-12
9.37118e-12
9.36998e-12
9.36851e-12
9.36675e-12
9.36464e-12
9.36213e-12
9.35915e-12
9.35563e-12
9.35148e-12
9.3466e-12
9.34089e-12
9.33422e-12
9.32645e-12
9.31745e-12
9.30704e-12
9.29508e-12
9.28139e-12
9.26582e-12
9.24823e-12
9.22853e-12
9.20674e-12
9.18312e-12
9.15851e-12
9.1334e-12
3.90236e-11
3.91345e-11
3.92444e-11
3.93499e-11
3.94474e-11
3.95354e-11
3.96141e-11
3.96838e-11
3.9745e-11
3.97985e-11
3.9845e-11
3.98853e-11
3.99201e-11
3.99499e-11
3.99755e-11
3.99973e-11
4.00158e-11
4.00316e-11
4.00449e-11
4.00562e-11
4.00656e-11
4.00735e-11
4.00801e-11
4.00855e-11
4.00898e-11
4.00933e-11
4.0096e-11
4.00979e-11
4.00992e-11
4.00998e-11
4.00998e-11
4.00992e-11
4.00979e-11
4.0096e-11
4.00933e-11
4.00898e-11
4.00855e-11
4.00801e-11
4.00735e-11
4.00656e-11
4.00562e-11
4.00449e-11
4.00316e-11
4.00158e-11
3.99973e-11
3.99755e-11
3.99499e-11
3.99201e-11
3.98853e-11
3.9845e-11
3.97985e-11
3.9745e-11
3.96838e-11
3.96141e-11
3.95354e-11
3.94474e-11
3.93499e-11
3.92444e-11
3.91345e-11
3.90236e-11
1.68103e-10
1.68595e-10
1.69087e-10
1.69561e-10
1.69997e-10
1.70393e-10
1.70745e-10
1.71058e-10
1.71332e-10
1.71573e-10
1.71781e-10
1.71962e-10
1.72118e-10
1.72252e-10
1.72367e-10
1.72464e-10
1.72548e-10
1.72618e-10
1.72678e-10
1.72729e-10
1.72771e-10
1.72806e-10
1.72836e-10
1.7286e-10
1.7288e-10
1.72895e-10
1.72907e-10
1.72916e-10
1.72921e-10
1.72924e-10
1.72924e-10
1.72921e-10
1.72916e-10
1.72907e-10
1.72895e-10
1.7288e-10
1.7286e-10
1.72836e-10
1.72806e-10
1.72771e-10
1.72729e-10
1.72678e-10
1.72618e-10
1.72548e-10
1.72464e-10
1.72367e-10
1.72252e-10
1.72118e-10
1.71962e-10
1.71781e-10
1.71573e-10
1.71332e-10
1.71058e-10
1.70745e-10
1.70393e-10
1.69997e-10
1.69561e-10
1.69087e-10
1.68595e-10
1.68103e-10
7.26906e-10
7.29095e-10
7.31296e-10
7.33414e-10
7.35371e-10
7.3714e-10
7.3872e-10
7.40119e-10
7.41349e-10
7.42424e-10
7.43359e-10
7.44169e-10
7.44867e-10
7.45466e-10
7.4598e-10
7.46418e-10
7.46791e-10
7.47108e-10
7.47375e-10
7.47601e-10
7.47791e-10
7.4795e-10
7.48081e-10
7.4819e-10
7.48277e-10
7.48347e-10
7.48401e-10
7.4844e-10
7.48465e-10
7.48478e-10
7.48478e-10
7.48465e-10
7.4844e-10
7.48401e-10
7.48347e-10
7.48277e-10
7.4819e-10
7.48081e-10
7.4795e-10
7.47791e-10
7.47601e-10
7.47375e-10
7.47108e-10
7.46791e-10
7.46418e-10
7.4598e-10
7.45466e-10
7.44867e-10
7.44169e-10
7.43359e-10
7.42424e-10
7.41349e-10
7.40119e-10
7.3872e-10
7.3714e-10
7.35371e-10
7.33414e-10
7.31296e-10
7.29095e-10
7.26906e-10
3.13932e-09
3.14899e-09
3.15878e-09
3.1682e-09
3.17689e-09
3.18476e-09
3.19179e-09
3.19801e-09
3.20348e-09
3.20826e-09
3.21241e-09
3.21601e-09
3.21912e-09
3.22179e-09
3.22407e-09
3.22602e-09
3.22768e-09
3.22908e-09
3.23027e-09
3.23128e-09
3.23212e-09
3.23283e-09
3.23341e-09
3.23389e-09
3.23429e-09
3.2346e-09
3.23483e-09
3.23501e-09
3.23512e-09
3.23518e-09
3.23518e-09
3.23512e-09
3.23501e-09
3.23483e-09
3.2346e-09
3.23429e-09
3.23389e-09
3.23341e-09
3.23283e-09
3.23212e-09
3.23128e-09
3.23027e-09
3.22908e-09
3.22768e-09
3.22602e-09
3.22407e-09
3.22179e-09
3.21912e-09
3.21601e-09
3.21241e-09
3.20826e-09
3.20348e-09
3.19801e-09
3.19179e-09
3.18476e-09
3.17689e-09
3.1682e-09
3.15878e-09
3.14899e-09
3.13932e-09
1.34621e-08
1.35043e-08
1.35472e-08
1.35886e-08
1.36267e-08
1.36612e-08
1.36921e-08
1.37194e-08
1.37434e-08
1.37643e-08
1.37826e-08
1.37984e-08
1.3812e-08
1.38237e-08
1.38337e-08
1.38423e-08
1.38495e-08
1.38557e-08
1.38609e-08
1.38654e-08
1.38691e-08
1.38721e-08
1.38747e-08
1.38768e-08
1.38785e-08
1.38799e-08
1.38809e-08
1.38817e-08
1.38822e-08
1.38824e-08
1.38824e-08
1.38822e-08
1.38817e-08
1.38809e-08
1.38799e-08
1.38785e-08
1.38768e-08
1.38747e-08
1.38721e-08
1.38691e-08
1.38654e-08
1.38609e-08
1.38557e-08
1.38495e-08
1.38423e-08
1.38337e-08
1.38237e-08
1.3812e-08
1.37984e-08
1.37826e-08
1.37643e-08
1.37434e-08
1.37194e-08
1.36921e-08
1.36612e-08
1.36267e-08
1.35886e-08
1.35472e-08
1.35043e-08
1.34621e-08
5.69388e-08
5.712e-08
5.73046e-08
5.74823e-08
5.76464e-08
5.77948e-08
5.79272e-08
5.80446e-08
5.81477e-08
5.82379e-08
5.83163e-08
5.83842e-08
5.84427e-08
5.8493e-08
5.85361e-08
5.85728e-08
5.86041e-08
5.86307e-08
5.86531e-08
5.86721e-08
5.8688e-08
5.87013e-08
5.87123e-08
5.87214e-08
5.87287e-08
5.87346e-08
5.87391e-08
5.87423e-08
5.87445e-08
5.87455e-08
5.87455e-08
5.87445e-08
5.87423e-08
5.87391e-08
5.87346e-08
5.87287e-08
5.87214e-08
5.87123e-08
5.87013e-08
5.8688e-08
5.86721e-08
5.86531e-08
5.86307e-08
5.86041e-08
5.85728e-08
5.85361e-08
5.8493e-08
5.84427e-08
5.83842e-08
5.83163e-08
5.82379e-08
5.81477e-08
5.80446e-08
5.79272e-08
5.77948e-08
5.76464e-08
5.74823e-08
5.73046e-08
5.712e-08
5.69388e-08
2.35746e-07
2.36502e-07
2.37274e-07
2.38017e-07
2.38702e-07
2.39322e-07
2.39875e-07
2.40365e-07
2.40796e-07
2.41172e-07
2.415e-07
2.41783e-07
2.42028e-07
2.42238e-07
2.42418e-07
2.42571e-07
2.42702e-07
2.42813e-07
2.42907e-07
2.42986e-07
2.43052e-07
2.43108e-07
2.43154e-07
2.43192e-07
2.43222e-07
2.43247e-07
2.43265e-07
2.43279e-07
2.43288e-07
2.43292e-07
2.43292e-07
2.43288e-07
2.43279e-07
2.43265e-07
2.43247e-07
2.43222e-07
2.43192e-07
2.43154e-07
2.43108e-07
2.43052e-07
2.42986e-07
2.42907e-07
2.42813e-07
2.42702e-07
2.42571e-07
2.42418e-07
2.42238e-07
2.42028e-07
2.41783e-07
2.415e-07
2.41172e-07
2.40796e-07
2.40365e-07
2.39875e-07
2.39322e-07
2.38702e-07
2.38017e-07
2.37274e-07
2.36502e-07
2.35746e-07
9.47377e-07
9.50421e-07
9.53531e-07
9.56518e-07
9.59274e-07
9.61765e-07
9.6399e-07
9.65959e-07
9.67691e-07
9.69204e-07
9.70521e-07
9.7166e-07
9.72643e-07
9.73487e-07
9.74209e-07
9.74826e-07
9.75351e-07
9.75797e-07
9.76174e-07
9.76492e-07
9.76759e-07
9.76982e-07
9.77167e-07
9.77319e-07
9.77443e-07
9.77541e-07
9.77616e-07
9.77671e-07
9.77707e-07
9.77724e-07
9.77724e-07
9.77707e-07
9.77671e-07
9.77616e-07
9.77541e-07
9.77443e-07
9.77319e-07
9.77167e-07
9.76982e-07
9.76759e-07
9.76492e-07
9.76174e-07
9.75797e-07
9.75351e-07
9.74826e-07
9.74209e-07
9.73487e-07
9.72643e-07
9.7166e-07
9.70521e-07
9.69204e-07
9.67691e-07
9.65959e-07
9.6399e-07
9.61765e-07
9.59274e-07
9.56518e-07
9.53531e-07
9.50421e-07
9.47377e-07
3.6602e-06
3.67189e-06
3.68383e-06
3.69527e-06
3.70583e-06
3.71537e-06
3.72388e-06
3.73142e-06
3.73805e-06
3.74384e-06
3.74888e-06
3.75324e-06
3.757e-06
3.76024e-06
3.763e-06
3.76536e-06
3.76737e-06
3.76908e-06
3.77052e-06
3.77174e-06
3.77276e-06
3.77361e-06
3.77432e-06
3.7749e-06
3.77538e-06
3.77575e-06
3.77604e-06
3.77625e-06
3.77639e-06
3.77645e-06
3.77645e-06
3.77639e-06
3.77625e-06
3.77604e-06
3.77575e-06
3.77538e-06
3.7749e-06
3.77432e-06
3.77361e-06
3.77276e-06
3.77174e-06
3.77052e-06
3.76908e-06
3.76737e-06
3.76536e-06
3.763e-06
3.76024e-06
3.757e-06
3.75324e-06
3.74888e-06
3.74384e-06
3.73805e-06
3.73142e-06
3.72388e-06
3.71537e-06
3.70583e-06
3.69527e-06
3.68383e-06
3.67189e-06
3.6602e-06
1.34516e-05
1.34939e-05
1.3537e-05
1.35783e-05
1.36163e-05
1.36507e-05
1.36814e-05
1.37085e-05
1.37324e-05
1.37533e-05
1.37714e-05
1.37871e-05
1.38007e-05
1.38123e-05
1.38222e-05
1.38307e-05
1.3838e-05
1.38441e-05
1.38493e-05
1.38537e-05
1.38574e-05
1.38604e-05
1.3863e-05
1.38651e-05
1.38668e-05
1.38681e-05
1.38692e-05
1.38699e-05
1.38704e-05
1.38707e-05
1.38707e-05
1.38704e-05
1.38699e-05
1.38692e-05
1.38681e-05
1.38668e-05
1.38651e-05
1.3863e-05
1.38604e-05
1.38574e-05
1.38537e-05
1.38493e-05
1.38441e-05
1.3838e-05
1.38307e-05
1.38222e-05
1.38123e-05
1.38007e-05
1.37871e-05
1.37714e-05
1.37533e-05
1.37324e-05
1.37085e-05
1.36814e-05
1.36507e-05
1.36163e-05
1.35783e-05
1.3537e-05
1.34939e-05
1.34516e-05
4.64725e-05
4.66148e-05
4.67594e-05
4.68976e-05
4.70248e-05
4.71397e-05
4.72422e-05
4.73329e-05
4.74127e-05
4.74824e-05
4.7543e-05
4.75955e-05
4.76407e-05
4.76796e-05
4.77129e-05
4.77412e-05
4.77654e-05
4.77859e-05
4.78033e-05
4.78179e-05
4.78302e-05
4.78405e-05
4.7849e-05
4.7856e-05
4.78617e-05
4.78662e-05
4.78697e-05
4.78722e-05
4.78738e-05
4.78746e-05
4.78746e-05
4.78738e-05
4.78722e-05
4.78697e-05
4.78662e-05
4.78617e-05
4.7856e-05
4.7849e-05
4.78405e-05
4.78302e-05
4.78179e-05
4.78033e-05
4.77859e-05
4.77654e-05
4.77412e-05
4.77129e-05
4.76796e-05
4.76407e-05
4.75955e-05
4.7543e-05
4.74824e-05
4.74127e-05
4.73329e-05
4.72422e-05
4.71397e-05
4.70248e-05
4.68976e-05
4.67594e-05
4.66148e-05
4.64725e-05
0.00014897
0.000149408
0.000149851
0.000150274
0.000150662
0.000151013
0.000151326
0.000151603
0.000151846
0.000152059
0.000152244
0.000152404
0.000152542
0.000152661
0.000152762
0.000152849
0.000152923
0.000152985
0.000153038
0.000153083
0.00015312
0.000153152
0.000153178
0.000153199
0.000153216
0.00015323
0.000153241
0.000153248
0.000153253
0.000153256
0.000153256
0.000153253
0.000153248
0.000153241
0.00015323
0.000153216
0.000153199
0.000153178
0.000153152
0.00015312
0.000153083
0.000153038
0.000152985
0.000152923
0.000152849
0.000152762
0.000152661
0.000152542
0.000152404
0.000152244
0.000152059
0.000151846
0.000151603
0.000151326
0.000151013
0.000150662
0.000150274
0.000149851
0.000149408
0.00014897
0.000436841
0.000438054
0.000439273
0.000440432
0.000441498
0.000442459
0.000443316
0.000444075
0.000444741
0.000445324
0.00044583
0.000446268
0.000446646
0.00044697
0.000447248
0.000447485
0.000447687
0.000447859
0.000448003
0.000448126
0.000448228
0.000448314
0.000448385
0.000448444
0.000448491
0.000448529
0.000448558
0.000448579
0.000448593
0.000448599
0.000448599
0.000448593
0.000448579
0.000448558
0.000448529
0.000448491
0.000448444
0.000448385
0.000448314
0.000448228
0.000448126
0.000448003
0.000447859
0.000447687
0.000447485
0.000447248
0.00044697
0.000446646
0.000446268
0.00044583
0.000445324
0.000444741
0.000444075
0.000443316
0.000442459
0.000441498
0.000440432
0.000439273
0.000438054
0.000436841
0.00115478
0.00115774
0.0011607
0.0011635
0.00116607
0.00116839
0.00117046
0.00117229
0.0011739
0.0011753
0.00117652
0.00117758
0.00117849
0.00117927
0.00117994
0.00118051
0.001181
0.00118141
0.00118176
0.00118205
0.0011823
0.00118251
0.00118268
0.00118282
0.00118293
0.00118302
0.00118309
0.00118315
0.00118318
0.00118319
0.00118319
0.00118318
0.00118315
0.00118309
0.00118302
0.00118293
0.00118282
0.00118268
0.00118251
0.0011823
0.00118205
0.00118176
0.00118141
0.001181
0.00118051
0.00117994
0.00117927
0.00117849
0.00117758
0.00117652
0.0011753
0.0011739
0.00117229
0.00117046
0.00116839
0.00116607
0.0011635
0.0011607
0.00115774
0.00115478
0.00271494
0.0027212
0.0027274
0.00273327
0.00273864
0.00274348
0.00274779
0.00275161
0.00275496
0.00275789
0.00276043
0.00276264
0.00276454
0.00276617
0.00276756
0.00276875
0.00276977
0.00277063
0.00277136
0.00277197
0.00277249
0.00277292
0.00277328
0.00277357
0.00277381
0.002774
0.00277414
0.00277425
0.00277432
0.00277435
0.00277435
0.00277432
0.00277425
0.00277414
0.002774
0.00277381
0.00277357
0.00277328
0.00277292
0.00277249
0.00277197
0.00277136
0.00277063
0.00276977
0.00276875
0.00276756
0.00276617
0.00276454
0.00276264
0.00276043
0.00275789
0.00275496
0.00275161
0.00274779
0.00274348
0.00273864
0.00273327
0.0027274
0.0027212
0.00271494
0.00562365
0.00563501
0.00564615
0.00565664
0.00566624
0.00567489
0.00568259
0.0056894
0.00569538
0.0057006
0.00570514
0.00570907
0.00571246
0.00571537
0.00571786
0.00571999
0.00572179
0.00572333
0.00572463
0.00572573
0.00572665
0.00572742
0.00572806
0.00572858
0.00572901
0.00572934
0.0057296
0.00572979
0.00572992
0.00572998
0.00572998
0.00572992
0.00572979
0.0057296
0.00572934
0.00572901
0.00572858
0.00572806
0.00572742
0.00572665
0.00572573
0.00572463
0.00572333
0.00572179
0.00571999
0.00571786
0.00571537
0.00571246
0.00570907
0.00570514
0.0057006
0.00569538
0.0056894
0.00568259
0.00567489
0.00566624
0.00565664
0.00564615
0.00563501
0.00562365
0.0102457
0.0102634
0.0102805
0.0102966
0.0103113
0.0103245
0.0103363
0.0103467
0.0103559
0.0103638
0.0103708
0.0103768
0.010382
0.0103864
0.0103902
0.0103935
0.0103962
0.0103986
0.0104006
0.0104022
0.0104037
0.0104048
0.0104058
0.0104066
0.0104073
0.0104078
0.0104082
0.0104085
0.0104087
0.0104088
0.0104088
0.0104087
0.0104085
0.0104082
0.0104078
0.0104073
0.0104066
0.0104058
0.0104048
0.0104037
0.0104022
0.0104006
0.0103986
0.0103962
0.0103935
0.0103902
0.0103864
0.010382
0.0103768
0.0103708
0.0103638
0.0103559
0.0103467
0.0103363
0.0103245
0.0103113
0.0102966
0.0102805
0.0102634
0.0102457
0.0165551
0.0165792
0.0166022
0.0166237
0.0166433
0.016661
0.0166767
0.0166906
0.0167028
0.0167134
0.0167227
0.0167307
0.0167376
0.0167435
0.0167486
0.0167529
0.0167566
0.0167597
0.0167624
0.0167646
0.0167665
0.0167681
0.0167694
0.0167705
0.0167713
0.016772
0.0167726
0.016773
0.0167732
0.0167733
0.0167733
0.0167732
0.016773
0.0167726
0.016772
0.0167713
0.0167705
0.0167694
0.0167681
0.0167665
0.0167646
0.0167624
0.0167597
0.0167566
0.0167529
0.0167486
0.0167435
0.0167376
0.0167307
0.0167227
0.0167134
0.0167028
0.0166906
0.0166767
0.016661
0.0166433
0.0166237
0.0166022
0.0165792
0.0165551
0.0241359
0.0241654
0.0241933
0.0242192
0.0242428
0.024264
0.0242829
0.0242996
0.0243143
0.0243271
0.0243382
0.0243478
0.0243561
0.0243633
0.0243694
0.0243746
0.024379
0.0243828
0.024386
0.0243887
0.024391
0.0243929
0.0243944
0.0243957
0.0243968
0.0243976
0.0243983
0.0243987
0.024399