/*--------------------------------*- C++ -*----------------------------------*\
| =========                 |                                                 |
| \\      /  F ield         | foam-extend: Open Source CFD                    |
|  \\    /   O peration     | Version:     4.0                                |
|   \\  /    A nd           | Web:         http://www.foam-extend.org         |
|    \\/     M anipulation  |                                                 |
\*---------------------------------------------------------------------------*/
FoamFile
{
    version     2.0;
    format      ascii;
    class       volScalarField;
    location    "670";
    object      cPlus;
}
// * * * * * * * * * * * * * * * * * * * * * * * * * * * * * * * * * * * * * //

dimensions      [0 0 0 0 0 0 0];

internalField   nonuniform List<scalar> 
6960
(
0.188025
0.187942
0.18791
0.187898
0.187894
0.187892
0.187892
0.187892
0.187892
0.187893
0.187893
0.187893
0.187893
0.187894
0.187894
0.187894
0.187894
0.187894
0.187895
0.187895
0.187895
0.187895
0.187895
0.187895
0.187895
0.187895
0.187895
0.187895
0.187895
0.187896
0.187896
0.187895
0.187895
0.187895
0.187895
0.187895
0.187895
0.187895
0.187895
0.187895
0.187895
0.187895
0.187894
0.187894
0.187894
0.187894
0.187894
0.187893
0.187893
0.187893
0.187893
0.187892
0.187892
0.187892
0.187892
0.187894
0.187898
0.18791
0.187942
0.188025
0.0552748
0.0552658
0.0552613
0.0552597
0.0552593
0.0552592
0.0552593
0.0552595
0.0552596
0.0552598
0.0552599
0.0552601
0.0552602
0.0552604
0.0552605
0.0552606
0.0552607
0.0552608
0.0552609
0.055261
0.0552611
0.0552612
0.0552612
0.0552613
0.0552613
0.0552614
0.0552614
0.0552614
0.0552614
0.0552614
0.0552614
0.0552614
0.0552614
0.0552614
0.0552614
0.0552613
0.0552613
0.0552612
0.0552612
0.0552611
0.055261
0.0552609
0.0552608
0.0552607
0.0552606
0.0552605
0.0552604
0.0552602
0.0552601
0.0552599
0.0552598
0.0552596
0.0552595
0.0552593
0.0552592
0.0552593
0.0552597
0.0552613
0.0552658
0.0552748
0.0381889
0.0382034
0.0382079
0.0382096
0.0382102
0.0382106
0.0382108
0.038211
0.0382111
0.0382113
0.0382114
0.0382115
0.0382116
0.0382117
0.0382118
0.0382119
0.038212
0.0382121
0.0382121
0.0382122
0.0382123
0.0382123
0.0382124
0.0382124
0.0382124
0.0382125
0.0382125
0.0382125
0.0382125
0.0382125
0.0382125
0.0382125
0.0382125
0.0382125
0.0382125
0.0382124
0.0382124
0.0382124
0.0382123
0.0382123
0.0382122
0.0382121
0.0382121
0.038212
0.0382119
0.0382118
0.0382117
0.0382116
0.0382115
0.0382114
0.0382113
0.0382111
0.038211
0.0382108
0.0382106
0.0382102
0.0382096
0.0382079
0.0382034
0.0381889
0.0365955
0.0366161
0.0366229
0.0366254
0.0366264
0.0366268
0.0366271
0.0366273
0.0366274
0.0366275
0.0366277
0.0366278
0.0366279
0.036628
0.0366281
0.0366282
0.0366282
0.0366283
0.0366284
0.0366284
0.0366285
0.0366285
0.0366286
0.0366286
0.0366287
0.0366287
0.0366287
0.0366287
0.0366287
0.0366287
0.0366287
0.0366287
0.0366287
0.0366287
0.0366287
0.0366287
0.0366286
0.0366286
0.0366285
0.0366285
0.0366284
0.0366284
0.0366283
0.0366282
0.0366282
0.0366281
0.036628
0.0366279
0.0366278
0.0366277
0.0366275
0.0366274
0.0366273
0.0366271
0.0366268
0.0366264
0.0366254
0.0366229
0.0366161
0.0365955
0.0372803
0.0373029
0.0373104
0.0373132
0.0373143
0.0373148
0.037315
0.0373152
0.0373154
0.0373155
0.0373157
0.0373158
0.0373159
0.037316
0.0373161
0.0373162
0.0373162
0.0373163
0.0373164
0.0373165
0.0373165
0.0373166
0.0373166
0.0373167
0.0373167
0.0373167
0.0373167
0.0373168
0.0373168
0.0373168
0.0373168
0.0373168
0.0373168
0.0373167
0.0373167
0.0373167
0.0373167
0.0373166
0.0373166
0.0373165
0.0373165
0.0373164
0.0373163
0.0373162
0.0373162
0.0373161
0.037316
0.0373159
0.0373158
0.0373157
0.0373155
0.0373154
0.0373152
0.037315
0.0373148
0.0373143
0.0373132
0.0373104
0.0373029
0.0372803
0.0384049
0.0384289
0.038437
0.0384399
0.0384411
0.0384416
0.0384419
0.0384421
0.0384423
0.0384424
0.0384426
0.0384427
0.0384428
0.0384429
0.038443
0.0384431
0.0384432
0.0384433
0.0384433
0.0384434
0.0384435
0.0384435
0.0384436
0.0384436
0.0384437
0.0384437
0.0384437
0.0384437
0.0384438
0.0384438
0.0384438
0.0384438
0.0384437
0.0384437
0.0384437
0.0384437
0.0384436
0.0384436
0.0384435
0.0384435
0.0384434
0.0384433
0.0384433
0.0384432
0.0384431
0.038443
0.0384429
0.0384428
0.0384427
0.0384426
0.0384424
0.0384423
0.0384421
0.0384419
0.0384416
0.0384411
0.0384399
0.038437
0.0384289
0.0384049
0.0397358
0.0397613
0.0397698
0.039773
0.0397742
0.0397748
0.0397751
0.0397753
0.0397755
0.0397757
0.0397758
0.0397759
0.0397761
0.0397762
0.0397763
0.0397764
0.0397765
0.0397766
0.0397767
0.0397767
0.0397768
0.0397769
0.0397769
0.039777
0.039777
0.039777
0.0397771
0.0397771
0.0397771
0.0397771
0.0397771
0.0397771
0.0397771
0.0397771
0.039777
0.039777
0.039777
0.0397769
0.0397769
0.0397768
0.0397767
0.0397767
0.0397766
0.0397765
0.0397764
0.0397763
0.0397762
0.0397761
0.0397759
0.0397758
0.0397757
0.0397755
0.0397753
0.0397751
0.0397748
0.0397742
0.039773
0.0397698
0.0397613
0.0397358
0.0412729
0.0413002
0.0413094
0.0413127
0.0413141
0.0413147
0.041315
0.0413153
0.0413155
0.0413156
0.0413158
0.041316
0.0413161
0.0413162
0.0413163
0.0413164
0.0413165
0.0413166
0.0413167
0.0413168
0.0413169
0.0413169
0.041317
0.0413171
0.0413171
0.0413171
0.0413172
0.0413172
0.0413172
0.0413172
0.0413172
0.0413172
0.0413172
0.0413172
0.0413171
0.0413171
0.0413171
0.041317
0.0413169
0.0413169
0.0413168
0.0413167
0.0413166
0.0413165
0.0413164
0.0413163
0.0413162
0.0413161
0.041316
0.0413158
0.0413156
0.0413155
0.0413153
0.041315
0.0413147
0.0413141
0.0413127
0.0413094
0.0413002
0.0412729
0.0430606
0.0430901
0.0431
0.0431036
0.043105
0.0431057
0.0431061
0.0431063
0.0431066
0.0431068
0.0431069
0.0431071
0.0431072
0.0431074
0.0431075
0.0431076
0.0431077
0.0431079
0.0431079
0.043108
0.0431081
0.0431082
0.0431083
0.0431083
0.0431084
0.0431084
0.0431084
0.0431085
0.0431085
0.0431085
0.0431085
0.0431085
0.0431085
0.0431084
0.0431084
0.0431084
0.0431083
0.0431083
0.0431082
0.0431081
0.043108
0.0431079
0.0431079
0.0431077
0.0431076
0.0431075
0.0431074
0.0431072
0.0431071
0.0431069
0.0431068
0.0431066
0.0431063
0.0431061
0.0431057
0.043105
0.0431036
0.0431
0.0430901
0.0430606
0.0451659
0.045198
0.0452088
0.0452127
0.0452143
0.0452151
0.0452155
0.0452158
0.045216
0.0452162
0.0452164
0.0452166
0.0452168
0.0452169
0.0452171
0.0452172
0.0452173
0.0452175
0.0452176
0.0452177
0.0452177
0.0452178
0.0452179
0.045218
0.045218
0.0452181
0.0452181
0.0452181
0.0452181
0.0452182
0.0452182
0.0452181
0.0452181
0.0452181
0.0452181
0.045218
0.045218
0.0452179
0.0452178
0.0452177
0.0452177
0.0452176
0.0452175
0.0452173
0.0452172
0.0452171
0.0452169
0.0452168
0.0452166
0.0452164
0.0452162
0.045216
0.0452158
0.0452155
0.0452151
0.0452143
0.0452127
0.0452088
0.045198
0.0451659
0.047684
0.0477195
0.0477314
0.0477358
0.0477376
0.0477384
0.0477389
0.0477392
0.0477395
0.0477397
0.0477399
0.0477401
0.0477403
0.0477405
0.0477407
0.0477408
0.047741
0.0477411
0.0477412
0.0477413
0.0477414
0.0477415
0.0477416
0.0477417
0.0477417
0.0477418
0.0477418
0.0477419
0.0477419
0.0477419
0.0477419
0.0477419
0.0477419
0.0477418
0.0477418
0.0477417
0.0477417
0.0477416
0.0477415
0.0477414
0.0477413
0.0477412
0.0477411
0.047741
0.0477408
0.0477407
0.0477405
0.0477403
0.0477401
0.0477399
0.0477397
0.0477395
0.0477392
0.0477389
0.0477384
0.0477376
0.0477358
0.0477314
0.0477195
0.047684
0.0507535
0.0507934
0.0508068
0.0508117
0.0508137
0.0508146
0.0508152
0.0508156
0.0508159
0.0508162
0.0508164
0.0508167
0.0508169
0.0508171
0.0508173
0.0508175
0.0508176
0.0508178
0.0508179
0.050818
0.0508182
0.0508183
0.0508184
0.0508184
0.0508185
0.0508186
0.0508186
0.0508187
0.0508187
0.0508187
0.0508187
0.0508187
0.0508187
0.0508186
0.0508186
0.0508185
0.0508184
0.0508184
0.0508183
0.0508182
0.050818
0.0508179
0.0508178
0.0508176
0.0508175
0.0508173
0.0508171
0.0508169
0.0508167
0.0508164
0.0508162
0.0508159
0.0508156
0.0508152
0.0508146
0.0508137
0.0508117
0.0508068
0.0507934
0.0507535
0.0545808
0.0546266
0.054642
0.0546477
0.05465
0.0546511
0.0546517
0.0546521
0.0546525
0.0546528
0.0546532
0.0546534
0.0546537
0.0546539
0.0546542
0.0546544
0.0546546
0.0546548
0.0546549
0.0546551
0.0546552
0.0546554
0.0546555
0.0546556
0.0546556
0.0546557
0.0546558
0.0546558
0.0546558
0.0546559
0.0546559
0.0546558
0.0546558
0.0546558
0.0546557
0.0546556
0.0546556
0.0546555
0.0546554
0.0546552
0.0546551
0.0546549
0.0546548
0.0546546
0.0546544
0.0546542
0.0546539
0.0546537
0.0546534
0.0546532
0.0546528
0.0546525
0.0546521
0.0546517
0.0546511
0.05465
0.0546477
0.054642
0.0546266
0.0545808
0.0594788
0.0595327
0.0595509
0.0595577
0.0595604
0.0595617
0.0595625
0.059563
0.0595635
0.0595639
0.0595642
0.0595646
0.0595649
0.0595652
0.0595655
0.0595657
0.059566
0.0595662
0.0595664
0.0595666
0.0595668
0.0595669
0.0595671
0.0595672
0.0595673
0.0595674
0.0595674
0.0595675
0.0595675
0.0595675
0.0595675
0.0595675
0.0595675
0.0595674
0.0595674
0.0595673
0.0595672
0.0595671
0.0595669
0.0595668
0.0595666
0.0595664
0.0595662
0.059566
0.0595657
0.0595655
0.0595652
0.0595649
0.0595646
0.0595642
0.0595639
0.0595635
0.059563
0.0595625
0.0595617
0.0595604
0.0595577
0.0595509
0.0595327
0.0594788
0.0659158
0.0659813
0.0660035
0.0660117
0.0660151
0.0660167
0.0660176
0.0660183
0.0660189
0.0660194
0.0660198
0.0660203
0.0660207
0.066021
0.0660214
0.0660217
0.066022
0.0660223
0.0660226
0.0660228
0.066023
0.0660232
0.0660234
0.0660235
0.0660237
0.0660238
0.0660239
0.0660239
0.066024
0.066024
0.066024
0.066024
0.0660239
0.0660239
0.0660238
0.0660237
0.0660235
0.0660234
0.0660232
0.066023
0.0660228
0.0660226
0.0660223
0.066022
0.0660217
0.0660214
0.066021
0.0660207
0.0660203
0.0660198
0.0660194
0.0660189
0.0660183
0.0660176
0.0660167
0.0660151
0.0660117
0.0660035
0.0659813
0.0659158
0.0745522
0.074634
0.0746619
0.0746723
0.0746765
0.0746785
0.0746797
0.0746806
0.0746813
0.074682
0.0746826
0.0746831
0.0746836
0.0746841
0.0746846
0.074685
0.0746854
0.0746857
0.0746861
0.0746864
0.0746866
0.0746869
0.0746871
0.0746873
0.0746875
0.0746876
0.0746877
0.0746878
0.0746879
0.0746879
0.0746879
0.0746879
0.0746878
0.0746877
0.0746876
0.0746875
0.0746873
0.0746871
0.0746869
0.0746866
0.0746864
0.0746861
0.0746857
0.0746854
0.074685
0.0746846
0.0746841
0.0746836
0.0746831
0.0746826
0.074682
0.0746813
0.0746806
0.0746797
0.0746785
0.0746765
0.0746723
0.0746619
0.074634
0.0745522
0.0862061
0.08631
0.0863457
0.086359
0.0863645
0.0863671
0.0863686
0.0863697
0.0863707
0.0863715
0.0863722
0.0863729
0.0863736
0.0863742
0.0863748
0.0863753
0.0863758
0.0863763
0.0863767
0.0863771
0.0863775
0.0863778
0.0863781
0.0863783
0.0863786
0.0863787
0.0863789
0.086379
0.0863791
0.0863791
0.0863791
0.0863791
0.086379
0.0863789
0.0863787
0.0863786
0.0863783
0.0863781
0.0863778
0.0863775
0.0863771
0.0863767
0.0863763
0.0863758
0.0863753
0.0863748
0.0863742
0.0863736
0.0863729
0.0863722
0.0863715
0.0863707
0.0863697
0.0863686
0.0863671
0.0863645
0.086359
0.0863457
0.08631
0.0862061
0.101676
0.101808
0.101854
0.101871
0.101878
0.101881
0.101883
0.101885
0.101886
0.101887
0.101888
0.101889
0.10189
0.10189
0.101891
0.101892
0.101892
0.101893
0.101894
0.101894
0.101895
0.101895
0.101895
0.101896
0.101896
0.101896
0.101896
0.101896
0.101896
0.101897
0.101897
0.101896
0.101896
0.101896
0.101896
0.101896
0.101896
0.101895
0.101895
0.101895
0.101894
0.101894
0.101893
0.101892
0.101892
0.101891
0.10189
0.10189
0.101889
0.101888
0.101887
0.101886
0.101885
0.101883
0.101881
0.101878
0.101871
0.101854
0.101808
0.101676
0.121432
0.121597
0.121654
0.121675
0.121684
0.121688
0.121691
0.121692
0.121694
0.121695
0.121696
0.121697
0.121698
0.121699
0.1217
0.121701
0.121702
0.121702
0.121703
0.121704
0.121704
0.121705
0.121705
0.121706
0.121706
0.121706
0.121706
0.121707
0.121707
0.121707
0.121707
0.121707
0.121707
0.121706
0.121706
0.121706
0.121706
0.121705
0.121705
0.121704
0.121704
0.121703
0.121702
0.121702
0.121701
0.1217
0.121699
0.121698
0.121697
0.121696
0.121695
0.121694
0.121692
0.121691
0.121688
0.121684
0.121675
0.121654
0.121597
0.121432
0.145338
0.145536
0.145605
0.145632
0.145642
0.145647
0.14565
0.145652
0.145654
0.145655
0.145657
0.145658
0.145659
0.14566
0.145661
0.145662
0.145663
0.145664
0.145665
0.145665
0.145666
0.145667
0.145667
0.145668
0.145668
0.145668
0.145668
0.145669
0.145669
0.145669
0.145669
0.145669
0.145669
0.145668
0.145668
0.145668
0.145668
0.145667
0.145667
0.145666
0.145665
0.145665
0.145664
0.145663
0.145662
0.145661
0.14566
0.145659
0.145658
0.145657
0.145655
0.145654
0.145652
0.14565
0.145647
0.145642
0.145632
0.145605
0.145536
0.145338
0.172639
0.172868
0.172949
0.172979
0.172992
0.172998
0.173001
0.173003
0.173005
0.173007
0.173008
0.17301
0.173011
0.173012
0.173013
0.173014
0.173015
0.173016
0.173017
0.173018
0.173019
0.173019
0.17302
0.17302
0.173021
0.173021
0.173021
0.173022
0.173022
0.173022
0.173022
0.173022
0.173022
0.173021
0.173021
0.173021
0.17302
0.17302
0.173019
0.173019
0.173018
0.173017
0.173016
0.173015
0.173014
0.173013
0.173012
0.173011
0.17301
0.173008
0.173007
0.173005
0.173003
0.173001
0.172998
0.172992
0.172979
0.172949
0.172868
0.172639
0.202235
0.202492
0.202583
0.202618
0.202632
0.202638
0.202642
0.202645
0.202647
0.202648
0.20265
0.202651
0.202653
0.202654
0.202655
0.202656
0.202657
0.202658
0.202659
0.20266
0.202661
0.202662
0.202662
0.202663
0.202663
0.202663
0.202664
0.202664
0.202664
0.202664
0.202664
0.202664
0.202664
0.202664
0.202663
0.202663
0.202663
0.202662
0.202662
0.202661
0.20266
0.202659
0.202658
0.202657
0.202656
0.202655
0.202654
0.202653
0.202651
0.20265
0.202648
0.202647
0.202645
0.202642
0.202638
0.202632
0.202618
0.202583
0.202492
0.202235
0.23305
0.233329
0.23343
0.233468
0.233484
0.233491
0.233495
0.233497
0.233499
0.233501
0.233503
0.233504
0.233506
0.233507
0.233508
0.23351
0.233511
0.233512
0.233512
0.233513
0.233514
0.233515
0.233515
0.233516
0.233516
0.233517
0.233517
0.233517
0.233517
0.233517
0.233517
0.233517
0.233517
0.233517
0.233517
0.233516
0.233516
0.233515
0.233515
0.233514
0.233513
0.233512
0.233512
0.233511
0.23351
0.233508
0.233507
0.233506
0.233504
0.233503
0.233501
0.233499
0.233497
0.233495
0.233491
0.233484
0.233468
0.23343
0.233329
0.23305
0.26425
0.264547
0.264656
0.264698
0.264715
0.264723
0.264727
0.26473
0.264732
0.264734
0.264735
0.264737
0.264738
0.26474
0.264741
0.264742
0.264743
0.264744
0.264745
0.264746
0.264747
0.264747
0.264748
0.264748
0.264749
0.264749
0.26475
0.26475
0.26475
0.26475
0.26475
0.26475
0.26475
0.26475
0.264749
0.264749
0.264748
0.264748
0.264747
0.264747
0.264746
0.264745
0.264744
0.264743
0.264742
0.264741
0.26474
0.264738
0.264737
0.264735
0.264734
0.264732
0.26473
0.264727
0.264723
0.264715
0.264698
0.264656
0.264547
0.26425
0.295287
0.295601
0.295717
0.295762
0.295781
0.295789
0.295793
0.295796
0.295798
0.2958
0.295802
0.295803
0.295805
0.295806
0.295807
0.295808
0.295809
0.29581
0.295811
0.295812
0.295813
0.295814
0.295814
0.295815
0.295815
0.295815
0.295816
0.295816
0.295816
0.295816
0.295816
0.295816
0.295816
0.295816
0.295815
0.295815
0.295815
0.295814
0.295814
0.295813
0.295812
0.295811
0.29581
0.295809
0.295808
0.295807
0.295806
0.295805
0.295803
0.295802
0.2958
0.295798
0.295796
0.295793
0.295789
0.295781
0.295762
0.295717
0.295601
0.295287
0.325839
0.326166
0.326289
0.326337
0.326357
0.326365
0.32637
0.326373
0.326375
0.326377
0.326378
0.32638
0.326381
0.326383
0.326384
0.326385
0.326386
0.326387
0.326388
0.326389
0.326389
0.32639
0.326391
0.326391
0.326392
0.326392
0.326392
0.326392
0.326393
0.326393
0.326393
0.326393
0.326392
0.326392
0.326392
0.326392
0.326391
0.326391
0.32639
0.326389
0.326389
0.326388
0.326387
0.326386
0.326385
0.326384
0.326383
0.326381
0.32638
0.326378
0.326377
0.326375
0.326373
0.32637
0.326365
0.326357
0.326337
0.326289
0.326166
0.325839
0.35572
0.356058
0.356188
0.356239
0.35626
0.356269
0.356274
0.356277
0.356279
0.356281
0.356283
0.356284
0.356285
0.356287
0.356288
0.356289
0.35629
0.356291
0.356292
0.356293
0.356293
0.356294
0.356295
0.356295
0.356295
0.356296
0.356296
0.356296
0.356296
0.356297
0.356297
0.356296
0.356296
0.356296
0.356296
0.356295
0.356295
0.356295
0.356294
0.356293
0.356293
0.356292
0.356291
0.35629
0.356289
0.356288
0.356287
0.356285
0.356284
0.356283
0.356281
0.356279
0.356277
0.356274
0.356269
0.35626
0.356239
0.356188
0.356058
0.35572
0.384829
0.385177
0.385313
0.385367
0.385389
0.385399
0.385404
0.385407
0.385409
0.385411
0.385412
0.385414
0.385415
0.385416
0.385417
0.385418
0.385419
0.38542
0.385421
0.385422
0.385423
0.385423
0.385424
0.385424
0.385425
0.385425
0.385425
0.385426
0.385426
0.385426
0.385426
0.385426
0.385426
0.385425
0.385425
0.385425
0.385424
0.385424
0.385423
0.385423
0.385422
0.385421
0.38542
0.385419
0.385418
0.385417
0.385416
0.385415
0.385414
0.385412
0.385411
0.385409
0.385407
0.385404
0.385399
0.385389
0.385367
0.385313
0.385177
0.384829
0.413108
0.413464
0.413605
0.413662
0.413685
0.413696
0.413701
0.413704
0.413706
0.413708
0.413709
0.413711
0.413712
0.413713
0.413714
0.413715
0.413716
0.413717
0.413718
0.413719
0.413719
0.41372
0.413721
0.413721
0.413722
0.413722
0.413722
0.413722
0.413722
0.413723
0.413723
0.413722
0.413722
0.413722
0.413722
0.413722
0.413721
0.413721
0.41372
0.413719
0.413719
0.413718
0.413717
0.413716
0.413715
0.413714
0.413713
0.413712
0.413711
0.413709
0.413708
0.413706
0.413704
0.413701
0.413696
0.413685
0.413662
0.413605
0.413464
0.413108
0.440524
0.440886
0.441032
0.441092
0.441117
0.441128
0.441133
0.441136
0.441138
0.44114
0.441142
0.441143
0.441144
0.441145
0.441146
0.441147
0.441148
0.441149
0.44115
0.441151
0.441151
0.441152
0.441153
0.441153
0.441153
0.441154
0.441154
0.441154
0.441154
0.441154
0.441154
0.441154
0.441154
0.441154
0.441154
0.441153
0.441153
0.441153
0.441152
0.441151
0.441151
0.44115
0.441149
0.441148
0.441147
0.441146
0.441145
0.441144
0.441143
0.441142
0.44114
0.441138
0.441136
0.441133
0.441128
0.441117
0.441092
0.441032
0.440886
0.440524
0.467059
0.467426
0.467578
0.46764
0.467666
0.467678
0.467683
0.467686
0.467689
0.46769
0.467692
0.467693
0.467694
0.467695
0.467696
0.467697
0.467698
0.467699
0.4677
0.467701
0.467701
0.467702
0.467702
0.467703
0.467703
0.467703
0.467704
0.467704
0.467704
0.467704
0.467704
0.467704
0.467704
0.467704
0.467703
0.467703
0.467703
0.467702
0.467702
0.467701
0.467701
0.4677
0.467699
0.467698
0.467697
0.467696
0.467695
0.467694
0.467693
0.467692
0.46769
0.467689
0.467686
0.467683
0.467678
0.467666
0.46764
0.467578
0.467426
0.467059
0.492706
0.493077
0.493233
0.493298
0.493326
0.493338
0.493344
0.493347
0.493349
0.493351
0.493352
0.493354
0.493355
0.493356
0.493357
0.493358
0.493359
0.493359
0.49336
0.493361
0.493361
0.493362
0.493362
0.493363
0.493363
0.493363
0.493364
0.493364
0.493364
0.493364
0.493364
0.493364
0.493364
0.493364
0.493363
0.493363
0.493363
0.493362
0.493362
0.493361
0.493361
0.49336
0.493359
0.493359
0.493358
0.493357
0.493356
0.493355
0.493354
0.493352
0.493351
0.493349
0.493347
0.493344
0.493338
0.493326
0.493298
0.493233
0.493077
0.492706
0.517465
0.517838
0.517998
0.518066
0.518095
0.518108
0.518114
0.518117
0.51812
0.518121
0.518123
0.518124
0.518125
0.518126
0.518127
0.518128
0.518129
0.518129
0.51813
0.518131
0.518131
0.518132
0.518132
0.518133
0.518133
0.518133
0.518133
0.518134
0.518134
0.518134
0.518134
0.518134
0.518134
0.518133
0.518133
0.518133
0.518133
0.518132
0.518132
0.518131
0.518131
0.51813
0.518129
0.518129
0.518128
0.518127
0.518126
0.518125
0.518124
0.518123
0.518121
0.51812
0.518117
0.518114
0.518108
0.518095
0.518066
0.517998
0.517838
0.517465
0.541339
0.541714
0.541878
0.541948
0.541979
0.541992
0.541998
0.542002
0.542004
0.542006
0.542007
0.542008
0.542009
0.54201
0.542011
0.542012
0.542013
0.542013
0.542014
0.542015
0.542015
0.542016
0.542016
0.542017
0.542017
0.542017
0.542017
0.542017
0.542018
0.542018
0.542018
0.542018
0.542017
0.542017
0.542017
0.542017
0.542017
0.542016
0.542016
0.542015
0.542015
0.542014
0.542013
0.542013
0.542012
0.542011
0.54201
0.542009
0.542008
0.542007
0.542006
0.542004
0.542002
0.541998
0.541992
0.541979
0.541948
0.541878
0.541714
0.541339
0.564337
0.564712
0.564879
0.564952
0.564984
0.564998
0.565005
0.565008
0.56501
0.565012
0.565013
0.565014
0.565015
0.565016
0.565017
0.565018
0.565019
0.565019
0.56502
0.565021
0.565021
0.565022
0.565022
0.565022
0.565023
0.565023
0.565023
0.565023
0.565023
0.565023
0.565023
0.565023
0.565023
0.565023
0.565023
0.565023
0.565022
0.565022
0.565022
0.565021
0.565021
0.56502
0.565019
0.565019
0.565018
0.565017
0.565016
0.565015
0.565014
0.565013
0.565012
0.56501
0.565008
0.565005
0.564998
0.564984
0.564952
0.564879
0.564712
0.564337
0.586469
0.586843
0.587013
0.587089
0.587122
0.587136
0.587143
0.587147
0.587149
0.587151
0.587152
0.587153
0.587154
0.587155
0.587156
0.587157
0.587157
0.587158
0.587159
0.587159
0.58716
0.58716
0.587161
0.587161
0.587161
0.587161
0.587162
0.587162
0.587162
0.587162
0.587162
0.587162
0.587162
0.587162
0.587161
0.587161
0.587161
0.587161
0.58716
0.58716
0.587159
0.587159
0.587158
0.587157
0.587157
0.587156
0.587155
0.587154
0.587153
0.587152
0.587151
0.587149
0.587147
0.587143
0.587136
0.587122
0.587089
0.587013
0.586843
0.586469
0.607748
0.60812
0.608293
0.608371
0.608405
0.608421
0.608428
0.608432
0.608434
0.608436
0.608437
0.608438
0.608439
0.60844
0.608441
0.608441
0.608442
0.608443
0.608443
0.608444
0.608444
0.608445
0.608445
0.608445
0.608446
0.608446
0.608446
0.608446
0.608446
0.608446
0.608446
0.608446
0.608446
0.608446
0.608446
0.608446
0.608445
0.608445
0.608445
0.608444
0.608444
0.608443
0.608443
0.608442
0.608441
0.608441
0.60844
0.608439
0.608438
0.608437
0.608436
0.608434
0.608432
0.608428
0.608421
0.608405
0.608371
0.608293
0.60812
0.607748
0.628189
0.628559
0.628734
0.628814
0.62885
0.628866
0.628874
0.628877
0.62888
0.628881
0.628883
0.628884
0.628884
0.628885
0.628886
0.628887
0.628887
0.628888
0.628888
0.628889
0.628889
0.62889
0.62889
0.62889
0.628891
0.628891
0.628891
0.628891
0.628891
0.628891
0.628891
0.628891
0.628891
0.628891
0.628891
0.628891
0.62889
0.62889
0.62889
0.628889
0.628889
0.628888
0.628888
0.628887
0.628887
0.628886
0.628885
0.628884
0.628884
0.628883
0.628881
0.62888
0.628877
0.628874
0.628866
0.62885
0.628814
0.628734
0.628559
0.628189
0.647808
0.648175
0.648352
0.648434
0.648471
0.648488
0.648496
0.6485
0.648502
0.648504
0.648505
0.648506
0.648507
0.648507
0.648508
0.648509
0.648509
0.64851
0.64851
0.648511
0.648511
0.648512
0.648512
0.648512
0.648512
0.648513
0.648513
0.648513
0.648513
0.648513
0.648513
0.648513
0.648513
0.648513
0.648513
0.648512
0.648512
0.648512
0.648512
0.648511
0.648511
0.64851
0.64851
0.648509
0.648509
0.648508
0.648507
0.648507
0.648506
0.648505
0.648504
0.648502
0.6485
0.648496
0.648488
0.648471
0.648434
0.648352
0.648175
0.647808
0.666623
0.666985
0.667164
0.667248
0.667286
0.667304
0.667312
0.667317
0.667319
0.667321
0.667322
0.667323
0.667323
0.667324
0.667325
0.667325
0.667326
0.667326
0.667327
0.667327
0.667328
0.667328
0.667328
0.667329
0.667329
0.667329
0.667329
0.667329
0.667329
0.667329
0.667329
0.667329
0.667329
0.667329
0.667329
0.667329
0.667329
0.667328
0.667328
0.667328
0.667327
0.667327
0.667326
0.667326
0.667325
0.667325
0.667324
0.667323
0.667323
0.667322
0.667321
0.667319
0.667317
0.667312
0.667304
0.667286
0.667248
0.667164
0.666985
0.666623
0.684651
0.685009
0.685189
0.685274
0.685314
0.685333
0.685342
0.685346
0.685349
0.68535
0.685351
0.685352
0.685353
0.685354
0.685354
0.685355
0.685355
0.685356
0.685356
0.685356
0.685357
0.685357
0.685357
0.685358
0.685358
0.685358
0.685358
0.685358
0.685358
0.685358
0.685358
0.685358
0.685358
0.685358
0.685358
0.685358
0.685358
0.685357
0.685357
0.685357
0.685356
0.685356
0.685356
0.685355
0.685355
0.685354
0.685354
0.685353
0.685352
0.685351
0.68535
0.685349
0.685346
0.685342
0.685333
0.685314
0.685274
0.685189
0.685009
0.684651
0.701913
0.702266
0.702446
0.702533
0.702574
0.702594
0.702603
0.702608
0.70261
0.702612
0.702613
0.702614
0.702614
0.702615
0.702615
0.702616
0.702616
0.702617
0.702617
0.702618
0.702618
0.702618
0.702619
0.702619
0.702619
0.702619
0.702619
0.702619
0.702619
0.70262
0.70262
0.702619
0.702619
0.702619
0.702619
0.702619
0.702619
0.702619
0.702618
0.702618
0.702618
0.702617
0.702617
0.702616
0.702616
0.702615
0.702615
0.702614
0.702614
0.702613
0.702612
0.70261
0.702608
0.702603
0.702594
0.702574
0.702533
0.702446
0.702266
0.701913
0.718427
0.718774
0.718955
0.719043
0.719086
0.719106
0.719116
0.719121
0.719123
0.719125
0.719126
0.719127
0.719127
0.719128
0.719128
0.719129
0.719129
0.71913
0.71913
0.71913
0.719131
0.719131
0.719131
0.719132
0.719132
0.719132
0.719132
0.719132
0.719132
0.719132
0.719132
0.719132
0.719132
0.719132
0.719132
0.719132
0.719132
0.719131
0.719131
0.719131
0.71913
0.71913
0.71913
0.719129
0.719129
0.719128
0.719128
0.719127
0.719127
0.719126
0.719125
0.719123
0.719121
0.719116
0.719106
0.719086
0.719043
0.718955
0.718774
0.718427
0.734215
0.734555
0.734736
0.734826
0.734869
0.73489
0.7349
0.734906
0.734908
0.73491
0.734911
0.734912
0.734912
0.734913
0.734913
0.734914
0.734914
0.734915
0.734915
0.734915
0.734915
0.734916
0.734916
0.734916
0.734916
0.734917
0.734917
0.734917
0.734917
0.734917
0.734917
0.734917
0.734917
0.734917
0.734917
0.734916
0.734916
0.734916
0.734916
0.734915
0.734915
0.734915
0.734915
0.734914
0.734914
0.734913
0.734913
0.734912
0.734912
0.734911
0.73491
0.734908
0.734906
0.7349
0.73489
0.734869
0.734826
0.734736
0.734555
0.734215
0.749295
0.749629
0.749809
0.7499
0.749945
0.749967
0.749977
0.749983
0.749986
0.749987
0.749988
0.749989
0.74999
0.74999
0.749991
0.749991
0.749991
0.749992
0.749992
0.749992
0.749993
0.749993
0.749993
0.749993
0.749993
0.749993
0.749994
0.749994
0.749994
0.749994
0.749994
0.749994
0.749994
0.749994
0.749993
0.749993
0.749993
0.749993
0.749993
0.749993
0.749992
0.749992
0.749992
0.749991
0.749991
0.749991
0.74999
0.74999
0.749989
0.749988
0.749987
0.749986
0.749983
0.749977
0.749967
0.749945
0.7499
0.749809
0.749629
0.749295
0.76369
0.764017
0.764196
0.764288
0.764334
0.764356
0.764367
0.764373
0.764376
0.764378
0.764379
0.764379
0.76438
0.76438
0.764381
0.764381
0.764382
0.764382
0.764382
0.764382
0.764383
0.764383
0.764383
0.764383
0.764383
0.764383
0.764384
0.764384
0.764384
0.764384
0.764384
0.764384
0.764384
0.764384
0.764383
0.764383
0.764383
0.764383
0.764383
0.764383
0.764382
0.764382
0.764382
0.764382
0.764381
0.764381
0.76438
0.76438
0.764379
0.764379
0.764378
0.764376
0.764373
0.764367
0.764356
0.764334
0.764288
0.764196
0.764017
0.76369
0.77742
0.777738
0.777916
0.778009
0.778056
0.77808
0.778091
0.778097
0.7781
0.778102
0.778103
0.778104
0.778104
0.778105
0.778105
0.778105
0.778106
0.778106
0.778106
0.778106
0.778107
0.778107
0.778107
0.778107
0.778107
0.778107
0.778108
0.778108
0.778108
0.778108
0.778108
0.778108
0.778108
0.778108
0.778107
0.778107
0.778107
0.778107
0.778107
0.778107
0.778106
0.778106
0.778106
0.778106
0.778105
0.778105
0.778105
0.778104
0.778104
0.778103
0.778102
0.7781
0.778097
0.778091
0.77808
0.778056
0.778009
0.777916
0.777738
0.77742
0.790505
0.790816
0.790992
0.791086
0.791134
0.791158
0.79117
0.791176
0.791179
0.791181
0.791182
0.791183
0.791183
0.791184
0.791184
0.791184
0.791185
0.791185
0.791185
0.791185
0.791186
0.791186
0.791186
0.791186
0.791186
0.791186
0.791186
0.791186
0.791186
0.791186
0.791186
0.791186
0.791186
0.791186
0.791186
0.791186
0.791186
0.791186
0.791186
0.791186
0.791185
0.791185
0.791185
0.791185
0.791184
0.791184
0.791184
0.791183
0.791183
0.791182
0.791181
0.791179
0.791176
0.79117
0.791158
0.791134
0.791086
0.790992
0.790816
0.790505
0.802966
0.803269
0.803444
0.803538
0.803587
0.803612
0.803624
0.803631
0.803634
0.803636
0.803637
0.803638
0.803638
0.803639
0.803639
0.803639
0.803639
0.80364
0.80364
0.80364
0.80364
0.80364
0.80364
0.803641
0.803641
0.803641
0.803641
0.803641
0.803641
0.803641
0.803641
0.803641
0.803641
0.803641
0.803641
0.803641
0.803641
0.80364
0.80364
0.80364
0.80364
0.80364
0.80364
0.803639
0.803639
0.803639
0.803639
0.803638
0.803638
0.803637
0.803636
0.803634
0.803631
0.803624
0.803612
0.803587
0.803538
0.803444
0.803269
0.802966
0.814825
0.81512
0.815292
0.815387
0.815437
0.815462
0.815475
0.815482
0.815486
0.815487
0.815489
0.815489
0.81549
0.81549
0.81549
0.815491
0.815491
0.815491
0.815491
0.815491
0.815491
0.815492
0.815492
0.815492
0.815492
0.815492
0.815492
0.815492
0.815492
0.815492
0.815492
0.815492
0.815492
0.815492
0.815492
0.815492
0.815492
0.815492
0.815492
0.815491
0.815491
0.815491
0.815491
0.815491
0.815491
0.81549
0.81549
0.81549
0.815489
0.815489
0.815487
0.815486
0.815482
0.815475
0.815462
0.815437
0.815387
0.815292
0.81512
0.814825
0.826102
0.826388
0.826558
0.826653
0.826704
0.82673
0.826744
0.826751
0.826754
0.826756
0.826757
0.826758
0.826758
0.826759
0.826759
0.826759
0.826759
0.826759
0.82676
0.82676
0.82676
0.82676
0.82676
0.82676
0.82676
0.82676
0.82676
0.82676
0.82676
0.82676
0.82676
0.82676
0.82676
0.82676
0.82676
0.82676
0.82676
0.82676
0.82676
0.82676
0.82676
0.82676
0.826759
0.826759
0.826759
0.826759
0.826759
0.826758
0.826758
0.826757
0.826756
0.826754
0.826751
0.826744
0.82673
0.826704
0.826653
0.826558
0.826388
0.826102
0.836818
0.837095
0.837262
0.837357
0.837408
0.837435
0.837449
0.837457
0.837461
0.837463
0.837464
0.837464
0.837465
0.837465
0.837465
0.837465
0.837466
0.837466
0.837466
0.837466
0.837466
0.837466
0.837466
0.837466
0.837466
0.837466
0.837466
0.837467
0.837467
0.837467
0.837467
0.837467
0.837467
0.837466
0.837466
0.837466
0.837466
0.837466
0.837466
0.837466
0.837466
0.837466
0.837466
0.837466
0.837465
0.837465
0.837465
0.837465
0.837464
0.837464
0.837463
0.837461
0.837457
0.837449
0.837435
0.837408
0.837357
0.837262
0.837095
0.836818
0.846992
0.84726
0.847425
0.847519
0.847571
0.847599
0.847613
0.847621
0.847625
0.847627
0.847628
0.847629
0.847629
0.84763
0.84763
0.84763
0.84763
0.84763
0.84763
0.84763
0.84763
0.84763
0.847631
0.847631
0.847631
0.847631
0.847631
0.847631
0.847631
0.847631
0.847631
0.847631
0.847631
0.847631
0.847631
0.847631
0.847631
0.847631
0.84763
0.84763
0.84763
0.84763
0.84763
0.84763
0.84763
0.84763