/*--------------------------------*- C++ -*----------------------------------*\
| =========                 |                                                 |
| \\      /  F ield         | foam-extend: Open Source CFD                    |
|  \\    /   O peration     | Version:     4.0                                |
|   \\  /    A nd           | Web:         http://www.foam-extend.org         |
|    \\/     M anipulation  |                                                 |
\*---------------------------------------------------------------------------*/
FoamFile
{
    version     2.0;
    format      ascii;
    class       surfaceScalarField;
    location    "17";
    object      phi;
}
// * * * * * * * * * * * * * * * * * * * * * * * * * * * * * * * * * * * * * //

dimensions      [0 3 -1 0 0 0 0];

internalField   nonuniform List<scalar> 
13744
(
-1.38829e-08
1.38859e-08
8.36247e-09
-2.22453e-08
1.03376e-09
7.32871e-09
5.66467e-10
4.6729e-10
3.2326e-10
2.43209e-10
1.89885e-10
1.33376e-10
1.12079e-10
7.78064e-11
6.43479e-11
4.77334e-11
3.36877e-11
3.06564e-11
1.31755e-11
2.0518e-11
-9.93103e-13
1.41733e-11
-1.09826e-11
9.99223e-12
-1.80846e-11
7.1041e-12
-2.30919e-11
5.00422e-12
-2.65114e-11
3.42038e-12
-2.86825e-11
2.17404e-12
-2.98427e-11
1.16374e-12
-3.01598e-11
3.22409e-13
-2.97656e-11
-3.96128e-13
-2.87643e-11
-1.00187e-12
-2.72384e-11
-1.52678e-12
-2.52621e-11
-1.97398e-12
-2.29013e-11
-2.35678e-12
-2.02115e-11
-2.69185e-12
-1.72476e-11
-2.96674e-12
-1.40614e-11
-3.18945e-12
-1.06974e-11
-3.35842e-12
-7.20284e-12
-3.49831e-12
-3.6236e-12
-3.58424e-12
-2.02157e-15
-3.62288e-12
3.62796e-12
-3.62377e-12
7.19843e-12
-3.5707e-12
1.06973e-11
-3.50164e-12
1.40657e-11
-3.36864e-12
1.72431e-11
-3.1819e-12
2.02115e-11
-2.9643e-12
2.29057e-11
-2.69496e-12
2.52574e-11
-2.35167e-12
2.72382e-11
-1.97975e-12
2.87687e-11
-1.527e-12
2.97612e-11
-9.88765e-13
3.01598e-11
-4.00568e-13
2.9847e-11
3.14415e-13
2.86777e-11
1.17462e-12
2.6511e-11
2.16427e-12
2.30958e-11
3.41394e-12
1.80794e-11
5.01421e-12
1.09819e-11
7.09566e-12
9.96902e-13
9.98135e-12
-1.31805e-11
1.41811e-11
-3.36882e-11
2.05123e-11
-6.43442e-11
3.06581e-11
-1.12084e-10
4.7738e-11
-1.89886e-10
7.77982e-11
-3.23256e-10
1.33371e-10
-5.66473e-10
2.43219e-10
-1.03376e-09
4.67291e-10
-8.36246e-09
7.3287e-09
1.38829e-08
-2.22453e-08
1.38829e-08
7.18475e-08
-5.79616e-08
1.27846e-08
3.68176e-08
3.08563e-09
1.70276e-08
1.70055e-09
1.85239e-09
9.74199e-10
9.69547e-10
5.73695e-10
5.33878e-10
3.39633e-10
3.11873e-10
1.95722e-10
1.91641e-10
1.03223e-10
1.23154e-10
4.12455e-11
8.24814e-11
-1.55489e-12
5.69669e-11
-3.17741e-11
4.02085e-11
-5.32585e-11
2.859e-11
-6.84218e-11
2.01775e-11
-7.87934e-11
1.3794e-11
-8.54041e-11
8.78031e-12
-8.89552e-11
4.7049e-12
-8.99768e-11
1.32572e-12
-8.88544e-11
-1.5179e-12
-8.58974e-11
-3.96316e-12
-8.13699e-11
-6.05671e-12
-7.54885e-11
-7.8495e-12
-6.8442e-11
-9.40736e-12
-6.04153e-11
-1.07118e-11
-5.15649e-11
-1.18028e-11
-4.20378e-11
-1.27092e-11
-3.19853e-11
-1.34232e-11
-2.15405e-11
-1.39291e-11
-1.08315e-11
-1.42837e-11
7.32166e-16
-1.44514e-11
1.08212e-11
-1.44603e-11
2.15524e-11
-1.42975e-11
3.19848e-11
-1.39297e-11
4.20252e-11
-1.34057e-11
5.15768e-11
-1.27279e-11
6.04153e-11
-1.18169e-11
6.84296e-11
-1.07067e-11
7.54998e-11
-9.43201e-12
8.13694e-11
-7.85016e-12
8.58853e-11
-6.05349e-12
8.88665e-11
-3.98215e-12
8.99766e-11
-1.50846e-12
8.89425e-11
1.3588e-12
8.54154e-11
4.70191e-12
7.87922e-11
8.78975e-12
6.8408e-11
1.38072e-11
5.32684e-11
2.0165e-11
3.17719e-11
2.86051e-11
1.54087e-12
4.0221e-11
-4.1235e-11
5.6951e-11
-1.03225e-10
8.24969e-11
-1.95737e-10
1.23165e-10
-3.39624e-10
1.91632e-10
-5.73698e-10
3.11871e-10
-9.74215e-10
5.33884e-10
-1.70054e-09
9.69541e-10
-3.08563e-09
1.85239e-09
-1.27846e-08
1.70277e-08
-7.18475e-08
3.68175e-08
-5.79646e-08
4.89387e-08
-1.069e-07
2.16662e-08
6.409e-08
5.0835e-09
3.36104e-08
2.8267e-09
4.10917e-09
1.62781e-09
2.16844e-09
9.61825e-10
1.19986e-09
5.71471e-10
7.02213e-10
3.3085e-10
4.32263e-10
1.7599e-10
2.78016e-10
7.2086e-11
1.86389e-10
2.90986e-13
1.28765e-10
-5.04442e-11
9.09459e-11
-8.65316e-11
6.46774e-11
-1.1204e-10
4.56744e-11
-1.29513e-10
3.12596e-11
-1.40693e-10
1.99554e-11
-1.46757e-10
1.07817e-11
-1.4859e-10
3.16613e-12
-1.46839e-10
-3.26628e-12
-1.42032e-10
-8.76815e-12
-1.34598e-10
-1.34812e-11
-1.24907e-10
-1.75525e-11
-1.13278e-10
-2.10305e-11
-1.00011e-10
-2.39773e-11
-8.53714e-11
-2.64517e-11
-6.96089e-11
-2.8485e-11
-5.29665e-11
-3.00572e-11
-3.56708e-11
-3.12421e-11
-1.79408e-11
-3.20186e-11
-1.6964e-15
-3.23798e-11
1.79361e-11
-3.2379e-11
3.56763e-11
-3.20419e-11
5.29658e-11
-3.12284e-11
6.96025e-11
-3.00508e-11
8.53767e-11
-2.85144e-11
1.00011e-10
-2.64468e-11
1.13272e-10
-2.39801e-11
1.24912e-10
-2.1057e-11
1.34598e-10
-1.75194e-11
1.42026e-10
-1.34761e-11
1.46845e-10
-8.79224e-12
1.48589e-10
-3.2484e-12
1.4675e-10
3.1859e-12
1.40697e-10
1.0749e-11
1.29511e-10
1.99683e-11
1.12032e-10
3.12714e-11
8.65338e-11
4.56614e-11
5.04406e-11
6.46831e-11
-2.99888e-13
9.09529e-11
-7.20828e-11
1.28738e-10
-1.75992e-10
1.86408e-10
-3.30859e-10
2.7804e-10
-5.71469e-10
4.32235e-10
-9.61831e-10
7.02232e-10
-1.62782e-09
1.19988e-09
-2.8267e-09
2.16842e-09
-5.08351e-09
4.10918e-09
-2.16662e-08
3.36104e-08
-4.89387e-08
6.409e-08
-1.06903e-07
1.40854e-08
-1.20986e-07
2.06984e-08
5.7477e-08
6.9831e-09
4.73257e-08
3.92659e-09
7.16568e-09
2.27549e-09
3.81955e-09
1.35005e-09
2.12529e-09
8.05498e-10
1.24678e-09
4.68837e-10
7.68918e-10
2.51768e-10
4.95078e-10
1.05912e-10
3.32249e-10
5.0414e-12
2.29636e-10
-6.63044e-11
1.6229e-10
-1.17091e-10
1.15473e-10
-1.53042e-10
8.16313e-11
-1.77714e-10
5.59373e-11
-1.93569e-10
3.58118e-11
-2.02258e-10
1.94667e-11
-2.05024e-10
5.92845e-12
-2.02779e-10
-5.50915e-12
-1.96265e-10
-1.52735e-11
-1.86081e-10
-2.36706e-11
-1.72746e-10
-3.08883e-11
-1.5671e-10
-3.70683e-11
-1.38386e-10
-4.23173e-11
-1.18148e-10
-4.66891e-11
-9.63486e-11
-5.02687e-11
-7.33195e-11
-5.30859e-11
-4.93801e-11
-5.51752e-11
-2.48394e-11
-5.65602e-11
-2.85158e-15
-5.72207e-11
2.48398e-11
-5.72277e-11
4.93785e-11
-5.65695e-11
7.33185e-11
-5.51542e-11
9.63486e-11
-5.30774e-11
1.18147e-10
-5.03076e-11
1.38386e-10
-4.66742e-11
1.5671e-10
-4.23001e-11
1.72743e-10
-3.71091e-11
1.8608e-10
-3.08749e-11
1.96266e-10
-2.36578e-11
2.02778e-10
-1.52972e-11
2.05024e-10
-5.50338e-12
2.02258e-10
5.96297e-12
1.93566e-10
1.94378e-11
1.77711e-10
3.58242e-11
1.53039e-10
5.59536e-11
1.17085e-10
8.16069e-11
6.62995e-11
1.15471e-10
-5.04466e-12
1.62294e-10
-1.05917e-10
2.29616e-10
-2.51771e-10
3.32256e-10
-4.68841e-10
4.95104e-10
-8.05505e-10
7.68898e-10
-1.35006e-09
1.24679e-09
-2.27549e-09
2.12531e-09
-3.9266e-09
3.81953e-09
-6.98311e-09
7.1657e-09
-2.06984e-08
4.73257e-08
-1.40854e-08
5.74769e-08
-1.20989e-07
1.14552e-08
-1.32441e-07
1.73657e-08
5.15664e-08
8.77385e-09
5.59176e-08
4.98784e-09
1.09517e-08
2.91093e-09
5.89645e-09
1.73518e-09
3.30104e-09
1.04012e-09
1.94183e-09
6.08984e-10
1.20005e-09
3.30386e-10
7.73674e-10
1.42884e-10
5.19763e-10
1.30762e-11
3.59446e-10
-7.88284e-11
2.54186e-10
-1.4431e-10
1.80961e-10
-1.90732e-10
1.28042e-10
-2.22663e-10
8.7863e-11
-2.43277e-10
5.64393e-11
-2.547e-10
3.09003e-11
-2.58534e-10
9.75583e-12
-2.55951e-10
-8.08641e-12
-2.47907e-10
-2.33248e-11
-2.35172e-10
-3.63948e-11
-2.1841e-10
-4.76446e-11
-1.982e-10
-5.727e-11
-1.75069e-10
-6.54459e-11
-1.49497e-10
-7.22552e-11
-1.21932e-10
-7.78483e-11
-9.2798e-11
-8.2219e-11
-6.25037e-11
-8.54699e-11
-3.14426e-11
-8.76167e-11
-2.26389e-15
-8.86694e-11
3.14418e-11
-8.86757e-11
6.25018e-11
-8.76443e-11
9.27967e-11
-8.5453e-11
1.21931e-10
-8.22044e-11
1.49495e-10
-7.78694e-11
1.75069e-10
-7.2255e-11
1.982e-10
-6.54338e-11
2.18407e-10
-5.73043e-11
2.3517e-10
-4.76413e-11
2.47908e-10
-3.64106e-11
2.5595e-10
-2.33353e-11
2.58533e-10
-8.08082e-12
2.547e-10
9.78671e-12
2.43274e-10
3.08671e-11
2.2266e-10
5.6435e-11
1.90728e-10
8.7875e-11
1.44304e-10
1.28033e-10
7.88223e-11
1.80955e-10
-1.30807e-11
2.54197e-10
-1.42889e-10
3.59417e-10
-3.30391e-10
5.19772e-10
-6.08989e-10
7.737e-10
-1.04013e-09
1.20005e-09
-1.73519e-09
1.94184e-09
-2.91094e-09
3.30106e-09
-4.98785e-09
5.89643e-09
-8.77386e-09
1.09517e-08
-1.73657e-08
5.59176e-08
-1.14552e-08
5.15663e-08
-1.32444e-07
1.77282e-08
-1.50169e-07
1.73216e-08
5.1973e-08
1.04448e-08
6.27944e-08
6.00098e-09
1.53955e-08
3.52895e-09
8.36848e-09
2.11458e-09
4.71542e-09
1.27405e-09
2.78237e-09
7.50735e-10
1.72337e-09
4.11721e-10
1.11269e-09
1.8315e-10
7.48333e-10
2.47176e-11
5.17875e-10
-8.75751e-11
3.66494e-10
-1.67669e-10
2.61049e-10
-2.24539e-10
1.84919e-10
-2.63756e-10
1.27072e-10
-2.89199e-10
8.18673e-11
-3.03463e-10
4.51653e-11
-3.08506e-10
1.48038e-11
-3.05762e-10
-1.08447e-11
-2.96395e-10
-3.26988e-11
-2.81343e-10
-5.14521e-11
-2.61416e-10
-6.75712e-11
-2.37314e-10
-8.13767e-11
-2.09679e-10
-9.30681e-11
-1.79091e-10
-1.02842e-10
-1.46094e-10
-1.10849e-10
-1.11201e-10
-1.17108e-10
-7.49059e-11
-1.21768e-10
-3.76832e-11
-1.24854e-10
-1.85632e-15
-1.2634e-10
3.76806e-11
-1.26362e-10
7.49051e-11
-1.24858e-10
1.112e-10
-1.21744e-10
1.46092e-10
-1.17098e-10
1.79091e-10
-1.1088e-10
2.09679e-10
-1.02846e-10
2.37312e-10
-9.3071e-11
2.61413e-10
-8.14038e-11
2.81341e-10
-6.75688e-11
2.96394e-10
-5.14633e-11
3.05762e-10
-3.27096e-11
3.08506e-10
-1.08351e-11
3.0346e-10
1.48352e-11
2.89196e-10
4.51288e-11
2.63752e-10
8.18929e-11
2.24533e-10
1.27104e-10
1.67662e-10
1.84911e-10
8.75679e-11
2.61054e-10
-2.47244e-11
3.665e-10
-1.83154e-10
5.17853e-10
-4.11727e-10
7.48339e-10
-7.50742e-10
1.11272e-09
-1.27406e-09
1.72336e-09
-2.11459e-09
2.78237e-09
-3.52897e-09
4.71543e-09
-6.001e-09
8.36846e-09
-1.04448e-08
1.53956e-08
-1.73216e-08
6.27944e-08
-1.77282e-08
5.1973e-08
-1.50172e-07
1.88985e-08
-1.69068e-07
1.87554e-08
5.21162e-08
1.19769e-08
6.95729e-08
6.95805e-09
2.04143e-08
4.12501e-09
1.12015e-08
2.48597e-09
6.35445e-09
1.50616e-09
3.76218e-09
8.93615e-10
2.33591e-09
4.95676e-10
1.51063e-09
2.26843e-10
1.01717e-09
4.025e-11
7.04468e-10
-9.21602e-11
4.98903e-10
-1.86716e-10
3.55607e-10
-2.53969e-10
2.52178e-10
-3.00472e-10
1.73584e-10
-3.30801e-10
1.12208e-10
-3.48012e-10
6.23727e-11
-3.54418e-10
2.12199e-11
-3.51705e-10
-1.356e-11
-3.41247e-10
-4.31432e-11
-3.24143e-10
-6.85675e-11
-3.01347e-10
-9.03807e-11
-2.73678e-10
-1.09046e-10
-2.41888e-10
-1.24868e-10
-2.06654e-10
-1.38085e-10
-1.68611e-10
-1.48889e-10
-1.28358e-10
-1.57365e-10
-8.64713e-11
-1.6366e-10
-4.35039e-11
-1.67815e-10
-1.90165e-15
-1.69855e-10
4.35011e-11
-1.69869e-10
8.64704e-11
-1.67825e-10
1.28357e-10
-1.63628e-10
1.68608e-10
-1.57343e-10
2.06653e-10
-1.48915e-10
2.41888e-10
-1.38073e-10
2.73676e-10
-1.24868e-10
3.01344e-10
-1.09085e-10
3.24141e-10
-9.03637e-11
3.41246e-10
-6.85812e-11
3.51705e-10
-4.31701e-11
3.54417e-10
-1.35212e-11
3.48009e-10
2.12421e-11
3.30798e-10
6.23376e-11
3.00468e-10
1.12215e-10
2.53962e-10
1.73604e-10
1.86708e-10
2.52161e-10
9.2152e-11
3.55614e-10
-4.02577e-11
4.98898e-10
-2.26849e-10
7.04429e-10
-4.95681e-10
1.01716e-09
-8.93623e-10
1.51065e-09
-1.50617e-09
2.3359e-09
-2.48598e-09
3.7622e-09
-4.12502e-09
6.35447e-09
-6.95806e-09
1.12015e-08
-1.19769e-08
2.04144e-08
-1.87554e-08
6.95729e-08
-1.88985e-08
5.21161e-08
-1.69071e-07
1.70422e-08
-1.8611e-07
1.97021e-08
4.94563e-08
1.33529e-08
7.5922e-08
7.8519e-09
2.59154e-08
4.69516e-09
1.43583e-08
2.84737e-09
8.20224e-09
1.73549e-09
4.87406e-09
1.03722e-09
3.03418e-09
5.82169e-10
1.96567e-09
2.74082e-10
1.32524e-09
5.99146e-11
9.18637e-10
-9.22605e-11
6.51071e-10
-2.01073e-10
4.64423e-10
-2.78609e-10
3.29702e-10
-3.32379e-10
2.27357e-10
-3.67641e-10
1.47469e-10
-3.87907e-10
8.26427e-11
-3.95835e-10
2.91332e-11
-3.93362e-10
-1.60232e-11
-3.82064e-10
-5.44465e-11
-3.63201e-10
-8.74159e-11
-3.37863e-10
-1.15709e-10
-3.06986e-10
-1.39928e-10
-2.71426e-10
-1.60431e-10
-2.31955e-10
-1.7756e-10
-1.89295e-10
-1.91542e-10
-1.44128e-10
-2.02527e-10
-9.71054e-11
-2.1069e-10
-4.88572e-11
-2.16054e-10
-1.93681e-15
-2.187e-10
4.88546e-11
-2.18728e-10
9.71038e-11
-2.16075e-10
1.44126e-10
-2.10647e-10
1.89293e-10
-2.02511e-10
2.31954e-10
-1.91589e-10
2.71426e-10
-1.77552e-10
3.06984e-10
-1.60414e-10
3.3786e-10
-1.39947e-10
3.63199e-10
-1.15688e-10
3.82064e-10
-8.74357e-11
3.93362e-10
-5.44543e-11
3.95834e-10
-1.60159e-11
3.87904e-10
2.91732e-11
3.67637e-10
8.26076e-11
3.32374e-10
1.47482e-10
2.78602e-10
2.27369e-10
2.01064e-10
3.29683e-10
9.22515e-11
4.64413e-10
-5.99225e-11
6.5108e-10
-2.74088e-10
9.18593e-10
-5.82175e-10
1.32526e-09
-1.03723e-09
1.96569e-09
-1.7355e-09
3.03419e-09
-2.84738e-09
4.87407e-09
-4.69518e-09
8.20227e-09
-7.85191e-09
1.43582e-08
-1.3353e-08
2.59154e-08
-1.97021e-08
7.5922e-08
-1.70422e-08
4.94562e-08
-1.86113e-07
1.53374e-08
-2.01447e-07
2.00479e-08
4.47458e-08
1.45629e-08
8.1407e-08
8.67658e-09
3.18017e-08
5.23618e-09
1.77987e-08
3.19715e-09
1.02413e-08
1.96126e-09
6.10994e-09
1.18123e-09
3.81422e-09
6.71137e-10
2.47579e-09
3.24957e-10
1.67144e-09
8.39027e-11
1.1597e-09
-8.76213e-11
8.22592e-10
-2.10445e-10
5.87249e-10
-2.98138e-10
4.17396e-10
-3.5914e-10
2.88347e-10
-3.99378e-10
1.87709e-10
-4.22806e-10
1.0608e-10
-4.32424e-10
3.87494e-11
-4.30411e-10
-1.80463e-11
-4.18542e-10
-6.63197e-11
-3.98231e-10
-1.07741e-10
-3.70702e-10
-1.4323e-10
-3.37001e-10
-1.73623e-10
-2.98088e-10
-1.99334e-10
-2.54821e-10
-2.20838e-10
-2.08006e-10
-2.38352e-10
-1.58403e-10
-2.52132e-10
-1.06736e-10
-2.62339e-10
-5.37066e-11
-2.69085e-10
-1.84566e-15
-2.72397e-10
5.37041e-11
-2.72441e-10
1.06734e-10
-2.69102e-10
1.584e-10
-2.62324e-10
2.08004e-10
-2.5213e-10
2.54819e-10
-2.3839e-10
2.98088e-10
-2.20824e-10
3.37e-10
-1.99322e-10
3.70698e-10
-1.73653e-10
3.98229e-10
-1.43236e-10
4.18542e-10
-1.07759e-10
4.3041e-10
-6.63301e-11
4.32423e-10
-1.80071e-11
4.22804e-10
3.87883e-11
3.99373e-10
1.06041e-10
3.59135e-10
1.87732e-10
2.98131e-10
2.88375e-10
2.10435e-10
4.174e-10
8.76116e-11
5.87246e-10
-8.39108e-11
8.226e-10
-3.24965e-10
1.15964e-09
-6.71144e-10
1.67143e-09
-1.18124e-09
2.47581e-09
-1.96128e-09
3.81421e-09
-3.19717e-09
6.10996e-09
-5.23619e-09
1.02413e-08
-8.6766e-09
1.77986e-08
-1.45629e-08
3.18017e-08
-2.00479e-08
8.1407e-08
-1.53374e-08
4.47457e-08
-2.0145e-07
1.41293e-08
-2.15576e-07
2.01641e-08
3.8711e-08
1.56015e-08
8.59696e-08
9.42785e-09
3.79753e-08
5.74561e-09
2.14809e-08
3.53408e-09
1.24528e-08
2.18288e-09
7.46113e-09
1.3254e-09
4.67169e-09
7.62532e-10
3.03865e-09
3.79536e-10
2.05442e-09
1.12348e-10
1.42689e-09
-7.80671e-11
1.01302e-09
-2.14631e-10
7.23818e-10
-3.12339e-10
5.15099e-10
-3.80531e-10
3.56551e-10
-4.25783e-10
2.32944e-10
-4.52484e-10
1.32775e-10
-4.63964e-10
5.02315e-11
-4.62639e-10
-1.93645e-11
-4.50479e-10
-7.84707e-11
-4.29047e-10
-1.29173e-10
-3.99693e-10
-1.72598e-10
-3.63573e-10
-2.09754e-10
-3.21739e-10
-2.41185e-10
-2.75137e-10
-2.67431e-10
-2.24651e-10
-2.88848e-10
-1.71113e-10
-3.05676e-10
-1.15316e-10
-3.18144e-10
-5.80284e-11
-3.26369e-10
-1.68657e-15
-3.30437e-10
5.80261e-11
-3.3047e-10
1.15313e-10
-3.26384e-10
1.7111e-10
-3.18114e-10
2.24649e-10
-3.05655e-10
2.75136e-10
-2.88884e-10
3.21739e-10
-2.67405e-10
3.63571e-10
-2.4116e-10
3.99688e-10
-2.09761e-10
4.29044e-10
-1.72585e-10
4.50479e-10
-1.2919e-10
4.62638e-10
-7.84738e-11
4.63963e-10
-1.93326e-11
4.52482e-10
5.02794e-11
4.25778e-10
1.32738e-10
3.80526e-10
2.32971e-10
3.12332e-10
3.56572e-10
2.1462e-10
5.15098e-10
7.80568e-11
7.23801e-10
-1.12356e-10
1.01301e-09
-3.79544e-10
1.42684e-09
-7.62539e-10
2.05443e-09
-1.32541e-09
3.03867e-09
-2.1829e-09
4.67171e-09
-3.53409e-09
7.46117e-09
-5.74563e-09
1.24528e-08
-9.42787e-09
2.14809e-08
-1.56015e-08
3.79754e-08
-2.01642e-08
8.59697e-08
-1.41293e-08
3.87109e-08
-2.15579e-07
1.30127e-08
-2.28589e-07
2.01975e-08
3.15263e-08
1.64677e-08
8.96994e-08
1.01036e-08
4.43394e-08
6.22195e-09
2.53625e-08
3.85738e-09
1.48174e-08
2.39998e-09
8.91854e-09
1.46958e-09
5.60209e-09
8.56327e-10
3.65191e-09
4.37851e-10
2.4729e-09
1.45317e-10
1.71942e-09
-6.35145e-11
1.22184e-09
-2.13538e-10
8.73834e-10
-3.21116e-10
6.22698e-10
-3.96456e-10
4.31878e-10
-4.46764e-10
2.8327e-10
-4.7685e-10
1.62854e-10
-4.90368e-10
6.37412e-11
-4.89966e-10
-1.97634e-11
-4.778e-10
-9.0643e-11
-4.55577e-10
-1.51397e-10
-4.24773e-10
-2.03404e-10
-3.86642e-10
-2.47871e-10
-3.42331e-10
-2.85482e-10
-2.92863e-10
-3.1691e-10
-2.39197e-10
-3.42508e-10
-1.82233e-10
-3.62633e-10
-1.22828e-10
-3.77553e-10
-6.18143e-11
-3.87387e-10
-1.47059e-15
-3.92251e-10
6.18122e-11
-3.92267e-10
1.22826e-10
-3.87412e-10
1.8223e-10
-3.7752e-10
2.39195e-10
-3.62633e-10
2.92861e-10
-3.4254e-10
3.42331e-10
-3.1689e-10
3.86641e-10
-2.85452e-10
4.24768e-10
-2.4789e-10
4.55574e-10
-2.03385e-10
4.778e-10
-1.51417e-10
4.89965e-10
-9.06493e-11
4.90367e-10
-1.97299e-11
4.76847e-10
6.37782e-11
4.46758e-10
1.62839e-10
3.9645e-10
2.83295e-10
3.21109e-10
4.31916e-10
2.13527e-10
6.22684e-10
6.35039e-11
8.73827e-10
-1.45325e-10
1.22185e-09
-4.3786e-10
1.71938e-09
-8.56334e-10
2.47291e-09
-1.46959e-09
3.65193e-09
-2.4e-09
5.60211e-09
-3.8574e-09
8.91856e-09
-6.22197e-09
1.48174e-08
-1.01036e-08
2.53625e-08
-1.64677e-08
4.43395e-08
-2.01975e-08
8.96995e-08
-1.30127e-08
3.15261e-08
-2.28592e-07
1.19799e-08
-2.40569e-07
2.01765e-08
2.33297e-08
1.71651e-08
9.27108e-08
1.07039e-08
5.08006e-08
6.66481e-09
2.94016e-08
4.16685e-09
1.73153e-08
2.61249e-09
1.04729e-08
1.61376e-09
6.60083e-09
9.52523e-10
4.31316e-09
4.99905e-10
2.92551e-09
1.828e-10
2.03652e-09
-4.39843e-11
1.44863e-09
-2.072e-10
1.03707e-09
-3.24513e-10
7.40002e-10
-4.06966e-10
5.14341e-10
-4.62377e-10
3.38691e-10
-4.95966e-10
1.96447e-10
-5.11701e-10
7.94809e-11
-5.12456e-10
-1.90087e-11
-5.00568e-10
-1.02522e-10
-4.77885e-10
-1.74087e-10
-4.45999e-10
-2.35287e-10
-4.06263e-10
-2.87611e-10
-3.5991e-10
-3.31834e-10
-3.08038e-10
-3.68776e-10
-2.51677e-10
-3.98877e-10
-1.91788e-10
-4.22545e-10
-1.29291e-10
-4.40051e-10
-6.50728e-11
-4.51598e-10
-1.19814e-15
-4.57312e-10
6.5071e-11
-4.57349e-10
1.29288e-10
-4.51607e-10
1.91784e-10
-4.40024e-10
2.51675e-10
-4.22527e-10
3.08036e-10
-3.98908e-10
3.59909e-10
-3.68755e-10
4.06262e-10
-3.31817e-10
4.45993e-10
-2.87618e-10
4.77882e-10
-2.35283e-10
5.00568e-10
-1.74112e-10
5.12454e-10
-1.02533e-10
5.11699e-10
-1.89751e-11
4.95963e-10
7.95376e-11
4.62371e-10
1.9642e-10
4.0696e-10
3.38696e-10
3.24506e-10
5.14377e-10
2.07188e-10
7.39993e-10
4.39734e-11
1.03704e-09
-1.82809e-10
1.44862e-09
-4.99913e-10
2.03647e-09
-9.5253e-10
2.92551e-09
-1.61377e-09
4.31315e-09
-2.61251e-09
6.60085e-09
-4.16687e-09
1.0473e-08
-6.66483e-09
1.73154e-08
-1.07039e-08
2.94016e-08
-1.71651e-08
5.08007e-08
-2.01766e-08
9.27109e-08
-1.19799e-08
2.33295e-08
-2.40572e-07
1.12755e-08
-2.51845e-07
2.0158e-08
1.44472e-08
1.7703e-08
9.51659e-08
1.12315e-08
5.72721e-08
7.075e-09
3.35581e-08
4.46288e-09
1.99275e-08
2.82062e-09
1.21152e-08
1.75806e-09
7.66339e-09
1.05116e-09
5.02006e-09
5.65664e-10
3.41101e-09
2.24712e-10
2.37748e-09
-1.96073e-11
1.69295e-09
-1.95782e-10
1.21323e-09
-3.22721e-10
8.6694e-10
-4.12272e-10
6.039e-10
-4.72844e-10
3.99244e-10
-5.10058e-10
2.33666e-10
-5.2819e-10
9.76056e-11
-5.30332e-10
-1.68548e-11
-5.18998e-10
-1.13844e-10
-4.96172e-10
-1.96899e-10
-4.63559e-10
-2.67905e-10
-4.22605e-10
-3.28569e-10
-3.74626e-10
-3.79825e-10
-3.20791e-10
-4.22613e-10
-2.62194e-10
-4.57462e-10
-1.99857e-10
-4.84877e-10
-1.34756e-10
-5.05135e-10
-6.78308e-11
-5.18531e-10
-9.40726e-16
-5.25155e-10
6.78293e-11
-5.25184e-10
1.34753e-10
-5.18542e-10
1.99854e-10
-5.05113e-10
2.62192e-10
-4.84851e-10
3.20789e-10
-4.57504e-10
3.74626e-10
-4.22581e-10
4.22604e-10
-3.79799e-10
4.63553e-10
-3.28567e-10
4.96168e-10
-2.67888e-10
5.18998e-10
-1.96921e-10
5.3033e-10
-1.13851e-10
5.28188e-10
-1.68366e-11
5.10055e-10
9.76529e-11
4.72837e-10
2.33638e-10
4.12265e-10
3.99258e-10
3.22714e-10
6.0393e-10
1.9577e-10
8.66935e-10
1.95963e-11
1.21322e-09
-2.2472e-10
1.69293e-09
-5.65672e-10
2.37743e-09
-1.05116e-09
3.41101e-09
-1.75807e-09
5.02008e-09
-2.82063e-09
7.66341e-09
-4.4629e-09
1.21152e-08
-7.07501e-09
1.99275e-08
-1.12315e-08
3.35581e-08
-1.7703e-08
5.72722e-08
-2.0158e-08
9.51659e-08
-1.12755e-08
1.4447e-08
-2.51848e-07
1.1119e-08
-2.62964e-07
2.02223e-08
5.34389e-09
1.80957e-08
9.72924e-08
1.16914e-08
6.36764e-08
7.45454e-09
3.7795e-08
4.74648e-09
2.26355e-08
3.02491e-09
1.38367e-08
1.90272e-09
8.78555e-09
1.1523e-09
5.77048e-09
6.35069e-10
3.92824e-09
2.70891e-10
2.74166e-09
9.38041e-12
1.95447e-09
-1.79576e-10
1.4022e-09
-3.16074e-10
1.00343e-09
-4.12734e-10
7.00545e-10
-4.78543e-10
4.65058e-10
-5.19513e-10
2.74624e-10
-5.4022e-10
1.18324e-10
-5.4397e-10
-1.31227e-11
-5.33452e-10
-1.24363e-10
-5.1078e-10
-2.19585e-10
-4.77768e-10
-3.00922e-10
-4.35954e-10
-3.7039e-10
-3.86731e-10
-4.29041e-10
-3.31336e-10
-4.77996e-10
-2.70924e-10
-5.17885e-10
-2.06574e-10
-5.49233e-10
-1.39313e-10
-5.72407e-10
-7.01332e-11
-5.8771e-10
-6.50163e-16
-5.9527e-10
7.01321e-11
-5.95303e-10
1.3931e-10
-5.87717e-10
2.0657e-10
-5.72364e-10
2.70922e-10
-5.49222e-10
3.31333e-10
-5.17913e-10
3.8673e-10
-4.77984e-10
4.35953e-10
-4.29017e-10
4.77762e-10
-3.70392e-10
5.10776e-10
-3.00913e-10
5.33452e-10
-2.19618e-10
5.43968e-10
-1.24381e-10
5.40218e-10
-1.30817e-11
5.1951e-10
1.18366e-10
4.78536e-10
2.74616e-10
4.12727e-10
4.65079e-10
3.16067e-10
7.00585e-10
1.79564e-10
1.00343e-09
-9.39149e-12
1.40217e-09
-2.70899e-10
1.95444e-09
-6.35078e-10
2.74161e-09
-1.15231e-09
3.92824e-09
-1.90273e-09
5.7705e-09
-3.02492e-09
8.78561e-09
-4.7465e-09
1.38368e-08
-7.45456e-09
2.26355e-08
-1.16915e-08
3.7795e-08
-1.80957e-08
6.36764e-08
-2.02223e-08
9.72924e-08
-1.1119e-08
5.3437e-09
-2.62967e-07
1.16032e-08
-2.74567e-07
2.04244e-08
-3.47736e-09
1.83619e-08
9.93549e-08
1.20909e-08
6.99474e-08
7.80657e-09
4.20794e-08
5.01923e-09
2.54229e-08
3.22618e-09
1.56298e-08
2.04816e-09
9.96358e-09
1.25607e-09
6.56257e-09
7.08047e-10
4.47625e-09
3.21123e-10
3.12858e-09
4.26593e-11
2.23293e-09
-1.5898e-10
1.60382e-09
-3.05023e-10
1.14948e-09
-4.08841e-10
8.04386e-10
-4.79987e-10
5.36201e-10
-5.24851e-10
3.19482e-10
-5.4831e-10
1.41765e-10
-5.53878e-10
-7.54504e-12
-5.44417e-10
-1.33829e-10
-5.22166e-10
-2.41841e-10
-4.8905e-10
-3.34038e-10
-4.46693e-10
-4.12743e-10
-3.96561e-10
-4.79178e-10
-3.39959e-10
-5.34602e-10
-2.781e-10
-5.79741e-10
-2.12115e-10
-6.15215e-10
-1.43083e-10
-6.41431e-10
-7.204e-11
-6.58766e-10
-3.83125e-16
-6.67328e-10
7.20393e-11
-6.67356e-10
1.4308e-10
-6.58757e-10
2.12112e-10
-6.41413e-10
2.78098e-10
-6.15205e-10
3.39957e-10
-5.7978e-10
3.96561e-10
-5.34602e-10
4.46691e-10
-4.79144e-10
4.89044e-10
-4.12729e-10
5.22162e-10
-3.34015e-10
5.44416e-10
-2.41858e-10
5.53876e-10
-1.33846e-10
5.48307e-10
-7.50439e-12
5.24848e-10
1.4183e-10
4.7998e-10
3.1948e-10
4.08835e-10
5.36228e-10
3.05016e-10
8.04403e-10
1.58967e-10
1.14949e-09
-4.26704e-11
1.60381e-09
-3.21132e-10
2.23292e-09
-7.08055e-10
3.12853e-09
-1.25608e-09
4.47625e-09
-2.04817e-09
6.56258e-09
-3.22619e-09
9.96363e-09
-5.01924e-09
1.56298e-08
-7.80659e-09
2.54229e-08
-1.20909e-08
4.20793e-08
-1.83619e-08
6.99475e-08
-2.04244e-08
9.9355e-08
-1.16032e-08
-3.47757e-09
-2.7457e-07
1.26626e-08
-2.87229e-07
2.07643e-08
-1.15791e-08
1.85223e-08
1.01597e-07
1.24383e-08
7.60314e-08
8.13496e-09
4.63827e-08
5.28309e-09
2.82747e-08
3.42547e-09
1.74874e-08
2.19487e-09
1.11942e-08
1.36264e-09
7.39482e-09
7.84528e-10
5.05437e-09
3.75168e-10
3.53795e-09
7.98641e-11
2.52822e-09
-1.34449e-10
1.81814e-09
-2.90092e-10
1.30512e-09
-4.01162e-10
9.15438e-10
-4.77767e-10
6.1282e-10
-5.26677e-10
3.68411e-10
-5.53061e-10
1.68157e-10
-5.60644e-10
4.05925e-14
-5.52455e-10
-1.42012e-10
-5.30863e-10
-2.63423e-10
-4.97896e-10
-3.6701e-10
-4.55264e-10
-4.55386e-10
-4.04508e-10
-5.29928e-10
-3.46995e-10
-5.92117e-10
-2.83993e-10
-6.42753e-10
-2.16688e-10
-6.82519e-10
-1.46203e-10
-7.1193e-10
-7.36212e-11
-7.31339e-10
-1.01498e-16
-7.40948e-10
7.36207e-11
-7.40981e-10
1.462e-10
-7.31341e-10
2.16684e-10
-7.11893e-10
2.83991e-10
-6.825e-10
3.46992e-10
-6.42775e-10
4.04507e-10
-5.92098e-10
4.55262e-10
-5.29895e-10
4.9789e-10
-4.55354e-10
5.30859e-10
-3.66987e-10
5.52454e-10
-2.6346e-10
5.60641e-10
-1.42033e-10
5.53057e-10
6.68875e-14
5.26673e-10
1.68215e-10
4.7776e-10
3.68397e-10
4.01155e-10
6.12814e-10
2.90085e-10
9.15485e-10
1.34437e-10
1.30513e-09
-7.98751e-11
1.81812e-09
-3.75177e-10
2.52821e-09
-7.84536e-10
3.53788e-09
-1.36265e-09
5.05437e-09
-2.19488e-09
7.39482e-09
-3.42549e-09
1.11942e-08
-5.2831e-09
1.74874e-08
-8.13498e-09
2.82747e-08
-1.24383e-08
4.63827e-08
-1.85223e-08
7.60315e-08
-2.07643e-08
1.01597e-07
-1.26626e-08
-1.15793e-08
-2.87232e-07
1.40744e-08
-3.01304e-07
2.11822e-08
-1.86869e-08
1.85976e-08
1.04182e-07
1.27424e-08
8.18866e-08
8.44388e-09
5.06812e-08
5.5402e-09
3.11784e-08
3.62394e-09
1.94037e-08
2.34344e-09
1.24747e-08
1.47222e-09
8.26602e-09
8.64469e-10
5.66211e-09
4.32801e-10
3.96962e-09
1.20635e-10
2.84039e-09
-1.06443e-10
2.04522e-09
-2.71808e-10
1.47048e-09
-3.90271e-10
1.03391e-09
-4.7249e-10
6.95029e-10
-5.25609e-10
4.21519e-10
-5.55091e-10
1.97643e-10
-5.64873e-10
9.82897e-12
-5.58149e-10
-1.48744e-10
-5.37417e-10
-2.84169e-10
-5.04812e-10
-3.99615e-10
-4.62126e-10
-4.98049e-10
-4.10975e-10
-5.81081e-10
-3.52785e-10
-6.50293e-10
-2.88884e-10
-7.06664e-10
-2.20504e-10
-7.50905e-10
-1.48816e-10
-7.83591e-10
-7.49486e-11
-8.05213e-10
1.4541e-16
-8.15893e-10
7.49483e-11
-8.15934e-10
1.48814e-10
-8.05184e-10
2.205e-10
-7.83576e-10
2.88881e-10
-7.50885e-10
3.52783e-10
-7.06673e-10
4.10974e-10
-6.50295e-10
4.62124e-10
-5.81051e-10
5.04807e-10
-4.98036e-10
5.37413e-10
-3.9959e-10
5.58148e-10
-2.84191e-10
5.6487e-10
-1.48738e-10
5.55088e-10
9.85359e-12
5.25604e-10
1.97699e-10
4.72483e-10
4.21505e-10
3.90265e-10
6.95054e-10
2.71801e-10
1.03394e-09
1.06431e-10
1.4705e-09
-1.20645e-10
2.04519e-09
-4.32809e-10
2.84037e-09
-8.64477e-10
3.96956e-09
-1.47223e-09
5.66213e-09
-2.34345e-09
8.26604e-09
-3.62395e-09
1.24748e-08
-5.54022e-09
1.94037e-08
-8.44389e-09
3.11784e-08
-1.27424e-08
5.06812e-08
-1.85976e-08
8.18867e-08
-2.11822e-08
1.04182e-07
-1.40744e-08
-1.86871e-08
-3.01307e-07
1.55172e-08
-3.16821e-07
2.15764e-08
-2.47461e-08
1.86057e-08
1.07152e-07
1.30112e-08
8.74811e-08
8.73722e-09
5.49552e-08
5.79262e-09
3.4123e-08
3.82269e-09
2.13736e-08
2.49445e-09
1.38029e-08
1.58505e-09
9.17543e-09
9.47872e-10
6.2993e-09
4.93846e-10
4.42364e-09
1.64667e-10
3.16957e-09
-7.53617e-11
2.28526e-09
-2.50642e-10
1.64578e-09
-3.76688e-10
1.15997e-09
-4.64703e-10
7.83048e-10
-5.22209e-10
4.79026e-10
-5.54963e-10
2.30411e-10
-5.67115e-10
2.19791e-11
-5.6203e-10
-1.53821e-10
-5.42332e-10
-3.03866e-10
-5.10263e-10
-4.31671e-10
-4.677e-10
-5.40634e-10
-4.16332e-10
-6.32451e-10
-3.57648e-10
-7.08982e-10
-2.93029e-10
-7.71259e-10
-2.23759e-10
-8.20163e-10
-1.51056e-10
-8.56312e-10
-7.60886e-11
-8.80173e-10
3.40694e-16
-8.91981e-10
7.60886e-11
-8.92015e-10
1.51053e-10
-8.80164e-10
2.23756e-10
-8.56274e-10
2.93026e-10
-8.20157e-10
3.57646e-10
-7.71315e-10
4.1633e-10
-7.0898e-10
4.67697e-10
-6.32415e-10
5.10257e-10
-5.40591e-10
5.42328e-10
-4.31663e-10
5.62028e-10
-3.03883e-10
5.67112e-10
-1.53817e-10
5.54959e-10
2.20061e-11
5.22203e-10
2.30461e-10
4.64696e-10
4.79032e-10
3.76682e-10
7.83077e-10
2.50634e-10
1.15999e-09
7.53505e-11
1.64577e-09
-1.64678e-10
2.28523e-09
-4.93854e-10
3.16952e-09
-9.4788e-10
4.42357e-09
-1.58506e-09
6.29932e-09
-2.49446e-09
9.17544e-09
-3.82271e-09
1.3803e-08
-5.79264e-09
2.13736e-08
-8.73724e-09
3.4123e-08
-1.30112e-08
5.49552e-08
-1.86057e-08
8.74812e-08
-2.15764e-08
1.07152e-07
-1.55172e-08
-2.47463e-08
-3.16824e-07
1.66761e-08
-3.33497e-07
2.18358e-08
-2.99058e-08
1.856e-08
1.10428e-07
1.32506e-08
9.27905e-08
9.01815e-09
5.91877e-08
6.04202e-09
3.70991e-08
4.0227e-09
2.33929e-08
2.64844e-09
1.51772e-08
1.70139e-09
1.01225e-08
1.03479e-09
6.9659e-09
5.58209e-10
4.90024e-09
2.11753e-10
3.51605e-09
-4.14991e-11
2.5385e-09
-2.2695e-10
1.83123e-09
-3.60812e-10
1.29382e-09
-4.54835e-10
8.77066e-10
-5.16921e-10
5.41107e-10
-5.53126e-10
2.66607e-10
-5.67814e-10
3.66569e-11
-5.64525e-10
-1.57123e-10
-5.46011e-10
-3.22376e-10
-5.14624e-10
-4.63092e-10
-4.72325e-10
-5.82924e-10
-4.2088e-10
-6.83898e-10
-3.61838e-10
-7.68011e-10
-2.96639e-10
-8.36481e-10
-2.26614e-10
-8.90195e-10
-1.53028e-10
-9.29876e-10
-7.70952e-11
-9.56098e-10
5.2016e-16
-9.69082e-10
7.70954e-11
-9.69111e-10
1.53026e-10
-9.56094e-10
2.2661e-10
-9.29846e-10
2.96636e-10
-8.90187e-10
3.61836e-10
-8.36493e-10
4.20878e-10
-7.68011e-10
4.72323e-10
-6.83854e-10
5.14618e-10
-5.82885e-10
5.46007e-10
-4.63053e-10
5.64522e-10
-3.2241e-10
5.67811e-10
-1.57138e-10
5.53122e-10
3.671e-11
5.16915e-10
2.66662e-10
4.54828e-10
5.41089e-10
3.60806e-10
8.7708e-10
2.26942e-10
1.29385e-09
4.14882e-11
1.83123e-09
-2.11763e-10
2.53847e-09
-5.58218e-10
3.516e-09
-1.0348e-09
4.90017e-09
-1.7014e-09
6.9659e-09
-2.64845e-09
1.01225e-08
-4.02272e-09
1.51773e-08
-6.04204e-09
2.3393e-08
-9.01816e-09
3.70992e-08
-1.32507e-08
5.91876e-08
-1.856e-08
9.27906e-08
-2.18358e-08
1.10428e-07
-1.6676e-08
-2.99061e-08
-3.335e-07
1.73381e-08
-3.50835e-07
2.18733e-08
-3.4441e-08
1.84689e-08
1.13832e-07
1.34646e-08
9.77948e-08
9.28874e-09
6.33635e-08
6.28958e-09
4.00983e-08
4.22469e-09
2.54578e-08
2.80586e-09
1.6596e-08
1.82149e-09
1.11068e-08
1.12534e-09
7.66207e-09
6.25882e-10
5.39968e-09
2.61793e-10
3.88012e-09
-5.02314e-12
2.80531e-09
-2.00952e-10
2.02717e-09
-3.42903e-10
1.43578e-09
-4.43172e-10
9.77345e-10
-5.10046e-10
6.07979e-10
-5.49887e-10
3.06439e-10
-5.67277e-10
5.40572e-11
-5.65932e-10
-1.58453e-10
-5.48739e-10
-3.39558e-10
-5.1816e-10
-4.93647e-10
-4.76245e-10
-6.24848e-10
-4.24833e-10
-7.35294e-10
-3.65541e-10
-8.27325e-10
-2.99862e-10
-9.02133e-10
-2.29181e-10
-9.60889e-10
-1.5481e-10
-1.00428e-09
-7.80071e-11
-1.03291e-09
6.83765e-16
-1.04709e-09
7.80074e-11
-1.04711e-09
1.54808e-10
-1.0329e-09
2.29177e-10
-1.00422e-09
2.99859e-10
-9.60871e-10
3.65539e-10
-9.02178e-10
4.24831e-10
-8.27317e-10
4.76241e-10
-7.35277e-10
5.18154e-10
-6.24793e-10
5.48735e-10
-4.93634e-10
5.65929e-10
-3.3961e-10
5.67274e-10
-1.58467e-10
5.49882e-10
5.40783e-11
5.1004e-10
3.06514e-10
4.43165e-10
6.07995e-10
3.42897e-10
9.77379e-10
2.00945e-10
1.43582e-09
5.01258e-12
2.02717e-09
-2.61804e-10
2.80528e-09
-6.25891e-10
3.88007e-09