/*--------------------------------*- C++ -*----------------------------------*\
| =========                 |                                                 |
| \\      /  F ield         | foam-extend: Open Source CFD                    |
|  \\    /   O peration     | Version:     4.0                                |
|   \\  /    A nd           | Web:         http://www.foam-extend.org         |
|    \\/     M anipulation  |                                                 |
\*---------------------------------------------------------------------------*/
FoamFile
{
    version     2.0;
    format      ascii;
    class       volScalarField;
    location    "1";
    object      psiE;
}
// * * * * * * * * * * * * * * * * * * * * * * * * * * * * * * * * * * * * * //

dimensions      [1 2 -3 0 0 -1 0];

internalField   nonuniform List<scalar> 
6960
(
-1.47494e-36
-1.45421e-36
-1.45115e-36
-1.38614e-36
-1.28972e-36
-1.18087e-36
-1.01756e-36
-8.65772e-37
-7.93857e-37
-6.42289e-37
-4.82232e-37
-3.76127e-37
-2.6955e-37
-1.85939e-37
-6.46758e-38
5.84005e-38
1.79176e-37
3.1293e-37
4.16854e-37
4.49222e-37
3.76944e-37
2.9089e-37
1.88023e-37
4.71111e-38
-9.32483e-38
-2.24916e-37
-3.65429e-37
-6.06567e-37
-8.45753e-37
-1.0551e-36
-1.2511e-36
-1.42551e-36
-1.53496e-36
-1.57503e-36
-1.63595e-36
-1.66643e-36
-1.66501e-36
-1.65597e-36
-1.57438e-36
-1.50878e-36
-1.47741e-36
-1.50533e-36
-1.57019e-36
-1.65684e-36
-1.78148e-36
-1.89291e-36
-1.99715e-36
-2.01124e-36
-2.01347e-36
-2.07486e-36
-2.12134e-36
-2.1504e-36
-2.21442e-36
-2.28456e-36
-2.36414e-36
-2.43835e-36
-2.58406e-36
-2.67454e-36
-2.71227e-36
-2.73621e-36
-4.45059e-36
-4.38867e-36
-4.37519e-36
-4.1815e-36
-3.89472e-36
-3.56623e-36
-3.07815e-36
-2.62428e-36
-2.40082e-36
-1.94696e-36
-1.46751e-36
-1.14521e-36
-8.23071e-37
-5.67309e-37
-2.00717e-37
1.69414e-37
5.32327e-37
9.31611e-37
1.2401e-36
1.33466e-36
1.12083e-36
8.61522e-37
5.50344e-37
1.30427e-37
-2.89806e-37
-6.8958e-37
-1.11722e-36
-1.83958e-36
-2.55882e-36
-3.19163e-36
-3.78101e-36
-4.30373e-36
-4.63474e-36
-4.76225e-36
-4.94704e-36
-5.0391e-36
-5.03819e-36
-5.00923e-36
-4.7705e-36
-4.57682e-36
-4.48142e-36
-4.56461e-36
-4.75868e-36
-5.01756e-36
-5.38856e-36
-5.72204e-36
-6.03235e-36
-6.07901e-36
-6.08722e-36
-6.26974e-36
-6.40864e-36
-6.50061e-36
-6.69284e-36
-6.90242e-36
-7.14302e-36
-7.3689e-36
-7.80392e-36
-8.07595e-36
-8.19239e-36
-8.26472e-36
-7.4958e-36
-7.39231e-36
-7.36401e-36
-7.04121e-36
-6.56382e-36
-6.01042e-36
-5.19495e-36
-4.43627e-36
-4.05105e-36
-3.29136e-36
-2.48885e-36
-1.94296e-36
-1.39966e-36
-9.64158e-37
-3.4576e-37
2.75937e-37
8.84996e-37
1.5513e-36
2.06389e-36
2.21887e-36
1.86452e-36
1.42843e-36
9.03398e-37
2.03227e-37
-4.99937e-37
-1.17657e-36
-1.90195e-36
-3.11134e-36
-4.31919e-36
-5.3865e-36
-6.37636e-36
-7.25201e-36
-7.81053e-36
-8.03431e-36
-8.34696e-36
-8.50229e-36
-8.50535e-36
-8.45436e-36
-8.0626e-36
-7.74219e-36
-7.58057e-36
-7.7191e-36
-8.04391e-36
-8.47635e-36
-9.09408e-36
-9.65199e-36
-1.01686e-35
-1.0253e-35
-1.02689e-35
-1.05723e-35
-1.08045e-35
-1.09653e-35
-1.12878e-35
-1.1638e-35
-1.20438e-35
-1.24269e-35
-1.31533e-35
-1.361e-35
-1.38095e-35
-1.39317e-35
-1.06113e-35
-1.04659e-35
-1.04183e-35
-9.96616e-36
-9.29793e-36
-8.51441e-36
-7.36906e-36
-6.30302e-36
-5.7454e-36
-4.67643e-36
-3.54749e-36
-2.7702e-36
-2.00008e-36
-1.37693e-36
-5.00267e-37
3.77605e-37
1.23659e-36
2.17106e-36
2.88699e-36
3.10054e-36
2.60675e-36
1.99054e-36
1.24611e-36
2.64572e-37
-7.24391e-37
-1.68687e-36
-2.72088e-36
-4.42308e-36
-6.12791e-36
-7.641e-36
-9.03846e-36
-1.02717e-35
-1.10639e-35
-1.13931e-35
-1.18377e-35
-1.20582e-35
-1.20687e-35
-1.19938e-35
-1.14535e-35
-1.10077e-35
-1.07778e-35
-1.09716e-35
-1.14287e-35
-1.20361e-35
-1.29005e-35
-1.36851e-35
-1.4408e-35
-1.45354e-35
-1.45608e-35
-1.49847e-35
-1.5311e-35
-1.55467e-35
-1.60016e-35
-1.64936e-35
-1.70689e-35
-1.76151e-35
-1.86345e-35
-1.92791e-35
-1.95661e-35
-1.97397e-35
-1.37978e-35
-1.361e-35
-1.35386e-35
-1.29573e-35
-1.2098e-35
-1.10791e-35
-9.6016e-36
-8.22586e-36
-7.48462e-36
-6.10318e-36
-4.64461e-36
-3.62768e-36
-2.62522e-36
-1.80616e-36
-6.64705e-37
4.73976e-37
1.58652e-36
2.78983e-36
3.70805e-36
3.97819e-36
3.34608e-36
2.54665e-36
1.57728e-36
3.13456e-37
-9.64018e-37
-2.22152e-36
-3.57538e-36
-5.776e-36
-7.98629e-36
-9.95639e-36
-1.17684e-35
-1.3364e-35
-1.43961e-35
-1.48406e-35
-1.54212e-35
-1.5709e-35
-1.57305e-35
-1.56299e-35
-1.4946e-35
-1.43764e-35
-1.40764e-35
-1.43251e-35
-1.49159e-35
-1.56997e-35
-1.68102e-35
-1.78237e-35
-1.87524e-35
-1.89286e-35
-1.89653e-35
-1.95092e-35
-1.99301e-35
-2.0247e-35
-2.08366e-35
-2.14718e-35
-2.22206e-35
-2.2936e-35
-2.42499e-35
-2.50852e-35
-2.54646e-35
-2.56914e-35
-1.70559e-35
-1.68253e-35
-1.67254e-35
-1.60154e-35
-1.49647e-35
-1.37054e-35
-1.18939e-35
-1.02061e-35
-9.26955e-36
-7.57263e-36
-5.78145e-36
-4.51628e-36
-3.2758e-36
-2.25237e-36
-8.39572e-37
5.64595e-37
1.93415e-36
3.40653e-36
4.52552e-36
4.85022e-36
4.08093e-36
3.09554e-36
1.89566e-36
3.48823e-37
-1.2198e-36
-2.78148e-36
-4.46666e-36
-7.17139e-36
-9.8955e-36
-1.23338e-35
-1.45674e-35
-1.65304e-35
-1.78088e-35
-1.83786e-35
-1.90994e-35
-1.94573e-35
-1.94929e-35
-1.93652e-35
-1.85428e-35
-1.78514e-35
-1.74794e-35
-1.77824e-35
-1.85087e-35
-1.94701e-35
-2.08259e-35
-2.20702e-35
-2.32042e-35
-2.34349e-35
-2.34849e-35
-2.41478e-35
-2.46636e-35
-2.50686e-35
-2.57953e-35
-2.6575e-35
-2.75016e-35
-2.83924e-35
-3.00017e-35
-3.10308e-35
-3.15077e-35
-3.17893e-35
-2.03862e-35
-2.01125e-35
-1.99794e-35
-1.91413e-35
-1.7899e-35
-1.63945e-35
-1.42471e-35
-1.22452e-35
-1.11011e-35
-9.08567e-36
-6.9593e-36
-5.43693e-36
-3.95263e-36
-2.71613e-36
-1.02552e-36
6.48997e-37
2.27889e-36
4.02002e-36
5.33787e-36
5.71499e-36
4.80957e-36
3.63584e-36
2.20009e-36
3.69578e-37
-1.49287e-36
-3.36779e-36
-5.39602e-36
-8.61062e-36
-1.18567e-35
-1.47744e-35
-1.74366e-35
-1.97721e-35
-2.13034e-35
-2.20089e-35
-2.28743e-35
-2.33054e-35
-2.33581e-35
-2.32026e-35
-2.22469e-35
-2.14356e-35
-2.09903e-35
-2.13467e-35
-2.22099e-35
-2.33503e-35
-2.49501e-35
-2.64267e-35
-2.77655e-35
-2.80563e-35
-2.81223e-35
-2.89029e-35
-2.95137e-35
-3.00139e-35
-3.08801e-35
-3.18059e-35
-3.29144e-35
-3.39871e-35
-3.58924e-35
-3.71181e-35
-3.76977e-35
-3.80359e-35
-2.37895e-35
-2.34719e-35
-2.33011e-35
-2.23355e-35
-2.09015e-35
-1.91471e-35
-1.66626e-35
-1.4344e-35
-1.29801e-35
-1.06435e-35
-8.17938e-36
-6.39063e-36
-4.65638e-36
-3.19803e-36
-1.22324e-36
7.26704e-37
2.62016e-36
4.62913e-36
6.14346e-36
6.57087e-36
5.53028e-36
4.16608e-36
2.48944e-36
3.7464e-37
-1.78436e-36
-3.98145e-36
-6.36462e-36
-1.00949e-35
-1.38709e-35
-1.72792e-35
-2.03774e-35
-2.30907e-35
-2.48813e-35
-2.57336e-35
-2.67478e-35
-2.72555e-35
-2.73284e-35
-2.71448e-35
-2.60611e-35
-2.51318e-35
-2.46123e-35
-2.50212e-35
-2.60228e-35
-2.73432e-35
-2.91854e-35
-3.08958e-35
-3.24385e-35
-3.27954e-35
-3.28798e-35
-3.37769e-35
-3.44824e-35
-3.50854e-35
-3.60933e-35
-3.71671e-35
-3.84618e-35
-3.97229e-35
-4.19243e-35
-4.33497e-35
-4.40374e-35
-4.44338e-35
-2.72666e-35
-2.69043e-35
-2.66909e-35
-2.55988e-35
-2.39727e-35
-2.19642e-35
-1.91414e-35
-1.65038e-35
-1.49075e-35
-1.22472e-35
-9.44281e-36
-7.37847e-36
-5.38775e-36
-3.69873e-36
-1.43334e-36
7.97225e-37
2.95727e-36
5.23265e-36
6.94059e-36
7.41607e-36
6.24137e-36
4.68459e-36
2.76249e-36
3.62844e-37
-2.09538e-36
-4.62341e-36
-7.37372e-36
-1.16256e-35
-1.59394e-35
-1.98495e-35
-2.33909e-35
-2.64876e-35
-2.85438e-35
-2.95545e-35
-3.07217e-35
-3.131e-35
-3.14063e-35
-3.11943e-35
-2.99885e-35
-2.89432e-35
-2.83491e-35
-2.88094e-35
-2.99505e-35
-3.1452e-35
-3.35345e-35
-3.54797e-35
-3.72255e-35
-3.76545e-35
-3.776e-35
-3.87722e-35
-3.95723e-35
-4.02854e-35
-4.14375e-35
-4.26612e-35
-4.41465e-35
-4.56025e-35
-4.80994e-35
-4.97277e-35
-5.0529e-35
-5.09856e-35
-3.08182e-35
-3.041e-35
-3.01494e-35
-2.89316e-35
-2.71132e-35
-2.48468e-35
-2.1685e-35
-1.87257e-35
-1.68841e-35
-1.38977e-35
-1.07508e-35
-8.40156e-36
-6.14761e-36
-4.21896e-36
-1.65657e-36
8.60026e-37
3.28938e-36
5.82912e-36
7.72743e-36
8.24894e-36
6.94098e-36
5.18972e-36
3.01782e-36
3.3287e-37
-2.42742e-36
-5.29456e-36
-8.42448e-36
-1.3204e-35
-1.80634e-35
-2.24865e-35
-2.64784e-35
-2.99642e-35
-3.22923e-35
-3.34736e-35
-3.47978e-35
-3.5471e-35
-3.55942e-35
-3.5354e-35
-3.40321e-35
-3.28726e-35
-3.22042e-35
-3.27144e-35
-3.3996e-35
-3.56799e-35
-3.80001e-35
-4.01811e-35
-4.21287e-35
-4.26358e-35
-4.27657e-35
-4.38911e-35
-4.47855e-35
-4.56164e-35
-4.69155e-35
-4.82911e-35
-4.99712e-35
-5.16286e-35
-5.442e-35
-5.62544e-35
-5.71748e-35
-5.76935e-35
-3.44446e-35
-3.39894e-35
-3.3677e-35
-3.23342e-35
-3.03234e-35
-2.77955e-35
-2.42945e-35
-2.10108e-35
-1.89107e-35
-1.55962e-35
-1.21044e-35
-9.46111e-36
-6.93684e-36
-4.75958e-36
-1.89374e-36
9.14684e-37
3.61545e-36
6.41707e-36
8.50205e-36
9.06773e-36
7.62728e-36
5.67955e-36
3.25387e-36
2.8335e-37
-2.78202e-36
-5.99603e-36
-9.51816e-36
-1.48314e-35
-2.02442e-35
-2.51915e-35
-2.96414e-35
-3.3522e-35
-3.61285e-35
-3.74926e-35
-3.8978e-35
-3.97406e-35
-3.98945e-35
-3.96265e-35
-3.81951e-35
-3.69229e-35
-3.61814e-35
-3.67399e-35
-3.81628e-35
-4.00303e-35
-4.25849e-35
-4.50025e-35
-4.71504e-35
-4.77418e-35
-4.78993e-35
-4.91362e-35
-5.01244e-35
-5.10808e-35
-5.25298e-35
-5.40595e-35
-5.59385e-35
-5.7804e-35
-6.08882e-35
-6.2932e-35
-6.39771e-35
-6.45601e-35
-3.81467e-35
-3.76429e-35
-3.72745e-35
-3.58073e-35
-3.3604e-35
-3.08113e-35
-2.69711e-35
-2.33602e-35
-2.09882e-35
-1.73438e-35
-1.35051e-35
-1.05584e-35
-7.75658e-36
-5.32139e-36
-2.14557e-36
9.60402e-37
3.93422e-36
6.9948e-36
9.26231e-36
9.87036e-36
8.2984e-36
6.15228e-36
3.46895e-36
2.12596e-37
-3.16119e-36
-6.72924e-36
-1.06564e-35
-1.65093e-35
-2.24832e-35
-2.79656e-35
-3.28813e-35
-3.71623e-35
-4.00537e-35
-4.16135e-35
-4.32645e-35
-4.41208e-35
-4.43095e-35
-4.40149e-35
-4.24809e-35
-4.10973e-35
-4.02847e-35
-4.08893e-35
-4.2454e-35
-4.45062e-35
-4.72916e-35
-4.99465e-35
-5.22931e-35
-5.29749e-35
-5.31634e-35
-5.45099e-35
-5.55918e-35
-5.66812e-35
-5.82831e-35
-5.99692e-35
-6.20513e-35
-6.41314e-35
-6.75061e-35
-6.97626e-35
-7.0938e-35
-7.15876e-35
-4.19246e-35
-4.13708e-35
-4.09423e-35
-3.93512e-35
-3.69558e-35
-3.38951e-35
-2.9716e-35
-2.57749e-35
-2.31176e-35
-1.91418e-35
-1.4954e-35
-1.16947e-35
-8.60776e-36
-5.90536e-36
-2.41302e-36
9.96315e-37
4.24435e-36
7.56059e-36
1.00061e-35
1.06549e-35
8.95265e-36
6.6061e-36
3.66125e-36
1.18826e-37
-3.56695e-36
-7.49564e-36
-1.18407e-35
-1.82394e-35
-2.4782e-35
-3.081e-35
-3.61994e-35
-4.08866e-35
-4.40695e-35
-4.58381e-35
-4.76594e-35
-4.8614e-35
-4.88416e-35
-4.8522e-35
-4.68928e-35
-4.53991e-35
-4.4518e-35
-4.51662e-35
-4.68732e-35
-4.91111e-35
-5.21232e-35
-5.50156e-35
-5.75594e-35
-5.83372e-35
-5.85603e-35
-6.00145e-35
-6.11905e-35
-6.242e-35
-6.41781e-35
-6.60229e-35
-6.83119e-35
-7.06135e-35
-7.42759e-35
-7.67486e-35
-7.80597e-35
-7.87784e-35
-4.57786e-35
-4.51736e-35
-4.46811e-35
-4.29663e-35
-4.03792e-35
-3.70477e-35
-3.253e-35
-2.82556e-35
-2.52998e-35
-2.09911e-35
-1.64521e-35
-1.28716e-35
-9.49132e-36
-6.51257e-36
-2.69697e-36
1.02124e-36
4.54452e-36
8.11242e-36
1.0731e-35
1.1419e-35
9.5881e-36
7.03904e-36
3.8291e-36
3.78733e-40
-4.00128e-36
-8.29669e-36
-1.3073e-35
-2.00236e-35
-2.7142e-35
-3.37259e-35
-3.95974e-35
-4.4696e-35
-4.81773e-35
-5.01682e-35
-5.21648e-35
-5.32221e-35
-5.3493e-35
-5.31508e-35
-5.14339e-35
-4.98319e-35
-4.88851e-35
-4.95743e-35
-5.1424e-35
-5.3848e-35
-5.70828e-35
-6.02127e-35
-6.29519e-35
-6.38308e-35
-6.40924e-35
-6.56523e-35
-6.69235e-35
-6.82997e-35
-7.02176e-35
-7.22231e-35
-7.47229e-35
-7.72528e-35
-8.11994e-35
-8.38919e-35
-8.53443e-35
-8.61345e-35
-4.97089e-35
-4.90514e-35
-4.84912e-35
-4.66533e-35
-4.38747e-35
-4.02701e-35
-3.54143e-35
-3.0803e-35
-2.75357e-35
-2.28927e-35
-1.80004e-35
-1.40905e-35
-1.04082e-35
-7.14422e-36
-2.99849e-36
1.03401e-36
4.83351e-36
8.64831e-36
1.14349e-35
1.21605e-35
1.02025e-35
7.44895e-36
3.97054e-36
-1.44545e-37
-4.46588e-36
-9.13382e-36
-1.43549e-35
-2.18639e-35
-2.95648e-35
-3.67144e-35
-4.30765e-35
-4.85923e-35
-5.23787e-35
-5.46057e-35
-5.67827e-35
-5.79473e-35
-5.8266e-35
-5.79048e-35
-5.61073e-35
-5.43991e-35
-5.33898e-35
-5.41171e-35
-5.61096e-35
-5.872e-35
-6.21733e-35
-6.55404e-35
-6.8473e-35
-6.94578e-35
-6.97622e-35
-7.14259e-35
-7.27937e-35
-7.43229e-35
-7.64041e-35
-7.85726e-35
-8.12865e-35
-8.40515e-35
-8.82785e-35
-9.11943e-35
-9.27939e-35
-9.36579e-35
-5.37155e-35
-5.30046e-35
-5.23731e-35
-5.04127e-35
-4.74425e-35
-4.35628e-35
-3.83699e-35
-3.3418e-35
-2.98267e-35
-2.48476e-35
-1.95999e-35
-1.53528e-35
-1.13596e-35
-7.80156e-36
-3.3188e-36
1.03312e-36
5.10965e-36
9.16617e-36
1.21154e-35
1.28768e-35
1.07935e-35
7.83349e-36
4.08357e-36
-3.17757e-37
-4.96266e-36
-1.00086e-35
-1.56884e-35
-2.37621e-35
-3.20521e-35
-3.97767e-35
-4.66377e-35
-5.25766e-35
-5.66752e-35
-5.9152e-35
-6.15151e-35
-6.27916e-35
-6.31632e-35
-6.27871e-35
-6.09162e-35
-5.91045e-35
-5.80357e-35
-5.87985e-35
-6.09336e-35
-6.37304e-35
-6.73978e-35
-7.10012e-35
-7.41253e-35
-7.522e-35
-7.5572e-35
-7.73378e-35
-7.88037e-35
-8.0492e-35
-8.27405e-35
-8.50743e-35
-8.80054e-35
-9.10117e-35
-9.55152e-35
-9.86576e-35
-1.00411e-34
-1.01351e-34
-5.77984e-35
-5.70334e-35
-5.63272e-35
-5.42449e-35
-5.1083e-35
-4.69267e-35
-4.13977e-35
-3.61012e-35
-3.21741e-35
-2.68571e-35
-2.12518e-35
-1.66596e-35
-1.23468e-35
-8.48589e-36
-3.65911e-36
1.01694e-36
5.37153e-36
9.66401e-36
1.27703e-35
1.35653e-35
1.13588e-35
8.19038e-36
4.16624e-36
-5.21111e-37
-5.49351e-36
-1.09227e-35
-1.70754e-35
-2.572e-35
-3.46057e-35
-4.29138e-35
-5.02823e-35
-5.66503e-35
-6.10683e-35
-6.38087e-35
-6.63639e-35
-6.77572e-35
-6.81869e-35
-6.7801e-35
-6.58636e-35
-6.39514e-35
-6.28269e-35
-6.36226e-35
-6.58995e-35
-6.88824e-35
-7.27597e-35
-7.65979e-35
-7.99111e-35
-8.11195e-35
-8.15242e-35
-8.33903e-35
-8.49565e-35
-8.68095e-35
-8.92294e-35
-9.17309e-35
-9.4882e-35
-9.81354e-35
-1.02911e-34
-1.06283e-34
-1.08196e-34
-1.09214e-34
-6.19575e-35
-6.11382e-35
-6.03538e-35
-5.81503e-35
-5.47965e-35
-5.03624e-35
-4.44987e-35
-3.88536e-35
-3.45795e-35
-2.89221e-35
-2.2957e-35
-1.80121e-35
-1.33711e-35
-9.1984e-36
-4.02079e-36
9.83696e-37
5.61747e-36
1.01395e-35
1.33972e-35
1.42232e-35
1.18957e-35
8.51734e-36
4.2165e-36
-7.56663e-37
-6.0604e-36
-1.1878e-35
-1.85179e-35
-2.77397e-35
-3.7227e-35
-4.61268e-35
-5.4011e-35
-6.08142e-35
-6.55594e-35
-6.85774e-35
-7.13308e-35
-7.28461e-35
-7.33394e-35
-7.29497e-35
-7.09529e-35
-6.89436e-35
-6.77672e-35
-6.85939e-35
-7.10113e-35
-7.4179e-35
-7.82622e-35
-8.2333e-35
-8.58329e-35
-8.71586e-35
-8.76216e-35
-8.9586e-35
-9.1255e-35
-9.32779e-35
-9.58735e-35
-9.85451e-35
-1.01919e-34
-1.05425e-34
-1.10468e-34
-1.14073e-34
-1.16153e-34
-1.17251e-34
-6.61925e-35
-6.53189e-35
-6.44533e-35
-6.2129e-35
-5.85827e-35
-5.38702e-35
-4.76735e-35
-4.16757e-35
-3.70444e-35
-3.1044e-35
-2.47166e-35
-1.94115e-35
-1.44334e-35
-9.94035e-36
-4.40522e-36
9.31452e-37
5.84542e-36
1.05903e-35
1.39937e-35
1.48476e-35
1.24018e-35
8.81194e-36
4.23233e-36
-1.02675e-36
-6.66513e-36
-1.28766e-35
-2.00179e-35
-2.98228e-35
-3.99176e-35
-4.94168e-35
-5.78247e-35
-6.50691e-35
-7.015e-35
-7.34592e-35
-7.64171e-35
-7.80605e-35
-7.8623e-35
-7.8236e-35
-7.61874e-35
-7.40851e-35
-7.28606e-35
-7.37167e-35
-7.62726e-35
-7.96233e-35
-8.39087e-35
-8.82087e-35
-9.18933e-35
-9.33394e-35
-9.38667e-35
-9.59274e-35
-9.77024e-35
-9.98995e-35
-1.02675e-34
-1.05519e-34
-1.09119e-34
-1.12881e-34
-1.18187e-34
-1.22028e-34
-1.24282e-34
-1.25462e-34
-7.05036e-35
-6.9576e-35
-6.86262e-35
-6.61809e-35
-6.24418e-35
-5.74507e-35
-5.09228e-35
-4.45679e-35
-3.95697e-35
-3.32242e-35
-2.65318e-35
-2.0859e-35
-1.55351e-35
-1.07128e-35
-4.81399e-36
8.58271e-37
6.05334e-36
1.10139e-35
1.45574e-35
1.54359e-35
1.28744e-35
9.07169e-36
4.21172e-36
-1.33363e-36
-7.30968e-36
-1.39205e-35
-2.15776e-35
-3.19715e-35
-4.26791e-35
-5.27844e-35
-6.17242e-35
-6.94159e-35
-7.48411e-35
-7.84555e-35
-8.1624e-35
-8.34024e-35
-8.40399e-35
-8.36625e-35
-8.15702e-35
-7.93794e-35
-7.81108e-35
-7.89953e-35
-8.16874e-35
-8.52185e-35
-8.97026e-35
-9.42275e-35
-9.80948e-35
-9.96639e-35
-1.00262e-34
-1.02417e-34
-1.04302e-34
-1.06677e-34
-1.09637e-34
-1.12656e-34
-1.16484e-34
-1.20506e-34
-1.26072e-34
-1.30151e-34
-1.32584e-34
-1.33849e-34
-7.48905e-35
-7.39096e-35
-7.28726e-35
-7.03063e-35
-6.63737e-35
-6.11042e-35
-5.42471e-35
-4.75308e-35
-4.21567e-35
-3.54642e-35
-2.84032e-35
-2.23555e-35
-1.66775e-35
-1.15169e-35
-5.24882e-36
7.62188e-37
6.23887e-36
1.14075e-35
1.50859e-35
1.59857e-35
1.3311e-35
9.29356e-36
4.15278e-36
-1.67991e-36
-7.99597e-36
-1.50122e-35
-2.31993e-35
-3.41873e-35
-4.55129e-35
-5.62305e-35
-6.571e-35
-7.38551e-35
-7.96335e-35
-8.35673e-35
-8.69531e-35
-8.88737e-35
-8.95922e-35
-8.92315e-35
-8.71044e-35
-8.48301e-35
-8.35219e-35
-8.44339e-35
-8.72597e-35
-9.09676e-35
-9.56473e-35
-1.00392e-34
-1.0444e-34
-1.06135e-34
-1.0681e-34
-1.09059e-34
-1.11056e-34
-1.13611e-34
-1.1676e-34
-1.19958e-34
-1.24016e-34
-1.28302e-34
-1.34122e-34
-1.38443e-34
-1.41062e-34
-1.42414e-34
-7.93534e-35
-7.83194e-35
-7.71922e-35
-7.45052e-35
-7.03783e-35
-6.48306e-35
-5.76472e-35
-5.05646e-35
-4.48065e-35
-3.77656e-35
-3.03317e-35
-2.39023e-35
-1.78622e-35
-1.23536e-35
-5.71142e-36
6.41087e-37
6.3992e-36
1.17686e-35
1.55765e-35
1.64943e-35
1.37088e-35
9.47462e-36
4.05325e-36
-2.06808e-36
-8.72598e-36
-1.61542e-35
-2.48852e-35
-3.64723e-35
-4.84207e-35
-5.9756e-35
-6.97825e-35
-7.83872e-35
-8.45282e-35
-8.87955e-35
-9.24053e-35
-9.44761e-35
-9.52816e-35
-9.49454e-35
-9.27924e-35
-9.04407e-35
-8.90978e-35
-9.00369e-35
-9.29934e-35
-9.68738e-35
-1.01746e-34
-1.06705e-34
-1.10931e-34
-1.12753e-34
-1.13514e-34
-1.15855e-34
-1.17968e-34
-1.20706e-34
-1.24048e-34
-1.27428e-34
-1.31718e-34
-1.36269e-34
-1.4234e-34
-1.46906e-34
-1.49716e-34
-1.51157e-34
-8.3892e-35
-8.28053e-35
-8.15852e-35
-7.87773e-35
-7.44552e-35
-6.863e-35
-6.11235e-35
-5.36698e-35
-4.75207e-35
-4.01294e-35
-3.23187e-35
-2.55006e-35
-1.90909e-35
-1.32242e-35
-6.20369e-36
4.92641e-37
6.5313e-36
1.20936e-35
1.60261e-35
1.69591e-35
1.40651e-35
9.61194e-36
3.91049e-36
-2.5005e-36
-9.50185e-36
-1.73494e-35
-2.66373e-35
-3.88283e-35
-5.14039e-35
-6.33616e-35
-7.39422e-35
-8.30127e-35
-8.95265e-35
-9.41406e-35
-9.79819e-35
-1.00211e-34
-1.0111e-34
-1.00806e-34
-9.86367e-35
-9.62145e-35
-9.48421e-35
-9.58086e-35
-9.88921e-35
-1.02941e-34
-1.08002e-34
-1.13168e-34
-1.1757e-34
-1.19523e-34
-1.20376e-34
-1.22808e-34
-1.2504e-34
-1.27964e-34
-1.31503e-34
-1.35067e-34
-1.39592e-34
-1.4441e-34
-1.50729e-34
-1.55541e-34
-1.58547e-34
-1.6008e-34
-8.85064e-35
-8.73667e-35
-8.60507e-35
-8.31223e-35
-7.86042e-35
-7.25022e-35
-6.46761e-35
-5.68471e-35
-5.03005e-35
-4.25571e-35
-3.43651e-35
-2.71518e-35
-2.03647e-35
-1.41302e-35
-6.72772e-36
3.14509e-37
6.63217e-36
1.23796e-35
1.64317e-35
1.73772e-35
1.4377e-35
9.70264e-36
3.72223e-36
-2.97948e-36
-1.0326e-35
-1.86008e-35
-2.8458e-35
-4.12569e-35
-5.44642e-35
-6.70483e-35
-7.81899e-35
-8.77324e-35
-9.46291e-35
-9.96029e-35
-1.03684e-34
-1.06078e-34
-1.07078e-34
-1.06817e-34
-1.04639e-34
-1.02155e-34
-1.00758e-34
-1.01753e-34
-1.0496e-34
-1.09171e-34
-1.14418e-34
-1.19786e-34
-1.24361e-34
-1.26445e-34
-1.27399e-34
-1.29921e-34
-1.32276e-34
-1.35387e-34
-1.39125e-34
-1.42878e-34
-1.4764e-34
-1.52725e-34
-1.59289e-34
-1.6435e-34
-1.67556e-34
-1.69183e-34
-9.31967e-35
-9.20029e-35
-9.05885e-35
-8.75394e-35
-8.28251e-35
-7.64471e-35
-6.83048e-35
-6.00971e-35
-5.3147e-35
-4.50497e-35
-3.6472e-35
-2.88571e-35
-2.16852e-35
-1.50728e-35
-7.28558e-36
1.04259e-37
6.69818e-36
1.26236e-35
1.67907e-35
1.77457e-35
1.46415e-35
9.74408e-36
3.48627e-36
-3.50756e-36
-1.1201e-35
-1.99115e-35
-3.03495e-35
-4.376e-35
-5.76035e-35
-7.08174e-35
-8.2526e-35
-9.25469e-35
-9.98377e-35
-1.05183e-34
-1.09513e-34
-1.12079e-34
-1.13189e-34
-1.12978e-34
-1.10803e-34
-1.08264e-34
-1.06849e-34
-1.07874e-34
-1.112e-34
-1.15569e-34
-1.20998e-34
-1.26559e-34
-1.31306e-34
-1.33524e-34
-1.34586e-34
-1.37196e-34
-1.39678e-34
-1.42978e-34
-1.46919e-34
-1.50864e-34
-1.55864e-34
-1.61215e-34
-1.68022e-34
-1.73334e-34
-1.76743e-34
-1.78467e-34
-9.79624e-35
-9.67134e-35
-9.51979e-35
-9.20281e-35
-8.71173e-35
-8.04646e-35
-7.20091e-35
-6.34195e-35
-5.60611e-35
-4.76084e-35
-3.86407e-35
-3.0617e-35
-2.30533e-35
-1.60532e-35
-7.87934e-36
-1.4104e-37
6.72588e-36
1.28226e-35
1.71006e-35
1.8062e-35
1.48558e-35
9.73355e-36
3.20011e-36
-4.08772e-36
-1.21296e-35
-2.12843e-35
-3.23141e-35
-4.63397e-35
-6.08237e-35
-7.46696e-35
-8.6951e-35
-9.74566e-35
-1.05153e-34
-1.1088e-34
-1.15468e-34
-1.18214e-34
-1.19445e-34
-1.19292e-34
-1.1713e-34
-1.14546e-34
-1.13118e-34
-1.14176e-34
-1.17615e-34
-1.22137e-34
-1.27744e-34
-1.33491e-34
-1.38406e-34
-1.40761e-34
-1.41938e-34
-1.44637e-34
-1.47249e-34
-1.50739e-34
-1.54885e-34
-1.59026e-34
-1.64266e-34
-1.69883e-34
-1.76931e-34
-1.82495e-34
-1.86109e-34
-1.87931e-34
-1.02803e-34
-1.01497e-34
-9.98783e-35
-9.65875e-35
-9.14804e-35
-8.45549e-35
-7.57886e-35
-6.68151e-35
-5.90439e-35
-5.02337e-35
-4.08719e-35
-3.24325e-35
-2.44706e-35
-1.70732e-35
-8.51109e-36
-4.24409e-37
6.71193e-36
1.29739e-35
1.73587e-35
1.83231e-35
1.50168e-35
9.6686e-36
2.86094e-36
-4.72317e-36
-1.31147e-35
-2.27228e-35
-3.43544e-35
-4.8998e-35
-6.41273e-35
-7.86061e-35
-9.14646e-35
-1.02462e-34
-1.10576e-34
-1.16694e-34
-1.2155e-34
-1.24484e-34
-1.25845e-34
-1.25761e-34
-1.23622e-34
-1.21002e-34
-1.19568e-34
-1.20662e-34
-1.2421e-34
-1.28878e-34
-1.34658e-34
-1.40583e-34
-1.45665e-34
-1.4816e-34
-1.49458e-34
-1.52246e-34
-1.54992e-34
-1.58673e-34
-1.63024e-34
-1.67368e-34
-1.72848e-34
-1.78729e-34
-1.86018e-34
-1.91834e-34
-1.95655e-34
-1.97575e-34
-1.07718e-34
-1.06353e-34
-1.04629e-34
-1.01217e-34
-9.59141e-35
-8.87184e-35
-7.96429e-35
-7.02847e-35
-6.20968e-35
-5.29267e-35
-4.31668e-35
-3.43044e-35
-2.59383e-35
-1.81347e-35
-9.18232e-36
-7.49644e-37
6.65258e-36
1.30747e-35
1.7562e-35
1.85256e-35
1.51214e-35
9.54623e-36
2.46539e-36
-5.41678e-36
-1.41597e-35
-2.42303e-35
-3.64732e-35
-5.17377e-35
-6.75162e-35
-8.26274e-35
-9.60672e-35
-1.07563e-34
-1.16108e-34
-1.22626e-34
-1.2776e-34
-1.30891e-34
-1.32392e-34
-1.32386e-34
-1.30279e-34
-1.27636e-34
-1.26202e-34
-1.27336e-34
-1.30987e-34
-1.35796e-34
-1.41743e-34
-1.47839e-34
-1.53085e-34
-1.55721e-34
-1.5715e-34
-1.60024e-34
-1.6291e-34
-1.66781e-34
-1.71339e-34
-1.75889e-34
-1.8161e-34
-1.87754e-34
-1.95283e-34
-2.01351e-34
-2.05382e-34
-2.07401e-34
-1.12705e-34
-1.11281e-34
-1.09451e-34
-1.05916e-34
-1.00418e-34
-9.29547e-35
-8.35718e-35
-7.38292e-35
-6.52217e-35
-5.56879e-35
-4.55264e-35
-3.62338e-35
-2.74577e-35
-1.92394e-35
-9.89512e-36
-1.11995e-36
6.54418e-36
1.31217e-35
1.77075e-35
1.8666e-35
1.51665e-35
9.36345e-36
2.00957e-36
-6.17151e-36
-1.52678e-35
-2.58102e-35
-3.86724e-35
-5.45609e-35
-7.09924e-35
-8.67341e-35
-1.00758e-34
-1.1276e-34
-1.21747e-34
-1.28674e-34
-1.34097e-34
-1.37434e-34
-1.39087e-34
-1.39169e-34
-1.37104e-34
-1.3445e-34
-1.33024e-34
-1.342e-34
-1.3795e-34
-1.42894e-34
-1.49002e-34
-1.55259e-34
-1.60667e-34
-1.63448e-34
-1.65014e-34
-1.67976e-34
-1.71003e-34
-1.75066e-34
-1.79832e-34
-1.84591e-34
-1.90553e-34
-1.96959e-34
-2.04727e-34
-2.11047e-34
-2.1529e-34
-2.17406e-34
-1.17765e-34
-1.16279e-34
-1.14341e-34
-1.10682e-34
-1.04993e-34
-9.72637e-35
-8.7575e-35
-7.74488e-35
-6.84201e-35
-5.85183e-35
-4.79521e-35
-3.82217e-35
-2.90299e-35
-2.03887e-35
-1.06519e-35
-1.53798e-36
6.38321e-36
1.31115e-35
1.77918e-35
1.87408e-35
1.51484e-35
9.11756e-36
1.49045e-36
-6.98993e-36
-1.64426e-35
-2.74659e-35
-4.09547e-35
-5.74695e-35
-7.45578e-35
-9.09268e-35
-1.05537e-34
-1.18053e-34
-1.27493e-34
-1.34838e-34
-1.40563e-34
-1.44115e-34
-1.4593e-34
-1.46109e-34
-1.44096e-34
-1.41446e-34
-1.40037e-34
-1.41257e-34
-1.45102e-34
-1.50175e-34
-1.56437e-34
-1.62846e-34
-1.68413e-34
-1.71342e-34
-1.73053e-34
-1.76102e-34
-1.79275e-34
-1.83529e-34
-1.88502e-34
-1.93476e-34
-1.99678e-34
-2.06345e-34
-2.14352e-34
-2.20922e-34
-2.25377e-34
-2.2759e-34
-1.22894e-34
-1.21346e-34
-1.19301e-34
-1.15517e-34
-1.09636e-34
-1.01645e-34
-9.16516e-35
-8.11439e-35
-7.16933e-35
-6.14184e-35
-5.04446e-35
-4.02694e-35
-3.0657e-35
-2.15846e-35
-1.14555e-35
-2.00657e-36
6.16645e-36
1.30408e-35
1.78114e-35
1.87462e-35
1.50638e-35
8.8049e-36
9.04593e-37
-7.87569e-36
-1.76876e-35
-2.92012e-35
-4.33221e-35
-6.04655e-35
-7.82139e-35
-9.52069e-35
-1.10404e-34
-1.23442e-34
-1.33347e-34
-1.41117e-34
-1.47155e-34
-1.50935e-34
-1.52923e-34
-1.53208e-34
-1.51259e-34
-1.48627e-34
-1.47242e-34
-1.4851e-34
-1.52445e-34
-1.57641e-34
-1.64051e-34
-1.70603e-34
-1.76324e-34
-1.79405e-34
-1.81269e-34
-1.84406e-34
-1.87726e-34
-1.92171e-34
-1.97351e-34
-2.02543e-34
-2.08987e-34
-2.15912e-34
-2.24159e-34
-2.30977e-34
-2.35644e-34
-2.37954e-34
-1.28093e-34
-1.26483e-34
-1.2433e-34
-1.20418e-34
-1.14348e-34
-1.06098e-34
-9.58014e-35
-8.49142e-35
-7.50424e-35
-6.43883e-35
-5.30048e-35
-4.23789e-35
-3.23404e-35
-2.28292e-35
-1.23093e-35
-2.5281e-36
5.89064e-36
1.29056e-35
1.77624e-35
1.86779e-35
1.49082e-35
8.42251e-36
2.48772e-37
-8.83214e-36
-1.90069e-35
-3.102e-35
-4.5777e-35
-6.35514e-35
-8.19624e-35
-9.95743e-35
-1.15358e-34
-1.28925e-34
-1.39307e-34
-1.47511e-34
-1.53874e-34
-1.57894e-34
-1.60064e-34
-1.60467e-34
-1.58592e-34
-1.55994e-34
-1.54644e-34
-1.55962e-34
-1.59982e-34
-1.65294e-34
-1.71845e-34
-1.78532e-34
-1.84401e-34
-1.87638e-34
-1.89663e-34
-1.9289e-34
-1.96357e-34
-2.00993e-34
-2.06379e-34
-2.11796e-34
-2.1848e-34
-2.25662e-34
-2.34148e-34
-2.4121e-34
-2.46091e-34
-2.48496e-34
-1.33358e-34
-1.31687e-34
-1.29426e-34
-1.25386e-34
-1.19128e-34
-1.10622e-34
-1.00023e-34
-8.87596e-35
-7.84681e-35
-6.74289e-35
-5.56341e-35
-4.45516e-35
-3.40821e-35
-2.41249e-35
-1.32165e-35
-3.10609e-36
5.55231e-36
1.27027e-35
1.76405e-35
1.8532e-35
1.46772e-35
7.96671e-36
-4.80564e-37
-9.86319e-36
-2.04051e-35
-3.29262e-35
-4.83222e-35
-6.67297e-35
-8.58039e-35
-1.04029e-34
-1.20399e-34
-1.34503e-34
-1.45372e-34
-1.54017e-34
-1.60718e-34
-1.64991e-34
-1.67354e-34
-1.67884e-34
-1.66098e-34
-1.63549e-34
-1.62243e-34
-1.63615e-34
-1.67716e-34
-1.73138e-34
-1.7982e-34
-1.86635e-34
-1.92647e-34
-1.96041e-34
-1.98235e-34
-2.01555e-34
-2.05169e-34
-2.09997e-34
-2.15588e-34
-2.21235e-34
-2.28158e-34
-2.35593e-34
-2.44319e-34
-2.51622e-34
-2.56714e-34
-2.59215e-34
-1.38688e-34
-1.36958e-34
-1.34591e-34
-1.3042e-34
-1.23975e-34
-1.15216e-34
-1.04317e-34
-9.26795e-35
-8.19712e-35
-7.05404e-35
-5.83338e-35
-4.67887e-35
-3.58833e-35
-2.5474e-35
-1.41801e-35
-3.74489e-36
5.14796e-36
1.24283e-35
1.74412e-35
1.83042e-35
1.43664e-35
7.43407e-36
-1.28659e-36
-1.09722e-35
-2.18873e-35
-3.49236e-35
-5.09605e-35
-7.00034e-35
-8.97394e-35
-1.08572e-34
-1.25528e-34
-1.40174e-34
-1.51541e-34
-1.60635e-34
-1.67686e-34
-1.72227e-34
-1.74792e-34
-1.75462e-34
-1.73777e-34
-1.71292e-34
-1.70041e-34
-1.71472e-34
-1.75648e-34
-1.81172e-34
-1.87979e-34
-1.94915e-34
-2.01062e-34
-2.04618e-34
-2.06986e-34
-2.10404e-34
-2.14164e-34
-2.19184e-34
-2.24978e-34
-2.30861e-34
-2.3802e-34
-2.45707e-34
-2.54671e-34
-2.6221e-34
-2.67514e-34
-2.70111e-34
-1.44082e-34
-1.42295e-34
-1.39822e-34
-1.35519e-34
-1.28887e-34
-1.19878e-34
-1.08681e-34
-9.66742e-35
-8.55523e-35
-7.3724e-35
-6.1105e-35
-4.90923e-35
-3.77459e-35
-2.68789e-35
-1.52029e-35
-4.44802e-36
4.67351e-36
1.20787e-35
1.71604e-35
1.79896e-35
1.39711e-35
6.82145e-36
-2.172e-36
-1.2163e-35
-2.3458e-35
-3.70168e-35
-5.36949e-35
-7.33747e-35
-9.37692e-35
-1.13203e-34
-1.30743e-34
-1.45937e-34
-1.57811e-34
-1.67364e-34
-1.74775e-34
-1.79599e-34
-1.82376e-34
-1.83199e-34
-1.8163e-34
-1.79223e-34
-1.78039e-34
-1.79533e-34
-1.83781e-34
-1.894e-34
-1.96323e-34
-2.03372e-34
-2.09648e-34
-2.13367e-34
-2.15914e-34
-2.19437e-34
-2.23343e-34
-2.28554e-34
-2.34552e-34
-2.40674e-34
-2.48066e-34
-2.56004e-34
-2.65205e-34
-2.72974e-34
-2.78487e-34
-2.81181e-34
-1.49539e-34
-1.47697e-34
-1.45118e-34
-1.40682e-34
-1.33864e-34
-1.24607e-34
-1.13113e-34
-1.00744e-34
-8.92112e-35
-7.69807e-35
-6.3949e-35
-5.14648e-35
-3.96722e-35
-2.83426e-35
-1.62882e-35
-5.21951e-36
4.12533e-36
1.16504e-35
1.67931e-35
1.75833e-35
1.34861e-35
6.12485e-36
-3.13977e-36
-1.34385e-35
-2.51213e-35
-3.92101e-35
-5.65283e-35
-7.68452e-35
-9.78928e-35
-1.17921e-34
-1.36046e-34
-1.51791e-34
-1.64181e-34
-1.74201e-34
-1.81985e-34
-1.87108e-34
-1.90104e-34
-1.91094e-34
-1.89656e-34
-1.87343e-34
-1.86238e-34
-1.878e-34
-1.92114e-34
-1.97824e-34
-2.04851e-34
-2.12009e-34
-2.18406e-34
-2.2229e-34
-2.25018e-34
-2.28655e-34
-2.32709e-34
-2.3811e-34
-2.4431e-34
-2.50673e-34
-2.58296e-34
-2.66482e-34
-2.75918e-34
-2.83913e-34
-2.89631e-34
-2.92423e-34
-1.55055e-34
-1.53163e-34
-1.50476e-34
-1.45905e-34
-1.38905e-34
-1.29401e-34
-1.17614e-34
-1.04889e-34
-9.29483e-35
-8.03117e-35
-6.68668e-35
-5.39083e-35
-4.16641e-35
-2.98681e-35
-1.7439e-35
-6.06346e-36
3.49997e-36
1.11393e-35
1.63345e-35
1.7081e-35
1.29069e-35
5.34001e-36
-4.19247e-36
-1.48023e-35
-2.68818e-35
-4.1508e-35
-5.94645e-35
-8.04177e-35
-1.0211e-34
-1.22729e-34
-1.41435e-34
-1.57735e-34
-1.7065e-34
-1.81144e-34
-1.89313e-34
-1.94749e-34
-1.97974e-34
-1.99146e-34
-1.97856e-34
-1.95649e-34
-1.94639e-34
-1.96273e-34
-2.00649e-34
-2.06445e-34
-2.13567e-34
-2.20827e-34
-2.27337e-34
-2.31387e-34
-2.34298e-34
-2.3806e-34
-2.42263e-34
-2.47853e-34
-2.54254e-34
-2.6086e-34
-2.6871e-34
-2.77142e-34
-2.86811e-34
-2.95024e-34
-3.00942e-34
-3.03833e-34
-1.6063e-34
-1.58689e-34
-1.55894e-34
-1.51188e-34
-1.44008e-34
-1.34259e-34
-1.22181e-34
-1.09109e-34
-9.67641e-35
-8.37182e-35
-6.98601e-35
-5.64255e-35
-4.37236e-35
-3.1459e-35
-1.86586e-35
-6.98319e-36
2.79382e-36
1.0541e-35
1.57795e-35
1.64783e-35
1.22293e-35
4.46245e-36
-5.33357e-36
-1.62575e-35
-2.87447e-35
-4.39149e-35
-6.25073e-35
-8.40937e-35
-1.06421e-34
-1.27625e-34
-1.4691e-34
-1.63767e-34
-1.77215e-34
-1.88192e-34
-1.96757e-34
-2.0252e-34
-2.05985e-34
-2.07354e-34
-2.06228e-34
-2.04143e-34
-2.03239e-34
-2.04952e-34
-2.09386e-34
-2.15263e-34
-2.2247e-34
-2.29827e-34
-2.36441e-34
-2.40658e-34
-2.43754e-34
-2.47649e-34
-2.52005e-34
-2.57786e-34
-2.64385e-34
-2.71232e-34
-2.79308e-34
-2.87985e-34
-2.9788e-34
-3.06305e-34
-3.12416e-34
-3.15409e-34
-1.66261e-34
-1.64273e-34
-1.6137e-34