/*--------------------------------*- C++ -*----------------------------------*\
| =========                 |                                                 |
| \\      /  F ield         | foam-extend: Open Source CFD                    |
|  \\    /   O peration     | Version:     4.0                                |
|   \\  /    A nd           | Web:         http://www.foam-extend.org         |
|    \\/     M anipulation  |                                                 |
\*---------------------------------------------------------------------------*/
FoamFile
{
    version     2.0;
    format      ascii;
    class       volVectorField;
    location    "9";
    object      bodyForce;
}
// * * * * * * * * * * * * * * * * * * * * * * * * * * * * * * * * * * * * * //

dimensions      [1 -2 -2 0 0 0 0];

internalField   nonuniform List<vector> 
6960
(
(1.84398e-31 -3.7273e-15 -0)
(2.21277e-31 -3.7273e-15 -0)
(-3.04257e-31 -3.7273e-15 -0)
(-5.25534e-31 -3.7273e-15 -0)
(9.2199e-33 -3.7273e-15 -0)
(3.50356e-31 -3.7273e-15 -0)
(2.12058e-31 -3.7273e-15 -0)
(6.45393e-32 -3.7273e-15 -0)
(-2.21277e-31 -3.7273e-15 -0)
(-3.31916e-31 -3.7273e-15 -0)
(-5.53194e-32 -3.7273e-15 -0)
(5.53194e-32 -3.7273e-15 -0)
(1.10639e-31 -3.7273e-15 -0)
(-9.2199e-33 -3.7273e-15 -0)
(-9.2199e-32 -3.7273e-15 -0)
(-7.37592e-32 -3.7273e-15 -0)
(1.93618e-31 -3.7273e-15 -0)
(3.50356e-31 -3.7273e-15 -0)
(1.84398e-32 -3.7273e-15 -0)
(1.84398e-32 -3.7273e-15 -0)
(4.60995e-32 -3.7273e-15 -0)
(-2.21277e-31 -3.7273e-15 -0)
(-7.37592e-32 -3.7273e-15 -0)
(1.10639e-31 -3.7273e-15 -0)
(6.45393e-32 -3.7273e-15 -0)
(2.12058e-31 -3.7273e-15 -0)
(-2.76597e-32 -3.7273e-15 -0)
(1.01419e-31 -3.7273e-15 -0)
(3.31916e-31 -3.7273e-15 -0)
(1.29079e-31 -3.7273e-15 -0)
(-2.12058e-31 -3.7273e-15 -0)
(-4.79435e-31 -3.7273e-15 -0)
(-1.38298e-31 -3.7273e-15 -0)
(3.68796e-32 -3.7273e-15 -0)
(-2.12058e-31 -3.7273e-15 -0)
(-2.12058e-31 -3.7273e-15 -0)
(2.02838e-31 -3.7273e-15 -0)
(2.12058e-31 -3.7273e-15 -0)
(-7.37592e-32 -3.7273e-15 -0)
(1.65958e-31 -3.7273e-15 -0)
(1.93618e-31 -3.7273e-15 -0)
(-1.10639e-31 -3.7273e-15 -0)
(-1.38298e-31 -3.7273e-15 -0)
(8.29791e-32 -3.7273e-15 -0)
(1.29079e-31 -3.7273e-15 -0)
(1.38298e-31 -3.7273e-15 -0)
(2.21277e-31 -3.7273e-15 -0)
(9.2199e-33 -3.7273e-15 -0)
(-7.37592e-32 -3.7273e-15 -0)
(3.50356e-31 -3.7273e-15 -0)
(5.16314e-31 -3.7273e-15 -0)
(2.58157e-31 -3.7273e-15 -0)
(-7.37592e-32 -3.7273e-15 -0)
(-9.2199e-32 -3.7273e-15 -0)
(2.39717e-31 -3.7273e-15 -0)
(8.29791e-32 -3.7273e-15 -0)
(-4.60995e-31 -3.7273e-15 -0)
(-5.25534e-31 -3.7273e-15 -0)
(-9.2199e-32 -3.7273e-15 -0)
(1.84398e-32 -3.7273e-15 -0)
(6.08681e-31 -3.72729e-15 -0)
(7.16096e-31 -3.72729e-15 -0)
(-1.03834e-30 -3.72729e-15 -0)
(-1.68282e-30 -3.72729e-15 -0)
(1.43219e-31 -3.72729e-15 -0)
(1.21736e-30 -3.72729e-15 -0)
(5.37072e-31 -3.72729e-15 -0)
(7.16096e-32 -3.72729e-15 -0)
(-5.72876e-31 -3.72729e-15 -0)
(-1.07414e-30 -3.72729e-15 -0)
(-1.43219e-31 -3.72729e-15 -0)
(1.79024e-31 -3.72729e-15 -0)
(2.50633e-31 -3.72729e-15 -0)
(-0 -3.72729e-15 -0)
(-2.14829e-31 -3.72729e-15 -0)
(-2.50633e-31 -3.72729e-15 -0)
(5.72876e-31 -3.72729e-15 -0)
(1.14575e-30 -3.72729e-15 -0)
(-0 -3.72729e-15 -0)
(3.58048e-32 -3.72729e-15 -0)
(1.07414e-31 -3.72729e-15 -0)
(-7.16095e-31 -3.72729e-15 -0)
(-1.79024e-31 -3.72729e-15 -0)
(3.58048e-31 -3.72729e-15 -0)
(2.86438e-31 -3.72729e-15 -0)
(5.72876e-31 -3.72729e-15 -0)
(-1.07414e-31 -3.72729e-15 -0)
(5.01267e-31 -3.72729e-15 -0)
(1.03834e-30 -3.72729e-15 -0)
(3.58048e-31 -3.72729e-15 -0)
(-7.16095e-31 -3.72729e-15 -0)
(-1.53961e-30 -3.72729e-15 -0)
(-4.65462e-31 -3.72729e-15 -0)
(-0 -3.72729e-15 -0)
(-5.72876e-31 -3.72729e-15 -0)
(-5.72876e-31 -3.72729e-15 -0)
(5.72876e-31 -3.72729e-15 -0)
(6.80291e-31 -3.72729e-15 -0)
(-1.43219e-31 -3.72729e-15 -0)
(4.29657e-31 -3.72729e-15 -0)
(5.37072e-31 -3.72729e-15 -0)
(-2.86438e-31 -3.72729e-15 -0)
(-4.29657e-31 -3.72729e-15 -0)
(2.86438e-31 -3.72729e-15 -0)
(3.58048e-31 -3.72729e-15 -0)
(4.29657e-31 -3.72729e-15 -0)
(6.80291e-31 -3.72729e-15 -0)
(-0 -3.72729e-15 -0)
(-2.50633e-31 -3.72729e-15 -0)
(1.03834e-30 -3.72729e-15 -0)
(1.57541e-30 -3.72729e-15 -0)
(7.16096e-31 -3.72729e-15 -0)
(-1.79024e-31 -3.72729e-15 -0)
(-2.50633e-31 -3.72729e-15 -0)
(7.16096e-31 -3.72729e-15 -0)
(2.86438e-31 -3.72729e-15 -0)
(-1.43219e-30 -3.72729e-15 -0)
(-1.57541e-30 -3.72729e-15 -0)
(-2.50633e-31 -3.72729e-15 -0)
(1.43219e-31 -3.72729e-15 -0)
(7.9951e-31 -3.72729e-15 -0)
(1.0776e-30 -3.72729e-15 -0)
(-1.56426e-30 -3.72729e-15 -0)
(-2.67662e-30 -3.72729e-15 -0)
(2.08568e-31 -3.72729e-15 -0)
(1.77283e-30 -3.72729e-15 -0)
(7.64749e-31 -3.72729e-15 -0)
(4.17136e-31 -3.72729e-15 -0)
(-1.00808e-30 -3.72729e-15 -0)
(-1.73806e-30 -3.72729e-15 -0)
(-2.7809e-31 -3.72729e-15 -0)
(3.12852e-31 -3.72729e-15 -0)
(4.17136e-31 -3.72729e-15 -0)
(-3.47613e-32 -3.72729e-15 -0)
(-1.04284e-31 -3.72729e-15 -0)
(-5.90942e-31 -3.72729e-15 -0)
(7.9951e-31 -3.72729e-15 -0)
(1.94663e-30 -3.72729e-15 -0)
(-0 -3.72729e-15 -0)
(2.08568e-31 -3.72729e-15 -0)
(3.12852e-31 -3.72729e-15 -0)
(-1.35569e-30 -3.72729e-15 -0)
(-4.86658e-31 -3.72729e-15 -0)
(7.9951e-31 -3.72729e-15 -0)
(2.08568e-31 -3.72729e-15 -0)
(9.38555e-31 -3.72729e-15 -0)
(2.7809e-31 -3.72729e-15 -0)
(5.56181e-31 -3.72729e-15 -0)
(1.63378e-30 -3.72729e-15 -0)
(8.34271e-31 -3.72729e-15 -0)
(-1.32093e-30 -3.72729e-15 -0)
(-2.6071e-30 -3.72729e-15 -0)
(-6.25703e-31 -3.72729e-15 -0)
(-3.47613e-32 -3.72729e-15 -0)
(-1.04284e-30 -3.72729e-15 -0)
(-9.38555e-31 -3.72729e-15 -0)
(1.00808e-30 -3.72729e-15 -0)
(1.11236e-30 -3.72729e-15 -0)
(-2.43329e-31 -3.72729e-15 -0)
(7.64748e-31 -3.72729e-15 -0)
(9.38555e-31 -3.72729e-15 -0)
(-5.21419e-31 -3.72729e-15 -0)
(-7.29987e-31 -3.72729e-15 -0)
(4.17136e-31 -3.72729e-15 -0)
(6.95226e-31 -3.72729e-15 -0)
(6.60465e-31 -3.72729e-15 -0)
(1.21665e-30 -3.72729e-15 -0)
(-1.04284e-31 -3.72729e-15 -0)
(-4.17136e-31 -3.72729e-15 -0)
(1.87711e-30 -3.72729e-15 -0)
(2.6071e-30 -3.72729e-15 -0)
(1.28617e-30 -3.72729e-15 -0)
(-2.43329e-31 -3.72729e-15 -0)
(-3.82374e-31 -3.72729e-15 -0)
(1.14712e-30 -3.72729e-15 -0)
(4.17136e-31 -3.72729e-15 -0)
(-2.32901e-30 -3.72729e-15 -0)
(-2.71138e-30 -3.72729e-15 -0)
(-6.25703e-31 -3.72729e-15 -0)
(3.47613e-32 -3.72729e-15 -0)
(1.34993e-30 -3.72729e-15 -0)
(1.48492e-30 -3.72729e-15 -0)
(-2.29488e-30 -3.72729e-15 -0)
(-3.8473e-30 -3.72729e-15 -0)
(1.34993e-31 -3.72729e-15 -0)
(2.69986e-30 -3.72729e-15 -0)
(1.55242e-30 -3.72729e-15 -0)
(5.39972e-31 -3.72729e-15 -0)
(-1.55242e-30 -3.72729e-15 -0)
(-2.56486e-30 -3.72729e-15 -0)
(-6.74964e-31 -3.72729e-15 -0)
(4.72475e-31 -3.72729e-15 -0)
(6.74964e-31 -3.72729e-15 -0)
(-0 -3.72729e-15 -0)
(-2.02489e-31 -3.72728e-15 -0)
(-7.42461e-31 -3.72728e-15 -0)
(1.21494e-30 -3.72728e-15 -0)
(2.76735e-30 -3.72728e-15 -0)
(-1.34993e-31 -3.72728e-15 -0)
(6.74964e-32 -3.72728e-15 -0)
(4.72475e-31 -3.72728e-15 -0)
(-1.61991e-30 -3.72728e-15 -0)
(-7.42461e-31 -3.72728e-15 -0)
(9.4495e-31 -3.72728e-15 -0)
(4.72475e-31 -3.72728e-15 -0)
(1.61991e-30 -3.72728e-15 -0)
(2.02489e-31 -3.72728e-15 -0)
(6.07468e-31 -3.72728e-15 -0)
(2.22738e-30 -3.72728e-15 -0)
(1.07994e-30 -3.72728e-15 -0)
(-1.68741e-30 -3.72728e-15 -0)
(-3.7123e-30 -3.72728e-15 -0)
(-8.09957e-31 -3.72728e-15 -0)
(2.69986e-31 -3.72728e-15 -0)
(-1.55242e-30 -3.72728e-15 -0)
(-1.55242e-30 -3.72728e-15 -0)
(1.48492e-30 -3.72728e-15 -0)
(1.61991e-30 -3.72728e-15 -0)
(-5.39972e-31 -3.72729e-15 -0)
(1.21494e-30 -3.72729e-15 -0)
(1.34993e-30 -3.72729e-15 -0)
(-8.77454e-31 -3.72729e-15 -0)
(-9.4495e-31 -3.72729e-15 -0)
(6.74964e-31 -3.72729e-15 -0)
(8.09957e-31 -3.72729e-15 -0)
(8.09957e-31 -3.72729e-15 -0)
(1.68741e-30 -3.72729e-15 -0)
(-0 -3.72729e-15 -0)
(-5.39972e-31 -3.72729e-15 -0)
(2.69986e-30 -3.72729e-15 -0)
(3.7798e-30 -3.72729e-15 -0)
(1.8899e-30 -3.72729e-15 -0)
(-4.04979e-31 -3.72729e-15 -0)
(-6.07468e-31 -3.72729e-15 -0)
(1.55242e-30 -3.72729e-15 -0)
(6.74965e-31 -3.72729e-15 -0)
(-3.23983e-30 -3.72729e-15 -0)
(-3.9148e-30 -3.72729e-15 -0)
(-7.42461e-31 -3.72729e-15 -0)
(2.69986e-31 -3.72729e-15 -0)
(1.90035e-30 -3.72728e-15 -0)
(1.96588e-30 -3.72728e-15 -0)
(-2.88329e-30 -3.72728e-15 -0)
(-4.9147e-30 -3.72728e-15 -0)
(6.55294e-32 -3.72728e-15 -0)
(3.342e-30 -3.72728e-15 -0)
(1.96588e-30 -3.72728e-15 -0)
(4.58705e-31 -3.72728e-15 -0)
(-2.09694e-30 -3.72728e-15 -0)
(-3.01435e-30 -3.72728e-15 -0)
(-7.20823e-31 -3.72728e-15 -0)
(3.93176e-31 -3.72728e-15 -0)
(9.17411e-31 -3.72728e-15 -0)
(1.31059e-31 -3.72728e-15 -0)
(-1.31059e-31 -3.72728e-15 -0)
(-9.8294e-31 -3.72728e-15 -0)
(1.63823e-30 -3.72728e-15 -0)
(3.66964e-30 -3.72728e-15 -0)
(-4.58705e-31 -3.72728e-15 -0)
(1.31059e-31 -3.72728e-15 -0)
(9.17411e-31 -3.72728e-15 -0)
(-1.83482e-30 -3.72728e-15 -0)
(-8.51881e-31 -3.72728e-15 -0)
(8.51881e-31 -3.72728e-15 -0)
(5.89764e-31 -3.72728e-15 -0)
(2.228e-30 -3.72728e-15 -0)
(-0 -3.72728e-15 -0)
(9.17411e-31 -3.72728e-15 -0)
(3.21094e-30 -3.72728e-15 -0)
(1.37612e-30 -3.72728e-15 -0)
(-2.49011e-30 -3.72728e-15 -0)
(-5.04576e-30 -3.72728e-15 -0)
(-1.04847e-30 -3.72728e-15 -0)
(2.62117e-31 -3.72728e-15 -0)
(-2.03141e-30 -3.72728e-15 -0)
(-1.96588e-30 -3.72728e-15 -0)
(1.96588e-30 -3.72728e-15 -0)
(1.76929e-30 -3.72728e-15 -0)
(-2.62117e-31 -3.72728e-15 -0)
(1.96588e-30 -3.72728e-15 -0)
(1.44165e-30 -3.72728e-15 -0)
(-1.37612e-30 -3.72728e-15 -0)
(-1.31059e-30 -3.72728e-15 -0)
(1.04847e-30 -3.72728e-15 -0)
(1.04847e-30 -3.72728e-15 -0)
(9.8294e-31 -3.72728e-15 -0)
(2.09694e-30 -3.72728e-15 -0)
(1.31059e-31 -3.72728e-15 -0)
(-4.58706e-31 -3.72728e-15 -0)
(3.60412e-30 -3.72728e-15 -0)
(4.456e-30 -3.72728e-15 -0)
(2.42459e-30 -3.72728e-15 -0)
(-3.27647e-31 -3.72728e-15 -0)
(-8.51882e-31 -3.72728e-15 -0)
(2.09694e-30 -3.72728e-15 -0)
(8.51882e-31 -3.72728e-15 -0)
(-4.39047e-30 -3.72728e-15 -0)
(-5.04576e-30 -3.72728e-15 -0)
(-9.82941e-31 -3.72728e-15 -0)
(3.93176e-31 -3.72728e-15 -0)
(2.41754e-30 -3.72728e-15 -0)
(2.16307e-30 -3.72728e-15 -0)
(-3.94441e-30 -3.72728e-15 -0)
(-5.59852e-30 -3.72728e-15 -0)
(3.81717e-31 -3.72728e-15 -0)
(4.07165e-30 -3.72728e-15 -0)
(2.67202e-30 -3.72728e-15 -0)
(7.63435e-31 -3.72728e-15 -0)
(-2.9265e-30 -3.72728e-15 -0)
(-3.68994e-30 -3.72728e-15 -0)
(-1.01791e-30 -3.72728e-15 -0)
(2.54478e-31 -3.72728e-15 -0)
(1.78135e-30 -3.72728e-15 -0)
(1.27239e-31 -3.72728e-15 -0)
(-5.08957e-31 -3.72728e-15 -0)
(-1.27239e-30 -3.72728e-15 -0)
(1.78135e-30 -3.72728e-15 -0)
(4.45337e-30 -3.72728e-15 -0)
(1.27239e-31 -3.72727e-15 -0)
(2.54478e-31 -3.72727e-15 -0)
(2.54478e-31 -3.72727e-15 -0)
(-2.54478e-30 -3.72727e-15 -0)
(-6.36196e-31 -3.72727e-15 -0)
(1.14515e-30 -3.72727e-15 -0)
(7.63435e-31 -3.72727e-15 -0)
(2.79926e-30 -3.72727e-15 -0)
(1.27239e-31 -3.72727e-15 -0)
(1.39963e-30 -3.72727e-15 -0)
(3.81717e-30 -3.72727e-15 -0)
(1.27239e-30 -3.72727e-15 -0)
(-3.30822e-30 -3.72727e-15 -0)
(-5.853e-30 -3.72727e-15 -0)
(-1.14515e-30 -3.72727e-15 -0)
(3.81717e-31 -3.72727e-15 -0)
(-2.2903e-30 -3.72727e-15 -0)
(-2.67202e-30 -3.72728e-15 -0)
(2.54478e-30 -3.72728e-15 -0)
(1.90859e-30 -3.72728e-15 -0)
(-7.63435e-31 -3.72728e-15 -0)
(2.2903e-30 -3.72728e-15 -0)
(2.2903e-30 -3.72728e-15 -0)
(-1.52687e-30 -3.72728e-15 -0)
(-1.52687e-30 -3.72728e-15 -0)
(1.39963e-30 -3.72728e-15 -0)
(1.01791e-30 -3.72728e-15 -0)
(1.78135e-30 -3.72728e-15 -0)
(3.05374e-30 -3.72728e-15 -0)
(-2.54478e-31 -3.72728e-15 -0)
(-8.90674e-31 -3.72728e-15 -0)
(3.68994e-30 -3.72728e-15 -0)
(6.10748e-30 -3.72728e-15 -0)
(3.30822e-30 -3.72728e-15 -0)
(-6.36196e-31 -3.72728e-15 -0)
(-1.14515e-30 -3.72728e-15 -0)
(2.67202e-30 -3.72728e-15 -0)
(8.90674e-31 -3.72728e-15 -0)
(-5.21681e-30 -3.72728e-15 -0)
(-6.36196e-30 -3.72728e-15 -0)
(-1.78135e-30 -3.72728e-15 -0)
(2.54478e-31 -3.72728e-15 -0)
(2.84121e-30 -3.72727e-15 -0)
(3.08827e-30 -3.72727e-15 -0)
(-4.44711e-30 -3.72727e-15 -0)
(-7.28832e-30 -3.72727e-15 -0)
(1.23531e-31 -3.72727e-15 -0)
(5.06477e-30 -3.72727e-15 -0)
(3.45887e-30 -3.72727e-15 -0)
(4.94124e-31 -3.72727e-15 -0)
(-3.70593e-30 -3.72727e-15 -0)
(-4.07652e-30 -3.72727e-15 -0)
(-9.88247e-31 -3.72727e-15 -0)
(3.70593e-31 -3.72727e-15 -0)
(1.48237e-30 -3.72727e-15 -0)
(3.70593e-31 -3.72727e-15 -0)
(-1.23531e-31 -3.72727e-15 -0)
(-1.35884e-30 -3.72727e-15 -0)
(2.34709e-30 -3.72727e-15 -0)
(5.06477e-30 -3.72727e-15 -0)
(-7.41185e-31 -3.72727e-15 -0)
(4.94123e-31 -3.72727e-15 -0)
(9.88247e-31 -3.72727e-15 -0)
(-3.2118e-30 -3.72727e-15 -0)
(-8.64716e-31 -3.72727e-15 -0)
(1.6059e-30 -3.72727e-15 -0)
(9.88247e-31 -3.72727e-15 -0)
(2.96474e-30 -3.72727e-15 -0)
(3.70593e-31 -3.72727e-15 -0)
(1.48237e-30 -3.72727e-15 -0)
(4.20005e-30 -3.72727e-15 -0)
(1.97649e-30 -3.72727e-15 -0)
(-3.95299e-30 -3.72727e-15 -0)
(-7.04126e-30 -3.72727e-15 -0)
(-1.48237e-30 -3.72727e-15 -0)
(3.70593e-31 -3.72727e-15 -0)
(-2.84121e-30 -3.72727e-15 -0)
(-2.47062e-30 -3.72727e-15 -0)
(2.84121e-30 -3.72727e-15 -0)
(1.85296e-30 -3.72727e-15 -0)
(-8.64716e-31 -3.72727e-15 -0)
(2.84121e-30 -3.72727e-15 -0)
(2.71768e-30 -3.72727e-15 -0)
(-1.6059e-30 -3.72727e-15 -0)
(-1.85296e-30 -3.72727e-15 -0)
(1.35884e-30 -3.72727e-15 -0)
(1.35884e-30 -3.72727e-15 -0)
(1.85296e-30 -3.72727e-15 -0)
(3.45887e-30 -3.72727e-15 -0)
(-2.47062e-31 -3.72727e-15 -0)
(-1.11178e-30 -3.72727e-15 -0)
(5.06477e-30 -3.72727e-15 -0)
(7.65892e-30 -3.72727e-15 -0)
(3.5824e-30 -3.72727e-15 -0)
(-8.64717e-31 -3.72727e-15 -0)
(-1.11178e-30 -3.72727e-15 -0)
(2.96474e-30 -3.72727e-15 -0)
(1.11178e-30 -3.72727e-15 -0)
(-6.05302e-30 -3.72727e-15 -0)
(-7.78245e-30 -3.72727e-15 -0)
(-1.9765e-30 -3.72727e-15 -0)
(7.41186e-31 -3.72727e-15 -0)
(2.99827e-30 -3.72727e-15 -0)
(3.47799e-30 -3.72727e-15 -0)
(-4.6773e-30 -3.72727e-15 -0)
(-8.27522e-30 -3.72727e-15 -0)
(-1.19931e-31 -3.72727e-15 -0)
(5.99654e-30 -3.72727e-15 -0)
(3.83778e-30 -3.72727e-15 -0)
(7.19584e-31 -3.72727e-15 -0)
(-4.07765e-30 -3.72727e-15 -0)
(-4.55737e-30 -3.72727e-15 -0)
(-1.67903e-30 -3.72727e-15 -0)
(2.39861e-31 -3.72727e-15 -0)
(2.27868e-30 -3.72727e-15 -0)
(3.59792e-31 -3.72727e-15 -0)
(-5.99654e-31 -3.72727e-15 -0)
(-1.19931e-30 -3.72726e-15 -0)
(2.75841e-30 -3.72726e-15 -0)
(5.39688e-30 -3.72726e-15 -0)
(-2.39861e-31 -3.72726e-15 -0)
(2.39861e-31 -3.72726e-15 -0)
(1.19931e-30 -3.72726e-15 -0)
(-3.23813e-30 -3.72726e-15 -0)
(-1.31924e-30 -3.72726e-15 -0)
(1.67903e-30 -3.72726e-15 -0)
(8.39515e-31 -3.72726e-15 -0)
(3.83778e-30 -3.72726e-15 -0)
(2.39861e-31 -3.72726e-15 -0)
(9.59445e-31 -3.72726e-15 -0)
(5.39688e-30 -3.72726e-15 -0)
(2.75841e-30 -3.72726e-15 -0)
(-4.19757e-30 -3.72726e-15 -0)
(-8.75494e-30 -3.72726e-15 -0)
(-1.91889e-30 -3.72726e-15 -0)
(1.19931e-30 -3.72726e-15 -0)
(-3.83778e-30 -3.72726e-15 -0)
(-3.95771e-30 -3.72726e-15 -0)
(4.19757e-30 -3.72726e-15 -0)
(2.75841e-30 -3.72727e-15 -0)
(-1.5591e-30 -3.72727e-15 -0)
(3.47799e-30 -3.72727e-15 -0)
(2.99827e-30 -3.72727e-15 -0)
(-2.39861e-30 -3.72727e-15 -0)
(-1.91889e-30 -3.72727e-15 -0)
(1.67903e-30 -3.72727e-15 -0)
(1.5591e-30 -3.72727e-15 -0)
(2.75841e-30 -3.72727e-15 -0)
(3.95772e-30 -3.72727e-15 -0)
(-3.59792e-31 -3.72727e-15 -0)
(-1.19931e-30 -3.72727e-15 -0)
(5.75668e-30 -3.72727e-15 -0)
(8.27523e-30 -3.72727e-15 -0)
(4.43744e-30 -3.72727e-15 -0)
(-8.39516e-31 -3.72727e-15 -0)
(-1.5591e-30 -3.72727e-15 -0)
(3.83779e-30 -3.72727e-15 -0)
(1.19931e-30 -3.72727e-15 -0)
(-7.31578e-30 -3.72727e-15 -0)
(-8.75495e-30 -3.72727e-15 -0)
(-2.27869e-30 -3.72727e-15 -0)
(3.59792e-31 -3.72727e-15 -0)
(3.49306e-30 -3.72726e-15 -0)
(4.19168e-30 -3.72726e-15 -0)
(-5.35603e-30 -3.72726e-15 -0)
(-9.08197e-30 -3.72726e-15 -0)
(2.32871e-31 -3.72726e-15 -0)
(6.05465e-30 -3.72726e-15 -0)
(3.95881e-30 -3.72726e-15 -0)
(2.32871e-31 -3.72726e-15 -0)
(-4.42455e-30 -3.72726e-15 -0)
(-4.89029e-30 -3.72726e-15 -0)
(-1.6301e-30 -3.72726e-15 -0)
(-0 -3.72726e-15 -0)
(2.09584e-30 -3.72726e-15 -0)
(6.98613e-31 -3.72726e-15 -0)
(-2.32871e-31 -3.72726e-15 -0)
(-1.6301e-30 -3.72726e-15 -0)
(3.02732e-30 -3.72726e-15 -0)
(6.28751e-30 -3.72726e-15 -0)
(-1.16435e-30 -3.72726e-15 -0)
(1.16435e-30 -3.72726e-15 -0)
(2.09584e-30 -3.72726e-15 -0)
(-3.72593e-30 -3.72726e-15 -0)
(-1.6301e-30 -3.72726e-15 -0)
(9.31483e-31 -3.72726e-15 -0)
(9.31483e-31 -3.72726e-15 -0)
(5.35603e-30 -3.72726e-15 -0)
(4.65742e-31 -3.72726e-15 -0)
(1.6301e-30 -3.72726e-15 -0)
(6.52038e-30 -3.72726e-15 -0)
(3.02732e-30 -3.72726e-15 -0)
(-5.35603e-30 -3.72726e-15 -0)
(-1.07121e-29 -3.72726e-15 -0)
(-2.79445e-30 -3.72726e-15 -0)
(1.16435e-30 -3.72726e-15 -0)
(-3.26019e-30 -3.72726e-15 -0)
(-4.42455e-30 -3.72726e-15 -0)
(3.72593e-30 -3.72726e-15 -0)
(3.26019e-30 -3.72726e-15 -0)
(-1.16435e-30 -3.72726e-15 -0)
(4.42455e-30 -3.72726e-15 -0)
(3.49306e-30 -3.72726e-15 -0)
(-2.56158e-30 -3.72726e-15 -0)
(-2.32871e-30 -3.72726e-15 -0)
(1.86297e-30 -3.72726e-15 -0)
(1.86297e-30 -3.72726e-15 -0)
(3.49307e-30 -3.72726e-15 -0)
(3.95881e-30 -3.72726e-15 -0)
(-6.98613e-31 -3.72726e-15 -0)
(-1.16436e-30 -3.72726e-15 -0)
(6.28752e-30 -3.72726e-15 -0)
(1.00135e-29 -3.72726e-15 -0)
(5.12316e-30 -3.72726e-15 -0)
(-4.65742e-31 -3.72726e-15 -0)
(-1.6301e-30 -3.72726e-15 -0)
(3.72594e-30 -3.72726e-15 -0)
(1.39723e-30 -3.72726e-15 -0)
(-9.31485e-30 -3.72726e-15 -0)
(-1.02463e-29 -3.72726e-15 -0)
(-2.56158e-30 -3.72726e-15 -0)
(4.65742e-31 -3.72726e-15 -0)
(3.39126e-30 -3.72726e-15 -0)
(4.52168e-30 -3.72726e-15 -0)
(-6.10427e-30 -3.72726e-15 -0)
(-1.01738e-29 -3.72726e-15 -0)
(-0 -3.72726e-15 -0)
(6.78253e-30 -3.72726e-15 -0)
(4.74777e-30 -3.72726e-15 -0)
(9.04337e-31 -3.72726e-15 -0)
(-5.6521e-30 -3.72725e-15 -0)
(-5.87819e-30 -3.72725e-15 -0)
(-4.52168e-31 -3.72725e-15 -0)
(-2.26084e-31 -3.72725e-15 -0)
(1.58259e-30 -3.72725e-15 -0)
(1.13042e-30 -3.72725e-15 -0)
(-6.78252e-31 -3.72725e-15 -0)
(-1.58259e-30 -3.72725e-15 -0)
(3.84343e-30 -3.72725e-15 -0)
(6.55644e-30 -3.72725e-15 -0)
(-2.26084e-31 -3.72725e-15 -0)
(9.04336e-31 -3.72725e-15 -0)
(1.3565e-30 -3.72725e-15 -0)
(-4.74776e-30 -3.72725e-15 -0)
(-1.58259e-30 -3.72725e-15 -0)
(2.26084e-30 -3.72725e-15 -0)
(1.80867e-30 -3.72725e-15 -0)
(4.52168e-30 -3.72725e-15 -0)
(2.26084e-31 -3.72725e-15 -0)
(2.26084e-30 -3.72725e-15 -0)
(7.0086e-30 -3.72725e-15 -0)
(3.39126e-30 -3.72725e-15 -0)
(-6.33035e-30 -3.72725e-15 -0)
(-1.15303e-29 -3.72725e-15 -0)
(-2.71301e-30 -3.72725e-15 -0)
(1.58259e-30 -3.72725e-15 -0)
(-4.06951e-30 -3.72725e-15 -0)
(-4.97385e-30 -3.72725e-15 -0)
(4.97385e-30 -3.72725e-15 -0)
(3.16518e-30 -3.72725e-15 -0)
(-1.13042e-30 -3.72725e-15 -0)
(4.52168e-30 -3.72725e-15 -0)
(2.93909e-30 -3.72725e-15 -0)
(-2.93909e-30 -3.72726e-15 -0)
(-2.93909e-30 -3.72726e-15 -0)
(2.26084e-30 -3.72726e-15 -0)
(3.61735e-30 -3.72726e-15 -0)
(3.84343e-30 -3.72726e-15 -0)
(4.2956e-30 -3.72726e-15 -0)
(-6.78253e-31 -3.72726e-15 -0)
(-9.04337e-31 -3.72726e-15 -0)
(7.46078e-30 -3.72726e-15 -0)
(1.10781e-29 -3.72726e-15 -0)
(5.19994e-30 -3.72726e-15 -0)
(-1.58259e-30 -3.72726e-15 -0)
(-1.58259e-30 -3.72726e-15 -0)
(5.19994e-30 -3.72726e-15 -0)
(1.58259e-30 -3.72726e-15 -0)
(-9.72163e-30 -3.72726e-15 -0)
(-1.19825e-29 -3.72726e-15 -0)
(-2.9391e-30 -3.72726e-15 -0)
(4.52169e-31 -3.72726e-15 -0)
(3.73142e-30 -3.72725e-15 -0)
(4.6094e-30 -3.72725e-15 -0)
(-6.36536e-30 -3.72725e-15 -0)
(-1.07553e-29 -3.72725e-15 -0)
(6.58486e-31 -3.72725e-15 -0)
(7.02385e-30 -3.72725e-15 -0)
(4.6094e-30 -3.72725e-15 -0)
(1.75596e-30 -3.72725e-15 -0)
(-6.14586e-30 -3.72725e-15 -0)
(-6.58485e-30 -3.72725e-15 -0)
(-1.31697e-30 -3.72725e-15 -0)
(-2.19495e-31 -3.72725e-15 -0)
(2.85344e-30 -3.72725e-15 -0)
(6.58485e-31 -3.72725e-15 -0)
(-6.58485e-31 -3.72725e-15 -0)
(-1.97546e-30 -3.72725e-15 -0)
(4.3899e-30 -3.72725e-15 -0)
(7.46283e-30 -3.72725e-15 -0)
(-4.3899e-31 -3.72725e-15 -0)
(1.75596e-30 -3.72725e-15 -0)
(1.09748e-30 -3.72725e-15 -0)
(-5.70687e-30 -3.72725e-15 -0)
(-1.53647e-30 -3.72725e-15 -0)
(2.41444e-30 -3.72725e-15 -0)
(1.75596e-30 -3.72725e-15 -0)
(5.26788e-30 -3.72725e-15 -0)
(-0 -3.72725e-15 -0)
(2.41444e-30 -3.72725e-15 -0)
(7.90182e-30 -3.72725e-15 -0)
(4.1704e-30 -3.72725e-15 -0)
(-6.36536e-30 -3.72725e-15 -0)
(-1.33892e-29 -3.72725e-15 -0)
(-3.51192e-30 -3.72725e-15 -0)
(2.41445e-30 -3.72725e-15 -0)
(-4.82889e-30 -3.72725e-15 -0)
(-6.14586e-30 -3.72725e-15 -0)
(5.04839e-30 -3.72725e-15 -0)
(3.95091e-30 -3.72725e-15 -0)
(-1.75596e-30 -3.72725e-15 -0)
(5.70687e-30 -3.72725e-15 -0)
(2.85344e-30 -3.72725e-15 -0)
(-4.6094e-30 -3.72725e-15 -0)
(-2.19495e-30 -3.72725e-15 -0)
(3.07293e-30 -3.72725e-15 -0)
(3.51192e-30 -3.72725e-15 -0)
(5.70688e-30 -3.72725e-15 -0)
(4.38991e-30 -3.72725e-15 -0)
(-1.53647e-30 -3.72725e-15 -0)
(-1.31697e-30 -3.72725e-15 -0)
(8.56032e-30 -3.72725e-15 -0)
(1.22917e-29 -3.72725e-15 -0)
(6.14587e-30 -3.72725e-15 -0)
(-1.31697e-30 -3.72725e-15 -0)
(-1.75596e-30 -3.72725e-15 -0)
(5.48738e-30 -3.72725e-15 -0)
(2.19495e-30 -3.72725e-15 -0)
(-1.09748e-29 -3.72725e-15 -0)
(-1.33892e-29 -3.72725e-15 -0)
(-3.95092e-30 -3.72725e-15 -0)
(-4.38991e-31 -3.72725e-15 -0)
(3.83577e-30 -3.72724e-15 -0)
(4.47506e-30 -3.72724e-15 -0)
(-7.45844e-30 -3.72724e-15 -0)
(-1.21466e-29 -3.72724e-15 -0)
(1.49169e-30 -3.72724e-15 -0)
(8.31083e-30 -3.72724e-15 -0)
(5.75365e-30 -3.72724e-15 -0)
(1.06549e-30 -3.72724e-15 -0)
(-8.09773e-30 -3.72724e-15 -0)
(-6.60604e-30 -3.72724e-15 -0)
(-6.39294e-31 -3.72724e-15 -0)
(-6.39294e-31 -3.72724e-15 -0)
(2.34408e-30 -3.72724e-15 -0)
(8.52392e-31 -3.72724e-15 -0)
(-8.52392e-31 -3.72724e-15 -0)
(-2.34408e-30 -3.72724e-15 -0)
(4.68816e-30 -3.72724e-15 -0)
(8.31082e-30 -3.72724e-15 -0)
(4.26196e-31 -3.72724e-15 -0)
(1.49169e-30 -3.72724e-15 -0)
(1.27859e-30 -3.72724e-15 -0)
(-5.32745e-30 -3.72724e-15 -0)
(-2.34408e-30 -3.72724e-15 -0)
(2.77027e-30 -3.72724e-15 -0)
(2.13098e-30 -3.72724e-15 -0)
(5.54055e-30 -3.72724e-15 -0)
(-0 -3.72724e-15 -0)
(2.34408e-30 -3.72724e-15 -0)
(8.52392e-30 -3.72724e-15 -0)
(4.68816e-30 -3.72724e-15 -0)
(-7.45843e-30 -3.72724e-15 -0)
(-1.513e-29 -3.72724e-15 -0)
(-4.04886e-30 -3.72724e-15 -0)
(3.62267e-30 -3.72724e-15 -0)
(-4.68816e-30 -3.72724e-15 -0)
(-6.81914e-30 -3.72724e-15 -0)
(5.32745e-30 -3.72724e-15 -0)
(3.40957e-30 -3.72724e-15 -0)
(-1.49169e-30 -3.72724e-15 -0)
(7.45843e-30 -3.72724e-15 -0)
(3.40957e-30 -3.72724e-15 -0)
(-5.54055e-30 -3.72724e-15 -0)
(-2.55718e-30 -3.72724e-15 -0)
(4.26196e-30 -3.72724e-15 -0)
(4.26196e-30 -3.72724e-15 -0)
(5.32746e-30 -3.72724e-15 -0)
(4.90126e-30 -3.72724e-15 -0)
(-2.34408e-30 -3.72725e-15 -0)
(-1.91788e-30 -3.72725e-15 -0)
(1.00156e-29 -3.72725e-15 -0)
(1.42776e-29 -3.72725e-15 -0)
(6.60605e-30 -3.72725e-15 -0)
(-1.27859e-30 -3.72725e-15 -0)
(-2.34408e-30 -3.72725e-15 -0)
(5.75366e-30 -3.72725e-15 -0)
(3.62267e-30 -3.72725e-15 -0)
(-1.21466e-29 -3.72725e-15 -0)
(-1.47038e-29 -3.72725e-15 -0)
(-4.47507e-30 -3.72725e-15 -0)
(-2.13098e-31 -3.72725e-15 -0)
(4.9653e-30 -3.72724e-15 -0)
(5.58597e-30 -3.72724e-15 -0)
(-7.65484e-30 -3.72724e-15 -0)
(-1.34477e-29 -3.72724e-15 -0)
(6.20663e-31 -3.72724e-15 -0)
(9.10305e-30 -3.72724e-15 -0)
(6.82729e-30 -3.72724e-15 -0)
(1.44821e-30 -3.72724e-15 -0)
(-8.68928e-30 -3.72724e-15 -0)
(-7.24107e-30 -3.72724e-15 -0)
(-1.44821e-30 -3.72724e-15 -0)
(2.06888e-31 -3.72724e-15 -0)
(2.68954e-30 -3.72724e-15 -0)
(-4.13775e-31 -3.72724e-15 -0)
(-1.24133e-30 -3.72724e-15 -0)
(-1.24132e-30 -3.72723e-15 -0)
(5.37907e-30 -3.72723e-15 -0)
(9.51682e-30 -3.72723e-15 -0)
(-2.06887e-31 -3.72723e-15 -0)
(6.20662e-31 -3.72723e-15 -0)
(1.44821e-30 -3.72723e-15 -0)
(-5.17219e-30 -3.72723e-15 -0)
(-1.86199e-30 -3.72723e-15 -0)
(3.3102e-30 -3.72723e-15 -0)
(1.6551e-30 -3.72723e-15 -0)
(5.99973e-30 -3.72723e-15 -0)
(-6.20662e-31 -3.72723e-15 -0)
(1.86199e-30 -3.72723e-15 -0)
(1.01375e-29 -3.72723e-15 -0)
(5.17218e-30 -3.72723e-15 -0)
(-9.10305e-30 -3.72723e-15 -0)
(-1.71717e-29 -3.72723e-15 -0)
(-3.93086e-30 -3.72723e-15 -0)
(4.9653e-30 -3.72723e-15 -0)
(-5.37907e-30 -3.72723e-15 -0)
(-8.06861e-30 -3.72723e-15 -0)
(5.17219e-30 -3.72723e-15 -0)
(3.3102e-30 -3.72724e-15 -0)
(-1.44821e-30 -3.72724e-15 -0)
(7.65484e-30 -3.72724e-15 -0)
(5.17219e-30 -3.72724e-15 -0)
(-5.17219e-30 -3.72724e-15 -0)
(-5.58597e-30 -3.72724e-15 -0)
(4.55153e-30 -3.72724e-15 -0)
(6.41352e-30 -3.72724e-15 -0)
(6.20663e-30 -3.72724e-15 -0)
(5.58597e-30 -3.72724e-15 -0)
(-2.89643e-30 -3.72724e-15 -0)
(-2.27577e-30 -3.72724e-15 -0)
(1.07582e-29 -3.72724e-15 -0)
(1.55166e-29 -3.72724e-15 -0)
(7.24107e-30 -3.72724e-15 -0)
(-1.44821e-30 -3.72724e-15 -0)
(-1.6551e-30 -3.72724e-15 -0)
(6.41352e-30 -3.72724e-15 -0)
(3.31021e-30 -3.72724e-15 -0)
(-1.2827e-29 -3.72724e-15 -0)
(-1.67579e-29 -3.72724e-15 -0)
(-4.96531e-30 -3.72724e-15 -0)
(-4.13776e-31 -3.72724e-15 -0)
(4.82059e-30 -3.72723e-15 -0)
(6.02574e-30 -3.72723e-15 -0)
(-7.63261e-30 -3.72723e-15 -0)
(-1.44618e-29 -3.72723e-15 -0)
(4.01716e-31 -3.72723e-15 -0)
(1.00429e-29 -3.72723e-15 -0)
(6.42746e-30 -3.72723e-15 -0)
(1.20515e-30 -3.72723e-15 -0)
(-9.23947e-30 -3.72723e-15 -0)
(-8.43604e-30 -3.72723e-15 -0)
(-8.03432e-31 -3.72723e-15 -0)
(-0 -3.72723e-15 -0)
(2.81201e-30 -3.72723e-15 -0)
(-8.03432e-31 -3.72723e-15 -0)
(-8.03432e-31 -3.72723e-15 -0)
(-1.20515e-30 -3.72723e-15 -0)
(6.02574e-30 -3.72723e-15 -0)
(1.00429e-29 -3.72723e-15 -0)
(1.20515e-30 -3.72723e-15 -0)
(8.03431e-31 -3.72723e-15 -0)
(8.03431e-31 -3.72723e-15 -0)
(-6.42745e-30 -3.72723e-15 -0)
(-2.00858e-30 -3.72723e-15 -0)
(4.41887e-30 -3.72723e-15 -0)
(1.60686e-30 -3.72723e-15 -0)
(6.02573e-30 -3.72723e-15 -0)
(-4.01716e-31 -3.72723e-15 -0)
(1.60686e-30 -3.72723e-15 -0)
(1.08463e-29 -3.72723e-15 -0)
(6.02573e-30 -3.72723e-15 -0)
(-9.64117e-30 -3.72723e-15 -0)
(-1.92823e-29 -3.72723e-15 -0)
(-3.61544e-30 -3.72723e-15 -0)
(4.01716e-30 -3.72723e-15 -0)
(-5.2223e-30 -3.72723e-15 -0)
(-8.03431e-30 -3.72723e-15 -0)
(5.22231e-30 -3.72723e-15 -0)
(3.21373e-30 -3.72723e-15 -0)
(-8.03432e-31 -3.72723e-15 -0)
(8.43603e-30 -3.72723e-15 -0)
(5.22231e-30 -3.72723e-15 -0)
(-6.42746e-30 -3.72723e-15 -0)
(-6.02574e-30 -3.72723e-15 -0)
(5.62403e-30 -3.72723e-15 -0)
(6.42746e-30 -3.72723e-15 -0)
(6.42746e-30 -3.72723e-15 -0)
(7.23089e-30 -3.72723e-15 -0)
(-2.81201e-30 -3.72723e-15 -0)
(-3.61545e-30 -3.72723e-15 -0)
(1.24532e-29 -3.72723e-15 -0)
(1.80772e-29 -3.72723e-15 -0)
(7.2309e-30 -3.72723e-15 -0)
(-2.4103e-30 -3.72723e-15 -0)
(-1.20515e-30 -3.72723e-15 -0)
(6.42746e-30 -3.72723e-15 -0)
(4.41888e-30 -3.72723e-15 -0)
(-1.28549e-29 -3.72723e-15 -0)
(-1.92824e-29 -3.72723e-15 -0)
(-5.62403e-30 -3.72723e-15 -0)
(4.01716e-31 -3.72723e-15 -0)
(4.6801e-30 -3.72722e-15 -0)
(5.85012e-30 -3.72722e-15 -0)
(-7.80017e-30 -3.72722e-15 -0)
(-1.40403e-29 -3.72722e-15 -0)
(3.90008e-31 -3.72722e-15 -0)
(9.75021e-30 -3.72722e-15 -0)
(6.63014e-30 -3.72722e-15 -0)
(7.80017e-31 -3.72722e-15 -0)
(-1.13102e-29 -3.72722e-15 -0)
(-8.58018e-30 -3.72722e-15 -0)
(1.56003e-30 -3.72722e-15 -0)
(-3.90008e-31 -3.72722e-15 -0)
(1.95004e-30 -3.72722e-15 -0)
(-7.80016e-31 -3.72722e-15 -0)
(-1.95004e-30 -3.72722e-15 -0)
(-3.90008e-31 -3.72722e-15 -0)
(7.02014e-30 -3.72722e-15 -0)
(9.7502e-30 -3.72722e-15 -0)
(-3.90008e-31 -3.72722e-15 -0)
(1.56003e-30 -3.72722e-15 -0)
(2.73006e-30 -3.72722e-15 -0)
(-6.63013e-30 -3.72722e-15 -0)
(-2.73005e-30 -3.72722e-15 -0)
(5.85012e-30 -3.72722e-15 -0)
(3.12006e-30 -3.72722e-15 -0)
(5.0701e-30 -3.72722e-15 -0)
(-1.56003e-30 -3.72722e-15 -0)
(3.12006e-30 -3.72722e-15 -0)
(1.24802e-29 -3.72722e-15 -0)
(5.46011e-30 -3.72722e-15 -0)
(-1.01402e-29 -3.72722e-15 -0)
(-2.10604e-29 -3.72722e-15 -0)
(-6.24013e-30 -3.72722e-15 -0)
(6.24013e-30 -3.72722e-15 -0)
(-6.24013e-30 -3.72722e-15 -0)
(-9.36019e-30 -3.72722e-15 -0)
(6.63014e-30 -3.72722e-15 -0)
(3.90008e-30 -3.72722e-15 -0)
(-1.56003e-30 -3.72722e-15 -0)
(8.19017e-30 -3.72722e-15 -0)
(5.85012e-30 -3.72722e-15 -0)
(-6.24013e-30 -3.72722e-15 -0)
(-6.63014e-30 -3.72722e-15 -0)
(6.63014e-30 -3.72722e-15 -0)
(7.02015e-30 -3.72722e-15 -0)
(5.85013e-30 -3.72723e-15 -0)
(7.41016e-30 -3.72723e-15 -0)
(-2.34005e-30 -3.72723e-15 -0)
(-3.90009e-30 -3.72723e-15 -0)
(1.24803e-29 -3.72723e-15 -0)
(1.91104e-29 -3.72723e-15 -0)
(8.58019e-30 -3.72723e-15 -0)
(-1.56003e-30 -3.72723e-15 -0)
(-2.34005e-30 -3.72723e-15 -0)
(5.85013e-30 -3.72723e-15 -0)
(5.46012e-30 -3.72723e-15 -0)
(-1.24803e-29 -3.72723e-15 -0)
(-1.98904e-29 -3.72723e-15 -0)
(-7.41017e-30 -3.72723e-15 -0)
(-0 -3.72723e-15 -0)
(6.81555e-30 -3.72722e-15 -0)
(5.30098e-30 -3.72722e-15 -0)
(-9.84469e-30 -3.72722e-15 -0)
(-1.24952e-29 -3.72722e-15 -0)
(2.27185e-30 -3.72722e-15 -0)
(9.46604e-30 -3.72722e-15 -0)
(6.43691e-30 -3.72722e-15 -0)
(7.57283e-31 -3.72722e-15 -0)
(-1.13592e-29 -3.72722e-15 -0)
(-9.84468e-30 -3.72722e-15 -0)
(-7.57283e-31 -3.72722e-15 -0)
(3.78642e-31 -3.72721e-15 -0)
(1.51457e-30 -3.72721e-15 -0)
(-0 -3.72721e-15 -0)
(-1.13592e-30 -3.72721e-15 -0)
(-1.13592e-30 -3.72721e-15 -0)
(7.57283e-30 -3.72721e-15 -0)
(9.84468e-30 -3.72721e-15 -0)
(1.13592e-30 -3.72721e-15 -0)
(3.02913e-30 -3.72721e-15 -0)
(1.51457e-30 -3.72721e-15 -0)
(-6.81554e-30 -3.72721e-15 -0)
(-2.27185e-30 -3.72721e-15 -0)
(6.05826e-30 -3.72721e-15 -0)
(1.13592e-30 -3.72721e-15 -0)
(6.05826e-30 -3.72721e-15 -0)
(-1.89321e-30 -3.72721e-15 -0)
(2.27185e-30 -3.72721e-15 -0)
(1.4767e-29 -3.72721e-15 -0)
(7.57282e-30 -3.72721e-15 -0)
(-1.21165e-29 -3.72721e-15 -0)
(-2.5369e-29 -3.72721e-15 -0)
(-4.16505e-30 -3.72721e-15 -0)
(5.67962e-30 -3.72721e-15 -0)
(-7.57283e-30 -3.72721e-15 -0)
(-9.08739e-30 -3.72721e-15 -0)
(4.92234e-30 -3.72721e-15 -0)
(4.5437e-30 -3.72721e-15 -0)
(1.13592e-30 -3.72721e-15 -0)
(1.09806e-29 -3.72721e-15 -0)
(6.81555e-30 -3.72722e-15 -0)
(-9.84468e-30 -3.72722e-15 -0)
(-7.95148e-30 -3.72722e-15 -0)
(6.81555e-30 -3.72722e-15 -0)
(8.33012e-30 -3.72722e-15 -0)
(7.1942e-30 -3.72722e-15 -0)
(8.70876e-30 -3.72722e-15 -0)
(-3.02914e-30 -3.72722e-15 -0)
(-5.30099e-30 -3.72722e-15 -0)
(1.28738e-29 -3.72722e-15 -0)
(2.1204e-29 -3.72722e-15 -0)
(9.46605e-30 -3.72722e-15 -0)
(-1.13593e-30 -3.72722e-15 -0)
(-7.57284e-31 -3.72722e-15 -0)
(5.67963e-30 -3.72722e-15 -0)
(5.30099e-30 -3.72722e-15 -0)
(-1.36311e-29 -3.72722e-15 -0)
(-2.19612e-29 -3.72722e-15 -0)
(-5.67963e-30 -3.72722e-15 -0)
(1.89321e-30 -3.72722e-15 -0)
(7.71973e-30 -3.72721e-15 -0)
(7.35213e-30 -3.72721e-15 -0)
(-1.2131e-29 -3.72721e-15 -0)
(-1.47043e-29 -3.72721e-15 -0)
(2.94085e-30 -3.72721e-15 -0)
(1.13958e-29 -3.72721e-15 -0)