/*--------------------------------*- C++ -*----------------------------------*\
| =========                 |                                                 |
| \\      /  F ield         | foam-extend: Open Source CFD                    |
|  \\    /   O peration     | Version:     4.0                                |
|   \\  /    A nd           | Web:         http://www.foam-extend.org         |
|    \\/     M anipulation  |                                                 |
\*---------------------------------------------------------------------------*/
FoamFile
{
    version     2.0;
    format      ascii;
    class       surfaceScalarField;
    location    "9";
    object      phi;
}
// * * * * * * * * * * * * * * * * * * * * * * * * * * * * * * * * * * * * * //

dimensions      [0 3 -1 0 0 0 0];

internalField   nonuniform List<scalar> 
13744
(
1.06181e-27
-1.06179e-27
1.27596e-27
-2.14154e-28
1.25316e-27
2.28091e-29
2.44925e-27
-1.19609e-27
2.67694e-27
-2.2769e-28
2.32269e-27
3.54254e-28
1.45588e-27
8.6681e-28
3.20221e-28
1.13565e-27
-8.51e-28
1.17122e-27
-1.79169e-27
9.40694e-28
-2.365e-27
5.73304e-28
-2.4795e-27
1.14504e-28
-2.15974e-27
-3.19762e-28
-1.49341e-27
-6.66333e-28
-6.43861e-28
-8.49545e-28
2.05868e-28
-8.49728e-28
8.72748e-28
-6.66881e-28
1.22344e-27
-3.50693e-28
1.19355e-27
2.98866e-29
8.0715e-28
3.86404e-28
1.66189e-28
6.40961e-28
-5.7079e-28
7.3698e-28
-1.22827e-27
6.5748e-28
-1.65394e-27
4.25668e-28
-1.75511e-27
1.01172e-28
-1.51872e-27
-2.36393e-28
-1.01227e-27
-5.06442e-28
-3.64458e-28
-6.47816e-28
2.68576e-28
-6.33034e-28
7.42672e-28
-4.74096e-28
9.60564e-28
-2.17893e-28
8.93591e-28
6.69739e-29
5.85285e-28
3.08305e-28
1.3677e-28
4.48516e-28
-3.2138e-28
4.58149e-28
-6.62954e-28
3.41574e-28
-7.96888e-28
1.33934e-28
-6.87264e-28
-1.09625e-28
-3.59112e-28
-3.28152e-28
1.11702e-28
-4.70814e-28
6.17948e-28
-5.06247e-28
1.04927e-27
-4.31322e-28
1.31346e-27
-2.6419e-28
1.36056e-27
-4.70992e-29
1.18227e-27
1.78292e-28
8.24519e-28
3.57749e-28
3.55856e-28
4.68663e-28
-1.16412e-28
4.72269e-28
-5.11961e-28
3.95549e-28
-7.27953e-28
2.15992e-28
-7.54132e-28
2.61784e-29
-5.44898e-28
-2.09234e-28
-2.25342e-28
-3.19556e-28
2.05112e-28
-4.30454e-28
4.7623e-28
-2.71118e-28
6.98418e-28
-2.22188e-28
5.11908e-28
1.8651e-28
5.45779e-28
-3.38702e-29
1.03253e-27
-4.8675e-28
1.03253e-27
1.17361e-27
-2.2354e-27
7.88609e-28
1.70844e-28
2.19915e-27
-1.38773e-27
3.71141e-27
-2.70836e-27
3.82535e-27
-3.41628e-28
3.0348e-27
1.14481e-27
1.54656e-27
2.35504e-27
-2.69399e-28
2.95161e-27
-2.04435e-27
2.94617e-27
-3.4026e-27
2.29894e-27
-4.14975e-27
1.32046e-27
-4.18146e-27
1.46208e-28
-3.56114e-27
-9.40082e-28
-2.4493e-27
-1.77817e-27
-1.10935e-27
-2.1895e-27
1.74762e-28
-2.13384e-27
1.13301e-27
-1.62513e-27
1.58065e-27
-7.98336e-28
1.44525e-27
1.65282e-28
7.89434e-28
1.04223e-27
-2.10218e-28
1.64061e-27
-1.30119e-27
1.82795e-27
-2.21732e-27
1.57361e-27
-2.73995e-27
9.48296e-28
-2.74968e-27
1.10904e-28
-2.25165e-27
-7.34429e-28
-1.37071e-27
-1.38738e-27
-3.16826e-28
-1.7017e-27
6.69357e-28
-1.61922e-27
1.37667e-27
-1.18141e-27
1.67388e-27
-5.15104e-28
1.53806e-27
2.0279e-28
1.0546e-27
7.91765e-28
3.90277e-28
1.11284e-27
-2.52553e-28
1.10098e-27
-6.87713e-28
7.76734e-28
-7.90245e-28
2.36466e-28
-5.22931e-28
-3.76938e-28
5.9023e-29
-9.10107e-28
8.27536e-28
-1.23933e-27
1.61364e-27
-1.29235e-27
2.25117e-27
-1.06885e-27
2.60838e-27
-6.214e-28
2.62128e-27
-5.99972e-29
2.29184e-27
5.07729e-28
1.7003e-27
9.49294e-28
9.61975e-28
1.20698e-27
2.38311e-28
1.19593e-27
-3.43265e-28
9.77125e-28
-6.46378e-28
5.19105e-28
-6.48142e-28
2.7942e-29
-3.21804e-28
-5.35572e-28
1.70808e-28
-8.12168e-28
7.63129e-28
-1.02278e-27
1.11809e-27
-6.26082e-28
1.32955e-27
-4.33642e-28
9.339e-28
5.82157e-28
9.44233e-28
-4.42032e-29
1.2547e-27
-7.97214e-28
2.28723e-27
3.02392e-27
-5.25932e-27
1.66029e-27
1.53447e-27
2.60971e-27
-2.33715e-27
3.67722e-27
-3.77587e-27
3.45465e-27
-1.19057e-28
2.30588e-27
2.29358e-27
5.77871e-28
4.08305e-27
-1.35969e-27
4.88918e-27
-3.1199e-27
4.70637e-27
-4.3692e-27
3.54824e-27
-4.93441e-27
1.88568e-27
-4.76095e-27
-2.72585e-29
-3.94991e-27
-1.75112e-27
-2.7001e-27
-3.02798e-27
-1.2957e-27
-3.5939e-27
-2.76287e-29
-3.4019e-27
8.46968e-28
-2.49972e-27
1.17004e-27
-1.12141e-27
9.06052e-28
4.29274e-28
1.54839e-28
1.79344e-27
-8.76706e-28
2.67216e-27
-1.92058e-27
2.87183e-27
-2.71272e-27
2.36575e-27
-3.05389e-27
1.28947e-27
-2.85612e-27
-8.68633e-29
-2.16043e-27
-1.43012e-27
-1.12308e-27
-2.42472e-27
2.6284e-29
-2.85107e-27
1.04333e-27
-2.63626e-27
1.72923e-27
-1.8673e-27
1.97715e-27
-7.63027e-28
1.79388e-27
3.86064e-28
1.29194e-27
1.2937e-27
6.5613e-28
1.74866e-27
9.34523e-29
1.66366e-27
-2.18858e-28
1.08904e-27
-1.75706e-28
1.93314e-28
2.35065e-28
-7.87709e-28
9.33901e-28
-1.60894e-27
1.77501e-27
-2.08044e-27
2.58159e-27
-2.09892e-27
3.19049e-27
-1.67776e-27
3.48256e-27
-9.13462e-28
3.41125e-27
1.13062e-29
2.99935e-27
9.19631e-28
2.34181e-27
1.60683e-27
1.56921e-27
1.97958e-27
8.40303e-28
1.92484e-27
2.89069e-28
1.52836e-27
2.3654e-29
7.8452e-28
7.59466e-29
-2.43506e-29
4.13556e-28
-8.73181e-28
9.12791e-28
-1.3114e-27
1.41476e-27
-1.52475e-27
1.68337e-27
-8.94685e-28
1.71318e-27
-4.63456e-28
1.15337e-27
1.14197e-27
1.09996e-27
9.2065e-30
8.07008e-28
-5.04266e-28
3.09423e-27
3.15953e-27
-8.41885e-27
3.07355e-27
1.62046e-27
3.05294e-27
-2.31654e-27
3.65613e-27
-4.37905e-27
3.07113e-27
4.65942e-28
1.53503e-27
3.82968e-27
-4.56908e-28
6.07498e-27
-2.53282e-27
6.96509e-27
-4.28553e-27
6.45909e-27
-5.42408e-27
4.68679e-27
-5.79778e-27
2.25937e-27
-5.40458e-27
-4.20456e-28
-4.38637e-27
-2.76934e-27
-2.98353e-27
-4.43082e-27
-1.50371e-27
-5.07372e-27
-2.46487e-28
-4.65913e-27
5.43545e-28
-3.28975e-27
7.36065e-28
-1.31393e-27
3.34622e-28
8.30717e-28
-5.20865e-28
2.64893e-27
-1.59038e-27
3.74167e-27
-2.58828e-27
3.86973e-27
-3.25158e-27
3.02905e-27
-3.40088e-27
1.43877e-27
-2.98126e-27
-5.06482e-28
-2.07206e-27
-2.33933e-27
-8.63552e-28
-3.63323e-27
3.92746e-28
-4.10737e-27
1.44762e-27
-3.69113e-27
2.11456e-27
-2.53424e-27
2.31225e-27
-9.60724e-28
2.07905e-27
6.19266e-28
1.55674e-27
1.81601e-27
9.49865e-28
2.35553e-27
4.71101e-28
2.14242e-27
2.88767e-28
1.27138e-27
4.87196e-28
-5.11419e-30
1.05194e-27
-1.35245e-27
1.87729e-27
-2.4343e-27
2.7982e-27
-3.00135e-27
3.62896e-27
-2.92969e-27
4.20923e-27
-2.25803e-27
4.43287e-27
-1.13709e-27
4.27189e-27
1.72282e-28
3.77118e-27
1.42034e-27
3.04184e-27
2.33617e-27
2.23072e-27
2.79071e-27
1.49452e-27
2.66104e-27
9.73783e-28
2.04909e-27
7.47853e-28
1.01045e-27
8.56651e-28
-1.33148e-28
1.20708e-27
-1.22361e-27
1.71246e-27
-1.81678e-27
2.12e-27
-1.93229e-27
2.29449e-27
-1.06918e-27
2.13166e-27
-3.00621e-28
1.39316e-27
1.88047e-27
1.26394e-27
1.38427e-28
3.51439e-28
4.08235e-28
3.44567e-27
2.99218e-27
-1.1411e-26
4.0881e-27
5.24541e-28
3.52075e-27
-1.7492e-27
3.63824e-27
-4.49654e-27
2.66433e-27
1.43986e-27
7.14084e-28
5.77993e-27
-1.56313e-27
8.35219e-27
-3.79052e-27
9.19249e-27
-5.53965e-27
8.20821e-27
-6.56302e-27
5.71017e-27
-6.73449e-27
2.43084e-27
-6.10744e-27
-1.04751e-27
-4.86761e-27
-4.00916e-27
-3.29981e-27
-5.99862e-27
-1.73714e-27
-6.63639e-27
-4.88788e-28
-5.90748e-27
2.13505e-28
-3.99205e-27
2.68629e-28
-1.36906e-27
-2.78465e-28
1.37781e-27
-1.24515e-27
3.61561e-27
-2.3559e-27
4.85242e-27
-3.30584e-27
4.81967e-27
-3.83268e-27
3.55589e-27
-3.77765e-27
1.38374e-27
-3.12074e-27
-1.1634e-27
-1.98203e-27
-3.47804e-27
-5.88301e-28
-5.02696e-27
7.85236e-28
-5.48091e-27
1.88361e-27
-4.7895e-27
2.53293e-27
-3.18357e-27
2.67874e-27
-1.10653e-27
2.39292e-27
9.05088e-28
1.8486e-27
2.36032e-27
1.27178e-27
2.93236e-27
8.81664e-28
2.53254e-27
8.37536e-28
1.31551e-27
1.20193e-27
-3.69504e-28
1.93211e-27
-2.08263e-27
2.89437e-27
-3.39656e-27
3.90277e-27
-4.00974e-27
4.7617e-27
-3.78862e-27
5.31334e-27
-2.80967e-27
5.46509e-27
-1.28884e-27
5.20863e-27
4.28742e-28
4.61239e-27
2.01657e-27
3.80498e-27
3.14358e-27
2.95071e-27
3.64498e-27
2.20475e-27
3.407e-27
1.71443e-27
2.53942e-27
1.52943e-27
1.19544e-27
1.6971e-27
-3.00812e-28
2.06159e-27
-1.58811e-27
2.57274e-27
-2.32793e-27
2.88136e-27
-2.24091e-27
2.9544e-27
-1.14222e-27
2.58694e-27
6.6838e-29
1.6557e-27
2.81171e-27
1.43629e-27
3.57832e-28
-1.10398e-28
1.95493e-27
3.33527e-27
3.24651e-27
-1.46575e-26
4.78737e-27
-1.01633e-27
4.01708e-27
-9.78909e-28
3.62683e-27
-4.10629e-27
2.23508e-27
2.83161e-27
-1.58022e-28
8.17303e-27
-2.74425e-27
1.09384e-26
-5.13835e-27
1.15866e-26
-6.88933e-27
9.9592e-27
-7.79362e-27
6.61446e-27
-7.75189e-27
2.3891e-27
-6.87576e-27
-1.92363e-27
-5.39836e-27
-5.48656e-27
-3.65188e-27
-7.7451e-27
-1.99741e-27
-8.29087e-27
-7.54856e-28
-7.15003e-27
-1.42996e-28
-4.60391e-27
-2.32251e-28
-1.2798e-27
-9.33868e-28
2.07943e-27
-2.01964e-27
4.70138e-27
-3.17591e-27
6.00869e-27
-4.07672e-27
5.72049e-27
-4.45983e-27
3.939e-27
-4.18784e-27
1.11175e-27
-3.27749e-27
-2.07375e-27
-1.89221e-27
-4.86331e-27
-2.97858e-28
-6.62131e-27
1.20456e-27
-6.98332e-27
2.35325e-27
-5.9382e-27
2.98713e-27
-3.81745e-27
3.07984e-27
-1.19924e-27
2.73878e-27
1.24614e-27
2.17064e-27
2.92846e-27
1.62468e-27
3.47832e-27
1.32767e-27
2.82955e-27
1.42985e-27
1.21333e-27
1.97098e-27
-9.10638e-28
2.87842e-27
-2.99007e-27
3.98854e-27
-4.50668e-27
5.09278e-27
-5.11398e-27
5.9845e-27
-4.68034e-27
6.50804e-27
-3.3332e-27
6.58478e-27
-1.36558e-27
6.22713e-27
7.8639e-28
5.52849e-27
2.71521e-27
4.63641e-27
4.03567e-27
3.73383e-27
4.54756e-27
2.97515e-27
4.16568e-27
2.51459e-27
2.99998e-27
2.37168e-27
1.33835e-27
2.60026e-27
-5.29395e-28
2.98022e-27
-1.96807e-27
3.49669e-27
-2.84439e-27
3.70236e-27
-2.44658e-27
3.66615e-27
-1.10601e-27
3.08232e-27
6.50673e-28
1.94296e-27
3.95107e-27
1.6175e-27
6.83296e-28
-5.77003e-28
4.14943e-27
2.75827e-27
3.83474e-27
-1.84923e-26
5.62621e-27
-2.8078e-27
4.54493e-27
1.02373e-28
3.62762e-27
-3.18897e-27
1.78925e-27
4.66998e-27
-1.07714e-27
1.10394e-26
-3.99904e-27
1.38603e-26
-6.57855e-27
1.41661e-26
-8.34039e-27
1.1721e-26
-9.12451e-27
7.39858e-27
-8.86027e-27
2.12486e-27
-7.72009e-27
-3.06381e-27
-5.98801e-27
-7.21865e-27
-4.04694e-27
-9.68617e-27
-2.28885e-27
-1.0049e-26
-1.04614e-27
-8.39274e-27
-5.25052e-28
-5.12499e-27
-7.64258e-28
-1.0406e-27
-1.629e-27
2.94417e-27
-2.84256e-27
5.91494e-27
-4.05021e-27
7.21634e-27
-4.90263e-27
6.57291e-27
-5.1365e-27
4.17287e-27
-4.63606e-27
6.11312e-28
-3.45644e-27
-3.25336e-27
-1.80689e-27
-6.51287e-27
4.89133e-30
-8.43309e-27
1.6497e-27
-8.62813e-27
2.85753e-27
-7.14603e-27
3.47986e-27
-4.43979e-27
3.51945e-27
-1.23882e-27
3.12114e-27
1.64446e-27
2.52736e-27
3.52224e-27
2.01265e-27
3.99303e-27
1.81259e-27
3.02962e-27
2.06864e-27
9.57282e-28
2.797e-27
-1.639e-27
3.89355e-27
-4.08663e-27
5.16285e-27
-5.77598e-27
6.37192e-27
-6.32306e-27
7.30178e-27
-5.6102e-27
7.79845e-27
-3.82987e-27
7.79756e-27
-1.36469e-27
7.33326e-27
1.25069e-27
6.52525e-27
3.52321e-27
5.54159e-27
5.01933e-27
4.58506e-27
5.50409e-27
3.81018e-27
4.94057e-27
3.37813e-27
3.43203e-27
3.27815e-27
1.43832e-27
3.56927e-27
-8.20509e-28
3.96618e-27
-2.36498e-27
4.48714e-27
-3.36536e-27
4.58626e-27
-2.5457e-27
4.43231e-27
-9.52057e-28
3.62074e-27
1.46225e-27
2.25625e-27
5.31556e-27
1.80882e-27
1.13072e-27
-1.04651e-27
7.00475e-27
1.71177e-27
4.31476e-27
-2.2807e-26
6.58961e-27
-5.08266e-27
5.10245e-27
1.58954e-27
3.63987e-27
-1.72639e-27
1.32634e-27
6.98351e-27
-2.04409e-27
1.44098e-26
-5.32906e-27
1.71453e-26
-8.11351e-27
1.69505e-26
-9.89609e-27
1.35036e-26
-1.05597e-26
8.06221e-27
-1.00643e-26
1.62939e-27
-8.64539e-27
-4.48267e-27
-6.64161e-27
-9.22242e-27
-4.48984e-27
-1.18379e-26
-2.61596e-27
-1.19228e-26
-1.36659e-27
-9.64212e-27
-9.36019e-28
-5.55556e-27
-1.33017e-27
-6.46443e-28
-2.36618e-27
3.98018e-27
-3.71592e-27
7.26469e-27
-4.98068e-27
8.48109e-27
-5.7854e-27
7.37763e-27
-5.86451e-27
4.25197e-27
-5.12407e-27
-1.29131e-28
-3.65909e-27
-4.71834e-27
-1.7271e-27
-8.44487e-27
3.19555e-28
-1.04797e-26
2.12106e-27
-1.04296e-26
3.39764e-27
-8.4226e-27
4.01305e-27
-5.05519e-27
4.00006e-27
-1.22584e-27
3.54279e-27
2.10172e-27
2.92171e-27
4.14333e-27
2.43865e-27
4.47608e-27
2.33937e-27
3.1289e-27
2.75688e-27
5.39765e-28
3.68316e-27
-2.56528e-27
4.98109e-27
-5.38456e-27
6.42143e-27
-7.21632e-27
7.74496e-27
-7.64659e-27
8.71895e-27
-6.5842e-27
9.19049e-27
-4.30141e-27
9.10967e-27
-1.28387e-27
8.53333e-27
1.82703e-27
7.60884e-27
4.4477e-27
6.52638e-27
6.1018e-27
5.50972e-27
6.52074e-27
4.71463e-27
5.73566e-27
4.30929e-27
3.83738e-27
4.25264e-27
1.49497e-27
4.60751e-27
-1.17538e-27
5.02268e-27
-2.78015e-27
5.54717e-27
-3.88985e-27
5.53615e-27
-2.53469e-27
5.25583e-27
-6.71733e-28
4.20496e-27
2.51311e-27
2.59781e-27
6.92272e-27
2.01165e-27
1.71688e-27
-1.51709e-27
1.05335e-26
1.94678e-28
4.6901e-27
-2.74971e-26
7.55933e-27
-7.95189e-27
5.6888e-27
3.46007e-27
3.66392e-27
2.98492e-28
8.46408e-28
9.80101e-27
-3.05949e-27
1.83157e-26
-6.73611e-27
2.08219e-26
-9.74637e-27
1.99608e-26
-1.15609e-26
1.53181e-26
-1.21046e-26
8.60594e-27
-1.13697e-26
8.94527e-28
-9.65764e-27
-6.19477e-27
-7.36485e-27
-1.15152e-26
-4.98567e-27
-1.42171e-26
-2.98301e-27
-1.39255e-26
-1.71963e-27
-1.09055e-26
-1.37856e-27
-5.89663e-27
-1.93211e-27
-9.28975e-29
-3.14722e-27
5.1953e-27
-4.64152e-27
8.75898e-27
-5.96928e-27
9.80886e-27
-6.72728e-27
8.13563e-27
-6.64632e-27
4.17101e-27
-5.65433e-27
-1.12112e-27
-3.88765e-27
-6.48501e-27
-1.65448e-27
-1.0678e-26
6.45359e-28
-1.27796e-26
2.61889e-27
-1.24032e-26
3.97488e-27
-9.77859e-27
4.58891e-27
-5.66922e-27
4.52459e-27
-1.16151e-27
4.00709e-27
2.61922e-27
3.35713e-27
4.79328e-27
2.90605e-27
4.92716e-27
2.91123e-27
3.12373e-27
3.49774e-27
-4.67454e-29
4.6327e-27
-3.70024e-27
6.14455e-27
-6.89641e-27
7.76833e-27
-8.8401e-27
9.21662e-27
-9.09488e-27
1.02415e-26
-7.60903e-27
1.06903e-26
-4.75021e-27
1.05276e-26
-1.12126e-27
9.83411e-27
2.52056e-27
8.78594e-27
5.49586e-27
7.5971e-27
7.29064e-27
6.51364e-27
7.6042e-27
5.69369e-27
6.5556e-27
5.31258e-27
4.21849e-27
5.29909e-27
1.50847e-27
5.71848e-27
-1.59478e-27
6.15299e-27
-3.21466e-27
6.67993e-27
-4.41679e-27
6.55531e-27
-2.41007e-27
6.13998e-27
-2.56411e-28
4.83806e-27
3.81504e-27
2.97026e-27
8.79051e-27
2.22718e-27
2.45996e-27
-1.9868e-27
1.47475e-26
-1.79212e-27
5.08564e-27
-3.25828e-26
8.5354e-27
-1.14017e-26
6.30328e-27
5.69219e-27
3.701e-27
2.90077e-27
3.50748e-28
1.31513e-26
-4.12264e-27
2.27891e-26
-8.22092e-27
2.49202e-26
-1.14796e-26
2.32195e-26
-1.33391e-26
1.71776e-26
-1.37651e-26
9.03194e-27
-1.27837e-26
-8.68348e-29
-1.07642e-26
-8.21425e-27
-8.16489e-27
-1.41146e-26
-5.54074e-27
-1.68413e-26
-3.3951e-27
-1.60711e-26
-2.109e-27
-1.21916e-26
-1.85515e-27
-6.15049e-27
-2.57158e-27
6.23526e-28
-3.97315e-27
6.59687e-27
-5.62034e-27
1.04062e-26
-7.01738e-27
1.12059e-26
-7.73023e-27
8.84848e-27
-7.48448e-27
3.92526e-27
-6.22979e-27
-2.37581e-27
-4.14505e-27
-8.56976e-27
-1.59146e-27
-1.32316e-26
9.80794e-28
-1.53518e-26
3.14293e-27
-1.45653e-26
4.59035e-27
-1.1226e-26
5.2098e-27
-6.28867e-27
5.09634e-27
-1.04805e-27
4.51789e-27
3.19768e-27
3.8377e-27
5.47347e-27
3.4188e-27
5.34606e-27
3.53184e-27
3.01068e-27
4.29461e-27
-8.09517e-28
5.64894e-27
-5.05457e-27
7.38746e-27
-8.63493e-27
9.20754e-27
-1.06602e-26
1.07916e-26
-1.06789e-26
1.18747e-26
-8.69219e-27
1.23039e-26
-5.17941e-27
1.20583e-26
-8.75595e-28
1.12427e-26
3.33615e-27
1.00637e-26
6.67489e-27
8.76058e-27
8.59373e-27
7.60308e-27
8.7617e-27
6.75297e-27
7.40571e-27
6.39287e-27
4.57859e-27
6.42172e-27
1.47962e-27
6.90584e-27
-2.07889e-27
7.36052e-27
-3.66934e-27
7.88861e-27
-4.94487e-27
7.64705e-27
-2.16851e-27
7.08798e-27
3.02667e-28
5.52324e-27
5.37978e-27
3.37615e-27
1.09376e-26
2.45682e-27
3.37929e-27
-2.45332e-27
1.96576e-26
-4.24544e-27
5.49377e-27
-3.80765e-26
9.52376e-27
-1.54316e-26
6.9446e-27
8.27135e-27
3.752e-27
6.09337e-27
-1.59377e-28
1.70626e-26
-5.2327e-27
2.78625e-26
-9.78392e-27
2.94714e-26
-1.33155e-26
2.6751e-26
-1.52349e-26
1.9097e-26
-1.55471e-26
9.34406e-27
-1.43134e-26
-1.32053e-27
-1.19729e-26
-1.05547e-26
-9.04935e-27
-1.70381e-26
-6.16196e-27
-1.97287e-26
-3.85795e-27
-1.83752e-26
-2.539e-27
-1.35105e-26
-2.3687e-27
-6.32079e-27
-3.25037e-27
1.50519e-27
-4.84506e-27
8.19157e-27
-6.65331e-27
1.22144e-26
-8.1262e-27
1.26788e-26
-8.79604e-27
9.51832e-27
-8.38147e-27
3.51069e-27
-6.8534e-27
-3.90388e-27
-4.43432e-27
-1.09888e-26
-1.54071e-27
-1.61252e-26
1.3241e-27
-1.82166e-26
3.69266e-27
-1.69339e-26
5.24498e-27
-1.27783e-26
5.87802e-27
-6.92172e-27
5.71873e-27
-8.88761e-28
5.07931e-27
3.83709e-27
4.36779e-27
6.18499e-27
3.98118e-27
5.73267e-27
4.20521e-27
2.78666e-27
5.15119e-27
-1.7555e-27
6.73543e-27
-6.6388e-27
8.71347e-27
-1.0613e-26
1.07431e-26
-1.26898e-26
1.24746e-26
-1.24104e-26
1.36244e-26
-9.84202e-27
1.4038e-26
-5.59299e-27
1.37087e-26
-5.46294e-28
1.27666e-26
4.27825e-27
1.14496e-26
7.99188e-27
1.00242e-26
1.00192e-26
8.78483e-27
1.0001e-26
7.89852e-27
8.29201e-27
7.55538e-27
4.92174e-27
7.62503e-27
1.40997e-27
8.17337e-27
-2.62723e-27
8.64874e-27
-4.14472e-27
9.17639e-27
-5.47252e-27
8.81478e-27
-1.8069e-27
8.10307e-27
1.01437e-27
6.26387e-27
7.21899e-27
3.81821e-27
1.33833e-26
2.70224e-27
4.49525e-27
-2.91424e-27
2.52741e-26
-7.15968e-27
5.89842e-27
-4.3975e-26
1.05223e-26
-2.00555e-26
7.61089e-27
1.11827e-26
3.81753e-27
9.88673e-27
-6.82681e-28
2.15629e-26
-6.38855e-27
3.35683e-26
-1.14252e-26
3.45081e-26
-1.52557e-26
3.05816e-26
-1.72524e-26
2.10937e-26
-1.74564e-26
9.54804e-27
-1.5966e-26
-2.81092e-27
-1.32918e-26
-1.32288e-26
-1.00264e-26
-2.03035e-26
-6.85689e-27
-2.28982e-26
-4.37794e-27
-2.08541e-26
-3.01449e-27
-1.4874e-26
-2.92253e-27
-6.41275e-27
-3.97049e-27
2.55316e-27
-5.76411e-27
9.98519e-27
-7.74128e-27
1.41916e-26
-9.2968e-27
1.42343e-26
-9.92639e-27
1.01479e-26
-9.33968e-27
2.92398e-27
-7.52814e-27
-5.71542e-27
-4.75869e-27
-1.37583e-26
-1.50511e-27
-1.93788e-26
1.67322e-27
-2.1395e-26
4.26732e-27
-1.9528e-26
5.93951e-27
-1.44505e-26
6.59583e-27
-7.57804e-27
6.39527e-27
-6.88202e-28
5.69572e-27
4.53664e-27
4.95213e-27
6.92858e-27
4.59788e-27
6.08693e-27
4.93568e-27
2.44887e-27
6.07146e-27
-2.89129e-27
7.89589e-27
-8.46323e-27
1.01264e-26
-1.28434e-26
1.23793e-26
-1.49427e-26
1.42705e-26
-1.43016e-26
1.54962e-26
-1.10677e-26
1.58991e-26
-5.99584e-27
1.54863e-26
-1.33549e-28
1.44138e-26
5.35078e-27
1.29518e-26
9.45383e-27
1.13957e-26
1.15753e-26
1.00662e-26
1.13305e-26
9.13692e-27
9.22132e-27
8.80573e-27
5.25293e-27
8.9138e-27
1.3019e-27
9.52506e-27
-3.2385e-27
1.00212e-26
-4.64087e-27
1.05465e-26
-5.9978e-27
1.00619e-26
-1.3223e-27
9.18862e-27
1.88764e-27
7.06344e-27
9.34417e-27
4.29934e-27
1.61474e-26
2.96533e-27
5.82926e-27
-3.36695e-27
3.16064e-26
-1.05266e-26
6.29104e-27
-5.0266e-26
1.15252e-26
-2.52897e-26
8.29963e-27
1.44083e-26
3.8979e-27
1.42885e-26
-1.21788e-27
2.66786e-26
-7.58883e-27
3.99393e-26
-1.31444e-26
4.00637e-26
-1.73019e-26
3.47391e-26
-1.93951e-26
2.31868e-26
-1.94988e-26
9.65173e-27
-1.7749e-26
-4.56063e-27
-1.47295e-26
-1.62484e-26
-1.1105e-26
-2.3928e-26
-7.63379e-27
-2.63694e-26
-4.96216e-27
-2.35257e-26
-3.54096e-27
-1.62952e-26
-3.52041e-27
-6.4333e-27
-4.73422e-27
3.76696e-27
-6.73151e-27
1.19825e-26
-8.885e-27
1.63451e-26
-1.05301e-26
1.58794e-26
-1.11227e-26
1.07406e-26
-1.03614e-26
2.1626e-27
-8.257e-27
-7.81978e-27
-5.12149e-27
-1.68938e-26
-1.48784e-27
-2.30125e-26
2.02577e-27
-2.49086e-26
4.86585e-27
-2.2368e-26
6.6745e-27
-1.62592e-26
7.36544e-27
-8.26897e-27
7.1296e-27
-4.52362e-28
6.37173e-27
5.29451e-27
5.59581e-27
7.7045e-27
5.27397e-27
6.40877e-27
5.728e-27
1.99484e-27
7.0597e-27
-4.22299e-27
9.13427e-27
-1.05378e-26
1.163e-26
-1.53392e-26
1.41202e-26
-1.74329e-26
1.61843e-26
-1.63657e-26
1.7496e-26
-1.23794e-26
1.7894e-26
-6.39386e-27
1.73989e-26
3.61552e-28
1.61926e-26
6.55704e-27
1.4579e-26
1.10674e-26
1.28838e-26
1.32706e-26
1.14552e-26
1.27591e-26
1.04753e-26
1.02012e-26
1.015e-26
5.57818e-27
1.02931e-26
1.15876e-27
1.09651e-26
-3.91045e-27
1.14816e-26
-5.15738e-27
1.20022e-26
-6.51839e-27
1.13918e-26
-7.11916e-28
1.0348e-26
2.93145e-27
7.92557e-27
1.17666e-26
4.8227e-27
1.92502e-26
3.24817e-27
7.40379e-27
-3.80868e-27
3.86632e-26
-1.43353e-26
6.66575e-27
-5.69317e-26
1.25256e-26
-3.11496e-26
9.00752e-27
1.79264e-26
3.993e-27
1.9303e-26
-1.76372e-27
3.24354e-26
-8.83194e-27
4.70075e-26
-1.49409e-26
4.61726e-26
-1.9455e-26
3.92532e-26
-2.16664e-26
2.53982e-26
-2.16799e-26
9.66528e-27
-1.96703e-26
-6.57031e-27
-1.62948e-26
-1.96239e-26
-1.22944e-26
-2.79284e-26
-8.50166e-27
-3.01621e-26
-5.61843e-27
-2.6409e-26
-4.12455e-27
-1.77891e-26
-4.16664e-27
-6.39121e-27
-5.5441e-27
5.14442e-27
-7.74855e-27
1.41869e-26
-1.00851e-26
1.86816e-26
-1.18266e-26
1.76209e-26
-1.23863e-26
1.13003e-26
-1.14487e-26
1.22494e-27
-9.04297e-27
-1.02255e-26
-5.52624e-27
-2.04105e-26
-1.49236e-27
-2.70464e-26
2.37902e-27
-2.878e-26
5.48681e-27
-2.54758e-26
7.45024e-27
-1.82226e-26
8.18894e-27
-9.00767e-27
7.92542e-27
-1.88838e-28
7.11223e-27
6.1077e-27
6.30431e-27
8.51241e-27
6.01498e-27
6.6981e-27
6.58735e-27
1.42247e-27
8.12057e-27
-5.75621e-27
1.04548e-26
-1.2872e-26
1.32285e-26
-1.81129e-26
1.59701e-26
-2.01745e-26
1.82208e-26
-1.86163e-26
1.96296e-26
-1.37883e-26
2.00298e-26
-6.79404e-27
1.94544e-26
9.369e-28
1.81119e-26
7.89956e-27
1.63403e-26
1.28391e-26
1.44973e-26
1.51135e-26
1.29602e-26
1.42963e-26
1.19212e-26
1.12402e-26
1.15948e-26
5.90463e-27
1.17685e-26
9.84979e-28
1.24979e-26
-4.63978e-27
1.30337e-26
-5.6932e-27
1.35468e-26
-7.03146e-27
1.2808e-26
2.6848e-29
1.15847e-26
4.15477e-27
8.85398e-27
1.44973e-26
5.3916e-27
2.27126e-26
3.55309e-27
9.2423e-27
-4.23647e-27
4.64528e-26
-1.85718e-26
7.01666e-27
-6.39484e-26
1.35156e-26
-3.76485e-26
9.73049e-27
2.17116e-26
4.10229e-27
2.49312e-26
-2.31905e-27
3.88567e-26
-1.0116e-26
5.48045e-26
-1.68135e-26
5.28701e-26
-2.17157e-26
4.41554e-26
-2.40693e-26
2.77518e-26
-2.40054e-26
9.60134e-27
-2.17373e-26
-8.83833e-27
-1.79971e-26
-2.33641e-26
-1.36046e-26
-3.23209e-26
-9.47028e-27
-3.42964e-26
-6.35543e-27
-2.95238e-26
-4.77218e-27
-1.93723e-26
-4.86607e-27
-6.29732e-27
-6.40306e-27
6.6814e-27
-8.8166e-27
1.66005e-26
-1.13421e-26
2.12072e-26
-1.3187e-26
1.94658e-26
-1.37182e-26
1.18315e-26
-1.26035e-26
1.10311e-28
-9.889e-27
-1.294e-26
-5.97659e-27
-2.43229e-26
-1.5224e-27
-3.15005e-26
2.72986e-27
-3.30322e-26
6.12843e-27
-2.88744e-26
8.26674e-27
-2.03609e-26
9.06832e-27
-9.80925e-27
8.78651e-27
9.29725e-29
7.92234e-27
6.97187e-27
7.0835e-27
9.35124e-27
6.82691e-27
6.95469e-27
7.51936e-27
7.30019e-28
9.25911e-27
-7.49596e-27
1.18619e-26
-1.54749e-26
1.4926e-26
-2.11769e-26
1.79335e-26
-2.3182e-26
2.0385e-26
-2.10679e-26
2.19031e-26
-1.53064e-26
2.23136e-26
-7.20457e-27
2.16613e-26
1.58924e-27
2.01809e-26
9.37998e-27
1.82453e-26
1.47746e-26
1.62461e-26
1.71128e-26
1.45905e-26
1.59519e-26
1.34831e-26
1.23476e-26
1.31471e-26
6.24062e-27
1.33459e-26
7.862e-28
1.41281e-26
-5.42197e-27
1.46814e-26
-6.2465e-27
1.51835e-26
-7.53359e-27
1.43139e-26
8.96472e-28
1.29021e-26
5.56656e-27
9.8525e-27
1.75469e-26
6.00956e-27
2.65555e-26
3.88263e-27
1.13692e-26
-4.64716e-27
5.49826e-26
-2.32189e-26
7.33735e-27
-7.12858e-26
1.44864e-26
-4.47975e-26
1.04635e-26
2.57344e-26
4.22463e-27
3.117e-26
-2.88288e-27
4.59642e-26
-1.1439e-26
6.33606e-26
-1.87606e-26
6.01917e-26
-2.40838e-26
4.94786e-26
-2.66064e-26
3.02744e-26
-2.64803e-26
9.47528e-27
-2.39581e-26
-1.13605e-26
-1.98462e-26
-2.74761e-26
-1.50464e-26
-3.71206e-26
-1.05502e-26
-3.87926e-26
-7.18268e-27
-3.28914e-26
-5.49155e-27
-2.10634e-26
-5.62421e-27
-6.16466e-27
-7.31438e-27
8.37157e-27
-9.93719e-27
1.92233e-26
-1.26565e-26
2.39265e-26
-1.46113e-26
2.14206e-26
-1.5119e-26
1.23391e-26
-1.38277e-26
-1.18096e-27
-1.0798e-26
-1.59697e-26
-6.47627e-27
-2.86446e-26
-1.58196e-27
-3.63948e-26
3.0748e-27
-3.7689e-26
6.7885e-27
-3.25881e-26
9.12367e-27
-2.26961e-26
1.00054e-26
-1.0691e-26
9.7167e-27
3.81661e-28
8.80743e-27
7.88114e-27
7.93966e-27
1.0219e-26
7.71625e-27
7.17811e-27
8.53017e-27
-8.39098e-29
1.04808e-26
-9.44657e-27
1.33605e-26
-1.83546e-26
1.67269e-26
-2.45434e-26
2.00148e-26
-2.64699e-26
2.26821e-26
-2.37351e-26
2.43225e-26
-1.69468e-26
2.47528e-26
-7.63489e-27
2.4028e-26
2.31404e-27
2.24091e-26
1.09989e-26
2.03044e-26
1.68793e-26
1.81404e-26
1.92767e-26
1.63559e-26
1.77364e-26
1.51698e-26
1.35337e-26
1.48146e-26
6.59579e-27
1.50314e-26
5.69414e-28
1.58606e-26
-6.25112e-27
1.64286e-26
-6.81455e-27
1.69157e-26
-8.02067e-27
1.59128e-26
1.89933e-27
1.43037e-26
7.17574e-27
1.09251e-26
2.09255e-26
6.68032e-27
3.08003e-26
4.23963e-27
1.38099e-26
-5.03739e-27
6.42596e-26
-2.82563e-26
7.62069e-27
-7.89064e-26
1.54282e-26
-5.2605e-26
1.12005e-26
2.99621e-26
4.35821e-27
3.80124e-26
-3.45445e-27
5.37769e-26
-1.27987e-26
7.27048e-26
-2.07801e-26
6.8173e-26
-2.65589e-26
5.52575e-26
-2.92796e-26
3.29951e-26
-2.91098e-26
9.3054e-27
-2.63404e-26
-1.41299e-26
-2.18519e-26
-3.19646e-26
-1.66311e-26
-4.23415e-26
-1.17529e-26
-4.36708e-26
-8.11061e-27
-3.65336e-26
-6.29125e-27
-2.28828e-26
-6.44725e-27
-6.00865e-27
-8.28184e-27
1.02062e-26
-1.11121e-26
2.20535e-26
-1.40287e-26
2.68431e-26
-1.60997e-26
2.34915e-26
-1.65892e-26
1.28287e-26
-1.51227e-26
-2.64747e-27
-1.17727e-26
-1.93198e-26
-7.02912e-27
-3.33882e-26
-1.67534e-27
-4.17486e-26
3.40995e-27
-4.27743e-26
7.46439e-27
-3.66425e-26
1.00203e-26
-2.5252e-26
1.10017e-26
-1.16723e-26
1.07198e-26
6.636e-28
9.77311e-27
8.82781e-27
8.87947e-27
1.11127e-26
8.68998e-27
7.3676e-27
9.62645e-27
-1.02038e-27
1.17915e-26
-1.16117e-26
1.49556e-26
-2.15186e-26
1.86359e-26
-2.82237e-26
2.22185e-26
-3.00525e-26
2.51169e-26
-2.66336e-26
2.68938e-26
-1.87236e-26
2.73547e-26
-8.09581e-27
2.65634e-26
3.10535e-27
2.48067e-26
1.27556e-26
2.25283e-26
1.91576e-26
2.01914e-26
2.16136e-26
1.82671e-26
1.96607e-26
1.69911e-26
1.48097e-26
1.66057e-26
6.9812e-27
1.6832e-26
3.43096e-28
1.77007e-26
-7.11976e-27
1.82797e-26
-7.39359e-27
1.87468e-26
-8.48773e-27
1.76083e-26
3.03776e-27
1.57929e-26
8.99117e-27
1.20756e-26
2.46427e-26
7.40777e-27
3.54681e-26
4.62717e-27
1.65905e-26
-5.40363e-27
7.42904e-26
-3.366e-26
7.859e-27
-8.67654e-26
1.63303e-26
-6.10764e-26
1.19344e-26
3.4358e-26
4.50044e-27
4.54464e-26
-4.03337e-27
6.23107e-26
-1.41927e-26
8.28642e-26
-2.28695e-26
7.68498e-26
-2.91398e-26
6.15278e-26
-3.20905e-26
3.59458e-26
-3.18982e-26
9.1131e-27
-2.88918e-26
-1.71363e-26
-2.40246e-26
-3.68318e-26
-1.83704e-26
-4.79957e-26
-1.30906e-26
-4.89506e-26
-9.15065e-27
-4.04736e-26
-7.1808e-27
-2.48527e-26
-7.34223e-27
-5.84722e-27
-9.30975e-27
1.21737e-26
-1.23432e-26
2.50869e-26
-1.5459e-26
2.9959e-26
-1.76517e-26
2.56842e-26
-1.8129e-26
1.33059e-26
-1.64897e-26
-4.28673e-27
-1.28157e-26
-2.29938e-26
-7.63901e-27
-3.85649e-26
-1.80706e-27
-4.75806e-26
3.73102e-27
-4.83124e-26
8.153e-27
-4.10645e-26
1.09556e-26
-2.80547e-26
1.20587e-26
-1.27754e-26
1.17995e-26
9.22722e-28
1.08251e-26
9.8022e-27
9.91e-27
1.20278e-26
9.75566e-27
7.52194e-27
1.08154e-26
-2.08014e-27
1.31978e-26
-1.39941e-26
1.66528e-26
-2.49736e-26
2.06577e-26
-3.22286e-26
2.45492e-26
-3.3944e-26
2.76947e-26
-2.97791e-26
2.96232e-26
-2.06521e-26
3.01269e-26
-8.59954e-27
2.92766e-26
3.95569e-27
2.7384e-26
1.46482e-26
2.49285e-26
2.16132e-26
2.24107e-26
2.41314e-26
2.03355e-26
2.1736e-26
1.89574e-26
1.61878e-26
1.85293e-26
7.40935e-27
1.8755e-26
1.17344e-28
1.96539e-26
-8.0187e-27
2.02389e-26
-7.97858e-27
2.068e-26
-8.92884e-27
1.94037e-26
4.31412e-27
1.73732e-26
1.10217e-26
1.33082e-26
2.87077e-26
8.196e-27
4.05804e-26
5.0486e-27
1.97379e-26
-5.74214e-27
8.50811e-26
-3.94021e-26
8.04405e-27
-9.48095e-26
1.7181e-26
-7.02133e-26
1.26568e-26
3.88822e-26
4.64777e-27
5.34554e-26
-4.61972e-27
7.15782e-26
-1.56188e-26
9.38633e-26
-2.5026e-26
8.6257e-26
-3.18248e-26
6.83266e-26
-3.50398e-26
3.91608e-26
-3.48498e-26
8.92304e-27
-3.16199e-26
-2.03661e-26
-2.63747e-26
-4.20771e-26
-2.02768e-26
-5.40936e-26
-1.45763e-26
-5.46511e-26
-1.03152e-26
-4.47346e-26
-8.17076e-27
-2.69971e-26
-8.31701e-27
-5.70097e-27
-1.04031e-26
1.42597e-26
-1.36328e-26
2.83166e-26
-1.69479e-26
3.32742e-26
-1.9267e-26
2.80033e-26
-1.9738e-26
1.37769e-26
-1.79296e-26
-6.09516e-27
-1.39295e-26
-2.69939e-26
-8.3098e-27
-4.41846e-26
-1.98187e-27
-5.39085e-26
4.03331e-27
-5.43275e-26
8.85073e-27
-4.5882e-26
1.1928e-26
-3.1132e-26
1.31772e-26
-1.40246e-26
1.29596e-26
1.14029e-27
1.19695e-26
1.07923e-26
1.10387e-26
1.29586e-26
1.09213e-26
7.63932e-27
1.21049e-26
-3.26372e-27
1.47066e-26
-1.65957e-26
1.8458e-26
-2.87249e-26
2.27975e-26
-3.65681e-26
2.70118e-26
-3.81583e-26
3.04205e-26
-3.31878e-26
3.25167e-26
-2.27483e-26
3.3077e-26
-9.15978e-27
3.21768e-26
4.85588e-27
3.0152e-26
1.6673e-26
2.75168e-26
2.42484e-26
2.48108e-26
2.68374e-26
2.25731e-26
2.39737e-26
2.10799e-26
1.76809e-26
2.0595e-26
7.89428e-27
2.08083e-26
-9.59801e-29
2.17264e-26
-8.93681e-27
2.23109e-26
-8.56307e-27
2.2719e-26
-9.33688e-27
2.13022e-26
5.73086e-27
1.90479e-26
1.3276e-26
1.4627e-26
3.31286e-26
9.04927e-27
4.61581e-26
5.50757e-27
2.32796e-26
-6.04897e-27
9.66377e-26
-4.54511e-26
8.16718e-27
-1.02977e-25
1.79675e-26
-8.00136e-26
1.3358e-26
4.34917e-26
4.79559e-27
6.20178e-26
-5.21414e-27
8.15879e-26
-1.70745e-26
1.05724e-25
-2.72463e-26
9.64288e-26
-3.46115e-26
7.56918e-26
-3.81277e-26
4.2677e-26
-3.79679e-26
8.7633e-27
-3.45321e-26
-2.3802e-26
-2.89127e-26
-4.76964e-26
-2.23632e-26
-6.0643e-26
-1.6224e-26
-6.07904e-26
-1.16177e-26
-4.93409e-26
-9.27275e-27
-2.9342e-26
-9.38046e-27
-5.59327e-27
-1.15674e-26
1.64467e-26
-1.49836e-26
3.17327e-26
-1.84957e-26
3.67863e-26
-2.09449e-26
3.04525e-26
-2.14157e-26
1.42477e-26
-1.94428e-26
-8.06808e-27
-1.51161e-26
-3.13205e-26
-9.04532e-27
-5.02554e-26
-2.2047e-27
-6.07491e-26
4.31172e-27
-6.0844e-26
9.55349e-27
-5.11237e-26
1.29353e-26
-3.45138e-26
1.4358e-26
-1.54472e-26
1.42035e-26
1.2947e-27
1.32122e-26
1.17837e-26
1.22735e-26
1.38973e-26
1.21957e-26
7.71713e-27
1.35034e-26
-4.57148e-27
1.63255e-26
-1.94178e-26
2.03777e-26
-3.27771e-26
2.50607e-26
-4.12511e-26
2.96111e-26
-4.27087e-26
3.32994e-26
-3.68761e-26
3.55805e-26
-2.50294e-26
3.62125e-26
-9.79179e-27
3.52734e-26
5.79495e-27
3.31217e-26
1.88247e-26
3.03058e-26
2.70642e-26
2.74048e-26
2.97383e-26
2.4993e-26
2.63855e-26
2.33708e-26
1.93032e-26
2.28134e-26
8.45168e-27
2.30005e-26
-2.83122e-28
2.39246e-26
-9.86086e-27
2.45005e-26
-9.13901e-27
2.48671e-26