/*--------------------------------*- C++ -*----------------------------------*\
| =========                 |                                                 |
| \\      /  F ield         | foam-extend: Open Source CFD                    |
|  \\    /   O peration     | Version:     4.0                                |
|   \\  /    A nd           | Web:         http://www.foam-extend.org         |
|    \\/     M anipulation  |                                                 |
\*---------------------------------------------------------------------------*/
FoamFile
{
    version     2.0;
    format      ascii;
    class       volScalarField;
    location    "190";
    object      cPlus;
}
// * * * * * * * * * * * * * * * * * * * * * * * * * * * * * * * * * * * * * //

dimensions      [0 0 0 0 0 0 0];

internalField   nonuniform List<scalar> 
6960
(
0.31875
0.318738
0.318738
0.318741
0.318743
0.318746
0.318748
0.31875
0.318752
0.318753
0.318755
0.318756
0.318757
0.318759
0.31876
0.318761
0.318762
0.318763
0.318763
0.318764
0.318765
0.318765
0.318766
0.318766
0.318767
0.318767
0.318767
0.318768
0.318768
0.318768
0.318768
0.318768
0.318768
0.318767
0.318767
0.318767
0.318766
0.318766
0.318765
0.318765
0.318764
0.318763
0.318763
0.318762
0.318761
0.31876
0.318759
0.318757
0.318756
0.318755
0.318753
0.318752
0.31875
0.318748
0.318746
0.318743
0.318741
0.318738
0.318738
0.31875
0.141156
0.14117
0.141174
0.141177
0.141179
0.141181
0.141182
0.141183
0.141185
0.141186
0.141187
0.141188
0.141188
0.141189
0.14119
0.141191
0.141191
0.141192
0.141192
0.141193
0.141193
0.141194
0.141194
0.141194
0.141195
0.141195
0.141195
0.141195
0.141195
0.141195
0.141195
0.141195
0.141195
0.141195
0.141195
0.141195
0.141194
0.141194
0.141194
0.141193
0.141193
0.141192
0.141192
0.141191
0.141191
0.14119
0.141189
0.141188
0.141188
0.141187
0.141186
0.141185
0.141183
0.141182
0.141181
0.141179
0.141177
0.141174
0.14117
0.141156
0.103146
0.103177
0.103184
0.103186
0.103188
0.103189
0.10319
0.103191
0.103191
0.103192
0.103193
0.103194
0.103194
0.103195
0.103195
0.103196
0.103196
0.103196
0.103197
0.103197
0.103197
0.103198
0.103198
0.103198
0.103198
0.103198
0.103199
0.103199
0.103199
0.103199
0.103199
0.103199
0.103199
0.103199
0.103198
0.103198
0.103198
0.103198
0.103198
0.103197
0.103197
0.103197
0.103196
0.103196
0.103196
0.103195
0.103195
0.103194
0.103194
0.103193
0.103192
0.103191
0.103191
0.10319
0.103189
0.103188
0.103186
0.103184
0.103177
0.103146
0.0980291
0.098072
0.0980802
0.0980828
0.0980842
0.0980852
0.0980861
0.0980869
0.0980876
0.0980882
0.0980888
0.0980893
0.0980898
0.0980902
0.0980906
0.098091
0.0980914
0.0980917
0.098092
0.0980923
0.0980926
0.0980928
0.098093
0.0980932
0.0980933
0.0980934
0.0980935
0.0980936
0.0980937
0.0980937
0.0980937
0.0980937
0.0980936
0.0980935
0.0980934
0.0980933
0.0980932
0.098093
0.0980928
0.0980926
0.0980923
0.098092
0.0980917
0.0980914
0.098091
0.0980906
0.0980902
0.0980898
0.0980893
0.0980888
0.0980882
0.0980876
0.0980869
0.0980861
0.0980852
0.0980842
0.0980828
0.0980802
0.098072
0.0980291
0.10374
0.103794
0.103804
0.103807
0.103809
0.10381
0.103811
0.103812
0.103812
0.103813
0.103814
0.103814
0.103815
0.103815
0.103815
0.103816
0.103816
0.103817
0.103817
0.103817
0.103817
0.103818
0.103818
0.103818
0.103818
0.103818
0.103818
0.103819
0.103819
0.103819
0.103819
0.103819
0.103819
0.103818
0.103818
0.103818
0.103818
0.103818
0.103818
0.103817
0.103817
0.103817
0.103817
0.103816
0.103816
0.103815
0.103815
0.103815
0.103814
0.103814
0.103813
0.103812
0.103812
0.103811
0.10381
0.103809
0.103807
0.103804
0.103794
0.10374
0.114981
0.115047
0.11506
0.115063
0.115065
0.115066
0.115067
0.115068
0.115069
0.11507
0.115071
0.115071
0.115072
0.115072
0.115073
0.115073
0.115074
0.115074
0.115075
0.115075
0.115075
0.115076
0.115076
0.115076
0.115076
0.115076
0.115076
0.115077
0.115077
0.115077
0.115077
0.115077
0.115077
0.115076
0.115076
0.115076
0.115076
0.115076
0.115076
0.115075
0.115075
0.115075
0.115074
0.115074
0.115073
0.115073
0.115072
0.115072
0.115071
0.115071
0.11507
0.115069
0.115068
0.115067
0.115066
0.115065
0.115063
0.11506
0.115047
0.114981
0.130695
0.130777
0.130793
0.130797
0.130799
0.130801
0.130802
0.130804
0.130805
0.130806
0.130806
0.130807
0.130808
0.130809
0.130809
0.13081
0.13081
0.130811
0.130811
0.130812
0.130812
0.130812
0.130813
0.130813
0.130813
0.130813
0.130813
0.130814
0.130814
0.130814
0.130814
0.130814
0.130814
0.130813
0.130813
0.130813
0.130813
0.130813
0.130812
0.130812
0.130812
0.130811
0.130811
0.13081
0.13081
0.130809
0.130809
0.130808
0.130807
0.130806
0.130806
0.130805
0.130804
0.130802
0.130801
0.130799
0.130797
0.130793
0.130777
0.130695
0.15087
0.150971
0.15099
0.150995
0.150998
0.151
0.151002
0.151003
0.151004
0.151005
0.151006
0.151007
0.151008
0.151009
0.15101
0.15101
0.151011
0.151011
0.151012
0.151013
0.151013
0.151013
0.151014
0.151014
0.151014
0.151014
0.151015
0.151015
0.151015
0.151015
0.151015
0.151015
0.151015
0.151015
0.151014
0.151014
0.151014
0.151014
0.151013
0.151013
0.151013
0.151012
0.151011
0.151011
0.15101
0.15101
0.151009
0.151008
0.151007
0.151006
0.151005
0.151004
0.151003
0.151002
0.151
0.150998
0.150995
0.15099
0.150971
0.15087
0.175481
0.175603
0.175627
0.175633
0.175636
0.175638
0.17564
0.175642
0.175643
0.175644
0.175645
0.175646
0.175647
0.175648
0.175649
0.17565
0.175651
0.175651
0.175652
0.175652
0.175653
0.175653
0.175654
0.175654
0.175654
0.175655
0.175655
0.175655
0.175655
0.175655
0.175655
0.175655
0.175655
0.175655
0.175655
0.175654
0.175654
0.175654
0.175653
0.175653
0.175652
0.175652
0.175651
0.175651
0.17565
0.175649
0.175648
0.175647
0.175646
0.175645
0.175644
0.175643
0.175642
0.17564
0.175638
0.175636
0.175633
0.175627
0.175603
0.175481
0.204119
0.204263
0.204291
0.204298
0.204301
0.204304
0.204306
0.204308
0.204309
0.20431
0.204312
0.204313
0.204314
0.204315
0.204316
0.204317
0.204317
0.204318
0.204319
0.204319
0.20432
0.20432
0.204321
0.204321
0.204321
0.204322
0.204322
0.204322
0.204322
0.204322
0.204322
0.204322
0.204322
0.204322
0.204322
0.204321
0.204321
0.204321
0.20432
0.20432
0.204319
0.204319
0.204318
0.204317
0.204317
0.204316
0.204315
0.204314
0.204313
0.204312
0.20431
0.204309
0.204308
0.204306
0.204304
0.204301
0.204298
0.204291
0.204263
0.204119
0.235965
0.236131
0.236163
0.236171
0.236175
0.236177
0.236179
0.236181
0.236183
0.236184
0.236185
0.236187
0.236188
0.236189
0.23619
0.236191
0.236191
0.236192
0.236193
0.236193
0.236194
0.236194
0.236195
0.236195
0.236196
0.236196
0.236196
0.236196
0.236196
0.236196
0.236196
0.236196
0.236196
0.236196
0.236196
0.236196
0.236195
0.236195
0.236194
0.236194
0.236193
0.236193
0.236192
0.236191
0.236191
0.23619
0.236189
0.236188
0.236187
0.236185
0.236184
0.236183
0.236181
0.236179
0.236177
0.236175
0.236171
0.236163
0.236131
0.235965
0.269984
0.270171
0.270207
0.270216
0.27022
0.270222
0.270224
0.270226
0.270228
0.270229
0.27023
0.270231
0.270233
0.270234
0.270234
0.270235
0.270236
0.270237
0.270238
0.270238
0.270239
0.270239
0.27024
0.27024
0.27024
0.270241
0.270241
0.270241
0.270241
0.270241
0.270241
0.270241
0.270241
0.270241
0.270241
0.27024
0.27024
0.27024
0.270239
0.270239
0.270238
0.270238
0.270237
0.270236
0.270235
0.270234
0.270234
0.270233
0.270231
0.27023
0.270229
0.270228
0.270226
0.270224
0.270222
0.27022
0.270216
0.270207
0.270171
0.269984
0.305166
0.305371
0.305411
0.305421
0.305425
0.305427
0.305429
0.305431
0.305432
0.305434
0.305435
0.305436
0.305437
0.305438
0.305439
0.30544
0.305441
0.305441
0.305442
0.305442
0.305443
0.305443
0.305444
0.305444
0.305445
0.305445
0.305445
0.305445
0.305445
0.305445
0.305445
0.305445
0.305445
0.305445
0.305445
0.305445
0.305444
0.305444
0.305443
0.305443
0.305442
0.305442
0.305441
0.305441
0.30544
0.305439
0.305438
0.305437
0.305436
0.305435
0.305434
0.305432
0.305431
0.305429
0.305427
0.305425
0.305421
0.305411
0.305371
0.305166
0.340688
0.34091
0.340953
0.340963
0.340967
0.34097
0.340971
0.340973
0.340974
0.340976
0.340977
0.340978
0.340979
0.34098
0.340981
0.340981
0.340982
0.340983
0.340983
0.340984
0.340984
0.340985
0.340985
0.340986
0.340986
0.340986
0.340986
0.340987
0.340987
0.340987
0.340987
0.340987
0.340987
0.340986
0.340986
0.340986
0.340986
0.340985
0.340985
0.340984
0.340984
0.340983
0.340983
0.340982
0.340981
0.340981
0.34098
0.340979
0.340978
0.340977
0.340976
0.340974
0.340973
0.340971
0.34097
0.340967
0.340963
0.340953
0.34091
0.340688
0.375963
0.376199
0.376246
0.376257
0.376261
0.376263
0.376265
0.376266
0.376267
0.376269
0.37627
0.376271
0.376272
0.376272
0.376273
0.376274
0.376275
0.376275
0.376276
0.376276
0.376277
0.376277
0.376277
0.376278
0.376278
0.376278
0.376278
0.376279
0.376279
0.376279
0.376279
0.376279
0.376279
0.376278
0.376278
0.376278
0.376278
0.376277
0.376277
0.376277
0.376276
0.376276
0.376275
0.376275
0.376274
0.376273
0.376272
0.376272
0.376271
0.37627
0.376269
0.376267
0.376266
0.376265
0.376263
0.376261
0.376257
0.376246
0.376199
0.375963
0.410609
0.410858
0.410908
0.410919
0.410923
0.410925
0.410927
0.410928
0.410929
0.41093
0.410931
0.410932
0.410933
0.410934
0.410935
0.410935
0.410936
0.410936
0.410937
0.410937
0.410938
0.410938
0.410939
0.410939
0.410939
0.410939
0.410939
0.41094
0.41094
0.41094
0.41094
0.41094
0.41094
0.410939
0.410939
0.410939
0.410939
0.410939
0.410938
0.410938
0.410937
0.410937
0.410936
0.410936
0.410935
0.410935
0.410934
0.410933
0.410932
0.410931
0.41093
0.410929
0.410928
0.410927
0.410925
0.410923
0.410919
0.410908
0.410858
0.410609
0.444389
0.444649
0.444703
0.444715
0.444718
0.44472
0.444722
0.444723
0.444724
0.444725
0.444726
0.444727
0.444728
0.444728
0.444729
0.444729
0.44473
0.44473
0.444731
0.444731
0.444732
0.444732
0.444732
0.444733
0.444733
0.444733
0.444733
0.444733
0.444733
0.444733
0.444733
0.444733
0.444733
0.444733
0.444733
0.444733
0.444733
0.444732
0.444732
0.444732
0.444731
0.444731
0.44473
0.44473
0.444729
0.444729
0.444728
0.444728
0.444727
0.444726
0.444725
0.444724
0.444723
0.444722
0.44472
0.444718
0.444715
0.444703
0.444649
0.444389
0.47716
0.477431
0.477488
0.477499
0.477503
0.477505
0.477506
0.477507
0.477508
0.477509
0.47751
0.477511
0.477511
0.477512
0.477513
0.477513
0.477514
0.477514
0.477515
0.477515
0.477515
0.477516
0.477516
0.477516
0.477516
0.477516
0.477517
0.477517
0.477517
0.477517
0.477517
0.477517
0.477517
0.477517
0.477516
0.477516
0.477516
0.477516
0.477516
0.477515
0.477515
0.477515
0.477514
0.477514
0.477513
0.477513
0.477512
0.477511
0.477511
0.47751
0.477509
0.477508
0.477507
0.477506
0.477505
0.477503
0.477499
0.477488
0.477431
0.47716
0.508835
0.509114
0.509174
0.509186
0.50919
0.509192
0.509193
0.509194
0.509195
0.509196
0.509196
0.509197
0.509198
0.509198
0.509199
0.509199
0.5092
0.5092
0.5092
0.509201
0.509201
0.509201
0.509202
0.509202
0.509202
0.509202
0.509202
0.509202
0.509202
0.509202
0.509202
0.509202
0.509202
0.509202
0.509202
0.509202
0.509202
0.509202
0.509201
0.509201
0.509201
0.5092
0.5092
0.5092
0.509199
0.509199
0.509198
0.509198
0.509197
0.509196
0.509196
0.509195
0.509194
0.509193
0.509192
0.50919
0.509186
0.509174
0.509114
0.508835
0.539359
0.539646
0.539709
0.539722
0.539725
0.539727
0.539728
0.539729
0.53973
0.53973
0.539731
0.539732
0.539732
0.539733
0.539733
0.539734
0.539734
0.539734
0.539735
0.539735
0.539735
0.539735
0.539736
0.539736
0.539736
0.539736
0.539736
0.539736
0.539736
0.539736
0.539736
0.539736
0.539736
0.539736
0.539736
0.539736
0.539736
0.539736
0.539735
0.539735
0.539735
0.539735
0.539734
0.539734
0.539734
0.539733
0.539733
0.539732
0.539732
0.539731
0.53973
0.53973
0.539729
0.539728
0.539727
0.539725
0.539722
0.539709
0.539646
0.539359
0.5687
0.568993
0.569059
0.569072
0.569076
0.569077
0.569078
0.569079
0.56908
0.56908
0.569081
0.569082
0.569082
0.569082
0.569083
0.569083
0.569084
0.569084
0.569084
0.569085
0.569085
0.569085
0.569085
0.569085
0.569086
0.569086
0.569086
0.569086
0.569086
0.569086
0.569086
0.569086
0.569086
0.569086
0.569086
0.569086
0.569085
0.569085
0.569085
0.569085
0.569085
0.569084
0.569084
0.569084
0.569083
0.569083
0.569082
0.569082
0.569082
0.569081
0.56908
0.56908
0.569079
0.569078
0.569077
0.569076
0.569072
0.569059
0.568993
0.5687
0.596839
0.597137
0.597205
0.597219
0.597222
0.597224
0.597225
0.597225
0.597226
0.597227
0.597227
0.597228
0.597228
0.597228
0.597229
0.597229
0.597229
0.59723
0.59723
0.59723
0.597231
0.597231
0.597231
0.597231
0.597231
0.597231
0.597231
0.597231
0.597231
0.597231
0.597231
0.597231
0.597231
0.597231
0.597231
0.597231
0.597231
0.597231
0.597231
0.597231
0.59723
0.59723
0.59723
0.597229
0.597229
0.597229
0.597228
0.597228
0.597228
0.597227
0.597227
0.597226
0.597225
0.597225
0.597224
0.597222
0.597219
0.597205
0.597137
0.596839
0.623765
0.624067
0.624137
0.624152
0.624155
0.624157
0.624158
0.624158
0.624159
0.624159
0.62416
0.62416
0.624161
0.624161
0.624161
0.624162
0.624162
0.624162
0.624162
0.624163
0.624163
0.624163
0.624163
0.624163
0.624163
0.624164
0.624164
0.624164
0.624164
0.624164
0.624164
0.624164
0.624164
0.624164
0.624164
0.624163
0.624163
0.624163
0.624163
0.624163
0.624163
0.624162
0.624162
0.624162
0.624162
0.624161
0.624161
0.624161
0.62416
0.62416
0.624159
0.624159
0.624158
0.624158
0.624157
0.624155
0.624152
0.624137
0.624067
0.623765
0.649478
0.649782
0.649854
0.64987
0.649873
0.649875
0.649875
0.649876
0.649876
0.649877
0.649877
0.649878
0.649878
0.649878
0.649879
0.649879
0.649879
0.649879
0.64988
0.64988
0.64988
0.64988
0.64988
0.64988
0.64988
0.649881
0.649881
0.649881
0.649881
0.649881
0.649881
0.649881
0.649881
0.649881
0.649881
0.64988
0.64988
0.64988
0.64988
0.64988
0.64988
0.64988
0.649879
0.649879
0.649879
0.649879
0.649878
0.649878
0.649878
0.649877
0.649877
0.649876
0.649876
0.649875
0.649875
0.649873
0.64987
0.649854
0.649782
0.649478
0.67398
0.674286
0.67436
0.674376
0.67438
0.674381
0.674382
0.674382
0.674383
0.674383
0.674384
0.674384
0.674384
0.674384
0.674385
0.674385
0.674385
0.674385
0.674386
0.674386
0.674386
0.674386
0.674386
0.674386
0.674386
0.674386
0.674386
0.674387
0.674387
0.674387
0.674387
0.674387
0.674387
0.674386
0.674386
0.674386
0.674386
0.674386
0.674386
0.674386
0.674386
0.674386
0.674385
0.674385
0.674385
0.674385
0.674384
0.674384
0.674384
0.674384
0.674383
0.674383
0.674382
0.674382
0.674381
0.67438
0.674376
0.67436
0.674286
0.67398
0.697282
0.697588
0.697664
0.697681
0.697685
0.697686
0.697686
0.697687
0.697687
0.697688
0.697688
0.697688
0.697689
0.697689
0.697689
0.697689
0.697689
0.69769
0.69769
0.69769
0.69769
0.69769
0.69769
0.69769
0.69769
0.697691
0.697691
0.697691
0.697691
0.697691
0.697691
0.697691
0.697691
0.697691
0.697691
0.69769
0.69769
0.69769
0.69769
0.69769
0.69769
0.69769
0.69769
0.697689
0.697689
0.697689
0.697689
0.697689
0.697688
0.697688
0.697688
0.697687
0.697687
0.697686
0.697686
0.697685
0.697681
0.697664
0.697588
0.697282
0.719397
0.719703
0.71978
0.719797
0.719801
0.719802
0.719803
0.719803
0.719804
0.719804
0.719804
0.719805
0.719805
0.719805
0.719805
0.719805
0.719806
0.719806
0.719806
0.719806
0.719806
0.719806
0.719806
0.719806
0.719807
0.719807
0.719807
0.719807
0.719807
0.719807
0.719807
0.719807
0.719807
0.719807
0.719807
0.719807
0.719806
0.719806
0.719806
0.719806
0.719806
0.719806
0.719806
0.719806
0.719805
0.719805
0.719805
0.719805
0.719805
0.719804
0.719804
0.719804
0.719803
0.719803
0.719802
0.719801
0.719797
0.71978
0.719703
0.719397
0.740344
0.740647
0.740726
0.740744
0.740748
0.740749
0.740749
0.74075
0.74075
0.74075
0.740751
0.740751
0.740751
0.740751
0.740751
0.740752
0.740752
0.740752
0.740752
0.740752
0.740752
0.740752
0.740752
0.740752
0.740752
0.740753
0.740753
0.740753
0.740753
0.740753
0.740753
0.740753
0.740753
0.740753
0.740753
0.740752
0.740752
0.740752
0.740752
0.740752
0.740752
0.740752
0.740752
0.740752
0.740752
0.740751
0.740751
0.740751
0.740751
0.740751
0.74075
0.74075
0.74075
0.740749
0.740749
0.740748
0.740744
0.740726
0.740647
0.740344
0.760143
0.760443
0.760523
0.760541
0.760545
0.760546
0.760547
0.760547
0.760548
0.760548
0.760548
0.760548
0.760548
0.760549
0.760549
0.760549
0.760549
0.760549
0.760549
0.760549
0.760549
0.76055
0.76055
0.76055
0.76055
0.76055
0.76055
0.76055
0.76055
0.76055
0.76055
0.76055
0.76055
0.76055
0.76055
0.76055
0.76055
0.76055
0.76055
0.760549
0.760549
0.760549
0.760549
0.760549
0.760549
0.760549
0.760549
0.760548
0.760548
0.760548
0.760548
0.760548
0.760547
0.760547
0.760546
0.760545
0.760541
0.760523
0.760443
0.760143
0.778818
0.779115
0.779196
0.779215
0.779219
0.77922
0.779221
0.779221
0.779221
0.779221
0.779222
0.779222
0.779222
0.779222
0.779222
0.779222
0.779222
0.779223
0.779223
0.779223
0.779223
0.779223
0.779223
0.779223
0.779223
0.779223
0.779223
0.779223
0.779223
0.779223
0.779223
0.779223
0.779223
0.779223
0.779223
0.779223
0.779223
0.779223
0.779223
0.779223
0.779223
0.779223
0.779223
0.779222
0.779222
0.779222
0.779222
0.779222
0.779222
0.779222
0.779221
0.779221
0.779221
0.779221
0.77922
0.779219
0.779215
0.779196
0.779115
0.778818
0.796399
0.796691
0.796773
0.796792
0.796796
0.796797
0.796798
0.796798
0.796798
0.796799
0.796799
0.796799
0.796799
0.796799
0.796799
0.796799
0.796799
0.7968
0.7968
0.7968
0.7968
0.7968
0.7968
0.7968
0.7968
0.7968
0.7968
0.7968
0.7968
0.7968
0.7968
0.7968
0.7968
0.7968
0.7968
0.7968
0.7968
0.7968
0.7968
0.7968
0.7968
0.7968
0.7968
0.796799
0.796799
0.796799
0.796799
0.796799
0.796799
0.796799
0.796799
0.796798
0.796798
0.796798
0.796797
0.796796
0.796792
0.796773
0.796691
0.796399
0.812915
0.813201
0.813283
0.813303
0.813307
0.813309
0.813309
0.813309
0.813309
0.81331
0.81331
0.81331
0.81331
0.81331
0.81331
0.81331
0.81331
0.81331
0.813311
0.813311
0.813311
0.813311
0.813311
0.813311
0.813311
0.813311
0.813311
0.813311
0.813311
0.813311
0.813311
0.813311
0.813311
0.813311
0.813311
0.813311
0.813311
0.813311
0.813311
0.813311
0.813311
0.813311
0.81331
0.81331
0.81331
0.81331
0.81331
0.81331
0.81331
0.81331
0.81331
0.813309
0.813309
0.813309
0.813309
0.813307
0.813303
0.813283
0.813201
0.812915
0.828398
0.828678
0.82876
0.82878
0.828785
0.828786
0.828786
0.828787
0.828787
0.828787
0.828787
0.828787
0.828787
0.828787
0.828788
0.828788
0.828788
0.828788
0.828788
0.828788
0.828788
0.828788
0.828788
0.828788
0.828788
0.828788
0.828788
0.828788
0.828788
0.828788
0.828788
0.828788
0.828788
0.828788
0.828788
0.828788
0.828788
0.828788
0.828788
0.828788
0.828788
0.828788
0.828788
0.828788
0.828788
0.828788
0.828787
0.828787
0.828787
0.828787
0.828787
0.828787
0.828787
0.828786
0.828786
0.828785
0.82878
0.82876
0.828678
0.828398
0.842882
0.843156
0.843238
0.843258
0.843263
0.843264
0.843265
0.843265
0.843265
0.843265
0.843265
0.843265
0.843266
0.843266
0.843266
0.843266
0.843266
0.843266
0.843266
0.843266
0.843266
0.843266
0.843266
0.843266
0.843266
0.843266
0.843266
0.843266
0.843266
0.843266
0.843266
0.843266
0.843266
0.843266
0.843266
0.843266
0.843266
0.843266
0.843266
0.843266
0.843266
0.843266
0.843266
0.843266
0.843266
0.843266
0.843266
0.843266
0.843265
0.843265
0.843265
0.843265
0.843265
0.843265
0.843264
0.843263
0.843258
0.843238
0.843156
0.842882
0.856405
0.856671
0.856753
0.856774
0.856778
0.85678
0.85678
0.85678
0.85678
0.85678
0.856781
0.856781
0.856781
0.856781
0.856781
0.856781
0.856781
0.856781
0.856781
0.856781
0.856781
0.856781
0.856781
0.856781
0.856781
0.856781
0.856781
0.856781
0.856781
0.856781
0.856781
0.856781
0.856781
0.856781
0.856781
0.856781
0.856781
0.856781
0.856781
0.856781
0.856781
0.856781
0.856781
0.856781
0.856781
0.856781
0.856781
0.856781
0.856781
0.856781
0.85678
0.85678
0.85678
0.85678
0.85678
0.856778
0.856774
0.856753
0.856671
0.856405
0.869003
0.869261
0.869342
0.869363
0.869368
0.869369
0.86937
0.86937
0.86937
0.86937
0.86937
0.86937
0.869371
0.869371
0.869371
0.869371
0.869371
0.869371
0.869371
0.869371
0.869371
0.869371
0.869371
0.869371
0.869371
0.869371
0.869371
0.869371
0.869371
0.869371
0.869371
0.869371
0.869371
0.869371
0.869371
0.869371
0.869371
0.869371
0.869371
0.869371
0.869371
0.869371
0.869371
0.869371
0.869371
0.869371
0.869371
0.869371
0.86937
0.86937
0.86937
0.86937
0.86937
0.86937
0.869369
0.869368
0.869363
0.869342
0.869261
0.869003
0.880715
0.880964
0.881045
0.881066
0.881071
0.881073
0.881073
0.881073
0.881073
0.881073
0.881073
0.881073
0.881074
0.881074
0.881074
0.881074
0.881074
0.881074
0.881074
0.881074
0.881074
0.881074
0.881074
0.881074
0.881074
0.881074
0.881074
0.881074
0.881074
0.881074
0.881074
0.881074
0.881074
0.881074
0.881074
0.881074
0.881074
0.881074
0.881074
0.881074
0.881074
0.881074
0.881074
0.881074
0.881074
0.881074
0.881074
0.881074
0.881073
0.881073
0.881073
0.881073
0.881073
0.881073
0.881073
0.881071
0.881066
0.881045
0.880964
0.880715
0.89158
0.891821
0.8919
0.891922
0.891927
0.891928
0.891929
0.891929
0.891929
0.891929
0.891929
0.891929
0.891929
0.891929
0.891929
0.891929
0.891929
0.891929
0.891929
0.89193
0.89193
0.89193
0.89193
0.89193
0.89193
0.89193
0.89193
0.89193
0.89193
0.89193
0.89193
0.89193
0.89193
0.89193
0.89193
0.89193
0.89193
0.89193
0.89193
0.89193
0.89193
0.891929
0.891929
0.891929
0.891929
0.891929
0.891929
0.891929
0.891929
0.891929
0.891929
0.891929
0.891929
0.891929
0.891928
0.891927
0.891922
0.8919
0.891821
0.89158
0.901639
0.90187
0.901948
0.90197
0.901975
0.901977
0.901977
0.901977
0.901977
0.901977
0.901977
0.901978
0.901978
0.901978
0.901978
0.901978
0.901978
0.901978
0.901978
0.901978
0.901978
0.901978
0.901978
0.901978
0.901978
0.901978
0.901978
0.901978
0.901978
0.901978
0.901978
0.901978
0.901978
0.901978
0.901978
0.901978
0.901978
0.901978
0.901978
0.901978
0.901978
0.901978
0.901978
0.901978
0.901978
0.901978
0.901978
0.901978
0.901978
0.901977
0.901977
0.901977
0.901977
0.901977
0.901977
0.901975
0.90197
0.901948
0.90187
0.901639
0.910931
0.911153
0.911229
0.911251
0.911257
0.911258
0.911258
0.911259
0.911259
0.911259
0.911259
0.911259
0.911259
0.911259
0.911259
0.911259
0.911259
0.911259
0.911259
0.911259
0.911259
0.911259
0.911259
0.911259
0.911259
0.911259
0.911259
0.911259
0.911259
0.911259
0.911259
0.911259
0.911259
0.911259
0.911259
0.911259
0.911259
0.911259
0.911259
0.911259
0.911259
0.911259
0.911259
0.911259
0.911259
0.911259
0.911259
0.911259
0.911259
0.911259
0.911259
0.911259
0.911259
0.911258
0.911258
0.911257
0.911251
0.911229
0.911153
0.910931
0.919497
0.919708
0.919783
0.919805
0.919811
0.919812
0.919813
0.919813
0.919813
0.919813
0.919813
0.919813
0.919813
0.919813
0.919813
0.919813
0.919813
0.919813
0.919813
0.919813
0.919813
0.919813
0.919813
0.919813
0.919813
0.919813
0.919813
0.919813
0.919813
0.919813
0.919813
0.919813
0.919813
0.919813
0.919813
0.919813
0.919813
0.919813
0.919813
0.919813
0.919813
0.919813
0.919813
0.919813
0.919813
0.919813
0.919813
0.919813
0.919813
0.919813
0.919813
0.919813
0.919813
0.919813
0.919812
0.919811
0.919805
0.919783
0.919708
0.919497
0.927376
0.927578
0.927651
0.927673
0.927678
0.92768
0.92768
0.92768
0.927681
0.927681
0.927681
0.927681
0.927681
0.927681
0.927681
0.927681
0.927681
0.927681
0.927681
0.927681
0.927681
0.927681
0.927681
0.927681
0.927681
0.927681
0.927681
0.927681
0.927681
0.927681
0.927681
0.927681
0.927681
0.927681
0.927681
0.927681
0.927681
0.927681
0.927681
0.927681
0.927681
0.927681
0.927681
0.927681
0.927681
0.927681
0.927681
0.927681
0.927681
0.927681
0.927681
0.927681
0.92768
0.92768
0.92768
0.927678
0.927673
0.927651
0.927578
0.927376
0.934608
0.9348
0.934871
0.934893
0.934899
0.9349
0.934901
0.934901
0.934901
0.934901
0.934901
0.934901
0.934901
0.934901
0.934901
0.934901
0.934901
0.934901
0.934901
0.934901
0.934901
0.934901
0.934901
0.934901
0.934901
0.934901
0.934901
0.934901
0.934901
0.934901
0.934901
0.934901
0.934901
0.934901
0.934901
0.934901
0.934901
0.934901
0.934901
0.934901
0.934901
0.934901
0.934901
0.934901
0.934901
0.934901
0.934901
0.934901
0.934901
0.934901
0.934901
0.934901
0.934901
0.934901
0.9349
0.934899
0.934893
0.934871
0.9348
0.934608
0.941233
0.941414
0.941483
0.941505
0.941511
0.941512
0.941513
0.941513
0.941513
0.941513
0.941513
0.941513
0.941513
0.941513
0.941513
0.941513
0.941513
0.941513
0.941513
0.941513
0.941513
0.941513
0.941513
0.941513
0.941513
0.941513
0.941513
0.941513
0.941513
0.941513
0.941513
0.941513
0.941513
0.941513
0.941513
0.941513
0.941513
0.941513
0.941513
0.941513
0.941513
0.941513
0.941513
0.941513
0.941513
0.941513
0.941513
0.941513
0.941513
0.941513
0.941513
0.941513
0.941513
0.941513
0.941512
0.941511
0.941505
0.941483
0.941414
0.941233
0.947287
0.947459
0.947525
0.947547
0.947553
0.947555
0.947555
0.947555
0.947555
0.947555
0.947555
0.947555
0.947555
0.947555
0.947555
0.947555
0.947555
0.947555
0.947555
0.947555
0.947555
0.947555
0.947555
0.947555
0.947555
0.947555
0.947555
0.947555
0.947555
0.947555
0.947555
0.947555
0.947555
0.947555
0.947555
0.947555
0.947555
0.947555
0.947555
0.947555
0.947555
0.947555
0.947555
0.947555
0.947555
0.947555
0.947555
0.947555
0.947555
0.947555
0.947555
0.947555
0.947555
0.947555
0.947555
0.947553
0.947547
0.947525
0.947459
0.947287
0.952809
0.952971
0.953035
0.953056
0.953062
0.953064
0.953064
0.953065
0.953065
0.953065
0.953065
0.953065
0.953065
0.953065
0.953065
0.953065
0.953065
0.953065
0.953065
0.953065
0.953065
0.953065
0.953065
0.953065
0.953065
0.953065
0.953065
0.953065
0.953065
0.953065
0.953065
0.953065
0.953065
0.953065
0.953065
0.953065
0.953065
0.953065
0.953065
0.953065
0.953065
0.953065
0.953065
0.953065
0.953065
0.953065
0.953065
0.953065
0.953065
0.953065
0.953065
0.953065
0.953065
0.953064
0.953064
0.953062
0.953056
0.953035
0.952971
0.952809
0.957834
0.957986
0.958048
0.958068
0.958075
0.958077
0.958077
0.958077
0.958077
0.958077
0.958077
0.958077
0.958077
0.958077
0.958077
0.958077
0.958077
0.958077
0.958077
0.958077
0.958077
0.958077
0.958077
0.958077
0.958077
0.958077
0.958077
0.958077
0.958077
0.958077
0.958077
0.958077
0.958077
0.958077
0.958077
0.958077
0.958077
0.958077
0.958077
0.958077
0.958077
0.958077
0.958077
0.958077
0.958077
0.958077
0.958077
0.958077
0.958077
0.958077
0.958077
0.958077
0.958077
0.958077
0.958077
0.958075
0.958068
0.958048
0.957986
0.957834
0.962398
0.96254
0.962599
0.962619
0.962626
0.962627
0.962628
0.962628
0.962628
0.962628
0.962628
0.962628
0.962628
0.962628
0.962628
0.962628
0.962628
0.962628
0.962628
0.962628
0.962628
0.962628
0.962628
0.962628
0.962628
0.962628
0.962628
0.962628
0.962628
0.962628
0.962628
0.962628
0.962628
0.962628
0.962628
0.962628
0.962628
0.962628
0.962628
0.962628
0.962628
0.962628
0.962628
0.962628
0.962628
0.962628
0.962628
0.962628
0.962628
0.962628
0.962628
0.962628
0.962628
0.962628
0.962627
0.962626
0.962619
0.962599
0.96254
0.962398
0.966533
0.966666
0.966722
0.966742
0.966748
0.96675
0.966751
0.966751
0.966751
0.966751
0.966751
0.966751
0.966751
0.966751
0.966751
0.966751
0.966751
0.966751
0.966751
0.966751
0.966751
0.966751
0.966751
0.966751
0.966751
0.966751
0.966751
0.966751
0.966751
0.966751
0.966751
0.966751
0.966751
0.966751
0.966751
0.966751
0.966751
0.966751
0.966751
0.966751
0.966751
0.966751
0.966751
0.966751
0.966751
0.966751
0.966751
0.966751
0.966751
0.966751
0.966751
0.966751
0.966751
0.966751
0.96675
0.966748
0.966742
0.966722
0.966666
0.966533
0.970272
0.970396
0.970449
0.970469
0.970475
0.970477
0.970477
0.970477
0.970478
0.970478
0.970478
0.970478
0.970478
0.970478
0.970478
0.970478
0.970478
0.970478
0.970478
0.970478
0.970478
0.970478
0.970478
0.970478
0.970478
0.970478
0.970478
0.970478
0.970478
0.970478
0.970478
0.970478
0.970478
0.970478
0.970478
0.970478
0.970478
0.970478
0.970478
0.970478
0.970478
0.970478
0.970478
0.970478
0.970478
0.970478
0.970478
0.970478
0.970478
0.970478
0.970478
0.970478
0.970477
0.970477
0.970477
0.970475
0.970469
0.970449
0.970396
0.970272
0.973645
0.97376
0.973811
0.97383
0.973836
0.973838
0.973839
0.973839
0.973839
0.973839
0.973839
0.973839
0.973839
0.973839
0.973839
0.973839
0.973839
0.973839
0.973839
0.973839
0.973839
0.973839
0.973839
0.973839
0.973839
0.973839
0.973839
0.973839
0.973839
0.973839
0.973839
0.973839
0.973839
0.973839
0.973839
0.973839
0.973839
0.973839
0.973839
0.973839
0.973839
0.973839
0.973839
0.973839
0.973839
0.973839
0.973839
0.973839
0.973839
0.973839
0.973839
0.973839
0.973839
0.973839
0.973838
0.973836
0.97383
0.973811
0.97376
0.973645
0.976682
0.976789
0.976837
0.976855
0.976862
0.976863
0.976864
0.976864
0.976864
0.976864
0.976864
0.976864
0.976864
0.976864
0.976864
0.976864
0.976864
0.976864
0.976864
0.976864
0.976864
0.976864
0.976864
0.976864
0.976864
0.976864
0.976864
0.976864
0.976864
0.976864
0.976864
0.976864
0.976864
0.976864
0.976864
0.976864
0.976864
0.976864
0.976864
0.976864
0.976864
0.976864
0.976864
0.976864
0.976864
0.976864
0.976864
0.976864
0.976864
0.976864
0.976864
0.976864
0.976864
0.976864
0.976863
0.976862
0.976855
0.976837
0.976789
0.976682
0.979411
0.979509
0.979555
0.979572
0.979578
0.97958
0.979581
0.979581
0.979581
0.979581
0.979581
0.979581
0.979581
0.979581
0.979581
0.979581
0.979581
0.979581
0.979581
0.979581
0.979581
0.979581
0.979581
0.979581
0.979581
0.979581
0.979581
0.979581
0.979581
0.979581
0.979581
0.979581
0.979581
0.979581
0.979581
0.979581
0.979581
0.979581
0.979581
0.979581
0.979581
0.979581
0.979581
0.979581
0.979581
0.979581
0.979581
0.979581
0.979581
0.979581
0.979581
0.979581
0.979581
0.979581
0.97958
0.979578
0.979572
0.979555
0.979509
0.979411
0.981857
0.981948
0.98199
0.982007
0.982013
0.982015
0.982016
0.982016
0.982016
0.982016
0.982016
0.982016
0.982016
0.982016
0.982016
0.982016
0.982016
0.982016
0.982016
0.982016
0.982016
0.982016
0.982016
0.982016
0.982016
0.982016
0.982016
0.982016
0.982016
0.982016
0.982016
0.982016
0.982016
0.982016
0.982016
0.982016
0.982016
0.982016
0.982016
0.982016
0.982016
0.982016
0.982016
0.982016
0.982016
0.982016
0.982016
0.982016
0.982016
0.982016
0.982016
0.982016
0.982016
0.982016
0.982015
0.982013
0.982007
0.98199
0.981948
0.981857
0.984045
0.984128
0.984168
0.984184
0.98419
0.984192
0.984193
0.984193
0.984193
0.984193
0.984193
0.984193
0.984193
0.984193
0.984193
0.984193
0.984193
0.984193
0.984193
0.984193
0.984193
0.984193
0.984193
0.984193
0.984193
0.984193
0.984193
0.984193
0.984193
0.984193