/*--------------------------------*- C++ -*----------------------------------*\
| =========                 |                                                 |
| \\      /  F ield         | foam-extend: Open Source CFD                    |
|  \\    /   O peration     | Version:     4.0                                |
|   \\  /    A nd           | Web:         http://www.foam-extend.org         |
|    \\/     M anipulation  |                                                 |
\*---------------------------------------------------------------------------*/
FoamFile
{
    version     2.0;
    format      ascii;
    class       volScalarField;
    location    "190";
    object      psiE;
}
// * * * * * * * * * * * * * * * * * * * * * * * * * * * * * * * * * * * * * //

dimensions      [0 0 0 0 0 0 0];

internalField   nonuniform List<scalar> 
6960
(
0.356909
0.356927
0.356929
0.356929
0.356928
0.356927
0.356927
0.356927
0.356927
0.356928
0.356928
0.356929
0.356929
0.35693
0.35693
0.356931
0.356932
0.356932
0.356933
0.356933
0.356934
0.356934
0.356935
0.356935
0.356935
0.356936
0.356936
0.356936
0.356936
0.356936
0.356936
0.356936
0.356936
0.356936
0.356936
0.356935
0.356935
0.356935
0.356934
0.356934
0.356933
0.356933
0.356932
0.356932
0.356931
0.35693
0.35693
0.356929
0.356929
0.356928
0.356928
0.356927
0.356927
0.356927
0.356927
0.356928
0.356929
0.356929
0.356927
0.356909
0.909721
0.909784
0.90979
0.909787
0.909784
0.909781
0.909779
0.909778
0.909778
0.909778
0.909778
0.909779
0.90978
0.909781
0.909782
0.909784
0.909785
0.909786
0.909788
0.909789
0.90979
0.909791
0.909792
0.909793
0.909793
0.909794
0.909794
0.909795
0.909795
0.909795
0.909795
0.909795
0.909795
0.909794
0.909794
0.909793
0.909793
0.909792
0.909791
0.90979
0.909789
0.909788
0.909786
0.909785
0.909784
0.909782
0.909781
0.90978
0.909779
0.909778
0.909778
0.909778
0.909778
0.909779
0.909781
0.909784
0.909787
0.90979
0.909784
0.909721
1.39886
1.39896
1.39897
1.39897
1.39896
1.39895
1.39895
1.39894
1.39894
1.39894
1.39894
1.39894
1.39894
1.39895
1.39895
1.39895
1.39895
1.39895
1.39895
1.39896
1.39896
1.39896
1.39896
1.39896
1.39896
1.39896
1.39896
1.39896
1.39896
1.39896
1.39896
1.39896
1.39896
1.39896
1.39896
1.39896
1.39896
1.39896
1.39896
1.39896
1.39896
1.39895
1.39895
1.39895
1.39895
1.39895
1.39895
1.39894
1.39894
1.39894
1.39894
1.39894
1.39894
1.39895
1.39895
1.39896
1.39897
1.39897
1.39896
1.39886
1.84163
1.84176
1.84176
1.84175
1.84174
1.84173
1.84172
1.84172
1.84171
1.84171
1.84171
1.84171
1.84171
1.84171
1.84171
1.84172
1.84172
1.84172
1.84172
1.84172
1.84173
1.84173
1.84173
1.84173
1.84173
1.84173
1.84173
1.84173
1.84173
1.84173
1.84173
1.84173
1.84173
1.84173
1.84173
1.84173
1.84173
1.84173
1.84173
1.84173
1.84172
1.84172
1.84172
1.84172
1.84172
1.84171
1.84171
1.84171
1.84171
1.84171
1.84171
1.84171
1.84172
1.84172
1.84173
1.84174
1.84175
1.84176
1.84176
1.84163
2.23883
2.23896
2.23896
2.23894
2.23892
2.23891
2.2389
2.23889
2.23889
2.23888
2.23888
2.23888
2.23888
2.23888
2.23888
2.23888
2.23889
2.23889
2.23889
2.23889
2.2389
2.2389
2.2389
2.2389
2.2389
2.2389
2.2389
2.2389
2.2389
2.2389
2.2389
2.2389
2.2389
2.2389
2.2389
2.2389
2.2389
2.2389
2.2389
2.2389
2.23889
2.23889
2.23889
2.23889
2.23888
2.23888
2.23888
2.23888
2.23888
2.23888
2.23888
2.23889
2.23889
2.2389
2.23891
2.23892
2.23894
2.23896
2.23896
2.23883
2.58737
2.58748
2.58747
2.58745
2.58742
2.5874
2.58739
2.58738
2.58737
2.58737
2.58737
2.58736
2.58736
2.58737
2.58737
2.58737
2.58737
2.58737
2.58738
2.58738
2.58738
2.58738
2.58738
2.58739
2.58739
2.58739
2.58739
2.58739
2.58739
2.58739
2.58739
2.58739
2.58739
2.58739
2.58739
2.58739
2.58739
2.58738
2.58738
2.58738
2.58738
2.58738
2.58737
2.58737
2.58737
2.58737
2.58737
2.58736
2.58736
2.58737
2.58737
2.58737
2.58738
2.58739
2.5874
2.58742
2.58745
2.58747
2.58748
2.58737
2.88499
2.88506
2.88504
2.88501
2.88498
2.88495
2.88494
2.88492
2.88491
2.88491
2.88491
2.8849
2.8849
2.8849
2.88491
2.88491
2.88491
2.88491
2.88492
2.88492
2.88492
2.88492
2.88493
2.88493
2.88493
2.88493
2.88493
2.88493
2.88493
2.88493
2.88493
2.88493
2.88493
2.88493
2.88493
2.88493
2.88493
2.88493
2.88492
2.88492
2.88492
2.88492
2.88491
2.88491
2.88491
2.88491
2.8849
2.8849
2.8849
2.88491
2.88491
2.88491
2.88492
2.88494
2.88495
2.88498
2.88501
2.88504
2.88506
2.88499
3.13255
3.13257
3.13254
3.1325
3.13246
3.13244
3.13242
3.1324
3.13239
3.13239
3.13238
3.13238
3.13238
3.13238
3.13238
3.13239
3.13239
3.13239
3.1324
3.1324
3.1324
3.13241
3.13241
3.13241
3.13241
3.13241
3.13242
3.13242
3.13242
3.13242
3.13242
3.13242
3.13242
3.13242
3.13241
3.13241
3.13241
3.13241
3.13241
3.1324
3.1324
3.1324
3.13239
3.13239
3.13239
3.13238
3.13238
3.13238
3.13238
3.13238
3.13239
3.13239
3.1324
3.13242
3.13244
3.13246
3.1325
3.13254
3.13257
3.13255
3.33466
3.33464
3.33459
3.33454
3.3345
3.33447
3.33445
3.33444
3.33443
3.33442
3.33442
3.33442
3.33442
3.33442
3.33442
3.33443
3.33443
3.33443
3.33444
3.33444
3.33445
3.33445
3.33445
3.33446
3.33446
3.33446
3.33446
3.33447
3.33447
3.33447
3.33447
3.33447
3.33447
3.33446
3.33446
3.33446
3.33446
3.33445
3.33445
3.33445
3.33444
3.33444
3.33443
3.33443
3.33443
3.33442
3.33442
3.33442
3.33442
3.33442
3.33442
3.33443
3.33444
3.33445
3.33447
3.3345
3.33454
3.33459
3.33464
3.33466
3.49868
3.49861
3.49855
3.4985
3.49846
3.49843
3.4984
3.49839
3.49838
3.49837
3.49837
3.49837
3.49837
3.49838
3.49838
3.49839
3.49839
3.4984
3.4984
3.49841
3.49842
3.49842
3.49842
3.49843
3.49843
3.49843
3.49844
3.49844
3.49844
3.49844
3.49844
3.49844
3.49844
3.49844
3.49843
3.49843
3.49843
3.49842
3.49842
3.49842
3.49841
3.4984
3.4984
3.49839
3.49839
3.49838
3.49838
3.49837
3.49837
3.49837
3.49837
3.49838
3.49839
3.4984
3.49843
3.49846
3.4985
3.49855
3.49861
3.49868
3.63286
3.63276
3.63269
3.63263
3.63259
3.63256
3.63254
3.63252
3.63251
3.63251
3.63251
3.63251
3.63252
3.63252
3.63253
3.63254
3.63254
3.63255
3.63256
3.63257
3.63257
3.63258
3.63258
3.63259
3.63259
3.6326
3.6326
3.6326
3.6326
3.6326
3.6326
3.6326
3.6326
3.6326
3.6326
3.63259
3.63259
3.63258
3.63258
3.63257
3.63257
3.63256
3.63255
3.63254
3.63254
3.63253
3.63252
3.63252
3.63251
3.63251
3.63251
3.63251
3.63252
3.63254
3.63256
3.63259
3.63263
3.63269
3.63276
3.63286
3.74476
3.74464
3.74456
3.7445
3.74446
3.74443
3.74441
3.74439
3.74439
3.74438
3.74438
3.74439
3.7444
3.7444
3.74441
3.74442
3.74443
3.74444
3.74445
3.74446
3.74447
3.74448
3.74448
3.74449
3.7445
3.7445
3.7445
3.74451
3.74451
3.74451
3.74451
3.74451
3.74451
3.7445
3.7445
3.7445
3.74449
3.74448
3.74448
3.74447
3.74446
3.74445
3.74444
3.74443
3.74442
3.74441
3.7444
3.7444
3.74439
3.74438
3.74438
3.74439
3.74439
3.74441
3.74443
3.74446
3.7445
3.74456
3.74464
3.74476
3.8404
3.84026
3.84018
3.84012
3.84007
3.84004
3.84002
3.84001
3.84001
3.84001
3.84001
3.84002
3.84003
3.84004
3.84005
3.84006
3.84007
3.84009
3.8401
3.84011
3.84012
3.84013
3.84014
3.84015
3.84015
3.84016
3.84016
3.84017
3.84017
3.84017
3.84017
3.84017
3.84017
3.84016
3.84016
3.84015
3.84015
3.84014
3.84013
3.84012
3.84011
3.8401
3.84009
3.84007
3.84006
3.84005
3.84004
3.84003
3.84002
3.84001
3.84001
3.84001
3.84001
3.84002
3.84004
3.84007
3.84012
3.84018
3.84026
3.8404
3.92416
3.92401
3.92392
3.92386
3.92382
3.92379
3.92377
3.92376
3.92376
3.92376
3.92377
3.92378
3.92379
3.92381
3.92382
3.92384
3.92385
3.92387
3.92388
3.9239
3.92391
3.92392
3.92393
3.92394
3.92395
3.92395
3.92396
3.92396
3.92397
3.92397
3.92397
3.92397
3.92396
3.92396
3.92395
3.92395
3.92394
3.92393
3.92392
3.92391
3.9239
3.92388
3.92387
3.92385
3.92384
3.92382
3.92381
3.92379
3.92378
3.92377
3.92376
3.92376
3.92376
3.92377
3.92379
3.92382
3.92386
3.92392
3.92401
3.92416
3.9991
3.99895
3.99886
3.9988
3.99876
3.99873
3.99871
3.9987
3.9987
3.99871
3.99872
3.99873
3.99875
3.99877
3.99878
3.9988
3.99882
3.99884
3.99886
3.99887
3.99889
3.9989
3.99891
3.99892
3.99893
3.99894
3.99895
3.99895
3.99895
3.99896
3.99896
3.99895
3.99895
3.99895
3.99894
3.99893
3.99892
3.99891
3.9989
3.99889
3.99887
3.99886
3.99884
3.99882
3.9988
3.99878
3.99877
3.99875
3.99873
3.99872
3.99871
3.9987
3.9987
3.99871
3.99873
3.99876
3.9988
3.99886
3.99895
3.9991
4.06733
4.06716
4.06707
4.06702
4.06697
4.06695
4.06693
4.06693
4.06693
4.06694
4.06695
4.06697
4.06699
4.06701
4.06703
4.06705
4.06707
4.0671
4.06712
4.06713
4.06715
4.06717
4.06718
4.06719
4.0672
4.06721
4.06722
4.06723
4.06723
4.06723
4.06723
4.06723
4.06723
4.06722
4.06721
4.0672
4.06719
4.06718
4.06717
4.06715
4.06713
4.06712
4.0671
4.06707
4.06705
4.06703
4.06701
4.06699
4.06697
4.06695
4.06694
4.06693
4.06693
4.06693
4.06695
4.06697
4.06702
4.06707
4.06716
4.06733
4.13029
4.13013
4.13004
4.12998
4.12994
4.12991
4.1299
4.1299
4.12991
4.12992
4.12994
4.12996
4.12998
4.13
4.13003
4.13005
4.13008
4.1301
4.13012
4.13015
4.13017
4.13018
4.1302
4.13021
4.13023
4.13024
4.13025
4.13025
4.13026
4.13026
4.13026
4.13026
4.13025
4.13025
4.13024
4.13023
4.13021
4.1302
4.13018
4.13017
4.13015
4.13012
4.1301
4.13008
4.13005
4.13003
4.13
4.12998
4.12996
4.12994
4.12992
4.12991
4.1299
4.1299
4.12991
4.12994
4.12998
4.13004
4.13013
4.13029
4.18905
4.18889
4.1888
4.18874
4.1887
4.18868
4.18867
4.18867
4.18868
4.18869
4.18871
4.18874
4.18877
4.18879
4.18882
4.18885
4.18888
4.18891
4.18893
4.18896
4.18898
4.189
4.18902
4.18903
4.18905
4.18906
4.18907
4.18908
4.18908
4.18908
4.18908
4.18908
4.18908
4.18907
4.18906
4.18905
4.18903
4.18902
4.189
4.18898
4.18896
4.18893
4.18891
4.18888
4.18885
4.18882
4.18879
4.18877
4.18874
4.18871
4.18869
4.18868
4.18867
4.18867
4.18868
4.1887
4.18874
4.1888
4.18889
4.18905
4.24439
4.24422
4.24413
4.24407
4.24404
4.24402
4.24401
4.24402
4.24403
4.24405
4.24407
4.2441
4.24413
4.24416
4.2442
4.24423
4.24426
4.24429
4.24432
4.24435
4.24437
4.24439
4.24442
4.24443
4.24445
4.24446
4.24447
4.24448
4.24448
4.24449
4.24449
4.24448
4.24448
4.24447
4.24446
4.24445
4.24443
4.24442
4.24439
4.24437
4.24435
4.24432
4.24429
4.24426
4.24423
4.2442
4.24416
4.24413
4.2441
4.24407
4.24405
4.24403
4.24402
4.24401
4.24402
4.24404
4.24407
4.24413
4.24422
4.24439
4.2969
4.29674
4.29664
4.29659
4.29655
4.29654
4.29653
4.29654
4.29656
4.29658
4.29661
4.29664
4.29667
4.29671
4.29675
4.29678
4.29682
4.29685
4.29688
4.29691
4.29694
4.29697
4.29699
4.29701
4.29703
4.29704
4.29705
4.29706
4.29707
4.29707
4.29707
4.29707
4.29706
4.29705
4.29704
4.29703
4.29701
4.29699
4.29697
4.29694
4.29691
4.29688
4.29685
4.29682
4.29678
4.29675
4.29671
4.29667
4.29664
4.29661
4.29658
4.29656
4.29654
4.29653
4.29654
4.29655
4.29659
4.29664
4.29674
4.2969
4.34705
4.3469
4.3468
4.34675
4.34672
4.3467
4.3467
4.34671
4.34673
4.34676
4.34679
4.34683
4.34687
4.34691
4.34695
4.34699
4.34703
4.34706
4.3471
4.34713
4.34716
4.34719
4.34722
4.34724
4.34726
4.34727
4.34729
4.3473
4.3473
4.34731
4.34731
4.3473
4.3473
4.34729
4.34727
4.34726
4.34724
4.34722
4.34719
4.34716
4.34713
4.3471
4.34706
4.34703
4.34699
4.34695
4.34691
4.34687
4.34683
4.34679
4.34676
4.34673
4.34671
4.3467
4.3467
4.34672
4.34675
4.3468
4.3469
4.34705
4.39524
4.39508
4.39499
4.39494
4.39491
4.3949
4.3949
4.39491
4.39494
4.39497
4.395
4.39505
4.39509
4.39513
4.39518
4.39522
4.39527
4.39531
4.39535
4.39538
4.39542
4.39545
4.39548
4.3955
4.39552
4.39554
4.39555
4.39556
4.39557
4.39557
4.39557
4.39557
4.39556
4.39555
4.39554
4.39552
4.3955
4.39548
4.39545
4.39542
4.39538
4.39535
4.39531
4.39527
4.39522
4.39518
4.39513
4.39509
4.39505
4.395
4.39497
4.39494
4.39491
4.3949
4.3949
4.39491
4.39494
4.39499
4.39508
4.39524
4.44177
4.44162
4.44153
4.44147
4.44145
4.44144
4.44144
4.44146
4.44149
4.44152
4.44156
4.44161
4.44166
4.44171
4.44176
4.4418
4.44185
4.4419
4.44194
4.44198
4.44202
4.44205
4.44208
4.44211
4.44213
4.44215
4.44217
4.44218
4.44218
4.44219
4.44219
4.44218
4.44218
4.44217
4.44215
4.44213
4.44211
4.44208
4.44205
4.44202
4.44198
4.44194
4.4419
4.44185
4.4418
4.44176
4.44171
4.44166
4.44161
4.44156
4.44152
4.44149
4.44146
4.44144
4.44144
4.44145
4.44147
4.44153
4.44162
4.44177
4.48691
4.48676
4.48667
4.48662
4.48659
4.48659
4.48659
4.48662
4.48665
4.48669
4.48673
4.48678
4.48684
4.48689
4.48694
4.487
4.48705
4.4871
4.48714
4.48719
4.48723
4.48726
4.4873
4.48733
4.48735
4.48737
4.48739
4.4874
4.48741
4.48741
4.48741
4.48741
4.4874
4.48739
4.48737
4.48735
4.48733
4.4873
4.48726
4.48723
4.48719
4.48714
4.4871
4.48705
4.487
4.48694
4.48689
4.48684
4.48678
4.48673
4.48669
4.48665
4.48662
4.48659
4.48659
4.48659
4.48662
4.48667
4.48676
4.48691
4.53088
4.53073
4.53064
4.53059
4.53057
4.53057
4.53058
4.5306
4.53064
4.53068
4.53073
4.53079
4.53085
4.5309
4.53096
4.53102
4.53108
4.53113
4.53118
4.53123
4.53127
4.53131
4.53135
4.53138
4.53141
4.53143
4.53145
4.53146
4.53147
4.53147
4.53147
4.53147
4.53146
4.53145
4.53143
4.53141
4.53138
4.53135
4.53131
4.53127
4.53123
4.53118
4.53113
4.53108
4.53102
4.53096
4.5309
4.53085
4.53079
4.53073
4.53068
4.53064
4.5306
4.53058
4.53057
4.53057
4.53059
4.53064
4.53073
4.53088
4.57387
4.57373
4.57364
4.57359
4.57357
4.57357
4.57359
4.57362
4.57366
4.57371
4.57376
4.57382
4.57388
4.57395
4.57401
4.57407
4.57413
4.57419
4.57425
4.5743
4.57435
4.57439
4.57443
4.57446
4.57449
4.57451
4.57453
4.57455
4.57456
4.57456
4.57456
4.57456
4.57455
4.57453
4.57451
4.57449
4.57446
4.57443
4.57439
4.57435
4.5743
4.57425
4.57419
4.57413
4.57407
4.57401
4.57395
4.57388
4.57382
4.57376
4.57371
4.57366
4.57362
4.57359
4.57357
4.57357
4.57359
4.57364
4.57373
4.57387
4.61606
4.61592
4.61583
4.61579
4.61577
4.61577
4.61579
4.61583
4.61587
4.61593
4.61599
4.61605
4.61612
4.61619
4.61626
4.61632
4.61639
4.61645
4.61651
4.61657
4.61662
4.61666
4.6167
4.61674
4.61677
4.6168
4.61682
4.61683
4.61684
4.61685
4.61685
4.61684
4.61683
4.61682
4.6168
4.61677
4.61674
4.6167
4.61666
4.61662
4.61657
4.61651
4.61645
4.61639
4.61632
4.61626
4.61619
4.61612
4.61605
4.61599
4.61593
4.61587
4.61583
4.61579
4.61577
4.61577
4.61579
4.61583
4.61592
4.61606
4.65759
4.65746
4.65737
4.65733
4.65731
4.65732
4.65734
4.65738
4.65743
4.65749
4.65756
4.65763
4.6577
4.65777
4.65785
4.65792
4.65799
4.65806
4.65812
4.65818
4.65823
4.65828
4.65833
4.65836
4.6584
4.65842
4.65845
4.65846
4.65847
4.65848
4.65848
4.65847
4.65846
4.65845
4.65842
4.6584
4.65836
4.65833
4.65828
4.65823
4.65818
4.65812
4.65806
4.65799
4.65792
4.65785
4.65777
4.6577
4.65763
4.65756
4.65749
4.65743
4.65738
4.65734
4.65732
4.65731
4.65733
4.65737
4.65746
4.65759
4.6986
4.69847
4.69839
4.69834
4.69833
4.69834
4.69837
4.69841
4.69847
4.69853
4.6986
4.69868
4.69876
4.69884
4.69892
4.69899
4.69907
4.69914
4.69921
4.69927
4.69933
4.69938
4.69943
4.69947
4.69951
4.69954
4.69956
4.69958
4.69959
4.69959
4.69959
4.69959
4.69958
4.69956
4.69954
4.69951
4.69947
4.69943
4.69938
4.69933
4.69927
4.69921
4.69914
4.69907
4.69899
4.69892
4.69884
4.69876
4.69868
4.6986
4.69853
4.69847
4.69841
4.69837
4.69834
4.69833
4.69834
4.69839
4.69847
4.6986
4.73921
4.73908
4.739
4.73896
4.73895
4.73897
4.739
4.73905
4.73911
4.73918
4.73925
4.73933
4.73942
4.7395
4.73959
4.73967
4.73975
4.73983
4.7399
4.73997
4.74003
4.74009
4.74014
4.74018
4.74022
4.74025
4.74027
4.74029
4.74031
4.74031
4.74031
4.74031
4.74029
4.74027
4.74025
4.74022
4.74018
4.74014
4.74009
4.74003
4.73997
4.7399
4.73983
4.73975
4.73967
4.73959
4.7395
4.73942
4.73933
4.73925
4.73918
4.73911
4.73905
4.739
4.73897
4.73895
4.73896
4.739
4.73908
4.73921
4.77953
4.77941
4.77933
4.77929
4.77928
4.7793
4.77934
4.77939
4.77945
4.77953
4.77961
4.7797
4.77979
4.77988
4.77997
4.78006
4.78015
4.78023
4.7803
4.78038
4.78044
4.7805
4.78055
4.7806
4.78064
4.78068
4.7807
4.78072
4.78074
4.78074
4.78074
4.78074
4.78072
4.7807
4.78068
4.78064
4.7806
4.78055
4.7805
4.78044
4.78038
4.7803
4.78023
4.78015
4.78006
4.77997
4.77988
4.77979
4.7797
4.77961
4.77953
4.77945
4.77939
4.77934
4.7793
4.77928
4.77929
4.77933
4.77941
4.77953
4.81966
4.81954
4.81946
4.81943
4.81942
4.81944
4.81949
4.81954
4.81961
4.8197
4.81978
4.81988
4.81997
4.82007
4.82017
4.82026
4.82035
4.82044
4.82052
4.8206
4.82067
4.82073
4.82079
4.82084
4.82088
4.82092
4.82094
4.82097
4.82098
4.82099
4.82099
4.82098
4.82097
4.82094
4.82092
4.82088
4.82084
4.82079
4.82073
4.82067
4.8206
4.82052
4.82044
4.82035
4.82026
4.82017
4.82007
4.81997
4.81988
4.81978
4.8197
4.81961
4.81954
4.81949
4.81944
4.81942
4.81943
4.81946
4.81954
4.81966
4.85969
4.85958
4.8595
4.85947
4.85947
4.8595
4.85954
4.8596
4.85968
4.85977
4.85986
4.85996
4.86006
4.86017
4.86027
4.86037
4.86047
4.86056
4.86065
4.86073
4.8608
4.86087
4.86093
4.86098
4.86103
4.86106
4.8611
4.86112
4.86113
4.86114
4.86114
4.86113
4.86112
4.8611
4.86106
4.86103
4.86098
4.86093
4.86087
4.8608
4.86073
4.86065
4.86056
4.86047
4.86037
4.86027
4.86017
4.86006
4.85996
4.85986
4.85977
4.85968
4.8596
4.85954
4.8595
4.85947
4.85947
4.8595
4.85958
4.85969
4.89972
4.89961
4.89953
4.89951
4.89951
4.89954
4.89959
4.89966
4.89974
4.89983
4.89993
4.90004
4.90015
4.90026
4.90037
4.90048
4.90058
4.90068
4.90077
4.90085
4.90093
4.901
4.90107
4.90112
4.90117
4.90121
4.90124
4.90127
4.90128
4.90129
4.90129
4.90128
4.90127
4.90124
4.90121
4.90117
4.90112
4.90107
4.901
4.90093
4.90085
4.90077
4.90068
4.90058
4.90048
4.90037
4.90026
4.90015
4.90004
4.89993
4.89983
4.89974
4.89966
4.89959
4.89954
4.89951
4.89951
4.89953
4.89961
4.89972
4.93982
4.93971
4.93964
4.93962
4.93963
4.93966
4.93972
4.93979
4.93988
4.93998
4.94009
4.9402
4.94031
4.94043
4.94055
4.94066
4.94077
4.94087
4.94097
4.94106
4.94114
4.94122
4.94128
4.94134
4.94139
4.94144
4.94147
4.9415
4.94151
4.94152
4.94152
4.94151
4.9415
4.94147
4.94144
4.94139
4.94134
4.94128
4.94122
4.94114
4.94106
4.94097
4.94087
4.94077
4.94066
4.94055
4.94043
4.94031
4.9402
4.94009
4.93998
4.93988
4.93979
4.93972
4.93966
4.93963
4.93962
4.93964
4.93971
4.93982
4.98008
4.97998
4.97991
4.97989
4.9799
4.97994
4.98
4.98008
4.98017
4.98028
4.98039
4.98051
4.98063
4.98076
4.98088
4.981
4.98112
4.98122
4.98133
4.98142
4.98151
4.98159
4.98166
4.98172
4.98178
4.98182
4.98186
4.98188
4.9819
4.98191
4.98191
4.9819
4.98188
4.98186
4.98182
4.98178
4.98172
4.98166
4.98159
4.98151
4.98142
4.98133
4.98122
4.98112
4.981
4.98088
4.98076
4.98063
4.98051
4.98039
4.98028
4.98017
4.98008
4.98
4.97994
4.9799
4.97989
4.97991
4.97998
4.98008
5.02057
5.02047
5.0204
5.02038
5.0204
5.02044
5.02051
5.0206
5.0207
5.02081
5.02093
5.02106
5.02119
5.02132
5.02145
5.02157
5.0217
5.02181
5.02192
5.02202
5.02211
5.0222
5.02227
5.02234
5.02239
5.02244
5.02248
5.02251
5.02253
5.02253
5.02253
5.02253
5.02251
5.02248
5.02244
5.02239
5.02234
5.02227
5.0222
5.02211
5.02202
5.02192
5.02181
5.0217
5.02157
5.02145
5.02132
5.02119
5.02106
5.02093
5.02081
5.0207
5.0206
5.02051
5.02044
5.0204
5.02038
5.0204
5.02047
5.02057
5.06136
5.06126
5.0612
5.06118
5.0612
5.06125
5.06132
5.06142
5.06152
5.06164
5.06177
5.06191
5.06205
5.06218
5.06232
5.06245
5.06258
5.0627
5.06282
5.06292
5.06302
5.06311
5.06319
5.06326
5.06332
5.06337
5.06341
5.06344
5.06346
5.06346
5.06346
5.06346
5.06344
5.06341
5.06337
5.06332
5.06326
5.06319
5.06311
5.06302
5.06292
5.06282
5.0627
5.06258
5.06245
5.06232
5.06218
5.06205
5.06191
5.06177
5.06164
5.06152
5.06142
5.06132
5.06125
5.0612
5.06118
5.0612
5.06126
5.06136
5.10252
5.10243
5.10237
5.10236
5.10238
5.10243
5.10251
5.10261
5.10273
5.10285
5.10299
5.10313
5.10328
5.10342
5.10357
5.10371
5.10384
5.10397
5.10409
5.1042
5.1043
5.1044
5.10448
5.10455
5.10462
5.10467
5.10471
5.10474
5.10476
5.10477
5.10477
5.10476
5.10474
5.10471
5.10467
5.10462
5.10455
5.10448
5.1044
5.1043
5.1042
5.10409
5.10397
5.10384
5.10371
5.10357
5.10342
5.10328
5.10313
5.10299
5.10285
5.10273
5.10261
5.10251
5.10243
5.10238
5.10236
5.10237
5.10243
5.10252
5.14412
5.14403
5.14398
5.14397
5.144
5.14406
5.14414
5.14424
5.14437
5.1445
5.14465
5.1448
5.14495
5.1451
5.14525
5.1454
5.14554
5.14568
5.14581
5.14592
5.14603
5.14613
5.14622
5.14629
5.14636
5.14641
5.14646
5.14649
5.14651
5.14652
5.14652
5.14651
5.14649
5.14646
5.14641
5.14636
5.14629
5.14622
5.14613
5.14603
5.14592
5.14581
5.14568
5.14554
5.1454
5.14525
5.1451
5.14495
5.1448
5.14465
5.1445
5.14437
5.14424
5.14414
5.14406
5.144
5.14397
5.14398
5.14403
5.14412
5.18622
5.18614
5.18609
5.18609
5.18612
5.18618
5.18627
5.18638
5.18651
5.18666
5.18681
5.18697
5.18713
5.18729
5.18745
5.18761
5.18775
5.1879
5.18803
5.18815
5.18827
5.18837
5.18846
5.18854
5.18861
5.18867
5.18871
5.18875
5.18877
5.18878
5.18878
5.18877
5.18875
5.18871
5.18867
5.18861
5.18854
5.18846
5.18837
5.18827
5.18815
5.18803
5.1879
5.18775
5.18761
5.18745
5.18729
5.18713
5.18697
5.18681
5.18666
5.18651
5.18638
5.18627
5.18618
5.18612
5.18609
5.18609
5.18614
5.18622
5.2289
5.22882
5.22877
5.22877
5.22881
5.22888
5.22898
5.2291
5.22923
5.22938
5.22954
5.22971
5.22988
5.23005
5.23022
5.23038
5.23054
5.23069
5.23083
5.23096
5.23108
5.23118
5.23128
5.23136
5.23144
5.2315
5.23155
5.23158
5.23161
5.23162
5.23162
5.23161
5.23158
5.23155
5.2315
5.23144
5.23136
5.23128
5.23118
5.23108
5.23096
5.23083
5.23069
5.23054
5.23038
5.23022
5.23005
5.22988
5.22971
5.22954
5.22938
5.22923
5.2291
5.22898
5.22888
5.22881
5.22877
5.22877
5.22882
5.2289
5.2722
5.27213
5.27209
5.27209
5.27213
5.27221
5.27231
5.27244
5.27258
5.27274
5.27291
5.27309
5.27327
5.27345
5.27362
5.27379
5.27396
5.27411
5.27426
5.2744
5.27452
5.27463
5.27474
5.27482
5.2749
5.27496
5.27501
5.27505
5.27508
5.27509
5.27509
5.27508
5.27505
5.27501
5.27496
5.2749
5.27482
5.27474
5.27463
5.27452
5.2744
5.27426
5.27411
5.27396
5.27379
5.27362
5.27345
5.27327
5.27309
5.27291
5.27274
5.27258
5.27244
5.27231
5.27221
5.27213
5.27209
5.27209
5.27213
5.2722
5.3162
5.31613
5.31609
5.3161
5.31615
5.31623
5.31634
5.31648
5.31663
5.3168
5.31698
5.31716
5.31735
5.31754
5.31772
5.3179
5.31807
5.31824
5.31839
5.31854
5.31867
5.31878
5.31889
5.31898
5.31906
5.31913
5.31918
5.31922
5.31925
5.31926
5.31926
5.31925
5.31922
5.31918
5.31913
5.31906
5.31898
5.31889
5.31878
5.31867
5.31854
5.31839
5.31824
5.31807
5.3179
5.31772
5.31754
5.31735
5.31716
5.31698
5.3168
5.31663
5.31648
5.31634
5.31623
5.31615
5.3161
5.31609
5.31613
5.3162
5.36096
5.36089
5.36086
5.36087
5.36092
5.36101
5.36113
5.36127
5.36144
5.36161
5.3618
5.36199
5.36219
5.36239
5.36258
5.36277
5.36295
5.36312
5.36328
5.36343
5.36357
5.36369
5.36381
5.3639
5.36399
5.36405
5.36411
5.36415
5.36418
5.36419
5.36419
5.36418
5.36415
5.36411
5.36405
5.36399
5.3639
5.36381
5.36369
5.36357
5.36343
5.36328
5.36312
5.36295
5.36277
5.36258
5.36239
5.36219
5.36199
5.3618
5.36161
5.36144
5.36127
5.36113
5.36101
5.36092
5.36087
5.36086
5.36089
5.36096
5.40653
5.40647
5.40644
5.40645
5.40651
5.40661
5.40674
5.40689
5.40706
5.40724
5.40744
5.40764
5.40785
5.40806
5.40826
5.40846
5.40865
5.40883
5.409
5.40915
5.4093
5.40943
5.40954
5.40964
5.40973
5.4098
5.40986
5.4099
5.40993
5.40995
5.40995
5.40993
5.4099
5.40986
5.4098
5.40973
5.40964
5.40954
5.40943
5.4093
5.40915
5.409
5.40883
5.40865
5.40846
5.40826
5.40806
5.40785
5.40764
5.40744
5.40724
5.40706
5.40689
5.40674
5.40661
5.40651
5.40645
5.40644
5.40647
5.40653
5.45297
5.45292
5.45289
5.45291
5.45298
5.45308
5.45322
5.45338
5.45356
5.45375
5.45396
5.45417
5.45439
5.45461
5.45482
5.45503
5.45522
5.45541
5.45559
5.45575
5.4559
5.45604
5.45616
5.45627
5.45636
5.45643
5.45649
5.45654
5.45657
5.45658
5.45658
5.45657
5.45654
5.45649
5.45643
5.45636
5.45627
5.45616
5.45604
5.4559
5.45575
5.45559
5.45541
5.45522
5.45503
5.45482
5.45461
5.45439
5.45417
5.45396
5.45375
5.45356
5.45338
5.45322
5.45308
5.45298
5.45291
5.45289
5.45292
5.45297
5.50035
5.5003
5.50028
5.50031
5.50038
5.50049
5.50063
5.5008
5.50099
5.5012
5.50142
5.50164
5.50187
5.5021
5.50232
5.50253
5.50274
5.50294
5.50312
5.50329
5.50345
5.50359
5.50372
5.50383
5.50393
5.504
5.50407
5.50412
5.50415
5.50416
5.50416
5.50415
5.50412
5.50407
5.504
5.50393
5.50383
5.50372
5.50359
5.50345
5.50329
5.50312
5.50294
5.50274
5.50253
5.50232
5.5021
5.50187
5.50164
5.50142
5.5012
5.50099
5.5008
5.50063
5.50049
5.50038
5.50031
5.50028
5.5003
5.50035
5.54873
5.54868
5.54867
5.5487
5.54878
5.5489
5.54905
5.54923
5.54943
5.54964
5.54987
5.55011
5.55035
5.55058
5.55082
5.55104
5.55126
5.55147
5.55166
5.55184
5.552
5.55215
5.55228
5.5524
5.5525
5.55258
5.55264
5.55269
5.55273
5.55274
5.55274
5.55273
5.55269
5.55264
5.55258
5.5525
5.5524
5.55228
5.55215
5.552
5.55184
5.55166
5.55147
5.55126
5.55104
5.55082
5.55058
5.55035
5.55011
5.54987
5.54964
5.54943
5.54923
5.54905
5.5489
5.54878
5.5487
5.54867
5.54868
5.54873
5.59816
5.59812
5.59811
5.59815
5.59824
5.59836
5.59852
5.59871
5.59892
5.59915
5.59939
5.59963
5.59988
5.60013
5.60037
5.60061
5.60084
5.60105
5.60125
5.60144
5.60161
5.60177
5.6019
5.60202
5.60213
5.60221
5.60228
5.60233
5.60237
5.60239
5.60239
5.60237
5.60233
5.60228
5.60221
5.60213
5.60202
5.6019
5.60177
5.60161
5.60144
5.60125
5.60105
5.60084
5.60061
5.60037
5.60013
5.59988
5.59963
5.59939
5.59915
5.59892
5.59871
5.59852
5.59836
5.59824
5.59815
5.59811
5.59812
5.59816
5.64871
5.64867
5.64867
5.64871
5.64881
5.64894
5.64911
5.64931
5.64953
5.64976
5.65002
5.65027
5.65054
5.6508
5.65105
5.6513
5.65153
5.65176
5.65197
5.65216
5.65234
5.6525
5.65265
5.65277
5.65288
5.65297
5.65304
5.6531
5.65313
5.65315
5.65315
5.65313
5.6531
5.65304
5.65297
5.65288
5.65277
5.65265
5.6525
5.65234
5.65216
5.65197
5.65176
5.65153
5.6513
5.65105
5.6508
5.65054
5.65027
5.65002
5.64976
5.64953
5.64931
5.64911
5.64894
5.64881
5.64871
5.64867
5.64867
5.64871
5.70043
5.7004
5.7004
5.70045
5.70055
5.70069
5.70087
5.70108
5.70131
5.70156
5.70182
5.70209
5.70237
5.70264
5.70291
5.70316
5.70341
5.70365
5.70387
5.70407
5.70425
5.70442
5.70457
5.7047
5.70482
5.70491
5.70499
5.70504
5.70508
5.7051
5.7051
5.70508
5.70504
5.70499
5.70491
5.70482
5.7047
5.70457
5.70442
5.70425
5.70407
5.70387
5.70365
5.70341
5.70316
5.70291
5.70264
5.70237
5.70209
5.70182
5.70156
5.70131
5.70108
5.70087
5.70069
5.70055
5.70045
5.7004
5.7004
5.70043
5.75338
5.75335
5.75336
5.75342
5.75353
5.75368
5.75387
5.75409
5.75433
5.75459
5.75487
5.75515
5.75544
5.75572
5.756
5.75627
5.75653
5.75677
5.757
5.75721
5.75741
5.75758
5.75774
5.75788
5.75799
5.75809
5.75817
5.75823
5.75827
5.75829
5.75829
5.75827
5.75823
5.75817
5.75809
5.75799
5.75788
5.75774
5.75758
5.75741
5.75721
5.757
5.75677
5.75653
5.75627
5.756
5.75572
5.75544
5.75515
5.75487
5.75459
5.75433
5.75409
5.75387
5.75368
5.75353
5.75342
5.75336
5.75335
5.75338
5.80763
5.80761
5.80762
5.80769
5.80781
5.80797
5.80816
5.80839
5.80865
5.80893
5.80921
5.80951
5.80981
5.81011
5.8104
5.81068
5.81095
5.8112
5.81144
5.81166
5.81186
5.81205
5.81221
5.81235
5.81247
5.81258
5.81266
5.81272
5.81276
5.81278
5.81278
5.81276
5.81272
5.81266
5.81258
5.81247
5.81235
5.81221
5.81205
5.81186
5.81166
5.81144
5.8112
5.81095
5.81068
5.8104
5.81011
5.80981
5.80951
5.80921
5.80893
5.80865
5.80839
5.80816
5.80797
5.80781
5.80769
5.80762
5.80761
5.80763
5.86323
5.86322
5.86324
5.86331
5.86344
5.86361
5.86382
5.86406
5.86433
5.86461
5.86492
5.86523
5.86554
5.86585
5.86615
5.86645
5.86673
5.86699
5.86724
5.86747
5.86768
5.86787
5.86804
5.86819
5.86832
5.86842
5.86851
5.86857
5.86861
5.86864
5.86864
5.86861
5.86857
5.86851
5.86842
5.86832
5.86819
5.86804
5.86787
5.86768
5.86747
5.86724
5.86699
5.86673
5.86645
5.86615
5.86585
5.86554
5.86523
5.86492
5.86461
5.86433
5.86406
5.86382
5.86361
5.86344
5.86331
5.86324
5.86322
5.86323
5.92025
5.92024
5.92027
5.92035
5.92048
5.92067
5.92089
5.92114
5.92142
5.92172
5.92204
5.92236
5.92269
5.92301
5.92333
5.92364
5.92393
5.92421
5.92447
5.92471
5.92493
5.92512
5.9253
5.92545
5.92559
5.9257
5.92579
5.92585
5.9259
5.92592
5.92592
5.9259
5.92585
5.92579
5.9257
5.92559
5.92545
5.9253
5.92512
5.92493
5.92471
5.92447
5.92421
5.92393
5.92364
5.92333
5.92301
5.92269
5.92236
5.92204
5.92172
5.92142
5.92114
5.92089
5.92067
5.92048
5.92035
5.92027
5.92024
5.92025
5.97875
5.97874
5.97878
5.97887
5.97901
5.9792
5.97944
5.9797
5.98
5.98032
5.98065
5.98098
5.98132
5.98166
5.98199
5.98231
5.98262
5.98291
5.98318
5.98343
5.98365
5.98386
5.98405
5.98421
5.98434
5.98446
5.98455
5.98462
5.98466
5.98469
5.98469
5.98466
5.98462
5.98455
5.98446
5.98434
5.98421
5.98405
5.98386
5.98365
5.98343
5.98318
5.98291
5.98262
5.98231
5.98199
5.98166
5.98132
5.98098
5.98065
5.98032
5.98
5.9797
5.97944
5.9792
5.97901
5.97887
5.97878
5.97874
5.97875
6.03879
6.03879
6.03883
6.03893
6.03908
6.03928
6.03953
6.03981
6.04012
6.04045
6.0408
6.04115
6.04151
6.04186
6.0422
6.04254
6.04285
6.04315
6.04344
6.0437
6.04393
6.04415
6.04434
6.04451
6.04465
6.04477
6.04487
6.04494
6.04498
6.04501
6.04501
6.04498
6.04494
6.04487
6.04477
6.04465
6.04451
6.04434
6.04415
6.04393
6.0437
6.04344
6.04315
6.04285
6.04254
6.0422
6.04186
6.04151
6.04115
6.0408
6.04045
6.04012
6.03981
6.03953
6.03928
6.03908
6.03893
6.03883
6.03879
6.03879
6.10043
6.10044
6.10049
6.10059
6.10076
6.10097
6.10123
6.10152
6.10185
6.10219
6.10256
6.10292
6.1033
6.10366
6.10402
6.10437
6.1047
6.10502
6.10531
6.10558
6.10583
6.10605
6.10625
6.10642
6.10657
6.1067
6.1068
6.10687
6.10692
6.10694
6.10694
6.10692
6.10687
6.1068
6.1067
6.10657
6.10642
6.10625
6.10605
6.10583
6.10558
6.10531
6.10502
6.1047
6.10437
6.10402
6.10366
6.1033
6.10292
6.10256
6.10219
6.10185
6.10152
6.10123
6.10097
6.10076
6.10059
6.10049
6.10044
6.10043
6.16374
6.16375
6.16381
6.16393
6.1641
6.16432
6.1646
6.16491
6.16525
6.16561
6.16599
6.16637
6.16676
6.16714
6.16752
6.16788
6.16823
6.16855
6.16886
6.16914
6.1694
6.16963
6.16984
6.17002
6.17017
6.1703
6.1704
6.17048
6.17053
6.17056
6.17056
6.17053
6.17048
6.1704
6.1703
6.17017
6.17002
6.16984
6.16963
6.1694
6.16914
6.16886
6.16855
6.16823
6.16788
6.16752
6.16714
6.16676
6.16637
6.16599
6.16561
6.16525
6.16491
6.1646
6.16432
6.1641
6.16393
6.16381
6.16375
6.16374
6.22878
6.2288
6.22887
6.22899
6.22918
6.22941
6.2297
6.23003
6.23038
6.23076
6.23116
6.23156
6.23196
6.23236
6.23276
6.23313
6.23349
6.23383
6.23415
6.23444
6.23471
6.23495
6.23517
6.23535
6.23552
6.23565
6.23576
6.23584
6.23589
6.23592
6.23592
6.23589
6.23584
6.23576
6.23565
6.23552
6.23535
6.23517
6.23495
6.23471
6.23444
6.23415
6.23383
6.23349
6.23313
6.23276
6.23236
6.23196
6.23156
6.23116
6.23076
6.23038
6.23003
6.2297
6.22941
6.22918
6.22899
6.22887
6.2288
6.22878
6.29563
6.29565
6.29572
6.29586
6.29605
6.2963
6.2966
6.29695
6.29732
6.29772
6.29813
6.29855
6.29897
6.29939
6.2998
6.30019
6.30057
6.30092
6.30125
6.30155