/*--------------------------------*- C++ -*----------------------------------*\
| =========                 |                                                 |
| \\      /  F ield         | foam-extend: Open Source CFD                    |
|  \\    /   O peration     | Version:     4.0                                |
|   \\  /    A nd           | Web:         http://www.foam-extend.org         |
|    \\/     M anipulation  |                                                 |
\*---------------------------------------------------------------------------*/
FoamFile
{
    version     2.0;
    format      ascii;
    class       volVectorField;
    location    "14";
    object      U;
}
// * * * * * * * * * * * * * * * * * * * * * * * * * * * * * * * * * * * * * //

dimensions      [0 1 -1 0 0 0 0];

internalField   nonuniform List<vector> 
6960
(
(-3.97769e-27 -6.66324e-26 0)
(-2.46292e-27 -1.50259e-27 0)
(4.73945e-27 5.49535e-27 0)
(2.06587e-27 2.03959e-26 0)
(-5.40138e-27 4.30317e-26 0)
(-6.88733e-27 6.03797e-26 0)
(-5.65117e-28 5.63914e-26 0)
(3.52073e-27 3.63478e-26 0)
(2.59748e-27 2.30259e-26 0)
(1.50251e-27 2.88968e-26 0)
(6.5061e-28 4.70272e-26 0)
(-2.08619e-27 6.26244e-26 0)
(-3.29454e-27 6.34166e-26 0)
(-1.14068e-27 4.77919e-26 0)
(1.14079e-27 2.85054e-26 0)
(9.16993e-28 2.27223e-26 0)
(-1.53084e-27 3.71869e-26 0)
(-2.72287e-27 6.18707e-26 0)
(-9.32449e-28 7.75644e-26 0)
(8.26758e-28 7.42744e-26 0)
(1.21215e-27 5.84037e-26 0)
(1.4132e-27 4.23233e-26 0)
(1.16745e-27 3.47617e-26 0)
(5.3166e-29 3.73674e-26 0)
(-1.00185e-27 4.49351e-26 0)
(-4.75939e-28 5.02352e-26 0)
(9.99605e-28 5.0381e-26 0)
(9.12903e-28 4.79275e-26 0)
(3.78102e-28 4.67057e-26 0)
(1.64214e-28 4.772e-26 0)
(-1.32198e-27 5.02202e-26 0)
(-2.01916e-27 5.39907e-26 0)
(-1.33829e-27 5.82576e-26 0)
(-6.75042e-28 6.11507e-26 0)
(6.0667e-28 5.93991e-26 0)
(1.39618e-27 5.11206e-26 0)
(7.17404e-28 4.0559e-26 0)
(-1.48345e-29 3.57114e-26 0)
(7.52564e-29 4.14043e-26 0)
(-6.25016e-29 5.58574e-26 0)
(-7.02203e-28 7.13266e-26 0)
(4.50463e-28 7.62764e-26 0)
(2.58794e-27 6.41e-26 0)
(2.17522e-27 4.28799e-26 0)
(1.92874e-28 2.85148e-26 0)
(-9.38227e-28 3.02526e-26 0)
(-1.36626e-27 4.53237e-26 0)
(-6.09208e-28 6.08806e-26 0)
(1.22754e-27 6.30003e-26 0)
(1.22625e-27 4.98086e-26 0)
(-6.67321e-28 3.40441e-26 0)
(-5.29508e-28 3.00582e-26 0)
(1.78978e-27 3.91392e-26 0)
(1.07271e-27 5.05021e-26 0)
(-2.31941e-27 5.39489e-26 0)
(-2.25528e-27 4.36153e-26 0)
(-3.64849e-28 2.20212e-26 0)
(4.88126e-28 1.66749e-27 0)
(1.91825e-27 -8.92323e-27 0)
(1.19877e-27 -1.19227e-26 0)
(-8.70104e-27 -1.22622e-25 0)
(-4.23964e-27 1.8394e-26 0)
(1.2376e-26 2.85069e-26 0)
(4.3088e-27 4.9315e-26 0)
(-1.50361e-26 8.73453e-26 0)
(-1.81611e-26 1.20349e-25 0)
(-4.9172e-28 1.15514e-25 0)
(9.57478e-27 8.21526e-26 0)
(5.95533e-27 6.33317e-26 0)
(3.23563e-27 7.77597e-26 0)
(1.90554e-27 1.08299e-25 0)
(-4.63083e-27 1.3071e-25 0)
(-7.92417e-27 1.28687e-25 0)
(-2.6935e-27 1.01114e-25 0)
(3.14824e-27 6.83009e-26 0)
(2.65293e-27 5.85701e-26 0)
(-3.73754e-27 8.38481e-26 0)
(-7.00774e-27 1.2771e-25 0)
(-2.32319e-27 1.56803e-25 0)
(2.04465e-27 1.5343e-25 0)
(2.59679e-27 1.28457e-25 0)
(3.3818e-27 1.01368e-25 0)
(3.35311e-27 8.58198e-26 0)
(3.96202e-28 8.66799e-26 0)
(-2.51432e-27 9.80567e-26 0)
(-7.74668e-28 1.08169e-25 0)
(3.04921e-27 1.10793e-25 0)
(2.23422e-27 1.08996e-25 0)
(4.85616e-28 1.09056e-25 0)
(-4.9196e-28 1.12927e-25 0)
(-4.70634e-27 1.19131e-25 0)
(-5.42505e-27 1.26441e-25 0)
(-2.15198e-27 1.32323e-25 0)
(-8.06367e-28 1.34091e-25 0)
(1.45993e-27 1.28143e-25 0)
(3.03781e-27 1.12706e-25 0)
(8.01312e-28 9.5701e-26 0)
(-8.32029e-28 8.96351e-26 0)
(5.0133e-28 9.9923e-26 0)
(6.77132e-28 1.22565e-25 0)
(-1.3842e-27 1.46472e-25 0)
(1.43462e-27 1.53313e-25 0)
(7.11543e-27 1.31478e-25 0)
(5.41467e-27 9.52863e-26 0)
(-2.7661e-28 7.14271e-26 0)
(-2.92718e-27 7.38798e-26 0)
(-3.909e-27 9.81693e-26 0)
(-2.04139e-27 1.2503e-25 0)
(2.91107e-27 1.32293e-25 0)
(3.09554e-27 1.14722e-25 0)
(-1.57302e-27 9.01765e-26 0)
(-8.47673e-28 8.03164e-26 0)
(5.68389e-27 8.75038e-26 0)
(3.80204e-27 9.81512e-26 0)
(-6.2528e-27 1.02259e-25 0)
(-7.15592e-27 8.99508e-26 0)
(-2.30503e-27 5.8443e-26 0)
(7.64159e-28 2.50022e-26 0)
(5.32239e-27 2.74683e-27 0)
(2.80987e-27 -9.55965e-27 0)
(-1.23885e-26 -7.27499e-26 0)
(-4.91591e-27 6.43371e-26 0)
(1.8355e-26 7.11718e-26 0)
(5.16195e-27 8.6363e-26 0)
(-2.32056e-26 1.32446e-25 0)
(-2.72657e-26 1.80272e-25 0)
(1.6719e-28 1.76642e-25 0)
(1.49969e-26 1.36e-25 0)
(9.07326e-27 1.22904e-25 0)
(5.22182e-27 1.53551e-25 0)
(3.31802e-27 1.9224e-25 0)
(-6.79097e-27 2.10561e-25 0)
(-1.24374e-26 1.98884e-25 0)
(-4.97702e-27 1.59355e-25 0)
(4.40875e-27 1.15701e-25 0)
(4.87669e-27 1.03222e-25 0)
(-3.92965e-27 1.38732e-25 0)
(-9.14278e-27 2.01499e-25 0)
(-2.92386e-27 2.44773e-25 0)
(2.64621e-27 2.44178e-25 0)
(2.68187e-27 2.15558e-25 0)
(4.16236e-27 1.8173e-25 0)
(4.931e-27 1.57213e-25 0)
(6.0395e-28 1.51099e-25 0)
(-3.71349e-27 1.61394e-25 0)
(-4.45274e-28 1.75009e-25 0)
(5.35549e-27 1.8236e-25 0)
(3.46729e-27 1.85167e-25 0)
(4.75183e-28 1.90695e-25 0)
(-1.54105e-27 2.01033e-25 0)
(-8.449e-27 2.13105e-25 0)
(-8.42022e-27 2.23532e-25 0)
(-1.85488e-27 2.27177e-25 0)
(-3.24252e-28 2.22649e-25 0)
(1.86631e-27 2.09887e-25 0)
(3.81361e-27 1.89059e-25 0)
(5.44e-29 1.70623e-25 0)
(-1.96286e-27 1.67405e-25 0)
(1.41077e-27 1.80949e-25 0)
(2.3818e-27 2.05322e-25 0)
(-1.30921e-27 2.31201e-25 0)
(2.14056e-27 2.37013e-25 0)
(1.02042e-26 2.05666e-25 0)
(6.84988e-27 1.57139e-25 0)
(-1.81091e-27 1.26972e-25 0)
(-4.65663e-27 1.29842e-25 0)
(-5.27201e-27 1.59887e-25 0)
(-2.38877e-27 1.9712e-25 0)
(4.747e-27 2.15395e-25 0)
(4.35586e-27 2.03513e-25 0)
(-3.04722e-27 1.75839e-25 0)
(-1.80846e-27 1.54336e-25 0)
(8.78559e-27 1.43806e-25 0)
(6.74379e-27 1.38629e-25 0)
(-9.03435e-27 1.42151e-25 0)
(-1.18251e-26 1.40051e-25 0)
(-5.3578e-27 1.12219e-25 0)
(-2.01699e-28 7.33446e-26 0)
(7.4153e-27 3.84369e-26 0)
(3.58953e-27 9.589e-27 0)
(-1.55927e-26 -4.09054e-27 0)
(-5.38302e-27 1.33904e-25 0)
(2.20151e-26 1.2228e-25 0)
(4.20505e-27 1.08008e-25 0)
(-3.0105e-26 1.43904e-25 0)
(-3.41562e-26 2.05063e-25 0)
(1.55861e-27 2.15414e-25 0)
(2.02171e-26 1.80183e-25 0)
(1.23777e-26 1.71028e-25 0)
(7.27508e-27 1.99426e-25 0)
(4.19841e-27 2.244e-25 0)
(-9.08376e-27 2.3183e-25 0)
(-1.66643e-26 2.26456e-25 0)
(-7.38096e-27 2.03571e-25 0)
(5.23054e-27 1.703e-25 0)
(7.18104e-27 1.53863e-25 0)
(-2.93697e-27 1.77637e-25 0)
(-9.75806e-27 2.33301e-25 0)
(-2.79872e-27 2.77678e-25 0)
(3.19689e-27 2.85477e-25 0)
(2.33453e-27 2.70814e-25 0)
(4.26421e-27 2.47262e-25 0)
(5.80652e-27 2.22025e-25 0)
(3.67772e-28 2.08936e-25 0)
(-4.82036e-27 2.15011e-25 0)
(3.64928e-28 2.29747e-25 0)
(7.89733e-27 2.40657e-25 0)
(4.71857e-27 2.4685e-25 0)
(5.61026e-28 2.56244e-25 0)
(-2.55137e-27 2.71945e-25 0)
(-1.20831e-26 2.89812e-25 0)
(-1.10607e-26 3.03677e-25 0)
(-1.11312e-27 3.04734e-25 0)
(2.3625e-28 2.93172e-25 0)
(1.87777e-27 2.74428e-25 0)
(4.20845e-27 2.52073e-25 0)
(-8.57989e-28 2.3748e-25 0)
(-3.12022e-27 2.38554e-25 0)
(2.29297e-27 2.4738e-25 0)
(4.09105e-27 2.56048e-25 0)
(-1.19599e-27 2.65684e-25 0)
(2.44563e-27 2.63792e-25 0)
(1.2371e-26 2.34095e-25 0)
(7.46753e-27 1.97056e-25 0)
(-3.67977e-27 1.81778e-25 0)
(-6.27966e-27 1.88433e-25 0)
(-6.1372e-27 2.07684e-25 0)
(-2.08648e-27 2.31119e-25 0)
(6.96598e-27 2.45601e-25 0)
(5.73574e-27 2.4397e-25 0)
(-4.52892e-27 2.3248e-25 0)
(-3.59013e-27 2.17296e-25 0)
(1.0086e-26 1.91044e-25 0)
(8.73103e-27 1.56229e-25 0)
(-1.08615e-26 1.45332e-25 0)
(-1.52031e-26 1.56417e-25 0)
(-7.99634e-27 1.5489e-25 0)
(-1.51113e-27 1.40086e-25 0)
(8.20456e-27 1.09984e-25 0)
(3.88983e-27 6.93395e-26 0)
(-1.79726e-26 4.67629e-26 0)
(-5.68753e-27 2.06174e-25 0)
(2.28505e-26 1.64773e-25 0)
(1.20677e-27 1.09982e-25 0)
(-3.58346e-26 1.32487e-25 0)
(-3.87328e-26 2.12065e-25 0)
(3.73056e-27 2.41271e-25 0)
(2.50346e-26 2.06394e-25 0)
(1.53012e-26 1.85042e-25 0)
(8.66993e-27 1.93454e-25 0)
(4.21454e-27 1.97705e-25 0)
(-1.11403e-26 2.02803e-25 0)
(-1.96133e-26 2.22546e-25 0)
(-8.85436e-27 2.34793e-25 0)
(5.97288e-27 2.2078e-25 0)
(8.93618e-27 1.9687e-25 0)
(-1.97634e-27 1.96744e-25 0)
(-9.8583e-27 2.31694e-25 0)
(-2.24108e-27 2.68604e-25 0)
(4.11876e-27 2.83505e-25 0)
(2.36333e-27 2.87589e-25 0)
(4.37496e-27 2.8283e-25 0)
(6.30777e-27 2.66502e-25 0)
(-1.97078e-28 2.54457e-25 0)
(-5.87277e-27 2.60082e-25 0)
(1.41859e-27 2.74249e-25 0)
(1.04026e-26 2.83171e-25 0)
(5.80342e-27 2.86599e-25 0)
(6.7924e-28 2.95363e-25 0)
(-3.34762e-27 3.13908e-25 0)
(-1.52924e-26 3.3659e-25 0)
(-1.32764e-26 3.54651e-25 0)
(-1.95629e-28 3.56246e-25 0)
(7.10158e-28 3.42735e-25 0)
(1.6298e-27 3.2284e-25 0)
(4.46309e-27 3.00717e-25 0)
(-1.70667e-27 2.87505e-25 0)
(-4.35394e-27 2.87111e-25 0)
(2.59503e-27 2.83605e-25 0)
(5.00415e-27 2.68722e-25 0)
(-1.57511e-27 2.56615e-25 0)
(2.43632e-27 2.46785e-25 0)
(1.437e-26 2.25177e-25 0)
(8.3986e-27 2.10638e-25 0)
(-5.09835e-27 2.20549e-25 0)
(-7.93454e-27 2.35439e-25 0)
(-7.39821e-27 2.39497e-25 0)
(-2.1463e-27 2.36302e-25 0)
(9.06553e-27 2.31016e-25 0)
(7.52906e-27 2.29308e-25 0)
(-5.18785e-27 2.37085e-25 0)
(-5.40368e-27 2.44364e-25 0)
(9.73199e-27 2.2115e-25 0)
(9.15386e-27 1.65382e-25 0)
(-1.23239e-26 1.35251e-25 0)
(-1.69941e-26 1.51252e-25 0)
(-9.05723e-27 1.78297e-25 0)
(-1.99039e-27 2.03529e-25 0)
(8.40919e-27 1.95866e-25 0)
(4.2362e-27 1.56098e-25 0)
(-1.97281e-26 7.60478e-26 0)
(-6.17934e-27 2.53144e-25 0)
(2.10231e-26 1.83245e-25 0)
(-3.29196e-27 9.891e-26 0)
(-4.0129e-26 1.21374e-25 0)
(-4.11656e-26 2.23835e-25 0)
(6.08488e-27 2.61089e-25 0)
(2.86511e-26 2.05953e-25 0)
(1.71825e-26 1.55956e-25 0)
(9.24988e-27 1.43661e-25 0)
(3.80825e-27 1.41077e-25 0)
(-1.22995e-26 1.60107e-25 0)
(-2.07332e-26 2.11436e-25 0)
(-9.08693e-27 2.53513e-25 0)
(6.64772e-27 2.5016e-25 0)
(9.89083e-27 2.1694e-25 0)
(-1.47583e-27 2.00091e-25 0)
(-9.89033e-27 2.22598e-25 0)
(-1.58564e-27 2.52195e-25 0)
(5.26144e-27 2.64968e-25 0)
(2.88709e-27 2.75957e-25 0)
(4.87396e-27 2.84953e-25 0)
(6.936e-27 2.83152e-25 0)
(-6.58588e-28 2.82878e-25 0)
(-6.75302e-27 2.95047e-25 0)
(2.44333e-27 3.07698e-25 0)
(1.24895e-26 3.08171e-25 0)
(6.45813e-27 3.02205e-25 0)
(7.06008e-28 3.06447e-25 0)
(-3.87915e-27 3.25949e-25 0)
(-1.79108e-26 3.52321e-25 0)
(-1.49757e-26 3.74907e-25 0)
(8.90276e-28 3.80622e-25 0)
(1.19716e-27 3.71864e-25 0)
(1.27528e-27 3.56664e-25 0)
(4.53883e-27 3.34625e-25 0)
(-2.68874e-27 3.15565e-25 0)
(-5.90486e-27 3.04445e-25 0)
(2.12385e-27 2.85293e-25 0)
(5.06591e-27 2.53363e-25 0)
(-2.35672e-27 2.31276e-25 0)
(2.28949e-27 2.21632e-25 0)
(1.64139e-26 2.06438e-25 0)
(9.92059e-27 2.04394e-25 0)
(-5.77049e-27 2.30708e-25 0)
(-9.48507e-27 2.55081e-25 0)
(-9.2209e-27 2.53902e-25 0)
(-3.06844e-27 2.32489e-25 0)
(1.03845e-26 2.04005e-25 0)
(9.29082e-27 1.86718e-25 0)
(-4.90595e-27 1.97939e-25 0)
(-6.44943e-27 2.26433e-25 0)
(8.75327e-27 2.24342e-25 0)
(8.45139e-27 1.73106e-25 0)
(-1.37716e-26 1.37571e-25 0)
(-1.77016e-26 1.51802e-25 0)
(-8.57096e-27 1.89397e-25 0)
(-1.18358e-27 2.4184e-25 0)
(8.77822e-27 2.5791e-25 0)
(4.98723e-27 2.30131e-25 0)
(-2.13032e-26 7.50556e-26 0)
(-7.0909e-27 2.58516e-25 0)
(1.74317e-26 1.76003e-25 0)
(-8.19397e-27 8.76533e-26 0)
(-4.27076e-26 1.25734e-25 0)
(-4.20502e-26 2.46806e-25 0)
(7.65336e-27 2.73431e-25 0)
(3.03293e-26 1.80789e-25 0)
(1.7909e-26 1.00511e-25 0)
(9.59994e-27 8.35715e-26 0)
(3.81737e-27 9.594e-26 0)
(-1.22148e-26 1.38846e-25 0)
(-2.03547e-26 2.11641e-25 0)
(-8.62638e-27 2.61686e-25 0)
(7.02217e-27 2.52949e-25 0)
(1.02915e-26 2.12779e-25 0)
(-1.017e-27 1.97304e-25 0)
(-9.67448e-27 2.26633e-25 0)
(-1.07689e-27 2.55242e-25 0)
(6.08475e-27 2.55936e-25 0)
(3.45755e-27 2.56314e-25 0)
(5.71919e-27 2.65948e-25 0)
(8.01669e-27 2.75397e-25 0)
(-6.25905e-28 2.90347e-25 0)
(-7.33001e-27 3.12861e-25 0)
(3.24831e-27 3.24627e-25 0)
(1.39061e-26 3.14859e-25 0)
(6.54453e-27 2.97521e-25 0)
(5.874e-28 2.96037e-25 0)
(-4.13368e-27 3.15735e-25 0)
(-1.98904e-26 3.45233e-25 0)
(-1.61347e-26 3.72394e-25 0)
(2.16993e-27 3.83568e-25 0)
(1.81689e-27 3.82095e-25 0)
(9.1279e-28 3.73508e-25 0)
(4.29881e-27 3.50133e-25 0)
(-4.09618e-27 3.20182e-25 0)
(-7.94186e-27 2.94377e-25 0)
(1.07716e-27 2.63691e-25 0)
(4.8161e-27 2.29402e-25 0)
(-2.99702e-27 2.16095e-25 0)
(2.17651e-27 2.16957e-25 0)
(1.81736e-26 2.01486e-25 0)
(1.14988e-26 1.91966e-25 0)
(-5.9441e-27 2.1554e-25 0)
(-1.06691e-26 2.45194e-25 0)
(-1.10726e-26 2.52452e-25 0)
(-4.55296e-27 2.33491e-25 0)
(1.06546e-26 1.93542e-25 0)
(1.03045e-26 1.54284e-25 0)
(-4.30646e-27 1.49372e-25 0)
(-6.57926e-27 1.82228e-25 0)
(8.15834e-27 2.01936e-25 0)
(7.67034e-27 1.74625e-25 0)
(-1.49691e-26 1.56219e-25 0)
(-1.79564e-26 1.74245e-25 0)
(-7.49898e-27 2.03155e-25 0)
(2.93422e-28 2.50456e-25 0)
(9.46116e-27 2.69615e-25 0)
(6.07734e-27 2.5132e-25 0)
(-2.30015e-26 4.23815e-26 0)
(-8.28484e-27 2.28343e-25 0)
(1.33166e-26 1.53881e-25 0)
(-1.24783e-26 8.24521e-26 0)
(-4.36526e-26 1.40051e-25 0)
(-4.21924e-26 2.68463e-25 0)
(7.76393e-27 2.73541e-25 0)
(3.00118e-26 1.45899e-25 0)
(1.80078e-26 5.16886e-26 0)
(1.05457e-26 5.02793e-26 0)
(4.82398e-27 8.89449e-26 0)
(-1.10961e-26 1.50786e-25 0)
(-1.93428e-26 2.26741e-25 0)
(-8.29144e-27 2.64823e-25 0)
(6.89608e-27 2.41067e-25 0)
(1.05846e-26 1.98111e-25 0)
(4.49496e-29 1.96877e-25 0)
(-8.80831e-27 2.46292e-25 0)
(-7.54887e-28 2.80933e-25 0)
(6.15121e-27 2.67935e-25 0)
(3.52631e-27 2.48873e-25 0)
(6.5334e-27 2.46392e-25 0)
(9.4167e-27 2.54284e-25 0)
(-7.02598e-29 2.75285e-25 0)
(-7.5557e-27 3.05096e-25 0)
(3.84232e-27 3.18754e-25 0)
(1.46938e-26 3.04067e-25 0)
(6.12991e-27 2.79492e-25 0)
(3.50899e-28 2.73681e-25 0)
(-4.10646e-27 2.93414e-25 0)
(-2.12401e-26 3.26194e-25 0)
(-1.68016e-26 3.58246e-25 0)
(3.55886e-27 3.73534e-25 0)
(2.51008e-27 3.75698e-25 0)
(5.07348e-28 3.69389e-25 0)
(3.66853e-27 3.42287e-25 0)
(-5.97359e-27 3.03215e-25 0)
(-1.03171e-26 2.69686e-25 0)
(-9.7634e-29 2.39065e-25 0)
(4.89887e-27 2.16021e-25 0)
(-2.98052e-27 2.22544e-25 0)
(2.16774e-27 2.37632e-25 0)
(1.9198e-26 2.15895e-25 0)
(1.24234e-26 1.85597e-25 0)
(-6.09772e-27 1.92568e-25 0)
(-1.13679e-26 2.20758e-25 0)
(-1.23165e-26 2.41769e-25 0)
(-5.88725e-27 2.41152e-25 0)
(1.01855e-26 2.07565e-25 0)
(1.02351e-26 1.55293e-25 0)
(-4.16044e-27 1.2792e-25 0)
(-6.33612e-27 1.46641e-25 0)
(8.17458e-27 1.70154e-25 0)
(7.57636e-27 1.62578e-25 0)
(-1.53487e-26 1.72436e-25 0)
(-1.79413e-26 2.07054e-25 0)
(-6.85456e-27 2.23657e-25 0)
(1.21962e-27 2.40899e-25 0)
(9.8211e-27 2.35748e-25 0)
(6.99428e-27 2.07655e-25 0)
(-2.47216e-26 -1.06493e-26 0)
(-9.33331e-27 1.85669e-25 0)
(9.56906e-27 1.29458e-25 0)
(-1.57631e-26 7.64035e-26 0)
(-4.341e-26 1.44132e-25 0)
(-4.2142e-26 2.71809e-25 0)
(6.52134e-27 2.62218e-25 0)
(2.8419e-26 1.2143e-25 0)
(1.82693e-26 3.6226e-26 0)
(1.2538e-26 6.01392e-26 0)
(6.76016e-27 1.18203e-25 0)
(-9.52572e-27 1.8312e-25 0)
(-1.84398e-26 2.48928e-25 0)
(-8.52381e-27 2.70747e-25 0)
(6.259e-27 2.34076e-25 0)
(1.10035e-26 1.8999e-25 0)
(1.95601e-27 2.01345e-25 0)
(-7.0937e-27 2.6928e-25 0)
(-4.38908e-28 3.13689e-25 0)
(5.50621e-27 2.9543e-25 0)
(2.84082e-27 2.61739e-25 0)
(6.79895e-27 2.40897e-25 0)
(1.05608e-26 2.31294e-25 0)
(6.24738e-28 2.41717e-25 0)
(-7.4889e-27 2.709e-25 0)
(4.431e-27 2.89537e-25 0)
(1.51563e-26 2.78493e-25 0)
(5.43267e-27 2.53738e-25 0)
(6.60327e-29 2.46249e-25 0)
(-3.79878e-27 2.6604e-25 0)
(-2.19872e-26 3.02406e-25 0)
(-1.7059e-26 3.39708e-25 0)
(4.87404e-27 3.5661e-25 0)
(3.0273e-27 3.55896e-25 0)
(-1.13589e-28 3.44559e-25 0)
(2.69358e-27 3.11632e-25 0)
(-8.01173e-27 2.70696e-25 0)
(-1.25427e-26 2.43918e-25 0)
(-8.99827e-28 2.27376e-25 0)
(5.63791e-27 2.21713e-25 0)
(-2.22903e-27 2.45129e-25 0)
(2.19607e-27 2.68618e-25 0)
(1.93195e-26 2.38569e-25 0)
(1.24098e-26 1.89099e-25 0)
(-6.52872e-27 1.79922e-25 0)
(-1.17035e-26 2.02874e-25 0)
(-1.27514e-26 2.32396e-25 0)
(-6.5419e-27 2.50828e-25 0)
(9.61545e-27 2.34717e-25 0)
(9.40716e-27 1.86341e-25 0)
(-4.78746e-27 1.47058e-25 0)
(-6.48324e-27 1.45327e-25 0)
(8.18229e-27 1.50792e-25 0)
(8.03835e-27 1.38649e-25 0)
(-1.46653e-26 1.64533e-25 0)
(-1.74298e-26 2.19927e-25 0)
(-6.91344e-27 2.35441e-25 0)
(8.00581e-28 2.26101e-25 0)
(8.94606e-27 1.87632e-25 0)
(7.11813e-27 1.28534e-25 0)
(-2.60181e-26 -6.44778e-26 0)
(-9.86746e-27 1.52278e-25 0)
(6.26585e-27 1.06993e-25 0)
(-1.83778e-26 5.64306e-26 0)
(-4.24538e-26 1.21446e-25 0)
(-4.18557e-26 2.51228e-25 0)
(4.74071e-27 2.47772e-25 0)
(2.65756e-26 1.19652e-25 0)
(1.91956e-26 5.64626e-26 0)
(1.53859e-26 9.89643e-26 0)
(9.0602e-27 1.58573e-25 0)
(-8.03151e-27 2.12405e-25 0)
(-1.78259e-26 2.67405e-25 0)
(-9.18809e-27 2.83215e-25 0)
(5.2329e-27 2.42585e-25 0)
(1.14114e-26 1.95413e-25 0)
(4.38693e-27 2.07154e-25 0)
(-4.67891e-27 2.81618e-25 0)
(1.5494e-28 3.35006e-25 0)
(4.59464e-27 3.21951e-25 0)
(1.52648e-27 2.84981e-25 0)
(6.13981e-27 2.47943e-25 0)
(1.07949e-26 2.12545e-25 0)
(9.33339e-28 2.00562e-25 0)
(-7.27016e-27 2.21636e-25 0)
(5.22374e-27 2.44881e-25 0)
(1.56347e-26 2.41673e-25 0)
(4.69635e-27 2.21369e-25 0)
(-1.8869e-28 2.14665e-25 0)
(-3.22282e-27 2.34825e-25 0)
(-2.21833e-26 2.74479e-25 0)
(-1.69935e-26 3.16544e-25 0)
(5.9484e-27 3.33182e-25 0)
(3.11689e-27 3.25857e-25 0)
(-1.11483e-27 3.06032e-25 0)
(1.50652e-27 2.68033e-25 0)
(-9.75125e-27 2.32742e-25 0)
(-1.40538e-26 2.24337e-25 0)
(-1.00026e-27 2.29792e-25 0)
(6.93497e-27 2.39049e-25 0)
(-1.08852e-27 2.68294e-25 0)
(2.09707e-27 2.90612e-25 0)
(1.87383e-26 2.53566e-25 0)
(1.17543e-26 1.96431e-25 0)
(-7.16236e-27 1.82645e-25 0)
(-1.18801e-26 2.02518e-25 0)
(-1.26688e-26 2.32213e-25 0)
(-6.52037e-27 2.58708e-25 0)
(9.43215e-27 2.57726e-25 0)
(8.49416e-27 2.23744e-25 0)
(-5.89973e-27 1.88979e-25 0)
(-7.40961e-27 1.75999e-25 0)
(7.31546e-27 1.55152e-25 0)
(8.13987e-27 1.13718e-25 0)
(-1.34444e-26 1.27498e-25 0)
(-1.62818e-26 1.90555e-25 0)
(-7.12143e-27 2.1677e-25 0)
(-5.94565e-28 2.08249e-25 0)
(6.58427e-27 1.56529e-25 0)
(6.29345e-27 6.69113e-26 0)
(-2.64792e-26 -1.02006e-25 0)
(-9.92312e-27 1.34276e-25 0)
(2.81714e-27 8.22302e-26 0)
(-2.0935e-26 1.64737e-26 0)
(-4.09608e-26 7.33813e-26 0)
(-4.07967e-26 2.16485e-25 0)
(3.39618e-27 2.38986e-25 0)
(2.5139e-26 1.36154e-25 0)
(2.06655e-26 9.00225e-26 0)
(1.84572e-26 1.33726e-25 0)
(1.11637e-26 1.79458e-25 0)
(-6.73392e-27 2.19164e-25 0)
(-1.71787e-26 2.72524e-25 0)
(-9.84482e-27 2.95781e-25 0)
(3.9542e-27 2.59557e-25 0)
(1.14775e-26 2.06895e-25 0)
(6.77047e-27 2.08209e-25 0)
(-1.91218e-27 2.77709e-25 0)
(1.16113e-27 3.34546e-25 0)
(3.83798e-27 3.29194e-25 0)
(-1.02503e-28 2.96638e-25 0)
(4.56697e-27 2.52096e-25 0)
(9.89008e-27 1.97513e-25 0)
(5.63364e-28 1.65182e-25 0)
(-7.09745e-27 1.7506e-25 0)
(6.19072e-27 1.97045e-25 0)
(1.62374e-26 1.96747e-25 0)
(4.05661e-27 1.79436e-25 0)
(-3.39372e-28 1.74604e-25 0)
(-2.39738e-27 1.95807e-25 0)
(-2.19246e-26 2.37687e-25 0)
(-1.66902e-26 2.82776e-25 0)
(6.75064e-27 2.98751e-25 0)
(2.76333e-27 2.87222e-25 0)
(-2.45425e-27 2.63715e-25 0)
(2.83809e-28 2.25927e-25 0)
(-1.09145e-26 1.99918e-25 0)
(-1.46189e-26 2.10045e-25 0)
(-4.04704e-28 2.33306e-25 0)
(8.47009e-27 2.495e-25 0)
(2.2734e-29 2.75532e-25 0)
(1.75445e-27 2.91845e-25 0)
(1.78025e-26 2.51036e-25 0)
(1.10014e-26 1.9638e-25 0)
(-7.65538e-27 1.89751e-25 0)
(-1.19713e-26 2.12678e-25 0)
(-1.24941e-26 2.38898e-25 0)
(-6.24609e-27 2.62221e-25 0)
(9.61428e-27 2.64363e-25 0)
(7.9353e-27 2.40885e-25 0)
(-6.9269e-27 2.19259e-25 0)
(-8.86681e-27 2.10845e-25 0)
(5.1937e-27 1.74028e-25 0)
(6.90056e-27 9.67662e-26 0)
(-1.2743e-26 7.60363e-26 0)
(-1.4803e-26 1.25282e-25 0)
(-6.69689e-27 1.62545e-25 0)
(-1.69672e-27 1.81418e-25 0)
(3.64897e-27 1.49973e-25 0)
(5.10667e-27 5.89072e-26 0)
(-2.6085e-26 -1.18227e-25 0)
(-9.95825e-27 1.22879e-25 0)
(-1.44667e-27 5.04837e-26 0)
(-2.37915e-26 -3.55812e-26 0)
(-3.87707e-26 1.80618e-26 0)
(-3.84242e-26 1.83466e-25 0)
(2.96621e-27 2.36295e-25 0)
(2.40405e-26 1.5193e-25 0)
(2.20726e-26 1.06444e-25 0)
(2.11284e-26 1.35593e-25 0)
(1.28856e-26 1.62296e-25 0)
(-5.36704e-27 1.93616e-25 0)
(-1.60505e-26 2.5481e-25 0)
(-1.01269e-26 2.93039e-25 0)
(2.53161e-27 2.65459e-25 0)
(1.10273e-26 2.09147e-25 0)
(8.76469e-27 1.99248e-25 0)
(8.53911e-28 2.58747e-25 0)
(2.38154e-27 3.10313e-25 0)
(3.28065e-27 3.0496e-25 0)
(-1.76093e-27 2.77066e-25 0)
(2.5387e-27 2.36715e-25 0)
(8.26495e-27 1.81075e-25 0)
(-3.61571e-28 1.42221e-25 0)
(-7.18464e-27 1.42797e-25 0)
(6.98697e-27 1.54745e-25 0)
(1.67302e-26 1.45871e-25 0)
(3.46575e-27 1.24745e-25 0)
(-3.43226e-28 1.20557e-25 0)
(-1.34315e-27 1.43062e-25 0)
(-2.1341e-26 1.85861e-25 0)
(-1.62238e-26 2.32047e-25 0)
(7.41822e-27 2.48481e-25 0)
(2.26827e-27 2.39711e-25 0)
(-3.80789e-27 2.23364e-25 0)
(-7.89987e-28 1.93849e-25 0)
(-1.15835e-26 1.762e-25 0)
(-1.45415e-26 1.94508e-25 0)
(5.30549e-28 2.21774e-25 0)
(9.95526e-27 2.35312e-25 0)
(9.53031e-28 2.56011e-25 0)
(1.2261e-27 2.6929e-25 0)
(1.67688e-26 2.2862e-25 0)
(1.04938e-26 1.79447e-25 0)
(-7.70162e-27 1.83246e-25 0)
(-1.18609e-26 2.13561e-25 0)
(-1.24293e-26 2.38745e-25 0)
(-6.18191e-27 2.54926e-25 0)
(9.71295e-27 2.49047e-25 0)
(7.62791e-27 2.23745e-25 0)
(-7.50327e-27 2.11434e-25 0)
(-1.02449e-26 2.17089e-25 0)
(2.19866e-27 1.82617e-25 0)
(4.06457e-27 8.48885e-26 0)
(-1.33491e-26 3.12698e-26 0)
(-1.3584e-26 5.56988e-26 0)
(-5.34172e-27 9.38386e-26 0)
(-1.38181e-27 1.43925e-25 0)
(1.65366e-27 1.51535e-25 0)
(4.43996e-27 9.46662e-26 0)
(-2.52395e-26 -1.21921e-25 0)
(-1.04999e-26 1.05414e-25 0)
(-6.73001e-27 1.39085e-26 0)
(-2.68293e-26 -8.23319e-26 0)
(-3.5664e-26 -2.39662e-26 0)
(-3.47099e-26 1.60572e-25 0)
(3.14562e-27 2.29711e-25 0)
(2.26814e-26 1.45871e-25 0)
(2.28055e-26 8.69095e-26 0)
(2.31219e-26 9.62675e-26 0)
(1.43515e-26 1.06894e-25 0)
(-3.63658e-27 1.34707e-25 0)
(-1.42037e-26 2.05767e-25 0)
(-9.88963e-27 2.58872e-25 0)
(1.11801e-27 2.4218e-25 0)
(1.02441e-26 1.89222e-25 0)
(1.04003e-26 1.75225e-25 0)
(3.35381e-27 2.24803e-25 0)
(3.37285e-27 2.62825e-25 0)
(2.6337e-27 2.47358e-25 0)
(-3.25505e-27 2.21646e-25 0)
(7.38083e-28 1.95222e-25 0)
(6.69841e-27 1.55849e-25 0)
(-1.43958e-27 1.25193e-25 0)
(-7.67561e-27 1.21055e-25 0)
(7.14958e-27 1.17461e-25 0)
(1.66876e-26 9.03106e-26 0)
(2.71551e-27 5.7761e-26 0)
(-2.40428e-28 5.06372e-26 0)
(-9.67036e-29 7.30235e-26 0)
(-2.05416e-26 1.15729e-25 0)
(-1.56199e-26 1.62665e-25 0)
(8.18742e-27 1.8186e-25 0)
(2.08356e-27 1.82497e-25 0)
(-4.73417e-27 1.82388e-25 0)
(-1.57934e-27 1.66739e-25 0)
(-1.20877e-26 1.54199e-25 0)
(-1.44345e-26 1.68983e-25 0)
(1.28633e-27 1.86814e-25 0)
(1.12226e-26 1.904e-25 0)
(1.83853e-27 2.07215e-25 0)
(7.18536e-28 2.23443e-25 0)
(1.57421e-26 1.86534e-25 0)
(1.02174e-26 1.40694e-25 0)
(-7.28739e-27 1.50002e-25 0)
(-1.14118e-26 1.85936e-25 0)
(-1.23962e-26 2.13152e-25 0)
(-6.51423e-27 2.25411e-25 0)
(9.30759e-27 2.09696e-25 0)
(7.15069e-27 1.74671e-25 0)
(-7.72126e-27 1.61944e-25 0)
(-1.11191e-26 1.78806e-25 0)
(-8.64636e-28 1.58285e-25 0)
(3.55918e-28 6.50289e-26 0)
(-1.50796e-26 4.04059e-27 0)
(-1.29642e-26 1.44063e-26 0)
(-3.4488e-27 4.41424e-26 0)
(4.05236e-28 1.05271e-25 0)
(1.46214e-27 1.39856e-25 0)
(4.64119e-27 1.27699e-25 0)
(-2.44898e-26 -1.29176e-25 0)
(-1.16904e-26 7.52448e-26 0)
(-1.26065e-26 -1.91821e-26 0)
(-2.9682e-26 -1.0896e-25 0)
(-3.17506e-26 -4.46574e-26 0)
(-3.02851e-26 1.4255e-25 0)
(3.13802e-27 2.05969e-25 0)
(2.04702e-26 1.08192e-25 0)
(2.26475e-26 3.29736e-26 0)
(2.4513e-26 2.72554e-26 0)
(1.56774e-26 2.60501e-26 0)
(-1.54756e-27 4.8667e-26 0)
(-1.17232e-26 1.23315e-25 0)
(-9.11061e-27 1.87001e-25 0)
(-3.04789e-29 1.83604e-25 0)
(9.50117e-27 1.41212e-25 0)
(1.18809e-26 1.29531e-25 0)
(5.43248e-27 1.70467e-25 0)
(3.76988e-27 1.92227e-25 0)
(1.66877e-27 1.64478e-25 0)
(-4.44838e-27 1.41432e-25 0)
(-3.47729e-28 1.31996e-25 0)
(5.77454e-27 1.13938e-25 0)
(-2.30877e-27 9.701e-26 0)
(-8.55463e-27 9.27691e-26 0)
(6.44944e-27 7.62425e-26 0)
(1.58049e-26 3.04224e-26 0)
(1.55182e-27 -1.65994e-26 0)
(-1.81181e-28 -3.08466e-26 0)
(1.26532e-27 -1.19409e-26 0)
(-1.95669e-26 2.99308e-26 0)
(-1.48188e-26 7.94047e-26 0)
(9.27846e-27 1.03922e-25 0)
(2.50945e-27 1.15782e-25 0)
(-5.0001e-27 1.32088e-25 0)
(-2.0729e-27 1.2854e-25 0)
(-1.27193e-26 1.17814e-25 0)
(-1.4754e-26 1.24985e-25 0)
(1.51117e-27 1.29839e-25 0)
(1.21821e-26 1.21656e-25 0)
(2.81539e-27 1.34536e-25 0)
(4.1996e-28 1.55305e-25 0)
(1.47445e-26 1.23503e-25 0)
(9.96296e-27 7.83444e-26 0)
(-6.66266e-27 8.64792e-26 0)
(-1.0685e-26 1.2178e-25 0)
(-1.22447e-26 1.50058e-25 0)
(-7.06074e-27 1.64256e-25 0)
(8.40516e-27 1.46866e-25 0)
(6.23288e-27 1.05219e-25 0)
(-7.96657e-27 8.62278e-26 0)
(-1.15491e-26 1.0454e-25 0)
(-3.35765e-27 9.73073e-26 0)
(-3.00767e-27 2.61896e-26 0)
(-1.6809e-26 -1.13951e-26 0)
(-1.26256e-26 1.04146e-26 0)
(-1.68456e-27 3.32193e-26 0)
(2.59878e-27 7.94213e-26 0)
(2.46603e-27 1.07575e-25 0)
(5.15504e-27 1.14485e-25 0)
(-2.41325e-26 -1.53388e-25 0)
(-1.3085e-26 3.45403e-26 0)
(-1.83042e-26 -4.25199e-26 0)
(-3.21448e-26 -1.1447e-25 0)
(-2.76103e-26 -5.25108e-26 0)
(-2.61007e-26 1.16823e-25 0)
(2.24847e-27 1.58674e-25 0)
(1.72406e-26 4.46508e-26 0)
(2.17996e-26 -3.95491e-26 0)
(2.54996e-26 -5.26017e-26 0)
(1.67869e-26 -6.3804e-26 0)
(5.79891e-28 -5.20384e-26 0)
(-8.89232e-27 1.74085e-26 0)
(-7.8014e-27 8.6405e-26 0)
(-7.03319e-28 9.58793e-26 0)
(9.0265e-27 6.50274e-26 0)
(1.33091e-26 5.56271e-26 0)
(7.09841e-27 8.9278e-26 0)
(3.62706e-27 1.00913e-25 0)
(5.00856e-28 6.90604e-26 0)
(-5.27224e-27 5.19802e-26 0)
(-7.2196e-28 5.47226e-26 0)
(5.50009e-27 4.91353e-26 0)
(-2.86482e-27 4.09139e-26 0)
(-9.61119e-27 4.0018e-26 0)
(5.09737e-27 2.03202e-26 0)
(1.41447e-26 -3.45455e-26 0)
(-1.5381e-28 -9.17363e-26 0)
(-3.65616e-28 -1.14632e-25 0)
(2.62395e-27 -1.02666e-25 0)
(-1.83991e-26 -6.24621e-26 0)
(-1.3704e-26 -8.33028e-27 0)
(1.07828e-26 2.23681e-26 0)
(3.48455e-27 4.10275e-26 0)
(-4.79243e-27 6.44869e-26 0)
(-2.44424e-27 6.40238e-26 0)
(-1.35488e-26 5.21873e-26 0)
(-1.54703e-26 5.64516e-26 0)
(1.2499e-27 5.62095e-26 0)
(1.2809e-26 4.07091e-26 0)
(3.80446e-27 4.79061e-26 0)
(2.83401e-28 6.82984e-26 0)
(1.37421e-26 3.80803e-26 0)
(9.57074e-27 -8.07338e-27 0)
(-6.11615e-27 -4.05699e-27 0)
(-9.90292e-27 2.59162e-26 0)
(-1.19116e-26 5.29795e-26 0)
(-7.43386e-27 7.37518e-26 0)
(7.44427e-27 6.54587e-26 0)
(4.99503e-27 2.70116e-26 0)
(-8.51998e-27 3.89626e-27 0)
(-1.18786e-26 1.76557e-26 0)
(-5.13863e-27 1.68347e-26 0)
(-5.13486e-27 -2.99391e-26 0)
(-1.72694e-26 -2.9498e-26 0)
(-1.17592e-26 2.38538e-26 0)
(-3.78951e-28 5.0222e-26 0)
(3.87835e-27 7.06516e-26 0)
(2.9802e-27 6.51393e-26 0)
(5.01e-27 4.96255e-26 0)
(-2.39821e-26 -1.97114e-25 0)
(-1.39095e-26 -1.0095e-26 0)
(-2.32389e-26 -5.95871e-26 0)
(-3.43632e-26 -1.13309e-25 0)
(-2.39841e-26 -6.43312e-26 0)
(-2.28756e-26 7.50963e-26 0)
(2.72171e-28 9.29027e-26 0)
(1.32558e-26 -2.97291e-26 0)
(2.0618e-26 -1.13418e-25 0)
(2.62148e-26 -1.28574e-25 0)
(1.75002e-26 -1.49344e-25 0)
(2.40039e-27 -1.51373e-25 0)
(-5.99387e-27 -9.18899e-26 0)
(-6.10381e-27 -2.35408e-26 0)
(-9.93402e-28 -8.2431e-27 0)
(8.69438e-27 -3.51751e-26 0)
(1.4647e-26 -4.69573e-26 0)
(8.60063e-27 -1.71013e-26 0)
(3.41614e-27 -4.2872e-27 0)
(-5.18271e-28 -2.9116e-26 0)
(-5.79094e-27 -3.84191e-26 0)
(-8.25936e-28 -3.28839e-26 0)
(5.41546e-27 -3.96001e-26 0)
(-3.22187e-27 -4.74916e-26 0)
(-1.05276e-26 -4.30791e-26 0)
(3.63153e-27 -5.51872e-26 0)
(1.21369e-26 -1.05713e-25 0)
(-2.27261e-27 -1.63144e-25 0)
(-8.88951e-28 -1.90799e-25 0)
(3.87294e-27 -1.86181e-25 0)
(-1.70355e-26 -1.48643e-25 0)
(-1.22287e-26 -9.04899e-26 0)
(1.25936e-26 -5.67546e-26 0)
(4.62266e-27 -3.972e-26 0)
(-4.6232e-27 -2.15244e-26 0)
(-3.00892e-27 -2.95918e-26 0)
(-1.44882e-26 -4.52434e-26 0)
(-1.61681e-26 -3.70057e-26 0)
(9.09808e-28 -3.06083e-26 0)
(1.32033e-26 -4.49372e-26 0)
(4.58857e-27 -4.35394e-26 0)
(1.09758e-30 -3.03575e-26 0)
(1.25611e-26 -6.62427e-26 0)
(8.98819e-27 -1.16344e-25 0)
(-5.72994e-27 -1.15134e-25 0)
(-9.16221e-27 -8.80546e-26 0)
(-1.13363e-26 -5.99898e-26 0)
(-7.31003e-27 -2.97549e-26 0)
(6.90923e-27 -2.42168e-26 0)
(3.81312e-27 -5.24045e-26 0)
(-9.3009e-27 -7.26515e-26 0)
(-1.22984e-26 -6.05206e-26 0)
(-6.43162e-27 -5.86682e-26 0)
(-5.95604e-27 -9.02512e-26 0)
(-1.59818e-26 -6.07287e-26 0)
(-9.74214e-27 2.2785e-26 0)
(7.09235e-28 6.11265e-26 0)
(3.75627e-27 6.65417e-26 0)
(1.60934e-27 2.8526e-26 0)
(3.70807e-27 -3.22877e-26 0)
(-2.35013e-26 -2.50553e-25 0)
(-1.36324e-26 -5.4303e-26 0)
(-2.7389e-26 -8.2318e-26 0)
(-3.66593e-26 -1.25221e-25 0)
(-2.12682e-26 -9.3175e-26 0)
(-2.07342e-26 1.88246e-26 0)
(-2.53874e-27 2.13336e-26 0)
(8.90344e-27 -1.00073e-25 0)
(1.93538e-26 -1.77855e-25 0)
(2.67061e-26 -1.93701e-25 0)
(1.77512e-26 -2.22425e-25 0)
(3.8149e-27 -2.35345e-25 0)
(-3.22088e-27 -1.85586e-25 0)
(-4.37893e-27 -1.24055e-25 0)
(-1.38111e-27 -1.14685e-25 0)
(8.12578e-27 -1.48696e-25 0)
(1.58888e-26 -1.66361e-25 0)
(1.03259e-26 -1.35808e-25 0)
(3.6406e-27 -1.14041e-25 0)
(-1.14192e-27 -1.27267e-25 0)
(-6.21466e-27 -1.3128e-25 0)
(-1.16287e-27 -1.30127e-25 0)
(5.07283e-27 -1.44915e-25 0)
(-3.51668e-27 -1.5631e-25 0)
(-1.10532e-26 -1.46107e-25 0)
(2.57389e-27 -1.45476e-25 0)
(1.03357e-26 -1.82712e-25 0)
(-4.42102e-27 -2.29789e-25 0)
(-1.59574e-27 -2.53371e-25 0)
(5.00597e-27 -2.51858e-25 0)
(-1.55649e-26 -2.17745e-25 0)
(-1.05574e-26 -1.60372e-25 0)
(1.44085e-26 -1.3111e-25 0)
(5.45679e-27 -1.24139e-25 0)
(-4.99219e-27 -1.18858e-25 0)
(-4.0627e-27 -1.39933e-25 0)
(-1.54765e-26 -1.61229e-25 0)
(-1.64645e-26 -1.46692e-25 0)
(9.6342e-28 -1.27749e-25 0)
(1.36127e-26 -1.34021e-25 0)
(5.0439e-27 -1.35238e-25 0)
(-7.77805e-28 -1.32047e-25 0)
(1.08987e-26 -1.79374e-25 0)
(8.16247e-27 -2.37058e-25 0)
(-5.30511e-27 -2.35885e-25 0)
(-8.19053e-27 -2.03046e-25 0)
(-1.03232e-26 -1.66195e-25 0)
(-6.58171e-27 -1.25074e-25 0)
(6.94218e-27 -1.08913e-25 0)
(2.98094e-27 -1.27915e-25 0)
(-9.94549e-27 -1.39888e-25 0)
(-1.26307e-26 -1.21224e-25 0)
(-7.47766e-27 -1.14398e-25 0)
(-6.08937e-27 -1.41683e-25 0)
(-1.3563e-26 -1.05821e-25 0)
(-6.70928e-27 -1.30016e-26 0)
(2.09356e-27 3.5359e-26 0)
(2.95949e-27 4.66742e-26 0)
(-1.55797e-27 3.33388e-27 0)
(1.69163e-27 -8.78532e-26 0)
(-2.22127e-26 -2.97681e-25 0)
(-1.24042e-26 -9.83379e-26 0)
(-3.12356e-26 -1.21169e-25 0)
(-3.92473e-26 -1.61191e-25 0)
(-1.92855e-26 -1.41532e-25 0)