/*--------------------------------*- C++ -*----------------------------------*\
| =========                 |                                                 |
| \\      /  F ield         | foam-extend: Open Source CFD                    |
|  \\    /   O peration     | Version:     4.0                                |
|   \\  /    A nd           | Web:         http://www.foam-extend.org         |
|    \\/     M anipulation  |                                                 |
\*---------------------------------------------------------------------------*/
FoamFile
{
    version     2.0;
    format      ascii;
    class       volScalarField;
    location    "24";
    object      C2;
}
// * * * * * * * * * * * * * * * * * * * * * * * * * * * * * * * * * * * * * //

dimensions      [0 0 0 0 0 0 0];

internalField   nonuniform List<scalar> 
6960
(
1.01514e-09
1.01512e-09
1.0151e-09
1.01507e-09
1.01504e-09
1.01502e-09
1.01501e-09
1.015e-09
1.01499e-09
1.01499e-09
1.01498e-09
1.01498e-09
1.01499e-09
1.01499e-09
1.01499e-09
1.015e-09
1.015e-09
1.015e-09
1.01501e-09
1.01501e-09
1.01502e-09
1.01502e-09
1.01502e-09
1.01503e-09
1.01503e-09
1.01503e-09
1.01503e-09
1.01504e-09
1.01504e-09
1.01504e-09
1.01504e-09
1.01504e-09
1.01504e-09
1.01503e-09
1.01503e-09
1.01503e-09
1.01503e-09
1.01502e-09
1.01502e-09
1.01502e-09
1.01501e-09
1.01501e-09
1.015e-09
1.015e-09
1.015e-09
1.01499e-09
1.01499e-09
1.01499e-09
1.01498e-09
1.01498e-09
1.01499e-09
1.01499e-09
1.015e-09
1.01501e-09
1.01502e-09
1.01504e-09
1.01507e-09
1.0151e-09
1.01512e-09
1.01514e-09
3.46371e-09
3.46365e-09
3.46356e-09
3.46345e-09
3.46335e-09
3.46327e-09
3.46321e-09
3.46316e-09
3.46313e-09
3.46312e-09
3.46311e-09
3.46311e-09
3.46311e-09
3.46312e-09
3.46313e-09
3.46315e-09
3.46317e-09
3.46318e-09
3.4632e-09
3.46322e-09
3.46323e-09
3.46325e-09
3.46326e-09
3.46328e-09
3.46329e-09
3.4633e-09
3.46331e-09
3.46331e-09
3.46332e-09
3.46332e-09
3.46332e-09
3.46332e-09
3.46331e-09
3.46331e-09
3.4633e-09
3.46329e-09
3.46328e-09
3.46326e-09
3.46325e-09
3.46323e-09
3.46322e-09
3.4632e-09
3.46318e-09
3.46317e-09
3.46315e-09
3.46313e-09
3.46312e-09
3.46311e-09
3.46311e-09
3.46311e-09
3.46312e-09
3.46313e-09
3.46316e-09
3.46321e-09
3.46327e-09
3.46335e-09
3.46345e-09
3.46356e-09
3.46365e-09
3.46371e-09
9.32588e-09
9.3257e-09
9.3254e-09
9.32506e-09
9.32475e-09
9.32449e-09
9.32428e-09
9.32413e-09
9.32403e-09
9.32397e-09
9.32394e-09
9.32394e-09
9.32395e-09
9.32398e-09
9.32402e-09
9.32407e-09
9.32412e-09
9.32418e-09
9.32423e-09
9.32429e-09
9.32434e-09
9.32439e-09
9.32444e-09
9.32449e-09
9.32452e-09
9.32456e-09
9.32458e-09
9.3246e-09
9.32462e-09
9.32462e-09
9.32462e-09
9.32462e-09
9.3246e-09
9.32458e-09
9.32456e-09
9.32452e-09
9.32449e-09
9.32444e-09
9.32439e-09
9.32434e-09
9.32429e-09
9.32423e-09
9.32418e-09
9.32412e-09
9.32407e-09
9.32402e-09
9.32398e-09
9.32395e-09
9.32394e-09
9.32394e-09
9.32397e-09
9.32403e-09
9.32413e-09
9.32428e-09
9.32449e-09
9.32475e-09
9.32506e-09
9.3254e-09
9.3257e-09
9.32588e-09
2.32213e-08
2.32208e-08
2.32199e-08
2.32189e-08
2.3218e-08
2.32173e-08
2.32166e-08
2.32162e-08
2.32159e-08
2.32157e-08
2.32156e-08
2.32156e-08
2.32156e-08
2.32157e-08
2.32158e-08
2.3216e-08
2.32161e-08
2.32163e-08
2.32165e-08
2.32166e-08
2.32168e-08
2.32169e-08
2.32171e-08
2.32172e-08
2.32173e-08
2.32174e-08
2.32175e-08
2.32176e-08
2.32176e-08
2.32176e-08
2.32176e-08
2.32176e-08
2.32176e-08
2.32175e-08
2.32174e-08
2.32173e-08
2.32172e-08
2.32171e-08
2.32169e-08
2.32168e-08
2.32166e-08
2.32165e-08
2.32163e-08
2.32161e-08
2.3216e-08
2.32158e-08
2.32157e-08
2.32156e-08
2.32156e-08
2.32156e-08
2.32157e-08
2.32159e-08
2.32162e-08
2.32166e-08
2.32173e-08
2.3218e-08
2.32189e-08
2.32199e-08
2.32208e-08
2.32213e-08
5.62673e-08
5.62659e-08
5.62635e-08
5.62607e-08
5.62582e-08
5.6256e-08
5.62542e-08
5.62529e-08
5.6252e-08
5.62515e-08
5.62512e-08
5.62511e-08
5.62512e-08
5.62515e-08
5.62518e-08
5.62522e-08
5.62526e-08
5.62531e-08
5.62536e-08
5.62541e-08
5.62545e-08
5.6255e-08
5.62554e-08
5.62558e-08
5.62561e-08
5.62564e-08
5.62566e-08
5.62568e-08
5.62569e-08
5.6257e-08
5.6257e-08
5.62569e-08
5.62568e-08
5.62566e-08
5.62564e-08
5.62561e-08
5.62558e-08
5.62554e-08
5.6255e-08
5.62545e-08
5.62541e-08
5.62536e-08
5.62531e-08
5.62526e-08
5.62522e-08
5.62518e-08
5.62515e-08
5.62512e-08
5.62511e-08
5.62512e-08
5.62515e-08
5.6252e-08
5.62529e-08
5.62542e-08
5.6256e-08
5.62582e-08
5.62607e-08
5.62635e-08
5.62659e-08
5.62673e-08
1.3522e-07
1.35216e-07
1.3521e-07
1.35202e-07
1.35195e-07
1.35189e-07
1.35184e-07
1.35181e-07
1.35178e-07
1.35177e-07
1.35176e-07
1.35176e-07
1.35176e-07
1.35176e-07
1.35177e-07
1.35178e-07
1.3518e-07
1.35181e-07
1.35182e-07
1.35184e-07
1.35185e-07
1.35186e-07
1.35187e-07
1.35188e-07
1.35189e-07
1.3519e-07
1.35191e-07
1.35191e-07
1.35192e-07
1.35192e-07
1.35192e-07
1.35192e-07
1.35191e-07
1.35191e-07
1.3519e-07
1.35189e-07
1.35188e-07
1.35187e-07
1.35186e-07
1.35185e-07
1.35184e-07
1.35182e-07
1.35181e-07
1.3518e-07
1.35178e-07
1.35177e-07
1.35176e-07
1.35176e-07
1.35176e-07
1.35176e-07
1.35177e-07
1.35178e-07
1.35181e-07
1.35184e-07
1.35189e-07
1.35195e-07
1.35202e-07
1.3521e-07
1.35216e-07
1.3522e-07
3.24494e-07
3.24484e-07
3.24467e-07
3.24447e-07
3.24428e-07
3.24411e-07
3.24398e-07
3.24388e-07
3.24381e-07
3.24377e-07
3.24375e-07
3.24374e-07
3.24375e-07
3.24376e-07
3.24379e-07
3.24382e-07
3.24385e-07
3.24388e-07
3.24392e-07
3.24396e-07
3.24399e-07
3.24403e-07
3.24406e-07
3.24409e-07
3.24411e-07
3.24413e-07
3.24415e-07
3.24417e-07
3.24417e-07
3.24418e-07
3.24418e-07
3.24417e-07
3.24417e-07
3.24415e-07
3.24413e-07
3.24411e-07
3.24409e-07
3.24406e-07
3.24403e-07
3.24399e-07
3.24396e-07
3.24392e-07
3.24388e-07
3.24385e-07
3.24382e-07
3.24379e-07
3.24376e-07
3.24375e-07
3.24374e-07
3.24375e-07
3.24377e-07
3.24381e-07
3.24388e-07
3.24398e-07
3.24411e-07
3.24428e-07
3.24447e-07
3.24467e-07
3.24484e-07
3.24494e-07
7.78896e-07
7.78869e-07
7.78823e-07
7.7877e-07
7.78719e-07
7.78675e-07
7.7864e-07
7.78613e-07
7.78594e-07
7.78583e-07
7.78576e-07
7.78574e-07
7.78576e-07
7.7858e-07
7.78587e-07
7.78595e-07
7.78604e-07
7.78613e-07
7.78623e-07
7.78633e-07
7.78642e-07
7.78651e-07
7.7866e-07
7.78668e-07
7.78674e-07
7.7868e-07
7.78685e-07
7.78689e-07
7.78691e-07
7.78692e-07
7.78692e-07
7.78691e-07
7.78689e-07
7.78685e-07
7.7868e-07
7.78674e-07
7.78668e-07
7.7866e-07
7.78651e-07
7.78642e-07
7.78633e-07
7.78623e-07
7.78613e-07
7.78604e-07
7.78595e-07
7.78587e-07
7.7858e-07
7.78576e-07
7.78574e-07
7.78576e-07
7.78583e-07
7.78594e-07
7.78613e-07
7.7864e-07
7.78675e-07
7.78719e-07
7.7877e-07
7.78823e-07
7.78869e-07
7.78896e-07
1.86875e-06
1.86868e-06
1.86856e-06
1.86842e-06
1.86829e-06
1.86817e-06
1.86808e-06
1.86801e-06
1.86796e-06
1.86793e-06
1.86791e-06
1.86791e-06
1.86791e-06
1.86792e-06
1.86794e-06
1.86796e-06
1.86798e-06
1.86801e-06
1.86803e-06
1.86806e-06
1.86809e-06
1.86811e-06
1.86813e-06
1.86815e-06
1.86817e-06
1.86819e-06
1.8682e-06
1.86821e-06
1.86822e-06
1.86822e-06
1.86822e-06
1.86822e-06
1.86821e-06
1.8682e-06
1.86819e-06
1.86817e-06
1.86815e-06
1.86813e-06
1.86811e-06
1.86809e-06
1.86806e-06
1.86803e-06
1.86801e-06
1.86798e-06
1.86796e-06
1.86794e-06
1.86792e-06
1.86791e-06
1.86791e-06
1.86791e-06
1.86793e-06
1.86796e-06
1.86801e-06
1.86808e-06
1.86817e-06
1.86829e-06
1.86842e-06
1.86856e-06
1.86868e-06
1.86875e-06
4.47286e-06
4.47268e-06
4.47238e-06
4.47202e-06
4.47167e-06
4.47137e-06
4.47113e-06
4.47095e-06
4.47082e-06
4.47073e-06
4.47069e-06
4.47068e-06
4.47069e-06
4.47072e-06
4.47076e-06
4.47081e-06
4.47087e-06
4.47094e-06
4.47101e-06
4.47107e-06
4.47114e-06
4.4712e-06
4.47126e-06
4.47131e-06
4.47136e-06
4.4714e-06
4.47143e-06
4.47146e-06
4.47148e-06
4.47148e-06
4.47148e-06
4.47148e-06
4.47146e-06
4.47143e-06
4.4714e-06
4.47136e-06
4.47131e-06
4.47126e-06
4.4712e-06
4.47114e-06
4.47107e-06
4.47101e-06
4.47094e-06
4.47087e-06
4.47081e-06
4.47076e-06
4.47072e-06
4.47069e-06
4.47068e-06
4.47069e-06
4.47073e-06
4.47082e-06
4.47095e-06
4.47113e-06
4.47137e-06
4.47167e-06
4.47202e-06
4.47238e-06
4.47268e-06
4.47286e-06
1.06515e-05
1.0651e-05
1.06503e-05
1.06494e-05
1.06485e-05
1.06477e-05
1.06471e-05
1.06466e-05
1.06463e-05
1.06461e-05
1.0646e-05
1.06459e-05
1.0646e-05
1.0646e-05
1.06461e-05
1.06463e-05
1.06464e-05
1.06466e-05
1.06468e-05
1.06469e-05
1.06471e-05
1.06473e-05
1.06474e-05
1.06476e-05
1.06477e-05
1.06478e-05
1.06479e-05
1.06479e-05
1.0648e-05
1.0648e-05
1.0648e-05
1.0648e-05
1.06479e-05
1.06479e-05
1.06478e-05
1.06477e-05
1.06476e-05
1.06474e-05
1.06473e-05
1.06471e-05
1.06469e-05
1.06468e-05
1.06466e-05
1.06464e-05
1.06463e-05
1.06461e-05
1.0646e-05
1.0646e-05
1.06459e-05
1.0646e-05
1.06461e-05
1.06463e-05
1.06466e-05
1.06471e-05
1.06477e-05
1.06485e-05
1.06494e-05
1.06503e-05
1.0651e-05
1.06515e-05
2.51534e-05
2.51522e-05
2.51503e-05
2.5148e-05
2.51458e-05
2.51439e-05
2.51424e-05
2.51412e-05
2.51404e-05
2.51398e-05
2.51395e-05
2.51394e-05
2.51395e-05
2.51397e-05
2.514e-05
2.51403e-05
2.51407e-05
2.51411e-05
2.51415e-05
2.5142e-05
2.51424e-05
2.51428e-05
2.51432e-05
2.51435e-05
2.51438e-05
2.51441e-05
2.51443e-05
2.51444e-05
2.51446e-05
2.51446e-05
2.51446e-05
2.51446e-05
2.51444e-05
2.51443e-05
2.51441e-05
2.51438e-05
2.51435e-05
2.51432e-05
2.51428e-05
2.51424e-05
2.5142e-05
2.51415e-05
2.51411e-05
2.51407e-05
2.51403e-05
2.514e-05
2.51397e-05
2.51395e-05
2.51394e-05
2.51395e-05
2.51398e-05
2.51404e-05
2.51412e-05
2.51424e-05
2.51439e-05
2.51458e-05
2.5148e-05
2.51503e-05
2.51522e-05
2.51534e-05
5.86764e-05
5.86736e-05
5.86689e-05
5.86634e-05
5.86581e-05
5.86534e-05
5.86496e-05
5.86467e-05
5.86447e-05
5.86433e-05
5.86426e-05
5.86424e-05
5.86425e-05
5.8643e-05
5.86437e-05
5.86445e-05
5.86454e-05
5.86465e-05
5.86475e-05
5.86486e-05
5.86496e-05
5.86506e-05
5.86515e-05
5.86523e-05
5.86531e-05
5.86537e-05
5.86542e-05
5.86546e-05
5.86549e-05
5.8655e-05
5.8655e-05
5.86549e-05
5.86546e-05
5.86542e-05
5.86537e-05
5.86531e-05
5.86523e-05
5.86515e-05
5.86506e-05
5.86496e-05
5.86486e-05
5.86475e-05
5.86465e-05
5.86454e-05
5.86445e-05
5.86437e-05
5.8643e-05
5.86425e-05
5.86424e-05
5.86426e-05
5.86433e-05
5.86447e-05
5.86467e-05
5.86496e-05
5.86534e-05
5.86581e-05
5.86634e-05
5.86689e-05
5.86736e-05
5.86764e-05
0.00013461
0.000134603
0.000134592
0.000134579
0.000134566
0.000134555
0.000134546
0.000134539
0.000134534
0.000134531
0.00013453
0.000134529
0.000134529
0.00013453
0.000134532
0.000134534
0.000134536
0.000134539
0.000134541
0.000134544
0.000134546
0.000134549
0.000134551
0.000134553
0.000134554
0.000134556
0.000134557
0.000134558
0.000134559
0.000134559
0.000134559
0.000134559
0.000134558
0.000134557
0.000134556
0.000134554
0.000134553
0.000134551
0.000134549
0.000134546
0.000134544
0.000134541
0.000134539
0.000134536
0.000134534
0.000134532
0.00013453
0.000134529
0.000134529
0.00013453
0.000134531
0.000134534
0.000134539
0.000134546
0.000134555
0.000134566
0.000134579
0.000134592
0.000134603
0.00013461
0.000302149
0.000302134
0.000302108
0.000302078
0.000302049
0.000302024
0.000302003
0.000301987
0.000301976
0.000301968
0.000301964
0.000301963
0.000301964
0.000301966
0.00030197
0.000301974
0.00030198
0.000301985
0.000301991
0.000301997
0.000302002
0.000302008
0.000302013
0.000302017
0.000302022
0.000302025
0.000302028
0.00030203
0.000302032
0.000302032
0.000302032
0.000302032
0.00030203
0.000302028
0.000302025
0.000302022
0.000302017
0.000302013
0.000302008
0.000302002
0.000301997
0.000301991
0.000301985
0.00030198
0.000301974
0.00030197
0.000301966
0.000301964
0.000301963
0.000301964
0.000301968
0.000301976
0.000301987
0.000302003
0.000302024
0.000302049
0.000302078
0.000302108
0.000302134
0.000302149
0.000659753
0.00065972
0.000659664
0.000659598
0.000659534
0.000659477
0.000659431
0.000659396
0.000659371
0.000659355
0.000659346
0.000659343
0.000659344
0.00065935
0.000659358
0.000659368
0.000659379
0.000659392
0.000659404
0.000659417
0.00065943
0.000659442
0.000659453
0.000659463
0.000659472
0.00065948
0.000659486
0.000659491
0.000659494
0.000659496
0.000659496
0.000659494
0.000659491
0.000659486
0.00065948
0.000659472
0.000659463
0.000659453
0.000659442
0.00065943
0.000659417
0.000659404
0.000659392
0.000659379
0.000659368
0.000659358
0.00065935
0.000659344
0.000659343
0.000659346
0.000659355
0.000659371
0.000659396
0.000659431
0.000659477
0.000659534
0.000659598
0.000659664
0.00065972
0.000659753
0.00139234
0.00139227
0.00139215
0.00139202
0.00139188
0.00139176
0.00139166
0.00139159
0.00139154
0.0013915
0.00139148
0.00139148
0.00139148
0.00139149
0.00139151
0.00139153
0.00139155
0.00139158
0.00139161
0.00139163
0.00139166
0.00139169
0.00139171
0.00139173
0.00139175
0.00139177
0.00139178
0.00139179
0.0013918
0.0013918
0.0013918
0.0013918
0.00139179
0.00139178
0.00139177
0.00139175
0.00139173
0.00139171
0.00139169
0.00139166
0.00139163
0.00139161
0.00139158
0.00139155
0.00139153
0.00139151
0.00139149
0.00139148
0.00139148
0.00139148
0.0013915
0.00139154
0.00139159
0.00139166
0.00139176
0.00139188
0.00139202
0.00139215
0.00139227
0.00139234
0.00281997
0.00281984
0.0028196
0.00281932
0.00281905
0.00281881
0.00281862
0.00281847
0.00281836
0.0028183
0.00281826
0.00281824
0.00281825
0.00281827
0.00281831
0.00281835
0.0028184
0.00281845
0.0028185
0.00281856
0.00281861
0.00281866
0.00281871
0.00281875
0.00281879
0.00281882
0.00281885
0.00281887
0.00281889
0.00281889
0.00281889
0.00281889
0.00281887
0.00281885
0.00281882
0.00281879
0.00281875
0.00281871
0.00281866
0.00281861
0.00281856
0.0028185
0.00281845
0.0028184
0.00281835
0.00281831
0.00281827
0.00281825
0.00281824
0.00281826
0.0028183
0.00281836
0.00281847
0.00281862
0.00281881
0.00281905
0.00281932
0.0028196
0.00281984
0.00281997
0.00544102
0.00544077
0.00544033
0.00543981
0.0054393
0.00543886
0.00543849
0.00543822
0.00543802
0.00543789
0.00543781
0.00543779
0.0054378
0.00543784
0.00543791
0.00543799
0.00543808
0.00543818
0.00543828
0.00543838
0.00543848
0.00543857
0.00543866
0.00543874
0.00543881
0.00543888
0.00543893
0.00543896
0.00543899
0.005439
0.005439
0.00543899
0.00543896
0.00543893
0.00543888
0.00543881
0.00543874
0.00543866
0.00543857
0.00543848
0.00543838
0.00543828
0.00543818
0.00543808
0.00543799
0.00543791
0.00543784
0.0054378
0.00543779
0.00543781
0.00543789
0.00543802
0.00543822
0.00543849
0.00543886
0.0054393
0.00543981
0.00544033
0.00544077
0.00544102
0.00993054
0.00993009
0.00992933
0.00992843
0.00992755
0.00992678
0.00992614
0.00992566
0.00992531
0.00992509
0.00992496
0.00992492
0.00992494
0.00992501
0.00992512
0.00992526
0.00992542
0.00992559
0.00992576
0.00992594
0.00992611
0.00992628
0.00992643
0.00992657
0.0099267
0.00992681
0.00992689
0.00992696
0.009927
0.00992703
0.00992703
0.009927
0.00992696
0.00992689
0.00992681
0.0099267
0.00992657
0.00992643
0.00992628
0.00992611
0.00992594
0.00992576
0.00992559
0.00992542
0.00992526
0.00992512
0.00992501
0.00992494
0.00992492
0.00992496
0.00992509
0.00992531
0.00992566
0.00992614
0.00992678
0.00992755
0.00992843
0.00992933
0.00993009
0.00993054
0.017043
0.0170423
0.0170411
0.0170396
0.0170382
0.017037
0.0170359
0.0170352
0.0170346
0.0170342
0.017034
0.017034
0.017034
0.0170341
0.0170343
0.0170345
0.0170348
0.017035
0.0170353
0.0170356
0.0170359
0.0170362
0.0170364
0.0170366
0.0170368
0.017037
0.0170371
0.0170372
0.0170373
0.0170374
0.0170374
0.0170373
0.0170372
0.0170371
0.017037
0.0170368
0.0170366
0.0170364
0.0170362
0.0170359
0.0170356
0.0170353
0.017035
0.0170348
0.0170345
0.0170343
0.0170341
0.017034
0.017034
0.017034
0.0170342
0.0170346
0.0170352
0.0170359
0.017037
0.0170382
0.0170396
0.0170411
0.0170423
0.017043
0.0274032
0.0274022
0.0274004
0.0273983
0.0273962
0.0273943
0.0273928
0.0273917
0.0273909
0.0273903
0.02739
0.0273899
0.02739
0.0273901
0.0273904
0.0273907
0.0273911
0.0273915
0.0273919
0.0273923
0.0273927
0.0273931
0.0273935
0.0273938
0.0273941
0.0273944
0.0273946
0.0273948
0.0273949
0.0273949
0.0273949
0.0273949
0.0273948
0.0273946
0.0273944
0.0273941
0.0273938
0.0273935
0.0273931
0.0273927
0.0273923
0.0273919
0.0273915
0.0273911
0.0273907
0.0273904
0.0273901
0.02739
0.0273899
0.02739
0.0273903
0.0273909
0.0273917
0.0273928
0.0273943
0.0273962
0.0273983
0.0274004
0.0274022
0.0274032
0.0412616
0.0412602
0.0412577
0.0412548
0.041252
0.0412495
0.0412474
0.0412459
0.0412447
0.041244
0.0412436
0.0412434
0.0412435
0.0412437
0.0412441
0.0412445
0.041245
0.0412456
0.0412462
0.0412467
0.0412473
0.0412478
0.0412483
0.0412488
0.0412492
0.0412495
0.0412498
0.04125
0.0412502
0.0412503
0.0412503
0.0412502
0.04125
0.0412498
0.0412495
0.0412492
0.0412488
0.0412483
0.0412478
0.0412473
0.0412467
0.0412462
0.0412456
0.041245
0.0412445
0.0412441
0.0412437
0.0412435
0.0412434
0.0412436
0.041244
0.0412447
0.0412459
0.0412474
0.0412495
0.041252
0.0412548
0.0412577
0.0412602
0.0412616
0.0583676
0.0583658
0.0583627
0.0583591
0.0583555
0.0583523
0.0583497
0.0583477
0.0583462
0.0583453
0.0583448
0.0583446
0.0583446
0.0583449
0.0583454
0.058346
0.0583466
0.0583473
0.058348
0.0583488
0.0583495
0.0583502
0.0583508
0.0583514
0.0583519
0.0583523
0.0583527
0.058353
0.0583532
0.0583533
0.0583533
0.0583532
0.058353
0.0583527
0.0583523
0.0583519
0.0583514
0.0583508
0.0583502
0.0583495
0.0583488
0.058348
0.0583473
0.0583466
0.058346
0.0583454
0.0583449
0.0583446
0.0583446
0.0583448
0.0583453
0.0583462
0.0583477
0.0583497
0.0583523
0.0583555
0.0583591
0.0583627
0.0583658
0.0583676
0.0780699
0.0780678
0.0780641
0.0780597
0.0780554
0.0780516
0.0780484
0.078046
0.0780443
0.0780431
0.0780425
0.0780423
0.0780424
0.0780427
0.0780433
0.0780439
0.0780447
0.0780456
0.0780464
0.0780473
0.0780482
0.078049
0.0780498
0.0780505
0.0780511
0.0780516
0.078052
0.0780524
0.0780526
0.0780527
0.0780527
0.0780526
0.0780524
0.078052
0.0780516
0.0780511
0.0780505
0.0780498
0.078049
0.0780482
0.0780473
0.0780464
0.0780456
0.0780447
0.0780439
0.0780433
0.0780427
0.0780424
0.0780423
0.0780425
0.0780431
0.0780443
0.078046
0.0780484
0.0780516
0.0780554
0.0780597
0.0780641
0.0780678
0.0780699
0.0995832
0.0995808
0.0995765
0.0995715
0.0995666
0.0995622
0.0995586
0.0995558
0.0995538
0.0995525
0.0995518
0.0995515
0.0995516
0.099552
0.0995526
0.0995534
0.0995543
0.0995553
0.0995563
0.0995573
0.0995583
0.0995592
0.0995601
0.0995609
0.0995616
0.0995622
0.0995627
0.0995631
0.0995634
0.0995635
0.0995635
0.0995634
0.0995631
0.0995627
0.0995622
0.0995616
0.0995609
0.0995601
0.0995592
0.0995583
0.0995573
0.0995563
0.0995553
0.0995543
0.0995534
0.0995526
0.099552
0.0995516
0.0995515
0.0995518
0.0995525
0.0995538
0.0995558
0.0995586
0.0995622
0.0995666
0.0995715
0.0995765
0.0995808
0.0995832
0.122248
0.122245
0.122241
0.122235
0.12223
0.122225
0.122221
0.122218
0.122215
0.122214
0.122213
0.122213
0.122213
0.122213
0.122214
0.122215
0.122216
0.122217
0.122218
0.122219
0.12222
0.122221
0.122222
0.122223
0.122224
0.122225
0.122225
0.122226
0.122226
0.122226
0.122226
0.122226
0.122226
0.122225
0.122225
0.122224
0.122223
0.122222
0.122221
0.12222
0.122219
0.122218
0.122217
0.122216
0.122215
0.122214
0.122213
0.122213
0.122213
0.122213
0.122214
0.122215
0.122218
0.122221
0.122225
0.12223
0.122235
0.122241
0.122245
0.122248
0.145654
0.145651
0.145646
0.14564
0.145634
0.145628
0.145624
0.14562
0.145618
0.145616
0.145615
0.145615
0.145615
0.145616
0.145616
0.145617
0.145618
0.14562
0.145621
0.145622
0.145623
0.145624
0.145626
0.145627
0.145627
0.145628
0.145629
0.145629
0.14563
0.14563
0.14563
0.14563
0.145629
0.145629
0.145628
0.145627
0.145627
0.145626
0.145624
0.145623
0.145622
0.145621
0.14562
0.145618
0.145617
0.145616
0.145616
0.145615
0.145615
0.145615
0.145616
0.145618
0.14562
0.145624
0.145628
0.145634
0.14564
0.145646
0.145651
0.145654
0.169621
0.169618
0.169612
0.169606
0.169599
0.169593
0.169588
0.169585
0.169582
0.16958
0.169579
0.169579
0.169579
0.169579
0.16958
0.169581
0.169583
0.169584
0.169585
0.169587
0.169588
0.169589
0.16959
0.169591
0.169592
0.169593
0.169594
0.169594
0.169595
0.169595
0.169595
0.169595
0.169594
0.169594
0.169593
0.169592
0.169591
0.16959
0.169589
0.169588
0.169587
0.169585
0.169584
0.169583
0.169581
0.16958
0.169579
0.169579
0.169579
0.169579
0.16958
0.169582
0.169585
0.169588
0.169593
0.169599
0.169606
0.169612
0.169618
0.169621
0.194121
0.194117
0.194111
0.194104
0.194097
0.194091
0.194086
0.194081
0.194079
0.194077
0.194075
0.194075
0.194075
0.194076
0.194077
0.194078
0.194079
0.19408
0.194082
0.194083
0.194085
0.194086
0.194088
0.194089
0.19409
0.194091
0.194091
0.194092
0.194092
0.194092
0.194092
0.194092
0.194092
0.194091
0.194091
0.19409
0.194089
0.194088
0.194086
0.194085
0.194083
0.194082
0.19408
0.194079
0.194078
0.194077
0.194076
0.194075
0.194075
0.194075
0.194077
0.194079
0.194081
0.194086
0.194091
0.194097
0.194104
0.194111
0.194117
0.194121
0.219194
0.21919
0.219184
0.219176
0.219168
0.219162
0.219156
0.219152
0.219148
0.219146
0.219145
0.219145
0.219145
0.219145
0.219146
0.219147
0.219149
0.21915
0.219152
0.219154
0.219155
0.219157
0.219158
0.219159
0.21916
0.219161
0.219162
0.219163
0.219163
0.219163
0.219163
0.219163
0.219163
0.219162
0.219161
0.21916
0.219159
0.219158
0.219157
0.219155
0.219154
0.219152
0.21915
0.219149
0.219147
0.219146
0.219145
0.219145
0.219145
0.219145
0.219146
0.219148
0.219152
0.219156
0.219162
0.219168
0.219176
0.219184
0.21919
0.219194
0.2449
0.244896
0.244889
0.244881
0.244873
0.244866
0.24486
0.244855
0.244851
0.244849
0.244848
0.244847
0.244847
0.244848
0.244849
0.24485
0.244852
0.244854
0.244855
0.244857
0.244859
0.24486
0.244862
0.244863
0.244864
0.244865
0.244866
0.244867
0.244867
0.244868
0.244868
0.244867
0.244867
0.244866
0.244865
0.244864
0.244863
0.244862
0.24486
0.244859
0.244857
0.244855
0.244854
0.244852
0.24485
0.244849
0.244848
0.244847
0.244847
0.244848
0.244849
0.244851
0.244855
0.24486
0.244866
0.244873
0.244881
0.244889
0.244896
0.2449
0.271297
0.271292
0.271285
0.271276
0.271268
0.27126
0.271253
0.271248
0.271245
0.271242
0.271241
0.27124
0.27124
0.271241
0.271242
0.271243
0.271245
0.271247
0.271249
0.27125
0.271252
0.271254
0.271256
0.271257
0.271258
0.271259
0.27126
0.271261
0.271261
0.271262
0.271262
0.271261
0.271261
0.27126
0.271259
0.271258
0.271257
0.271256
0.271254
0.271252
0.27125
0.271249
0.271247
0.271245
0.271243
0.271242
0.271241
0.27124
0.27124
0.271241
0.271242
0.271245
0.271248
0.271253
0.27126
0.271268
0.271276
0.271285
0.271292
0.271297
0.298431
0.298426
0.298419
0.298409
0.2984
0.298392
0.298385
0.298379
0.298375
0.298373
0.298371
0.29837
0.298371
0.298371
0.298372
0.298374
0.298376
0.298378
0.29838
0.298381
0.298383
0.298385
0.298387
0.298389
0.29839
0.298391
0.298392
0.298393
0.298393
0.298394
0.298394
0.298393
0.298393
0.298392
0.298391
0.29839
0.298389
0.298387
0.298385
0.298383
0.298381
0.29838
0.298378
0.298376
0.298374
0.298372
0.298371
0.298371
0.29837
0.298371
0.298373
0.298375
0.298379
0.298385
0.298392
0.2984
0.298409
0.298419
0.298426
0.298431
0.326342
0.326338
0.32633
0.32632
0.32631
0.326301
0.326294
0.326288
0.326284
0.326281
0.326279
0.326278
0.326278
0.326279
0.32628
0.326282
0.326284
0.326286
0.326288
0.32629
0.326292
0.326294
0.326296
0.326298
0.326299
0.3263
0.326301
0.326302
0.326303
0.326303
0.326303
0.326303
0.326302
0.326301
0.3263
0.326299
0.326298
0.326296
0.326294
0.326292
0.32629
0.326288
0.326286
0.326284
0.326282
0.32628
0.326279
0.326278
0.326278
0.326279
0.326281
0.326284
0.326288
0.326294
0.326301
0.32631
0.32632
0.32633
0.326338
0.326342
0.355066
0.355061
0.355053
0.355042
0.355032
0.355023
0.355015
0.355008
0.355004
0.355001
0.354999
0.354998
0.354998
0.354999
0.355
0.355002
0.355004
0.355006
0.355008
0.355011
0.355013
0.355015
0.355017
0.355019
0.35502
0.355022
0.355023
0.355024
0.355024
0.355024
0.355024
0.355024
0.355024
0.355023
0.355022
0.35502
0.355019
0.355017
0.355015
0.355013
0.355011
0.355008
0.355006
0.355004
0.355002
0.355
0.354999
0.354998
0.354998
0.354999
0.355001
0.355004
0.355008
0.355015
0.355023
0.355032
0.355042
0.355053
0.355061
0.355066
0.384633
0.384628
0.384619
0.384608
0.384597
0.384587
0.384579
0.384572
0.384568
0.384564
0.384562
0.384562
0.384562
0.384562
0.384564
0.384566
0.384568
0.38457
0.384572
0.384575
0.384577
0.384579
0.384581
0.384583
0.384585
0.384586
0.384587
0.384588
0.384589
0.384589
0.384589
0.384589
0.384588
0.384587
0.384586
0.384585
0.384583
0.384581
0.384579
0.384577
0.384575
0.384572
0.38457
0.384568
0.384566
0.384564
0.384562
0.384562
0.384562
0.384562
0.384564
0.384568
0.384572
0.384579
0.384587
0.384597
0.384608
0.384619
0.384628
0.384633
0.415074
0.415069
0.415059
0.415048
0.415036
0.415026
0.415017
0.41501
0.415005
0.415001
0.414999
0.414998
0.414998
0.414999
0.415001
0.415003
0.415005
0.415007
0.41501
0.415012
0.415015
0.415017
0.415019
0.415021
0.415023
0.415025
0.415026
0.415027
0.415027
0.415028
0.415028
0.415027
0.415027
0.415026
0.415025
0.415023
0.415021
0.415019
0.415017
0.415015
0.415012
0.41501
0.415007
0.415005
0.415003
0.415001
0.414999
0.414998
0.414998
0.414999
0.415001
0.415005
0.41501
0.415017
0.415026
0.415036
0.415048
0.415059
0.415069
0.415074
0.446418
0.446412
0.446403
0.446391
0.446379
0.446368
0.446358
0.446351
0.446345
0.446342
0.446339
0.446338
0.446338
0.446339
0.446341
0.446343
0.446345
0.446348
0.44635
0.446353
0.446355
0.446358
0.44636
0.446362
0.446364
0.446366
0.446367
0.446368
0.446369
0.446369
0.446369
0.446369
0.446368
0.446367
0.446366
0.446364
0.446362
0.44636
0.446358
0.446355
0.446353
0.44635
0.446348
0.446345
0.446343
0.446341
0.446339
0.446338
0.446338
0.446339
0.446342
0.446345
0.446351
0.446358
0.446368
0.446379
0.446391
0.446403
0.446412
0.446418
0.478694
0.478689
0.478678
0.478666
0.478653
0.478642
0.478632
0.478624
0.478618
0.478614
0.478612
0.478611
0.478611
0.478612
0.478613
0.478615
0.478618
0.47862
0.478623
0.478626
0.478629
0.478631
0.478634
0.478636
0.478638
0.47864
0.478641
0.478642
0.478643
0.478643
0.478643
0.478643
0.478642
0.478641
0.47864
0.478638
0.478636
0.478634
0.478631
0.478629
0.478626
0.478623
0.47862
0.478618
0.478615
0.478613
0.478612
0.478611
0.478611
0.478612
0.478614
0.478618
0.478624
0.478632
0.478642
0.478653
0.478666
0.478678
0.478689
0.478694
0.511933
0.511927
0.511916
0.511904
0.51189
0.511878
0.511868
0.51186
0.511853
0.511849
0.511847
0.511846
0.511846
0.511846
0.511848
0.51185
0.511853
0.511856
0.511858
0.511861
0.511864
0.511867
0.51187
0.511872
0.511874
0.511876
0.511877
0.511879
0.511879
0.51188
0.51188
0.511879
0.511879
0.511877
0.511876
0.511874
0.511872
0.51187
0.511867
0.511864
0.511861
0.511858
0.511856
0.511853
0.51185
0.511848
0.511846
0.511846
0.511846
0.511847
0.511849
0.511853
0.51186
0.511868
0.511878
0.51189
0.511904
0.511916
0.511927
0.511933
0.546164
0.546158
0.546147
0.546134
0.54612
0.546107
0.546096
0.546087
0.546081
0.546076
0.546074
0.546073
0.546073
0.546074
0.546075
0.546077
0.54608
0.546083
0.546086
0.546089
0.546092
0.546095
0.546098
0.5461
0.546103
0.546104
0.546106
0.546107
0.546108
0.546108
0.546108
0.546108
0.546107
0.546106
0.546104
0.546103
0.5461
0.546098
0.546095
0.546092
0.546089
0.546086
0.546083
0.54608
0.546077
0.546075
0.546074
0.546073
0.546073
0.546074
0.546076
0.546081
0.546087
0.546096
0.546107
0.54612
0.546134
0.546147
0.546158
0.546164
0.581418
0.581412
0.581401
0.581387
0.581372
0.581359
0.581348
0.581339
0.581332
0.581327
0.581324
0.581323
0.581323
0.581324
0.581325
0.581328
0.581331
0.581334
0.581337
0.58134
0.581343
0.581346
0.581349
0.581352
0.581354
0.581356
0.581358
0.581359
0.58136
0.58136
0.58136
0.58136
0.581359
0.581358
0.581356
0.581354
0.581352
0.581349
0.581346
0.581343
0.58134
0.581337
0.581334
0.581331
0.581328
0.581325
0.581324
0.581323
0.581323
0.581324
0.581327
0.581332
0.581339
0.581348
0.581359
0.581372
0.581387
0.581401
0.581412
0.581418
0.617727
0.61772
0.617709
0.617695
0.61768
0.617666
0.617654
0.617644
0.617637
0.617632
0.617629
0.617628
0.617628
0.617629
0.61763
0.617633
0.617636
0.617639
0.617642
0.617646
0.617649
0.617652
0.617655
0.617658
0.61766
0.617662
0.617664
0.617665
0.617666
0.617667
0.617667
0.617666
0.617665
0.617664
0.617662
0.61766
0.617658
0.617655
0.617652
0.617649
0.617646
0.617642
0.617639
0.617636
0.617633
0.61763
0.617629
0.617628
0.617628
0.617629
0.617632
0.617637
0.617644
0.617654
0.617666
0.61768
0.617695
0.617709
0.61772
0.617727
0.655123
0.655116
0.655104
0.655089
0.655074
0.65506
0.655047
0.655037
0.655029
0.655024
0.655021
0.655019
0.655019
0.65502
0.655022
0.655025
0.655028
0.655031
0.655034
0.655038
0.655041
0.655045
0.655048
0.655051
0.655053
0.655056
0.655057
0.655059
0.65506
0.65506
0.65506
0.65506
0.655059
0.655057
0.655056
0.655053
0.655051
0.655048
0.655045
0.655041
0.655038
0.655034
0.655031
0.655028
0.655025
0.655022
0.65502
0.655019
0.655019
0.655021
0.655024
0.655029
0.655037
0.655047
0.65506
0.655074
0.655089
0.655104
0.655116
0.655123
0.693638
0.693631
0.693619
0.693604
0.693588
0.693573
0.69356
0.69355
0.693542
0.693536
0.693533
0.693531
0.693531
0.693532
0.693534
0.693536
0.69354
0.693543
0.693547
0.69355
0.693554
0.693558
0.693561
0.693564
0.693567
0.693569
0.693571
0.693572
0.693573
0.693574
0.693574
0.693573
0.693572
0.693571
0.693569
0.693567
0.693564
0.693561
0.693558
0.693554
0.69355
0.693547
0.693543
0.69354
0.693536
0.693534
0.693532
0.693531
0.693531
0.693533
0.693536
0.693542
0.69355
0.69356
0.693573
0.693588
0.693604
0.693619
0.693631
0.693638
0.733308
0.733301
0.733288
0.733273
0.733256
0.733241
0.733228
0.733217
0.733208
0.733202
0.733199
0.733197
0.733197
0.733198
0.7332
0.733202
0.733206
0.733209
0.733213
0.733217
0.733221
0.733224
0.733228
0.733231
0.733234
0.733236
0.733238
0.73324
0.733241
0.733241
0.733241
0.733241
0.73324
0.733238
0.733236
0.733234
0.733231
0.733228
0.733224
0.733221
0.733217
0.733213
0.733209
0.733206
0.733202
0.7332
0.733198
0.733197
0.733197
0.733199
0.733202
0.733208
0.733217
0.733228
0.733241
0.733256
0.733273
0.733288
0.733301
0.733308
0.774166
0.774159
0.774147
0.774131
0.774114
0.774098
0.774084
0.774072
0.774064
0.774057
0.774054
0.774052
0.774051
0.774052
0.774054
0.774057
0.77406
0.774064
0.774068
0.774072
0.774076
0.77408
0.774083
0.774087
0.77409
0.774092
0.774094
0.774096
0.774097
0.774097
0.774097
0.774097
0.774096
0.774094
0.774092
0.77409
0.774087
0.774083
0.77408
0.774076
0.774072
0.774068