/*--------------------------------*- C++ -*----------------------------------*\
| =========                 |                                                 |
| \\      /  F ield         | foam-extend: Open Source CFD                    |
|  \\    /   O peration     | Version:     4.0                                |
|   \\  /    A nd           | Web:         http://www.foam-extend.org         |
|    \\/     M anipulation  |                                                 |
\*---------------------------------------------------------------------------*/
FoamFile
{
    version     2.0;
    format      ascii;
    class       volScalarField;
    location    "24";
    object      dC2;
}
// * * * * * * * * * * * * * * * * * * * * * * * * * * * * * * * * * * * * * //

dimensions      [0 -1 0 0 0 0 0];

internalField   nonuniform List<scalar> 
6960
(
1.8739e-17
1.87484e-17
1.8765e-17
1.87857e-17
1.88069e-17
1.88263e-17
1.88426e-17
1.88554e-17
1.88646e-17
1.88707e-17
1.88742e-17
1.88754e-17
1.8875e-17
1.88732e-17
1.88702e-17
1.88666e-17
1.88625e-17
1.88579e-17
1.88533e-17
1.88486e-17
1.8844e-17
1.88397e-17
1.88355e-17
1.88318e-17
1.88285e-17
1.88257e-17
1.88234e-17
1.88216e-17
1.88204e-17
1.88198e-17
1.88198e-17
1.88204e-17
1.88216e-17
1.88234e-17
1.88257e-17
1.88284e-17
1.88319e-17
1.88355e-17
1.88396e-17
1.8844e-17
1.88486e-17
1.88533e-17
1.88579e-17
1.88625e-17
1.88666e-17
1.88703e-17
1.88731e-17
1.8875e-17
1.88755e-17
1.88742e-17
1.88707e-17
1.88646e-17
1.88553e-17
1.88426e-17
1.88263e-17
1.88069e-17
1.87857e-17
1.8765e-17
1.87484e-17
1.8739e-17
5.89768e-17
5.90057e-17
5.90566e-17
5.91199e-17
5.91849e-17
5.92445e-17
5.92944e-17
5.93335e-17
5.93621e-17
5.93812e-17
5.93918e-17
5.93958e-17
5.93942e-17
5.93885e-17
5.93798e-17
5.93688e-17
5.93556e-17
5.9342e-17
5.93275e-17
5.93133e-17
5.92991e-17
5.92856e-17
5.92731e-17
5.92616e-17
5.92515e-17
5.92428e-17
5.92356e-17
5.92302e-17
5.92267e-17
5.92248e-17
5.92249e-17
5.92268e-17
5.92302e-17
5.92357e-17
5.92428e-17
5.92517e-17
5.92615e-17
5.92732e-17
5.92857e-17
5.92991e-17
5.93133e-17
5.93276e-17
5.9342e-17
5.93557e-17
5.93685e-17
5.93797e-17
5.93888e-17
5.93944e-17
5.93956e-17
5.93917e-17
5.9381e-17
5.93622e-17
5.93337e-17
5.92944e-17
5.92443e-17
5.91848e-17
5.91198e-17
5.90566e-17
5.90055e-17
5.8977e-17
1.5177e-16
1.51842e-16
1.51971e-16
1.5213e-16
1.52294e-16
1.52444e-16
1.52571e-16
1.5267e-16
1.52741e-16
1.52789e-16
1.52816e-16
1.52826e-16
1.52823e-16
1.52809e-16
1.52786e-16
1.52758e-16
1.52726e-16
1.52691e-16
1.52655e-16
1.52618e-16
1.52583e-16
1.52549e-16
1.52517e-16
1.52488e-16
1.52463e-16
1.5244e-16
1.52423e-16
1.52409e-16
1.524e-16
1.52395e-16
1.52395e-16
1.524e-16
1.52409e-16
1.52422e-16
1.52441e-16
1.52462e-16
1.52488e-16
1.52517e-16
1.52549e-16
1.52583e-16
1.52618e-16
1.52655e-16
1.52691e-16
1.52726e-16
1.52759e-16
1.52786e-16
1.52808e-16
1.52823e-16
1.52826e-16
1.52816e-16
1.52789e-16
1.52741e-16
1.52669e-16
1.52571e-16
1.52444e-16
1.52294e-16
1.5213e-16
1.5197e-16
1.51842e-16
1.5177e-16
3.50734e-16
3.509e-16
3.51193e-16
3.51557e-16
3.51934e-16
3.52277e-16
3.52567e-16
3.52794e-16
3.5296e-16
3.5307e-16
3.53131e-16
3.53155e-16
3.53148e-16
3.53114e-16
3.53063e-16
3.52998e-16
3.52926e-16
3.52846e-16
3.52762e-16
3.52679e-16
3.52598e-16
3.5252e-16
3.52447e-16
3.52381e-16
3.5232e-16
3.52271e-16
3.52229e-16
3.52198e-16
3.52176e-16
3.52166e-16
3.52167e-16
3.52177e-16
3.52199e-16
3.5223e-16
3.5227e-16
3.52323e-16
3.5238e-16
3.52447e-16
3.52519e-16
3.52598e-16
3.5268e-16
3.52763e-16
3.52845e-16
3.52926e-16
3.52999e-16
3.53064e-16
3.53113e-16
3.53147e-16
3.53156e-16
3.53132e-16
3.53069e-16
3.52959e-16
3.52795e-16
3.52567e-16
3.52276e-16
3.51934e-16
3.51557e-16
3.51194e-16
3.50899e-16
3.50734e-16
7.71163e-16
7.71525e-16
7.72175e-16
7.72975e-16
7.73802e-16
7.74559e-16
7.75201e-16
7.75699e-16
7.76065e-16
7.76308e-16
7.7645e-16
7.765e-16
7.76484e-16
7.76413e-16
7.76305e-16
7.76162e-16
7.75998e-16
7.7582e-16
7.75637e-16
7.75455e-16
7.7527e-16
7.75101e-16
7.7494e-16
7.74793e-16
7.74663e-16
7.74552e-16
7.74461e-16
7.7439e-16
7.74347e-16
7.74322e-16
7.74322e-16
7.74345e-16
7.74389e-16
7.74464e-16
7.74553e-16
7.7466e-16
7.74793e-16
7.74938e-16
7.75101e-16
7.75271e-16
7.75452e-16
7.75635e-16
7.7582e-16
7.75997e-16
7.76157e-16
7.76299e-16
7.76417e-16
7.76482e-16
7.76499e-16
7.76446e-16
7.76309e-16
7.76067e-16
7.75701e-16
7.752e-16
7.74561e-16
7.738e-16
7.72975e-16
7.72172e-16
7.71526e-16
7.71163e-16
1.65424e-15
1.65502e-15
1.65642e-15
1.65816e-15
1.65995e-15
1.6616e-15
1.66298e-15
1.66406e-15
1.66486e-15
1.66539e-15
1.66568e-15
1.6658e-15
1.66576e-15
1.66561e-15
1.66536e-15
1.66506e-15
1.66471e-15
1.66433e-15
1.66393e-15
1.66353e-15
1.66315e-15
1.66276e-15
1.66241e-15
1.66209e-15
1.66182e-15
1.66157e-15
1.66138e-15
1.66123e-15
1.66112e-15
1.66107e-15
1.66107e-15
1.66113e-15
1.66123e-15
1.66137e-15
1.66157e-15
1.66182e-15
1.66209e-15
1.66242e-15
1.66277e-15
1.66314e-15
1.66353e-15
1.66393e-15
1.66433e-15
1.66471e-15
1.66506e-15
1.66538e-15
1.66561e-15
1.66576e-15
1.6658e-15
1.66569e-15
1.66538e-15
1.66486e-15
1.66406e-15
1.66298e-15
1.66159e-15
1.65995e-15
1.65816e-15
1.65642e-15
1.65502e-15
1.65423e-15
3.49459e-15
3.49627e-15
3.49926e-15
3.50296e-15
3.5068e-15
3.5103e-15
3.51327e-15
3.5156e-15
3.51729e-15
3.51842e-15
3.51908e-15
3.51934e-15
3.51925e-15
3.51893e-15
3.51842e-15
3.51776e-15
3.517e-15
3.51617e-15
3.51533e-15
3.51449e-15
3.51364e-15
3.51285e-15
3.5121e-15
3.51143e-15
3.5108e-15
3.51029e-15
3.50986e-15
3.50954e-15
3.50933e-15
3.50922e-15
3.50922e-15
3.50933e-15
3.50953e-15
3.50986e-15
3.51028e-15
3.51081e-15
3.51143e-15
3.5121e-15
3.51283e-15
3.51365e-15
3.51449e-15
3.51534e-15
3.51617e-15
3.517e-15
3.51775e-15
3.5184e-15
3.51893e-15
3.51926e-15
3.51933e-15
3.51907e-15
3.51842e-15
3.51729e-15
3.51559e-15
3.51327e-15
3.51031e-15
3.50679e-15
3.50296e-15
3.49927e-15
3.49627e-15
3.49459e-15
7.27338e-15
7.27693e-15
7.28321e-15
7.29103e-15
7.29905e-15
7.30647e-15
7.31272e-15
7.31762e-15
7.32121e-15
7.32359e-15
7.32498e-15
7.3255e-15
7.32534e-15
7.32469e-15
7.32359e-15
7.32223e-15
7.32061e-15
7.31891e-15
7.3171e-15
7.3153e-15
7.31352e-15
7.31184e-15
7.31028e-15
7.30882e-15
7.30758e-15
7.30646e-15
7.30558e-15
7.30493e-15
7.30444e-15
7.30423e-15
7.30419e-15
7.30443e-15
7.30489e-15
7.30558e-15
7.30649e-15
7.30755e-15
7.30882e-15
7.31031e-15
7.31188e-15
7.31354e-15
7.31531e-15
7.3171e-15
7.31893e-15
7.32062e-15
7.32219e-15
7.32361e-15
7.32467e-15
7.32533e-15
7.32549e-15
7.325e-15
7.32361e-15
7.32124e-15
7.31762e-15
7.31273e-15
7.3065e-15
7.29908e-15
7.29105e-15
7.2832e-15
7.27692e-15
7.27339e-15
1.48535e-14
1.48607e-14
1.48738e-14
1.48899e-14
1.49066e-14
1.49219e-14
1.49348e-14
1.49449e-14
1.49523e-14
1.49573e-14
1.49601e-14
1.49612e-14
1.49609e-14
1.49595e-14
1.49573e-14
1.49543e-14
1.49512e-14
1.49475e-14
1.49439e-14
1.49401e-14
1.49366e-14
1.49331e-14
1.49297e-14
1.49268e-14
1.49241e-14
1.49219e-14
1.492e-14
1.49185e-14
1.49176e-14
1.49171e-14
1.49173e-14
1.49177e-14
1.49186e-14
1.492e-14
1.49218e-14
1.49241e-14
1.49267e-14
1.49296e-14
1.49329e-14
1.49365e-14
1.49401e-14
1.49439e-14
1.49475e-14
1.49511e-14
1.49545e-14
1.49572e-14
1.49595e-14
1.4961e-14
1.49612e-14
1.496e-14
1.49572e-14
1.49523e-14
1.49449e-14
1.49347e-14
1.49218e-14
1.49066e-14
1.48899e-14
1.48738e-14
1.48607e-14
1.48535e-14
2.95951e-14
2.96097e-14
2.96359e-14
2.96684e-14
2.97017e-14
2.97326e-14
2.97586e-14
2.9779e-14
2.9794e-14
2.9804e-14
2.98096e-14
2.98119e-14
2.98114e-14
2.98086e-14
2.9804e-14
2.97985e-14
2.97917e-14
2.97846e-14
2.97772e-14
2.97696e-14
2.97623e-14
2.97553e-14
2.97487e-14
2.97424e-14
2.97372e-14
2.97327e-14
2.9729e-14
2.97261e-14
2.97244e-14
2.97234e-14
2.97231e-14
2.97242e-14
2.97262e-14
2.9729e-14
2.97328e-14
2.97373e-14
2.97427e-14
2.97488e-14
2.97553e-14
2.97623e-14
2.97697e-14
2.97771e-14
2.97848e-14
2.97917e-14
2.97983e-14
2.98042e-14
2.98085e-14
2.98113e-14
2.98122e-14
2.98097e-14
2.98039e-14
2.97938e-14
2.97789e-14
2.97588e-14
2.97327e-14
2.97018e-14
2.96683e-14
2.96359e-14
2.96097e-14
2.95951e-14
5.72496e-14
5.72781e-14
5.73294e-14
5.73924e-14
5.74578e-14
5.75177e-14
5.7568e-14
5.7608e-14
5.76373e-14
5.76568e-14
5.76681e-14
5.76726e-14
5.76716e-14
5.76662e-14
5.76576e-14
5.76462e-14
5.76331e-14
5.76193e-14
5.76048e-14
5.75902e-14
5.75755e-14
5.7562e-14
5.75492e-14
5.75379e-14
5.7527e-14
5.75183e-14
5.75109e-14
5.75054e-14
5.75017e-14
5.74995e-14
5.75e-14
5.75019e-14
5.75052e-14
5.75108e-14
5.75185e-14
5.75271e-14
5.75375e-14
5.75492e-14
5.75623e-14
5.75756e-14
5.75902e-14
5.76047e-14
5.76193e-14
5.76334e-14
5.76464e-14
5.76573e-14
5.76664e-14
5.76716e-14
5.76725e-14
5.76682e-14
5.7657e-14
5.76376e-14
5.7608e-14
5.75679e-14
5.75175e-14
5.74576e-14
5.73924e-14
5.73288e-14
5.72782e-14
5.72496e-14
1.07209e-13
1.07263e-13
1.07358e-13
1.07477e-13
1.076e-13
1.07711e-13
1.07807e-13
1.07882e-13
1.07937e-13
1.07974e-13
1.07995e-13
1.08004e-13
1.08001e-13
1.07992e-13
1.07975e-13
1.07954e-13
1.0793e-13
1.07904e-13
1.07877e-13
1.07849e-13
1.07822e-13
1.07796e-13
1.07772e-13
1.0775e-13
1.07731e-13
1.07714e-13
1.077e-13
1.07689e-13
1.07682e-13
1.0768e-13
1.07679e-13
1.07683e-13
1.0769e-13
1.07701e-13
1.07713e-13
1.07731e-13
1.0775e-13
1.07772e-13
1.07796e-13
1.07823e-13
1.0785e-13
1.07877e-13
1.07904e-13
1.0793e-13
1.07954e-13
1.07976e-13
1.07991e-13
1.08002e-13
1.08004e-13
1.07996e-13
1.07974e-13
1.07937e-13
1.07882e-13
1.07808e-13
1.07712e-13
1.076e-13
1.07477e-13
1.07359e-13
1.07263e-13
1.0721e-13
1.9366e-13
1.93756e-13
1.93927e-13
1.9414e-13
1.94358e-13
1.94562e-13
1.94733e-13
1.94868e-13
1.94965e-13
1.95033e-13
1.95073e-13
1.95087e-13
1.95084e-13
1.95067e-13
1.95037e-13
1.94999e-13
1.94955e-13
1.9491e-13
1.94857e-13
1.94811e-13
1.94761e-13
1.94715e-13
1.94672e-13
1.94632e-13
1.94595e-13
1.94566e-13
1.94542e-13
1.94523e-13
1.9451e-13
1.94502e-13
1.94504e-13
1.94509e-13
1.94522e-13
1.94541e-13
1.94567e-13
1.94596e-13
1.94634e-13
1.94671e-13
1.94712e-13
1.9476e-13
1.94809e-13
1.9486e-13
1.94909e-13
1.94957e-13
1.95e-13
1.95037e-13
1.95065e-13
1.95084e-13
1.95085e-13
1.95071e-13
1.95033e-13
1.94965e-13
1.94867e-13
1.94732e-13
1.94563e-13
1.9436e-13
1.9414e-13
1.93926e-13
1.93755e-13
1.93659e-13
3.30837e-13
3.30996e-13
3.31286e-13
3.31647e-13
3.32014e-13
3.32353e-13
3.32641e-13
3.32875e-13
3.33043e-13
3.33157e-13
3.33218e-13
3.33247e-13
3.33242e-13
3.33209e-13
3.33166e-13
3.331e-13
3.33028e-13
3.32944e-13
3.32868e-13
3.32779e-13
3.32701e-13
3.32618e-13
3.32544e-13
3.32478e-13
3.32421e-13
3.32365e-13
3.32322e-13
3.32291e-13
3.32273e-13
3.32261e-13
3.32259e-13
3.32272e-13
3.32295e-13
3.32324e-13
3.32365e-13
3.32419e-13
3.32475e-13
3.32548e-13
3.32622e-13
3.32704e-13
3.32782e-13
3.32864e-13
3.32949e-13
3.33027e-13
3.33097e-13
3.3316e-13
3.33214e-13
3.3324e-13
3.3325e-13
3.33222e-13
3.33151e-13
3.33044e-13
3.32874e-13
3.32645e-13
3.32355e-13
3.32015e-13
3.31645e-13
3.31286e-13
3.30999e-13
3.30836e-13
4.94159e-13
4.944e-13
4.94825e-13
4.95353e-13
4.95906e-13
4.96414e-13
4.96845e-13
4.97177e-13
4.97433e-13
4.97611e-13
4.97714e-13
4.97752e-13
4.97746e-13
4.9772e-13
4.97627e-13
4.97544e-13
4.97426e-13
4.97313e-13
4.97185e-13
4.97065e-13
4.96939e-13
4.96825e-13
4.96707e-13
4.9661e-13
4.96513e-13
4.96444e-13
4.96388e-13
4.96338e-13
4.96297e-13
4.96288e-13
4.96282e-13
4.96294e-13
4.96329e-13
4.96387e-13
4.96446e-13
4.96516e-13
4.96611e-13
4.96711e-13
4.96824e-13
4.9693e-13
4.97058e-13
4.97192e-13
4.97313e-13
4.97429e-13
4.97543e-13
4.97638e-13
4.97703e-13
4.97752e-13
4.97753e-13
4.97706e-13
4.97614e-13
4.97439e-13
4.97183e-13
4.96853e-13
4.96408e-13
4.95896e-13
4.95356e-13
4.94831e-13
4.94405e-13
4.94157e-13
4.90253e-13
4.90501e-13
4.90955e-13
4.91497e-13
4.92059e-13
4.92607e-13
4.93065e-13
4.93428e-13
4.93718e-13
4.93885e-13
4.9399e-13
4.94047e-13
4.94051e-13
4.93974e-13
4.93929e-13
4.93829e-13
4.93712e-13
4.93589e-13
4.93446e-13
4.9332e-13
4.93187e-13
4.93058e-13
4.92947e-13
4.92844e-13
4.92752e-13
4.92658e-13
4.92575e-13
4.92537e-13
4.92502e-13
4.92495e-13
4.92486e-13
4.92513e-13
4.9254e-13
4.92583e-13
4.92661e-13
4.9275e-13
4.92826e-13
4.92941e-13
4.93053e-13
4.93195e-13
4.93331e-13
4.9345e-13
4.93583e-13
4.93715e-13
4.9383e-13
4.9392e-13
4.94005e-13
4.94037e-13
4.94041e-13
4.93998e-13
4.93883e-13
4.93691e-13
4.93435e-13
4.93048e-13
4.92608e-13
4.92077e-13
4.91501e-13
4.90937e-13
4.90493e-13
4.9026e-13
-1.70123e-13
-1.70144e-13
-1.70223e-13
-1.70275e-13
-1.70347e-13
-1.7041e-13
-1.70446e-13
-1.70451e-13
-1.70472e-13
-1.7048e-13
-1.70449e-13
-1.70444e-13
-1.70437e-13
-1.70412e-13
-1.70409e-13
-1.70431e-13
-1.7039e-13
-1.70409e-13
-1.70381e-13
-1.7035e-13
-1.70358e-13
-1.7035e-13
-1.70333e-13
-1.70338e-13
-1.70319e-13
-1.70314e-13
-1.70301e-13
-1.70333e-13
-1.7032e-13
-1.70338e-13
-1.70287e-13
-1.70327e-13
-1.70317e-13
-1.70321e-13
-1.70316e-13
-1.70329e-13
-1.70325e-13
-1.70355e-13
-1.70349e-13
-1.70356e-13
-1.70395e-13
-1.70368e-13
-1.70395e-13
-1.70407e-13
-1.7042e-13
-1.7042e-13
-1.70425e-13
-1.70435e-13
-1.70444e-13
-1.70466e-13
-1.70486e-13
-1.70461e-13
-1.70474e-13
-1.70442e-13
-1.70393e-13
-1.70354e-13
-1.70279e-13
-1.70229e-13
-1.70134e-13
-1.70123e-13
-1.68315e-12
-1.68393e-12
-1.68532e-12
-1.68704e-12
-1.68876e-12
-1.69037e-12
-1.69172e-12
-1.69284e-12
-1.6936e-12
-1.69405e-12
-1.69441e-12
-1.69455e-12
-1.69452e-12
-1.69436e-12
-1.6942e-12
-1.69382e-12
-1.6935e-12
-1.69309e-12
-1.69273e-12
-1.69235e-12
-1.69201e-12
-1.69159e-12
-1.69121e-12
-1.69096e-12
-1.69068e-12
-1.69045e-12
-1.69022e-12
-1.69006e-12
-1.68995e-12
-1.68986e-12
-1.68992e-12
-1.68995e-12
-1.69008e-12
-1.69019e-12
-1.69048e-12
-1.69066e-12
-1.69094e-12
-1.69119e-12
-1.69156e-12
-1.69198e-12
-1.69229e-12
-1.69275e-12
-1.69312e-12
-1.69343e-12
-1.6938e-12
-1.69411e-12
-1.69437e-12
-1.69448e-12
-1.69455e-12
-1.69439e-12
-1.6941e-12
-1.69357e-12
-1.69278e-12
-1.69168e-12
-1.69045e-12
-1.68875e-12
-1.68699e-12
-1.6853e-12
-1.68399e-12
-1.68318e-12
-2.20406e-12
-2.2053e-12
-2.20748e-12
-2.21037e-12
-2.21327e-12
-2.21581e-12
-2.21812e-12
-2.21986e-12
-2.22122e-12
-2.22208e-12
-2.2228e-12
-2.22281e-12
-2.22294e-12
-2.2227e-12
-2.2222e-12
-2.22189e-12
-2.22128e-12
-2.22067e-12
-2.2199e-12
-2.21929e-12
-2.21851e-12
-2.21799e-12
-2.21755e-12
-2.21684e-12
-2.21648e-12
-2.21594e-12
-2.21579e-12
-2.21537e-12
-2.2154e-12
-2.21527e-12
-2.21522e-12
-2.21526e-12
-2.21547e-12
-2.21572e-12
-2.21596e-12
-2.21643e-12
-2.21688e-12
-2.21745e-12
-2.2181e-12
-2.2186e-12
-2.21932e-12
-2.21993e-12
-2.22052e-12
-2.22132e-12
-2.22178e-12
-2.22224e-12
-2.22264e-12
-2.22301e-12
-2.2229e-12
-2.22273e-12
-2.22216e-12
-2.22133e-12
-2.21995e-12
-2.21814e-12
-2.21592e-12
-2.21329e-12
-2.21045e-12
-2.20757e-12
-2.20526e-12
-2.20398e-12
1.25304e-12
1.25296e-12
1.25328e-12
1.25391e-12
1.25417e-12
1.25429e-12
1.25465e-12
1.25503e-12
1.2549e-12
1.25488e-12
1.25521e-12
1.25497e-12
1.25509e-12
1.25509e-12
1.25495e-12
1.25486e-12
1.25487e-12
1.25466e-12
1.25476e-12
1.25458e-12
1.25461e-12
1.25447e-12
1.25453e-12
1.25415e-12
1.25437e-12
1.25394e-12
1.2541e-12
1.25404e-12
1.25429e-12
1.25417e-12
1.25422e-12
1.25398e-12
1.25428e-12
1.25425e-12
1.25419e-12
1.25432e-12
1.25419e-12
1.25438e-12
1.2544e-12
1.25445e-12
1.25447e-12
1.25471e-12
1.25487e-12
1.25484e-12
1.25476e-12
1.25475e-12
1.25499e-12
1.25517e-12
1.25499e-12
1.25496e-12
1.25505e-12
1.25506e-12
1.25493e-12
1.25479e-12
1.25461e-12
1.25407e-12
1.25375e-12
1.25354e-12
1.25306e-12
1.25279e-12
5.88881e-12
5.89153e-12
5.89696e-12
5.90335e-12
5.91032e-12
5.91627e-12
5.92155e-12
5.92493e-12
5.92803e-12
5.93023e-12
5.93132e-12
5.93185e-12
5.9314e-12
5.93096e-12
5.93003e-12
5.92919e-12
5.9278e-12
5.92651e-12
5.92463e-12
5.92362e-12
5.92179e-12
5.92035e-12
5.91934e-12
5.91812e-12
5.91667e-12
5.9167e-12
5.9154e-12
5.91489e-12
5.91456e-12
5.91414e-12
5.91415e-12
5.91483e-12
5.91464e-12
5.9154e-12
5.91599e-12
5.91709e-12
5.91833e-12
5.91947e-12
5.92067e-12
5.92175e-12
5.92348e-12
5.92462e-12
5.9259e-12
5.92763e-12
5.9294e-12
5.93024e-12
5.93081e-12
5.93179e-12
5.93196e-12
5.93143e-12
5.93042e-12
5.92817e-12
5.92543e-12
5.92137e-12
5.91573e-12
5.91009e-12
5.90338e-12
5.89666e-12
5.89194e-12
5.88861e-12
4.11346e-12
4.11678e-12
4.12245e-12
4.12779e-12
4.13403e-12
4.14076e-12
4.14505e-12
4.1505e-12
4.15342e-12
4.15486e-12
4.15595e-12
4.15603e-12
4.15661e-12
4.15621e-12
4.15591e-12
4.15371e-12
4.15325e-12
4.151e-12
4.15008e-12
4.14825e-12
4.14745e-12
4.14601e-12
4.14359e-12
4.14318e-12
4.14276e-12
4.14054e-12
4.1407e-12
4.1396e-12
4.13939e-12
4.13948e-12
4.13907e-12
4.13915e-12
4.13976e-12
4.14038e-12
4.14161e-12
4.14193e-12
4.14287e-12
4.14393e-12
4.14573e-12
4.14749e-12
4.14785e-12
4.15015e-12
4.15207e-12
4.1533e-12
4.15373e-12
4.1551e-12
4.15646e-12
4.15592e-12
4.15648e-12
4.15581e-12
4.15404e-12
4.15344e-12
4.14994e-12
4.14519e-12
4.14075e-12
4.13506e-12
4.12854e-12
4.12197e-12
4.11635e-12
4.11412e-12
-2.07007e-12
-2.06983e-12
-2.07156e-12
-2.07174e-12
-2.07127e-12
-2.07349e-12
-2.07272e-12
-2.07527e-12
-2.07458e-12
-2.07499e-12
-2.07556e-12
-2.0749e-12
-2.07468e-12
-2.07506e-12
-2.07604e-12
-2.07357e-12
-2.07471e-12
-2.07387e-12
-2.07408e-12
-2.07336e-12
-2.0747e-12
-2.07442e-12
-2.07297e-12
-2.07342e-12
-2.07354e-12
-2.07251e-12
-2.07345e-12
-2.07308e-12
-2.07342e-12
-2.07229e-12
-2.07316e-12
-2.0728e-12
-2.07249e-12
-2.07265e-12
-2.07415e-12
-2.07326e-12
-2.07351e-12
-2.07289e-12
-2.07396e-12
-2.07458e-12
-2.07303e-12
-2.07392e-12
-2.07498e-12
-2.07551e-12
-2.07405e-12
-2.07427e-12
-2.07551e-12
-2.0743e-12
-2.07477e-12
-2.07591e-12
-2.07391e-12
-2.0758e-12
-2.07478e-12
-2.07427e-12
-2.07313e-12
-2.07348e-12
-2.07191e-12
-2.07094e-12
-2.07088e-12
-2.07006e-12
-4.01966e-12
-4.02444e-12
-4.02624e-12
-4.03145e-12
-4.03778e-12
-4.04136e-12
-4.04631e-12
-4.0478e-12
-4.05207e-12
-4.05239e-12
-4.05106e-12
-4.05276e-12
-4.05246e-12
-4.05209e-12
-4.05087e-12
-4.05248e-12
-4.0499e-12
-4.04905e-12
-4.04799e-12
-4.04809e-12
-4.04434e-12
-4.04463e-12
-4.0427e-12
-4.04277e-12
-4.04144e-12
-4.04166e-12
-4.03993e-12
-4.03933e-12
-4.0387e-12
-4.04056e-12
-4.04043e-12
-4.04089e-12
-4.03996e-12
-4.04171e-12
-4.03997e-12
-4.04186e-12
-4.04276e-12
-4.04383e-12
-4.04412e-12
-4.04434e-12
-4.04687e-12
-4.0479e-12
-4.0475e-12
-4.04996e-12
-4.05123e-12
-4.05239e-12
-4.05174e-12
-4.05293e-12
-4.05333e-12
-4.05089e-12
-4.05291e-12
-4.0496e-12
-4.04731e-12
-4.04471e-12
-4.04111e-12
-4.03512e-12
-4.03253e-12
-4.02718e-12
-4.02095e-12
-4.02076e-12
-1.82299e-12
-1.8209e-12
-1.82771e-12
-1.82842e-12
-1.82997e-12
-1.83269e-12
-1.83719e-12
-1.83999e-12
-1.83897e-12
-1.84179e-12
-1.84451e-12
-1.84229e-12
-1.84237e-12
-1.84222e-12
-1.84229e-12
-1.84144e-12
-1.83901e-12
-1.8414e-12
-1.8385e-12
-1.83707e-12
-1.83801e-12
-1.83556e-12
-1.83752e-12
-1.83541e-12
-1.83477e-12
-1.83424e-12
-1.8342e-12
-1.83519e-12
-1.83691e-12
-1.8335e-12
-1.83303e-12
-1.83276e-12
-1.83507e-12
-1.83284e-12
-1.834e-12
-1.83491e-12
-1.83566e-12
-1.83631e-12
-1.83715e-12
-1.83771e-12
-1.83935e-12
-1.83879e-12
-1.84052e-12
-1.83976e-12
-1.8422e-12
-1.84195e-12
-1.84176e-12
-1.8418e-12
-1.84242e-12
-1.84331e-12
-1.84021e-12
-1.84125e-12
-1.83872e-12
-1.83646e-12
-1.83391e-12
-1.83337e-12
-1.8278e-12
-1.82587e-12
-1.82558e-12
-1.82078e-12
-1.98583e-13
-2.02128e-13
-1.98811e-13
-2.01144e-13
-2.02502e-13
-2.03952e-13
-2.01818e-13
-2.02834e-13
-2.03053e-13
-2.01594e-13
-2.02436e-13
-2.03979e-13
-2.0268e-13
-2.03023e-13
-2.03006e-13
-2.00375e-13
-2.04164e-13
-2.00438e-13
-2.03822e-13
-2.03912e-13
-2.05846e-13
-2.05003e-13
-2.00965e-13
-2.02687e-13
-2.02892e-13
-2.01842e-13
-2.01874e-13
-2.00719e-13
-1.98698e-13
-2.01639e-13
-2.03606e-13
-2.03382e-13
-2.01761e-13
-2.03475e-13
-2.02941e-13
-2.03667e-13
-2.01974e-13
-2.02682e-13
-2.01193e-13
-2.04057e-13
-2.01144e-13
-2.04689e-13
-2.04041e-13
-2.0337e-13
-2.03058e-13
-2.02946e-13
-2.03576e-13
-2.04886e-13
-2.04012e-13
-2.03963e-13
-2.04566e-13
-2.02938e-13
-2.02995e-13
-2.02908e-13
-2.04128e-13
-1.99759e-13
-2.02048e-13
-1.99663e-13
-1.98769e-13
-2.00271e-13
-6.21946e-14
-6.12079e-14
-6.01047e-14
-6.17607e-14
-5.98153e-14
-6.16513e-14
-6.15774e-14
-6.08644e-14
-6.22655e-14
-6.26174e-14
-6.18962e-14
-6.29494e-14
-6.32561e-14
-6.15868e-14
-6.16928e-14
-6.21836e-14
-6.06055e-14
-6.2811e-14
-6.20668e-14
-6.08207e-14
-6.0463e-14
-6.15685e-14
-6.25791e-14
-6.20271e-14
-6.21808e-14
-6.41874e-14
-6.02152e-14
-6.32025e-14
-6.30628e-14
-6.05239e-14
-6.00914e-14
-6.10456e-14
-6.21528e-14
-6.09978e-14
-6.01369e-14
-6.00888e-14
-6.01672e-14
-6.08502e-14
-6.32437e-14
-5.97023e-14
-6.28829e-14
-5.87736e-14
-5.87124e-14
-6.03302e-14
-6.03749e-14
-6.21248e-14
-6.25474e-14
-6.04743e-14
-6.02371e-14
-5.98632e-14
-6.22155e-14
-6.03528e-14
-6.36031e-14
-6.08226e-14
-5.98579e-14
-6.40606e-14
-6.2509e-14
-6.11213e-14
-5.9492e-14
-6.21495e-14
-2.54842e-13
-2.52528e-13
-2.56646e-13
-2.5392e-13
-2.57533e-13
-2.56494e-13
-2.56734e-13
-2.54005e-13
-2.54587e-13
-2.57467e-13
-2.56602e-13
-2.54718e-13
-2.53794e-13
-2.5604e-13
-2.54182e-13
-2.59748e-13
-2.55134e-13
-2.56149e-13
-2.54353e-13
-2.55298e-13
-2.55912e-13
-2.54878e-13
-2.53038e-13
-2.53591e-13
-2.54414e-13
-2.53071e-13
-2.55447e-13
-2.56741e-13
-2.54505e-13
-2.52968e-13
-2.5533e-13
-2.5585e-13
-2.51891e-13
-2.55753e-13
-2.575e-13
-2.57335e-13
-2.59655e-13
-2.54318e-13
-2.55321e-13
-2.56683e-13
-2.57373e-13
-2.57677e-13
-2.58913e-13
-2.58764e-13
-2.57375e-13
-2.55284e-13
-2.5417e-13
-2.56249e-13
-2.55666e-13
-2.56818e-13
-2.5411e-13
-2.54697e-13
-2.51978e-13
-2.5671e-13
-2.55814e-13
-2.53011e-13
-2.52092e-13
-2.55255e-13
-2.57305e-13
-2.53455e-13
-2.69533e-13
-2.73781e-13
-2.70056e-13
-2.71069e-13
-2.73466e-13
-2.68975e-13
-2.73701e-13
-2.73134e-13
-2.73077e-13
-2.71535e-13
-2.73675e-13
-2.74606e-13
-2.75201e-13
-2.74654e-13
-2.76088e-13
-2.69957e-13
-2.75559e-13
-2.7635e-13
-2.74025e-13
-2.75446e-13
-2.70573e-13
-2.73194e-13
-2.72135e-13
-2.78242e-13
-2.76437e-13
-2.74615e-13
-2.73908e-13
-2.71331e-13
-2.74902e-13
-2.76782e-13
-2.74391e-13
-2.73617e-13
-2.7645e-13
-2.71656e-13
-2.72015e-13
-2.70978e-13
-2.71406e-13
-2.73696e-13
-2.73911e-13
-2.74022e-13
-2.70939e-13
-2.74565e-13
-2.72693e-13
-2.71676e-13
-2.71881e-13
-2.72875e-13
-2.74311e-13
-2.74063e-13
-2.73882e-13
-2.76216e-13
-2.75883e-13
-2.7786e-13
-2.74202e-13
-2.70078e-13
-2.73378e-13
-2.70889e-13
-2.74073e-13
-2.7039e-13
-2.69377e-13
-2.73417e-13
-1.80665e-13
-1.82325e-13
-1.80634e-13
-1.83369e-13
-1.7863e-13
-1.84547e-13
-1.80819e-13
-1.84458e-13
-1.81293e-13
-1.83609e-13
-1.82775e-13
-1.81404e-13
-1.82785e-13
-1.85255e-13
-1.81525e-13
-1.87674e-13
-1.80092e-13
-1.78346e-13
-1.79504e-13
-1.80536e-13
-1.82842e-13
-1.83598e-13
-1.85186e-13
-1.7694e-13
-1.81459e-13
-1.83577e-13
-1.80453e-13
-1.85234e-13
-1.79919e-13
-1.80307e-13
-1.82051e-13
-1.82427e-13
-1.79156e-13
-1.82701e-13
-1.79794e-13
-1.82685e-13
-1.80758e-13
-1.81771e-13
-1.82559e-13
-1.79036e-13
-1.85311e-13
-1.79249e-13
-1.82972e-13
-1.83877e-13
-1.82544e-13
-1.84633e-13
-1.83846e-13
-1.82866e-13
-1.83504e-13
-1.80469e-13
-1.83281e-13
-1.8097e-13
-1.84326e-13
-1.85956e-13
-1.81012e-13
-1.84947e-13
-1.83956e-13
-1.84658e-13
-1.83962e-13
-1.80309e-13
-9.3337e-14
-8.7436e-14
-9.40164e-14
-9.42442e-14
-9.12225e-14
-9.27354e-14
-9.44715e-14
-9.14312e-14
-9.69788e-14
-9.1961e-14
-9.45417e-14
-9.26982e-14
-8.93837e-14
-8.87103e-14
-9.52775e-14
-8.62885e-14
-9.30055e-14
-9.58463e-14
-9.47639e-14
-9.14751e-14
-9.26923e-14
-9.11848e-14
-9.08907e-14
-9.66584e-14
-9.00455e-14
-8.99055e-14
-9.48717e-14
-9.05208e-14
-9.09538e-14
-9.31139e-14
-9.40499e-14
-8.93839e-14
-9.35123e-14
-9.38998e-14
-9.94439e-14
-9.58631e-14
-9.41245e-14
-9.33032e-14
-9.08432e-14
-9.54179e-14
-9.13078e-14
-9.66891e-14
-9.09915e-14
-9.12309e-14
-9.22231e-14
-8.81591e-14
-9.07169e-14
-9.52849e-14
-9.42508e-14
-9.09232e-14
-8.91335e-14
-8.95043e-14
-9.1389e-14
-9.20236e-14
-9.33419e-14
-8.98077e-14
-8.87381e-14
-9.12375e-14
-9.32559e-14
-9.38579e-14
-3.61702e-14
-3.89208e-14
-3.67445e-14
-3.49765e-14
-4.08608e-14
-3.47538e-14
-3.72582e-14
-3.65537e-14
-3.07012e-14
-3.59296e-14
-3.53894e-14
-4.08254e-14
-4.24369e-14
-3.54648e-14
-3.54558e-14
-3.6833e-14
-3.70861e-14
-3.27434e-14
-4.1838e-14
-3.95872e-14
-3.5216e-14
-3.89667e-14
-3.68968e-14
-3.21349e-14
-3.74234e-14
-4.08017e-14
-3.51225e-14
-3.67153e-14
-4.00293e-14
-3.65866e-14
-3.25869e-14
-4.02115e-14
-3.84398e-14
-3.30504e-14
-3.24037e-14
-3.37133e-14
-3.73678e-14
-3.50958e-14
-3.51905e-14
-3.82865e-14
-3.77122e-14
-3.41189e-14
-4.00631e-14
-3.99732e-14
-3.70523e-14
-3.99667e-14
-4.00435e-14
-3.2613e-14
-3.42267e-14
-3.88047e-14
-3.95375e-14
-3.94197e-14
-3.83911e-14
-3.69233e-14
-3.80592e-14
-3.67232e-14
-4.24193e-14
-3.22594e-14
-3.32254e-14
-3.39867e-14
-9.26471e-15
-1.16777e-14
-6.34893e-15
-9.03862e-15
-8.57036e-15
-1.28791e-14
-4.97759e-15
-8.6718e-15
-1.04317e-14
-1.20205e-14
-1.13303e-14
-6.1708e-15
-6.19781e-15
-9.52089e-15
-9.81161e-15
-1.25606e-14
-1.34904e-14
-1.67596e-14
-3.36717e-15
-6.76711e-15
-1.20526e-14
-3.49346e-15
-6.68695e-15
-1.571e-14
-9.11838e-15
-4.7116e-15
-6.65555e-15
-7.53879e-15
-8.35746e-15
-1.07965e-14
-1.08507e-14
-7.69658e-15
-8.80722e-15
-1.09943e-14
-1.04017e-14
-1.3691e-14
-9.89331e-15
-1.20756e-14
-1.21623e-14
-5.63719e-15
-1.12027e-14
-7.64999e-15
-6.23653e-15
-7.02926e-15
-8.25556e-15
-8.89909e-15
-6.1794e-15
-1.40324e-14
-1.27953e-14
-4.27613e-15
-7.73659e-15
-1.07339e-14
-7.50464e-15
-8.79915e-15
-9.0479e-15
-8.64756e-15
-2.05467e-15
-1.05184e-14
-1.30838e-14
-1.16962e-14
-2.80632e-16
3.88288e-15
-1.36995e-15
3.32806e-15
2.23957e-15
6.58678e-15
3.26391e-15
1.32824e-15
-2.3886e-16
6.04677e-15
4.03212e-15
4.22592e-15
1.64369e-15
-2.42273e-15
9.90955e-16
-9.4586e-16
6.11598e-15
2.61423e-15
-8.33094e-16
3.10075e-15
4.29266e-16
1.82067e-15
2.93406e-16
8.20286e-15
2.71835e-15
-4.9732e-15
3.23995e-15
8.28212e-17
3.33723e-15
3.81261e-15
-9.42629e-16
4.44845e-15
6.43361e-15
2.44742e-15
3.13611e-15
5.42891e-15
1.91005e-15
1.15952e-14
-1.67213e-17
1.25674e-15
2.22241e-15
8.77502e-16
8.79094e-16
2.47702e-15
-3.65764e-15
-3.08066e-15
2.43663e-15
3.89797e-15
4.63164e-15
-3.58663e-15
4.88165e-15
1.83392e-15
2.12284e-15
2.64307e-15
-2.95101e-16
-1.69412e-15
1.52386e-15
1.77989e-15
4.61681e-15
5.28561e-15
1.40766e-14
5.56059e-15
7.9143e-15
7.96415e-15
1.01295e-14
5.14749e-15
7.13821e-16
7.67553e-15
1.24592e-14
3.09123e-15
7.23789e-15
5.52038e-15
9.60056e-15
1.28664e-14
8.06081e-15
1.40234e-14
1.27349e-14
8.55758e-15
6.7966e-15
5.95854e-15
1.11561e-14
2.82774e-15
4.08919e-15
4.51274e-15
3.87824e-15
1.03516e-14
9.71296e-15
9.8547e-15
6.22995e-15
1.09374e-14
7.91777e-15
4.86366e-15
2.28976e-15
6.00086e-15
5.17279e-15
5.55466e-15
1.02451e-14
4.94071e-16
8.59953e-15
6.45465e-15
3.68848e-15
5.37918e-15
6.0027e-15
5.92905e-15
1.3076e-14
9.25155e-15
5.73945e-15
1.02307e-14
3.62255e-15
1.17379e-14
3.66844e-15
7.75313e-15
9.84678e-15
1.96097e-15
1.3463e-14
1.24718e-14
1.5164e-15
9.42368e-15
9.56838e-15
7.04669e-15
4.01802e-15
6.25728e-15
7.3965e-15
7.14188e-15
5.4384e-15
1.12079e-14
1.02532e-14
5.75974e-15
4.032e-15
5.13616e-15
9.16659e-15
5.89503e-15
3.37897e-15
5.40612e-15
4.19675e-15
6.75324e-15
1.95014e-15
6.17387e-15
7.63464e-15
4.79758e-15
6.10168e-15
3.64331e-15
1.25244e-14
1.33095e-14
1.23153e-14
5.06477e-15
3.08082e-15
1.17326e-14
6.90538e-15
1.28323e-15
7.18504e-15
1.24323e-14
1.32376e-14
8.84402e-15
1.12378e-14
1.06663e-14
5.60024e-15
9.39436e-15
7.49781e-15
1.03416e-14
1.13221e-14
1.04286e-14
1.25449e-14
1.22418e-14
6.04108e-15
1.044e-14
1.19973e-14
1.11031e-15
8.58646e-15
7.22038e-15
8.79242e-15
8.62834e-15
3.95046e-15
1.24181e-14
6.48389e-15
5.28638e-15
1.18594e-14
5.89327e-15
3.17406e-15
6.19828e-15
4.5567e-15
7.47879e-15
1.30253e-14
8.62825e-15
5.91276e-15
6.13351e-15
1.84127e-15
7.75169e-15
3.89499e-15
1.25362e-14
8.92175e-15
9.54037e-15
8.771e-15
1.11341e-14
3.87682e-15
8.51646e-15
1.0145e-14
8.34615e-15
4.41246e-15
9.16227e-15
7.25176e-15
1.65646e-14
3.79273e-15
3.8675e-15
6.70187e-15
6.50081e-15
9.97977e-15
5.03821e-15
1.6186e-14
1.4247e-14
6.57105e-15
5.29607e-15
2.5938e-15
9.99845e-15
2.0891e-15
2.03468e-15
1.13319e-14
9.34327e-15
6.27513e-15
7.15699e-15
3.33379e-15
1.05266e-14
2.29512e-15
4.2054e-15
1.15946e-14
6.31984e-15
4.81858e-15
1.17194e-14
9.00241e-15
8.83097e-15
1.05881e-14
6.33752e-15
9.58661e-15
2.92638e-15
8.2847e-15
1.02146e-14
8.99705e-15
1.42723e-14
9.89377e-15
7.01405e-15
1.15776e-14
1.25725e-14
5.33214e-15
1.09698e-14
7.89806e-15
5.62834e-15
8.81913e-15
8.94983e-15
1.17597e-14
1.19328e-15
8.15631e-15
6.82211e-15
1.01623e-14
-9.14174e-17
1.45404e-14
6.17233e-15
1.44095e-14
3.58457e-15
1.71845e-14
8.73649e-15
8.34256e-15
9.07705e-15
1.23839e-14
2.72564e-15
5.73147e-15
3.58435e-15
8.82134e-15
2.78427e-15
-9.56522e-15
2.16725e-15
3.71966e-15
6.52001e-15
7.96447e-15
7.7426e-15
8.61757e-15
1.30233e-14
7.67216e-15
5.9046e-15
4.9011e-15
4.79379e-15
6.51442e-15
-7.85725e-16
1.20723e-14
1.00624e-14
7.28152e-15
8.67654e-15
5.005e-15
3.60552e-15
8.87716e-15
4.06483e-15
5.94117e-15
1.06752e-14
5.05391e-15
1.27245e-14
-1.24455e-15
4.01302e-15
5.91967e-15
7.17397e-15
1.56766e-14
9.09023e-15
4.89605e-15
3.24596e-15
-2.15713e-15
4.00762e-15
6.19886e-15
3.15053e-15
1.25225e-14
4.01952e-15
4.70795e-15
5.99463e-15
4.4068e-15
1.10426e-15
1.69193e-15
1.28037e-14
5.11657e-15
4.84625e-15
-1.40756e-15
9.32541e-15
-3.74858e-15
1.72766e-15
8.61231e-15
-3.71351e-15
3.45917e-15
1.28997e-14
8.11692e-15
7.01478e-15
3.65618e-15
7.01232e-15
1.99887e-14
4.94434e-15
1.14404e-14
5.2127e-15
1.30746e-14
2.23405e-15
7.22345e-15
6.80064e-15
3.35328e-15
7.9311e-15
9.22085e-15
8.70422e-15
9.43255e-15
6.76004e-15
9.70978e-15
3.98391e-15
9.90024e-16
-1.65974e-15
1.46027e-14
5.37001e-15
4.88649e-15
4.07346e-15
5.74039e-15
8.10958e-16
8.6902e-15
-6.40788e-17
1.28428e-14
7.86766e-15
3.93629e-15
3.25126e-15
-1.59272e-15
4.21003e-15
6.73828e-15
8.95407e-15
6.39817e-15
3.59947e-15
8.81528e-15
2.76016e-15
-7.19142e-17
8.41254e-15
1.74199e-15
9.29352e-15
2.13867e-15
1.44965e-14
8.64897e-15
5.49168e-15
6.27914e-15
4.48297e-15
2.85145e-15
3.10895e-15
1.25452e-14
7.43935e-15
3.37885e-15
1.21698e-14
9.86057e-15
2.98536e-15
2.27169e-15
2.96888e-15
1.51112e-14
6.2165e-15
-1.83256e-15
1.45726e-14
2.09283e-15
1.19948e-14
-1.43414e-15
1.26829e-14
6.47777e-15
1.84814e-15
8.69694e-15
2.29575e-15