/*--------------------------------*- C++ -*----------------------------------*\
| =========                 |                                                 |
| \\      /  F ield         | foam-extend: Open Source CFD                    |
|  \\    /   O peration     | Version:     4.0                                |
|   \\  /    A nd           | Web:         http://www.foam-extend.org         |
|    \\/     M anipulation  |                                                 |
\*---------------------------------------------------------------------------*/
FoamFile
{
    version     2.0;
    format      ascii;
    class       volVectorField;
    location    "24";
    object      U;
}
// * * * * * * * * * * * * * * * * * * * * * * * * * * * * * * * * * * * * * //

dimensions      [0 1 -1 0 0 0 0];

internalField   nonuniform List<vector> 
6960
(
(0.000367367 -427.466 0)
(0.00102761 -427.453 0)
(0.00146056 -427.454 0)
(0.0016182 -427.455 0)
(0.0015701 -427.455 0)
(0.00139297 -427.456 0)
(0.00115251 -427.457 0)
(0.000895193 -427.457 0)
(0.000649074 -427.458 0)
(0.000428498 -427.458 0)
(0.000239027 -427.458 0)
(8.11738e-05 -427.458 0)
(-4.7058e-05 -427.458 0)
(-0.000148698 -427.458 0)
(-0.000226987 -427.458 0)
(-0.000284999 -427.458 0)
(-0.000325482 -427.458 0)
(-0.000350832 -427.457 0)
(-0.000363115 -427.457 0)
(-0.000364118 -427.457 0)
(-0.00035539 -427.457 0)
(-0.000338291 -427.457 0)
(-0.000314028 -427.457 0)
(-0.000283684 -427.456 0)
(-0.000248245 -427.456 0)
(-0.000208616 -427.456 0)
(-0.000165639 -427.456 0)
(-0.000120107 -427.456 0)
(-7.27761e-05 -427.456 0)
(-2.43759e-05 -427.456 0)
(2.4379e-05 -427.456 0)
(7.27791e-05 -427.456 0)
(0.00012011 -427.456 0)
(0.000165642 -427.456 0)
(0.000208619 -427.456 0)
(0.000248247 -427.456 0)
(0.000283686 -427.456 0)
(0.000314029 -427.457 0)
(0.000338292 -427.457 0)
(0.000355391 -427.457 0)
(0.000364118 -427.457 0)
(0.000363115 -427.457 0)
(0.000350831 -427.457 0)
(0.000325481 -427.458 0)
(0.000284998 -427.458 0)
(0.000226986 -427.458 0)
(0.000148696 -427.458 0)
(4.70554e-05 -427.458 0)
(-8.11767e-05 -427.458 0)
(-0.000239031 -427.458 0)
(-0.000428501 -427.458 0)
(-0.000649078 -427.458 0)
(-0.000895197 -427.457 0)
(-0.00115252 -427.457 0)
(-0.00139297 -427.456 0)
(-0.0015701 -427.455 0)
(-0.0016182 -427.455 0)
(-0.00146056 -427.454 0)
(-0.00102762 -427.453 0)
(-0.000367368 -427.466 0)
(0.00149399 31.1078 0)
(0.00342967 31.1203 0)
(0.00428391 31.12 0)
(0.00475029 31.1197 0)
(0.00461325 31.1194 0)
(0.00409642 31.119 0)
(0.00339232 31.1188 0)
(0.00263737 31.1186 0)
(0.0019143 31.1184 0)
(0.00126557 31.1183 0)
(0.000707836 31.1182 0)
(0.000242812 31.1182 0)
(-0.000135202 31.1182 0)
(-0.000435014 31.1182 0)
(-0.000666089 31.1183 0)
(-0.000837432 31.1183 0)
(-0.00095711 31.1184 0)
(-0.00103217 31.1185 0)
(-0.00106868 31.1185 0)
(-0.00107192 31.1186 0)
(-0.00104643 31.1187 0)
(-0.000996242 31.1188 0)
(-0.000924906 31.1188 0)
(-0.00083562 31.1189 0)
(-0.000731289 31.119 0)
(-0.000614587 31.119 0)
(-0.000487999 31.119 0)
(-0.000353867 31.1191 0)
(-0.000214422 31.1191 0)
(-7.18202e-05 31.1191 0)
(7.18291e-05 31.1191 0)
(0.000214431 31.1191 0)
(0.000353875 31.1191 0)
(0.000488007 31.119 0)
(0.000614594 31.119 0)
(0.000731296 31.119 0)
(0.000835625 31.1189 0)
(0.000924911 31.1188 0)
(0.000996246 31.1188 0)
(0.00104643 31.1187 0)
(0.00107192 31.1186 0)
(0.00106868 31.1185 0)
(0.00103217 31.1185 0)
(0.000957108 31.1184 0)
(0.000837428 31.1183 0)
(0.000666083 31.1183 0)
(0.000435007 31.1182 0)
(0.000135194 31.1182 0)
(-0.000242821 31.1182 0)
(-0.000707846 31.1182 0)
(-0.00126558 31.1183 0)
(-0.00191431 31.1184 0)
(-0.00263738 31.1186 0)
(-0.00339233 31.1188 0)
(-0.00409644 31.119 0)
(-0.00461327 31.1194 0)
(-0.00475031 31.1197 0)
(-0.00428392 31.12 0)
(-0.00342968 31.1203 0)
(-0.00149399 31.1078 0)
(0.00210662 79.4448 0)
(0.00525246 79.4375 0)
(0.00696635 79.4375 0)
(0.00773303 79.4374 0)
(0.00751808 79.4373 0)
(0.00668297 79.4372 0)
(0.00554026 79.4371 0)
(0.00431215 79.437 0)
(0.00313395 79.437 0)
(0.0020755 79.4369 0)
(0.00116451 79.4369 0)
(0.000404238 79.4369 0)
(-0.000214289 79.4369 0)
(-0.000705231 79.4369 0)
(-0.0010839 79.4369 0)
(-0.00136493 79.4369 0)
(-0.00156143 79.4369 0)
(-0.00168489 79.4369 0)
(-0.00174525 79.437 0)
(-0.00175109 79.437 0)
(-0.00170988 79.437 0)
(-0.00162818 79.4371 0)
(-0.00151183 79.4371 0)
(-0.00136605 79.4371 0)
(-0.00119561 79.4371 0)
(-0.00100488 79.4371 0)
(-0.000797952 79.4372 0)
(-0.00057865 79.4372 0)
(-0.000350637 79.4372 0)
(-0.000117447 79.4372 0)
(0.000117461 79.4372 0)
(0.000350651 79.4372 0)
(0.000578664 79.4372 0)
(0.000797965 79.4372 0)
(0.0010049 79.4371 0)
(0.00119562 79.4371 0)
(0.00136606 79.4371 0)
(0.00151183 79.4371 0)
(0.00162819 79.4371 0)
(0.00170988 79.437 0)
(0.00175109 79.437 0)
(0.00174525 79.437 0)
(0.00168489 79.4369 0)
(0.00156142 79.4369 0)
(0.00136492 79.4369 0)
(0.00108389 79.4369 0)
(0.00070522 79.4369 0)
(0.000214277 79.4369 0)
(-0.000404252 79.4369 0)
(-0.00116452 79.4369 0)
(-0.00207552 79.4369 0)
(-0.00313398 79.437 0)
(-0.00431217 79.437 0)
(-0.00554028 79.4371 0)
(-0.00668299 79.4372 0)
(-0.0075181 79.4373 0)
(-0.00773306 79.4374 0)
(-0.00696637 79.4375 0)
(-0.00525247 79.4375 0)
(-0.00210662 79.4448 0)
(0.00254002 19.4076 0)
(0.00681349 19.4003 0)
(0.00946985 19.4004 0)
(0.010525 19.4005 0)
(0.0102454 19.4005 0)
(0.00911877 19.4006 0)
(0.00756914 19.4006 0)
(0.00589908 19.4006 0)
(0.00429375 19.4006 0)
(0.00284934 19.4006 0)
(0.00160455 19.4005 0)
(0.000564569 19.4005 0)
(-0.000282342 19.4005 0)
(-0.00095516 19.4005 0)
(-0.00147457 19.4005 0)
(-0.00186042 19.4005 0)
(-0.00213057 19.4005 0)
(-0.00230068 19.4005 0)
(-0.00238429 19.4005 0)
(-0.00239317 19.4005 0)
(-0.00233752 19.4005 0)
(-0.00222634 19.4005 0)
(-0.00206761 19.4005 0)
(-0.00186851 19.4005 0)
(-0.00163556 19.4005 0)
(-0.00137478 19.4005 0)
(-0.00109175 19.4005 0)
(-0.000791744 19.4005 0)
(-0.000479778 19.4005 0)
(-0.000160705 19.4005 0)
(0.000160725 19.4005 0)
(0.000479797 19.4005 0)
(0.000791762 19.4005 0)
(0.00109177 19.4005 0)
(0.0013748 19.4005 0)
(0.00163558 19.4005 0)
(0.00186852 19.4005 0)
(0.00206762 19.4005 0)
(0.00222635 19.4005 0)
(0.00233753 19.4005 0)
(0.00239317 19.4005 0)
(0.00238429 19.4005 0)
(0.00230067 19.4005 0)
(0.00213057 19.4005 0)
(0.00186041 19.4005 0)
(0.00147456 19.4005 0)
(0.000955145 19.4005 0)
(0.000282325 19.4005 0)
(-0.000564588 19.4005 0)
(-0.00160457 19.4005 0)
(-0.00284936 19.4006 0)
(-0.00429378 19.4006 0)
(-0.00589912 19.4006 0)
(-0.00756917 19.4006 0)
(-0.0091188 19.4006 0)
(-0.0102454 19.4005 0)
(-0.010525 19.4005 0)
(-0.00946988 19.4004 0)
(-0.00681351 19.4003 0)
(-0.00254002 19.4076 0)
(0.00305345 -2.496 0)
(0.00836301 -2.49693 0)
(0.0117742 -2.4967 0)
(0.0131036 -2.49647 0)
(0.0127737 -2.49627 0)
(0.011385 -2.49612 0)
(0.00946372 -2.49602 0)
(0.0073866 -2.49596 0)
(0.00538555 -2.49593 0)
(0.00358193 -2.49593 0)
(0.00202532 -2.49593 0)
(0.00072321 -2.49594 0)
(-0.000338328 -2.49596 0)
(-0.0011825 -2.49599 0)
(-0.00183485 -2.49601 0)
(-0.00231999 -2.49604 0)
(-0.00266014 -2.49607 0)
(-0.00287484 -2.4961 0)
(-0.00298102 -2.49613 0)
(-0.00299339 -2.49616 0)
(-0.00292474 -2.49618 0)
(-0.00278634 -2.49621 0)
(-0.00258821 -2.49623 0)
(-0.00233936 -2.49625 0)
(-0.00204797 -2.49627 0)
(-0.00172161 -2.49628 0)
(-0.00136728 -2.49629 0)
(-0.000991615 -2.4963 0)
(-0.000600917 -2.49631 0)
(-0.000201285 -2.49631 0)
(0.00020131 -2.49631 0)
(0.000600941 -2.49631 0)
(0.000991638 -2.4963 0)
(0.0013673 -2.49629 0)
(0.00172163 -2.49628 0)
(0.00204799 -2.49627 0)
(0.00233937 -2.49625 0)
(0.00258823 -2.49623 0)
(0.00278635 -2.49621 0)
(0.00292475 -2.49618 0)
(0.00299339 -2.49616 0)
(0.00298102 -2.49613 0)
(0.00287484 -2.4961 0)
(0.00266013 -2.49607 0)
(0.00231998 -2.49604 0)
(0.00183484 -2.49601 0)
(0.00118248 -2.49599 0)
(0.000338306 -2.49596 0)
(-0.000723234 -2.49594 0)
(-0.00202535 -2.49593 0)
(-0.00358196 -2.49593 0)
(-0.00538559 -2.49593 0)
(-0.00738664 -2.49596 0)
(-0.00946376 -2.49602 0)
(-0.0113851 -2.49612 0)
(-0.0127737 -2.49627 0)
(-0.0131037 -2.49647 0)
(-0.0117743 -2.4967 0)
(-0.00836304 -2.49693 0)
(-0.00305346 -2.496 0)
(0.00358148 -1.54614 0)
(0.00982939 -1.54501 0)
(0.0138658 -1.54465 0)
(0.0154539 -1.54429 0)
(0.0150883 -1.54397 0)
(0.0134689 -1.54372 0)
(0.0112135 -1.54356 0)
(0.00876666 -1.54346 0)
(0.00640365 -1.5434 0)
(0.00426964 -1.54338 0)
(0.00242492 -1.54338 0)
(0.000879686 -1.5434 0)
(-0.000381584 -1.54343 0)
(-0.00138571 -1.54347 0)
(-0.00216252 -1.54351 0)
(-0.00274092 -1.54355 0)
(-0.00314711 -1.5436 0)
(-0.00340416 -1.54365 0)
(-0.00353213 -1.5437 0)
(-0.00354846 -1.54374 0)
(-0.00346834 -1.54379 0)
(-0.00330516 -1.54383 0)
(-0.00307083 -1.54387 0)
(-0.00277607 -1.5439 0)
(-0.00243064 -1.54393 0)
(-0.00204352 -1.54396 0)
(-0.00162308 -1.54398 0)
(-0.0011772 -1.54399 0)
(-0.000713412 -1.544 0)
(-0.000238972 -1.54401 0)
(0.000239001 -1.54401 0)
(0.000713441 -1.544 0)
(0.00117723 -1.54399 0)
(0.00162311 -1.54398 0)
(0.00204354 -1.54396 0)
(0.00243066 -1.54393 0)
(0.00277609 -1.5439 0)
(0.00307084 -1.54387 0)
(0.00330517 -1.54383 0)
(0.00346835 -1.54379 0)
(0.00354846 -1.54374 0)
(0.00353213 -1.5437 0)
(0.00340415 -1.54365 0)
(0.0031471 -1.5436 0)
(0.00274091 -1.54355 0)
(0.0021625 -1.54351 0)
(0.00138569 -1.54347 0)
(0.000381558 -1.54343 0)
(-0.000879715 -1.5434 0)
(-0.00242496 -1.54338 0)
(-0.00426968 -1.54338 0)
(-0.00640369 -1.5434 0)
(-0.0087667 -1.54346 0)
(-0.0112135 -1.54356 0)
(-0.013469 -1.54372 0)
(-0.0150883 -1.54397 0)
(-0.0154539 -1.54429 0)
(-0.0138659 -1.54465 0)
(-0.00982942 -1.54501 0)
(-0.00358149 -1.54614 0)
(0.00404431 0.477535 0)
(0.0111282 0.478179 0)
(0.0157345 0.478663 0)
(0.0175645 0.479159 0)
(0.0171782 0.479588 0)
(0.0153606 0.479908 0)
(0.0128104 0.480125 0)
(0.0100331 0.480258 0)
(0.00734363 0.480328 0)
(0.00490962 0.480354 0)
(0.00280185 0.48035 0)
(0.00103358 0.480324 0)
(-0.000411648 0.480284 0)
(-0.00156364 0.480234 0)
(-0.00245592 0.480177 0)
(-0.00312118 0.480117 0)
(-0.00358917 0.480054 0)
(-0.00388618 0.479991 0)
(-0.0040351 0.479928 0)
(-0.00405587 0.479868 0)
(-0.00396588 0.47981 0)
(-0.00378047 0.479756 0)
(-0.00351332 0.479706 0)
(-0.00317672 0.479661 0)
(-0.00278187 0.479621 0)
(-0.0023391 0.479588 0)
(-0.00185802 0.479561 0)
(-0.0013477 0.47954 0)
(-0.000816772 0.479526 0)
(-0.0002736 0.479519 0)
(0.000273634 0.479519 0)
(0.000816805 0.479526 0)
(0.00134773 0.47954 0)
(0.00185805 0.479561 0)
(0.00233913 0.479588 0)
(0.0027819 0.479621 0)
(0.00317674 0.479661 0)
(0.00351334 0.479706 0)
(0.00378049 0.479756 0)
(0.00396589 0.47981 0)
(0.00405587 0.479868 0)
(0.0040351 0.479928 0)
(0.00388617 0.479991 0)
(0.00358916 0.480054 0)
(0.00312116 0.480117 0)
(0.0024559 0.480177 0)
(0.00156362 0.480234 0)
(0.000411619 0.480284 0)
(-0.00103362 0.480324 0)
(-0.00280188 0.48035 0)
(-0.00490966 0.480354 0)
(-0.00734368 0.480328 0)
(-0.0100331 0.480258 0)
(-0.0128105 0.480125 0)
(-0.0153607 0.479908 0)
(-0.0171783 0.479588 0)
(-0.0175646 0.479159 0)
(-0.0157346 0.478663 0)
(-0.0111283 0.478179 0)
(-0.00404432 0.477535 0)
(0.00443327 0.458375 0)
(0.0122476 0.458689 0)
(0.0173727 0.459298 0)
(0.0194269 0.459921 0)
(0.0190349 0.460452 0)
(0.0170525 0.460843 0)
(0.0142481 0.461104 0)
(0.0111809 0.461259 0)
(0.00820194 0.461337 0)
(0.00549955 0.461362 0)
(0.00315482 0.46135 0)
(0.00118451 0.461314 0)
(-0.000428205 0.461262 0)
(-0.00171542 0.461198 0)
(-0.00271376 0.461128 0)
(-0.00345917 0.461054 0)
(-0.00398453 0.460978 0)
(-0.00431897 0.460902 0)
(-0.00448795 0.460827 0)
(-0.00451363 0.460754 0)
(-0.00441543 0.460685 0)
(-0.00421046 0.460621 0)
(-0.00391399 0.460562 0)
(-0.00353978 0.460508 0)
(-0.00310034 0.460462 0)
(-0.00260724 0.460422 0)
(-0.00207123 0.46039 0)
(-0.00150246 0.460366 0)
(-0.000910607 0.460349 0)
(-0.00030504 0.460341 0)
(0.000305078 0.460341 0)
(0.000910644 0.460349 0)
(0.00150249 0.460366 0)
(0.00207126 0.46039 0)
(0.00260727 0.460422 0)
(0.00310037 0.460462 0)
(0.0035398 0.460508 0)
(0.00391401 0.460562 0)
(0.00421048 0.460621 0)
(0.00441544 0.460685 0)
(0.00451364 0.460754 0)
(0.00448795 0.460827 0)
(0.00431897 0.460902 0)
(0.00398451 0.460978 0)
(0.00345915 0.461054 0)
(0.00271373 0.461128 0)
(0.0017154 0.461198 0)
(0.000428172 0.461262 0)
(-0.00118455 0.461314 0)
(-0.00315487 0.46135 0)
(-0.00549959 0.461362 0)
(-0.00820199 0.461337 0)
(-0.011181 0.461259 0)
(-0.0142482 0.461104 0)
(-0.0170526 0.460843 0)
(-0.019035 0.460452 0)
(-0.019427 0.459921 0)
(-0.0173728 0.459298 0)
(-0.0122476 0.458689 0)
(-0.00443329 0.458375 0)
(0.00475909 0.0737032 0)
(0.0131957 0.0741321 0)
(0.0187751 0.0748725 0)
(0.0210347 0.0756268 0)
(0.0206521 0.0762606 0)
(0.0185388 0.0767209 0)
(0.0155217 0.077021 0)
(0.0122063 0.0771945 0)
(0.00897574 0.0772765 0)
(0.00603754 0.0772961 0)
(0.0034828 0.0772742 0)
(0.0013321 0.0772253 0)
(-0.000431066 0.077159 0)
(-0.00184043 0.0770818 0)
(-0.00293507 0.0769978 0)
(-0.00375368 0.0769103 0)
(-0.0043318 0.0768214 0)
(-0.00470105 0.0767331 0)
(-0.00488913 0.0766467 0)
(-0.00492021 0.0765636 0)
(-0.00481549 0.0764848 0)
(-0.00459369 0.0764114 0)
(-0.00427153 0.0763442 0)
(-0.00386405 0.0762838 0)
(-0.00338501 0.076231 0)
(-0.00284705 0.0761863 0)
(-0.002262 0.0761499 0)
(-0.00164097 0.0761224 0)
(-0.000994612 0.076104 0)
(-0.000333189 0.0760947 0)
(0.000333231 0.0760947 0)
(0.000994653 0.076104 0)
(0.00164101 0.0761224 0)
(0.00226203 0.0761499 0)
(0.00284709 0.0761863 0)
(0.00338504 0.076231 0)
(0.00386408 0.0762838 0)
(0.00427155 0.0763442 0)
(0.00459371 0.0764114 0)
(0.0048155 0.0764848 0)
(0.00492022 0.0765636 0)
(0.00488913 0.0766467 0)
(0.00470105 0.0767331 0)
(0.00433178 0.0768214 0)
(0.00375366 0.0769103 0)
(0.00293504 0.0769978 0)
(0.0018404 0.0770818 0)
(0.00043103 0.077159 0)
(-0.00133214 0.0772253 0)
(-0.00348284 0.0772742 0)
(-0.00603759 0.0772961 0)
(-0.0089758 0.0772765 0)
(-0.0122064 0.0771945 0)
(-0.0155218 0.077021 0)
(-0.0185389 0.0767209 0)
(-0.0206522 0.0762606 0)
(-0.0210348 0.0756268 0)
(-0.0187752 0.0748725 0)
(-0.0131957 0.0741321 0)
(-0.0047591 0.0737032 0)
(0.00502457 -0.0765746 0)
(0.0139739 -0.0759671 0)
(0.0199382 -0.0750877 0)
(0.0223838 -0.0741951 0)
(0.0220254 -0.0734542 0)
(0.0198154 -0.0729229 0)
(0.0166276 -0.0725833 0)
(0.0131064 -0.0723934 0)
(0.00966287 -0.07231 0)
(0.00652213 -0.072298 0)
(0.0037849 -0.0723323 0)
(0.001476 -0.0723956 0)
(-0.000420166 -0.0724771 0)
(-0.00193826 -0.0725693 0)
(-0.0031192 -0.0726677 0)
(-0.00400385 -0.072769 0)
(-0.00462999 -0.0728708 0)
(-0.00503135 -0.0729712 0)
(-0.00523754 -0.0730687 0)
(-0.00527449 -0.0731621 0)
(-0.00516498 -0.0732503 0)
(-0.00492914 -0.0733322 0)
(-0.00458496 -0.0734071 0)
(-0.00414868 -0.0734741 0)
(-0.0036351 -0.0735327 0)
(-0.0030579 -0.0735823 0)
(-0.00242982 -0.0736225 0)
(-0.00176288 -0.0736529 0)
(-0.00106856 -0.0736734 0)
(-0.000357973 -0.0736836 0)
(0.000358018 -0.0736836 0)
(0.00106861 -0.0736734 0)
(0.00176292 -0.0736529 0)
(0.00242986 -0.0736225 0)
(0.00305794 -0.0735823 0)
(0.00363513 -0.0735327 0)
(0.0041487 -0.0734741 0)
(0.00458498 -0.0734071 0)
(0.00492915 -0.0733322 0)
(0.00516499 -0.0732503 0)
(0.0052745 -0.0731621 0)
(0.00523754 -0.0730687 0)
(0.00503135 -0.0729712 0)
(0.00462998 -0.0728708 0)
(0.00400383 -0.072769 0)
(0.00311917 -0.0726677 0)
(0.00193823 -0.0725693 0)
(0.000420127 -0.072477 0)
(-0.00147604 -0.0723956 0)
(-0.00378495 -0.0723323 0)
(-0.00652218 -0.072298 0)
(-0.00966293 -0.07231 0)
(-0.0131065 -0.0723934 0)
(-0.0166277 -0.0725833 0)
(-0.0198155 -0.0729229 0)
(-0.0220255 -0.0734542 0)
(-0.0223839 -0.0741951 0)
(-0.0199383 -0.0750877 0)
(-0.013974 -0.0759671 0)
(-0.00502458 -0.0765746 0)
(0.00522816 -0.109245 0)
(0.0145804 -0.108519 0)
(0.0208609 -0.107492 0)
(0.0234725 -0.106453 0)
(0.0231526 -0.105599 0)
(0.02088 -0.104994 0)
(0.0175637 -0.104613 0)
(0.0138794 -0.104407 0)
(0.0102619 -0.104324 0)
(0.00695227 -0.104321 0)
(0.00406046 -0.104369 0)
(0.00161586 -0.104448 0)
(-0.000395573 -0.104546 0)
(-0.00200876 -0.104654 0)
(-0.00326581 -0.104768 0)
(-0.00420924 -0.104884 0)
(-0.00487856 -0.104999 0)
(-0.00530925 -0.105112 0)
(-0.00553252 -0.105221 0)
(-0.00557581 -0.105325 0)
(-0.00546323 -0.105422 0)
(-0.00521616 -0.105513 0)
(-0.0048537 -0.105595 0)
(-0.00439311 -0.105669 0)
(-0.00385016 -0.105733 0)
(-0.0032394 -0.105788 0)
(-0.00257439 -0.105832 0)
(-0.00186795 -0.105865 0)
(-0.00113233 -0.105887 0)
(-0.000379346 -0.105899 0)
(0.000379393 -0.105899 0)
(0.00113237 -0.105887 0)
(0.001868 -0.105865 0)
(0.00257443 -0.105832 0)
(0.00323944 -0.105788 0)
(0.0038502 -0.105733 0)
(0.00439314 -0.105669 0)
(0.00485372 -0.105595 0)
(0.00521618 -0.105513 0)
(0.00546325 -0.105422 0)
(0.00557582 -0.105325 0)
(0.00553252 -0.105221 0)
(0.00530924 -0.105112 0)
(0.00487855 -0.104999 0)
(0.00420922 -0.104884 0)
(0.00326578 -0.104768 0)
(0.00200872 -0.104654 0)
(0.000395533 -0.104546 0)
(-0.0016159 -0.104448 0)
(-0.00406051 -0.104369 0)
(-0.00695232 -0.104321 0)
(-0.010262 -0.104324 0)
(-0.0138794 -0.104407 0)
(-0.0175637 -0.104613 0)
(-0.0208801 -0.104994 0)
(-0.0231526 -0.105599 0)
(-0.0234726 -0.106453 0)
(-0.0208609 -0.107493 0)
(-0.0145805 -0.108519 0)
(-0.00522817 -0.109245 0)
(0.00536937 -0.139018 0)
(0.0150154 -0.138193 0)
(0.0215444 -0.137013 0)
(0.0243015 -0.135819 0)
(0.0240339 -0.134846 0)
(0.0217323 -0.134162 0)
(0.0183294 -0.133738 0)
(0.0145245 -0.133516 0)
(0.0107722 -0.133432 0)
(0.0073274 -0.133439 0)
(0.00430903 -0.133503 0)
(0.00175135 -0.133599 0)
(-0.000357504 -0.133715 0)
(-0.00205204 -0.13384 0)
(-0.00337494 -0.133971 0)
(-0.0043698 -0.134101 0)
(-0.00507742 -0.134231 0)
(-0.00553462 -0.134357 0)
(-0.00577393 -0.134477 0)
(-0.005824 -0.134592 0)
(-0.00571009 -0.1347 0)
(-0.00545459 -0.134799 0)
(-0.00507759 -0.134889 0)
(-0.00459722 -0.13497 0)
(-0.00403006 -0.13504 0)
(-0.00339142 -0.135099 0)
(-0.00269561 -0.135147 0)
(-0.00195612 -0.135183 0)
(-0.00118586 -0.135207 0)
(-0.000397294 -0.13522 0)
(0.000397343 -0.13522 0)
(0.00118591 -0.135207 0)
(0.00195617 -0.135183 0)
(0.00269565 -0.135147 0)
(0.00339146 -0.135099 0)
(0.00403009 -0.13504 0)
(0.00459725 -0.13497 0)
(0.00507761 -0.134889 0)
(0.00545461 -0.134799 0)
(0.0057101 -0.1347 0)
(0.00582401 -0.134592 0)
(0.00577393 -0.134477 0)
(0.00553461 -0.134356 0)
(0.0050774 -0.134231 0)
(0.00436977 -0.134101 0)
(0.00337491 -0.133971 0)
(0.00205201 -0.13384 0)
(0.000357461 -0.133715 0)
(-0.0017514 -0.133599 0)
(-0.00430908 -0.133503 0)
(-0.00732747 -0.133439 0)
(-0.0107723 -0.133432 0)
(-0.0145246 -0.133516 0)
(-0.0183295 -0.133738 0)
(-0.0217324 -0.134162 0)
(-0.024034 -0.134846 0)
(-0.0243016 -0.135819 0)
(-0.0215445 -0.137013 0)
(-0.0150154 -0.138193 0)
(-0.00536938 -0.139018 0)
(0.00544945 -0.191568 0)
(0.0152819 -0.190635 0)
(0.0219928 -0.189295 0)
(0.0248746 -0.18794 0)
(0.0246724 -0.186842 0)
(0.0223746 -0.186076 0)
(0.0189262 -0.185607 0)
(0.0150427 -0.185367 0)
(0.0111941 -0.185284 0)
(0.00764755 -0.185302 0)
(0.00453043 -0.185382 0)
(0.00188217 -0.185497 0)
(-0.000306341 -0.185631 0)
(-0.00206854 -0.185775 0)
(-0.00344704 -0.185922 0)
(-0.00448599 -0.186069 0)
(-0.00522702 -0.186213 0)
(-0.00570791 -0.186352 0)
(-0.00596219 -0.186486 0)
(-0.00601947 -0.186611 0)
(-0.00590592 -0.186729 0)
(-0.00564479 -0.186837 0)
(-0.00525694 -0.186935 0)
(-0.00476126 -0.187023 0)
(-0.00417502 -0.187099 0)
(-0.00351417 -0.187163 0)
(-0.00279364 -0.187215 0)
(-0.0020275 -0.187254 0)
(-0.00122923 -0.18728 0)
(-0.000411838 -0.187294 0)
(0.00041189 -0.187294 0)
(0.00122928 -0.18728 0)
(0.00202755 -0.187254 0)
(0.00279368 -0.187215 0)
(0.00351422 -0.187163 0)
(0.00417506 -0.187099 0)
(0.00476129 -0.187023 0)
(0.00525697 -0.186935 0)
(0.00564481 -0.186837 0)
(0.00590593 -0.186729 0)
(0.00601948 -0.186611 0)
(0.00596219 -0.186486 0)
(0.0057079 -0.186352 0)
(0.005227 -0.186213 0)
(0.00448596 -0.186069 0)
(0.00344701 -0.185922 0)
(0.0020685 -0.185775 0)
(0.000306296 -0.185631 0)
(-0.00188222 -0.185497 0)
(-0.00453049 -0.185382 0)
(-0.00764761 -0.185302 0)
(-0.0111942 -0.185284 0)
(-0.0150428 -0.185367 0)
(-0.0189263 -0.185607 0)
(-0.0223747 -0.186076 0)
(-0.0246725 -0.186842 0)
(-0.0248747 -0.18794 0)
(-0.0219928 -0.189295 0)
(-0.015282 -0.190635 0)
(-0.00544947 -0.191568 0)
(0.0054708 -0.277834 0)
(0.0153859 -0.276774 0)
(0.0222132 -0.27527 0)
(0.025199 -0.273749 0)
(0.0250742 -0.272522 0)
(0.0228115 -0.271671 0)
(0.0193575 -0.271156 0)
(0.0154361 -0.270898 0)
(0.0115289 -0.270816 0)
(0.00791335 -0.270845 0)
(0.00472477 -0.270942 0)
(0.00200804 -0.271077 0)
(-0.000242659 -0.271231 0)
(-0.00205904 -0.271394 0)
(-0.00348304 -0.271559 0)
(-0.00455883 -0.271722 0)
(-0.00532844 -0.271881 0)
(-0.00583022 -0.272035 0)
(-0.0060984 -0.27218 0)
(-0.00616328 -0.272317 0)
(-0.00605174 -0.272445 0)
(-0.00578769 -0.272562 0)
(-0.00539262 -0.272669 0)
(-0.00488602 -0.272763 0)
(-0.00428572 -0.272845 0)
(-0.00360821 -0.272914 0)
(-0.00286892 -0.27297 0)
(-0.00208241 -0.273012 0)
(-0.00126262 -0.27304 0)
(-0.000423045 -0.273054 0)
(0.000423098 -0.273054 0)
(0.00126267 -0.27304 0)
(0.00208246 -0.273012 0)
(0.00286897 -0.27297 0)
(0.00360826 -0.272914 0)
(0.00428576 -0.272845 0)
(0.00488606 -0.272763 0)
(0.00539265 -0.272669 0)
(0.00578771 -0.272562 0)
(0.00605175 -0.272445 0)
(0.00616329 -0.272317 0)
(0.0060984 -0.27218 0)
(0.00583021 -0.272035 0)
(0.00532842 -0.271881 0)
(0.00455881 -0.271722 0)
(0.00348301 -0.271559 0)
(0.002059 -0.271394 0)
(0.000242613 -0.271231 0)
(-0.00200809 -0.271077 0)
(-0.00472483 -0.270942 0)
(-0.00791341 -0.270845 0)
(-0.011529 -0.270816 0)
(-0.0154362 -0.270898 0)
(-0.0193576 -0.271156 0)
(-0.0228116 -0.271671 0)
(-0.0250743 -0.272522 0)
(-0.0251991 -0.273749 0)
(-0.0222133 -0.27527 0)
(-0.015386 -0.276774 0)
(-0.00547082 -0.277834 0)
(0.00543691 -0.424589 0)
(0.015336 -0.423375 0)
(0.0222165 -0.421706 0)
(0.0252858 -0.420018 0)
(0.025249 -0.418661 0)
(0.0230509 -0.417724 0)
(0.019629 -0.417163 0)
(0.0157089 -0.416888 0)
(0.0117793 -0.416807 0)
(0.00812617 -0.41685 0)
(0.00489249 -0.416965 0)
(0.00212868 -0.41712 0)
(-0.000167249 -0.417295 0)
(-0.00202471 -0.417478 0)
(-0.0034844 -0.417661 0)
(-0.00458999 -0.417841 0)
(-0.00538345 -0.418015 0)
(-0.00590338 -0.418182 0)
(-0.00618439 -0.41834 0)
(-0.00625724 -0.418488 0)
(-0.00614927 -0.418625 0)
(-0.00588492 -0.418751 0)
(-0.00548612 -0.418865 0)
(-0.00497284 -0.418966 0)
(-0.00436333 -0.419054 0)
(-0.00367451 -0.419127 0)
(-0.00292222 -0.419187 0)
(-0.0021214 -0.419232 0)
(-0.00128638 -0.419262 0)
(-0.000431027 -0.419277 0)
(0.00043108 -0.419277 0)
(0.00128644 -0.419262 0)
(0.00212145 -0.419232 0)
(0.00292226 -0.419187 0)
(0.00367456 -0.419127 0)
(0.00436337 -0.419054 0)
(0.00497287 -0.418966 0)
(0.00548615 -0.418865 0)
(0.00588494 -0.418751 0)
(0.00614929 -0.418625 0)
(0.00625725 -0.418488 0)
(0.00618439 -0.41834 0)
(0.00590338 -0.418182 0)
(0.00538343 -0.418015 0)
(0.00458996 -0.417841 0)
(0.00348437 -0.417661 0)
(0.00202467 -0.417478 0)
(0.000167202 -0.417295 0)
(-0.00212874 -0.41712 0)
(-0.00489255 -0.416965 0)
(-0.00812624 -0.41685 0)
(-0.0117793 -0.416807 0)
(-0.0157089 -0.416888 0)
(-0.0196291 -0.417163 0)
(-0.023051 -0.417724 0)
(-0.0252491 -0.418661 0)
(-0.0252858 -0.420018 0)
(-0.0222166 -0.421706 0)
(-0.0153361 -0.423375 0)
(-0.00543693 -0.424589 0)
(0.00535277 -0.672396 0)
(0.0151441 -0.670982 0)
(0.0220176 -0.669153 0)
(0.0251501 -0.667301 0)
(0.0252105 -0.665819 0)
(0.0231041 -0.6648 0)
(0.0197494 -0.664196 0)
(0.0158669 -0.663907 0)
(0.011949 -0.663831 0)
(0.00828821 -0.663888 0)
(0.00503443 -0.664024 0)
(0.00224388 -0.6642 0)
(-8.1141e-05 -0.664396 0)
(-0.00196719 -0.664598 0)
(-0.00345319 -0.664799 0)
(-0.00458182 -0.664995 0)
(-0.00539461 -0.665184 0)
(-0.00593005 -0.665363 0)
(-0.00622284 -0.665532 0)
(-0.00630397 -0.66569 0)
(-0.00620106 -0.665836 0)
(-0.00593885 -0.665969 0)
(-0.00553963 -0.666089 0)
(-0.00502366 -0.666195 0)
(-0.00440954 -0.666287 0)
(-0.0037145 -0.666365 0)
(-0.00295466 -0.666427 0)
(-0.00214529 -0.666474 0)
(-0.001301 -0.666506 0)
(-0.000435947 -0.666521 0)
(0.000436001 -0.666521 0)
(0.00130106 -0.666506 0)
(0.00214534 -0.666474 0)
(0.0029547 -0.666427 0)
(0.00371454 -0.666365 0)
(0.00440958 -0.666287 0)
(0.0050237 -0.666195 0)
(0.00553966 -0.666089 0)
(0.00593887 -0.665969 0)
(0.00620107 -0.665836 0)
(0.00630397 -0.66569 0)
(0.00622284 -0.665532 0)
(0.00593004 -0.665363 0)
(0.00539459 -0.665184 0)
(0.00458179 -0.664995 0)
(0.00345316 -0.664799 0)
(0.00196715 -0.664598 0)
(8.10935e-05 -0.664396 0)
(-0.00224394 -0.6642 0)
(-0.00503449 -0.664024 0)
(-0.00828828 -0.663888 0)
(-0.0119491 -0.663831 0)
(-0.015867 -0.663907 0)
(-0.0197495 -0.664196 0)
(-0.0231042 -0.6648 0)
(-0.0252106 -0.665819 0)
(-0.0251502 -0.667301 0)
(-0.0220177 -0.669153 0)
(-0.0151441 -0.670983 0)
(-0.00535279 -0.672396 0)
(0.00522518 -1.06079 0)
(0.0148259 -1.05912 0)
(0.0216354 -1.05714 0)
(0.0248119 -1.05513 0)
(0.0249767 -1.05354 0)
(0.0229857 -1.05245 0)
(0.0197299 -1.05181 0)
(0.0159184 -1.05151 0)
(0.0120435 -1.05145 0)
(0.0084025 -1.05152 0)
(0.0051518 -1.05168 0)
(0.00235344 -1.05188 0)
(1.43797e-05 -1.0521 0)
(-0.00188858 -1.05232 0)
(-0.00339211 -1.05254 0)
(-0.00453745 -1.05275 0)
(-0.0053653 -1.05295 0)
(-0.00591375 -1.05314 0)
(-0.00621731 -1.05331 0)
(-0.00630697 -1.05348 0)
(-0.00621046 -1.05363 0)
(-0.00595267 -1.05377 0)
(-0.00555606 -1.05389 0)
(-0.00504112 -1.054 0)
(-0.00442664 -1.0541 0)
(-0.00373007 -1.05418 0)
(-0.00296775 -1.05424 0)
(-0.00215517 -1.05429 0)
(-0.00130714 -1.05432 0)
(-0.000438029 -1.05434 0)
(0.000438083 -1.05434 0)
(0.0013072 -1.05432 0)
(0.00215522 -1.05429 0)
(0.0029678 -1.05424 0)
(0.00373011 -1.05418 0)
(0.00442668 -1.0541 0)
(0.00504115 -1.054 0)
(0.00555609 -1.05389 0)
(0.00595269 -1.05377 0)
(0.00621048 -1.05363 0)
(0.00630698 -1.05348 0)
(0.00621731 -1.05331 0)
(0.00591374 -1.05314 0)
(0.00536529 -1.05295 0)
(0.00453742 -1.05275 0)
(0.00339207 -1.05254 0)
(0.00188854 -1.05232 0)
(-1.44276e-05 -1.0521 0)
(-0.0023535 -1.05188 0)
(-0.00515186 -1.05168 0)
(-0.00840257 -1.05152 0)
(-0.0120435 -1.05145 0)
(-0.0159185 -1.05151 0)
(-0.01973 -1.05181 0)
(-0.0229858 -1.05245 0)
(-0.0249768 -1.05354 0)
(-0.024812 -1.05513 0)
(-0.0216355 -1.05714 0)
(-0.0148259 -1.05912 0)
(-0.0052252 -1.06079 0)
(0.00506273 -1.59925 0)
(0.0144008 -1.59724 0)
(0.0210935 -1.59514 0)
(0.0242957 -1.59301 0)
(0.0245698 -1.59132 0)
(0.0227143 -1.59018 0)
(0.0195848 -1.58952 0)
(0.0158736 -1.58923 0)
(0.0120695 -1.58919 0)
(0.00847298 -1.58929 0)
(0.00524626 -1.58947 0)
(0.00245721 -1.5897 0)
(0.000117776 -1.58993 0)
(-0.00179147 -1.59017 0)
(-0.0033045 -1.5904 0)
(-0.00446075 -1.59063 0)
(-0.00529976 -1.59083 0)
(-0.0058589 -1.59103 0)
(-0.00617226 -1.59121 0)
(-0.00627066 -1.59137 0)
(-0.00618172 -1.59153 0)
(-0.00593035 -1.59166 0)
(-0.00553909 -1.59179 0)
(-0.0050285 -1.5919 0)
(-0.00441749 -1.59199 0)
(-0.00372364 -1.59207 0)
(-0.00296341 -1.59213 0)
(-0.00215242 -1.59218 0)
(-0.00130563 -1.59221 0)
(-0.000437549 -1.59222 0)
(0.000437603 -1.59222 0)
(0.00130569 -1.59221 0)
(0.00215247 -1.59218 0)
(0.00296346 -1.59213 0)
(0.00372368 -1.59207 0)
(0.00441753 -1.59199 0)
(0.00502854 -1.5919 0)
(0.00553912 -1.59179 0)
(0.00593037 -1.59166 0)
(0.00618173 -1.59153 0)
(0.00627066 -1.59137 0)
(0.00617226 -1.59121 0)
(0.00585889 -1.59103 0)
(0.00529975 -1.59083 0)
(0.00446072 -1.59063 0)
(0.00330446 -1.5904 0)
(0.00179143 -1.59017 0)
(-0.000117824 -1.58993 0)
(-0.00245727 -1.5897 0)
(-0.00524632 -1.58947 0)
(-0.00847305 -1.58929 0)
(-0.0120695 -1.58919 0)
(-0.0158737 -1.58923 0)
(-0.0195849 -1.58952 0)
(-0.0227144 -1.59018 0)
(-0.0245699 -1.59132 0)
(-0.0242958 -1.59301 0)
(-0.0210935 -1.59514 0)
(-0.0144009 -1.59724 0)
(-0.00506275 -1.59925 0)
(0.00487516 -2.22964 0)
(0.0138913 -2.22727 0)
(0.0204189 -2.22506 0)
(0.02363 -2.22284 0)
(0.0240158 -2.2211 0)
(0.0223116 -2.21994 0)
(0.019331 -2.21929 0)
(0.0157447 -2.21902 0)
(0.0120351 -2.21901 0)
(0.00850441 -2.21914 0)
(0.00531983 -2.21936 0)
(0.00255508 -2.21961 0)
(0.000227289 -2.21987 0)
(-0.00167886 -2.22012 0)
(-0.00319429 -2.22036 0)
(-0.00435631 -2.22059 0)
(-0.00520298 -2.2208 0)
(-0.00577071 -2.22099 0)
(-0.00609298 -2.22117 0)
(-0.00620023 -2.22133 0)
(-0.00611985 -2.22147 0)
(-0.00587664 -2.22161 0)
(-0.00549309 -2.22172 0)
(-0.00498973 -2.22182 0)
(-0.00438551 -2.22191 0)
(-0.00369805 -2.22198 0)
(-0.00294388 -2.22204 0)
(-0.00213867 -2.22208 0)
(-0.00129746 -2.22211 0)
(-0.00043484 -2.22213 0)
(0.000434894 -2.22213 0)
(0.00129752 -2.22211 0)
(0.00213872 -2.22208 0)
(0.00294392 -2.22204 0)
(0.0036981 -2.22198 0)
(0.00438555 -2.22191 0)
(0.00498976 -2.22182 0)
(0.00549311 -2.22172 0)
(0.00587667 -2.22161 0)
(0.00611987 -2.22147 0)
(0.00620023 -2.22133 0)
(0.00609298 -2.22117 0)
(0.0057707 -2.22099 0)
(0.00520296 -2.2208 0)
(0.00435628 -2.22059 0)
(0.00319426 -2.22036 0)
(0.00167882 -2.22012 0)
(-0.000227337 -2.21987 0)
(-0.00255514 -2.21961 0)
(-0.00531989 -2.21936 0)
(-0.00850448 -2.21914 0)
(-0.0120352 -2.21901 0)
(-0.0157448 -2.21902 0)
(-0.019331 -2.21929 0)
(-0.0223117 -2.21994 0)
(-0.0240159 -2.2211 0)
(-0.0236301 -2.22284 0)
(-0.020419 -2.22506 0)
(-0.0138913 -2.22727 0)
(-0.00487518 -2.22964 0)
(0.00467204 -2.8094 0)
(0.0133207 -2.80668 0)
(0.0196417 -2.80441 0)
(0.0228464 -2.80214 0)
(0.0233439 -2.80038 0)
(0.0218018 -2.79922 0)
(0.0189872 -2.79861 0)
(0.0155454 -2.79838 0)
(0.0119496 -2.79842 0)
(0.00850222 -2.7986 0)
(0.00537489 -2.79885 0)
(0.00264701 -2.79913 0)
(0.000341008 -2.79941 0)
(-0.00155408 -2.79967 0)
(-0.00306586 -2.79992 0)
(-0.00422922 -2.80015 0)
(-0.00508053 -2.80035 0)
(-0.00565502 -2.80053 0)
(-0.0059854 -2.8007 0)
(-0.00610153 -2.80085 0)
(-0.00603051 -2.80098 0)
(-0.00579686 -2.8011 0)
(-0.00542294 -2.8012 0)
(-0.0049292 -2.80129 0)
(-0.00433453 -2.80136 0)
(-0.00365652 -2.80142 0)
(-0.0029117 -2.80147 0)
(-0.00211576 -2.80151 0)
(-0.00128375 -2.80153 0)
(-0.000430273 -2.80155 0)
(0.000430326 -2.80155 0)
(0.0012838 -2.80153 0)
(0.00211581 -2.80151 0)
(0.00291175 -2.80147 0)
(0.00365656 -2.80142 0)
(0.00433457 -2.80136 0)
(0.00492923 -2.80129 0)
(0.00542296 -2.8012 0)
(0.00579688 -2.8011 0)
(0.00603052 -2.80098 0)
(0.00610154 -2.80085 0)
(0.0059854 -2.8007 0)
(0.00565501 -2.80053 0)
(0.00508052 -2.80035 0)
(0.0042292 -2.80015 0)
(0.00306583 -2.79992 0)
(0.00155404 -2.79967 0)
(-0.000341055 -2.79941 0)