/*--------------------------------*- C++ -*----------------------------------*\
| =========                 |                                                 |
| \\      /  F ield         | foam-extend: Open Source CFD                    |
|  \\    /   O peration     | Version:     4.0                                |
|   \\  /    A nd           | Web:         http://www.foam-extend.org         |
|    \\/     M anipulation  |                                                 |
\*---------------------------------------------------------------------------*/
FoamFile
{
    version     2.0;
    format      ascii;
    class       surfaceScalarField;
    location    "24";
    object      phi;
}
// * * * * * * * * * * * * * * * * * * * * * * * * * * * * * * * * * * * * * //

dimensions      [0 3 -1 0 0 0 0];

internalField   nonuniform List<scalar> 
13744
(
-7.24452e-09
7.2446e-09
3.40091e-09
-1.06454e-08
8.21487e-11
3.31876e-09
2.96559e-11
5.24905e-11
1.61791e-11
1.34769e-11
9.15615e-12
7.02327e-12
5.93414e-12
3.2207e-12
3.91619e-12
2.02188e-12
2.74331e-12
1.17367e-12
1.97621e-12
7.65887e-13
1.46399e-12
5.11646e-13
1.11119e-12
3.55105e-13
8.5582e-13
2.55795e-13
6.70378e-13
1.84908e-13
5.29769e-13
1.38223e-13
4.23926e-13
1.0475e-13
3.39845e-13
8.37108e-14
2.75039e-13
6.63913e-14
2.22912e-13
5.10703e-14
1.80829e-13
4.31322e-14
1.46881e-13
3.32512e-14
1.19122e-13
2.91989e-14
9.53316e-14
2.52021e-14
7.60907e-14
2.14828e-14
5.9623e-14
1.71529e-14
4.47984e-14
1.31561e-14
3.24926e-14
1.23235e-14
2.14149e-14
1.13243e-14
1.02072e-14
1.07692e-14
-7.85407e-16
1.27121e-14
-7.75033e-15
4.82947e-15
-2.32428e-14
1.63203e-14
-3.24198e-14
1.01585e-14
-4.27234e-14
1.23235e-14
-6.18454e-14
1.85407e-14
-7.61083e-14
1.32117e-14
-9.31948e-14
1.80411e-14
-1.21299e-13
2.94209e-14
-1.46883e-13
2.61458e-14
-1.78792e-13
3.15858e-14
-2.25361e-13
4.66294e-14
-2.75336e-13
5.01266e-14
-3.37836e-13
6.18949e-14
-4.26142e-13
8.92064e-14
-5.29835e-13
1.06914e-13
-6.68254e-13
1.38889e-13
-8.57902e-13
1.90348e-13
-1.11107e-12
2.53575e-13
-1.46173e-12
3.53217e-13
-1.97826e-12
5.14921e-13
-2.74329e-12
7.66387e-13
-3.91418e-12
1.17156e-12
-5.93635e-12
2.02266e-12
-9.15618e-12
3.2207e-12
-1.6177e-11
7.02177e-12
-2.96581e-11
1.34822e-11
-8.21488e-11
5.249e-11
-3.4009e-09
3.31876e-09
7.24452e-09
-1.06454e-08
7.24451e-09
3.28896e-08
-2.5645e-08
4.29311e-09
1.7951e-08
2.49238e-10
7.36263e-09
9.03379e-11
2.11396e-10
5.03982e-11
5.34174e-11
2.8247e-11
2.91743e-11
1.85534e-11
1.29167e-11
1.21195e-11
8.44369e-12
8.58867e-12
4.70224e-12
6.12504e-12
3.23186e-12
4.58476e-12
2.05441e-12
3.44985e-12
1.4882e-12
2.67655e-12
1.02673e-12
2.08521e-12
7.79155e-13
1.65657e-12
5.72153e-13
1.31759e-12
4.43312e-13
1.06339e-12
3.37952e-13
8.56321e-13
2.70228e-13
6.94832e-13
2.14939e-13
5.64633e-13
1.72307e-13
4.58499e-13
1.42608e-13
3.69744e-13
1.16684e-13
2.98856e-13
9.4702e-14
2.37105e-13
7.93809e-14
1.84616e-13
6.72795e-14
1.41011e-13
6.00076e-14
1.01329e-13
5.11813e-14
6.52336e-14
4.81282e-14
3.37073e-14
4.43534e-14
9.03111e-16
4.13558e-14
-3.75913e-14
5.19029e-14
-5.86175e-14
3.73035e-14
-1.01124e-13
5.02376e-14
-1.47029e-13
5.64548e-14
-1.79031e-13
5.14588e-14
-2.37143e-13
7.24976e-14
-3.04707e-13
8.50986e-14
-3.64031e-13
8.70415e-14
-4.58522e-13
1.21014e-13
-5.70775e-13
1.4172e-13
-6.8992e-13
1.63869e-13
-8.57226e-13
2.16882e-13
-1.06962e-12
2.73392e-13
-1.31198e-12
3.29181e-13
-1.65677e-12
4.45532e-13
-2.09109e-12
5.72487e-13
-2.67053e-12
7.70828e-13
-3.44951e-12
1.03439e-12
-4.59027e-12
1.48426e-12
-6.11893e-12
2.04764e-12
-8.58865e-12
3.23408e-12
-1.21257e-11
4.70535e-12
-1.85478e-11
8.44308e-12
-2.8247e-11
1.29173e-11
-5.04043e-11
2.91774e-11
-9.0332e-11
5.34076e-11
-2.49238e-10
2.11398e-10
-4.29312e-09
7.36264e-09
-3.28895e-08
1.7951e-08
-2.5645e-08
2.0623e-08
-4.6268e-08
7.37316e-09
3.12009e-08
4.13441e-10
1.43224e-08
1.5375e-10
4.71085e-10
8.72669e-11
1.19899e-10
4.88329e-11
6.76077e-11
3.22536e-11
2.94945e-11
2.10007e-11
1.97112e-11
1.49524e-11
1.07535e-11
1.06277e-11
7.55682e-12
7.98429e-12
4.69505e-12
5.99018e-12
3.47858e-12
4.66234e-12
2.35792e-12
3.62186e-12
1.81552e-12
2.88446e-12
1.30609e-12
2.29064e-12
1.04342e-12
1.85023e-12
7.77767e-13
1.48848e-12
6.34132e-13
1.20996e-12
4.92273e-13
9.80636e-13
4.00929e-13
7.97545e-13
3.21687e-13
6.43461e-13
2.67064e-13
5.18863e-13
2.16688e-13
4.12046e-13
1.85546e-13
3.21781e-13
1.59761e-13
2.44217e-13
1.40443e-13
1.76097e-13
1.18017e-13
1.14119e-13
1.12049e-13
5.72382e-14
9.91707e-14
1.0615e-16
1.01946e-13
-5.76516e-14
9.88931e-14
-1.10057e-13
8.7097e-14
-1.75754e-13
1.17073e-13
-2.47272e-13
1.25233e-13
-3.19438e-13
1.22541e-13
-4.12106e-13
1.66311e-13
-5.21652e-13
1.93984e-13
-6.40914e-13
2.09166e-13
-7.9761e-13
2.75807e-13
-9.83908e-13
3.33206e-13
-1.20874e-12
3.94323e-13
-1.48998e-12
4.99878e-13
-1.85365e-12
6.38406e-13
-2.28828e-12
7.63639e-13
-2.88479e-12
1.04489e-12
-3.62466e-12
1.31353e-12
-4.65927e-12
1.8022e-12
-5.98965e-12
2.35803e-12
-7.98649e-12
3.49176e-12
-1.06245e-11
4.68289e-12
-1.49524e-11
7.56489e-12
-2.10041e-11
1.07623e-11
-3.22512e-11
1.96958e-11
-4.8833e-11
2.95026e-11
-8.727e-11
6.76162e-11
-1.53747e-10
1.19883e-10
-4.13441e-10
4.7109e-10
-7.37316e-09
1.43224e-08
-2.0623e-08
3.12008e-08
-4.6268e-08
2.80798e-09
-4.90759e-08
5.78976e-09
2.82191e-08
5.69925e-10
1.95422e-08
2.19812e-10
8.21191e-10
1.26724e-10
2.12986e-10
7.10564e-11
1.23275e-10
4.70478e-11
5.35051e-11
3.06288e-11
3.61159e-11
2.18486e-11
1.95334e-11
1.55175e-11
1.38833e-11
1.1674e-11
8.53837e-12
8.75093e-12
6.40476e-12
6.81912e-12
4.28789e-12
5.2922e-12
3.34716e-12
4.21841e-12
2.37607e-12
3.34822e-12
1.91024e-12
2.705e-12
1.42047e-12
2.17536e-12
1.16342e-12
1.7694e-12
8.99968e-13
1.43243e-12
7.36203e-13
1.16556e-12
5.89428e-13
9.40533e-13
4.96769e-13
7.57549e-13
4.0307e-13
6.01796e-13
3.4537e-13
4.70507e-13
2.91368e-13
3.5612e-13
2.47843e-13
2.57117e-13
2.22683e-13
1.66985e-13
1.97172e-13
8.24785e-14
1.83166e-13
-1.06096e-16
1.83693e-13
-7.9742e-14
1.85678e-13
-1.6579e-13
1.74628e-13
-2.56635e-13
2.03476e-13
-3.56032e-13
2.29174e-13
-4.71582e-13
2.35822e-13
-6.01882e-13
2.92575e-13
-7.57098e-13
3.49901e-13
-9.41338e-13
3.86909e-13
-1.16567e-12
5.00457e-13
-1.43265e-12
5.98466e-13
-1.77205e-12
7.26138e-13
-2.17747e-12
9.02178e-13
-2.70544e-12
1.16595e-12
-3.34928e-12
1.41225e-12
-4.21887e-12
1.91268e-12
-5.29176e-12
2.3826e-12
-6.81921e-12
3.32758e-12
-8.75018e-12
4.29476e-12
-1.16727e-11
6.41286e-12
-1.55174e-11
8.52783e-12
-2.18486e-11
1.38926e-11
-3.06291e-11
1.95373e-11
-4.70488e-11
3.61097e-11
-7.10565e-11
5.35113e-11
-1.26724e-10
1.23284e-10
-2.19813e-10
2.12978e-10
-5.69925e-10
8.212e-10
-5.78976e-09
1.95422e-08
-2.80798e-09
2.82191e-08
-4.9076e-08
6.87251e-10
-4.97632e-08
3.18586e-09
2.57205e-08
7.24654e-10
2.20034e-08
2.88413e-10
1.25744e-09
1.68838e-10
3.32561e-10
9.49927e-11
1.97119e-10
6.29922e-11
8.54998e-11
4.10475e-11
5.80745e-11
2.93093e-11
3.12718e-11
2.08183e-11
2.23798e-11
1.56728e-11
1.3688e-11
1.17464e-11
1.03303e-11
9.1577e-12
6.87858e-12
7.10548e-12
5.39275e-12
5.66545e-12
3.82296e-12
4.49557e-12
3.07741e-12
3.6326e-12
2.28578e-12
2.92063e-12
1.87463e-12
2.37569e-12
1.44246e-12
1.92277e-12
1.19357e-12
1.56445e-12
9.48464e-13
1.26209e-12
7.98212e-13
1.01653e-12
6.4929e-13
8.07305e-13
5.54078e-13
6.31128e-13
4.66266e-13
4.77688e-13
4.04649e-13
3.44771e-13
3.51878e-13
2.23749e-13
3.19293e-13
1.10368e-13
2.98272e-13
5.09412e-16
2.94965e-13
-1.07531e-13
2.88353e-13
-2.22072e-13
2.87912e-13
-3.44152e-13
3.33605e-13
-4.77831e-13
3.57599e-13
-6.32247e-13
3.94008e-13
-8.0742e-13
4.71706e-13
-1.01622e-12
5.57304e-13
-1.26286e-12
6.3697e-13
-1.5646e-12
8.02962e-13
-1.92333e-12
9.53997e-13
-2.37882e-12
1.18646e-12
-2.92332e-12
1.45221e-12
-3.63344e-12
1.87896e-12
-4.49666e-12
2.27165e-12
-5.66604e-12
3.08436e-12
-7.10519e-12
3.82535e-12
-9.15754e-12
5.38319e-12
-1.17455e-11
6.88356e-12
-1.56714e-11
1.03388e-11
-2.08179e-11
1.36749e-11
-2.93093e-11
2.23865e-11
-4.10482e-11
3.12847e-11
-6.29933e-11
5.80563e-11
-9.49929e-11
8.55037e-11
-1.68838e-10
1.97129e-10
-2.88414e-10
3.32553e-10
-7.24654e-10
1.25745e-09
-3.18586e-09
2.20034e-08
-6.87251e-10
2.57204e-08
-4.97633e-08
2.96244e-09
-5.27256e-08
2.28286e-09
2.64e-08
8.8101e-10
2.34052e-08
3.59745e-10
1.7787e-09
2.13667e-10
4.7864e-10
1.20716e-10
2.90075e-10
8.01444e-11
1.26077e-10
5.2301e-11
8.59151e-11
3.73676e-11
4.6207e-11
2.65558e-11
3.31927e-11
1.99996e-11
2.02415e-11
1.49918e-11
1.53375e-11
1.16902e-11
1.0179e-11
9.07077e-12
8.01198e-12
7.23298e-12
5.65842e-12
5.73897e-12
4.56908e-12
4.63752e-12
3.38705e-12
3.72814e-12
2.78123e-12
3.03228e-12
2.14311e-12
2.45388e-12
1.7715e-12
1.99624e-12
1.40368e-12
1.61008e-12
1.18447e-12
1.29678e-12
9.61276e-13
1.02961e-12
8.21909e-13
8.04775e-13
6.93924e-13
6.09193e-13
6.00953e-13
4.39505e-13
5.22291e-13
2.85034e-13
4.76095e-13
1.40684e-13
4.38549e-13
1.00301e-15
4.34063e-13
-1.38035e-13
4.31526e-13
-2.82282e-13
4.36394e-13
-4.38764e-13
4.88203e-13
-6.10107e-13
5.34031e-13
-8.05386e-13
5.90486e-13
-1.02977e-12
6.95825e-13
-1.29717e-12
8.24906e-13
-1.61029e-12
9.50063e-13
-1.99645e-12
1.19127e-12
-2.45531e-12
1.41526e-12
-3.03531e-12
1.76451e-12
-3.73142e-12
2.14151e-12
-4.6393e-12
2.78345e-12
-5.73954e-12
3.37436e-12
-7.2337e-12
4.5762e-12
-9.07116e-12
5.66493e-12
-1.16892e-11
8.00558e-12
-1.49907e-11
1.01821e-11
-1.99987e-11
1.53452e-11
-2.65546e-11
2.02304e-11
-3.73676e-11
3.31985e-11
-5.23025e-11
4.62095e-11
-8.0145e-11
8.58997e-11
-1.20717e-10
1.26083e-10
-2.13668e-10
2.90074e-10
-3.59745e-10
4.78626e-10
-8.8101e-10
1.7787e-09
-2.28286e-09
2.34053e-08
-2.96244e-09
2.64e-08
-5.27257e-08
2.87176e-09
-5.55974e-08
2.20112e-09
2.70707e-08
1.03705e-09
2.45693e-08
4.34091e-10
2.38167e-09
2.61261e-10
6.51472e-10
1.48301e-10
4.03034e-10
9.8562e-11
1.75816e-10
6.44348e-11
1.20041e-10
4.60577e-11
6.45808e-11
3.27567e-11
4.64906e-11
2.46745e-11
2.83262e-11
1.85029e-11
2.15106e-11
1.4429e-11
1.42498e-11
1.11978e-11
1.12499e-11
8.92887e-12
7.92491e-12
7.08487e-12
6.41852e-12
5.72468e-12
4.74374e-12
4.60203e-12
3.91086e-12
3.74262e-12
2.99627e-12
3.02831e-12
2.48484e-12
2.46312e-12
1.97378e-12
1.9864e-12
1.66156e-12
1.59958e-12
1.34995e-12
1.26982e-12
1.14937e-12
9.92427e-13
9.71431e-13
7.51156e-13
8.41219e-13
5.41777e-13
7.32636e-13
3.51248e-13
6.65364e-13
1.73321e-13
6.20021e-13
1.26726e-15
6.04995e-13
-1.70207e-13
6.01932e-13
-3.48074e-13
6.11167e-13
-5.40905e-13
6.77559e-13
-7.52195e-13
7.38083e-13
-9.93183e-13
8.30381e-13
-1.27002e-12
9.70744e-13
-1.60002e-12
1.15533e-12
-1.98669e-12
1.33611e-12
-2.46338e-12
1.66426e-12
-3.02997e-12
1.98495e-12
-3.74618e-12
2.48424e-12
-4.60585e-12
3.00325e-12
-5.72676e-12
3.91065e-12
-7.08557e-12
4.73223e-12
-8.9297e-12
6.42487e-12
-1.11982e-11
7.93196e-12
-1.4428e-11
1.12232e-11
-1.85016e-11
1.42547e-11
-2.46735e-11
2.15148e-11
-3.27553e-11
2.83093e-11
-4.60577e-11
4.65006e-11
-6.44366e-11
6.45971e-11
-9.85628e-11
1.20024e-10
-1.48301e-10
1.7582e-10
-2.61262e-10
4.03043e-10
-4.34091e-10
6.51452e-10
-1.03705e-09
2.38167e-09
-2.20112e-09
2.45693e-08
-2.87176e-09
2.70707e-08
-5.55975e-08
1.4028e-09
-5.70002e-08
1.98987e-09
2.64836e-08
1.19054e-09
2.53686e-08
5.11524e-10
3.06069e-09
3.11659e-10
8.5133e-10
1.77817e-10
5.36873e-10
1.18303e-10
2.35328e-10
7.74957e-11
1.60846e-10
5.54149e-11
8.66606e-11
3.94485e-11
6.2458e-11
2.97189e-11
3.80505e-11
2.22964e-11
2.8933e-11
1.73873e-11
1.91651e-11
1.3497e-11
1.5136e-11
1.07614e-11
1.06638e-11
8.53989e-12
8.63546e-12
6.89954e-12
6.3859e-12
5.54664e-12
5.25778e-12
4.5102e-12
4.03247e-12
3.64898e-12
3.3462e-12
2.96737e-12
2.64933e-12
2.39286e-12
2.2322e-12
1.92645e-12
1.81354e-12
1.52911e-12
1.54982e-12
1.19496e-12
1.30306e-12
9.04316e-13
1.12901e-12
6.52076e-13
9.78353e-13
4.22665e-13
8.95756e-13
2.08438e-13
8.35672e-13
1.50079e-15
8.13013e-13
-2.04669e-13
8.09075e-13
-4.19338e-13
8.27276e-13
-6.5109e-13
9.15219e-13
-9.05208e-13
1.00365e-12
-1.19612e-12
1.11669e-12
-1.52935e-12
1.30539e-12
-1.92669e-12
1.55509e-12
-2.39348e-12
1.80596e-12
-2.96769e-12
2.24253e-12
-3.6506e-12
2.66029e-12
-4.51451e-12
3.3403e-12
-5.55098e-12
4.04168e-12
-6.90164e-12
5.25165e-12
-8.54096e-12
6.36776e-12
-1.07623e-11
8.64013e-12
-1.34972e-11
1.0665e-11
-1.73864e-11
1.51225e-11
-2.2295e-11
1.91681e-11
-2.97174e-11
2.89469e-11
-3.94472e-11
3.8043e-11
-5.5415e-11
6.24665e-11
-7.74975e-11
8.66706e-11
-1.18304e-10
1.60834e-10
-1.77817e-10
2.35326e-10
-3.1166e-10
5.36881e-10
-5.11524e-10
8.51321e-10
-1.19054e-09
3.06069e-09
-1.98987e-09
2.53687e-08
-1.4028e-09
2.64836e-08
-5.70003e-08
6.25695e-11
-5.70628e-08
1.585e-09
2.49612e-08
1.34089e-09
2.56127e-08
5.91978e-10
3.8096e-09
3.64887e-10
1.07843e-09
2.09332e-10
6.92435e-10
1.39423e-10
3.05237e-10
9.15311e-11
2.08739e-10
6.54757e-11
1.12719e-10
4.66595e-11
8.12749e-11
3.51546e-11
4.95575e-11
2.63896e-11
3.77039e-11
2.05786e-11
2.49708e-11
1.59793e-11
1.97363e-11
1.27393e-11
1.39003e-11
1.01111e-11
1.12641e-11
8.16778e-12
8.33371e-12
6.5666e-12
6.85507e-12
5.33872e-12
5.26672e-12
4.31894e-12
4.36166e-12
3.51145e-12
3.46214e-12
2.8314e-12
2.92141e-12
2.27902e-12
2.36694e-12
1.80873e-12
2.01654e-12
1.41332e-12
1.6959e-12
1.06944e-12
1.47458e-12
7.70944e-13
1.28261e-12
4.99579e-13
1.16771e-12
2.46257e-13
1.08965e-12
1.77309e-15
1.05684e-12
-2.41924e-13
1.04928e-12
-4.96053e-13
1.07696e-12
-7.69828e-13
1.18086e-12
-1.07027e-12
1.29684e-12
-1.4148e-12
1.46625e-12
-1.80902e-12
1.6953e-12
-2.27912e-12
2.02264e-12
-2.8323e-12
2.35576e-12
-3.51186e-12
2.91648e-12
-4.32058e-12
3.47317e-12
-5.34367e-12
4.37506e-12
-6.57144e-12
5.2688e-12
-8.16997e-12
6.854e-12
-1.01124e-11
8.31492e-12
-1.27403e-11
1.12729e-11
-1.59794e-11
1.39038e-11
-2.05778e-11
1.97153e-11
-2.6388e-11
2.49733e-11
-3.51528e-11
3.77091e-11
-4.66583e-11
4.95466e-11
-6.54758e-11
8.12967e-11
-9.15329e-11
1.12734e-10
-1.39425e-10
2.08728e-10
-2.09332e-10
3.05236e-10
-3.64888e-10
6.92444e-10
-5.91978e-10
1.07841e-09
-1.34089e-09
3.80961e-09
-1.585e-09
2.56128e-08
-6.25685e-11
2.49612e-08
-5.70628e-08
-1.01707e-09
-5.60457e-08
1.14768e-09
2.27964e-08
1.48809e-09
2.52723e-08
6.75402e-10
4.62229e-09
4.20955e-10
1.33287e-09
2.4291e-10
8.70474e-10
1.6198e-10
3.86165e-10
1.06589e-10
2.64131e-10
7.62773e-11
1.4303e-10
5.44194e-11
1.03132e-10
4.10046e-11
6.29767e-11
3.08008e-11
4.78986e-11
2.40173e-11
3.17548e-11
1.86563e-11
2.51029e-11
1.48717e-11
1.76911e-11
1.18058e-11
1.43345e-11
9.5354e-12
1.05971e-11
7.6668e-12
8.73214e-12
6.23213e-12
6.69592e-12
5.04142e-12
5.55963e-12
4.09799e-12
4.4037e-12
3.30412e-12
3.70681e-12
2.65896e-12
3.01406e-12
2.11001e-12
2.56667e-12
1.64855e-12
2.15945e-12
1.24732e-12
1.87904e-12
8.98928e-13
1.62856e-12
5.82358e-13
1.48139e-12
2.86966e-13
1.37947e-12
2.05689e-15
1.34091e-12
-2.82136e-13
1.33531e-12
-5.78608e-13
1.38296e-12
-8.97692e-13
1.5065e-12
-1.24812e-12
1.64822e-12
-1.65029e-12
1.86772e-12
-2.11036e-12
2.16465e-12
-2.65899e-12
2.57413e-12
-3.30526e-12
3.00062e-12
-4.09847e-12
3.71944e-12
-5.04312e-12
4.4196e-12
-6.23764e-12
5.55802e-12
-7.67209e-12
6.70183e-12
-9.53773e-12
8.72192e-12
-1.18074e-11
1.05885e-11
-1.48729e-11
1.43338e-11
-1.86563e-11
1.76896e-11
-2.40166e-11
2.50777e-11
-3.07991e-11
3.17571e-11
-4.10027e-11
4.79063e-11
-5.44181e-11
6.29605e-11
-7.62774e-11
1.0314e-10
-1.06591e-10
1.43048e-10
-1.61982e-10
2.64111e-10
-2.42911e-10
3.86171e-10
-4.20956e-10
8.70478e-10
-6.75403e-10
1.33286e-09
-1.48809e-09
4.62228e-09
-1.14767e-09
2.52723e-08
1.01707e-09
2.27964e-08
-5.60458e-08
-2.08453e-09
-5.39612e-08
7.22032e-10
1.99899e-08
1.63191e-09
2.43624e-08
7.61794e-10
5.49241e-09
4.79858e-10
1.61481e-09
2.78611e-10
1.07173e-09
1.86028e-10
4.78752e-10
1.22718e-10
3.27434e-10
8.78578e-11
1.77891e-10
6.27586e-11
1.28228e-10
4.72928e-11
7.84405e-11
3.55488e-11
5.96468e-11
2.77184e-11
3.95813e-11
2.154e-11
3.12745e-11
1.71684e-11
2.20583e-11
1.3632e-11
1.78663e-11
1.10088e-11
1.3227e-11
8.85238e-12
1.0882e-11
7.19465e-12
8.35796e-12
5.81982e-12
6.92824e-12
4.72971e-12
5.49361e-12
3.81329e-12
4.628e-12
3.06806e-12
3.75894e-12
2.43439e-12
3.20306e-12
1.90176e-12
2.69446e-12
1.43879e-12
2.3405e-12
1.03663e-12
2.03729e-12
6.71385e-13
1.84784e-12
3.30753e-13
1.73046e-12
2.33807e-15
1.66401e-12
-3.2542e-13
1.6624e-12
-6.67449e-13
1.71334e-12
-1.03529e-12
1.87245e-12
-1.43955e-12
2.05024e-12
-1.90375e-12
2.33108e-12
-2.43482e-12
2.68913e-12
-3.06803e-12
3.2019e-12
-3.81463e-12
3.75228e-12
-4.7303e-12
4.62796e-12
-5.82159e-12
5.5104e-12
-7.20065e-12
6.93837e-12
-8.85809e-12
8.36087e-12
-1.10112e-11
1.08797e-11
-1.36339e-11
1.32064e-11
-1.71696e-11
1.78823e-11
-2.15399e-11
2.20653e-11
-2.77177e-11
3.12557e-11
-3.5547e-11
3.95873e-11
-4.72906e-11
5.96582e-11
-6.27574e-11
7.8432e-11
-8.78579e-11
1.28252e-10
-1.2272e-10
1.77908e-10
-1.8603e-10
3.27427e-10
-2.78611e-10
4.7875e-10
-4.79859e-10
1.07174e-09
-7.61794e-10
1.61479e-09
-1.63191e-09
5.49241e-09
-7.2203e-10
2.43625e-08
2.08453e-09
1.99899e-08
-5.39612e-08
-3.22082e-09
-5.07403e-08
2.87396e-10
1.64817e-08
1.77202e-09
2.28778e-08
8.51167e-10
6.41325e-09
5.41576e-10
1.9244e-09
3.16486e-10
1.2968e-09
2.11619e-10
5.83615e-10
1.39966e-10
3.99095e-10
1.00256e-10
2.17594e-10
7.17086e-11
1.5678e-10
5.40439e-11
9.60968e-11
4.06536e-11
7.30367e-11
3.16976e-11
4.85484e-11
2.46431e-11
3.83333e-11
1.96395e-11
2.70588e-11
1.55979e-11
2.19104e-11
1.25946e-11
1.62261e-11
1.01288e-11
1.33562e-11
8.2307e-12
1.02525e-11
6.65776e-12
8.49745e-12
5.40958e-12
6.74262e-12
4.36127e-12
5.67044e-12
3.50825e-12
4.60869e-12
2.78339e-12
3.92822e-12
2.17414e-12
3.3028e-12
1.64474e-12
2.86844e-12
1.18469e-12
2.49253e-12
7.67101e-13
2.27089e-12
3.7778e-13
2.11167e-12
2.62154e-15
2.047e-12
-3.71997e-13
2.04078e-12
-7.62989e-13
2.11169e-12
-1.18326e-12
2.29095e-12
-1.64545e-12
2.51327e-12
-2.1764e-12
2.86399e-12
-2.78389e-12
3.30286e-12
-3.50811e-12
3.93405e-12
-4.36284e-12
4.59886e-12
-5.41026e-12
5.67885e-12
-6.65957e-12
6.75417e-12
-8.23716e-12
8.51302e-12
-1.01349e-11
1.02551e-11
-1.25971e-11
1.33384e-11
-1.56e-11
1.62129e-11
-1.96408e-11
2.19073e-11
-2.46429e-11
2.70605e-11
-3.1697e-11
3.83105e-11
-4.06517e-11
4.85455e-11
-5.40415e-11
7.3039e-11
-7.17074e-11
9.60973e-11
-1.00256e-10
1.56796e-10
-1.39968e-10
2.17621e-10
-2.11622e-10
3.99082e-10
-3.16487e-10
5.83613e-10
-5.41576e-10
1.29682e-09
-8.51168e-10
1.92439e-09
-1.77202e-09
6.41326e-09
-2.87394e-10
2.28778e-08
3.22082e-09
1.64816e-08
-5.07404e-08
-4.39973e-09
-4.63406e-08
-1.66578e-10
1.22485e-08
1.90817e-09
2.08031e-08
9.43546e-10
7.37788e-09
6.06064e-10
2.26188e-09
3.56581e-10
1.54629e-09
2.38804e-10
7.01394e-10
1.58381e-10
4.79514e-10
1.13511e-10
2.62473e-10
8.13014e-11
1.88986e-10
6.12833e-11
1.16123e-10
4.61356e-11
8.81897e-11
3.59712e-11
5.87093e-11
2.79788e-11
4.6318e-11
2.22957e-11
3.2747e-11
1.77122e-11
2.64855e-11
1.42999e-11
1.96372e-11
1.15019e-11
1.6151e-11
9.34498e-12
1.24136e-11
7.55908e-12
1.02928e-11
6.1407e-12
8.15737e-12
4.9506e-12
6.86713e-12
3.98154e-12
5.57961e-12
3.1586e-12
4.75012e-12
2.46694e-12
3.99234e-12
1.86614e-12
3.46811e-12
1.34382e-12
3.01469e-12
8.69908e-13
2.73429e-12
4.28318e-13
2.55526e-12
2.89402e-15
2.46964e-12
-4.22077e-13
2.45993e-12
-8.65699e-13
2.54607e-12
-1.34229e-12
2.7711e-12
-1.86676e-12
3.04286e-12
-2.46946e-12
3.47007e-12
-3.15919e-12
3.98987e-12
-3.98133e-12
4.75604e-12
-4.95238e-12
5.57703e-12
-6.14151e-12
6.86551e-12
-7.56091e-12
8.17679e-12
-9.35186e-12
1.03161e-11
-1.15083e-11
1.2418e-11
-1.43025e-11
1.61222e-11
-1.77145e-11
1.96239e-11
-2.2297e-11
2.64971e-11
-2.79785e-11
3.27409e-11
-3.59709e-11
4.63005e-11
-4.61337e-11
5.8704e-11
-6.12807e-11
8.81936e-11
-8.13004e-11
1.16114e-10
-1.13511e-10
1.89012e-10
-1.58383e-10
2.62492e-10
-2.38806e-10
4.79501e-10
-3.56582e-10
7.01396e-10
-6.06065e-10
1.54631e-09
-9.43547e-10
2.26186e-09
-1.90817e-09
7.37788e-09
1.6658e-10
2.08031e-08
4.39973e-09
1.22485e-08
-4.63407e-08
-5.59307e-09
-4.07475e-08
-6.30348e-10
7.28579e-09
2.04031e-09
1.81324e-08
1.03897e-09
8.37922e-09
6.73262e-10
2.62759e-09
3.98933e-10
1.82063e-09
2.67628e-10
8.32697e-10
1.78011e-10
5.69137e-10
1.27662e-10
3.12822e-10
9.15699e-11
2.25076e-10
6.90373e-11
1.38651e-10
5.20162e-11
1.05197e-10
4.05565e-11
7.0168e-11
3.1561e-11
5.53249e-11
2.51482e-11
3.9159e-11
1.9984e-11
3.16617e-11
1.61321e-11
2.34865e-11
1.29777e-11
1.92981e-11
1.05425e-11
1.48446e-11
8.52782e-12
1.23034e-11
6.92639e-12
9.7613e-12
5.58395e-12
8.20821e-12
4.4901e-12
6.67381e-12
3.56177e-12
5.67911e-12
2.78152e-12
4.77545e-12
2.10401e-12
4.14006e-12
1.51472e-12
3.60965e-12
9.80324e-13
3.27505e-12
4.8256e-13
3.05503e-12
3.15394e-15
2.94771e-12
-4.75909e-13
2.93905e-12
-9.76009e-13
3.05632e-12
-1.51311e-12
3.30529e-12
-2.10454e-12
3.62649e-12
-2.78431e-12
4.14341e-12
-3.56245e-12
4.77025e-12
-4.48981e-12
5.67964e-12
-5.58597e-12
6.67156e-12
-6.92731e-12
8.20892e-12
-8.52966e-12
9.78426e-12
-1.05497e-11
1.23262e-11
-1.29843e-11
1.48469e-11
-1.61347e-11
1.9286e-11
-1.99865e-11
2.34771e-11
-2.51495e-11
3.16605e-11
-3.15606e-11
3.9154e-11
-4.05563e-11
5.52972e-11
-5.20143e-11
7.01644e-11
-6.90345e-11
1.05211e-10
-9.1569e-11
1.38648e-10
-1.27663e-10
2.25094e-10
-1.78013e-10
3.12843e-10
-2.67631e-10
5.69123e-10
-3.98934e-10
8.32692e-10
-6.73262e-10
1.82063e-09
-1.03897e-09
2.62758e-09
-2.04031e-09
8.37921e-09
6.30349e-10
1.81324e-08
5.59307e-09
7.28578e-09
-4.07476e-08
-6.77523e-09
-3.39723e-08
-1.08116e-09
1.59172e-09
2.16858e-09
1.48827e-08
1.13751e-09
9.4103e-09
7.4308e-10
3.02202e-09
4.43567e-10
2.12014e-09
2.98133e-10
9.78136e-10
1.98902e-10
6.68366e-10
1.4275e-10
3.68974e-10
1.02548e-10
2.65287e-10
7.73329e-11
1.63871e-10
5.83174e-11
1.24222e-10
4.54711e-11
8.30155e-11
3.54042e-11
6.53904e-11
2.82087e-11
4.63529e-11
2.2423e-11
3.74413e-11
1.8099e-11
2.7817e-11
1.45626e-11
2.28448e-11
1.18284e-11
1.75806e-11
9.56832e-12
1.45583e-11
7.77016e-12
1.15661e-11
6.2642e-12
9.71469e-12
5.03624e-12
7.90083e-12
3.99474e-12
6.71677e-12
3.11931e-12
5.65121e-12
2.35947e-12
4.90995e-12
1.69819e-12
4.26624e-12
1.09883e-12
3.86881e-12
5.40769e-13
3.61004e-12
3.40563e-15
3.49352e-12
-5.33719e-13
3.48218e-12
-1.09448e-12
3.6094e-12
-1.69653e-12
3.90588e-12
-2.35986e-12
4.29511e-12
-3.12235e-12
4.91254e-12
-3.99552e-12
5.63953e-12
-5.03586e-12
6.71839e-12
-6.26645e-12
7.89808e-12
-7.7712e-12
9.71175e-12
-9.57017e-12
1.15826e-11
-1.1836e-11
1.45961e-11
-1.45694e-11
1.75823e-11
-1.81017e-11
2.28107e-11
-2.24257e-11
2.77984e-11
-2.82101e-11
3.74475e-11
-3.54037e-11
4.63505e-11
-4.54711e-11
6.53655e-11
-5.83155e-11
8.30103e-11
-7.733e-11
1.24227e-10
-1.02547e-10
1.63868e-10
-1.4275e-10
2.65306e-10
-1.98904e-10
3.68996e-10
-2.98136e-10
6.68353e-10
-4.43568e-10
9.78125e-10
-7.43081e-10
2.12015e-09
-1.13751e-09
3.02201e-09
-2.16858e-09
9.41029e-09
1.08116e-09
1.48827e-08
6.77523e-09
1.59171e-09
-3.39724e-08
-7.88879e-09
-2.60835e-08
-1.48019e-09
-4.81687e-09
2.29329e-09
1.11092e-08
1.23923e-09
1.04644e-08
8.15406e-10
3.44585e-09
4.90495e-10
2.44505e-09
3.30356e-10
1.13827e-09
2.21097e-10
7.77623e-10
1.58812e-10
4.31257e-10
1.14268e-10
3.09819e-10
8.61979e-11
1.91944e-10
6.5062e-11
1.45364e-10
5.07336e-11
9.73387e-11
3.95236e-11
7.65962e-11
3.14895e-11
5.4386e-11
2.50392e-11
4.38967e-11
2.0209e-11
3.26439e-11
1.62635e-11
2.67865e-11
1.32084e-11
2.06397e-11
1.06852e-11
1.70883e-11
8.67573e-12
1.35673e-11
6.99437e-12
1.13936e-11
5.6224e-12
9.27545e-12
4.45948e-12
7.87969e-12
3.48189e-12
6.62344e-12
2.63364e-12
5.75103e-12
1.89508e-12
5.00748e-12
1.22599e-12
4.55086e-12
6.03233e-13
4.23424e-12
3.62865e-15
4.08724e-12
-5.95823e-13
4.07552e-12
-1.22162e-12
4.24274e-12
-1.89336e-12
4.57703e-12
-2.63392e-12
5.0315e-12
-3.48517e-12
5.76226e-12
-4.46036e-12
6.61327e-12
-5.62196e-12
7.87977e-12
-6.99684e-12
9.2777e-12
-8.67691e-12
1.13927e-11
-1.0687e-11
1.3585e-11
-1.32162e-11
1.71268e-11
-1.62705e-11
2.06342e-11
-2.02116e-11
2.67588e-11
-2.50421e-11
3.26313e-11
-3.14909e-11
4.38928e-11
-3.9523e-11
5.43867e-11
-5.07337e-11
7.65758e-11
-6.50601e-11
9.73294e-11
-8.61948e-11
1.45363e-10
-1.14268e-10
1.91938e-10
-1.58813e-10
3.09855e-10
-2.21098e-10
4.31279e-10
-3.30359e-10
7.77616e-10
-4.90497e-10
1.13827e-09
-8.15406e-10
2.44505e-09
-1.23923e-09
3.44583e-09
-2.29329e-09
1.04643e-08
1.48019e-09
1.11092e-08
7.88879e-09
-4.81688e-09
-2.60836e-08
-8.80998e-09
-1.72736e-08
-1.76534e-09
-1.18615e-08
2.41499e-09
6.92886e-09
1.34423e-09
1.15351e-08
8.90098e-10
3.89997e-09
5.39717e-10
2.79543e-09
3.64325e-10
1.31366e-09
2.44638e-10
8.97306e-10
1.75888e-10
5.00006e-10
1.26766e-10
3.58949e-10
9.56604e-11
2.23039e-10
7.22734e-11
1.68748e-10
5.63629e-11
1.13253e-10
4.39347e-11
8.90263e-11
3.50036e-11
6.33214e-11
2.78432e-11
5.10482e-11
2.24707e-11
3.80198e-11
1.80875e-11
3.11696e-11
1.46883e-11
2.40324e-11
1.18831e-11
1.98973e-11
9.64708e-12
1.58054e-11
7.77774e-12
1.32694e-11
6.25123e-12
1.07956e-11
4.95808e-12
9.17645e-12
3.87088e-12
7.71219e-12
2.92784e-12
6.70085e-12
2.10632e-12
5.82461e-12
1.36235e-12
5.28311e-12
6.70213e-13
4.92143e-12
3.82599e-15
4.75295e-12
-6.62476e-13
4.7443e-12
-1.35804e-12
4.93568e-12
-2.10454e-12
5.33155e-12
-2.92797e-12
5.85389e-12
-3.87436e-12
6.70445e-12
-4.95908e-12
7.70765e-12
-6.25074e-12
9.17319e-12
-7.78041e-12
1.08027e-11
-9.64842e-12
1.3256e-11
-1.18849e-11
1.58341e-11
-1.46963e-11
1.99327e-11
-1.80945e-11
2.4041e-11
-2.24733e-11
3.11312e-11
-2.78464e-11
3.79994e-11
-3.5005e-11
5.10556e-11
-4.3934e-11
6.3311e-11
-5.63633e-11
8.90032e-11
-7.22716e-11
1.1324e-10
-9.56572e-11
1.68743e-10
-1.26766e-10
2.23051e-10
-1.75889e-10
3.58969e-10
-2.4464e-10
5.00034e-10
-3.64329e-10
8.97305e-10
-5.39719e-10
1.31365e-09
-8.90098e-10
2.79544e-09
-1.34423e-09
3.89997e-09
-2.41499e-09
1.15351e-08
1.76535e-09
6.92887e-09
8.80998e-09
-1.18615e-08
-1.72736e-08
-9.32603e-09
-7.94754e-09
-1.85009e-09
-1.93374e-08
2.5344e-09
2.54436e-09
1.45255e-09
1.2617e-08
9.66983e-10
4.38555e-09
5.91215e-10
3.17119e-09
4.00063e-10
1.50482e-09
2.69564e-10
1.02782e-09
1.94016e-10
5.75556e-10
1.40075e-10
4.12889e-10
1.05749e-10
2.57375e-10
7.99757e-11
1.94511e-10
6.23788e-11
1.30853e-10
4.86541e-11
1.02749e-10
3.87641e-11
7.32135e-11
3.08462e-11
5.89703e-11
2.48932e-11
4.39657e-11
2.00421e-11
3.60208e-11
1.62743e-11
2.78008e-11
1.31674e-11
2.30004e-11
1.06884e-11
1.82819e-11
8.6177e-12
1.53307e-11
6.92555e-12
1.24907e-11
5.49279e-12
1.06099e-11
4.28806e-12
8.92205e-12
3.24336e-12
7.7385e-12
2.33285e-12
6.73898e-12
1.50859e-12
6.11209e-12
7.42055e-13
5.70148e-12
3.9891e-15
5.49376e-12
-7.34041e-13
5.48928e-12
-1.50429e-12
5.70737e-12
-2.33105e-12
6.15556e-12
-3.24341e-12
6.77012e-12
-4.29165e-12
7.75262e-12
-5.49393e-12
8.90567e-12
-6.92505e-12
1.06076e-11
-8.62055e-12
1.25009e-11
-1.06899e-11
1.53312e-11
-1.31693e-11
1.83044e-11
-1.62823e-11
2.305e-11
-2.00491e-11
2.77974e-11
-2.48958e-11
3.59811e-11
-3.08494e-11
4.39601e-11
-3.87655e-11
5.89673e-11
-4.86533e-11
7.32011e-11
-6.23794e-11
1.02733e-10
-7.9974e-11
1.30847e-10
-1.05746e-10
1.94526e-10
-1.40075e-10
2.57378e-10
-1.94016e-10
4.12917e-10
-2.69566e-10
5.75585e-10
-4.00067e-10
1.02781e-09
-5.91216e-10
1.5048e-09
-9.66983e-10
3.1712e-09
-1.45255e-09
4.38554e-09
-2.5344e-09
1.2617e-08
1.85009e-09
2.54437e-09
9.32603e-09
-1.93374e-08
-7.94759e-09
-9.15231e-09
1.20478e-09
-1.63662e-09
-2.68531e-08
2.65226e-09
-1.74452e-09
1.56412e-09
1.37051e-08
1.04585e-09
4.90381e-09
6.4495e-10
3.5721e-09
4.37583e-10
1.71219e-09
2.9591e-10
1.16949e-09
2.13231e-10
6.58237e-10
1.54229e-10
4.71884e-10
1.16493e-10
2.95107e-10
8.81935e-11
2.22819e-10
6.88017e-11
1.50241e-10
5.36985e-11
1.17857e-10
4.27852e-11
8.4124e-11
3.40596e-11
6.76982e-11
2.7486e-11
5.05513e-11
2.21352e-11
4.13686e-11
1.7973e-11
3.19657e-11
1.45434e-11
2.64196e-11
1.18042e-11
2.10225e-11
9.51797e-12
1.76232e-11
7.6483e-12
1.43619e-11
6.06602e-12
1.21985e-11
4.73529e-12
1.02514e-11
3.58171e-12
8.89274e-12
2.57575e-12
7.74288e-12
1.66539e-12
7.02335e-12
8.19068e-13
6.53313e-12
4.11572e-15
6.30108e-12
-8.10897e-13
6.29761e-12
-1.66105e-12
6.55212e-12
-2.5739e-12
7.06066e-12
-3.58171e-12
7.77231e-12
-4.73893e-12
8.91612e-12
-6.06727e-12
1.02349e-11
-7.64788e-12
1.21837e-11
-9.52088e-12
1.43755e-11
-1.18058e-11
1.76125e-11
-1.45453e-11
2.10475e-11
-1.79809e-11
2.64837e-11
-2.21422e-11
3.19603e-11
-2.74887e-11
4.13279e-11
-3.40629e-11
5.05235e-11
-4.27866e-11
6.76935e-11
-5.36978e-11
8.41125e-11
-6.88024e-11
1.17835e-10
-8.81919e-11
1.50224e-10
-1.1649e-10
2.22814e-10
-1.54229e-10
2.95122e-10
-2.13231e-10
4.7191e-10
-2.95912e-10
6.58266e-10
-4.37587e-10
1.16948e-09
-6.44952e-10
1.71217e-09
-1.04585e-09
3.5721e-09
-1.56412e-09
4.9038e-09
-2.65226e-09
1.37051e-08
1.63662e-09
-1.74451e-09
9.15231e-09
-2.68531e-08
1.20472e-09
-8.02497e-09
9.22975e-09
-1.04739e-09
-3.38307e-08
2.76901e-09
-5.56092e-09
1.67869e-09
1.47954e-08
1.12646e-09
5.45604e-09
7.00864e-10
3.9977e-09
4.76887e-10
1.93616e-09
3.23707e-10
1.32266e-09
2.33568e-10
7.4837e-10
1.69262e-10
5.36197e-10
1.27921e-10
3.3645e-10
9.69518e-11
2.53785e-10
7.56525e-11
1.71539e-10
5.90855e-11
1.34421e-10
4.70814e-11
9.61275e-11
3.74955e-11
7.72912e-11
3.02592e-11
5.7775e-11
2.43753e-11
4.72583e-11
1.97912e-11
3.65441e-11
1.60168e-11
3.02178e-11
1.29992e-11
2.4046e-11
1.04824e-11
2.01392e-11
8.42269e-12
1.64325e-11
6.68032e-12
1.39287e-11
5.21458e-12
1.17212e-11
3.94441e-12
1.01674e-11
2.8361e-12
8.84914e-12
1.8334e-12
8.0147e-12
9.01656e-13
7.47546e-12
4.19123e-15
7.21567e-12
-8.9342e-13
7.19556e-12
-1.82898e-12
7.49024e-12
-2.83422e-12
8.07987e-12
-3.94445e-12
8.88595e-12
-5.21815e-12
1.01767e-11
-6.6817e-12
1.16967e-11
-8.42246e-12
1.39219e-11
-1.04853e-11
1.64388e-11
-1.30009e-11
2.01378e-11
-1.60189e-11
2.40606e-11
-1.97988e-11
3.02603e-11
-2.43821e-11
3.65466e-11
-3.02621e-11
4.72159e-11
-3.74987e-11
5.7769e-11
-4.70827e-11
7.72783e-11
-5.9085e-11
9.6106e-11
-7.56531e-11
1.34403e-10
-9.69503e-11
1.71516e-10
-1.27918e-10
2.53778e-10
-1.69262e-10
3.36461e-10
-2.33568e-10
5.36233e-10
-3.23708e-10
7.48397e-10
-4.76891e-10
1.32266e-09
-7.00866e-10
1.93613e-09
-1.12646e-09
3.99771e-09
-1.67869e-09
5.45604e-09
-2.76901e-09
1.47954e-08
1.04739e-09
-5.56092e-09
8.02497e-09
-3.38307e-08
9.22969e-09
-5.8604e-09
1.50901e-08
-6.87616e-11
-3.96224e-08
2.88436e-09
-8.51406e-09
1.79573e-09
1.58841e-08
1.20852e-09
6.04323e-09
7.58874e-10
4.44734e-09
5.17966e-10
2.17707e-09
3.52978e-10