/*--------------------------------*- C++ -*----------------------------------*\
| =========                 |                                                 |
| \\      /  F ield         | foam-extend: Open Source CFD                    |
|  \\    /   O peration     | Version:     4.0                                |
|   \\  /    A nd           | Web:         http://www.foam-extend.org         |
|    \\/     M anipulation  |                                                 |
\*---------------------------------------------------------------------------*/
FoamFile
{
    version     2.0;
    format      ascii;
    class       volScalarField;
    location    "18";
    object      dC1;
}
// * * * * * * * * * * * * * * * * * * * * * * * * * * * * * * * * * * * * * //

dimensions      [0 -1 0 0 0 0 0];

internalField   nonuniform List<scalar> 
6960
(
9.76528e-14
9.70521e-14
9.75023e-14
9.75778e-14
9.60009e-14
9.75769e-14
9.75032e-14
9.68266e-14
9.78033e-14
9.69767e-14
9.74277e-14
9.66761e-14
9.75023e-14
9.64519e-14
9.75023e-14
9.77278e-14
9.66015e-14
9.78033e-14
9.74277e-14
9.62264e-14
9.75032e-14
9.69762e-14
9.66766e-14
9.73527e-14
9.64528e-14
9.67512e-14
9.83272e-14
9.81784e-14
9.72018e-14
9.68279e-14
9.71263e-14
9.69021e-14
9.77278e-14
9.72022e-14
9.71272e-14
9.72777e-14
9.75773e-14
9.69025e-14
9.77265e-14
9.63765e-14
9.75036e-14
9.69767e-14
9.78015e-14
9.77282e-14
9.69771e-14
9.69025e-14
9.71267e-14
9.80284e-14
9.63769e-14
9.67529e-14
9.61518e-14
9.78024e-14
9.66774e-14
9.70517e-14
9.68266e-14
9.71276e-14
9.66015e-14
9.73514e-14
9.75036e-14
9.72022e-14
3.57379e-14
3.58138e-14
3.6113e-14
3.56442e-14
3.5757e-14
3.60007e-14
3.60757e-14
3.59443e-14
3.57947e-14
3.56065e-14
3.56633e-14
3.60194e-14
3.57947e-14
3.59261e-14
3.61885e-14
3.56629e-14
3.59626e-14
3.60202e-14
3.56256e-14
3.63377e-14
3.61707e-14
3.5531e-14
3.59448e-14
3.57383e-14
3.58697e-14
3.5682e-14
3.55883e-14
3.54196e-14
3.57752e-14
3.58134e-14
3.59257e-14
3.57952e-14
3.55879e-14
3.59825e-14
3.60757e-14
3.6058e-14
3.57566e-14
3.61139e-14
3.59257e-14
3.59816e-14
3.55887e-14
3.58316e-14
3.58706e-14
3.57761e-14
3.58697e-14
3.57006e-14
3.59075e-14
3.53073e-14
3.57947e-14
3.57561e-14
3.60766e-14
3.59821e-14
3.59639e-14
3.59066e-14
3.58884e-14
3.58693e-14
3.57943e-14
3.57943e-14
3.57579e-14
3.5757e-14
1.71842e-14
1.73173e-14
1.71287e-14
1.71937e-14
1.73537e-14
1.71091e-14
1.7195e-14
1.72132e-14
1.72791e-14
1.73065e-14
1.72601e-14
1.71469e-14
1.72978e-14
1.72405e-14
1.73078e-14
1.73624e-14
1.73533e-14
1.7486e-14
1.72687e-14
1.69313e-14
1.69981e-14
1.74288e-14
1.70814e-14
1.71941e-14
1.72601e-14
1.73438e-14
1.71668e-14
1.72405e-14
1.70623e-14
1.72323e-14
1.71655e-14
1.74487e-14
1.69673e-14
1.74197e-14
1.71469e-14
1.72419e-14
1.71282e-14
1.70818e-14
1.69686e-14
1.68745e-14
1.74019e-14
1.71178e-14
1.7401e-14
1.73247e-14
1.7166e-14
1.74847e-14
1.7306e-14
1.74756e-14
1.7326e-14
1.70992e-14
1.73828e-14
1.70996e-14
1.73355e-14
1.73342e-14
1.72974e-14
1.71655e-14
1.72419e-14
1.74379e-14
1.73164e-14
1.72028e-14
3.51498e-15
3.50284e-15
3.40786e-15
3.22485e-15
3.14505e-15
3.22442e-15
3.33327e-15
3.42695e-15
3.55358e-15
3.27603e-15
3.28513e-15
3.41263e-15
3.34238e-15
3.30899e-15
3.50197e-15
3.54404e-15
3.32807e-15
3.37968e-15
3.27125e-15
3.47769e-15
3.52583e-15
3.38358e-15
3.51585e-15
3.28557e-15
3.47335e-15
3.50674e-15
3.38965e-15
3.1637e-15
3.35582e-15
3.5397e-15
3.44993e-15
3.456e-15
3.33631e-15
3.31029e-15
3.407e-15
3.40396e-15
3.47292e-15
3.32416e-15
3.30855e-15
3.4083e-15
3.28687e-15
3.46381e-15
3.48376e-15
3.3324e-15
3.3658e-15
3.14549e-15
3.40743e-15
3.52105e-15
3.36623e-15
3.21921e-15
3.39052e-15
3.47682e-15
3.36189e-15
3.25304e-15
3.41741e-15
3.35105e-15
3.46901e-15
3.35192e-15
3.44603e-15
3.37924e-15
-8.61681e-15
-8.59599e-15
-8.51316e-15
-8.43769e-15
-8.52617e-15
-8.71048e-15
-8.658e-15
-8.63025e-15
-8.65367e-15
-8.72349e-15
-8.68186e-15
-8.60206e-15
-8.65714e-15
-8.48453e-15
-8.56867e-15
-8.6914e-15
-8.47499e-15
-8.71872e-15
-8.62982e-15
-8.63979e-15
-8.5639e-15
-8.66278e-15
-8.64369e-15
-8.46588e-15
-8.70051e-15
-8.65367e-15
-8.51749e-15
-8.62548e-15
-8.57821e-15
-8.66755e-15
-8.72869e-15
-8.65237e-15
-8.54221e-15
-8.59209e-15
-8.63025e-15
-8.54438e-15
-8.67709e-15
-8.5214e-15
-8.58818e-15
-8.6541e-15
-8.52573e-15
-8.67752e-15
-8.55436e-15
-8.658e-15
-8.60683e-15
-8.5691e-15
-8.66798e-15
-8.60596e-15
-8.43249e-15
-8.63112e-15
-8.58211e-15
-8.76209e-15
-8.55869e-15
-8.59295e-15
-8.69096e-15
-8.60249e-15
-8.53961e-15
-8.49407e-15
-8.64846e-15
-8.75211e-15
-1.85542e-14
-1.83226e-14
-1.84132e-14
-1.84882e-14
-1.8434e-14
-1.8467e-14
-1.83629e-14
-1.83941e-14
-1.84527e-14
-1.83755e-14
-1.84245e-14
-1.84249e-14
-1.83395e-14
-1.84345e-14
-1.83941e-14
-1.83967e-14
-1.84683e-14
-1.83915e-14
-1.84271e-14
-1.83712e-14
-1.84058e-14
-1.84531e-14
-1.84124e-14
-1.84314e-14
-1.84124e-14
-1.84527e-14
-1.84193e-14
-1.83855e-14
-1.83941e-14
-1.84531e-14
-1.8431e-14
-1.84028e-14
-1.86158e-14
-1.84852e-14
-1.84171e-14
-1.84154e-14
-1.84011e-14
-1.84878e-14
-1.85329e-14
-1.85065e-14
-1.84332e-14
-1.83993e-14
-1.84549e-14
-1.84627e-14
-1.84575e-14
-1.84293e-14
-1.84206e-14
-1.83516e-14
-1.84106e-14
-1.83408e-14
-1.83512e-14
-1.84111e-14
-1.84262e-14
-1.85143e-14
-1.84527e-14
-1.84696e-14
-1.84171e-14
-1.84605e-14
-1.83261e-14
-1.8467e-14
-2.56071e-14
-2.55993e-14
-2.56696e-14
-2.55854e-14
-2.55997e-14
-2.55932e-14
-2.56952e-14
-2.56566e-14
-2.5624e-14
-2.56492e-14
-2.56015e-14
-2.56275e-14
-2.55538e-14
-2.56301e-14
-2.57012e-14
-2.56965e-14
-2.56327e-14
-2.5618e-14
-2.55776e-14
-2.56778e-14
-2.56219e-14
-2.56067e-14
-2.5595e-14
-2.55664e-14
-2.55559e-14
-2.5654e-14
-2.56618e-14
-2.56067e-14
-2.56141e-14
-2.56687e-14
-2.55564e-14
-2.56947e-14
-2.56644e-14
-2.56548e-14
-2.56648e-14
-2.56271e-14
-2.5654e-14
-2.56193e-14
-2.56978e-14
-2.56553e-14
-2.56427e-14
-2.56847e-14
-2.55924e-14
-2.56943e-14
-2.56435e-14
-2.56292e-14
-2.57051e-14
-2.56739e-14
-2.56609e-14
-2.56804e-14
-2.56826e-14
-2.5608e-14
-2.57099e-14
-2.56518e-14
-2.56132e-14
-2.56509e-14
-2.55525e-14
-2.56366e-14
-2.55e-14
-2.55898e-14
-2.99487e-14
-2.99843e-14
-2.99843e-14
-2.99912e-14
-3.00424e-14
-3.00714e-14
-2.99487e-14
-3.0055e-14
-2.99947e-14
-2.99608e-14
-3.00346e-14
-3.00185e-14
-2.99955e-14
-3.00328e-14
-2.99608e-14
-3.00151e-14
-2.99925e-14
-3.0009e-14
-3.00623e-14
-3.00224e-14
-2.99882e-14
-3.00038e-14
-2.99769e-14
-3.00758e-14
-3.00354e-14
-3.00428e-14
-3.00077e-14
-3.00398e-14
-3.00515e-14
-2.99929e-14
-3.00025e-14
-3.00111e-14
-3.0032e-14
-3.00432e-14
-2.99778e-14
-3.00185e-14
-2.99578e-14
-3.0061e-14
-2.99851e-14
-2.99747e-14
-3.00016e-14
-2.9989e-14
-3.00237e-14
-3.00216e-14
-3.00892e-14
-2.9976e-14
-3.0002e-14
-2.9983e-14
-3.00198e-14
-2.99804e-14
-3.00307e-14
-3.00636e-14
-2.997e-14
-3.00255e-14
-2.99643e-14
-2.99873e-14
-2.99899e-14
-3.00103e-14
-3.00619e-14
-3.00402e-14
-3.16453e-14
-3.16344e-14
-3.16305e-14
-3.16453e-14
-3.16127e-14
-3.16357e-14
-3.16778e-14
-3.16227e-14
-3.16279e-14
-3.16583e-14
-3.16396e-14
-3.16548e-14
-3.165e-14
-3.16032e-14
-3.16778e-14
-3.16201e-14
-3.1614e-14
-3.1673e-14
-3.1627e-14
-3.15858e-14
-3.16192e-14
-3.1673e-14
-3.16461e-14
-3.16474e-14
-3.16548e-14
-3.15763e-14
-3.15785e-14
-3.16127e-14
-3.1657e-14
-3.16808e-14
-3.15924e-14
-3.16314e-14
-3.16218e-14
-3.15746e-14
-3.16257e-14
-3.16548e-14
-3.16283e-14
-3.16878e-14
-3.16153e-14
-3.16951e-14
-3.16197e-14
-3.15884e-14
-3.16349e-14
-3.16379e-14
-3.16036e-14
-3.16205e-14
-3.16526e-14
-3.16752e-14
-3.16288e-14
-3.16921e-14
-3.1663e-14
-3.16288e-14
-3.16813e-14
-3.16201e-14
-3.16505e-14
-3.16188e-14
-3.16084e-14
-3.15746e-14
-3.15976e-14
-3.15681e-14
-3.10125e-14
-3.09887e-14
-3.10112e-14
-3.10411e-14
-3.10051e-14
-3.1016e-14
-3.09661e-14
-3.10281e-14
-3.10099e-14
-3.09895e-14
-3.10351e-14
-3.10485e-14
-3.09865e-14
-3.10468e-14
-3.09822e-14
-3.10594e-14
-3.10012e-14
-3.0977e-14
-3.10025e-14
-3.1052e-14
-3.10429e-14
-3.10281e-14
-3.10017e-14
-3.10195e-14
-3.0993e-14
-3.10364e-14
-3.10069e-14
-3.10017e-14
-3.09969e-14
-3.10251e-14
-3.10498e-14
-3.10117e-14
-3.10203e-14
-3.10299e-14
-3.10043e-14
-3.09999e-14
-3.10468e-14
-3.09639e-14
-3.09787e-14
-3.09731e-14
-3.10121e-14
-3.10346e-14
-3.09904e-14
-3.10403e-14
-3.10064e-14
-3.10182e-14
-3.1026e-14
-3.10164e-14
-3.10307e-14
-3.09692e-14
-3.0947e-14
-3.10433e-14
-3.09982e-14
-3.09887e-14
-3.1032e-14
-3.10151e-14
-3.10372e-14
-3.09904e-14
-3.10307e-14
-3.10156e-14
-2.8923e-14
-2.894e-14
-2.88975e-14
-2.893e-14
-2.8923e-14
-2.89204e-14
-2.89452e-14
-2.88758e-14
-2.89113e-14
-2.89699e-14
-2.88628e-14
-2.88667e-14
-2.89269e-14
-2.88532e-14
-2.89404e-14
-2.88831e-14
-2.89295e-14
-2.89061e-14
-2.88563e-14
-2.8884e-14
-2.89261e-14
-2.88927e-14
-2.89183e-14
-2.88988e-14
-2.89122e-14
-2.89061e-14
-2.89282e-14
-2.88884e-14
-2.88827e-14
-2.8904e-14
-2.89061e-14
-2.88992e-14
-2.89196e-14
-2.89148e-14
-2.88771e-14
-2.88849e-14
-2.88641e-14
-2.89426e-14
-2.89443e-14
-2.88944e-14
-2.893e-14
-2.88914e-14
-2.8894e-14
-2.88975e-14
-2.89256e-14
-2.89413e-14
-2.88979e-14
-2.88472e-14
-2.89209e-14
-2.89547e-14
-2.892e-14
-2.8907e-14
-2.89079e-14
-2.89274e-14
-2.89413e-14
-2.89608e-14
-2.89066e-14
-2.89005e-14
-2.89252e-14
-2.88953e-14
-2.61557e-14
-2.61336e-14
-2.62269e-14
-2.61778e-14
-2.61397e-14
-2.61271e-14
-2.61384e-14
-2.61969e-14
-2.61835e-14
-2.61254e-14
-2.62134e-14
-2.62143e-14
-2.61401e-14
-2.62334e-14
-2.61705e-14
-2.61913e-14
-2.61479e-14
-2.61466e-14
-2.62069e-14
-2.61961e-14
-2.61544e-14
-2.61826e-14
-2.61969e-14
-2.61553e-14
-2.61666e-14
-2.62065e-14
-2.61757e-14
-2.6177e-14
-2.61883e-14
-2.61492e-14
-2.61523e-14
-2.6206e-14
-2.61705e-14
-2.61067e-14
-2.61948e-14
-2.61778e-14
-2.62121e-14
-2.61462e-14
-2.61635e-14
-2.61635e-14
-2.61232e-14
-2.61362e-14
-2.61596e-14
-2.61267e-14
-2.61683e-14
-2.61414e-14
-2.6193e-14
-2.62121e-14
-2.61531e-14
-2.61744e-14
-2.61657e-14
-2.61961e-14
-2.61674e-14
-2.61679e-14
-2.61692e-14
-2.61813e-14
-2.61739e-14
-2.6157e-14
-2.61839e-14
-2.61553e-14
-2.36859e-14
-2.36807e-14
-2.36612e-14
-2.3656e-14
-2.3702e-14
-2.36916e-14
-2.36712e-14
-2.36486e-14
-2.36599e-14
-2.36963e-14
-2.36464e-14
-2.3646e-14
-2.36282e-14
-2.36547e-14
-2.36478e-14
-2.36517e-14
-2.36664e-14
-2.36369e-14
-2.36365e-14
-2.36486e-14
-2.36647e-14
-2.3682e-14
-2.36651e-14
-2.36759e-14
-2.36538e-14
-2.36621e-14
-2.36703e-14
-2.36608e-14
-2.3659e-14
-2.36868e-14
-2.36673e-14
-2.36473e-14
-2.36603e-14
-2.36612e-14
-2.36699e-14
-2.36456e-14
-2.36586e-14
-2.36365e-14
-2.36595e-14
-2.36456e-14
-2.36759e-14
-2.3653e-14
-2.36768e-14
-2.36373e-14
-2.36551e-14
-2.3669e-14
-2.36456e-14
-2.36608e-14
-2.3679e-14
-2.36608e-14
-2.3682e-14
-2.36287e-14
-2.36612e-14
-2.36478e-14
-2.36629e-14
-2.36278e-14
-2.36478e-14
-2.36642e-14
-2.36521e-14
-2.36807e-14
-2.20661e-14
-2.20774e-14
-2.20813e-14
-2.20991e-14
-2.20587e-14
-2.208e-14
-2.20999e-14
-2.21047e-14
-2.20874e-14
-2.20609e-14
-2.21008e-14
-2.21034e-14
-2.21064e-14
-2.20995e-14
-2.20943e-14
-2.20874e-14
-2.2103e-14
-2.21017e-14
-2.20904e-14
-2.20835e-14
-2.21047e-14
-2.20878e-14
-2.20865e-14
-2.20843e-14
-2.20982e-14
-2.20999e-14
-2.20648e-14
-2.20973e-14
-2.21164e-14
-2.20813e-14
-2.20574e-14
-2.20878e-14
-2.21073e-14
-2.21268e-14
-2.20943e-14
-2.21182e-14
-2.20891e-14
-2.21038e-14
-2.20939e-14
-2.21108e-14
-2.20826e-14
-2.21056e-14
-2.2077e-14
-2.21221e-14
-2.20904e-14
-2.20661e-14
-2.2129e-14
-2.20735e-14
-2.21017e-14
-2.20926e-14
-2.21108e-14
-2.21177e-14
-2.20882e-14
-2.21303e-14
-2.20969e-14
-2.21012e-14
-2.20848e-14
-2.2093e-14
-2.21208e-14
-2.20648e-14
-2.21038e-14
-2.2113e-14
-2.20683e-14
-2.20809e-14
-2.21025e-14
-2.20657e-14
-2.20848e-14
-2.20835e-14
-2.21012e-14
-2.20904e-14
-2.20791e-14
-2.20509e-14
-2.2106e-14
-2.20839e-14
-2.20874e-14
-2.2083e-14
-2.20865e-14
-2.20622e-14
-2.21082e-14
-2.20761e-14
-2.20735e-14
-2.2083e-14
-2.20813e-14
-2.20618e-14
-2.20687e-14
-2.20731e-14
-2.21012e-14
-2.20726e-14
-2.20982e-14
-2.20657e-14
-2.21073e-14
-2.20926e-14
-2.20878e-14
-2.20665e-14
-2.20509e-14
-2.20817e-14
-2.20913e-14
-2.20674e-14
-2.2093e-14
-2.20501e-14
-2.20718e-14
-2.20613e-14
-2.20644e-14
-2.20397e-14
-2.20817e-14
-2.20822e-14
-2.20483e-14
-2.20995e-14
-2.20934e-14
-2.20878e-14
-2.20665e-14
-2.20609e-14
-2.21021e-14
-2.20852e-14
-2.20483e-14
-2.20856e-14
-2.21021e-14
-2.20999e-14
-2.20778e-14
-2.21069e-14
-2.40502e-14
-2.40259e-14
-2.41187e-14
-2.40663e-14
-2.40584e-14
-2.40342e-14
-2.40446e-14
-2.40398e-14
-2.40229e-14
-2.40424e-14
-2.40424e-14
-2.40637e-14
-2.40407e-14
-2.40663e-14
-2.40615e-14
-2.40528e-14
-2.40437e-14
-2.40515e-14
-2.40155e-14
-2.40493e-14
-2.40866e-14
-2.40663e-14
-2.4071e-14
-2.40775e-14
-2.40554e-14
-2.40493e-14
-2.40615e-14
-2.4078e-14
-2.40702e-14
-2.40541e-14
-2.40398e-14
-2.40307e-14
-2.40211e-14
-2.40693e-14
-2.40654e-14
-2.40381e-14
-2.4035e-14
-2.40506e-14
-2.40329e-14
-2.40793e-14
-2.40476e-14
-2.40879e-14
-2.40771e-14
-2.40133e-14
-2.40372e-14
-2.40676e-14
-2.40654e-14
-2.40615e-14
-2.40246e-14
-2.40107e-14
-2.40602e-14
-2.41049e-14
-2.4048e-14
-2.40454e-14
-2.40823e-14
-2.40576e-14
-2.40381e-14
-2.40463e-14
-2.40363e-14
-2.40467e-14
-2.82708e-14
-2.83207e-14
-2.82717e-14
-2.83011e-14
-2.82812e-14
-2.83306e-14
-2.82699e-14
-2.82877e-14
-2.83536e-14
-2.83254e-14
-2.82738e-14
-2.83198e-14
-2.83037e-14
-2.83116e-14
-2.82881e-14
-2.82951e-14
-2.8305e-14
-2.83094e-14
-2.83519e-14
-2.83172e-14
-2.82877e-14
-2.82925e-14
-2.82786e-14
-2.83237e-14
-2.83142e-14
-2.82886e-14
-2.82803e-14
-2.82899e-14
-2.82682e-14
-2.83194e-14
-2.83098e-14
-2.8305e-14
-2.83415e-14
-2.83224e-14
-2.82916e-14
-2.8335e-14
-2.83224e-14
-2.83081e-14
-2.83449e-14
-2.82612e-14
-2.83055e-14
-2.82803e-14
-2.83011e-14
-2.83653e-14
-2.83194e-14
-2.8315e-14
-2.83094e-14
-2.82547e-14
-2.83293e-14
-2.83246e-14
-2.82773e-14
-2.82842e-14
-2.82795e-14
-2.83146e-14
-2.82539e-14
-2.82894e-14
-2.8305e-14
-2.83176e-14
-2.83389e-14
-2.83077e-14
-3.49408e-14
-3.48927e-14
-3.49039e-14
-3.48818e-14
-3.48762e-14
-3.48935e-14
-3.49534e-14
-3.48875e-14
-3.48875e-14
-3.48723e-14
-3.4913e-14
-3.4858e-14
-3.48992e-14
-3.48515e-14
-3.49291e-14
-3.48922e-14
-3.49308e-14
-3.4923e-14
-3.48888e-14
-3.48849e-14
-3.49057e-14
-3.493e-14
-3.4894e-14
-3.48623e-14
-3.48419e-14
-3.48979e-14
-3.48723e-14
-3.4897e-14
-3.49096e-14
-3.48831e-14
-3.48831e-14
-3.49122e-14
-3.491e-14
-3.4887e-14
-3.4923e-14
-3.48705e-14
-3.48909e-14
-3.48775e-14
-3.48419e-14
-3.49248e-14
-3.4877e-14
-3.48953e-14
-3.48784e-14
-3.4881e-14
-3.48476e-14
-3.49061e-14
-3.48632e-14
-3.49096e-14
-3.48757e-14
-3.49009e-14
-3.48671e-14
-3.49143e-14
-3.49209e-14
-3.48697e-14
-3.49321e-14
-3.4907e-14
-3.48857e-14
-3.48484e-14
-3.48757e-14
-3.48536e-14
-4.331e-14
-4.33677e-14
-4.33681e-14
-4.33798e-14
-4.33811e-14
-4.33729e-14
-4.3352e-14
-4.33798e-14
-4.33859e-14
-4.33664e-14
-4.33516e-14
-4.34145e-14
-4.33811e-14
-4.33885e-14
-4.33434e-14
-4.33915e-14
-4.33733e-14
-4.33564e-14
-4.33707e-14
-4.33863e-14
-4.33703e-14
-4.33438e-14
-4.33525e-14
-4.33638e-14
-4.34006e-14
-4.33681e-14
-4.33945e-14
-4.33859e-14
-4.33646e-14
-4.33438e-14
-4.33473e-14
-4.33226e-14
-4.33668e-14
-4.34006e-14
-4.33386e-14
-4.34201e-14
-4.34023e-14
-4.3382e-14
-4.34201e-14
-4.34106e-14
-4.33703e-14
-4.3336e-14
-4.33364e-14
-4.33304e-14
-4.33403e-14
-4.33468e-14
-4.33807e-14
-4.33971e-14
-4.33317e-14
-4.33377e-14
-4.33481e-14
-4.33538e-14
-4.33429e-14
-4.3401e-14
-4.33477e-14
-4.33794e-14
-4.33776e-14
-4.33703e-14
-4.33902e-14
-4.33707e-14
-5.24212e-14
-5.24229e-14
-5.24325e-14
-5.23548e-14
-5.23973e-14
-5.24142e-14
-5.23834e-14
-5.24411e-14
-5.23917e-14
-5.24303e-14
-5.24615e-14
-5.24177e-14
-5.2403e-14
-5.24064e-14
-5.24533e-14
-5.2429e-14
-5.2393e-14
-5.2429e-14
-5.24342e-14
-5.24056e-14
-5.2409e-14
-5.23982e-14
-5.24173e-14
-5.24342e-14
-5.2383e-14
-5.24051e-14
-5.23965e-14
-5.23735e-14
-5.24112e-14
-5.24099e-14
-5.24294e-14
-5.24754e-14
-5.24177e-14
-5.23817e-14
-5.24316e-14
-5.23717e-14
-5.2419e-14
-5.24086e-14
-5.24021e-14
-5.24268e-14
-5.23969e-14
-5.24524e-14
-5.24732e-14
-5.23917e-14
-5.24585e-14
-5.24246e-14
-5.24051e-14
-5.24298e-14
-5.24541e-14
-5.24229e-14
-5.24285e-14
-5.24298e-14
-5.24589e-14
-5.23821e-14
-5.24168e-14
-5.24203e-14
-5.24225e-14
-5.24446e-14
-5.24277e-14
-5.24116e-14
-5.90665e-14
-5.90556e-14
-5.89984e-14
-5.91029e-14
-5.90908e-14
-5.90387e-14
-5.90821e-14
-5.90179e-14
-5.91237e-14
-5.90409e-14
-5.90209e-14
-5.90244e-14
-5.90188e-14
-5.90838e-14
-5.904e-14
-5.90387e-14
-5.90981e-14
-5.90452e-14
-5.90326e-14
-5.90062e-14
-5.90708e-14
-5.9047e-14
-5.90118e-14
-5.90361e-14
-5.90643e-14
-5.90695e-14
-5.91185e-14
-5.90483e-14
-5.90339e-14
-5.90643e-14
-5.90331e-14
-5.90071e-14
-5.90821e-14
-5.90704e-14
-5.90621e-14
-5.90331e-14
-5.90426e-14
-5.90682e-14
-5.90626e-14
-5.90058e-14
-5.90686e-14
-5.90378e-14
-5.90023e-14
-5.90578e-14
-5.90279e-14
-5.90452e-14
-5.90404e-14
-5.89958e-14
-5.90274e-14
-5.90439e-14
-5.90014e-14
-5.90027e-14
-5.90578e-14
-5.90526e-14
-5.90344e-14
-5.90192e-14
-5.90665e-14
-5.90569e-14
-5.90756e-14
-5.90274e-14
-5.82763e-14
-5.82498e-14
-5.82689e-14
-5.81987e-14
-5.82577e-14
-5.82841e-14
-5.82182e-14
-5.82941e-14
-5.82351e-14
-5.82902e-14
-5.8239e-14
-5.83054e-14
-5.83054e-14
-5.82529e-14
-5.8236e-14
-5.82477e-14
-5.82585e-14
-5.82334e-14
-5.82668e-14
-5.8278e-14
-5.82399e-14
-5.82459e-14
-5.82386e-14
-5.82017e-14
-5.82936e-14
-5.82637e-14
-5.82342e-14
-5.83279e-14
-5.83071e-14
-5.82433e-14
-5.82524e-14
-5.82529e-14
-5.82264e-14
-5.82282e-14
-5.83062e-14
-5.83149e-14
-5.82642e-14
-5.82577e-14
-5.81987e-14
-5.82403e-14
-5.82772e-14
-5.82828e-14
-5.82511e-14
-5.82607e-14
-5.82178e-14
-5.82125e-14
-5.82052e-14
-5.83132e-14
-5.83201e-14
-5.82746e-14
-5.82386e-14
-5.83214e-14
-5.82668e-14
-5.82516e-14
-5.82629e-14
-5.83071e-14
-5.82793e-14
-5.82494e-14
-5.82412e-14
-5.82498e-14
-4.32072e-14
-4.32111e-14
-4.32757e-14
-4.32861e-14
-4.32336e-14
-4.32584e-14
-4.33226e-14
-4.32029e-14
-4.31911e-14
-4.32276e-14
-4.32896e-14
-4.32063e-14
-4.3238e-14
-4.32675e-14
-4.32683e-14
-4.32549e-14
-4.32215e-14
-4.33221e-14
-4.32284e-14
-4.32332e-14
-4.32597e-14
-4.32397e-14
-4.32501e-14
-4.32913e-14
-4.32519e-14
-4.32124e-14
-4.32349e-14
-4.32011e-14
-4.31729e-14
-4.32458e-14
-4.31924e-14
-4.31907e-14
-4.33035e-14
-4.32402e-14
-4.31803e-14
-4.31777e-14
-4.32141e-14
-4.33152e-14
-4.32783e-14
-4.32276e-14
-4.32124e-14
-4.32471e-14
-4.32332e-14
-4.32384e-14
-4.33239e-14
-4.32228e-14
-4.32931e-14
-4.31998e-14
-4.3202e-14
-4.32102e-14
-4.32857e-14
-4.31638e-14
-4.32137e-14
-4.32406e-14
-4.32436e-14
-4.32332e-14
-4.32306e-14
-4.32909e-14
-4.32488e-14
-4.32393e-14
-7.72689e-15
-7.76202e-15
-7.73557e-15
-7.68266e-15
-7.74511e-15
-7.63712e-15
-7.65707e-15
-7.80712e-15
-7.79541e-15
-7.72516e-15
-7.72733e-15
-7.81536e-15
-7.7386e-15
-7.70217e-15
-7.74988e-15
-7.71215e-15
-7.80105e-15
-7.67919e-15
-7.70564e-15
-7.75335e-15
-7.71345e-15
-7.69827e-15
-7.76809e-15
-7.76202e-15
-7.70608e-15
-7.75551e-15
-7.7772e-15
-7.73296e-15
-7.79585e-15
-7.70174e-15
-7.72776e-15
-7.76983e-15
-7.69914e-15
-7.77633e-15
-7.80192e-15
-7.82274e-15
-7.73296e-15
-7.64796e-15
-7.71692e-15
-7.74988e-15
-7.77199e-15
-7.73166e-15
-7.77546e-15
-7.76939e-15
-7.62758e-15
-7.79802e-15
-7.71432e-15
-7.66878e-15
-7.76245e-15
-7.79585e-15
-7.70868e-15
-7.74814e-15
-7.77893e-15
-7.67528e-15
-7.72299e-15
-7.75855e-15
-7.69437e-15
-7.7013e-15
-7.72733e-15
-7.73166e-15
4.84465e-14
4.85202e-14
4.85931e-14
4.84309e-14
4.86122e-14
4.84426e-14
4.85146e-14
4.86247e-14
4.86243e-14
4.8551e-14
4.85367e-14
4.86091e-14
4.85441e-14
4.85458e-14
4.86122e-14
4.85215e-14
4.8571e-14
4.8554e-14
4.84959e-14
4.85003e-14
4.84851e-14
4.85684e-14
4.85532e-14
4.85206e-14
4.84513e-14
4.86364e-14
4.85393e-14
4.85076e-14
4.85922e-14
4.85571e-14
4.8535e-14
4.85497e-14
4.86e-14
4.85263e-14
4.8626e-14
4.85978e-14
4.85137e-14
4.84864e-14
4.85536e-14
4.85827e-14
4.85588e-14
4.85701e-14
4.85527e-14
4.85783e-14
4.84951e-14
4.85376e-14
4.85566e-14
4.84192e-14
4.85671e-14
4.8554e-14
4.84842e-14
4.85501e-14
4.85913e-14
4.85202e-14
4.85727e-14
4.85814e-14
4.85233e-14
4.85094e-14
4.8548e-14
4.85007e-14
1.12678e-13
1.12733e-13
1.12642e-13
1.12709e-13
1.12603e-13
1.12623e-13
1.12593e-13
1.12569e-13
1.12591e-13
1.12617e-13
1.12692e-13
1.12633e-13
1.12672e-13
1.126e-13
1.12569e-13
1.12619e-13
1.12614e-13
1.12594e-13
1.12606e-13
1.12674e-13
1.12693e-13
1.1263e-13
1.12622e-13
1.12587e-13
1.12641e-13
1.12558e-13
1.12637e-13
1.12625e-13
1.12601e-13
1.12558e-13
1.12656e-13
1.12698e-13
1.12604e-13
1.12747e-13
1.12538e-13
1.12568e-13
1.12587e-13
1.12646e-13
1.12611e-13
1.12559e-13
1.12598e-13
1.12588e-13
1.12666e-13
1.12665e-13
1.127e-13
1.12607e-13
1.12635e-13
1.12732e-13
1.12622e-13
1.12659e-13
1.12697e-13
1.12584e-13
1.12558e-13
1.12652e-13
1.12588e-13
1.12662e-13
1.12603e-13
1.12707e-13
1.12557e-13
1.12625e-13
1.53792e-13
1.53704e-13
1.53805e-13
1.53747e-13
1.53756e-13
1.53868e-13
1.53738e-13
1.53753e-13
1.53782e-13
1.53751e-13
1.5369e-13
1.53814e-13
1.53719e-13
1.53871e-13
1.53844e-13
1.5375e-13
1.53851e-13
1.53738e-13
1.53752e-13
1.53673e-13
1.53729e-13
1.53717e-13
1.53717e-13
1.53888e-13
1.5382e-13
1.53836e-13
1.53798e-13
1.53754e-13
1.53862e-13
1.5385e-13
1.53807e-13
1.53742e-13
1.53836e-13
1.53661e-13
1.53882e-13
1.53813e-13
1.53867e-13
1.53802e-13
1.53759e-13
1.53837e-13
1.53742e-13
1.53786e-13
1.53731e-13
1.53772e-13
1.53782e-13
1.53818e-13
1.53788e-13
1.53775e-13
1.53763e-13
1.53727e-13
1.53736e-13
1.53777e-13
1.53921e-13
1.5375e-13
1.53794e-13
1.53738e-13
1.5381e-13
1.53774e-13
1.53946e-13
1.53863e-13
1.30494e-13
1.30576e-13
1.30529e-13
1.30531e-13
1.3058e-13
1.30453e-13
1.30539e-13
1.30599e-13
1.30529e-13
1.3048e-13
1.30572e-13
1.30496e-13
1.30579e-13
1.30476e-13
1.30499e-13
1.30529e-13
1.30499e-13
1.30506e-13
1.30591e-13
1.30564e-13
1.30534e-13
1.30583e-13
1.30639e-13
1.30439e-13
1.30505e-13
1.30491e-13
1.30594e-13
1.30536e-13
1.30482e-13
1.30524e-13
1.30492e-13
1.30595e-13
1.30577e-13
1.30631e-13
1.30505e-13
1.3055e-13
1.30455e-13
1.30503e-13
1.30524e-13
1.30467e-13
1.30623e-13
1.30541e-13
1.30544e-13
1.30554e-13
1.30446e-13
1.30525e-13
1.30442e-13
1.30414e-13
1.30529e-13
1.30499e-13
1.30535e-13
1.30594e-13
1.30475e-13
1.30517e-13
1.30529e-13
1.30541e-13
1.30526e-13
1.30436e-13
1.30394e-13
1.30466e-13
1.49932e-14
1.49507e-14
1.49616e-14
1.4838e-14
1.48805e-14
1.49733e-14
1.49581e-14
1.48141e-14
1.49407e-14
1.50101e-14
1.4926e-14
1.50283e-14
1.48844e-14
1.49381e-14
1.49269e-14
1.49464e-14
1.49247e-14
1.49542e-14
1.48427e-14
1.4942e-14
1.49039e-14
1.49204e-14
1.49056e-14
1.4916e-14
1.49689e-14
1.49429e-14
1.49217e-14
1.49095e-14
1.49754e-14
1.49043e-14
1.49559e-14
1.48774e-14
1.49368e-14
1.48753e-14
1.49485e-14
1.48661e-14
1.50071e-14
1.49013e-14
1.48783e-14
1.50574e-14
1.48384e-14
1.49551e-14
1.49256e-14
1.48969e-14
1.50318e-14
1.48874e-14
1.49741e-14
1.50283e-14
1.48826e-14
1.50145e-14
1.49659e-14
1.48427e-14
1.49802e-14
1.49837e-14
1.49334e-14
1.49104e-14
1.49603e-14
1.50366e-14
1.50457e-14
1.49976e-14
-1.76255e-13
-1.76241e-13
-1.76231e-13
-1.76097e-13
-1.76185e-13
-1.76116e-13
-1.76164e-13
-1.76206e-13
-1.76261e-13
-1.76238e-13
-1.76215e-13
-1.76343e-13
-1.76205e-13
-1.76177e-13
-1.7617e-13
-1.76202e-13
-1.76277e-13
-1.76173e-13
-1.76178e-13
-1.76222e-13
-1.76166e-13
-1.76191e-13
-1.76162e-13
-1.76189e-13
-1.76273e-13
-1.76199e-13
-1.76334e-13
-1.76274e-13
-1.76195e-13
-1.76133e-13
-1.76254e-13
-1.76234e-13
-1.76332e-13
-1.76189e-13
-1.76226e-13
-1.7614e-13
-1.76302e-13
-1.76143e-13
-1.7608e-13
-1.76277e-13
-1.76101e-13
-1.76193e-13
-1.76195e-13
-1.7617e-13
-1.76267e-13
-1.76195e-13
-1.76235e-13
-1.76317e-13
-1.76158e-13
-1.76255e-13
-1.76335e-13
-1.762e-13
-1.76273e-13
-1.76278e-13
-1.76172e-13
-1.76105e-13
-1.76191e-13
-1.76245e-13
-1.76287e-13
-1.76309e-13
-3.68985e-13
-3.68961e-13
-3.68994e-13
-3.68908e-13
-3.6896e-13
-3.69031e-13
-3.68942e-13
-3.68891e-13
-3.68852e-13
-3.68918e-13
-3.68971e-13
-3.68838e-13
-3.68904e-13
-3.68954e-13
-3.68976e-13
-3.68921e-13
-3.68842e-13
-3.68935e-13
-3.68993e-13
-3.689e-13
-3.68972e-13
-3.6899e-13
-3.69009e-13
-3.68936e-13
-3.6898e-13
-3.69015e-13
-3.68753e-13
-3.68872e-13
-3.6896e-13
-3.68944e-13
-3.68903e-13
-3.6889e-13
-3.68807e-13
-3.6891e-13
-3.68879e-13
-3.6893e-13
-3.68838e-13
-3.68984e-13
-3.69027e-13
-3.68879e-13
-3.68974e-13
-3.68959e-13
-3.68958e-13
-3.69e-13
-3.6889e-13
-3.68868e-13
-3.68928e-13
-3.68875e-13
-3.68872e-13
-3.68966e-13
-3.68882e-13
-3.68923e-13
-3.68918e-13
-3.68815e-13
-3.68967e-13
-3.6907e-13
-3.68962e-13
-3.68968e-13
-3.68913e-13
-3.68777e-13
-4.6439e-13
-4.64476e-13
-4.64327e-13
-4.64505e-13
-4.6442e-13
-4.64387e-13
-4.64438e-13
-4.64532e-13
-4.64477e-13
-4.64365e-13
-4.64349e-13
-4.64441e-13
-4.64474e-13
-4.64362e-13
-4.64394e-13
-4.64452e-13
-4.64464e-13
-4.6451e-13
-4.6442e-13
-4.64381e-13
-4.6442e-13
-4.64406e-13
-4.64439e-13
-4.64445e-13
-4.64304e-13
-4.64304e-13
-4.64469e-13
-4.64447e-13
-4.64453e-13
-4.64418e-13
-4.64398e-13
-4.64461e-13
-4.64528e-13
-4.64448e-13
-4.64436e-13
-4.64402e-13
-4.64496e-13
-4.64367e-13
-4.64325e-13
-4.64468e-13
-4.64487e-13
-4.64361e-13
-4.644e-13
-4.64372e-13
-4.645e-13
-4.64479e-13
-4.6434e-13
-4.64438e-13
-4.64457e-13
-4.64436e-13
-4.64388e-13
-4.64425e-13
-4.64433e-13
-4.64572e-13
-4.64487e-13
-4.64365e-13
-4.645e-13
-4.64369e-13
-4.6438e-13
-4.64504e-13
-4.02429e-13
-4.02232e-13
-4.0236e-13
-4.02347e-13
-4.02265e-13
-4.02376e-13
-4.02308e-13
-4.02287e-13
-4.02347e-13
-4.02426e-13
-4.025e-13
-4.0244e-13
-4.02325e-13
-4.02301e-13
-4.02412e-13
-4.02389e-13
-4.0231e-13
-4.02324e-13
-4.02266e-13
-4.02452e-13
-4.02423e-13
-4.02337e-13
-4.02285e-13
-4.02326e-13
-4.02512e-13
-4.02486e-13
-4.02388e-13
-4.02402e-13
-4.02331e-13
-4.02376e-13
-4.02337e-13
-4.02298e-13
-4.02304e-13
-4.02348e-13
-4.02349e-13
-4.02348e-13
-4.02389e-13
-4.02382e-13
-4.02426e-13
-4.02255e-13
-4.02279e-13
-4.02323e-13
-4.02401e-13
-4.02355e-13
-4.02184e-13
-4.02326e-13
-4.02421e-13
-4.02367e-13
-4.0235e-13
-4.0223e-13
-4.02519e-13
-4.02338e-13
-4.02349e-13
-4.02366e-13
-4.02325e-13
-4.02439e-13
-4.02271e-13
-4.02356e-13
-4.02402e-13
-4.0232e-13
-2.05558e-13
-2.05536e-13
-2.05514e-13
-2.05507e-13
-2.05622e-13
-2.05582e-13
-2.05552e-13
-2.05642e-13
-2.05415e-13
-2.05485e-13
-2.05373e-13
-2.05488e-13
-2.05609e-13
-2.05628e-13
-2.05497e-13
-2.05449e-13
-2.05488e-13
-2.05427e-13
-2.05588e-13
-2.05562e-13
-2.05504e-13
-2.05471e-13
-2.05513e-13
-2.0564e-13
-2.05441e-13
-2.05538e-13
-2.0556e-13
-2.05572e-13
-2.05579e-13
-2.0558e-13
-2.05468e-13
-2.05554e-13
-2.05596e-13
-2.05532e-13
-2.05596e-13
-2.05528e-13
-2.05436e-13
-2.05487e-13
-2.05536e-13
-2.05641e-13
-2.05528e-13
-2.05599e-13
-2.05487e-13
-2.05569e-13
-2.05699e-13
-2.05628e-13
-2.05518e-13
-2.05598e-13
-2.05569e-13
-2.05641e-13
-2.05459e-13
-2.0554e-13
-2.05519e-13
-2.05408e-13
-2.056e-13
-2.05473e-13
-2.05466e-13
-2.05682e-13
-2.05618e-13
-2.05616e-13
3.59409e-14
3.58932e-14
3.59812e-14
3.57119e-14
3.59023e-14
3.59972e-14
3.5819e-14
3.59122e-14
3.57227e-14
3.58541e-14
3.58281e-14
3.58134e-14
3.58715e-14
3.5819e-14
3.58255e-14
3.57813e-14
3.59777e-14
3.57609e-14
3.58758e-14
3.5976e-14
3.5956e-14
3.58797e-14
3.58181e-14
3.60935e-14
3.58433e-14
3.5907e-14
3.59031e-14
3.60554e-14
3.58984e-14
3.58351e-14
3.57435e-14
3.57817e-14
3.593e-14
3.59482e-14
3.59959e-14
3.58754e-14
3.58051e-14
3.57717e-14
3.58888e-14
3.59443e-14
3.58385e-14
3.59322e-14
3.595e-14
3.59348e-14
3.59279e-14
3.58736e-14
3.60185e-14
3.58888e-14
3.60215e-14
3.58953e-14
3.58593e-14
3.58893e-14
3.59296e-14
3.58073e-14
3.58871e-14
3.58069e-14
3.58125e-14
3.60103e-14
3.59092e-14
3.59547e-14
2.25812e-13
2.25993e-13
2.25917e-13
2.26011e-13
2.25976e-13
2.25848e-13
2.26055e-13
2.2606e-13
2.26084e-13
2.26011e-13
2.25988e-13
2.25933e-13
2.2593e-13
2.25908e-13
2.26031e-13
2.25936e-13
2.25876e-13
2.26011e-13
2.25857e-13
2.25802e-13
2.25959e-13
2.25852e-13
2.26055e-13
2.25756e-13
2.25963e-13
2.25942e-13
2.2599e-13
2.25807e-13
2.25935e-13
2.25967e-13
2.25992e-13
2.26009e-13
2.2602e-13
2.25887e-13
2.25727e-13
2.25943e-13
2.25976e-13
2.25946e-13
2.25898e-13
2.25934e-13
2.26145e-13
2.25924e-13
2.2593e-13
2.25802e-13
2.25941e-13
2.2597e-13
2.25793e-13
2.25927e-13
2.25805e-13
2.25975e-13
2.26043e-13
2.2584e-13
2.25944e-13
2.26015e-13
2.26128e-13
2.25845e-13
2.25986e-13
2.25794e-13
2.25967e-13
2.25904e-13
3.16441e-13
3.16374e-13
3.16282e-13
3.16385e-13
3.16247e-13
3.16413e-13
3.16255e-13
3.16099e-13
3.16221e-13
3.1622e-13
3.16348e-13
3.16427e-13
3.16343e-13
3.16479e-13
3.16196e-13
3.16459e-13
3.16525e-13
3.16319e-13
3.16367e-13
3.16519e-13
3.16313e-13
3.16398e-13
3.16293e-13
3.16391e-13
3.16227e-13
3.16489e-13
3.16372e-13
3.16307e-13
3.16296e-13
3.16259e-13
3.16303e-13
3.16404e-13
3.16228e-13
3.16321e-13
3.16422e-13
3.1633e-13
3.16391e-13
3.16519e-13
3.16332e-13
3.16331e-13
3.16136e-13
3.16331e-13
3.16279e-13
3.16399e-13
3.16367e-13
3.16328e-13
3.16311e-13
3.16463e-13
3.16317e-13
3.16324e-13
3.16232e-13
3.16551e-13
3.16332e-13
3.16342e-13
3.16201e-13
3.16384e-13
3.16345e-13
3.16425e-13
3.16299e-13
3.16309e-13
3.15013e-13
3.15096e-13
3.15169e-13
3.14983e-13
3.15117e-13
3.15106e-13
3.15068e-13
3.15185e-13
3.15125e-13
3.15273e-13
3.15049e-13
3.15036e-13
3.15148e-13
3.14928e-13
3.15243e-13
3.14977e-13
3.14849e-13
3.15031e-13
3.15187e-13
3.14993e-13
3.15077e-13
3.15058e-13
3.1507e-13
3.15139e-13
3.15205e-13
3.14855e-13
3.15093e-13
3.1514e-13
3.1501e-13
3.151e-13
3.15024e-13
3.14996e-13
3.15044e-13
3.15168e-13
3.15098e-13
3.15026e-13
3.15012e-13
3.15079e-13
3.15102e-13
3.15053e-13
3.15214e-13
3.15126e-13
3.15137e-13
3.15039e-13
3.1499e-13
3.15008e-13
3.15055e-13
3.14946e-13
3.15032e-13
3.15119e-13
3.15098e-13
3.1487e-13
3.1507e-13
3.1515e-13
3.15024e-13
3.15046e-13
3.15043e-13
3.15105e-13
3.1511e-13
3.15061e-13
2.6006e-13
2.60094e-13
2.60174e-13
2.60111e-13
2.60182e-13
2.60099e-13
2.60282e-13
2.60229e-13
2.60065e-13
2.60019e-13
2.60099e-13
2.60111e-13
2.60141e-13
2.60198e-13
2.59957e-13
2.60284e-13
2.60233e-13
2.60235e-13
2.59946e-13
2.60162e-13
2.60217e-13
2.60291e-13
2.60146e-13
2.60143e-13
2.6002e-13
2.60197e-13
2.60065e-13
2.60093e-13
2.60285e-13
2.60117e-13
2.60245e-13
2.60189e-13
2.60261e-13
2.6021e-13
2.60036e-13
2.60226e-13
2.6011e-13
2.59961e-13
2.6004e-13
2.60179e-13
2.60084e-13
2.60075e-13
2.60117e-13
2.6013e-13
2.60121e-13