/*--------------------------------*- C++ -*----------------------------------*\
| =========                 |                                                 |
| \\      /  F ield         | foam-extend: Open Source CFD                    |
|  \\    /   O peration     | Version:     4.0                                |
|   \\  /    A nd           | Web:         http://www.foam-extend.org         |
|    \\/     M anipulation  |                                                 |
\*---------------------------------------------------------------------------*/
FoamFile
{
    version     2.0;
    format      ascii;
    class       volScalarField;
    location    "260";
    object      psiE;
}
// * * * * * * * * * * * * * * * * * * * * * * * * * * * * * * * * * * * * * //

dimensions      [0 0 0 0 0 0 0];

internalField   nonuniform List<scalar> 
6960
(
0.395174
0.395212
0.395221
0.395223
0.395223
0.395223
0.395224
0.395224
0.395224
0.395225
0.395225
0.395226
0.395226
0.395227
0.395228
0.395228
0.395229
0.39523
0.39523
0.395231
0.395231
0.395232
0.395232
0.395232
0.395233
0.395233
0.395233
0.395233
0.395233
0.395233
0.395233
0.395233
0.395233
0.395233
0.395233
0.395233
0.395232
0.395232
0.395232
0.395231
0.395231
0.39523
0.39523
0.395229
0.395228
0.395228
0.395227
0.395226
0.395226
0.395225
0.395225
0.395224
0.395224
0.395224
0.395223
0.395223
0.395223
0.395221
0.395212
0.395174
1.06881
1.06895
1.06899
1.069
1.069
1.069
1.069
1.069
1.069
1.069
1.069
1.069
1.069
1.069
1.069
1.069
1.06901
1.06901
1.06901
1.06901
1.06901
1.06901
1.06901
1.06901
1.06901
1.06901
1.06901
1.06902
1.06902
1.06902
1.06902
1.06902
1.06902
1.06901
1.06901
1.06901
1.06901
1.06901
1.06901
1.06901
1.06901
1.06901
1.06901
1.06901
1.069
1.069
1.069
1.069
1.069
1.069
1.069
1.069
1.069
1.069
1.069
1.069
1.069
1.06899
1.06895
1.06881
1.71343
1.71368
1.71374
1.71376
1.71376
1.71375
1.71375
1.71375
1.71375
1.71375
1.71375
1.71375
1.71376
1.71376
1.71376
1.71376
1.71376
1.71377
1.71377
1.71377
1.71377
1.71377
1.71377
1.71377
1.71378
1.71378
1.71378
1.71378
1.71378
1.71378
1.71378
1.71378
1.71378
1.71378
1.71378
1.71378
1.71377
1.71377
1.71377
1.71377
1.71377
1.71377
1.71377
1.71376
1.71376
1.71376
1.71376
1.71376
1.71375
1.71375
1.71375
1.71375
1.71375
1.71375
1.71375
1.71376
1.71376
1.71374
1.71368
1.71343
2.34013
2.34048
2.34056
2.34058
2.34057
2.34057
2.34057
2.34057
2.34057
2.34057
2.34057
2.34057
2.34057
2.34057
2.34058
2.34058
2.34058
2.34058
2.34059
2.34059
2.34059
2.34059
2.34059
2.34059
2.3406
2.3406
2.3406
2.3406
2.3406
2.3406
2.3406
2.3406
2.3406
2.3406
2.3406
2.3406
2.34059
2.34059
2.34059
2.34059
2.34059
2.34059
2.34058
2.34058
2.34058
2.34058
2.34057
2.34057
2.34057
2.34057
2.34057
2.34057
2.34057
2.34057
2.34057
2.34057
2.34058
2.34056
2.34048
2.34013
2.9478
2.94823
2.94833
2.94835
2.94835
2.94834
2.94834
2.94833
2.94833
2.94833
2.94833
2.94833
2.94833
2.94834
2.94834
2.94834
2.94835
2.94835
2.94835
2.94835
2.94836
2.94836
2.94836
2.94836
2.94836
2.94836
2.94836
2.94837
2.94837
2.94837
2.94837
2.94837
2.94837
2.94836
2.94836
2.94836
2.94836
2.94836
2.94836
2.94836
2.94835
2.94835
2.94835
2.94835
2.94834
2.94834
2.94834
2.94833
2.94833
2.94833
2.94833
2.94833
2.94833
2.94834
2.94834
2.94835
2.94835
2.94833
2.94823
2.9478
3.53223
3.53272
3.53284
3.53286
3.53285
3.53284
3.53284
3.53283
3.53283
3.53283
3.53283
3.53283
3.53283
3.53284
3.53284
3.53284
3.53284
3.53285
3.53285
3.53285
3.53286
3.53286
3.53286
3.53286
3.53286
3.53287
3.53287
3.53287
3.53287
3.53287
3.53287
3.53287
3.53287
3.53287
3.53287
3.53286
3.53286
3.53286
3.53286
3.53286
3.53285
3.53285
3.53285
3.53284
3.53284
3.53284
3.53284
3.53283
3.53283
3.53283
3.53283
3.53283
3.53283
3.53284
3.53284
3.53285
3.53286
3.53284
3.53272
3.53223
4.08779
4.08833
4.08845
4.08847
4.08846
4.08845
4.08845
4.08844
4.08844
4.08843
4.08843
4.08843
4.08843
4.08844
4.08844
4.08844
4.08845
4.08845
4.08845
4.08846
4.08846
4.08846
4.08846
4.08846
4.08847
4.08847
4.08847
4.08847
4.08847
4.08847
4.08847
4.08847
4.08847
4.08847
4.08847
4.08847
4.08846
4.08846
4.08846
4.08846
4.08846
4.08845
4.08845
4.08845
4.08844
4.08844
4.08844
4.08843
4.08843
4.08843
4.08843
4.08844
4.08844
4.08845
4.08845
4.08846
4.08847
4.08845
4.08833
4.08779
4.60774
4.60829
4.60841
4.60843
4.60842
4.60841
4.60839
4.60839
4.60838
4.60838
4.60838
4.60838
4.60838
4.60838
4.60838
4.60838
4.60839
4.60839
4.60839
4.6084
4.6084
4.6084
4.6084
4.60841
4.60841
4.60841
4.60841
4.60841
4.60841
4.60841
4.60841
4.60841
4.60841
4.60841
4.60841
4.60841
4.60841
4.6084
4.6084
4.6084
4.6084
4.60839
4.60839
4.60839
4.60838
4.60838
4.60838
4.60838
4.60838
4.60838
4.60838
4.60838
4.60839
4.60839
4.60841
4.60842
4.60843
4.60841
4.60829
4.60774
5.08442
5.08494
5.08505
5.08506
5.08505
5.08503
5.08502
5.08501
5.085
5.08499
5.08499
5.08499
5.08499
5.08499
5.08499
5.085
5.085
5.085
5.08501
5.08501
5.08501
5.08501
5.08502
5.08502
5.08502
5.08502
5.08502
5.08502
5.08502
5.08502
5.08502
5.08502
5.08502
5.08502
5.08502
5.08502
5.08502
5.08502
5.08501
5.08501
5.08501
5.08501
5.085
5.085
5.085
5.08499
5.08499
5.08499
5.08499
5.08499
5.08499
5.085
5.08501
5.08502
5.08503
5.08505
5.08506
5.08505
5.08494
5.08442
5.50999
5.51045
5.51056
5.51056
5.51054
5.51052
5.5105
5.51048
5.51047
5.51047
5.51046
5.51046
5.51046
5.51046
5.51046
5.51046
5.51047
5.51047
5.51047
5.51048
5.51048
5.51048
5.51048
5.51049
5.51049
5.51049
5.51049
5.51049
5.51049
5.51049
5.51049
5.51049
5.51049
5.51049
5.51049
5.51049
5.51049
5.51048
5.51048
5.51048
5.51048
5.51047
5.51047
5.51047
5.51046
5.51046
5.51046
5.51046
5.51046
5.51046
5.51047
5.51047
5.51048
5.5105
5.51052
5.51054
5.51056
5.51056
5.51045
5.50999
5.87814
5.87851
5.87858
5.87858
5.87855
5.87852
5.8785
5.87849
5.87848
5.87847
5.87846
5.87846
5.87846
5.87846
5.87846
5.87846
5.87846
5.87846
5.87847
5.87847
5.87847
5.87847
5.87848
5.87848
5.87848
5.87848
5.87848
5.87848
5.87848
5.87849
5.87849
5.87848
5.87848
5.87848
5.87848
5.87848
5.87848
5.87848
5.87847
5.87847
5.87847
5.87847
5.87846
5.87846
5.87846
5.87846
5.87846
5.87846
5.87846
5.87846
5.87847
5.87848
5.87849
5.8785
5.87852
5.87855
5.87858
5.87858
5.87851
5.87814
6.18623
6.18649
6.18653
6.18651
6.18648
6.18645
6.18643
6.18641
6.18639
6.18638
6.18637
6.18637
6.18637
6.18637
6.18637
6.18637
6.18637
6.18638
6.18638
6.18638
6.18638
6.18639
6.18639
6.18639
6.18639
6.1864
6.1864
6.1864
6.1864
6.1864
6.1864
6.1864
6.1864
6.1864
6.1864
6.18639
6.18639
6.18639
6.18639
6.18638
6.18638
6.18638
6.18638
6.18637
6.18637
6.18637
6.18637
6.18637
6.18637
6.18637
6.18638
6.18639
6.18641
6.18643
6.18645
6.18648
6.18651
6.18653
6.18649
6.18623
6.43693
6.43708
6.43709
6.43706
6.43702
6.43699
6.43697
6.43694
6.43693
6.43692
6.43691
6.43691
6.4369
6.4369
6.43691
6.43691
6.43691
6.43691
6.43692
6.43692
6.43692
6.43693
6.43693
6.43693
6.43694
6.43694
6.43694
6.43694
6.43694
6.43694
6.43694
6.43694
6.43694
6.43694
6.43694
6.43694
6.43693
6.43693
6.43693
6.43692
6.43692
6.43692
6.43691
6.43691
6.43691
6.43691
6.4369
6.4369
6.43691
6.43691
6.43692
6.43693
6.43694
6.43697
6.43699
6.43702
6.43706
6.43709
6.43708
6.43693
6.63786
6.63791
6.63789
6.63785
6.63781
6.63778
6.63775
6.63773
6.63771
6.6377
6.63769
6.63769
6.63769
6.63769
6.63769
6.6377
6.6377
6.6377
6.63771
6.63771
6.63772
6.63772
6.63772
6.63773
6.63773
6.63773
6.63773
6.63774
6.63774
6.63774
6.63774
6.63774
6.63774
6.63773
6.63773
6.63773
6.63773
6.63772
6.63772
6.63772
6.63771
6.63771
6.6377
6.6377
6.6377
6.63769
6.63769
6.63769
6.63769
6.63769
6.6377
6.63771
6.63773
6.63775
6.63778
6.63781
6.63785
6.63789
6.63791
6.63786
6.79924
6.79921
6.79917
6.79912
6.79908
6.79904
6.79901
6.79899
6.79898
6.79897
6.79896
6.79896
6.79896
6.79896
6.79897
6.79897
6.79898
6.79898
6.79899
6.79899
6.799
6.799
6.79901
6.79901
6.79902
6.79902
6.79902
6.79902
6.79902
6.79903
6.79903
6.79902
6.79902
6.79902
6.79902
6.79902
6.79901
6.79901
6.799
6.799
6.79899
6.79899
6.79898
6.79898
6.79897
6.79897
6.79896
6.79896
6.79896
6.79896
6.79897
6.79898
6.79899
6.79901
6.79904
6.79908
6.79912
6.79917
6.79921
6.79924
6.9312
6.93112
6.93106
6.93101
6.93096
6.93093
6.9309
6.93088
6.93087
6.93086
6.93086
6.93086
6.93086
6.93086
6.93087
6.93088
6.93088
6.93089
6.9309
6.93091
6.93092
6.93092
6.93093
6.93093
6.93094
6.93094
6.93094
6.93095
6.93095
6.93095
6.93095
6.93095
6.93095
6.93094
6.93094
6.93094
6.93093
6.93093
6.93092
6.93092
6.93091
6.9309
6.93089
6.93088
6.93088
6.93087
6.93086
6.93086
6.93086
6.93086
6.93086
6.93087
6.93088
6.9309
6.93093
6.93096
6.93101
6.93106
6.93112
6.9312
7.04211
7.04198
7.04192
7.04186
7.04182
7.04178
7.04175
7.04174
7.04172
7.04172
7.04172
7.04172
7.04173
7.04173
7.04174
7.04175
7.04176
7.04177
7.04178
7.04179
7.0418
7.04181
7.04182
7.04182
7.04183
7.04184
7.04184
7.04184
7.04184
7.04184
7.04184
7.04184
7.04184
7.04184
7.04184
7.04183
7.04182
7.04182
7.04181
7.0418
7.04179
7.04178
7.04177
7.04176
7.04175
7.04174
7.04173
7.04173
7.04172
7.04172
7.04172
7.04172
7.04174
7.04175
7.04178
7.04182
7.04186
7.04192
7.04198
7.04211
7.13804
7.13789
7.13782
7.13776
7.13771
7.13768
7.13766
7.13764
7.13763
7.13763
7.13763
7.13764
7.13764
7.13765
7.13767
7.13768
7.13769
7.13771
7.13772
7.13773
7.13774
7.13775
7.13776
7.13777
7.13778
7.13778
7.13779
7.13779
7.13779
7.1378
7.1378
7.13779
7.13779
7.13779
7.13778
7.13778
7.13777
7.13776
7.13775
7.13774
7.13773
7.13772
7.13771
7.13769
7.13768
7.13767
7.13765
7.13764
7.13764
7.13763
7.13763
7.13763
7.13764
7.13766
7.13768
7.13771
7.13776
7.13782
7.13789
7.13804
7.22317
7.223
7.22292
7.22286
7.22282
7.22279
7.22276
7.22275
7.22274
7.22274
7.22275
7.22276
7.22277
7.22278
7.2228
7.22282
7.22283
7.22285
7.22286
7.22288
7.22289
7.22291
7.22292
7.22293
7.22294
7.22294
7.22295
7.22295
7.22296
7.22296
7.22296
7.22296
7.22295
7.22295
7.22294
7.22294
7.22293
7.22292
7.22291
7.22289
7.22288
7.22286
7.22285
7.22283
7.22282
7.2228
7.22278
7.22277
7.22276
7.22275
7.22274
7.22274
7.22275
7.22276
7.22279
7.22282
7.22286
7.22292
7.223
7.22317
7.30027
7.3001
7.30001
7.29995
7.2999
7.29987
7.29985
7.29984
7.29984
7.29984
7.29985
7.29987
7.29988
7.2999
7.29992
7.29994
7.29996
7.29998
7.3
7.30001
7.30003
7.30005
7.30006
7.30007
7.30008
7.30009
7.3001
7.3001
7.3001
7.30011
7.30011
7.3001
7.3001
7.3001
7.30009
7.30008
7.30007
7.30006
7.30005
7.30003
7.30001
7.3
7.29998
7.29996
7.29994
7.29992
7.2999
7.29988
7.29987
7.29985
7.29984
7.29984
7.29984
7.29985
7.29987
7.2999
7.29995
7.30001
7.3001
7.30027
7.37123
7.37105
7.37096
7.3709
7.37086
7.37083
7.37081
7.3708
7.3708
7.37081
7.37082
7.37084
7.37086
7.37088
7.3709
7.37093
7.37095
7.37097
7.371
7.37102
7.37104
7.37105
7.37107
7.37108
7.37109
7.3711
7.37111
7.37112
7.37112
7.37112
7.37112
7.37112
7.37112
7.37111
7.3711
7.37109
7.37108
7.37107
7.37105
7.37104
7.37102
7.371
7.37097
7.37095
7.37093
7.3709
7.37088
7.37086
7.37084
7.37082
7.37081
7.3708
7.3708
7.37081
7.37083
7.37086
7.3709
7.37096
7.37105
7.37123
7.43736
7.43718
7.43708
7.43702
7.43699
7.43696
7.43695
7.43694
7.43695
7.43696
7.43697
7.43699
7.43702
7.43704
7.43707
7.4371
7.43712
7.43715
7.43718
7.4372
7.43722
7.43724
7.43726
7.43727
7.43729
7.4373
7.43731
7.43731
7.43732
7.43732
7.43732
7.43732
7.43731
7.43731
7.4373
7.43729
7.43727
7.43726
7.43724
7.43722
7.4372
7.43718
7.43715
7.43712
7.4371
7.43707
7.43704
7.43702
7.43699
7.43697
7.43696
7.43695
7.43694
7.43695
7.43696
7.43699
7.43702
7.43708
7.43718
7.43736
7.49962
7.49944
7.49934
7.49928
7.49924
7.49922
7.49921
7.49921
7.49922
7.49923
7.49925
7.49928
7.49931
7.49934
7.49937
7.4994
7.49943
7.49946
7.49949
7.49951
7.49954
7.49956
7.49958
7.4996
7.49961
7.49963
7.49964
7.49964
7.49965
7.49965
7.49965
7.49965
7.49964
7.49964
7.49963
7.49961
7.4996
7.49958
7.49956
7.49954
7.49951
7.49949
7.49946
7.49943
7.4994
7.49937
7.49934
7.49931
7.49928
7.49925
7.49923
7.49922
7.49921
7.49921
7.49922
7.49924
7.49928
7.49934
7.49944
7.49962
7.55872
7.55854
7.55844
7.55839
7.55835
7.55833
7.55832
7.55832
7.55834
7.55836
7.55838
7.55841
7.55844
7.55848
7.55851
7.55855
7.55858
7.55862
7.55865
7.55868
7.55871
7.55873
7.55875
7.55877
7.55879
7.5588
7.55882
7.55882
7.55883
7.55883
7.55883
7.55883
7.55882
7.55882
7.5588
7.55879
7.55877
7.55875
7.55873
7.55871
7.55868
7.55865
7.55862
7.55858
7.55855
7.55851
7.55848
7.55844
7.55841
7.55838
7.55836
7.55834
7.55832
7.55832
7.55833
7.55835
7.55839
7.55844
7.55854
7.55872
7.61522
7.61505
7.61495
7.61489
7.61486
7.61484
7.61484
7.61484
7.61486
7.61488
7.61491
7.61495
7.61498
7.61502
7.61506
7.6151
7.61514
7.61518
7.61521
7.61525
7.61528
7.61531
7.61533
7.61535
7.61537
7.61539
7.6154
7.61541
7.61542
7.61542
7.61542
7.61542
7.61541
7.6154
7.61539
7.61537
7.61535
7.61533
7.61531
7.61528
7.61525
7.61521
7.61518
7.61514
7.6151
7.61506
7.61502
7.61498
7.61495
7.61491
7.61488
7.61486
7.61484
7.61484
7.61484
7.61486
7.61489
7.61495
7.61505
7.61522
7.66957
7.6694
7.6693
7.66925
7.66922
7.6692
7.6692
7.66921
7.66923
7.66926
7.66929
7.66933
7.66937
7.66942
7.66946
7.6695
7.66955
7.66959
7.66963
7.66967
7.6697
7.66973
7.66976
7.66978
7.6698
7.66982
7.66983
7.66985
7.66985
7.66986
7.66986
7.66985
7.66985
7.66983
7.66982
7.6698
7.66978
7.66976
7.66973
7.6697
7.66967
7.66963
7.66959
7.66955
7.6695
7.66946
7.66942
7.66937
7.66933
7.66929
7.66926
7.66923
7.66921
7.6692
7.6692
7.66922
7.66925
7.6693
7.6694
7.66957
7.72213
7.72196
7.72186
7.72181
7.72178
7.72176
7.72177
7.72178
7.72181
7.72184
7.72188
7.72192
7.72197
7.72202
7.72207
7.72211
7.72216
7.72221
7.72225
7.72229
7.72233
7.72236
7.72239
7.72242
7.72244
7.72246
7.72248
7.72249
7.7225
7.7225
7.7225
7.7225
7.72249
7.72248
7.72246
7.72244
7.72242
7.72239
7.72236
7.72233
7.72229
7.72225
7.72221
7.72216
7.72211
7.72207
7.72202
7.72197
7.72192
7.72188
7.72184
7.72181
7.72178
7.72177
7.72176
7.72178
7.72181
7.72186
7.72196
7.72213
7.77318
7.77302
7.77292
7.77287
7.77284
7.77283
7.77284
7.77286
7.77288
7.77292
7.77297
7.77301
7.77307
7.77312
7.77317
7.77323
7.77328
7.77333
7.77338
7.77342
7.77346
7.7735
7.77353
7.77356
7.77359
7.77361
7.77362
7.77364
7.77364
7.77365
7.77365
7.77364
7.77364
7.77362
7.77361
7.77359
7.77356
7.77353
7.7735
7.77346
7.77342
7.77338
7.77333
7.77328
7.77323
7.77317
7.77312
7.77307
7.77301
7.77297
7.77292
7.77288
7.77286
7.77284
7.77283
7.77284
7.77287
7.77292
7.77302
7.77318
7.82299
7.82283
7.82273
7.82268
7.82266
7.82265
7.82266
7.82268
7.82272
7.82276
7.82281
7.82286
7.82292
7.82298
7.82304
7.8231
7.82315
7.82321
7.82326
7.82331
7.82335
7.82339
7.82343
7.82346
7.82349
7.82351
7.82353
7.82354
7.82355
7.82355
7.82355
7.82355
7.82354
7.82353
7.82351
7.82349
7.82346
7.82343
7.82339
7.82335
7.82331
7.82326
7.82321
7.82315
7.8231
7.82304
7.82298
7.82292
7.82286
7.82281
7.82276
7.82272
7.82268
7.82266
7.82265
7.82266
7.82268
7.82273
7.82283
7.82299
7.87176
7.87161
7.87151
7.87146
7.87144
7.87144
7.87145
7.87148
7.87152
7.87157
7.87162
7.87168
7.87174
7.87181
7.87187
7.87194
7.872
7.87206
7.87211
7.87216
7.87221
7.87226
7.87229
7.87233
7.87236
7.87238
7.8724
7.87242
7.87243
7.87243
7.87243
7.87243
7.87242
7.8724
7.87238
7.87236
7.87233
7.87229
7.87226
7.87221
7.87216
7.87211
7.87206
7.872
7.87194
7.87187
7.87181
7.87174
7.87168
7.87162
7.87157
7.87152
7.87148
7.87145
7.87144
7.87144
7.87146
7.87151
7.87161
7.87176
7.91969
7.91954
7.91944
7.9194
7.91938
7.91938
7.9194
7.91943
7.91947
7.91953
7.91959
7.91965
7.91972
7.91979
7.91986
7.91993
7.91999
7.92006
7.92012
7.92017
7.92023
7.92027
7.92032
7.92035
7.92038
7.92041
7.92043
7.92045
7.92046
7.92046
7.92046
7.92046
7.92045
7.92043
7.92041
7.92038
7.92035
7.92032
7.92027
7.92023
7.92017
7.92012
7.92006
7.91999
7.91993
7.91986
7.91979
7.91972
7.91965
7.91959
7.91953
7.91947
7.91943
7.9194
7.91938
7.91938
7.9194
7.91944
7.91954
7.91969
7.96693
7.96678
7.96669
7.96664
7.96663
7.96663
7.96665
7.96669
7.96674
7.9668
7.96686
7.96694
7.96701
7.96709
7.96716
7.96724
7.96731
7.96738
7.96744
7.9675
7.96756
7.96761
7.96765
7.96769
7.96773
7.96775
7.96778
7.96779
7.96781
7.96781
7.96781
7.96781
7.96779
7.96778
7.96775
7.96773
7.96769
7.96765
7.96761
7.96756
7.9675
7.96744
7.96738
7.96731
7.96724
7.96716
7.96709
7.96701
7.96694
7.96686
7.9668
7.96674
7.96669
7.96665
7.96663
7.96663
7.96664
7.96669
7.96678
7.96693
8.01362
8.01348
8.01339
8.01335
8.01333
8.01334
8.01337
8.01341
8.01347
8.01353
8.0136
8.01368
8.01376
8.01384
8.01392
8.014
8.01408
8.01415
8.01422
8.01429
8.01435
8.0144
8.01445
8.01449
8.01453
8.01456
8.01458
8.0146
8.01461
8.01462
8.01462
8.01461
8.0146
8.01458
8.01456
8.01453
8.01449
8.01445
8.0144
8.01435
8.01429
8.01422
8.01415
8.01408
8.014
8.01392
8.01384
8.01376
8.01368
8.0136
8.01353
8.01347
8.01341
8.01337
8.01334
8.01333
8.01335
8.01339
8.01348
8.01362
8.0599
8.05977
8.05968
8.05964
8.05963
8.05964
8.05967
8.05972
8.05978
8.05985
8.05993
8.06001
8.0601
8.06019
8.06027
8.06036
8.06044
8.06052
8.0606
8.06066
8.06073
8.06079
8.06084
8.06088
8.06092
8.06095
8.06098
8.061
8.06101
8.06102
8.06102
8.06101
8.061
8.06098
8.06095
8.06092
8.06088
8.06084
8.06079
8.06073
8.06066
8.0606
8.06052
8.06044
8.06036
8.06027
8.06019
8.0601
8.06001
8.05993
8.05985
8.05978
8.05972
8.05967
8.05964
8.05963
8.05964
8.05968
8.05977
8.0599
8.10589
8.10576
8.10567
8.10563
8.10563
8.10564
8.10568
8.10573
8.1058
8.10587
8.10596
8.10605
8.10614
8.10623
8.10633
8.10642
8.10651
8.10659
8.10667
8.10675
8.10681
8.10688
8.10693
8.10698
8.10702
8.10706
8.10708
8.1071
8.10712
8.10712
8.10712
8.10712
8.1071
8.10708
8.10706
8.10702
8.10698
8.10693
8.10688
8.10681
8.10675
8.10667
8.10659
8.10651
8.10642
8.10633
8.10623
8.10614
8.10605
8.10596
8.10587
8.1058
8.10573
8.10568
8.10564
8.10563
8.10563
8.10567
8.10576
8.10589
8.15168
8.15155
8.15147
8.15143
8.15143
8.15145
8.15149
8.15155
8.15162
8.15171
8.1518
8.15189
8.15199
8.15209
8.15219
8.15229
8.15238
8.15247
8.15256
8.15264
8.15271
8.15278
8.15284
8.15289
8.15293
8.15297
8.153
8.15302
8.15303
8.15304
8.15304
8.15303
8.15302
8.153
8.15297
8.15293
8.15289
8.15284
8.15278
8.15271
8.15264
8.15256
8.15247
8.15238
8.15229
8.15219
8.15209
8.15199
8.15189
8.1518
8.15171
8.15162
8.15155
8.15149
8.15145
8.15143
8.15143
8.15147
8.15155
8.15168
8.19737
8.19726
8.19718
8.19714
8.19714
8.19717
8.19722
8.19728
8.19736
8.19745
8.19754
8.19765
8.19775
8.19786
8.19797
8.19807
8.19817
8.19827
8.19836
8.19844
8.19852
8.19859
8.19865
8.19871
8.19875
8.19879
8.19882
8.19885
8.19886
8.19887
8.19887
8.19886
8.19885
8.19882
8.19879
8.19875
8.19871
8.19865
8.19859
8.19852
8.19844
8.19836
8.19827
8.19817
8.19807
8.19797
8.19786
8.19775
8.19765
8.19754
8.19745
8.19736
8.19728
8.19722
8.19717
8.19714
8.19714
8.19718
8.19726
8.19737
8.24307
8.24296
8.24288
8.24285
8.24285
8.24288
8.24293
8.243
8.24309
8.24318
8.24329
8.2434
8.24351
8.24363
8.24374
8.24385
8.24396
8.24406
8.24416
8.24424
8.24433
8.2444
8.24447
8.24452
8.24457
8.24462
8.24465
8.24467
8.24469
8.2447
8.2447
8.24469
8.24467
8.24465
8.24462
8.24457
8.24452
8.24447
8.2444
8.24433
8.24424
8.24416
8.24406
8.24396
8.24385
8.24374
8.24363
8.24351
8.2434
8.24329
8.24318
8.24309
8.243
8.24293
8.24288
8.24285
8.24285
8.24288
8.24296
8.24307
8.28885
8.28874
8.28867
8.28864
8.28865
8.28868
8.28874
8.28881
8.2889
8.28901
8.28912
8.28924
8.28936
8.28948
8.2896
8.28972
8.28983
8.28994
8.29004
8.29013
8.29022
8.2903
8.29037
8.29043
8.29048
8.29053
8.29056
8.29059
8.29061
8.29061
8.29061
8.29061
8.29059
8.29056
8.29053
8.29048
8.29043
8.29037
8.2903
8.29022
8.29013
8.29004
8.28994
8.28983
8.28972
8.2896
8.28948
8.28936
8.28924
8.28912
8.28901
8.2889
8.28881
8.28874
8.28868
8.28865
8.28864
8.28867
8.28874
8.28885
8.33479
8.33469
8.33461
8.33459
8.3346
8.33464
8.33471
8.33479
8.33489
8.335
8.33511
8.33524
8.33537
8.3355
8.33562
8.33575
8.33587
8.33598
8.33609
8.33619
8.33628
8.33636
8.33644
8.3365
8.33656
8.33661
8.33664
8.33667
8.33669
8.3367
8.3367
8.33669
8.33667
8.33664
8.33661
8.33656
8.3365
8.33644
8.33636
8.33628
8.33619
8.33609
8.33598
8.33587
8.33575
8.33562
8.3355
8.33537
8.33524
8.33511
8.335
8.33489
8.33479
8.33471
8.33464
8.3346
8.33459
8.33461
8.33469
8.33479
8.38097
8.38087
8.3808
8.38078
8.3808
8.38084
8.38091
8.381
8.38111
8.38122
8.38135
8.38148
8.38162
8.38176
8.38189
8.38202
8.38215
8.38227
8.38238
8.38249
8.38259
8.38267
8.38275
8.38282
8.38288
8.38293
8.38297
8.383
8.38302
8.38303
8.38303
8.38302
8.383
8.38297
8.38293
8.38288
8.38282
8.38275
8.38267
8.38259
8.38249
8.38238
8.38227
8.38215
8.38202
8.38189
8.38176
8.38162
8.38148
8.38135
8.38122
8.38111
8.381
8.38091
8.38084
8.3808
8.38078
8.3808
8.38087
8.38097
8.42746
8.42737
8.42731
8.42729
8.42731
8.42736
8.42743
8.42753
8.42764
8.42777
8.4279
8.42804
8.42819
8.42833
8.42847
8.42861
8.42875
8.42888
8.429
8.42911
8.42921
8.4293
8.42938
8.42946
8.42952
8.42957
8.42961
8.42964
8.42966
8.42967
8.42967
8.42966
8.42964
8.42961
8.42957
8.42952
8.42946
8.42938
8.4293
8.42921
8.42911
8.429
8.42888
8.42875
8.42861
8.42847
8.42833
8.42819
8.42804
8.4279
8.42777
8.42764
8.42753
8.42743
8.42736
8.42731
8.42729
8.42731
8.42737
8.42746
8.47434
8.47425
8.47419
8.47418
8.4742
8.47426
8.47434
8.47444
8.47456
8.4747
8.47484
8.47499
8.47514
8.47529
8.47545
8.47559
8.47573
8.47587
8.47599
8.47611
8.47622
8.47632
8.4764
8.47648
8.47655
8.4766
8.47664
8.47668
8.4767
8.47671
8.47671
8.4767
8.47668
8.47664
8.4766
8.47655
8.47648
8.4764
8.47632
8.47622
8.47611
8.47599
8.47587
8.47573
8.47559
8.47545
8.47529
8.47514
8.47499
8.47484
8.4747
8.47456
8.47444
8.47434
8.47426
8.4742
8.47418
8.47419
8.47425
8.47434
8.52167
8.52159
8.52153
8.52152
8.52155
8.52161
8.5217
8.52181
8.52194
8.52208
8.52223
8.52239
8.52255
8.52271
8.52287
8.52303
8.52318
8.52332
8.52345
8.52357
8.52369
8.52379
8.52388
8.52396
8.52403
8.52409
8.52413
8.52417
8.52419
8.5242
8.5242
8.52419
8.52417
8.52413
8.52409
8.52403
8.52396
8.52388
8.52379
8.52369
8.52357
8.52345
8.52332
8.52318
8.52303
8.52287
8.52271
8.52255
8.52239
8.52223
8.52208
8.52194
8.52181
8.5217
8.52161
8.52155
8.52152
8.52153
8.52159
8.52167
8.56952
8.56944
8.56939
8.56938
8.56942
8.56948
8.56958
8.5697
8.56983
8.56998
8.57014
8.57031
8.57048
8.57065
8.57082
8.57098
8.57114
8.57129
8.57143
8.57156
8.57168
8.57179
8.57188
8.57197
8.57204
8.5721
8.57215
8.57218
8.57221
8.57222
8.57222
8.57221
8.57218
8.57215
8.5721
8.57204
8.57197
8.57188
8.57179
8.57168
8.57156
8.57143
8.57129
8.57114
8.57098
8.57082
8.57065
8.57048
8.57031
8.57014
8.56998
8.56983
8.5697
8.56958
8.56948
8.56942
8.56938
8.56939
8.56944
8.56952
8.61795
8.61788
8.61783
8.61783
8.61787
8.61794
8.61804
8.61817
8.61831
8.61847
8.61864
8.61882
8.619
8.61918
8.61935
8.61952
8.61969
8.61985
8.61999
8.62013
8.62026
8.62037
8.62047
8.62056
8.62063
8.6207
8.62075
8.62079
8.62081
8.62082
8.62082
8.62081
8.62079
8.62075
8.6207
8.62063
8.62056
8.62047
8.62037
8.62026
8.62013
8.61999
8.61985
8.61969
8.61952
8.61935
8.61918
8.619
8.61882
8.61864
8.61847
8.61831
8.61817
8.61804
8.61794
8.61787
8.61783
8.61783
8.61788
8.61795
8.66703
8.66696
8.66692
8.66692
8.66696
8.66705
8.66716
8.66729
8.66744
8.66761
8.66779
8.66797
8.66816
8.66835
8.66854
8.66872
8.66889
8.66906
8.66921
8.66936
8.66949
8.66961
8.66971
8.6698
8.66988
8.66995
8.67
8.67004
8.67007
8.67008
8.67008
8.67007
8.67004
8.67
8.66995
8.66988
8.6698
8.66971
8.66961
8.66949
8.66936
8.66921
8.66906
8.66889
8.66872
8.66854
8.66835
8.66816
8.66797
8.66779
8.66761
8.66744
8.66729
8.66716
8.66705
8.66696
8.66692
8.66692
8.66696
8.66703
8.71682
8.71675
8.71671
8.71672
8.71677
8.71686
8.71698
8.71712
8.71728
8.71746
8.71765
8.71785
8.71804
8.71824
8.71844
8.71863
8.71881
8.71898
8.71915
8.7193
8.71943
8.71956
8.71967
8.71977
8.71985
8.71992
8.71998
8.72002
8.72004
8.72006
8.72006
8.72004
8.72002
8.71998
8.71992
8.71985
8.71977
8.71967
8.71956
8.71943
8.7193
8.71915
8.71898
8.71881
8.71863
8.71844
8.71824
8.71804
8.71785
8.71765
8.71746
8.71728
8.71712
8.71698
8.71686
8.71677
8.71672
8.71671
8.71675
8.71682
8.76738
8.76732
8.76729
8.7673
8.76736
8.76745
8.76758
8.76773
8.7679
8.76809
8.76829
8.76849
8.7687
8.76891
8.76911
8.76931
8.7695
8.76969
8.76986
8.77001
8.77016
8.77029
8.77041
8.77051
8.77059
8.77067
8.77073
8.77077
8.7708
8.77081
8.77081
8.7708
8.77077
8.77073
8.77067
8.77059
8.77051
8.77041
8.77029
8.77016
8.77001
8.76986
8.76969
8.7695
8.76931
8.76911
8.76891
8.7687
8.76849
8.76829
8.76809
8.7679
8.76773
8.76758
8.76745
8.76736
8.7673
8.76729
8.76732
8.76738
8.81877
8.81872
8.81869
8.81871
8.81877
8.81887
8.81901
8.81917
8.81935
8.81955
8.81976
8.81997
8.82019
8.82041
8.82063
8.82084
8.82104
8.82123
8.82141
8.82157
8.82172
8.82186
8.82198
8.82209
8.82218
8.82226
8.82232
8.82236
8.82239
8.82241
8.82241
8.82239
8.82236
8.82232
8.82226
8.82218
8.82209
8.82198
8.82186
8.82172
8.82157
8.82141
8.82123
8.82104
8.82084
8.82063
8.82041
8.82019
8.81997
8.81976
8.81955
8.81935
8.81917
8.81901
8.81887
8.81877
8.81871
8.81869
8.81872
8.81877
8.87107
8.87101
8.87099
8.87102
8.87109
8.8712
8.87134
8.87151
8.8717
8.87191
8.87213
8.87236
8.87259
8.87282
8.87304
8.87326
8.87347
8.87367
8.87386
8.87403
8.87419
8.87433
8.87446
8.87457
8.87467
8.87475
8.87481
8.87486
8.87489
8.87491
8.87491
8.87489
8.87486
8.87481
8.87475
8.87467
8.87457
8.87446
8.87433
8.87419
8.87403
8.87386
8.87367
8.87347
8.87326
8.87304
8.87282
8.87259
8.87236
8.87213
8.87191
8.8717
8.87151
8.87134
8.8712
8.87109
8.87102
8.87099
8.87101
8.87107
8.92431
8.92427
8.92425
8.92428
8.92436
8.92447
8.92463
8.92481
8.92501
8.92523
8.92546
8.9257
8.92594
8.92618
8.92642
8.92665
8.92687
8.92708
8.92727
8.92745
8.92762
8.92777
8.9279
8.92802
8.92812
8.9282
8.92827
8.92832
8.92835
8.92837
8.92837
8.92835
8.92832
8.92827
8.9282
8.92812
8.92802
8.9279
8.92777
8.92762
8.92745
8.92727
8.92708
8.92687
8.92665
8.92642
8.92618
8.92594
8.9257
8.92546
8.92523
8.92501
8.92481
8.92463
8.92447
8.92436
8.92428
8.92425
8.92427
8.92431
8.97858
8.97854
8.97853
8.97856
8.97865
8.97877
8.97893
8.97912
8.97934
8.97957
8.97981
8.98006
8.98032
8.98057
8.98082
8.98106
8.98129
8.98151
8.98171
8.9819
8.98207
8.98223
8.98237
8.98249
8.9826
8.98268
8.98275
8.98281
8.98284
8.98286
8.98286
8.98284
8.98281
8.98275
8.98268
8.9826
8.98249
8.98237
8.98223
8.98207
8.9819
8.98171
8.98151
8.98129
8.98106
8.98082
8.98057
8.98032
8.98006
8.97981
8.97957
8.97934
8.97912
8.97893
8.97877
8.97865
8.97856
8.97853
8.97854
8.97858
9.03393
9.03389
9.03388
9.03393
9.03402
9.03415
9.03432
9.03452
9.03475
9.03499
9.03525
9.03551
9.03578
9.03604
9.0363
9.03655
9.0368
9.03702
9.03724
9.03743
9.03762
9.03778
9.03792
9.03805
9.03816
9.03825
9.03832
9.03838
9.03842
9.03843
9.03843
9.03842
9.03838
9.03832
9.03825
9.03816
9.03805
9.03792
9.03778
9.03762
9.03743
9.03724
9.03702
9.0368
9.03655
9.0363
9.03604
9.03578
9.03551
9.03525
9.03499
9.03475
9.03452
9.03432
9.03415
9.03402
9.03393
9.03388
9.03389
9.03393
9.09041
9.09038
9.09038
9.09043
9.09053
9.09067
9.09086
9.09107
9.0913
9.09156
9.09183
9.09211
9.09238
9.09266
9.09293
9.0932
9.09345
9.09369
9.09391
9.09412
9.09431
9.09448
9.09463
9.09476
9.09488
9.09497
9.09505
9.0951
9.09514
9.09516
9.09516
9.09514
9.0951
9.09505
9.09497
9.09488
9.09476
9.09463
9.09448
9.09431
9.09412
9.09391
9.09369
9.09345
9.0932
9.09293
9.09266
9.09238
9.09211
9.09183
9.09156
9.0913
9.09107
9.09086
9.09067
9.09053
9.09043
9.09038
9.09038
9.09041
9.14811
9.14808
9.14809
9.14814
9.14825
9.1484
9.14859
9.14882
9.14907
9.14934
9.14962
9.14991
9.1502
9.15049
9.15077
9.15105
9.15131
9.15156
9.15179
9.15201
9.15221
9.15239
9.15254
9.15268
9.1528
9.1529
9.15298
9.15304
9.15308
9.1531
9.1531
9.15308
9.15304
9.15298
9.1529
9.1528
9.15268
9.15254
9.15239
9.15221
9.15201
9.15179
9.15156
9.15131
9.15105
9.15077
9.15049
9.1502
9.14991
9.14962
9.14934
9.14907
9.14882
9.14859
9.1484
9.14825
9.14814
9.14809
9.14808
9.14811
9.20706
9.20704
9.20705
9.20712
9.20723
9.2074
9.2076
9.20784
9.2081
9.20838
9.20868
9.20898
9.20928
9.20959
9.20989
9.21017
9.21045
9.21071
9.21095
9.21118
9.21138
9.21157
9.21174
9.21188
9.212
9.21211
9.21219
9.21225
9.21229
9.21231
9.21231
9.21229
9.21225
9.21219
9.21211
9.212
9.21188
9.21174
9.21157
9.21138
9.21118
9.21095
9.21071
9.21045
9.21017
9.20989
9.20959
9.20928
9.20898
9.20868
9.20838
9.2081
9.20784
9.2076
9.2074
9.20723
9.20712
9.20705
9.20704
9.20706
9.26735
9.26733
9.26735
9.26742
9.26755
9.26772
9.26794
9.26819
9.26846
9.26876
9.26907
9.26939
9.26971
9.27002
9.27033
9.27064
9.27092
9.27119
9.27145
9.27168
9.2719
9.27209
9.27226
9.27241
9.27254
9.27265
9.27274
9.2728
9.27284
9.27287
9.27287
9.27284
9.2728
9.27274
9.27265
9.27254
9.27241
9.27226
9.27209
9.2719
9.27168
9.27145
9.27119
9.27092
9.27064
9.27033
9.27002
9.26971
9.26939
9.26907
9.26876
9.26846
9.26819
9.26794
9.26772
9.26755
9.26742
9.26735
9.26733
9.26735
9.32903
9.32902
9.32904
9.32912
9.32926
9.32944
9.32967
9.32993
9.33022
9.33053
9.33086
9.33119
9.33153
9.33186
9.33218
9.3325
9.3328
9.33308
9.33335
9.33359
9.33381
9.33402
9.3342
9.33435
9.33449
9.3346
9.33469
9.33476
9.3348
9.33482
9.33482
9.3348
9.33476
9.33469
9.3346
9.33449
9.33435
9.3342
9.33402
9.33381
9.33359
9.33335
9.33308
9.3328
9.3325
9.33218
9.33186
9.33153
9.33119
9.33086
9.33053
9.33022
9.32993
9.32967
9.32944
9.32926
9.32912
9.32904
9.32902
9.32903
9.39217
9.39216
9.39219
9.39228
9.39243
9.39262
9.39286
9.39314
9.39344
9.39377
9.39411
9.39446
9.39481
9.39516
9.3955
9.39582
9.39614
9.39643
9.39671
9.39696
9.3972
9.39741
9.39759
9.39776
9.3979
9.39802
9.39811
9.39818
9.39822
9.39825
9.39825
9.39822
9.39818
9.39811
9.39802
9.3979
9.39776
9.39759
9.39741
9.3972
9.39696
9.39671
9.39643
9.39614
9.39582
9.3955
9.39516
9.39481
9.39446
9.39411
9.39377
9.39344
9.39314
9.39286
9.39262
9.39243
9.39228
9.39219
9.39216
9.39217
9.45683
9.45683
9.45687
9.45696
9.45712
9.45733
9.45758
9.45787
9.45819
9.45853
9.45889
9.45925
9.45962
9.45998
9.46034
9.46068
9.46101
9.46132
9.4616
9.46187
9.46211
9.46233
9.46253
9.4627
9.46284
9.46296
9.46306
9.46313
9.46318
9.46321
9.46321
9.46318
9.46313
9.46306
9.46296
9.46284
9.4627
9.46253
9.46233
9.46211
9.46187
9.4616
9.46132
9.46101
9.46068
9.46034
9.45998
9.45962
9.45925
9.45889
9.45853
9.45819
9.45787
9.45758
9.45733
9.45712
9.45696
9.45687
9.45683
9.45683
9.52308
9.52308
9.52313
9.52324
9.5234
9.52362
9.52389
9.52419
9.52453
9.52489
9.52526
9.52565
9.52603
9.52641
9.52678
9.52714
9.52748
9.5278
9.5281
9.52838
9.52863
9.52886
9.52906
9.52924
9.52939
9.52952
9.52962
9.52969