/*--------------------------------*- C++ -*----------------------------------*\
| =========                 |                                                 |
| \\      /  F ield         | foam-extend: Open Source CFD                    |
|  \\    /   O peration     | Version:     4.0                                |
|   \\  /    A nd           | Web:         http://www.foam-extend.org         |
|    \\/     M anipulation  |                                                 |
\*---------------------------------------------------------------------------*/
FoamFile
{
    version     2.0;
    format      ascii;
    class       volVectorField;
    location    "22";
    object      U;
}
// * * * * * * * * * * * * * * * * * * * * * * * * * * * * * * * * * * * * * //

dimensions      [0 1 -1 0 0 0 0];

internalField   nonuniform List<vector> 
6960
(
(-3.69231e-06 -99.6262 0)
(-2.66717e-06 -99.6226 0)
(6.04179e-07 -99.6226 0)
(-8.66249e-08 -99.6226 0)
(2.21087e-07 -99.6226 0)
(2.56583e-08 -99.6226 0)
(1.07258e-07 -99.6226 0)
(3.16278e-08 -99.6226 0)
(5.425e-08 -99.6226 0)
(2.20963e-08 -99.6226 0)
(2.95483e-08 -99.6226 0)
(1.46817e-08 -99.6226 0)
(1.7172e-08 -99.6226 0)
(9.85284e-09 -99.6226 0)
(1.04993e-08 -99.6226 0)
(6.70596e-09 -99.6226 0)
(6.66576e-09 -99.6226 0)
(4.60261e-09 -99.6226 0)
(4.33957e-09 -99.6226 0)
(3.16091e-09 -99.6226 0)
(2.85963e-09 -99.6226 0)
(2.15054e-09 -99.6226 0)
(1.87545e-09 -99.6226 0)
(1.4235e-09 -99.6226 0)
(1.19049e-09 -99.6226 0)
(8.81643e-10 -99.6226 0)
(6.85309e-10 -99.6226 0)
(4.53853e-10 -99.6226 0)
(2.80268e-10 -99.6226 0)
(8.21553e-11 -99.6226 0)
(-8.18832e-11 -99.6226 0)
(-2.80382e-10 -99.6226 0)
(-4.54648e-10 -99.6226 0)
(-6.84148e-10 -99.6226 0)
(-8.81863e-10 -99.6226 0)
(-1.19137e-09 -99.6226 0)
(-1.42254e-09 -99.6226 0)
(-1.8756e-09 -99.6226 0)
(-2.15118e-09 -99.6226 0)
(-2.85832e-09 -99.6226 0)
(-3.16102e-09 -99.6226 0)
(-4.3407e-09 -99.6226 0)
(-4.60138e-09 -99.6226 0)
(-6.66548e-09 -99.6226 0)
(-6.70692e-09 -99.6226 0)
(-1.04981e-08 -99.6226 0)
(-9.85282e-09 -99.6226 0)
(-1.71723e-08 -99.6226 0)
(-1.46807e-08 -99.6226 0)
(-2.95487e-08 -99.6226 0)
(-2.20976e-08 -99.6226 0)
(-5.42503e-08 -99.6226 0)
(-3.16286e-08 -99.6226 0)
(-1.07259e-07 -99.6226 0)
(-2.56579e-08 -99.6226 0)
(-2.21087e-07 -99.6226 0)
(8.66241e-08 -99.6226 0)
(-6.04177e-07 -99.6226 0)
(2.66717e-06 -99.6226 0)
(3.69231e-06 -99.6262 0)
(9.81944e-05 -2.56218 0)
(0.000101165 -2.5584 0)
(1.73546e-06 -2.5584 0)
(-2.61588e-07 -2.5584 0)
(6.47425e-07 -2.5584 0)
(8.11768e-08 -2.5584 0)
(3.17941e-07 -2.5584 0)
(9.71276e-08 -2.5584 0)
(1.61895e-07 -2.5584 0)
(6.75332e-08 -2.5584 0)
(8.85305e-08 -2.5584 0)
(4.47608e-08 -2.5584 0)
(5.15894e-08 -2.5584 0)
(2.99801e-08 -2.5584 0)
(3.16122e-08 -2.5584 0)
(2.03731e-08 -2.5584 0)
(2.01001e-08 -2.5584 0)
(1.39725e-08 -2.5584 0)
(1.30986e-08 -2.5584 0)
(9.58704e-09 -2.5584 0)
(8.64291e-09 -2.5584 0)
(6.51678e-09 -2.5584 0)
(5.67009e-09 -2.5584 0)
(4.31634e-09 -2.5584 0)
(3.59812e-09 -2.5584 0)
(2.67132e-09 -2.5584 0)
(2.07545e-09 -2.5584 0)
(1.37271e-09 -2.5584 0)
(8.48995e-10 -2.5584 0)
(2.57942e-10 -2.5584 0)
(-2.67453e-10 -2.5584 0)
(-8.46386e-10 -2.5584 0)
(-1.35296e-09 -2.5584 0)
(-2.09412e-09 -2.5584 0)
(-2.67194e-09 -2.5584 0)
(-3.57862e-09 -2.5584 0)
(-4.33558e-09 -2.5584 0)
(-5.6705e-09 -2.5584 0)
(-6.49658e-09 -2.5584 0)
(-8.66117e-09 -2.5584 0)
(-9.58736e-09 -2.5584 0)
(-1.30798e-08 -2.5584 0)
(-1.3991e-08 -2.5584 0)
(-2.00992e-08 -2.5584 0)
(-2.03539e-08 -2.5584 0)
(-3.16308e-08 -2.5584 0)
(-2.998e-08 -2.5584 0)
(-5.15684e-08 -2.5584 0)
(-4.47798e-08 -2.5584 0)
(-8.85318e-08 -2.5584 0)
(-6.75152e-08 -2.5584 0)
(-1.61918e-07 -2.5584 0)
(-9.71297e-08 -2.5584 0)
(-3.17923e-07 -2.5584 0)
(-8.11978e-08 -2.5584 0)
(-6.47426e-07 -2.5584 0)
(2.61608e-07 -2.5584 0)
(-1.73548e-06 -2.5584 0)
(-0.000101165 -2.5584 0)
(-9.81944e-05 -2.56218 0)
(9.13336e-05 17.7663 0)
(9.60436e-05 17.765 0)
(2.67097e-06 17.765 0)
(-4.47399e-07 17.765 0)
(1.06355e-06 17.765 0)
(1.41538e-07 17.765 0)
(5.27746e-07 17.765 0)
(1.65792e-07 17.765 0)
(2.70224e-07 17.765 0)
(1.14881e-07 17.765 0)
(1.48258e-07 17.765 0)
(7.59959e-08 17.765 0)
(8.65924e-08 17.765 0)
(5.08295e-08 17.765 0)
(5.31479e-08 17.765 0)
(3.45054e-08 17.765 0)
(3.38375e-08 17.765 0)
(2.36428e-08 17.765 0)
(2.20735e-08 17.765 0)
(1.62141e-08 17.765 0)
(1.45719e-08 17.765 0)
(1.10188e-08 17.765 0)
(9.56538e-09 17.765 0)
(7.29355e-09 17.765 0)
(6.07349e-09 17.765 0)
(4.51426e-09 17.765 0)
(3.50101e-09 17.765 0)
(2.32144e-09 17.765 0)
(1.43147e-09 17.765 0)
(4.3108e-10 17.765 0)
(-4.40084e-10 17.765 0)
(-1.42909e-09 17.765 0)
(-2.30315e-09 17.765 0)
(-3.51754e-09 17.765 0)
(-4.51528e-09 17.765 0)
(-6.05557e-09 17.765 0)
(-7.311e-09 17.765 0)
(-9.56601e-09 17.765 0)
(-1.09997e-08 17.765 0)
(-1.45878e-08 17.765 0)
(-1.62146e-08 17.765 0)
(-2.20567e-08 17.765 0)
(-2.36591e-08 17.765 0)
(-3.38361e-08 17.765 0)
(-3.44878e-08 17.765 0)
(-5.31644e-08 17.765 0)
(-5.08293e-08 17.765 0)
(-8.6572e-08 17.765 0)
(-7.6013e-08 17.765 0)
(-1.4826e-07 17.765 0)
(-1.14866e-07 17.765 0)
(-2.70248e-07 17.765 0)
(-1.65796e-07 17.765 0)
(-5.2773e-07 17.765 0)
(-1.41558e-07 17.765 0)
(-1.06355e-06 17.765 0)
(4.47418e-07 17.765 0)
(-2.67098e-06 17.765 0)
(-9.60436e-05 17.765 0)
(-9.13336e-05 17.7663 0)
(3.94059e-05 6.51597 0)
(4.56848e-05 6.51406 0)
(3.43744e-06 6.51406 0)
(-6.53412e-07 6.51405 0)
(1.46863e-06 6.51405 0)
(2.06621e-07 6.51405 0)
(7.36477e-07 6.51405 0)
(2.37609e-07 6.51405 0)
(3.79193e-07 6.51405 0)
(1.64152e-07 6.51405 0)
(2.08726e-07 6.51405 0)
(1.08404e-07 6.51405 0)
(1.22185e-07 6.51405 0)
(7.24134e-08 6.51405 0)
(7.51148e-08 6.51405 0)
(4.91105e-08 6.51405 0)
(4.78839e-08 6.51405 0)
(3.36215e-08 6.51405 0)
(3.12674e-08 6.51405 0)
(2.30466e-08 6.51405 0)
(2.06515e-08 6.51405 0)
(1.56582e-08 6.51405 0)
(1.35636e-08 6.51405 0)
(1.03586e-08 6.51405 0)
(8.61669e-09 6.51405 0)
(6.41175e-09 6.51405 0)
(4.96432e-09 6.51405 0)
(3.29927e-09 6.51405 0)
(2.02893e-09 6.51405 0)
(6.0657e-10 6.51405 0)
(-6.10802e-10 6.51405 0)
(-2.02799e-09 6.51405 0)
(-3.29153e-09 6.51405 0)
(-4.96962e-09 6.51405 0)
(-6.41313e-09 6.51405 0)
(-8.60943e-09 6.51405 0)
(-1.03652e-08 6.51405 0)
(-1.35645e-08 6.51405 0)
(-1.56494e-08 6.51405 0)
(-2.0656e-08 6.51405 0)
(-2.30473e-08 6.51405 0)
(-3.12618e-08 6.51405 0)
(-3.36265e-08 6.51405 0)
(-4.78821e-08 6.51405 0)
(-4.91037e-08 6.51405 0)
(-7.512e-08 6.51405 0)
(-7.24132e-08 6.51405 0)
(-1.22174e-07 6.51405 0)
(-1.0841e-07 6.51405 0)
(-2.08729e-07 6.51405 0)
(-1.64148e-07 6.51405 0)
(-3.79208e-07 6.51405 0)
(-2.37614e-07 6.51405 0)
(-7.36473e-07 6.51405 0)
(-2.06632e-07 6.51405 0)
(-1.46863e-06 6.51405 0)
(6.53419e-07 6.51405 0)
(-3.43744e-06 6.51406 0)
(-4.56848e-05 6.51406 0)
(-3.94059e-05 6.51597 0)
(1.28408e-05 0.556818 0)
(2.05793e-05 0.556277 0)
(4.09748e-06 0.556276 0)
(-8.79419e-07 0.556272 0)
(1.86184e-06 0.556272 0)
(2.76288e-07 0.556272 0)
(9.43934e-07 0.556272 0)
(3.12557e-07 0.556272 0)
(4.88757e-07 0.556272 0)
(2.15351e-07 0.556272 0)
(2.69931e-07 0.556272 0)
(1.42e-07 0.556272 0)
(1.58371e-07 0.556272 0)
(9.47436e-08 0.556272 0)
(9.75213e-08 0.556272 0)
(6.41957e-08 0.556272 0)
(6.22455e-08 0.556272 0)
(4.39167e-08 0.556272 0)
(4.06834e-08 0.556272 0)
(3.00892e-08 0.556272 0)
(2.68866e-08 0.556272 0)
(2.04365e-08 0.556272 0)
(1.76672e-08 0.556272 0)
(1.35151e-08 0.556272 0)
(1.12277e-08 0.556272 0)
(8.36507e-09 0.556272 0)
(6.46787e-09 0.556272 0)
(4.30528e-09 0.556272 0)
(2.64269e-09 0.556272 0)
(7.89922e-10 0.556272 0)
(-7.91788e-10 0.556272 0)
(-2.6425e-09 0.556272 0)
(-4.30294e-09 0.556272 0)
(-6.46712e-09 0.556272 0)
(-8.36679e-09 0.556272 0)
(-1.12259e-08 0.556272 0)
(-1.3516e-08 0.556272 0)
(-1.76682e-08 0.556272 0)
(-2.04328e-08 0.556272 0)
(-2.68848e-08 0.556272 0)
(-3.00899e-08 0.556272 0)
(-4.06837e-08 0.556272 0)
(-4.39156e-08 0.556272 0)
(-6.22431e-08 0.556272 0)
(-6.41946e-08 0.556272 0)
(-9.75205e-08 0.556272 0)
(-9.47433e-08 0.556272 0)
(-1.58365e-07 0.556272 0)
(-1.42e-07 0.556272 0)
(-2.69935e-07 0.556272 0)
(-2.15354e-07 0.556272 0)
(-4.88769e-07 0.556272 0)
(-3.12564e-07 0.556272 0)
(-9.43937e-07 0.556272 0)
(-2.76294e-07 0.556272 0)
(-1.86184e-06 0.556272 0)
(8.79421e-07 0.556272 0)
(-4.09748e-06 0.556276 0)
(-2.05793e-05 0.556277 0)
(-1.28408e-05 0.556818 0)
(5.50009e-06 0.081987 0)
(1.45851e-05 0.0820578 0)
(4.65363e-06 0.0820577 0)
(-1.11972e-06 0.0820537 0)
(2.2424e-06 0.0820535 0)
(3.50375e-07 0.0820536 0)
(1.14991e-06 0.0820535 0)
(3.90601e-07 0.0820536 0)
(5.98865e-07 0.0820535 0)
(2.68484e-07 0.0820536 0)
(3.31865e-07 0.0820535 0)
(1.76795e-07 0.0820535 0)
(1.95156e-07 0.0820535 0)
(1.17831e-07 0.0820535 0)
(1.20374e-07 0.0820535 0)
(7.97698e-08 0.0820535 0)
(7.69281e-08 0.0820535 0)
(5.45344e-08 0.0820535 0)
(5.03263e-08 0.0820535 0)
(3.73462e-08 0.0820535 0)
(3.32805e-08 0.0820535 0)
(2.53571e-08 0.0820535 0)
(2.18786e-08 0.0820535 0)
(1.67651e-08 0.0820535 0)
(1.39083e-08 0.0820535 0)
(1.03755e-08 0.0820535 0)
(8.01247e-09 0.0820535 0)
(5.34028e-09 0.0820535 0)
(3.27305e-09 0.0820535 0)
(9.80816e-10 0.0820535 0)
(-9.82121e-10 0.0820535 0)
(-3.27308e-09 0.0820535 0)
(-5.33943e-09 0.0820535 0)
(-8.00958e-09 0.0820535 0)
(-1.03776e-08 0.0820535 0)
(-1.3908e-08 0.0820535 0)
(-1.67641e-08 0.0820535 0)
(-2.18798e-08 0.0820535 0)
(-2.53546e-08 0.0820535 0)
(-3.32764e-08 0.0820535 0)
(-3.7347e-08 0.0820535 0)
(-5.03286e-08 0.0820535 0)
(-5.45312e-08 0.0820535 0)
(-7.69253e-08 0.0820535 0)
(-7.97704e-08 0.0820535 0)
(-1.20371e-07 0.0820535 0)
(-1.17831e-07 0.0820535 0)
(-1.95151e-07 0.0820535 0)
(-1.76793e-07 0.0820535 0)
(-3.31869e-07 0.0820535 0)
(-2.68489e-07 0.0820536 0)
(-5.98877e-07 0.0820535 0)
(-3.90609e-07 0.0820536 0)
(-1.14992e-06 0.0820535 0)
(-3.5038e-07 0.0820536 0)
(-2.2424e-06 0.0820535 0)
(1.11972e-06 0.0820537 0)
(-4.65362e-06 0.0820577 0)
(-1.45851e-05 0.0820578 0)
(-5.50011e-06 0.081987 0)
(-7.54848e-07 0.392427 0)
(9.54279e-06 0.392452 0)
(5.08895e-06 0.392452 0)
(-1.37157e-06 0.392448 0)
(2.6095e-06 0.392448 0)
(4.28702e-07 0.392448 0)
(1.35419e-06 0.392448 0)
(4.71693e-07 0.392448 0)
(7.09461e-07 0.392448 0)
(3.23547e-07 0.392448 0)
(3.9452e-07 0.392448 0)
(2.12798e-07 0.392448 0)
(2.32544e-07 0.392448 0)
(1.41686e-07 0.392448 0)
(1.43679e-07 0.392448 0)
(9.58413e-08 0.392448 0)
(9.19376e-08 0.392448 0)
(6.54805e-08 0.392448 0)
(6.02012e-08 0.392448 0)
(4.48221e-08 0.392448 0)
(3.98364e-08 0.392448 0)
(3.04234e-08 0.392448 0)
(2.62003e-08 0.392448 0)
(2.01102e-08 0.392448 0)
(1.66604e-08 0.392448 0)
(1.24444e-08 0.392448 0)
(9.59868e-09 0.392448 0)
(6.40537e-09 0.392448 0)
(3.92015e-09 0.392448 0)
(1.17801e-09 0.392448 0)
(-1.17884e-09 0.392448 0)
(-3.92037e-09 0.392448 0)
(-6.40578e-09 0.392448 0)
(-9.59392e-09 0.392448 0)
(-1.24467e-08 0.392448 0)
(-1.66615e-08 0.392448 0)
(-2.01077e-08 0.392448 0)
(-2.62015e-08 0.392448 0)
(-3.04218e-08 0.392448 0)
(-3.98302e-08 0.392448 0)
(-4.4823e-08 0.392448 0)
(-6.02053e-08 0.392448 0)
(-6.54755e-08 0.392448 0)
(-9.19344e-08 0.392448 0)
(-9.58433e-08 0.392448 0)
(-1.43674e-07 0.392448 0)
(-1.41685e-07 0.392448 0)
(-2.32539e-07 0.392448 0)
(-2.12794e-07 0.392448 0)
(-3.94525e-07 0.392448 0)
(-3.23555e-07 0.392448 0)
(-7.09473e-07 0.392448 0)
(-4.71702e-07 0.392448 0)
(-1.3542e-06 0.392448 0)
(-4.28706e-07 0.392448 0)
(-2.6095e-06 0.392448 0)
(1.37157e-06 0.392448 0)
(-5.08894e-06 0.392452 0)
(-9.5428e-06 0.392452 0)
(7.54826e-07 0.392427 0)
(-9.49112e-06 0.358985 0)
(1.88186e-06 0.358924 0)
(5.40034e-06 0.358924 0)
(-1.63536e-06 0.35892 0)
(2.96235e-06 0.358919 0)
(5.11069e-07 0.35892 0)
(1.55655e-06 0.35892 0)
(5.55773e-07 0.35892 0)
(8.20483e-07 0.35892 0)
(3.80533e-07 0.35892 0)
(4.57885e-07 0.35892 0)
(2.50014e-07 0.35892 0)
(2.70538e-07 0.35892 0)
(1.66316e-07 0.35892 0)
(1.67442e-07 0.35892 0)
(1.12418e-07 0.35892 0)
(1.0728e-07 0.35892 0)
(7.67607e-08 0.35892 0)
(7.03129e-08 0.35892 0)
(5.25214e-08 0.35892 0)
(4.65575e-08 0.35892 0)
(3.56386e-08 0.35892 0)
(3.06346e-08 0.35892 0)
(2.35525e-08 0.35892 0)
(1.94859e-08 0.35892 0)
(1.45731e-08 0.35892 0)
(1.12274e-08 0.35892 0)
(7.50134e-09 0.35892 0)
(4.58435e-09 0.35892 0)
(1.38135e-09 0.35892 0)
(-1.3815e-09 0.35892 0)
(-4.58482e-09 0.35892 0)
(-7.50347e-09 0.35892 0)
(-1.12203e-08 0.35892 0)
(-1.45757e-08 0.35892 0)
(-1.94887e-08 0.35892 0)
(-2.3548e-08 0.35892 0)
(-3.0636e-08 0.35892 0)
(-3.56385e-08 0.35892 0)
(-4.65489e-08 0.35892 0)
(-5.25224e-08 0.35892 0)
(-7.03191e-08 0.35892 0)
(-7.67535e-08 0.35892 0)
(-1.07276e-07 0.35892 0)
(-1.12422e-07 0.35892 0)
(-1.67435e-07 0.35892 0)
(-1.66315e-07 0.35892 0)
(-2.70535e-07 0.35892 0)
(-2.50009e-07 0.35892 0)
(-4.57891e-07 0.35892 0)
(-3.80544e-07 0.35892 0)
(-8.20495e-07 0.35892 0)
(-5.55783e-07 0.35892 0)
(-1.55656e-06 0.35892 0)
(-5.11072e-07 0.35892 0)
(-2.96235e-06 0.358919 0)
(1.63536e-06 0.35892 0)
(-5.40033e-06 0.358924 0)
(-1.88188e-06 0.358924 0)
(9.49109e-06 0.358985 0)
(-1.8479e-05 0.226857 0)
(-6.16283e-06 0.226801 0)
(5.5932e-06 0.226802 0)
(-1.91162e-06 0.226797 0)
(3.30017e-06 0.226797 0)
(5.97261e-07 0.226797 0)
(1.75676e-06 0.226797 0)
(6.42766e-07 0.226797 0)
(9.31867e-07 0.226797 0)
(4.39427e-07 0.226797 0)
(5.21948e-07 0.226797 0)
(2.88449e-07 0.226797 0)
(3.09141e-07 0.226797 0)
(1.91729e-07 0.226797 0)
(1.9167e-07 0.226797 0)
(1.29507e-07 0.226797 0)
(1.22961e-07 0.226797 0)
(8.8381e-08 0.226797 0)
(8.06659e-08 0.226797 0)
(6.04483e-08 0.226797 0)
(5.34475e-08 0.226797 0)
(4.10059e-08 0.226797 0)
(3.51842e-08 0.226797 0)
(2.70941e-08 0.226797 0)
(2.23863e-08 0.226797 0)
(1.6763e-08 0.226797 0)
(1.28997e-08 0.226797 0)
(8.62885e-09 0.226797 0)
(5.26609e-09 0.226797 0)
(1.59116e-09 0.226797 0)
(-1.59061e-09 0.226797 0)
(-5.2668e-09 0.226797 0)
(-8.63271e-09 0.226797 0)
(-1.28902e-08 0.226797 0)
(-1.67658e-08 0.226797 0)
(-2.23909e-08 0.226797 0)
(-2.70876e-08 0.226797 0)
(-3.51857e-08 0.226797 0)
(-4.10072e-08 0.226797 0)
(-5.34365e-08 0.226797 0)
(-6.04493e-08 0.226797 0)
(-8.06743e-08 0.226797 0)
(-8.83715e-08 0.226797 0)
(-1.22957e-07 0.226797 0)
(-1.29513e-07 0.226797 0)
(-1.9166e-07 0.226797 0)
(-1.91728e-07 0.226797 0)
(-3.09139e-07 0.226797 0)
(-2.88442e-07 0.226797 0)
(-5.21955e-07 0.226797 0)
(-4.3944e-07 0.226797 0)
(-9.31879e-07 0.226797 0)
(-6.42778e-07 0.226797 0)
(-1.75677e-06 0.226797 0)
(-5.97264e-07 0.226797 0)
(-3.30017e-06 0.226797 0)
(1.91161e-06 0.226797 0)
(-5.59319e-06 0.226802 0)
(6.16282e-06 0.226801 0)
(1.84789e-05 0.226857 0)
(-2.67052e-05 0.145066 0)
(-1.35746e-05 0.145036 0)
(5.67217e-06 0.145037 0)
(-2.20002e-06 0.145033 0)
(3.62222e-06 0.145032 0)
(6.87049e-07 0.145033 0)
(1.95457e-06 0.145032 0)
(7.32586e-07 0.145033 0)
(1.04354e-06 0.145033 0)
(5.00207e-07 0.145033 0)
(5.86694e-07 0.145033 0)
(3.28102e-07 0.145033 0)
(3.48353e-07 0.145032 0)
(2.17932e-07 0.145032 0)
(2.16366e-07 0.145032 0)
(1.47114e-07 0.145032 0)
(1.38985e-07 0.145032 0)
(1.00347e-07 0.145032 0)
(9.12648e-08 0.145032 0)
(6.86071e-08 0.145032 0)
(6.05099e-08 0.145032 0)
(4.65282e-08 0.145032 0)
(3.98515e-08 0.145032 0)
(3.07372e-08 0.145032 0)
(2.53633e-08 0.145032 0)
(1.90154e-08 0.145032 0)
(1.46165e-08 0.145032 0)
(9.78855e-09 0.145032 0)
(5.9658e-09 0.145032 0)
(1.80767e-09 0.145032 0)
(-1.80649e-09 0.145032 0)
(-5.96671e-09 0.145032 0)
(-9.79399e-09 0.145032 0)
(-1.46049e-08 0.145032 0)
(-1.90183e-08 0.145032 0)
(-2.53696e-08 0.145032 0)
(-3.07289e-08 0.145032 0)
(-3.9853e-08 0.145032 0)
(-4.65308e-08 0.145032 0)
(-6.04966e-08 0.145032 0)
(-6.86081e-08 0.145032 0)
(-9.1275e-08 0.145032 0)
(-1.00335e-07 0.145032 0)
(-1.38981e-07 0.145032 0)
(-1.47122e-07 0.145032 0)
(-2.16355e-07 0.145032 0)
(-2.17931e-07 0.145032 0)
(-3.48353e-07 0.145032 0)
(-3.28093e-07 0.145033 0)
(-5.86701e-07 0.145033 0)
(-5.00223e-07 0.145033 0)
(-1.04355e-06 0.145033 0)
(-7.326e-07 0.145033 0)
(-1.95458e-06 0.145032 0)
(-6.8705e-07 0.145033 0)
(-3.62222e-06 0.145032 0)
(2.20001e-06 0.145033 0)
(-5.67216e-06 0.145037 0)
(1.35745e-05 0.145036 0)
(2.67052e-05 0.145066 0)
(-3.43765e-05 0.102155 0)
(-2.05582e-05 0.102138 0)
(5.6405e-06 0.102139 0)
(-2.49978e-06 0.102135 0)
(3.92778e-06 0.102135 0)
(7.80189e-07 0.102135 0)
(2.14972e-06 0.102135 0)
(8.2513e-07 0.102135 0)
(1.15543e-06 0.102135 0)
(5.62845e-07 0.102135 0)
(6.52103e-07 0.102135 0)
(3.68971e-07 0.102135 0)
(3.88176e-07 0.102135 0)
(2.44929e-07 0.102135 0)
(2.41537e-07 0.102135 0)
(1.65246e-07 0.102135 0)
(1.55358e-07 0.102135 0)
(1.12663e-07 0.102135 0)
(1.02114e-07 0.102135 0)
(7.70018e-08 0.102135 0)
(6.77481e-08 0.102135 0)
(5.22085e-08 0.102135 0)
(4.46391e-08 0.102135 0)
(3.4484e-08 0.102135 0)
(2.84187e-08 0.102135 0)
(2.13316e-08 0.102135 0)
(1.6379e-08 0.102135 0)
(1.09812e-08 0.102135 0)
(6.68388e-09 0.102135 0)
(2.031e-09 0.102135 0)
(-2.02925e-09 0.102135 0)
(-6.68496e-09 0.102135 0)
(-1.09881e-08 0.102135 0)
(-1.63653e-08 0.102135 0)
(-2.13346e-08 0.102135 0)
(-2.84264e-08 0.102135 0)
(-3.44739e-08 0.102135 0)
(-4.46406e-08 0.102135 0)
(-5.22123e-08 0.102135 0)
(-6.77326e-08 0.102135 0)
(-7.70027e-08 0.102135 0)
(-1.02126e-07 0.102135 0)
(-1.1265e-07 0.102135 0)
(-1.55354e-07 0.102135 0)
(-1.65255e-07 0.102135 0)
(-2.41524e-07 0.102135 0)
(-2.44928e-07 0.102135 0)
(-3.88177e-07 0.102135 0)
(-3.6896e-07 0.102135 0)
(-6.52111e-07 0.102135 0)
(-5.62864e-07 0.102135 0)
(-1.15544e-06 0.102135 0)
(-8.25145e-07 0.102135 0)
(-2.14974e-06 0.102135 0)
(-7.80189e-07 0.102135 0)
(-3.92779e-06 0.102135 0)
(2.49977e-06 0.102135 0)
(-5.64048e-06 0.102139 0)
(2.05581e-05 0.102138 0)
(3.43765e-05 0.102155 0)
(-4.17481e-05 0.0723809 0)
(-2.73667e-05 0.0723681 0)
(5.50195e-06 0.0723702 0)
(-2.81e-06 0.0723668 0)
(4.21618e-06 0.0723662 0)
(8.7643e-07 0.0723667 0)
(2.34196e-06 0.0723665 0)
(9.20281e-07 0.0723666 0)
(1.26744e-06 0.0723665 0)
(6.27306e-07 0.0723666 0)
(7.18155e-07 0.0723665 0)
(4.1105e-07 0.0723665 0)
(4.28607e-07 0.0723665 0)
(2.72724e-07 0.0723665 0)
(2.67186e-07 0.0723665 0)
(1.83908e-07 0.0723665 0)
(1.72086e-07 0.0723665 0)
(1.25335e-07 0.0723665 0)
(1.13218e-07 0.0723665 0)
(8.56363e-08 0.0723665 0)
(7.51655e-08 0.0723665 0)
(5.80499e-08 0.0723665 0)
(4.95493e-08 0.0723665 0)
(3.83364e-08 0.0723665 0)
(3.1554e-08 0.0723665 0)
(2.3713e-08 0.0723665 0)
(1.8188e-08 0.0723665 0)
(1.22075e-08 0.0723665 0)
(7.42075e-09 0.0723665 0)
(2.26128e-09 0.0723665 0)
(-2.25896e-09 0.0723665 0)
(-7.42198e-09 0.0723665 0)
(-1.22157e-08 0.0723665 0)
(-1.81724e-08 0.0723665 0)
(-2.37161e-08 0.0723665 0)
(-3.15631e-08 0.0723665 0)
(-3.83247e-08 0.0723665 0)
(-4.95508e-08 0.0723665 0)
(-5.80547e-08 0.0723665 0)
(-7.5148e-08 0.0723665 0)
(-8.56372e-08 0.0723665 0)
(-1.13231e-07 0.0723665 0)
(-1.2532e-07 0.0723665 0)
(-1.72081e-07 0.0723665 0)
(-1.83919e-07 0.0723665 0)
(-2.67171e-07 0.0723665 0)
(-2.72723e-07 0.0723665 0)
(-4.28609e-07 0.0723665 0)
(-4.11038e-07 0.0723665 0)
(-7.18164e-07 0.0723665 0)
(-6.27327e-07 0.0723666 0)
(-1.26745e-06 0.0723665 0)
(-9.20297e-07 0.0723666 0)
(-2.34198e-06 0.0723665 0)
(-8.7643e-07 0.0723667 0)
(-4.21619e-06 0.0723662 0)
(2.80998e-06 0.0723668 0)
(-5.50192e-06 0.0723702 0)
(2.73667e-05 0.0723681 0)
(4.17481e-05 0.0723809 0)
(-4.88777e-05 0.0484083 0)
(-3.40547e-05 0.0483979 0)
(5.26138e-06 0.0484006 0)
(-3.12952e-06 0.0483978 0)
(4.48679e-06 0.0483971 0)
(9.75515e-07 0.0483977 0)
(2.53101e-06 0.0483975 0)
(1.01791e-06 0.0483976 0)
(1.37948e-06 0.0483975 0)
(6.93545e-07 0.0483975 0)
(7.84825e-07 0.0483975 0)
(4.54329e-07 0.0483975 0)
(4.69643e-07 0.0483975 0)
(3.01317e-07 0.0483975 0)
(2.93317e-07 0.0483975 0)
(2.03105e-07 0.0483975 0)
(1.89172e-07 0.0483975 0)
(1.38367e-07 0.0483975 0)
(1.2458e-07 0.0483975 0)
(9.45145e-08 0.0483975 0)
(8.27653e-08 0.0483975 0)
(6.40552e-08 0.0483975 0)
(5.45847e-08 0.0483975 0)
(4.22965e-08 0.0483975 0)
(3.4771e-08 0.0483975 0)
(2.6161e-08 0.0483975 0)
(2.00446e-08 0.0483975 0)
(1.34681e-08 0.0483975 0)
(8.17683e-09 0.0483975 0)
(2.49864e-09 0.0483975 0)
(-2.49577e-09 0.0483975 0)
(-8.1782e-09 0.0483975 0)
(-1.34777e-08 0.0483975 0)
(-2.00271e-08 0.0483975 0)
(-2.61641e-08 0.0483975 0)
(-3.47814e-08 0.0483975 0)
(-4.22833e-08 0.0483975 0)
(-5.45862e-08 0.0483975 0)
(-6.40611e-08 0.0483975 0)
(-8.27459e-08 0.0483975 0)
(-9.45152e-08 0.0483975 0)
(-1.24595e-07 0.0483975 0)
(-1.3835e-07 0.0483975 0)
(-1.89167e-07 0.0483975 0)
(-2.03116e-07 0.0483975 0)
(-2.933e-07 0.0483975 0)
(-3.01316e-07 0.0483975 0)
(-4.69647e-07 0.0483975 0)
(-4.54316e-07 0.0483975 0)
(-7.84835e-07 0.0483975 0)
(-6.93569e-07 0.0483975 0)
(-1.3795e-06 0.0483975 0)
(-1.01792e-06 0.0483976 0)
(-2.53103e-06 0.0483975 0)
(-9.75514e-07 0.0483977 0)
(-4.4868e-06 0.0483971 0)
(3.12951e-06 0.0483978 0)
(-5.26136e-06 0.0484006 0)
(3.40547e-05 0.0483979 0)
(4.88777e-05 0.0484083 0)
(-5.57654e-05 0.0295585 0)
(-4.06185e-05 0.02955 0)
(4.9246e-06 0.0295532 0)
(-3.4569e-06 0.0295512 0)
(4.73904e-06 0.0295503 0)
(1.07718e-06 0.0295511 0)
(2.71659e-06 0.0295508 0)
(1.11786e-06 0.029551 0)
(1.49147e-06 0.0295509 0)
(7.6151e-07 0.0295509 0)
(8.52084e-07 0.0295509 0)
(4.98795e-07 0.0295509 0)
(5.1128e-07 0.0295508 0)
(3.30709e-07 0.0295509 0)
(3.19931e-07 0.0295508 0)
(2.22838e-07 0.0295508 0)
(2.0662e-07 0.0295508 0)
(1.51763e-07 0.0295508 0)
(1.36205e-07 0.0295508 0)
(1.0364e-07 0.0295508 0)
(9.05509e-08 0.0295508 0)
(7.02271e-08 0.0295508 0)
(5.97477e-08 0.0295508 0)
(4.63664e-08 0.0295508 0)
(3.80714e-08 0.0295508 0)
(2.86768e-08 0.0295508 0)
(2.19499e-08 0.0295508 0)
(1.47638e-08 0.0295508 0)
(8.95256e-09 0.0295508 0)
(2.7432e-09 0.0295508 0)
(-2.73983e-09 0.0295508 0)
(-8.95402e-09 0.0295508 0)
(-1.47746e-08 0.0295508 0)
(-2.19306e-08 0.0295508 0)
(-2.868e-08 0.0295508 0)
(-3.8083e-08 0.0295508 0)
(-4.63518e-08 0.0295508 0)
(-5.97492e-08 0.0295508 0)
(-7.0234e-08 0.0295508 0)
(-9.05297e-08 0.0295508 0)
(-1.0364e-07 0.0295508 0)
(-1.36222e-07 0.0295508 0)
(-1.51745e-07 0.0295508 0)
(-2.06615e-07 0.0295508 0)
(-2.22852e-07 0.0295508 0)
(-3.19913e-07 0.0295508 0)
(-3.30708e-07 0.0295509 0)
(-5.11285e-07 0.0295508 0)
(-4.9878e-07 0.0295509 0)
(-8.52094e-07 0.0295509 0)
(-7.61536e-07 0.0295509 0)
(-1.49148e-06 0.0295509 0)
(-1.11788e-06 0.029551 0)
(-2.71661e-06 0.0295508 0)
(-1.07718e-06 0.0295511 0)
(-4.73905e-06 0.0295503 0)
(3.45688e-06 0.0295512 0)
(-4.92458e-06 0.0295532 0)
(4.06184e-05 0.02955 0)
(5.57653e-05 0.0295585 0)
(-6.24261e-05 0.0150631 0)
(-4.70687e-05 0.0150553 0)
(4.49817e-06 0.0150591 0)
(-3.79024e-06 0.0150579 0)
(4.97243e-06 0.015057 0)
(1.18117e-06 0.0150579 0)
(2.8984e-06 0.0150576 0)
(1.21997e-06 0.0150578 0)
(1.60327e-06 0.0150577 0)
(8.31141e-07 0.0150577 0)
(9.19898e-07 0.0150577 0)
(5.44431e-07 0.0150577 0)
(5.5351e-07 0.0150576 0)
(3.60897e-07 0.0150576 0)
(3.47031e-07 0.0150576 0)
(2.43113e-07 0.0150576 0)
(2.24435e-07 0.0150576 0)
(1.65527e-07 0.0150576 0)
(1.48097e-07 0.0150576 0)
(1.13016e-07 0.0150576 0)
(9.85253e-08 0.0150576 0)
(7.65685e-08 0.0150576 0)
(6.50406e-08 0.0150576 0)
(5.0548e-08 0.0150576 0)
(4.14568e-08 0.0150576 0)
(3.12619e-08 0.0150576 0)
(2.39048e-08 0.0150576 0)
(1.60952e-08 0.0150576 0)
(9.74834e-09 0.0150576 0)
(2.99512e-09 0.0150576 0)
(-2.99127e-09 0.0150576 0)
(-9.74987e-09 0.0150576 0)
(-1.61072e-08 0.0150576 0)
(-2.38838e-08 0.0150576 0)
(-3.12649e-08 0.0150576 0)
(-4.14695e-08 0.0150576 0)
(-5.05321e-08 0.0150576 0)
(-6.50421e-08 0.0150576 0)
(-7.65763e-08 0.0150576 0)
(-9.85024e-08 0.0150576 0)
(-1.13016e-07 0.0150576 0)
(-1.48115e-07 0.0150576 0)
(-1.65507e-07 0.0150576 0)
(-2.2443e-07 0.0150576 0)
(-2.43127e-07 0.0150576 0)
(-3.47011e-07 0.0150576 0)
(-3.60896e-07 0.0150576 0)
(-5.53516e-07 0.0150576 0)
(-5.44414e-07 0.0150577 0)
(-9.19909e-07 0.0150577 0)
(-8.31169e-07 0.0150577 0)
(-1.60328e-06 0.0150577 0)
(-1.21999e-06 0.0150578 0)
(-2.89843e-06 0.0150576 0)
(-1.18117e-06 0.0150579 0)
(-4.97244e-06 0.015057 0)
(3.79022e-06 0.0150579 0)
(-4.49814e-06 0.0150591 0)
(4.70687e-05 0.0150553 0)
(6.24261e-05 0.0150631 0)
(-6.88855e-05 0.00374987 0)
(-5.34263e-05 0.00374164 0)
(3.98946e-06 0.00374603 0)
(-4.12724e-06 0.00374587 0)
(5.18654e-06 0.00374488 0)
(1.28722e-06 0.00374595 0)
(3.07614e-06 0.00374559 0)
(1.32407e-06 0.00374579 0)
(1.71479e-06 0.00374565 0)
(9.02367e-07 0.00374569 0)
(9.88229e-07 0.00374563 0)
(5.91212e-07 0.00374564 0)
(5.96325e-07 0.00374561 0)
(3.91877e-07 0.00374561 0)
(3.74617e-07 0.0037456 0)
(2.63928e-07 0.0037456 0)
(2.42619e-07 0.00374559 0)
(1.79661e-07 0.00374559 0)
(1.60259e-07 0.00374559 0)
(1.22646e-07 0.00374559 0)
(1.06692e-07 0.00374558 0)
(8.30819e-08 0.00374558 0)
(7.04659e-08 0.00374558 0)
(5.48433e-08 0.00374558 0)
(4.49288e-08 0.00374558 0)
(3.39174e-08 0.00374558 0)
(2.59103e-08 0.00374558 0)
(1.74631e-08 0.00374558 0)
(1.05646e-08 0.00374558 0)
(3.25453e-09 0.00374558 0)
(-3.25019e-09 0.00374558 0)
(-1.05662e-08 0.00374558 0)
(-1.74763e-08 0.00374558 0)
(-2.58877e-08 0.00374558 0)
(-3.39203e-08 0.00374558 0)
(-4.49426e-08 0.00374558 0)
(-5.48261e-08 0.00374558 0)
(-7.04672e-08 0.00374558 0)
(-8.30906e-08 0.00374558 0)
(-1.06667e-07 0.00374558 0)
(-1.22646e-07 0.00374559 0)
(-1.60278e-07 0.00374559 0)
(-1.79641e-07 0.00374559 0)
(-2.42614e-07 0.00374559 0)
(-2.63944e-07 0.0037456 0)
(-3.74595e-07 0.0037456 0)
(-3.91876e-07 0.00374561 0)
(-5.96332e-07 0.00374561 0)
(-5.91194e-07 0.00374564 0)
(-9.8824e-07 0.00374563 0)
(-9.02397e-07 0.00374569 0)
(-1.7148e-06 0.00374565 0)
(-1.32409e-06 0.00374579 0)
(-3.07617e-06 0.00374559 0)
(-1.28722e-06 0.00374595 0)
(-5.18655e-06 0.00374488 0)
(4.12722e-06 0.00374587 0)
(-3.98943e-06 0.00374603 0)
(5.34263e-05 0.00374164 0)
(6.88855e-05 0.00374987 0)
(-7.51677e-05 -0.00540291 0)
(-5.97102e-05 -0.00541262 0)
(3.40675e-06 -0.0054076 0)
(-4.46503e-06 -0.00540659 0)
(5.38103e-06 -0.00540766 0)
(1.39509e-06 -0.00540642 0)
(3.24949e-06 -0.00540682 0)
(1.42995e-06 -0.00540659 0)
(1.82588e-06 -0.00540675 0)
(9.75108e-07 -0.00540671 0)
(1.05703e-06 -0.00540678 0)
(6.39113e-07 -0.00540677 0)
(6.39711e-07 -0.0054068 0)
(4.23642e-07 -0.0054068 0)
(4.02687e-07 -0.00540681 0)
(2.85286e-07 -0.00540681 0)
(2.61175e-07 -0.00540682 0)
(1.94169e-07 -0.00540682 0)
(1.72693e-07 -0.00540682 0)
(1.32532e-07 -0.00540682 0)
(1.15052e-07 -0.00540683 0)
(8.97697e-08 -0.00540683 0)
(7.60256e-08 -0.00540683 0)
(5.92541e-08 -0.00540683 0)
(4.84891e-08 -0.00540683 0)
(3.66447e-08 -0.00540683 0)
(2.79674e-08 -0.00540683 0)
(1.88681e-08 -0.00540683 0)
(1.14017e-08 -0.00540683 0)
(3.52157e-09 -0.00540683 0)
(-3.51674e-09 -0.00540683 0)
(-1.14033e-08 -0.00540683 0)
(-1.88824e-08 -0.00540683 0)
(-2.79433e-08 -0.00540683 0)
(-3.66475e-08 -0.00540683 0)
(-4.85039e-08 -0.00540683 0)
(-5.92358e-08 -0.00540683 0)
(-7.60268e-08 -0.00540683 0)
(-8.97793e-08 -0.00540683 0)
(-1.15026e-07 -0.00540683 0)
(-1.32532e-07 -0.00540682 0)
(-1.72713e-07 -0.00540682 0)
(-1.94148e-07 -0.00540682 0)
(-2.6117e-07 -0.00540682 0)
(-2.85303e-07 -0.00540681 0)
(-4.02665e-07 -0.00540681 0)
(-4.23641e-07 -0.0054068 0)
(-6.3972e-07 -0.0054068 0)
(-6.39094e-07 -0.00540677 0)
(-1.05705e-06 -0.00540678 0)
(-9.75141e-07 -0.00540671 0)
(-1.82589e-06 -0.00540675 0)
(-1.42998e-06 -0.00540659 0)
(-3.24953e-06 -0.00540682 0)
(-1.39509e-06 -0.00540642 0)
(-5.38103e-06 -0.00540766 0)
(4.465e-06 -0.00540659 0)
(-3.40672e-06 -0.0054076 0)
(5.97102e-05 -0.00541262 0)
(7.51676e-05 -0.00540291 0)
(-8.12933e-05 -0.0132063 0)
(-6.59356e-05 -0.0132182 0)
(2.75925e-06 -0.0132125 0)
(-4.80018e-06 -0.0132102 0)
(5.55565e-06 -0.0132113 0)
(1.50455e-06 -0.0132099 0)
(3.41814e-06 -0.0132104 0)
(1.53741e-06 -0.0132101 0)
(1.93642e-06 -0.0132103 0)
(1.04928e-06 -0.0132102 0)
(1.12626e-06 -0.0132103 0)
(6.88102e-07 -0.0132103 0)
(6.83655e-07 -0.0132103 0)
(4.56182e-07 -0.0132103 0)
(4.3124e-07 -0.0132103 0)
(3.07185e-07 -0.0132103 0)
(2.80105e-07 -0.0132104 0)
(2.09053e-07 -0.0132104 0)
(1.85404e-07 -0.0132104 0)
(1.42677e-07 -0.0132104 0)
(1.23611e-07 -0.0132104 0)
(9.66342e-08 -0.0132104 0)
(8.1722e-08 -0.0132104 0)
(6.37823e-08 -0.0132104 0)
(5.21392e-08 -0.0132104 0)
(3.9445e-08 -0.0132104 0)
(3.00771e-08 -0.0132104 0)
(2.0311e-08 -0.0132104 0)
(1.22602e-08 -0.0132104 0)
(3.79633e-09 -0.0132104 0)
(-3.79106e-09 -0.0132104 0)
(-1.22618e-08 -0.0132104 0)
(-2.03263e-08 -0.0132104 0)
(-3.00515e-08 -0.0132104 0)
(-3.94475e-08 -0.0132104 0)
(-5.2155e-08 -0.0132104 0)
(-6.37628e-08 -0.0132104 0)
(-8.1723e-08 -0.0132104 0)
(-9.66447e-08 -0.0132104 0)
(-1.23583e-07 -0.0132104 0)
(-1.42677e-07 -0.0132104 0)
(-1.85425e-07 -0.0132104 0)
(-2.0903e-07 -0.0132104 0)
(-2.801e-07 -0.0132104 0)
(-3.07203e-07 -0.0132103 0)
(-4.31216e-07 -0.0132103 0)
(-4.56181e-07 -0.0132103 0)
(-6.83665e-07 -0.0132103 0)
(-6.88082e-07 -0.0132103 0)
(-1.12627e-06 -0.0132103 0)
(-1.04931e-06 -0.0132102 0)
(-1.93643e-06 -0.0132103 0)
(-1.53743e-06 -0.0132101 0)
(-3.41818e-06 -0.0132104 0)
(-1.50455e-06 -0.0132099 0)
(-5.55566e-06 -0.0132113 0)
(4.80016e-06 -0.0132102 0)
(-2.75922e-06 -0.0132125 0)
(6.59355e-05 -0.0132182 0)
(8.12932e-05 -0.0132063 0)
(-8.72798e-05 -0.020373 0)
(-7.21139e-05 -0.0203877 0)
(2.05717e-06 -0.0203813 0)
(-5.1286e-06 -0.0203775 0)
(5.71027e-06 -0.0203787 0)
(1.61538e-06 -0.0203771 0)
(3.58175e-06 -0.0203776 0)
(1.64621e-06 -0.0203773 0)
(2.04624e-06 -0.0203775 0)
(1.12477e-06 -0.0203774 0)
(1.19586e-06 -0.0203775 0)
(7.38139e-07 -0.0203775 0)
(7.28137e-07 -0.0203776 0)
(4.89485e-07 -0.0203775 0)
(4.60271e-07 -0.0203776 0)
(3.29623e-07 -0.0203776 0)
(2.99409e-07 -0.0203776 0)
(2.24312e-07 -0.0203776 0)
(1.98393e-07 -0.0203776 0)
(1.53083e-07 -0.0203776 0)
(1.32369e-07 -0.0203776 0)
(1.03678e-07 -0.0203776 0)
(8.7557e-08 -0.0203776 0)
(6.84295e-08 -0.0203776 0)
(5.58805e-08 -0.0203776 0)
(4.23194e-08 -0.0203776 0)
(3.22404e-08 -0.0203776 0)
(2.17924e-08 -0.0203776 0)
(1.31404e-08 -0.0203776 0)
(4.07899e-09 -0.0203776 0)
(-4.07325e-09 -0.0203776 0)
(-1.31419e-08 -0.0203776 0)
(-2.18087e-08 -0.0203776 0)
(-3.22134e-08 -0.0203776 0)
(-4.23217e-08 -0.0203776 0)
(-5.58973e-08 -0.0203776 0)
(-6.84089e-08 -0.0203776 0)
(-8.7558e-08 -0.0203776 0)
(-1.03689e-07 -0.0203776 0)
(-1.3234e-07 -0.0203776 0)
(-1.53083e-07 -0.0203776 0)
(-1.98414e-07 -0.0203776 0)
(-2.24288e-07 -0.0203776 0)
(-2.99404e-07 -0.0203776 0)
(-3.29642e-07 -0.0203776 0)
(-4.60246e-07 -0.0203776 0)
(-4.89484e-07 -0.0203775 0)
(-7.28148e-07 -0.0203776 0)