/*--------------------------------*- C++ -*----------------------------------*\
| =========                 |                                                 |
| \\      /  F ield         | foam-extend: Open Source CFD                    |
|  \\    /   O peration     | Version:     4.0                                |
|   \\  /    A nd           | Web:         http://www.foam-extend.org         |
|    \\/     M anipulation  |                                                 |
\*---------------------------------------------------------------------------*/
FoamFile
{
    version     2.0;
    format      ascii;
    class       volScalarField;
    location    "710";
    object      psiE;
}
// * * * * * * * * * * * * * * * * * * * * * * * * * * * * * * * * * * * * * //

dimensions      [0 0 0 0 0 0 0];

internalField   nonuniform List<scalar> 
6960
(
0.324921
0.324922
0.324924
0.324926
0.324928
0.324929
0.324931
0.324933
0.324934
0.324936
0.324937
0.324938
0.324939
0.324941
0.324942
0.324943
0.324944
0.324944
0.324945
0.324946
0.324946
0.324947
0.324948
0.324948
0.324948
0.324949
0.324949
0.324949
0.324949
0.324949
0.324949
0.324949
0.324949
0.324949
0.324949
0.324948
0.324948
0.324948
0.324947
0.324946
0.324946
0.324945
0.324944
0.324944
0.324943
0.324942
0.324941
0.324939
0.324938
0.324937
0.324936
0.324934
0.324933
0.324931
0.324929
0.324928
0.324926
0.324924
0.324922
0.324921
0.796586
0.796592
0.796598
0.796606
0.796613
0.79662
0.796627
0.796633
0.796639
0.796645
0.79665
0.796655
0.79666
0.796664
0.796669
0.796673
0.796676
0.796679
0.796682
0.796685
0.796688
0.79669
0.796692
0.796693
0.796695
0.796696
0.796697
0.796698
0.796698
0.796698
0.796698
0.796698
0.796698
0.796697
0.796696
0.796695
0.796693
0.796692
0.79669
0.796688
0.796685
0.796682
0.796679
0.796676
0.796673
0.796669
0.796664
0.79666
0.796655
0.79665
0.796645
0.796639
0.796633
0.796627
0.79662
0.796613
0.796606
0.796598
0.796592
0.796586
1.21093
1.21094
1.21095
1.21097
1.21098
1.21099
1.21101
1.21102
1.21103
1.21104
1.21105
1.21106
1.21107
1.21108
1.21109
1.2111
1.21111
1.21111
1.21112
1.21112
1.21113
1.21113
1.21114
1.21114
1.21114
1.21114
1.21115
1.21115
1.21115
1.21115
1.21115
1.21115
1.21115
1.21115
1.21114
1.21114
1.21114
1.21114
1.21113
1.21113
1.21112
1.21112
1.21111
1.21111
1.2111
1.21109
1.21108
1.21107
1.21106
1.21105
1.21104
1.21103
1.21102
1.21101
1.21099
1.21098
1.21097
1.21095
1.21094
1.21093
1.60554
1.60555
1.60558
1.6056
1.60562
1.60564
1.60567
1.60569
1.60571
1.60572
1.60574
1.60576
1.60577
1.60579
1.6058
1.60581
1.60582
1.60583
1.60584
1.60585
1.60586
1.60586
1.60587
1.60587
1.60588
1.60588
1.60588
1.60589
1.60589
1.60589
1.60589
1.60589
1.60589
1.60588
1.60588
1.60588
1.60587
1.60587
1.60586
1.60586
1.60585
1.60584
1.60583
1.60582
1.60581
1.6058
1.60579
1.60577
1.60576
1.60574
1.60572
1.60571
1.60569
1.60567
1.60564
1.60562
1.6056
1.60558
1.60555
1.60554
1.99606
1.99608
1.99611
1.99615
1.99618
1.99621
1.99624
1.99627
1.9963
1.99632
1.99634
1.99637
1.99639
1.99641
1.99643
1.99644
1.99646
1.99647
1.99649
1.9965
1.99651
1.99652
1.99652
1.99653
1.99654
1.99654
1.99655
1.99655
1.99655
1.99655
1.99655
1.99655
1.99655
1.99655
1.99654
1.99654
1.99653
1.99652
1.99652
1.99651
1.9965
1.99649
1.99647
1.99646
1.99644
1.99643
1.99641
1.99639
1.99637
1.99634
1.99632
1.9963
1.99627
1.99624
1.99621
1.99618
1.99615
1.99611
1.99608
1.99606
2.38955
2.38958
2.38962
2.38967
2.38971
2.38975
2.38979
2.38983
2.38986
2.3899
2.38993
2.38996
2.38998
2.39001
2.39003
2.39006
2.39008
2.39009
2.39011
2.39013
2.39014
2.39015
2.39016
2.39017
2.39018
2.39019
2.39019
2.3902
2.3902
2.3902
2.3902
2.3902
2.3902
2.39019
2.39019
2.39018
2.39017
2.39016
2.39015
2.39014
2.39013
2.39011
2.39009
2.39008
2.39006
2.39003
2.39001
2.38998
2.38996
2.38993
2.3899
2.38986
2.38983
2.38979
2.38975
2.38971
2.38967
2.38962
2.38958
2.38955
2.7893
2.78934
2.78939
2.78945
2.7895
2.78955
2.7896
2.78965
2.78969
2.78974
2.78977
2.78981
2.78985
2.78988
2.78991
2.78993
2.78996
2.78998
2.79
2.79002
2.79004
2.79005
2.79007
2.79008
2.79009
2.7901
2.7901
2.79011
2.79011
2.79011
2.79011
2.79011
2.79011
2.7901
2.7901
2.79009
2.79008
2.79007
2.79005
2.79004
2.79002
2.79
2.78998
2.78996
2.78993
2.78991
2.78988
2.78985
2.78981
2.78977
2.78974
2.78969
2.78965
2.7896
2.78955
2.7895
2.78945
2.78939
2.78934
2.7893
3.19687
3.19691
3.19697
3.19704
3.1971
3.19717
3.19722
3.19728
3.19733
3.19738
3.19743
3.19748
3.19752
3.19756
3.19759
3.19762
3.19765
3.19768
3.19771
3.19773
3.19775
3.19777
3.19778
3.1978
3.19781
3.19782
3.19783
3.19783
3.19784
3.19784
3.19784
3.19784
3.19783
3.19783
3.19782
3.19781
3.1978
3.19778
3.19777
3.19775
3.19773
3.19771
3.19768
3.19765
3.19762
3.19759
3.19756
3.19752
3.19748
3.19743
3.19738
3.19733
3.19728
3.19722
3.19717
3.1971
3.19704
3.19697
3.19691
3.19687
3.61297
3.61302
3.61309
3.61317
3.61325
3.61332
3.61339
3.61346
3.61352
3.61358
3.61363
3.61368
3.61373
3.61378
3.61382
3.61386
3.61389
3.61393
3.61396
3.61398
3.61401
3.61403
3.61405
3.61406
3.61408
3.61409
3.6141
3.6141
3.61411
3.61411
3.61411
3.61411
3.6141
3.6141
3.61409
3.61408
3.61406
3.61405
3.61403
3.61401
3.61398
3.61396
3.61393
3.61389
3.61386
3.61382
3.61378
3.61373
3.61368
3.61363
3.61358
3.61352
3.61346
3.61339
3.61332
3.61325
3.61317
3.61309
3.61302
3.61297
4.03796
4.03803
4.03811
4.0382
4.03828
4.03837
4.03845
4.03852
4.0386
4.03866
4.03873
4.03879
4.03884
4.03889
4.03894
4.03899
4.03903
4.03906
4.0391
4.03913
4.03916
4.03918
4.0392
4.03922
4.03924
4.03925
4.03926
4.03927
4.03927
4.03928
4.03928
4.03927
4.03927
4.03926
4.03925
4.03924
4.03922
4.0392
4.03918
4.03916
4.03913
4.0391
4.03906
4.03903
4.03899
4.03894
4.03889
4.03884
4.03879
4.03873
4.03866
4.0386
4.03852
4.03845
4.03837
4.03828
4.0382
4.03811
4.03803
4.03796
4.47202
4.47209
4.47219
4.47228
4.47238
4.47248
4.47257
4.47266
4.47274
4.47281
4.47289
4.47295
4.47302
4.47307
4.47313
4.47318
4.47323
4.47327
4.47331
4.47334
4.47337
4.4734
4.47342
4.47344
4.47346
4.47348
4.47349
4.4735
4.4735
4.47351
4.47351
4.4735
4.4735
4.47349
4.47348
4.47346
4.47344
4.47342
4.4734
4.47337
4.47334
4.47331
4.47327
4.47323
4.47318
4.47313
4.47307
4.47302
4.47295
4.47289
4.47281
4.47274
4.47266
4.47257
4.47248
4.47238
4.47228
4.47219
4.47209
4.47202
4.91522
4.9153
4.9154
4.91552
4.91563
4.91573
4.91583
4.91593
4.91602
4.91611
4.91619
4.91626
4.91633
4.9164
4.91646
4.91652
4.91657
4.91661
4.91666
4.9167
4.91673
4.91676
4.91679
4.91681
4.91683
4.91685
4.91686
4.91687
4.91688
4.91688
4.91688
4.91688
4.91687
4.91686
4.91685
4.91683
4.91681
4.91679
4.91676
4.91673
4.9167
4.91666
4.91661
4.91657
4.91652
4.91646
4.9164
4.91633
4.91626
4.91619
4.91611
4.91602
4.91593
4.91583
4.91573
4.91563
4.91552
4.9154
4.9153
4.91522
5.3676
5.36768
5.3678
5.36792
5.36804
5.36816
5.36827
5.36838
5.36848
5.36857
5.36866
5.36875
5.36882
5.3689
5.36896
5.36903
5.36908
5.36913
5.36918
5.36922
5.36926
5.3693
5.36933
5.36935
5.36938
5.36939
5.36941
5.36942
5.36943
5.36943
5.36943
5.36943
5.36942
5.36941
5.36939
5.36938
5.36935
5.36933
5.3693
5.36926
5.36922
5.36918
5.36913
5.36908
5.36903
5.36896
5.3689
5.36882
5.36875
5.36866
5.36857
5.36848
5.36838
5.36827
5.36816
5.36804
5.36792
5.3678
5.36768
5.3676
5.82914
5.82923
5.82936
5.82949
5.82962
5.82975
5.82988
5.82999
5.83011
5.83021
5.83031
5.8304
5.83048
5.83056
5.83064
5.8307
5.83077
5.83082
5.83088
5.83092
5.83097
5.831
5.83104
5.83106
5.83109
5.83111
5.83112
5.83114
5.83114
5.83115
5.83115
5.83114
5.83114
5.83112
5.83111
5.83109
5.83106
5.83104
5.831
5.83097
5.83092
5.83088
5.83082
5.83077
5.8307
5.83064
5.83056
5.83048
5.8304
5.83031
5.83021
5.83011
5.82999
5.82988
5.82975
5.82962
5.82949
5.82936
5.82923
5.82914
6.29981
6.29991
6.30005
6.3002
6.30034
6.30048
6.30062
6.30075
6.30087
6.30098
6.30109
6.30119
6.30128
6.30137
6.30145
6.30152
6.30159
6.30165
6.30171
6.30176
6.3018
6.30184
6.30188
6.30191
6.30194
6.30196
6.30198
6.30199
6.302
6.302
6.302
6.302
6.30199
6.30198
6.30196
6.30194
6.30191
6.30188
6.30184
6.3018
6.30176
6.30171
6.30165
6.30159
6.30152
6.30145
6.30137
6.30128
6.30119
6.30109
6.30098
6.30087
6.30075
6.30062
6.30048
6.30034
6.3002
6.30005
6.29991
6.29981
6.77956
6.77967
6.77982
6.77998
6.78014
6.78029
6.78044
6.78057
6.7807
6.78083
6.78094
6.78105
6.78115
6.78124
6.78133
6.78141
6.78148
6.78155
6.78161
6.78167
6.78172
6.78176
6.7818
6.78183
6.78186
6.78189
6.78191
6.78192
6.78193
6.78193
6.78193
6.78193
6.78192
6.78191
6.78189
6.78186
6.78183
6.7818
6.78176
6.78172
6.78167
6.78161
6.78155
6.78148
6.78141
6.78133
6.78124
6.78115
6.78105
6.78094
6.78083
6.7807
6.78057
6.78044
6.78029
6.78014
6.77998
6.77982
6.77967
6.77956
7.2683
7.26842
7.26858
7.26875
7.26892
7.26908
7.26924
7.26939
7.26953
7.26966
7.26978
7.2699
7.27001
7.27011
7.2702
7.27029
7.27037
7.27044
7.27051
7.27056
7.27062
7.27067
7.27071
7.27074
7.27077
7.2708
7.27082
7.27084
7.27085
7.27085
7.27085
7.27085
7.27084
7.27082
7.2708
7.27077
7.27074
7.27071
7.27067
7.27062
7.27056
7.27051
7.27044
7.27037
7.27029
7.2702
7.27011
7.27001
7.2699
7.26978
7.26966
7.26953
7.26939
7.26924
7.26908
7.26892
7.26875
7.26858
7.26842
7.2683
7.7659
7.76603
7.7662
7.76638
7.76656
7.76674
7.76691
7.76707
7.76722
7.76736
7.76749
7.76761
7.76773
7.76784
7.76794
7.76803
7.76811
7.76819
7.76826
7.76833
7.76838
7.76843
7.76848
7.76852
7.76855
7.76858
7.7686
7.76861
7.76863
7.76863
7.76863
7.76863
7.76861
7.7686
7.76858
7.76855
7.76852
7.76848
7.76843
7.76838
7.76833
7.76826
7.76819
7.76811
7.76803
7.76794
7.76784
7.76773
7.76761
7.76749
7.76736
7.76722
7.76707
7.76691
7.76674
7.76656
7.76638
7.7662
7.76603
7.7659
8.27221
8.27235
8.27253
8.27272
8.27291
8.2731
8.27328
8.27345
8.27361
8.27376
8.2739
8.27403
8.27416
8.27427
8.27438
8.27448
8.27457
8.27465
8.27472
8.27479
8.27485
8.27491
8.27496
8.275
8.27503
8.27506
8.27508
8.2751
8.27511
8.27512
8.27512
8.27511
8.2751
8.27508
8.27506
8.27503
8.275
8.27496
8.27491
8.27485
8.27479
8.27472
8.27465
8.27457
8.27448
8.27438
8.27427
8.27416
8.27403
8.2739
8.27376
8.27361
8.27345
8.27328
8.2731
8.27291
8.27272
8.27253
8.27235
8.27221
8.78703
8.78717
8.78736
8.78757
8.78777
8.78797
8.78816
8.78834
8.78851
8.78867
8.78882
8.78896
8.78909
8.78921
8.78933
8.78943
8.78953
8.78962
8.7897
8.78977
8.78983
8.78989
8.78994
8.78999
8.79002
8.79005
8.79008
8.7901
8.79011
8.79011
8.79011
8.79011
8.7901
8.79008
8.79005
8.79002
8.78999
8.78994
8.78989
8.78983
8.78977
8.7897
8.78962
8.78953
8.78943
8.78933
8.78921
8.78909
8.78896
8.78882
8.78867
8.78851
8.78834
8.78816
8.78797
8.78777
8.78757
8.78736
8.78717
8.78703
9.31011
9.31027
9.31047
9.31069
9.3109
9.31111
9.31131
9.3115
9.31168
9.31185
9.31201
9.31216
9.3123
9.31243
9.31255
9.31266
9.31276
9.31285
9.31293
9.31301
9.31308
9.31314
9.31319
9.31324
9.31328
9.31331
9.31334
9.31336
9.31337
9.31338
9.31338
9.31337
9.31336
9.31334
9.31331
9.31328
9.31324
9.31319
9.31314
9.31308
9.31301
9.31293
9.31285
9.31276
9.31266
9.31255
9.31243
9.3123
9.31216
9.31201
9.31185
9.31168
9.3115
9.31131
9.31111
9.3109
9.31069
9.31047
9.31027
9.31011
9.84118
9.84134
9.84155
9.84178
9.84201
9.84223
9.84244
9.84264
9.84283
9.84301
9.84317
9.84333
9.84348
9.84361
9.84374
9.84385
9.84396
9.84406
9.84415
9.84423
9.8443
9.84437
9.84442
9.84447
9.84451
9.84455
9.84457
9.84459
9.84461
9.84461
9.84461
9.84461
9.84459
9.84457
9.84455
9.84451
9.84447
9.84442
9.84437
9.8443
9.84423
9.84415
9.84406
9.84396
9.84385
9.84374
9.84361
9.84348
9.84333
9.84317
9.84301
9.84283
9.84264
9.84244
9.84223
9.84201
9.84178
9.84155
9.84134
9.84118
10.3799
10.38
10.3803
10.3805
10.3807
10.381
10.3812
10.3814
10.3816
10.3818
10.382
10.3821
10.3823
10.3824
10.3826
10.3827
10.3828
10.3829
10.383
10.3831
10.3832
10.3832
10.3833
10.3833
10.3834
10.3834
10.3834
10.3835
10.3835
10.3835
10.3835
10.3835
10.3835
10.3834
10.3834
10.3834
10.3833
10.3833
10.3832
10.3832
10.3831
10.383
10.3829
10.3828
10.3827
10.3826
10.3824
10.3823
10.3821
10.382
10.3818
10.3816
10.3814
10.3812
10.381
10.3807
10.3805
10.3803
10.38
10.3799
10.9258
10.926
10.9262
10.9264
10.9267
10.9269
10.9272
10.9274
10.9276
10.9278
10.928
10.9281
10.9283
10.9285
10.9286
10.9287
10.9288
10.9289
10.929
10.9291
10.9292
10.9293
10.9293
10.9294
10.9294
10.9295
10.9295
10.9295
10.9296
10.9296
10.9296
10.9296
10.9295
10.9295
10.9295
10.9294
10.9294
10.9293
10.9293
10.9292
10.9291
10.929
10.9289
10.9288
10.9287
10.9286
10.9285
10.9283
10.9281
10.928
10.9278
10.9276
10.9274
10.9272
10.9269
10.9267
10.9264
10.9262
10.926
10.9258
11.4784
11.4786
11.4789
11.4791
11.4794
11.4796
11.4799
11.4801
11.4803
11.4805
11.4807
11.4809
11.4811
11.4812
11.4814
11.4815
11.4816
11.4817
11.4818
11.4819
11.482
11.4821
11.4822
11.4822
11.4823
11.4823
11.4823
11.4824
11.4824
11.4824
11.4824
11.4824
11.4824
11.4823
11.4823
11.4823
11.4822
11.4822
11.4821
11.482
11.4819
11.4818
11.4817
11.4816
11.4815
11.4814
11.4812
11.4811
11.4809
11.4807
11.4805
11.4803
11.4801
11.4799
11.4796
11.4794
11.4791
11.4789
11.4786
11.4784
12.0373
12.0375
12.0377
12.038
12.0383
12.0385
12.0388
12.039
12.0392
12.0395
12.0397
12.0398
12.04
12.0402
12.0403
12.0405
12.0406
12.0407
12.0408
12.0409
12.041
12.0411
12.0411
12.0412
12.0413
12.0413
12.0413
12.0414
12.0414
12.0414
12.0414
12.0414
12.0414
12.0413
12.0413
12.0413
12.0412
12.0411
12.0411
12.041
12.0409
12.0408
12.0407
12.0406
12.0405
12.0403
12.0402
12.04
12.0398
12.0397
12.0395
12.0392
12.039
12.0388
12.0385
12.0383
12.038
12.0377
12.0375
12.0373
12.6016
12.6018
12.6021
12.6024
12.6027
12.6029
12.6032
12.6035
12.6037
12.6039
12.6041
12.6043
12.6045
12.6047
12.6048
12.605
12.6051
12.6052
12.6053
12.6054
12.6055
12.6056
12.6057
12.6057
12.6058
12.6058
12.6059
12.6059
12.6059
12.6059
12.6059
12.6059
12.6059
12.6059
12.6058
12.6058
12.6057
12.6057
12.6056
12.6055
12.6054
12.6053
12.6052
12.6051
12.605
12.6048
12.6047
12.6045
12.6043
12.6041
12.6039
12.6037
12.6035
12.6032
12.6029
12.6027
12.6024
12.6021
12.6018
12.6016
13.1708
13.171
13.1713
13.1716
13.1719
13.1721
13.1724
13.1727
13.1729
13.1731
13.1734
13.1736
13.1737
13.1739
13.1741
13.1742
13.1744
13.1745
13.1746
13.1747
13.1748
13.1749
13.175
13.175
13.1751
13.1751
13.1752
13.1752
13.1752
13.1752
13.1752
13.1752
13.1752
13.1752
13.1751
13.1751
13.175
13.175
13.1749
13.1748
13.1747
13.1746
13.1745
13.1744
13.1742
13.1741
13.1739
13.1737
13.1736
13.1734
13.1731
13.1729
13.1727
13.1724
13.1721
13.1719
13.1716
13.1713
13.171
13.1708
13.7439
13.7441
13.7444
13.7447
13.745
13.7453
13.7455
13.7458
13.7461
13.7463
13.7465
13.7467
13.7469
13.7471
13.7473
13.7474
13.7476
13.7477
13.7478
13.7479
13.748
13.7481
13.7482
13.7482
13.7483
13.7483
13.7484
13.7484
13.7484
13.7484
13.7484
13.7484
13.7484
13.7484
13.7483
13.7483
13.7482
13.7482
13.7481
13.748
13.7479
13.7478
13.7477
13.7476
13.7474
13.7473
13.7471
13.7469
13.7467
13.7465
13.7463
13.7461
13.7458
13.7455
13.7453
13.745
13.7447
13.7444
13.7441
13.7439
14.3199
14.3201
14.3204
14.3207
14.321
14.3213
14.3216
14.3219
14.3221
14.3224
14.3226
14.3228
14.323
14.3232
14.3234
14.3235
14.3237
14.3238
14.3239
14.324
14.3241
14.3242
14.3243
14.3244
14.3244
14.3245
14.3245
14.3245
14.3246
14.3246
14.3246
14.3246
14.3245
14.3245
14.3245
14.3244
14.3244
14.3243
14.3242
14.3241
14.324
14.3239
14.3238
14.3237
14.3235
14.3234
14.3232
14.323
14.3228
14.3226
14.3224
14.3221
14.3219
14.3216
14.3213
14.321
14.3207
14.3204
14.3201
14.3199
14.8977
14.8979
14.8982
14.8985
14.8989
14.8992
14.8994
14.8997
14.9
14.9002
14.9005
14.9007
14.9009
14.9011
14.9013
14.9014
14.9016
14.9017
14.9018
14.9019
14.902
14.9021
14.9022
14.9023
14.9023
14.9024
14.9024
14.9025
14.9025
14.9025
14.9025
14.9025
14.9025
14.9024
14.9024
14.9023
14.9023
14.9022
14.9021
14.902
14.9019
14.9018
14.9017
14.9016
14.9014
14.9013
14.9011
14.9009
14.9007
14.9005
14.9002
14.9
14.8997
14.8994
14.8992
14.8989
14.8985
14.8982
14.8979
14.8977
15.476
15.4762
15.4765
15.4768
15.4771
15.4775
15.4778
15.478
15.4783
15.4786
15.4788
15.479
15.4792
15.4794
15.4796
15.4798
15.4799
15.4801
15.4802
15.4803
15.4804
15.4805
15.4806
15.4806
15.4807
15.4808
15.4808
15.4808
15.4808
15.4809
15.4809
15.4808
15.4808
15.4808
15.4808
15.4807
15.4806
15.4806
15.4805
15.4804
15.4803
15.4802
15.4801
15.4799
15.4798
15.4796
15.4794
15.4792
15.479
15.4788
15.4786
15.4783
15.478
15.4778
15.4775
15.4771
15.4768
15.4765
15.4762
15.476
16.0532
16.0534
16.0537
16.0541
16.0544
16.0547
16.055
16.0553
16.0556
16.0558
16.0561
16.0563
16.0565
16.0567
16.0569
16.0571
16.0572
16.0574
16.0575
16.0576
16.0577
16.0578
16.0579
16.058
16.058
16.0581
16.0581
16.0581
16.0582
16.0582
16.0582
16.0582
16.0581
16.0581
16.0581
16.058
16.058
16.0579
16.0578
16.0577
16.0576
16.0575
16.0574
16.0572
16.0571
16.0569
16.0567
16.0565
16.0563
16.0561
16.0558
16.0556
16.0553
16.055
16.0547
16.0544
16.0541
16.0537
16.0534
16.0532
16.6276
16.6279
16.6282
16.6285
16.6289
16.6292
16.6295
16.6298
16.63
16.6303
16.6305
16.6308
16.631
16.6312
16.6314
16.6315
16.6317
16.6318
16.632
16.6321
16.6322
16.6323
16.6324
16.6325
16.6325
16.6326
16.6326
16.6326
16.6327
16.6327
16.6327
16.6327
16.6326
16.6326
16.6326
16.6325
16.6325
16.6324
16.6323
16.6322
16.6321
16.632
16.6318
16.6317
16.6315
16.6314
16.6312
16.631
16.6308
16.6305
16.6303
16.63
16.6298
16.6295
16.6292
16.6289
16.6285
16.6282
16.6279
16.6276
17.1973
17.1975
17.1978
17.1982
17.1985
17.1988
17.1991
17.1994
17.1997
17.1999
17.2002
17.2004
17.2006
17.2008
17.201
17.2012
17.2014
17.2015
17.2016
17.2018
17.2019
17.202
17.202
17.2021
17.2022
17.2022
17.2023
17.2023
17.2023
17.2023
17.2023
17.2023
17.2023
17.2023
17.2022
17.2022
17.2021
17.202
17.202
17.2019
17.2018
17.2016
17.2015
17.2014
17.2012
17.201
17.2008
17.2006
17.2004
17.2002
17.1999
17.1997
17.1994
17.1991
17.1988
17.1985
17.1982
17.1978
17.1975
17.1973
17.7598
17.76
17.7603
17.7606
17.761
17.7613
17.7616
17.7619
17.7622
17.7624
17.7627
17.7629
17.7631
17.7633
17.7635
17.7637
17.7638
17.764
17.7641
17.7642
17.7643
17.7644
17.7645
17.7646
17.7647
17.7647
17.7648
17.7648
17.7648
17.7648
17.7648
17.7648
17.7648
17.7648
17.7647
17.7647
17.7646
17.7645
17.7644
17.7643
17.7642
17.7641
17.764
17.7638
17.7637
17.7635
17.7633
17.7631
17.7629
17.7627
17.7624
17.7622
17.7619
17.7616
17.7613
17.761
17.7606
17.7603
17.76
17.7598
18.3123
18.3126
18.3129
18.3132
18.3136
18.3139
18.3142
18.3145
18.3147
18.315
18.3152
18.3155
18.3157
18.3159
18.3161
18.3162
18.3164
18.3165
18.3167
18.3168
18.3169
18.317
18.3171
18.3172
18.3172
18.3173
18.3173
18.3174
18.3174
18.3174
18.3174
18.3174
18.3174
18.3173
18.3173
18.3172
18.3172
18.3171
18.317
18.3169
18.3168
18.3167
18.3165
18.3164
18.3162
18.3161
18.3159
18.3157
18.3155
18.3152
18.315
18.3147
18.3145
18.3142
18.3139
18.3136
18.3132
18.3129
18.3126
18.3123
18.8518
18.8521
18.8524
18.8527
18.853
18.8533
18.8536
18.8539
18.8542
18.8544
18.8547
18.8549
18.8551
18.8553
18.8555
18.8557
18.8558
18.856
18.8561
18.8562
18.8563
18.8564
18.8565
18.8566
18.8567
18.8567
18.8568
18.8568
18.8568
18.8568
18.8568
18.8568
18.8568
18.8568
18.8567
18.8567
18.8566
18.8565
18.8564
18.8563
18.8562
18.8561
18.856
18.8558
18.8557
18.8555
18.8553
18.8551
18.8549
18.8547
18.8544
18.8542
18.8539
18.8536
18.8533
18.853
18.8527
18.8524
18.8521
18.8518
19.3744
19.3747
19.375
19.3753
19.3756
19.3759
19.3762
19.3765
19.3767
19.377
19.3772
19.3774
19.3777
19.3778
19.378
19.3782
19.3784
19.3785
19.3786
19.3787
19.3788
19.3789
19.379
19.3791
19.3792
19.3792
19.3793
19.3793
19.3793
19.3793
19.3793
19.3793
19.3793
19.3793
19.3792
19.3792
19.3791
19.379
19.3789
19.3788
19.3787
19.3786
19.3785
19.3784
19.3782
19.378
19.3778
19.3777
19.3774
19.3772
19.377
19.3767
19.3765
19.3762
19.3759
19.3756
19.3753
19.375
19.3747
19.3744
19.8757
19.8759
19.8762
19.8765
19.8768
19.8771
19.8774
19.8776
19.8779
19.8781
19.8784
19.8786
19.8788
19.879
19.8791
19.8793
19.8795
19.8796
19.8797
19.8798
19.8799
19.88
19.8801
19.8802
19.8802
19.8803
19.8803
19.8804
19.8804
19.8804
19.8804
19.8804
19.8804
19.8803
19.8803
19.8802
19.8802
19.8801
19.88
19.8799
19.8798
19.8797
19.8796
19.8795
19.8793
19.8791
19.879
19.8788
19.8786
19.8784
19.8781
19.8779
19.8776
19.8774
19.8771
19.8768
19.8765
19.8762
19.8759
19.8757
20.3503
20.3505
20.3508
20.3511
20.3513
20.3516
20.3519
20.3521
20.3524
20.3526
20.3528
20.353
20.3532
20.3534
20.3536
20.3537
20.3539
20.354
20.3541
20.3542
20.3543
20.3544
20.3545
20.3546
20.3546
20.3547
20.3547
20.3547
20.3547
20.3548
20.3548
20.3547
20.3547
20.3547
20.3547
20.3546
20.3546
20.3545
20.3544
20.3543
20.3542
20.3541
20.354
20.3539
20.3537
20.3536
20.3534
20.3532
20.353
20.3528
20.3526
20.3524
20.3521
20.3519
20.3516
20.3513
20.3511
20.3508
20.3505
20.3503
20.7921
20.7923
20.7926
20.7928
20.7931
20.7933
20.7936
20.7938
20.794
20.7943
20.7945
20.7947
20.7948
20.795
20.7952
20.7953
20.7954
20.7956
20.7957
20.7958
20.7959
20.796
20.796
20.7961
20.7961
20.7962
20.7962
20.7963
20.7963
20.7963
20.7963
20.7963
20.7963
20.7962
20.7962
20.7961
20.7961
20.796
20.796
20.7959
20.7958
20.7957
20.7956
20.7954
20.7953
20.7952
20.795
20.7948
20.7947
20.7945
20.7943
20.794
20.7938
20.7936
20.7933
20.7931
20.7928
20.7926
20.7923
20.7921
21.1945
21.1947
21.1949
21.1951
21.1954
21.1956
21.1958
21.196
21.1962
21.1964
21.1966
21.1968
21.1969
21.1971
21.1972
21.1974
21.1975
21.1976
21.1977
21.1978
21.1979
21.198
21.198
21.1981
21.1981
21.1982
21.1982
21.1982
21.1983
21.1983
21.1983
21.1983
21.1982
21.1982
21.1982
21.1981
21.1981
21.198
21.198
21.1979
21.1978
21.1977
21.1976
21.1975
21.1974
21.1972
21.1971
21.1969
21.1968
21.1966
21.1964
21.1962
21.196
21.1958
21.1956
21.1954
21.1951
21.1949
21.1947
21.1945
21.5509
21.551
21.5512
21.5514
21.5516
21.5518
21.552
21.5522
21.5524
21.5526
21.5527
21.5529
21.553
21.5531
21.5533
21.5534
21.5535
21.5536
21.5537
21.5538
21.5539
21.5539
21.554
21.554
21.5541
21.5541
21.5542
21.5542
21.5542
21.5542
21.5542
21.5542
21.5542
21.5542
21.5541
21.5541
21.554
21.554
21.5539
21.5539
21.5538
21.5537
21.5536
21.5535
21.5534
21.5533
21.5531
21.553
21.5529
21.5527
21.5526
21.5524
21.5522
21.552
21.5518
21.5516
21.5514
21.5512
21.551
21.5509
21.8564
21.8565
21.8567
21.8569
21.857
21.8572
21.8573
21.8575
21.8576
21.8578
21.8579
21.858
21.8582
21.8583
21.8584
21.8585
21.8586
21.8587
21.8587
21.8588
21.8589
21.859
21.859
21.8591
21.8591
21.8591
21.8592
21.8592
21.8592
21.8592
21.8592
21.8592
21.8592
21.8592
21.8591
21.8591
21.8591
21.859
21.859
21.8589
21.8588
21.8587
21.8587
21.8586
21.8585
21.8584
21.8583
21.8582
21.858
21.8579
21.8578
21.8576
21.8575
21.8573
21.8572
21.857
21.8569
21.8567
21.8565
21.8564
22.1094
22.1095
22.1096
22.1098
22.1099
22.11
22.1102
22.1103
22.1104
22.1105
22.1106
22.1107
22.1108
22.1109
22.111
22.1111
22.1112
22.1112
22.1113
22.1114
22.1114
22.1115
22.1115
22.1116
22.1116
22.1116
22.1117
22.1117
22.1117
22.1117
22.1117
22.1117
22.1117
22.1117
22.1116
22.1116
22.1116
22.1115
22.1115
22.1114
22.1114
22.1113
22.1112
22.1112
22.1111
22.111
22.1109
22.1108
22.1107
22.1106
22.1105
22.1104
22.1103
22.1102
22.11
22.1099
22.1098
22.1096
22.1095
22.1094
22.3128
22.3128
22.3129
22.313
22.3131
22.3132
22.3133
22.3134
22.3135
22.3136
22.3137
22.3137
22.3138
22.3139
22.314
22.314
22.3141
22.3142
22.3142
22.3143
22.3143
22.3144
22.3144
22.3145
22.3145
22.3145
22.3145
22.3146
22.3146
22.3146
22.3146
22.3146
22.3146
22.3145
22.3145
22.3145
22.3145
22.3144
22.3144
22.3143
22.3143
22.3142
22.3142
22.3141
22.314
22.314
22.3139
22.3138
22.3137
22.3137
22.3136
22.3135
22.3134
22.3133
22.3132
22.3131
22.313
22.3129
22.3128
22.3128
22.4732
22.4732
22.4733
22.4733
22.4734
22.4735
22.4735
22.4736
22.4737
22.4737
22.4738
22.4739
22.4739
22.474
22.4741
22.4741
22.4742
22.4742
22.4743
22.4743
22.4744
22.4744
22.4744
22.4745
22.4745
22.4745
22.4745
22.4745
22.4746
22.4746
22.4746
22.4746
22.4745
22.4745
22.4745
22.4745
22.4745
22.4744
22.4744
22.4744
22.4743
22.4743
22.4742
22.4742
22.4741
22.4741
22.474
22.4739
22.4739
22.4738
22.4737
22.4737
22.4736
22.4735
22.4735
22.4734
22.4733
22.4733
22.4732
22.4732
22.5993
22.5993
22.5994
22.5994
22.5995
22.5995
22.5996
22.5996
22.5997
22.5997
22.5998
22.5998
22.5999
22.5999
22.6
22.6
22.6001
22.6001
22.6002
22.6002
22.6003
22.6003
22.6003
22.6003
22.6004
22.6004
22.6004
22.6004
22.6004
22.6004
22.6004
22.6004
22.6004
22.6004
22.6004
22.6004
22.6003
22.6003
22.6003
22.6003
22.6002
22.6002
22.6001
22.6001
22.6
22.6
22.5999
22.5999
22.5998
22.5998
22.5997
22.5997
22.5996
22.5996
22.5995
22.5995
22.5994
22.5994
22.5993
22.5993
22.6998
22.6999
22.6999
22.6999
22.6999
22.7
22.7
22.7
22.7001
22.7001
22.7002
22.7002
22.7003
22.7003
22.7003
22.7004
22.7004
22.7005
22.7005
22.7006
22.7006
22.7006
22.7006
22.7007
22.7007
22.7007
22.7007
22.7007
22.7007
22.7008
22.7008
22.7007
22.7007
22.7007
22.7007
22.7007
22.7007
22.7006
22.7006
22.7006
22.7006
22.7005
22.7005
22.7004
22.7004
22.7003
22.7003
22.7003
22.7002
22.7002
22.7001
22.7001
22.7
22.7
22.7
22.6999
22.6999
22.6999
22.6999
22.6998
22.7818
22.7818
22.7818
22.7818
22.7819
22.7819
22.7819
22.7819
22.782
22.782
22.782
22.7821
22.7821
22.7822
22.7822
22.7822
22.7823
22.7823
22.7824
22.7824
22.7824
22.7825
22.7825
22.7825
22.7825
22.7825
22.7826
22.7826
22.7826
22.7826
22.7826
22.7826
22.7826
22.7826
22.7825
22.7825
22.7825
22.7825
22.7825
22.7824
22.7824
22.7824
22.7823
22.7823
22.7822
22.7822
22.7822
22.7821
22.7821
22.782
22.782
22.782
22.7819
22.7819
22.7819
22.7819
22.7818
22.7818
22.7818
22.7818
22.8504
22.8504
22.8504
22.8504
22.8504
22.8504
22.8504
22.8504
22.8505
22.8505
22.8505
22.8506
22.8506
22.8506
22.8507
22.8507
22.8507
22.8508
22.8508
22.8509
22.8509
22.8509
22.8509
22.851
22.851
22.851
22.851
22.851
22.851
22.851
22.851
22.851
22.851
22.851
22.851
22.851
22.851
22.8509
22.8509
22.8509
22.8509
22.8508
22.8508
22.8507
22.8507
22.8507
22.8506
22.8506
22.8506
22.8505
22.8505
22.8505
22.8504
22.8504
22.8504
22.8504
22.8504
22.8504
22.8504
22.8504
22.909
22.909
22.909
22.909
22.909
22.909
22.909
22.909
22.909
22.9091
22.9091
22.9091
22.9092
22.9092
22.9092
22.9093
22.9093
22.9094
22.9094
22.9094
22.9095
22.9095
22.9095
22.9095
22.9096
22.9096
22.9096
22.9096
22.9096
22.9096
22.9096
22.9096
22.9096
22.9096
22.9096
22.9096
22.9095
22.9095
22.9095
22.9095
22.9094
22.9094
22.9094
22.9093
22.9093
22.9092
22.9092
22.9092
22.9091
22.9091
22.9091
22.909
22.909
22.909
22.909
22.909
22.909
22.909
22.909
22.909
22.96
22.96
22.96
22.96
22.96
22.96
22.96
22.96
22.9601
22.9601
22.9601
22.9601
22.9602
22.9602
22.9602
22.9603
22.9603
22.9604
22.9604
22.9604
22.9605
22.9605
22.9605
22.9605
22.9606
22.9606
22.9606
22.9606
22.9606
22.9606
22.9606
22.9606
22.9606
22.9606
22.9606
22.9606
22.9605
22.9605
22.9605
22.9605
22.9604
22.9604
22.9604
22.9603
22.9603
22.9602
22.9602
22.9602
22.9601
22.9601
22.9601
22.9601
22.96
22.96
22.96
22.96
22.96
22.96
22.96
22.96
23.005
23.005
23.005
23.005
23.005
23.005
23.005
23.005
23.0051
23.0051
23.0051
23.0051
23.0052
23.0052
23.0052
23.0053
23.0053
23.0053
23.0054
23.0054
23.0055
23.0055
23.0055
23.0055
23.0056
23.0056
23.0056
23.0056
23.0056
23.0056
23.0056
23.0056
23.0056
23.0056
23.0056
23.0056
23.0055
23.0055
23.0055
23.0055
23.0054
23.0054
23.0053
23.0053
23.0053
23.0052
23.0052
23.0052
23.0051
23.0051
23.0051
23.0051
23.005
23.005
23.005
23.005
23.005
23.005
23.005
23.005
23.0451
23.0451
23.0451
23.0451
23.0451
23.0451
23.0451
23.0451
23.0451
23.0451
23.0452
23.0452
23.0452
23.0453
23.0453
23.0453
23.0454
23.0454
23.0454
23.0455
23.0455
23.0455
23.0456
23.0456
23.0456
23.0456
23.0456
23.0457
23.0457
23.0457
23.0457
23.0457
23.0457
23.0456
23.0456
23.0456
23.0456
23.0456
23.0455
23.0455
23.0455
23.0454
23.0454
23.0454
23.0453
23.0453
23.0453
23.0452
23.0452
23.0452
23.0451
23.0451
23.0451
23.0451
23.0451
23.0451
23.0451
23.0451
23.0451
23.0451
23.0811
23.081
23.081
23.081
23.081
23.081
23.081
23.081
23.081
23.081
23.0811
23.0811
23.0811
23.0812
23.0812
23.0812
23.0813
23.0813
23.0814
23.0814
23.0814
23.0815
23.0815
23.0815
23.0815
23.0816
23.0816
23.0816
23.0816
23.0816
23.0816
23.0816
23.0816
23.0816
23.0816
23.0815
23.0815
23.0815
23.0815
23.0814
23.0814
23.0814
23.0813
23.0813
23.0812
23.0812
23.0812
23.0811
23.0811
23.0811
23.081
23.081
23.081
23.081
23.081
23.081
23.081
23.081
23.081
23.0811
23.1134
23.1134
23.1134
23.1134
23.1134
23.1133
23.1133
23.1134
23.1134
23.1134
23.1134
23.1134
23.1135
23.1135
23.1136
23.1136
23.1136
23.1137
23.1137
23.1138
23.1138
23.1138
23.1139
23.1139
23.1139
23.1139
23.1139
23.1139
23.114
23.114
23.114
23.114
23.1139
23.1139
23.1139
23.1139
23.1139
23.1139
23.1138
23.1138
23.1138
23.1137
23.1137
23.1136
23.1136
23.1136
23.1135
23.1135
23.1134
23.1134
23.1134
23.1134
23.1134
23.1133
23.1133
23.1134
23.1134
23.1134
23.1134
23.1134
23.1427
23.1426
23.1426
23.1426
23.1426
23.1426
23.1426
23.1426
23.1426
23.1426
23.1427
23.1427
23.1427
23.1428
23.1428
23.1428
23.1429
23.1429
23.143
23.143
23.143
23.1431
23.1431
23.1431
23.1432
23.1432
23.1432
23.1432
23.1432
23.1432
23.1432
23.1432
23.1432
23.1432
23.1432
23.1432
23.1431
23.1431
23.1431
23.143
23.143
23.143
23.1429
23.1429
23.1428
23.1428
23.1428
23.1427
23.1427
23.1427
23.1426
23.1426
23.1426
23.1426
23.1426
23.1426
23.1426
23.1426
23.1426
23.1427
23.1691
23.1691
23.1691
23.1691
23.1691
23.1691
23.1691
23.1691
23.1691
23.1691
23.1691
23.1692
23.1692
23.1692
23.1693
23.1693
23.1694
23.1694
23.1695
23.1695
23.1695
23.1696
23.1696
23.1696
23.1696
23.1697
23.1697
23.1697
23.1697
23.1697
23.1697
23.1697
23.1697
23.1697
23.1697
23.1696
23.1696
23.1696
23.1696
23.1695
23.1695
23.1695
23.1694
23.1694
23.1693
23.1693
23.1692
23.1692
23.1692
23.1691
23.1691
23.1691
23.1691
23.1691
23.1691
23.1691
23.1691
23.1691
23.1691
23.1691
23.1931
23.1931
23.1931
23.1931
23.1931
23.1931
23.1931
23.1931
23.1931
23.1931
23.1931
23.1932
23.1932
23.1932
23.1933
23.1933
23.1934
23.1934
23.1935
23.1935
23.1935
23.1936
23.1936
23.1936
23.1937
23.1937
23.1937
23.1937
23.1937
23.1937
23.1937
23.1937
23.1937
23.1937
23.1937
23.1937
23.1936
23.1936
23.1936
23.1935
23.1935
23.1935
23.1934
23.1934
23.1933
23.1933
23.1932
23.1932
23.1932
23.1931
23.1931
23.1931
23.1931
23.1931
23.1931
23.1931
23.1931
23.1931
23.1931
23.1931
23.2149
23.2149
23.2149
23.2148
23.2148
23.2148
23.2148
23.2148
23.2148
23.2149
23.2149
23.2149
23.215
23.215
23.2151
23.2151
23.2151
23.2152
23.2152
23.2153
23.2153
23.2154
23.2154