/*--------------------------------*- C++ -*----------------------------------*\
| =========                 |                                                 |
| \\      /  F ield         | foam-extend: Open Source CFD                    |
|  \\    /   O peration     | Version:     4.0                                |
|   \\  /    A nd           | Web:         http://www.foam-extend.org         |
|    \\/     M anipulation  |                                                 |
\*---------------------------------------------------------------------------*/
FoamFile
{
    version     2.0;
    format      ascii;
    class       volScalarField;
    location    "470";
    object      cPlus;
}
// * * * * * * * * * * * * * * * * * * * * * * * * * * * * * * * * * * * * * //

dimensions      [0 0 0 0 0 0 0];

internalField   nonuniform List<scalar> 
6960
(
0.327355
0.327344
0.327331
0.327317
0.327304
0.327293
0.327282
0.327272
0.327264
0.327256
0.327249
0.327243
0.327238
0.327233
0.327229
0.327225
0.327222
0.327219
0.327217
0.327215
0.327213
0.327212
0.327211
0.32721
0.327209
0.327208
0.327208
0.327207
0.327207
0.327207
0.327207
0.327207
0.327207
0.327208
0.327208
0.327209
0.32721
0.327211
0.327212
0.327213
0.327215
0.327217
0.327219
0.327222
0.327225
0.327229
0.327233
0.327238
0.327243
0.327249
0.327256
0.327264
0.327272
0.327282
0.327293
0.327304
0.327317
0.327331
0.327344
0.327355
0.108478
0.10847
0.10846
0.108451
0.108441
0.108433
0.108425
0.108418
0.108411
0.108406
0.108401
0.108396
0.108392
0.108389
0.108386
0.108383
0.108381
0.108379
0.108377
0.108376
0.108375
0.108374
0.108373
0.108372
0.108371
0.108371
0.10837
0.10837
0.10837
0.10837
0.10837
0.10837
0.10837
0.10837
0.108371
0.108371
0.108372
0.108373
0.108374
0.108375
0.108376
0.108377
0.108379
0.108381
0.108383
0.108386
0.108389
0.108392
0.108396
0.108401
0.108406
0.108411
0.108418
0.108425
0.108433
0.108441
0.108451
0.10846
0.10847
0.108478
0.0427202
0.0427159
0.0427104
0.0427048
0.0426994
0.0426944
0.0426899
0.0426858
0.0426821
0.0426789
0.042676
0.0426734
0.0426711
0.0426692
0.0426674
0.0426659
0.0426646
0.0426634
0.0426625
0.0426616
0.0426609
0.0426603
0.0426598
0.0426593
0.042659
0.0426587
0.0426585
0.0426583
0.0426582
0.0426582
0.0426582
0.0426582
0.0426583
0.0426585
0.0426587
0.042659
0.0426593
0.0426598
0.0426603
0.0426609
0.0426616
0.0426625
0.0426634
0.0426646
0.0426659
0.0426674
0.0426692
0.0426711
0.0426734
0.042676
0.0426789
0.0426821
0.0426858
0.0426899
0.0426944
0.0426994
0.0427048
0.0427104
0.0427159
0.0427202
0.0193053
0.0193035
0.0193009
0.0192983
0.0192958
0.0192934
0.0192913
0.0192894
0.0192876
0.0192861
0.0192847
0.0192835
0.0192824
0.0192815
0.0192807
0.0192799
0.0192793
0.0192788
0.0192783
0.0192779
0.0192776
0.0192773
0.019277
0.0192768
0.0192767
0.0192765
0.0192764
0.0192764
0.0192763
0.0192763
0.0192763
0.0192763
0.0192764
0.0192764
0.0192765
0.0192767
0.0192768
0.019277
0.0192773
0.0192776
0.0192779
0.0192783
0.0192788
0.0192793
0.0192799
0.0192807
0.0192815
0.0192824
0.0192835
0.0192847
0.0192861
0.0192876
0.0192894
0.0192913
0.0192934
0.0192958
0.0192983
0.0193009
0.0193035
0.0193053
0.0105534
0.010553
0.0105523
0.0105515
0.0105507
0.0105499
0.0105492
0.0105486
0.010548
0.0105475
0.0105471
0.0105467
0.0105463
0.010546
0.0105458
0.0105455
0.0105453
0.0105452
0.010545
0.0105449
0.0105448
0.0105447
0.0105446
0.0105445
0.0105445
0.0105444
0.0105444
0.0105444
0.0105443
0.0105443
0.0105443
0.0105443
0.0105444
0.0105444
0.0105444
0.0105445
0.0105445
0.0105446
0.0105447
0.0105448
0.0105449
0.010545
0.0105452
0.0105453
0.0105455
0.0105458
0.010546
0.0105463
0.0105467
0.0105471
0.0105475
0.010548
0.0105486
0.0105492
0.0105499
0.0105507
0.0105515
0.0105523
0.010553
0.0105534
0.00728206
0.00728253
0.00728277
0.00728293
0.00728305
0.00728316
0.00728325
0.00728333
0.0072834
0.00728346
0.00728352
0.00728357
0.00728361
0.00728365
0.00728368
0.0072837
0.00728373
0.00728375
0.00728376
0.00728378
0.00728379
0.0072838
0.00728381
0.00728382
0.00728382
0.00728383
0.00728383
0.00728383
0.00728383
0.00728383
0.00728383
0.00728383
0.00728383
0.00728383
0.00728383
0.00728382
0.00728382
0.00728381
0.0072838
0.00728379
0.00728378
0.00728376
0.00728375
0.00728373
0.0072837
0.00728368
0.00728365
0.00728361
0.00728357
0.00728352
0.00728346
0.0072834
0.00728333
0.00728325
0.00728316
0.00728305
0.00728293
0.00728277
0.00728253
0.00728206
0.00609317
0.00609404
0.00609476
0.00609541
0.00609599
0.00609653
0.006097
0.00609744
0.00609782
0.00609816
0.00609847
0.00609873
0.00609897
0.00609918
0.00609936
0.00609951
0.00609965
0.00609977
0.00609987
0.00609995
0.00610003
0.00610009
0.00610014
0.00610019
0.00610022
0.00610025
0.00610027
0.00610029
0.0061003
0.00610031
0.00610031
0.0061003
0.00610029
0.00610027
0.00610025
0.00610022
0.00610019
0.00610014
0.00610009
0.00610003
0.00609995
0.00609987
0.00609977
0.00609965
0.00609951
0.00609936
0.00609918
0.00609897
0.00609873
0.00609847
0.00609816
0.00609782
0.00609744
0.006097
0.00609653
0.00609599
0.00609541
0.00609476
0.00609404
0.00609317
0.00568937
0.00569044
0.00569138
0.00569226
0.00569306
0.00569379
0.00569445
0.00569505
0.00569558
0.00569606
0.00569648
0.00569685
0.00569717
0.00569746
0.00569771
0.00569793
0.00569812
0.00569828
0.00569842
0.00569854
0.00569864
0.00569873
0.00569881
0.00569887
0.00569892
0.00569896
0.00569899
0.00569901
0.00569903
0.00569903
0.00569903
0.00569903
0.00569901
0.00569899
0.00569896
0.00569892
0.00569887
0.00569881
0.00569873
0.00569864
0.00569854
0.00569842
0.00569828
0.00569812
0.00569793
0.00569771
0.00569746
0.00569717
0.00569685
0.00569648
0.00569606
0.00569558
0.00569505
0.00569445
0.00569379
0.00569306
0.00569226
0.00569138
0.00569044
0.00568937
0.00557701
0.00557817
0.00557923
0.00558021
0.00558111
0.00558193
0.00558268
0.00558335
0.00558395
0.00558449
0.00558496
0.00558538
0.00558575
0.00558607
0.00558636
0.0055866
0.00558682
0.005587
0.00558716
0.0055873
0.00558741
0.00558751
0.0055876
0.00558767
0.00558772
0.00558777
0.0055878
0.00558783
0.00558785
0.00558785
0.00558785
0.00558785
0.00558783
0.0055878
0.00558777
0.00558772
0.00558767
0.0055876
0.00558751
0.00558741
0.0055873
0.00558716
0.005587
0.00558682
0.0055866
0.00558636
0.00558607
0.00558575
0.00558538
0.00558496
0.00558449
0.00558395
0.00558335
0.00558268
0.00558193
0.00558111
0.00558021
0.00557923
0.00557817
0.00557701
0.00557159
0.0055728
0.00557391
0.00557494
0.00557589
0.00557676
0.00557755
0.00557826
0.00557889
0.00557946
0.00557996
0.0055804
0.00558079
0.00558114
0.00558143
0.00558169
0.00558192
0.00558212
0.00558228
0.00558243
0.00558255
0.00558266
0.00558274
0.00558282
0.00558288
0.00558293
0.00558296
0.00558299
0.00558301
0.00558302
0.00558302
0.00558301
0.00558299
0.00558296
0.00558293
0.00558288
0.00558282
0.00558274
0.00558266
0.00558255
0.00558243
0.00558228
0.00558212
0.00558192
0.00558169
0.00558143
0.00558114
0.00558079
0.0055804
0.00557996
0.00557946
0.00557889
0.00557826
0.00557755
0.00557676
0.00557589
0.00557494
0.00557391
0.0055728
0.00557159
0.00560584
0.00560708
0.00560822
0.00560928
0.00561026
0.00561116
0.00561197
0.0056127
0.00561335
0.00561394
0.00561445
0.00561491
0.00561531
0.00561566
0.00561597
0.00561624
0.00561647
0.00561667
0.00561685
0.005617
0.00561712
0.00561723
0.00561732
0.0056174
0.00561746
0.00561751
0.00561755
0.00561758
0.0056176
0.00561761
0.00561761
0.0056176
0.00561758
0.00561755
0.00561751
0.00561746
0.0056174
0.00561732
0.00561723
0.00561712
0.005617
0.00561685
0.00561667
0.00561647
0.00561624
0.00561597
0.00561566
0.00561531
0.00561491
0.00561445
0.00561394
0.00561335
0.0056127
0.00561197
0.00561116
0.00561026
0.00560928
0.00560822
0.00560708
0.00560584
0.00565597
0.00565723
0.0056584
0.00565949
0.00566049
0.0056614
0.00566223
0.00566298
0.00566365
0.00566424
0.00566477
0.00566524
0.00566565
0.00566601
0.00566632
0.0056666
0.00566684
0.00566704
0.00566722
0.00566737
0.0056675
0.00566761
0.00566771
0.00566778
0.00566785
0.0056679
0.00566794
0.00566797
0.00566798
0.00566799
0.00566799
0.00566798
0.00566797
0.00566794
0.0056679
0.00566785
0.00566778
0.00566771
0.00566761
0.0056675
0.00566737
0.00566722
0.00566704
0.00566684
0.0056666
0.00566632
0.00566601
0.00566565
0.00566524
0.00566477
0.00566424
0.00566365
0.00566298
0.00566223
0.0056614
0.00566049
0.00565949
0.0056584
0.00565723
0.00565597
0.00571395
0.00571524
0.00571643
0.00571753
0.00571855
0.00571949
0.00572033
0.00572109
0.00572177
0.00572238
0.00572292
0.00572339
0.00572381
0.00572418
0.0057245
0.00572478
0.00572502
0.00572523
0.00572542
0.00572557
0.0057257
0.00572582
0.00572591
0.00572599
0.00572606
0.00572611
0.00572615
0.00572618
0.0057262
0.00572621
0.00572621
0.0057262
0.00572618
0.00572615
0.00572611
0.00572606
0.00572599
0.00572591
0.00572582
0.0057257
0.00572557
0.00572542
0.00572523
0.00572502
0.00572478
0.0057245
0.00572418
0.00572381
0.00572339
0.00572292
0.00572238
0.00572177
0.00572109
0.00572033
0.00571949
0.00571855
0.00571753
0.00571643
0.00571524
0.00571395
0.0057773
0.00577862
0.00577982
0.00578095
0.00578199
0.00578294
0.0057838
0.00578458
0.00578527
0.00578589
0.00578644
0.00578692
0.00578735
0.00578772
0.00578805
0.00578834
0.00578858
0.0057888
0.00578898
0.00578914
0.00578928
0.00578939
0.00578949
0.00578957
0.00578964
0.00578969
0.00578973
0.00578976
0.00578978
0.00578979
0.00578979
0.00578978
0.00578976
0.00578973
0.00578969
0.00578964
0.00578957
0.00578949
0.00578939
0.00578928
0.00578914
0.00578898
0.0057888
0.00578858
0.00578834
0.00578805
0.00578772
0.00578735
0.00578692
0.00578644
0.00578589
0.00578527
0.00578458
0.0057838
0.00578294
0.00578199
0.00578095
0.00577982
0.00577862
0.0057773
0.00584547
0.00584682
0.00584805
0.0058492
0.00585026
0.00585123
0.0058521
0.00585289
0.0058536
0.00585423
0.00585479
0.00585529
0.00585572
0.0058561
0.00585644
0.00585673
0.00585698
0.0058572
0.00585739
0.00585755
0.00585769
0.0058578
0.0058579
0.00585799
0.00585805
0.00585811
0.00585815
0.00585818
0.0058582
0.00585821
0.00585821
0.0058582
0.00585818
0.00585815
0.00585811
0.00585805
0.00585799
0.0058579
0.0058578
0.00585769
0.00585755
0.00585739
0.0058572
0.00585698
0.00585673
0.00585644
0.0058561
0.00585572
0.00585529
0.00585479
0.00585423
0.0058536
0.00585289
0.0058521
0.00585123
0.00585026
0.0058492
0.00584805
0.00584682
0.00584547
0.0059186
0.00591997
0.00592123
0.0059224
0.00592349
0.00592447
0.00592537
0.00592618
0.0059269
0.00592754
0.00592811
0.00592862
0.00592906
0.00592945
0.00592979
0.00593009
0.00593035
0.00593057
0.00593076
0.00593093
0.00593107
0.00593119
0.00593129
0.00593138
0.00593144
0.0059315
0.00593154
0.00593157
0.00593159
0.00593161
0.00593161
0.00593159
0.00593157
0.00593154
0.0059315
0.00593144
0.00593138
0.00593129
0.00593119
0.00593107
0.00593093
0.00593076
0.00593057
0.00593035
0.00593009
0.00592979
0.00592945
0.00592906
0.00592862
0.00592811
0.00592754
0.0059269
0.00592618
0.00592537
0.00592447
0.00592349
0.0059224
0.00592123
0.00591997
0.0059186
0.00599708
0.00599849
0.00599977
0.00600097
0.00600208
0.00600309
0.006004
0.00600483
0.00600556
0.00600622
0.0060068
0.00600732
0.00600777
0.00600817
0.00600852
0.00600883
0.00600909
0.00600932
0.00600952
0.00600968
0.00600983
0.00600995
0.00601005
0.00601014
0.00601021
0.00601027
0.00601031
0.00601034
0.00601036
0.00601038
0.00601038
0.00601036
0.00601034
0.00601031
0.00601027
0.00601021
0.00601014
0.00601005
0.00600995
0.00600983
0.00600968
0.00600952
0.00600932
0.00600909
0.00600883
0.00600852
0.00600817
0.00600777
0.00600732
0.0060068
0.00600622
0.00600556
0.00600483
0.006004
0.00600309
0.00600208
0.00600097
0.00599977
0.00599849
0.00599708
0.00608145
0.00608289
0.0060842
0.00608543
0.00608656
0.00608759
0.00608853
0.00608937
0.00609013
0.0060908
0.0060914
0.00609193
0.00609239
0.0060928
0.00609316
0.00609347
0.00609374
0.00609397
0.00609417
0.00609435
0.00609449
0.00609462
0.00609473
0.00609481
0.00609489
0.00609494
0.00609499
0.00609502
0.00609504
0.00609505
0.00609505
0.00609504
0.00609502
0.00609499
0.00609494
0.00609489
0.00609481
0.00609473
0.00609462
0.00609449
0.00609435
0.00609417
0.00609397
0.00609374
0.00609347
0.00609316
0.0060928
0.00609239
0.00609193
0.0060914
0.0060908
0.00609013
0.00608937
0.00608853
0.00608759
0.00608656
0.00608543
0.0060842
0.00608289
0.00608145
0.00617233
0.00617381
0.00617516
0.00617641
0.00617757
0.00617863
0.00617959
0.00618045
0.00618123
0.00618192
0.00618253
0.00618307
0.00618355
0.00618397
0.00618433
0.00618465
0.00618493
0.00618517
0.00618538
0.00618555
0.00618571
0.00618584
0.00618594
0.00618603
0.00618611
0.00618617
0.00618621
0.00618625
0.00618627
0.00618628
0.00618628
0.00618627
0.00618625
0.00618621
0.00618617
0.00618611
0.00618603
0.00618594
0.00618584
0.00618571
0.00618555
0.00618538
0.00618517
0.00618493
0.00618465
0.00618433
0.00618397
0.00618355
0.00618307
0.00618253
0.00618192
0.00618123
0.00618045
0.00617959
0.00617863
0.00617757
0.00617641
0.00617516
0.00617381
0.00617233
0.00627047
0.00627199
0.00627337
0.00627466
0.00627586
0.00627694
0.00627793
0.00627881
0.00627961
0.00628032
0.00628095
0.0062815
0.00628199
0.00628242
0.0062828
0.00628313
0.00628341
0.00628366
0.00628387
0.00628405
0.00628421
0.00628434
0.00628445
0.00628455
0.00628462
0.00628468
0.00628473
0.00628477
0.00628479
0.0062848
0.0062848
0.00628479
0.00628477
0.00628473
0.00628468
0.00628462
0.00628455
0.00628445
0.00628434
0.00628421
0.00628405
0.00628387
0.00628366
0.00628341
0.00628313
0.0062828
0.00628242
0.00628199
0.0062815
0.00628095
0.00628032
0.00627961
0.00627881
0.00627793
0.00627694
0.00627586
0.00627466
0.00627337
0.00627199
0.00627047
0.00637674
0.0063783
0.00637973
0.00638105
0.00638228
0.0063834
0.00638441
0.00638532
0.00638614
0.00638687
0.00638752
0.00638809
0.00638859
0.00638903
0.00638942
0.00638976
0.00639005
0.00639031
0.00639053
0.00639071
0.00639087
0.00639101
0.00639113
0.00639122
0.0063913
0.00639136
0.00639141
0.00639145
0.00639147
0.00639148
0.00639148
0.00639147
0.00639145
0.00639141
0.00639136
0.0063913
0.00639122
0.00639113
0.00639101
0.00639087
0.00639071
0.00639053
0.00639031
0.00639005
0.00638976
0.00638942
0.00638903
0.00638859
0.00638809
0.00638752
0.00638687
0.00638614
0.00638532
0.00638441
0.0063834
0.00638228
0.00638105
0.00637973
0.0063783
0.00637674
0.00649214
0.00649375
0.00649523
0.00649659
0.00649786
0.00649901
0.00650005
0.00650099
0.00650184
0.00650259
0.00650326
0.00650385
0.00650437
0.00650482
0.00650522
0.00650557
0.00650587
0.00650613
0.00650636
0.00650655
0.00650672
0.00650686
0.00650698
0.00650708
0.00650716
0.00650722
0.00650728
0.00650731
0.00650734
0.00650735
0.00650735
0.00650734
0.00650731
0.00650728
0.00650722
0.00650716
0.00650708
0.00650698
0.00650686
0.00650672
0.00650655
0.00650636
0.00650613
0.00650587
0.00650557
0.00650522
0.00650482
0.00650437
0.00650385
0.00650326
0.00650259
0.00650184
0.00650099
0.00650005
0.00649901
0.00649786
0.00649659
0.00649523
0.00649375
0.00649214
0.00661788
0.00661955
0.00662107
0.00662249
0.00662379
0.00662498
0.00662606
0.00662703
0.00662791
0.00662868
0.00662937
0.00662998
0.00663052
0.00663099
0.0066314
0.00663176
0.00663208
0.00663235
0.00663258
0.00663278
0.00663295
0.0066331
0.00663322
0.00663332
0.00663341
0.00663348
0.00663353
0.00663357
0.00663359
0.0066336
0.0066336
0.00663359
0.00663357
0.00663353
0.00663348
0.00663341
0.00663332
0.00663322
0.0066331
0.00663295
0.00663278
0.00663258
0.00663235
0.00663208
0.00663176
0.0066314
0.00663099
0.00663052
0.00662998
0.00662937
0.00662868
0.00662791
0.00662703
0.00662606
0.00662498
0.00662379
0.00662249
0.00662107
0.00661955
0.00661788
0.00675539
0.00675712
0.00675869
0.00676016
0.00676151
0.00676274
0.00676386
0.00676487
0.00676577
0.00676658
0.00676729
0.00676793
0.00676848
0.00676897
0.0067694
0.00676977
0.0067701
0.00677038
0.00677062
0.00677083
0.00677101
0.00677116
0.00677129
0.00677139
0.00677148
0.00677155
0.0067716
0.00677164
0.00677167
0.00677168
0.00677168
0.00677167
0.00677164
0.0067716
0.00677155
0.00677148
0.00677139
0.00677129
0.00677116
0.00677101
0.00677083
0.00677062
0.00677038
0.0067701
0.00676977
0.0067694
0.00676897
0.00676848
0.00676793
0.00676729
0.00676658
0.00676577
0.00676487
0.00676386
0.00676274
0.00676151
0.00676016
0.00675869
0.00675712
0.00675539
0.00690636
0.00690816
0.0069098
0.00691132
0.00691273
0.00691401
0.00691517
0.00691622
0.00691716
0.006918
0.00691874
0.0069194
0.00691998
0.00692049
0.00692093
0.00692132
0.00692166
0.00692195
0.0069222
0.00692242
0.0069226
0.00692276
0.00692289
0.006923
0.00692309
0.00692317
0.00692322
0.00692326
0.00692329
0.0069233
0.0069233
0.00692329
0.00692326
0.00692322
0.00692317
0.00692309
0.006923
0.00692289
0.00692276
0.0069226
0.00692242
0.0069222
0.00692195
0.00692166
0.00692132
0.00692093
0.00692049
0.00691998
0.0069194
0.00691874
0.006918
0.00691716
0.00691622
0.00691517
0.00691401
0.00691273
0.00691132
0.0069098
0.00690816
0.00690636
0.00707287
0.00707476
0.00707647
0.00707805
0.00707952
0.00708086
0.00708207
0.00708316
0.00708414
0.00708501
0.00708579
0.00708648
0.00708708
0.00708761
0.00708808
0.00708848
0.00708883
0.00708914
0.0070894
0.00708963
0.00708982
0.00708998
0.00709012
0.00709024
0.00709033
0.00709041
0.00709047
0.00709051
0.00709054
0.00709055
0.00709055
0.00709054
0.00709051
0.00709047
0.00709041
0.00709033
0.00709024
0.00709012
0.00708998
0.00708982
0.00708963
0.0070894
0.00708914
0.00708883
0.00708848
0.00708808
0.00708761
0.00708708
0.00708648
0.00708579
0.00708501
0.00708414
0.00708316
0.00708207
0.00708086
0.00707952
0.00707805
0.00707647
0.00707476
0.00707287
0.00725746
0.00725944
0.00726123
0.00726289
0.00726442
0.00726582
0.00726709
0.00726824
0.00726926
0.00727018
0.00727099
0.00727171
0.00727234
0.0072729
0.00727338
0.00727381
0.00727418
0.0072745
0.00727477
0.00727501
0.00727521
0.00727538
0.00727553
0.00727565
0.00727575
0.00727583
0.00727589
0.00727594
0.00727596
0.00727598
0.00727598
0.00727596
0.00727594
0.00727589
0.00727583
0.00727575
0.00727565
0.00727553
0.00727538
0.00727521
0.00727501
0.00727477
0.0072745
0.00727418
0.00727381
0.00727338
0.0072729
0.00727234
0.00727171
0.00727099
0.00727018
0.00726926
0.00726824
0.00726709
0.00726582
0.00726442
0.00726289
0.00726123
0.00725944
0.00725746
0.00746326
0.00746534
0.00746722
0.00746897
0.00747058
0.00747206
0.00747339
0.00747459
0.00747567
0.00747664
0.00747749
0.00747825
0.00747891
0.0074795
0.00748001
0.00748046
0.00748084
0.00748118
0.00748147
0.00748172
0.00748193
0.00748212
0.00748227
0.0074824
0.0074825
0.00748258
0.00748265
0.0074827
0.00748273
0.00748274
0.00748274
0.00748273
0.0074827
0.00748265
0.00748258
0.0074825
0.0074824
0.00748227
0.00748212
0.00748193
0.00748172
0.00748147
0.00748118
0.00748084
0.00748046
0.00748001
0.0074795
0.00747891
0.00747825
0.00747749
0.00747664
0.00747567
0.00747459
0.00747339
0.00747206
0.00747058
0.00746897
0.00746722
0.00746534
0.00746326
0.0076942
0.00769639
0.00769838
0.00770023
0.00770194
0.0077035
0.00770491
0.00770618
0.00770732
0.00770834
0.00770924
0.00771004
0.00771075
0.00771137
0.00771191
0.00771238
0.00771279
0.00771315
0.00771346
0.00771372
0.00771395
0.00771414
0.0077143
0.00771443
0.00771454
0.00771463
0.0077147
0.00771475
0.00771478
0.0077148
0.0077148
0.00771478
0.00771475
0.0077147
0.00771463
0.00771454
0.00771443
0.0077143
0.00771414
0.00771395
0.00771372
0.00771346
0.00771315
0.00771279
0.00771238
0.00771191
0.00771137
0.00771075
0.00771004
0.00770924
0.00770834
0.00770732
0.00770618
0.00770491
0.0077035
0.00770194
0.00770023
0.00769838
0.00769639
0.0076942
0.00795527
0.0079576
0.00795972
0.00796169
0.0079635
0.00796516
0.00796666
0.00796802
0.00796923
0.00797032
0.00797128
0.00797213
0.00797288
0.00797354
0.00797411
0.00797462
0.00797505
0.00797543
0.00797576
0.00797604
0.00797628
0.00797649
0.00797666
0.0079768
0.00797692
0.00797701
0.00797709
0.00797714
0.00797718
0.00797719
0.00797719
0.00797718
0.00797714
0.00797709
0.00797701
0.00797692
0.0079768
0.00797666
0.00797649
0.00797628
0.00797604
0.00797576
0.00797543
0.00797505
0.00797462
0.00797411
0.00797354
0.00797288
0.00797213
0.00797128
0.00797032
0.00796923
0.00796802
0.00796666
0.00796516
0.0079635
0.00796169
0.00795972
0.0079576
0.00795527
0.00825294
0.00825544
0.00825771
0.00825982
0.00826176
0.00826354
0.00826515
0.0082666
0.0082679
0.00826906
0.00827009
0.00827101
0.00827181
0.00827252
0.00827314
0.00827368
0.00827414
0.00827455
0.0082749
0.0082752
0.00827546
0.00827568
0.00827587
0.00827602
0.00827615
0.00827625
0.00827633
0.00827638
0.00827642
0.00827644
0.00827644
0.00827642
0.00827638
0.00827633
0.00827625
0.00827615
0.00827602
0.00827587
0.00827568
0.00827546
0.0082752
0.0082749
0.00827455
0.00827414
0.00827368
0.00827314
0.00827252
0.00827181
0.00827101
0.00827009
0.00826906
0.0082679
0.0082666
0.00826515
0.00826354
0.00826176
0.00825982
0.00825771
0.00825544
0.00825294
0.00859572
0.00859842
0.00860087
0.00860315
0.00860525
0.00860717
0.00860891
0.00861048
0.00861189
0.00861315
0.00861426
0.00861525
0.00861612
0.00861688
0.00861755
0.00861813
0.00861864
0.00861908
0.00861946
0.00861979
0.00862007
0.0086203
0.0086205
0.00862067
0.00862081
0.00862092
0.008621
0.00862106
0.00862111
0.00862113
0.00862113
0.00862111
0.00862106
0.008621
0.00862092
0.00862081
0.00862067
0.0086205
0.0086203
0.00862007
0.00861979
0.00861946
0.00861908
0.00861864
0.00861813
0.00861755
0.00861688
0.00861612
0.00861525
0.00861426
0.00861315
0.00861189
0.00861048
0.00860891
0.00860717
0.00860525
0.00860315
0.00860087
0.00859842
0.00859572
0.00899506
0.00899801
0.00900068
0.00900317
0.00900547
0.00900756
0.00900946
0.00901118
0.00901271
0.00901409
0.0090153
0.00901638
0.00901733
0.00901817
0.0090189
0.00901954
0.00902009
0.00902057
0.00902099
0.00902135
0.00902165
0.00902191
0.00902213
0.00902231
0.00902246
0.00902258
0.00902267
0.00902274
0.00902279
0.00902281
0.00902281
0.00902279
0.00902274
0.00902267
0.00902258
0.00902246
0.00902231
0.00902213
0.00902191
0.00902165
0.00902135
0.00902099
0.00902057
0.00902009
0.00901954
0.0090189
0.00901817
0.00901733
0.00901638
0.0090153
0.00901409
0.00901271
0.00901118
0.00900946
0.00900756
0.00900547
0.00900317
0.00900068
0.00899801
0.00899506
0.00946672
0.00946997
0.00947293
0.00947568
0.00947822
0.00948054
0.00948264
0.00948454
0.00948624
0.00948776
0.0094891
0.0094903
0.00949135
0.00949227
0.00949308
0.00949379
0.00949441
0.00949494
0.0094954
0.00949579
0.00949613
0.00949642
0.00949666
0.00949686
0.00949703
0.00949716
0.00949726
0.00949734
0.00949739
0.00949741
0.00949741
0.00949739
0.00949734
0.00949726
0.00949716
0.00949703
0.00949686
0.00949666
0.00949642
0.00949613
0.00949579
0.0094954
0.00949494
0.00949441
0.00949379
0.00949308
0.00949227
0.00949135
0.0094903
0.0094891
0.00948776
0.00948624
0.00948454
0.00948264
0.00948054
0.00947822
0.00947568
0.00947293
0.00946997
0.00946672
0.0100329
0.0100366
0.0100399
0.010043
0.0100458
0.0100484
0.0100508
0.0100529
0.0100549
0.0100566
0.0100581
0.0100594
0.0100606
0.0100616
0.0100625
0.0100633
0.010064
0.0100646
0.0100652
0.0100656
0.010066
0.0100663
0.0100666
0.0100668
0.010067
0.0100671
0.0100673
0.0100673
0.0100674
0.0100674
0.0100674
0.0100674
0.0100673
0.0100673
0.0100671
0.010067
0.0100668
0.0100666
0.0100663
0.010066
0.0100656
0.0100652
0.0100646
0.010064
0.0100633
0.0100625
0.0100616
0.0100606
0.0100594
0.0100581
0.0100566
0.0100549
0.0100529
0.0100508
0.0100484
0.0100458
0.010043
0.0100399
0.0100366
0.0100329
0.0107259
0.01073
0.0107338
0.0107373
0.0107406
0.0107436
0.0107463
0.0107487
0.0107509
0.0107529
0.0107546
0.0107562
0.0107575
0.0107587
0.0107597
0.0107607
0.0107614
0.0107621
0.0107627
0.0107632
0.0107637
0.010764
0.0107644
0.0107646
0.0107648
0.010765
0.0107651
0.0107652
0.0107653
0.0107653
0.0107653
0.0107653
0.0107652
0.0107651
0.010765
0.0107648
0.0107646
0.0107644
0.010764
0.0107637
0.0107632
0.0107627
0.0107621
0.0107614
0.0107607
0.0107597
0.0107587
0.0107575
0.0107562
0.0107546
0.0107529
0.0107509
0.0107487
0.0107463
0.0107436
0.0107406
0.0107373
0.0107338
0.01073
0.0107259
0.0115926
0.0115975
0.0116019
0.0116061
0.0116099
0.0116134
0.0116165
0.0116194
0.011622
0.0116243
0.0116263
0.0116281
0.0116297
0.0116311
0.0116323
0.0116334
0.0116343
0.0116351
0.0116358
0.0116364
0.0116369
0.0116374
0.0116377
0.011638
0.0116383
0.0116385
0.0116387
0.0116388
0.0116388
0.0116389
0.0116389
0.0116388
0.0116388
0.0116387
0.0116385
0.0116383
0.011638
0.0116377
0.0116374
0.0116369
0.0116364
0.0116358
0.0116351
0.0116343
0.0116334
0.0116323
0.0116311
0.0116297
0.0116281
0.0116263
0.0116243
0.011622
0.0116194
0.0116165
0.0116134
0.0116099
0.0116061
0.0116019
0.0115975
0.0115926
0.0127026
0.0127084
0.0127137
0.0127187
0.0127233
0.0127275
0.0127313
0.0127347
0.0127378
0.0127406
0.012743
0.0127452
0.0127471
0.0127488
0.0127503
0.0127516
0.0127527
0.0127537
0.0127545
0.0127552
0.0127558
0.0127564
0.0127568
0.0127572
0.0127575
0.0127577
0.0127579
0.012758
0.0127581
0.0127582
0.0127582
0.0127581
0.012758
0.0127579
0.0127577
0.0127575
0.0127572
0.0127568
0.0127564
0.0127558
0.0127552
0.0127545
0.0127537
0.0127527
0.0127516
0.0127503
0.0127488
0.0127471
0.0127452
0.012743
0.0127406
0.0127378
0.0127347
0.0127313
0.0127275
0.0127233
0.0127187
0.0127137
0.0127084
0.0127026
0.0141548
0.0141618
0.0141684
0.0141745
0.0141802
0.0141854
0.0141901
0.0141943
0.0141981
0.0142015
0.0142046
0.0142072
0.0142096
0.0142117
0.0142135
0.0142151
0.0142165
0.0142177
0.0142187
0.0142196
0.0142204
0.014221
0.0142216
0.014222
0.0142224
0.0142227
0.0142229
0.0142231
0.0142232
0.0142233
0.0142233
0.0142232
0.0142231
0.0142229
0.0142227
0.0142224
0.014222
0.0142216
0.014221
0.0142204
0.0142196
0.0142187
0.0142177
0.0142165
0.0142151
0.0142135
0.0142117
0.0142096
0.0142072
0.0142046
0.0142015
0.0141981
0.0141943
0.0141901
0.0141854
0.0141802
0.0141745
0.0141684
0.0141618
0.0141548
0.0160813
0.0160901
0.0160984
0.0161061
0.0161132
0.0161197
0.0161257
0.016131
0.0161358
0.0161401
0.0161439
0.0161473
0.0161503
0.0161529
0.0161552
0.0161572
0.0161589
0.0161604
0.0161618
0.0161629
0.0161638
0.0161647
0.0161653
0.0161659
0.0161664
0.0161668
0.0161671
0.0161673
0.0161674
0.0161675
0.0161675
0.0161674
0.0161673
0.0161671
0.0161668
0.0161664
0.0161659
0.0161653
0.0161647
0.0161638
0.0161629
0.0161618
0.0161604
0.0161589
0.0161572
0.0161552
0.0161529
0.0161503
0.0161473
0.0161439
0.0161401
0.0161358
0.016131
0.0161257
0.0161197
0.0161132
0.0161061
0.0160984
0.0160901
0.0160813
0.0186385
0.0186496
0.0186601
0.0186699
0.0186789
0.0186872
0.0186947
0.0187015
0.0187076
0.0187131
0.0187179
0.0187222
0.018726
0.0187293
0.0187322
0.0187348
0.018737
0.0187389
0.0187406
0.018742
0.0187432
0.0187443
0.0187451
0.0187459
0.0187465
0.0187469
0.0187473
0.0187476
0.0187478
0.0187479
0.0187479
0.0187478
0.0187476
0.0187473
0.0187469
0.0187465
0.0187459
0.0187451
0.0187443
0.0187432
0.018742
0.0187406
0.0187389
0.018737
0.0187348
0.0187322
0.0187293
0.018726
0.0187222
0.0187179
0.0187131
0.0187076
0.0187015
0.0186947
0.0186872
0.0186789
0.0186699
0.0186601
0.0186496
0.0186385
0.021977
0.0219911
0.0220043
0.0220166
0.022028
0.0220385
0.022048
0.0220565
0.0220642
0.0220711
0.0220772
0.0220826
0.0220873
0.0220915
0.0220952
0.0220984
0.0221012
0.0221036
0.0221057
0.0221075
0.0221091
0.0221104
0.0221115
0.0221124
0.0221132
0.0221138
0.0221142
0.0221146
0.0221148
0.0221149
0.0221149
0.0221148
0.0221146
0.0221142
0.0221138
0.0221132
0.0221124
0.0221115
0.0221104
0.0221091
0.0221075
0.0221057
0.0221036
0.0221012
0.0220984
0.0220952
0.0220915
0.0220873
0.0220826
0.0220772
0.0220711
0.0220642
0.0220565
0.022048
0.0220385
0.022028
0.0220166
0.0220043
0.0219911
0.021977
0.0261966
0.026214
0.0262303
0.0262455
0.0262596
0.0262724
0.0262841
0.0262947
0.0263041
0.0263126
0.0263201
0.0263268
0.0263326
0.0263378
0.0263423
0.0263463
0.0263498
0.0263527
0.0263553
0.0263575
0.0263594
0.0263611
0.0263624
0.0263636
0.0263645
0.0263652
0.0263658
0.0263663
0.0263665
0.0263667
0.0263667
0.0263665
0.0263663
0.0263658
0.0263652
0.0263645
0.0263636
0.0263624
0.0263611
0.0263594
0.0263575
0.0263553
0.0263527
0.0263498
0.0263463
0.0263423
0.0263378
0.0263326
0.0263268
0.0263201
0.0263126
0.0263041
0.0262947
0.0262841
0.0262724
0.0262596
0.0262455
0.0262303
0.026214
0.0261966
0.0313064
0.0313273
0.0313468
0.031365
0.0313818
0.0313972
0.0314111
0.0314237
0.0314351
0.0314452
0.0314541
0.0314621
0.0314691
0.0314753
0.0314807
0.0314855
0.0314896
0.0314932
0.0314963
0.0314989
0.0315012
0.0315031
0.0315048
0.0315061
0.0315073
0.0315082
0.0315089
0.0315094
0.0315097
0.0315099
0.0315099
0.0315097
0.0315094
0.0315089
0.0315082
0.0315073
0.0315061
0.0315048
0.0315031
0.0315012
0.0314989
0.0314963
0.0314932
0.0314896
0.0314855
0.0314807
0.0314753
0.0314691
0.0314621
0.0314541
0.0314452
0.0314351
0.0314237
0.0314111
0.0313972
0.0313818
0.031365
0.0313468
0.0313273
0.0313064
0.0372206
0.037245
0.0372675
0.0372886
0.0373081
0.0373259
0.037342
0.0373566
0.0373697
0.0373814
0.0373918
0.037401
0.0374092
0.0374163
0.0374226
0.0374281
0.0374328
0.037437
0.0374406
0.0374437
0.0374463
0.0374485
0.0374504
0.037452
0.0374533
0.0374544
0.0374552
0.0374558
0.0374562
0.0374563
0.0374563
0.0374562
0.0374558
0.0374552
0.0374544
0.0374533
0.037452
0.0374504
0.0374485
0.0374463
0.0374437
0.0374406
0.037437
0.0374328
0.0374281
0.0374226
0.0374163
0.0374092
0.037401
0.0373918
0.0373814
0.0373697
0.0373566
0.037342
0.0373259
0.0373081
0.0372886
0.0372675
0.037245
0.0372206
0.0437936
0.0438212
0.0438467
0.0438704
0.0438923
0.0439123
0.0439305
0.0439469
0.0439616
0.0439748
0.0439865
0.0439968
0.044006
0.044014
0.0440211
0.0440273
0.0440327
0.0440373
0.0440414
0.0440449
0.0440478
0.0440504
0.0440525
0.0440543
0.0440558
0.0440569
0.0440579
0.0440585
0.044059
0.0440592
0.0440592
0.044059
0.0440585
0.0440579
0.0440569
0.0440558
0.0440543
0.0440525
0.0440504
0.0440478
0.0440449
0.0440414
0.0440373
0.0440327
0.0440273
0.0440211
0.044014
0.044006
0.0439968
0.0439865
0.0439748
0.0439616
0.0439469
0.0439305
0.0439123
0.0438923
0.0438704
0.0438467
0.0438212
0.0437936
0.0508706
0.0509011
0.0509293
0.0509555
0.0509796
0.0510016
0.0510216
0.0510397
0.0510559
0.0510704
0.0510832
0.0510947
0.0511048
0.0511137
0.0511215
0.0511283
0.0511342
0.0511394
0.0511438
0.0511477