/*--------------------------------*- C++ -*----------------------------------*\
| =========                 |                                                 |
| \\      /  F ield         | foam-extend: Open Source CFD                    |
|  \\    /   O peration     | Version:     4.0                                |
|   \\  /    A nd           | Web:         http://www.foam-extend.org         |
|    \\/     M anipulation  |                                                 |
\*---------------------------------------------------------------------------*/
FoamFile
{
    version     2.0;
    format      ascii;
    class       volScalarField;
    location    "1530";
    object      cMinus;
}
// * * * * * * * * * * * * * * * * * * * * * * * * * * * * * * * * * * * * * //

dimensions      [0 0 0 0 0 0 0];

internalField   nonuniform List<scalar> 
6960
(
2.56279e-23
2.56413e-23
2.56386e-23
2.56331e-23
2.56274e-23
2.5622e-23
2.56172e-23
2.56128e-23
2.5609e-23
2.56057e-23
2.56028e-23
2.56003e-23
2.55982e-23
2.55963e-23
2.55948e-23
2.55934e-23
2.55923e-23
2.55913e-23
2.55905e-23
2.55898e-23
2.55892e-23
2.55887e-23
2.55883e-23
2.5588e-23
2.55877e-23
2.55875e-23
2.55874e-23
2.55873e-23
2.55872e-23
2.55871e-23
2.55871e-23
2.55872e-23
2.55873e-23
2.55874e-23
2.55875e-23
2.55877e-23
2.5588e-23
2.55883e-23
2.55887e-23
2.55892e-23
2.55898e-23
2.55905e-23
2.55913e-23
2.55923e-23
2.55934e-23
2.55948e-23
2.55963e-23
2.55982e-23
2.56003e-23
2.56028e-23
2.56057e-23
2.5609e-23
2.56128e-23
2.56172e-23
2.5622e-23
2.56274e-23
2.56331e-23
2.56386e-23
2.56413e-23
2.56279e-23
8.1932e-23
8.19807e-23
8.19786e-23
8.19678e-23
8.19555e-23
8.19438e-23
8.1933e-23
8.19234e-23
8.19149e-23
8.19074e-23
8.1901e-23
8.18953e-23
8.18904e-23
8.18862e-23
8.18826e-23
8.18795e-23
8.18768e-23
8.18745e-23
8.18726e-23
8.1871e-23
8.18697e-23
8.18686e-23
8.18676e-23
8.18669e-23
8.18663e-23
8.18658e-23
8.18654e-23
8.18652e-23
8.1865e-23
8.18649e-23
8.18649e-23
8.1865e-23
8.18652e-23
8.18654e-23
8.18658e-23
8.18663e-23
8.18669e-23
8.18676e-23
8.18686e-23
8.18697e-23
8.1871e-23
8.18726e-23
8.18745e-23
8.18768e-23
8.18795e-23
8.18826e-23
8.18862e-23
8.18904e-23
8.18953e-23
8.1901e-23
8.19074e-23
8.19149e-23
8.19234e-23
8.1933e-23
8.19438e-23
8.19555e-23
8.19678e-23
8.19786e-23
8.19807e-23
8.1932e-23
2.34636e-22
2.34795e-22
2.34813e-22
2.34805e-22
2.34791e-22
2.34776e-22
2.34762e-22
2.34749e-22
2.34737e-22
2.34727e-22
2.34718e-22
2.3471e-22
2.34703e-22
2.34696e-22
2.34691e-22
2.34686e-22
2.34682e-22
2.34679e-22
2.34676e-22
2.34673e-22
2.34671e-22
2.34669e-22
2.34668e-22
2.34667e-22
2.34666e-22
2.34665e-22
2.34665e-22
2.34664e-22
2.34664e-22
2.34664e-22
2.34664e-22
2.34664e-22
2.34664e-22
2.34665e-22
2.34665e-22
2.34666e-22
2.34667e-22
2.34668e-22
2.34669e-22
2.34671e-22
2.34673e-22
2.34676e-22
2.34679e-22
2.34682e-22
2.34686e-22
2.34691e-22
2.34696e-22
2.34703e-22
2.3471e-22
2.34718e-22
2.34727e-22
2.34737e-22
2.34749e-22
2.34762e-22
2.34776e-22
2.34791e-22
2.34805e-22
2.34813e-22
2.34795e-22
2.34636e-22
6.57255e-22
6.57762e-22
6.57884e-22
6.57933e-22
6.57961e-22
6.57979e-22
6.57992e-22
6.58002e-22
6.5801e-22
6.58016e-22
6.5802e-22
6.58023e-22
6.58026e-22
6.58027e-22
6.58027e-22
6.58028e-22
6.58027e-22
6.58027e-22
6.58027e-22
6.58026e-22
6.58026e-22
6.58026e-22
6.58026e-22
6.58025e-22
6.58025e-22
6.58025e-22
6.58025e-22
6.58025e-22
6.58025e-22
6.58025e-22
6.58025e-22
6.58025e-22
6.58025e-22
6.58025e-22
6.58025e-22
6.58025e-22
6.58025e-22
6.58026e-22
6.58026e-22
6.58026e-22
6.58026e-22
6.58027e-22
6.58027e-22
6.58027e-22
6.58028e-22
6.58027e-22
6.58027e-22
6.58026e-22
6.58023e-22
6.5802e-22
6.58016e-22
6.5801e-22
6.58002e-22
6.57992e-22
6.57979e-22
6.57961e-22
6.57933e-22
6.57884e-22
6.57762e-22
6.57255e-22
1.8559e-21
1.85751e-21
1.85808e-21
1.85844e-21
1.85872e-21
1.85895e-21
1.85915e-21
1.85932e-21
1.85946e-21
1.85959e-21
1.85969e-21
1.85978e-21
1.85985e-21
1.85991e-21
1.85996e-21
1.86e-21
1.86003e-21
1.86006e-21
1.86008e-21
1.8601e-21
1.86012e-21
1.86013e-21
1.86014e-21
1.86015e-21
1.86016e-21
1.86017e-21
1.86017e-21
1.86017e-21
1.86018e-21
1.86018e-21
1.86018e-21
1.86018e-21
1.86017e-21
1.86017e-21
1.86017e-21
1.86016e-21
1.86015e-21
1.86014e-21
1.86013e-21
1.86012e-21
1.8601e-21
1.86008e-21
1.86006e-21
1.86003e-21
1.86e-21
1.85996e-21
1.85991e-21
1.85985e-21
1.85978e-21
1.85969e-21
1.85959e-21
1.85946e-21
1.85932e-21
1.85915e-21
1.85895e-21
1.85872e-21
1.85844e-21
1.85808e-21
1.85751e-21
1.8559e-21
5.34276e-21
5.34797e-21
5.35028e-21
5.35197e-21
5.35338e-21
5.3546e-21
5.35566e-21
5.35657e-21
5.35736e-21
5.35803e-21
5.3586e-21
5.35909e-21
5.3595e-21
5.35984e-21
5.36013e-21
5.36037e-21
5.36057e-21
5.36074e-21
5.36088e-21
5.361e-21
5.36109e-21
5.36117e-21
5.36124e-21
5.36129e-21
5.36134e-21
5.36137e-21
5.3614e-21
5.36142e-21
5.36143e-21
5.36144e-21
5.36144e-21
5.36143e-21
5.36142e-21
5.3614e-21
5.36137e-21
5.36134e-21
5.36129e-21
5.36124e-21
5.36117e-21
5.36109e-21
5.361e-21
5.36088e-21
5.36074e-21
5.36057e-21
5.36037e-21
5.36013e-21
5.35984e-21
5.3595e-21
5.35909e-21
5.3586e-21
5.35803e-21
5.35736e-21
5.35657e-21
5.35566e-21
5.3546e-21
5.35338e-21
5.35197e-21
5.35028e-21
5.34797e-21
5.34276e-21
1.57502e-20
1.57673e-20
1.57761e-20
1.57831e-20
1.57891e-20
1.57944e-20
1.5799e-20
1.5803e-20
1.58064e-20
1.58094e-20
1.58119e-20
1.58141e-20
1.58159e-20
1.58174e-20
1.58187e-20
1.58198e-20
1.58207e-20
1.58215e-20
1.58221e-20
1.58226e-20
1.58231e-20
1.58234e-20
1.58237e-20
1.5824e-20
1.58242e-20
1.58243e-20
1.58245e-20
1.58246e-20
1.58246e-20
1.58246e-20
1.58246e-20
1.58246e-20
1.58246e-20
1.58245e-20
1.58243e-20
1.58242e-20
1.5824e-20
1.58237e-20
1.58234e-20
1.58231e-20
1.58226e-20
1.58221e-20
1.58215e-20
1.58207e-20
1.58198e-20
1.58187e-20
1.58174e-20
1.58159e-20
1.58141e-20
1.58119e-20
1.58094e-20
1.58064e-20
1.5803e-20
1.5799e-20
1.57944e-20
1.57891e-20
1.57831e-20
1.57761e-20
1.57673e-20
1.57502e-20
4.76319e-20
4.76887e-20
4.77218e-20
4.77492e-20
4.77732e-20
4.77943e-20
4.78128e-20
4.78289e-20
4.78428e-20
4.78548e-20
4.78651e-20
4.78738e-20
4.78812e-20
4.78875e-20
4.78928e-20
4.78973e-20
4.7901e-20
4.79041e-20
4.79068e-20
4.79089e-20
4.79108e-20
4.79123e-20
4.79135e-20
4.79145e-20
4.79154e-20
4.7916e-20
4.79165e-20
4.79169e-20
4.79171e-20
4.79172e-20
4.79172e-20
4.79171e-20
4.79169e-20
4.79165e-20
4.7916e-20
4.79154e-20
4.79145e-20
4.79135e-20
4.79123e-20
4.79108e-20
4.79089e-20
4.79068e-20
4.79041e-20
4.7901e-20
4.78973e-20
4.78928e-20
4.78875e-20
4.78812e-20
4.78738e-20
4.78651e-20
4.78548e-20
4.78428e-20
4.78289e-20
4.78128e-20
4.77943e-20
4.77732e-20
4.77492e-20
4.77218e-20
4.76887e-20
4.76319e-20
1.47893e-19
1.48086e-19
1.48208e-19
1.48313e-19
1.48406e-19
1.48488e-19
1.4856e-19
1.48623e-19
1.48678e-19
1.48724e-19
1.48765e-19
1.48799e-19
1.48828e-19
1.48853e-19
1.48874e-19
1.48891e-19
1.48906e-19
1.48918e-19
1.48929e-19
1.48937e-19
1.48944e-19
1.4895e-19
1.48955e-19
1.48959e-19
1.48963e-19
1.48965e-19
1.48967e-19
1.48969e-19
1.4897e-19
1.4897e-19
1.4897e-19
1.4897e-19
1.48969e-19
1.48967e-19
1.48965e-19
1.48963e-19
1.48959e-19
1.48955e-19
1.4895e-19
1.48944e-19
1.48937e-19
1.48929e-19
1.48918e-19
1.48906e-19
1.48891e-19
1.48874e-19
1.48853e-19
1.48828e-19
1.48799e-19
1.48765e-19
1.48724e-19
1.48678e-19
1.48623e-19
1.4856e-19
1.48488e-19
1.48406e-19
1.48313e-19
1.48208e-19
1.48086e-19
1.47893e-19
4.71631e-19
4.72299e-19
4.72755e-19
4.73155e-19
4.73511e-19
4.73826e-19
4.74104e-19
4.74346e-19
4.74555e-19
4.74736e-19
4.74892e-19
4.75024e-19
4.75137e-19
4.75233e-19
4.75313e-19
4.75381e-19
4.75439e-19
4.75487e-19
4.75527e-19
4.75561e-19
4.75589e-19
4.75612e-19
4.75631e-19
4.75647e-19
4.75659e-19
4.75669e-19
4.75677e-19
4.75683e-19
4.75686e-19
4.75688e-19
4.75688e-19
4.75686e-19
4.75683e-19
4.75677e-19
4.75669e-19
4.75659e-19
4.75647e-19
4.75631e-19
4.75612e-19
4.75589e-19
4.75561e-19
4.75527e-19
4.75487e-19
4.75439e-19
4.75381e-19
4.75313e-19
4.75233e-19
4.75137e-19
4.75024e-19
4.74892e-19
4.74736e-19
4.74555e-19
4.74346e-19
4.74104e-19
4.73826e-19
4.73511e-19
4.73155e-19
4.72755e-19
4.72299e-19
4.71631e-19
1.54506e-18
1.54742e-18
1.54913e-18
1.55066e-18
1.55202e-18
1.55324e-18
1.5543e-18
1.55523e-18
1.55604e-18
1.55674e-18
1.55734e-18
1.55785e-18
1.55829e-18
1.55866e-18
1.55897e-18
1.55924e-18
1.55946e-18
1.55964e-18
1.5598e-18
1.55993e-18
1.56004e-18
1.56013e-18
1.5602e-18
1.56026e-18
1.56031e-18
1.56035e-18
1.56038e-18
1.5604e-18
1.56042e-18
1.56042e-18
1.56042e-18
1.56042e-18
1.5604e-18
1.56038e-18
1.56035e-18
1.56031e-18
1.56026e-18
1.5602e-18
1.56013e-18
1.56004e-18
1.55993e-18
1.5598e-18
1.55964e-18
1.55946e-18
1.55924e-18
1.55897e-18
1.55866e-18
1.55829e-18
1.55785e-18
1.55734e-18
1.55674e-18
1.55604e-18
1.55523e-18
1.5543e-18
1.55324e-18
1.55202e-18
1.55066e-18
1.54913e-18
1.54742e-18
1.54506e-18
5.19992e-18
5.20847e-18
5.21498e-18
5.22084e-18
5.22612e-18
5.23082e-18
5.23496e-18
5.23857e-18
5.24171e-18
5.24442e-18
5.24675e-18
5.24874e-18
5.25043e-18
5.25187e-18
5.25309e-18
5.25411e-18
5.25498e-18
5.2557e-18
5.25631e-18
5.25682e-18
5.25724e-18
5.25759e-18
5.25788e-18
5.25812e-18
5.25831e-18
5.25846e-18
5.25858e-18
5.25867e-18
5.25872e-18
5.25875e-18
5.25875e-18
5.25872e-18
5.25867e-18
5.25858e-18
5.25846e-18
5.25831e-18
5.25812e-18
5.25788e-18
5.25759e-18
5.25724e-18
5.25682e-18
5.25631e-18
5.2557e-18
5.25498e-18
5.25411e-18
5.25309e-18
5.25187e-18
5.25043e-18
5.24874e-18
5.24675e-18
5.24442e-18
5.24171e-18
5.23857e-18
5.23496e-18
5.23082e-18
5.22612e-18
5.22084e-18
5.21498e-18
5.20847e-18
5.19992e-18
1.79774e-17
1.80091e-17
1.80342e-17
1.80571e-17
1.80777e-17
1.80961e-17
1.81123e-17
1.81265e-17
1.81388e-17
1.81495e-17
1.81586e-17
1.81664e-17
1.81731e-17
1.81787e-17
1.81835e-17
1.81876e-17
1.8191e-17
1.81938e-17
1.81962e-17
1.81982e-17
1.81999e-17
1.82013e-17
1.82024e-17
1.82033e-17
1.82041e-17
1.82047e-17
1.82051e-17
1.82055e-17
1.82057e-17
1.82058e-17
1.82058e-17
1.82057e-17
1.82055e-17
1.82051e-17
1.82047e-17
1.82041e-17
1.82033e-17
1.82024e-17
1.82013e-17
1.81999e-17
1.81982e-17
1.81962e-17
1.81938e-17
1.8191e-17
1.81876e-17
1.81835e-17
1.81787e-17
1.81731e-17
1.81664e-17
1.81586e-17
1.81495e-17
1.81388e-17
1.81265e-17
1.81123e-17
1.80961e-17
1.80777e-17
1.80571e-17
1.80342e-17
1.80091e-17
1.79774e-17
6.38337e-17
6.39536e-17
6.40522e-17
6.41427e-17
6.42247e-17
6.42977e-17
6.43622e-17
6.44186e-17
6.44676e-17
6.45099e-17
6.45463e-17
6.45774e-17
6.46039e-17
6.46265e-17
6.46455e-17
6.46616e-17
6.46752e-17
6.46866e-17
6.46961e-17
6.47041e-17
6.47108e-17
6.47163e-17
6.47209e-17
6.47246e-17
6.47276e-17
6.473e-17
6.47318e-17
6.47331e-17
6.4734e-17
6.47344e-17
6.47344e-17
6.4734e-17
6.47331e-17
6.47318e-17
6.473e-17
6.47276e-17
6.47246e-17
6.47209e-17
6.47163e-17
6.47108e-17
6.47041e-17
6.46961e-17
6.46866e-17
6.46752e-17
6.46616e-17
6.46455e-17
6.46265e-17
6.46039e-17
6.45774e-17
6.45463e-17
6.45099e-17
6.44676e-17
6.44186e-17
6.43622e-17
6.42977e-17
6.42247e-17
6.41427e-17
6.40522e-17
6.39536e-17
6.38337e-17
2.32706e-16
2.33171e-16
2.33564e-16
2.33929e-16
2.34259e-16
2.34554e-16
2.34814e-16
2.35042e-16
2.3524e-16
2.35411e-16
2.35559e-16
2.35685e-16
2.35792e-16
2.35883e-16
2.3596e-16
2.36025e-16
2.3608e-16
2.36126e-16
2.36165e-16
2.36198e-16
2.36225e-16
2.36247e-16
2.36265e-16
2.36281e-16
2.36293e-16
2.36302e-16
2.3631e-16
2.36315e-16
2.36319e-16
2.3632e-16
2.3632e-16
2.36319e-16
2.36315e-16
2.3631e-16
2.36302e-16
2.36293e-16
2.36281e-16
2.36265e-16
2.36247e-16
2.36225e-16
2.36198e-16
2.36165e-16
2.36126e-16
2.3608e-16
2.36025e-16
2.3596e-16
2.35883e-16
2.35792e-16
2.35685e-16
2.35559e-16
2.35411e-16
2.3524e-16
2.35042e-16
2.34814e-16
2.34554e-16
2.34259e-16
2.33929e-16
2.33564e-16
2.33171e-16
2.32706e-16
8.70493e-16
8.72334e-16
8.73937e-16
8.75429e-16
8.76785e-16
8.77996e-16
8.79065e-16
8.80001e-16
8.80815e-16
8.81519e-16
8.82124e-16
8.82642e-16
8.83083e-16
8.83458e-16
8.83776e-16
8.84044e-16
8.84271e-16
8.84461e-16
8.8462e-16
8.84754e-16
8.84865e-16
8.84957e-16
8.85033e-16
8.85095e-16
8.85146e-16
8.85185e-16
8.85216e-16
8.85238e-16
8.85252e-16
8.85259e-16
8.85259e-16
8.85252e-16
8.85238e-16
8.85216e-16
8.85185e-16
8.85146e-16
8.85095e-16
8.85033e-16
8.84957e-16
8.84865e-16
8.84754e-16
8.8462e-16
8.84461e-16
8.84271e-16
8.84044e-16
8.83776e-16
8.83458e-16
8.83083e-16
8.82642e-16
8.82124e-16
8.81519e-16
8.80815e-16
8.80001e-16
8.79065e-16
8.77996e-16
8.76785e-16
8.75429e-16
8.73937e-16
8.72334e-16
8.70493e-16
3.33884e-15
3.3463e-15
3.35295e-15
3.35917e-15
3.36483e-15
3.36989e-15
3.37436e-15
3.37827e-15
3.38167e-15
3.38462e-15
3.38715e-15
3.38931e-15
3.39116e-15
3.39273e-15
3.39406e-15
3.39519e-15
3.39613e-15
3.39693e-15
3.3976e-15
3.39816e-15
3.39862e-15
3.39901e-15
3.39933e-15
3.39959e-15
3.3998e-15
3.39997e-15
3.40009e-15
3.40019e-15
3.40025e-15
3.40028e-15
3.40028e-15
3.40025e-15
3.40019e-15
3.40009e-15
3.39997e-15
3.3998e-15
3.39959e-15
3.39933e-15
3.39901e-15
3.39862e-15
3.39816e-15
3.3976e-15
3.39693e-15
3.39613e-15
3.39519e-15
3.39406e-15
3.39273e-15
3.39116e-15
3.38931e-15
3.38715e-15
3.38462e-15
3.38167e-15
3.37827e-15
3.37436e-15
3.36989e-15
3.36483e-15
3.35917e-15
3.35295e-15
3.3463e-15
3.33884e-15
1.31179e-14
1.31488e-14
1.31769e-14
1.32032e-14
1.32273e-14
1.32488e-14
1.32678e-14
1.32844e-14
1.32989e-14
1.33114e-14
1.33222e-14
1.33314e-14
1.33393e-14
1.3346e-14
1.33516e-14
1.33564e-14
1.33604e-14
1.33638e-14
1.33667e-14
1.33691e-14
1.33711e-14
1.33727e-14
1.33741e-14
1.33752e-14
1.33761e-14
1.33768e-14
1.33773e-14
1.33777e-14
1.3378e-14
1.33781e-14
1.33781e-14
1.3378e-14
1.33777e-14
1.33773e-14
1.33768e-14
1.33761e-14
1.33752e-14
1.33741e-14
1.33727e-14
1.33711e-14
1.33691e-14
1.33667e-14
1.33638e-14
1.33604e-14
1.33564e-14
1.33516e-14
1.3346e-14
1.33393e-14
1.33314e-14
1.33222e-14
1.33114e-14
1.32989e-14
1.32844e-14
1.32678e-14
1.32488e-14
1.32273e-14
1.32032e-14
1.31769e-14
1.31488e-14
1.31179e-14
5.27246e-14
5.28548e-14
5.29755e-14
5.30893e-14
5.31931e-14
5.3286e-14
5.33681e-14
5.344e-14
5.35026e-14
5.35568e-14
5.36033e-14
5.36432e-14
5.36773e-14
5.37062e-14
5.37307e-14
5.37514e-14
5.37689e-14
5.37836e-14
5.37959e-14
5.38062e-14
5.38148e-14
5.38219e-14
5.38278e-14
5.38326e-14
5.38365e-14
5.38396e-14
5.38419e-14
5.38436e-14
5.38448e-14
5.38453e-14
5.38453e-14
5.38448e-14
5.38436e-14
5.38419e-14
5.38396e-14
5.38365e-14
5.38326e-14
5.38278e-14
5.38219e-14
5.38148e-14
5.38062e-14
5.37959e-14
5.37836e-14
5.37689e-14
5.37514e-14
5.37307e-14
5.37062e-14
5.36773e-14
5.36432e-14
5.36033e-14
5.35568e-14
5.35026e-14
5.344e-14
5.33681e-14
5.3286e-14
5.31931e-14
5.30893e-14
5.29755e-14
5.28548e-14
5.27246e-14
2.16439e-13
2.16999e-13
2.17526e-13
2.18024e-13
2.18479e-13
2.18887e-13
2.19247e-13
2.19563e-13
2.19838e-13
2.20075e-13
2.2028e-13
2.20455e-13
2.20605e-13
2.20732e-13
2.20839e-13
2.2093e-13
2.21007e-13
2.21072e-13
2.21126e-13
2.21171e-13
2.21209e-13
2.2124e-13
2.21266e-13
2.21287e-13
2.21304e-13
2.21318e-13
2.21328e-13
2.21336e-13
2.21341e-13
2.21343e-13
2.21343e-13
2.21341e-13
2.21336e-13
2.21328e-13
2.21318e-13
2.21304e-13
2.21287e-13
2.21266e-13
2.2124e-13
2.21209e-13
2.21171e-13
2.21126e-13
2.21072e-13
2.21007e-13
2.2093e-13
2.20839e-13
2.20732e-13
2.20605e-13
2.20455e-13
2.2028e-13
2.20075e-13
2.19838e-13
2.19563e-13
2.19247e-13
2.18887e-13
2.18479e-13
2.18024e-13
2.17526e-13
2.16999e-13
2.16439e-13
9.0565e-13
9.08094e-13
9.1043e-13
9.12644e-13
9.14668e-13
9.1648e-13
9.18083e-13
9.19488e-13
9.2071e-13
9.21768e-13
9.22678e-13
9.23458e-13
9.24124e-13
9.24689e-13
9.25169e-13
9.25574e-13
9.25916e-13
9.26203e-13
9.26445e-13
9.26646e-13
9.26815e-13
9.26954e-13
9.2707e-13
9.27164e-13
9.2724e-13
9.273e-13
9.27346e-13
9.2738e-13
9.27401e-13
9.27412e-13
9.27412e-13
9.27401e-13
9.2738e-13
9.27346e-13
9.273e-13
9.2724e-13
9.27164e-13
9.2707e-13
9.26954e-13
9.26815e-13
9.26646e-13
9.26445e-13
9.26203e-13
9.25916e-13
9.25574e-13
9.25169e-13
9.24689e-13
9.24124e-13
9.23458e-13
9.22678e-13
9.21768e-13
9.2071e-13
9.19488e-13
9.18083e-13
9.1648e-13
9.14668e-13
9.12644e-13
9.1043e-13
9.08094e-13
9.0565e-13
3.85325e-12
3.86408e-12
3.87455e-12
3.8845e-12
3.8936e-12
3.90175e-12
3.90896e-12
3.91528e-12
3.92078e-12
3.92554e-12
3.92964e-12
3.93315e-12
3.93614e-12
3.93869e-12
3.94085e-12
3.94267e-12
3.94421e-12
3.94551e-12
3.94659e-12
3.9475e-12
3.94826e-12
3.94889e-12
3.94941e-12
3.94983e-12
3.95017e-12
3.95045e-12
3.95065e-12
3.9508e-12
3.9509e-12
3.95095e-12
3.95095e-12
3.9509e-12
3.9508e-12
3.95065e-12
3.95045e-12
3.95017e-12
3.94983e-12
3.94941e-12
3.94889e-12
3.94826e-12
3.9475e-12
3.94659e-12
3.94551e-12
3.94421e-12
3.94267e-12
3.94085e-12
3.93869e-12
3.93614e-12
3.93315e-12
3.92964e-12
3.92554e-12
3.92078e-12
3.91528e-12
3.90896e-12
3.90175e-12
3.8936e-12
3.8845e-12
3.87455e-12
3.86408e-12
3.85325e-12
1.66211e-11
1.66696e-11
1.67169e-11
1.6762e-11
1.68033e-11
1.68403e-11
1.6873e-11
1.69016e-11
1.69266e-11
1.69482e-11
1.69668e-11
1.69827e-11
1.69963e-11
1.70079e-11
1.70177e-11
1.70259e-11
1.70329e-11
1.70388e-11
1.70437e-11
1.70479e-11
1.70513e-11
1.70542e-11
1.70565e-11
1.70585e-11
1.706e-11
1.70612e-11
1.70622e-11
1.70629e-11
1.70633e-11
1.70635e-11
1.70635e-11
1.70633e-11
1.70629e-11
1.70622e-11
1.70612e-11
1.706e-11
1.70585e-11
1.70565e-11
1.70542e-11
1.70513e-11
1.70479e-11
1.70437e-11
1.70388e-11
1.70329e-11
1.70259e-11
1.70177e-11
1.70079e-11
1.69963e-11
1.69827e-11
1.69668e-11
1.69482e-11
1.69266e-11
1.69016e-11
1.6873e-11
1.68403e-11
1.68033e-11
1.6762e-11
1.67169e-11
1.66696e-11
1.66211e-11
7.24335e-11
7.26518e-11
7.28673e-11
7.30727e-11
7.32607e-11
7.34291e-11
7.35782e-11
7.37089e-11
7.38227e-11
7.39211e-11
7.40059e-11
7.40785e-11
7.41405e-11
7.41932e-11
7.42379e-11
7.42757e-11
7.43076e-11
7.43344e-11
7.43569e-11
7.43758e-11
7.43915e-11
7.44045e-11
7.44153e-11
7.4424e-11
7.44311e-11
7.44368e-11
7.44411e-11
7.44442e-11
7.44462e-11
7.44472e-11
7.44472e-11
7.44462e-11
7.44442e-11
7.44411e-11
7.44368e-11
7.44311e-11
7.4424e-11
7.44153e-11
7.44045e-11
7.43915e-11
7.43758e-11
7.43569e-11
7.43344e-11
7.43076e-11
7.42757e-11
7.42379e-11
7.41932e-11
7.41405e-11
7.40785e-11
7.40059e-11
7.39211e-11
7.38227e-11
7.37089e-11
7.35782e-11
7.34291e-11
7.32607e-11
7.30727e-11
7.28673e-11
7.26518e-11
7.24335e-11
3.17596e-10
3.18583e-10
3.19564e-10
3.205e-10
3.21357e-10
3.22126e-10
3.22805e-10
3.23401e-10
3.2392e-10
3.24369e-10
3.24756e-10
3.25088e-10
3.2537e-10
3.25611e-10
3.25815e-10
3.25987e-10
3.26133e-10
3.26255e-10
3.26358e-10
3.26444e-10
3.26515e-10
3.26575e-10
3.26624e-10
3.26664e-10
3.26697e-10
3.26722e-10
3.26742e-10
3.26756e-10
3.26765e-10
3.2677e-10
3.2677e-10
3.26765e-10
3.26756e-10
3.26742e-10
3.26722e-10
3.26697e-10
3.26664e-10
3.26624e-10
3.26575e-10
3.26515e-10
3.26444e-10
3.26358e-10
3.26255e-10
3.26133e-10
3.25987e-10
3.25815e-10
3.25611e-10
3.2537e-10
3.25088e-10
3.24756e-10
3.24369e-10
3.2392e-10
3.23401e-10
3.22805e-10
3.22126e-10
3.21357e-10
3.205e-10
3.19564e-10
3.18583e-10
3.17596e-10
1.39438e-09
1.39882e-09
1.40328e-09
1.40753e-09
1.41142e-09
1.4149e-09
1.41799e-09
1.42069e-09
1.42305e-09
1.42509e-09
1.42685e-09
1.42835e-09
1.42964e-09
1.43073e-09
1.43165e-09
1.43244e-09
1.4331e-09
1.43365e-09
1.43412e-09
1.43451e-09
1.43484e-09
1.43511e-09
1.43533e-09
1.43551e-09
1.43566e-09
1.43578e-09
1.43586e-09
1.43593e-09
1.43597e-09
1.43599e-09
1.43599e-09
1.43597e-09
1.43593e-09
1.43586e-09
1.43578e-09
1.43566e-09
1.43551e-09
1.43533e-09
1.43511e-09
1.43484e-09
1.43451e-09
1.43412e-09
1.43365e-09
1.4331e-09
1.43244e-09
1.43165e-09
1.43073e-09
1.42964e-09
1.42835e-09
1.42685e-09
1.42509e-09
1.42305e-09
1.42069e-09
1.41799e-09
1.4149e-09
1.41142e-09
1.40753e-09
1.40328e-09
1.39882e-09
1.39438e-09
6.09596e-09
6.11582e-09
6.13582e-09
6.15491e-09
6.17238e-09
6.18805e-09
6.20191e-09
6.21407e-09
6.22466e-09
6.23382e-09
6.24171e-09
6.24847e-09
6.25424e-09
6.25915e-09
6.26332e-09
6.26684e-09
6.26981e-09
6.27231e-09
6.2744e-09
6.27616e-09
6.27762e-09
6.27883e-09
6.27984e-09
6.28066e-09
6.28132e-09
6.28184e-09
6.28224e-09
6.28253e-09
6.28272e-09
6.28281e-09
6.28281e-09
6.28272e-09
6.28253e-09
6.28224e-09
6.28184e-09
6.28132e-09
6.28066e-09
6.27984e-09
6.27883e-09
6.27762e-09
6.27616e-09
6.2744e-09
6.27231e-09
6.26981e-09
6.26684e-09
6.26332e-09
6.25915e-09
6.25424e-09
6.24847e-09
6.24171e-09
6.23382e-09
6.22466e-09
6.21407e-09
6.20191e-09
6.18805e-09
6.17238e-09
6.15491e-09
6.13582e-09
6.11582e-09
6.09596e-09
2.63689e-08
2.64563e-08
2.65446e-08
2.66289e-08
2.67061e-08
2.67752e-08
2.68365e-08
2.68902e-08
2.69369e-08
2.69774e-08
2.70122e-08
2.70421e-08
2.70676e-08
2.70893e-08
2.71076e-08
2.71232e-08
2.71363e-08
2.71473e-08
2.71566e-08
2.71644e-08
2.71708e-08
2.71762e-08
2.71806e-08
2.71842e-08
2.71872e-08
2.71895e-08
2.71912e-08
2.71925e-08
2.71934e-08
2.71938e-08
2.71938e-08
2.71934e-08
2.71925e-08
2.71912e-08
2.71895e-08
2.71872e-08
2.71842e-08
2.71806e-08
2.71762e-08
2.71708e-08
2.71644e-08
2.71566e-08
2.71473e-08
2.71363e-08
2.71232e-08
2.71076e-08
2.70893e-08
2.70676e-08
2.70421e-08
2.70122e-08
2.69774e-08
2.69369e-08
2.68902e-08
2.68365e-08
2.67752e-08
2.67061e-08
2.66289e-08
2.65446e-08
2.64563e-08
2.63689e-08
1.12043e-07
1.12418e-07
1.12799e-07
1.13162e-07
1.13495e-07
1.13792e-07
1.14056e-07
1.14287e-07
1.14489e-07
1.14663e-07
1.14813e-07
1.14942e-07
1.15051e-07
1.15145e-07
1.15224e-07
1.15291e-07
1.15347e-07
1.15395e-07
1.15435e-07
1.15468e-07
1.15496e-07
1.15519e-07
1.15538e-07
1.15554e-07
1.15566e-07
1.15576e-07
1.15584e-07
1.15589e-07
1.15593e-07
1.15595e-07
1.15595e-07
1.15593e-07
1.15589e-07
1.15584e-07
1.15576e-07
1.15566e-07
1.15554e-07
1.15538e-07
1.15519e-07
1.15496e-07
1.15468e-07
1.15435e-07
1.15395e-07
1.15347e-07
1.15291e-07
1.15224e-07
1.15145e-07
1.15051e-07
1.14942e-07
1.14813e-07
1.14663e-07
1.14489e-07
1.14287e-07
1.14056e-07
1.13792e-07
1.13495e-07
1.13162e-07
1.12799e-07
1.12418e-07
1.12043e-07
4.63839e-07
4.65403e-07
4.66989e-07
4.68502e-07
4.69885e-07
4.71125e-07
4.72222e-07
4.73184e-07
4.74022e-07
4.74748e-07
4.75372e-07
4.75907e-07
4.76364e-07
4.76753e-07
4.77082e-07
4.77361e-07
4.77596e-07
4.77794e-07
4.7796e-07
4.78099e-07
4.78215e-07
4.78311e-07
4.78391e-07
4.78456e-07
4.78508e-07
4.78549e-07
4.78581e-07
4.78604e-07
4.78619e-07
4.78626e-07
4.78626e-07
4.78619e-07
4.78604e-07
4.78581e-07
4.78549e-07
4.78508e-07
4.78456e-07
4.78391e-07
4.78311e-07
4.78215e-07
4.78099e-07
4.7796e-07
4.77794e-07
4.77596e-07
4.77361e-07
4.77082e-07
4.76753e-07
4.76364e-07
4.75907e-07
4.75372e-07
4.74748e-07
4.74022e-07
4.73184e-07
4.72222e-07
4.71125e-07
4.69885e-07
4.68502e-07
4.66989e-07
4.65403e-07
4.63839e-07
1.85379e-06
1.86003e-06
1.86636e-06
1.87238e-06
1.87789e-06
1.88283e-06
1.8872e-06
1.89103e-06
1.89437e-06
1.89726e-06
1.89974e-06
1.90187e-06
1.90369e-06
1.90524e-06
1.90655e-06
1.90766e-06
1.9086e-06
1.90939e-06
1.91005e-06
1.9106e-06
1.91106e-06
1.91144e-06
1.91176e-06
1.91202e-06
1.91223e-06
1.91239e-06
1.91252e-06
1.91261e-06
1.91267e-06
1.9127e-06
1.9127e-06
1.91267e-06
1.91261e-06
1.91252e-06
1.91239e-06
1.91223e-06
1.91202e-06
1.91176e-06
1.91144e-06
1.91106e-06
1.9106e-06
1.91005e-06
1.90939e-06
1.9086e-06
1.90766e-06
1.90655e-06
1.90524e-06
1.90369e-06
1.90187e-06
1.89974e-06
1.89726e-06
1.89437e-06
1.89103e-06
1.8872e-06
1.88283e-06
1.87789e-06
1.87238e-06
1.86636e-06
1.86003e-06
1.85379e-06
7.07975e-06
7.10333e-06
7.12723e-06
7.14995e-06
7.17071e-06
7.18931e-06
7.20576e-06
7.22018e-06
7.23275e-06
7.24362e-06
7.25298e-06
7.261e-06
7.26785e-06
7.27368e-06
7.27862e-06
7.2828e-06
7.28632e-06
7.28929e-06
7.29178e-06
7.29386e-06
7.2956e-06
7.29704e-06
7.29823e-06
7.29921e-06
7.29999e-06
7.30061e-06
7.30109e-06
7.30144e-06
7.30166e-06
7.30177e-06
7.30177e-06
7.30166e-06
7.30144e-06
7.30109e-06
7.30061e-06
7.29999e-06
7.29921e-06
7.29823e-06
7.29704e-06
7.2956e-06
7.29386e-06
7.29178e-06
7.28929e-06
7.28632e-06
7.2828e-06
7.27862e-06
7.27368e-06
7.26785e-06
7.261e-06
7.25298e-06
7.24362e-06
7.23275e-06
7.22018e-06
7.20576e-06
7.18931e-06
7.17071e-06
7.14995e-06
7.12723e-06
7.10333e-06
7.07975e-06
2.55445e-05
2.56279e-05
2.57121e-05
2.57921e-05
2.58651e-05
2.59305e-05
2.59883e-05
2.6039e-05
2.60832e-05
2.61214e-05
2.61543e-05
2.61825e-05
2.62065e-05
2.6227e-05
2.62444e-05
2.62591e-05
2.62714e-05
2.62819e-05
2.62906e-05
2.62979e-05
2.6304e-05
2.63091e-05
2.63133e-05
2.63167e-05
2.63195e-05
2.63217e-05
2.63233e-05
2.63245e-05
2.63253e-05
2.63257e-05
2.63257e-05
2.63253e-05
2.63245e-05
2.63233e-05
2.63217e-05
2.63195e-05
2.63167e-05
2.63133e-05
2.63091e-05
2.6304e-05
2.62979e-05
2.62906e-05
2.62819e-05
2.62714e-05
2.62591e-05
2.62444e-05
2.6227e-05
2.62065e-05
2.61825e-05
2.61543e-05
2.61214e-05
2.60832e-05
2.6039e-05
2.59883e-05
2.59305e-05
2.58651e-05
2.57921e-05
2.57121e-05
2.56279e-05
2.55445e-05
8.59852e-05
8.62567e-05
8.653e-05
8.67888e-05
8.70249e-05
8.72363e-05
8.74232e-05
8.75871e-05
8.77298e-05
8.78532e-05
8.79595e-05
8.80506e-05
8.81284e-05
8.81945e-05
8.82506e-05
8.82981e-05
8.83381e-05
8.83718e-05
8.84001e-05
8.84238e-05
8.84435e-05
8.84599e-05
8.84734e-05
8.84844e-05
8.84934e-05
8.85004e-05
8.85058e-05
8.85097e-05
8.85123e-05
8.85135e-05
8.85135e-05
8.85123e-05
8.85097e-05
8.85058e-05
8.85004e-05
8.84934e-05
8.84844e-05
8.84734e-05
8.84599e-05
8.84435e-05
8.84238e-05
8.84001e-05
8.83718e-05
8.83381e-05
8.82981e-05
8.82506e-05
8.81945e-05
8.81284e-05
8.80506e-05
8.79595e-05
8.78532e-05
8.77298e-05
8.75871e-05
8.74232e-05
8.72363e-05
8.70249e-05
8.67888e-05
8.653e-05
8.62567e-05
8.59852e-05
0.000266313
0.000267114
0.000267916
0.000268673
0.000269364
0.000269981
0.000270528
0.000271006
0.000271423
0.000271784
0.000272094
0.00027236
0.000272588
0.000272781
0.000272945
0.000273083
0.0002732
0.000273299
0.000273381
0.00027345
0.000273508
0.000273556
0.000273595
0.000273628
0.000273654
0.000273674
0.00027369
0.000273702
0.000273709
0.000273713
0.000273713
0.000273709
0.000273702
0.00027369
0.000273674
0.000273654
0.000273628
0.000273595
0.000273556
0.000273508
0.00027345
0.000273381
0.000273299
0.0002732
0.000273083
0.000272945
0.000272781
0.000272588
0.00027236
0.000272094
0.000271784
0.000271423
0.000271006
0.000270528
0.000269981
0.000269364
0.000268673
0.000267916
0.000267114
0.000266313
0.000747849
0.000749948
0.000752037
0.000754005
0.000755797
0.000757399
0.000758815
0.000760057
0.000761137
0.000762072
0.000762876
0.000763566
0.000764154
0.000764655
0.00076508
0.000765439
0.000765742
0.000765997
0.000766211
0.00076639
0.00076654
0.000766664
0.000766766
0.00076685
0.000766917
0.000766971
0.000767012
0.000767041
0.000767061
0.00076707
0.00076707
0.000767061
0.000767041
0.000767012
0.000766971
0.000766917
0.00076685
0.000766766
0.000766664
0.00076654
0.00076639
0.000766211
0.000765997
0.000765742
0.000765439
0.00076508
0.000764655
0.000764154
0.000763566
0.000762876
0.000762072
0.000761137
0.000760057
0.000758815
0.000757399
0.000755797
0.000754005
0.000752037
0.000749948
0.000747849
0.00187668
0.00188148
0.00188622
0.00189067
0.00189472
0.00189834
0.00190153
0.00190434
0.00190677
0.00190888
0.0019107
0.00191225
0.00191358
0.00191471
0.00191567
0.00191648
0.00191716
0.00191774
0.00191822
0.00191863
0.00191896
0.00191924
0.00191948
0.00191966
0.00191982
0.00191994
0.00192003
0.0019201
0.00192014
0.00192016
0.00192016
0.00192014
0.0019201
0.00192003
0.00191994
0.00191982
0.00191966
0.00191948
0.00191924
0.00191896
0.00191863
0.00191822
0.00191774
0.00191716
0.00191648
0.00191567
0.00191471
0.00191358
0.00191225
0.0019107
0.00190888
0.00190677
0.00190434
0.00190153
0.00189834
0.00189472
0.00189067
0.00188622
0.00188148
0.00187668
0.00415845
0.00416788
0.00417711
0.00418575
0.0041936
0.00420061
0.0042068
0.00421223
0.00421694
0.00422103
0.00422454
0.00422755
0.00423012
0.00423231
0.00423416
0.00423573
0.00423705
0.00423817
0.0042391
0.00423988
0.00424054
0.00424108
0.00424153
0.00424189
0.00424219
0.00424242
0.0042426
0.00424273
0.00424281
0.00424286
0.00424286
0.00424281
0.00424273
0.0042426
0.00424242
0.00424219
0.00424189
0.00424153
0.00424108
0.00424054
0.00423988
0.0042391
0.00423817
0.00423705
0.00423573
0.00423416
0.00423231
0.00423012
0.00422755
0.00422454
0.00422103
0.00421694
0.00421223
0.0042068
0.00420061
0.0041936
0.00418575
0.00417711
0.00416788
0.00415845
0.0080891
0.00810493
0.00812027
0.00813458
0.00814755
0.00815913
0.00816935
0.0081783
0.00818609
0.00819283
0.00819863
0.00820359
0.00820784
0.00821145
0.00821451
0.0082171
0.00821928
0.00822112
0.00822267
0.00822396
0.00822504
0.00822593
0.00822667
0.00822728
0.00822777
0.00822815
0.00822845
0.00822866
0.0082288
0.00822887
0.00822887
0.0082288
0.00822866
0.00822845
0.00822815
0.00822777
0.00822728
0.00822667
0.00822593
0.00822504
0.00822396
0.00822267
0.00822112
0.00821928
0.0082171
0.00821451
0.00821145
0.00820784
0.00820359
0.00819863
0.00819283
0.00818609
0.0081783
0.00816935
0.00815913
0.00814755
0.00813458
0.00812027
0.00810493
0.0080891
0.0138619
0.0138848
0.0139068
0.0139272
0.0139457
0.0139622
0.0139767
0.0139894
0.0140005
0.0140101
0.0140183
0.0140254
0.0140314
0.0140366
0.0140409
0.0140446
0.0140477
0.0140503
0.0140525
0.0140544
0.0140559
0.0140572
0.0140582
0.0140591
0.0140598
0.0140604
0.0140608
0.0140611
0.0140613
0.0140614
0.0140614
0.0140613
0.0140611
0.0140608
0.0140604
0.0140598
0.0140591
0.0140582
0.0140572
0.0140559
0.0140544
0.0140525
0.0140503
0.0140477
0.0140446
0.0140409
0.0140366
0.0140314
0.0140254
0.0140183
0.0140101
0.0140005
0.0139894
0.0139767
0.0139622
0.0139457
0.0139272
0.0139068
0.0138848
0.0138619
0.0212129
0.0212423
0.0212702
0.0212959
0.0213192
0.0213399
0.0213582
0.0213743
0.0213882
0.0214003
0.0214107
0.0214196
0.0214272
0.0214336
0.0214391
0.0214438
0.0214477
0.021451
0.0214538
0.0214561
0.021458
0.0214596
0.021461
0.0214621
0.0214629
0.0214636
0.0214642
0.0214645
0.0214648
0.0214649
0.0214649
0.0214648
0.0214645
0.0214642
0.0214636
0.0214629
0.0214621
0.021461
0.0214596
0.021458
0.0214561
0.0214538
0.021451
0.0214477
0.0214438
0.0214391
0.0214336
0.0214272
0.0214196
0.0214107
0.0214003
0.0213882
0.0213743
0.0213582
0.0213399
0.0213192
0.0212959
0.0212702
0.0212423
0.0212129
0.0295924
0.0296271
0.0296595
0.0296894
0.0297163
0.0297403
0.0297615
0.02978
0.0297962
0.0298101
0.0298221
0.0298324
0.0298413
0.0298487
0.0298551
0.0298605
0.029865
0.0298689
0.0298721
0.0298748
0.029877
0.0298789
0.0298805
0.0298817
0.0298827
0.0298836
0.0298842
0.0298846