/*--------------------------------*- C++ -*----------------------------------*\
| =========                 |                                                 |
| \\      /  F ield         | foam-extend: Open Source CFD                    |
|  \\    /   O peration     | Version:     4.0                                |
|   \\  /    A nd           | Web:         http://www.foam-extend.org         |
|    \\/     M anipulation  |                                                 |
\*---------------------------------------------------------------------------*/
FoamFile
{
    version     2.0;
    format      ascii;
    class       volScalarField;
    location    "280";
    object      psiE;
}
// * * * * * * * * * * * * * * * * * * * * * * * * * * * * * * * * * * * * * //

dimensions      [0 0 0 0 0 0 0];

internalField   nonuniform List<scalar> 
6960
(
0.189699
0.189674
0.189669
0.189667
0.189667
0.189666
0.189666
0.189666
0.189667
0.189667
0.189667
0.189668
0.189668
0.189668
0.189669
0.189669
0.189669
0.18967
0.18967
0.18967
0.189671
0.189671
0.189671
0.189671
0.189672
0.189672
0.189672
0.189672
0.189672
0.189672
0.189672
0.189672
0.189672
0.189672
0.189672
0.189672
0.189671
0.189671
0.189671
0.189671
0.18967
0.18967
0.18967
0.189669
0.189669
0.189669
0.189668
0.189668
0.189668
0.189667
0.189667
0.189667
0.189666
0.189666
0.189666
0.189667
0.189667
0.189669
0.189674
0.189699
0.366153
0.366099
0.366087
0.366083
0.366081
0.366081
0.366081
0.366081
0.366082
0.366083
0.366084
0.366085
0.366086
0.366088
0.366089
0.36609
0.366091
0.366092
0.366093
0.366094
0.366095
0.366096
0.366096
0.366097
0.366098
0.366098
0.366098
0.366099
0.366099
0.366099
0.366099
0.366099
0.366099
0.366098
0.366098
0.366098
0.366097
0.366096
0.366096
0.366095
0.366094
0.366093
0.366092
0.366091
0.36609
0.366089
0.366088
0.366086
0.366085
0.366084
0.366083
0.366082
0.366081
0.366081
0.366081
0.366081
0.366083
0.366087
0.366099
0.366153
0.463245
0.463176
0.463159
0.463154
0.463152
0.463151
0.463152
0.463153
0.463154
0.463156
0.463158
0.46316
0.463162
0.463164
0.463166
0.463168
0.46317
0.463172
0.463174
0.463175
0.463177
0.463178
0.463179
0.46318
0.463181
0.463182
0.463183
0.463183
0.463183
0.463184
0.463184
0.463183
0.463183
0.463183
0.463182
0.463181
0.46318
0.463179
0.463178
0.463177
0.463175
0.463174
0.463172
0.46317
0.463168
0.463166
0.463164
0.463162
0.46316
0.463158
0.463156
0.463154
0.463153
0.463152
0.463151
0.463152
0.463154
0.463159
0.463176
0.463245
0.528534
0.528458
0.528439
0.528432
0.52843
0.52843
0.52843
0.528432
0.528434
0.528437
0.52844
0.528443
0.528446
0.528449
0.528451
0.528454
0.528457
0.52846
0.528462
0.528465
0.528467
0.528469
0.528471
0.528472
0.528473
0.528475
0.528475
0.528476
0.528477
0.528477
0.528477
0.528477
0.528476
0.528475
0.528475
0.528473
0.528472
0.528471
0.528469
0.528467
0.528465
0.528462
0.52846
0.528457
0.528454
0.528451
0.528449
0.528446
0.528443
0.52844
0.528437
0.528434
0.528432
0.52843
0.52843
0.52843
0.528432
0.528439
0.528458
0.528534
0.581147
0.581068
0.581047
0.581039
0.581037
0.581037
0.581039
0.581041
0.581044
0.581048
0.581051
0.581055
0.581059
0.581063
0.581067
0.581071
0.581074
0.581078
0.581081
0.581084
0.581087
0.58109
0.581092
0.581094
0.581096
0.581097
0.581098
0.581099
0.5811
0.5811
0.5811
0.5811
0.581099
0.581098
0.581097
0.581096
0.581094
0.581092
0.58109
0.581087
0.581084
0.581081
0.581078
0.581074
0.581071
0.581067
0.581063
0.581059
0.581055
0.581051
0.581048
0.581044
0.581041
0.581039
0.581037
0.581037
0.581039
0.581047
0.581068
0.581147
0.628473
0.628394
0.628371
0.628363
0.628361
0.628361
0.628363
0.628366
0.62837
0.628375
0.628379
0.628384
0.628389
0.628394
0.628399
0.628404
0.628408
0.628413
0.628417
0.628421
0.628424
0.628427
0.62843
0.628433
0.628435
0.628437
0.628438
0.628439
0.62844
0.628441
0.628441
0.62844
0.628439
0.628438
0.628437
0.628435
0.628433
0.62843
0.628427
0.628424
0.628421
0.628417
0.628413
0.628408
0.628404
0.628399
0.628394
0.628389
0.628384
0.628379
0.628375
0.62837
0.628366
0.628363
0.628361
0.628361
0.628363
0.628371
0.628394
0.628473
0.673314
0.673234
0.67321
0.673202
0.6732
0.673201
0.673204
0.673208
0.673212
0.673218
0.673223
0.673229
0.673235
0.673241
0.673247
0.673253
0.673258
0.673264
0.673269
0.673273
0.673278
0.673282
0.673285
0.673288
0.673291
0.673293
0.673295
0.673296
0.673297
0.673297
0.673297
0.673297
0.673296
0.673295
0.673293
0.673291
0.673288
0.673285
0.673282
0.673278
0.673273
0.673269
0.673264
0.673258
0.673253
0.673247
0.673241
0.673235
0.673229
0.673223
0.673218
0.673212
0.673208
0.673204
0.673201
0.6732
0.673202
0.67321
0.673234
0.673314
0.716781
0.716701
0.716676
0.716668
0.716666
0.716667
0.716671
0.716675
0.716681
0.716687
0.716694
0.716701
0.716708
0.716715
0.716722
0.716729
0.716735
0.716742
0.716748
0.716753
0.716758
0.716763
0.716767
0.71677
0.716773
0.716776
0.716778
0.71678
0.716781
0.716781
0.716781
0.716781
0.71678
0.716778
0.716776
0.716773
0.71677
0.716767
0.716763
0.716758
0.716753
0.716748
0.716742
0.716735
0.716729
0.716722
0.716715
0.716708
0.716701
0.716694
0.716687
0.716681
0.716675
0.716671
0.716667
0.716666
0.716668
0.716676
0.716701
0.716781
0.759387
0.759308
0.759282
0.759274
0.759272
0.759274
0.759278
0.759284
0.75929
0.759297
0.759305
0.759313
0.759321
0.75933
0.759338
0.759346
0.759353
0.75936
0.759367
0.759373
0.759379
0.759385
0.759389
0.759393
0.759397
0.7594
0.759402
0.759404
0.759405
0.759406
0.759406
0.759405
0.759404
0.759402
0.7594
0.759397
0.759393
0.759389
0.759385
0.759379
0.759373
0.759367
0.75936
0.759353
0.759346
0.759338
0.75933
0.759321
0.759313
0.759305
0.759297
0.75929
0.759284
0.759278
0.759274
0.759272
0.759274
0.759282
0.759308
0.759387
0.801435
0.801356
0.80133
0.801321
0.80132
0.801322
0.801327
0.801334
0.801341
0.80135
0.801358
0.801368
0.801377
0.801386
0.801396
0.801405
0.801413
0.801421
0.801429
0.801436
0.801443
0.801449
0.801454
0.801459
0.801463
0.801466
0.801469
0.801471
0.801472
0.801473
0.801473
0.801472
0.801471
0.801469
0.801466
0.801463
0.801459
0.801454
0.801449
0.801443
0.801436
0.801429
0.801421
0.801413
0.801405
0.801396
0.801386
0.801377
0.801368
0.801358
0.80135
0.801341
0.801334
0.801327
0.801322
0.80132
0.801321
0.80133
0.801356
0.801435
0.843143
0.843065
0.843038
0.843029
0.843028
0.843031
0.843037
0.843044
0.843053
0.843062
0.843072
0.843083
0.843093
0.843104
0.843114
0.843124
0.843134
0.843143
0.843152
0.84316
0.843167
0.843174
0.84318
0.843185
0.84319
0.843194
0.843197
0.843199
0.8432
0.843201
0.843201
0.8432
0.843199
0.843197
0.843194
0.84319
0.843185
0.84318
0.843174
0.843167
0.84316
0.843152
0.843143
0.843134
0.843124
0.843114
0.843104
0.843093
0.843083
0.843072
0.843062
0.843053
0.843044
0.843037
0.843031
0.843028
0.843029
0.843038
0.843065
0.843143
0.884689
0.884612
0.884584
0.884575
0.884575
0.884579
0.884585
0.884593
0.884603
0.884613
0.884625
0.884636
0.884648
0.88466
0.884671
0.884683
0.884693
0.884704
0.884713
0.884722
0.884731
0.884738
0.884745
0.884751
0.884756
0.88476
0.884763
0.884766
0.884768
0.884769
0.884769
0.884768
0.884766
0.884763
0.88476
0.884756
0.884751
0.884745
0.884738
0.884731
0.884722
0.884713
0.884704
0.884693
0.884683
0.884671
0.88466
0.884648
0.884636
0.884625
0.884613
0.884603
0.884593
0.884585
0.884579
0.884575
0.884575
0.884584
0.884612
0.884689
0.926227
0.926151
0.926123
0.926115
0.926115
0.926119
0.926126
0.926135
0.926146
0.926158
0.92617
0.926183
0.926196
0.926209
0.926222
0.926234
0.926246
0.926258
0.926268
0.926278
0.926288
0.926296
0.926303
0.92631
0.926315
0.92632
0.926324
0.926327
0.926329
0.926329
0.926329
0.926329
0.926327
0.926324
0.92632
0.926315
0.92631
0.926303
0.926296
0.926288
0.926278
0.926268
0.926258
0.926246
0.926234
0.926222
0.926209
0.926196
0.926183
0.92617
0.926158
0.926146
0.926135
0.926126
0.926119
0.926115
0.926115
0.926123
0.926151
0.926227
0.967895
0.967821
0.967792
0.967784
0.967784
0.967789
0.967797
0.967808
0.967819
0.967832
0.967846
0.96786
0.967874
0.967889
0.967903
0.967917
0.96793
0.967942
0.967954
0.967965
0.967975
0.967984
0.967992
0.967999
0.968006
0.968011
0.968015
0.968018
0.96802
0.968021
0.968021
0.96802
0.968018
0.968015
0.968011
0.968006
0.967999
0.967992
0.967984
0.967975
0.967965
0.967954
0.967942
0.96793
0.967917
0.967903
0.967889
0.967874
0.96786
0.967846
0.967832
0.967819
0.967808
0.967797
0.967789
0.967784
0.967784
0.967792
0.967821
0.967895
1.00982
1.00974
1.00972
1.00971
1.00971
1.00971
1.00972
1.00973
1.00975
1.00976
1.00978
1.00979
1.00981
1.00982
1.00984
1.00985
1.00987
1.00988
1.00989
1.00991
1.00992
1.00993
1.00994
1.00994
1.00995
1.00996
1.00996
1.00996
1.00997
1.00997
1.00997
1.00997
1.00996
1.00996
1.00996
1.00995
1.00994
1.00994
1.00993
1.00992
1.00991
1.00989
1.00988
1.00987
1.00985
1.00984
1.00982
1.00981
1.00979
1.00978
1.00976
1.00975
1.00973
1.00972
1.00971
1.00971
1.00971
1.00972
1.00974
1.00982
1.05211
1.05203
1.05201
1.052
1.052
1.05201
1.05202
1.05203
1.05204
1.05206
1.05207
1.05209
1.05211
1.05212
1.05214
1.05216
1.05217
1.05219
1.0522
1.05221
1.05223
1.05224
1.05225
1.05226
1.05226
1.05227
1.05227
1.05228
1.05228
1.05228
1.05228
1.05228
1.05228
1.05227
1.05227
1.05226
1.05226
1.05225
1.05224
1.05223
1.05221
1.0522
1.05219
1.05217
1.05216
1.05214
1.05212
1.05211
1.05209
1.05207
1.05206
1.05204
1.05203
1.05202
1.05201
1.052
1.052
1.05201
1.05203
1.05211
1.09487
1.0948
1.09477
1.09476
1.09476
1.09477
1.09478
1.09479
1.09481
1.09483
1.09484
1.09486
1.09488
1.0949
1.09492
1.09493
1.09495
1.09497
1.09498
1.095
1.09501
1.09502
1.09503
1.09504
1.09505
1.09506
1.09506
1.09506
1.09507
1.09507
1.09507
1.09507
1.09506
1.09506
1.09506
1.09505
1.09504
1.09503
1.09502
1.09501
1.095
1.09498
1.09497
1.09495
1.09493
1.09492
1.0949
1.09488
1.09486
1.09484
1.09483
1.09481
1.09479
1.09478
1.09477
1.09476
1.09476
1.09477
1.0948
1.09487
1.1382
1.13813
1.1381
1.13809
1.1381
1.1381
1.13812
1.13813
1.13815
1.13817
1.13818
1.1382
1.13822
1.13824
1.13826
1.13828
1.1383
1.13832
1.13833
1.13835
1.13836
1.13838
1.13839
1.1384
1.13841
1.13841
1.13842
1.13842
1.13843
1.13843
1.13843
1.13843
1.13842
1.13842
1.13841
1.13841
1.1384
1.13839
1.13838
1.13836
1.13835
1.13833
1.13832
1.1383
1.13828
1.13826
1.13824
1.13822
1.1382
1.13818
1.13817
1.13815
1.13813
1.13812
1.1381
1.1381
1.13809
1.1381
1.13813
1.1382
1.18219
1.18213
1.1821
1.18209
1.18209
1.1821
1.18211
1.18213
1.18215
1.18217
1.18219
1.18221
1.18223
1.18225
1.18227
1.18229
1.18231
1.18233
1.18235
1.18237
1.18238
1.18239
1.18241
1.18242
1.18243
1.18243
1.18244
1.18245
1.18245
1.18245
1.18245
1.18245
1.18245
1.18244
1.18243
1.18243
1.18242
1.18241
1.18239
1.18238
1.18237
1.18235
1.18233
1.18231
1.18229
1.18227
1.18225
1.18223
1.18221
1.18219
1.18217
1.18215
1.18213
1.18211
1.1821
1.18209
1.18209
1.1821
1.18213
1.18219
1.22694
1.22687
1.22684
1.22684
1.22684
1.22685
1.22686
1.22688
1.2269
1.22692
1.22694
1.22697
1.22699
1.22701
1.22703
1.22706
1.22708
1.2271
1.22712
1.22713
1.22715
1.22716
1.22718
1.22719
1.2272
1.22721
1.22721
1.22722
1.22722
1.22722
1.22722
1.22722
1.22722
1.22721
1.22721
1.2272
1.22719
1.22718
1.22716
1.22715
1.22713
1.22712
1.2271
1.22708
1.22706
1.22703
1.22701
1.22699
1.22697
1.22694
1.22692
1.2269
1.22688
1.22686
1.22685
1.22684
1.22684
1.22684
1.22687
1.22694
1.27252
1.27245
1.27242
1.27242
1.27242
1.27243
1.27245
1.27247
1.27249
1.27251
1.27253
1.27256
1.27258
1.27261
1.27263
1.27265
1.27268
1.2727
1.27272
1.27274
1.27275
1.27277
1.27278
1.2728
1.27281
1.27282
1.27282
1.27283
1.27283
1.27283
1.27283
1.27283
1.27283
1.27282
1.27282
1.27281
1.2728
1.27278
1.27277
1.27275
1.27274
1.27272
1.2727
1.27268
1.27265
1.27263
1.27261
1.27258
1.27256
1.27253
1.27251
1.27249
1.27247
1.27245
1.27243
1.27242
1.27242
1.27242
1.27245
1.27252
1.31901
1.31895
1.31892
1.31891
1.31892
1.31893
1.31895
1.31897
1.31899
1.31901
1.31904
1.31906
1.31909
1.31912
1.31914
1.31917
1.31919
1.31921
1.31923
1.31925
1.31927
1.31929
1.3193
1.31932
1.31933
1.31934
1.31935
1.31935
1.31936
1.31936
1.31936
1.31936
1.31935
1.31935
1.31934
1.31933
1.31932
1.3193
1.31929
1.31927
1.31925
1.31923
1.31921
1.31919
1.31917
1.31914
1.31912
1.31909
1.31906
1.31904
1.31901
1.31899
1.31897
1.31895
1.31893
1.31892
1.31891
1.31892
1.31895
1.31901
1.36649
1.36643
1.36641
1.3664
1.36641
1.36642
1.36644
1.36646
1.36648
1.36651
1.36653
1.36656
1.36659
1.36662
1.36664
1.36667
1.3667
1.36672
1.36674
1.36677
1.36678
1.3668
1.36682
1.36683
1.36684
1.36685
1.36686
1.36687
1.36687
1.36687
1.36687
1.36687
1.36687
1.36686
1.36685
1.36684
1.36683
1.36682
1.3668
1.36678
1.36677
1.36674
1.36672
1.3667
1.36667
1.36664
1.36662
1.36659
1.36656
1.36653
1.36651
1.36648
1.36646
1.36644
1.36642
1.36641
1.3664
1.36641
1.36643
1.36649
1.41504
1.41499
1.41496
1.41496
1.41496
1.41498
1.41499
1.41502
1.41504
1.41507
1.4151
1.41513
1.41516
1.41519
1.41522
1.41524
1.41527
1.4153
1.41532
1.41534
1.41536
1.41538
1.4154
1.41542
1.41543
1.41544
1.41545
1.41545
1.41546
1.41546
1.41546
1.41546
1.41545
1.41545
1.41544
1.41543
1.41542
1.4154
1.41538
1.41536
1.41534
1.41532
1.4153
1.41527
1.41524
1.41522
1.41519
1.41516
1.41513
1.4151
1.41507
1.41504
1.41502
1.41499
1.41498
1.41496
1.41496
1.41496
1.41499
1.41504
1.46474
1.46468
1.46465
1.46465
1.46466
1.46467
1.46469
1.46472
1.46474
1.46477
1.4648
1.46483
1.46486
1.4649
1.46493
1.46496
1.46499
1.46501
1.46504
1.46506
1.46509
1.46511
1.46512
1.46514
1.46515
1.46516
1.46517
1.46518
1.46518
1.46519
1.46519
1.46518
1.46518
1.46517
1.46516
1.46515
1.46514
1.46512
1.46511
1.46509
1.46506
1.46504
1.46501
1.46499
1.46496
1.46493
1.4649
1.46486
1.46483
1.4648
1.46477
1.46474
1.46472
1.46469
1.46467
1.46466
1.46465
1.46465
1.46468
1.46474
1.51564
1.51558
1.51556
1.51556
1.51556
1.51558
1.5156
1.51563
1.51565
1.51569
1.51572
1.51575
1.51578
1.51582
1.51585
1.51588
1.51591
1.51594
1.51597
1.51599
1.51602
1.51604
1.51606
1.51607
1.51609
1.5161
1.51611
1.51612
1.51612
1.51612
1.51612
1.51612
1.51612
1.51611
1.5161
1.51609
1.51607
1.51606
1.51604
1.51602
1.51599
1.51597
1.51594
1.51591
1.51588
1.51585
1.51582
1.51578
1.51575
1.51572
1.51569
1.51565
1.51563
1.5156
1.51558
1.51556
1.51556
1.51556
1.51558
1.51564
1.56782
1.56777
1.56775
1.56774
1.56775
1.56777
1.56779
1.56782
1.56785
1.56788
1.56792
1.56795
1.56799
1.56802
1.56806
1.56809
1.56812
1.56815
1.56818
1.56821
1.56823
1.56826
1.56828
1.56829
1.56831
1.56832
1.56833
1.56834
1.56834
1.56835
1.56835
1.56834
1.56834
1.56833
1.56832
1.56831
1.56829
1.56828
1.56826
1.56823
1.56821
1.56818
1.56815
1.56812
1.56809
1.56806
1.56802
1.56799
1.56795
1.56792
1.56788
1.56785
1.56782
1.56779
1.56777
1.56775
1.56774
1.56775
1.56777
1.56782
1.62135
1.6213
1.62128
1.62128
1.62129
1.62131
1.62133
1.62136
1.62139
1.62143
1.62146
1.6215
1.62154
1.62158
1.62161
1.62165
1.62168
1.62171
1.62174
1.62177
1.6218
1.62182
1.62184
1.62186
1.62188
1.62189
1.6219
1.62191
1.62192
1.62192
1.62192
1.62192
1.62191
1.6219
1.62189
1.62188
1.62186
1.62184
1.62182
1.6218
1.62177
1.62174
1.62171
1.62168
1.62165
1.62161
1.62158
1.62154
1.6215
1.62146
1.62143
1.62139
1.62136
1.62133
1.62131
1.62129
1.62128
1.62128
1.6213
1.62135
1.6763
1.67626
1.67624
1.67623
1.67625
1.67627
1.67629
1.67632
1.67635
1.67639
1.67643
1.67647
1.67651
1.67655
1.67659
1.67662
1.67666
1.67669
1.67673
1.67676
1.67678
1.67681
1.67683
1.67685
1.67687
1.67688
1.67689
1.6769
1.67691
1.67691
1.67691
1.67691
1.6769
1.67689
1.67688
1.67687
1.67685
1.67683
1.67681
1.67678
1.67676
1.67673
1.67669
1.67666
1.67662
1.67659
1.67655
1.67651
1.67647
1.67643
1.67639
1.67635
1.67632
1.67629
1.67627
1.67625
1.67623
1.67624
1.67626
1.6763
1.73274
1.73269
1.73267
1.73267
1.73269
1.73271
1.73273
1.73277
1.7328
1.73284
1.73288
1.73292
1.73296
1.733
1.73304
1.73308
1.73312
1.73316
1.73319
1.73322
1.73325
1.73328
1.7333
1.73332
1.73334
1.73335
1.73337
1.73338
1.73338
1.73338
1.73338
1.73338
1.73338
1.73337
1.73335
1.73334
1.73332
1.7333
1.73328
1.73325
1.73322
1.73319
1.73316
1.73312
1.73308
1.73304
1.733
1.73296
1.73292
1.73288
1.73284
1.7328
1.73277
1.73273
1.73271
1.73269
1.73267
1.73267
1.73269
1.73274
1.79072
1.79068
1.79066
1.79066
1.79068
1.7907
1.79073
1.79076
1.7908
1.79084
1.79088
1.79092
1.79097
1.79101
1.79105
1.7911
1.79114
1.79117
1.79121
1.79124
1.79127
1.7913
1.79132
1.79135
1.79137
1.79138
1.79139
1.7914
1.79141
1.79141
1.79141
1.79141
1.7914
1.79139
1.79138
1.79137
1.79135
1.79132
1.7913
1.79127
1.79124
1.79121
1.79117
1.79114
1.7911
1.79105
1.79101
1.79097
1.79092
1.79088
1.79084
1.7908
1.79076
1.79073
1.7907
1.79068
1.79066
1.79066
1.79068
1.79072
1.85032
1.85028
1.85027
1.85027
1.85028
1.85031
1.85034
1.85037
1.85041
1.85045
1.8505
1.85054
1.85059
1.85064
1.85068
1.85072
1.85077
1.85081
1.85084
1.85088
1.85091
1.85094
1.85097
1.85099
1.85101
1.85102
1.85104
1.85105
1.85105
1.85106
1.85106
1.85105
1.85105
1.85104
1.85102
1.85101
1.85099
1.85097
1.85094
1.85091
1.85088
1.85084
1.85081
1.85077
1.85072
1.85068
1.85064
1.85059
1.85054
1.8505
1.85045
1.85041
1.85037
1.85034
1.85031
1.85028
1.85027
1.85027
1.85028
1.85032
1.91161
1.91157
1.91155
1.91156
1.91157
1.9116
1.91163
1.91167
1.91171
1.91175
1.9118
1.91185
1.91189
1.91194
1.91199
1.91204
1.91208
1.91212
1.91216
1.9122
1.91223
1.91226
1.91229
1.91231
1.91233
1.91235
1.91236
1.91238
1.91238
1.91239
1.91239
1.91238
1.91238
1.91236
1.91235
1.91233
1.91231
1.91229
1.91226
1.91223
1.9122
1.91216
1.91212
1.91208
1.91204
1.91199
1.91194
1.91189
1.91185
1.9118
1.91175
1.91171
1.91167
1.91163
1.9116
1.91157
1.91156
1.91155
1.91157
1.91161
1.97464
1.9746
1.97459
1.97459
1.97461
1.97463
1.97467
1.97471
1.97475
1.9748
1.97485
1.9749
1.97495
1.975
1.97505
1.9751
1.97514
1.97519
1.97523
1.97527
1.9753
1.97533
1.97536
1.97539
1.97541
1.97543
1.97544
1.97545
1.97546
1.97546
1.97546
1.97546
1.97545
1.97544
1.97543
1.97541
1.97539
1.97536
1.97533
1.9753
1.97527
1.97523
1.97519
1.97514
1.9751
1.97505
1.975
1.97495
1.9749
1.97485
1.9748
1.97475
1.97471
1.97467
1.97463
1.97461
1.97459
1.97459
1.9746
1.97464
2.03948
2.03945
2.03944
2.03944
2.03946
2.03949
2.03952
2.03956
2.03961
2.03966
2.03971
2.03976
2.03982
2.03987
2.03992
2.03997
2.04002
2.04007
2.04011
2.04015
2.04019
2.04022
2.04025
2.04028
2.0403
2.04032
2.04033
2.04034
2.04035
2.04036
2.04036
2.04035
2.04034
2.04033
2.04032
2.0403
2.04028
2.04025
2.04022
2.04019
2.04015
2.04011
2.04007
2.04002
2.03997
2.03992
2.03987
2.03982
2.03976
2.03971
2.03966
2.03961
2.03956
2.03952
2.03949
2.03946
2.03944
2.03944
2.03945
2.03948
2.1062
2.10617
2.10616
2.10617
2.10619
2.10622
2.10625
2.1063
2.10635
2.1064
2.10645
2.10651
2.10656
2.10662
2.10667
2.10673
2.10678
2.10683
2.10687
2.10691
2.10695
2.10699
2.10702
2.10705
2.10707
2.10709
2.10711
2.10712
2.10712
2.10713
2.10713
2.10712
2.10712
2.10711
2.10709
2.10707
2.10705
2.10702
2.10699
2.10695
2.10691
2.10687
2.10683
2.10678
2.10673
2.10667
2.10662
2.10656
2.10651
2.10645
2.1064
2.10635
2.1063
2.10625
2.10622
2.10619
2.10617
2.10616
2.10617
2.1062
2.17487
2.17485
2.17484
2.17484
2.17486
2.1749
2.17493
2.17498
2.17503
2.17508
2.17514
2.1752
2.17526
2.17532
2.17537
2.17543
2.17548
2.17553
2.17558
2.17562
2.17566
2.1757
2.17573
2.17576
2.17579
2.17581
2.17583
2.17584
2.17585
2.17585
2.17585
2.17585
2.17584
2.17583
2.17581
2.17579
2.17576
2.17573
2.1757
2.17566
2.17562
2.17558
2.17553
2.17548
2.17543
2.17537
2.17532
2.17526
2.1752
2.17514
2.17508
2.17503
2.17498
2.17493
2.1749
2.17486
2.17484
2.17484
2.17485
2.17487
2.24555
2.24553
2.24552
2.24553
2.24555
2.24559
2.24563
2.24568
2.24573
2.24579
2.24584
2.24591
2.24597
2.24603
2.24609
2.24615
2.2462
2.24625
2.2463
2.24635
2.24639
2.24643
2.24647
2.2465
2.24652
2.24654
2.24656
2.24657
2.24658
2.24659
2.24659
2.24658
2.24657
2.24656
2.24654
2.24652
2.2465
2.24647
2.24643
2.24639
2.24635
2.2463
2.24625
2.2462
2.24615
2.24609
2.24603
2.24597
2.24591
2.24584
2.24579
2.24573
2.24568
2.24563
2.24559
2.24555
2.24553
2.24552
2.24553
2.24555
2.31832
2.3183
2.31829
2.3183
2.31833
2.31836
2.3184
2.31845
2.31851
2.31857
2.31863
2.31869
2.31876
2.31882
2.31888
2.31895
2.319
2.31906
2.31911
2.31916
2.3192
2.31924
2.31928
2.31931
2.31934
2.31936
2.31938
2.31939
2.3194
2.31941
2.31941
2.3194
2.31939
2.31938
2.31936
2.31934
2.31931
2.31928
2.31924
2.3192
2.31916
2.31911
2.31906
2.319
2.31895
2.31888
2.31882
2.31876
2.31869
2.31863
2.31857
2.31851
2.31845
2.3184
2.31836
2.31833
2.3183
2.31829
2.3183
2.31832
2.39323
2.39321
2.39321
2.39322
2.39325
2.39328
2.39333
2.39338
2.39344
2.3935
2.39357
2.39363
2.3937
2.39377
2.39383
2.3939
2.39396
2.39401
2.39407
2.39412
2.39417
2.39421
2.39424
2.39428
2.39431
2.39433
2.39435
2.39436
2.39437
2.39438
2.39438
2.39437
2.39436
2.39435
2.39433
2.39431
2.39428
2.39424
2.39421
2.39417
2.39412
2.39407
2.39401
2.39396
2.3939
2.39383
2.39377
2.3937
2.39363
2.39357
2.3935
2.39344
2.39338
2.39333
2.39328
2.39325
2.39322
2.39321
2.39321
2.39323
2.47037
2.47035
2.47035
2.47036
2.47039
2.47043
2.47048
2.47053
2.47059
2.47066
2.47072
2.47079
2.47086
2.47093
2.471
2.47107
2.47113
2.47119
2.47125
2.4713
2.47135
2.47139
2.47143
2.47147
2.4715
2.47152
2.47154
2.47156
2.47157
2.47157
2.47157
2.47157
2.47156
2.47154
2.47152
2.4715
2.47147
2.47143
2.47139
2.47135
2.4713
2.47125
2.47119
2.47113
2.47107
2.471
2.47093
2.47086
2.47079
2.47072
2.47066
2.47059
2.47053
2.47048
2.47043
2.47039
2.47036
2.47035
2.47035
2.47037
2.54979
2.54978
2.54978
2.5498
2.54982
2.54987
2.54992
2.54997
2.55004
2.5501
2.55018
2.55025
2.55032
2.55039
2.55047
2.55053
2.5506
2.55066
2.55072
2.55078
2.55083
2.55087
2.55092
2.55095
2.55098
2.55101
2.55103
2.55104
2.55105
2.55106
2.55106
2.55105
2.55104
2.55103
2.55101
2.55098
2.55095
2.55092
2.55087
2.55083
2.55078
2.55072
2.55066
2.5506
2.55053
2.55047
2.55039
2.55032
2.55025
2.55018
2.5501
2.55004
2.54997
2.54992
2.54987
2.54982
2.5498
2.54978
2.54978
2.54979
2.63159
2.63158
2.63158
2.63159
2.63163
2.63167
2.63172
2.63178
2.63185
2.63192
2.63199
2.63207
2.63214
2.63222
2.63229
2.63237
2.63244
2.6325
2.63256
2.63262
2.63267
2.63272
2.63276
2.6328
2.63283
2.63286
2.63288
2.6329
2.63291
2.63291
2.63291
2.63291
2.6329
2.63288
2.63286
2.63283
2.6328
2.63276
2.63272
2.63267
2.63262
2.63256
2.6325
2.63244
2.63237
2.63229
2.63222
2.63214
2.63207
2.63199
2.63192
2.63185
2.63178
2.63172
2.63167
2.63163
2.63159
2.63158
2.63158
2.63159
2.71582
2.71581
2.71581
2.71583
2.71586
2.71591
2.71596
2.71603
2.7161
2.71617
2.71625
2.71633
2.71641
2.71649
2.71656
2.71664
2.71671
2.71678
2.71685
2.7169
2.71696
2.71701
2.71705
2.71709
2.71713
2.71715
2.71718
2.71719
2.7172
2.71721
2.71721
2.7172
2.71719
2.71718
2.71715
2.71713
2.71709
2.71705
2.71701
2.71696
2.7169
2.71685
2.71678
2.71671
2.71664
2.71656
2.71649
2.71641
2.71633
2.71625
2.71617
2.7161
2.71603
2.71596
2.71591
2.71586
2.71583
2.71581
2.71581
2.71582
2.80257
2.80256
2.80256
2.80259
2.80262
2.80267
2.80273
2.80279
2.80286
2.80294
2.80302
2.8031
2.80319
2.80327
2.80335
2.80343
2.80351
2.80358
2.80364
2.80371
2.80376
2.80381
2.80386
2.8039
2.80394
2.80397
2.80399
2.80401
2.80402
2.80402
2.80402
2.80402
2.80401
2.80399
2.80397
2.80394
2.8039
2.80386
2.80381
2.80376
2.80371
2.80364
2.80358
2.80351
2.80343
2.80335
2.80327
2.80319
2.8031
2.80302
2.80294
2.80286
2.80279
2.80273
2.80267
2.80262
2.80259
2.80256
2.80256
2.80257
2.89191
2.8919
2.89191
2.89193
2.89197
2.89202
2.89208
2.89215
2.89222
2.8923
2.89239
2.89248
2.89256
2.89265
2.89273
2.89281
2.89289
2.89297
2.89304
2.8931
2.89316
2.89322
2.89326
2.89331
2.89334
2.89337
2.8934
2.89341
2.89343
2.89343
2.89343
2.89343
2.89341
2.8934
2.89337
2.89334
2.89331
2.89326
2.89322
2.89316
2.8931
2.89304
2.89297
2.89289
2.89281
2.89273
2.89265
2.89256
2.89248
2.89239
2.8923
2.89222
2.89215
2.89208
2.89202
2.89197
2.89193
2.89191
2.8919
2.89191
2.98392
2.98392
2.98393
2.98395
2.98399
2.98404
2.98411
2.98418
2.98426
2.98434
2.98443
2.98452
2.98461
2.9847
2.98479
2.98487
2.98496
2.98503
2.98511
2.98517
2.98524
2.98529
2.98534
2.98539
2.98542
2.98545
2.98548
2.9855
2.98551
2.98552
2.98552
2.98551
2.9855
2.98548
2.98545
2.98542
2.98539
2.98534
2.98529
2.98524
2.98517
2.98511
2.98503
2.98496
2.98487
2.98479
2.9847
2.98461
2.98452
2.98443
2.98434
2.98426
2.98418
2.98411
2.98404
2.98399
2.98395
2.98393
2.98392
2.98392
3.07869
3.07869
3.0787
3.07873
3.07877
3.07882
3.07889
3.07897
3.07905
3.07914
3.07923
3.07932
3.07942
3.07951
3.0796
3.07969
3.07977
3.07986
3.07993
3.08
3.08007
3.08012
3.08018
3.08022
3.08026
3.08029
3.08032
3.08034
3.08035
3.08036
3.08036
3.08035
3.08034
3.08032
3.08029
3.08026
3.08022
3.08018
3.08012
3.08007
3.08
3.07993
3.07986
3.07977
3.07969
3.0796
3.07951
3.07942
3.07932
3.07923
3.07914
3.07905
3.07897
3.07889
3.07882
3.07877
3.07873
3.0787
3.07869
3.07869
3.1763
3.1763
3.17631
3.17634
3.17639
3.17644
3.17651
3.17659
3.17668
3.17677
3.17686
3.17696
3.17706
3.17716
3.17725
3.17735
3.17743
3.17752
3.1776
3.17767
3.17774
3.1778
3.17785
3.1779
3.17794
3.17798
3.178
3.17802
3.17804
3.17804
3.17804
3.17804
3.17802
3.178
3.17798
3.17794
3.1779
3.17785
3.1778
3.17774
3.17767
3.1776
3.17752
3.17743
3.17735
3.17725
3.17716
3.17706
3.17696
3.17686
3.17677
3.17668
3.17659
3.17651
3.17644
3.17639
3.17634
3.17631
3.1763
3.1763
3.27683
3.27683
3.27685
3.27688
3.27693
3.27699
3.27706
3.27714
3.27723
3.27733
3.27743
3.27753
3.27763
3.27773
3.27783
3.27793
3.27802
3.27811
3.27819
3.27827
3.27834
3.2784
3.27846
3.27851
3.27855
3.27858
3.27861
3.27863
3.27865
3.27866
3.27866
3.27865
3.27863
3.27861
3.27858
3.27855
3.27851
3.27846
3.2784
3.27834
3.27827
3.27819
3.27811
3.27802
3.27793
3.27783
3.27773
3.27763
3.27753
3.27743
3.27733
3.27723
3.27714
3.27706
3.27699
3.27693
3.27688
3.27685
3.27683
3.27683
3.38038
3.38038
3.3804
3.38044
3.38049
3.38055
3.38062
3.38071
3.3808
3.3809
3.38101
3.38111
3.38122
3.38133
3.38143
3.38153
3.38163
3.38172
3.3818
3.38188
3.38195
3.38202
3.38208
3.38213
3.38217
3.38221
3.38224
3.38226
3.38228
3.38228
3.38228
3.38228
3.38226
3.38224
3.38221
3.38217
3.38213
3.38208
3.38202
3.38195
3.38188
3.3818
3.38172
3.38163
3.38153
3.38143
3.38133
3.38122
3.38111
3.38101
3.3809
3.3808
3.38071
3.38062
3.38055
3.38049
3.38044
3.3804
3.38038
3.38038
3.48703
3.48704
3.48706
3.4871
3.48715
3.48721
3.48729
3.48738
3.48748
3.48758
3.48769
3.4878
3.48791
3.48802
3.48813
3.48824
3.48834
3.48843
3.48852
3.4886
3.48868
3.48874
3.48881
3.48886
3.48891
3.48894
3.48897
3.489
3.48901
3.48902
3.48902
3.48901
3.489
3.48897
3.48894
3.48891
3.48886
3.48881
3.48874
3.48868
3.4886
3.48852
3.48843
3.48834
3.48824
3.48813
3.48802
3.48791
3.4878
3.48769
3.48758
3.48748
3.48738
3.48729
3.48721
3.48715
3.4871
3.48706
3.48704
3.48703
3.59689
3.59689
3.59692
3.59695
3.59701
3.59708
3.59716
3.59725
3.59736
3.59747
3.59758
3.59769
3.59781
3.59792
3.59803
3.59814
3.59825
3.59835
3.59844
3.59852
3.5986
3.59867
3.59874
3.59879
3.59884
3.59888
3.59891
3.59893
3.59895
3.59896
3.59896
3.59895
3.59893
3.59891
3.59888
3.59884
3.59879
3.59874
3.59867
3.5986
3.59852
3.59844
3.59835
3.59825
3.59814
3.59803
3.59792
3.59781
3.59769
3.59758
3.59747
3.59736
3.59725
3.59716
3.59708
3.59701
3.59695
3.59692
3.59689
3.59689
3.71003
3.71004
3.71007
3.71011
3.71017
3.71024
3.71033
3.71042
3.71053
3.71064
3.71076
3.71088
3.711
3.71112
3.71124
3.71135
3.71146
3.71156
3.71165
3.71174
3.71182
3.7119
3.71196
3.71202
3.71207
3.71211
3.71215
3.71217
3.71219
3.71219
3.71219
3.71219
3.71217
3.71215
3.71211
3.71207
3.71202
3.71196
3.7119
3.71182
3.71174
3.71165
3.71156
3.71146
3.71135
3.71124
3.71112
3.711
3.71088
3.71076
3.71064
3.71053
3.71042
3.71033
3.71024
3.71017
3.71011
3.71007
3.71004
3.71003
3.82658
3.82659
3.82661
3.82666
3.82672
3.8268
3.82689
3.82699
3.8271
3.82722
3.82734
3.82746
3.82759
3.82771
3.82783
3.82795
3.82806
3.82817
3.82827
3.82836
3.82845
3.82852
3.82859
3.82865
3.8287
3.82874
3.82878
3.8288
3.82882
3.82883
3.82883
3.82882
3.8288
3.82878
3.82874
3.8287
3.82865
3.82859
3.82852
3.82845
3.82836
3.82827
3.82817
3.82806
3.82795
3.82783
3.82771
3.82759
3.82746
3.82734
3.82722
3.8271
3.82699
3.82689
3.8268
3.82672
3.82666
3.82661
3.82659
3.82658
3.94662
3.94663
3.94666
3.9467
3.94677
3.94685
3.94694
3.94705
3.94716
3.94729
3.94741
3.94754
3.94767
3.9478
3.94793
3.94805
3.94817
3.94828
3.94838
3.94848
3.94857
3.94864
3.94872
3.94878
3.94883
3.94888
3.94891
3.94894
3.94896
3.94896
3.94896
3.94896
3.94894
3.94891
3.94888
3.94883
3.94878
3.94872
3.94864
3.94857
3.94848
3.94838
3.94828
3.94817
3.94805
3.94793
3.9478
3.94767
3.94754
3.94741
3.94729
3.94716
3.94705
3.94694
3.94685
3.94677
3.9467
3.94666
3.94663
3.94662
4.07026
4.07027
4.0703
4.07035
4.07042
4.0705
4.0706
4.07071
4.07083
4.07096
4.07109
4.07123
4.07136
4.0715
4.07163
4.07176
4.07188
4.07199
4.0721
4.0722
4.07229
4.07237
4.07245
4.07251
4.07257
4.07261
4.07265
4.07268
4.0727
4.07271
4.07271
4.0727
4.07268
4.07265
4.07261
4.07257
4.07251
4.07245
4.07237
4.07229
4.0722
4.0721
4.07199
4.07188
4.07176
4.07163
4.0715
4.07136
4.07123
4.07109
4.07096
4.07083
4.07071
4.0706
4.0705
4.07042
4.07035
4.0703
4.07027
4.07026
4.19761
4.19763
4.19766
4.19771
4.19778
4.19787
4.19797
4.19809
4.19822
4.19835
4.19849
4.19863
4.19877
4.19891
4.19904
4.19918
4.1993
4.19942
4.19953
4.19964
4.19973
4.19982
4.19989
4.19996
4.20002
4.20006
4.2001
4.20013
4.20015
4.20016
4.20016
4.20015
4.20013
4.2001
4.20006
4.20002
4.19996
4.19989
4.19982
4.19973
4.19964
4.19953
4.19942
4.1993
4.19918
4.19904
4.19891
4.19877
4.19863
4.19849
4.19835
4.19822
4.19809
4.19797
4.19787
4.19778
4.19771
4.19766
4.19763
4.19761
4.32879
4.3288
4.32884
4.32889
4.32897
4.32906
4.32917
4.32929
4.32942
4.32956
4.3297
4.32985
4.32999
4.33014
4.33028
4.33042
4.33055
4.33067
4.33079
4.3309
4.33099
4.33108
4.33116
4.33123
4.33129
4.33134
4.33138
4.33141
4.33143
4.33144
4.33144
4.33143
4.33141
4.33138
4.33134
4.33129
4.33123
4.33116
4.33108
4.33099
4.3309
4.33079
4.33067
4.33055
4.33042
4.33028
4.33014
4.32999
4.32985
4.3297
4.32956
4.32942
4.32929
4.32917
4.32906
4.32897
4.32889
4.32884
4.3288
4.32879
4.4639
4.46391
4.46395
4.46401
4.46409
4.46419
4.4643
4.46442
4.46456
4.46471
4.46485
4.46501
4.46516
4.46531
4.46546
4.4656
4.46574
4.46586
4.46599
4.4661
4.4662
4.46629
4.46637
4.46644
4.46651
4.46656
4.4666
4.46663
4.46665
4.46666
4.46666
4.46665
4.46663
4.4666
4.46656
4.46651
4.46644
4.46637
4.46629
4.4662
4.4661
4.46599
4.46586
4.46574
4.4656
4.46546