/*--------------------------------*- C++ -*----------------------------------*\
| =========                 |                                                 |
| \\      /  F ield         | foam-extend: Open Source CFD                    |
|  \\    /   O peration     | Version:     4.0                                |
|   \\  /    A nd           | Web:         http://www.foam-extend.org         |
|    \\/     M anipulation  |                                                 |
\*---------------------------------------------------------------------------*/
FoamFile
{
    version     2.0;
    format      ascii;
    class       volScalarField;
    location    "710";
    object      cPlus;
}
// * * * * * * * * * * * * * * * * * * * * * * * * * * * * * * * * * * * * * //

dimensions      [0 0 0 0 0 0 0];

internalField   nonuniform List<scalar> 
6960
(
0.277014
0.276983
0.276978
0.276978
0.276979
0.276981
0.276983
0.276984
0.276986
0.276987
0.276988
0.276989
0.27699
0.276991
0.276992
0.276993
0.276994
0.276994
0.276995
0.276996
0.276996
0.276996
0.276997
0.276997
0.276997
0.276998
0.276998
0.276998
0.276998
0.276998
0.276998
0.276998
0.276998
0.276998
0.276998
0.276997
0.276997
0.276997
0.276996
0.276996
0.276996
0.276995
0.276994
0.276994
0.276993
0.276992
0.276991
0.27699
0.276989
0.276988
0.276987
0.276986
0.276984
0.276983
0.276981
0.276979
0.276978
0.276978
0.276983
0.277014
0.110222
0.110228
0.11023
0.110232
0.110233
0.110234
0.110235
0.110236
0.110237
0.110238
0.110239
0.11024
0.11024
0.110241
0.110241
0.110242
0.110242
0.110243
0.110243
0.110243
0.110243
0.110244
0.110244
0.110244
0.110244
0.110244
0.110245
0.110245
0.110245
0.110245
0.110245
0.110245
0.110245
0.110245
0.110244
0.110244
0.110244
0.110244
0.110244
0.110243
0.110243
0.110243
0.110243
0.110242
0.110242
0.110241
0.110241
0.11024
0.11024
0.110239
0.110238
0.110237
0.110236
0.110235
0.110234
0.110233
0.110232
0.11023
0.110228
0.110222
0.0784646
0.07849
0.0784961
0.0784983
0.0784996
0.0785006
0.0785014
0.0785021
0.0785028
0.0785033
0.0785038
0.0785043
0.0785047
0.0785051
0.0785054
0.0785057
0.078506
0.0785062
0.0785065
0.0785067
0.0785069
0.078507
0.0785072
0.0785073
0.0785074
0.0785075
0.0785076
0.0785076
0.0785077
0.0785077
0.0785077
0.0785077
0.0785076
0.0785076
0.0785075
0.0785074
0.0785073
0.0785072
0.078507
0.0785069
0.0785067
0.0785065
0.0785062
0.078506
0.0785057
0.0785054
0.0785051
0.0785047
0.0785043
0.0785038
0.0785033
0.0785028
0.0785021
0.0785014
0.0785006
0.0784996
0.0784983
0.0784961
0.07849
0.0784646
0.0742179
0.0742532
0.0742614
0.0742642
0.0742655
0.0742664
0.0742672
0.0742678
0.0742684
0.0742688
0.0742693
0.0742697
0.07427
0.0742703
0.0742706
0.0742709
0.0742711
0.0742713
0.0742715
0.0742717
0.0742719
0.074272
0.0742721
0.0742722
0.0742723
0.0742724
0.0742725
0.0742725
0.0742725
0.0742725
0.0742725
0.0742725
0.0742725
0.0742725
0.0742724
0.0742723
0.0742722
0.0742721
0.074272
0.0742719
0.0742717
0.0742715
0.0742713
0.0742711
0.0742709
0.0742706
0.0742703
0.07427
0.0742697
0.0742693
0.0742688
0.0742684
0.0742678
0.0742672
0.0742664
0.0742655
0.0742642
0.0742614
0.0742532
0.0742179
0.0772641
0.0773066
0.0773165
0.0773197
0.0773212
0.0773222
0.077323
0.0773237
0.0773243
0.0773248
0.0773252
0.0773257
0.077326
0.0773264
0.0773267
0.0773269
0.0773272
0.0773274
0.0773276
0.0773278
0.077328
0.0773281
0.0773282
0.0773284
0.0773284
0.0773285
0.0773286
0.0773286
0.0773287
0.0773287
0.0773287
0.0773287
0.0773286
0.0773286
0.0773285
0.0773284
0.0773284
0.0773282
0.0773281
0.077328
0.0773278
0.0773276
0.0773274
0.0773272
0.0773269
0.0773267
0.0773264
0.077326
0.0773257
0.0773252
0.0773248
0.0773243
0.0773237
0.077323
0.0773222
0.0773212
0.0773197
0.0773165
0.0773066
0.0772641
0.0833022
0.0833524
0.0833641
0.0833679
0.0833697
0.0833709
0.0833718
0.0833726
0.0833733
0.0833739
0.0833744
0.0833749
0.0833754
0.0833757
0.0833761
0.0833764
0.0833767
0.083377
0.0833772
0.0833774
0.0833776
0.0833778
0.083378
0.0833781
0.0833782
0.0833783
0.0833784
0.0833784
0.0833785
0.0833785
0.0833785
0.0833785
0.0833784
0.0833784
0.0833783
0.0833782
0.0833781
0.083378
0.0833778
0.0833776
0.0833774
0.0833772
0.083377
0.0833767
0.0833764
0.0833761
0.0833757
0.0833754
0.0833749
0.0833744
0.0833739
0.0833733
0.0833726
0.0833718
0.0833709
0.0833697
0.0833679
0.0833641
0.0833524
0.0833022
0.0916888
0.0917487
0.0917627
0.0917673
0.0917694
0.0917709
0.091772
0.091773
0.0917739
0.0917746
0.0917753
0.0917758
0.0917764
0.0917769
0.0917773
0.0917777
0.0917781
0.0917784
0.0917787
0.091779
0.0917792
0.0917794
0.0917796
0.0917798
0.0917799
0.09178
0.0917801
0.0917802
0.0917802
0.0917802
0.0917802
0.0917802
0.0917802
0.0917801
0.09178
0.0917799
0.0917798
0.0917796
0.0917794
0.0917792
0.091779
0.0917787
0.0917784
0.0917781
0.0917777
0.0917773
0.0917769
0.0917764
0.0917758
0.0917753
0.0917746
0.0917739
0.091773
0.091772
0.0917709
0.0917694
0.0917673
0.0917627
0.0917487
0.0916888
0.102774
0.102847
0.102864
0.10287
0.102872
0.102874
0.102875
0.102877
0.102878
0.102879
0.102879
0.10288
0.102881
0.102881
0.102882
0.102882
0.102883
0.102883
0.102884
0.102884
0.102884
0.102885
0.102885
0.102885
0.102885
0.102885
0.102885
0.102886
0.102886
0.102886
0.102886
0.102886
0.102886
0.102885
0.102885
0.102885
0.102885
0.102885
0.102885
0.102884
0.102884
0.102884
0.102883
0.102883
0.102882
0.102882
0.102881
0.102881
0.10288
0.102879
0.102879
0.102878
0.102877
0.102875
0.102874
0.102872
0.10287
0.102864
0.102847
0.102774
0.117194
0.117284
0.117305
0.117312
0.117315
0.117317
0.117319
0.117321
0.117322
0.117323
0.117324
0.117325
0.117326
0.117327
0.117327
0.117328
0.117328
0.117329
0.117329
0.11733
0.11733
0.117331
0.117331
0.117331
0.117331
0.117331
0.117332
0.117332
0.117332
0.117332
0.117332
0.117332
0.117332
0.117332
0.117331
0.117331
0.117331
0.117331
0.117331
0.11733
0.11733
0.117329
0.117329
0.117328
0.117328
0.117327
0.117327
0.117326
0.117325
0.117324
0.117323
0.117322
0.117321
0.117319
0.117317
0.117315
0.117312
0.117305
0.117284
0.117194
0.135537
0.135647
0.135673
0.135682
0.135686
0.135689
0.135691
0.135692
0.135694
0.135695
0.135697
0.135698
0.135699
0.1357
0.135701
0.135701
0.135702
0.135703
0.135703
0.135704
0.135704
0.135705
0.135705
0.135705
0.135705
0.135706
0.135706
0.135706
0.135706
0.135706
0.135706
0.135706
0.135706
0.135706
0.135706
0.135705
0.135705
0.135705
0.135705
0.135704
0.135704
0.135703
0.135703
0.135702
0.135701
0.135701
0.1357
0.135699
0.135698
0.135697
0.135695
0.135694
0.135692
0.135691
0.135689
0.135686
0.135682
0.135673
0.135647
0.135537
0.158064
0.158197
0.15823
0.15824
0.158245
0.158248
0.158251
0.158253
0.158255
0.158256
0.158258
0.158259
0.15826
0.158261
0.158262
0.158263
0.158264
0.158265
0.158265
0.158266
0.158266
0.158267
0.158267
0.158268
0.158268
0.158268
0.158268
0.158268
0.158269
0.158269
0.158269
0.158269
0.158268
0.158268
0.158268
0.158268
0.158268
0.158267
0.158267
0.158266
0.158266
0.158265
0.158265
0.158264
0.158263
0.158262
0.158261
0.15826
0.158259
0.158258
0.158256
0.158255
0.158253
0.158251
0.158248
0.158245
0.15824
0.15823
0.158197
0.158064
0.184529
0.184687
0.184725
0.184738
0.184743
0.184747
0.18475
0.184752
0.184754
0.184756
0.184758
0.184759
0.18476
0.184762
0.184763
0.184764
0.184764
0.184765
0.184766
0.184767
0.184767
0.184768
0.184768
0.184769
0.184769
0.184769
0.184769
0.18477
0.18477
0.18477
0.18477
0.18477
0.18477
0.184769
0.184769
0.184769
0.184769
0.184768
0.184768
0.184767
0.184767
0.184766
0.184765
0.184764
0.184764
0.184763
0.184762
0.18476
0.184759
0.184758
0.184756
0.184754
0.184752
0.18475
0.184747
0.184743
0.184738
0.184725
0.184687
0.184529
0.214191
0.214373
0.214418
0.214432
0.214438
0.214442
0.214445
0.214447
0.21445
0.214451
0.214453
0.214455
0.214456
0.214457
0.214459
0.21446
0.214461
0.214461
0.214462
0.214463
0.214463
0.214464
0.214465
0.214465
0.214465
0.214466
0.214466
0.214466
0.214466
0.214466
0.214466
0.214466
0.214466
0.214466
0.214466
0.214465
0.214465
0.214465
0.214464
0.214463
0.214463
0.214462
0.214461
0.214461
0.21446
0.214459
0.214457
0.214456
0.214455
0.214453
0.214451
0.21445
0.214447
0.214445
0.214442
0.214438
0.214432
0.214418
0.214373
0.214191
0.246027
0.24623
0.246281
0.246296
0.246303
0.246307
0.24631
0.246313
0.246315
0.246317
0.246319
0.246321
0.246322
0.246323
0.246325
0.246326
0.246327
0.246327
0.246328
0.246329
0.24633
0.24633
0.246331
0.246331
0.246331
0.246332
0.246332
0.246332
0.246332
0.246332
0.246332
0.246332
0.246332
0.246332
0.246332
0.246331
0.246331
0.246331
0.24633
0.24633
0.246329
0.246328
0.246327
0.246327
0.246326
0.246325
0.246323
0.246322
0.246321
0.246319
0.246317
0.246315
0.246313
0.24631
0.246307
0.246303
0.246296
0.246281
0.24623
0.246027
0.279006
0.279227
0.279283
0.279301
0.279308
0.279312
0.279315
0.279318
0.27932
0.279322
0.279324
0.279325
0.279327
0.279328
0.279329
0.27933
0.279331
0.279332
0.279333
0.279334
0.279334
0.279335
0.279335
0.279336
0.279336
0.279336
0.279337
0.279337
0.279337
0.279337
0.279337
0.279337
0.279337
0.279337
0.279336
0.279336
0.279336
0.279335
0.279335
0.279334
0.279334
0.279333
0.279332
0.279331
0.27933
0.279329
0.279328
0.279327
0.279325
0.279324
0.279322
0.27932
0.279318
0.279315
0.279312
0.279308
0.279301
0.279283
0.279227
0.279006
0.312284
0.312522
0.312583
0.312602
0.312609
0.312613
0.312617
0.312619
0.312621
0.312623
0.312625
0.312626
0.312628
0.312629
0.31263
0.312631
0.312632
0.312633
0.312634
0.312634
0.312635
0.312636
0.312636
0.312636
0.312637
0.312637
0.312637
0.312638
0.312638
0.312638
0.312638
0.312638
0.312638
0.312637
0.312637
0.312637
0.312636
0.312636
0.312636
0.312635
0.312634
0.312634
0.312633
0.312632
0.312631
0.31263
0.312629
0.312628
0.312626
0.312625
0.312623
0.312621
0.312619
0.312617
0.312613
0.312609
0.312602
0.312583
0.312522
0.312284
0.345272
0.345523
0.345589
0.345609
0.345617
0.345621
0.345624
0.345627
0.345629
0.34563
0.345632
0.345634
0.345635
0.345636
0.345637
0.345638
0.345639
0.34564
0.34564
0.345641
0.345642
0.345642
0.345643
0.345643
0.345643
0.345644
0.345644
0.345644
0.345644
0.345644
0.345644
0.345644
0.345644
0.345644
0.345644
0.345643
0.345643
0.345643
0.345642
0.345642
0.345641
0.34564
0.34564
0.345639
0.345638
0.345637
0.345636
0.345635
0.345634
0.345632
0.34563
0.345629
0.345627
0.345624
0.345621
0.345617
0.345609
0.345589
0.345523
0.345272
0.377599
0.377862
0.377932
0.377953
0.377961
0.377965
0.377968
0.377971
0.377973
0.377974
0.377976
0.377977
0.377979
0.37798
0.377981
0.377982
0.377982
0.377983
0.377984
0.377985
0.377985
0.377986
0.377986
0.377986
0.377987
0.377987
0.377987
0.377987
0.377987
0.377988
0.377988
0.377987
0.377987
0.377987
0.377987
0.377987
0.377986
0.377986
0.377986
0.377985
0.377985
0.377984
0.377983
0.377982
0.377982
0.377981
0.37798
0.377979
0.377977
0.377976
0.377974
0.377973
0.377971
0.377968
0.377965
0.377961
0.377953
0.377932
0.377862
0.377599
0.409051
0.409325
0.409399
0.409422
0.40943
0.409434
0.409437
0.409439
0.409441
0.409443
0.409444
0.409445
0.409447
0.409448
0.409449
0.409449
0.40945
0.409451
0.409452
0.409452
0.409453
0.409453
0.409454
0.409454
0.409454
0.409455
0.409455
0.409455
0.409455
0.409455
0.409455
0.409455
0.409455
0.409455
0.409455
0.409454
0.409454
0.409454
0.409453
0.409453
0.409452
0.409452
0.409451
0.40945
0.409449
0.409449
0.409448
0.409447
0.409445
0.409444
0.409443
0.409441
0.409439
0.409437
0.409434
0.40943
0.409422
0.409399
0.409325
0.409051
0.439516
0.439798
0.439877
0.4399
0.439908
0.439912
0.439915
0.439917
0.439919
0.439921
0.439922
0.439923
0.439924
0.439925
0.439926
0.439927
0.439928
0.439928
0.439929
0.43993
0.43993
0.439931
0.439931
0.439931
0.439932
0.439932
0.439932
0.439932
0.439932
0.439932
0.439932
0.439932
0.439932
0.439932
0.439932
0.439932
0.439931
0.439931
0.439931
0.43993
0.43993
0.439929
0.439928
0.439928
0.439927
0.439926
0.439925
0.439924
0.439923
0.439922
0.439921
0.439919
0.439917
0.439915
0.439912
0.439908
0.4399
0.439877
0.439798
0.439516
0.468934
0.469224
0.469306
0.469331
0.469339
0.469343
0.469346
0.469348
0.46935
0.469351
0.469352
0.469354
0.469355
0.469356
0.469356
0.469357
0.469358
0.469358
0.469359
0.46936
0.46936
0.46936
0.469361
0.469361
0.469361
0.469362
0.469362
0.469362
0.469362
0.469362
0.469362
0.469362
0.469362
0.469362
0.469362
0.469361
0.469361
0.469361
0.46936
0.46936
0.46936
0.469359
0.469358
0.469358
0.469357
0.469356
0.469356
0.469355
0.469354
0.469352
0.469351
0.46935
0.469348
0.469346
0.469343
0.469339
0.469331
0.469306
0.469224
0.468934
0.497282
0.497578
0.497663
0.497689
0.497698
0.497702
0.497705
0.497706
0.497708
0.497709
0.497711
0.497712
0.497713
0.497713
0.497714
0.497715
0.497716
0.497716
0.497717
0.497717
0.497718
0.497718
0.497718
0.497719
0.497719
0.497719
0.497719
0.497719
0.49772
0.49772
0.49772
0.49772
0.497719
0.497719
0.497719
0.497719
0.497719
0.497718
0.497718
0.497718
0.497717
0.497717
0.497716
0.497716
0.497715
0.497714
0.497713
0.497713
0.497712
0.497711
0.497709
0.497708
0.497706
0.497705
0.497702
0.497698
0.497689
0.497663
0.497578
0.497282
0.524552
0.524853
0.524942
0.524969
0.524978
0.524982
0.524985
0.524986
0.524988
0.524989
0.52499
0.524991
0.524992
0.524993
0.524994
0.524994
0.524995
0.524996
0.524996
0.524996
0.524997
0.524997
0.524998
0.524998
0.524998
0.524998
0.524998
0.524999
0.524999
0.524999
0.524999
0.524999
0.524999
0.524998
0.524998
0.524998
0.524998
0.524998
0.524997
0.524997
0.524996
0.524996
0.524996
0.524995
0.524994
0.524994
0.524993
0.524992
0.524991
0.52499
0.524989
0.524988
0.524986
0.524985
0.524982
0.524978
0.524969
0.524942
0.524853
0.524552
0.550751
0.551055
0.551147
0.551176
0.551185
0.551189
0.551191
0.551193
0.551194
0.551196
0.551197
0.551198
0.551198
0.551199
0.5512
0.5512
0.551201
0.551202
0.551202
0.551202
0.551203
0.551203
0.551203
0.551204
0.551204
0.551204
0.551204
0.551204
0.551204
0.551204
0.551204
0.551204
0.551204
0.551204
0.551204
0.551204
0.551204
0.551203
0.551203
0.551203
0.551202
0.551202
0.551202
0.551201
0.5512
0.5512
0.551199
0.551198
0.551198
0.551197
0.551196
0.551194
0.551193
0.551191
0.551189
0.551185
0.551176
0.551147
0.551055
0.550751
0.575888
0.576196
0.576291
0.57632
0.57633
0.576334
0.576336
0.576338
0.576339
0.57634
0.576341
0.576342
0.576343
0.576344
0.576344
0.576345
0.576345
0.576346
0.576346
0.576347
0.576347
0.576347
0.576348
0.576348
0.576348
0.576348
0.576348
0.576349
0.576349
0.576349
0.576349
0.576349
0.576349
0.576348
0.576348
0.576348
0.576348
0.576348
0.576347
0.576347
0.576347
0.576346
0.576346
0.576345
0.576345
0.576344
0.576344
0.576343
0.576342
0.576341
0.57634
0.576339
0.576338
0.576336
0.576334
0.57633
0.57632
0.576291
0.576196
0.575888
0.599982
0.600291
0.600389
0.60042
0.60043
0.600434
0.600436
0.600437
0.600439
0.60044
0.600441
0.600441
0.600442
0.600443
0.600443
0.600444
0.600444
0.600445
0.600445
0.600446
0.600446
0.600446
0.600446
0.600447
0.600447
0.600447
0.600447
0.600447
0.600447
0.600447
0.600447
0.600447
0.600447
0.600447
0.600447
0.600447
0.600447
0.600446
0.600446
0.600446
0.600446
0.600445
0.600445
0.600444
0.600444
0.600443
0.600443
0.600442
0.600441
0.600441
0.60044
0.600439
0.600437
0.600436
0.600434
0.60043
0.60042
0.600389
0.600291
0.599982
0.62305
0.62336
0.623461
0.623493
0.623503
0.623507
0.623509
0.623511
0.623512
0.623513
0.623513
0.623514
0.623515
0.623515
0.623516
0.623517
0.623517
0.623517
0.623518
0.623518
0.623518
0.623519
0.623519
0.623519
0.623519
0.62352
0.62352
0.62352
0.62352
0.62352
0.62352
0.62352
0.62352
0.62352
0.62352
0.623519
0.623519
0.623519
0.623519
0.623518
0.623518
0.623518
0.623517
0.623517
0.623517
0.623516
0.623515
0.623515
0.623514
0.623513
0.623513
0.623512
0.623511
0.623509
0.623507
0.623503
0.623493
0.623461
0.62336
0.62305
0.645114
0.645424
0.645527
0.64556
0.645571
0.645575
0.645577
0.645578
0.645579
0.64558
0.645581
0.645582
0.645582
0.645583
0.645583
0.645584
0.645584
0.645585
0.645585
0.645585
0.645586
0.645586
0.645586
0.645586
0.645587
0.645587
0.645587
0.645587
0.645587
0.645587
0.645587
0.645587
0.645587
0.645587
0.645587
0.645587
0.645586
0.645586
0.645586
0.645586
0.645585
0.645585
0.645585
0.645584
0.645584
0.645583
0.645583
0.645582
0.645582
0.645581
0.64558
0.645579
0.645578
0.645577
0.645575
0.645571
0.64556
0.645527
0.645424
0.645114
0.666196
0.666505
0.666611
0.666645
0.666656
0.66666
0.666662
0.666663
0.666664
0.666665
0.666666
0.666666
0.666667
0.666668
0.666668
0.666668
0.666669
0.666669
0.66667
0.66667
0.66667
0.66667
0.666671
0.666671
0.666671
0.666671
0.666671
0.666671
0.666671
0.666671
0.666671
0.666671
0.666671
0.666671
0.666671
0.666671
0.666671
0.666671
0.66667
0.66667
0.66667
0.66667
0.666669
0.666669
0.666668
0.666668
0.666668
0.666667
0.666666
0.666666
0.666665
0.666664
0.666663
0.666662
0.66666
0.666656
0.666645
0.666611
0.666505
0.666196
0.686319
0.686628
0.686735
0.68677
0.686781
0.686786
0.686788
0.686789
0.68679
0.686791
0.686791
0.686792
0.686792
0.686793
0.686793
0.686794
0.686794
0.686794
0.686795
0.686795
0.686795
0.686795
0.686796
0.686796
0.686796
0.686796
0.686796
0.686796
0.686796
0.686796
0.686796
0.686796
0.686796
0.686796
0.686796
0.686796
0.686796
0.686796
0.686795
0.686795
0.686795
0.686795
0.686794
0.686794
0.686794
0.686793
0.686793
0.686792
0.686792
0.686791
0.686791
0.68679
0.686789
0.686788
0.686786
0.686781
0.68677
0.686735
0.686628
0.686319
0.705509
0.705815
0.705924
0.70596
0.705972
0.705976
0.705978
0.70598
0.70598
0.705981
0.705982
0.705982
0.705983
0.705983
0.705984
0.705984
0.705984
0.705985
0.705985
0.705985
0.705985
0.705986
0.705986
0.705986
0.705986
0.705986
0.705986
0.705986
0.705986
0.705986
0.705986
0.705986
0.705986
0.705986
0.705986
0.705986
0.705986
0.705986
0.705986
0.705985
0.705985
0.705985
0.705985
0.705984
0.705984
0.705984
0.705983
0.705983
0.705982
0.705982
0.705981
0.70598
0.70598
0.705978
0.705976
0.705972
0.70596
0.705924
0.705815
0.705509
0.723789
0.724093
0.724203
0.72424
0.724252
0.724257
0.724259
0.72426
0.724261
0.724261
0.724262
0.724262
0.724263
0.724263
0.724264
0.724264
0.724264
0.724265
0.724265
0.724265
0.724265
0.724266
0.724266
0.724266
0.724266
0.724266
0.724266
0.724266
0.724266
0.724266
0.724266
0.724266
0.724266
0.724266
0.724266
0.724266
0.724266
0.724266
0.724266
0.724265
0.724265
0.724265
0.724265
0.724264
0.724264
0.724264
0.724263
0.724263
0.724262
0.724262
0.724261
0.724261
0.72426
0.724259
0.724257
0.724252
0.72424
0.724203
0.724093
0.723789
0.741186
0.741485
0.741597
0.741635
0.741648
0.741652
0.741654
0.741656
0.741656
0.741657
0.741657
0.741658
0.741658
0.741659
0.741659
0.741659
0.74166
0.74166
0.74166
0.74166
0.741661
0.741661
0.741661
0.741661
0.741661
0.741661
0.741661
0.741661
0.741662
0.741662
0.741662
0.741662
0.741661
0.741661
0.741661
0.741661
0.741661
0.741661
0.741661
0.741661
0.74166
0.74166
0.74166
0.74166
0.741659
0.741659
0.741659
0.741658
0.741658
0.741657
0.741657
0.741656
0.741656
0.741654
0.741652
0.741648
0.741635
0.741597
0.741485
0.741186
0.757724
0.75802
0.758132
0.758171
0.758184
0.758189
0.758191
0.758192
0.758193
0.758193
0.758194
0.758194
0.758195
0.758195
0.758195
0.758196
0.758196
0.758196
0.758196
0.758197
0.758197
0.758197
0.758197
0.758197
0.758197
0.758197
0.758198
0.758198
0.758198
0.758198
0.758198
0.758198
0.758198
0.758198
0.758197
0.758197
0.758197
0.758197
0.758197
0.758197
0.758197
0.758196
0.758196
0.758196
0.758196
0.758195
0.758195
0.758195
0.758194
0.758194
0.758193
0.758193
0.758192
0.758191
0.758189
0.758184
0.758171
0.758132
0.75802
0.757724
0.77343
0.773721
0.773834
0.773874
0.773888
0.773892
0.773895
0.773896
0.773896
0.773897
0.773897
0.773898
0.773898
0.773898
0.773899
0.773899
0.773899
0.773899
0.7739
0.7739
0.7739
0.7739
0.7739
0.7739
0.7739
0.773901
0.773901
0.773901
0.773901
0.773901
0.773901
0.773901
0.773901
0.773901
0.773901
0.7739
0.7739
0.7739
0.7739
0.7739
0.7739
0.7739
0.773899
0.773899
0.773899
0.773899
0.773898
0.773898
0.773898
0.773897
0.773897
0.773896
0.773896
0.773895
0.773892
0.773888
0.773874
0.773834
0.773721
0.77343
0.78833
0.788615
0.788729
0.78877
0.788784
0.788789
0.788791
0.788792
0.788793
0.788793
0.788794
0.788794
0.788794
0.788795
0.788795
0.788795
0.788795
0.788796
0.788796
0.788796
0.788796
0.788796
0.788796
0.788796
0.788797
0.788797
0.788797
0.788797
0.788797
0.788797
0.788797
0.788797
0.788797
0.788797
0.788797
0.788797
0.788796
0.788796
0.788796
0.788796
0.788796
0.788796
0.788796
0.788795
0.788795
0.788795
0.788795
0.788794
0.788794
0.788794
0.788793
0.788793
0.788792
0.788791
0.788789
0.788784
0.78877
0.788729
0.788615
0.78833
0.80245
0.802729
0.802843
0.802885
0.8029
0.802905
0.802907
0.802908
0.802909
0.802909
0.802909
0.80291
0.80291
0.80291
0.802911
0.802911
0.802911
0.802911
0.802911
0.802912
0.802912
0.802912
0.802912
0.802912
0.802912
0.802912
0.802912
0.802912
0.802912
0.802912
0.802912
0.802912
0.802912
0.802912
0.802912
0.802912
0.802912
0.802912
0.802912
0.802912
0.802912
0.802911
0.802911
0.802911
0.802911
0.802911
0.80291
0.80291
0.80291
0.802909
0.802909
0.802909
0.802908
0.802907
0.802905
0.8029
0.802885
0.802843
0.802729
0.80245
0.815816
0.81609
0.816203
0.816246
0.816261
0.816266
0.816269
0.81627
0.81627
0.816271
0.816271
0.816271
0.816271
0.816272
0.816272
0.816272
0.816272
0.816273
0.816273
0.816273
0.816273
0.816273
0.816273
0.816273
0.816273
0.816273
0.816274
0.816274
0.816274
0.816274
0.816274
0.816274
0.816274
0.816274
0.816273
0.816273
0.816273
0.816273
0.816273
0.816273
0.816273
0.816273
0.816273
0.816272
0.816272
0.816272
0.816272
0.816271
0.816271
0.816271
0.816271
0.81627
0.81627
0.816269
0.816266
0.816261
0.816246
0.816203
0.81609
0.815816
0.828455
0.828722
0.828836
0.828879
0.828894
0.8289
0.828902
0.828903
0.828904
0.828904
0.828905
0.828905
0.828905
0.828905
0.828906
0.828906
0.828906
0.828906
0.828906
0.828906
0.828907
0.828907
0.828907
0.828907
0.828907
0.828907
0.828907
0.828907
0.828907
0.828907
0.828907
0.828907
0.828907
0.828907
0.828907
0.828907
0.828907
0.828907
0.828907
0.828907
0.828906
0.828906
0.828906
0.828906
0.828906
0.828906
0.828905
0.828905
0.828905
0.828905
0.828904
0.828904
0.828903
0.828902
0.8289
0.828894
0.828879
0.828836
0.828722
0.828455
0.840394
0.840654
0.840767
0.84081
0.840827
0.840832
0.840835
0.840836
0.840836
0.840837
0.840837
0.840837
0.840838
0.840838
0.840838
0.840838
0.840838
0.840838
0.840839
0.840839
0.840839
0.840839
0.840839
0.840839
0.840839
0.840839
0.840839
0.840839
0.840839
0.840839
0.840839
0.840839
0.840839
0.840839
0.840839
0.840839
0.840839
0.840839
0.840839
0.840839
0.840839
0.840839
0.840838
0.840838
0.840838
0.840838
0.840838
0.840838
0.840837
0.840837
0.840837
0.840836
0.840836
0.840835
0.840832
0.840827
0.84081
0.840767
0.840654
0.840394
0.851658
0.851911
0.852023
0.852067
0.852084
0.85209
0.852092
0.852093
0.852094
0.852094
0.852094
0.852094
0.852095
0.852095
0.852095
0.852095
0.852095
0.852096
0.852096
0.852096
0.852096
0.852096
0.852096
0.852096
0.852096
0.852096
0.852096
0.852096
0.852096
0.852096
0.852096
0.852096
0.852096
0.852096
0.852096
0.852096
0.852096
0.852096
0.852096
0.852096
0.852096
0.852096
0.852096
0.852095
0.852095
0.852095
0.852095
0.852095
0.852094
0.852094
0.852094
0.852094
0.852093
0.852092
0.85209
0.852084
0.852067
0.852023
0.851911
0.851658
0.862273
0.862519
0.86263
0.862675
0.862692
0.862698
0.8627
0.862701
0.862702
0.862702
0.862703
0.862703
0.862703
0.862703
0.862703
0.862703
0.862704
0.862704
0.862704
0.862704
0.862704
0.862704
0.862704
0.862704
0.862704
0.862704
0.862704
0.862704
0.862704
0.862704
0.862704
0.862704
0.862704
0.862704
0.862704
0.862704
0.862704
0.862704
0.862704
0.862704
0.862704
0.862704
0.862704
0.862704
0.862703
0.862703
0.862703
0.862703
0.862703
0.862703
0.862702
0.862702
0.862701
0.8627
0.862698
0.862692
0.862675
0.86263
0.862519
0.862273
0.872267
0.872505
0.872614
0.872659
0.872677
0.872683
0.872686
0.872687
0.872687
0.872688
0.872688
0.872688
0.872688
0.872688
0.872689
0.872689
0.872689
0.872689
0.872689
0.872689
0.872689
0.872689
0.872689
0.872689
0.872689
0.87269
0.87269
0.87269
0.87269
0.87269
0.87269
0.87269
0.87269
0.87269
0.87269
0.872689
0.872689
0.872689
0.872689
0.872689
0.872689
0.872689
0.872689
0.872689
0.872689
0.872689
0.872688
0.872688
0.872688
0.872688
0.872688
0.872687
0.872687
0.872686
0.872683
0.872677
0.872659
0.872614
0.872505
0.872267
0.881663
0.881893
0.882001
0.882047
0.882064
0.882071
0.882074
0.882075
0.882076
0.882076
0.882076
0.882076
0.882076
0.882077
0.882077
0.882077
0.882077
0.882077
0.882077
0.882077
0.882077
0.882077
0.882077
0.882077
0.882077
0.882077
0.882078
0.882078
0.882078
0.882078
0.882078
0.882078
0.882078
0.882078
0.882077
0.882077
0.882077
0.882077
0.882077
0.882077
0.882077
0.882077
0.882077
0.882077
0.882077
0.882077
0.882077
0.882076
0.882076
0.882076
0.882076
0.882076
0.882075
0.882074
0.882071
0.882064
0.882047
0.882001
0.881893
0.881663
0.890488
0.890711
0.890817
0.890862
0.89088
0.890887
0.89089
0.890891
0.890892
0.890892
0.890892
0.890893
0.890893
0.890893
0.890893
0.890893
0.890893
0.890893
0.890893
0.890893
0.890893
0.890893
0.890894
0.890894
0.890894
0.890894
0.890894
0.890894
0.890894
0.890894
0.890894
0.890894
0.890894
0.890894
0.890894
0.890894
0.890894
0.890894
0.890893
0.890893
0.890893
0.890893
0.890893
0.890893
0.890893
0.890893
0.890893
0.890893
0.890893
0.890892
0.890892
0.890892
0.890891
0.89089
0.890887
0.89088
0.890862
0.890817
0.890711
0.890488
0.898767
0.898981
0.899086
0.899131
0.89915
0.899157
0.89916
0.899161
0.899162
0.899162
0.899162
0.899162
0.899162
0.899162
0.899162
0.899163
0.899163
0.899163
0.899163
0.899163
0.899163
0.899163
0.899163
0.899163
0.899163
0.899163
0.899163
0.899163
0.899163
0.899163
0.899163
0.899163
0.899163
0.899163
0.899163
0.899163
0.899163
0.899163
0.899163
0.899163
0.899163
0.899163
0.899163
0.899163
0.899163
0.899162
0.899162
0.899162
0.899162
0.899162
0.899162
0.899162
0.899161
0.89916
0.899157
0.89915
0.899131
0.899086
0.898981
0.898767
0.906524
0.90673
0.906833
0.906878
0.906897
0.906905
0.906908
0.906909
0.906909
0.90691
0.90691
0.90691
0.90691
0.90691
0.90691
0.90691
0.90691
0.90691
0.90691
0.90691
0.906911
0.906911
0.906911
0.906911
0.906911
0.906911
0.906911
0.906911
0.906911
0.906911
0.906911
0.906911
0.906911
0.906911
0.906911
0.906911
0.906911
0.906911
0.906911
0.906911
0.90691
0.90691
0.90691
0.90691
0.90691
0.90691
0.90691
0.90691
0.90691
0.90691
0.90691
0.906909
0.906909
0.906908
0.906905
0.906897
0.906878
0.906833
0.90673
0.906524
0.913784
0.913982
0.914082
0.914127
0.914147
0.914154
0.914157
0.914159
0.914159
0.91416
0.91416
0.91416
0.91416
0.91416
0.91416
0.91416
0.91416
0.91416
0.91416
0.91416
0.91416
0.91416
0.91416
0.914161
0.914161
0.914161
0.914161
0.914161
0.914161
0.914161
0.914161
0.914161
0.914161
0.914161
0.914161
0.914161
0.914161
0.91416
0.91416
0.91416
0.91416
0.91416
0.91416
0.91416
0.91416
0.91416
0.91416
0.91416
0.91416
0.91416
0.91416
0.914159
0.914159
0.914157
0.914154
0.914147
0.914127
0.914082
0.913982
0.913784
0.920571
0.92076
0.920858
0.920903
0.920922
0.92093
0.920934
0.920935
0.920935
0.920936
0.920936
0.920936
0.920936
0.920936
0.920936
0.920936
0.920936
0.920936
0.920936
0.920936
0.920936
0.920936
0.920936
0.920937
0.920937
0.920937
0.920937
0.920937
0.920937
0.920937
0.920937
0.920937
0.920937
0.920937
0.920937
0.920937
0.920937
0.920936
0.920936
0.920936
0.920936
0.920936
0.920936
0.920936
0.920936
0.920936
0.920936
0.920936
0.920936
0.920936
0.920936
0.920935
0.920935
0.920934
0.92093
0.920922
0.920903
0.920858
0.92076
0.920571
0.926907
0.927088
0.927183
0.927228
0.927248
0.927256
0.927259
0.92726
0.927261
0.927261
0.927261
0.927262
0.927262
0.927262
0.927262
0.927262
0.927262
0.927262
0.927262
0.927262
0.927262
0.927262
0.927262
0.927262
0.927262
0.927262
0.927262
0.927262
0.927262
0.927262
0.927262
0.927262
0.927262
0.927262
0.927262
0.927262
0.927262
0.927262
0.927262
0.927262
0.927262
0.927262
0.927262
0.927262
0.927262
0.927262
0.927262
0.927262
0.927262
0.927261
0.927261
0.927261
0.92726
0.927259
0.927256
0.927248
0.927228
0.927183
0.927088
0.926907
0.932815
0.932989
0.933081
0.933125
0.933145
0.933153
0.933157
0.933158
0.933159
0.933159
0.933159
0.933159
0.933159
0.933159
0.933159
0.933159
0.933159
0.93316
0.93316
0.93316
0.93316
0.93316
0.93316
0.93316
0.93316
0.93316
0.93316
0.93316
0.93316
0.93316
0.93316
0.93316
0.93316
0.93316
0.93316
0.93316
0.93316
0.93316
0.93316
0.93316
0.93316
0.93316
0.93316
0.933159
0.933159
0.933159
0.933159
0.933159
0.933159
0.933159
0.933159
0.933159
0.933158
0.933157
0.933153
0.933145
0.933125
0.933081
0.932989
0.932815
0.938319
0.938484
0.938573
0.938617
0.938637
0.938645
0.938649
0.93865
0.938651
0.938651
0.938651
0.938651
0.938652
0.938652
0.938652
0.938652
0.938652
0.938652
0.938652
0.938652
0.938652
0.938652
0.938652
0.938652
0.938652
0.938652
0.938652
0.938652
0.938652
0.938652
0.938652
0.938652
0.938652
0.938652
0.938652
0.938652
0.938652
0.938652
0.938652
0.938652
0.938652
0.938652
0.938652
0.938652
0.938652
0.938652
0.938652
0.938652
0.938651
0.938651
0.938651
0.938651
0.93865
0.938649
0.938645
0.938637
0.938617
0.938573
0.938484
0.938319
0.943438
0.943595
0.943682
0.943725
0.943745
0.943753
0.943757
0.943759
0.943759
0.94376
0.94376
0.94376
0.94376
0.94376
0.94376
0.94376
0.94376
0.94376
0.94376
0.94376
0.94376
0.94376
0.94376
0.94376
0.94376
0.94376
0.94376
0.94376
0.94376
0.94376
0.94376
0.94376
0.94376
0.94376
0.94376
0.94376
0.94376
0.94376
0.94376
0.94376
0.94376
0.94376
0.94376
0.94376
0.94376
0.94376
0.94376
0.94376
0.94376
0.94376
0.94376
0.943759
0.943759
0.943757
0.943753
0.943745
0.943725
0.943682
0.943595
0.943438
0.948194
0.948344
0.948427
0.948469
0.948489
0.948498
0.948502
0.948504
0.948504
0.948505
0.948505
0.948505
0.948505
0.948505
0.948505
0.948505
0.948505
0.948505
0.948505
0.948505
0.948505
0.948505
0.948505
0.948505
0.948505
0.948505
0.948505
0.948505
0.948505
0.948505
0.948505
0.948505
0.948505
0.948505
0.948505
0.948505
0.948505
0.948505
0.948505
0.948505
0.948505
0.948505
0.948505
0.948505
0.948505
0.948505
0.948505
0.948505
0.948505
0.948505
0.948505
0.948504
0.948504
0.948502
0.948498
0.948489
0.948469
0.948427
0.948344
0.948194
0.952608
0.952749
0.95283
0.952872
0.952891
0.9529
0.952904
0.952906
0.952907
0.952907