/*--------------------------------*- C++ -*----------------------------------*\
| =========                 |                                                 |
| \\      /  F ield         | foam-extend: Open Source CFD                    |
|  \\    /   O peration     | Version:     4.0                                |
|   \\  /    A nd           | Web:         http://www.foam-extend.org         |
|    \\/     M anipulation  |                                                 |
\*---------------------------------------------------------------------------*/
FoamFile
{
    version     2.0;
    format      ascii;
    class       volScalarField;
    location    "1290";
    object      cMinus;
}
// * * * * * * * * * * * * * * * * * * * * * * * * * * * * * * * * * * * * * //

dimensions      [0 0 0 0 0 0 0];

internalField   nonuniform List<scalar> 
6960
(
-2.70433e-21
-2.63734e-21
-2.63297e-21
-2.63288e-21
-2.63306e-21
-2.63331e-21
-2.63359e-21
-2.63388e-21
-2.63418e-21
-2.63447e-21
-2.63474e-21
-2.63499e-21
-2.63522e-21
-2.63543e-21
-2.63561e-21
-2.63577e-21
-2.63591e-21
-2.63603e-21
-2.63613e-21
-2.63621e-21
-2.63628e-21
-2.63634e-21
-2.63639e-21
-2.63643e-21
-2.63647e-21
-2.63649e-21
-2.63651e-21
-2.63652e-21
-2.63653e-21
-2.63654e-21
-2.63654e-21
-2.63653e-21
-2.63652e-21
-2.63651e-21
-2.63649e-21
-2.63647e-21
-2.63643e-21
-2.63639e-21
-2.63634e-21
-2.63628e-21
-2.63621e-21
-2.63613e-21
-2.63603e-21
-2.63591e-21
-2.63577e-21
-2.63561e-21
-2.63543e-21
-2.63522e-21
-2.63499e-21
-2.63474e-21
-2.63447e-21
-2.63418e-21
-2.63388e-21
-2.63359e-21
-2.63331e-21
-2.63306e-21
-2.63288e-21
-2.63297e-21
-2.63734e-21
-2.70433e-21
-3.406e-21
-3.32175e-21
-3.3163e-21
-3.31619e-21
-3.31643e-21
-3.31674e-21
-3.3171e-21
-3.31748e-21
-3.31786e-21
-3.31823e-21
-3.31859e-21
-3.31892e-21
-3.31922e-21
-3.31949e-21
-3.31973e-21
-3.31994e-21
-3.32012e-21
-3.32028e-21
-3.32042e-21
-3.32053e-21
-3.32063e-21
-3.32071e-21
-3.32078e-21
-3.32084e-21
-3.32088e-21
-3.32092e-21
-3.32094e-21
-3.32096e-21
-3.32098e-21
-3.32098e-21
-3.32098e-21
-3.32098e-21
-3.32096e-21
-3.32094e-21
-3.32092e-21
-3.32088e-21
-3.32084e-21
-3.32078e-21
-3.32071e-21
-3.32063e-21
-3.32053e-21
-3.32042e-21
-3.32028e-21
-3.32012e-21
-3.31994e-21
-3.31973e-21
-3.31949e-21
-3.31922e-21
-3.31892e-21
-3.31859e-21
-3.31823e-21
-3.31786e-21
-3.31748e-21
-3.3171e-21
-3.31674e-21
-3.31643e-21
-3.31619e-21
-3.3163e-21
-3.32175e-21
-3.406e-21
-6.2147e-21
-6.06162e-21
-6.05178e-21
-6.05158e-21
-6.05202e-21
-6.0526e-21
-6.05325e-21
-6.05395e-21
-6.05465e-21
-6.05534e-21
-6.05599e-21
-6.05659e-21
-6.05714e-21
-6.05764e-21
-6.05808e-21
-6.05847e-21
-6.05881e-21
-6.05911e-21
-6.05936e-21
-6.05958e-21
-6.05976e-21
-6.05991e-21
-6.06004e-21
-6.06015e-21
-6.06023e-21
-6.0603e-21
-6.06035e-21
-6.06039e-21
-6.06041e-21
-6.06042e-21
-6.06042e-21
-6.06041e-21
-6.06039e-21
-6.06035e-21
-6.0603e-21
-6.06023e-21
-6.06015e-21
-6.06004e-21
-6.05991e-21
-6.05976e-21
-6.05958e-21
-6.05936e-21
-6.05911e-21
-6.05881e-21
-6.05847e-21
-6.05808e-21
-6.05764e-21
-6.05714e-21
-6.05659e-21
-6.05599e-21
-6.05534e-21
-6.05465e-21
-6.05395e-21
-6.05325e-21
-6.0526e-21
-6.05202e-21
-6.05158e-21
-6.05178e-21
-6.06162e-21
-6.2147e-21
-1.2382e-20
-1.20783e-20
-1.20589e-20
-1.20585e-20
-1.20594e-20
-1.20605e-20
-1.20619e-20
-1.20632e-20
-1.20646e-20
-1.2066e-20
-1.20673e-20
-1.20685e-20
-1.20696e-20
-1.20706e-20
-1.20715e-20
-1.20722e-20
-1.20729e-20
-1.20735e-20
-1.2074e-20
-1.20744e-20
-1.20748e-20
-1.20751e-20
-1.20753e-20
-1.20756e-20
-1.20757e-20
-1.20759e-20
-1.2076e-20
-1.2076e-20
-1.20761e-20
-1.20761e-20
-1.20761e-20
-1.20761e-20
-1.2076e-20
-1.2076e-20
-1.20759e-20
-1.20757e-20
-1.20756e-20
-1.20753e-20
-1.20751e-20
-1.20748e-20
-1.20744e-20
-1.2074e-20
-1.20735e-20
-1.20729e-20
-1.20722e-20
-1.20715e-20
-1.20706e-20
-1.20696e-20
-1.20685e-20
-1.20673e-20
-1.2066e-20
-1.20646e-20
-1.20632e-20
-1.20619e-20
-1.20605e-20
-1.20594e-20
-1.20585e-20
-1.20589e-20
-1.20783e-20
-1.2382e-20
-2.48032e-20
-2.41977e-20
-2.41591e-20
-2.41584e-20
-2.41602e-20
-2.41625e-20
-2.41651e-20
-2.41678e-20
-2.41706e-20
-2.41734e-20
-2.41759e-20
-2.41783e-20
-2.41805e-20
-2.41825e-20
-2.41843e-20
-2.41858e-20
-2.41871e-20
-2.41883e-20
-2.41893e-20
-2.41902e-20
-2.41909e-20
-2.41915e-20
-2.4192e-20
-2.41924e-20
-2.41927e-20
-2.4193e-20
-2.41932e-20
-2.41933e-20
-2.41934e-20
-2.41935e-20
-2.41935e-20
-2.41934e-20
-2.41933e-20
-2.41932e-20
-2.4193e-20
-2.41927e-20
-2.41924e-20
-2.4192e-20
-2.41915e-20
-2.41909e-20
-2.41902e-20
-2.41893e-20
-2.41883e-20
-2.41871e-20
-2.41858e-20
-2.41843e-20
-2.41825e-20
-2.41805e-20
-2.41783e-20
-2.41759e-20
-2.41734e-20
-2.41706e-20
-2.41678e-20
-2.41651e-20
-2.41625e-20
-2.41602e-20
-2.41584e-20
-2.41591e-20
-2.41977e-20
-2.48032e-20
-4.93276e-20
-4.8129e-20
-4.8053e-20
-4.80516e-20
-4.80551e-20
-4.80596e-20
-4.80648e-20
-4.80703e-20
-4.80759e-20
-4.80813e-20
-4.80864e-20
-4.80911e-20
-4.80955e-20
-4.80994e-20
-4.81029e-20
-4.81059e-20
-4.81086e-20
-4.81109e-20
-4.81129e-20
-4.81145e-20
-4.81159e-20
-4.81171e-20
-4.81181e-20
-4.81189e-20
-4.81196e-20
-4.81201e-20
-4.81205e-20
-4.81207e-20
-4.81209e-20
-4.8121e-20
-4.8121e-20
-4.81209e-20
-4.81207e-20
-4.81205e-20
-4.81201e-20
-4.81196e-20
-4.81189e-20
-4.81181e-20
-4.81171e-20
-4.81159e-20
-4.81145e-20
-4.81129e-20
-4.81109e-20
-4.81086e-20
-4.81059e-20
-4.81029e-20
-4.80994e-20
-4.80955e-20
-4.80911e-20
-4.80864e-20
-4.80813e-20
-4.80759e-20
-4.80703e-20
-4.80648e-20
-4.80596e-20
-4.80551e-20
-4.80516e-20
-4.8053e-20
-4.8129e-20
-4.93276e-20
-9.75017e-20
-9.51437e-20
-9.4995e-20
-9.49923e-20
-9.49991e-20
-9.50082e-20
-9.50184e-20
-9.50293e-20
-9.50402e-20
-9.50509e-20
-9.5061e-20
-9.50704e-20
-9.50789e-20
-9.50866e-20
-9.50935e-20
-9.50995e-20
-9.51047e-20
-9.51093e-20
-9.51131e-20
-9.51164e-20
-9.51192e-20
-9.51215e-20
-9.51234e-20
-9.5125e-20
-9.51262e-20
-9.51272e-20
-9.5128e-20
-9.51285e-20
-9.51289e-20
-9.51291e-20
-9.51291e-20
-9.51289e-20
-9.51285e-20
-9.5128e-20
-9.51272e-20
-9.51262e-20
-9.5125e-20
-9.51234e-20
-9.51215e-20
-9.51192e-20
-9.51164e-20
-9.51131e-20
-9.51093e-20
-9.51047e-20
-9.50995e-20
-9.50935e-20
-9.50866e-20
-9.50789e-20
-9.50704e-20
-9.5061e-20
-9.50509e-20
-9.50402e-20
-9.50293e-20
-9.50184e-20
-9.50082e-20
-9.49991e-20
-9.49923e-20
-9.4995e-20
-9.51437e-20
-9.75017e-20
-1.91992e-19
-1.87371e-19
-1.87081e-19
-1.87076e-19
-1.8709e-19
-1.87107e-19
-1.87128e-19
-1.87149e-19
-1.87171e-19
-1.87191e-19
-1.87211e-19
-1.8723e-19
-1.87247e-19
-1.87262e-19
-1.87275e-19
-1.87287e-19
-1.87297e-19
-1.87306e-19
-1.87314e-19
-1.8732e-19
-1.87326e-19
-1.8733e-19
-1.87334e-19
-1.87337e-19
-1.87339e-19
-1.87341e-19
-1.87343e-19
-1.87344e-19
-1.87345e-19
-1.87345e-19
-1.87345e-19
-1.87345e-19
-1.87344e-19
-1.87343e-19
-1.87341e-19
-1.87339e-19
-1.87337e-19
-1.87334e-19
-1.8733e-19
-1.87326e-19
-1.8732e-19
-1.87314e-19
-1.87306e-19
-1.87297e-19
-1.87287e-19
-1.87275e-19
-1.87262e-19
-1.87247e-19
-1.8723e-19
-1.87211e-19
-1.87191e-19
-1.87171e-19
-1.87149e-19
-1.87128e-19
-1.87107e-19
-1.8709e-19
-1.87076e-19
-1.87081e-19
-1.87371e-19
-1.91992e-19
-3.772e-19
-3.68162e-19
-3.67599e-19
-3.6759e-19
-3.67616e-19
-3.67651e-19
-3.67691e-19
-3.67733e-19
-3.67775e-19
-3.67816e-19
-3.67855e-19
-3.67892e-19
-3.67925e-19
-3.67954e-19
-3.67981e-19
-3.68004e-19
-3.68024e-19
-3.68041e-19
-3.68056e-19
-3.68069e-19
-3.68079e-19
-3.68088e-19
-3.68096e-19
-3.68101e-19
-3.68106e-19
-3.6811e-19
-3.68113e-19
-3.68115e-19
-3.68116e-19
-3.68117e-19
-3.68117e-19
-3.68116e-19
-3.68115e-19
-3.68113e-19
-3.6811e-19
-3.68106e-19
-3.68101e-19
-3.68096e-19
-3.68088e-19
-3.68079e-19
-3.68069e-19
-3.68056e-19
-3.68041e-19
-3.68024e-19
-3.68004e-19
-3.67981e-19
-3.67954e-19
-3.67925e-19
-3.67892e-19
-3.67855e-19
-3.67816e-19
-3.67775e-19
-3.67733e-19
-3.67691e-19
-3.67651e-19
-3.67616e-19
-3.6759e-19
-3.67599e-19
-3.68162e-19
-3.772e-19
-7.39948e-19
-7.22294e-19
-7.21201e-19
-7.21183e-19
-7.21235e-19
-7.21304e-19
-7.21382e-19
-7.21464e-19
-7.21547e-19
-7.21628e-19
-7.21705e-19
-7.21776e-19
-7.21841e-19
-7.21899e-19
-7.21951e-19
-7.21996e-19
-7.22036e-19
-7.2207e-19
-7.22099e-19
-7.22123e-19
-7.22144e-19
-7.22161e-19
-7.22176e-19
-7.22187e-19
-7.22197e-19
-7.22204e-19
-7.2221e-19
-7.22214e-19
-7.22216e-19
-7.22218e-19
-7.22218e-19
-7.22216e-19
-7.22214e-19
-7.2221e-19
-7.22204e-19
-7.22197e-19
-7.22187e-19
-7.22176e-19
-7.22161e-19
-7.22144e-19
-7.22123e-19
-7.22099e-19
-7.2207e-19
-7.22036e-19
-7.21996e-19
-7.21951e-19
-7.21899e-19
-7.21841e-19
-7.21776e-19
-7.21705e-19
-7.21628e-19
-7.21547e-19
-7.21464e-19
-7.21382e-19
-7.21304e-19
-7.21235e-19
-7.21183e-19
-7.21201e-19
-7.22294e-19
-7.39948e-19
-1.44963e-18
-1.41517e-18
-1.41305e-18
-1.41301e-18
-1.41312e-18
-1.41325e-18
-1.41341e-18
-1.41357e-18
-1.41373e-18
-1.41389e-18
-1.41404e-18
-1.41418e-18
-1.41431e-18
-1.41442e-18
-1.41452e-18
-1.41461e-18
-1.41469e-18
-1.41476e-18
-1.41481e-18
-1.41486e-18
-1.4149e-18
-1.41494e-18
-1.41496e-18
-1.41499e-18
-1.415e-18
-1.41502e-18
-1.41503e-18
-1.41504e-18
-1.41504e-18
-1.41505e-18
-1.41505e-18
-1.41504e-18
-1.41504e-18
-1.41503e-18
-1.41502e-18
-1.415e-18
-1.41499e-18
-1.41496e-18
-1.41494e-18
-1.4149e-18
-1.41486e-18
-1.41481e-18
-1.41476e-18
-1.41469e-18
-1.41461e-18
-1.41452e-18
-1.41442e-18
-1.41431e-18
-1.41418e-18
-1.41404e-18
-1.41389e-18
-1.41373e-18
-1.41357e-18
-1.41341e-18
-1.41325e-18
-1.41312e-18
-1.41301e-18
-1.41305e-18
-1.41517e-18
-1.44963e-18
-2.8356e-18
-2.76838e-18
-2.76428e-18
-2.76421e-18
-2.76442e-18
-2.76468e-18
-2.76498e-18
-2.7653e-18
-2.76562e-18
-2.76594e-18
-2.76623e-18
-2.76651e-18
-2.76676e-18
-2.76698e-18
-2.76718e-18
-2.76735e-18
-2.7675e-18
-2.76764e-18
-2.76775e-18
-2.76784e-18
-2.76792e-18
-2.76799e-18
-2.76804e-18
-2.76808e-18
-2.76812e-18
-2.76815e-18
-2.76817e-18
-2.76818e-18
-2.76819e-18
-2.7682e-18
-2.7682e-18
-2.76819e-18
-2.76818e-18
-2.76817e-18
-2.76815e-18
-2.76812e-18
-2.76808e-18
-2.76804e-18
-2.76799e-18
-2.76792e-18
-2.76784e-18
-2.76775e-18
-2.76764e-18
-2.7675e-18
-2.76735e-18
-2.76718e-18
-2.76698e-18
-2.76676e-18
-2.76651e-18
-2.76623e-18
-2.76594e-18
-2.76562e-18
-2.7653e-18
-2.76498e-18
-2.76468e-18
-2.76442e-18
-2.76421e-18
-2.76428e-18
-2.76838e-18
-2.8356e-18
-5.53498e-18
-5.40388e-18
-5.39594e-18
-5.39583e-18
-5.39623e-18
-5.39675e-18
-5.39734e-18
-5.39797e-18
-5.3986e-18
-5.39922e-18
-5.3998e-18
-5.40034e-18
-5.40083e-18
-5.40127e-18
-5.40166e-18
-5.402e-18
-5.4023e-18
-5.40255e-18
-5.40277e-18
-5.40296e-18
-5.40311e-18
-5.40324e-18
-5.40335e-18
-5.40343e-18
-5.4035e-18
-5.40356e-18
-5.4036e-18
-5.40363e-18
-5.40365e-18
-5.40366e-18
-5.40366e-18
-5.40365e-18
-5.40363e-18
-5.4036e-18
-5.40356e-18
-5.4035e-18
-5.40343e-18
-5.40335e-18
-5.40324e-18
-5.40311e-18
-5.40296e-18
-5.40277e-18
-5.40255e-18
-5.4023e-18
-5.402e-18
-5.40166e-18
-5.40127e-18
-5.40083e-18
-5.40034e-18
-5.3998e-18
-5.39922e-18
-5.3986e-18
-5.39797e-18
-5.39734e-18
-5.39675e-18
-5.39623e-18
-5.39583e-18
-5.39594e-18
-5.40388e-18
-5.53498e-18
-1.07698e-17
-1.05143e-17
-1.04989e-17
-1.04987e-17
-1.04995e-17
-1.05005e-17
-1.05017e-17
-1.05029e-17
-1.05042e-17
-1.05054e-17
-1.05065e-17
-1.05076e-17
-1.05085e-17
-1.05094e-17
-1.05102e-17
-1.05108e-17
-1.05114e-17
-1.05119e-17
-1.05124e-17
-1.05127e-17
-1.0513e-17
-1.05133e-17
-1.05135e-17
-1.05137e-17
-1.05138e-17
-1.05139e-17
-1.0514e-17
-1.0514e-17
-1.05141e-17
-1.05141e-17
-1.05141e-17
-1.05141e-17
-1.0514e-17
-1.0514e-17
-1.05139e-17
-1.05138e-17
-1.05137e-17
-1.05135e-17
-1.05133e-17
-1.0513e-17
-1.05127e-17
-1.05124e-17
-1.05119e-17
-1.05114e-17
-1.05108e-17
-1.05102e-17
-1.05094e-17
-1.05085e-17
-1.05076e-17
-1.05065e-17
-1.05054e-17
-1.05042e-17
-1.05029e-17
-1.05017e-17
-1.05005e-17
-1.04995e-17
-1.04987e-17
-1.04989e-17
-1.05143e-17
-1.07698e-17
-2.08525e-17
-2.03544e-17
-2.03248e-17
-2.03245e-17
-2.0326e-17
-2.0328e-17
-2.03303e-17
-2.03327e-17
-2.03352e-17
-2.03375e-17
-2.03398e-17
-2.03419e-17
-2.03438e-17
-2.03455e-17
-2.0347e-17
-2.03483e-17
-2.03494e-17
-2.03504e-17
-2.03512e-17
-2.0352e-17
-2.03526e-17
-2.0353e-17
-2.03535e-17
-2.03538e-17
-2.03541e-17
-2.03543e-17
-2.03544e-17
-2.03545e-17
-2.03546e-17
-2.03546e-17
-2.03546e-17
-2.03546e-17
-2.03545e-17
-2.03544e-17
-2.03543e-17
-2.03541e-17
-2.03538e-17
-2.03535e-17
-2.0353e-17
-2.03526e-17
-2.0352e-17
-2.03512e-17
-2.03504e-17
-2.03494e-17
-2.03483e-17
-2.0347e-17
-2.03455e-17
-2.03438e-17
-2.03419e-17
-2.03398e-17
-2.03375e-17
-2.03352e-17
-2.03327e-17
-2.03303e-17
-2.0328e-17
-2.0326e-17
-2.03245e-17
-2.03248e-17
-2.03544e-17
-2.08525e-17
-4.00568e-17
-3.90866e-17
-3.90294e-17
-3.90288e-17
-3.90318e-17
-3.90358e-17
-3.90403e-17
-3.9045e-17
-3.90498e-17
-3.90545e-17
-3.90589e-17
-3.9063e-17
-3.90667e-17
-3.907e-17
-3.9073e-17
-3.90756e-17
-3.90778e-17
-3.90798e-17
-3.90814e-17
-3.90828e-17
-3.90839e-17
-3.90849e-17
-3.90857e-17
-3.90864e-17
-3.90869e-17
-3.90873e-17
-3.90876e-17
-3.90878e-17
-3.9088e-17
-3.9088e-17
-3.9088e-17
-3.9088e-17
-3.90878e-17
-3.90876e-17
-3.90873e-17
-3.90869e-17
-3.90864e-17
-3.90857e-17
-3.90849e-17
-3.90839e-17
-3.90828e-17
-3.90814e-17
-3.90798e-17
-3.90778e-17
-3.90756e-17
-3.9073e-17
-3.907e-17
-3.90667e-17
-3.9063e-17
-3.90589e-17
-3.90545e-17
-3.90498e-17
-3.9045e-17
-3.90403e-17
-3.90358e-17
-3.90318e-17
-3.90288e-17
-3.90294e-17
-3.90866e-17
-4.00568e-17
-7.59519e-17
-7.40624e-17
-7.39523e-17
-7.39511e-17
-7.39571e-17
-7.39649e-17
-7.39737e-17
-7.39831e-17
-7.39925e-17
-7.40017e-17
-7.40103e-17
-7.40184e-17
-7.40257e-17
-7.40322e-17
-7.4038e-17
-7.40431e-17
-7.40475e-17
-7.40513e-17
-7.40545e-17
-7.40572e-17
-7.40595e-17
-7.40614e-17
-7.40629e-17
-7.40642e-17
-7.40652e-17
-7.4066e-17
-7.40666e-17
-7.40671e-17
-7.40673e-17
-7.40675e-17
-7.40675e-17
-7.40673e-17
-7.40671e-17
-7.40666e-17
-7.4066e-17
-7.40652e-17
-7.40642e-17
-7.40629e-17
-7.40614e-17
-7.40595e-17
-7.40572e-17
-7.40545e-17
-7.40513e-17
-7.40475e-17
-7.40431e-17
-7.4038e-17
-7.40322e-17
-7.40257e-17
-7.40184e-17
-7.40103e-17
-7.40017e-17
-7.39925e-17
-7.39831e-17
-7.39737e-17
-7.39649e-17
-7.39571e-17
-7.39511e-17
-7.39523e-17
-7.40624e-17
-7.59519e-17
-1.40827e-16
-1.37149e-16
-1.36937e-16
-1.36935e-16
-1.36946e-16
-1.36962e-16
-1.36979e-16
-1.36997e-16
-1.37016e-16
-1.37034e-16
-1.37051e-16
-1.37067e-16
-1.37081e-16
-1.37094e-16
-1.37105e-16
-1.37115e-16
-1.37124e-16
-1.37131e-16
-1.37137e-16
-1.37143e-16
-1.37147e-16
-1.37151e-16
-1.37154e-16
-1.37156e-16
-1.37158e-16
-1.3716e-16
-1.37161e-16
-1.37162e-16
-1.37163e-16
-1.37163e-16
-1.37163e-16
-1.37163e-16
-1.37162e-16
-1.37161e-16
-1.3716e-16
-1.37158e-16
-1.37156e-16
-1.37154e-16
-1.37151e-16
-1.37147e-16
-1.37143e-16
-1.37137e-16
-1.37131e-16
-1.37124e-16
-1.37115e-16
-1.37105e-16
-1.37094e-16
-1.37081e-16
-1.37067e-16
-1.37051e-16
-1.37034e-16
-1.37016e-16
-1.36997e-16
-1.36979e-16
-1.36962e-16
-1.36946e-16
-1.36935e-16
-1.36937e-16
-1.37149e-16
-1.40827e-16
-2.50651e-16
-2.43496e-16
-2.43088e-16
-2.43084e-16
-2.43107e-16
-2.43137e-16
-2.43171e-16
-2.43207e-16
-2.43243e-16
-2.43278e-16
-2.43312e-16
-2.43342e-16
-2.43371e-16
-2.43396e-16
-2.43418e-16
-2.43437e-16
-2.43454e-16
-2.43469e-16
-2.43481e-16
-2.43491e-16
-2.435e-16
-2.43507e-16
-2.43513e-16
-2.43518e-16
-2.43522e-16
-2.43525e-16
-2.43527e-16
-2.43528e-16
-2.4353e-16
-2.4353e-16
-2.4353e-16
-2.4353e-16
-2.43528e-16
-2.43527e-16
-2.43525e-16
-2.43522e-16
-2.43518e-16
-2.43513e-16
-2.43507e-16
-2.435e-16
-2.43491e-16
-2.43481e-16
-2.43469e-16
-2.43454e-16
-2.43437e-16
-2.43418e-16
-2.43396e-16
-2.43371e-16
-2.43342e-16
-2.43312e-16
-2.43278e-16
-2.43243e-16
-2.43207e-16
-2.43171e-16
-2.43137e-16
-2.43107e-16
-2.43084e-16
-2.43088e-16
-2.43496e-16
-2.50651e-16
-4.10521e-16
-3.96606e-16
-3.95822e-16
-3.95815e-16
-3.95859e-16
-3.95917e-16
-3.95983e-16
-3.96053e-16
-3.96124e-16
-3.96192e-16
-3.96257e-16
-3.96318e-16
-3.96372e-16
-3.96421e-16
-3.96465e-16
-3.96503e-16
-3.96535e-16
-3.96563e-16
-3.96587e-16
-3.96607e-16
-3.96624e-16
-3.96638e-16
-3.96649e-16
-3.96658e-16
-3.96666e-16
-3.96671e-16
-3.96676e-16
-3.96679e-16
-3.96681e-16
-3.96682e-16
-3.96682e-16
-3.96681e-16
-3.96679e-16
-3.96676e-16
-3.96671e-16
-3.96666e-16
-3.96658e-16
-3.96649e-16
-3.96638e-16
-3.96624e-16
-3.96607e-16
-3.96587e-16
-3.96563e-16
-3.96535e-16
-3.96503e-16
-3.96465e-16
-3.96421e-16
-3.96372e-16
-3.96318e-16
-3.96257e-16
-3.96192e-16
-3.96124e-16
-3.96053e-16
-3.95983e-16
-3.95917e-16
-3.95859e-16
-3.95815e-16
-3.95822e-16
-3.96606e-16
-4.10521e-16
-5.44579e-16
-5.17533e-16
-5.16027e-16
-5.16013e-16
-5.16096e-16
-5.16207e-16
-5.16335e-16
-5.1647e-16
-5.16607e-16
-5.1674e-16
-5.16866e-16
-5.16983e-16
-5.17089e-16
-5.17184e-16
-5.17267e-16
-5.1734e-16
-5.17403e-16
-5.17457e-16
-5.17503e-16
-5.17541e-16
-5.17573e-16
-5.17599e-16
-5.1762e-16
-5.17638e-16
-5.17652e-16
-5.17662e-16
-5.1767e-16
-5.17676e-16
-5.1768e-16
-5.17682e-16
-5.17682e-16
-5.1768e-16
-5.17676e-16
-5.1767e-16
-5.17662e-16
-5.17652e-16
-5.17638e-16
-5.1762e-16
-5.17599e-16
-5.17573e-16
-5.17541e-16
-5.17503e-16
-5.17457e-16
-5.17403e-16
-5.1734e-16
-5.17267e-16
-5.17184e-16
-5.17089e-16
-5.16983e-16
-5.16866e-16
-5.1674e-16
-5.16607e-16
-5.1647e-16
-5.16335e-16
-5.16207e-16
-5.16096e-16
-5.16013e-16
-5.16027e-16
-5.17533e-16
-5.44579e-16
-2.18676e-16
-1.66137e-16
-1.63246e-16
-1.63211e-16
-1.63364e-16
-1.63573e-16
-1.63814e-16
-1.64072e-16
-1.64333e-16
-1.64587e-16
-1.64828e-16
-1.65051e-16
-1.65253e-16
-1.65433e-16
-1.65592e-16
-1.6573e-16
-1.65849e-16
-1.6595e-16
-1.66035e-16
-1.66107e-16
-1.66166e-16
-1.66214e-16
-1.66254e-16
-1.66285e-16
-1.6631e-16
-1.6633e-16
-1.66344e-16
-1.66354e-16
-1.66361e-16
-1.66364e-16
-1.66364e-16
-1.66361e-16
-1.66354e-16
-1.66344e-16
-1.6633e-16
-1.6631e-16
-1.66285e-16
-1.66254e-16
-1.66214e-16
-1.66166e-16
-1.66107e-16
-1.66035e-16
-1.6595e-16
-1.65849e-16
-1.6573e-16
-1.65592e-16
-1.65433e-16
-1.65253e-16
-1.65051e-16
-1.64828e-16
-1.64587e-16
-1.64333e-16
-1.64072e-16
-1.63814e-16
-1.63573e-16
-1.63364e-16
-1.63211e-16
-1.63246e-16
-1.66137e-16
-2.18676e-16
2.38233e-15
2.48433e-15
2.48989e-15
2.48999e-15
2.48973e-15
2.48935e-15
2.48891e-15
2.48844e-15
2.48795e-15
2.48748e-15
2.48703e-15
2.48662e-15
2.48625e-15
2.48591e-15
2.48562e-15
2.48537e-15
2.48515e-15
2.48497e-15
2.48482e-15
2.48469e-15
2.48459e-15
2.4845e-15
2.48443e-15
2.48438e-15
2.48434e-15
2.48431e-15
2.48428e-15
2.48427e-15
2.48426e-15
2.48425e-15
2.48425e-15
2.48426e-15
2.48427e-15
2.48428e-15
2.48431e-15
2.48434e-15
2.48438e-15
2.48443e-15
2.4845e-15
2.48459e-15
2.48469e-15
2.48482e-15
2.48497e-15
2.48515e-15
2.48537e-15
2.48562e-15
2.48591e-15
2.48625e-15
2.48662e-15
2.48703e-15
2.48748e-15
2.48795e-15
2.48844e-15
2.48891e-15
2.48935e-15
2.48973e-15
2.48999e-15
2.48989e-15
2.48433e-15
2.38233e-15
1.41236e-14
1.43215e-14
1.43323e-14
1.43326e-14
1.43322e-14
1.43316e-14
1.43309e-14
1.43301e-14
1.43292e-14
1.43284e-14
1.43276e-14
1.43269e-14
1.43262e-14
1.43256e-14
1.43251e-14
1.43247e-14
1.43244e-14
1.43241e-14
1.43238e-14
1.43236e-14
1.43234e-14
1.43233e-14
1.43232e-14
1.43232e-14
1.43231e-14
1.43231e-14
1.4323e-14
1.4323e-14
1.4323e-14
1.4323e-14
1.4323e-14
1.4323e-14
1.4323e-14
1.4323e-14
1.43231e-14
1.43231e-14
1.43232e-14
1.43232e-14
1.43233e-14
1.43234e-14
1.43236e-14
1.43238e-14
1.43241e-14
1.43244e-14
1.43247e-14
1.43251e-14
1.43256e-14
1.43262e-14
1.43269e-14
1.43276e-14
1.43284e-14
1.43292e-14
1.43301e-14
1.43309e-14
1.43316e-14
1.43322e-14
1.43326e-14
1.43323e-14
1.43215e-14
1.41236e-14
5.99783e-14
6.03623e-14
6.03833e-14
6.03843e-14
6.03841e-14
6.03834e-14
6.03824e-14
6.03812e-14
6.03799e-14
6.03787e-14
6.03775e-14
6.03764e-14
6.03754e-14
6.03745e-14
6.03738e-14
6.03732e-14
6.03727e-14
6.03724e-14
6.03721e-14
6.03719e-14
6.03717e-14
6.03716e-14
6.03715e-14
6.03715e-14
6.03715e-14
6.03715e-14
6.03715e-14
6.03715e-14
6.03715e-14
6.03715e-14
6.03715e-14
6.03715e-14
6.03715e-14
6.03715e-14
6.03715e-14
6.03715e-14
6.03715e-14
6.03715e-14
6.03716e-14
6.03717e-14
6.03719e-14
6.03721e-14
6.03724e-14
6.03727e-14
6.03732e-14
6.03738e-14
6.03745e-14
6.03754e-14
6.03764e-14
6.03775e-14
6.03787e-14
6.03799e-14
6.03812e-14
6.03824e-14
6.03834e-14
6.03841e-14
6.03843e-14
6.03833e-14
6.03623e-14
5.99783e-14
2.29572e-13
2.30317e-13
2.30359e-13
2.30363e-13
2.30364e-13
2.30364e-13
2.30364e-13
2.30363e-13
2.30362e-13
2.30361e-13
2.3036e-13
2.30359e-13
2.30358e-13
2.30358e-13
2.30357e-13
2.30357e-13
2.30357e-13
2.30357e-13
2.30357e-13
2.30357e-13
2.30357e-13
2.30358e-13
2.30358e-13
2.30358e-13
2.30359e-13
2.30359e-13
2.30359e-13
2.30359e-13
2.30359e-13
2.3036e-13
2.3036e-13
2.30359e-13
2.30359e-13
2.30359e-13
2.30359e-13
2.30359e-13
2.30358e-13
2.30358e-13
2.30358e-13
2.30357e-13
2.30357e-13
2.30357e-13
2.30357e-13
2.30357e-13
2.30357e-13
2.30357e-13
2.30358e-13
2.30358e-13
2.30359e-13
2.3036e-13
2.30361e-13
2.30362e-13
2.30363e-13
2.30364e-13
2.30364e-13
2.30364e-13
2.30363e-13
2.30359e-13
2.30317e-13
2.29572e-13
8.4411e-13
8.45556e-13
8.45642e-13
8.45656e-13
8.45665e-13
8.45672e-13
8.45678e-13
8.45682e-13
8.45685e-13
8.45688e-13
8.45691e-13
8.45693e-13
8.45696e-13
8.45698e-13
8.45701e-13
8.45704e-13
8.45707e-13
8.4571e-13
8.45713e-13
8.45715e-13
8.45718e-13
8.4572e-13
8.45723e-13
8.45725e-13
8.45727e-13
8.45728e-13
8.4573e-13
8.45731e-13
8.45731e-13
8.45732e-13
8.45732e-13
8.45731e-13
8.45731e-13
8.4573e-13
8.45728e-13
8.45727e-13
8.45725e-13
8.45723e-13
8.4572e-13
8.45718e-13
8.45715e-13
8.45713e-13
8.4571e-13
8.45707e-13
8.45704e-13
8.45701e-13
8.45698e-13
8.45696e-13
8.45693e-13
8.45691e-13
8.45688e-13
8.45685e-13
8.45682e-13
8.45678e-13
8.45672e-13
8.45665e-13
8.45656e-13
8.45642e-13
8.45556e-13
8.4411e-13
3.05974e-12
3.06256e-12
3.06274e-12
3.0628e-12
3.06284e-12
3.06288e-12
3.06291e-12
3.06294e-12
3.06297e-12
3.06299e-12
3.06301e-12
3.06304e-12
3.06306e-12
3.06308e-12
3.06309e-12
3.06311e-12
3.06313e-12
3.06315e-12
3.06316e-12
3.06318e-12
3.06319e-12
3.0632e-12
3.06321e-12
3.06322e-12
3.06323e-12
3.06324e-12
3.06324e-12
3.06325e-12
3.06325e-12
3.06325e-12
3.06325e-12
3.06325e-12
3.06325e-12
3.06324e-12
3.06324e-12
3.06323e-12
3.06322e-12
3.06321e-12
3.0632e-12
3.06319e-12
3.06318e-12
3.06316e-12
3.06315e-12
3.06313e-12
3.06311e-12
3.06309e-12
3.06308e-12
3.06306e-12
3.06304e-12
3.06301e-12
3.06299e-12
3.06297e-12
3.06294e-12
3.06291e-12
3.06288e-12
3.06284e-12
3.0628e-12
3.06274e-12
3.06256e-12
3.05974e-12
1.10653e-11
1.10708e-11
1.10713e-11
1.10715e-11
1.10716e-11
1.10718e-11
1.10719e-11
1.10721e-11
1.10722e-11
1.10723e-11
1.10724e-11
1.10725e-11
1.10726e-11
1.10727e-11
1.10728e-11
1.10729e-11
1.1073e-11
1.1073e-11
1.10731e-11
1.10732e-11
1.10732e-11
1.10733e-11
1.10733e-11
1.10734e-11
1.10734e-11
1.10734e-11
1.10734e-11
1.10735e-11
1.10735e-11
1.10735e-11
1.10735e-11
1.10735e-11
1.10735e-11
1.10734e-11
1.10734e-11
1.10734e-11
1.10734e-11
1.10733e-11
1.10733e-11
1.10732e-11
1.10732e-11
1.10731e-11
1.1073e-11
1.1073e-11
1.10729e-11
1.10728e-11
1.10727e-11
1.10726e-11
1.10725e-11
1.10724e-11
1.10723e-11
1.10722e-11
1.10721e-11
1.10719e-11
1.10718e-11
1.10716e-11
1.10715e-11
1.10713e-11
1.10708e-11
1.10653e-11
4.01373e-11
4.01483e-11
4.01495e-11
4.01502e-11
4.01509e-11
4.01516e-11
4.01522e-11
4.01527e-11
4.01533e-11
4.01538e-11
4.01542e-11
4.01547e-11
4.01551e-11
4.01555e-11
4.01558e-11
4.01562e-11
4.01565e-11
4.01568e-11
4.0157e-11
4.01573e-11
4.01575e-11
4.01577e-11
4.01578e-11
4.0158e-11
4.01581e-11
4.01582e-11
4.01583e-11
4.01584e-11
4.01584e-11
4.01585e-11
4.01585e-11
4.01584e-11
4.01584e-11
4.01583e-11
4.01582e-11
4.01581e-11
4.0158e-11
4.01578e-11
4.01577e-11
4.01575e-11
4.01573e-11
4.0157e-11
4.01568e-11
4.01565e-11
4.01562e-11
4.01558e-11
4.01555e-11
4.01551e-11
4.01547e-11
4.01542e-11
4.01538e-11
4.01533e-11
4.01527e-11
4.01522e-11
4.01516e-11
4.01509e-11
4.01502e-11
4.01495e-11
4.01483e-11
4.01373e-11
1.46274e-10
1.46297e-10
1.463e-10
1.46303e-10
1.46306e-10
1.46308e-10
1.46311e-10
1.46313e-10
1.46315e-10
1.46317e-10
1.46319e-10
1.46321e-10
1.46322e-10
1.46324e-10
1.46325e-10
1.46326e-10
1.46328e-10
1.46329e-10
1.4633e-10
1.46331e-10
1.46332e-10
1.46332e-10
1.46333e-10
1.46334e-10
1.46334e-10
1.46334e-10
1.46335e-10
1.46335e-10
1.46335e-10
1.46335e-10
1.46335e-10
1.46335e-10
1.46335e-10
1.46335e-10
1.46334e-10
1.46334e-10
1.46334e-10
1.46333e-10
1.46332e-10
1.46332e-10
1.46331e-10
1.4633e-10
1.46329e-10
1.46328e-10
1.46326e-10
1.46325e-10
1.46324e-10
1.46322e-10
1.46321e-10
1.46319e-10
1.46317e-10
1.46315e-10
1.46313e-10
1.46311e-10
1.46308e-10
1.46306e-10
1.46303e-10
1.463e-10
1.46297e-10
1.46274e-10
5.35262e-10
5.3531e-10
5.35322e-10
5.35332e-10
5.35342e-10
5.35352e-10
5.35361e-10
5.3537e-10
5.35378e-10
5.35386e-10
5.35393e-10
5.354e-10
5.35406e-10
5.35412e-10
5.35418e-10
5.35423e-10
5.35427e-10
5.35431e-10
5.35435e-10
5.35439e-10
5.35442e-10
5.35445e-10
5.35448e-10
5.3545e-10
5.35452e-10
5.35453e-10
5.35455e-10
5.35456e-10
5.35456e-10
5.35456e-10
5.35456e-10
5.35456e-10
5.35456e-10
5.35455e-10
5.35453e-10
5.35452e-10
5.3545e-10
5.35448e-10
5.35445e-10
5.35442e-10
5.35439e-10
5.35435e-10
5.35431e-10
5.35427e-10
5.35423e-10
5.35418e-10
5.35412e-10
5.35406e-10
5.354e-10
5.35393e-10
5.35386e-10
5.35378e-10
5.3537e-10
5.35361e-10
5.35352e-10
5.35342e-10
5.35332e-10
5.35322e-10
5.3531e-10
5.35262e-10
1.96255e-09
1.96266e-09
1.9627e-09
1.96274e-09
1.96278e-09
1.96281e-09
1.96285e-09
1.96288e-09
1.96291e-09
1.96294e-09
1.96297e-09
1.963e-09
1.96302e-09
1.96304e-09
1.96306e-09
1.96308e-09
1.9631e-09
1.96312e-09
1.96313e-09
1.96314e-09
1.96316e-09
1.96317e-09
1.96318e-09
1.96318e-09
1.96319e-09
1.9632e-09
1.9632e-09
1.96321e-09
1.96321e-09
1.96321e-09
1.96321e-09
1.96321e-09
1.96321e-09
1.9632e-09
1.9632e-09
1.96319e-09
1.96318e-09
1.96318e-09
1.96317e-09
1.96316e-09
1.96314e-09
1.96313e-09
1.96312e-09
1.9631e-09
1.96308e-09
1.96306e-09
1.96304e-09
1.96302e-09
1.963e-09
1.96297e-09
1.96294e-09
1.96291e-09
1.96288e-09
1.96285e-09
1.96281e-09
1.96278e-09
1.96274e-09
1.9627e-09
1.96266e-09
1.96255e-09
7.18625e-09
7.18653e-09
7.18668e-09
7.18683e-09
7.18697e-09
7.18711e-09
7.18724e-09
7.18737e-09
7.18748e-09
7.18759e-09
7.1877e-09
7.18779e-09
7.18788e-09
7.18797e-09
7.18804e-09
7.18812e-09
7.18818e-09
7.18824e-09
7.1883e-09
7.18835e-09
7.1884e-09
7.18844e-09
7.18847e-09
7.1885e-09
7.18853e-09
7.18855e-09
7.18857e-09
7.18858e-09
7.18859e-09
7.1886e-09
7.1886e-09
7.18859e-09
7.18858e-09
7.18857e-09
7.18855e-09
7.18853e-09
7.1885e-09
7.18847e-09
7.18844e-09
7.1884e-09
7.18835e-09
7.1883e-09
7.18824e-09
7.18818e-09
7.18812e-09
7.18804e-09
7.18797e-09
7.18788e-09
7.18779e-09
7.1877e-09
7.18759e-09
7.18748e-09
7.18737e-09
7.18724e-09
7.18711e-09
7.18697e-09
7.18683e-09
7.18668e-09
7.18653e-09
7.18625e-09
2.61679e-08
2.61687e-08
2.61692e-08
2.61698e-08
2.61703e-08
2.61708e-08
2.61713e-08
2.61718e-08
2.61722e-08
2.61726e-08
2.6173e-08
2.61734e-08
2.61737e-08
2.6174e-08
2.61743e-08
2.61746e-08
2.61748e-08
2.6175e-08
2.61752e-08
2.61754e-08
2.61756e-08
2.61757e-08
2.61759e-08
2.6176e-08
2.61761e-08
2.61762e-08
2.61762e-08
2.61763e-08
2.61763e-08
2.61763e-08
2.61763e-08
2.61763e-08
2.61763e-08
2.61762e-08
2.61762e-08
2.61761e-08
2.6176e-08
2.61759e-08
2.61757e-08
2.61756e-08
2.61754e-08
2.61752e-08
2.6175e-08
2.61748e-08
2.61746e-08
2.61743e-08
2.6174e-08
2.61737e-08
2.61734e-08
2.6173e-08
2.61726e-08
2.61722e-08
2.61718e-08
2.61713e-08
2.61708e-08
2.61703e-08
2.61698e-08
2.61692e-08
2.61687e-08
2.61679e-08
9.42745e-08
9.42769e-08
9.42788e-08
9.42808e-08
9.42828e-08
9.42846e-08
9.42864e-08
9.42881e-08
9.42897e-08
9.42912e-08
9.42926e-08
9.42939e-08
9.42951e-08
9.42963e-08
9.42973e-08
9.42983e-08
9.42992e-08
9.43e-08
9.43007e-08
9.43014e-08
9.4302e-08
9.43026e-08
9.43031e-08
9.43035e-08
9.43039e-08
9.43042e-08
9.43044e-08
9.43046e-08
9.43047e-08
9.43048e-08
9.43048e-08
9.43047e-08
9.43046e-08
9.43044e-08
9.43042e-08
9.43039e-08
9.43035e-08
9.43031e-08
9.43026e-08
9.4302e-08
9.43014e-08
9.43007e-08
9.43e-08
9.42992e-08
9.42983e-08
9.42973e-08
9.42963e-08
9.42951e-08
9.42939e-08
9.42926e-08
9.42912e-08
9.42897e-08
9.42881e-08
9.42864e-08
9.42846e-08
9.42828e-08
9.42808e-08
9.42788e-08
9.42769e-08
9.42745e-08
3.34024e-07
3.34031e-07
3.34038e-07
3.34045e-07
3.34052e-07
3.34059e-07
3.34065e-07
3.34071e-07
3.34077e-07
3.34082e-07
3.34087e-07
3.34092e-07
3.34096e-07
3.341e-07
3.34104e-07
3.34107e-07
3.3411e-07
3.34113e-07
3.34116e-07
3.34118e-07
3.34121e-07
3.34123e-07
3.34124e-07
3.34126e-07
3.34127e-07
3.34128e-07
3.34129e-07
3.3413e-07
3.3413e-07
3.3413e-07
3.3413e-07
3.3413e-07
3.3413e-07
3.34129e-07
3.34128e-07
3.34127e-07
3.34126e-07
3.34124e-07
3.34123e-07
3.34121e-07
3.34118e-07
3.34116e-07
3.34113e-07
3.3411e-07
3.34107e-07
3.34104e-07
3.341e-07
3.34096e-07
3.34092e-07
3.34087e-07
3.34082e-07
3.34077e-07
3.34071e-07
3.34065e-07
3.34059e-07
3.34052e-07
3.34045e-07
3.34038e-07
3.34031e-07
3.34024e-07
1.15592e-06
1.15594e-06
1.15597e-06
1.15599e-06
1.15602e-06
1.15604e-06
1.15606e-06
1.15608e-06
1.1561e-06
1.15612e-06
1.15614e-06
1.15615e-06
1.15617e-06
1.15618e-06
1.1562e-06
1.15621e-06
1.15622e-06
1.15623e-06
1.15624e-06
1.15625e-06
1.15625e-06
1.15626e-06
1.15627e-06
1.15627e-06
1.15628e-06
1.15628e-06
1.15628e-06
1.15628e-06
1.15629e-06
1.15629e-06
1.15629e-06
1.15629e-06
1.15628e-06
1.15628e-06
1.15628e-06
1.15628e-06
1.15627e-06
1.15627e-06
1.15626e-06
1.15625e-06
1.15625e-06
1.15624e-06
1.15623e-06
1.15622e-06
1.15621e-06
1.1562e-06
1.15618e-06
1.15617e-06
1.15615e-06
1.15614e-06
1.15612e-06
1.1561e-06
1.15608e-06
1.15606e-06
1.15604e-06
1.15602e-06
1.15599e-06
1.15597e-06
1.15594e-06
1.15592e-06
3.87651e-06
3.87658e-06
3.87666e-06
3.87675e-06
3.87683e-06
3.8769e-06
3.87698e-06
3.87704e-06
3.87711e-06
3.87717e-06
3.87723e-06
3.87728e-06
3.87733e-06
3.87738e-06
3.87742e-06
3.87746e-06
3.87749e-06
3.87753e-06
3.87756e-06
3.87759e-06
3.87761e-06
3.87763e-06
3.87765e-06
3.87767e-06
3.87768e-06
3.8777e-06
3.87771e-06
3.87771e-06
3.87772e-06
3.87772e-06
3.87772e-06
3.87772e-06
3.87771e-06
3.87771e-06
3.8777e-06
3.87768e-06
3.87767e-06
3.87765e-06
3.87763e-06
3.87761e-06
3.87759e-06
3.87756e-06
3.87753e-06
3.87749e-06
3.87746e-06
3.87742e-06
3.87738e-06
3.87733e-06
3.87728e-06
3.87723e-06
3.87717e-06
3.87711e-06
3.87704e-06
3.87698e-06
3.8769e-06
3.87683e-06
3.87675e-06
3.87666e-06
3.87658e-06
3.87651e-06