/*--------------------------------*- C++ -*----------------------------------*\
| =========                 |                                                 |
| \\      /  F ield         | foam-extend: Open Source CFD                    |
|  \\    /   O peration     | Version:     4.0                                |
|   \\  /    A nd           | Web:         http://www.foam-extend.org         |
|    \\/     M anipulation  |                                                 |
\*---------------------------------------------------------------------------*/
FoamFile
{
    version     2.0;
    format      ascii;
    class       surfaceScalarField;
    location    "23";
    object      phi;
}
// * * * * * * * * * * * * * * * * * * * * * * * * * * * * * * * * * * * * * //

dimensions      [0 3 -1 0 0 0 0];

internalField   nonuniform List<scalar> 
13744
(
-6.98105e-41
-7.31149e-38
-2.37723e-41
9.48316e-42
-1.38646e-41
-3.70434e-41
-3.86541e-42
-1.3218e-40
7.65201e-42
-1.992e-40
9.18531e-42
-3.22932e-40
6.37245e-42
-4.29902e-40
2.30484e-42
-5.03364e-40
9.15941e-44
-4.94596e-40
1.07032e-42
-3.78727e-40
3.0318e-42
-2.48344e-40
4.00704e-42
-2.14099e-40
3.47341e-42
-3.29867e-40
2.07384e-42
-5.41141e-40
6.76393e-43
-7.11262e-40
-2.42118e-43
-7.22006e-40
-8.17126e-43
-5.65352e-40
-1.2877e-42
-3.35494e-40
-1.71548e-42
-1.42756e-40
-1.97079e-42
-4.57884e-41
-1.92737e-42
-4.36274e-41
-1.63113e-42
-1.07737e-40
-1.26414e-42
-1.97655e-40
-9.94482e-43
-2.65522e-40
-8.64496e-43
-2.68408e-40
-8.12585e-43
-1.91695e-40
-7.57705e-43
-5.72099e-41
-6.46762e-43
9.23762e-41
-4.59413e-43
2.14315e-40
-2.16578e-43
2.68847e-40
4.91314e-45
2.253e-40
1.03123e-43
8.93489e-41
3.98491e-44
-7.11937e-41
-9.62546e-44
-1.54355e-40
-1.43898e-43
-1.09199e-40
-1.94794e-44
8.26951e-42
1.82988e-43
7.92786e-41
2.75436e-43
3.53955e-41
1.80445e-43
-8.02406e-41
3.44885e-44
-1.67237e-40
6.45364e-44
-1.77365e-40
3.57661e-43
-1.60773e-40
7.53477e-43
-2.07984e-40
9.77078e-43
-3.51339e-40
8.5442e-43
-5.28932e-40
4.49194e-43
-6.41076e-40
-3.84247e-44
-6.3903e-40
-4.14903e-43
-5.53704e-40
-6.07435e-43
-4.53508e-40
-6.69079e-43
-3.87575e-40
-6.57125e-43
-3.74837e-40
-7.38847e-43
-4.11248e-40
-8.61142e-43
-4.63756e-40
-1.16987e-42
-4.69884e-40
-1.27502e-42
-3.68441e-40
-1.28236e-42
-1.74699e-40
-9.81608e-43
2.99288e-41
-3.33083e-43
1.43248e-40
-1.9915e-43
1.34725e-40
3.3179e-41
-1.33644e-40
-7.35265e-38
-6.86098e-41
-2.19289e-40
-3.07957e-41
-3.04865e-40
-5.52952e-42
-3.31361e-40
2.41239e-41
-4.02427e-40
2.50212e-41
-7.71457e-40
1.48974e-41
-1.04893e-39
4.85005e-42
-1.13673e-39
9.8718e-43
-1.04909e-39
4.3736e-42
-8.67519e-40
9.08678e-42
-8.02236e-40
1.02751e-41
-8.93727e-40
7.99054e-42
-1.06543e-39
4.34308e-42
-1.22975e-39
1.33039e-42
-1.32152e-39
-5.88785e-43
-1.28022e-39
-2.06819e-42
-1.07588e-39
-3.63132e-42
-7.48036e-40
-5.06197e-42
-4.10153e-40
-5.86037e-42
-1.87306e-40
-5.7636e-42
-1.3625e-40
-5.00818e-42
-2.07234e-40
-4.05743e-42
-2.81336e-40
-3.25197e-42
-2.45533e-40
-2.65786e-42
-6.00558e-41
-2.17863e-42
2.31226e-40
-1.71759e-42
5.42115e-40
-1.24284e-42
7.98667e-40
-7.74678e-43
9.5638e-40
-3.61776e-43
9.95547e-40
-5.93951e-44
9.19721e-40
1.13495e-43
7.68737e-40
2.04544e-43
6.11188e-40
2.92067e-43
5.00669e-40
4.2278e-43
4.39099e-40
5.66505e-43
3.80864e-40
6.23613e-43
2.83277e-40
5.08296e-43
1.46381e-40
2.64156e-43
6.46765e-42
7.09107e-44
-1.0846e-40
1.25739e-43
-2.05986e-40
4.87371e-43
-3.16547e-40
1.02096e-42
-4.62348e-40
1.46695e-42
-6.50975e-40
1.56516e-42
-8.82197e-40
1.21068e-42
-1.13701e-39
4.84602e-43
-1.35442e-39
-3.28842e-43
-1.44377e-39
-9.74132e-43
-1.35475e-39
-1.30822e-42
-1.13406e-39
-1.41656e-42
-9.17555e-40
-1.52518e-42
-8.31407e-40
-1.70932e-42
-8.96231e-40
-2.23014e-42
-9.96128e-40
-2.46016e-42
-9.39246e-40
-2.82161e-42
-6.43259e-40
-2.27137e-42
-1.66463e-40
-1.25226e-42
2.67136e-40
-7.20752e-43
4.50869e-40
3.86356e-40
-1.99795e-40
-7.40238e-38
-1.06773e-40
-6.83142e-40
-4.12685e-41
-4.93289e-40
-2.73057e-42
-1.759e-40
4.15741e-41
-2.47783e-40
3.94397e-41
-1.0325e-39
2.11578e-41
-1.60561e-39
6.37077e-42
-1.68112e-39
2.29762e-42
-1.41302e-39
8.16656e-42
-1.13087e-39
1.49866e-41
-1.21552e-39
1.57339e-41
-1.54166e-39
1.15742e-41
-1.77094e-39
5.91717e-42
-1.74311e-39
1.59838e-42
-1.55364e-39
-1.14186e-42
-1.33802e-39
-3.40537e-42
-1.12378e-39
-5.96497e-42
-8.69399e-40
-8.32296e-42
-5.84034e-40
-9.63508e-42
-3.54251e-40
-9.46995e-42
-2.38302e-40
-8.20497e-42
-1.89193e-40
-6.56661e-42
-8.19603e-41
-5.11007e-42
1.74066e-40
-3.98131e-42
5.67061e-40
-3.07466e-42
1.0058e-39
-2.26256e-42
1.39658e-39
-1.51129e-42
1.68587e-39
-8.55315e-43
1.8554e-39
-3.44608e-43
1.90317e-39
4.81981e-45
1.85158e-39
2.36532e-43
1.74739e-39
4.28433e-43
1.62693e-39
6.25433e-43
1.48247e-39
8.02885e-43
1.27568e-39
8.95556e-43
9.97634e-40
8.28667e-43
6.94479e-40
5.67833e-43
4.30742e-40
1.89035e-43
2.31834e-40
-1.23683e-43
7.41944e-41
-1.65646e-43
-7.68837e-41
1.5059e-43
-2.33407e-40
7.23646e-43
-4.00871e-40
1.28441e-42
-6.12983e-40
1.53339e-42
-9.21922e-40
1.32858e-42
-1.32542e-39
7.30635e-43
-1.71893e-39
2.0604e-44
-1.94384e-39
-6.33513e-43
-1.92205e-39
-1.09645e-42
-1.71256e-39
-1.52702e-42
-1.46632e-39
-1.94287e-42
-1.29809e-39
-2.3751e-42
-1.22568e-39
-2.93099e-42
-1.18702e-39
-2.97602e-42
-1.04889e-39
-3.44007e-42
-7.52333e-40
-2.59809e-42
-2.67593e-40
-1.7814e-42
2.49439e-40
-1.06974e-42
5.76449e-40
7.19017e-40
-2.72157e-40
-7.43751e-38
-1.41843e-40
-1.08444e-39
-4.76511e-41
-4.73815e-40
3.0675e-42
2.77046e-40
5.91837e-41
1.99304e-40
5.27004e-41
-1.03097e-39
2.63574e-41
-1.93518e-39
7.74506e-42
-2.0207e-39
4.06745e-42
-1.5698e-39
1.21259e-41
-1.14715e-39
2.0543e-41
-1.31383e-39
2.07083e-41
-1.81773e-39
1.48871e-41
-2.09144e-39
7.42521e-42
-1.88991e-39
1.76699e-42
-1.42938e-39
-1.9703e-42
-1.02704e-39
-5.10629e-42
-8.05091e-40
-8.56426e-42
-6.74181e-40
-1.16397e-41
-5.20766e-40
-1.32462e-41
-3.25635e-40
-1.28337e-41
-1.1688e-40
-1.09162e-41
1.19868e-40
-8.49768e-42
4.44106e-40
-6.37263e-42
8.90718e-40
-4.76687e-42
1.41978e-39
-3.52641e-42
1.94497e-39
-2.46089e-42
2.38843e-39
-1.52029e-42
2.71137e-39
-7.52377e-43
2.90449e-39
-2.00176e-43
2.98068e-39
1.5241e-43
2.96959e-39
3.67725e-43
2.90106e-39
5.15263e-43
2.77722e-39
6.28774e-43
2.56514e-39
7.11561e-43
2.23731e-39
7.42036e-43
1.81532e-39
6.5419e-43
1.36995e-39
3.71383e-43
9.73093e-40
-7.19014e-44
6.59376e-40
-4.86165e-43
4.29294e-40
-6.18853e-43
2.72921e-40
-3.56112e-43
1.62017e-40
1.91414e-43
2.73007e-41
7.34503e-43
-2.24342e-40
1.014e-42
-6.33817e-40
9.62919e-43
-1.12909e-39
6.61952e-43
-1.56541e-39
3.02834e-43
-1.83005e-39
-1.53658e-43
-1.92292e-39
-6.37083e-43
-1.90613e-39
-1.34755e-42
-1.8247e-39
-2.05853e-42
-1.65648e-39
-2.7729e-42
-1.37703e-39
-3.40585e-42
-1.03811e-39
-3.30437e-42
-6.93299e-40
-3.79354e-42
-4.19854e-40
-2.55595e-42
-1.18591e-40
-1.98948e-42
2.34543e-40
-1.15655e-42
5.66752e-40
9.53265e-40
-3.42278e-40
-7.44228e-38
-1.74693e-40
-1.11332e-39
-5.04929e-41
-2.1106e-40
1.11124e-41
8.40104e-40
7.64815e-41
7.56702e-40
6.48071e-41
-7.95206e-40
3.0883e-41
-1.94294e-39
9.33178e-42
-2.07449e-39
6.43294e-42
-1.52235e-39
1.6255e-41
-9.39195e-40
2.5746e-41
-1.03014e-39
2.52302e-41
-1.53407e-39
1.79892e-41
-1.80737e-39
8.92732e-42
-1.557e-39
1.8755e-42
-1.02312e-39
-3.08676e-42
-5.75527e-40
-7.24942e-42
-3.65719e-40
-1.15367e-41
-2.7897e-40
-1.50636e-41
-1.36602e-40
-1.66396e-41
1.27121e-40
-1.57194e-41
4.71132e-40
-1.30165e-41
8.42261e-40
-9.80357e-42
1.2457e-39
-7.07504e-42
1.72337e-39
-5.08283e-42
2.29371e-39
-3.59229e-42
2.90896e-39
-2.34413e-42
3.46963e-39
-1.28668e-42
3.88045e-39
-4.81193e-43
4.1079e-39
3.75764e-44
4.18757e-39
3.10237e-43
4.1775e-39
4.06636e-43
4.10164e-39
3.86065e-43
3.93594e-39
2.99433e-43
3.64797e-39
2.07844e-43
3.23979e-39
1.47165e-43
2.7542e-39
5.45666e-44
2.24858e-39
-1.86468e-43
1.77346e-39
-5.77228e-43
1.37276e-39
-9.42533e-43
1.08542e-39
-1.05711e-42
9.21649e-40
-8.58327e-43
8.28024e-40
-4.62629e-43
6.91538e-40
-7.15467e-44
4.13137e-40
2.06489e-43
-5.81616e-42
3.76037e-43
-4.59888e-40
4.32349e-43
-8.44772e-40
4.02591e-43
-1.14028e-39
9.24307e-44
-1.40086e-39
-3.65571e-43
-1.62947e-39
-1.14953e-42
-1.74324e-39
-1.88613e-42
-1.6137e-39
-2.74785e-42
-1.20586e-39
-3.55661e-42
-6.60542e-40
-3.58882e-42
-1.50104e-40
-4.28366e-42
1.31377e-40
-2.62873e-42
2.88567e-40
-2.16324e-42
4.48905e-40
-1.05479e-42
6.83558e-40
1.16821e-39
-4.08579e-40
-7.41852e-38
-2.04868e-40
-7.05304e-40
-5.06889e-41
2.87143e-40
2.07163e-41
1.45039e-39
9.33109e-41
1.33815e-39
7.59492e-41
-4.04752e-40
3.49918e-41
-1.679e-39
1.12273e-41
-1.85009e-39
9.40175e-42
-1.24351e-39
2.06561e-41
-4.7122e-40
3.07815e-41
-3.49917e-40
2.94136e-41
-7.11404e-40
2.08154e-41
-9.66164e-40
1.02345e-41
-8.08571e-40
1.76248e-42
-4.26695e-40
-4.51176e-42
-1.11076e-40
-9.71361e-42
5.64658e-41
-1.46887e-41
2.28158e-40
-1.8423e-41
5.63144e-40
-1.97434e-41
1.05001e-39
-1.82047e-41
1.54459e-39
-1.47106e-41
1.92368e-39
-1.07273e-41
2.21037e-39
-7.38147e-42
2.55425e-39
-4.96638e-42
3.09076e-39
-3.23317e-42
3.80547e-39
-1.89357e-42
4.52676e-39
-8.55739e-43
5.05823e-39
-1.30164e-43
5.31973e-39
2.79476e-43
5.36979e-39
4.05365e-43
5.31094e-39
2.96817e-43
5.18834e-39
2.80665e-44
4.97777e-39
-3.01326e-43
4.64606e-39
-5.80853e-43
4.20383e-39
-7.49331e-43
3.7035e-39
-8.65484e-43
3.20243e-39
-1.04639e-42
2.74376e-39
-1.29841e-42
2.35933e-39
-1.49455e-42
2.06566e-39
-1.5089e-42
1.84981e-39
-1.3707e-42
1.66646e-39
-1.16564e-42
1.46446e-39
-9.37617e-43
1.22074e-39
-6.28458e-43
9.44538e-40
-2.35474e-43
6.50487e-40
7.74486e-44
3.22772e-40
2.02203e-43
-5.94516e-41
-6.85983e-44
-4.8541e-40
-4.29938e-43
-8.56618e-40
-1.05071e-42
-1.04631e-39
-1.5447e-42
-9.63194e-40
-2.40832e-42
-6.20468e-40
-3.43766e-42
-1.56046e-40
-3.83372e-42
3.25411e-40
-4.94648e-42
6.39657e-40
-2.95679e-42
8.48138e-40
-2.48081e-42
1.00092e-39
-8.79095e-43
1.13202e-39
1.47329e-39
-4.7159e-40
-7.38752e-38
-2.32634e-40
-9.78763e-41
-4.92541e-41
9.83181e-40
3.12741e-41
2.21652e-39
1.09687e-40
2.00944e-39
8.64006e-41
5.61966e-41
3.88932e-41
-1.31017e-39
1.34442e-41
-1.45259e-39
1.29392e-41
-7.18673e-40
2.54327e-41
3.0141e-40
3.58438e-41
6.59433e-40
3.33631e-41
4.1654e-40
2.3266e-41
1.13053e-40
1.10961e-41
9.25856e-41
1.20934e-42
2.50169e-40
-6.26102e-42
3.99607e-40
-1.22727e-41
5.46246e-40
-1.76764e-41
8.73432e-40
-2.14562e-41
1.47794e-39
-2.25326e-41
2.2152e-39
-2.05204e-41
2.81484e-39
-1.63739e-41
3.11875e-39
-1.16115e-41
3.22177e-39
-7.47893e-42
3.39295e-39
-4.44426e-42
3.85064e-39
-2.40911e-42
4.58581e-39
-1.09613e-42
5.37868e-39
-2.75776e-43
5.9801e-39
2.142e-43
6.27647e-39
4.41438e-43
6.31463e-39
3.88727e-43
6.20476e-39
3.96786e-44
6.02246e-39
-5.19554e-43
5.77871e-39
-1.11385e-42
5.45227e-39
-1.56716e-42
5.0403e-39
-1.80519e-42
4.57941e-39
-1.90379e-42
4.13258e-39
-1.99906e-42
3.75124e-39
-2.12152e-42
3.44401e-39
-2.19052e-42
3.17247e-39
-2.13346e-42
2.89055e-39
-2.00208e-42
2.59821e-39
-1.8407e-42
2.35315e-39
-1.63054e-42
2.20529e-39
-1.27815e-42
2.11644e-39
-8.20645e-43
1.9678e-39
-4.77079e-43
1.65581e-39
-3.38915e-43
1.20134e-39
-5.55883e-43
7.25456e-40
-7.06377e-43
3.78841e-40
-1.06315e-42
2.1654e-40
-1.27549e-42
2.09933e-40
-2.12107e-42
2.98956e-40
-3.3097e-42
4.36773e-40
-4.02232e-42
7.07283e-40
-5.5508e-42
1.02834e-39
-3.33221e-42
1.42091e-39
-2.94687e-42
1.75104e-39
-7.65429e-43
1.83563e-39
1.86562e-39
-5.3152e-40
-7.37626e-38
-2.58495e-40
3.63963e-40
-4.69971e-41
1.77099e-39
4.22353e-41
3.21214e-39
1.25541e-40
2.83985e-39
9.63416e-41
5.3807e-40
4.28087e-41
-9.67355e-40
1.61123e-41
-9.95659e-40
1.70862e-41
-1.4682e-41
3.06094e-41
1.28494e-39
4.09424e-41
1.7804e-39
3.70467e-41
1.49282e-39
2.52639e-41
1.02615e-39
1.14269e-41
8.4102e-40
1.81519e-43
9.05606e-40
-8.26597e-42
1.05136e-39
-1.47626e-41
1.26494e-39
-2.03233e-41
1.70394e-39
-2.40807e-41
2.42933e-39
-2.50716e-41
3.2478e-39
-2.2836e-41
3.86195e-39
-1.81924e-41
4.12546e-39
-1.26104e-41
4.16616e-39
-7.507e-42
4.25972e-39
-3.67371e-42
4.60449e-39
-1.27794e-42
5.19161e-39
-6.08344e-44
5.8534e-39
4.10855e-43
6.40129e-39
5.41327e-43
6.72684e-39
5.049e-43
6.81392e-39
2.47768e-43
6.71106e-39
-3.28485e-43
6.49529e-39
-1.16375e-42
6.23419e-39
-2.02375e-42
5.95583e-39
-2.6464e-42
5.64975e-39
-2.91322e-42
5.3081e-39
-2.93298e-42
4.95507e-39
-2.92346e-42
4.63155e-39
-2.98652e-42
4.35064e-39
-3.04885e-42
4.08491e-39
-2.97299e-42
3.81137e-39
-2.74048e-42
3.56249e-39
-2.40542e-42
3.40479e-39
-2.06525e-42
3.35328e-39
-1.7311e-42
3.31835e-39
-1.42492e-42
3.17336e-39
-1.22421e-42
2.86533e-39
-1.0752e-42
2.4789e-39
-1.1331e-42
2.1354e-39
-1.03322e-42
1.90774e-39
-1.23679e-42
1.74258e-39
-1.35185e-42
1.55591e-39
-2.25065e-42
1.33067e-39
-3.4398e-42
1.12378e-39
-4.17245e-42
1.15528e-39
-5.87673e-42
1.40456e-39
-3.48524e-42
1.89451e-39
-3.47344e-42
2.37338e-39
-8.19747e-43
2.43601e-39
2.15609e-39
-5.88378e-40
-7.40086e-38
-2.82672e-40
4.58498e-40
-4.43715e-41
2.43552e-39
5.31406e-41
4.26005e-39
1.4067e-40
3.71926e-39
1.05812e-40
1.00642e-39
4.69468e-41
-6.57462e-40
1.94391e-41
-5.42382e-40
2.19004e-41
6.81618e-40
3.60833e-41
2.16798e-39
4.5897e-41
2.64116e-39
4.03383e-41
2.16637e-39
2.68409e-41
1.50206e-39
1.14205e-41
1.2695e-39
-1.0641e-42
1.46733e-39
-1.03463e-41
1.82586e-39
-1.71723e-41
2.17875e-39
-2.27764e-41
2.6023e-39
-2.65083e-41
3.19022e-39
-2.75074e-41
3.86126e-39
-2.51571e-41
4.42018e-39
-2.00644e-41
4.74751e-39
-1.36598e-41
4.89508e-39
-7.58375e-42
5.01019e-39
-2.96195e-42
5.20409e-39
-1.85157e-43
5.50145e-39
9.98857e-43
5.86681e-39
1.17501e-42
6.24342e-39
9.24599e-43
6.55427e-39
5.41936e-43
6.71625e-39
1.46265e-44
6.68635e-39
-7.75562e-43
6.50546e-39
-1.8096e-42
6.27633e-39
-2.87055e-42
6.08209e-39
-3.65521e-42
5.92784e-39
-3.98657e-42
5.7547e-39
-3.96797e-42
5.50745e-39
-3.88688e-42
5.18671e-39
-3.91507e-42
4.85178e-39
-3.96751e-42
4.58308e-39
-3.8175e-42
4.44213e-39
-3.40053e-42
4.43185e-39
-2.84834e-42
4.47973e-39
-2.42028e-42
4.46957e-39
-2.19111e-42
4.32357e-39
-2.07761e-42
4.07098e-39
-1.96863e-42
3.81238e-39
-1.72517e-42
3.63605e-39
-1.62247e-42
3.51673e-39
-1.41935e-42
3.3663e-39
-1.70899e-42
3.08669e-39
-1.91737e-42
2.67861e-39
-2.89246e-42
2.24262e-39
-3.90208e-42
1.8749e-39
-4.36387e-42
1.76664e-39
-5.97897e-42
1.84322e-39
-3.40417e-42
2.16999e-39
-4.01974e-42
2.54817e-39
-1.05464e-42
2.52466e-39
2.04934e-39
-6.42321e-40
-7.46299e-38
-3.05233e-40
1.35741e-40
-4.16256e-41
2.69894e-39
6.3717e-41
4.96074e-39
1.54988e-40
4.34547e-39
1.14871e-40
1.35879e-39
5.14304e-41
-3.77255e-40
2.34829e-41
-1.78443e-40
2.72884e-41
1.08594e-39
4.16568e-41
2.53008e-39
5.05206e-41
2.8521e-39
4.31992e-41
2.20879e-39
2.81897e-41
1.47675e-39
1.14576e-41
1.36956e-39
-2.13512e-42
1.84788e-39
-1.23149e-41
2.48449e-39
-1.96263e-41
2.93579e-39
-2.53892e-41
3.2186e-39
-2.90916e-41
3.53139e-39
-2.99902e-41
3.97916e-39
-2.73855e-41
4.49601e-39
-2.17878e-41
4.93618e-39
-1.46622e-41
5.2067e-39
-7.83464e-42
5.31023e-39
-2.60736e-42
5.31965e-39
5.46835e-43
5.32834e-39
1.87274e-42
5.40896e-39
1.95906e-42
5.58021e-39
1.42462e-42
5.79513e-39
6.58281e-43
5.96436e-39
-2.19199e-43
6.01723e-39
-1.23365e-42
5.95553e-39
-2.38039e-42
5.84946e-39
-3.53484e-42
5.77649e-39
-4.46714e-42
5.74994e-39
-4.97927e-42
5.70012e-39
-5.09044e-42
5.53112e-39
-5.01812e-42
5.21812e-39
-4.91975e-42
4.86515e-39
-4.74422e-42
4.6539e-39
-4.34681e-42
4.70249e-39
-3.7792e-42
4.94751e-39
-3.24879e-42
5.16902e-39
-2.97248e-42
5.1662e-39
-2.86672e-42
4.92826e-39
-2.72585e-42
4.63989e-39
-2.46588e-42
4.48638e-39
-2.09254e-42
4.49016e-39
-2.04119e-42
4.4758e-39
-2.03014e-42
4.27545e-39
-2.58737e-42
3.84517e-39
-2.88978e-42
3.31653e-39
-3.838e-42
2.86663e-39
-4.58758e-42
2.52713e-39
-4.74897e-42
2.3613e-39
-6.22842e-42
2.17845e-39
-3.43258e-42
2.10999e-39
-4.70373e-42
2.11951e-39
-1.41395e-42
1.89923e-39
1.31706e-39
-6.93614e-40
-7.55965e-38
-3.26438e-40
-6.12284e-40
-3.90572e-41
2.33861e-39
7.39426e-41
4.9606e-39
1.68752e-40
4.38299e-39
1.23746e-40
1.35011e-39
5.62358e-41
-3.29781e-40
2.79832e-41
-1.47142e-40
3.29264e-41
8.8978e-40
4.71443e-41
2.06304e-39
5.48442e-41
2.20697e-39
4.58489e-41
1.56473e-39
2.96406e-41
9.86836e-40
1.18732e-41
1.1276e-39
-2.81484e-42
1.84732e-39
-1.41548e-41
2.61322e-39
-2.23006e-41
3.01942e-39
-2.84134e-41
3.1292e-39
-3.20113e-41
3.26608e-39
-3.25536e-41
3.64387e-39
-2.94744e-41
4.19705e-39
-2.33556e-41
4.67818e-39
-1.57046e-41
4.88797e-39
-8.38212e-42
4.82053e-39
-2.70223e-42
4.62935e-39
8.49125e-43
4.48143e-39
2.46e-42
4.44036e-39
2.63773e-42
4.47477e-39
1.96384e-42
4.53375e-39
8.9205e-43
4.59991e-39
-3.1273e-43
4.6801e-39
-1.54975e-42
4.77303e-39
-2.79297e-42
4.86131e-39
-4.01571e-42
4.92559e-39
-5.11365e-42
4.95136e-39
-5.91286e-42
4.91749e-39
-6.29907e-42
4.79561e-39
-6.28172e-42
4.59335e-39
-5.90833e-42
4.39898e-39
-5.25043e-42
4.34577e-39
-4.46671e-42
4.50014e-39
-3.8758e-42
4.778e-39
-3.66476e-42
5.00064e-39
-3.7435e-42
5.04753e-39
-3.69284e-42
4.95174e-39
-3.2778e-42
4.84767e-39
-2.70687e-42
4.80672e-39
-2.30448e-42
4.77558e-39
-2.57765e-42
4.6098e-39
-2.96661e-42
4.25747e-39
-3.77411e-42
3.78388e-39
-3.99818e-42
3.33848e-39
-4.80709e-42
3.02323e-39
-5.3983e-42
2.74634e-39
-5.52683e-42
2.49055e-39
-7.07495e-42
2.01536e-39
-4.04044e-42
1.52262e-39
-5.76064e-42
1.09849e-39
-1.8616e-42
6.24351e-40
-8.29058e-41
-7.42506e-40
-7.69422e-38
-3.4687e-40
-1.88283e-39
-3.70889e-41
1.28213e-39
8.39461e-41
4.16548e-39
1.82462e-40
3.62299e-39
1.32768e-40
6.12149e-40
6.12387e-41
-9.77499e-40
3.24954e-41
-8.63565e-40
3.84191e-41
-1.54856e-40
5.24981e-41
7.05146e-40
5.91692e-41
7.59437e-40
4.87201e-41
2.94679e-40
3.1514e-41
-8.98441e-43
1.27455e-41
3.54097e-40
-3.23423e-42
1.12402e-39
-1.60594e-41
1.79193e-39
-2.52811e-41
2.0459e-39
-3.1758e-41
2.07576e-39
-3.50787e-41
2.2753e-39
-3.50993e-41
2.80641e-39
-3.15575e-41
3.45512e-39
-2.51042e-41
3.84733e-39
-1.71136e-41
3.79042e-39
-9.3298e-42
3.41632e-39
-3.09852e-42
3.0314e-39
9.35419e-43
2.8433e-39
2.83102e-42
2.82709e-39
3.08462e-42
2.83083e-39
2.35618e-42
2.7688e-39
1.17512e-42
2.70116e-39
-1.64512e-43
2.74255e-39
-1.56189e-42
2.9267e-39
-2.99155e-42
3.16461e-39
-4.42528e-42
3.32563e-39
-5.76502e-42
3.35077e-39
-6.82777e-42
3.28862e-39
-7.41259e-42
3.24049e-39
-7.37835e-42
3.27631e-39
-6.69957e-42
3.39383e-39
-5.58781e-42
3.53232e-39
-4.4958e-42
3.62902e-39
-3.94292e-42
3.67881e-39
-4.0244e-42
3.74977e-39
-4.35586e-42
3.92296e-39
-4.29905e-42
4.19095e-39
-3.69478e-42
4.42757e-39
-3.02369e-42
4.45251e-39
-2.7904e-42
4.19111e-39
-3.44027e-42
3.71119e-39
-4.10076e-42
3.21253e-39
-4.9538e-42
2.83597e-39
-4.98076e-42
2.60058e-39
-5.72617e-42
2.41616e-39
-6.4304e-42
2.09102e-39
-6.87028e-42
1.66097e-39
-8.73183e-42
9.47586e-40
-5.45385e-42
2.15213e-40
-7.37528e-42
-4.65125e-40
-2.45662e-42
-1.12918e-39
-2.03145e-39
-7.89173e-40
-7.87651e-38
-3.67154e-40
-3.84012e-39
-3.6129e-41
-4.29863e-40
9.37561e-41
2.67435e-39
1.96415e-40
1.99126e-39
1.42136e-40
-1.20009e-39
6.63551e-41
-2.8092e-39
3.67852e-41
-2.7166e-39
4.36406e-41
-2.17483e-39
5.78815e-41
-1.43786e-39
6.38772e-41
-1.32897e-39
5.21593e-41
-1.57056e-39
3.3895e-41
-1.66827e-39
1.38673e-41
-1.29075e-39
-3.72417e-42
-6.78025e-40
-1.82241e-41
-2.13755e-40
-2.84581e-41
-5.95517e-41
-3.50525e-41
5.32299e-41
-3.79153e-41
4.74426e-40
-3.7523e-41
1.22204e-39
-3.38966e-41
1.93418e-39
-2.74839e-41
2.18609e-39
-1.92417e-41
1.86164e-39
-1.07528e-41
1.22371e-39
-3.62558e-42
6.68223e-40
1.06055e-42
4.14708e-40
3.15745e-42
4.00151e-40
3.31767e-42
4.24342e-40
2.50806e-42
3.66318e-40
1.39973e-42
2.70091e-40
1.71281e-43
2.60902e-40
-1.28609e-42
3.99307e-40
-3.02057e-42
6.16761e-40
-4.86912e-42
7.82839e-40
-6.52036e-42
8.33638e-40
-7.67063e-42
8.43506e-40
-8.15972e-42
9.61221e-40
-7.97317e-42
1.26014e-39
-7.18833e-42
1.63507e-39
-6.0385e-42
1.86395e-39
-4.9178e-42
1.81364e-39
-4.26735e-42
1.60223e-39
-4.16648e-42
1.53507e-39
-4.34559e-42
1.83545e-39
-4.32968e-42
2.41018e-39
-4.02894e-42
2.89738e-39
-3.80579e-42
2.93893e-39
-3.92594e-42
2.49122e-39
-4.68864e-42
1.81076e-39
-5.19397e-42
1.26465e-39
-5.8648e-42
9.91603e-40
-5.80859e-42
8.64634e-40
-6.80269e-42
6.62079e-40
-7.91184e-42
1.80101e-40
-8.8159e-42
-4.18288e-40
-1.10399e-41
-1.22253e-39
-7.49317e-42
-1.9307e-39
-9.53066e-42
-2.59649e-39
-3.28804e-42
-3.29557e-39
-4.39659e-39
-8.33748e-40
-8.11287e-38
-3.8759e-40
-6.58574e-39
-3.6424e-41
-2.78123e-39
1.03098e-40
5.28155e-40
2.10383e-40
-5.5097e-40
1.51749e-40
-4.22289e-39
7.16682e-41
-5.98848e-39
4.11072e-41
-5.80022e-39
4.89293e-41
-5.15477e-39
6.36207e-41
-4.29565e-39
6.91675e-41
-4.04405e-39
5.61428e-41
-4.15741e-39
3.65417e-41
-4.26965e-39
1.49207e-41
-4.07748e-39
-4.47328e-42
-3.70651e-39
-2.0585e-41
-3.36358e-39
-3.15584e-41
-3.13811e-39
-3.79903e-41
-2.83449e-39
-4.03661e-41
-2.24651e-39
-3.98755e-41
-1.44153e-39
-3.665e-41
-7.6059e-40
-3.06236e-41
-5.50548e-40
-2.21473e-41
-8.93545e-40
-1.26995e-41
-1.57258e-39
-4.35361e-42
-2.25696e-39
1.19933e-42
-2.71428e-39
3.54445e-42
-2.90116e-39
3.54673e-42
-2.90756e-39
2.58065e-42
-2.85851e-39
1.53433e-42
-2.83405e-39
4.65625e-43
-2.84554e-39
-1.00253e-42
-2.85486e-39
-3.03442e-42
-2.81948e-39
-5.30769e-42
-2.72386e-39
-7.20397e-42
-2.56504e-39
-8.24737e-42
-2.32303e-39
-8.42122e-42
-1.97009e-39
-8.07214e-42
-1.53656e-39
-7.50972e-42
-1.15526e-39
-6.80271e-42
-9.99536e-40
-5.88355e-42
-1.12188e-39
-4.87585e-42
-1.35555e-39
-4.03811e-42
-1.40989e-39
-3.68972e-42
-1.11113e-39
-3.84071e-42
-5.76241e-40
-4.35999e-42
-1.33205e-40
-5.06272e-42
-8.06879e-41
-5.61777e-42
-4.398e-40
-6.19363e-42
-1.00192e-39
-6.20342e-42
-1.48713e-39
-6.64169e-42
-1.81717e-39
-6.76136e-42
-2.10728e-39
-8.31601e-42
-2.50204e-39
-9.94062e-42
-3.12292e-39
-1.11806e-41
-3.73599e-39
-1.35955e-41
-4.43737e-39
-9.73023e-42
-4.92779e-39
-1.2015e-41
-5.39846e-39
-4.36228e-42
-5.98006e-39
-7.16347e-39
-8.76365e-40
-8.39671e-38
-4.08147e-40
-1.00889e-38
-3.8111e-41
-5.86157e-39
1.11461e-40
-2.41794e-39
2.23792e-40
-4.03962e-39
1.61368e-40
-8.29345e-39
7.74259e-41
-1.02109e-38
4.60374e-41
-9.82546e-39
5.48529e-41
-8.96355e-39
7.00101e-41
-7.94459e-39
7.49704e-41
-7.61401e-39
6.03355e-41
-7.72536e-39
3.90815e-41
-7.96856e-39
1.57402e-41
-7.99418e-39
-5.33495e-42
-7.7829e-39
-2.28113e-41
-7.41361e-39
-3.43476e-41
-7.01849e-39
-4.06377e-41
-6.5804e-39
-4.27159e-41
-6.02884e-39
-4.23592e-41
-5.37752e-39
-3.96896e-41
-4.76938e-39
-3.41267e-41
-4.41655e-39
-2.5489e-41
-4.47412e-39
-1.51714e-41
-4.95167e-39
-5.61493e-42
-5.69442e-39
9.80661e-43
-6.4437e-39
3.89547e-42
-6.9524e-39
3.99958e-42
-7.10825e-39
2.88581e-42
-6.99238e-39
1.6629e-42
-6.82023e-39
4.84561e-43
-6.78191e-39
-1.05628e-42
-6.90223e-39
-3.18247e-42
-7.03509e-39
-5.55303e-42
-6.98921e-39
-7.45632e-42
-6.67696e-39
-8.36502e-42
-6.1715e-39
-8.38682e-42
-5.65032e-39
-8.11591e-42
-5.27794e-39
-7.97178e-42
-5.11299e-39
-7.77455e-42
-5.0993e-39
-6.99007e-42
-5.12927e-39
-5.5031e-42
-5.12109e-39
-3.85509e-42
-5.05022e-39
-2.99078e-42
-4.92865e-39
-3.3545e-42
-4.78234e-39
-4.7037e-42
-4.63738e-39
-6.30424e-42
-4.5506e-39
-7.28528e-42
-4.57418e-39
-7.75331e-42
-4.77955e-39
-7.4371e-42
-5.16764e-39
-7.83914e-42
-5.72004e-39
-8.25854e-42
-6.36786e-39
-1.03393e-41
-7.00168e-39
-1.2298e-41
-7.63054e-39
-1.36018e-41
-8.05156e-39
-1.6009e-41
-8.49954e-39
-1.17936e-41
-8.70809e-39
-1.4556e-41
-8.95824e-39
-5.56993e-42
-9.34239e-39
-1.04183e-38
-9.1719e-40
-8.70858e-38
-4.28868e-40
-1.42345e-38
-4.14196e-41
-9.78436e-39
1.18443e-40
-6.31243e-39
2.36327e-40
-8.40168e-39
1.70982e-40
-1.30236e-38
8.38997e-41
-1.49165e-38
5.19449e-41
-1.43201e-38
6.16551e-41
-1.34149e-38
7.70653e-41
-1.25029e-38
8.111e-41
-1.23051e-38
6.45129e-41
-1.24612e-38
4.14216e-41
-1.27111e-38
1.64714e-41
-1.2746e-38
-5.99349e-42
-1.2526e-38
-2.46537e-41
-1.20986e-38
-3.68975e-41
-1.16606e-38
-4.34111e-41
-1.12969e-38
-4.54423e-41
-1.09485e-38
-4.51087e-41
-1.04853e-38
-4.26504e-41
-9.86238e-39
-3.73536e-41
-9.23232e-39
-2.8771e-41
-8.89033e-39
-1.8087e-41
-9.07585e-39
-7.70961e-42
-9.78213e-39
-1.69387e-44
-1.07279e-38
3.92689e-42
-1.15285e-38
4.63952e-42
-1.19258e-38
3.54488e-42
-1.19296e-38
1.90025e-42
-1.17652e-38
2.41802e-43
-1.16791e-38
-1.4893e-42
-1.17483e-38
-3.43274e-42
-1.18367e-38
-5.44621e-42
-1.17282e-38
-7.11188e-42
-1.13238e-38
-8.08541e-42
-1.07479e-38
-8.44701e-42
-1.0266e-38
-8.60336e-42
-1.00675e-38
-8.75849e-42
-1.01008e-38
-8.61548e-42
-1.01338e-38
-7.65779e-42
-9.99151e-39
-5.89464e-42
-9.73908e-39
-4.005e-42
-9.60593e-39
-3.03139e-42
-9.73049e-39
-3.44914e-42
-1.00019e-38
-5.01199e-42
-1.01507e-38
-6.96032e-42
-1.00352e-38
-8.36151e-42
-9.77254e-39
-9.27568e-42
-9.69655e-39
-9.31381e-42
-1.00365e-38
-9.99739e-42
-1.07858e-38
-1.05241e-41
-1.16884e-38
-1.2667e-41
-1.24173e-38
-1.45549e-41
-1.29109e-38
-1.57143e-41
-1.30384e-38
-1.80828e-41
-1.31972e-38
-1.35459e-41
-1.3152e-38
-1.69492e-41
-1.32429e-38
-6.73553e-42
-1.34235e-38
-1.4217e-38
-9.56463e-40
-9.02486e-38
-4.50253e-40
-1.88986e-38
-4.66958e-41
-1.44784e-38
1.24076e-40
-1.10036e-38
2.4834e-40
-1.33264e-38
1.80986e-40
-1.79811e-38
9.12133e-41
-1.96636e-38
5.85815e-41
-1.89447e-38
6.88777e-41
-1.83218e-38
8.44263e-41
-1.79057e-38
8.75443e-41
-1.80749e-38
6.89627e-41
-1.82284e-38
4.4011e-41
-1.82142e-38
1.74915e-41
-1.79652e-38
-6.33904e-42
-1.76275e-38
-2.63457e-41
-1.72885e-38
-3.967e-41
-1.70937e-38
-4.6749e-41
-1.70163e-38
-4.8716e-41
-1.68639e-38
-4.79701e-41
-1.64113e-38
-4.51841e-41
-1.56139e-38
-3.99522e-41
-1.47116e-38
-3.17318e-41
-1.41018e-38
-2.12794e-41
-1.40816e-38
-1.05633e-41
-1.46579e-38
-1.87884e-42
-1.55674e-38
3.35092e-42
-1.64602e-38
5.05744e-42
-1.70898e-38
4.25905e-42
-1.73925e-38
2.26542e-42
-1.7445e-38
7.24204e-44
-1.73671e-38
-1.87119e-42
-1.7236e-38
-3.53542e-42
-1.70554e-38
-5.05668e-42
-1.67895e-38
-6.50432e-42
-1.64362e-38
-7.81621e-42
-1.60773e-38
-8.88292e-42
-1.58373e-38
-9.58036e-42
-1.57688e-38
-9.71236e-42
-1.57784e-38
-9.10694e-42
-1.57061e-38
-7.78348e-42
-1.54952e-38
-6.1475e-42
-1.5279e-38
-4.72531e-42
-1.52676e-38
-4.04043e-42
-1.55283e-38
-4.23381e-42
-1.58955e-38
-5.28053e-42
-1.60949e-38
-7.01147e-42
-1.60173e-38
-8.89193e-42
-1.58055e-38
-1.087e-41
-1.57864e-38
-1.1915e-41
-1.61498e-38
-1.3067e-41
-1.68564e-38
-1.33403e-41
-1.76469e-38
-1.49641e-41
-1.8203e-38
-1.64011e-41
-1.84875e-38
-1.73451e-41
-1.83751e-38
-1.98087e-41
-1.83233e-38
-1.50209e-41
-1.80778e-38
-1.90959e-41
-1.80614e-38
-7.71718e-42
-1.8059e-38
-1.84556e-38
-9.94506e-40
-9.3233e-38
-4.73099e-40
-2.39223e-38
-5.41487e-41
-1.95651e-38
1.28819e-40
-1.59501e-38
2.60594e-40
-1.83008e-38
1.91905e-40
-2.28419e-38
9.92481e-41
-2.43218e-38
6.52069e-41
-2.36238e-38
7.55886e-41
-2.34978e-38
9.15511e-41
-2.37782e-38
9.44457e-41
-2.44078e-38
7.44123e-41
-2.44962e-38
4.76238e-41
-2.40588e-38
1.91196e-41
-2.3416e-38
-6.69095e-42
-2.30204e-38
-2.85964e-41
-2.29782e-38
-4.32663e-41
-2.32282e-38
-5.07608e-41
-2.34714e-38
-5.21961e-41
-2.33611e-38
-5.05471e-41
-2.27169e-38
-4.71972e-41
-2.16724e-38
-4.21088e-41
-2.06164e-38
-3.45054e-41
-1.99451e-38
-2.45473e-41
-1.98406e-38
-1.37153e-41
-2.02312e-38
-4.24975e-42
-2.09132e-38
2.07793e-42
-2.16958e-38
4.74475e-42
-2.24432e-38
4.49667e-42
-2.30387e-38
2.6456e-42
-2.33644e-38
3.83049e-43
-2.33473e-38
-1.61785e-42
-2.30304e-38
-3.232e-42
-2.25811e-38
-4.70104e-42
-2.22046e-38
-6.30282e-42
-2.20243e-38
-8.0531e-42
-2.20157e-38
-9.63983e-42
-2.20454e-38
-1.05746e-41
-2.19814e-38
-1.04843e-41
-2.17984e-38
-9.44816e-42
-2.15981e-38
-7.9709e-42
-2.1521e-38
-6.69866e-42
-2.16272e-38
-5.85539e-42
-2.18472e-38
-5.40425e-42
-2.20454e-38
-5.22752e-42
-2.21388e-38
-5.64756e-42
-2.21468e-38
-7.16849e-42
-2.21884e-38
-9.62516e-42
-2.23514e-38
-1.27494e-41
-2.26756e-38
-1.47821e-41
-2.30774e-38
-1.62678e-41
-2.34746e-38
-1.60771e-41
-2.37964e-38
-1.697e-41
-2.39514e-38
-1.78412e-41
-2.40072e-38
-1.85738e-41
-2.37658e-38
-2.1252e-41
-2.36134e-38
-1.62589e-41
-2.3212e-38
-2.09455e-41
-2.30974e-38
-8.43662e-42
-2.29228e-38
-2.28554e-38
-1.03171e-39
-9.58227e-38
-4.97884e-40
-2.90015e-38
-6.35508e-41
-2.44619e-38
1.33177e-40
-2.04873e-38
2.73524e-40
-2.2835e-38
2.03869e-40
-2.74205e-38
1.07699e-40
-2.8926e-38
7.11672e-41
-2.83713e-38
8.10937e-41
-2.86951e-38
9.81098e-41
-2.95334e-38
1.02047e-40
-3.05188e-38
8.14569e-41
-3.05495e-38
5.27285e-41
-2.98205e-38
2.12971e-41
-2.89979e-38
-7.62191e-42
-2.87537e-38
-3.20748e-41
-2.91036e-38
-4.79639e-41
-2.97224e-38
-5.51799e-41
-3.00982e-38
-5.53738e-41
-2.98763e-38
-5.25635e-41
-2.90288e-38
-4.88729e-41
-2.78521e-38
-4.42641e-41
-2.67761e-38
-3.73671e-41
-2.61111e-38
-2.77409e-41
-2.59257e-38
-1.6682e-41
-2.61177e-38
-6.65248e-42
-2.65609e-38
2.93816e-43
-2.7179e-38
3.56547e-42
-2.78944e-38
3.99844e-42
-2.85643e-38
2.9014e-42
-2.89915e-38
1.24086e-42
-2.90348e-38
-5.9763e-43
-2.87239e-38
-2.57583e-42
-2.82792e-38
-4.72503e-42
-2.79869e-38
-6.94356e-42
-2.79956e-38
-8.95613e-42
-2.82019e-38
-1.04295e-41
-2.83393e-38
-1.11244e-41
-2.82243e-38
-1.09728e-41
-2.79395e-38
-1.01576e-41
-2.77731e-38
-9.01068e-42
-2.79418e-38
-7.90756e-42
-2.83642e-38
-6.94394e-42
-2.87179e-38
-6.19712e-42
-2.87391e-38
-5.80996e-42
-2.84891e-38
-6.33365e-42
-2.82931e-38
-8.31401e-42
-2.84632e-38
-1.13784e-41
-2.89876e-38
-1.50126e-41
-2.96017e-38
-1.72199e-41
-2.99646e-38
-1.86039e-41
-2.99748e-38
-1.80372e-41
-2.97597e-38
-1.85233e-41
-2.9463e-38
-1.90547e-41
-2.92732e-38
-1.95827e-41
-2.89292e-38
-2.2457e-41
-2.87238e-38
-1.72205e-41
-2.81938e-38
-2.24252e-41
-2.79765e-38
-8.85014e-42
-2.76372e-38
-2.70754e-38
-1.06848e-39
-9.77789e-38
-5.24368e-40
-3.36636e-38
-7.43014e-41
-2.86513e-38
1.37274e-40
-2.42185e-38
2.8676e-40
-2.6688e-38
2.16375e-40
-3.15906e-38
1.1624e-40
-3.33729e-38
7.63977e-41
-3.29978e-38
8.54892e-41
-3.35475e-38
1.04233e-40
-3.46171e-38
1.10409e-40
-3.577e-38
8.99834e-41
-3.584e-38
5.89676e-41
-3.51636e-38
2.3509e-41
-3.45549e-38
-9.53658e-42
-3.4673e-38
-3.68213e-41
-3.53297e-38
-5.34543e-41
-3.60277e-38
-5.96512e-41
-3.62806e-38
-5.81467e-41
-3.59209e-38
-5.42128e-41
-3.50672e-38
-5.04943e-41
-3.39837e-38
-4.65828e-41
-3.29529e-38
-4.03189e-41
-3.21871e-38
-3.07806e-41
-3.17964e-38
-1.93623e-41
-3.17961e-38
-8.91086e-42
-3.21261e-38
-1.65913e-42
-3.26659e-38
1.97862e-42
-3.32546e-38
3.1076e-42
-3.37366e-38
3.00163e-42
-3.40146e-38
2.2006e-42
-3.40753e-38
5.63258e-43
-3.39883e-38
-2.04602e-42
-3.38791e-38
-5.24784e-42
-3.38692e-38