/*--------------------------------*- C++ -*----------------------------------*\
| =========                 |                                                 |
| \\      /  F ield         | foam-extend: Open Source CFD                    |
|  \\    /   O peration     | Version:     4.0                                |
|   \\  /    A nd           | Web:         http://www.foam-extend.org         |
|    \\/     M anipulation  |                                                 |
\*---------------------------------------------------------------------------*/
FoamFile
{
    version     2.0;
    format      ascii;
    class       volScalarField;
    location    "920";
    object      cMinus;
}
// * * * * * * * * * * * * * * * * * * * * * * * * * * * * * * * * * * * * * //

dimensions      [0 0 0 0 0 0 0];

internalField   nonuniform List<scalar> 
6960
(
1.37218e-22
1.35221e-22
1.35467e-22
1.3573e-22
1.35954e-22
1.36139e-22
1.36286e-22
1.36399e-22
1.3648e-22
1.36535e-22
1.36567e-22
1.3658e-22
1.36577e-22
1.36562e-22
1.36538e-22
1.36507e-22
1.36471e-22
1.36433e-22
1.36393e-22
1.36353e-22
1.36315e-22
1.36279e-22
1.36245e-22
1.36215e-22
1.36188e-22
1.36165e-22
1.36147e-22
1.36133e-22
1.36124e-22
1.36119e-22
1.36119e-22
1.36124e-22
1.36133e-22
1.36147e-22
1.36165e-22
1.36188e-22
1.36215e-22
1.36245e-22
1.36279e-22
1.36315e-22
1.36353e-22
1.36393e-22
1.36433e-22
1.36471e-22
1.36507e-22
1.36538e-22
1.36562e-22
1.36577e-22
1.3658e-22
1.36567e-22
1.36535e-22
1.3648e-22
1.36399e-22
1.36286e-22
1.36139e-22
1.35954e-22
1.3573e-22
1.35467e-22
1.35221e-22
1.37218e-22
2.52126e-22
2.48986e-22
2.49387e-22
2.4981e-22
2.50171e-22
2.50468e-22
2.50705e-22
2.50887e-22
2.51019e-22
2.51109e-22
2.51162e-22
2.51185e-22
2.51182e-22
2.5116e-22
2.51123e-22
2.51075e-22
2.51019e-22
2.50959e-22
2.50896e-22
2.50834e-22
2.50774e-22
2.50717e-22
2.50664e-22
2.50616e-22
2.50574e-22
2.50538e-22
2.5051e-22
2.50488e-22
2.50473e-22
2.50466e-22
2.50466e-22
2.50473e-22
2.50488e-22
2.5051e-22
2.50538e-22
2.50574e-22
2.50616e-22
2.50664e-22
2.50717e-22
2.50774e-22
2.50834e-22
2.50896e-22
2.50959e-22
2.51019e-22
2.51075e-22
2.51123e-22
2.5116e-22
2.51182e-22
2.51185e-22
2.51162e-22
2.51109e-22
2.51019e-22
2.50887e-22
2.50705e-22
2.50468e-22
2.50171e-22
2.4981e-22
2.49387e-22
2.48986e-22
2.52126e-22
6.61236e-22
6.53369e-22
6.54408e-22
6.55498e-22
6.5643e-22
6.57198e-22
6.57811e-22
6.58281e-22
6.58626e-22
6.5886e-22
6.59e-22
6.59062e-22
6.59059e-22
6.59006e-22
6.58914e-22
6.58793e-22
6.58653e-22
6.58501e-22
6.58344e-22
6.58187e-22
6.58034e-22
6.57889e-22
6.57754e-22
6.57633e-22
6.57527e-22
6.57436e-22
6.57363e-22
6.57307e-22
6.5727e-22
6.57251e-22
6.57251e-22
6.5727e-22
6.57307e-22
6.57363e-22
6.57436e-22
6.57527e-22
6.57633e-22
6.57754e-22
6.57889e-22
6.58034e-22
6.58187e-22
6.58344e-22
6.58501e-22
6.58653e-22
6.58793e-22
6.58914e-22
6.59006e-22
6.59059e-22
6.59062e-22
6.59e-22
6.5886e-22
6.58626e-22
6.58281e-22
6.57811e-22
6.57198e-22
6.5643e-22
6.55498e-22
6.54408e-22
6.53369e-22
6.61236e-22
1.80067e-21
1.7797e-21
1.78257e-21
1.78556e-21
1.78812e-21
1.79024e-21
1.79193e-21
1.79323e-21
1.79418e-21
1.79483e-21
1.79523e-21
1.79541e-21
1.79542e-21
1.79528e-21
1.79504e-21
1.79472e-21
1.79435e-21
1.79394e-21
1.79352e-21
1.79309e-21
1.79268e-21
1.79229e-21
1.79193e-21
1.7916e-21
1.79131e-21
1.79107e-21
1.79087e-21
1.79072e-21
1.79062e-21
1.79057e-21
1.79057e-21
1.79062e-21
1.79072e-21
1.79087e-21
1.79107e-21
1.79131e-21
1.7916e-21
1.79193e-21
1.79229e-21
1.79268e-21
1.79309e-21
1.79352e-21
1.79394e-21
1.79435e-21
1.79472e-21
1.79504e-21
1.79528e-21
1.79542e-21
1.79541e-21
1.79523e-21
1.79483e-21
1.79418e-21
1.79323e-21
1.79193e-21
1.79024e-21
1.78812e-21
1.78556e-21
1.78257e-21
1.7797e-21
1.80067e-21
4.90617e-21
4.85049e-21
4.85842e-21
4.86665e-21
4.8737e-21
4.87952e-21
4.88418e-21
4.88779e-21
4.89044e-21
4.89227e-21
4.8934e-21
4.89394e-21
4.89399e-21
4.89366e-21
4.89304e-21
4.8922e-21
4.89121e-21
4.89012e-21
4.88899e-21
4.88786e-21
4.88676e-21
4.88571e-21
4.88474e-21
4.88386e-21
4.88308e-21
4.88243e-21
4.88189e-21
4.88149e-21
4.88122e-21
4.88108e-21
4.88108e-21
4.88122e-21
4.88149e-21
4.88189e-21
4.88243e-21
4.88308e-21
4.88386e-21
4.88474e-21
4.88571e-21
4.88676e-21
4.88786e-21
4.88899e-21
4.89012e-21
4.89121e-21
4.8922e-21
4.89304e-21
4.89366e-21
4.89399e-21
4.89394e-21
4.8934e-21
4.89227e-21
4.89044e-21
4.88779e-21
4.88418e-21
4.87952e-21
4.8737e-21
4.86665e-21
4.85842e-21
4.85049e-21
4.90617e-21
1.3403e-20
1.32561e-20
1.3278e-20
1.33006e-20
1.332e-20
1.33361e-20
1.33489e-20
1.33589e-20
1.33663e-20
1.33715e-20
1.33747e-20
1.33763e-20
1.33766e-20
1.33758e-20
1.33743e-20
1.33721e-20
1.33695e-20
1.33666e-20
1.33637e-20
1.33607e-20
1.33577e-20
1.33549e-20
1.33523e-20
1.335e-20
1.33479e-20
1.33462e-20
1.33447e-20
1.33437e-20
1.33429e-20
1.33426e-20
1.33426e-20
1.33429e-20
1.33437e-20
1.33447e-20
1.33462e-20
1.33479e-20
1.335e-20
1.33523e-20
1.33549e-20
1.33577e-20
1.33607e-20
1.33637e-20
1.33666e-20
1.33695e-20
1.33721e-20
1.33743e-20
1.33758e-20
1.33766e-20
1.33763e-20
1.33747e-20
1.33715e-20
1.33663e-20
1.33589e-20
1.33489e-20
1.33361e-20
1.332e-20
1.33006e-20
1.3278e-20
1.32561e-20
1.3403e-20
3.68531e-20
3.64674e-20
3.65281e-20
3.65904e-20
3.66439e-20
3.66883e-20
3.6724e-20
3.67519e-20
3.67727e-20
3.67873e-20
3.67966e-20
3.68015e-20
3.68028e-20
3.68011e-20
3.67973e-20
3.67917e-20
3.6785e-20
3.67776e-20
3.67698e-20
3.67619e-20
3.67541e-20
3.67467e-20
3.67399e-20
3.67336e-20
3.67281e-20
3.67235e-20
3.67197e-20
3.67168e-20
3.67149e-20
3.67139e-20
3.67139e-20
3.67149e-20
3.67168e-20
3.67197e-20
3.67235e-20
3.67281e-20
3.67336e-20
3.67399e-20
3.67467e-20
3.67541e-20
3.67619e-20
3.67698e-20
3.67776e-20
3.6785e-20
3.67917e-20
3.67973e-20
3.68011e-20
3.68028e-20
3.68015e-20
3.67966e-20
3.67873e-20
3.67727e-20
3.67519e-20
3.6724e-20
3.66883e-20
3.66439e-20
3.65904e-20
3.65281e-20
3.64674e-20
3.68531e-20
1.02287e-19
1.01279e-19
1.01449e-19
1.01621e-19
1.0177e-19
1.01894e-19
1.01994e-19
1.02072e-19
1.02131e-19
1.02173e-19
1.022e-19
1.02215e-19
1.02221e-19
1.02218e-19
1.02209e-19
1.02195e-19
1.02178e-19
1.02159e-19
1.02139e-19
1.02118e-19
1.02098e-19
1.02078e-19
1.0206e-19
1.02044e-19
1.02029e-19
1.02017e-19
1.02007e-19
1.01999e-19
1.01994e-19
1.01991e-19
1.01991e-19
1.01994e-19
1.01999e-19
1.02007e-19
1.02017e-19
1.02029e-19
1.02044e-19
1.0206e-19
1.02078e-19
1.02098e-19
1.02118e-19
1.02139e-19
1.02159e-19
1.02178e-19
1.02195e-19
1.02209e-19
1.02218e-19
1.02221e-19
1.02215e-19
1.022e-19
1.02173e-19
1.02131e-19
1.02072e-19
1.01994e-19
1.01894e-19
1.0177e-19
1.01621e-19
1.01449e-19
1.01279e-19
1.02287e-19
2.87348e-19
2.84723e-19
2.85202e-19
2.85685e-19
2.86102e-19
2.86451e-19
2.86734e-19
2.86957e-19
2.87127e-19
2.87249e-19
2.87332e-19
2.8738e-19
2.87401e-19
2.87399e-19
2.87379e-19
2.87347e-19
2.87304e-19
2.87256e-19
2.87204e-19
2.87151e-19
2.87098e-19
2.87047e-19
2.87e-19
2.86957e-19
2.86919e-19
2.86886e-19
2.8686e-19
2.8684e-19
2.86826e-19
2.86819e-19
2.86819e-19
2.86826e-19
2.8684e-19
2.8686e-19
2.86886e-19
2.86919e-19
2.86957e-19
2.87e-19
2.87047e-19
2.87098e-19
2.87151e-19
2.87204e-19
2.87256e-19
2.87304e-19
2.87347e-19
2.87379e-19
2.87399e-19
2.87401e-19
2.8738e-19
2.87332e-19
2.87249e-19
2.87127e-19
2.86957e-19
2.86734e-19
2.86451e-19
2.86102e-19
2.85685e-19
2.85202e-19
2.84723e-19
2.87348e-19
8.19421e-19
8.12631e-19
8.14001e-19
8.15374e-19
8.16562e-19
8.17559e-19
8.18374e-19
8.19022e-19
8.1952e-19
8.19887e-19
8.20141e-19
8.20299e-19
8.20379e-19
8.20394e-19
8.2036e-19
8.20288e-19
8.20188e-19
8.20069e-19
8.19939e-19
8.19804e-19
8.19669e-19
8.19539e-19
8.19416e-19
8.19305e-19
8.19205e-19
8.19121e-19
8.19052e-19
8.18999e-19
8.18964e-19
8.18946e-19
8.18946e-19
8.18964e-19
8.18999e-19
8.19052e-19
8.19121e-19
8.19205e-19
8.19305e-19
8.19416e-19
8.19539e-19
8.19669e-19
8.19804e-19
8.19939e-19
8.20069e-19
8.20188e-19
8.20288e-19
8.2036e-19
8.20394e-19
8.20379e-19
8.20299e-19
8.20141e-19
8.19887e-19
8.1952e-19
8.19022e-19
8.18374e-19
8.17559e-19
8.16562e-19
8.15374e-19
8.14001e-19
8.12631e-19
8.19421e-19
2.38023e-18
2.36282e-18
2.36682e-18
2.37079e-18
2.37424e-18
2.37715e-18
2.37955e-18
2.38148e-18
2.38298e-18
2.38411e-18
2.38491e-18
2.38545e-18
2.38575e-18
2.38588e-18
2.38585e-18
2.38572e-18
2.3855e-18
2.38522e-18
2.38491e-18
2.38458e-18
2.38424e-18
2.38391e-18
2.3836e-18
2.38332e-18
2.38306e-18
2.38285e-18
2.38267e-18
2.38253e-18
2.38244e-18
2.38239e-18
2.38239e-18
2.38244e-18
2.38253e-18
2.38267e-18
2.38285e-18
2.38306e-18
2.38332e-18
2.3836e-18
2.38391e-18
2.38424e-18
2.38458e-18
2.38491e-18
2.38522e-18
2.3855e-18
2.38572e-18
2.38585e-18
2.38588e-18
2.38575e-18
2.38545e-18
2.38491e-18
2.38411e-18
2.38298e-18
2.38148e-18
2.37955e-18
2.37715e-18
2.37424e-18
2.37079e-18
2.36682e-18
2.36282e-18
2.38023e-18
7.07095e-18
7.02684e-18
7.03881e-18
7.05059e-18
7.06088e-18
7.06963e-18
7.0769e-18
7.0828e-18
7.08747e-18
7.09106e-18
7.09371e-18
7.09557e-18
7.09676e-18
7.0974e-18
7.09761e-18
7.09747e-18
7.09708e-18
7.0965e-18
7.0958e-18
7.09503e-18
7.09423e-18
7.09343e-18
7.09267e-18
7.09196e-18
7.09132e-18
7.09077e-18
7.09032e-18
7.08998e-18
7.08975e-18
7.08963e-18
7.08963e-18
7.08975e-18
7.08998e-18
7.09032e-18
7.09077e-18
7.09132e-18
7.09196e-18
7.09267e-18
7.09343e-18
7.09423e-18
7.09503e-18
7.0958e-18
7.0965e-18
7.09708e-18
7.09747e-18
7.09761e-18
7.0974e-18
7.09676e-18
7.09557e-18
7.09371e-18
7.09106e-18
7.08747e-18
7.0828e-18
7.0769e-18
7.06963e-18
7.06088e-18
7.05059e-18
7.03881e-18
7.02684e-18
7.07095e-18
2.15765e-17
2.14671e-17
2.15041e-17
2.15401e-17
2.15719e-17
2.1599e-17
2.16218e-17
2.16406e-17
2.16557e-17
2.16676e-17
2.16766e-17
2.16833e-17
2.16879e-17
2.16909e-17
2.16925e-17
2.16931e-17
2.16928e-17
2.16919e-17
2.16906e-17
2.1689e-17
2.16872e-17
2.16854e-17
2.16836e-17
2.16819e-17
2.16804e-17
2.16791e-17
2.1678e-17
2.16772e-17
2.16766e-17
2.16763e-17
2.16763e-17
2.16766e-17
2.16772e-17
2.1678e-17
2.16791e-17
2.16804e-17
2.16819e-17
2.16836e-17
2.16854e-17
2.16872e-17
2.1689e-17
2.16906e-17
2.16919e-17
2.16928e-17
2.16931e-17
2.16925e-17
2.16909e-17
2.16879e-17
2.16833e-17
2.16766e-17
2.16676e-17
2.16557e-17
2.16406e-17
2.16218e-17
2.1599e-17
2.15719e-17
2.15401e-17
2.15041e-17
2.14671e-17
2.15765e-17
6.7928e-17
6.76654e-17
6.77843e-17
6.78993e-17
6.80011e-17
6.8089e-17
6.81636e-17
6.82258e-17
6.82767e-17
6.83177e-17
6.83499e-17
6.83746e-17
6.83929e-17
6.84059e-17
6.84146e-17
6.84197e-17
6.84221e-17
6.84223e-17
6.8421e-17
6.84186e-17
6.84155e-17
6.84119e-17
6.84082e-17
6.84046e-17
6.84013e-17
6.83983e-17
6.83958e-17
6.83938e-17
6.83925e-17
6.83918e-17
6.83918e-17
6.83925e-17
6.83938e-17
6.83958e-17
6.83983e-17
6.84013e-17
6.84046e-17
6.84082e-17
6.84119e-17
6.84155e-17
6.84186e-17
6.8421e-17
6.84223e-17
6.84221e-17
6.84197e-17
6.84146e-17
6.84059e-17
6.83929e-17
6.83746e-17
6.83499e-17
6.83177e-17
6.82767e-17
6.82258e-17
6.81636e-17
6.8089e-17
6.80011e-17
6.78993e-17
6.77843e-17
6.76654e-17
6.7928e-17
2.21509e-16
2.20919e-16
2.21318e-16
2.21701e-16
2.22043e-16
2.22341e-16
2.22597e-16
2.22813e-16
2.22992e-16
2.2314e-16
2.23259e-16
2.23353e-16
2.23426e-16
2.23482e-16
2.23523e-16
2.23552e-16
2.23571e-16
2.23583e-16
2.23588e-16
2.2359e-16
2.23588e-16
2.23584e-16
2.23578e-16
2.23572e-16
2.23566e-16
2.23561e-16
2.23556e-16
2.23552e-16
2.23549e-16
2.23548e-16
2.23548e-16
2.23549e-16
2.23552e-16
2.23556e-16
2.23561e-16
2.23566e-16
2.23572e-16
2.23578e-16
2.23584e-16
2.23588e-16
2.2359e-16
2.23588e-16
2.23583e-16
2.23571e-16
2.23552e-16
2.23523e-16
2.23482e-16
2.23426e-16
2.23353e-16
2.23259e-16
2.2314e-16
2.22992e-16
2.22813e-16
2.22597e-16
2.22341e-16
2.22043e-16
2.21701e-16
2.21318e-16
2.20919e-16
2.21509e-16
7.50351e-16
7.49204e-16
7.50609e-16
7.51953e-16
7.5316e-16
7.5422e-16
7.55138e-16
7.55922e-16
7.56584e-16
7.57137e-16
7.57593e-16
7.57964e-16
7.58263e-16
7.585e-16
7.58684e-16
7.58825e-16
7.58931e-16
7.59008e-16
7.59061e-16
7.59097e-16
7.59119e-16
7.59131e-16
7.59135e-16
7.59135e-16
7.59131e-16
7.59126e-16
7.59121e-16
7.59116e-16
7.59112e-16
7.5911e-16
7.5911e-16
7.59112e-16
7.59116e-16
7.59121e-16
7.59126e-16
7.59131e-16
7.59135e-16
7.59135e-16
7.59131e-16
7.59119e-16
7.59097e-16
7.59061e-16
7.59008e-16
7.58931e-16
7.58825e-16
7.58684e-16
7.585e-16
7.58263e-16
7.57964e-16
7.57593e-16
7.57137e-16
7.56584e-16
7.55922e-16
7.55138e-16
7.5422e-16
7.5316e-16
7.51953e-16
7.50609e-16
7.49204e-16
7.50351e-16
2.64398e-15
2.64263e-15
2.64782e-15
2.65277e-15
2.65724e-15
2.6612e-15
2.66465e-15
2.66764e-15
2.67018e-15
2.67234e-15
2.67414e-15
2.67565e-15
2.67688e-15
2.67789e-15
2.6787e-15
2.67935e-15
2.67986e-15
2.68026e-15
2.68057e-15
2.68081e-15
2.68098e-15
2.68111e-15
2.6812e-15
2.68127e-15
2.68131e-15
2.68134e-15
2.68136e-15
2.68137e-15
2.68137e-15
2.68138e-15
2.68138e-15
2.68137e-15
2.68137e-15
2.68136e-15
2.68134e-15
2.68131e-15
2.68127e-15
2.6812e-15
2.68111e-15
2.68098e-15
2.68081e-15
2.68057e-15
2.68026e-15
2.67986e-15
2.67935e-15
2.6787e-15
2.67789e-15
2.67688e-15
2.67565e-15
2.67414e-15
2.67234e-15
2.67018e-15
2.66764e-15
2.66465e-15
2.6612e-15
2.65724e-15
2.65277e-15
2.64782e-15
2.64263e-15
2.64398e-15
9.6873e-15
9.69072e-15
9.71077e-15
9.72987e-15
9.74723e-15
9.76269e-15
9.77627e-15
9.78808e-15
9.79825e-15
9.80695e-15
9.81433e-15
9.82054e-15
9.82574e-15
9.83005e-15
9.83361e-15
9.83653e-15
9.8389e-15
9.84082e-15
9.84236e-15
9.84359e-15
9.84456e-15
9.84533e-15
9.84592e-15
9.84638e-15
9.84672e-15
9.84698e-15
9.84717e-15
9.8473e-15
9.84738e-15
9.84742e-15
9.84742e-15
9.84738e-15
9.8473e-15
9.84717e-15
9.84698e-15
9.84672e-15
9.84638e-15
9.84592e-15
9.84533e-15
9.84456e-15
9.84359e-15
9.84236e-15
9.84082e-15
9.8389e-15
9.83653e-15
9.83361e-15
9.83005e-15
9.82574e-15
9.82054e-15
9.81433e-15
9.80695e-15
9.79825e-15
9.78808e-15
9.77627e-15
9.76269e-15
9.74723e-15
9.72987e-15
9.71077e-15
9.69072e-15
9.6873e-15
3.68313e-14
3.68701e-14
3.69508e-14
3.70277e-14
3.70978e-14
3.71606e-14
3.7216e-14
3.72645e-14
3.73065e-14
3.73426e-14
3.73736e-14
3.73999e-14
3.74221e-14
3.74408e-14
3.74564e-14
3.74694e-14
3.74801e-14
3.7489e-14
3.74962e-14
3.75022e-14
3.7507e-14
3.75109e-14
3.7514e-14
3.75165e-14
3.75184e-14
3.75199e-14
3.75211e-14
3.75219e-14
3.75224e-14
3.75226e-14
3.75226e-14
3.75224e-14
3.75219e-14
3.75211e-14
3.75199e-14
3.75184e-14
3.75165e-14
3.7514e-14
3.75109e-14
3.7507e-14
3.75022e-14
3.74962e-14
3.7489e-14
3.74801e-14
3.74694e-14
3.74564e-14
3.74408e-14
3.74221e-14
3.73999e-14
3.73736e-14
3.73426e-14
3.73065e-14
3.72645e-14
3.7216e-14
3.71606e-14
3.70978e-14
3.70277e-14
3.69508e-14
3.68701e-14
3.68313e-14
1.44834e-13
1.45066e-13
1.45402e-13
1.45723e-13
1.46016e-13
1.46279e-13
1.46513e-13
1.46718e-13
1.46896e-13
1.4705e-13
1.47183e-13
1.47296e-13
1.47393e-13
1.47475e-13
1.47544e-13
1.47601e-13
1.4765e-13
1.4769e-13
1.47724e-13
1.47751e-13
1.47774e-13
1.47793e-13
1.47808e-13
1.4782e-13
1.4783e-13
1.47837e-13
1.47843e-13
1.47847e-13
1.4785e-13
1.47851e-13
1.47851e-13
1.4785e-13
1.47847e-13
1.47843e-13
1.47837e-13
1.4783e-13
1.4782e-13
1.47808e-13
1.47793e-13
1.47774e-13
1.47751e-13
1.47724e-13
1.4769e-13
1.4765e-13
1.47601e-13
1.47544e-13
1.47475e-13
1.47393e-13
1.47296e-13
1.47183e-13
1.4705e-13
1.46896e-13
1.46718e-13
1.46513e-13
1.46279e-13
1.46016e-13
1.45723e-13
1.45402e-13
1.45066e-13
1.44834e-13
5.8665e-13
5.87835e-13
5.89275e-13
5.90651e-13
5.91913e-13
5.93048e-13
5.94056e-13
5.94943e-13
5.95718e-13
5.9639e-13
5.9697e-13
5.97468e-13
5.97893e-13
5.98255e-13
5.98562e-13
5.98821e-13
5.99038e-13
5.99221e-13
5.99374e-13
5.99501e-13
5.99606e-13
5.99693e-13
5.99764e-13
5.99822e-13
5.99869e-13
5.99905e-13
5.99933e-13
5.99953e-13
5.99966e-13
5.99973e-13
5.99973e-13
5.99966e-13
5.99953e-13
5.99933e-13
5.99905e-13
5.99869e-13
5.99822e-13
5.99764e-13
5.99693e-13
5.99606e-13
5.99501e-13
5.99374e-13
5.99221e-13
5.99038e-13
5.98821e-13
5.98562e-13
5.98255e-13
5.97893e-13
5.97468e-13
5.9697e-13
5.9639e-13
5.95718e-13
5.94943e-13
5.94056e-13
5.93048e-13
5.91913e-13
5.90651e-13
5.89275e-13
5.87835e-13
5.8665e-13
2.43653e-12
2.44222e-12
2.44852e-12
2.45456e-12
2.46011e-12
2.4651e-12
2.46954e-12
2.47346e-12
2.47688e-12
2.47986e-12
2.48243e-12
2.48465e-12
2.48655e-12
2.48817e-12
2.48954e-12
2.49071e-12
2.49169e-12
2.49252e-12
2.49322e-12
2.4938e-12
2.49428e-12
2.49468e-12
2.49501e-12
2.49528e-12
2.4955e-12
2.49567e-12
2.4958e-12
2.4959e-12
2.49596e-12
2.49599e-12
2.49599e-12
2.49596e-12
2.4959e-12
2.4958e-12
2.49567e-12
2.4955e-12
2.49528e-12
2.49501e-12
2.49468e-12
2.49428e-12
2.4938e-12
2.49322e-12
2.49252e-12
2.49169e-12
2.49071e-12
2.48954e-12
2.48817e-12
2.48655e-12
2.48465e-12
2.48243e-12
2.47986e-12
2.47688e-12
2.47346e-12
2.46954e-12
2.4651e-12
2.46011e-12
2.45456e-12
2.44852e-12
2.44222e-12
2.43653e-12
1.03271e-11
1.03537e-11
1.03818e-11
1.04087e-11
1.04335e-11
1.04558e-11
1.04756e-11
1.04932e-11
1.05085e-11
1.05219e-11
1.05334e-11
1.05434e-11
1.0552e-11
1.05593e-11
1.05655e-11
1.05708e-11
1.05752e-11
1.0579e-11
1.05822e-11
1.05848e-11
1.05871e-11
1.05889e-11
1.05904e-11
1.05917e-11
1.05927e-11
1.05934e-11
1.05941e-11
1.05945e-11
1.05948e-11
1.05949e-11
1.05949e-11
1.05948e-11
1.05945e-11
1.05941e-11
1.05934e-11
1.05927e-11
1.05917e-11
1.05904e-11
1.05889e-11
1.05871e-11
1.05848e-11
1.05822e-11
1.0579e-11
1.05752e-11
1.05708e-11
1.05655e-11
1.05593e-11
1.0552e-11
1.05434e-11
1.05334e-11
1.05219e-11
1.05085e-11
1.04932e-11
1.04756e-11
1.04558e-11
1.04335e-11
1.04087e-11
1.03818e-11
1.03537e-11
1.03271e-11
4.44499e-11
4.45724e-11
4.46989e-11
4.48202e-11
4.49319e-11
4.50326e-11
4.51223e-11
4.52015e-11
4.52708e-11
4.53313e-11
4.53836e-11
4.54288e-11
4.54675e-11
4.55007e-11
4.5529e-11
4.5553e-11
4.55733e-11
4.55905e-11
4.5605e-11
4.56171e-11
4.56273e-11
4.56357e-11
4.56427e-11
4.56484e-11
4.5653e-11
4.56567e-11
4.56595e-11
4.56615e-11
4.56628e-11
4.56635e-11
4.56635e-11
4.56628e-11
4.56615e-11
4.56595e-11
4.56567e-11
4.5653e-11
4.56484e-11
4.56427e-11
4.56357e-11
4.56273e-11
4.56171e-11
4.5605e-11
4.55905e-11
4.55733e-11
4.5553e-11
4.5529e-11
4.55007e-11
4.54675e-11
4.54288e-11
4.53836e-11
4.53313e-11
4.52708e-11
4.52015e-11
4.51223e-11
4.50326e-11
4.49319e-11
4.48202e-11
4.46989e-11
4.45724e-11
4.44499e-11
1.93297e-10
1.93857e-10
1.94429e-10
1.94979e-10
1.95485e-10
1.95942e-10
1.96349e-10
1.96708e-10
1.97023e-10
1.97297e-10
1.97534e-10
1.9774e-10
1.97916e-10
1.98067e-10
1.98195e-10
1.98305e-10
1.98397e-10
1.98476e-10
1.98542e-10
1.98597e-10
1.98643e-10
1.98682e-10
1.98714e-10
1.9874e-10
1.98761e-10
1.98778e-10
1.98791e-10
1.988e-10
1.98806e-10
1.98809e-10
1.98809e-10
1.98806e-10
1.988e-10
1.98791e-10
1.98778e-10
1.98761e-10
1.9874e-10
1.98714e-10
1.98682e-10
1.98643e-10
1.98597e-10
1.98542e-10
1.98476e-10
1.98397e-10
1.98305e-10
1.98195e-10
1.98067e-10
1.97916e-10
1.9774e-10
1.97534e-10
1.97297e-10
1.97023e-10
1.96708e-10
1.96349e-10
1.95942e-10
1.95485e-10
1.94979e-10
1.94429e-10
1.93857e-10
1.93297e-10
8.44649e-10
8.47193e-10
8.49784e-10
8.52273e-10
8.54565e-10
8.56633e-10
8.58475e-10
8.60102e-10
8.61528e-10
8.6277e-10
8.63848e-10
8.64777e-10
8.65576e-10
8.6626e-10
8.66843e-10
8.67339e-10
8.6776e-10
8.68116e-10
8.68415e-10
8.68667e-10
8.68878e-10
8.69054e-10
8.69199e-10
8.69318e-10
8.69414e-10
8.6949e-10
8.69548e-10
8.69591e-10
8.69618e-10
8.69632e-10
8.69632e-10
8.69618e-10
8.69591e-10
8.69548e-10
8.6949e-10
8.69414e-10
8.69318e-10
8.69199e-10
8.69054e-10
8.68878e-10
8.68667e-10
8.68415e-10
8.68116e-10
8.6776e-10
8.67339e-10
8.66843e-10
8.6626e-10
8.65576e-10
8.64777e-10
8.63848e-10
8.6277e-10
8.61528e-10
8.60102e-10
8.58475e-10
8.56633e-10
8.54565e-10
8.52273e-10
8.49784e-10
8.47193e-10
8.44649e-10
3.68692e-09
3.69836e-09
3.71001e-09
3.7212e-09
3.7315e-09
3.7408e-09
3.74908e-09
3.7564e-09
3.76281e-09
3.76839e-09
3.77324e-09
3.77742e-09
3.78101e-09
3.78408e-09
3.78671e-09
3.78894e-09
3.79083e-09
3.79243e-09
3.79378e-09
3.79492e-09
3.79587e-09
3.79666e-09
3.79731e-09
3.79785e-09
3.79828e-09
3.79862e-09
3.79888e-09
3.79908e-09
3.7992e-09
3.79926e-09
3.79926e-09
3.7992e-09
3.79908e-09
3.79888e-09
3.79862e-09
3.79828e-09
3.79785e-09
3.79731e-09
3.79666e-09
3.79587e-09
3.79492e-09
3.79378e-09
3.79243e-09
3.79083e-09
3.78894e-09
3.78671e-09
3.78408e-09
3.78101e-09
3.77742e-09
3.77324e-09
3.76839e-09
3.76281e-09
3.7564e-09
3.74908e-09
3.7408e-09
3.7315e-09
3.7212e-09
3.71001e-09
3.69836e-09
3.68692e-09
1.59721e-08
1.60228e-08
1.60745e-08
1.61241e-08
1.61698e-08
1.6211e-08
1.62477e-08
1.62801e-08
1.63085e-08
1.63333e-08
1.63547e-08
1.63733e-08
1.63892e-08
1.64028e-08
1.64144e-08
1.64243e-08
1.64327e-08
1.64398e-08
1.64458e-08
1.64508e-08
1.6455e-08
1.64585e-08
1.64614e-08
1.64638e-08
1.64657e-08
1.64672e-08
1.64684e-08
1.64693e-08
1.64698e-08
1.64701e-08
1.64701e-08
1.64698e-08
1.64693e-08
1.64684e-08
1.64672e-08
1.64657e-08
1.64638e-08
1.64614e-08
1.64585e-08
1.6455e-08
1.64508e-08
1.64458e-08
1.64398e-08
1.64327e-08
1.64243e-08
1.64144e-08
1.64028e-08
1.63892e-08
1.63733e-08
1.63547e-08
1.63333e-08
1.63085e-08
1.62801e-08
1.62477e-08
1.6211e-08
1.61698e-08
1.61241e-08
1.60745e-08
1.60228e-08
1.59721e-08
6.81769e-08
6.83967e-08
6.86209e-08
6.88361e-08
6.90343e-08
6.9213e-08
6.93722e-08
6.95127e-08
6.96359e-08
6.97432e-08
6.98363e-08
6.99166e-08
6.99856e-08
7.00446e-08
7.0095e-08
7.01379e-08
7.01742e-08
7.0205e-08
7.02309e-08
7.02527e-08
7.02709e-08
7.02861e-08
7.02986e-08
7.03089e-08
7.03172e-08
7.03238e-08
7.03289e-08
7.03326e-08
7.03349e-08
7.03361e-08
7.03361e-08
7.03349e-08
7.03326e-08
7.03289e-08
7.03238e-08
7.03172e-08
7.03089e-08
7.02986e-08
7.02861e-08
7.02709e-08
7.02527e-08
7.02309e-08
7.0205e-08
7.01742e-08
7.01379e-08
7.0095e-08
7.00446e-08
6.99856e-08
6.99166e-08
6.98363e-08
6.97432e-08
6.96359e-08
6.95127e-08
6.93722e-08
6.9213e-08
6.90343e-08
6.88361e-08
6.86209e-08
6.83967e-08
6.81769e-08
2.8444e-07
2.85366e-07
2.8631e-07
2.87216e-07
2.88049e-07
2.88801e-07
2.8947e-07
2.90061e-07
2.90579e-07
2.9103e-07
2.91421e-07
2.91759e-07
2.92049e-07
2.92297e-07
2.92509e-07
2.92689e-07
2.92842e-07
2.92971e-07
2.9308e-07
2.93171e-07
2.93248e-07
2.93311e-07
2.93364e-07
2.93407e-07
2.93442e-07
2.9347e-07
2.93491e-07
2.93507e-07
2.93517e-07
2.93522e-07
2.93522e-07
2.93517e-07
2.93507e-07
2.93491e-07
2.9347e-07
2.93442e-07
2.93407e-07
2.93364e-07
2.93311e-07
2.93248e-07
2.93171e-07
2.9308e-07
2.92971e-07
2.92842e-07
2.92689e-07
2.92509e-07
2.92297e-07
2.92049e-07
2.91759e-07
2.91421e-07
2.9103e-07
2.90579e-07
2.90061e-07
2.8947e-07
2.88801e-07
2.88049e-07
2.87216e-07
2.8631e-07
2.85366e-07
2.8444e-07
1.14956e-06
1.15331e-06
1.15713e-06
1.16079e-06
1.16416e-06
1.16719e-06
1.1699e-06
1.17228e-06
1.17437e-06
1.17619e-06
1.17777e-06
1.17913e-06
1.1803e-06
1.18131e-06
1.18216e-06
1.18289e-06
1.1835e-06
1.18402e-06
1.18446e-06
1.18483e-06
1.18514e-06
1.1854e-06
1.18561e-06
1.18578e-06
1.18593e-06
1.18604e-06
1.18612e-06
1.18618e-06
1.18623e-06
1.18625e-06
1.18625e-06
1.18623e-06
1.18618e-06
1.18612e-06
1.18604e-06
1.18593e-06
1.18578e-06
1.18561e-06
1.1854e-06
1.18514e-06
1.18483e-06
1.18446e-06
1.18402e-06
1.1835e-06
1.18289e-06
1.18216e-06
1.18131e-06
1.1803e-06
1.17913e-06
1.17777e-06
1.17619e-06
1.17437e-06
1.17228e-06
1.1699e-06
1.16719e-06
1.16416e-06
1.16079e-06
1.15713e-06
1.15331e-06
1.14956e-06
4.45586e-06
4.47028e-06
4.48498e-06
4.49903e-06
4.51196e-06
4.5236e-06
4.53397e-06
4.54311e-06
4.55113e-06
4.55811e-06
4.56416e-06
4.56938e-06
4.57386e-06
4.5777e-06
4.58097e-06
4.58376e-06
4.58612e-06
4.58811e-06
4.58979e-06
4.59121e-06
4.59239e-06
4.59337e-06
4.59419e-06
4.59486e-06
4.5954e-06
4.59582e-06
4.59615e-06
4.59639e-06
4.59654e-06
4.59662e-06
4.59662e-06
4.59654e-06
4.59639e-06
4.59615e-06
4.59582e-06
4.5954e-06
4.59486e-06
4.59419e-06
4.59337e-06
4.59239e-06
4.59121e-06
4.58979e-06
4.58811e-06
4.58612e-06
4.58376e-06
4.58097e-06
4.5777e-06
4.57386e-06
4.56938e-06
4.56416e-06
4.55811e-06
4.55113e-06
4.54311e-06
4.53397e-06
4.5236e-06
4.51196e-06
4.49903e-06
4.48498e-06
4.47028e-06
4.45586e-06
1.63828e-05
1.6435e-05
1.6488e-05
1.65386e-05
1.65851e-05
1.6627e-05
1.66643e-05
1.66972e-05
1.6726e-05
1.67511e-05
1.67728e-05
1.67916e-05
1.68077e-05
1.68215e-05
1.68332e-05
1.68432e-05
1.68517e-05
1.68589e-05
1.68649e-05
1.687e-05
1.68742e-05
1.68778e-05
1.68807e-05
1.68831e-05
1.6885e-05
1.68866e-05
1.68877e-05
1.68886e-05
1.68892e-05
1.68894e-05
1.68894e-05
1.68892e-05
1.68886e-05
1.68877e-05
1.68866e-05
1.6885e-05
1.68831e-05
1.68807e-05
1.68778e-05
1.68742e-05
1.687e-05
1.68649e-05
1.68589e-05
1.68517e-05
1.68432e-05
1.68332e-05
1.68215e-05
1.68077e-05
1.67916e-05
1.67728e-05
1.67511e-05
1.6726e-05
1.66972e-05
1.66643e-05
1.6627e-05
1.65851e-05
1.65386e-05
1.6488e-05
1.6435e-05
1.63828e-05
5.64407e-05
5.66154e-05
5.67923e-05
5.69608e-05
5.71155e-05
5.72548e-05
5.73787e-05
5.7488e-05
5.75837e-05
5.76671e-05
5.77393e-05
5.78016e-05
5.78551e-05
5.79009e-05
5.79399e-05
5.79731e-05
5.80013e-05
5.80251e-05
5.80451e-05
5.8062e-05
5.8076e-05
5.80878e-05
5.80975e-05
5.81054e-05
5.81119e-05
5.8117e-05
5.81209e-05
5.81237e-05
5.81255e-05
5.81264e-05
5.81264e-05
5.81255e-05
5.81237e-05
5.81209e-05
5.8117e-05
5.81119e-05
5.81054e-05
5.80975e-05
5.80878e-05
5.8076e-05
5.8062e-05
5.80451e-05
5.80251e-05
5.80013e-05
5.79731e-05
5.79399e-05
5.79009e-05
5.78551e-05
5.78016e-05
5.77393e-05
5.76671e-05
5.75837e-05
5.7488e-05
5.73787e-05
5.72548e-05
5.71155e-05
5.69608e-05
5.67923e-05
5.66154e-05
5.64407e-05
0.000179764
0.000180297
0.000180834
0.000181344
0.000181812
0.000182233
0.000182608
0.000182938
0.000183228
0.000183479
0.000183698
0.000183886
0.000184047
0.000184186
0.000184304
0.000184404
0.000184489
0.000184561
0.000184621
0.000184672
0.000184714
0.00018475
0.000184779
0.000184803
0.000184823
0.000184838
0.00018485
0.000184858
0.000184864
0.000184867
0.000184867
0.000184864
0.000184858
0.00018485
0.000184838
0.000184823
0.000184803
0.000184779
0.00018475
0.000184714
0.000184672
0.000184621
0.000184561
0.000184489
0.000184404
0.000184304
0.000184186
0.000184047
0.000183886
0.000183698
0.000183479
0.000183228
0.000182938
0.000182608
0.000182233
0.000181812
0.000181344
0.000180834
0.000180297
0.000179764
0.00052172
0.000523174
0.00052463
0.000526011
0.000527275
0.000528413
0.000529424
0.000530315
0.000531096
0.000531775
0.000532364
0.000532871
0.000533307
0.00053368
0.000533998
0.000534268
0.000534497
0.000534691
0.000534854
0.000534991
0.000535106
0.000535201
0.00053528
0.000535345
0.000535398
0.000535439
0.000535471
0.000535494
0.000535509
0.000535516
0.000535516
0.000535509
0.000535494
0.000535471
0.000535439
0.000535398
0.000535345
0.00053528
0.000535201
0.000535106
0.000534991
0.000534854
0.000534691
0.000534497
0.000534268
0.000533998
0.00053368
0.000533307
0.000532871
0.000532364
0.000531775
0.000531096
0.000530315
0.000529424
0.000528413
0.000527275
0.000526011
0.00052463
0.000523173
0.00052172
0.00135959
0.00136308
0.00136654
0.00136981
0.00137281
0.0013755
0.00137789
0.00138
0.00138184
0.00138345
0.00138484
0.00138604
0.00138707
0.00138795
0.0013887
0.00138934
0.00138988
0.00139034
0.00139072
0.00139105
0.00139132
0.00139155
0.00139173
0.00139188
0.00139201
0.00139211
0.00139218
0.00139224
0.00139227
0.00139229
0.00139229
0.00139227
0.00139224
0.00139218
0.00139211
0.00139201
0.00139188
0.00139173
0.00139155
0.00139132
0.00139105
0.00139072
0.00139034
0.00138988
0.00138934
0.0013887
0.00138795
0.00138707
0.00138604
0.00138484
0.00138345
0.00138184
0.00138
0.00137789
0.0013755
0.00137281
0.00136981
0.00136654
0.00136308
0.00135959
0.00314015
0.00314735
0.00315445
0.00316114
0.00316725
0.00317273
0.00317761
0.0031819
0.00318566
0.00318893
0.00319176
0.00319421
0.0031963
0.0031981
0.00319963
0.00320093
0.00320203
0.00320296
0.00320375
0.0032044
0.00320496
0.00320542
0.0032058
0.00320611
0.00320636
0.00320656
0.00320671
0.00320682
0.00320689
0.00320693
0.00320693
0.00320689
0.00320682
0.00320671
0.00320656
0.00320636
0.00320611
0.0032058
0.00320542
0.00320496
0.0032044
0.00320375
0.00320296
0.00320203
0.00320093
0.00319963
0.0031981
0.0031963
0.00319421
0.00319176
0.00318893
0.00318566
0.0031819
0.00317761
0.00317273
0.00316725
0.00316114
0.00315445
0.00314735
0.00314015
0.00637529
0.00638802
0.00640045
0.00641212
0.00642275
0.0064323
0.00644078
0.00644825
0.00645478
0.00646047
0.00646539
0.00646964
0.00647328
0.0064764
0.00647906
0.00648132
0.00648323
0.00648485
0.00648622
0.00648737
0.00648833
0.00648913
0.00648979
0.00649033
0.00649077
0.00649111
0.00649138
0.00649157
0.0064917
0.00649176
0.00649176
0.0064917
0.00649157
0.00649138
0.00649111
0.00649077
0.00649033
0.00648979
0.00648913
0.00648833
0.00648737
0.00648622
0.00648485
0.00648323
0.00648132
0.00647906
0.0064764
0.00647328
0.00646964
0.00646539
0.00646047
0.00645478
0.00644825
0.00644078
0.0064323
0.00642275
0.00641212
0.00640045
0.00638802
0.00637529
0.0113801
0.0113995
0.0114181
0.0114356
0.0114514
0.0114657
0.0114783
0.0114895
0.0114992
0.0115077
0.011515
0.0115213
0.0115268
0.0115314
0.0115354
0.0115388
0.0115416
0.011544
0.0115461
0.0115478
0.0115492
0.0115504
0.0115514
0.0115522
0.0115529
0.0115534
0.0115538
0.0115541
0.0115543
0.0115543
0.0115543
0.0115543
0.0115541
0.0115538
0.0115534
0.0115529
0.0115522
0.0115514
0.0115504
0.0115492
0.0115478
0.0115461
0.011544
0.0115416
0.0115388
0.0115354
0.0115314
0.0115268
0.0115213
0.011515
0.0115077
0.0114992
0.0114895
0.0114783
0.0114657
0.0114514
0.0114356
0.0114181
0.0113995
0.0113801
0.0180465
0.0180723
0.0180968
0.0181196
0.0181404
0.018159
0.0181755
0.0181901
0.0182028
0.0182139
0.0182235
0.0182317
0.0182388
0.0182449
0.0182501
0.0182545
0.0182582
0.0182614
0.0182641
0.0182663
0.0182682
0.0182697
0.018271
0.0182721
0.0182729
0.0182736
0.0182741
0.0182745
0.0182748
0.0182749
0.0182749
0.0182748
0.0182745
0.0182741
0.0182736
0.0182729
0.0182721
0.018271
0.0182697
0.0182682
0.0182663
0.0182641
0.0182614
0.0182582
0.0182545
0.0182501
0.0182449
0.0182388
0.0182317
0.0182235
0.0182139
0.0182028
0.0181901
0.0181755
0.018159
0.0181404
0.0181196
0.0180968
0.0180723
0.0180465
0.0259035
0.0259346
0.0259639
0.025991
0.0260157
0.0260377
0.0260573
0.0260745
0.0260896
0.0261027
0.0261141
0.0261239
0.0261323
0.0261395
0.0261456
0.0261509
0.0261553
0.0261591
0.0261622
0.0261649
0.0261671
0.026169
0.0261705
0.0261718
0.0261728
0.0261736
0.0261742
0.0261747
0.026175
0.0261751
0.0261751
0.026175
0.0261747
0.0261742