/*--------------------------------*- C++ -*----------------------------------*\
| =========                 |                                                 |
| \\      /  F ield         | foam-extend: Open Source CFD                    |
|  \\    /   O peration     | Version:     4.0                                |
|   \\  /    A nd           | Web:         http://www.foam-extend.org         |
|    \\/     M anipulation  |                                                 |
\*---------------------------------------------------------------------------*/
FoamFile
{
    version     2.0;
    format      ascii;
    class       volScalarField;
    location    "1280";
    object      cPlus;
}
// * * * * * * * * * * * * * * * * * * * * * * * * * * * * * * * * * * * * * //

dimensions      [0 0 0 0 0 0 0];

internalField   nonuniform List<scalar> 
6960
(
0.303085
0.303064
0.30304
0.303017
0.302997
0.30298
0.302965
0.302952
0.302941
0.302933
0.302925
0.302919
0.302914
0.30291
0.302907
0.302904
0.302902
0.3029
0.302899
0.302898
0.302897
0.302896
0.302895
0.302895
0.302894
0.302894
0.302894
0.302894
0.302894
0.302894
0.302894
0.302894
0.302894
0.302894
0.302894
0.302894
0.302895
0.302895
0.302896
0.302897
0.302898
0.302899
0.3029
0.302902
0.302904
0.302907
0.30291
0.302914
0.302919
0.302925
0.302933
0.302941
0.302952
0.302965
0.30298
0.302997
0.303017
0.30304
0.303064
0.303085
0.0919119
0.0918989
0.0918838
0.0918693
0.0918565
0.0918453
0.0918358
0.0918278
0.091821
0.0918154
0.0918108
0.0918069
0.0918038
0.0918012
0.0917991
0.0917973
0.0917959
0.0917948
0.0917939
0.0917931
0.0917925
0.091792
0.0917916
0.0917913
0.0917911
0.0917909
0.0917907
0.0917906
0.0917905
0.0917905
0.0917905
0.0917905
0.0917906
0.0917907
0.0917909
0.0917911
0.0917913
0.0917916
0.091792
0.0917925
0.0917931
0.0917939
0.0917948
0.0917959
0.0917973
0.0917991
0.0918012
0.0918038
0.0918069
0.0918108
0.0918154
0.091821
0.0918278
0.0918358
0.0918453
0.0918565
0.0918693
0.0918838
0.0918989
0.0919119
0.0340437
0.0340379
0.0340308
0.034024
0.0340179
0.0340126
0.0340081
0.0340042
0.034001
0.0339983
0.0339961
0.0339943
0.0339928
0.0339916
0.0339905
0.0339897
0.033989
0.0339885
0.0339881
0.0339877
0.0339874
0.0339872
0.033987
0.0339868
0.0339867
0.0339866
0.0339865
0.0339865
0.0339865
0.0339864
0.0339864
0.0339865
0.0339865
0.0339865
0.0339866
0.0339867
0.0339868
0.033987
0.0339872
0.0339874
0.0339877
0.0339881
0.0339885
0.033989
0.0339897
0.0339905
0.0339916
0.0339928
0.0339943
0.0339961
0.0339983
0.034001
0.0340042
0.0340081
0.0340126
0.0340179
0.034024
0.0340308
0.0340379
0.0340437
0.0158457
0.0158442
0.015842
0.0158398
0.0158377
0.015836
0.0158345
0.0158332
0.0158321
0.0158312
0.0158305
0.0158298
0.0158293
0.0158289
0.0158286
0.0158283
0.0158281
0.0158279
0.0158277
0.0158276
0.0158275
0.0158274
0.0158274
0.0158273
0.0158273
0.0158272
0.0158272
0.0158272
0.0158272
0.0158272
0.0158272
0.0158272
0.0158272
0.0158272
0.0158272
0.0158273
0.0158273
0.0158274
0.0158274
0.0158275
0.0158276
0.0158277
0.0158279
0.0158281
0.0158283
0.0158286
0.0158289
0.0158293
0.0158298
0.0158305
0.0158312
0.0158321
0.0158332
0.0158345
0.015836
0.0158377
0.0158398
0.015842
0.0158442
0.0158457
0.00999364
0.00999434
0.00999457
0.00999467
0.00999472
0.00999475
0.00999477
0.00999478
0.00999478
0.00999478
0.00999478
0.00999477
0.00999477
0.00999476
0.00999475
0.00999475
0.00999474
0.00999473
0.00999473
0.00999473
0.00999472
0.00999472
0.00999472
0.00999471
0.00999471
0.00999471
0.00999471
0.00999471
0.00999471
0.00999471
0.00999471
0.00999471
0.00999471
0.00999471
0.00999471
0.00999471
0.00999471
0.00999472
0.00999472
0.00999472
0.00999473
0.00999473
0.00999473
0.00999474
0.00999475
0.00999475
0.00999476
0.00999477
0.00999477
0.00999478
0.00999478
0.00999478
0.00999478
0.00999477
0.00999475
0.00999472
0.00999467
0.00999457
0.00999434
0.00999364
0.00816143
0.00816312
0.00816446
0.0081656
0.00816659
0.00816742
0.00816813
0.00816872
0.00816921
0.00816961
0.00816995
0.00817022
0.00817044
0.00817062
0.00817077
0.00817088
0.00817098
0.00817105
0.00817112
0.00817117
0.00817121
0.00817124
0.00817126
0.00817129
0.0081713
0.00817131
0.00817132
0.00817133
0.00817133
0.00817134
0.00817134
0.00817133
0.00817133
0.00817132
0.00817131
0.0081713
0.00817129
0.00817126
0.00817124
0.00817121
0.00817117
0.00817112
0.00817105
0.00817098
0.00817088
0.00817077
0.00817062
0.00817044
0.00817022
0.00816995
0.00816961
0.00816921
0.00816872
0.00816813
0.00816742
0.00816659
0.0081656
0.00816446
0.00816312
0.00816143
0.00763488
0.00763699
0.0076388
0.00764039
0.00764176
0.00764294
0.00764394
0.00764477
0.00764547
0.00764604
0.00764652
0.0076469
0.00764722
0.00764748
0.00764769
0.00764786
0.007648
0.00764811
0.0076482
0.00764827
0.00764833
0.00764838
0.00764841
0.00764844
0.00764847
0.00764849
0.0076485
0.00764851
0.00764852
0.00764852
0.00764852
0.00764852
0.00764851
0.0076485
0.00764849
0.00764847
0.00764844
0.00764841
0.00764838
0.00764833
0.00764827
0.0076482
0.00764811
0.007648
0.00764786
0.00764769
0.00764748
0.00764722
0.0076469
0.00764652
0.00764604
0.00764547
0.00764477
0.00764394
0.00764294
0.00764176
0.00764039
0.0076388
0.00763699
0.00763488
0.00752573
0.00752802
0.00753003
0.0075318
0.00753334
0.00753466
0.00753577
0.00753671
0.00753749
0.00753814
0.00753867
0.00753911
0.00753947
0.00753976
0.00753999
0.00754019
0.00754034
0.00754047
0.00754057
0.00754065
0.00754072
0.00754077
0.00754081
0.00754085
0.00754087
0.00754089
0.00754091
0.00754092
0.00754093
0.00754093
0.00754093
0.00754093
0.00754092
0.00754091
0.00754089
0.00754087
0.00754085
0.00754081
0.00754077
0.00754072
0.00754065
0.00754057
0.00754047
0.00754034
0.00754019
0.00753999
0.00753976
0.00753947
0.00753911
0.00753867
0.00753814
0.00753749
0.00753671
0.00753577
0.00753466
0.00753334
0.0075318
0.00753003
0.00752802
0.00752573
0.00754886
0.00755125
0.00755335
0.0075552
0.00755682
0.0075582
0.00755937
0.00756036
0.00756118
0.00756186
0.00756242
0.00756288
0.00756326
0.00756356
0.00756381
0.00756401
0.00756418
0.00756431
0.00756442
0.0075645
0.00756457
0.00756463
0.00756467
0.00756471
0.00756474
0.00756476
0.00756478
0.00756479
0.0075648
0.0075648
0.0075648
0.0075648
0.00756479
0.00756478
0.00756476
0.00756474
0.00756471
0.00756467
0.00756463
0.00756457
0.0075645
0.00756442
0.00756431
0.00756418
0.00756401
0.00756381
0.00756356
0.00756326
0.00756288
0.00756242
0.00756186
0.00756118
0.00756036
0.00755937
0.0075582
0.00755682
0.0075552
0.00755335
0.00755125
0.00754886
0.00761541
0.00761786
0.00762002
0.00762193
0.00762359
0.00762501
0.00762622
0.00762723
0.00762808
0.00762878
0.00762935
0.00762983
0.00763021
0.00763053
0.00763079
0.00763099
0.00763116
0.0076313
0.00763141
0.0076315
0.00763157
0.00763163
0.00763168
0.00763171
0.00763174
0.00763177
0.00763178
0.0076318
0.0076318
0.00763181
0.00763181
0.0076318
0.0076318
0.00763178
0.00763177
0.00763174
0.00763171
0.00763168
0.00763163
0.00763157
0.0076315
0.00763141
0.0076313
0.00763116
0.00763099
0.00763079
0.00763053
0.00763021
0.00762983
0.00762935
0.00762878
0.00762808
0.00762723
0.00762622
0.00762501
0.00762359
0.00762193
0.00762002
0.00761786
0.00761541
0.00769877
0.00770127
0.00770348
0.00770543
0.00770713
0.00770858
0.00770981
0.00771085
0.00771172
0.00771243
0.00771302
0.00771351
0.0077139
0.00771423
0.00771449
0.0077147
0.00771487
0.00771501
0.00771513
0.00771522
0.00771529
0.00771535
0.0077154
0.00771544
0.00771547
0.00771549
0.00771551
0.00771552
0.00771553
0.00771553
0.00771553
0.00771553
0.00771552
0.00771551
0.00771549
0.00771547
0.00771544
0.0077154
0.00771535
0.00771529
0.00771522
0.00771513
0.00771501
0.00771487
0.0077147
0.00771449
0.00771423
0.0077139
0.00771351
0.00771302
0.00771243
0.00771172
0.00771085
0.00770981
0.00770858
0.00770713
0.00770543
0.00770348
0.00770127
0.00769877
0.0077915
0.00779405
0.00779631
0.0077983
0.00780003
0.00780151
0.00780277
0.00780383
0.00780472
0.00780545
0.00780605
0.00780655
0.00780695
0.00780728
0.00780755
0.00780777
0.00780795
0.00780809
0.00780821
0.0078083
0.00780838
0.00780844
0.00780848
0.00780852
0.00780855
0.00780858
0.0078086
0.00780861
0.00780862
0.00780862
0.00780862
0.00780862
0.00780861
0.0078086
0.00780858
0.00780855
0.00780852
0.00780848
0.00780844
0.00780838
0.0078083
0.00780821
0.00780809
0.00780795
0.00780777
0.00780755
0.00780728
0.00780695
0.00780655
0.00780605
0.00780545
0.00780472
0.00780383
0.00780277
0.00780151
0.00780003
0.0077983
0.00779631
0.00779405
0.0077915
0.00789194
0.00789455
0.00789685
0.00789889
0.00790066
0.00790217
0.00790346
0.00790454
0.00790545
0.00790619
0.00790681
0.00790732
0.00790773
0.00790807
0.00790834
0.00790857
0.00790875
0.0079089
0.00790901
0.00790911
0.00790919
0.00790925
0.0079093
0.00790934
0.00790937
0.0079094
0.00790941
0.00790943
0.00790944
0.00790944
0.00790944
0.00790944
0.00790943
0.00790941
0.0079094
0.00790937
0.00790934
0.0079093
0.00790925
0.00790919
0.00790911
0.00790901
0.0079089
0.00790875
0.00790857
0.00790834
0.00790807
0.00790773
0.00790732
0.00790681
0.00790619
0.00790545
0.00790454
0.00790346
0.00790217
0.00790066
0.00789889
0.00789685
0.00789455
0.00789194
0.00800017
0.00800285
0.0080052
0.00800728
0.00800909
0.00801064
0.00801196
0.00801307
0.00801399
0.00801476
0.00801539
0.00801591
0.00801633
0.00801668
0.00801696
0.00801719
0.00801737
0.00801753
0.00801765
0.00801775
0.00801783
0.00801789
0.00801794
0.00801798
0.00801801
0.00801804
0.00801806
0.00801807
0.00801808
0.00801808
0.00801808
0.00801808
0.00801807
0.00801806
0.00801804
0.00801801
0.00801798
0.00801794
0.00801789
0.00801783
0.00801775
0.00801765
0.00801753
0.00801737
0.00801719
0.00801696
0.00801668
0.00801633
0.00801591
0.00801539
0.00801476
0.00801399
0.00801307
0.00801196
0.00801064
0.00800909
0.00800728
0.0080052
0.00800285
0.00800017
0.00811685
0.00811959
0.008122
0.00812414
0.00812599
0.00812758
0.00812893
0.00813007
0.00813101
0.0081318
0.00813244
0.00813298
0.00813341
0.00813377
0.00813405
0.00813429
0.00813448
0.00813463
0.00813476
0.00813486
0.00813494
0.00813501
0.00813506
0.0081351
0.00813514
0.00813516
0.00813518
0.00813519
0.0081352
0.00813521
0.00813521
0.0081352
0.00813519
0.00813518
0.00813516
0.00813514
0.0081351
0.00813506
0.00813501
0.00813494
0.00813486
0.00813476
0.00813463
0.00813448
0.00813429
0.00813405
0.00813377
0.00813341
0.00813298
0.00813244
0.0081318
0.00813101
0.00813007
0.00812893
0.00812758
0.00812599
0.00812414
0.008122
0.00811959
0.00811685
0.00824287
0.00824569
0.00824817
0.00825035
0.00825225
0.00825389
0.00825527
0.00825644
0.00825741
0.00825822
0.00825888
0.00825943
0.00825987
0.00826024
0.00826053
0.00826078
0.00826097
0.00826113
0.00826126
0.00826136
0.00826145
0.00826151
0.00826157
0.00826161
0.00826165
0.00826167
0.00826169
0.00826171
0.00826172
0.00826172
0.00826172
0.00826172
0.00826171
0.00826169
0.00826167
0.00826165
0.00826161
0.00826157
0.00826151
0.00826145
0.00826136
0.00826126
0.00826113
0.00826097
0.00826078
0.00826053
0.00826024
0.00825987
0.00825943
0.00825888
0.00825822
0.00825741
0.00825644
0.00825527
0.00825389
0.00825225
0.00825035
0.00824817
0.00824569
0.00824287
0.00837933
0.00838223
0.00838477
0.00838702
0.00838898
0.00839066
0.00839208
0.00839328
0.00839428
0.00839511
0.00839579
0.00839635
0.00839681
0.00839719
0.0083975
0.00839774
0.00839795
0.00839811
0.00839824
0.00839835
0.00839843
0.0083985
0.00839856
0.0083986
0.00839864
0.00839867
0.00839869
0.0083987
0.00839871
0.00839872
0.00839872
0.00839871
0.0083987
0.00839869
0.00839867
0.00839864
0.0083986
0.00839856
0.0083985
0.00839843
0.00839835
0.00839824
0.00839811
0.00839795
0.00839774
0.0083975
0.00839719
0.00839681
0.00839635
0.00839579
0.00839511
0.00839428
0.00839328
0.00839208
0.00839066
0.00838898
0.00838702
0.00838477
0.00838223
0.00837933
0.0085275
0.0085305
0.00853312
0.00853544
0.00853745
0.00853918
0.00854065
0.00854188
0.00854291
0.00854377
0.00854447
0.00854505
0.00854553
0.00854591
0.00854623
0.00854648
0.00854669
0.00854686
0.008547
0.00854711
0.0085472
0.00854727
0.00854733
0.00854737
0.00854741
0.00854744
0.00854746
0.00854747
0.00854748
0.00854749
0.00854749
0.00854748
0.00854747
0.00854746
0.00854744
0.00854741
0.00854737
0.00854733
0.00854727
0.0085472
0.00854711
0.008547
0.00854686
0.00854669
0.00854648
0.00854623
0.00854591
0.00854553
0.00854505
0.00854447
0.00854377
0.00854291
0.00854188
0.00854065
0.00853918
0.00853745
0.00853544
0.00853312
0.0085305
0.0085275
0.00868892
0.00869201
0.00869472
0.00869711
0.00869919
0.00870098
0.00870249
0.00870377
0.00870483
0.00870572
0.00870644
0.00870704
0.00870753
0.00870793
0.00870826
0.00870852
0.00870874
0.00870891
0.00870906
0.00870917
0.00870926
0.00870934
0.0087094
0.00870944
0.00870948
0.00870951
0.00870953
0.00870955
0.00870956
0.00870956
0.00870956
0.00870956
0.00870955
0.00870953
0.00870951
0.00870948
0.00870944
0.0087094
0.00870934
0.00870926
0.00870917
0.00870906
0.00870891
0.00870874
0.00870852
0.00870826
0.00870793
0.00870753
0.00870704
0.00870644
0.00870572
0.00870483
0.00870377
0.00870249
0.00870098
0.00869919
0.00869711
0.00869472
0.00869201
0.00868892
0.00886537
0.00886858
0.00887138
0.00887386
0.00887601
0.00887786
0.00887943
0.00888075
0.00888185
0.00888277
0.00888352
0.00888414
0.00888465
0.00888506
0.0088854
0.00888568
0.0088859
0.00888608
0.00888623
0.00888635
0.00888644
0.00888652
0.00888658
0.00888663
0.00888667
0.0088867
0.00888672
0.00888674
0.00888675
0.00888675
0.00888675
0.00888675
0.00888674
0.00888672
0.0088867
0.00888667
0.00888663
0.00888658
0.00888652
0.00888644
0.00888635
0.00888623
0.00888608
0.0088859
0.00888568
0.0088854
0.00888506
0.00888465
0.00888414
0.00888352
0.00888277
0.00888185
0.00888075
0.00887943
0.00887786
0.00887601
0.00887386
0.00887138
0.00886858
0.00886537
0.00905902
0.00906235
0.00906527
0.00906784
0.00907007
0.00907199
0.00907362
0.00907499
0.00907614
0.00907709
0.00907787
0.00907852
0.00907905
0.00907948
0.00907983
0.00908011
0.00908034
0.00908053
0.00908069
0.00908081
0.00908091
0.00908099
0.00908105
0.0090811
0.00908114
0.00908118
0.0090812
0.00908122
0.00908123
0.00908123
0.00908123
0.00908123
0.00908122
0.0090812
0.00908118
0.00908114
0.0090811
0.00908105
0.00908099
0.00908091
0.00908081
0.00908069
0.00908053
0.00908034
0.00908011
0.00907983
0.00907948
0.00907905
0.00907852
0.00907787
0.00907709
0.00907614
0.00907499
0.00907362
0.00907199
0.00907007
0.00906784
0.00906527
0.00906235
0.00905902
0.00927248
0.00927595
0.00927899
0.00928166
0.00928399
0.00928599
0.00928769
0.00928912
0.00929032
0.00929131
0.00929212
0.0092928
0.00929335
0.0092938
0.00929416
0.00929446
0.0092947
0.0092949
0.00929506
0.00929519
0.00929529
0.00929537
0.00929544
0.00929549
0.00929554
0.00929557
0.00929559
0.00929561
0.00929562
0.00929563
0.00929563
0.00929562
0.00929561
0.00929559
0.00929557
0.00929554
0.00929549
0.00929544
0.00929537
0.00929529
0.00929519
0.00929506
0.0092949
0.0092947
0.00929446
0.00929416
0.0092938
0.00929335
0.0092928
0.00929212
0.00929131
0.00929032
0.00928912
0.00928769
0.00928599
0.00928399
0.00928166
0.00927899
0.00927595
0.00927248
0.00950893
0.00951257
0.00951574
0.00951854
0.00952098
0.00952307
0.00952484
0.00952634
0.00952759
0.00952862
0.00952948
0.00953018
0.00953076
0.00953123
0.00953161
0.00953192
0.00953218
0.00953238
0.00953255
0.00953268
0.00953279
0.00953288
0.00953295
0.00953301
0.00953305
0.00953309
0.00953311
0.00953313
0.00953314
0.00953315
0.00953315
0.00953314
0.00953313
0.00953311
0.00953309
0.00953305
0.00953301
0.00953295
0.00953288
0.00953279
0.00953268
0.00953255
0.00953238
0.00953218
0.00953192
0.00953161
0.00953123
0.00953076
0.00953018
0.00952948
0.00952862
0.00952759
0.00952634
0.00952484
0.00952307
0.00952098
0.00951854
0.00951574
0.00951257
0.00950893
0.00977231
0.00977614
0.00977947
0.00978241
0.00978497
0.00978716
0.00978903
0.0097906
0.00979191
0.009793
0.0097939
0.00979464
0.00979524
0.00979574
0.00979614
0.00979647
0.00979674
0.00979695
0.00979713
0.00979727
0.00979738
0.00979748
0.00979755
0.00979761
0.00979766
0.00979769
0.00979772
0.00979774
0.00979775
0.00979776
0.00979776
0.00979775
0.00979774
0.00979772
0.00979769
0.00979766
0.00979761
0.00979755
0.00979748
0.00979738
0.00979727
0.00979713
0.00979695
0.00979674
0.00979647
0.00979614
0.00979574
0.00979524
0.00979464
0.0097939
0.009793
0.00979191
0.0097906
0.00978903
0.00978716
0.00978497
0.00978241
0.00977947
0.00977614
0.00977231
0.0100675
0.0100716
0.0100751
0.0100782
0.0100809
0.0100832
0.0100852
0.0100869
0.0100882
0.0100894
0.0100903
0.0100911
0.0100918
0.0100923
0.0100927
0.0100931
0.0100933
0.0100936
0.0100937
0.0100939
0.010094
0.0100941
0.0100942
0.0100943
0.0100943
0.0100943
0.0100944
0.0100944
0.0100944
0.0100944
0.0100944
0.0100944
0.0100944
0.0100944
0.0100943
0.0100943
0.0100943
0.0100942
0.0100941
0.010094
0.0100939
0.0100937
0.0100936
0.0100933
0.0100931
0.0100927
0.0100923
0.0100918
0.0100911
0.0100903
0.0100894
0.0100882
0.0100869
0.0100852
0.0100832
0.0100809
0.0100782
0.0100751
0.0100716
0.0100675
0.0104009
0.0104052
0.0104089
0.0104122
0.0104151
0.0104175
0.0104196
0.0104214
0.0104228
0.0104241
0.0104251
0.0104259
0.0104266
0.0104271
0.0104276
0.010428
0.0104283
0.0104285
0.0104287
0.0104289
0.010429
0.0104291
0.0104292
0.0104292
0.0104293
0.0104293
0.0104294
0.0104294
0.0104294
0.0104294
0.0104294
0.0104294
0.0104294
0.0104294
0.0104293
0.0104293
0.0104292
0.0104292
0.0104291
0.010429
0.0104289
0.0104287
0.0104285
0.0104283
0.010428
0.0104276
0.0104271
0.0104266
0.0104259
0.0104251
0.0104241
0.0104228
0.0104214
0.0104196
0.0104175
0.0104151
0.0104122
0.0104089
0.0104052
0.0104009
0.0107803
0.0107849
0.0107889
0.0107924
0.0107955
0.0107981
0.0108004
0.0108023
0.0108038
0.0108051
0.0108062
0.0108071
0.0108078
0.0108084
0.0108089
0.0108093
0.0108096
0.0108099
0.0108101
0.0108103
0.0108104
0.0108105
0.0108106
0.0108107
0.0108107
0.0108108
0.0108108
0.0108108
0.0108109
0.0108109
0.0108109
0.0108109
0.0108108
0.0108108
0.0108108
0.0108107
0.0108107
0.0108106
0.0108105
0.0108104
0.0108103
0.0108101
0.0108099
0.0108096
0.0108093
0.0108089
0.0108084
0.0108078
0.0108071
0.0108062
0.0108051
0.0108038
0.0108023
0.0108004
0.0107981
0.0107955
0.0107924
0.0107889
0.0107849
0.0107803
0.0112165
0.0112215
0.0112258
0.0112296
0.0112329
0.0112357
0.0112381
0.0112401
0.0112418
0.0112432
0.0112444
0.0112454
0.0112462
0.0112468
0.0112473
0.0112477
0.0112481
0.0112484
0.0112486
0.0112488
0.0112489
0.0112491
0.0112492
0.0112492
0.0112493
0.0112493
0.0112494
0.0112494
0.0112494
0.0112494
0.0112494
0.0112494
0.0112494
0.0112494
0.0112493
0.0112493
0.0112492
0.0112492
0.0112491
0.0112489
0.0112488
0.0112486
0.0112484
0.0112481
0.0112477
0.0112473
0.0112468
0.0112462
0.0112454
0.0112444
0.0112432
0.0112418
0.0112401
0.0112381
0.0112357
0.0112329
0.0112296
0.0112258
0.0112215
0.0112165
0.0117235
0.0117289
0.0117336
0.0117377
0.0117413
0.0117444
0.0117471
0.0117493
0.0117511
0.0117526
0.0117539
0.011755
0.0117558
0.0117565
0.0117571
0.0117576
0.0117579
0.0117582
0.0117585
0.0117587
0.0117588
0.011759
0.0117591
0.0117592
0.0117592
0.0117593
0.0117593
0.0117593
0.0117594
0.0117594
0.0117594
0.0117594
0.0117593
0.0117593
0.0117593
0.0117592
0.0117592
0.0117591
0.011759
0.0117588
0.0117587
0.0117585
0.0117582
0.0117579
0.0117576
0.0117571
0.0117565
0.0117558
0.011755
0.0117539
0.0117526
0.0117511
0.0117493
0.0117471
0.0117444
0.0117413
0.0117377
0.0117336
0.0117289
0.0117235
0.0123208
0.0123268
0.0123319
0.0123365
0.0123404
0.0123438
0.0123467
0.0123492
0.0123512
0.0123529
0.0123543
0.0123555
0.0123564
0.0123572
0.0123578
0.0123583
0.0123587
0.0123591
0.0123594
0.0123596
0.0123598
0.0123599
0.01236
0.0123601
0.0123602
0.0123602
0.0123603
0.0123603
0.0123603
0.0123603
0.0123603
0.0123603
0.0123603
0.0123603
0.0123602
0.0123602
0.0123601
0.01236
0.0123599
0.0123598
0.0123596
0.0123594
0.0123591
0.0123587
0.0123583
0.0123578
0.0123572
0.0123564
0.0123555
0.0123543
0.0123529
0.0123512
0.0123492
0.0123467
0.0123438
0.0123404
0.0123365
0.0123319
0.0123268
0.0123208
0.0130358
0.0130424
0.0130481
0.0130532
0.0130577
0.0130615
0.0130647
0.0130674
0.0130697
0.0130716
0.0130732
0.0130745
0.0130755
0.0130764
0.0130771
0.0130777
0.0130781
0.0130785
0.0130788
0.0130791
0.0130793
0.0130794
0.0130796
0.0130797
0.0130798
0.0130798
0.0130799
0.0130799
0.0130799
0.0130799
0.0130799
0.0130799
0.0130799
0.0130799
0.0130798
0.0130798
0.0130797
0.0130796
0.0130794
0.0130793
0.0130791
0.0130788
0.0130785
0.0130781
0.0130777
0.0130771
0.0130764
0.0130755
0.0130745
0.0130732
0.0130716
0.0130697
0.0130674
0.0130647
0.0130615
0.0130577
0.0130532
0.0130481
0.0130424
0.0130358
0.0139078
0.0139153
0.0139218
0.0139276
0.0139327
0.013937
0.0139407
0.0139438
0.0139464
0.0139486
0.0139504
0.0139519
0.0139531
0.0139541
0.0139549
0.0139555
0.013956
0.0139565
0.0139568
0.0139571
0.0139573
0.0139575
0.0139577
0.0139578
0.0139579
0.013958
0.013958
0.013958
0.0139581
0.0139581
0.0139581
0.0139581
0.013958
0.013958
0.013958
0.0139579
0.0139578
0.0139577
0.0139575
0.0139573
0.0139571
0.0139568
0.0139565
0.013956
0.0139555
0.0139549
0.0139541
0.0139531
0.0139519
0.0139504
0.0139486
0.0139464
0.0139438
0.0139407
0.013937
0.0139327
0.0139276
0.0139218
0.0139153
0.0139078
0.0149952
0.0150039
0.0150115
0.0150183
0.0150242
0.0150292
0.0150336
0.0150372
0.0150402
0.0150427
0.0150448
0.0150465
0.015048
0.0150491
0.01505
0.0150508
0.0150514
0.0150519
0.0150523
0.0150527
0.0150529
0.0150532
0.0150533
0.0150535
0.0150536
0.0150537
0.0150537
0.0150538
0.0150538
0.0150538
0.0150538
0.0150538
0.0150538
0.0150537
0.0150537
0.0150536
0.0150535
0.0150533
0.0150532
0.0150529
0.0150527
0.0150523
0.0150519
0.0150514
0.0150508
0.01505
0.0150491
0.015048
0.0150465
0.0150448
0.0150427
0.0150402
0.0150372
0.0150336
0.0150292
0.0150242
0.0150183
0.0150115
0.0150039
0.0149952
0.0163849
0.0163952
0.0164044
0.0164124
0.0164195
0.0164256
0.0164307
0.0164351
0.0164387
0.0164417
0.0164442
0.0164463
0.016448
0.0164493
0.0164505
0.0164514
0.0164521
0.0164527
0.0164532
0.0164536
0.0164539
0.0164542
0.0164544
0.0164546
0.0164547
0.0164548
0.0164549
0.0164549
0.016455
0.016455
0.016455
0.016455
0.0164549
0.0164549
0.0164548
0.0164547
0.0164546
0.0164544
0.0164542
0.0164539
0.0164536
0.0164532
0.0164527
0.0164521
0.0164514
0.0164505
0.0164493
0.016448
0.0164463
0.0164442
0.0164417
0.0164387
0.0164351
0.0164307
0.0164256
0.0164195
0.0164124
0.0164044
0.0163952
0.0163849
0.0182041
0.0182167
0.0182279
0.0182379
0.0182465
0.018254
0.0182603
0.0182657
0.0182702
0.0182739
0.018277
0.0182795
0.0182816
0.0182833
0.0182847
0.0182858
0.0182867
0.0182875
0.0182881
0.0182886
0.018289
0.0182893
0.0182895
0.0182897
0.0182899
0.01829
0.0182901
0.0182902
0.0182902
0.0182903
0.0182903
0.0182902
0.0182902
0.0182901
0.01829
0.0182899
0.0182897
0.0182895
0.0182893
0.018289
0.0182886
0.0182881
0.0182875
0.0182867
0.0182858
0.0182847
0.0182833
0.0182816
0.0182795
0.018277
0.0182739
0.0182702
0.0182657
0.0182603
0.018254
0.0182465
0.0182379
0.0182279
0.0182167
0.0182041
0.0206289
0.0206448
0.0206589
0.0206714
0.0206823
0.0206918
0.0206998
0.0207065
0.0207122
0.0207169
0.0207208
0.020724
0.0207266
0.0207287
0.0207305
0.0207319
0.0207331
0.020734
0.0207348
0.0207354
0.0207359
0.0207363
0.0207366
0.0207369
0.0207371
0.0207372
0.0207374
0.0207375
0.0207375
0.0207375
0.0207375
0.0207375
0.0207375
0.0207374
0.0207372
0.0207371
0.0207369
0.0207366
0.0207363
0.0207359
0.0207354
0.0207348
0.020734
0.0207331
0.0207319
0.0207305
0.0207287
0.0207266
0.020724
0.0207208
0.0207169
0.0207122
0.0207065
0.0206998
0.0206918
0.0206823
0.0206714
0.0206589
0.0206448
0.0206289
0.023878
0.0238982
0.0239162
0.0239322
0.0239462
0.0239582
0.0239684
0.0239771
0.0239843
0.0239903
0.0239953
0.0239994
0.0240027
0.0240055
0.0240077
0.0240096
0.0240111
0.0240123
0.0240132
0.024014
0.0240147
0.0240152
0.0240156
0.0240159
0.0240162
0.0240164
0.0240166
0.0240167
0.0240167
0.0240168
0.0240168
0.0240167
0.0240167
0.0240166
0.0240164
0.0240162
0.0240159
0.0240156
0.0240152
0.0240147
0.024014
0.0240132
0.0240123
0.0240111
0.0240096
0.0240077
0.0240055
0.0240027
0.0239994
0.0239953
0.0239903
0.0239843
0.0239771
0.0239684
0.0239582
0.0239462
0.0239322
0.0239162
0.0238982
0.023878
0.0281758
0.0282014
0.0282243
0.0282447
0.0282625
0.0282779
0.0282909
0.0283019
0.0283111
0.0283188
0.0283251
0.0283303
0.0283346
0.0283381
0.028341
0.0283433
0.0283452
0.0283468
0.028348
0.028349
0.0283498
0.0283505
0.028351
0.0283515
0.0283518
0.0283521
0.0283523
0.0283524
0.0283525
0.0283525
0.0283525
0.0283525
0.0283524
0.0283523
0.0283521
0.0283518
0.0283515
0.028351
0.0283505
0.0283498
0.028349
0.028348
0.0283468
0.0283452
0.0283433
0.028341
0.0283381
0.0283346
0.0283303
0.0283251
0.0283188
0.0283111
0.0283019
0.0282909
0.0282779
0.0282625
0.0282447
0.0282243
0.0282014
0.0281758
0.0336856
0.0337176
0.0337462
0.0337717
0.0337939
0.033813
0.0338293
0.033843
0.0338545
0.0338641
0.033872
0.0338785
0.0338839
0.0338883
0.0338919
0.0338948
0.0338972
0.0338991
0.0339007
0.0339019
0.033903
0.0339038
0.0339045
0.033905
0.0339054
0.0339057
0.033906
0.0339062
0.0339063
0.0339063
0.0339063
0.0339063
0.0339062
0.033906
0.0339057
0.0339054
0.033905
0.0339045
0.0339038
0.033903
0.0339019
0.0339007
0.0338991
0.0338972
0.0338948
0.0338919
0.0338883
0.0338839
0.0338785
0.033872
0.0338641
0.0338545
0.033843
0.0338293
0.033813
0.0337939
0.0337717
0.0337462
0.0337176
0.0336856
0.0404428
0.0404816
0.0405163
0.0405471
0.0405739
0.040597
0.0406167
0.0406333
0.0406473
0.0406588
0.0406684
0.0406763
0.0406828
0.0406882
0.0406925
0.040696
0.0406989
0.0407013
0.0407032
0.0407047
0.040706
0.040707
0.0407078
0.0407085
0.040709
0.0407094
0.0407097
0.0407099
0.04071
0.0407101
0.0407101
0.04071
0.0407099
0.0407097
0.0407094
0.040709
0.0407085
0.0407078
0.040707
0.040706
0.0407047
0.0407032
0.0407013
0.0406989
0.040696
0.0406925
0.0406882
0.0406828
0.0406763
0.0406684
0.0406588
0.0406473
0.0406333
0.0406167
0.040597
0.0405739
0.0405471
0.0405163
0.0404816
0.0404428
0.0483354
0.048381
0.0484216
0.0484576
0.0484889
0.0485159
0.0485389
0.0485583
0.0485746
0.0485882
0.0485994
0.0486086
0.0486163
0.0486225
0.0486276
0.0486317
0.0486351
0.0486379
0.0486401
0.048642
0.0486434
0.0486446
0.0486456
0.0486463
0.0486469
0.0486474
0.0486478
0.048648
0.0486482
0.0486483
0.0486483
0.0486482
0.048648
0.0486478
0.0486474
0.0486469
0.0486463
0.0486456
0.0486446
0.0486434
0.048642
0.0486401
0.0486379
0.0486351
0.0486317
0.0486276
0.0486225
0.0486163
0.0486086
0.0485994
0.0485882
0.0485746
0.0485583
0.0485389
0.0485159
0.0484889
0.0484576
0.0484216
0.048381
0.0483354
0.0571508
0.0572028
0.0572488
0.0572895
0.0573251
0.0573556
0.0573817
0.0574037
0.0574221
0.0574375
0.0574503
0.0574608
0.0574694
0.0574765
0.0574823
0.0574871
0.0574909
0.0574941
0.0574966
0.0574987
0.0575004
0.0575018
0.0575029
0.0575037
0.0575044
0.057505
0.0575054
0.0575057
0.0575058
0.0575059
0.0575059
0.0575058
0.0575057
0.0575054
0.057505
0.0575044
0.0575037
0.0575029
0.0575018
0.0575004
0.0574987
0.0574966
0.0574941
0.0574909
0.0574871
0.0574823
0.0574765
0.0574694
0.0574608
0.0574503
0.0574375
0.0574221
0.0574037
0.0573817
0.0573556
0.0573251
0.0572895
0.0572488
0.0572028
0.0571508
0.0666541
0.0667118
0.0667629
0.0668079
0.0668472
0.066881
0.0669098
0.0669342
0.0669546
0.0669717
0.0669858
0.0669975
0.0670071
0.067015
0.0670215
0.0670268
0.0670311
0.0670346
0.0670374
0.0670398
0.0670416
0.0670432
0.0670444
0.0670454
0.0670461
0.0670468
0.0670472
0.0670475
0.0670477
0.0670478
0.0670478
0.0670477
0.0670475
0.0670472
0.0670468
0.0670461
0.0670454
0.0670444
0.0670432
0.0670416
0.0670398
0.0670374
0.0670346
0.0670311
0.0670268
0.0670215
0.067015
0.0670071
0.0669975
0.0669858
0.0669717
0.0669546
0.0669342
0.0669098
0.066881
0.0668472
0.0668079
0.0667629
0.0667118
0.0666541
0.0766485
0.0767117
0.0767673
0.0768164
0.0768591
0.0768959
0.0769272
0.0769538
0.0769761
0.0769947
0.0770101
0.0770229
0.0770334
0.0770421
0.0770491
0.0770549
0.0770597
0.0770635
0.0770667
0.0770692
0.0770713
0.077073
0.0770743
0.0770754
0.0770763
0.0770769
0.0770774
0.0770778
0.077078
0.0770781
0.0770781
0.077078
0.0770778
0.0770774
0.0770769
0.0770763
0.0770754
0.0770743
0.077073
0.0770713
0.0770692
0.0770667
0.0770635
0.0770597
0.0770549
0.0770491
0.0770421
0.0770334
0.0770229
0.0770101
0.0769947
0.0769761
0.0769538
0.0769272
0.0768959
0.0768591
0.0768164
0.0767673
0.0767117
0.0766485
0.0869969
0.0870651
0.087125
0.0871778
0.0872238
0.0872634
0.0872972
0.0873258
0.0873498
0.0873699
0.0873866
0.0874004
0.0874118
0.0874212
0.0874289
0.0874352
0.0874403
0.0874445
0.087448
0.0874507
0.087453
0.0874548
0.0874563
0.0874575
0.0874584
0.0874592
0.0874597
0.0874601
0.0874604
0.0874605
0.0874605
0.0874604
0.0874601
0.0874597
0.0874592
0.0874584
0.0874575
0.0874563
0.0874548
0.087453
0.0874507
0.087448
0.0874445
0.0874403
0.0874352
0.0874289
0.0874212
0.0874118
0.0874004
0.0873866
0.0873699
0.0873498
0.0873258
0.0872972
0.0872634
0.0872238
0.0871778
0.087125
0.0870651
0.0869969
0.0976132
0.0976862
0.0977503
0.0978067
0.0978558
0.0978982
0.0979343
0.0979649
0.0979907
0.0980122
0.0980301
0.098045
0.0980573
0.0980673
0.0980756
0.0980824
0.098088
0.0980925
0.0980962
0.0980992
0.0981017
0.0981037
0.0981053
0.0981066
0.0981076
0.0981084
0.098109
0.0981094
0.0981097
0.0981098
0.0981098
0.0981097
0.0981094
0.098109
0.0981084
0.0981076
0.0981066
0.0981053
0.0981037
0.0981017
0.0980992
0.0980962
0.0980925
0.098088
0.0980824
0.0980756
0.0980673
0.0980573
0.098045
0.0980301
0.0980122
0.0979907
0.0979649
0.0979343
0.0978982
0.0978558
0.0978067
0.0977503
0.0976862
0.0976132
0.108446
0.108524
0.108592
0.108652
0.108704
0.108749
0.108788
0.10882
0.108848
0.108871
0.10889
0.108906
0.108919
0.10893
0.108939
0.108946
0.108952
0.108957
0.108961
0.108964
0.108967
0.108969
0.108971
0.108972
0.108973
0.108974
0.108975
0.108975
0.108975
0.108975
0.108975
0.108975
0.108975
0.108975
0.108974
0.108973
0.108972
0.108971
0.108969
0.108967
0.108964
0.108961
0.108957
0.108952
0.108946
0.108939
0.10893
0.108919
0.108906
0.10889
0.108871
0.108848
0.10882
0.108788
0.108749
0.108704
0.108652
0.108592
0.108524
0.108446
0.119465
0.119547
0.119619
0.119683
0.119738
0.119785
0.119826
0.119861
0.11989
0.119914
0.119935
0.119952
0.119966