/*--------------------------------*- C++ -*----------------------------------*\
| =========                 |                                                 |
| \\      /  F ield         | foam-extend: Open Source CFD                    |
|  \\    /   O peration     | Version:     4.0                                |
|   \\  /    A nd           | Web:         http://www.foam-extend.org         |
|    \\/     M anipulation  |                                                 |
\*---------------------------------------------------------------------------*/
FoamFile
{
    version     2.0;
    format      ascii;
    class       volScalarField;
    location    "1280";
    object      psiE;
}
// * * * * * * * * * * * * * * * * * * * * * * * * * * * * * * * * * * * * * //

dimensions      [0 0 0 0 0 0 0];

internalField   nonuniform List<scalar> 
6960
(
0.350009
0.35002
0.350033
0.350045
0.350056
0.350065
0.350073
0.35008
0.350085
0.35009
0.350094
0.350097
0.3501
0.350102
0.350104
0.350106
0.350107
0.350108
0.350109
0.350109
0.35011
0.350111
0.350111
0.350111
0.350111
0.350112
0.350112
0.350112
0.350112
0.350112
0.350112
0.350112
0.350112
0.350112
0.350112
0.350111
0.350111
0.350111
0.350111
0.35011
0.350109
0.350109
0.350108
0.350107
0.350106
0.350104
0.350102
0.3501
0.350097
0.350094
0.35009
0.350085
0.35008
0.350073
0.350065
0.350056
0.350045
0.350033
0.35002
0.350009
0.897172
0.897217
0.897269
0.897317
0.89736
0.897398
0.89743
0.897457
0.89748
0.897499
0.897515
0.897528
0.897539
0.897548
0.897556
0.897562
0.897567
0.897571
0.897574
0.897577
0.89758
0.897581
0.897583
0.897584
0.897585
0.897586
0.897587
0.897587
0.897587
0.897587
0.897587
0.897587
0.897587
0.897587
0.897586
0.897585
0.897584
0.897583
0.897581
0.89758
0.897577
0.897574
0.897571
0.897567
0.897562
0.897556
0.897548
0.897539
0.897528
0.897515
0.897499
0.89748
0.897457
0.89743
0.897398
0.89736
0.897317
0.897269
0.897217
0.897172
1.4082
1.40829
1.40839
1.40848
1.40857
1.40864
1.4087
1.40876
1.4088
1.40884
1.40887
1.40889
1.40891
1.40893
1.40895
1.40896
1.40897
1.40898
1.40898
1.40899
1.40899
1.409
1.409
1.409
1.409
1.409
1.40901
1.40901
1.40901
1.40901
1.40901
1.40901
1.40901
1.40901
1.409
1.409
1.409
1.409
1.409
1.40899
1.40899
1.40898
1.40898
1.40897
1.40896
1.40895
1.40893
1.40891
1.40889
1.40887
1.40884
1.4088
1.40876
1.4087
1.40864
1.40857
1.40848
1.40839
1.40829
1.4082
1.91392
1.91405
1.9142
1.91435
1.91448
1.91459
1.91469
1.91477
1.91484
1.9149
1.91494
1.91498
1.91502
1.91504
1.91507
1.91508
1.9151
1.91511
1.91512
1.91513
1.91514
1.91514
1.91515
1.91515
1.91515
1.91516
1.91516
1.91516
1.91516
1.91516
1.91516
1.91516
1.91516
1.91516
1.91516
1.91515
1.91515
1.91515
1.91514
1.91514
1.91513
1.91512
1.91511
1.9151
1.91508
1.91507
1.91504
1.91502
1.91498
1.91494
1.9149
1.91484
1.91477
1.91469
1.91459
1.91448
1.91435
1.9142
1.91405
1.91392
2.42461
2.42479
2.42501
2.42521
2.42539
2.42554
2.42567
2.42578
2.42588
2.42596
2.42602
2.42608
2.42612
2.42616
2.42619
2.42621
2.42624
2.42625
2.42627
2.42628
2.42629
2.42629
2.4263
2.4263
2.42631
2.42631
2.42631
2.42632
2.42632
2.42632
2.42632
2.42632
2.42632
2.42631
2.42631
2.42631
2.4263
2.4263
2.42629
2.42629
2.42628
2.42627
2.42625
2.42624
2.42621
2.42619
2.42616
2.42612
2.42608
2.42602
2.42596
2.42588
2.42578
2.42567
2.42554
2.42539
2.42521
2.42501
2.42479
2.42461
2.94381
2.94405
2.94432
2.94457
2.9448
2.945
2.94517
2.94531
2.94543
2.94553
2.94562
2.94569
2.94574
2.94579
2.94583
2.94586
2.94589
2.94591
2.94593
2.94594
2.94595
2.94596
2.94597
2.94598
2.94598
2.94599
2.94599
2.94599
2.94599
2.94599
2.94599
2.94599
2.94599
2.94599
2.94599
2.94598
2.94598
2.94597
2.94596
2.94595
2.94594
2.94593
2.94591
2.94589
2.94586
2.94583
2.94579
2.94574
2.94569
2.94562
2.94553
2.94543
2.94531
2.94517
2.945
2.9448
2.94457
2.94432
2.94405
2.94381
3.47268
3.47297
3.4733
3.47361
3.47389
3.47413
3.47434
3.47452
3.47467
3.47479
3.47489
3.47498
3.47505
3.4751
3.47515
3.47519
3.47522
3.47525
3.47527
3.47529
3.4753
3.47531
3.47532
3.47533
3.47534
3.47534
3.47534
3.47535
3.47535
3.47535
3.47535
3.47535
3.47535
3.47534
3.47534
3.47534
3.47533
3.47532
3.47531
3.4753
3.47529
3.47527
3.47525
3.47522
3.47519
3.47515
3.4751
3.47505
3.47498
3.47489
3.47479
3.47467
3.47452
3.47434
3.47413
3.47389
3.47361
3.4733
3.47297
3.47268
4.01156
4.0119
4.01229
4.01266
4.01299
4.01328
4.01352
4.01373
4.01391
4.01405
4.01417
4.01427
4.01436
4.01442
4.01448
4.01453
4.01456
4.0146
4.01462
4.01464
4.01466
4.01467
4.01468
4.01469
4.0147
4.01471
4.01471
4.01471
4.01472
4.01472
4.01472
4.01472
4.01471
4.01471
4.01471
4.0147
4.01469
4.01468
4.01467
4.01466
4.01464
4.01462
4.0146
4.01456
4.01453
4.01448
4.01442
4.01436
4.01427
4.01417
4.01405
4.01391
4.01373
4.01352
4.01328
4.01299
4.01266
4.01229
4.0119
4.01156
4.56048
4.56087
4.56132
4.56175
4.56213
4.56246
4.56275
4.56299
4.56319
4.56336
4.5635
4.56361
4.56371
4.56379
4.56385
4.56391
4.56395
4.56398
4.56401
4.56404
4.56406
4.56407
4.56409
4.5641
4.56411
4.56411
4.56412
4.56412
4.56412
4.56412
4.56412
4.56412
4.56412
4.56412
4.56411
4.56411
4.5641
4.56409
4.56407
4.56406
4.56404
4.56401
4.56398
4.56395
4.56391
4.56385
4.56379
4.56371
4.56361
4.5635
4.56336
4.56319
4.56299
4.56275
4.56246
4.56213
4.56175
4.56132
4.56087
4.56048
5.11934
5.11978
5.1203
5.12078
5.12121
5.12159
5.12191
5.12219
5.12242
5.12261
5.12277
5.1229
5.12301
5.1231
5.12317
5.12323
5.12328
5.12332
5.12335
5.12338
5.1234
5.12342
5.12344
5.12345
5.12346
5.12347
5.12347
5.12348
5.12348
5.12348
5.12348
5.12348
5.12348
5.12347
5.12347
5.12346
5.12345
5.12344
5.12342
5.1234
5.12338
5.12335
5.12332
5.12328
5.12323
5.12317
5.1231
5.12301
5.1229
5.12277
5.12261
5.12242
5.12219
5.12191
5.12159
5.12121
5.12078
5.1203
5.11978
5.11934
5.68799
5.68848
5.68906
5.6896
5.69008
5.69051
5.69087
5.69117
5.69143
5.69164
5.69182
5.69197
5.69209
5.69219
5.69227
5.69234
5.6924
5.69244
5.69248
5.69251
5.69253
5.69256
5.69257
5.69259
5.6926
5.6926
5.69261
5.69262
5.69262
5.69262
5.69262
5.69262
5.69262
5.69261
5.6926
5.6926
5.69259
5.69257
5.69256
5.69253
5.69251
5.69248
5.69244
5.6924
5.69234
5.69227
5.69219
5.69209
5.69197
5.69182
5.69164
5.69143
5.69117
5.69087
5.69051
5.69008
5.6896
5.68906
5.68848
5.68799
6.26621
6.26675
6.26739
6.26799
6.26852
6.26899
6.26939
6.26973
6.27001
6.27025
6.27045
6.27061
6.27074
6.27085
6.27095
6.27102
6.27108
6.27113
6.27117
6.27121
6.27124
6.27126
6.27128
6.27129
6.2713
6.27131
6.27132
6.27133
6.27133
6.27133
6.27133
6.27133
6.27133
6.27132
6.27131
6.2713
6.27129
6.27128
6.27126
6.27124
6.27121
6.27117
6.27113
6.27108
6.27102
6.27095
6.27085
6.27074
6.27061
6.27045
6.27025
6.27001
6.26973
6.26939
6.26899
6.26852
6.26799
6.26739
6.26675
6.26621
6.85373
6.85433
6.85502
6.85568
6.85627
6.85678
6.85722
6.85759
6.8579
6.85816
6.85837
6.85855
6.8587
6.85882
6.85892
6.85901
6.85907
6.85913
6.85917
6.85921
6.85924
6.85927
6.85929
6.8593
6.85932
6.85933
6.85933
6.85934
6.85934
6.85934
6.85934
6.85934
6.85934
6.85933
6.85933
6.85932
6.8593
6.85929
6.85927
6.85924
6.85921
6.85917
6.85913
6.85907
6.85901
6.85892
6.85882
6.8587
6.85855
6.85837
6.85816
6.8579
6.85759
6.85722
6.85678
6.85627
6.85568
6.85502
6.85433
6.85373
7.45024
7.45089
7.45164
7.45236
7.453
7.45355
7.45403
7.45443
7.45477
7.45505
7.45528
7.45548
7.45564
7.45577
7.45588
7.45597
7.45604
7.4561
7.45615
7.45619
7.45623
7.45625
7.45628
7.45629
7.45631
7.45632
7.45633
7.45633
7.45634
7.45634
7.45634
7.45634
7.45633
7.45633
7.45632
7.45631
7.45629
7.45628
7.45625
7.45623
7.45619
7.45615
7.4561
7.45604
7.45597
7.45588
7.45577
7.45564
7.45548
7.45528
7.45505
7.45477
7.45443
7.45403
7.45355
7.453
7.45236
7.45164
7.45089
7.45024
8.05535
8.05605
8.05686
8.05763
8.05832
8.05892
8.05943
8.05987
8.06023
8.06054
8.06079
8.061
8.06118
8.06132
8.06144
8.06153
8.06161
8.06168
8.06173
8.06177
8.06181
8.06184
8.06186
8.06188
8.0619
8.06191
8.06192
8.06193
8.06193
8.06193
8.06193
8.06193
8.06193
8.06192
8.06191
8.0619
8.06188
8.06186
8.06184
8.06181
8.06177
8.06173
8.06168
8.06161
8.06153
8.06144
8.06132
8.06118
8.061
8.06079
8.06054
8.06023
8.05987
8.05943
8.05892
8.05832
8.05763
8.05686
8.05605
8.05535
8.66861
8.66935
8.67023
8.67105
8.67179
8.67243
8.67298
8.67345
8.67384
8.67417
8.67444
8.67467
8.67485
8.67501
8.67513
8.67524
8.67532
8.67539
8.67545
8.6755
8.67553
8.67557
8.67559
8.67561
8.67563
8.67564
8.67565
8.67566
8.67566
8.67566
8.67566
8.67566
8.67566
8.67565
8.67564
8.67563
8.67561
8.67559
8.67557
8.67553
8.6755
8.67545
8.67539
8.67532
8.67524
8.67513
8.67501
8.67485
8.67467
8.67444
8.67417
8.67384
8.67345
8.67298
8.67243
8.67179
8.67105
8.67023
8.66935
8.66861
9.28949
9.29028
9.29121
9.29209
9.29288
9.29356
9.29415
9.29464
9.29506
9.29541
9.2957
9.29594
9.29614
9.2963
9.29644
9.29655
9.29664
9.29671
9.29677
9.29683
9.29687
9.2969
9.29693
9.29695
9.29697
9.29698
9.29699
9.297
9.297
9.29701
9.29701
9.297
9.297
9.29699
9.29698
9.29697
9.29695
9.29693
9.2969
9.29687
9.29683
9.29677
9.29671
9.29664
9.29655
9.29644
9.2963
9.29614
9.29594
9.2957
9.29541
9.29506
9.29464
9.29415
9.29356
9.29288
9.29209
9.29121
9.29028
9.28949
9.91736
9.9182
9.91918
9.92012
9.92095
9.92168
9.9223
9.92283
9.92327
9.92364
9.92395
9.9242
9.92441
9.92459
9.92473
9.92485
9.92494
9.92502
9.92509
9.92514
9.92519
9.92522
9.92525
9.92527
9.92529
9.92531
9.92532
9.92533
9.92533
9.92533
9.92533
9.92533
9.92533
9.92532
9.92531
9.92529
9.92527
9.92525
9.92522
9.92519
9.92514
9.92509
9.92502
9.92494
9.92485
9.92473
9.92459
9.92441
9.9242
9.92395
9.92364
9.92327
9.92283
9.9223
9.92168
9.92095
9.92012
9.91918
9.9182
9.91736
10.5515
10.5524
10.5534
10.5544
10.5553
10.5561
10.5567
10.5573
10.5578
10.5581
10.5585
10.5587
10.559
10.5591
10.5593
10.5594
10.5595
10.5596
10.5597
10.5597
10.5598
10.5598
10.5598
10.5599
10.5599
10.5599
10.5599
10.5599
10.5599
10.5599
10.5599
10.5599
10.5599
10.5599
10.5599
10.5599
10.5599
10.5598
10.5598
10.5598
10.5597
10.5597
10.5596
10.5595
10.5594
10.5593
10.5591
10.559
10.5587
10.5585
10.5581
10.5578
10.5573
10.5567
10.5561
10.5553
10.5544
10.5534
10.5524
10.5515
11.1911
11.1921
11.1931
11.1942
11.1951
11.1959
11.1966
11.1972
11.1977
11.1981
11.1984
11.1987
11.1989
11.1991
11.1993
11.1994
11.1995
11.1996
11.1997
11.1997
11.1998
11.1998
11.1999
11.1999
11.1999
11.1999
11.1999
11.2
11.2
11.2
11.2
11.2
11.2
11.1999
11.1999
11.1999
11.1999
11.1999
11.1998
11.1998
11.1997
11.1997
11.1996
11.1995
11.1994
11.1993
11.1991
11.1989
11.1987
11.1984
11.1981
11.1977
11.1972
11.1966
11.1959
11.1951
11.1942
11.1931
11.1921
11.1911
11.8352
11.8362
11.8373
11.8384
11.8394
11.8402
11.8409
11.8416
11.8421
11.8425
11.8429
11.8432
11.8434
11.8436
11.8438
11.8439
11.844
11.8441
11.8442
11.8442
11.8443
11.8443
11.8444
11.8444
11.8444
11.8444
11.8445
11.8445
11.8445
11.8445
11.8445
11.8445
11.8445
11.8445
11.8444
11.8444
11.8444
11.8444
11.8443
11.8443
11.8442
11.8442
11.8441
11.844
11.8439
11.8438
11.8436
11.8434
11.8432
11.8429
11.8425
11.8421
11.8416
11.8409
11.8402
11.8394
11.8384
11.8373
11.8362
11.8352
12.4827
12.4837
12.4849
12.486
12.4871
12.4879
12.4887
12.4893
12.4898
12.4903
12.4907
12.491
12.4912
12.4914
12.4916
12.4918
12.4919
12.492
12.492
12.4921
12.4922
12.4922
12.4922
12.4923
12.4923
12.4923
12.4923
12.4923
12.4923
12.4923
12.4923
12.4923
12.4923
12.4923
12.4923
12.4923
12.4923
12.4922
12.4922
12.4922
12.4921
12.492
12.492
12.4919
12.4918
12.4916
12.4914
12.4912
12.491
12.4907
12.4903
12.4898
12.4893
12.4887
12.4879
12.4871
12.486
12.4849
12.4837
12.4827
13.1323
13.1334
13.1346
13.1358
13.1368
13.1377
13.1385
13.1392
13.1397
13.1402
13.1406
13.1409
13.1412
13.1414
13.1416
13.1417
13.1418
13.1419
13.142
13.1421
13.1421
13.1422
13.1422
13.1422
13.1423
13.1423
13.1423
13.1423
13.1423
13.1423
13.1423
13.1423
13.1423
13.1423
13.1423
13.1423
13.1422
13.1422
13.1422
13.1421
13.1421
13.142
13.1419
13.1418
13.1417
13.1416
13.1414
13.1412
13.1409
13.1406
13.1402
13.1397
13.1392
13.1385
13.1377
13.1368
13.1358
13.1346
13.1334
13.1323
13.7826
13.7837
13.785
13.7862
13.7873
13.7882
13.789
13.7897
13.7902
13.7907
13.7911
13.7914
13.7917
13.7919
13.7921
13.7923
13.7924
13.7925
13.7926
13.7927
13.7927
13.7928
13.7928
13.7928
13.7929
13.7929
13.7929
13.7929
13.7929
13.7929
13.7929
13.7929
13.7929
13.7929
13.7929
13.7929
13.7928
13.7928
13.7928
13.7927
13.7927
13.7926
13.7925
13.7924
13.7923
13.7921
13.7919
13.7917
13.7914
13.7911
13.7907
13.7902
13.7897
13.789
13.7882
13.7873
13.7862
13.785
13.7837
13.7826
14.4319
14.433
14.4343
14.4355
14.4366
14.4376
14.4384
14.4391
14.4397
14.4402
14.4406
14.4409
14.4412
14.4415
14.4416
14.4418
14.4419
14.442
14.4421
14.4422
14.4423
14.4423
14.4423
14.4424
14.4424
14.4424
14.4424
14.4425
14.4425
14.4425
14.4425
14.4425
14.4425
14.4424
14.4424
14.4424
14.4424
14.4423
14.4423
14.4423
14.4422
14.4421
14.442
14.4419
14.4418
14.4416
14.4415
14.4412
14.4409
14.4406
14.4402
14.4397
14.4391
14.4384
14.4376
14.4366
14.4355
14.4343
14.433
14.4319
15.0782
15.0793
15.0807
15.0819
15.0831
15.084
15.0849
15.0856
15.0862
15.0867
15.0871
15.0875
15.0877
15.088
15.0882
15.0883
15.0885
15.0886
15.0887
15.0887
15.0888
15.0888
15.0889
15.0889
15.0889
15.089
15.089
15.089
15.089
15.089
15.089
15.089
15.089
15.089
15.089
15.0889
15.0889
15.0889
15.0888
15.0888
15.0887
15.0887
15.0886
15.0885
15.0883
15.0882
15.088
15.0877
15.0875
15.0871
15.0867
15.0862
15.0856
15.0849
15.084
15.0831
15.0819
15.0807
15.0793
15.0782
15.7193
15.7205
15.7218
15.7231
15.7243
15.7252
15.7261
15.7268
15.7274
15.7279
15.7284
15.7287
15.729
15.7292
15.7294
15.7296
15.7297
15.7299
15.7299
15.73
15.7301
15.7301
15.7302
15.7302
15.7302
15.7303
15.7303
15.7303
15.7303
15.7303
15.7303
15.7303
15.7303
15.7303
15.7303
15.7302
15.7302
15.7302
15.7301
15.7301
15.73
15.7299
15.7299
15.7297
15.7296
15.7294
15.7292
15.729
15.7287
15.7284
15.7279
15.7274
15.7268
15.7261
15.7252
15.7243
15.7231
15.7218
15.7205
15.7193
16.3526
16.3538
16.3552
16.3565
16.3576
16.3586
16.3595
16.3602
16.3608
16.3613
16.3617
16.3621
16.3624
16.3626
16.3628
16.363
16.3631
16.3633
16.3633
16.3634
16.3635
16.3635
16.3636
16.3636
16.3636
16.3637
16.3637
16.3637
16.3637
16.3637
16.3637
16.3637
16.3637
16.3637
16.3637
16.3636
16.3636
16.3636
16.3635
16.3635
16.3634
16.3633
16.3633
16.3631
16.363
16.3628
16.3626
16.3624
16.3621
16.3617
16.3613
16.3608
16.3602
16.3595
16.3586
16.3576
16.3565
16.3552
16.3538
16.3526
16.9751
16.9763
16.9776
16.9789
16.9801
16.9811
16.9819
16.9827
16.9833
16.9838
16.9842
16.9846
16.9849
16.9851
16.9853
16.9855
16.9856
16.9857
16.9858
16.9859
16.986
16.986
16.9861
16.9861
16.9861
16.9861
16.9862
16.9862
16.9862
16.9862
16.9862
16.9862
16.9862
16.9862
16.9861
16.9861
16.9861
16.9861
16.986
16.986
16.9859
16.9858
16.9857
16.9856
16.9855
16.9853
16.9851
16.9849
16.9846
16.9842
16.9838
16.9833
16.9827
16.9819
16.9811
16.9801
16.9789
16.9776
16.9763
16.9751
17.5831
17.5843
17.5856
17.5869
17.5881
17.5891
17.5899
17.5906
17.5912
17.5918
17.5922
17.5925
17.5928
17.5931
17.5933
17.5934
17.5936
17.5937
17.5938
17.5939
17.5939
17.594
17.594
17.5941
17.5941
17.5941
17.5941
17.5941
17.5941
17.5941
17.5941
17.5941
17.5941
17.5941
17.5941
17.5941
17.5941
17.594
17.594
17.5939
17.5939
17.5938
17.5937
17.5936
17.5934
17.5933
17.5931
17.5928
17.5925
17.5922
17.5918
17.5912
17.5906
17.5899
17.5891
17.5881
17.5869
17.5856
17.5843
17.5831
18.1725
18.1736
18.175
18.1762
18.1773
18.1783
18.1792
18.1799
18.1805
18.181
18.1814
18.1817
18.182
18.1823
18.1825
18.1826
18.1828
18.1829
18.183
18.1831
18.1831
18.1832
18.1832
18.1832
18.1833
18.1833
18.1833
18.1833
18.1833
18.1833
18.1833
18.1833
18.1833
18.1833
18.1833
18.1833
18.1832
18.1832
18.1832
18.1831
18.1831
18.183
18.1829
18.1828
18.1826
18.1825
18.1823
18.182
18.1817
18.1814
18.181
18.1805
18.1799
18.1792
18.1783
18.1773
18.1762
18.175
18.1736
18.1725
18.7381
18.7393
18.7406
18.7418
18.7429
18.7438
18.7446
18.7453
18.7459
18.7464
18.7468
18.7471
18.7474
18.7477
18.7479
18.748
18.7481
18.7483
18.7483
18.7484
18.7485
18.7485
18.7486
18.7486
18.7486
18.7487
18.7487
18.7487
18.7487
18.7487
18.7487
18.7487
18.7487
18.7487
18.7487
18.7486
18.7486
18.7486
18.7485
18.7485
18.7484
18.7483
18.7483
18.7481
18.748
18.7479
18.7477
18.7474
18.7471
18.7468
18.7464
18.7459
18.7453
18.7446
18.7438
18.7429
18.7418
18.7406
18.7393
18.7381
19.2741
19.2752
19.2764
19.2776
19.2786
19.2795
19.2803
19.281
19.2815
19.282
19.2824
19.2827
19.283
19.2832
19.2834
19.2835
19.2837
19.2838
19.2839
19.2839
19.284
19.284
19.2841
19.2841
19.2841
19.2842
19.2842
19.2842
19.2842
19.2842
19.2842
19.2842
19.2842
19.2842
19.2842
19.2841
19.2841
19.2841
19.284
19.284
19.2839
19.2839
19.2838
19.2837
19.2835
19.2834
19.2832
19.283
19.2827
19.2824
19.282
19.2815
19.281
19.2803
19.2795
19.2786
19.2776
19.2764
19.2752
19.2741
19.7734
19.7744
19.7755
19.7766
19.7776
19.7784
19.7791
19.7797
19.7802
19.7807
19.781
19.7813
19.7816
19.7818
19.782
19.7821
19.7822
19.7823
19.7824
19.7825
19.7826
19.7826
19.7826
19.7827
19.7827
19.7827
19.7827
19.7827
19.7828
19.7828
19.7828
19.7828
19.7827
19.7827
19.7827
19.7827
19.7827
19.7826
19.7826
19.7826
19.7825
19.7824
19.7823
19.7822
19.7821
19.782
19.7818
19.7816
19.7813
19.781
19.7807
19.7802
19.7797
19.7791
19.7784
19.7776
19.7766
19.7755
19.7744
19.7734
20.2279
20.2288
20.2299
20.2308
20.2317
20.2325
20.2331
20.2337
20.2341
20.2345
20.2349
20.2351
20.2354
20.2356
20.2357
20.2359
20.236
20.2361
20.2361
20.2362
20.2363
20.2363
20.2363
20.2364
20.2364
20.2364
20.2364
20.2364
20.2364
20.2364
20.2364
20.2364
20.2364
20.2364
20.2364
20.2364
20.2364
20.2363
20.2363
20.2363
20.2362
20.2361
20.2361
20.236
20.2359
20.2357
20.2356
20.2354
20.2351
20.2349
20.2345
20.2341
20.2337
20.2331
20.2325
20.2317
20.2308
20.2299
20.2288
20.2279
20.63
20.6308
20.6317
20.6325
20.6332
20.6339
20.6345
20.6349
20.6353
20.6357
20.636
20.6362
20.6364
20.6366
20.6367
20.6369
20.637
20.637
20.6371
20.6372
20.6372
20.6373
20.6373
20.6373
20.6373
20.6374
20.6374
20.6374
20.6374
20.6374
20.6374
20.6374
20.6374
20.6374
20.6374
20.6373
20.6373
20.6373
20.6373
20.6372
20.6372
20.6371
20.637
20.637
20.6369
20.6367
20.6366
20.6364
20.6362
20.636
20.6357
20.6353
20.6349
20.6345
20.6339
20.6332
20.6325
20.6317
20.6308
20.63
20.9735
20.9741
20.9749
20.9756
20.9762
20.9767
20.9772
20.9776
20.9779
20.9782
20.9785
20.9787
20.9788
20.979
20.9791
20.9792
20.9793
20.9794
20.9794
20.9795
20.9795
20.9796
20.9796
20.9796
20.9796
20.9797
20.9797
20.9797
20.9797
20.9797
20.9797
20.9797
20.9797
20.9797
20.9797
20.9796
20.9796
20.9796
20.9796
20.9795
20.9795
20.9794
20.9794
20.9793
20.9792
20.9791
20.979
20.9788
20.9787
20.9785
20.9782
20.9779
20.9776
20.9772
20.9767
20.9762
20.9756
20.9749
20.9741
20.9735
21.2568
21.2572
21.2578
21.2583
21.2588
21.2593
21.2596
21.2599
21.2602
21.2604
21.2606
21.2608
21.261
21.2611
21.2612
21.2613
21.2613
21.2614
21.2614
21.2615
21.2615
21.2616
21.2616
21.2616
21.2616
21.2616
21.2617
21.2617
21.2617
21.2617
21.2617
21.2617
21.2617
21.2617
21.2616
21.2616
21.2616
21.2616
21.2616
21.2615
21.2615
21.2614
21.2614
21.2613
21.2613
21.2612
21.2611
21.261
21.2608
21.2606
21.2604
21.2602
21.2599
21.2596
21.2593
21.2588
21.2583
21.2578
21.2572
21.2568
21.4836
21.484
21.4844
21.4848
21.4851
21.4855
21.4857
21.486
21.4862
21.4864
21.4865
21.4867
21.4868
21.4869
21.4869
21.487
21.4871
21.4871
21.4872
21.4872
21.4873
21.4873
21.4873
21.4873
21.4873
21.4874
21.4874
21.4874
21.4874
21.4874
21.4874
21.4874
21.4874
21.4874
21.4874
21.4873
21.4873
21.4873
21.4873
21.4873
21.4872
21.4872
21.4871
21.4871
21.487
21.4869
21.4869
21.4868
21.4867
21.4865
21.4864
21.4862
21.486
21.4857
21.4855
21.4851
21.4848
21.4844
21.484
21.4836
21.6628
21.663
21.6633
21.6636
21.6639
21.6641
21.6643
21.6645
21.6647
21.6648
21.6649
21.665
21.6651
21.6652
21.6653
21.6653
21.6654
21.6654
21.6655
21.6655
21.6655
21.6655
21.6656
21.6656
21.6656
21.6656
21.6656
21.6656
21.6656
21.6656
21.6656
21.6656
21.6656
21.6656
21.6656
21.6656
21.6656
21.6656
21.6655
21.6655
21.6655
21.6655
21.6654
21.6654
21.6653
21.6653
21.6652
21.6651
21.665
21.6649
21.6648
21.6647
21.6645
21.6643
21.6641
21.6639
21.6636
21.6633
21.663
21.6628
21.8052
21.8053
21.8055
21.8057
21.8059
21.8061
21.8063
21.8064
21.8065
21.8066
21.8067
21.8068
21.8069
21.8069
21.807
21.807
21.8071
21.8071
21.8072
21.8072
21.8072
21.8072
21.8073
21.8073
21.8073
21.8073
21.8073
21.8073
21.8073
21.8073
21.8073
21.8073
21.8073
21.8073
21.8073
21.8073
21.8073
21.8073
21.8072
21.8072
21.8072
21.8072
21.8071
21.8071
21.807
21.807
21.8069
21.8069
21.8068
21.8067
21.8066
21.8065
21.8064
21.8063
21.8061
21.8059
21.8057
21.8055
21.8053
21.8052
21.9209
21.921
21.9211
21.9213
21.9214
21.9216
21.9217
21.9218
21.9219
21.922
21.922
21.9221
21.9222
21.9222
21.9223
21.9223
21.9223
21.9224
21.9224
21.9224
21.9225
21.9225
21.9225
21.9225
21.9225
21.9225
21.9226
21.9226
21.9226
21.9226
21.9226
21.9226
21.9226
21.9226
21.9225
21.9225
21.9225
21.9225
21.9225
21.9225
21.9224
21.9224
21.9224
21.9223
21.9223
21.9223
21.9222
21.9222
21.9221
21.922
21.922
21.9219
21.9218
21.9217
21.9216
21.9214
21.9213
21.9211
21.921
21.9209
22.0179
22.018
22.0181
22.0182
22.0183
22.0184
22.0185
22.0185
22.0186
22.0187
22.0187
22.0188
22.0189
22.0189
22.0189
22.019
22.019
22.0191
22.0191
22.0191
22.0191
22.0192
22.0192
22.0192
22.0192
22.0192
22.0192
22.0192
22.0192
22.0192
22.0192
22.0192
22.0192
22.0192
22.0192
22.0192
22.0192
22.0192
22.0192
22.0191
22.0191
22.0191
22.0191
22.019
22.019
22.0189
22.0189
22.0189
22.0188
22.0187
22.0187
22.0186
22.0185
22.0185
22.0184
22.0183
22.0182
22.0181
22.018
22.0179
22.1017
22.1017
22.1018
22.1019
22.102
22.102
22.1021
22.1022
22.1022
22.1023
22.1023
22.1024
22.1024
22.1025
22.1025
22.1026
22.1026
22.1026
22.1027
22.1027
22.1027
22.1027
22.1027
22.1028
22.1028
22.1028
22.1028
22.1028
22.1028
22.1028
22.1028
22.1028
22.1028
22.1028
22.1028
22.1028
22.1028
22.1027
22.1027
22.1027
22.1027
22.1027
22.1026
22.1026
22.1026
22.1025
22.1025
22.1024
22.1024
22.1023
22.1023
22.1022
22.1022
22.1021
22.102
22.102
22.1019
22.1018
22.1017
22.1017
22.1759
22.176
22.176
22.1761
22.1761
22.1762
22.1762
22.1763
22.1763
22.1764
22.1764
22.1765
22.1765
22.1766
22.1766
22.1766
22.1767
22.1767
22.1767
22.1768
22.1768
22.1768
22.1768
22.1768
22.1768
22.1768
22.1769
22.1769
22.1769
22.1769
22.1769
22.1769
22.1769
22.1769
22.1768
22.1768
22.1768
22.1768
22.1768
22.1768
22.1768
22.1767
22.1767
22.1767
22.1766
22.1766
22.1766
22.1765
22.1765
22.1764
22.1764
22.1763
22.1763
22.1762
22.1762
22.1761
22.1761
22.176
22.176
22.1759
22.243
22.243
22.243
22.2431
22.2431
22.2432
22.2432
22.2433
22.2433
22.2433
22.2434
22.2434
22.2435
22.2435
22.2435
22.2436
22.2436
22.2436
22.2437
22.2437
22.2437
22.2437
22.2437
22.2438
22.2438
22.2438
22.2438
22.2438
22.2438
22.2438
22.2438
22.2438
22.2438
22.2438
22.2438
22.2438
22.2438
22.2437
22.2437
22.2437
22.2437
22.2437
22.2436
22.2436
22.2436
22.2435
22.2435
22.2435
22.2434
22.2434
22.2433
22.2433
22.2433
22.2432
22.2432
22.2431
22.2431
22.243
22.243
22.243
22.3045
22.3045
22.3045
22.3045
22.3045
22.3046
22.3046
22.3047
22.3047
22.3047
22.3048
22.3048
22.3048
22.3049
22.3049
22.3049
22.305
22.305
22.305
22.3051
22.3051
22.3051
22.3051
22.3051
22.3051
22.3052
22.3052
22.3052
22.3052
22.3052
22.3052
22.3052
22.3052
22.3052
22.3052
22.3051
22.3051
22.3051
22.3051
22.3051
22.3051
22.305
22.305
22.305
22.3049
22.3049
22.3049
22.3048
22.3048
22.3048
22.3047
22.3047
22.3047
22.3046
22.3046
22.3045
22.3045
22.3045
22.3045
22.3045
22.3614
22.3614
22.3614
22.3615
22.3615
22.3615
22.3615
22.3616
22.3616
22.3617
22.3617
22.3617
22.3618
22.3618
22.3618
22.3619
22.3619
22.3619
22.3619
22.362
22.362
22.362
22.362
22.362
22.3621
22.3621
22.3621
22.3621
22.3621
22.3621
22.3621
22.3621
22.3621
22.3621
22.3621
22.3621
22.362
22.362
22.362
22.362
22.362
22.3619
22.3619
22.3619
22.3619
22.3618
22.3618
22.3618
22.3617
22.3617
22.3617
22.3616
22.3616
22.3615
22.3615
22.3615
22.3615
22.3614
22.3614
22.3614
22.4148
22.4147
22.4147
22.4148
22.4148
22.4148
22.4148
22.4149
22.4149
22.4149
22.415
22.415
22.415
22.4151
22.4151
22.4151
22.4151
22.4152
22.4152
22.4152
22.4152
22.4153
22.4153
22.4153
22.4153
22.4153
22.4153
22.4153
22.4153
22.4153
22.4153
22.4153
22.4153
22.4153
22.4153
22.4153
22.4153
22.4153
22.4153
22.4152
22.4152
22.4152
22.4152
22.4151
22.4151
22.4151
22.4151
22.415
22.415
22.415
22.4149
22.4149
22.4149
22.4148
22.4148
22.4148
22.4148
22.4147
22.4147
22.4148
22.465
22.465
22.465
22.465
22.465
22.465
22.4651
22.4651
22.4651
22.4651
22.4652
22.4652
22.4652
22.4653
22.4653
22.4653
22.4654
22.4654
22.4654
22.4654
22.4655
22.4655
22.4655
22.4655
22.4655
22.4655
22.4655
22.4656
22.4656
22.4656
22.4656
22.4656
22.4656
22.4655
22.4655
22.4655
22.4655
22.4655
22.4655
22.4655
22.4654
22.4654
22.4654
22.4654
22.4653
22.4653
22.4653
22.4652
22.4652
22.4652
22.4651
22.4651
22.4651
22.4651
22.465
22.465
22.465
22.465
22.465
22.465
22.5127
22.5127
22.5127
22.5127
22.5127
22.5127
22.5127
22.5127
22.5128
22.5128
22.5128
22.5128
22.5129
22.5129
22.5129
22.513
22.513
22.513
22.5131
22.5131
22.5131
22.5131
22.5131
22.5132
22.5132
22.5132
22.5132
22.5132
22.5132
22.5132
22.5132
22.5132
22.5132
22.5132
22.5132
22.5132
22.5132
22.5131
22.5131
22.5131
22.5131
22.5131
22.513
22.513
22.513
22.5129
22.5129
22.5129
22.5128
22.5128
22.5128
22.5128
22.5127
22.5127
22.5127
22.5127
22.5127
22.5127
22.5127
22.5127
22.5582
22.5581
22.5581
22.5581
22.5581
22.5581
22.5582
22.5582
22.5582
22.5582
22.5583
22.5583
22.5583
22.5584
22.5584
22.5584
22.5584
22.5585
22.5585
22.5585
22.5586
22.5586
22.5586
22.5586
22.5586
22.5586
22.5586
22.5586
22.5587
22.5587
22.5587
22.5587
22.5586
22.5586
22.5586
22.5586
22.5586
22.5586
22.5586
22.5586
22.5585
22.5585
22.5585
22.5584
22.5584
22.5584
22.5584
22.5583
22.5583
22.5583
22.5582
22.5582
22.5582
22.5582
22.5581
22.5581
22.5581
22.5581
22.5581
22.5582
22.6017
22.6017
22.6017
22.6017
22.6017
22.6017
22.6017
22.6017
22.6018
22.6018
22.6018
22.6019
22.6019
22.6019
22.602
22.602
22.602
22.602
22.6021
22.6021
22.6021
22.6021
22.6022
22.6022
22.6022
22.6022
22.6022
22.6022
22.6022
22.6022
22.6022
22.6022
22.6022
22.6022
22.6022
22.6022
22.6022
22.6022
22.6021
22.6021
22.6021
22.6021
22.602
22.602
22.602
22.602
22.6019
22.6019
22.6019
22.6018
22.6018
22.6018
22.6017
22.6017
22.6017
22.6017
22.6017
22.6017
22.6017
22.6017
22.6437
22.6437
22.6436
22.6436
22.6436
22.6436
22.6437
22.6437
22.6437
22.6437
22.6438
22.6438
22.6438
22.6438
22.6439
22.6439
22.6439
22.644
22.644
22.644
22.644
22.6441
22.6441
22.6441
22.6441
22.6441
22.6441
22.6441
22.6441
22.6442
22.6442
22.6441
22.6441
22.6441
22.6441
22.6441
22.6441
22.6441
22.6441
22.644
22.644
22.644
22.644
22.6439
22.6439
22.6439
22.6438
22.6438
22.6438
22.6438
22.6437
22.6437
22.6437
22.6437
22.6436
22.6436
22.6436
22.6436
22.6437
22.6437
22.6842
22.6842
22.6842
22.6841
22.6841
22.6842
22.6842
22.6842
22.6842
22.6842
22.6843
22.6843
22.6843
22.6843
22.6844
22.6844
22.6844
22.6845
22.6845
22.6845
22.6845
22.6846
22.6846
22.6846
22.6846
22.6846
22.6846
22.6847
22.6847
22.6847
22.6847
22.6847
22.6847
22.6846
22.6846
22.6846
22.6846
22.6846
22.6846
22.6845
22.6845
22.6845
22.6845
22.6844
22.6844
22.6844
22.6843
22.6843
22.6843
22.6843
22.6842
22.6842
22.6842
22.6842
22.6842
22.6841
22.6841
22.6842
22.6842
22.6842
22.7235
22.7234
22.7234
22.7234
22.7234
22.7234
22.7234
22.7234
22.7235
22.7235
22.7235
22.7235
22.7236
22.7236
22.7236
22.7237
22.7237
22.7237
22.7238
22.7238
22.7238
22.7238
22.7239
22.7239
22.7239
22.7239
22.7239
22.7239
22.7239
22.7239
22.7239
22.7239
22.7239
22.7239
22.7239
22.7239
22.7239
22.7239
22.7238
22.7238
22.7238
22.7238
22.7237
22.7237
22.7237
22.7236
22.7236
22.7236
22.7235
22.7235
22.7235
22.7235
22.7234
22.7234
22.7234
22.7234
22.7234
22.7234
22.7234
22.7235
22.7616
22.7616
22.7616
22.7616
22.7616
22.7616
22.7616
22.7616
22.7616
22.7616
22.7617
22.7617
22.7617
22.7618
22.7618
22.7618
22.7619
22.7619
22.7619
22.7619
22.762
22.762
22.762
22.762
22.762
22.7621
22.7621
22.7621
22.7621
22.7621
22.7621
22.7621
22.7621
22.7621
22.7621
22.762
22.762
22.762
22.762
22.762
22.7619
22.7619
22.7619
22.7619
22.7618
22.7618
22.7618
22.7617
22.7617
22.7617
22.7616
22.7616
22.7616
22.7616
22.7616
22.7616
22.7616
22.7616
22.7616
22.7616
22.7988
22.7988
22.7988
22.7988
22.7988
22.7988
22.7988
22.7988
22.7988
22.7988
22.7989
22.7989
22.7989
22.799
22.799
22.799
22.7991
22.7991
22.7991
22.7991
22.7992
22.7992
22.7992
22.7992
22.7993
22.7993
22.7993
22.7993
22.7993
22.7993
22.7993
22.7993
22.7993
22.7993
22.7993
22.7993
22.7992
22.7992
22.7992
22.7992
22.7991
22.7991
22.7991
22.7991
22.799
22.799
22.799
22.7989
22.7989
22.7989
22.7988
22.7988
22.7988
22.7988
22.7988
22.7988
22.7988
22.7988
22.7988
22.7988
22.8352
22.8351
22.8351
22.8351
22.8351
22.8351
22.8351
22.8351
22.8352
22.8352
22.8352
22.8352
22.8353
22.8353
22.8353
22.8354
22.8354
22.8354
22.8355
22.8355
22.8355
22.8355
22.8356
22.8356
22.8356
22.8356
22.8356
22.8356
22.8356
22.8356
22.8356
22.8356
22.8356
22.8356
22.8356
22.8356
22.8356
22.8356
22.8355
22.8355
22.8355
22.8355
22.8354
22.8354
22.8354
22.8353
22.8353
22.8353
22.8352
22.8352
22.8352
22.8352
22.8351
22.8351
22.8351
22.8351
22.8351
22.8351
22.8351
22.8352
22.8707
22.8707
22.8707
22.8707
22.8707
22.8707
22.8707
22.8707
22.8707
22.8708
22.8708
22.8708
22.8709
22.8709
22.8709
22.871
22.871
22.871
22.8711
22.8711
22.8711
22.8711
22.8712
22.8712
22.8712
22.8712
22.8712
22.8712
22.8712
22.8712
22.8712
22.8712
22.8712
22.8712
22.8712
22.8712
22.8712
22.8712
22.8711
22.8711
22.8711
22.8711
22.871
22.871
22.871
22.8709
22.8709
22.8709
22.8708
22.8708
22.8708
22.8707
22.8707
22.8707
22.8707
22.8707
22.8707
22.8707
22.8707
22.8707
22.9057
22.9057
22.9056
22.9056
22.9056
22.9056
22.9056
22.9056
22.9057
22.9057
22.9057
22.9058
22.9058
22.9058
22.9059
22.9059
22.9059
22.906
22.906
22.906
22.9061
22.9061
22.9061
22.9061
22.9061
22.9062
22.9062
22.9062
22.9062
22.9062
22.9062
22.9062
22.9062
22.9062
22.9062
22.9061
22.9061
22.9061
22.9061
22.9061
22.906
22.906
22.906
22.9059
22.9059
22.9059
22.9058
22.9058
22.9058
22.9057
22.9057
22.9057
22.9056
22.9056
22.9056
22.9056
22.9056
22.9056
22.9057
22.9057
22.94
22.94
22.94
22.94
22.94
22.94
22.94
22.94
22.94
22.94
22.9401
22.9401
22.9401
22.9402
22.9402
22.9402