/*--------------------------------*- C++ -*----------------------------------*\
| =========                 |                                                 |
| \\      /  F ield         | foam-extend: Open Source CFD                    |
|  \\    /   O peration     | Version:     4.0                                |
|   \\  /    A nd           | Web:         http://www.foam-extend.org         |
|    \\/     M anipulation  |                                                 |
\*---------------------------------------------------------------------------*/
FoamFile
{
    version     2.0;
    format      ascii;
    class       volScalarField;
    location    "1670";
    object      cMinus;
}
// * * * * * * * * * * * * * * * * * * * * * * * * * * * * * * * * * * * * * //

dimensions      [0 0 0 0 0 0 0];

internalField   nonuniform List<scalar> 
6960
(
1.25673e-23
1.25745e-23
1.25749e-23
1.25741e-23
1.2573e-23
1.25719e-23
1.25709e-23
1.25701e-23
1.25693e-23
1.25686e-23
1.25681e-23
1.25676e-23
1.25672e-23
1.25669e-23
1.25666e-23
1.25664e-23
1.25662e-23
1.2566e-23
1.25659e-23
1.25658e-23
1.25657e-23
1.25656e-23
1.25656e-23
1.25656e-23
1.25655e-23
1.25655e-23
1.25655e-23
1.25655e-23
1.25655e-23
1.25655e-23
1.25655e-23
1.25655e-23
1.25655e-23
1.25655e-23
1.25655e-23
1.25655e-23
1.25656e-23
1.25656e-23
1.25656e-23
1.25657e-23
1.25658e-23
1.25659e-23
1.2566e-23
1.25662e-23
1.25664e-23
1.25666e-23
1.25669e-23
1.25672e-23
1.25676e-23
1.25681e-23
1.25686e-23
1.25693e-23
1.25701e-23
1.25709e-23
1.25719e-23
1.2573e-23
1.25741e-23
1.25749e-23
1.25745e-23
1.25673e-23
5.0737e-23
5.07686e-23
5.07734e-23
5.07731e-23
5.07717e-23
5.077e-23
5.07684e-23
5.07671e-23
5.07659e-23
5.0765e-23
5.07643e-23
5.07638e-23
5.07634e-23
5.07631e-23
5.07628e-23
5.07627e-23
5.07626e-23
5.07626e-23
5.07626e-23
5.07626e-23
5.07627e-23
5.07628e-23
5.07628e-23
5.07629e-23
5.0763e-23
5.07631e-23
5.07631e-23
5.07632e-23
5.07632e-23
5.07632e-23
5.07632e-23
5.07632e-23
5.07632e-23
5.07631e-23
5.07631e-23
5.0763e-23
5.07629e-23
5.07628e-23
5.07628e-23
5.07627e-23
5.07626e-23
5.07626e-23
5.07626e-23
5.07626e-23
5.07627e-23
5.07628e-23
5.07631e-23
5.07634e-23
5.07638e-23
5.07643e-23
5.0765e-23
5.07659e-23
5.07671e-23
5.07684e-23
5.077e-23
5.07717e-23
5.07731e-23
5.07734e-23
5.07686e-23
5.0737e-23
1.4904e-22
1.49142e-22
1.49166e-22
1.49176e-22
1.49181e-22
1.49185e-22
1.49189e-22
1.49192e-22
1.49195e-22
1.49198e-22
1.49202e-22
1.49205e-22
1.49207e-22
1.4921e-22
1.49212e-22
1.49215e-22
1.49217e-22
1.49219e-22
1.4922e-22
1.49222e-22
1.49224e-22
1.49225e-22
1.49226e-22
1.49227e-22
1.49228e-22
1.49228e-22
1.49229e-22
1.49229e-22
1.4923e-22
1.4923e-22
1.4923e-22
1.4923e-22
1.49229e-22
1.49229e-22
1.49228e-22
1.49228e-22
1.49227e-22
1.49226e-22
1.49225e-22
1.49224e-22
1.49222e-22
1.4922e-22
1.49219e-22
1.49217e-22
1.49215e-22
1.49212e-22
1.4921e-22
1.49207e-22
1.49205e-22
1.49202e-22
1.49198e-22
1.49195e-22
1.49192e-22
1.49189e-22
1.49185e-22
1.49181e-22
1.49176e-22
1.49166e-22
1.49142e-22
1.4904e-22
4.03563e-22
4.03863e-22
4.03962e-22
4.0402e-22
4.04065e-22
4.04105e-22
4.0414e-22
4.04173e-22
4.04202e-22
4.0423e-22
4.04255e-22
4.04277e-22
4.04297e-22
4.04316e-22
4.04332e-22
4.04347e-22
4.0436e-22
4.04371e-22
4.04382e-22
4.04391e-22
4.04399e-22
4.04406e-22
4.04411e-22
4.04416e-22
4.04421e-22
4.04424e-22
4.04427e-22
4.04429e-22
4.0443e-22
4.04431e-22
4.04431e-22
4.0443e-22
4.04429e-22
4.04427e-22
4.04424e-22
4.04421e-22
4.04416e-22
4.04411e-22
4.04406e-22
4.04399e-22
4.04391e-22
4.04382e-22
4.04371e-22
4.0436e-22
4.04347e-22
4.04332e-22
4.04316e-22
4.04297e-22
4.04277e-22
4.04255e-22
4.0423e-22
4.04202e-22
4.04173e-22
4.0414e-22
4.04105e-22
4.04065e-22
4.0402e-22
4.03962e-22
4.03863e-22
4.03563e-22
1.07621e-21
1.07708e-21
1.07744e-21
1.07769e-21
1.07791e-21
1.0781e-21
1.07827e-21
1.07842e-21
1.07856e-21
1.07869e-21
1.07881e-21
1.07891e-21
1.079e-21
1.07908e-21
1.07916e-21
1.07922e-21
1.07928e-21
1.07933e-21
1.07937e-21
1.07941e-21
1.07944e-21
1.07947e-21
1.07949e-21
1.07951e-21
1.07953e-21
1.07955e-21
1.07956e-21
1.07956e-21
1.07957e-21
1.07957e-21
1.07957e-21
1.07957e-21
1.07956e-21
1.07956e-21
1.07955e-21
1.07953e-21
1.07951e-21
1.07949e-21
1.07947e-21
1.07944e-21
1.07941e-21
1.07937e-21
1.07933e-21
1.07928e-21
1.07922e-21
1.07916e-21
1.07908e-21
1.079e-21
1.07891e-21
1.07881e-21
1.07869e-21
1.07856e-21
1.07842e-21
1.07827e-21
1.0781e-21
1.07791e-21
1.07769e-21
1.07744e-21
1.07708e-21
1.07621e-21
2.89578e-21
2.89836e-21
2.8996e-21
2.90055e-21
2.90139e-21
2.90214e-21
2.90282e-21
2.90344e-21
2.90399e-21
2.90449e-21
2.90494e-21
2.90535e-21
2.9057e-21
2.90602e-21
2.9063e-21
2.90654e-21
2.90676e-21
2.90695e-21
2.90711e-21
2.90725e-21
2.90738e-21
2.90748e-21
2.90757e-21
2.90765e-21
2.90771e-21
2.90776e-21
2.9078e-21
2.90783e-21
2.90785e-21
2.90786e-21
2.90786e-21
2.90785e-21
2.90783e-21
2.9078e-21
2.90776e-21
2.90771e-21
2.90765e-21
2.90757e-21
2.90748e-21
2.90738e-21
2.90725e-21
2.90711e-21
2.90695e-21
2.90676e-21
2.90654e-21
2.9063e-21
2.90602e-21
2.9057e-21
2.90535e-21
2.90494e-21
2.90449e-21
2.90399e-21
2.90344e-21
2.90282e-21
2.90214e-21
2.90139e-21
2.90055e-21
2.8996e-21
2.89836e-21
2.89578e-21
7.93782e-21
7.94552e-21
7.94969e-21
7.95309e-21
7.95613e-21
7.95888e-21
7.96138e-21
7.96364e-21
7.96568e-21
7.9675e-21
7.96914e-21
7.97059e-21
7.97188e-21
7.97302e-21
7.97403e-21
7.97491e-21
7.97568e-21
7.97635e-21
7.97693e-21
7.97744e-21
7.97788e-21
7.97825e-21
7.97856e-21
7.97883e-21
7.97905e-21
7.97923e-21
7.97937e-21
7.97947e-21
7.97953e-21
7.97957e-21
7.97957e-21
7.97953e-21
7.97947e-21
7.97937e-21
7.97923e-21
7.97905e-21
7.97883e-21
7.97856e-21
7.97825e-21
7.97788e-21
7.97744e-21
7.97693e-21
7.97635e-21
7.97568e-21
7.97491e-21
7.97403e-21
7.97302e-21
7.97188e-21
7.97059e-21
7.96914e-21
7.9675e-21
7.96568e-21
7.96364e-21
7.96138e-21
7.95888e-21
7.95613e-21
7.95309e-21
7.94969e-21
7.94552e-21
7.93782e-21
2.22551e-20
2.22785e-20
2.22925e-20
2.23043e-20
2.2315e-20
2.23247e-20
2.23336e-20
2.23415e-20
2.23487e-20
2.23552e-20
2.23609e-20
2.2366e-20
2.23706e-20
2.23745e-20
2.2378e-20
2.23811e-20
2.23838e-20
2.23861e-20
2.23882e-20
2.23899e-20
2.23914e-20
2.23927e-20
2.23938e-20
2.23947e-20
2.23955e-20
2.23961e-20
2.23966e-20
2.23969e-20
2.23971e-20
2.23973e-20
2.23973e-20
2.23971e-20
2.23969e-20
2.23966e-20
2.23961e-20
2.23955e-20
2.23947e-20
2.23938e-20
2.23927e-20
2.23914e-20
2.23899e-20
2.23882e-20
2.23861e-20
2.23838e-20
2.23811e-20
2.2378e-20
2.23745e-20
2.23706e-20
2.2366e-20
2.23609e-20
2.23552e-20
2.23487e-20
2.23415e-20
2.23336e-20
2.23247e-20
2.2315e-20
2.23043e-20
2.22925e-20
2.22785e-20
2.22551e-20
6.39297e-20
6.40022e-20
6.40489e-20
6.40896e-20
6.41268e-20
6.41606e-20
6.41914e-20
6.42192e-20
6.42442e-20
6.42666e-20
6.42865e-20
6.43042e-20
6.43199e-20
6.43337e-20
6.43458e-20
6.43564e-20
6.43657e-20
6.43737e-20
6.43807e-20
6.43867e-20
6.43919e-20
6.43963e-20
6.44e-20
6.44032e-20
6.44058e-20
6.44078e-20
6.44095e-20
6.44106e-20
6.44114e-20
6.44118e-20
6.44118e-20
6.44114e-20
6.44106e-20
6.44095e-20
6.44078e-20
6.44058e-20
6.44032e-20
6.44e-20
6.43963e-20
6.43919e-20
6.43867e-20
6.43807e-20
6.43737e-20
6.43657e-20
6.43564e-20
6.43458e-20
6.43337e-20
6.43199e-20
6.43042e-20
6.42865e-20
6.42666e-20
6.42442e-20
6.42192e-20
6.41914e-20
6.41606e-20
6.41268e-20
6.40896e-20
6.40489e-20
6.40022e-20
6.39297e-20
1.88308e-19
1.88537e-19
1.88694e-19
1.88835e-19
1.88964e-19
1.89081e-19
1.89188e-19
1.89284e-19
1.89371e-19
1.89449e-19
1.89518e-19
1.89579e-19
1.89633e-19
1.89681e-19
1.89723e-19
1.8976e-19
1.89792e-19
1.89819e-19
1.89843e-19
1.89864e-19
1.89882e-19
1.89897e-19
1.8991e-19
1.89921e-19
1.89929e-19
1.89937e-19
1.89942e-19
1.89946e-19
1.89949e-19
1.8995e-19
1.8995e-19
1.89949e-19
1.89946e-19
1.89942e-19
1.89937e-19
1.89929e-19
1.89921e-19
1.8991e-19
1.89897e-19
1.89882e-19
1.89864e-19
1.89843e-19
1.89819e-19
1.89792e-19
1.8976e-19
1.89723e-19
1.89681e-19
1.89633e-19
1.89579e-19
1.89518e-19
1.89449e-19
1.89371e-19
1.89284e-19
1.89188e-19
1.89081e-19
1.88964e-19
1.88835e-19
1.88694e-19
1.88537e-19
1.88308e-19
5.68992e-19
5.69733e-19
5.7027e-19
5.70757e-19
5.71205e-19
5.71616e-19
5.71989e-19
5.72325e-19
5.72628e-19
5.72898e-19
5.73139e-19
5.73353e-19
5.73542e-19
5.73708e-19
5.73853e-19
5.73981e-19
5.74091e-19
5.74188e-19
5.74271e-19
5.74343e-19
5.74404e-19
5.74457e-19
5.74501e-19
5.74538e-19
5.74569e-19
5.74594e-19
5.74613e-19
5.74627e-19
5.74636e-19
5.7464e-19
5.7464e-19
5.74636e-19
5.74627e-19
5.74613e-19
5.74594e-19
5.74569e-19
5.74538e-19
5.74501e-19
5.74457e-19
5.74404e-19
5.74343e-19
5.74271e-19
5.74188e-19
5.74091e-19
5.73981e-19
5.73853e-19
5.73708e-19
5.73542e-19
5.73353e-19
5.73139e-19
5.72898e-19
5.72628e-19
5.72325e-19
5.71989e-19
5.71616e-19
5.71205e-19
5.70757e-19
5.7027e-19
5.69733e-19
5.68992e-19
1.76406e-18
1.76651e-18
1.76836e-18
1.77007e-18
1.77165e-18
1.7731e-18
1.77441e-18
1.7756e-18
1.77666e-18
1.77762e-18
1.77846e-18
1.77922e-18
1.77988e-18
1.78046e-18
1.78097e-18
1.78142e-18
1.78181e-18
1.78215e-18
1.78244e-18
1.78269e-18
1.78291e-18
1.78309e-18
1.78325e-18
1.78338e-18
1.78348e-18
1.78357e-18
1.78364e-18
1.78369e-18
1.78372e-18
1.78373e-18
1.78373e-18
1.78372e-18
1.78369e-18
1.78364e-18
1.78357e-18
1.78348e-18
1.78338e-18
1.78325e-18
1.78309e-18
1.78291e-18
1.78269e-18
1.78244e-18
1.78215e-18
1.78181e-18
1.78142e-18
1.78097e-18
1.78046e-18
1.77988e-18
1.77922e-18
1.77846e-18
1.77762e-18
1.77666e-18
1.7756e-18
1.77441e-18
1.7731e-18
1.77165e-18
1.77007e-18
1.76836e-18
1.76651e-18
1.76406e-18
5.61215e-18
5.62043e-18
5.62697e-18
5.63304e-18
5.63867e-18
5.64383e-18
5.64852e-18
5.65276e-18
5.65656e-18
5.65996e-18
5.66299e-18
5.66567e-18
5.66803e-18
5.67011e-18
5.67194e-18
5.67353e-18
5.67492e-18
5.67612e-18
5.67716e-18
5.67805e-18
5.67882e-18
5.67948e-18
5.68003e-18
5.68049e-18
5.68087e-18
5.68117e-18
5.68141e-18
5.68158e-18
5.6817e-18
5.68175e-18
5.68175e-18
5.6817e-18
5.68158e-18
5.68141e-18
5.68117e-18
5.68087e-18
5.68049e-18
5.68003e-18
5.67948e-18
5.67882e-18
5.67805e-18
5.67716e-18
5.67612e-18
5.67492e-18
5.67353e-18
5.67194e-18
5.67011e-18
5.66803e-18
5.66567e-18
5.66299e-18
5.65996e-18
5.65656e-18
5.65276e-18
5.64852e-18
5.64383e-18
5.63867e-18
5.63304e-18
5.62697e-18
5.62043e-18
5.61215e-18
1.83211e-17
1.83497e-17
1.83731e-17
1.8395e-17
1.84154e-17
1.84341e-17
1.84511e-17
1.84665e-17
1.84803e-17
1.84926e-17
1.85036e-17
1.85133e-17
1.85219e-17
1.85294e-17
1.8536e-17
1.85418e-17
1.85468e-17
1.85511e-17
1.85549e-17
1.85581e-17
1.85609e-17
1.85632e-17
1.85652e-17
1.85669e-17
1.85683e-17
1.85694e-17
1.85702e-17
1.85709e-17
1.85713e-17
1.85715e-17
1.85715e-17
1.85713e-17
1.85709e-17
1.85702e-17
1.85694e-17
1.85683e-17
1.85669e-17
1.85652e-17
1.85632e-17
1.85609e-17
1.85581e-17
1.85549e-17
1.85511e-17
1.85468e-17
1.85418e-17
1.8536e-17
1.85294e-17
1.85219e-17
1.85133e-17
1.85036e-17
1.84926e-17
1.84803e-17
1.84665e-17
1.84511e-17
1.84341e-17
1.84154e-17
1.8395e-17
1.83731e-17
1.83497e-17
1.83211e-17
6.13648e-17
6.14661e-17
6.15516e-17
6.16322e-17
6.17073e-17
6.17763e-17
6.18391e-17
6.18957e-17
6.19466e-17
6.1992e-17
6.20324e-17
6.20682e-17
6.20998e-17
6.21275e-17
6.21518e-17
6.2173e-17
6.21915e-17
6.22075e-17
6.22213e-17
6.22332e-17
6.22434e-17
6.22521e-17
6.22594e-17
6.22655e-17
6.22706e-17
6.22746e-17
6.22777e-17
6.228e-17
6.22815e-17
6.22823e-17
6.22823e-17
6.22815e-17
6.228e-17
6.22777e-17
6.22746e-17
6.22706e-17
6.22655e-17
6.22594e-17
6.22521e-17
6.22434e-17
6.22332e-17
6.22213e-17
6.22075e-17
6.21915e-17
6.2173e-17
6.21518e-17
6.21275e-17
6.20998e-17
6.20682e-17
6.20324e-17
6.1992e-17
6.19466e-17
6.18957e-17
6.18391e-17
6.17763e-17
6.17073e-17
6.16322e-17
6.15516e-17
6.14661e-17
6.13648e-17
2.10826e-16
2.11193e-16
2.1151e-16
2.11812e-16
2.12094e-16
2.12353e-16
2.12589e-16
2.12801e-16
2.12992e-16
2.13163e-16
2.13314e-16
2.13449e-16
2.13567e-16
2.13671e-16
2.13762e-16
2.13842e-16
2.13911e-16
2.13971e-16
2.14023e-16
2.14067e-16
2.14105e-16
2.14138e-16
2.14165e-16
2.14188e-16
2.14207e-16
2.14222e-16
2.14234e-16
2.14242e-16
2.14248e-16
2.14251e-16
2.14251e-16
2.14248e-16
2.14242e-16
2.14234e-16
2.14222e-16
2.14207e-16
2.14188e-16
2.14165e-16
2.14138e-16
2.14105e-16
2.14067e-16
2.14023e-16
2.13971e-16
2.13911e-16
2.13842e-16
2.13762e-16
2.13671e-16
2.13567e-16
2.13449e-16
2.13314e-16
2.13163e-16
2.12992e-16
2.12801e-16
2.12589e-16
2.12353e-16
2.12094e-16
2.11812e-16
2.1151e-16
2.11193e-16
2.10826e-16
7.42648e-16
7.44006e-16
7.45212e-16
7.46364e-16
7.47441e-16
7.48431e-16
7.49331e-16
7.50144e-16
7.50874e-16
7.51526e-16
7.52106e-16
7.52619e-16
7.53071e-16
7.53469e-16
7.53817e-16
7.54121e-16
7.54385e-16
7.54614e-16
7.54812e-16
7.54982e-16
7.55128e-16
7.55252e-16
7.55356e-16
7.55443e-16
7.55515e-16
7.55573e-16
7.55617e-16
7.5565e-16
7.55672e-16
7.55682e-16
7.55682e-16
7.55672e-16
7.5565e-16
7.55617e-16
7.55573e-16
7.55515e-16
7.55443e-16
7.55356e-16
7.55252e-16
7.55128e-16
7.54982e-16
7.54812e-16
7.54614e-16
7.54385e-16
7.54121e-16
7.53817e-16
7.53469e-16
7.53071e-16
7.52619e-16
7.52106e-16
7.51526e-16
7.50874e-16
7.50144e-16
7.49331e-16
7.48431e-16
7.47441e-16
7.46364e-16
7.45212e-16
7.44006e-16
7.42648e-16
2.68065e-15
2.68579e-15
2.69046e-15
2.69494e-15
2.69913e-15
2.70298e-15
2.70649e-15
2.70966e-15
2.7125e-15
2.71504e-15
2.71729e-15
2.71929e-15
2.72105e-15
2.7226e-15
2.72395e-15
2.72514e-15
2.72617e-15
2.72706e-15
2.72783e-15
2.72849e-15
2.72905e-15
2.72954e-15
2.72994e-15
2.73028e-15
2.73056e-15
2.73078e-15
2.73096e-15
2.73108e-15
2.73117e-15
2.73121e-15
2.73121e-15
2.73117e-15
2.73108e-15
2.73096e-15
2.73078e-15
2.73056e-15
2.73028e-15
2.72994e-15
2.72954e-15
2.72905e-15
2.72849e-15
2.72783e-15
2.72706e-15
2.72617e-15
2.72514e-15
2.72395e-15
2.7226e-15
2.72105e-15
2.71929e-15
2.71729e-15
2.71504e-15
2.7125e-15
2.70966e-15
2.70649e-15
2.70298e-15
2.69913e-15
2.69494e-15
2.69046e-15
2.68579e-15
2.68065e-15
9.90712e-15
9.927e-15
9.9454e-15
9.96313e-15
9.97975e-15
9.99504e-15
1.00089e-14
1.00215e-14
1.00328e-14
1.00428e-14
1.00518e-14
1.00597e-14
1.00667e-14
1.00728e-14
1.00782e-14
1.00829e-14
1.0087e-14
1.00905e-14
1.00935e-14
1.00962e-14
1.00984e-14
1.01003e-14
1.01019e-14
1.01033e-14
1.01044e-14
1.01052e-14
1.01059e-14
1.01064e-14
1.01068e-14
1.01069e-14
1.01069e-14
1.01068e-14
1.01064e-14
1.01059e-14
1.01052e-14
1.01044e-14
1.01033e-14
1.01019e-14
1.01003e-14
1.00984e-14
1.00962e-14
1.00935e-14
1.00905e-14
1.0087e-14
1.00829e-14
1.00782e-14
1.00728e-14
1.00667e-14
1.00597e-14
1.00518e-14
1.00428e-14
1.00328e-14
1.00215e-14
1.00089e-14
9.99504e-15
9.97975e-15
9.96313e-15
9.9454e-15
9.927e-15
9.90712e-15
3.745e-14
3.75284e-14
3.76023e-14
3.76738e-14
3.77408e-14
3.78025e-14
3.78587e-14
3.79094e-14
3.79549e-14
3.79955e-14
3.80316e-14
3.80636e-14
3.80917e-14
3.81165e-14
3.81381e-14
3.8157e-14
3.81735e-14
3.81877e-14
3.82e-14
3.82106e-14
3.82196e-14
3.82273e-14
3.82338e-14
3.82392e-14
3.82436e-14
3.82472e-14
3.825e-14
3.8252e-14
3.82533e-14
3.8254e-14
3.8254e-14
3.82533e-14
3.8252e-14
3.825e-14
3.82472e-14
3.82436e-14
3.82392e-14
3.82338e-14
3.82273e-14
3.82196e-14
3.82106e-14
3.82e-14
3.81877e-14
3.81735e-14
3.8157e-14
3.81381e-14
3.81165e-14
3.80917e-14
3.80636e-14
3.80316e-14
3.79955e-14
3.79549e-14
3.79094e-14
3.78587e-14
3.78025e-14
3.77408e-14
3.76738e-14
3.76023e-14
3.75284e-14
3.745e-14
1.44603e-13
1.44919e-13
1.45221e-13
1.45514e-13
1.45789e-13
1.46042e-13
1.46272e-13
1.4648e-13
1.46667e-13
1.46833e-13
1.46982e-13
1.47113e-13
1.47228e-13
1.4733e-13
1.47419e-13
1.47496e-13
1.47563e-13
1.47622e-13
1.47672e-13
1.47716e-13
1.47753e-13
1.47784e-13
1.47811e-13
1.47833e-13
1.47851e-13
1.47866e-13
1.47877e-13
1.47885e-13
1.47891e-13
1.47893e-13
1.47893e-13
1.47891e-13
1.47885e-13
1.47877e-13
1.47866e-13
1.47851e-13
1.47833e-13
1.47811e-13
1.47784e-13
1.47753e-13
1.47716e-13
1.47672e-13
1.47622e-13
1.47563e-13
1.47496e-13
1.47419e-13
1.4733e-13
1.47228e-13
1.47113e-13
1.46982e-13
1.46833e-13
1.46667e-13
1.4648e-13
1.46272e-13
1.46042e-13
1.45789e-13
1.45514e-13
1.45221e-13
1.44919e-13
1.44603e-13
5.69393e-13
5.70684e-13
5.71937e-13
5.73156e-13
5.74301e-13
5.75355e-13
5.76314e-13
5.77181e-13
5.77958e-13
5.78652e-13
5.79269e-13
5.79815e-13
5.80297e-13
5.80719e-13
5.81089e-13
5.81412e-13
5.81692e-13
5.81935e-13
5.82145e-13
5.82325e-13
5.8248e-13
5.82611e-13
5.82721e-13
5.82813e-13
5.82889e-13
5.8295e-13
5.82997e-13
5.83032e-13
5.83054e-13
5.83065e-13
5.83065e-13
5.83054e-13
5.83032e-13
5.82997e-13
5.8295e-13
5.82889e-13
5.82813e-13
5.82721e-13
5.82611e-13
5.8248e-13
5.82325e-13
5.82145e-13
5.81935e-13
5.81692e-13
5.81412e-13
5.81089e-13
5.80719e-13
5.80297e-13
5.79815e-13
5.79269e-13
5.78652e-13
5.77958e-13
5.77181e-13
5.76314e-13
5.75355e-13
5.74301e-13
5.73156e-13
5.71937e-13
5.70684e-13
5.69393e-13
2.2818e-12
2.28717e-12
2.29244e-12
2.29758e-12
2.30241e-12
2.30686e-12
2.31091e-12
2.31456e-12
2.31784e-12
2.32077e-12
2.32337e-12
2.32568e-12
2.32771e-12
2.32949e-12
2.33105e-12
2.33241e-12
2.3336e-12
2.33462e-12
2.33551e-12
2.33627e-12
2.33692e-12
2.33747e-12
2.33793e-12
2.33832e-12
2.33864e-12
2.3389e-12
2.3391e-12
2.33924e-12
2.33934e-12
2.33938e-12
2.33938e-12
2.33934e-12
2.33924e-12
2.3391e-12
2.3389e-12
2.33864e-12
2.33832e-12
2.33793e-12
2.33747e-12
2.33692e-12
2.33627e-12
2.33551e-12
2.33462e-12
2.3336e-12
2.33241e-12
2.33105e-12
2.32949e-12
2.32771e-12
2.32568e-12
2.32337e-12
2.32077e-12
2.31784e-12
2.31456e-12
2.31091e-12
2.30686e-12
2.30241e-12
2.29758e-12
2.29244e-12
2.28717e-12
2.2818e-12
9.28365e-12
9.30623e-12
9.32866e-12
9.35057e-12
9.37116e-12
9.39012e-12
9.40739e-12
9.42298e-12
9.43697e-12
9.44946e-12
9.46056e-12
9.47038e-12
9.47904e-12
9.48664e-12
9.4933e-12
9.4991e-12
9.50414e-12
9.50851e-12
9.51228e-12
9.51552e-12
9.51829e-12
9.52064e-12
9.52263e-12
9.52428e-12
9.52564e-12
9.52673e-12
9.52758e-12
9.5282e-12
9.52861e-12
9.52881e-12
9.52881e-12
9.52861e-12
9.5282e-12
9.52758e-12
9.52673e-12
9.52564e-12
9.52428e-12
9.52263e-12
9.52064e-12
9.51829e-12
9.51552e-12
9.51228e-12
9.50851e-12
9.50414e-12
9.4991e-12
9.4933e-12
9.48664e-12
9.47904e-12
9.47038e-12
9.46056e-12
9.44946e-12
9.43697e-12
9.42298e-12
9.40739e-12
9.39012e-12
9.37116e-12
9.35057e-12
9.32866e-12
9.30623e-12
9.28365e-12
3.82357e-11
3.83316e-11
3.84278e-11
3.85219e-11
3.86104e-11
3.86919e-11
3.87661e-11
3.88331e-11
3.88932e-11
3.89469e-11
3.89946e-11
3.90368e-11
3.9074e-11
3.91067e-11
3.91352e-11
3.91602e-11
3.91818e-11
3.92006e-11
3.92168e-11
3.92307e-11
3.92426e-11
3.92527e-11
3.92612e-11
3.92683e-11
3.92742e-11
3.92789e-11
3.92825e-11
3.92851e-11
3.92869e-11
3.92878e-11
3.92878e-11
3.92869e-11
3.92851e-11
3.92825e-11
3.92789e-11
3.92742e-11
3.92683e-11
3.92612e-11
3.92527e-11
3.92426e-11
3.92307e-11
3.92168e-11
3.92006e-11
3.91818e-11
3.91602e-11
3.91352e-11
3.91067e-11
3.9074e-11
3.90368e-11
3.89946e-11
3.89469e-11
3.88932e-11
3.88331e-11
3.87661e-11
3.86919e-11
3.86104e-11
3.85219e-11
3.84278e-11
3.83316e-11
3.82357e-11
1.58866e-10
1.59276e-10
1.59691e-10
1.60097e-10
1.60479e-10
1.6083e-10
1.6115e-10
1.61439e-10
1.61699e-10
1.6193e-10
1.62136e-10
1.62318e-10
1.62479e-10
1.6262e-10
1.62743e-10
1.6285e-10
1.62944e-10
1.63025e-10
1.63095e-10
1.63155e-10
1.63206e-10
1.63249e-10
1.63286e-10
1.63317e-10
1.63342e-10
1.63362e-10
1.63378e-10
1.63389e-10
1.63397e-10
1.63401e-10
1.63401e-10
1.63397e-10
1.63389e-10
1.63378e-10
1.63362e-10
1.63342e-10
1.63317e-10
1.63286e-10
1.63249e-10
1.63206e-10
1.63155e-10
1.63095e-10
1.63025e-10
1.62944e-10
1.6285e-10
1.62743e-10
1.6262e-10
1.62479e-10
1.62318e-10
1.62136e-10
1.6193e-10
1.61699e-10
1.61439e-10
1.6115e-10
1.6083e-10
1.60479e-10
1.60097e-10
1.59691e-10
1.59276e-10
1.58866e-10
6.63213e-10
6.64968e-10
6.66755e-10
6.68506e-10
6.70152e-10
6.71669e-10
6.7305e-10
6.74297e-10
6.75416e-10
6.76415e-10
6.77302e-10
6.78087e-10
6.78779e-10
6.79387e-10
6.79919e-10
6.80382e-10
6.80785e-10
6.81134e-10
6.81435e-10
6.81693e-10
6.81914e-10
6.82102e-10
6.82261e-10
6.82393e-10
6.82501e-10
6.82588e-10
6.82655e-10
6.82705e-10
6.82737e-10
6.82753e-10
6.82753e-10
6.82737e-10
6.82705e-10
6.82655e-10
6.82588e-10
6.82501e-10
6.82393e-10
6.82261e-10
6.82102e-10
6.81914e-10
6.81693e-10
6.81435e-10
6.81134e-10
6.80785e-10
6.80382e-10
6.79919e-10
6.79387e-10
6.78779e-10
6.78087e-10
6.77302e-10
6.76415e-10
6.75416e-10
6.74297e-10
6.7305e-10
6.71669e-10
6.70152e-10
6.68506e-10
6.66755e-10
6.64968e-10
6.63213e-10
2.76879e-09
2.77628e-09
2.78394e-09
2.79146e-09
2.79852e-09
2.80503e-09
2.81096e-09
2.81631e-09
2.82111e-09
2.82539e-09
2.8292e-09
2.83257e-09
2.83554e-09
2.83814e-09
2.84042e-09
2.84241e-09
2.84414e-09
2.84564e-09
2.84693e-09
2.84804e-09
2.84898e-09
2.84979e-09
2.85047e-09
2.85103e-09
2.8515e-09
2.85187e-09
2.85216e-09
2.85237e-09
2.85251e-09
2.85258e-09
2.85258e-09
2.85251e-09
2.85237e-09
2.85216e-09
2.85187e-09
2.8515e-09
2.85103e-09
2.85047e-09
2.84979e-09
2.84898e-09
2.84804e-09
2.84693e-09
2.84564e-09
2.84414e-09
2.84241e-09
2.84042e-09
2.83814e-09
2.83554e-09
2.83257e-09
2.8292e-09
2.82539e-09
2.82111e-09
2.81631e-09
2.81096e-09
2.80503e-09
2.79852e-09
2.79146e-09
2.78394e-09
2.77628e-09
2.76879e-09
1.14971e-08
1.15288e-08
1.15613e-08
1.15932e-08
1.16232e-08
1.16508e-08
1.16759e-08
1.16987e-08
1.1719e-08
1.17372e-08
1.17534e-08
1.17676e-08
1.17802e-08
1.17913e-08
1.1801e-08
1.18094e-08
1.18167e-08
1.18231e-08
1.18285e-08
1.18333e-08
1.18373e-08
1.18407e-08
1.18436e-08
1.1846e-08
1.18479e-08
1.18495e-08
1.18507e-08
1.18516e-08
1.18522e-08
1.18525e-08
1.18525e-08
1.18522e-08
1.18516e-08
1.18507e-08
1.18495e-08
1.18479e-08
1.1846e-08
1.18436e-08
1.18407e-08
1.18373e-08
1.18333e-08
1.18285e-08
1.18231e-08
1.18167e-08
1.18094e-08
1.1801e-08
1.17913e-08
1.17802e-08
1.17676e-08
1.17534e-08
1.17372e-08
1.1719e-08
1.16987e-08
1.16759e-08
1.16508e-08
1.16232e-08
1.15932e-08
1.15613e-08
1.15288e-08
1.14971e-08
4.71907e-08
4.73222e-08
4.74579e-08
4.75909e-08
4.77159e-08
4.78311e-08
4.79359e-08
4.80305e-08
4.81154e-08
4.81912e-08
4.82585e-08
4.83181e-08
4.83705e-08
4.84166e-08
4.84569e-08
4.8492e-08
4.85226e-08
4.8549e-08
4.85718e-08
4.85914e-08
4.86081e-08
4.86223e-08
4.86343e-08
4.86443e-08
4.86525e-08
4.86591e-08
4.86642e-08
4.86679e-08
4.86704e-08
4.86716e-08
4.86716e-08
4.86704e-08
4.86679e-08
4.86642e-08
4.86591e-08
4.86525e-08
4.86443e-08
4.86343e-08
4.86223e-08
4.86081e-08
4.85914e-08
4.85718e-08
4.8549e-08
4.85226e-08
4.8492e-08
4.84569e-08
4.84166e-08
4.83705e-08
4.83181e-08
4.82585e-08
4.81912e-08
4.81154e-08
4.80305e-08
4.79359e-08
4.78311e-08
4.77159e-08
4.75909e-08
4.74579e-08
4.73222e-08
4.71907e-08
1.90119e-07
1.90653e-07
1.91205e-07
1.91746e-07
1.92254e-07
1.92722e-07
1.93148e-07
1.93532e-07
1.93877e-07
1.94185e-07
1.94458e-07
1.947e-07
1.94913e-07
1.95101e-07
1.95264e-07
1.95407e-07
1.95531e-07
1.95638e-07
1.95731e-07
1.9581e-07
1.95878e-07
1.95936e-07
1.95985e-07
1.96025e-07
1.96059e-07
1.96085e-07
1.96106e-07
1.96121e-07
1.96131e-07
1.96136e-07
1.96136e-07
1.96131e-07
1.96121e-07
1.96106e-07
1.96085e-07
1.96059e-07
1.96025e-07
1.95985e-07
1.95936e-07
1.95878e-07
1.9581e-07
1.95731e-07
1.95638e-07
1.95531e-07
1.95407e-07
1.95264e-07
1.95101e-07
1.94913e-07
1.947e-07
1.94458e-07
1.94185e-07
1.93877e-07
1.93532e-07
1.93148e-07
1.92722e-07
1.92254e-07
1.91746e-07
1.91205e-07
1.90653e-07
1.90119e-07
7.45826e-07
7.47924e-07
7.50097e-07
7.52222e-07
7.54217e-07
7.56054e-07
7.57726e-07
7.59235e-07
7.60589e-07
7.61797e-07
7.6287e-07
7.63819e-07
7.64656e-07
7.6539e-07
7.66032e-07
7.66592e-07
7.67078e-07
7.67499e-07
7.67862e-07
7.68174e-07
7.68441e-07
7.68667e-07
7.68858e-07
7.69017e-07
7.69148e-07
7.69252e-07
7.69334e-07
7.69393e-07
7.69432e-07
7.69451e-07
7.69451e-07
7.69432e-07
7.69393e-07
7.69334e-07
7.69252e-07
7.69148e-07
7.69017e-07
7.68858e-07
7.68667e-07
7.68441e-07
7.68174e-07
7.67862e-07
7.67499e-07
7.67078e-07
7.66592e-07
7.66032e-07
7.6539e-07
7.64656e-07
7.63819e-07
7.6287e-07
7.61797e-07
7.60589e-07
7.59235e-07
7.57726e-07
7.56054e-07
7.54217e-07
7.52222e-07
7.50097e-07
7.47924e-07
7.45826e-07
2.8236e-06
2.8315e-06
2.83968e-06
2.84767e-06
2.85516e-06
2.86206e-06
2.86834e-06
2.87401e-06
2.87909e-06
2.88362e-06
2.88765e-06
2.89122e-06
2.89435e-06
2.89711e-06
2.89952e-06
2.90162e-06
2.90345e-06
2.90503e-06
2.90639e-06
2.90756e-06
2.90856e-06
2.90941e-06
2.91012e-06
2.91072e-06
2.91121e-06
2.9116e-06
2.91191e-06
2.91213e-06
2.91228e-06
2.91235e-06
2.91235e-06
2.91228e-06
2.91213e-06
2.91191e-06
2.9116e-06
2.91121e-06
2.91072e-06
2.91012e-06
2.90941e-06
2.90856e-06
2.90756e-06
2.90639e-06
2.90503e-06
2.90345e-06
2.90162e-06
2.89952e-06
2.89711e-06
2.89435e-06
2.89122e-06
2.88765e-06
2.88362e-06
2.87909e-06
2.87401e-06
2.86834e-06
2.86206e-06
2.85516e-06
2.84767e-06
2.83968e-06
2.8315e-06
2.8236e-06
1.02133e-05
1.02415e-05
1.02707e-05
1.02991e-05
1.03257e-05
1.03502e-05
1.03725e-05
1.03926e-05
1.04107e-05
1.04268e-05
1.04411e-05
1.04537e-05
1.04649e-05
1.04746e-05
1.04832e-05
1.04906e-05
1.04971e-05
1.05027e-05
1.05075e-05
1.05117e-05
1.05152e-05
1.05183e-05
1.05208e-05
1.05229e-05
1.05247e-05
1.0526e-05
1.05271e-05
1.05279e-05
1.05284e-05
1.05287e-05
1.05287e-05
1.05284e-05
1.05279e-05
1.05271e-05
1.0526e-05
1.05247e-05
1.05229e-05
1.05208e-05
1.05183e-05
1.05152e-05
1.05117e-05
1.05075e-05
1.05027e-05
1.04971e-05
1.04906e-05
1.04832e-05
1.04746e-05
1.04649e-05
1.04537e-05
1.04411e-05
1.04268e-05
1.04107e-05
1.03926e-05
1.03725e-05
1.03502e-05
1.03257e-05
1.02991e-05
1.02707e-05
1.02415e-05
1.02133e-05
3.49039e-05
3.49979e-05
3.50948e-05
3.51891e-05
3.52774e-05
3.53587e-05
3.54326e-05
3.54992e-05
3.5559e-05
3.56124e-05
3.56598e-05
3.57016e-05
3.57385e-05
3.57709e-05
3.57992e-05
3.58239e-05
3.58454e-05
3.58639e-05
3.58799e-05
3.58937e-05
3.59054e-05
3.59154e-05
3.59238e-05
3.59308e-05
3.59366e-05
3.59412e-05
3.59448e-05
3.59474e-05
3.59491e-05
3.595e-05
3.595e-05
3.59491e-05
3.59474e-05
3.59448e-05
3.59412e-05
3.59366e-05
3.59308e-05
3.59238e-05
3.59154e-05
3.59054e-05
3.58937e-05
3.58799e-05
3.58639e-05
3.58454e-05
3.58239e-05
3.57992e-05
3.57709e-05
3.57385e-05
3.57016e-05
3.56598e-05
3.56124e-05
3.5559e-05
3.54992e-05
3.54326e-05
3.53587e-05
3.52774e-05
3.51891e-05
3.50948e-05
3.49979e-05
3.49039e-05
0.000111308
0.000111597
0.000111893
0.000112181
0.000112451
0.000112698
0.000112923
0.000113127
0.000113309
0.000113471
0.000113616
0.000113743
0.000113856
0.000113954
0.00011404
0.000114116
0.000114181
0.000114237
0.000114286
0.000114328
0.000114364
0.000114394
0.00011442
0.000114441
0.000114458
0.000114473
0.000114483
0.000114491
0.000114497
0.000114499
0.000114499
0.000114497
0.000114491
0.000114483
0.000114473
0.000114458
0.000114441
0.00011442
0.000114394
0.000114364
0.000114328
0.000114286
0.000114237
0.000114181
0.000114116
0.00011404
0.000113954
0.000113856
0.000113743
0.000113616
0.000113471
0.000113309
0.000113127
0.000112923
0.000112698
0.000112451
0.000112181
0.000111893
0.000111597
0.000111308
0.000326753
0.000327557
0.000328378
0.000329173
0.000329916
0.000330599
0.000331219
0.000331779
0.000332281
0.000332728
0.000333125
0.000333477
0.000333786
0.000334058
0.000334295
0.000334502
0.000334681
0.000334837
0.000334971
0.000335086
0.000335185
0.000335268
0.000335339
0.000335397
0.000335446
0.000335484
0.000335514
0.000335536
0.00033555
0.000335558
0.000335558
0.00033555
0.000335536
0.000335514
0.000335484
0.000335446
0.000335397
0.000335339
0.000335268
0.000335185
0.000335086
0.000334971
0.000334837
0.000334681
0.000334502
0.000334295
0.000334058
0.000333786
0.000333477
0.000333125
0.000332728
0.000332281
0.000331779
0.000331219
0.000330599
0.000329916
0.000329173
0.000328378
0.000327557
0.000326753
0.000870453
0.000872444
0.000874463
0.000876411
0.00087823
0.000879901
0.000881419
0.000882787
0.000884014
0.000885108
0.000886079
0.000886937
0.000887693
0.000888356
0.000888936
0.000889441
0.00088988
0.00089026
0.000890588
0.000890869
0.00089111
0.000891314
0.000891486
0.000891629
0.000891747
0.000891841
0.000891914
0.000891968
0.000892003
0.00089202
0.00089202
0.000892003
0.000891968
0.000891914
0.000891841
0.000891747
0.000891629
0.000891486
0.000891314
0.00089111
0.000890869
0.000890588
0.00089026
0.00088988
0.000889441
0.000888936
0.000888356
0.000887693
0.000886937
0.000886079
0.000885108
0.000884014
0.000882787
0.000881419
0.000879901
0.00087823
0.000876411
0.000874463
0.000872444
0.000870453
0.00207568
0.00207999
0.00208432
0.00208848
0.00209237
0.00209593
0.00209917
0.00210209
0.0021047
0.00210703
0.0021091
0.00211093
0.00211254
0.00211395
0.00211519
0.00211626
0.0021172
0.00211801
0.00211871
0.0021193
0.00211982
0.00212025
0.00212062
0.00212092
0.00212117
0.00212137
0.00212153
0.00212164
0.00212172
0.00212176
0.00212176
0.00212172
0.00212164
0.00212153
0.00212137
0.00212117
0.00212092
0.00212062
0.00212025
0.00211982
0.0021193
0.00211871
0.00211801
0.0021172
0.00211626
0.00211519
0.00211395
0.00211254
0.00211093
0.0021091
0.00210703
0.0021047
0.00210209
0.00209917
0.00209593
0.00209237
0.00208848
0.00208432
0.00207999
0.00207568
0.00438427
0.0043923
0.0044003
0.00440797
0.0044151
0.00442165
0.00442759
0.00443294
0.00443774
0.00444201
0.00444581
0.00444916
0.00445212
0.00445471
0.00445697
0.00445894
0.00446066
0.00446214
0.00446342
0.00446452
0.00446546
0.00446625
0.00446692
0.00446748
0.00446794
0.00446831
0.0044686
0.00446881
0.00446894
0.00446901
0.00446901
0.00446894
0.00446881
0.0044686
0.00446831
0.00446794
0.00446748
0.00446692
0.00446625
0.00446546
0.00446452
0.00446342
0.00446214
0.00446066
0.00445894
0.00445697
0.00445471
0.00445212
0.00444916
0.00444581
0.00444201
0.00443774
0.00443294
0.00442759
0.00442165
0.0044151
0.00440797
0.0044003
0.0043923
0.00438427
0.00817062
0.0081835
0.0081962
0.00820831
0.00821958
0.00822989
0.00823926
0.00824769
0.00825524
0.00826198
0.00826795
0.00827323
0.00827788
0.00828196
0.00828552
0.00828863
0.00829133
0.00829366
0.00829567
0.0082974
0.00829888
0.00830014
0.00830119
0.00830207
0.0083028
0.00830338
0.00830383
0.00830416
0.00830437
0.00830448
0.00830448
0.00830437
0.00830416
0.00830383
0.00830338
0.0083028
0.00830207
0.00830119
0.00830014
0.00829888
0.0082974
0.00829567
0.00829366
0.00829133
0.00828863
0.00828552
0.00828196
0.00827788
0.00827323
0.00826795
0.00826198
0.00825524
0.00824769
0.00823926
0.00822989
0.00821958
0.00820831
0.0081962
0.0081835
0.00817062
0.0135075
0.0135255
0.013543
0.0135597