/*--------------------------------*- C++ -*----------------------------------*\
| =========                 |                                                 |
| \\      /  F ield         | foam-extend: Open Source CFD                    |
|  \\    /   O peration     | Version:     4.0                                |
|   \\  /    A nd           | Web:         http://www.foam-extend.org         |
|    \\/     M anipulation  |                                                 |
\*---------------------------------------------------------------------------*/
FoamFile
{
    version     2.0;
    format      ascii;
    class       volScalarField;
    location    "1670";
    object      psiE;
}
// * * * * * * * * * * * * * * * * * * * * * * * * * * * * * * * * * * * * * //

dimensions      [0 0 0 0 0 0 0];

internalField   nonuniform List<scalar> 
6960
(
0.337859
0.337865
0.337873
0.33788
0.337887
0.337894
0.3379
0.337905
0.33791
0.337914
0.337918
0.337921
0.337924
0.337927
0.337929
0.337931
0.337933
0.337934
0.337936
0.337937
0.337938
0.337939
0.337939
0.33794
0.33794
0.337941
0.337941
0.337941
0.337941
0.337941
0.337941
0.337941
0.337941
0.337941
0.337941
0.33794
0.33794
0.337939
0.337939
0.337938
0.337937
0.337936
0.337934
0.337933
0.337931
0.337929
0.337927
0.337924
0.337921
0.337918
0.337914
0.33791
0.337905
0.3379
0.337894
0.337887
0.33788
0.337873
0.337865
0.337859
0.847807
0.847832
0.847862
0.847892
0.847921
0.847948
0.847972
0.847994
0.848013
0.848031
0.848046
0.84806
0.848072
0.848082
0.848092
0.8481
0.848107
0.848113
0.848118
0.848122
0.848126
0.84813
0.848132
0.848135
0.848136
0.848138
0.848139
0.84814
0.84814
0.848141
0.848141
0.84814
0.84814
0.848139
0.848138
0.848136
0.848135
0.848132
0.84813
0.848126
0.848122
0.848118
0.848113
0.848107
0.8481
0.848092
0.848082
0.848072
0.84806
0.848046
0.848031
0.848013
0.847994
0.847972
0.847948
0.847921
0.847892
0.847862
0.847832
0.847807
1.31146
1.3115
1.31156
1.31162
1.31168
1.31173
1.31178
1.31182
1.31186
1.3119
1.31193
1.31195
1.31198
1.312
1.31202
1.31203
1.31205
1.31206
1.31207
1.31208
1.31208
1.31209
1.3121
1.3121
1.3121
1.31211
1.31211
1.31211
1.31211
1.31211
1.31211
1.31211
1.31211
1.31211
1.31211
1.3121
1.3121
1.3121
1.31209
1.31208
1.31208
1.31207
1.31206
1.31205
1.31203
1.31202
1.312
1.31198
1.31195
1.31193
1.3119
1.31186
1.31182
1.31178
1.31173
1.31168
1.31162
1.31156
1.3115
1.31146
1.76337
1.76344
1.76354
1.76363
1.76372
1.7638
1.76388
1.76395
1.76401
1.76406
1.76411
1.76415
1.76419
1.76422
1.76425
1.76427
1.76429
1.76431
1.76433
1.76434
1.76435
1.76436
1.76437
1.76438
1.76439
1.76439
1.76439
1.7644
1.7644
1.7644
1.7644
1.7644
1.7644
1.76439
1.76439
1.76439
1.76438
1.76437
1.76436
1.76435
1.76434
1.76433
1.76431
1.76429
1.76427
1.76425
1.76422
1.76419
1.76415
1.76411
1.76406
1.76401
1.76395
1.76388
1.7638
1.76372
1.76363
1.76354
1.76344
1.76337
2.21655
2.21666
2.21679
2.21692
2.21705
2.21716
2.21726
2.21736
2.21744
2.21752
2.21758
2.21764
2.21769
2.21774
2.21778
2.21781
2.21784
2.21787
2.21789
2.21791
2.21793
2.21794
2.21795
2.21796
2.21797
2.21798
2.21798
2.21799
2.21799
2.21799
2.21799
2.21799
2.21799
2.21798
2.21798
2.21797
2.21796
2.21795
2.21794
2.21793
2.21791
2.21789
2.21787
2.21784
2.21781
2.21778
2.21774
2.21769
2.21764
2.21758
2.21752
2.21744
2.21736
2.21726
2.21716
2.21705
2.21692
2.21679
2.21666
2.21655
2.67618
2.67632
2.67649
2.67666
2.67682
2.67697
2.6771
2.67722
2.67733
2.67743
2.67751
2.67759
2.67766
2.67772
2.67777
2.67781
2.67785
2.67788
2.67791
2.67794
2.67796
2.67798
2.67799
2.678
2.67802
2.67802
2.67803
2.67803
2.67804
2.67804
2.67804
2.67804
2.67803
2.67803
2.67802
2.67802
2.678
2.67799
2.67798
2.67796
2.67794
2.67791
2.67788
2.67785
2.67781
2.67777
2.67772
2.67766
2.67759
2.67751
2.67743
2.67733
2.67722
2.6771
2.67697
2.67682
2.67666
2.67649
2.67632
2.67618
3.14432
3.14449
3.1447
3.14491
3.14511
3.14529
3.14546
3.14561
3.14574
3.14586
3.14597
3.14606
3.14614
3.14621
3.14628
3.14633
3.14638
3.14642
3.14646
3.14649
3.14651
3.14654
3.14656
3.14657
3.14658
3.14659
3.1466
3.14661
3.14661
3.14661
3.14661
3.14661
3.14661
3.1466
3.14659
3.14658
3.14657
3.14656
3.14654
3.14651
3.14649
3.14646
3.14642
3.14638
3.14633
3.14628
3.14621
3.14614
3.14606
3.14597
3.14586
3.14574
3.14561
3.14546
3.14529
3.14511
3.14491
3.1447
3.14449
3.14432
3.62179
3.62199
3.62224
3.62249
3.62273
3.62295
3.62314
3.62332
3.62348
3.62363
3.62375
3.62386
3.62396
3.62405
3.62412
3.62419
3.62425
3.6243
3.62434
3.62438
3.62441
3.62443
3.62446
3.62447
3.62449
3.6245
3.62451
3.62452
3.62452
3.62453
3.62453
3.62452
3.62452
3.62451
3.6245
3.62449
3.62447
3.62446
3.62443
3.62441
3.62438
3.62434
3.6243
3.62425
3.62419
3.62412
3.62405
3.62396
3.62386
3.62375
3.62363
3.62348
3.62332
3.62314
3.62295
3.62273
3.62249
3.62224
3.62199
3.62179
4.1089
4.10913
4.10942
4.10971
4.10998
4.11024
4.11047
4.11068
4.11086
4.11103
4.11118
4.11131
4.11142
4.11152
4.11161
4.11169
4.11175
4.11181
4.11186
4.1119
4.11194
4.11197
4.112
4.11202
4.11204
4.11205
4.11206
4.11207
4.11207
4.11208
4.11208
4.11207
4.11207
4.11206
4.11205
4.11204
4.11202
4.112
4.11197
4.11194
4.1119
4.11186
4.11181
4.11175
4.11169
4.11161
4.11152
4.11142
4.11131
4.11118
4.11103
4.11086
4.11068
4.11047
4.11024
4.10998
4.10971
4.10942
4.10913
4.1089
4.60573
4.606
4.60632
4.60666
4.60697
4.60726
4.60752
4.60776
4.60797
4.60816
4.60833
4.60848
4.60861
4.60873
4.60883
4.60891
4.60899
4.60906
4.60911
4.60916
4.6092
4.60924
4.60927
4.60929
4.60931
4.60933
4.60934
4.60935
4.60936
4.60936
4.60936
4.60936
4.60935
4.60934
4.60933
4.60931
4.60929
4.60927
4.60924
4.6092
4.60916
4.60911
4.60906
4.60899
4.60891
4.60883
4.60873
4.60861
4.60848
4.60833
4.60816
4.60797
4.60776
4.60752
4.60726
4.60697
4.60666
4.60632
4.606
4.60573
5.11229
5.11258
5.11295
5.11333
5.11368
5.11401
5.1143
5.11457
5.11481
5.11502
5.11521
5.11538
5.11553
5.11566
5.11577
5.11587
5.11595
5.11603
5.11609
5.11614
5.11619
5.11623
5.11626
5.11629
5.11631
5.11633
5.11635
5.11636
5.11636
5.11637
5.11637
5.11636
5.11636
5.11635
5.11633
5.11631
5.11629
5.11626
5.11623
5.11619
5.11614
5.11609
5.11603
5.11595
5.11587
5.11577
5.11566
5.11553
5.11538
5.11521
5.11502
5.11481
5.11457
5.1143
5.11401
5.11368
5.11333
5.11295
5.11258
5.11229
5.62851
5.62883
5.62924
5.62966
5.63005
5.63041
5.63074
5.63104
5.63131
5.63154
5.63175
5.63194
5.6321
5.63225
5.63237
5.63248
5.63258
5.63266
5.63273
5.63279
5.63284
5.63289
5.63292
5.63295
5.63298
5.633
5.63302
5.63303
5.63303
5.63304
5.63304
5.63303
5.63303
5.63302
5.633
5.63298
5.63295
5.63292
5.63289
5.63284
5.63279
5.63273
5.63266
5.63258
5.63248
5.63237
5.63225
5.6321
5.63194
5.63175
5.63154
5.63131
5.63104
5.63074
5.63041
5.63005
5.62966
5.62924
5.62883
5.62851
6.15428
6.15464
6.15509
6.15555
6.15598
6.15638
6.15675
6.15707
6.15737
6.15763
6.15786
6.15806
6.15824
6.1584
6.15854
6.15866
6.15876
6.15885
6.15893
6.159
6.15906
6.1591
6.15914
6.15918
6.15921
6.15923
6.15925
6.15926
6.15927
6.15927
6.15927
6.15927
6.15926
6.15925
6.15923
6.15921
6.15918
6.15914
6.1591
6.15906
6.159
6.15893
6.15885
6.15876
6.15866
6.15854
6.1584
6.15824
6.15806
6.15786
6.15763
6.15737
6.15707
6.15675
6.15638
6.15598
6.15555
6.15509
6.15464
6.15428
6.68948
6.68987
6.69037
6.69086
6.69134
6.69177
6.69217
6.69253
6.69284
6.69313
6.69338
6.69361
6.6938
6.69397
6.69413
6.69426
6.69437
6.69447
6.69455
6.69463
6.69469
6.69474
6.69479
6.69482
6.69485
6.69488
6.6949
6.69491
6.69492
6.69493
6.69493
6.69492
6.69491
6.6949
6.69488
6.69485
6.69482
6.69479
6.69474
6.69469
6.69463
6.69455
6.69447
6.69437
6.69426
6.69413
6.69397
6.6938
6.69361
6.69338
6.69313
6.69284
6.69253
6.69217
6.69177
6.69134
6.69086
6.69037
6.68987
6.68948
7.23392
7.23434
7.23488
7.23542
7.23593
7.2364
7.23683
7.23722
7.23756
7.23787
7.23815
7.23839
7.2386
7.23879
7.23895
7.23909
7.23922
7.23932
7.23942
7.23949
7.23956
7.23962
7.23967
7.23971
7.23974
7.23977
7.23979
7.2398
7.23981
7.23982
7.23982
7.23981
7.2398
7.23979
7.23977
7.23974
7.23971
7.23967
7.23962
7.23956
7.23949
7.23942
7.23932
7.23922
7.23909
7.23895
7.23879
7.2386
7.23839
7.23815
7.23787
7.23756
7.23722
7.23683
7.2364
7.23593
7.23542
7.23488
7.23434
7.23392
7.78737
7.78783
7.7884
7.78898
7.78954
7.79004
7.79051
7.79092
7.7913
7.79163
7.79192
7.79218
7.79241
7.79261
7.79279
7.79294
7.79308
7.79319
7.79329
7.79337
7.79345
7.79351
7.79356
7.7936
7.79364
7.79367
7.79369
7.79371
7.79372
7.79372
7.79372
7.79372
7.79371
7.79369
7.79367
7.79364
7.7936
7.79356
7.79351
7.79345
7.79337
7.79329
7.79319
7.79308
7.79294
7.79279
7.79261
7.79241
7.79218
7.79192
7.79163
7.7913
7.79092
7.79051
7.79004
7.78954
7.78898
7.7884
7.78783
7.78737
8.34957
8.35006
8.35067
8.35129
8.35188
8.35243
8.35292
8.35337
8.35377
8.35412
8.35444
8.35472
8.35496
8.35518
8.35537
8.35553
8.35567
8.3558
8.3559
8.35599
8.35607
8.35614
8.35619
8.35624
8.35628
8.35631
8.35633
8.35635
8.35636
8.35637
8.35637
8.35636
8.35635
8.35633
8.35631
8.35628
8.35624
8.35619
8.35614
8.35607
8.35599
8.3559
8.3558
8.35567
8.35553
8.35537
8.35518
8.35496
8.35472
8.35444
8.35412
8.35377
8.35337
8.35292
8.35243
8.35188
8.35129
8.35067
8.35006
8.34957
8.92017
8.92069
8.92135
8.92201
8.92264
8.92322
8.92375
8.92422
8.92465
8.92503
8.92536
8.92566
8.92592
8.92615
8.92635
8.92653
8.92668
8.92681
8.92692
8.92702
8.9271
8.92717
8.92723
8.92728
8.92732
8.92735
8.92738
8.9274
8.92741
8.92742
8.92742
8.92741
8.9274
8.92738
8.92735
8.92732
8.92728
8.92723
8.92717
8.9271
8.92702
8.92692
8.92681
8.92668
8.92653
8.92635
8.92615
8.92592
8.92566
8.92536
8.92503
8.92465
8.92422
8.92375
8.92322
8.92264
8.92201
8.92135
8.92069
8.92017
9.4988
9.49935
9.50005
9.50075
9.50142
9.50203
9.50259
9.50309
9.50354
9.50395
9.5043
9.50462
9.5049
9.50514
9.50535
9.50554
9.5057
9.50584
9.50596
9.50606
9.50615
9.50622
9.50629
9.50634
9.50638
9.50642
9.50644
9.50646
9.50648
9.50648
9.50648
9.50648
9.50646
9.50644
9.50642
9.50638
9.50634
9.50629
9.50622
9.50615
9.50606
9.50596
9.50584
9.5057
9.50554
9.50535
9.50514
9.5049
9.50462
9.5043
9.50395
9.50354
9.50309
9.50259
9.50203
9.50142
9.50075
9.50005
9.49935
9.4988
10.085
10.0856
10.0863
10.087
10.0878
10.0884
10.089
10.0895
10.09
10.0904
10.0908
10.0911
10.0914
10.0917
10.0919
10.0921
10.0923
10.0924
10.0925
10.0927
10.0927
10.0928
10.0929
10.0929
10.093
10.093
10.0931
10.0931
10.0931
10.0931
10.0931
10.0931
10.0931
10.0931
10.093
10.093
10.0929
10.0929
10.0928
10.0927
10.0927
10.0925
10.0924
10.0923
10.0921
10.0919
10.0917
10.0914
10.0911
10.0908
10.0904
10.09
10.0895
10.089
10.0884
10.0878
10.087
10.0863
10.0856
10.085
10.6782
10.6788
10.6796
10.6804
10.6811
10.6818
10.6824
10.683
10.6835
10.6839
10.6843
10.6847
10.685
10.6852
10.6855
10.6857
10.6859
10.686
10.6861
10.6863
10.6864
10.6864
10.6865
10.6866
10.6866
10.6867
10.6867
10.6867
10.6867
10.6867
10.6867
10.6867
10.6867
10.6867
10.6867
10.6866
10.6866
10.6865
10.6864
10.6864
10.6863
10.6861
10.686
10.6859
10.6857
10.6855
10.6852
10.685
10.6847
10.6843
10.6839
10.6835
10.683
10.6824
10.6818
10.6811
10.6804
10.6796
10.6788
10.6782
11.2778
11.2785
11.2793
11.2801
11.2809
11.2816
11.2822
11.2828
11.2833
11.2838
11.2842
11.2846
11.2849
11.2852
11.2854
11.2856
11.2858
11.286
11.2861
11.2863
11.2864
11.2864
11.2865
11.2866
11.2866
11.2867
11.2867
11.2867
11.2867
11.2867
11.2867
11.2867
11.2867
11.2867
11.2867
11.2866
11.2866
11.2865
11.2864
11.2864
11.2863
11.2861
11.286
11.2858
11.2856
11.2854
11.2852
11.2849
11.2846
11.2842
11.2838
11.2833
11.2828
11.2822
11.2816
11.2809
11.2801
11.2793
11.2785
11.2778
11.8831
11.8838
11.8846
11.8855
11.8863
11.887
11.8877
11.8883
11.8889
11.8893
11.8898
11.8902
11.8905
11.8908
11.891
11.8913
11.8915
11.8916
11.8918
11.8919
11.892
11.8921
11.8922
11.8922
11.8923
11.8923
11.8924
11.8924
11.8924
11.8924
11.8924
11.8924
11.8924
11.8924
11.8923
11.8923
11.8922
11.8922
11.8921
11.892
11.8919
11.8918
11.8916
11.8915
11.8913
11.891
11.8908
11.8905
11.8902
11.8898
11.8893
11.8889
11.8883
11.8877
11.887
11.8863
11.8855
11.8846
11.8838
11.8831
12.4932
12.4939
12.4948
12.4957
12.4965
12.4973
12.498
12.4986
12.4992
12.4997
12.5002
12.5006
12.5009
12.5012
12.5015
12.5017
12.5019
12.5021
12.5022
12.5024
12.5025
12.5026
12.5027
12.5027
12.5028
12.5028
12.5029
12.5029
12.5029
12.5029
12.5029
12.5029
12.5029
12.5029
12.5028
12.5028
12.5027
12.5027
12.5026
12.5025
12.5024
12.5022
12.5021
12.5019
12.5017
12.5015
12.5012
12.5009
12.5006
12.5002
12.4997
12.4992
12.4986
12.498
12.4973
12.4965
12.4957
12.4948
12.4939
12.4932
13.1072
13.1079
13.1088
13.1098
13.1106
13.1114
13.1122
13.1128
13.1134
13.1139
13.1144
13.1148
13.1152
13.1155
13.1158
13.116
13.1162
13.1164
13.1166
13.1167
13.1168
13.1169
13.117
13.1171
13.1171
13.1172
13.1172
13.1172
13.1172
13.1172
13.1172
13.1172
13.1172
13.1172
13.1172
13.1171
13.1171
13.117
13.1169
13.1168
13.1167
13.1166
13.1164
13.1162
13.116
13.1158
13.1155
13.1152
13.1148
13.1144
13.1139
13.1134
13.1128
13.1122
13.1114
13.1106
13.1098
13.1088
13.1079
13.1072
13.724
13.7247
13.7257
13.7266
13.7275
13.7283
13.7291
13.7298
13.7304
13.7309
13.7314
13.7318
13.7322
13.7325
13.7328
13.733
13.7333
13.7334
13.7336
13.7337
13.7339
13.734
13.7341
13.7341
13.7342
13.7342
13.7343
13.7343
13.7343
13.7343
13.7343
13.7343
13.7343
13.7343
13.7342
13.7342
13.7341
13.7341
13.734
13.7339
13.7337
13.7336
13.7334
13.7333
13.733
13.7328
13.7325
13.7322
13.7318
13.7314
13.7309
13.7304
13.7298
13.7291
13.7283
13.7275
13.7266
13.7257
13.7247
13.724
14.3422
14.343
14.3439
14.3449
14.3458
14.3467
14.3475
14.3482
14.3488
14.3493
14.3498
14.3503
14.3506
14.351
14.3513
14.3515
14.3518
14.3519
14.3521
14.3523
14.3524
14.3525
14.3526
14.3526
14.3527
14.3527
14.3528
14.3528
14.3528
14.3528
14.3528
14.3528
14.3528
14.3528
14.3527
14.3527
14.3526
14.3526
14.3525
14.3524
14.3523
14.3521
14.3519
14.3518
14.3515
14.3513
14.351
14.3506
14.3503
14.3498
14.3493
14.3488
14.3482
14.3475
14.3467
14.3458
14.3449
14.3439
14.343
14.3422
14.9605
14.9612
14.9622
14.9632
14.9642
14.965
14.9658
14.9665
14.9672
14.9677
14.9683
14.9687
14.9691
14.9694
14.9697
14.97
14.9702
14.9704
14.9706
14.9707
14.9709
14.971
14.9711
14.9711
14.9712
14.9712
14.9713
14.9713
14.9713
14.9713
14.9713
14.9713
14.9713
14.9713
14.9712
14.9712
14.9711
14.9711
14.971
14.9709
14.9707
14.9706
14.9704
14.9702
14.97
14.9697
14.9694
14.9691
14.9687
14.9683
14.9677
14.9672
14.9665
14.9658
14.965
14.9642
14.9632
14.9622
14.9612
14.9605
15.577
15.5778
15.5788
15.5798
15.5808
15.5817
15.5825
15.5832
15.5839
15.5844
15.585
15.5854
15.5858
15.5862
15.5865
15.5867
15.587
15.5872
15.5873
15.5875
15.5876
15.5877
15.5878
15.5879
15.588
15.588
15.588
15.5881
15.5881
15.5881
15.5881
15.5881
15.5881
15.588
15.588
15.588
15.5879
15.5878
15.5877
15.5876
15.5875
15.5873
15.5872
15.587
15.5867
15.5865
15.5862
15.5858
15.5854
15.585
15.5844
15.5839
15.5832
15.5825
15.5817
15.5808
15.5798
15.5788
15.5778
15.577
16.1899
16.1908
16.1918
16.1928
16.1938
16.1947
16.1955
16.1962
16.1969
16.1975
16.198
16.1985
16.1989
16.1992
16.1995
16.1998
16.2
16.2002
16.2004
16.2006
16.2007
16.2008
16.2009
16.201
16.201
16.2011
16.2011
16.2011
16.2012
16.2012
16.2012
16.2012
16.2011
16.2011
16.2011
16.201
16.201
16.2009
16.2008
16.2007
16.2006
16.2004
16.2002
16.2
16.1998
16.1995
16.1992
16.1989
16.1985
16.198
16.1975
16.1969
16.1962
16.1955
16.1947
16.1938
16.1928
16.1918
16.1908
16.1899
16.7969
16.7978
16.7988
16.7998
16.8008
16.8017
16.8025
16.8033
16.804
16.8045
16.8051
16.8055
16.8059
16.8063
16.8066
16.8069
16.8071
16.8073
16.8075
16.8077
16.8078
16.8079
16.808
16.8081
16.8081
16.8082
16.8082
16.8082
16.8083
16.8083
16.8083
16.8083
16.8082
16.8082
16.8082
16.8081
16.8081
16.808
16.8079
16.8078
16.8077
16.8075
16.8073
16.8071
16.8069
16.8066
16.8063
16.8059
16.8055
16.8051
16.8045
16.804
16.8033
16.8025
16.8017
16.8008
16.7998
16.7988
16.7978
16.7969
17.3954
17.3962
17.3973
17.3983
17.3993
17.4002
17.401
17.4018
17.4024
17.403
17.4035
17.404
17.4044
17.4048
17.4051
17.4053
17.4056
17.4058
17.406
17.4061
17.4063
17.4064
17.4065
17.4065
17.4066
17.4066
17.4067
17.4067
17.4067
17.4067
17.4067
17.4067
17.4067
17.4067
17.4066
17.4066
17.4065
17.4065
17.4064
17.4063
17.4061
17.406
17.4058
17.4056
17.4053
17.4051
17.4048
17.4044
17.404
17.4035
17.403
17.4024
17.4018
17.401
17.4002
17.3993
17.3983
17.3973
17.3962
17.3954
17.9822
17.983
17.9841
17.9851
17.9861
17.987
17.9878
17.9885
17.9892
17.9898
17.9903
17.9908
17.9912
17.9915
17.9918
17.9921
17.9923
17.9925
17.9927
17.9929
17.993
17.9931
17.9932
17.9933
17.9933
17.9934
17.9934
17.9935
17.9935
17.9935
17.9935
17.9935
17.9935
17.9934
17.9934
17.9933
17.9933
17.9932
17.9931
17.993
17.9929
17.9927
17.9925
17.9923
17.9921
17.9918
17.9915
17.9912
17.9908
17.9903
17.9898
17.9892
17.9885
17.9878
17.987
17.9861
17.9851
17.9841
17.983
17.9822
18.5537
18.5546
18.5556
18.5566
18.5576
18.5584
18.5592
18.56
18.5606
18.5612
18.5617
18.5622
18.5626
18.5629
18.5632
18.5635
18.5637
18.5639
18.5641
18.5642
18.5644
18.5645
18.5646
18.5646
18.5647
18.5647
18.5648
18.5648
18.5648
18.5648
18.5648
18.5648
18.5648
18.5648
18.5647
18.5647
18.5646
18.5646
18.5645
18.5644
18.5642
18.5641
18.5639
18.5637
18.5635
18.5632
18.5629
18.5626
18.5622
18.5617
18.5612
18.5606
18.56
18.5592
18.5584
18.5576
18.5566
18.5556
18.5546
18.5537
19.1057
19.1065
19.1075
19.1085
19.1094
19.1103
19.111
19.1117
19.1124
19.1129
19.1134
19.1139
19.1143
19.1146
19.1149
19.1152
19.1154
19.1156
19.1158
19.1159
19.116
19.1161
19.1162
19.1163
19.1164
19.1164
19.1164
19.1165
19.1165
19.1165
19.1165
19.1165
19.1165
19.1164
19.1164
19.1164
19.1163
19.1162
19.1161
19.116
19.1159
19.1158
19.1156
19.1154
19.1152
19.1149
19.1146
19.1143
19.1139
19.1134
19.1129
19.1124
19.1117
19.111
19.1103
19.1094
19.1085
19.1075
19.1065
19.1057
19.6329
19.6337
19.6347
19.6356
19.6365
19.6373
19.6381
19.6387
19.6393
19.6399
19.6404
19.6408
19.6412
19.6415
19.6418
19.642
19.6422
19.6424
19.6426
19.6427
19.6428
19.6429
19.643
19.6431
19.6432
19.6432
19.6432
19.6433
19.6433
19.6433
19.6433
19.6433
19.6433
19.6432
19.6432
19.6432
19.6431
19.643
19.6429
19.6428
19.6427
19.6426
19.6424
19.6422
19.642
19.6418
19.6415
19.6412
19.6408
19.6404
19.6399
19.6393
19.6387
19.6381
19.6373
19.6365
19.6356
19.6347
19.6337
19.6329
20.1294
20.1302
20.1311
20.1319
20.1328
20.1336
20.1343
20.1349
20.1355
20.136
20.1364
20.1368
20.1372
20.1375
20.1377
20.138
20.1382
20.1383
20.1385
20.1386
20.1387
20.1388
20.1389
20.139
20.139
20.1391
20.1391
20.1391
20.1392
20.1392
20.1392
20.1392
20.1391
20.1391
20.1391
20.139
20.139
20.1389
20.1388
20.1387
20.1386
20.1385
20.1383
20.1382
20.138
20.1377
20.1375
20.1372
20.1368
20.1364
20.136
20.1355
20.1349
20.1343
20.1336
20.1328
20.1319
20.1311
20.1302
20.1294
20.5882
20.5889
20.5897
20.5905
20.5913
20.592
20.5927
20.5932
20.5938
20.5942
20.5946
20.595
20.5953
20.5956
20.5958
20.596
20.5962
20.5964
20.5965
20.5967
20.5968
20.5968
20.5969
20.597
20.597
20.5971
20.5971
20.5971
20.5971
20.5971
20.5971
20.5971
20.5971
20.5971
20.5971
20.597
20.597
20.5969
20.5968
20.5968
20.5967
20.5965
20.5964
20.5962
20.596
20.5958
20.5956
20.5953
20.595
20.5946
20.5942
20.5938
20.5932
20.5927
20.592
20.5913
20.5905
20.5897
20.5889
20.5882
21.002
21.0026
21.0033
21.004
21.0047
21.0053
21.0059
21.0064
21.0069
21.0073
21.0076
21.0079
21.0082
21.0085
21.0087
21.0089
21.009
21.0092
21.0093
21.0094
21.0095
21.0096
21.0097
21.0097
21.0097
21.0098
21.0098
21.0098
21.0098
21.0099
21.0099
21.0098
21.0098
21.0098
21.0098
21.0097
21.0097
21.0097
21.0096
21.0095
21.0094
21.0093
21.0092
21.009
21.0089
21.0087
21.0085
21.0082
21.0079
21.0076
21.0073
21.0069
21.0064
21.0059
21.0053
21.0047
21.004
21.0033
21.0026
21.002
21.364
21.3645
21.3651
21.3657
21.3663
21.3668
21.3673
21.3677
21.3681
21.3685
21.3688
21.369
21.3693
21.3695
21.3697
21.3698
21.37
21.3701
21.3702
21.3703
21.3704
21.3704
21.3705
21.3705
21.3706
21.3706
21.3706
21.3706
21.3706
21.3706
21.3706
21.3706
21.3706
21.3706
21.3706
21.3706
21.3705
21.3705
21.3704
21.3704
21.3703
21.3702
21.3701
21.37
21.3698
21.3697
21.3695
21.3693
21.369
21.3688
21.3685
21.3681
21.3677
21.3673
21.3668
21.3663
21.3657
21.3651
21.3645
21.364
21.6702
21.6706
21.6711
21.6716
21.672
21.6724
21.6728
21.6732
21.6735
21.6738
21.674
21.6742
21.6744
21.6746
21.6747
21.6749
21.675
21.6751
21.6752
21.6752
21.6753
21.6754
21.6754
21.6754
21.6755
21.6755
21.6755
21.6755
21.6755
21.6755
21.6755
21.6755
21.6755
21.6755
21.6755
21.6755
21.6754
21.6754
21.6754
21.6753
21.6752
21.6752
21.6751
21.675
21.6749
21.6747
21.6746
21.6744
21.6742
21.674
21.6738
21.6735
21.6732
21.6728
21.6724
21.672
21.6716
21.6711
21.6706
21.6702
21.921
21.9212
21.9216
21.922
21.9223
21.9227
21.923
21.9232
21.9235
21.9237
21.9239
21.9241
21.9242
21.9243
21.9244
21.9245
21.9246
21.9247
21.9248
21.9248
21.9249
21.9249
21.925
21.925
21.925
21.925
21.925
21.9251
21.9251
21.9251
21.9251
21.9251
21.9251
21.925
21.925
21.925
21.925
21.925
21.9249
21.9249
21.9248
21.9248
21.9247
21.9246
21.9245
21.9244
21.9243
21.9242
21.9241
21.9239
21.9237
21.9235
21.9232
21.923
21.9227
21.9223
21.922
21.9216
21.9212
21.921
22.1217
22.1219
22.1222
22.1224
22.1227
22.1229
22.1232
22.1234
22.1235
22.1237
22.1238
22.124
22.1241
22.1242
22.1243
22.1243
22.1244
22.1244
22.1245
22.1245
22.1246
22.1246
22.1246
22.1247
22.1247
22.1247
22.1247
22.1247
22.1247
22.1247
22.1247
22.1247
22.1247
22.1247
22.1247
22.1247
22.1247
22.1246
22.1246
22.1246
22.1245
22.1245
22.1244
22.1244
22.1243
22.1243
22.1242
22.1241
22.124
22.1238
22.1237
22.1235
22.1234
22.1232
22.1229
22.1227
22.1224
22.1222
22.1219
22.1217
22.2813
22.2815
22.2816
22.2818
22.282
22.2822
22.2823
22.2825
22.2826
22.2827
22.2828
22.2829
22.283
22.2831
22.2831
22.2832
22.2832
22.2833
22.2833
22.2833
22.2834
22.2834
22.2834
22.2834
22.2834
22.2834
22.2834
22.2835
22.2835
22.2835
22.2835
22.2835
22.2835
22.2834
22.2834
22.2834
22.2834
22.2834
22.2834
22.2834
22.2833
22.2833
22.2833
22.2832
22.2832
22.2831
22.2831
22.283
22.2829
22.2828
22.2827
22.2826
22.2825
22.2823
22.2822
22.282
22.2818
22.2816
22.2815
22.2813
22.4097
22.4098
22.4099
22.41
22.4102
22.4103
22.4104
22.4105
22.4106
22.4107
22.4107
22.4108
22.4109
22.4109
22.4109
22.411
22.411
22.411
22.4111
22.4111
22.4111
22.4111
22.4111
22.4112
22.4112
22.4112
22.4112
22.4112
22.4112
22.4112
22.4112
22.4112
22.4112
22.4112
22.4112
22.4112
22.4112
22.4111
22.4111
22.4111
22.4111
22.4111
22.411
22.411
22.411
22.4109
22.4109
22.4109
22.4108
22.4107
22.4107
22.4106
22.4105
22.4104
22.4103
22.4102
22.41
22.4099
22.4098
22.4097
22.5155
22.5155
22.5156
22.5157
22.5158
22.5159
22.516
22.5161
22.5161
22.5162
22.5162
22.5163
22.5163
22.5163
22.5164
22.5164
22.5164
22.5164
22.5165
22.5165
22.5165
22.5165
22.5165
22.5165
22.5165
22.5165
22.5165
22.5165
22.5165
22.5165
22.5165
22.5165
22.5165
22.5165
22.5165
22.5165
22.5165
22.5165
22.5165
22.5165
22.5165
22.5165
22.5164
22.5164
22.5164
22.5164
22.5163
22.5163
22.5163
22.5162
22.5162
22.5161
22.5161
22.516
22.5159
22.5158
22.5157
22.5156
22.5155
22.5155
22.6053
22.6054
22.6054
22.6055
22.6055
22.6056
22.6057
22.6057
22.6058
22.6058
22.6058
22.6059
22.6059
22.6059
22.6059
22.606
22.606
22.606
22.606
22.606
22.606
22.606
22.606
22.6061
22.6061
22.6061
22.6061
22.6061
22.6061
22.6061
22.6061
22.6061
22.6061
22.6061
22.6061
22.6061
22.6061
22.606
22.606
22.606
22.606
22.606
22.606
22.606
22.606
22.6059
22.6059
22.6059
22.6059
22.6058
22.6058
22.6058
22.6057
22.6057
22.6056
22.6055
22.6055
22.6054
22.6054
22.6053
22.6837
22.6838
22.6838
22.6838
22.6839
22.6839
22.684
22.684
22.684
22.6841
22.6841
22.6841
22.6841
22.6841
22.6842
22.6842
22.6842
22.6842
22.6842
22.6842
22.6842
22.6842
22.6842
22.6842
22.6842
22.6842
22.6842
22.6842
22.6843
22.6843
22.6843
22.6843
22.6842
22.6842
22.6842
22.6842
22.6842
22.6842
22.6842
22.6842
22.6842
22.6842
22.6842
22.6842
22.6842
22.6842
22.6841
22.6841
22.6841
22.6841
22.6841
22.684
22.684
22.684
22.6839
22.6839
22.6838
22.6838
22.6838
22.6837
22.7537
22.7537
22.7537
22.7538
22.7538
22.7538
22.7539
22.7539
22.7539
22.7539
22.7539
22.754
22.754
22.754
22.754
22.754
22.754
22.754
22.754
22.754
22.754
22.754
22.754
22.7541
22.7541
22.7541
22.7541
22.7541
22.7541
22.7541
22.7541
22.7541
22.7541
22.7541
22.7541
22.7541
22.7541
22.754
22.754
22.754
22.754
22.754
22.754
22.754
22.754
22.754
22.754
22.754
22.754
22.7539
22.7539
22.7539
22.7539
22.7539
22.7538
22.7538
22.7538
22.7537
22.7537
22.7537
22.8172
22.8172
22.8173
22.8173
22.8173
22.8173
22.8173
22.8173
22.8174
22.8174
22.8174
22.8174
22.8174
22.8174
22.8174
22.8174
22.8174
22.8174
22.8174
22.8174
22.8175
22.8175
22.8175
22.8175
22.8175
22.8175
22.8175
22.8175
22.8175
22.8175
22.8175
22.8175
22.8175
22.8175
22.8175
22.8175
22.8175
22.8175
22.8175
22.8175
22.8174
22.8174
22.8174
22.8174
22.8174
22.8174
22.8174
22.8174
22.8174
22.8174
22.8174
22.8174
22.8173
22.8173
22.8173
22.8173
22.8173
22.8173
22.8172
22.8172
22.8757
22.8757
22.8757
22.8757
22.8757
22.8757
22.8757
22.8757
22.8757
22.8758
22.8758
22.8758
22.8758
22.8758
22.8758
22.8758
22.8758
22.8758
22.8758
22.8758
22.8758
22.8758
22.8758
22.8758
22.8758
22.8758
22.8758
22.8758
22.8758
22.8758
22.8758
22.8758
22.8758
22.8758
22.8758
22.8758
22.8758
22.8758
22.8758
22.8758
22.8758
22.8758
22.8758
22.8758
22.8758
22.8758
22.8758
22.8758
22.8758
22.8758
22.8758
22.8757
22.8757
22.8757
22.8757
22.8757
22.8757
22.8757
22.8757
22.8757
22.93
22.93
22.93
22.93
22.93
22.93
22.93
22.93
22.93
22.93
22.93
22.93
22.93
22.93
22.93
22.93
22.9301
22.9301
22.9301
22.9301
22.9301
22.9301
22.9301
22.9301
22.9301
22.9301
22.9301
22.9301
22.9301
22.9301
22.9301
22.9301
22.9301
22.9301
22.9301
22.9301
22.9301
22.9301
22.9301
22.9301
22.9301
22.9301
22.9301
22.9301
22.93
22.93
22.93
22.93
22.93
22.93
22.93
22.93
22.93
22.93
22.93
22.93
22.93
22.93
22.93
22.93
22.9809
22.9809
22.9809
22.9809
22.9809
22.9809
22.9809
22.9809
22.9809
22.9809
22.9809
22.9809
22.9809
22.9809
22.9809
22.9809
22.9809
22.9809
22.9809
22.9809
22.9809
22.9809
22.9809
22.9809
22.9809
22.9809
22.9809
22.9809
22.9809
22.9809
22.9809
22.9809
22.9809
22.9809
22.9809
22.9809
22.9809
22.9809
22.9809
22.9809
22.9809
22.9809
22.9809
22.9809
22.9809
22.9809
22.9809
22.9809
22.9809
22.9809
22.9809
22.9809
22.9809
22.9809
22.9809
22.9809
22.9809
22.9809
22.9809
22.9809
23.029
23.029
23.029
23.029
23.0289
23.0289
23.0289
23.0289
23.0289
23.0289
23.0289
23.0289
23.0289
23.0289
23.0289
23.0289
23.0289
23.0289
23.0289
23.0289
23.0289
23.0289
23.0289
23.0289
23.0289
23.0289
23.0289
23.0289
23.0289
23.0289
23.0289
23.0289
23.0289
23.0289
23.0289
23.0289
23.0289
23.0289
23.0289
23.0289
23.0289
23.0289
23.0289
23.0289
23.0289
23.0289
23.0289
23.0289
23.0289
23.0289
23.0289
23.0289
23.0289
23.0289
23.0289
23.0289
23.029
23.029
23.029
23.029
23.0746
23.0746
23.0746
23.0746
23.0746
23.0745
23.0745
23.0745
23.0745
23.0745
23.0745
23.0745
23.0745
23.0745
23.0745
23.0745
23.0745
23.0745
23.0745
23.0745
23.0745
23.0745
23.0745
23.0745
23.0745
23.0745
23.0745
23.0745
23.0745
23.0745
23.0745
23.0745
23.0745
23.0745
23.0745
23.0745
23.0745
23.0745
23.0745
23.0745
23.0745
23.0745
23.0745
23.0745
23.0745
23.0745
23.0745
23.0745
23.0745
23.0745
23.0745
23.0745
23.0745
23.0745
23.0745
23.0746
23.0746
23.0746
23.0746
23.0746
23.1181
23.1181
23.1181
23.1181
23.1181
23.118
23.118
23.118
23.118
23.118
23.118
23.118
23.118
23.118
23.118
23.118
23.118
23.118
23.118
23.118
23.118
23.118
23.118
23.118
23.118
23.118
23.118
23.118
23.118
23.118
23.118
23.118
23.118
23.118
23.118
23.118
23.118
23.118
23.118
23.118
23.118
23.118
23.118
23.118
23.118
23.118
23.118
23.118
23.118
23.118
23.118
23.118
23.118
23.118
23.118
23.1181
23.1181
23.1181
23.1181
23.1181
23.1598
23.1598
23.1598
23.1598
23.1597
23.1597
23.1597
23.1597
23.1597
23.1597
23.1597
23.1597
23.1597
23.1597
23.1597
23.1597
23.1597
23.1597
23.1597
23.1597
23.1597
23.1597
23.1597
23.1597
23.1597
23.1597
23.1597
23.1597
23.1597
23.1597
23.1597
23.1597
23.1597
23.1597
23.1597
23.1597
23.1597
23.1597
23.1597
23.1597
23.1597
23.1597
23.1597
23.1597
23.1597
23.1597
23.1597
23.1597
23.1597
23.1597
23.1597
23.1597
23.1597
23.1597
23.1597
23.1597
23.1598
23.1598
23.1598
23.1598
23.1999
23.1999
23.1999
23.1999
23.1999
23.1998
23.1998
23.1998
23.1998
23.1998
23.1998
23.1998
23.1998
23.1998
23.1998
23.1998
23.1998
23.1997
23.1997
23.1997
23.1997
23.1997
23.1997
23.1997
23.1997
23.1997
23.1997
23.1997
23.1997
23.1997
23.1997
23.1997
23.1997
23.1997
23.1997
23.1997
23.1997
23.1997
23.1997
23.1997
23.1997
23.1997
23.1997
23.1998
23.1998
23.1998
23.1998
23.1998
23.1998
23.1998
23.1998
23.1998
23.1998
23.1998
23.1998
23.1999
23.1999
23.1999
23.1999
23.1999
23.2386
23.2386
23.2386
23.2386
23.2386
23.2385
23.2385
23.2385
23.2385
23.2385
23.2385
23.2385
23.2385
23.2385
23.2385
23.2385
23.2385
23.2385
23.2384
23.2384
23.2384
23.2384
23.2384
23.2384
23.2384
23.2384
23.2384
23.2384
23.2384
23.2384
23.2384
23.2384
23.2384
23.2384
23.2384
23.2384
23.2384
23.2384
23.2384
23.2384
23.2384
23.2384
23.2385
23.2385
23.2385
23.2385
23.2385
23.2385
23.2385
23.2385
23.2385
23.2385
23.2385
23.2385
23.2385
23.2386
23.2386
23.2386
23.2386
23.2386
23.2761
23.2761
23.2761
23.2761
23.2761
23.276
23.276
23.276
23.276
23.276
23.276
23.276
23.2759
23.2759
23.2759
23.2759
23.2759
23.2759
23.2759
23.2759
23.2759
23.2759
23.2759
23.2759
23.2759
23.2759
23.2759
23.2759
23.2759
23.2759
23.2759
23.2759
23.2759
23.2759
23.2759
23.2759
23.2759
23.2759
23.2759
23.2759
23.2759
23.2759
23.2759
23.2759
23.2759
23.2759
23.2759
23.2759
23.276
23.276
23.276
23.276
23.276
23.276
23.276
23.2761
23.2761
23.2761
23.2761
23.2761
23.3125
23.3125
23.3125
23.3125
23.3124
23.3124
23.3124
23.3124
23.3124
23.3124
23.3124
23.3123
23.3123
23.3123
23.3123
23.3123
23.3123
23.3123
23.3123
23.3123
23.3123
23.3123
23.3123
23.3123
23.3123
23.3123
23.3123
23.3123
23.3123
23.3123
23.3123
23.3123
23.3123
23.3123
23.3123
23.3123
23.3123
23.3123
23.3123
23.3123
23.3123
23.3123
23.3123
23.3123
23.3123
23.3123
23.3123
23.3123
23.3123
23.3124
23.3124
23.3124
23.3124
23.3124
23.3124
23.3124
23.3125
23.3125
23.3125
23.3125
23.3479
23.3479
23.3479
23.3479
23.3479
23.3478
23.3478
23.3478
23.3478
23.3478
23.3478
23.3478
23.3478
23.3477
23.3477
23.3477
23.3477
23.3477
23.3477
23.3477
23.3477
23.3477
23.3477
23.3477
23.3477
23.3477
23.3477
23.3477