/*--------------------------------*- C++ -*----------------------------------*\
| =========                 |                                                 |
| \\      /  F ield         | foam-extend: Open Source CFD                    |
|  \\    /   O peration     | Version:     4.0                                |
|   \\  /    A nd           | Web:         http://www.foam-extend.org         |
|    \\/     M anipulation  |                                                 |
\*---------------------------------------------------------------------------*/
FoamFile
{
    version     2.0;
    format      ascii;
    class       volScalarField;
    location    "1000";
    object      psiE;
}
// * * * * * * * * * * * * * * * * * * * * * * * * * * * * * * * * * * * * * //

dimensions      [0 0 0 0 0 0 0];

internalField   nonuniform List<scalar> 
6960
(
0.338139
0.338145
0.338153
0.338161
0.338169
0.338176
0.338182
0.338188
0.338193
0.338197
0.338202
0.338205
0.338208
0.338211
0.338214
0.338216
0.338218
0.33822
0.338221
0.338223
0.338224
0.338225
0.338226
0.338226
0.338227
0.338227
0.338228
0.338228
0.338228
0.338228
0.338228
0.338228
0.338228
0.338228
0.338227
0.338227
0.338226
0.338226
0.338225
0.338224
0.338223
0.338221
0.33822
0.338218
0.338216
0.338214
0.338211
0.338208
0.338205
0.338202
0.338197
0.338193
0.338188
0.338182
0.338176
0.338169
0.338161
0.338153
0.338145
0.338139
0.849458
0.849484
0.849516
0.849548
0.849578
0.849606
0.849631
0.849654
0.849675
0.849693
0.84971
0.849725
0.849737
0.849749
0.849759
0.849768
0.849775
0.849782
0.849788
0.849793
0.849797
0.849801
0.849804
0.849807
0.849809
0.849811
0.849812
0.849813
0.849814
0.849814
0.849814
0.849814
0.849813
0.849812
0.849811
0.849809
0.849807
0.849804
0.849801
0.849797
0.849793
0.849788
0.849782
0.849775
0.849768
0.849759
0.849749
0.849737
0.849725
0.84971
0.849693
0.849675
0.849654
0.849631
0.849606
0.849578
0.849548
0.849516
0.849484
0.849458
1.31513
1.31518
1.31524
1.31531
1.31537
1.31542
1.31547
1.31552
1.31556
1.31559
1.31563
1.31565
1.31568
1.3157
1.31572
1.31574
1.31575
1.31577
1.31578
1.31579
1.31579
1.3158
1.31581
1.31581
1.31582
1.31582
1.31582
1.31582
1.31583
1.31583
1.31583
1.31583
1.31582
1.31582
1.31582
1.31582
1.31581
1.31581
1.3158
1.31579
1.31579
1.31578
1.31577
1.31575
1.31574
1.31572
1.3157
1.31568
1.31565
1.31563
1.31559
1.31556
1.31552
1.31547
1.31542
1.31537
1.31531
1.31524
1.31518
1.31513
1.76949
1.76957
1.76967
1.76977
1.76986
1.76995
1.77003
1.7701
1.77016
1.77022
1.77027
1.77031
1.77035
1.77039
1.77042
1.77044
1.77047
1.77049
1.7705
1.77052
1.77053
1.77054
1.77055
1.77056
1.77057
1.77057
1.77057
1.77058
1.77058
1.77058
1.77058
1.77058
1.77058
1.77057
1.77057
1.77057
1.77056
1.77055
1.77054
1.77053
1.77052
1.7705
1.77049
1.77047
1.77044
1.77042
1.77039
1.77035
1.77031
1.77027
1.77022
1.77016
1.7701
1.77003
1.76995
1.76986
1.76977
1.76967
1.76957
1.76949
2.22538
2.22549
2.22563
2.22576
2.22589
2.22601
2.22612
2.22622
2.22631
2.22639
2.22645
2.22652
2.22657
2.22662
2.22666
2.2267
2.22673
2.22676
2.22678
2.2268
2.22682
2.22683
2.22685
2.22686
2.22687
2.22687
2.22688
2.22688
2.22689
2.22689
2.22689
2.22689
2.22688
2.22688
2.22687
2.22687
2.22686
2.22685
2.22683
2.22682
2.2268
2.22678
2.22676
2.22673
2.2267
2.22666
2.22662
2.22657
2.22652
2.22645
2.22639
2.22631
2.22622
2.22612
2.22601
2.22589
2.22576
2.22563
2.22549
2.22538
2.68784
2.68798
2.68816
2.68834
2.6885
2.68866
2.6888
2.68893
2.68904
2.68914
2.68923
2.68931
2.68938
2.68944
2.6895
2.68954
2.68958
2.68962
2.68965
2.68968
2.6897
2.68972
2.68974
2.68975
2.68976
2.68977
2.68978
2.68978
2.68979
2.68979
2.68979
2.68979
2.68978
2.68978
2.68977
2.68976
2.68975
2.68974
2.68972
2.6897
2.68968
2.68965
2.68962
2.68958
2.68954
2.6895
2.68944
2.68938
2.68931
2.68923
2.68914
2.68904
2.68893
2.6888
2.68866
2.6885
2.68834
2.68816
2.68798
2.68784
3.15888
3.15906
3.15927
3.15949
3.1597
3.15989
3.16006
3.16022
3.16036
3.16048
3.16059
3.16069
3.16078
3.16085
3.16092
3.16098
3.16103
3.16107
3.16111
3.16114
3.16117
3.1612
3.16122
3.16123
3.16125
3.16126
3.16127
3.16127
3.16128
3.16128
3.16128
3.16128
3.16127
3.16127
3.16126
3.16125
3.16123
3.16122
3.1612
3.16117
3.16114
3.16111
3.16107
3.16103
3.16098
3.16092
3.16085
3.16078
3.16069
3.16059
3.16048
3.16036
3.16022
3.16006
3.15989
3.1597
3.15949
3.15927
3.15906
3.15888
3.63928
3.63949
3.63974
3.64
3.64025
3.64048
3.64068
3.64087
3.64104
3.64118
3.64132
3.64143
3.64154
3.64163
3.64171
3.64177
3.64183
3.64189
3.64193
3.64197
3.642
3.64203
3.64206
3.64208
3.64209
3.64211
3.64212
3.64213
3.64213
3.64213
3.64213
3.64213
3.64213
3.64212
3.64211
3.64209
3.64208
3.64206
3.64203
3.642
3.64197
3.64193
3.64189
3.64183
3.64177
3.64171
3.64163
3.64154
3.64143
3.64132
3.64118
3.64104
3.64087
3.64068
3.64048
3.64025
3.64
3.63974
3.63949
3.63928
4.12931
4.12956
4.12986
4.13016
4.13044
4.13071
4.13095
4.13116
4.13136
4.13153
4.13168
4.13182
4.13194
4.13204
4.13214
4.13222
4.13229
4.13235
4.1324
4.13244
4.13248
4.13252
4.13254
4.13257
4.13259
4.1326
4.13262
4.13262
4.13263
4.13263
4.13263
4.13263
4.13262
4.13262
4.1326
4.13259
4.13257
4.13254
4.13252
4.13248
4.13244
4.1324
4.13235
4.13229
4.13222
4.13214
4.13204
4.13194
4.13182
4.13168
4.13153
4.13136
4.13116
4.13095
4.13071
4.13044
4.13016
4.12986
4.12956
4.12931
4.62907
4.62934
4.62969
4.63003
4.63036
4.63066
4.63093
4.63118
4.6314
4.6316
4.63177
4.63193
4.63206
4.63218
4.63229
4.63238
4.63246
4.63253
4.63259
4.63264
4.63268
4.63272
4.63275
4.63278
4.6328
4.63282
4.63283
4.63284
4.63285
4.63285
4.63285
4.63285
4.63284
4.63283
4.63282
4.6328
4.63278
4.63275
4.63272
4.63268
4.63264
4.63259
4.63253
4.63246
4.63238
4.63229
4.63218
4.63206
4.63193
4.63177
4.6316
4.6314
4.63118
4.63093
4.63066
4.63036
4.63003
4.62969
4.62934
4.62907
5.13852
5.13883
5.13922
5.13961
5.13997
5.14031
5.14062
5.1409
5.14115
5.14137
5.14156
5.14174
5.14189
5.14203
5.14214
5.14225
5.14234
5.14241
5.14248
5.14254
5.14259
5.14263
5.14267
5.1427
5.14272
5.14274
5.14276
5.14277
5.14278
5.14278
5.14278
5.14278
5.14277
5.14276
5.14274
5.14272
5.1427
5.14267
5.14263
5.14259
5.14254
5.14248
5.14241
5.14234
5.14225
5.14214
5.14203
5.14189
5.14174
5.14156
5.14137
5.14115
5.1409
5.14062
5.14031
5.13997
5.13961
5.13922
5.13883
5.13852
5.65761
5.65795
5.65838
5.65881
5.65922
5.6596
5.65994
5.66025
5.66052
5.66077
5.66099
5.66118
5.66135
5.6615
5.66163
5.66175
5.66185
5.66193
5.66201
5.66207
5.66213
5.66218
5.66222
5.66225
5.66228
5.6623
5.66232
5.66233
5.66234
5.66234
5.66234
5.66234
5.66233
5.66232
5.6623
5.66228
5.66225
5.66222
5.66218
5.66213
5.66207
5.66201
5.66193
5.66185
5.66175
5.66163
5.6615
5.66135
5.66118
5.66099
5.66077
5.66052
5.66025
5.65994
5.6596
5.65922
5.65881
5.65838
5.65795
5.65761
6.18622
6.18659
6.18706
6.18754
6.18799
6.1884
6.18878
6.18912
6.18942
6.18969
6.18993
6.19014
6.19033
6.1905
6.19064
6.19077
6.19088
6.19097
6.19106
6.19113
6.19119
6.19124
6.19128
6.19132
6.19135
6.19138
6.19139
6.19141
6.19142
6.19142
6.19142
6.19142
6.19141
6.19139
6.19138
6.19135
6.19132
6.19128
6.19124
6.19119
6.19113
6.19106
6.19097
6.19088
6.19077
6.19064
6.1905
6.19033
6.19014
6.18993
6.18969
6.18942
6.18912
6.18878
6.1884
6.18799
6.18754
6.18706
6.18659
6.18622
6.72419
6.7246
6.72511
6.72563
6.72612
6.72657
6.72698
6.72735
6.72769
6.72798
6.72824
6.72848
6.72868
6.72886
6.72902
6.72916
6.72928
6.72938
6.72947
6.72955
6.72962
6.72967
6.72972
6.72976
6.72979
6.72982
6.72984
6.72986
6.72987
6.72987
6.72987
6.72987
6.72986
6.72984
6.72982
6.72979
6.72976
6.72972
6.72967
6.72962
6.72955
6.72947
6.72938
6.72928
6.72916
6.72902
6.72886
6.72868
6.72848
6.72824
6.72798
6.72769
6.72735
6.72698
6.72657
6.72612
6.72563
6.72511
6.7246
6.72419
7.27134
7.27178
7.27234
7.2729
7.27343
7.27392
7.27436
7.27476
7.27512
7.27544
7.27573
7.27598
7.2762
7.2764
7.27657
7.27672
7.27685
7.27696
7.27706
7.27714
7.27722
7.27728
7.27733
7.27737
7.27741
7.27744
7.27746
7.27748
7.27749
7.27749
7.27749
7.27749
7.27748
7.27746
7.27744
7.27741
7.27737
7.27733
7.27728
7.27722
7.27714
7.27706
7.27696
7.27685
7.27672
7.27657
7.2764
7.2762
7.27598
7.27573
7.27544
7.27512
7.27476
7.27436
7.27392
7.27343
7.2729
7.27234
7.27178
7.27134
7.82742
7.8279
7.8285
7.8291
7.82967
7.8302
7.83068
7.83111
7.8315
7.83184
7.83215
7.83242
7.83266
7.83287
7.83305
7.83321
7.83335
7.83347
7.83358
7.83367
7.83375
7.83382
7.83387
7.83392
7.83396
7.83399
7.83401
7.83403
7.83404
7.83405
7.83405
7.83404
7.83403
7.83401
7.83399
7.83396
7.83392
7.83387
7.83382
7.83375
7.83367
7.83358
7.83347
7.83335
7.83321
7.83305
7.83287
7.83266
7.83242
7.83215
7.83184
7.8315
7.83111
7.83068
7.8302
7.82967
7.8291
7.8285
7.8279
7.82742
8.39215
8.39266
8.3933
8.39395
8.39456
8.39512
8.39563
8.3961
8.39651
8.39688
8.39721
8.3975
8.39776
8.39798
8.39818
8.39835
8.3985
8.39863
8.39874
8.39884
8.39892
8.399
8.39906
8.39911
8.39915
8.39918
8.39921
8.39923
8.39924
8.39924
8.39924
8.39924
8.39923
8.39921
8.39918
8.39915
8.39911
8.39906
8.399
8.39892
8.39884
8.39874
8.39863
8.3985
8.39835
8.39818
8.39798
8.39776
8.3975
8.39721
8.39688
8.39651
8.3961
8.39563
8.39512
8.39456
8.39395
8.3933
8.39266
8.39215
8.96518
8.96572
8.9664
8.96709
8.96774
8.96834
8.96889
8.96938
8.96982
8.97022
8.97057
8.97087
8.97115
8.97139
8.9716
8.97178
8.97194
8.97208
8.9722
8.97231
8.97239
8.97247
8.97253
8.97259
8.97263
8.97267
8.9727
8.97272
8.97273
8.97274
8.97274
8.97273
8.97272
8.9727
8.97267
8.97263
8.97259
8.97253
8.97247
8.97239
8.97231
8.9722
8.97208
8.97194
8.97178
8.9716
8.97139
8.97115
8.97087
8.97057
8.97022
8.96982
8.96938
8.96889
8.96834
8.96774
8.96709
8.9664
8.96572
8.96518
9.5461
9.54667
9.54739
9.54812
9.54881
9.54945
9.55003
9.55055
9.55102
9.55143
9.55181
9.55213
9.55242
9.55268
9.5529
9.5531
9.55327
9.55341
9.55354
9.55365
9.55375
9.55383
9.55389
9.55395
9.554
9.55404
9.55407
9.55409
9.5541
9.55411
9.55411
9.5541
9.55409
9.55407
9.55404
9.554
9.55395
9.55389
9.55383
9.55375
9.55365
9.55354
9.55341
9.55327
9.5531
9.5529
9.55268
9.55242
9.55213
9.55181
9.55143
9.55102
9.55055
9.55003
9.54945
9.54881
9.54812
9.54739
9.54667
9.5461
10.1344
10.135
10.1358
10.1366
10.1373
10.138
10.1386
10.1391
10.1396
10.1401
10.1404
10.1408
10.1411
10.1414
10.1416
10.1418
10.142
10.1421
10.1423
10.1424
10.1425
10.1426
10.1427
10.1427
10.1428
10.1428
10.1428
10.1429
10.1429
10.1429
10.1429
10.1429
10.1429
10.1428
10.1428
10.1428
10.1427
10.1427
10.1426
10.1425
10.1424
10.1423
10.1421
10.142
10.1418
10.1416
10.1414
10.1411
10.1408
10.1404
10.1401
10.1396
10.1391
10.1386
10.138
10.1373
10.1366
10.1358
10.135
10.1344
10.7296
10.7302
10.731
10.7318
10.7326
10.7333
10.7339
10.7345
10.735
10.7355
10.7359
10.7363
10.7366
10.7369
10.7371
10.7374
10.7375
10.7377
10.7378
10.738
10.7381
10.7382
10.7382
10.7383
10.7384
10.7384
10.7384
10.7385
10.7385
10.7385
10.7385
10.7385
10.7385
10.7384
10.7384
10.7384
10.7383
10.7382
10.7382
10.7381
10.738
10.7378
10.7377
10.7375
10.7374
10.7371
10.7369
10.7366
10.7363
10.7359
10.7355
10.735
10.7345
10.7339
10.7333
10.7326
10.7318
10.731
10.7302
10.7296
11.3309
11.3316
11.3324
11.3333
11.3341
11.3348
11.3355
11.3361
11.3367
11.3371
11.3376
11.338
11.3383
11.3386
11.3389
11.3391
11.3393
11.3394
11.3396
11.3397
11.3398
11.3399
11.34
11.3401
11.3401
11.3402
11.3402
11.3402
11.3403
11.3403
11.3403
11.3403
11.3402
11.3402
11.3402
11.3401
11.3401
11.34
11.3399
11.3398
11.3397
11.3396
11.3394
11.3393
11.3391
11.3389
11.3386
11.3383
11.338
11.3376
11.3371
11.3367
11.3361
11.3355
11.3348
11.3341
11.3333
11.3324
11.3316
11.3309
11.9377
11.9384
11.9393
11.9402
11.941
11.9418
11.9425
11.9431
11.9437
11.9442
11.9447
11.9451
11.9454
11.9457
11.946
11.9462
11.9464
11.9466
11.9468
11.9469
11.947
11.9471
11.9472
11.9473
11.9473
11.9474
11.9474
11.9474
11.9474
11.9475
11.9475
11.9474
11.9474
11.9474
11.9474
11.9473
11.9473
11.9472
11.9471
11.947
11.9469
11.9468
11.9466
11.9464
11.9462
11.946
11.9457
11.9454
11.9451
11.9447
11.9442
11.9437
11.9431
11.9425
11.9418
11.941
11.9402
11.9393
11.9384
11.9377
12.5491
12.5498
12.5507
12.5516
12.5525
12.5533
12.554
12.5547
12.5553
12.5558
12.5563
12.5567
12.5571
12.5574
12.5577
12.5579
12.5581
12.5583
12.5585
12.5586
12.5587
12.5588
12.5589
12.559
12.5591
12.5591
12.5591
12.5592
12.5592
12.5592
12.5592
12.5592
12.5592
12.5591
12.5591
12.5591
12.559
12.5589
12.5588
12.5587
12.5586
12.5585
12.5583
12.5581
12.5579
12.5577
12.5574
12.5571
12.5567
12.5563
12.5558
12.5553
12.5547
12.554
12.5533
12.5525
12.5516
12.5507
12.5498
12.5491
13.164
13.1647
13.1657
13.1666
13.1675
13.1684
13.1691
13.1698
13.1704
13.171
13.1714
13.1719
13.1722
13.1726
13.1729
13.1731
13.1734
13.1735
13.1737
13.1739
13.174
13.1741
13.1742
13.1743
13.1743
13.1744
13.1744
13.1744
13.1745
13.1745
13.1745
13.1745
13.1744
13.1744
13.1744
13.1743
13.1743
13.1742
13.1741
13.174
13.1739
13.1737
13.1735
13.1734
13.1731
13.1729
13.1726
13.1722
13.1719
13.1714
13.171
13.1704
13.1698
13.1691
13.1684
13.1675
13.1666
13.1657
13.1647
13.164
13.7813
13.7821
13.783
13.784
13.7849
13.7858
13.7866
13.7873
13.7879
13.7885
13.789
13.7894
13.7898
13.7902
13.7905
13.7907
13.791
13.7912
13.7913
13.7915
13.7916
13.7917
13.7918
13.7919
13.792
13.792
13.792
13.7921
13.7921
13.7921
13.7921
13.7921
13.7921
13.792
13.792
13.792
13.7919
13.7918
13.7917
13.7916
13.7915
13.7913
13.7912
13.791
13.7907
13.7905
13.7902
13.7898
13.7894
13.789
13.7885
13.7879
13.7873
13.7866
13.7858
13.7849
13.784
13.783
13.7821
13.7813
14.3997
14.4005
14.4015
14.4025
14.4034
14.4043
14.4051
14.4058
14.4065
14.407
14.4076
14.408
14.4084
14.4088
14.4091
14.4094
14.4096
14.4098
14.41
14.4101
14.4103
14.4104
14.4105
14.4106
14.4106
14.4107
14.4107
14.4108
14.4108
14.4108
14.4108
14.4108
14.4108
14.4107
14.4107
14.4106
14.4106
14.4105
14.4104
14.4103
14.4101
14.41
14.4098
14.4096
14.4094
14.4091
14.4088
14.4084
14.408
14.4076
14.407
14.4065
14.4058
14.4051
14.4043
14.4034
14.4025
14.4015
14.4005
14.3997
15.0176
15.0184
15.0194
15.0204
15.0214
15.0223
15.0231
15.0239
15.0245
15.0251
15.0257
15.0261
15.0265
15.0269
15.0272
15.0275
15.0277
15.028
15.0281
15.0283
15.0284
15.0285
15.0286
15.0287
15.0288
15.0289
15.0289
15.0289
15.0289
15.029
15.029
15.0289
15.0289
15.0289
15.0289
15.0288
15.0287
15.0286
15.0285
15.0284
15.0283
15.0281
15.028
15.0277
15.0275
15.0272
15.0269
15.0265
15.0261
15.0257
15.0251
15.0245
15.0239
15.0231
15.0223
15.0214
15.0204
15.0194
15.0184
15.0176
15.6332
15.6341
15.6351
15.6362
15.6372
15.6381
15.6389
15.6397
15.6403
15.6409
15.6415
15.642
15.6424
15.6427
15.6431
15.6434
15.6436
15.6438
15.644
15.6442
15.6443
15.6444
15.6445
15.6446
15.6447
15.6447
15.6448
15.6448
15.6448
15.6449
15.6449
15.6448
15.6448
15.6448
15.6447
15.6447
15.6446
15.6445
15.6444
15.6443
15.6442
15.644
15.6438
15.6436
15.6434
15.6431
15.6427
15.6424
15.642
15.6415
15.6409
15.6403
15.6397
15.6389
15.6381
15.6372
15.6362
15.6351
15.6341
15.6332
16.2446
16.2455
16.2466
16.2476
16.2486
16.2495
16.2504
16.2512
16.2518
16.2524
16.253
16.2535
16.2539
16.2543
16.2546
16.2549
16.2552
16.2554
16.2556
16.2557
16.2559
16.256
16.2561
16.2562
16.2563
16.2563
16.2564
16.2564
16.2564
16.2564
16.2564
16.2564
16.2564
16.2564
16.2563
16.2563
16.2562
16.2561
16.256
16.2559
16.2557
16.2556
16.2554
16.2552
16.2549
16.2546
16.2543
16.2539
16.2535
16.253
16.2524
16.2518
16.2512
16.2504
16.2495
16.2486
16.2476
16.2466
16.2455
16.2446
16.8494
16.8503
16.8513
16.8524
16.8534
16.8543
16.8552
16.856
16.8567
16.8573
16.8578
16.8583
16.8587
16.8591
16.8594
16.8597
16.86
16.8602
16.8604
16.8606
16.8607
16.8608
16.861
16.861
16.8611
16.8612
16.8612
16.8612
16.8613
16.8613
16.8613
16.8613
16.8612
16.8612
16.8612
16.8611
16.861
16.861
16.8608
16.8607
16.8606
16.8604
16.8602
16.86
16.8597
16.8594
16.8591
16.8587
16.8583
16.8578
16.8573
16.8567
16.856
16.8552
16.8543
16.8534
16.8524
16.8513
16.8503
16.8494
17.4448
17.4456
17.4467
17.4478
17.4488
17.4497
17.4506
17.4513
17.452
17.4526
17.4532
17.4537
17.4541
17.4545
17.4548
17.4551
17.4554
17.4556
17.4558
17.456
17.4561
17.4562
17.4563
17.4564
17.4565
17.4566
17.4566
17.4566
17.4567
17.4567
17.4567
17.4567
17.4566
17.4566
17.4566
17.4565
17.4564
17.4563
17.4562
17.4561
17.456
17.4558
17.4556
17.4554
17.4551
17.4548
17.4545
17.4541
17.4537
17.4532
17.4526
17.452
17.4513
17.4506
17.4497
17.4488
17.4478
17.4467
17.4456
17.4448
18.0275
18.0283
18.0294
18.0305
18.0315
18.0324
18.0332
18.034
18.0347
18.0353
18.0359
18.0363
18.0368
18.0371
18.0375
18.0378
18.038
18.0383
18.0384
18.0386
18.0388
18.0389
18.039
18.0391
18.0392
18.0392
18.0393
18.0393
18.0393
18.0393
18.0393
18.0393
18.0393
18.0393
18.0392
18.0392
18.0391
18.039
18.0389
18.0388
18.0386
18.0384
18.0383
18.038
18.0378
18.0375
18.0371
18.0368
18.0363
18.0359
18.0353
18.0347
18.034
18.0332
18.0324
18.0315
18.0305
18.0294
18.0283
18.0275
18.5938
18.5946
18.5957
18.5967
18.5977
18.5986
18.5994
18.6002
18.6009
18.6015
18.602
18.6025
18.6029
18.6033
18.6036
18.6039
18.6041
18.6044
18.6046
18.6047
18.6049
18.605
18.6051
18.6052
18.6053
18.6053
18.6054
18.6054
18.6054
18.6054
18.6054
18.6054
18.6054
18.6054
18.6053
18.6053
18.6052
18.6051
18.605
18.6049
18.6047
18.6046
18.6044
18.6041
18.6039
18.6036
18.6033
18.6029
18.6025
18.602
18.6015
18.6009
18.6002
18.5994
18.5986
18.5977
18.5967
18.5957
18.5946
18.5938
19.1391
19.1399
19.1409
19.1419
19.1429
19.1438
19.1446
19.1453
19.146
19.1466
19.1471
19.1475
19.148
19.1483
19.1486
19.1489
19.1492
19.1494
19.1496
19.1498
19.1499
19.15
19.1501
19.1502
19.1503
19.1503
19.1504
19.1504
19.1504
19.1504
19.1504
19.1504
19.1504
19.1504
19.1503
19.1503
19.1502
19.1501
19.15
19.1499
19.1498
19.1496
19.1494
19.1492
19.1489
19.1486
19.1483
19.148
19.1475
19.1471
19.1466
19.146
19.1453
19.1446
19.1438
19.1429
19.1419
19.1409
19.1399
19.1391
19.658
19.6589
19.6598
19.6608
19.6617
19.6625
19.6633
19.664
19.6646
19.6652
19.6657
19.6662
19.6666
19.6669
19.6672
19.6675
19.6677
19.6679
19.6681
19.6683
19.6684
19.6685
19.6686
19.6687
19.6688
19.6689
19.6689
19.6689
19.669
19.669
19.669
19.669
19.6689
19.6689
19.6689
19.6688
19.6687
19.6686
19.6685
19.6684
19.6683
19.6681
19.6679
19.6677
19.6675
19.6672
19.6669
19.6666
19.6662
19.6657
19.6652
19.6646
19.664
19.6633
19.6625
19.6617
19.6608
19.6598
19.6589
19.658
20.1444
20.1451
20.146
20.1469
20.1478
20.1486
20.1493
20.15
20.1505
20.1511
20.1516
20.152
20.1524
20.1527
20.153
20.1532
20.1535
20.1537
20.1538
20.154
20.1541
20.1542
20.1543
20.1544
20.1545
20.1545
20.1546
20.1546
20.1546
20.1546
20.1546
20.1546
20.1546
20.1546
20.1545
20.1545
20.1544
20.1543
20.1542
20.1541
20.154
20.1538
20.1537
20.1535
20.1532
20.153
20.1527
20.1524
20.152
20.1516
20.1511
20.1505
20.15
20.1493
20.1486
20.1478
20.1469
20.146
20.1451
20.1444
20.5909
20.5915
20.5924
20.5932
20.594
20.5947
20.5954
20.596
20.5965
20.597
20.5974
20.5978
20.5982
20.5985
20.5987
20.599
20.5992
20.5994
20.5995
20.5997
20.5998
20.5999
20.6
20.6001
20.6001
20.6002
20.6002
20.6003
20.6003
20.6003
20.6003
20.6003
20.6003
20.6002
20.6002
20.6001
20.6001
20.6
20.5999
20.5998
20.5997
20.5995
20.5994
20.5992
20.599
20.5987
20.5985
20.5982
20.5978
20.5974
20.597
20.5965
20.596
20.5954
20.5947
20.594
20.5932
20.5924
20.5915
20.5909
20.9901
20.9907
20.9915
20.9922
20.9929
20.9935
20.9941
20.9946
20.9951
20.9955
20.9959
20.9963
20.9966
20.9969
20.9971
20.9973
20.9975
20.9977
20.9978
20.998
20.9981
20.9982
20.9983
20.9983
20.9984
20.9984
20.9985
20.9985
20.9985
20.9985
20.9985
20.9985
20.9985
20.9985
20.9984
20.9984
20.9983
20.9983
20.9982
20.9981
20.998
20.9978
20.9977
20.9975
20.9973
20.9971
20.9969
20.9966
20.9963
20.9959
20.9955
20.9951
20.9946
20.9941
20.9935
20.9929
20.9922
20.9915
20.9907
20.9901
21.336
21.3365
21.3371
21.3377
21.3383
21.3388
21.3393
21.3397
21.3401
21.3405
21.3409
21.3412
21.3414
21.3417
21.3419
21.3421
21.3422
21.3424
21.3425
21.3426
21.3427
21.3428
21.3429
21.343
21.343
21.3431
21.3431
21.3431
21.3431
21.3431
21.3431
21.3431
21.3431
21.3431
21.3431
21.343
21.343
21.3429
21.3428
21.3427
21.3426
21.3425
21.3424
21.3422
21.3421
21.3419
21.3417
21.3414
21.3412
21.3409
21.3405
21.3401
21.3397
21.3393
21.3388
21.3383
21.3377
21.3371
21.3365
21.336
21.6253
21.6256
21.6261
21.6266
21.6271
21.6275
21.6279
21.6283
21.6286
21.6289
21.6292
21.6294
21.6297
21.6299
21.63
21.6302
21.6304
21.6305
21.6306
21.6307
21.6308
21.6309
21.6309
21.631
21.631
21.6311
21.6311
21.6311
21.6311
21.6311
21.6311
21.6311
21.6311
21.6311
21.6311
21.631
21.631
21.6309
21.6309
21.6308
21.6307
21.6306
21.6305
21.6304
21.6302
21.63
21.6299
21.6297
21.6294
21.6292
21.6289
21.6286
21.6283
21.6279
21.6275
21.6271
21.6266
21.6261
21.6256
21.6253
21.8597
21.86
21.8604
21.8607
21.8611
21.8614
21.8618
21.862
21.8623
21.8626
21.8628
21.863
21.8632
21.8633
21.8635
21.8636
21.8637
21.8639
21.864
21.864
21.8641
21.8642
21.8642
21.8643
21.8643
21.8644
21.8644
21.8644
21.8644
21.8644
21.8644
21.8644
21.8644
21.8644
21.8644
21.8643
21.8643
21.8642
21.8642
21.8641
21.864
21.864
21.8639
21.8637
21.8636
21.8635
21.8633
21.8632
21.863
21.8628
21.8626
21.8623
21.862
21.8618
21.8614
21.8611
21.8607
21.8604
21.86
21.8597
22.046
22.0462
22.0464
22.0467
22.047
22.0472
22.0475
22.0477
22.0479
22.0481
22.0483
22.0484
22.0486
22.0487
22.0488
22.049
22.0491
22.0491
22.0492
22.0493
22.0494
22.0494
22.0495
22.0495
22.0496
22.0496
22.0496
22.0496
22.0497
22.0497
22.0497
22.0497
22.0496
22.0496
22.0496
22.0496
22.0495
22.0495
22.0494
22.0494
22.0493
22.0492
22.0491
22.0491
22.049
22.0488
22.0487
22.0486
22.0484
22.0483
22.0481
22.0479
22.0477
22.0475
22.0472
22.047
22.0467
22.0464
22.0462
22.046
22.1934
22.1936
22.1937
22.1939
22.1941
22.1943
22.1945
22.1947
22.1949
22.195
22.1952
22.1953
22.1954
22.1955
22.1956
22.1957
22.1958
22.1959
22.196
22.196
22.1961
22.1962
22.1962
22.1962
22.1963
22.1963
22.1963
22.1963
22.1964
22.1964
22.1964
22.1964
22.1963
22.1963
22.1963
22.1963
22.1962
22.1962
22.1962
22.1961
22.196
22.196
22.1959
22.1958
22.1957
22.1956
22.1955
22.1954
22.1953
22.1952
22.195
22.1949
22.1947
22.1945
22.1943
22.1941
22.1939
22.1937
22.1936
22.1934
22.3119
22.312
22.3121
22.3123
22.3124
22.3126
22.3127
22.3128
22.313
22.3131
22.3132
22.3133
22.3134
22.3135
22.3136
22.3137
22.3138
22.3139
22.3139
22.314
22.3141
22.3141
22.3142
22.3142
22.3142
22.3142
22.3143
22.3143
22.3143
22.3143
22.3143
22.3143
22.3143
22.3143
22.3142
22.3142
22.3142
22.3142
22.3141
22.3141
22.314
22.3139
22.3139
22.3138
22.3137
22.3136
22.3135
22.3134
22.3133
22.3132
22.3131
22.313
22.3128
22.3127
22.3126
22.3124
22.3123
22.3121
22.312
22.3119
22.4096
22.4097
22.4098
22.4099
22.41
22.4101
22.4102
22.4103
22.4104
22.4106
22.4107
22.4108
22.4108
22.4109
22.411
22.4111
22.4112
22.4112
22.4113
22.4114
22.4114
22.4115
22.4115
22.4115
22.4116
22.4116
22.4116
22.4116
22.4116
22.4116
22.4116
22.4116
22.4116
22.4116
22.4116
22.4116
22.4115
22.4115
22.4115
22.4114
22.4114
22.4113
22.4112
22.4112
22.4111
22.411
22.4109
22.4108
22.4108
22.4107
22.4106
22.4104
22.4103
22.4102
22.4101
22.41
22.4099
22.4098
22.4097
22.4096
22.4926
22.4926
22.4927
22.4928
22.4929
22.493
22.4931
22.4932
22.4933
22.4933
22.4934
22.4935
22.4936
22.4937
22.4938
22.4938
22.4939
22.494
22.494
22.4941
22.4942
22.4942
22.4942
22.4943
22.4943
22.4943
22.4943
22.4944
22.4944
22.4944
22.4944
22.4944
22.4944
22.4943
22.4943
22.4943
22.4943
22.4942
22.4942
22.4942
22.4941
22.494
22.494
22.4939
22.4938
22.4938
22.4937
22.4936
22.4935
22.4934
22.4933
22.4933
22.4932
22.4931
22.493
22.4929
22.4928
22.4927
22.4926
22.4926
22.5649
22.565
22.565
22.5651
22.5651
22.5652
22.5653
22.5654
22.5655
22.5655
22.5656
22.5657
22.5658
22.5659
22.5659
22.566
22.5661
22.5662
22.5662
22.5663
22.5663
22.5664
22.5664
22.5664
22.5665
22.5665
22.5665
22.5665
22.5665
22.5665
22.5665
22.5665
22.5665
22.5665
22.5665
22.5665
22.5664
22.5664
22.5664
22.5663
22.5663
22.5662
22.5662
22.5661
22.566
22.5659
22.5659
22.5658
22.5657
22.5656
22.5655
22.5655
22.5654
22.5653
22.5652
22.5651
22.5651
22.565
22.565
22.5649
22.6293
22.6293
22.6293
22.6294
22.6295
22.6295
22.6296
22.6297
22.6297
22.6298
22.6299
22.63
22.6301
22.6301
22.6302
22.6303
22.6303
22.6304
22.6305
22.6305
22.6306
22.6306
22.6307
22.6307
22.6307
22.6308
22.6308
22.6308
22.6308
22.6308
22.6308
22.6308
22.6308
22.6308
22.6308
22.6307
22.6307
22.6307
22.6306
22.6306
22.6305
22.6305
22.6304
22.6303
22.6303
22.6302
22.6301
22.6301
22.63
22.6299
22.6298
22.6297
22.6297
22.6296
22.6295
22.6295
22.6294
22.6293
22.6293
22.6293
22.6875
22.6875
22.6875
22.6876
22.6876
22.6877
22.6878
22.6878
22.6879
22.688
22.688
22.6881
22.6882
22.6883
22.6883
22.6884
22.6885
22.6885
22.6886
22.6887
22.6887
22.6888
22.6888
22.6888
22.6889
22.6889
22.6889
22.6889
22.6889
22.6889
22.6889
22.6889
22.6889
22.6889
22.6889
22.6889
22.6888
22.6888
22.6888
22.6887
22.6887
22.6886
22.6885
22.6885
22.6884
22.6883
22.6883
22.6882
22.6881
22.688
22.688
22.6879
22.6878
22.6878
22.6877
22.6876
22.6876
22.6875
22.6875
22.6875
22.7408
22.7408
22.7408
22.7408
22.7409
22.7409
22.741
22.7411
22.7411
22.7412
22.7413
22.7413
22.7414
22.7415
22.7416
22.7416
22.7417
22.7418
22.7418
22.7419
22.7419
22.742
22.742
22.7421
22.7421
22.7421
22.7421
22.7422
22.7422
22.7422
22.7422
22.7422
22.7422
22.7421
22.7421
22.7421
22.7421
22.742
22.742
22.7419
22.7419
22.7418
22.7418
22.7417
22.7416
22.7416
22.7415
22.7414
22.7413
22.7413
22.7412
22.7411
22.7411
22.741
22.7409
22.7409
22.7408
22.7408
22.7408
22.7408
22.79
22.79
22.79
22.79
22.7901
22.7901
22.7902
22.7902
22.7903
22.7904
22.7905
22.7905
22.7906
22.7907
22.7908
22.7908
22.7909
22.791
22.791
22.7911
22.7911
22.7912
22.7912
22.7913
22.7913
22.7913
22.7913
22.7914
22.7914
22.7914
22.7914
22.7914
22.7914
22.7913
22.7913
22.7913
22.7913
22.7912
22.7912
22.7911
22.7911
22.791
22.791
22.7909
22.7908
22.7908
22.7907
22.7906
22.7905
22.7905
22.7904
22.7903
22.7902
22.7902
22.7901
22.7901
22.79
22.79
22.79
22.79
22.8358
22.8358
22.8359
22.8359
22.8359
22.836
22.836
22.8361
22.8361
22.8362
22.8363
22.8364
22.8364
22.8365
22.8366
22.8367
22.8367
22.8368
22.8369
22.8369
22.837
22.837
22.8371
22.8371
22.8371
22.8372
22.8372
22.8372
22.8372
22.8372
22.8372
22.8372
22.8372
22.8372
22.8372
22.8371
22.8371
22.8371
22.837
22.837
22.8369
22.8369
22.8368
22.8367
22.8367
22.8366
22.8365
22.8364
22.8364
22.8363
22.8362
22.8361
22.8361
22.836
22.836
22.8359
22.8359
22.8359
22.8358
22.8358
22.8788
22.8788
22.8788
22.8788
22.8789
22.8789
22.879
22.879
22.8791
22.8791
22.8792
22.8793
22.8794
22.8795
22.8795
22.8796
22.8797
22.8797
22.8798
22.8799
22.8799
22.88
22.88
22.8801
22.8801
22.8801
22.8801
22.8802
22.8802
22.8802
22.8802
22.8802
22.8802
22.8801
22.8801
22.8801
22.8801
22.88
22.88
22.8799
22.8799
22.8798
22.8797
22.8797
22.8796
22.8795
22.8795
22.8794
22.8793
22.8792
22.8791
22.8791
22.879
22.879
22.8789
22.8789
22.8788
22.8788
22.8788
22.8788
22.9193
22.9193
22.9193
22.9193
22.9193
22.9194
22.9194
22.9195
22.9195
22.9196
22.9197
22.9198
22.9198
22.9199
22.92
22.9201
22.9202
22.9202
22.9203
22.9204
22.9204
22.9205
22.9205
22.9206
22.9206
22.9206
22.9206
22.9207
22.9207
22.9207
22.9207
22.9207
22.9207
22.9206
22.9206
22.9206
22.9206
22.9205
22.9205
22.9204
22.9204
22.9203
22.9202
22.9202
22.9201
22.92
22.9199
22.9198
22.9198
22.9197
22.9196
22.9195
22.9195
22.9194
22.9194
22.9193
22.9193
22.9193
22.9193
22.9193
22.9576
22.9576
22.9576
22.9576
22.9576
22.9577
22.9577
22.9578
22.9579
22.9579
22.958
22.9581
22.9582
22.9582
22.9583
22.9584
22.9585
22.9586
22.9586
22.9587
22.9587
22.9588
22.9588
22.9589
22.9589
22.959
22.959
22.959
22.959
22.959
22.959
22.959
22.959
22.959
22.959
22.9589
22.9589
22.9588
22.9588
22.9587
22.9587
22.9586
22.9586
22.9585
22.9584
22.9583
22.9582
22.9582
22.9581
22.958
22.9579
22.9579
22.9578
22.9577
22.9577
22.9576
22.9576
22.9576
22.9576
22.9576
22.994
22.994
22.994
22.994
22.9941
22.9941
22.9941
22.9942
22.9943
22.9943
22.9944
22.9945
22.9946
22.9947
22.9948
22.9948
22.9949
22.995
22.9951
22.9951
22.9952
22.9952
22.9953
22.9953
22.9954
22.9954
22.9954
22.9954
22.9955
22.9955
22.9955
22.9955
22.9954
22.9954
22.9954
22.9954
22.9953
22.9953
22.9952
22.9952
22.9951
22.9951
22.995
22.9949
22.9948
22.9948
22.9947
22.9946
22.9945
22.9944
22.9943
22.9943
22.9942
22.9941
22.9941
22.9941
22.994
22.994
22.994
22.994
23.0287
23.0287
23.0287
23.0288
23.0288
23.0288
23.0289
23.0289
23.029
23.0291
23.0292
23.0292
23.0293
23.0294
23.0295
23.0296
23.0297
23.0297
23.0298
23.0299
23.03
23.03
23.0301
23.0301
23.0301
23.0302
23.0302
23.0302
23.0302
23.0302
23.0302
23.0302
23.0302
23.0302
23.0302
23.0301
23.0301
23.0301
23.03
23.03
23.0299
23.0298
23.0297
23.0297
23.0296
23.0295
23.0294
23.0293
23.0292
23.0292
23.0291
23.029
23.0289
23.0289
23.0288
23.0288
23.0288
23.0287
23.0287
23.0287
23.062
23.062
23.062
23.062
23.062
23.062
23.0621
23.0622
23.0622
23.0623
23.0624
23.0625
23.0626
23.0627
23.0628
23.0628
23.0629
23.063
23.0631
23.0632
23.0632
23.0633
23.0633
23.0634
23.0634
23.0634
23.0635
23.0635
23.0635
23.0635
23.0635
23.0635
23.0635
23.0635
23.0634
23.0634
23.0634
23.0633
23.0633
23.0632
23.0632
23.0631
23.063
23.0629
23.0628
23.0628
23.0627
23.0626
23.0625
23.0624
23.0623
23.0622
23.0622
23.0621
23.062
23.062
23.062
23.062
23.062
23.062
23.0938
23.0938
23.0938
23.0938
23.0939
23.0939
23.094
23.094
23.0941
23.0942
23.0943
23.0944
23.0945
23.0946
23.0947
23.0947
23.0948
23.0949
23.095
23.0951
23.0951
23.0952
23.0952
23.0953
23.0953
23.0954
23.0954
23.0954
23.0954
23.0954
23.0954
23.0954
23.0954
23.0954
23.0954
23.0953
23.0953
23.0952
23.0952
23.0951
23.0951
23.095
23.0949
23.0948
23.0947
23.0947
23.0946
23.0945
23.0944
23.0943
23.0942
23.0941
23.094
23.094
23.0939
23.0939
23.0938
23.0938
23.0938
23.0938
23.1245
23.1245
23.1245
23.1245
23.1245
23.1246
23.1246
23.1247
23.1248
23.1249
23.1249
23.125
23.1251
23.1252
23.1253
23.1254
23.1255
23.1256
23.1257
23.1258
23.1258
23.1259
23.126
23.126
23.126
23.1261
23.1261
23.1261
23.1261
23.1262
23.1262
23.1261
23.1261
23.1261
23.1261
23.126
23.126
23.126
23.1259
23.1258
23.1258
23.1257
23.1256
23.1255
23.1254
23.1253
23.1252
23.1251
23.125
23.1249
23.1249
23.1248
23.1247
23.1246
23.1246
23.1245
23.1245
23.1245
23.1245
23.1245
23.154
23.154
23.154
23.154
23.1541
23.1541
23.1542
23.1542
23.1543
23.1544
23.1545
23.1546
23.1547
23.1548
23.1549
23.155
23.1551
23.1552
23.1553
23.1554
23.1554