/*--------------------------------*- C++ -*----------------------------------*\
| =========                 |                                                 |
| \\      /  F ield         | foam-extend: Open Source CFD                    |
|  \\    /   O peration     | Version:     4.0                                |
|   \\  /    A nd           | Web:         http://www.foam-extend.org         |
|    \\/     M anipulation  |                                                 |
\*---------------------------------------------------------------------------*/
FoamFile
{
    version     2.0;
    format      ascii;
    class       volScalarField;
    location    "280";
    object      psiE;
}
// * * * * * * * * * * * * * * * * * * * * * * * * * * * * * * * * * * * * * //

dimensions      [0 0 0 0 0 0 0];

internalField   nonuniform List<scalar> 
6960
(
0.402686
0.402728
0.40274
0.402742
0.402743
0.402744
0.402744
0.402744
0.402745
0.402745
0.402746
0.402746
0.402747
0.402748
0.402748
0.402749
0.40275
0.40275
0.402751
0.402751
0.402752
0.402752
0.402753
0.402753
0.402753
0.402754
0.402754
0.402754
0.402754
0.402754
0.402754
0.402754
0.402754
0.402754
0.402754
0.402753
0.402753
0.402753
0.402752
0.402752
0.402751
0.402751
0.40275
0.40275
0.402749
0.402748
0.402748
0.402747
0.402746
0.402746
0.402745
0.402745
0.402744
0.402744
0.402744
0.402743
0.402742
0.40274
0.402728
0.402686
1.10051
1.10067
1.10071
1.10072
1.10073
1.10073
1.10073
1.10073
1.10073
1.10073
1.10073
1.10073
1.10073
1.10073
1.10074
1.10074
1.10074
1.10074
1.10074
1.10074
1.10074
1.10074
1.10075
1.10075
1.10075
1.10075
1.10075
1.10075
1.10075
1.10075
1.10075
1.10075
1.10075
1.10075
1.10075
1.10075
1.10075
1.10075
1.10074
1.10074
1.10074
1.10074
1.10074
1.10074
1.10074
1.10074
1.10073
1.10073
1.10073
1.10073
1.10073
1.10073
1.10073
1.10073
1.10073
1.10073
1.10072
1.10071
1.10067
1.10051
1.7756
1.77588
1.77596
1.77598
1.77598
1.77598
1.77598
1.77598
1.77598
1.77598
1.77599
1.77599
1.77599
1.77599
1.77599
1.776
1.776
1.776
1.776
1.776
1.77601
1.77601
1.77601
1.77601
1.77601
1.77601
1.77601
1.77601
1.77601
1.77602
1.77602
1.77601
1.77601
1.77601
1.77601
1.77601
1.77601
1.77601
1.77601
1.77601
1.776
1.776
1.776
1.776
1.776
1.77599
1.77599
1.77599
1.77599
1.77599
1.77598
1.77598
1.77598
1.77598
1.77598
1.77598
1.77598
1.77596
1.77588
1.7756
2.43784
2.43824
2.43835
2.43838
2.43838
2.43838
2.43838
2.43838
2.43838
2.43838
2.43838
2.43838
2.43839
2.43839
2.43839
2.4384
2.4384
2.4384
2.4384
2.43841
2.43841
2.43841
2.43841
2.43841
2.43842
2.43842
2.43842
2.43842
2.43842
2.43842
2.43842
2.43842
2.43842
2.43842
2.43842
2.43842
2.43841
2.43841
2.43841
2.43841
2.43841
2.4384
2.4384
2.4384
2.4384
2.43839
2.43839
2.43839
2.43838
2.43838
2.43838
2.43838
2.43838
2.43838
2.43838
2.43838
2.43838
2.43835
2.43824
2.43784
3.08621
3.08671
3.08684
3.08687
3.08688
3.08688
3.08688
3.08688
3.08688
3.08688
3.08688
3.08688
3.08688
3.08689
3.08689
3.08689
3.0869
3.0869
3.0869
3.08691
3.08691
3.08691
3.08691
3.08692
3.08692
3.08692
3.08692
3.08692
3.08692
3.08692
3.08692
3.08692
3.08692
3.08692
3.08692
3.08692
3.08692
3.08691
3.08691
3.08691
3.08691
3.0869
3.0869
3.0869
3.08689
3.08689
3.08689
3.08688
3.08688
3.08688
3.08688
3.08688
3.08688
3.08688
3.08688
3.08688
3.08687
3.08684
3.08671
3.08621
3.71713
3.71772
3.71788
3.71792
3.71792
3.71792
3.71791
3.71791
3.71791
3.71791
3.71791
3.71792
3.71792
3.71792
3.71793
3.71793
3.71794
3.71794
3.71794
3.71795
3.71795
3.71795
3.71796
3.71796
3.71796
3.71796
3.71796
3.71796
3.71796
3.71796
3.71796
3.71796
3.71796
3.71796
3.71796
3.71796
3.71796
3.71796
3.71795
3.71795
3.71795
3.71794
3.71794
3.71794
3.71793
3.71793
3.71792
3.71792
3.71792
3.71791
3.71791
3.71791
3.71791
3.71791
3.71792
3.71792
3.71792
3.71788
3.71772
3.71713
4.32597
4.32662
4.32679
4.32683
4.32684
4.32683
4.32683
4.32682
4.32682
4.32682
4.32682
4.32683
4.32683
4.32683
4.32684
4.32684
4.32685
4.32685
4.32686
4.32686
4.32686
4.32687
4.32687
4.32687
4.32687
4.32688
4.32688
4.32688
4.32688
4.32688
4.32688
4.32688
4.32688
4.32688
4.32688
4.32687
4.32687
4.32687
4.32687
4.32686
4.32686
4.32686
4.32685
4.32685
4.32684
4.32684
4.32683
4.32683
4.32683
4.32682
4.32682
4.32682
4.32682
4.32683
4.32683
4.32684
4.32683
4.32679
4.32662
4.32597
4.90706
4.90775
4.90794
4.90798
4.90798
4.90797
4.90797
4.90796
4.90796
4.90796
4.90796
4.90796
4.90797
4.90797
4.90798
4.90798
4.90798
4.90799
4.90799
4.908
4.908
4.90801
4.90801
4.90801
4.90801
4.90802
4.90802
4.90802
4.90802
4.90802
4.90802
4.90802
4.90802
4.90802
4.90802
4.90801
4.90801
4.90801
4.90801
4.908
4.908
4.90799
4.90799
4.90798
4.90798
4.90798
4.90797
4.90797
4.90796
4.90796
4.90796
4.90796
4.90796
4.90797
4.90797
4.90798
4.90798
4.90794
4.90775
4.90706
5.4537
5.4544
5.45459
5.45463
5.45463
5.45462
5.45461
5.4546
5.4546
5.4546
5.4546
5.4546
5.4546
5.45461
5.45461
5.45462
5.45462
5.45463
5.45463
5.45464
5.45464
5.45464
5.45465
5.45465
5.45465
5.45465
5.45466
5.45466
5.45466
5.45466
5.45466
5.45466
5.45466
5.45466
5.45465
5.45465
5.45465
5.45465
5.45464
5.45464
5.45464
5.45463
5.45463
5.45462
5.45462
5.45461
5.45461
5.4546
5.4546
5.4546
5.4546
5.4546
5.4546
5.45461
5.45462
5.45463
5.45463
5.45459
5.4544
5.4537
5.95811
5.95878
5.95896
5.959
5.95899
5.95898
5.95897
5.95896
5.95895
5.95895
5.95895
5.95895
5.95895
5.95896
5.95896
5.95896
5.95897
5.95897
5.95898
5.95898
5.95899
5.95899
5.95899
5.959
5.959
5.959
5.959
5.95901
5.95901
5.95901
5.95901
5.95901
5.95901
5.959
5.959
5.959
5.959
5.95899
5.95899
5.95899
5.95898
5.95898
5.95897
5.95897
5.95896
5.95896
5.95896
5.95895
5.95895
5.95895
5.95895
5.95895
5.95896
5.95897
5.95898
5.95899
5.959
5.95896
5.95878
5.95811
6.41195
6.41255
6.41271
6.41273
6.41272
6.41271
6.41269
6.41268
6.41268
6.41267
6.41267
6.41267
6.41267
6.41267
6.41268
6.41268
6.41269
6.41269
6.4127
6.4127
6.4127
6.41271
6.41271
6.41271
6.41272
6.41272
6.41272
6.41272
6.41272
6.41272
6.41272
6.41272
6.41272
6.41272
6.41272
6.41272
6.41271
6.41271
6.41271
6.4127
6.4127
6.4127
6.41269
6.41269
6.41268
6.41268
6.41267
6.41267
6.41267
6.41267
6.41267
6.41268
6.41268
6.41269
6.41271
6.41272
6.41273
6.41271
6.41255
6.41195
6.80772
6.80823
6.80835
6.80837
6.80835
6.80833
6.80831
6.8083
6.80829
6.80828
6.80828
6.80828
6.80828
6.80828
6.80828
6.80829
6.80829
6.8083
6.8083
6.80831
6.80831
6.80831
6.80832
6.80832
6.80832
6.80832
6.80833
6.80833
6.80833
6.80833
6.80833
6.80833
6.80833
6.80833
6.80832
6.80832
6.80832
6.80832
6.80831
6.80831
6.80831
6.8083
6.8083
6.80829
6.80829
6.80828
6.80828
6.80828
6.80828
6.80828
6.80828
6.80829
6.8083
6.80831
6.80833
6.80835
6.80837
6.80835
6.80823
6.80772
7.14114
7.14152
7.14161
7.1416
7.14158
7.14156
7.14154
7.14152
7.14151
7.1415
7.1415
7.1415
7.1415
7.1415
7.1415
7.1415
7.14151
7.14151
7.14152
7.14152
7.14153
7.14153
7.14153
7.14154
7.14154
7.14154
7.14154
7.14154
7.14154
7.14154
7.14154
7.14154
7.14154
7.14154
7.14154
7.14154
7.14154
7.14153
7.14153
7.14153
7.14152
7.14152
7.14151
7.14151
7.1415
7.1415
7.1415
7.1415
7.1415
7.1415
7.1415
7.14151
7.14152
7.14154
7.14156
7.14158
7.1416
7.14161
7.14152
7.14114
7.41327
7.41351
7.41356
7.41354
7.41352
7.41349
7.41346
7.41345
7.41343
7.41342
7.41342
7.41342
7.41342
7.41342
7.41342
7.41343
7.41343
7.41344
7.41344
7.41344
7.41345
7.41345
7.41346
7.41346
7.41346
7.41347
7.41347
7.41347
7.41347
7.41347
7.41347
7.41347
7.41347
7.41347
7.41347
7.41346
7.41346
7.41346
7.41345
7.41345
7.41344
7.41344
7.41344
7.41343
7.41343
7.41342
7.41342
7.41342
7.41342
7.41342
7.41342
7.41343
7.41345
7.41346
7.41349
7.41352
7.41354
7.41356
7.41351
7.41327
7.63088
7.63099
7.63101
7.63098
7.63095
7.63092
7.63089
7.63087
7.63086
7.63085
7.63084
7.63084
7.63084
7.63085
7.63085
7.63085
7.63086
7.63087
7.63087
7.63088
7.63088
7.63089
7.63089
7.6309
7.6309
7.6309
7.6309
7.6309
7.63091
7.63091
7.63091
7.63091
7.6309
7.6309
7.6309
7.6309
7.6309
7.63089
7.63089
7.63088
7.63088
7.63087
7.63087
7.63086
7.63085
7.63085
7.63085
7.63084
7.63084
7.63084
7.63085
7.63086
7.63087
7.63089
7.63092
7.63095
7.63098
7.63101
7.63099
7.63088
7.80439
7.80441
7.80439
7.80435
7.80432
7.80429
7.80426
7.80424
7.80423
7.80422
7.80422
7.80422
7.80422
7.80422
7.80423
7.80423
7.80424
7.80425
7.80426
7.80426
7.80427
7.80427
7.80428
7.80428
7.80429
7.80429
7.80429
7.8043
7.8043
7.8043
7.8043
7.8043
7.8043
7.80429
7.80429
7.80429
7.80428
7.80428
7.80427
7.80427
7.80426
7.80426
7.80425
7.80424
7.80423
7.80423
7.80422
7.80422
7.80422
7.80422
7.80422
7.80423
7.80424
7.80426
7.80429
7.80432
7.80435
7.80439
7.80441
7.80439
7.94485
7.94479
7.94475
7.94471
7.94467
7.94464
7.94461
7.9446
7.94458
7.94458
7.94458
7.94458
7.94458
7.94459
7.9446
7.9446
7.94461
7.94462
7.94463
7.94464
7.94465
7.94465
7.94466
7.94467
7.94467
7.94468
7.94468
7.94468
7.94468
7.94468
7.94468
7.94468
7.94468
7.94468
7.94468
7.94467
7.94467
7.94466
7.94465
7.94465
7.94464
7.94463
7.94462
7.94461
7.9446
7.9446
7.94459
7.94458
7.94458
7.94458
7.94458
7.94458
7.9446
7.94461
7.94464
7.94467
7.94471
7.94475
7.94479
7.94485
8.06165
8.06154
8.06149
8.06144
8.0614
8.06137
8.06134
8.06133
8.06132
8.06131
8.06132
8.06132
8.06133
8.06133
8.06135
8.06136
8.06137
8.06138
8.06139
8.0614
8.06141
8.06142
8.06143
8.06144
8.06144
8.06145
8.06145
8.06145
8.06146
8.06146
8.06146
8.06146
8.06145
8.06145
8.06145
8.06144
8.06144
8.06143
8.06142
8.06141
8.0614
8.06139
8.06138
8.06137
8.06136
8.06135
8.06133
8.06133
8.06132
8.06132
8.06131
8.06132
8.06133
8.06134
8.06137
8.0614
8.06144
8.06149
8.06154
8.06165
8.16176
8.16163
8.16156
8.16151
8.16147
8.16144
8.16142
8.1614
8.16139
8.16139
8.1614
8.1614
8.16141
8.16143
8.16144
8.16145
8.16147
8.16148
8.1615
8.16151
8.16152
8.16153
8.16154
8.16155
8.16156
8.16156
8.16157
8.16157
8.16158
8.16158
8.16158
8.16158
8.16157
8.16157
8.16156
8.16156
8.16155
8.16154
8.16153
8.16152
8.16151
8.1615
8.16148
8.16147
8.16145
8.16144
8.16143
8.16141
8.1614
8.1614
8.16139
8.16139
8.1614
8.16142
8.16144
8.16147
8.16151
8.16156
8.16163
8.16176
8.24997
8.24981
8.24973
8.24968
8.24964
8.24961
8.24959
8.24958
8.24958
8.24958
8.24959
8.2496
8.24961
8.24963
8.24964
8.24966
8.24968
8.24969
8.24971
8.24973
8.24974
8.24975
8.24977
8.24978
8.24979
8.24979
8.2498
8.2498
8.24981
8.24981
8.24981
8.24981
8.2498
8.2498
8.24979
8.24979
8.24978
8.24977
8.24975
8.24974
8.24973
8.24971
8.24969
8.24968
8.24966
8.24964
8.24963
8.24961
8.2496
8.24959
8.24958
8.24958
8.24958
8.24959
8.24961
8.24964
8.24968
8.24973
8.24981
8.24997
8.32943
8.32926
8.32918
8.32913
8.32909
8.32906
8.32904
8.32903
8.32903
8.32904
8.32905
8.32906
8.32908
8.3291
8.32912
8.32914
8.32916
8.32918
8.3292
8.32922
8.32924
8.32925
8.32926
8.32928
8.32929
8.3293
8.3293
8.32931
8.32931
8.32931
8.32931
8.32931
8.32931
8.3293
8.3293
8.32929
8.32928
8.32926
8.32925
8.32924
8.32922
8.3292
8.32918
8.32916
8.32914
8.32912
8.3291
8.32908
8.32906
8.32905
8.32904
8.32903
8.32903
8.32904
8.32906
8.32909
8.32913
8.32918
8.32926
8.32943
8.40227
8.40209
8.40201
8.40195
8.40191
8.40189
8.40187
8.40187
8.40187
8.40188
8.40189
8.40191
8.40193
8.40196
8.40198
8.402
8.40203
8.40205
8.40208
8.4021
8.40212
8.40213
8.40215
8.40216
8.40218
8.40219
8.40219
8.4022
8.4022
8.40221
8.40221
8.4022
8.4022
8.40219
8.40219
8.40218
8.40216
8.40215
8.40213
8.40212
8.4021
8.40208
8.40205
8.40203
8.402
8.40198
8.40196
8.40193
8.40191
8.40189
8.40188
8.40187
8.40187
8.40187
8.40189
8.40191
8.40195
8.40201
8.40209
8.40227
8.46994
8.46977
8.46967
8.46962
8.46958
8.46956
8.46955
8.46955
8.46955
8.46956
8.46958
8.4696
8.46963
8.46966
8.46968
8.46971
8.46974
8.46977
8.46979
8.46982
8.46984
8.46986
8.46988
8.46989
8.46991
8.46992
8.46993
8.46994
8.46994
8.46994
8.46994
8.46994
8.46994
8.46993
8.46992
8.46991
8.46989
8.46988
8.46986
8.46984
8.46982
8.46979
8.46977
8.46974
8.46971
8.46968
8.46966
8.46963
8.4696
8.46958
8.46956
8.46955
8.46955
8.46955
8.46956
8.46958
8.46962
8.46967
8.46977
8.46994
8.5335
8.53332
8.53323
8.53317
8.53314
8.53312
8.53311
8.53311
8.53312
8.53314
8.53316
8.53318
8.53321
8.53324
8.53328
8.53331
8.53334
8.53337
8.5334
8.53343
8.53345
8.53348
8.5335
8.53351
8.53353
8.53354
8.53355
8.53356
8.53357
8.53357
8.53357
8.53357
8.53356
8.53355
8.53354
8.53353
8.53351
8.5335
8.53348
8.53345
8.53343
8.5334
8.53337
8.53334
8.53331
8.53328
8.53324
8.53321
8.53318
8.53316
8.53314
8.53312
8.53311
8.53311
8.53312
8.53314
8.53317
8.53323
8.53332
8.5335
8.59371
8.59354
8.59344
8.59339
8.59335
8.59334
8.59333
8.59334
8.59335
8.59337
8.5934
8.59343
8.59346
8.5935
8.59353
8.59357
8.5936
8.59364
8.59367
8.5937
8.59373
8.59376
8.59378
8.5938
8.59382
8.59383
8.59384
8.59385
8.59386
8.59386
8.59386
8.59386
8.59385
8.59384
8.59383
8.59382
8.5938
8.59378
8.59376
8.59373
8.5937
8.59367
8.59364
8.5936
8.59357
8.59353
8.5935
8.59346
8.59343
8.5934
8.59337
8.59335
8.59334
8.59333
8.59334
8.59335
8.59339
8.59344
8.59354
8.59371
8.65119
8.65101
8.65092
8.65086
8.65083
8.65082
8.65082
8.65082
8.65084
8.65087
8.6509
8.65093
8.65097
8.65101
8.65105
8.65109
8.65113
8.65117
8.65121
8.65124
8.65127
8.6513
8.65133
8.65135
8.65137
8.65138
8.6514
8.65141
8.65141
8.65142
8.65142
8.65141
8.65141
8.6514
8.65138
8.65137
8.65135
8.65133
8.6513
8.65127
8.65124
8.65121
8.65117
8.65113
8.65109
8.65105
8.65101
8.65097
8.65093
8.6509
8.65087
8.65084
8.65082
8.65082
8.65082
8.65083
8.65086
8.65092
8.65101
8.65119
8.7064
8.70622
8.70613
8.70607
8.70605
8.70603
8.70604
8.70605
8.70607
8.7061
8.70613
8.70617
8.70622
8.70626
8.70631
8.70635
8.7064
8.70644
8.70648
8.70652
8.70655
8.70658
8.70661
8.70664
8.70666
8.70667
8.70669
8.7067
8.70671
8.70671
8.70671
8.70671
8.7067
8.70669
8.70667
8.70666
8.70664
8.70661
8.70658
8.70655
8.70652
8.70648
8.70644
8.7064
8.70635
8.70631
8.70626
8.70622
8.70617
8.70613
8.7061
8.70607
8.70605
8.70604
8.70603
8.70605
8.70607
8.70613
8.70622
8.7064
8.75972
8.75955
8.75945
8.7594
8.75938
8.75937
8.75937
8.75939
8.75941
8.75945
8.75949
8.75953
8.75958
8.75963
8.75968
8.75973
8.75978
8.75983
8.75987
8.75991
8.75995
8.75998
8.76001
8.76004
8.76006
8.76008
8.7601
8.76011
8.76012
8.76012
8.76012
8.76012
8.76011
8.7601
8.76008
8.76006
8.76004
8.76001
8.75998
8.75995
8.75991
8.75987
8.75983
8.75978
8.75973
8.75968
8.75963
8.75958
8.75953
8.75949
8.75945
8.75941
8.75939
8.75937
8.75937
8.75938
8.7594
8.75945
8.75955
8.75972
8.81147
8.81131
8.81121
8.81116
8.81113
8.81113
8.81114
8.81116
8.81119
8.81123
8.81127
8.81132
8.81138
8.81143
8.81148
8.81154
8.81159
8.81164
8.81169
8.81174
8.81178
8.81182
8.81185
8.81188
8.8119
8.81192
8.81194
8.81195
8.81196
8.81197
8.81197
8.81196
8.81195
8.81194
8.81192
8.8119
8.81188
8.81185
8.81182
8.81178
8.81174
8.81169
8.81164
8.81159
8.81154
8.81148
8.81143
8.81138
8.81132
8.81127
8.81123
8.81119
8.81116
8.81114
8.81113
8.81113
8.81116
8.81121
8.81131
8.81147
8.86191
8.86175
8.86166
8.86161
8.86159
8.86158
8.8616
8.86162
8.86166
8.8617
8.86175
8.86181
8.86186
8.86192
8.86198
8.86204
8.8621
8.86216
8.86221
8.86226
8.8623
8.86234
8.86238
8.86241
8.86244
8.86246
8.86248
8.86249
8.8625
8.86251
8.86251
8.8625
8.86249
8.86248
8.86246
8.86244
8.86241
8.86238
8.86234
8.8623
8.86226
8.86221
8.86216
8.8621
8.86204
8.86198
8.86192
8.86186
8.86181
8.86175
8.8617
8.86166
8.86162
8.8616
8.86158
8.86159
8.86161
8.86166
8.86175
8.86191
8.91127
8.91111
8.91102
8.91097
8.91095
8.91095
8.91097
8.911
8.91104
8.91109
8.91114
8.9112
8.91127
8.91133
8.9114
8.91146
8.91153
8.91159
8.91164
8.9117
8.91174
8.91179
8.91183
8.91186
8.91189
8.91192
8.91194
8.91195
8.91196
8.91197
8.91197
8.91196
8.91195
8.91194
8.91192
8.91189
8.91186
8.91183
8.91179
8.91174
8.9117
8.91164
8.91159
8.91153
8.91146
8.9114
8.91133
8.91127
8.9112
8.91114
8.91109
8.91104
8.911
8.91097
8.91095
8.91095
8.91097
8.91102
8.91111
8.91127
8.95973
8.95958
8.95949
8.95944
8.95943
8.95943
8.95945
8.95949
8.95953
8.95959
8.95965
8.95971
8.95978
8.95985
8.95993
8.96
8.96006
8.96013
8.96019
8.96025
8.9603
8.96035
8.96039
8.96042
8.96046
8.96048
8.9605
8.96052
8.96053
8.96054
8.96054
8.96053
8.96052
8.9605
8.96048
8.96046
8.96042
8.96039
8.96035
8.9603
8.96025
8.96019
8.96013
8.96006
8.96
8.95993
8.95985
8.95978
8.95971
8.95965
8.95959
8.95953
8.95949
8.95945
8.95943
8.95943
8.95944
8.95949
8.95958
8.95973
9.00747
9.00733
9.00724
9.00719
9.00718
9.00719
9.00721
9.00725
9.0073
9.00736
9.00743
9.0075
9.00758
9.00765
9.00773
9.0078
9.00788
9.00795
9.00801
9.00807
9.00813
9.00818
9.00823
9.00827
9.0083
9.00833
9.00835
9.00837
9.00838
9.00839
9.00839
9.00838
9.00837
9.00835
9.00833
9.0083
9.00827
9.00823
9.00818
9.00813
9.00807
9.00801
9.00795
9.00788
9.0078
9.00773
9.00765
9.00758
9.0075
9.00743
9.00736
9.0073
9.00725
9.00721
9.00719
9.00718
9.00719
9.00724
9.00733
9.00747
9.05463
9.0545
9.05441
9.05436
9.05435
9.05437
9.0544
9.05444
9.0545
9.05456
9.05463
9.05471
9.05479
9.05488
9.05496
9.05504
9.05512
9.05519
9.05526
9.05533
9.05539
9.05544
9.05549
9.05553
9.05557
9.0556
9.05563
9.05564
9.05566
9.05566
9.05566
9.05566
9.05564
9.05563
9.0556
9.05557
9.05553
9.05549
9.05544
9.05539
9.05533
9.05526
9.05519
9.05512
9.05504
9.05496
9.05488
9.05479
9.05471
9.05463
9.05456
9.0545
9.05444
9.0544
9.05437
9.05435
9.05436
9.05441
9.0545
9.05463
9.10135
9.10122
9.10113
9.10109
9.10108
9.1011
9.10113
9.10118
9.10124
9.10132
9.1014
9.10148
9.10157
9.10166
9.10174
9.10183
9.10191
9.10199
9.10207
9.10214
9.1022
9.10226
9.10231
9.10236
9.1024
9.10243
9.10246
9.10248
9.10249
9.1025
9.1025
9.10249
9.10248
9.10246
9.10243
9.1024
9.10236
9.10231
9.10226
9.1022
9.10214
9.10207
9.10199
9.10191
9.10183
9.10174
9.10166
9.10157
9.10148
9.1014
9.10132
9.10124
9.10118
9.10113
9.1011
9.10108
9.10109
9.10113
9.10122
9.10135
9.14774
9.14762
9.14753
9.14749
9.14749
9.14751
9.14755
9.1476
9.14767
9.14775
9.14783
9.14792
9.14802
9.14811
9.14821
9.1483
9.14839
9.14847
9.14855
9.14863
9.1487
9.14876
9.14882
9.14886
9.14891
9.14894
9.14897
9.14899
9.149
9.14901
9.14901
9.149
9.14899
9.14897
9.14894
9.14891
9.14886
9.14882
9.14876
9.1487
9.14863
9.14855
9.14847
9.14839
9.1483
9.14821
9.14811
9.14802
9.14792
9.14783
9.14775
9.14767
9.1476
9.14755
9.14751
9.14749
9.14749
9.14753
9.14762
9.14774
9.19392
9.1938
9.19371
9.19368
9.19368
9.1937
9.19374
9.1938
9.19388
9.19396
9.19405
9.19415
9.19425
9.19435
9.19445
9.19455
9.19465
9.19474
9.19482
9.1949
9.19498
9.19504
9.1951
9.19515
9.1952
9.19524
9.19526
9.19529
9.1953
9.19531
9.19531
9.1953
9.19529
9.19526
9.19524
9.1952
9.19515
9.1951
9.19504
9.19498
9.1949
9.19482
9.19474
9.19465
9.19455
9.19445
9.19435
9.19425
9.19415
9.19405
9.19396
9.19388
9.1938
9.19374
9.1937
9.19368
9.19368
9.19371
9.1938
9.19392
9.23997
9.23986
9.23978
9.23974
9.23975
9.23977
9.23982
9.23989
9.23997
9.24006
9.24016
9.24026
9.24037
9.24048
9.24058
9.24069
9.24079
9.24089
9.24098
9.24106
9.24114
9.24121
9.24127
9.24133
9.24138
9.24142
9.24145
9.24147
9.24149
9.24149
9.24149
9.24149
9.24147
9.24145
9.24142
9.24138
9.24133
9.24127
9.24121
9.24114
9.24106
9.24098
9.24089
9.24079
9.24069
9.24058
9.24048
9.24037
9.24026
9.24016
9.24006
9.23997
9.23989
9.23982
9.23977
9.23975
9.23974
9.23978
9.23986
9.23997
9.286
9.28589
9.28581
9.28578
9.28579
9.28582
9.28588
9.28595
9.28603
9.28613
9.28624
9.28635
9.28646
9.28658
9.28669
9.2868
9.28691
9.28701
9.28711
9.2872
9.28728
9.28736
9.28742
9.28748
9.28753
9.28757
9.28761
9.28763
9.28765
9.28766
9.28766
9.28765
9.28763
9.28761
9.28757
9.28753
9.28748
9.28742
9.28736
9.28728
9.2872
9.28711
9.28701
9.28691
9.2868
9.28669
9.28658
9.28646
9.28635
9.28624
9.28613
9.28603
9.28595
9.28588
9.28582
9.28579
9.28578
9.28581
9.28589
9.286
9.33209
9.33198
9.33191
9.33188
9.33189
9.33193
9.33199
9.33207
9.33216
9.33226
9.33238
9.33249
9.33262
9.33274
9.33286
9.33298
9.33309
9.3332
9.3333
9.3334
9.33349
9.33356
9.33364
9.3337
9.33375
9.33379
9.33383
9.33386
9.33387
9.33388
9.33388
9.33387
9.33386
9.33383
9.33379
9.33375
9.3337
9.33364
9.33356
9.33349
9.3334
9.3333
9.3332
9.33309
9.33298
9.33286
9.33274
9.33262
9.33249
9.33238
9.33226
9.33216
9.33207
9.33199
9.33193
9.33189
9.33188
9.33191
9.33198
9.33209
9.37831
9.37821
9.37814
9.37812
9.37813
9.37818
9.37824
9.37833
9.37843
9.37854
9.37866
9.37878
9.37891
9.37904
9.37917
9.3793
9.37942
9.37953
9.37964
9.37974
9.37983
9.37992
9.37999
9.38006
9.38011
9.38016
9.3802
9.38022
9.38024
9.38025
9.38025
9.38024
9.38022
9.3802
9.38016
9.38011
9.38006
9.37999
9.37992
9.37983
9.37974
9.37964
9.37953
9.37942
9.3793
9.37917
9.37904
9.37891
9.37878
9.37866
9.37854
9.37843
9.37833
9.37824
9.37818
9.37813
9.37812
9.37814
9.37821
9.37831
9.42476
9.42466
9.4246
9.42458
9.4246
9.42464
9.42471
9.4248
9.42491
9.42503
9.42516
9.42529
9.42543
9.42557
9.4257
9.42584
9.42596
9.42609
9.4262
9.42631
9.4264
9.42649
9.42657
9.42664
9.4267
9.42675
9.42679
9.42682
9.42684
9.42684
9.42684
9.42684
9.42682
9.42679
9.42675
9.4267
9.42664
9.42657
9.42649
9.4264
9.42631
9.4262
9.42609
9.42596
9.42584
9.4257
9.42557
9.42543
9.42529
9.42516
9.42503
9.42491
9.4248
9.42471
9.42464
9.4246
9.42458
9.4246
9.42466
9.42476
9.47149
9.4714
9.47134
9.47132
9.47135
9.4714
9.47148
9.47157
9.47169
9.47181
9.47195
9.47209
9.47224
9.47238
9.47253
9.47267
9.4728
9.47293
9.47305
9.47316
9.47327
9.47336
9.47344
9.47351
9.47358
9.47363
9.47367
9.4737
9.47372
9.47373
9.47373
9.47372
9.4737
9.47367
9.47363
9.47358
9.47351
9.47344
9.47336
9.47327
9.47316
9.47305
9.47293
9.4728
9.47267
9.47253
9.47238
9.47224
9.47209
9.47195
9.47181
9.47169
9.47157
9.47148
9.4714
9.47135
9.47132
9.47134
9.4714
9.47149
9.51859
9.5185
9.51844
9.51843
9.51846
9.51852
9.5186
9.5187
9.51883
9.51896
9.5191
9.51926
9.51941
9.51956
9.51971
9.51986
9.52001
9.52014
9.52027
9.52039
9.52049
9.52059
9.52068
9.52075
9.52082
9.52087
9.52092
9.52095
9.52097
9.52098
9.52098
9.52097
9.52095
9.52092
9.52087
9.52082
9.52075
9.52068
9.52059
9.52049
9.52039
9.52027
9.52014
9.52001
9.51986
9.51971
9.51956
9.51941
9.51926
9.5191
9.51896
9.51883
9.5187
9.5186
9.51852
9.51846
9.51843
9.51844
9.5185
9.51859
9.56611
9.56603
9.56597
9.56597
9.566
9.56606
9.56615
9.56626
9.56639
9.56654
9.56669
9.56685
9.56701
9.56717
9.56733
9.56749
9.56764
9.56778
9.56792
9.56804
9.56815
9.56826
9.56835
9.56843
9.5685
9.56855
9.5686
9.56863
9.56866
9.56867
9.56867
9.56866
9.56863
9.5686
9.56855
9.5685
9.56843
9.56835
9.56826
9.56815
9.56804
9.56792
9.56778
9.56764
9.56749
9.56733
9.56717
9.56701
9.56685
9.56669
9.56654
9.56639
9.56626
9.56615
9.56606
9.566
9.56597
9.56597
9.56603
9.56611
9.61413
9.61405
9.614
9.614
9.61403
9.6141
9.6142
9.61432
9.61446
9.61461
9.61477
9.61494
9.61511
9.61528
9.61545
9.61561
9.61577
9.61592
9.61606
9.61619
9.61631
9.61642
9.61652
9.6166
9.61667
9.61673
9.61678
9.61682
9.61684
9.61685
9.61685
9.61684
9.61682
9.61678
9.61673
9.61667
9.6166
9.61652
9.61642
9.61631
9.61619
9.61606
9.61592
9.61577
9.61561
9.61545
9.61528
9.61511
9.61494
9.61477
9.61461
9.61446
9.61432
9.6142
9.6141
9.61403
9.614
9.614
9.61405
9.61413
9.6627
9.66263
9.66258
9.66258
9.66262
9.6627
9.66281
9.66293
9.66308
9.66324
9.66341
9.66359
9.66377
9.66395
9.66413
9.6643
9.66447
9.66462
9.66477
9.66491
9.66503
9.66515
9.66525
9.66534
9.66541
9.66548
9.66553
9.66556
9.66559
9.6656
9.6656
9.66559
9.66556
9.66553
9.66548
9.66541
9.66534
9.66525
9.66515
9.66503
9.66491
9.66477
9.66462
9.66447
9.6643
9.66413
9.66395
9.66377
9.66359
9.66341
9.66324
9.66308
9.66293
9.66281
9.6627
9.66262
9.66258
9.66258
9.66263
9.6627
9.7119
9.71183
9.71179
9.71179
9.71184
9.71192
9.71203
9.71217
9.71232
9.71249
9.71267
9.71286
9.71305
9.71324
9.71343
9.71361
9.71378
9.71395
9.71411
9.71425
9.71438
9.7145
9.71461
9.7147
9.71478
9.71485
9.7149
9.71494
9.71497
9.71498
9.71498
9.71497
9.71494
9.7149
9.71485
9.71478
9.7147
9.71461
9.7145
9.71438
9.71425
9.71411
9.71395
9.71378
9.71361
9.71343
9.71324
9.71305
9.71286
9.71267
9.71249
9.71232
9.71217
9.71203
9.71192
9.71184
9.71179
9.71179
9.71183
9.7119
9.76177
9.76171
9.76168
9.76169
9.76174
9.76183
9.76195
9.76209
9.76226
9.76243
9.76262
9.76282
9.76302
9.76322
9.76342
9.76361
9.76379
9.76397
9.76413
9.76428
9.76442
9.76454
9.76465
9.76475
9.76483
9.7649
9.76496
9.765
9.76503
9.76504
9.76504
9.76503
9.765
9.76496
9.7649
9.76483
9.76475
9.76465
9.76454
9.76442
9.76428
9.76413
9.76397
9.76379
9.76361
9.76342
9.76322
9.76302
9.76282
9.76262
9.76243
9.76226
9.76209
9.76195
9.76183
9.76174
9.76169
9.76168
9.76171
9.76177
9.8124
9.81234
9.81231
9.81232
9.81238
9.81248
9.81261
9.81276
9.81293
9.81312
9.81332
9.81353
9.81374
9.81395
9.81416
9.81436
9.81455
9.81473
9.8149
9.81506
9.8152
9.81533
9.81545
9.81555
9.81564
9.81571
9.81577
9.81582
9.81584
9.81586
9.81586
9.81584
9.81582
9.81577
9.81571
9.81564
9.81555
9.81545
9.81533
9.8152
9.81506
9.8149
9.81473
9.81455
9.81436
9.81416
9.81395
9.81374
9.81353
9.81332
9.81312
9.81293
9.81276
9.81261
9.81248
9.81238
9.81232
9.81231
9.81234
9.8124
9.86382
9.86377
9.86375
9.86377
9.86383
9.86393
9.86407
9.86423
9.86442
9.86462
9.86483
9.86504
9.86527
9.86549
9.8657
9.86591
9.86611
9.8663
9.86648
9.86665
9.8668
9.86694
9.86706
9.86717
9.86726
9.86734
9.8674
9.86744
9.86747
9.86749
9.86749
9.86747
9.86744
9.8674
9.86734
9.86726
9.86717
9.86706
9.86694
9.8668
9.86665
9.86648
9.8663
9.86611
9.86591
9.8657
9.86549
9.86527
9.86504
9.86483
9.86462
9.86442
9.86423
9.86407
9.86393
9.86383
9.86377
9.86375
9.86377
9.86382
9.91612
9.91607
9.91605
9.91608
9.91615
9.91626
9.9164
9.91657
9.91677
9.91698
9.9172
9.91743
9.91766
9.91789
9.91812
9.91834
9.91855
9.91875
9.91894
9.91911
9.91927
9.91941
9.91954
9.91965
9.91975
9.91983
9.91989
9.91994
9.91997
9.91999
9.91999
9.91997
9.91994
9.91989
9.91983
9.91975
9.91965
9.91954
9.91941
9.91927
9.91911
9.91894
9.91875
9.91855
9.91834
9.91812
9.91789
9.91766
9.91743
9.9172
9.91698
9.91677
9.91657
9.9164
9.91626
9.91615
9.91608
9.91605
9.91607
9.91612
9.96934
9.9693
9.96928
9.96931
9.96939
9.96951
9.96966
9.96984
9.97005
9.97027
9.9705
9.97074
9.97099
9.97123
9.97147
9.9717
9.97192
9.97213
9.97232
9.97251
9.97267
9.97282
9.97296
9.97307
9.97317
9.97326
9.97332
9.97337
9.97341
9.97342
9.97342
9.97341
9.97337
9.97332
9.97326
9.97317
9.97307
9.97296
9.97282
9.97267
9.97251
9.97232
9.97213
9.97192
9.9717
9.97147
9.97123
9.97099
9.97074
9.9705
9.97027
9.97005
9.96984
9.96966
9.96951
9.96939
9.96931
9.96928
9.9693
9.96934
10.0235
10.0235
10.0235
10.0235
10.0236
10.0237
10.0239
10.0241
10.0243
10.0245
10.0248
10.025
10.0253
10.0256
10.0258
10.026
10.0263
10.0265
10.0267
10.0269
10.0271
10.0272
10.0274
10.0275
10.0276
10.0277
10.0277
10.0278
10.0278
10.0279
10.0279
10.0278
10.0278
10.0277
10.0277
10.0276
10.0275
10.0274
10.0272
10.0271
10.0269
10.0267
10.0265
10.0263
10.026
10.0258
10.0256
10.0253
10.025
10.0248
10.0245
10.0243
10.0241
10.0239
10.0237
10.0236
10.0235
10.0235
10.0235
10.0235
10.0788
10.0788
10.0788
10.0788
10.0789
10.079
10.0792
10.0794
10.0796
10.0799
10.0801
10.0804
10.0807
10.0809
10.0812
10.0814
10.0817
10.0819
10.0821
10.0823
10.0825
10.0827
10.0828
10.083
10.0831
10.0832
10.0832
10.0833
10.0833
10.0833
10.0833
10.0833
10.0833
10.0832
10.0832
10.0831
10.083
10.0828
10.0827
10.0825
10.0823
10.0821
10.0819
10.0817
10.0814
10.0812
10.0809
10.0807
10.0804
10.0801
10.0799
10.0796
10.0794
10.0792
10.079
10.0789
10.0788
10.0788
10.0788
10.0788
10.1352
10.1351
10.1351
10.1352
10.1353
10.1354
10.1356
10.1358
10.1361
10.1363
10.1366
10.1369
10.1371
10.1374
10.1377
10.138
10.1382
10.1385
10.1387
10.1389
10.1391
10.1392
10.1394
10.1395
10.1396
10.1397
10.1398
10.1399
10.1399
10.1399
10.1399
10.1399
10.1399
10.1398
10.1397
10.1396
10.1395
10.1394
10.1392
10.1391
10.1389
10.1387
10.1385
10.1382
10.138
10.1377
10.1374
10.1371
10.1369
10.1366
10.1363
10.1361
10.1358
10.1356
10.1354
10.1353
10.1352
10.1351
10.1351
10.1352
10.1927
10.1927
10.1927
10.1927
10.1928
10.193
10.1932
10.1934
10.1937
10.1939
10.1942
10.1945
10.1948
10.1951
10.1954
10.1957
10.1959
10.1962
10.1964
10.1966
10.1968
10.197
10.1972
10.1973
10.1974
10.1975
10.1976
10.1976
10.1977
10.1977
10.1977
10.1977
10.1976
10.1976
10.1975
10.1974
10.1973
10.1972
10.197
10.1968
10.1966
10.1964
10.1962
10.1959
10.1957
10.1954
10.1951
10.1948
10.1945
10.1942
10.1939
10.1937
10.1934
10.1932
10.193
10.1928
10.1927
10.1927
10.1927
10.1927
10.2514
10.2514
10.2514
10.2515
10.2516
10.2518
10.252
10.2522
10.2525
10.2528
10.2531
10.2534
10.2537
10.254
10.2543
10.2546
10.2549
10.2551
10.2554
10.2556
10.2558
10.256
10.2561
10.2563
10.2564
10.2565
10.2566
10.2567
10.2567
10.2567
10.2567
10.2567
10.2567
10.2566
10.2565
10.2564
10.2563
10.2561
10.256
10.2558
10.2556
10.2554
10.2551
10.2549
10.2546
10.2543
10.254
10.2537
10.2534
10.2531
10.2528
10.2525
10.2522
10.252
10.2518
10.2516
10.2515
10.2514
10.2514
10.2514
10.3115
10.3115
10.3115
10.3116
10.3117
10.3119
10.3121
10.3123
10.3126
10.3129
10.3132
10.3135
10.3139
10.3142
10.3145
10.3148
10.3151
10.3154
10.3156
10.3159
10.3161
10.3163
10.3164
10.3166
10.3167
10.3168
10.3169
10.317
10.317
10.317
10.317
10.317
10.317
10.3169
10.3168
10.3167
10.3166
10.3164
10.3163
10.3161
10.3159
10.3156
10.3154
10.3151
10.3148
10.3145
10.3142
10.3139
10.3135
10.3132
10.3129
10.3126
10.3123
10.3121
10.3119
10.3117
10.3116
10.3115
10.3115
10.3115
10.3729
10.3729
10.3729
10.373
10.3731
10.3733
10.3735
10.3738
10.3741
10.3744
10.3747
10.3751
10.3754
10.3757
10.3761
10.3764
10.3767
10.377
10.3772
10.3775
10.3777
10.3779
10.3781
10.3782
10.3784
10.3785
10.3786
10.3786
10.3787
10.3787
10.3787
10.3787
10.3786
10.3786
10.3785
10.3784
10.3782
10.3781
10.3779
10.3777
10.3775
10.3772
10.377
10.3767
10.3764
10.3761
10.3757
10.3754
10.3751
10.3747
10.3744
10.3741
10.3738
10.3735
10.3733
10.3731
10.373
10.3729
10.3729
10.3729
10.4357
10.4357
10.4357
10.4358
10.436
10.4362
10.4364
10.4367
10.437
10.4373
10.4377
10.438
10.4384
10.4387
10.4391
10.4394
10.4397
10.44
10.4403
10.4405
10.4408
10.441
10.4412
10.4413
10.4415
10.4416
10.4417
10.4418
10.4418
10.4418
10.4418
10.4418
10.4418
10.4417
10.4416
10.4415
10.4413
10.4412
10.441
10.4408
10.4405
10.4403
10.44
10.4397
10.4394
10.4391
10.4387
10.4384
10.438
10.4377
10.4373
10.437
10.4367
10.4364
10.4362
10.436
10.4358
10.4357
10.4357
10.4357
10.5
10.5
10.5
10.5001
10.5003
10.5005
10.5008
10.5011
10.5014
10.5017
10.5021
10.5025
10.5028
10.5032
10.5035
10.5039
10.5042
10.5045
10.5048
10.5051
10.5053
10.5055
10.5057
10.5059
10.5061
10.5062
10.5063
10.5063
10.5064
10.5064
10.5064
10.5064