/*--------------------------------*- C++ -*----------------------------------*\
| =========                 |                                                 |
| \\      /  F ield         | foam-extend: Open Source CFD                    |
|  \\    /   O peration     | Version:     4.0                                |
|   \\  /    A nd           | Web:         http://www.foam-extend.org         |
|    \\/     M anipulation  |                                                 |
\*---------------------------------------------------------------------------*/
FoamFile
{
    version     2.0;
    format      ascii;
    class       volScalarField;
    location    "960";
    object      psiE;
}
// * * * * * * * * * * * * * * * * * * * * * * * * * * * * * * * * * * * * * //

dimensions      [0 0 0 0 0 0 0];

internalField   nonuniform List<scalar> 
6960
(
0.371402
0.371424
0.371445
0.371462
0.371476
0.371486
0.371493
0.371499
0.371503
0.371506
0.371508
0.37151
0.371511
0.371512
0.371513
0.371514
0.371514
0.371515
0.371515
0.371515
0.371516
0.371516
0.371516
0.371516
0.371516
0.371517
0.371517
0.371517
0.371517
0.371517
0.371517
0.371517
0.371517
0.371517
0.371517
0.371516
0.371516
0.371516
0.371516
0.371516
0.371515
0.371515
0.371515
0.371514
0.371514
0.371513
0.371512
0.371511
0.37151
0.371508
0.371506
0.371503
0.371499
0.371493
0.371486
0.371476
0.371462
0.371445
0.371424
0.371402
0.983786
0.983873
0.983959
0.984029
0.984083
0.984123
0.984153
0.984175
0.984191
0.984203
0.984211
0.984218
0.984223
0.984227
0.98423
0.984232
0.984234
0.984236
0.984237
0.984238
0.984239
0.98424
0.984241
0.984241
0.984242
0.984242
0.984243
0.984243
0.984243
0.984243
0.984243
0.984243
0.984243
0.984243
0.984242
0.984242
0.984241
0.984241
0.98424
0.984239
0.984238
0.984237
0.984236
0.984234
0.984232
0.98423
0.984227
0.984223
0.984218
0.984211
0.984203
0.984191
0.984175
0.984153
0.984123
0.984083
0.984029
0.983959
0.983873
0.983786
1.57479
1.57496
1.57512
1.57526
1.57536
1.57544
1.57549
1.57553
1.57557
1.57559
1.5756
1.57562
1.57563
1.57563
1.57564
1.57564
1.57565
1.57565
1.57565
1.57565
1.57566
1.57566
1.57566
1.57566
1.57566
1.57566
1.57566
1.57566
1.57566
1.57566
1.57566
1.57566
1.57566
1.57566
1.57566
1.57566
1.57566
1.57566
1.57566
1.57566
1.57565
1.57565
1.57565
1.57565
1.57564
1.57564
1.57563
1.57563
1.57562
1.5756
1.57559
1.57557
1.57553
1.57549
1.57544
1.57536
1.57526
1.57512
1.57496
1.57479
2.16807
2.16832
2.16856
2.16877
2.16892
2.16904
2.16912
2.16919
2.16923
2.16926
2.16929
2.16931
2.16932
2.16933
2.16934
2.16935
2.16935
2.16936
2.16936
2.16936
2.16937
2.16937
2.16937
2.16937
2.16937
2.16937
2.16937
2.16938
2.16938
2.16938
2.16938
2.16938
2.16938
2.16937
2.16937
2.16937
2.16937
2.16937
2.16937
2.16937
2.16936
2.16936
2.16936
2.16935
2.16935
2.16934
2.16933
2.16932
2.16931
2.16929
2.16926
2.16923
2.16919
2.16912
2.16904
2.16892
2.16877
2.16856
2.16832
2.16807
2.76977
2.77011
2.77044
2.77071
2.77092
2.77108
2.77119
2.77128
2.77134
2.77138
2.77142
2.77144
2.77146
2.77147
2.77148
2.77149
2.7715
2.77151
2.77151
2.77152
2.77152
2.77152
2.77152
2.77153
2.77153
2.77153
2.77153
2.77153
2.77153
2.77153
2.77153
2.77153
2.77153
2.77153
2.77153
2.77153
2.77153
2.77152
2.77152
2.77152
2.77152
2.77151
2.77151
2.7715
2.77149
2.77148
2.77147
2.77146
2.77144
2.77142
2.77138
2.77134
2.77128
2.77119
2.77108
2.77092
2.77071
2.77044
2.77011
2.76977
3.38139
3.38182
3.38223
3.38257
3.38284
3.38304
3.38318
3.38329
3.38337
3.38342
3.38347
3.3835
3.38352
3.38354
3.38355
3.38356
3.38357
3.38358
3.38358
3.38359
3.38359
3.3836
3.3836
3.3836
3.38361
3.38361
3.38361
3.38361
3.38361
3.38361
3.38361
3.38361
3.38361
3.38361
3.38361
3.38361
3.3836
3.3836
3.3836
3.38359
3.38359
3.38358
3.38358
3.38357
3.38356
3.38355
3.38354
3.38352
3.3835
3.38347
3.38342
3.38337
3.38329
3.38318
3.38304
3.38284
3.38257
3.38223
3.38182
3.38139
4.00313
4.00364
4.00414
4.00456
4.00487
4.00511
4.00529
4.00542
4.00551
4.00558
4.00563
4.00567
4.0057
4.00572
4.00574
4.00575
4.00576
4.00577
4.00578
4.00578
4.00579
4.00579
4.0058
4.0058
4.0058
4.0058
4.0058
4.00581
4.00581
4.00581
4.00581
4.00581
4.00581
4.0058
4.0058
4.0058
4.0058
4.0058
4.00579
4.00579
4.00578
4.00578
4.00577
4.00576
4.00575
4.00574
4.00572
4.0057
4.00567
4.00563
4.00558
4.00551
4.00542
4.00529
4.00511
4.00487
4.00456
4.00414
4.00364
4.00313
4.6348
4.6354
4.63599
4.63647
4.63685
4.63713
4.63733
4.63748
4.63759
4.63767
4.63773
4.63778
4.63781
4.63784
4.63786
4.63787
4.63788
4.63789
4.6379
4.63791
4.63792
4.63792
4.63793
4.63793
4.63793
4.63793
4.63794
4.63794
4.63794
4.63794
4.63794
4.63794
4.63794
4.63794
4.63793
4.63793
4.63793
4.63793
4.63792
4.63792
4.63791
4.6379
4.63789
4.63788
4.63787
4.63786
4.63784
4.63781
4.63778
4.63773
4.63767
4.63759
4.63748
4.63733
4.63713
4.63685
4.63647
4.63599
4.6354
4.6348
5.27609
5.27677
5.27745
5.278
5.27843
5.27875
5.27899
5.27916
5.27929
5.27938
5.27945
5.2795
5.27954
5.27957
5.27959
5.27961
5.27962
5.27963
5.27964
5.27965
5.27966
5.27966
5.27967
5.27967
5.27968
5.27968
5.27968
5.27968
5.27968
5.27968
5.27968
5.27968
5.27968
5.27968
5.27968
5.27968
5.27967
5.27967
5.27966
5.27966
5.27965
5.27964
5.27963
5.27962
5.27961
5.27959
5.27957
5.27954
5.2795
5.27945
5.27938
5.27929
5.27916
5.27899
5.27875
5.27843
5.278
5.27745
5.27677
5.27609
5.92659
5.92735
5.92811
5.92874
5.92922
5.92958
5.92985
5.93004
5.93019
5.93029
5.93037
5.93042
5.93047
5.9305
5.93053
5.93055
5.93056
5.93058
5.93059
5.9306
5.9306
5.93061
5.93062
5.93062
5.93062
5.93063
5.93063
5.93063
5.93063
5.93063
5.93063
5.93063
5.93063
5.93063
5.93063
5.93062
5.93062
5.93062
5.93061
5.9306
5.9306
5.93059
5.93058
5.93056
5.93055
5.93053
5.9305
5.93047
5.93042
5.93037
5.93029
5.93019
5.93004
5.92985
5.92958
5.92922
5.92874
5.92811
5.92735
5.92659
6.5858
6.58665
6.58749
6.58819
6.58872
6.58913
6.58942
6.58964
6.5898
6.58991
6.59
6.59006
6.59011
6.59015
6.59018
6.5902
6.59022
6.59023
6.59024
6.59025
6.59026
6.59027
6.59028
6.59028
6.59029
6.59029
6.59029
6.59029
6.5903
6.5903
6.5903
6.5903
6.59029
6.59029
6.59029
6.59029
6.59028
6.59028
6.59027
6.59026
6.59025
6.59024
6.59023
6.59022
6.5902
6.59018
6.59015
6.59011
6.59006
6.59
6.58991
6.5898
6.58964
6.58942
6.58913
6.58872
6.58819
6.58749
6.58665
6.5858
7.25316
7.25409
7.25502
7.25578
7.25637
7.25681
7.25714
7.25737
7.25755
7.25768
7.25777
7.25784
7.25789
7.25793
7.25796
7.25799
7.25801
7.25803
7.25804
7.25805
7.25806
7.25807
7.25808
7.25808
7.25809
7.25809
7.25809
7.2581
7.2581
7.2581
7.2581
7.2581
7.2581
7.25809
7.25809
7.25809
7.25808
7.25808
7.25807
7.25806
7.25805
7.25804
7.25803
7.25801
7.25799
7.25796
7.25793
7.25789
7.25784
7.25777
7.25768
7.25755
7.25737
7.25714
7.25681
7.25637
7.25578
7.25502
7.25409
7.25316
7.928
7.92901
7.93002
7.93084
7.93148
7.93196
7.93232
7.93258
7.93277
7.93291
7.93301
7.93309
7.93314
7.93319
7.93322
7.93325
7.93327
7.93329
7.93331
7.93332
7.93333
7.93334
7.93335
7.93335
7.93336
7.93336
7.93337
7.93337
7.93337
7.93337
7.93337
7.93337
7.93337
7.93337
7.93336
7.93336
7.93335
7.93335
7.93334
7.93333
7.93332
7.93331
7.93329
7.93327
7.93325
7.93322
7.93319
7.93314
7.93309
7.93301
7.93291
7.93277
7.93258
7.93232
7.93196
7.93148
7.93084
7.93002
7.92901
7.928
8.60954
8.61063
8.61171
8.61261
8.6133
8.61381
8.6142
8.61448
8.61468
8.61483
8.61494
8.61503
8.61509
8.61514
8.61518
8.61521
8.61523
8.61525
8.61527
8.61528
8.61529
8.6153
8.61531
8.61532
8.61532
8.61533
8.61533
8.61533
8.61533
8.61534
8.61534
8.61533
8.61533
8.61533
8.61533
8.61532
8.61532
8.61531
8.6153
8.61529
8.61528
8.61527
8.61525
8.61523
8.61521
8.61518
8.61514
8.61509
8.61503
8.61494
8.61483
8.61468
8.61448
8.6142
8.61381
8.6133
8.61261
8.61171
8.61063
8.60954
9.29688
9.29805
9.29921
9.30017
9.30091
9.30146
9.30187
9.30217
9.30239
9.30256
9.30267
9.30276
9.30283
9.30288
9.30292
9.30295
9.30298
9.303
9.30302
9.30304
9.30305
9.30306
9.30307
9.30308
9.30308
9.30309
9.30309
9.30309
9.3031
9.3031
9.3031
9.3031
9.30309
9.30309
9.30309
9.30308
9.30308
9.30307
9.30306
9.30305
9.30304
9.30302
9.303
9.30298
9.30295
9.30292
9.30288
9.30283
9.30276
9.30267
9.30256
9.30239
9.30217
9.30187
9.30146
9.30091
9.30017
9.29921
9.29805
9.29688
9.98901
9.99025
9.99148
9.9925
9.99329
9.99388
9.99431
9.99463
9.99487
9.99504
9.99517
9.99526
9.99533
9.99539
9.99543
9.99547
9.99549
9.99552
9.99554
9.99555
9.99557
9.99558
9.99559
9.99559
9.9956
9.99561
9.99561
9.99561
9.99562
9.99562
9.99562
9.99562
9.99561
9.99561
9.99561
9.9956
9.99559
9.99559
9.99558
9.99557
9.99555
9.99554
9.99552
9.99549
9.99547
9.99543
9.99539
9.99533
9.99526
9.99517
9.99504
9.99487
9.99463
9.99431
9.99388
9.99329
9.9925
9.99148
9.99025
9.98901
10.6847
10.686
10.6873
10.6884
10.6892
10.6899
10.6903
10.6907
10.6909
10.6911
10.6912
10.6913
10.6914
10.6915
10.6915
10.6915
10.6916
10.6916
10.6916
10.6916
10.6917
10.6917
10.6917
10.6917
10.6917
10.6917
10.6917
10.6917
10.6917
10.6917
10.6917
10.6917
10.6917
10.6917
10.6917
10.6917
10.6917
10.6917
10.6917
10.6917
10.6916
10.6916
10.6916
10.6916
10.6915
10.6915
10.6915
10.6914
10.6913
10.6912
10.6911
10.6909
10.6907
10.6903
10.6899
10.6892
10.6884
10.6873
10.686
10.6847
11.3826
11.384
11.3854
11.3865
11.3874
11.388
11.3885
11.3889
11.3892
11.3893
11.3895
11.3896
11.3897
11.3897
11.3898
11.3898
11.3899
11.3899
11.3899
11.3899
11.3899
11.3899
11.39
11.39
11.39
11.39
11.39
11.39
11.39
11.39
11.39
11.39
11.39
11.39
11.39
11.39
11.39
11.39
11.3899
11.3899
11.3899
11.3899
11.3899
11.3899
11.3898
11.3898
11.3897
11.3897
11.3896
11.3895
11.3893
11.3892
11.3889
11.3885
11.388
11.3874
11.3865
11.3854
11.384
11.3826
12.0812
12.0827
12.0841
12.0853
12.0862
12.0869
12.0874
12.0877
12.088
12.0882
12.0884
12.0885
12.0886
12.0886
12.0887
12.0887
12.0887
12.0888
12.0888
12.0888
12.0888
12.0889
12.0889
12.0889
12.0889
12.0889
12.0889
12.0889
12.0889
12.0889
12.0889
12.0889
12.0889
12.0889
12.0889
12.0889
12.0889
12.0889
12.0889
12.0888
12.0888
12.0888
12.0888
12.0887
12.0887
12.0887
12.0886
12.0886
12.0885
12.0884
12.0882
12.088
12.0877
12.0874
12.0869
12.0862
12.0853
12.0841
12.0827
12.0812
12.7786
12.7801
12.7816
12.7828
12.7838
12.7845
12.785
12.7854
12.7857
12.7859
12.786
12.7862
12.7862
12.7863
12.7864
12.7864
12.7864
12.7865
12.7865
12.7865
12.7865
12.7866
12.7866
12.7866
12.7866
12.7866
12.7866
12.7866
12.7866
12.7866
12.7866
12.7866
12.7866
12.7866
12.7866
12.7866
12.7866
12.7866
12.7866
12.7865
12.7865
12.7865
12.7865
12.7864
12.7864
12.7864
12.7863
12.7862
12.7862
12.786
12.7859
12.7857
12.7854
12.785
12.7845
12.7838
12.7828
12.7816
12.7801
12.7786
13.4728
13.4743
13.4759
13.4771
13.4781
13.4788
13.4794
13.4798
13.48
13.4803
13.4804
13.4805
13.4806
13.4807
13.4808
13.4808
13.4808
13.4809
13.4809
13.4809
13.4809
13.481
13.481
13.481
13.481
13.481
13.481
13.481
13.481
13.481
13.481
13.481
13.481
13.481
13.481
13.481
13.481
13.481
13.481
13.4809
13.4809
13.4809
13.4809
13.4808
13.4808
13.4808
13.4807
13.4806
13.4805
13.4804
13.4803
13.48
13.4798
13.4794
13.4788
13.4781
13.4771
13.4759
13.4743
13.4728
14.1612
14.1628
14.1644
14.1657
14.1667
14.1674
14.168
14.1684
14.1687
14.1689
14.1691
14.1692
14.1693
14.1694
14.1694
14.1695
14.1695
14.1696
14.1696
14.1696
14.1696
14.1696
14.1697
14.1697
14.1697
14.1697
14.1697
14.1697
14.1697
14.1697
14.1697
14.1697
14.1697
14.1697
14.1697
14.1697
14.1697
14.1697
14.1696
14.1696
14.1696
14.1696
14.1696
14.1695
14.1695
14.1694
14.1694
14.1693
14.1692
14.1691
14.1689
14.1687
14.1684
14.168
14.1674
14.1667
14.1657
14.1644
14.1628
14.1612
14.8412
14.8428
14.8444
14.8457
14.8467
14.8475
14.8481
14.8485
14.8488
14.849
14.8492
14.8493
14.8494
14.8495
14.8496
14.8496
14.8496
14.8497
14.8497
14.8497
14.8498
14.8498
14.8498
14.8498
14.8498
14.8498
14.8498
14.8498
14.8498
14.8498
14.8498
14.8498
14.8498
14.8498
14.8498
14.8498
14.8498
14.8498
14.8498
14.8498
14.8497
14.8497
14.8497
14.8496
14.8496
14.8496
14.8495
14.8494
14.8493
14.8492
14.849
14.8488
14.8485
14.8481
14.8475
14.8467
14.8457
14.8444
14.8428
14.8412
15.5094
15.511
15.5126
15.514
15.515
15.5158
15.5163
15.5168
15.5171
15.5173
15.5175
15.5176
15.5177
15.5178
15.5178
15.5179
15.5179
15.518
15.518
15.518
15.518
15.5181
15.5181
15.5181
15.5181
15.5181
15.5181
15.5181
15.5181
15.5181
15.5181
15.5181
15.5181
15.5181
15.5181
15.5181
15.5181
15.5181
15.5181
15.518
15.518
15.518
15.518
15.5179
15.5179
15.5178
15.5178
15.5177
15.5176
15.5175
15.5173
15.5171
15.5168
15.5163
15.5158
15.515
15.514
15.5126
15.511
15.5094
16.162
16.1636
16.1652
16.1665
16.1675
16.1683
16.1689
16.1693
16.1696
16.1698
16.17
16.1702
16.1703
16.1703
16.1704
16.1705
16.1705
16.1705
16.1706
16.1706
16.1706
16.1706
16.1706
16.1707
16.1707
16.1707
16.1707
16.1707
16.1707
16.1707
16.1707
16.1707
16.1707
16.1707
16.1707
16.1707
16.1707
16.1706
16.1706
16.1706
16.1706
16.1706
16.1705
16.1705
16.1705
16.1704
16.1703
16.1703
16.1702
16.17
16.1698
16.1696
16.1693
16.1689
16.1683
16.1675
16.1665
16.1652
16.1636
16.162
16.7943
16.7959
16.7975
16.7988
16.7998
16.8006
16.8011
16.8016
16.8019
16.8021
16.8023
16.8024
16.8025
16.8026
16.8027
16.8027
16.8027
16.8028
16.8028
16.8028
16.8029
16.8029
16.8029
16.8029
16.8029
16.8029
16.8029
16.803
16.803
16.803
16.803
16.803
16.803
16.8029
16.8029
16.8029
16.8029
16.8029
16.8029
16.8029
16.8028
16.8028
16.8028
16.8027
16.8027
16.8027
16.8026
16.8025
16.8024
16.8023
16.8021
16.8019
16.8016
16.8011
16.8006
16.7998
16.7988
16.7975
16.7959
16.7943
17.4009
17.4025
17.4041
17.4053
17.4063
17.4071
17.4076
17.408
17.4083
17.4086
17.4087
17.4089
17.409
17.409
17.4091
17.4092
17.4092
17.4092
17.4093
17.4093
17.4093
17.4094
17.4094
17.4094
17.4094
17.4094
17.4094
17.4094
17.4094
17.4094
17.4094
17.4094
17.4094
17.4094
17.4094
17.4094
17.4094
17.4094
17.4094
17.4093
17.4093
17.4093
17.4092
17.4092
17.4092
17.4091
17.409
17.409
17.4089
17.4087
17.4086
17.4083
17.408
17.4076
17.4071
17.4063
17.4053
17.4041
17.4025
17.4009
17.9753
17.9769
17.9783
17.9795
17.9805
17.9812
17.9817
17.9821
17.9824
17.9826
17.9828
17.9829
17.983
17.9831
17.9832
17.9832
17.9833
17.9833
17.9834
17.9834
17.9834
17.9834
17.9835
17.9835
17.9835
17.9835
17.9835
17.9835
17.9835
17.9835
17.9835
17.9835
17.9835
17.9835
17.9835
17.9835
17.9835
17.9835
17.9834
17.9834
17.9834
17.9834
17.9833
17.9833
17.9832
17.9832
17.9831
17.983
17.9829
17.9828
17.9826
17.9824
17.9821
17.9817
17.9812
17.9805
17.9795
17.9783
17.9769
17.9753
18.5097
18.5111
18.5125
18.5136
18.5145
18.5152
18.5157
18.516
18.5163
18.5165
18.5167
18.5168
18.5169
18.517
18.5171
18.5171
18.5172
18.5172
18.5172
18.5173
18.5173
18.5173
18.5173
18.5174
18.5174
18.5174
18.5174
18.5174
18.5174
18.5174
18.5174
18.5174
18.5174
18.5174
18.5174
18.5174
18.5174
18.5173
18.5173
18.5173
18.5173
18.5172
18.5172
18.5172
18.5171
18.5171
18.517
18.5169
18.5168
18.5167
18.5165
18.5163
18.516
18.5157
18.5152
18.5145
18.5136
18.5125
18.5111
18.5097
18.9952
18.9964
18.9977
18.9987
18.9995
19.0001
19.0006
19.0009
19.0012
19.0013
19.0015
19.0016
19.0017
19.0018
19.0019
19.0019
19.002
19.002
19.002
19.0021
19.0021
19.0021
19.0021
19.0021
19.0022
19.0022
19.0022
19.0022
19.0022
19.0022
19.0022
19.0022
19.0022
19.0022
19.0022
19.0022
19.0021
19.0021
19.0021
19.0021
19.0021
19.002
19.002
19.002
19.0019
19.0019
19.0018
19.0017
19.0016
19.0015
19.0013
19.0012
19.0009
19.0006
19.0001
18.9995
18.9987
18.9977
18.9964
18.9952
19.4227
19.4238
19.4249
19.4258
19.4265
19.427
19.4274
19.4277
19.4279
19.4281
19.4283
19.4284
19.4285
19.4285
19.4286
19.4286
19.4287
19.4287
19.4288
19.4288
19.4288
19.4288
19.4289
19.4289
19.4289
19.4289
19.4289
19.4289
19.4289
19.4289
19.4289
19.4289
19.4289
19.4289
19.4289
19.4289
19.4289
19.4289
19.4288
19.4288
19.4288
19.4288
19.4287
19.4287
19.4286
19.4286
19.4285
19.4285
19.4284
19.4283
19.4281
19.4279
19.4277
19.4274
19.427
19.4265
19.4258
19.4249
19.4238
19.4227
19.7856
19.7865
19.7873
19.7881
19.7886
19.7891
19.7894
19.7897
19.7899
19.79
19.7901
19.7902
19.7903
19.7904
19.7904
19.7905
19.7905
19.7906
19.7906
19.7906
19.7907
19.7907
19.7907
19.7907
19.7907
19.7908
19.7908
19.7908
19.7908
19.7908
19.7908
19.7908
19.7908
19.7908
19.7908
19.7907
19.7907
19.7907
19.7907
19.7907
19.7906
19.7906
19.7906
19.7905
19.7905
19.7904
19.7904
19.7903
19.7902
19.7901
19.79
19.7899
19.7897
19.7894
19.7891
19.7886
19.7881
19.7873
19.7865
19.7856
20.0818
20.0825
20.0832
20.0837
20.0842
20.0845
20.0848
20.085
20.0852
20.0853
20.0854
20.0855
20.0856
20.0856
20.0857
20.0857
20.0858
20.0858
20.0859
20.0859
20.0859
20.0859
20.086
20.086
20.086
20.086
20.086
20.086
20.086
20.086
20.086
20.086
20.086
20.086
20.086
20.086
20.086
20.086
20.0859
20.0859
20.0859
20.0859
20.0858
20.0858
20.0857
20.0857
20.0856
20.0856
20.0855
20.0854
20.0853
20.0852
20.085
20.0848
20.0845
20.0842
20.0837
20.0832
20.0825
20.0818
20.3164
20.3169
20.3173
20.3178
20.3181
20.3184
20.3186
20.3187
20.3189
20.319
20.3191
20.3192
20.3192
20.3193
20.3194
20.3194
20.3194
20.3195
20.3195
20.3195
20.3196
20.3196
20.3196
20.3196
20.3197
20.3197
20.3197
20.3197
20.3197
20.3197
20.3197
20.3197
20.3197
20.3197
20.3197
20.3197
20.3196
20.3196
20.3196
20.3196
20.3195
20.3195
20.3195
20.3194
20.3194
20.3194
20.3193
20.3192
20.3192
20.3191
20.319
20.3189
20.3187
20.3186
20.3184
20.3181
20.3178
20.3173
20.3169
20.3164
20.4997
20.5
20.5004
20.5007
20.5009
20.5011
20.5013
20.5014
20.5016
20.5016
20.5017
20.5018
20.5019
20.5019
20.502
20.502
20.5021
20.5021
20.5021
20.5022
20.5022
20.5022
20.5022
20.5023
20.5023
20.5023
20.5023
20.5023
20.5023
20.5023
20.5023
20.5023
20.5023
20.5023
20.5023
20.5023
20.5023
20.5022
20.5022
20.5022
20.5022
20.5021
20.5021
20.5021
20.502
20.502
20.5019
20.5019
20.5018
20.5017
20.5016
20.5016
20.5014
20.5013
20.5011
20.5009
20.5007
20.5004
20.5
20.4997
20.6444
20.6446
20.6448
20.645
20.6452
20.6454
20.6455
20.6456
20.6457
20.6458
20.6459
20.6459
20.646
20.6461
20.6461
20.6462
20.6462
20.6462
20.6463
20.6463
20.6463
20.6464
20.6464
20.6464
20.6464
20.6464
20.6464
20.6464
20.6465
20.6465
20.6465
20.6465
20.6464
20.6464
20.6464
20.6464
20.6464
20.6464
20.6464
20.6463
20.6463
20.6463
20.6462
20.6462
20.6462
20.6461
20.6461
20.646
20.6459
20.6459
20.6458
20.6457
20.6456
20.6455
20.6454
20.6452
20.645
20.6448
20.6446
20.6444
20.7616
20.7617
20.7619
20.7621
20.7622
20.7623
20.7624
20.7625
20.7626
20.7627
20.7627
20.7628
20.7629
20.7629
20.763
20.763
20.7631
20.7631
20.7631
20.7632
20.7632
20.7632
20.7633
20.7633
20.7633
20.7633
20.7633
20.7633
20.7633
20.7633
20.7633
20.7633
20.7633
20.7633
20.7633
20.7633
20.7633
20.7633
20.7632
20.7632
20.7632
20.7631
20.7631
20.7631
20.763
20.763
20.7629
20.7629
20.7628
20.7627
20.7627
20.7626
20.7625
20.7624
20.7623
20.7622
20.7621
20.7619
20.7617
20.7616
20.8599
20.86
20.8601
20.8602
20.8603
20.8604
20.8605
20.8606
20.8606
20.8607
20.8608
20.8608
20.8609
20.861
20.861
20.8611
20.8611
20.8611
20.8612
20.8612
20.8613
20.8613
20.8613
20.8613
20.8613
20.8614
20.8614
20.8614
20.8614
20.8614
20.8614
20.8614
20.8614
20.8614
20.8614
20.8613
20.8613
20.8613
20.8613
20.8613
20.8612
20.8612
20.8611
20.8611
20.8611
20.861
20.861
20.8609
20.8608
20.8608
20.8607
20.8606
20.8606
20.8605
20.8604
20.8603
20.8602
20.8601
20.86
20.8599
20.945
20.945
20.9451
20.9451
20.9452
20.9453
20.9454
20.9455
20.9455
20.9456
20.9457
20.9457
20.9458
20.9459
20.9459
20.946
20.946
20.946
20.9461
20.9461
20.9461
20.9462
20.9462
20.9462
20.9462
20.9463
20.9463
20.9463
20.9463
20.9463
20.9463
20.9463
20.9463
20.9463
20.9463
20.9462
20.9462
20.9462
20.9462
20.9461
20.9461
20.9461
20.946
20.946
20.946
20.9459
20.9459
20.9458
20.9457
20.9457
20.9456
20.9455
20.9455
20.9454
20.9453
20.9452
20.9451
20.9451
20.945
20.945
21.0205
21.0205
21.0205
21.0206
21.0207
21.0207
21.0208
21.0209
21.0209
21.021
21.0211
21.0211
21.0212
21.0212
21.0213
21.0213
21.0214
21.0214
21.0215
21.0215
21.0215
21.0216
21.0216
21.0216
21.0216
21.0217
21.0217
21.0217
21.0217
21.0217
21.0217
21.0217
21.0217
21.0217
21.0217
21.0216
21.0216
21.0216
21.0216
21.0215
21.0215
21.0215
21.0214
21.0214
21.0213
21.0213
21.0212
21.0212
21.0211
21.0211
21.021
21.0209
21.0209
21.0208
21.0207
21.0207
21.0206
21.0205
21.0205
21.0205
21.0888
21.0888
21.0888
21.0889
21.0889
21.089
21.0891
21.0891
21.0892
21.0893
21.0893
21.0894
21.0895
21.0895
21.0896
21.0896
21.0897
21.0897
21.0897
21.0898
21.0898
21.0899
21.0899
21.0899
21.0899
21.0899
21.09
21.09
21.09
21.09
21.09
21.09
21.09
21.09
21.0899
21.0899
21.0899
21.0899
21.0899
21.0898
21.0898
21.0897
21.0897
21.0897
21.0896
21.0896
21.0895
21.0895
21.0894
21.0893
21.0893
21.0892
21.0891
21.0891
21.089
21.0889
21.0889
21.0888
21.0888
21.0888
21.1516
21.1516
21.1516
21.1516
21.1517
21.1517
21.1518
21.1518
21.1519
21.152
21.152
21.1521
21.1522
21.1522
21.1523
21.1523
21.1524
21.1524
21.1525
21.1525
21.1525
21.1526
21.1526
21.1526
21.1526
21.1527
21.1527
21.1527
21.1527
21.1527
21.1527
21.1527
21.1527
21.1527
21.1527
21.1526
21.1526
21.1526
21.1526
21.1525
21.1525
21.1525
21.1524
21.1524
21.1523
21.1523
21.1522
21.1522
21.1521
21.152
21.152
21.1519
21.1518
21.1518
21.1517
21.1517
21.1516
21.1516
21.1516
21.1516
21.2099
21.2099
21.2099
21.2099
21.21
21.21
21.2101
21.2101
21.2102
21.2102
21.2103
21.2104
21.2104
21.2105
21.2106
21.2106
21.2107
21.2107
21.2108
21.2108
21.2108
21.2109
21.2109
21.2109
21.2109
21.211
21.211
21.211
21.211
21.211
21.211
21.211
21.211
21.211
21.211
21.2109
21.2109
21.2109
21.2109
21.2108
21.2108
21.2108
21.2107
21.2107
21.2106
21.2106
21.2105
21.2104
21.2104
21.2103
21.2102
21.2102
21.2101
21.2101
21.21
21.21
21.2099
21.2099
21.2099
21.2099
21.2646
21.2646
21.2646
21.2646
21.2646
21.2647
21.2647
21.2648
21.2648
21.2649
21.265
21.265
21.2651
21.2651
21.2652
21.2653
21.2653
21.2654
21.2654
21.2655
21.2655
21.2655
21.2656
21.2656
21.2656
21.2656
21.2656
21.2656
21.2657
21.2657
21.2657
21.2657
21.2656
21.2656
21.2656
21.2656
21.2656
21.2656
21.2655
21.2655
21.2655
21.2654
21.2654
21.2653
21.2653
21.2652
21.2651
21.2651
21.265
21.265
21.2649
21.2648
21.2648
21.2647
21.2647
21.2646
21.2646
21.2646
21.2646
21.2646
21.3162
21.3162
21.3162
21.3162
21.3163
21.3163
21.3163
21.3164
21.3165
21.3165
21.3166
21.3167
21.3167
21.3168
21.3168
21.3169
21.317
21.317
21.3171
21.3171
21.3171
21.3172
21.3172
21.3172
21.3173
21.3173
21.3173
21.3173
21.3173
21.3173
21.3173
21.3173
21.3173
21.3173
21.3173
21.3173
21.3172
21.3172
21.3172
21.3171
21.3171
21.3171
21.317
21.317
21.3169
21.3168
21.3168
21.3167
21.3167
21.3166
21.3165
21.3165
21.3164
21.3163
21.3163
21.3163
21.3162
21.3162
21.3162
21.3162
21.3654
21.3653
21.3653
21.3653
21.3654
21.3654
21.3654
21.3655
21.3656
21.3656
21.3657
21.3658
21.3658
21.3659
21.366
21.366
21.3661
21.3661
21.3662
21.3662
21.3663
21.3663
21.3663
21.3664
21.3664
21.3664
21.3664
21.3664
21.3664
21.3664
21.3664
21.3664
21.3664
21.3664
21.3664
21.3664
21.3664
21.3663
21.3663
21.3663
21.3662
21.3662
21.3661
21.3661
21.366
21.366
21.3659
21.3658
21.3658
21.3657
21.3656
21.3656
21.3655
21.3654
21.3654
21.3654
21.3653
21.3653
21.3653
21.3654
21.4123
21.4123
21.4123
21.4123
21.4123
21.4124
21.4124
21.4125
21.4125
21.4126
21.4127
21.4127
21.4128
21.4129
21.4129
21.413
21.413
21.4131
21.4131
21.4132
21.4132
21.4133
21.4133
21.4133
21.4134
21.4134
21.4134
21.4134
21.4134
21.4134
21.4134
21.4134
21.4134
21.4134
21.4134
21.4134
21.4133
21.4133
21.4133
21.4132
21.4132
21.4131
21.4131
21.413
21.413
21.4129
21.4129
21.4128
21.4127
21.4127
21.4126
21.4125
21.4125
21.4124
21.4124
21.4123
21.4123
21.4123
21.4123
21.4123
21.4575
21.4574
21.4574
21.4574
21.4574
21.4575
21.4575
21.4576
21.4576
21.4577
21.4578
21.4578
21.4579
21.458
21.458
21.4581
21.4582
21.4582
21.4583
21.4583
21.4584
21.4584
21.4584
21.4585
21.4585
21.4585
21.4585
21.4585
21.4586
21.4586
21.4586
21.4586
21.4585
21.4585
21.4585
21.4585
21.4585
21.4584
21.4584
21.4584
21.4583
21.4583
21.4582
21.4582
21.4581
21.458
21.458
21.4579
21.4578
21.4578
21.4577
21.4576
21.4576
21.4575
21.4575
21.4574
21.4574
21.4574
21.4574
21.4575
21.501
21.501
21.501
21.501
21.501
21.501
21.5011
21.5011
21.5012
21.5012
21.5013
21.5014
21.5015
21.5015
21.5016
21.5017
21.5017
21.5018
21.5018
21.5019
21.5019
21.502
21.502
21.502
21.5021
21.5021
21.5021
21.5021
21.5021
21.5021
21.5021
21.5021
21.5021
21.5021
21.5021
21.5021
21.502
21.502
21.502
21.5019
21.5019
21.5018
21.5018
21.5017
21.5017
21.5016
21.5015
21.5015
21.5014
21.5013
21.5012
21.5012
21.5011
21.5011
21.501
21.501
21.501
21.501
21.501
21.501
21.5432
21.5432
21.5431
21.5431
21.5432
21.5432
21.5432
21.5433
21.5434
21.5434
21.5435
21.5436
21.5436
21.5437
21.5438
21.5439
21.5439
21.544
21.544
21.5441
21.5441
21.5442
21.5442
21.5442
21.5443
21.5443
21.5443
21.5443
21.5443
21.5443
21.5443
21.5443
21.5443
21.5443
21.5443
21.5443
21.5442
21.5442
21.5442
21.5441
21.5441
21.544
21.544
21.5439
21.5439
21.5438
21.5437
21.5436
21.5436
21.5435
21.5434
21.5434
21.5433
21.5432
21.5432
21.5432
21.5431
21.5431
21.5432
21.5432
21.5842
21.5842
21.5841
21.5841
21.5841
21.5842
21.5842
21.5843
21.5843
21.5844
21.5845
21.5846
21.5846
21.5847
21.5848
21.5849
21.5849
21.585
21.585
21.5851
21.5851
21.5852
21.5852
21.5853
21.5853
21.5853
21.5853
21.5853
21.5854
21.5854
21.5854
21.5854
21.5853
21.5853
21.5853
21.5853
21.5853
21.5852
21.5852
21.5851
21.5851
21.585
21.585
21.5849
21.5849
21.5848
21.5847
21.5846
21.5846
21.5845
21.5844
21.5843
21.5843
21.5842
21.5842
21.5841
21.5841
21.5841
21.5842
21.5842
21.6241
21.6241
21.6241
21.6241
21.6241
21.6242
21.6242
21.6243
21.6243
21.6244
21.6245
21.6245
21.6246
21.6247
21.6248
21.6248
21.6249
21.625
21.625
21.6251
21.6251
21.6252
21.6252
21.6253
21.6253
21.6253
21.6253
21.6253
21.6254
21.6254
21.6254
21.6254
21.6253
21.6253
21.6253
21.6253
21.6253
21.6252
21.6252
21.6251
21.6251
21.625
21.625
21.6249
21.6248
21.6248
21.6247
21.6246
21.6245
21.6245
21.6244
21.6243
21.6243
21.6242
21.6242
21.6241
21.6241
21.6241
21.6241
21.6241
21.6632
21.6632
21.6632
21.6632
21.6632
21.6632
21.6633
21.6633
21.6634
21.6635
21.6636
21.6636
21.6637
21.6638
21.6639
21.6639
21.664
21.6641
21.6641
21.6642
21.6642
21.6643
21.6643
21.6644
21.6644
21.6644
21.6644
21.6645
21.6645
21.6645
21.6645
21.6645
21.6645
21.6644
21.6644
21.6644
21.6644
21.6643
21.6643
21.6642
21.6642
21.6641
21.6641
21.664
21.6639
21.6639
21.6638
21.6637
21.6636
21.6636
21.6635
21.6634
21.6633
21.6633
21.6632
21.6632
21.6632
21.6632
21.6632
21.6632
21.7015
21.7015
21.7015
21.7015
21.7015
21.7015
21.7016
21.7016
21.7017
21.7018
21.7019
21.7019
21.702
21.7021
21.7022
21.7023
21.7023
21.7024
21.7025
21.7025
21.7026
21.7026
21.7027
21.7027
21.7027
21.7028
21.7028
21.7028
21.7028
21.7028
21.7028
21.7028
21.7028
21.7028
21.7028
21.7027
21.7027
21.7027
21.7026
21.7026
21.7025
21.7025
21.7024
21.7023
21.7023
21.7022
21.7021
21.702
21.7019
21.7019
21.7018
21.7017
21.7016
21.7016
21.7015
21.7015
21.7015
21.7015
21.7015
21.7015
21.7392
21.7391
21.7391
21.7391
21.7391
21.7392
21.7392
21.7393
21.7393
21.7394
21.7395
21.7396
21.7397
21.7398
21.7398
21.7399
21.74
21.7401
21.7401
21.7402
21.7402
21.7403
21.7403
21.7404
21.7404
21.7404
21.7405
21.7405
21.7405
21.7405
21.7405
21.7405
21.7405
21.7405
21.7404
21.7404
21.7404
21.7403
21.7403
21.7402
21.7402
21.7401
21.7401
21.74
21.7399
21.7398
21.7398
21.7397
21.7396
21.7395
21.7394
21.7393
21.7393
21.7392
21.7392
21.7391
21.7391
21.7391
21.7391
21.7392
21.7762
21.7762
21.7762
21.7762
21.7762
21.7762
21.7763
21.7763
21.7764
21.7765
21.7766
21.7767
21.7767
21.7768
21.7769
21.777
21.7771
21.7771
21.7772
21.7773
21.7773
21.7774
21.7774
21.7775
21.7775
21.7775
21.7776
21.7776
21.7776
21.7776
21.7776
21.7776
21.7776
21.7776
21.7775
21.7775
21.7775
21.7774
21.7774
21.7773
21.7773
21.7772
21.7771
21.7771
21.777
21.7769
21.7768
21.7767
21.7767
21.7766
21.7765
21.7764
21.7763
21.7763
21.7762
21.7762
21.7762
21.7762
21.7762
21.7762
21.8128
21.8128
21.8127
21.8127
21.8128
21.8128
21.8128
21.8129
21.813
21.8131
21.8131
21.8132
21.8133
21.8134
21.8135
21.8136
21.8137
21.8137
21.8138
21.8139
21.8139
21.814
21.814
21.8141
21.8141
21.8141
21.8142
21.8142
21.8142
21.8142
21.8142
21.8142
21.8142
21.8142
21.8141
21.8141
21.8141
21.814
21.814
21.8139
21.8139
21.8138
21.8137
21.8137
21.8136
21.8135
21.8134
21.8133
21.8132
21.8131
21.8131
21.813
21.8129
21.8128
21.8128
21.8128
21.8127
21.8127
21.8128
21.8128
21.8489
21.8489
21.8489
21.8489
21.8489
21.8489
21.849
21.8491
21.8491
21.8492
21.8493
21.8494
21.8495
21.8496
21.8497
21.8498
21.8498
21.8499
21.85
21.8501
21.8501
21.8502
21.8502
21.8503
21.8503
21.8503
21.8504
21.8504
21.8504
21.8504
21.8504
21.8504
21.8504
21.8504
21.8503
21.8503
21.8503
21.8502
21.8502
21.8501
21.8501
21.85
21.8499
21.8498
21.8498
21.8497
21.8496
21.8495
21.8494
21.8493
21.8492
21.8491
21.8491
21.849
21.8489
21.8489
21.8489
21.8489
21.8489
21.8489
21.8847
21.8847
21.8847
21.8847
21.8847
21.8847
21.8848
21.8849
21.8849
21.885
21.8851
21.8852
21.8853
21.8854
21.8855
21.8856
21.8857
21.8857
21.8858
21.8859
21.8859
21.886
21.8861
21.8861
21.8861
21.8862
21.8862
21.8862
21.8862
21.8862
21.8862
21.8862
21.8862
21.8862
21.8862
21.8861
21.8861
21.8861
21.886
21.8859
21.8859
21.8858
21.8857
21.8857
21.8856
21.8855
21.8854
21.8853
21.8852
21.8851
21.885
21.8849
21.8849
21.8848
21.8847
21.8847
21.8847
21.8847
21.8847
21.8847
21.9202
21.9202
21.9202
21.9202
21.9202
21.9202
21.9203
21.9204
21.9204
21.9205
21.9206
21.9207
21.9208
21.9209
21.921
21.9211
21.9212
21.9213
21.9213
21.9214
21.9215
21.9215
21.9216
21.9216
21.9217
21.9217
21.9217
21.9218
21.9218
21.9218
21.9218
21.9218
21.9218
21.9217
21.9217
21.9217
21.9216
21.9216
21.9215
21.9215
21.9214
21.9213
21.9213
21.9212
21.9211
21.921
21.9209
21.9208
21.9207
21.9206
21.9205
21.9204
21.9204
21.9203
21.9202
21.9202
21.9202
21.9202
21.9202
21.9202
21.9554
21.9554
21.9554
21.9554
21.9555
21.9555
21.9556
21.9556
21.9557
21.9558
21.9559
21.956
21.9561
21.9562
21.9563
21.9564
21.9565
21.9566
21.9567
21.9567
21.9568
21.9569
21.9569
21.957
21.957
21.957
21.9571
21.9571
21.9571
21.9571
21.9571
21.9571
21.9571
21.9571
21.957
21.957
21.957
21.9569
21.9569
21.9568
21.9567
21.9567
21.9566
21.9565
21.9564
21.9563
21.9562
21.9561
21.956
21.9559
21.9558
21.9557
21.9556
21.9556
21.9555
21.9555
21.9554
21.9554
21.9554
21.9554
21.9905
21.9905
21.9905
21.9905
21.9905
21.9906
21.9906
21.9907
21.9908
21.9909
21.991
21.9911
21.9912
21.9913
21.9914
21.9915
21.9916