/*--------------------------------*- C++ -*----------------------------------*\
| =========                 |                                                 |
| \\      /  F ield         | foam-extend: Open Source CFD                    |
|  \\    /   O peration     | Version:     4.0                                |
|   \\  /    A nd           | Web:         http://www.foam-extend.org         |
|    \\/     M anipulation  |                                                 |
\*---------------------------------------------------------------------------*/
FoamFile
{
    version     2.0;
    format      ascii;
    class       volScalarField;
    location    "1750";
    object      psiE;
}
// * * * * * * * * * * * * * * * * * * * * * * * * * * * * * * * * * * * * * //

dimensions      [0 0 0 0 0 0 0];

internalField   nonuniform List<scalar> 
6960
(
0.336094
0.336099
0.336106
0.336113
0.336119
0.336125
0.336131
0.336136
0.33614
0.336144
0.336148
0.336151
0.336154
0.336156
0.336159
0.336161
0.336162
0.336164
0.336165
0.336166
0.336167
0.336168
0.336169
0.336169
0.33617
0.33617
0.336171
0.336171
0.336171
0.336171
0.336171
0.336171
0.336171
0.336171
0.33617
0.33617
0.336169
0.336169
0.336168
0.336167
0.336166
0.336165
0.336164
0.336162
0.336161
0.336159
0.336156
0.336154
0.336151
0.336148
0.336144
0.33614
0.336136
0.336131
0.336125
0.336119
0.336113
0.336106
0.336099
0.336094
0.840628
0.840649
0.840676
0.840704
0.84073
0.840754
0.840777
0.840797
0.840815
0.840831
0.840846
0.840859
0.840871
0.840881
0.84089
0.840898
0.840905
0.840911
0.840917
0.840921
0.840925
0.840928
0.840931
0.840934
0.840936
0.840937
0.840939
0.840939
0.84094
0.84094
0.84094
0.84094
0.840939
0.840939
0.840937
0.840936
0.840934
0.840931
0.840928
0.840925
0.840921
0.840917
0.840911
0.840905
0.840898
0.84089
0.840881
0.840871
0.840859
0.840846
0.840831
0.840815
0.840797
0.840777
0.840754
0.84073
0.840704
0.840676
0.840649
0.840628
1.29727
1.29732
1.29737
1.29742
1.29747
1.29752
1.29757
1.29761
1.29764
1.29768
1.2977
1.29773
1.29775
1.29777
1.29779
1.29781
1.29782
1.29783
1.29784
1.29785
1.29786
1.29787
1.29787
1.29788
1.29788
1.29788
1.29789
1.29789
1.29789
1.29789
1.29789
1.29789
1.29789
1.29789
1.29788
1.29788
1.29788
1.29787
1.29787
1.29786
1.29785
1.29784
1.29783
1.29782
1.29781
1.29779
1.29777
1.29775
1.29773
1.2977
1.29768
1.29764
1.29761
1.29757
1.29752
1.29747
1.29742
1.29737
1.29732
1.29727
1.7411
1.74116
1.74125
1.74133
1.74142
1.74149
1.74156
1.74162
1.74168
1.74173
1.74178
1.74182
1.74185
1.74188
1.74191
1.74194
1.74196
1.74198
1.74199
1.74201
1.74202
1.74203
1.74204
1.74205
1.74205
1.74206
1.74206
1.74207
1.74207
1.74207
1.74207
1.74207
1.74207
1.74206
1.74206
1.74205
1.74205
1.74204
1.74203
1.74202
1.74201
1.74199
1.74198
1.74196
1.74194
1.74191
1.74188
1.74185
1.74182
1.74178
1.74173
1.74168
1.74162
1.74156
1.74149
1.74142
1.74133
1.74125
1.74116
1.7411
2.18552
2.18561
2.18573
2.18585
2.18596
2.18606
2.18616
2.18625
2.18633
2.1864
2.18646
2.18652
2.18657
2.18661
2.18665
2.18669
2.18672
2.18674
2.18677
2.18679
2.1868
2.18682
2.18683
2.18684
2.18685
2.18686
2.18686
2.18687
2.18687
2.18687
2.18687
2.18687
2.18687
2.18686
2.18686
2.18685
2.18684
2.18683
2.18682
2.1868
2.18679
2.18677
2.18674
2.18672
2.18669
2.18665
2.18661
2.18657
2.18652
2.18646
2.1864
2.18633
2.18625
2.18616
2.18606
2.18596
2.18585
2.18573
2.18561
2.18552
2.63597
2.63609
2.63624
2.63639
2.63654
2.63668
2.6368
2.63692
2.63702
2.63711
2.6372
2.63727
2.63733
2.63739
2.63744
2.63749
2.63753
2.63756
2.63759
2.63762
2.63764
2.63766
2.63767
2.63769
2.6377
2.63771
2.63771
2.63772
2.63772
2.63772
2.63772
2.63772
2.63772
2.63771
2.63771
2.6377
2.63769
2.63767
2.63766
2.63764
2.63762
2.63759
2.63756
2.63753
2.63749
2.63744
2.63739
2.63733
2.63727
2.6372
2.63711
2.63702
2.63692
2.6368
2.63668
2.63654
2.63639
2.63624
2.63609
2.63597
3.09468
3.09483
3.09502
3.09521
3.09539
3.09556
3.09572
3.09586
3.09598
3.0961
3.0962
3.09629
3.09637
3.09644
3.09651
3.09656
3.09661
3.09665
3.09669
3.09672
3.09675
3.09677
3.09679
3.09681
3.09682
3.09683
3.09684
3.09685
3.09685
3.09685
3.09685
3.09685
3.09685
3.09684
3.09683
3.09682
3.09681
3.09679
3.09677
3.09675
3.09672
3.09669
3.09665
3.09661
3.09656
3.09651
3.09644
3.09637
3.09629
3.0962
3.0961
3.09598
3.09586
3.09572
3.09556
3.09539
3.09521
3.09502
3.09483
3.09468
3.56257
3.56275
3.56297
3.5632
3.56342
3.56362
3.5638
3.56397
3.56412
3.56426
3.56438
3.56449
3.56459
3.56467
3.56475
3.56481
3.56487
3.56492
3.56497
3.565
3.56504
3.56506
3.56509
3.56511
3.56512
3.56514
3.56515
3.56516
3.56516
3.56516
3.56516
3.56516
3.56516
3.56515
3.56514
3.56512
3.56511
3.56509
3.56506
3.56504
3.565
3.56497
3.56492
3.56487
3.56481
3.56475
3.56467
3.56459
3.56449
3.56438
3.56426
3.56412
3.56397
3.5638
3.56362
3.56342
3.5632
3.56297
3.56275
3.56257
4.03999
4.0402
4.04046
4.04072
4.04098
4.04121
4.04143
4.04162
4.0418
4.04196
4.0421
4.04223
4.04234
4.04244
4.04252
4.0426
4.04267
4.04273
4.04278
4.04282
4.04286
4.04289
4.04292
4.04294
4.04296
4.04298
4.04299
4.043
4.043
4.04301
4.04301
4.043
4.043
4.04299
4.04298
4.04296
4.04294
4.04292
4.04289
4.04286
4.04282
4.04278
4.04273
4.04267
4.0426
4.04252
4.04244
4.04234
4.04223
4.0421
4.04196
4.0418
4.04162
4.04143
4.04121
4.04098
4.04072
4.04046
4.0402
4.03999
4.52706
4.5273
4.5276
4.5279
4.52819
4.52846
4.5287
4.52893
4.52913
4.52931
4.52947
4.52962
4.52975
4.52986
4.52996
4.53005
4.53012
4.53019
4.53025
4.5303
4.53034
4.53038
4.53041
4.53044
4.53046
4.53048
4.53049
4.5305
4.53051
4.53051
4.53051
4.53051
4.5305
4.53049
4.53048
4.53046
4.53044
4.53041
4.53038
4.53034
4.5303
4.53025
4.53019
4.53012
4.53005
4.52996
4.52986
4.52975
4.52962
4.52947
4.52931
4.52913
4.52893
4.5287
4.52846
4.52819
4.5279
4.5276
4.5273
4.52706
5.02381
5.02407
5.02441
5.02475
5.02507
5.02538
5.02565
5.02591
5.02613
5.02634
5.02652
5.02668
5.02683
5.02695
5.02707
5.02717
5.02725
5.02733
5.02739
5.02745
5.0275
5.02754
5.02758
5.02761
5.02763
5.02765
5.02767
5.02768
5.02768
5.02769
5.02769
5.02768
5.02768
5.02767
5.02765
5.02763
5.02761
5.02758
5.02754
5.0275
5.02745
5.02739
5.02733
5.02725
5.02717
5.02707
5.02695
5.02683
5.02668
5.02652
5.02634
5.02613
5.02591
5.02565
5.02538
5.02507
5.02475
5.02441
5.02407
5.02381
5.53019
5.53048
5.53085
5.53123
5.53159
5.53193
5.53224
5.53252
5.53277
5.533
5.5332
5.53338
5.53354
5.53369
5.53381
5.53392
5.53402
5.5341
5.53417
5.53424
5.53429
5.53434
5.53438
5.53441
5.53444
5.53446
5.53448
5.53449
5.5345
5.5345
5.5345
5.5345
5.53449
5.53448
5.53446
5.53444
5.53441
5.53438
5.53434
5.53429
5.53424
5.53417
5.5341
5.53402
5.53392
5.53381
5.53369
5.53354
5.53338
5.5332
5.533
5.53277
5.53252
5.53224
5.53193
5.53159
5.53123
5.53085
5.53048
5.53019
6.04612
6.04644
6.04685
6.04727
6.04767
6.04804
6.04838
6.04868
6.04896
6.04921
6.04944
6.04964
6.04981
6.04997
6.05011
6.05023
6.05034
6.05043
6.05051
6.05058
6.05064
6.05069
6.05073
6.05077
6.0508
6.05082
6.05084
6.05086
6.05086
6.05087
6.05087
6.05086
6.05086
6.05084
6.05082
6.0508
6.05077
6.05073
6.05069
6.05064
6.05058
6.05051
6.05043
6.05034
6.05023
6.05011
6.04997
6.04981
6.04964
6.04944
6.04921
6.04896
6.04868
6.04838
6.04804
6.04767
6.04727
6.04685
6.04644
6.04612
6.57148
6.57184
6.57228
6.57274
6.57317
6.57358
6.57395
6.57429
6.57459
6.57486
6.57511
6.57533
6.57552
6.57569
6.57584
6.57597
6.57609
6.57619
6.57628
6.57636
6.57642
6.57648
6.57652
6.57656
6.5766
6.57662
6.57664
6.57666
6.57667
6.57667
6.57667
6.57667
6.57666
6.57664
6.57662
6.5766
6.57656
6.57652
6.57648
6.57642
6.57636
6.57628
6.57619
6.57609
6.57597
6.57584
6.57569
6.57552
6.57533
6.57511
6.57486
6.57459
6.57429
6.57395
6.57358
6.57317
6.57274
6.57228
6.57184
6.57148
7.10613
7.10651
7.107
7.10749
7.10796
7.1084
7.1088
7.10917
7.1095
7.1098
7.11006
7.1103
7.11051
7.11069
7.11086
7.111
7.11113
7.11124
7.11133
7.11141
7.11148
7.11154
7.1116
7.11164
7.11167
7.1117
7.11173
7.11174
7.11175
7.11176
7.11176
7.11175
7.11174
7.11173
7.1117
7.11167
7.11164
7.1116
7.11154
7.11148
7.11141
7.11133
7.11124
7.11113
7.111
7.11086
7.11069
7.11051
7.1103
7.11006
7.1098
7.1095
7.10917
7.1088
7.1084
7.10796
7.10749
7.107
7.10651
7.10613
7.64986
7.65027
7.6508
7.65133
7.65184
7.65231
7.65274
7.65314
7.65349
7.65381
7.6541
7.65435
7.65458
7.65478
7.65495
7.65511
7.65524
7.65536
7.65547
7.65555
7.65563
7.6557
7.65575
7.6558
7.65584
7.65587
7.65589
7.65591
7.65592
7.65593
7.65593
7.65592
7.65591
7.65589
7.65587
7.65584
7.6558
7.65575
7.6557
7.65563
7.65555
7.65547
7.65536
7.65524
7.65511
7.65495
7.65478
7.65458
7.65435
7.6541
7.65381
7.65349
7.65314
7.65274
7.65231
7.65184
7.65133
7.6508
7.65027
7.64986
8.20244
8.20288
8.20344
8.20401
8.20455
8.20506
8.20552
8.20594
8.20633
8.20667
8.20697
8.20725
8.20749
8.2077
8.20789
8.20806
8.2082
8.20833
8.20844
8.20853
8.20862
8.20869
8.20875
8.2088
8.20884
8.20887
8.2089
8.20891
8.20893
8.20893
8.20893
8.20893
8.20891
8.2089
8.20887
8.20884
8.2088
8.20875
8.20869
8.20862
8.20853
8.20844
8.20833
8.2082
8.20806
8.20789
8.2077
8.20749
8.20725
8.20697
8.20667
8.20633
8.20594
8.20552
8.20506
8.20455
8.20401
8.20344
8.20288
8.20244
8.76356
8.76403
8.76463
8.76523
8.76582
8.76636
8.76685
8.7673
8.76771
8.76807
8.7684
8.76869
8.76895
8.76917
8.76938
8.76955
8.76971
8.76984
8.76996
8.77006
8.77015
8.77022
8.77029
8.77034
8.77038
8.77042
8.77045
8.77047
8.77048
8.77049
8.77049
8.77048
8.77047
8.77045
8.77042
8.77038
8.77034
8.77029
8.77022
8.77015
8.77006
8.76996
8.76984
8.76971
8.76955
8.76938
8.76917
8.76895
8.76869
8.7684
8.76807
8.76771
8.7673
8.76685
8.76636
8.76582
8.76523
8.76463
8.76403
8.76356
9.33289
9.33338
9.33401
9.33466
9.33528
9.33585
9.33638
9.33685
9.33728
9.33767
9.33802
9.33833
9.3386
9.33884
9.33906
9.33924
9.33941
9.33955
9.33967
9.33978
9.33988
9.33995
9.34002
9.34008
9.34012
9.34016
9.34019
9.34021
9.34023
9.34023
9.34023
9.34023
9.34021
9.34019
9.34016
9.34012
9.34008
9.34002
9.33995
9.33988
9.33978
9.33967
9.33955
9.33941
9.33924
9.33906
9.33884
9.3386
9.33833
9.33802
9.33767
9.33728
9.33685
9.33638
9.33585
9.33528
9.33466
9.33401
9.33338
9.33289
9.91
9.91052
9.91119
9.91187
9.91252
9.91313
9.91368
9.91419
9.91464
9.91505
9.91542
9.91574
9.91603
9.91629
9.91651
9.91671
9.91688
9.91704
9.91717
9.91728
9.91738
9.91746
9.91753
9.91759
9.91764
9.91768
9.91771
9.91774
9.91775
9.91776
9.91776
9.91775
9.91774
9.91771
9.91768
9.91764
9.91759
9.91753
9.91746
9.91738
9.91728
9.91717
9.91704
9.91688
9.91671
9.91651
9.91629
9.91603
9.91574
9.91542
9.91505
9.91464
9.91419
9.91368
9.91313
9.91252
9.91187
9.91119
9.91052
9.91
10.4944
10.495
10.4957
10.4964
10.4971
10.4977
10.4983
10.4988
10.4993
10.4997
10.5001
10.5005
10.5008
10.501
10.5013
10.5015
10.5017
10.5018
10.502
10.5021
10.5022
10.5023
10.5023
10.5024
10.5025
10.5025
10.5025
10.5025
10.5026
10.5026
10.5026
10.5026
10.5025
10.5025
10.5025
10.5025
10.5024
10.5023
10.5023
10.5022
10.5021
10.502
10.5018
10.5017
10.5015
10.5013
10.501
10.5008
10.5005
10.5001
10.4997
10.4993
10.4988
10.4983
10.4977
10.4971
10.4964
10.4957
10.495
10.4944
11.0855
11.0861
11.0869
11.0876
11.0883
11.089
11.0896
11.0902
11.0907
11.0911
11.0915
11.0919
11.0922
11.0925
11.0927
11.093
11.0931
11.0933
11.0935
11.0936
11.0937
11.0938
11.0939
11.0939
11.094
11.094
11.0941
11.0941
11.0941
11.0941
11.0941
11.0941
11.0941
11.0941
11.094
11.094
11.0939
11.0939
11.0938
11.0937
11.0936
11.0935
11.0933
11.0931
11.093
11.0927
11.0925
11.0922
11.0919
11.0915
11.0911
11.0907
11.0902
11.0896
11.089
11.0883
11.0876
11.0869
11.0861
11.0855
11.6828
11.6834
11.6841
11.6849
11.6857
11.6864
11.687
11.6876
11.6881
11.6886
11.689
11.6894
11.6897
11.69
11.6903
11.6905
11.6907
11.6909
11.691
11.6911
11.6913
11.6914
11.6914
11.6915
11.6916
11.6916
11.6916
11.6917
11.6917
11.6917
11.6917
11.6917
11.6917
11.6916
11.6916
11.6916
11.6915
11.6914
11.6914
11.6913
11.6911
11.691
11.6909
11.6907
11.6905
11.6903
11.69
11.6897
11.6894
11.689
11.6886
11.6881
11.6876
11.687
11.6864
11.6857
11.6849
11.6841
11.6834
11.6828
12.2853
12.2859
12.2867
12.2875
12.2883
12.289
12.2897
12.2903
12.2908
12.2913
12.2918
12.2922
12.2925
12.2928
12.2931
12.2933
12.2935
12.2937
12.2939
12.294
12.2941
12.2942
12.2943
12.2944
12.2944
12.2945
12.2945
12.2946
12.2946
12.2946
12.2946
12.2946
12.2946
12.2945
12.2945
12.2944
12.2944
12.2943
12.2942
12.2941
12.294
12.2939
12.2937
12.2935
12.2933
12.2931
12.2928
12.2925
12.2922
12.2918
12.2913
12.2908
12.2903
12.2897
12.289
12.2883
12.2875
12.2867
12.2859
12.2853
12.8922
12.8929
12.8937
12.8946
12.8954
12.8961
12.8968
12.8974
12.898
12.8985
12.899
12.8994
12.8997
12.9001
12.9003
12.9006
12.9008
12.901
12.9011
12.9013
12.9014
12.9015
12.9016
12.9017
12.9017
12.9018
12.9018
12.9019
12.9019
12.9019
12.9019
12.9019
12.9019
12.9018
12.9018
12.9017
12.9017
12.9016
12.9015
12.9014
12.9013
12.9011
12.901
12.9008
12.9006
12.9003
12.9001
12.8997
12.8994
12.899
12.8985
12.898
12.8974
12.8968
12.8961
12.8954
12.8946
12.8937
12.8929
12.8922
13.5026
13.5033
13.5041
13.505
13.5059
13.5066
13.5073
13.508
13.5086
13.5091
13.5096
13.51
13.5104
13.5107
13.511
13.5112
13.5115
13.5116
13.5118
13.512
13.5121
13.5122
13.5123
13.5124
13.5124
13.5125
13.5125
13.5125
13.5126
13.5126
13.5126
13.5126
13.5125
13.5125
13.5125
13.5124
13.5124
13.5123
13.5122
13.5121
13.512
13.5118
13.5116
13.5115
13.5112
13.511
13.5107
13.5104
13.51
13.5096
13.5091
13.5086
13.508
13.5073
13.5066
13.5059
13.505
13.5041
13.5033
13.5026
14.1152
14.1159
14.1168
14.1177
14.1186
14.1194
14.1201
14.1208
14.1214
14.1219
14.1224
14.1228
14.1232
14.1235
14.1238
14.1241
14.1243
14.1245
14.1247
14.1249
14.125
14.1251
14.1252
14.1253
14.1253
14.1254
14.1254
14.1255
14.1255
14.1255
14.1255
14.1255
14.1255
14.1254
14.1254
14.1253
14.1253
14.1252
14.1251
14.125
14.1249
14.1247
14.1245
14.1243
14.1241
14.1238
14.1235
14.1232
14.1228
14.1224
14.1219
14.1214
14.1208
14.1201
14.1194
14.1186
14.1177
14.1168
14.1159
14.1152
14.7288
14.7295
14.7304
14.7313
14.7322
14.733
14.7338
14.7345
14.7351
14.7356
14.7361
14.7366
14.7369
14.7373
14.7376
14.7379
14.7381
14.7383
14.7385
14.7386
14.7388
14.7389
14.739
14.7391
14.7391
14.7392
14.7392
14.7393
14.7393
14.7393
14.7393
14.7393
14.7393
14.7392
14.7392
14.7391
14.7391
14.739
14.7389
14.7388
14.7386
14.7385
14.7383
14.7381
14.7379
14.7376
14.7373
14.7369
14.7366
14.7361
14.7356
14.7351
14.7345
14.7338
14.733
14.7322
14.7313
14.7304
14.7295
14.7288
15.3417
15.3424
15.3433
15.3443
15.3452
15.346
15.3468
15.3475
15.3481
15.3487
15.3492
15.3496
15.35
15.3504
15.3507
15.351
15.3512
15.3514
15.3516
15.3517
15.3519
15.352
15.3521
15.3522
15.3522
15.3523
15.3523
15.3524
15.3524
15.3524
15.3524
15.3524
15.3524
15.3523
15.3523
15.3522
15.3522
15.3521
15.352
15.3519
15.3517
15.3516
15.3514
15.3512
15.351
15.3507
15.3504
15.35
15.3496
15.3492
15.3487
15.3481
15.3475
15.3468
15.346
15.3452
15.3443
15.3433
15.3424
15.3417
15.9522
15.9529
15.9538
15.9548
15.9557
15.9566
15.9573
15.958
15.9587
15.9593
15.9598
15.9602
15.9606
15.961
15.9613
15.9616
15.9618
15.962
15.9622
15.9624
15.9625
15.9626
15.9627
15.9628
15.9629
15.9629
15.963
15.963
15.963
15.9631
15.9631
15.963
15.963
15.963
15.9629
15.9629
15.9628
15.9627
15.9626
15.9625
15.9624
15.9622
15.962
15.9618
15.9616
15.9613
15.961
15.9606
15.9602
15.9598
15.9593
15.9587
15.958
15.9573
15.9566
15.9557
15.9548
15.9538
15.9529
15.9522
16.5582
16.5589
16.5599
16.5608
16.5618
16.5626
16.5634
16.5641
16.5648
16.5653
16.5659
16.5663
16.5667
16.5671
16.5674
16.5677
16.5679
16.5682
16.5683
16.5685
16.5686
16.5688
16.5689
16.5689
16.569
16.5691
16.5691
16.5691
16.5692
16.5692
16.5692
16.5692
16.5691
16.5691
16.5691
16.569
16.5689
16.5689
16.5688
16.5686
16.5685
16.5683
16.5682
16.5679
16.5677
16.5674
16.5671
16.5667
16.5663
16.5659
16.5653
16.5648
16.5641
16.5634
16.5626
16.5618
16.5608
16.5599
16.5589
16.5582
17.1573
17.1581
17.159
17.16
17.1609
17.1618
17.1626
17.1633
17.1639
17.1645
17.165
17.1655
17.1659
17.1663
17.1666
17.1669
17.1671
17.1673
17.1675
17.1677
17.1678
17.1679
17.168
17.1681
17.1682
17.1683
17.1683
17.1683
17.1683
17.1684
17.1684
17.1683
17.1683
17.1683
17.1683
17.1682
17.1681
17.168
17.1679
17.1678
17.1677
17.1675
17.1673
17.1671
17.1669
17.1666
17.1663
17.1659
17.1655
17.165
17.1645
17.1639
17.1633
17.1626
17.1618
17.1609
17.16
17.159
17.1581
17.1573
17.7468
17.7475
17.7485
17.7495
17.7504
17.7512
17.752
17.7527
17.7534
17.754
17.7545
17.755
17.7554
17.7557
17.756
17.7563
17.7566
17.7568
17.757
17.7571
17.7573
17.7574
17.7575
17.7576
17.7576
17.7577
17.7577
17.7578
17.7578
17.7578
17.7578
17.7578
17.7578
17.7577
17.7577
17.7576
17.7576
17.7575
17.7574
17.7573
17.7571
17.757
17.7568
17.7566
17.7563
17.756
17.7557
17.7554
17.755
17.7545
17.754
17.7534
17.7527
17.752
17.7512
17.7504
17.7495
17.7485
17.7475
17.7468
18.3233
18.3241
18.325
18.326
18.3269
18.3277
18.3285
18.3292
18.3299
18.3304
18.331
18.3314
18.3318
18.3322
18.3325
18.3328
18.333
18.3332
18.3334
18.3336
18.3337
18.3338
18.3339
18.334
18.3341
18.3341
18.3342
18.3342
18.3342
18.3342
18.3342
18.3342
18.3342
18.3342
18.3341
18.3341
18.334
18.3339
18.3338
18.3337
18.3336
18.3334
18.3332
18.333
18.3328
18.3325
18.3322
18.3318
18.3314
18.331
18.3304
18.3299
18.3292
18.3285
18.3277
18.3269
18.326
18.325
18.3241
18.3233
18.8831
18.8838
18.8848
18.8857
18.8866
18.8874
18.8882
18.8889
18.8895
18.8901
18.8906
18.891
18.8914
18.8918
18.8921
18.8923
18.8926
18.8928
18.893
18.8931
18.8932
18.8934
18.8935
18.8935
18.8936
18.8937
18.8937
18.8937
18.8938
18.8938
18.8938
18.8938
18.8937
18.8937
18.8937
18.8936
18.8935
18.8935
18.8934
18.8932
18.8931
18.893
18.8928
18.8926
18.8923
18.8921
18.8918
18.8914
18.891
18.8906
18.8901
18.8895
18.8889
18.8882
18.8874
18.8866
18.8857
18.8848
18.8838
18.8831
19.4215
19.4222
19.4231
19.424
19.4249
19.4257
19.4264
19.4271
19.4277
19.4282
19.4287
19.4291
19.4295
19.4299
19.4302
19.4304
19.4306
19.4309
19.431
19.4312
19.4313
19.4314
19.4315
19.4316
19.4317
19.4317
19.4317
19.4318
19.4318
19.4318
19.4318
19.4318
19.4318
19.4317
19.4317
19.4317
19.4316
19.4315
19.4314
19.4313
19.4312
19.431
19.4309
19.4306
19.4304
19.4302
19.4299
19.4295
19.4291
19.4287
19.4282
19.4277
19.4271
19.4264
19.4257
19.4249
19.424
19.4231
19.4222
19.4215
19.933
19.9338
19.9346
19.9355
19.9363
19.9371
19.9378
19.9384
19.939
19.9395
19.9399
19.9404
19.9407
19.941
19.9413
19.9416
19.9418
19.942
19.9422
19.9423
19.9424
19.9425
19.9426
19.9427
19.9427
19.9428
19.9428
19.9429
19.9429
19.9429
19.9429
19.9429
19.9429
19.9428
19.9428
19.9427
19.9427
19.9426
19.9425
19.9424
19.9423
19.9422
19.942
19.9418
19.9416
19.9413
19.941
19.9407
19.9404
19.9399
19.9395
19.939
19.9384
19.9378
19.9371
19.9363
19.9355
19.9346
19.9338
19.933
20.4115
20.4122
20.413
20.4138
20.4145
20.4152
20.4159
20.4165
20.417
20.4175
20.4179
20.4183
20.4186
20.4189
20.4192
20.4194
20.4196
20.4198
20.42
20.4201
20.4202
20.4203
20.4204
20.4205
20.4205
20.4206
20.4206
20.4206
20.4206
20.4206
20.4206
20.4206
20.4206
20.4206
20.4206
20.4205
20.4205
20.4204
20.4203
20.4202
20.4201
20.42
20.4198
20.4196
20.4194
20.4192
20.4189
20.4186
20.4183
20.4179
20.4175
20.417
20.4165
20.4159
20.4152
20.4145
20.4138
20.413
20.4122
20.4115
20.8497
20.8503
20.851
20.8517
20.8524
20.853
20.8536
20.8542
20.8546
20.8551
20.8555
20.8558
20.8561
20.8564
20.8566
20.8568
20.857
20.8572
20.8573
20.8574
20.8575
20.8576
20.8577
20.8578
20.8578
20.8578
20.8579
20.8579
20.8579
20.8579
20.8579
20.8579
20.8579
20.8579
20.8578
20.8578
20.8578
20.8577
20.8576
20.8575
20.8574
20.8573
20.8572
20.857
20.8568
20.8566
20.8564
20.8561
20.8558
20.8555
20.8551
20.8546
20.8542
20.8536
20.853
20.8524
20.8517
20.851
20.8503
20.8497
21.2404
21.2409
21.2415
21.2422
21.2428
21.2433
21.2438
21.2443
21.2447
21.2451
21.2454
21.2457
21.246
21.2462
21.2464
21.2466
21.2468
21.2469
21.247
21.2471
21.2472
21.2473
21.2474
21.2474
21.2475
21.2475
21.2475
21.2475
21.2476
21.2476
21.2476
21.2476
21.2475
21.2475
21.2475
21.2475
21.2474
21.2474
21.2473
21.2472
21.2471
21.247
21.2469
21.2468
21.2466
21.2464
21.2462
21.246
21.2457
21.2454
21.2451
21.2447
21.2443
21.2438
21.2433
21.2428
21.2422
21.2415
21.2409
21.2404
21.5779
21.5783
21.5788
21.5794
21.5799
21.5803
21.5807
21.5811
21.5815
21.5818
21.5821
21.5823
21.5825
21.5827
21.5829
21.583
21.5832
21.5833
21.5834
21.5835
21.5836
21.5836
21.5837
21.5837
21.5838
21.5838
21.5838
21.5838
21.5838
21.5838
21.5838
21.5838
21.5838
21.5838
21.5838
21.5838
21.5837
21.5837
21.5836
21.5836
21.5835
21.5834
21.5833
21.5832
21.583
21.5829
21.5827
21.5825
21.5823
21.5821
21.5818
21.5815
21.5811
21.5807
21.5803
21.5799
21.5794
21.5788
21.5783
21.5779
21.8598
21.8601
21.8605
21.8609
21.8613
21.8617
21.862
21.8623
21.8626
21.8628
21.863
21.8632
21.8634
21.8635
21.8637
21.8638
21.8639
21.864
21.8641
21.8641
21.8642
21.8643
21.8643
21.8643
21.8644
21.8644
21.8644
21.8644
21.8644
21.8644
21.8644
21.8644
21.8644
21.8644
21.8644
21.8644
21.8643
21.8643
21.8643
21.8642
21.8641
21.8641
21.864
21.8639
21.8638
21.8637
21.8635
21.8634
21.8632
21.863
21.8628
21.8626
21.8623
21.862
21.8617
21.8613
21.8609
21.8605
21.8601
21.8598
22.0884
22.0886
22.0889
22.0892
22.0895
22.0898
22.09
22.0903
22.0905
22.0906
22.0908
22.091
22.0911
22.0912
22.0913
22.0914
22.0915
22.0915
22.0916
22.0916
22.0917
22.0917
22.0918
22.0918
22.0918
22.0918
22.0918
22.0918
22.0919
22.0919
22.0919
22.0919
22.0918
22.0918
22.0918
22.0918
22.0918
22.0918
22.0917
22.0917
22.0916
22.0916
22.0915
22.0915
22.0914
22.0913
22.0912
22.0911
22.091
22.0908
22.0906
22.0905
22.0903
22.09
22.0898
22.0895
22.0892
22.0889
22.0886
22.0884
22.2706
22.2708
22.271
22.2712
22.2715
22.2717
22.2718
22.272
22.2722
22.2723
22.2724
22.2725
22.2726
22.2727
22.2728
22.2728
22.2729
22.2729
22.273
22.273
22.273
22.2731
22.2731
22.2731
22.2731
22.2731
22.2731
22.2732
22.2732
22.2732
22.2732
22.2732
22.2732
22.2731
22.2731
22.2731
22.2731
22.2731
22.2731
22.273
22.273
22.273
22.2729
22.2729
22.2728
22.2728
22.2727
22.2726
22.2725
22.2724
22.2723
22.2722
22.272
22.2718
22.2717
22.2715
22.2712
22.271
22.2708
22.2706
22.4161
22.4162
22.4163
22.4165
22.4166
22.4168
22.4169
22.417
22.4171
22.4172
22.4173
22.4174
22.4174
22.4175
22.4176
22.4176
22.4176
22.4177
22.4177
22.4177
22.4177
22.4178
22.4178
22.4178
22.4178
22.4178
22.4178
22.4178
22.4178
22.4178
22.4178
22.4178
22.4178
22.4178
22.4178
22.4178
22.4178
22.4178
22.4178
22.4177
22.4177
22.4177
22.4177
22.4176
22.4176
22.4176
22.4175
22.4174
22.4174
22.4173
22.4172
22.4171
22.417
22.4169
22.4168
22.4166
22.4165
22.4163
22.4162
22.4161
22.5341
22.5342
22.5343
22.5344
22.5345
22.5346
22.5347
22.5348
22.5348
22.5349
22.535
22.535
22.5351
22.5351
22.5351
22.5352
22.5352
22.5352
22.5352
22.5353
22.5353
22.5353
22.5353
22.5353
22.5353
22.5353
22.5353
22.5353
22.5353
22.5353
22.5353
22.5353
22.5353
22.5353
22.5353
22.5353
22.5353
22.5353
22.5353
22.5353
22.5353
22.5352
22.5352
22.5352
22.5352
22.5351
22.5351
22.5351
22.535
22.535
22.5349
22.5348
22.5348
22.5347
22.5346
22.5345
22.5344
22.5343
22.5342
22.5341
22.6326
22.6326
22.6327
22.6328
22.6328
22.6329
22.633
22.633
22.6331
22.6331
22.6331
22.6332
22.6332
22.6332
22.6333
22.6333
22.6333
22.6333
22.6333
22.6333
22.6334
22.6334
22.6334
22.6334
22.6334
22.6334
22.6334
22.6334
22.6334
22.6334
22.6334
22.6334
22.6334
22.6334
22.6334
22.6334
22.6334
22.6334
22.6334
22.6334
22.6333
22.6333
22.6333
22.6333
22.6333
22.6333
22.6332
22.6332
22.6332
22.6331
22.6331
22.6331
22.633
22.633
22.6329
22.6328
22.6328
22.6327
22.6326
22.6326
22.7171
22.7172
22.7172
22.7172
22.7173
22.7173
22.7174
22.7174
22.7175
22.7175
22.7175
22.7175
22.7176
22.7176
22.7176
22.7176
22.7176
22.7176
22.7176
22.7177
22.7177
22.7177
22.7177
22.7177
22.7177
22.7177
22.7177
22.7177
22.7177
22.7177
22.7177
22.7177
22.7177
22.7177
22.7177
22.7177
22.7177
22.7177
22.7177
22.7177
22.7177
22.7176
22.7176
22.7176
22.7176
22.7176
22.7176
22.7176
22.7175
22.7175
22.7175
22.7175
22.7174
22.7174
22.7173
22.7173
22.7172
22.7172
22.7172
22.7171
22.7916
22.7916
22.7917
22.7917
22.7917
22.7918
22.7918
22.7918
22.7918
22.7919
22.7919
22.7919
22.7919
22.7919
22.7919
22.7919
22.7919
22.7919
22.792
22.792
22.792
22.792
22.792
22.792
22.792
22.792
22.792
22.792
22.792
22.792
22.792
22.792
22.792
22.792
22.792
22.792
22.792
22.792
22.792
22.792
22.792
22.792
22.7919
22.7919
22.7919
22.7919
22.7919
22.7919
22.7919
22.7919
22.7919
22.7918
22.7918
22.7918
22.7918
22.7917
22.7917
22.7917
22.7916
22.7916
22.8586
22.8586
22.8586
22.8586
22.8586
22.8587
22.8587
22.8587
22.8587
22.8587
22.8587
22.8587
22.8588
22.8588
22.8588
22.8588
22.8588
22.8588
22.8588
22.8588
22.8588
22.8588
22.8588
22.8588
22.8588
22.8588
22.8588
22.8588
22.8588
22.8588
22.8588
22.8588
22.8588
22.8588
22.8588
22.8588
22.8588
22.8588
22.8588
22.8588
22.8588
22.8588
22.8588
22.8588
22.8588
22.8588
22.8588
22.8588
22.8587
22.8587
22.8587
22.8587
22.8587
22.8587
22.8587
22.8586
22.8586
22.8586
22.8586
22.8586
22.9197
22.9197
22.9197
22.9197
22.9197
22.9197
22.9198
22.9198
22.9198
22.9198
22.9198
22.9198
22.9198
22.9198
22.9198
22.9198
22.9198
22.9198
22.9198
22.9198
22.9198
22.9198
22.9198
22.9198
22.9198
22.9198
22.9198
22.9198
22.9198
22.9198
22.9198
22.9198
22.9198
22.9198
22.9198
22.9198
22.9198
22.9198
22.9198
22.9198
22.9198
22.9198
22.9198
22.9198
22.9198
22.9198
22.9198
22.9198
22.9198
22.9198
22.9198
22.9198
22.9198
22.9198
22.9197
22.9197
22.9197
22.9197
22.9197
22.9197
22.9762
22.9762
22.9762
22.9762
22.9762
22.9762
22.9762
22.9762
22.9762
22.9762
22.9762
22.9762
22.9762
22.9762
22.9762
22.9762
22.9762
22.9762
22.9762
22.9762
22.9762
22.9762
22.9762
22.9762
22.9762
22.9762
22.9762
22.9762
22.9762
22.9762
22.9762
22.9762
22.9762
22.9762
22.9762
22.9762
22.9762
22.9762
22.9762
22.9762
22.9762
22.9762
22.9762
22.9762
22.9762
22.9762
22.9762
22.9762
22.9762
22.9762
22.9762
22.9762
22.9762
22.9762
22.9762
22.9762
22.9762
22.9762
22.9762
22.9762
23.0288
23.0288
23.0288
23.0288
23.0288
23.0288
23.0288
23.0288
23.0288
23.0288
23.0288
23.0288
23.0288
23.0288
23.0288
23.0288
23.0288
23.0288
23.0288
23.0288
23.0288
23.0288
23.0288
23.0288
23.0288
23.0288
23.0288
23.0288
23.0288
23.0288
23.0288
23.0288
23.0288
23.0288
23.0288
23.0288
23.0288
23.0288
23.0288
23.0288
23.0288
23.0288
23.0288
23.0288
23.0288
23.0288
23.0288
23.0288
23.0288
23.0288
23.0288
23.0288
23.0288
23.0288
23.0288
23.0288
23.0288
23.0288
23.0288
23.0288
23.0783
23.0783
23.0783
23.0783
23.0783
23.0783
23.0783
23.0782
23.0782
23.0782
23.0782
23.0782
23.0782
23.0782
23.0782
23.0782
23.0782
23.0782
23.0782
23.0782
23.0782
23.0782
23.0782
23.0782
23.0782
23.0782
23.0782
23.0782
23.0782
23.0782
23.0782
23.0782
23.0782
23.0782
23.0782
23.0782
23.0782
23.0782
23.0782
23.0782
23.0782
23.0782
23.0782
23.0782
23.0782
23.0782
23.0782
23.0782
23.0782
23.0782
23.0782
23.0782
23.0782
23.0783
23.0783
23.0783
23.0783
23.0783
23.0783
23.0783
23.1251
23.1251
23.1251
23.1251
23.125
23.125
23.125
23.125
23.125
23.125
23.125
23.125
23.125
23.125
23.125
23.125
23.125
23.125
23.125
23.125
23.1249
23.1249
23.1249
23.1249
23.1249
23.1249
23.1249
23.1249
23.1249
23.1249
23.1249
23.1249
23.1249
23.1249
23.1249
23.1249
23.1249
23.1249
23.1249
23.1249
23.125
23.125
23.125
23.125
23.125
23.125
23.125
23.125
23.125
23.125
23.125
23.125
23.125
23.125
23.125
23.125
23.1251
23.1251
23.1251
23.1251
23.1696
23.1696
23.1695
23.1695
23.1695
23.1695
23.1695
23.1695
23.1695
23.1695
23.1695
23.1694
23.1694
23.1694
23.1694
23.1694
23.1694
23.1694
23.1694
23.1694
23.1694
23.1694
23.1694
23.1694
23.1694
23.1694
23.1694
23.1694
23.1694
23.1694
23.1694
23.1694
23.1694
23.1694
23.1694
23.1694
23.1694
23.1694
23.1694
23.1694
23.1694
23.1694
23.1694
23.1694
23.1694
23.1694
23.1694
23.1694
23.1694
23.1695
23.1695
23.1695
23.1695
23.1695
23.1695
23.1695
23.1695
23.1695
23.1696
23.1696
23.2121
23.2121
23.212
23.212
23.212
23.212
23.212
23.212
23.212
23.212
23.2119
23.2119
23.2119
23.2119
23.2119
23.2119
23.2119
23.2119
23.2119
23.2119
23.2119
23.2119
23.2119
23.2119
23.2119
23.2119
23.2119
23.2119
23.2119
23.2119
23.2119
23.2119
23.2119
23.2119
23.2119
23.2119
23.2119
23.2119
23.2119
23.2119
23.2119
23.2119
23.2119
23.2119
23.2119
23.2119
23.2119
23.2119
23.2119
23.2119
23.212
23.212
23.212
23.212
23.212
23.212
23.212
23.212
23.2121
23.2121
23.2529
23.2528
23.2528
23.2528
23.2528
23.2528
23.2528
23.2527
23.2527
23.2527
23.2527
23.2527
23.2527
23.2527
23.2527
23.2527
23.2526
23.2526
23.2526
23.2526
23.2526
23.2526
23.2526
23.2526
23.2526
23.2526
23.2526
23.2526
23.2526
23.2526
23.2526
23.2526
23.2526
23.2526
23.2526
23.2526
23.2526
23.2526
23.2526
23.2526
23.2526
23.2526
23.2526
23.2526
23.2527
23.2527
23.2527
23.2527
23.2527
23.2527
23.2527
23.2527
23.2527
23.2528
23.2528
23.2528
23.2528
23.2528
23.2528
23.2529
23.2921
23.2921
23.2921
23.2921
23.292
23.292
23.292
23.292
23.292
23.292
23.292
23.2919
23.2919
23.2919
23.2919
23.2919
23.2919
23.2919
23.2919
23.2919
23.2919
23.2919
23.2919
23.2919
23.2919
23.2919
23.2919
23.2919
23.2919
23.2919
23.2919
23.2919
23.2919
23.2919
23.2919
23.2919
23.2919
23.2919
23.2919
23.2919
23.2919
23.2919
23.2919
23.2919
23.2919
23.2919
23.2919
23.2919
23.2919
23.292
23.292
23.292
23.292
23.292
23.292
23.292
23.2921
23.2921
23.2921
23.2921
23.33
23.33
23.33
23.33
23.33
23.33
23.3299
23.3299
23.3299
23.3299
23.3299
23.3299
23.3298
23.3298
23.3298
23.3298
23.3298
23.3298
23.3298
23.3298
23.3298
23.3298
23.3298
23.3298
23.3298
23.3298
23.3298
23.3298
23.3298
23.3298
23.3298
23.3298
23.3298
23.3298
23.3298
23.3298
23.3298
23.3298
23.3298
23.3298
23.3298
23.3298
23.3298
23.3298
23.3298
23.3298
23.3298
23.3298
23.3299
23.3299
23.3299
23.3299
23.3299
23.3299
23.33
23.33
23.33
23.33
23.33
23.33
23.3668
23.3668
23.3668
23.3667
23.3667
23.3667
23.3667
23.3667
23.3666
23.3666
23.3666
23.3666
23.3666
23.3666
23.3666
23.3666
23.3665
23.3665
23.3665
23.3665
23.3665
23.3665
23.3665
23.3665
23.3665
23.3665
23.3665
23.3665
23.3665
23.3665
23.3665
23.3665
23.3665
23.3665
23.3665
23.3665
23.3665
23.3665
23.3665
23.3665
23.3665
23.3665
23.3665
23.3665
23.3666
23.3666
23.3666
23.3666
23.3666
23.3666
23.3666
23.3666
23.3667
23.3667
23.3667
23.3667
23.3667
23.3668
23.3668
23.3668
23.4025
23.4025
23.4025
23.4024
23.4024
23.4024
23.4024
23.4024
23.4023
23.4023
23.4023
23.4023
23.4023
23.4023
23.4023
23.4022
23.4022
23.4022
23.4022
23.4022