/*--------------------------------*- C++ -*----------------------------------*\
| =========                 |                                                 |
| \\      /  F ield         | foam-extend: Open Source CFD                    |
|  \\    /   O peration     | Version:     4.0                                |
|   \\  /    A nd           | Web:         http://www.foam-extend.org         |
|    \\/     M anipulation  |                                                 |
\*---------------------------------------------------------------------------*/
FoamFile
{
    version     2.0;
    format      ascii;
    class       volScalarField;
    location    "320";
    object      cMinus;
}
// * * * * * * * * * * * * * * * * * * * * * * * * * * * * * * * * * * * * * //

dimensions      [0 0 0 0 0 0 0];

internalField   nonuniform List<scalar> 
6960
(
1.32798e-15
1.31499e-15
1.31752e-15
1.32004e-15
1.32206e-15
1.3236e-15
1.32474e-15
1.32554e-15
1.32608e-15
1.32642e-15
1.32659e-15
1.32664e-15
1.32661e-15
1.32652e-15
1.32639e-15
1.32623e-15
1.32605e-15
1.32587e-15
1.3257e-15
1.32552e-15
1.32536e-15
1.32521e-15
1.32507e-15
1.32495e-15
1.32484e-15
1.32475e-15
1.32468e-15
1.32463e-15
1.32459e-15
1.32458e-15
1.32458e-15
1.32459e-15
1.32463e-15
1.32468e-15
1.32475e-15
1.32484e-15
1.32495e-15
1.32507e-15
1.32521e-15
1.32536e-15
1.32552e-15
1.3257e-15
1.32587e-15
1.32605e-15
1.32623e-15
1.32639e-15
1.32652e-15
1.32661e-15
1.32664e-15
1.32659e-15
1.32642e-15
1.32608e-15
1.32554e-15
1.32474e-15
1.3236e-15
1.32206e-15
1.32004e-15
1.31752e-15
1.31499e-15
1.32798e-15
1.66446e-15
1.64839e-15
1.65159e-15
1.65476e-15
1.6573e-15
1.65925e-15
1.66068e-15
1.6617e-15
1.66239e-15
1.66281e-15
1.66304e-15
1.66311e-15
1.66308e-15
1.66297e-15
1.66281e-15
1.66261e-15
1.6624e-15
1.66218e-15
1.66196e-15
1.66174e-15
1.66154e-15
1.66135e-15
1.66118e-15
1.66103e-15
1.6609e-15
1.66079e-15
1.6607e-15
1.66063e-15
1.66059e-15
1.66057e-15
1.66057e-15
1.66059e-15
1.66063e-15
1.6607e-15
1.66079e-15
1.6609e-15
1.66103e-15
1.66118e-15
1.66135e-15
1.66154e-15
1.66174e-15
1.66196e-15
1.66218e-15
1.6624e-15
1.66261e-15
1.66281e-15
1.66297e-15
1.66308e-15
1.66311e-15
1.66304e-15
1.66281e-15
1.66239e-15
1.6617e-15
1.66068e-15
1.65925e-15
1.6573e-15
1.65476e-15
1.65159e-15
1.64839e-15
1.66446e-15
2.94472e-15
2.91677e-15
2.92243e-15
2.92802e-15
2.93249e-15
2.93592e-15
2.93845e-15
2.94024e-15
2.94145e-15
2.9422e-15
2.94259e-15
2.94272e-15
2.94266e-15
2.94247e-15
2.94218e-15
2.94183e-15
2.94146e-15
2.94106e-15
2.94067e-15
2.94029e-15
2.93994e-15
2.9396e-15
2.9393e-15
2.93904e-15
2.9388e-15
2.93861e-15
2.93845e-15
2.93834e-15
2.93826e-15
2.93822e-15
2.93822e-15
2.93826e-15
2.93834e-15
2.93845e-15
2.93861e-15
2.9388e-15
2.93904e-15
2.9393e-15
2.9396e-15
2.93994e-15
2.94029e-15
2.94067e-15
2.94106e-15
2.94146e-15
2.94183e-15
2.94218e-15
2.94247e-15
2.94266e-15
2.94272e-15
2.94259e-15
2.9422e-15
2.94145e-15
2.94024e-15
2.93845e-15
2.93592e-15
2.93249e-15
2.92802e-15
2.92243e-15
2.91677e-15
2.94472e-15
5.70792e-15
5.65458e-15
5.66557e-15
5.67636e-15
5.68499e-15
5.6916e-15
5.69648e-15
5.69994e-15
5.70226e-15
5.7037e-15
5.70445e-15
5.7047e-15
5.70458e-15
5.7042e-15
5.70363e-15
5.70296e-15
5.70222e-15
5.70146e-15
5.7007e-15
5.69997e-15
5.69927e-15
5.69863e-15
5.69804e-15
5.69753e-15
5.69708e-15
5.6967e-15
5.6964e-15
5.69617e-15
5.69602e-15
5.69594e-15
5.69594e-15
5.69602e-15
5.69617e-15
5.6964e-15
5.6967e-15
5.69708e-15
5.69753e-15
5.69804e-15
5.69863e-15
5.69927e-15
5.69997e-15
5.7007e-15
5.70146e-15
5.70222e-15
5.70296e-15
5.70363e-15
5.7042e-15
5.70458e-15
5.7047e-15
5.70445e-15
5.7037e-15
5.70226e-15
5.69994e-15
5.69648e-15
5.6916e-15
5.68499e-15
5.67636e-15
5.66557e-15
5.65458e-15
5.70792e-15
1.12326e-14
1.11293e-14
1.1151e-14
1.11722e-14
1.11891e-14
1.12021e-14
1.12117e-14
1.12185e-14
1.1223e-14
1.12258e-14
1.12273e-14
1.12278e-14
1.12276e-14
1.12268e-14
1.12257e-14
1.12244e-14
1.12229e-14
1.12214e-14
1.12199e-14
1.12185e-14
1.12171e-14
1.12158e-14
1.12147e-14
1.12136e-14
1.12128e-14
1.1212e-14
1.12114e-14
1.1211e-14
1.12107e-14
1.12105e-14
1.12105e-14
1.12107e-14
1.1211e-14
1.12114e-14
1.1212e-14
1.12128e-14
1.12136e-14
1.12147e-14
1.12158e-14
1.12171e-14
1.12185e-14
1.12199e-14
1.12214e-14
1.12229e-14
1.12244e-14
1.12257e-14
1.12268e-14
1.12276e-14
1.12278e-14
1.12273e-14
1.12258e-14
1.1223e-14
1.12185e-14
1.12117e-14
1.12021e-14
1.11891e-14
1.11722e-14
1.1151e-14
1.11293e-14
1.12326e-14
2.21234e-14
2.19234e-14
2.19662e-14
2.20079e-14
2.20413e-14
2.20668e-14
2.20857e-14
2.20991e-14
2.2108e-14
2.21136e-14
2.21165e-14
2.21174e-14
2.21169e-14
2.21154e-14
2.21132e-14
2.21106e-14
2.21077e-14
2.21048e-14
2.21018e-14
2.2099e-14
2.20963e-14
2.20938e-14
2.20915e-14
2.20895e-14
2.20877e-14
2.20863e-14
2.20851e-14
2.20842e-14
2.20836e-14
2.20833e-14
2.20833e-14
2.20836e-14
2.20842e-14
2.20851e-14
2.20863e-14
2.20877e-14
2.20895e-14
2.20915e-14
2.20938e-14
2.20963e-14
2.2099e-14
2.21018e-14
2.21048e-14
2.21077e-14
2.21106e-14
2.21132e-14
2.21154e-14
2.21169e-14
2.21174e-14
2.21165e-14
2.21136e-14
2.2108e-14
2.20991e-14
2.20857e-14
2.20668e-14
2.20413e-14
2.20079e-14
2.19662e-14
2.19234e-14
2.21234e-14
4.35485e-14
4.31619e-14
4.32465e-14
4.33287e-14
4.33944e-14
4.34447e-14
4.34818e-14
4.35082e-14
4.35258e-14
4.35367e-14
4.35425e-14
4.35443e-14
4.35433e-14
4.35404e-14
4.35361e-14
4.35309e-14
4.35253e-14
4.35194e-14
4.35136e-14
4.3508e-14
4.35027e-14
4.34978e-14
4.34933e-14
4.34893e-14
4.34859e-14
4.3483e-14
4.34807e-14
4.34789e-14
4.34777e-14
4.34772e-14
4.34772e-14
4.34777e-14
4.34789e-14
4.34807e-14
4.3483e-14
4.34859e-14
4.34893e-14
4.34933e-14
4.34978e-14
4.35027e-14
4.3508e-14
4.35136e-14
4.35194e-14
4.35253e-14
4.35309e-14
4.35361e-14
4.35404e-14
4.35433e-14
4.35443e-14
4.35425e-14
4.35367e-14
4.35258e-14
4.35082e-14
4.34818e-14
4.34447e-14
4.33944e-14
4.33287e-14
4.32465e-14
4.31619e-14
4.35485e-14
8.57068e-14
8.49611e-14
8.51285e-14
8.52904e-14
8.54197e-14
8.55188e-14
8.5592e-14
8.56439e-14
8.56787e-14
8.57002e-14
8.57115e-14
8.57152e-14
8.57133e-14
8.57075e-14
8.5699e-14
8.56889e-14
8.56778e-14
8.56663e-14
8.56548e-14
8.56438e-14
8.56333e-14
8.56236e-14
8.56148e-14
8.56069e-14
8.56002e-14
8.55945e-14
8.55899e-14
8.55865e-14
8.55842e-14
8.5583e-14
8.5583e-14
8.55842e-14
8.55865e-14
8.55899e-14
8.55945e-14
8.56002e-14
8.56069e-14
8.56148e-14
8.56236e-14
8.56333e-14
8.56438e-14
8.56548e-14
8.56663e-14
8.56778e-14
8.56889e-14
8.5699e-14
8.57075e-14
8.57133e-14
8.57152e-14
8.57115e-14
8.57002e-14
8.56787e-14
8.56439e-14
8.5592e-14
8.55188e-14
8.54197e-14
8.52904e-14
8.51285e-14
8.49611e-14
8.57068e-14
1.6871e-13
1.67274e-13
1.67606e-13
1.67925e-13
1.68179e-13
1.68374e-13
1.68519e-13
1.68621e-13
1.6869e-13
1.68732e-13
1.68755e-13
1.68762e-13
1.68758e-13
1.68747e-13
1.6873e-13
1.6871e-13
1.68688e-13
1.68666e-13
1.68643e-13
1.68621e-13
1.68601e-13
1.68582e-13
1.68564e-13
1.68549e-13
1.68536e-13
1.68524e-13
1.68515e-13
1.68509e-13
1.68504e-13
1.68502e-13
1.68502e-13
1.68504e-13
1.68509e-13
1.68515e-13
1.68524e-13
1.68536e-13
1.68549e-13
1.68564e-13
1.68582e-13
1.68601e-13
1.68621e-13
1.68643e-13
1.68666e-13
1.68688e-13
1.6871e-13
1.6873e-13
1.68747e-13
1.68758e-13
1.68762e-13
1.68755e-13
1.68732e-13
1.6869e-13
1.68621e-13
1.68519e-13
1.68374e-13
1.68179e-13
1.67925e-13
1.67606e-13
1.67274e-13
1.6871e-13
3.32234e-13
3.29471e-13
3.30128e-13
3.30757e-13
3.31259e-13
3.31644e-13
3.31929e-13
3.32131e-13
3.32266e-13
3.3235e-13
3.32395e-13
3.32409e-13
3.32402e-13
3.3238e-13
3.32347e-13
3.32308e-13
3.32265e-13
3.3222e-13
3.32176e-13
3.32133e-13
3.32092e-13
3.32054e-13
3.3202e-13
3.3199e-13
3.31964e-13
3.31942e-13
3.31924e-13
3.3191e-13
3.31902e-13
3.31897e-13
3.31897e-13
3.31902e-13
3.3191e-13
3.31924e-13
3.31942e-13
3.31964e-13
3.3199e-13
3.3202e-13
3.32054e-13
3.32092e-13
3.32133e-13
3.32176e-13
3.3222e-13
3.32265e-13
3.32308e-13
3.32347e-13
3.3238e-13
3.32402e-13
3.32409e-13
3.32395e-13
3.3235e-13
3.32266e-13
3.32131e-13
3.31929e-13
3.31644e-13
3.31259e-13
3.30757e-13
3.30128e-13
3.29471e-13
3.32234e-13
6.54598e-13
6.49294e-13
6.50597e-13
6.51838e-13
6.52828e-13
6.53588e-13
6.5415e-13
6.54549e-13
6.54817e-13
6.54983e-13
6.5507e-13
6.55099e-13
6.55086e-13
6.55042e-13
6.54978e-13
6.549e-13
6.54815e-13
6.54728e-13
6.5464e-13
6.54556e-13
6.54476e-13
6.54401e-13
6.54334e-13
6.54274e-13
6.54222e-13
6.54179e-13
6.54144e-13
6.54118e-13
6.541e-13
6.54091e-13
6.54091e-13
6.541e-13
6.54118e-13
6.54144e-13
6.54179e-13
6.54222e-13
6.54274e-13
6.54334e-13
6.54401e-13
6.54476e-13
6.54556e-13
6.5464e-13
6.54728e-13
6.54815e-13
6.549e-13
6.54978e-13
6.55042e-13
6.55086e-13
6.55099e-13
6.5507e-13
6.54983e-13
6.54817e-13
6.54549e-13
6.5415e-13
6.53588e-13
6.52828e-13
6.51838e-13
6.50597e-13
6.49294e-13
6.54598e-13
1.29055e-12
1.28039e-12
1.28297e-12
1.28542e-12
1.28738e-12
1.28888e-12
1.28999e-12
1.29078e-12
1.29131e-12
1.29163e-12
1.29181e-12
1.29187e-12
1.29184e-12
1.29175e-12
1.29163e-12
1.29148e-12
1.29131e-12
1.29114e-12
1.29096e-12
1.2908e-12
1.29064e-12
1.29049e-12
1.29036e-12
1.29024e-12
1.29014e-12
1.29005e-12
1.28998e-12
1.28993e-12
1.2899e-12
1.28988e-12
1.28988e-12
1.2899e-12
1.28993e-12
1.28998e-12
1.29005e-12
1.29014e-12
1.29024e-12
1.29036e-12
1.29049e-12
1.29064e-12
1.2908e-12
1.29096e-12
1.29114e-12
1.29131e-12
1.29148e-12
1.29163e-12
1.29175e-12
1.29184e-12
1.29187e-12
1.29181e-12
1.29163e-12
1.29131e-12
1.29078e-12
1.28999e-12
1.28888e-12
1.28738e-12
1.28542e-12
1.28297e-12
1.28039e-12
1.29055e-12
2.54615e-12
2.5267e-12
2.53184e-12
2.53668e-12
2.54055e-12
2.54351e-12
2.54571e-12
2.54727e-12
2.54832e-12
2.54897e-12
2.54931e-12
2.54943e-12
2.54938e-12
2.54921e-12
2.54896e-12
2.54866e-12
2.54833e-12
2.54799e-12
2.54765e-12
2.54732e-12
2.54701e-12
2.54672e-12
2.54646e-12
2.54623e-12
2.54603e-12
2.54586e-12
2.54572e-12
2.54562e-12
2.54555e-12
2.54552e-12
2.54552e-12
2.54555e-12
2.54562e-12
2.54572e-12
2.54586e-12
2.54603e-12
2.54623e-12
2.54646e-12
2.54672e-12
2.54701e-12
2.54732e-12
2.54765e-12
2.54799e-12
2.54833e-12
2.54866e-12
2.54896e-12
2.54921e-12
2.54938e-12
2.54943e-12
2.54931e-12
2.54897e-12
2.54832e-12
2.54727e-12
2.54571e-12
2.54351e-12
2.54055e-12
2.53668e-12
2.53184e-12
2.5267e-12
2.54615e-12
5.02739e-12
4.99027e-12
5.00049e-12
5.01007e-12
5.01772e-12
5.02359e-12
5.02793e-12
5.03102e-12
5.0331e-12
5.03439e-12
5.03508e-12
5.03531e-12
5.03522e-12
5.03489e-12
5.0344e-12
5.03381e-12
5.03316e-12
5.03248e-12
5.03181e-12
5.03116e-12
5.03055e-12
5.02998e-12
5.02946e-12
5.029e-12
5.0286e-12
5.02827e-12
5.028e-12
5.0278e-12
5.02766e-12
5.0276e-12
5.0276e-12
5.02766e-12
5.0278e-12
5.028e-12
5.02827e-12
5.0286e-12
5.029e-12
5.02946e-12
5.02998e-12
5.03055e-12
5.03116e-12
5.03181e-12
5.03248e-12
5.03316e-12
5.03381e-12
5.0344e-12
5.03489e-12
5.03522e-12
5.03531e-12
5.03508e-12
5.03439e-12
5.0331e-12
5.03102e-12
5.02793e-12
5.02359e-12
5.01772e-12
5.01007e-12
5.00049e-12
4.99027e-12
5.02739e-12
9.9359e-12
9.86524e-12
9.8856e-12
9.90457e-12
9.91971e-12
9.93134e-12
9.93996e-12
9.94608e-12
9.95021e-12
9.95277e-12
9.95414e-12
9.95461e-12
9.95443e-12
9.95378e-12
9.95282e-12
9.95166e-12
9.95038e-12
9.94905e-12
9.94773e-12
9.94644e-12
9.94523e-12
9.9441e-12
9.94308e-12
9.94217e-12
9.94138e-12
9.94072e-12
9.94019e-12
9.93979e-12
9.93952e-12
9.93939e-12
9.93939e-12
9.93952e-12
9.93979e-12
9.94019e-12
9.94072e-12
9.94138e-12
9.94217e-12
9.94308e-12
9.9441e-12
9.94523e-12
9.94644e-12
9.94773e-12
9.94905e-12
9.95038e-12
9.95166e-12
9.95282e-12
9.95378e-12
9.95443e-12
9.95461e-12
9.95414e-12
9.95277e-12
9.95021e-12
9.94608e-12
9.93996e-12
9.93134e-12
9.91971e-12
9.90457e-12
9.8856e-12
9.86524e-12
9.9359e-12
1.96591e-11
1.9525e-11
1.95656e-11
1.96032e-11
1.96332e-11
1.96563e-11
1.96734e-11
1.96856e-11
1.96938e-11
1.96989e-11
1.97016e-11
1.97026e-11
1.97022e-11
1.9701e-11
1.96991e-11
1.96968e-11
1.96942e-11
1.96916e-11
1.9689e-11
1.96865e-11
1.96841e-11
1.96818e-11
1.96798e-11
1.9678e-11
1.96765e-11
1.96751e-11
1.96741e-11
1.96733e-11
1.96728e-11
1.96725e-11
1.96725e-11
1.96728e-11
1.96733e-11
1.96741e-11
1.96751e-11
1.96765e-11
1.9678e-11
1.96798e-11
1.96818e-11
1.96841e-11
1.96865e-11
1.9689e-11
1.96916e-11
1.96942e-11
1.96968e-11
1.96991e-11
1.9701e-11
1.97022e-11
1.97026e-11
1.97016e-11
1.96989e-11
1.96938e-11
1.96856e-11
1.96734e-11
1.96563e-11
1.96332e-11
1.96032e-11
1.95656e-11
1.9525e-11
1.96591e-11
3.8955e-11
3.87014e-11
3.87826e-11
3.88573e-11
3.8917e-11
3.89629e-11
3.89969e-11
3.90211e-11
3.90375e-11
3.90477e-11
3.90532e-11
3.90551e-11
3.90545e-11
3.9052e-11
3.90483e-11
3.90437e-11
3.90388e-11
3.90336e-11
3.90284e-11
3.90234e-11
3.90186e-11
3.90142e-11
3.90102e-11
3.90067e-11
3.90036e-11
3.9001e-11
3.89989e-11
3.89974e-11
3.89963e-11
3.89958e-11
3.89958e-11
3.89963e-11
3.89974e-11
3.89989e-11
3.9001e-11
3.90036e-11
3.90067e-11
3.90102e-11
3.90142e-11
3.90186e-11
3.90234e-11
3.90284e-11
3.90336e-11
3.90388e-11
3.90437e-11
3.90483e-11
3.9052e-11
3.90545e-11
3.90551e-11
3.90532e-11
3.90477e-11
3.90375e-11
3.90211e-11
3.89969e-11
3.89629e-11
3.8917e-11
3.88573e-11
3.87826e-11
3.87014e-11
3.8955e-11
7.7364e-11
7.68868e-11
7.70496e-11
7.71985e-11
7.73174e-11
7.74089e-11
7.74768e-11
7.75252e-11
7.75579e-11
7.75784e-11
7.75895e-11
7.75935e-11
7.75924e-11
7.75876e-11
7.75803e-11
7.75713e-11
7.75615e-11
7.75513e-11
7.7541e-11
7.75311e-11
7.75217e-11
7.7513e-11
7.75051e-11
7.7498e-11
7.74919e-11
7.74868e-11
7.74827e-11
7.74796e-11
7.74775e-11
7.74764e-11
7.74764e-11
7.74775e-11
7.74796e-11
7.74827e-11
7.74868e-11
7.74919e-11
7.7498e-11
7.75051e-11
7.7513e-11
7.75217e-11
7.75311e-11
7.7541e-11
7.75513e-11
7.75615e-11
7.75713e-11
7.75803e-11
7.75876e-11
7.75924e-11
7.75935e-11
7.75895e-11
7.75784e-11
7.75579e-11
7.75252e-11
7.74768e-11
7.74089e-11
7.73174e-11
7.71985e-11
7.70496e-11
7.68868e-11
7.7364e-11
1.54266e-10
1.53374e-10
1.53703e-10
1.54001e-10
1.5424e-10
1.54423e-10
1.5456e-10
1.54657e-10
1.54723e-10
1.54765e-10
1.54788e-10
1.54796e-10
1.54794e-10
1.54785e-10
1.54771e-10
1.54753e-10
1.54734e-10
1.54714e-10
1.54694e-10
1.54674e-10
1.54655e-10
1.54638e-10
1.54623e-10
1.54609e-10
1.54596e-10
1.54586e-10
1.54578e-10
1.54572e-10
1.54568e-10
1.54566e-10
1.54566e-10
1.54568e-10
1.54572e-10
1.54578e-10
1.54586e-10
1.54596e-10
1.54609e-10
1.54623e-10
1.54638e-10
1.54655e-10
1.54674e-10
1.54694e-10
1.54714e-10
1.54734e-10
1.54753e-10
1.54771e-10
1.54785e-10
1.54794e-10
1.54796e-10
1.54788e-10
1.54765e-10
1.54723e-10
1.54657e-10
1.5456e-10
1.54423e-10
1.5424e-10
1.54001e-10
1.53703e-10
1.53374e-10
1.54266e-10
3.10244e-10
3.08596e-10
3.09266e-10
3.09872e-10
3.10357e-10
3.10731e-10
3.11009e-10
3.11209e-10
3.11346e-10
3.11432e-10
3.11481e-10
3.115e-10
3.11499e-10
3.11482e-10
3.11455e-10
3.11421e-10
3.11383e-10
3.11344e-10
3.11304e-10
3.11265e-10
3.11229e-10
3.11195e-10
3.11164e-10
3.11136e-10
3.11112e-10
3.11092e-10
3.11076e-10
3.11063e-10
3.11055e-10
3.11051e-10
3.11051e-10
3.11055e-10
3.11063e-10
3.11076e-10
3.11092e-10
3.11112e-10
3.11136e-10
3.11164e-10
3.11195e-10
3.11229e-10
3.11265e-10
3.11304e-10
3.11344e-10
3.11383e-10
3.11421e-10
3.11455e-10
3.11482e-10
3.11499e-10
3.115e-10
3.11481e-10
3.11432e-10
3.11346e-10
3.11209e-10
3.11009e-10
3.10731e-10
3.10357e-10
3.09872e-10
3.09266e-10
3.08596e-10
3.10244e-10
6.36302e-10
6.33325e-10
6.34738e-10
6.36006e-10
6.37025e-10
6.37814e-10
6.38406e-10
6.38834e-10
6.39131e-10
6.39323e-10
6.39435e-10
6.39486e-10
6.39493e-10
6.39467e-10
6.39419e-10
6.39356e-10
6.39285e-10
6.39209e-10
6.39132e-10
6.39057e-10
6.38985e-10
6.38918e-10
6.38857e-10
6.38802e-10
6.38755e-10
6.38715e-10
6.38683e-10
6.38659e-10
6.38643e-10
6.38635e-10
6.38635e-10
6.38643e-10
6.38659e-10
6.38683e-10
6.38715e-10
6.38755e-10
6.38802e-10
6.38857e-10
6.38918e-10
6.38985e-10
6.39057e-10
6.39132e-10
6.39209e-10
6.39285e-10
6.39356e-10
6.39419e-10
6.39467e-10
6.39493e-10
6.39486e-10
6.39435e-10
6.39323e-10
6.39131e-10
6.38834e-10
6.38406e-10
6.37814e-10
6.37025e-10
6.36006e-10
6.34738e-10
6.33325e-10
6.36302e-10
1.36606e-09
1.361e-09
1.3642e-09
1.36706e-09
1.36937e-09
1.37118e-09
1.37256e-09
1.37357e-09
1.37429e-09
1.37477e-09
1.37507e-09
1.37524e-09
1.3753e-09
1.37529e-09
1.37523e-09
1.37513e-09
1.375e-09
1.37487e-09
1.37472e-09
1.37458e-09
1.37445e-09
1.37432e-09
1.3742e-09
1.37409e-09
1.374e-09
1.37392e-09
1.37386e-09
1.37381e-09
1.37378e-09
1.37377e-09
1.37377e-09
1.37378e-09
1.37381e-09
1.37386e-09
1.37392e-09
1.374e-09
1.37409e-09
1.3742e-09
1.37432e-09
1.37445e-09
1.37458e-09
1.37472e-09
1.37487e-09
1.375e-09
1.37513e-09
1.37523e-09
1.37529e-09
1.3753e-09
1.37524e-09
1.37507e-09
1.37477e-09
1.37429e-09
1.37357e-09
1.37256e-09
1.37118e-09
1.36937e-09
1.36706e-09
1.3642e-09
1.361e-09
1.36606e-09
3.23361e-09
3.22659e-09
3.23497e-09
3.24243e-09
3.24855e-09
3.25341e-09
3.25719e-09
3.26004e-09
3.26215e-09
3.26366e-09
3.26469e-09
3.26536e-09
3.26575e-09
3.26593e-09
3.26596e-09
3.26588e-09
3.26573e-09
3.26554e-09
3.26531e-09
3.26507e-09
3.26483e-09
3.2646e-09
3.26439e-09
3.26419e-09
3.26402e-09
3.26387e-09
3.26375e-09
3.26366e-09
3.2636e-09
3.26357e-09
3.26357e-09
3.2636e-09
3.26366e-09
3.26375e-09
3.26387e-09
3.26402e-09
3.26419e-09
3.26439e-09
3.2646e-09
3.26483e-09
3.26507e-09
3.26531e-09
3.26554e-09
3.26573e-09
3.26588e-09
3.26596e-09
3.26593e-09
3.26575e-09
3.26536e-09
3.26469e-09
3.26366e-09
3.26215e-09
3.26004e-09
3.25719e-09
3.25341e-09
3.24855e-09
3.24243e-09
3.23497e-09
3.22659e-09
3.23361e-09
9.06213e-09
9.06105e-09
9.08821e-09
9.11235e-09
9.13247e-09
9.14878e-09
9.16173e-09
9.17183e-09
9.17957e-09
9.18539e-09
9.18968e-09
9.19277e-09
9.19492e-09
9.19636e-09
9.19726e-09
9.19775e-09
9.19795e-09
9.19795e-09
9.19779e-09
9.19755e-09
9.19725e-09
9.19692e-09
9.1966e-09
9.19628e-09
9.196e-09
9.19575e-09
9.19554e-09
9.19538e-09
9.19527e-09
9.19522e-09
9.19522e-09
9.19527e-09
9.19538e-09
9.19554e-09
9.19575e-09
9.196e-09
9.19628e-09
9.1966e-09
9.19692e-09
9.19725e-09
9.19755e-09
9.19779e-09
9.19795e-09
9.19795e-09
9.19775e-09
9.19726e-09
9.19636e-09
9.19492e-09
9.19277e-09
9.18968e-09
9.18539e-09
9.17957e-09
9.17183e-09
9.16173e-09
9.14878e-09
9.13247e-09
9.11235e-09
9.08821e-09
9.06105e-09
9.06213e-09
3.11871e-08
3.12449e-08
3.13525e-08
3.14482e-08
3.15289e-08
3.15953e-08
3.16488e-08
3.16915e-08
3.17249e-08
3.17509e-08
3.17708e-08
3.17859e-08
3.17972e-08
3.18055e-08
3.18115e-08
3.18158e-08
3.18188e-08
3.18207e-08
3.18219e-08
3.18226e-08
3.18229e-08
3.1823e-08
3.18228e-08
3.18226e-08
3.18223e-08
3.1822e-08
3.18218e-08
3.18216e-08
3.18214e-08
3.18214e-08
3.18214e-08
3.18214e-08
3.18216e-08
3.18218e-08
3.1822e-08
3.18223e-08
3.18226e-08
3.18228e-08
3.1823e-08
3.18229e-08
3.18226e-08
3.18219e-08
3.18207e-08
3.18188e-08
3.18158e-08
3.18115e-08
3.18055e-08
3.17972e-08
3.17859e-08
3.17708e-08
3.17509e-08
3.17249e-08
3.16915e-08
3.16488e-08
3.15953e-08
3.15289e-08
3.14482e-08
3.13525e-08
3.12449e-08
3.11871e-08
1.25966e-07
1.26365e-07
1.26843e-07
1.27268e-07
1.27628e-07
1.27927e-07
1.2817e-07
1.28365e-07
1.2852e-07
1.28643e-07
1.28738e-07
1.28812e-07
1.28868e-07
1.28912e-07
1.28944e-07
1.28969e-07
1.28987e-07
1.29001e-07
1.29011e-07
1.29018e-07
1.29023e-07
1.29026e-07
1.29028e-07
1.2903e-07
1.29031e-07
1.29031e-07
1.29031e-07
1.29031e-07
1.29032e-07
1.29032e-07
1.29032e-07
1.29032e-07
1.29031e-07
1.29031e-07
1.29031e-07
1.29031e-07
1.2903e-07
1.29028e-07
1.29026e-07
1.29023e-07
1.29018e-07
1.29011e-07
1.29001e-07
1.28987e-07
1.28969e-07
1.28944e-07
1.28912e-07
1.28868e-07
1.28812e-07
1.28738e-07
1.28643e-07
1.2852e-07
1.28365e-07
1.2817e-07
1.27927e-07
1.27628e-07
1.27268e-07
1.26843e-07
1.26365e-07
1.25966e-07
5.47907e-07
5.50004e-07
5.52187e-07
5.54127e-07
5.55777e-07
5.57145e-07
5.58263e-07
5.59164e-07
5.59883e-07
5.60453e-07
5.609e-07
5.61249e-07
5.6152e-07
5.61729e-07
5.6189e-07
5.62014e-07
5.62108e-07
5.62179e-07
5.62233e-07
5.62273e-07
5.62303e-07
5.62325e-07
5.62342e-07
5.62353e-07
5.62362e-07
5.62368e-07
5.62372e-07
5.62375e-07
5.62376e-07
5.62377e-07
5.62377e-07
5.62376e-07
5.62375e-07
5.62372e-07
5.62368e-07
5.62362e-07
5.62353e-07
5.62342e-07
5.62325e-07
5.62303e-07
5.62273e-07
5.62233e-07
5.62179e-07
5.62108e-07
5.62014e-07
5.6189e-07
5.61729e-07
5.6152e-07
5.61249e-07
5.609e-07
5.60453e-07
5.59883e-07
5.59164e-07
5.58263e-07
5.57145e-07
5.55777e-07
5.54127e-07
5.52187e-07
5.50004e-07
5.47907e-07
2.39428e-06
2.4041e-06
2.41379e-06
2.4224e-06
2.42972e-06
2.4358e-06
2.44076e-06
2.44477e-06
2.44797e-06
2.45051e-06
2.45251e-06
2.45408e-06
2.4553e-06
2.45625e-06
2.45698e-06
2.45755e-06
2.45798e-06
2.45831e-06
2.45857e-06
2.45876e-06
2.45891e-06
2.45902e-06
2.4591e-06
2.45916e-06
2.45921e-06
2.45924e-06
2.45926e-06
2.45928e-06
2.45929e-06
2.4593e-06
2.4593e-06
2.45929e-06
2.45928e-06
2.45926e-06
2.45924e-06
2.45921e-06
2.45916e-06
2.4591e-06
2.45902e-06
2.45891e-06
2.45876e-06
2.45857e-06
2.45831e-06
2.45798e-06
2.45755e-06
2.45698e-06
2.45625e-06
2.4553e-06
2.45408e-06
2.45251e-06
2.45051e-06
2.44797e-06
2.44477e-06
2.44076e-06
2.4358e-06
2.42972e-06
2.4224e-06
2.41379e-06
2.4041e-06
2.39428e-06
1.00692e-05
1.01112e-05
1.01517e-05
1.01877e-05
1.02182e-05
1.02435e-05
1.02642e-05
1.02809e-05
1.02943e-05
1.03049e-05
1.03132e-05
1.03198e-05
1.03249e-05
1.03288e-05
1.03319e-05
1.03343e-05
1.03361e-05
1.03375e-05
1.03386e-05
1.03394e-05
1.03401e-05
1.03406e-05
1.03409e-05
1.03412e-05
1.03414e-05
1.03415e-05
1.03417e-05
1.03417e-05
1.03418e-05
1.03418e-05
1.03418e-05
1.03418e-05
1.03417e-05
1.03417e-05
1.03415e-05
1.03414e-05
1.03412e-05
1.03409e-05
1.03406e-05
1.03401e-05
1.03394e-05
1.03386e-05
1.03375e-05
1.03361e-05
1.03343e-05
1.03319e-05
1.03288e-05
1.03249e-05
1.03198e-05
1.03132e-05
1.03049e-05
1.02943e-05
1.02809e-05
1.02642e-05
1.02435e-05
1.02182e-05
1.01877e-05
1.01517e-05
1.01112e-05
1.00692e-05
3.96561e-05
3.98192e-05
3.9975e-05
4.01128e-05
4.02297e-05
4.03266e-05
4.04058e-05
4.04697e-05
4.05207e-05
4.05612e-05
4.05931e-05
4.06181e-05
4.06377e-05
4.06529e-05
4.06646e-05
4.06738e-05
4.06808e-05
4.06862e-05
4.06904e-05
4.06936e-05
4.06961e-05
4.06979e-05
4.06994e-05
4.07004e-05
4.07012e-05
4.07018e-05
4.07022e-05
4.07025e-05
4.07027e-05
4.07028e-05
4.07028e-05
4.07027e-05
4.07025e-05
4.07022e-05
4.07018e-05
4.07012e-05
4.07004e-05
4.06994e-05
4.06979e-05
4.06961e-05
4.06936e-05
4.06904e-05
4.06862e-05
4.06808e-05
4.06738e-05
4.06646e-05
4.06529e-05
4.06377e-05
4.06181e-05
4.05931e-05
4.05612e-05
4.05207e-05
4.04697e-05
4.04058e-05
4.03266e-05
4.02297e-05
4.01128e-05
3.9975e-05
3.98192e-05
3.96561e-05
0.000143273
0.000143842
0.000144381
0.000144856
0.000145259
0.000145592
0.000145865
0.000146084
0.00014626
0.000146399
0.000146509
0.000146595
0.000146662
0.000146714
0.000146755
0.000146786
0.00014681
0.000146829
0.000146843
0.000146854
0.000146863
0.000146869
0.000146874
0.000146878
0.000146881
0.000146883
0.000146884
0.000146885
0.000146886
0.000146886
0.000146886
0.000146886
0.000146885
0.000146884
0.000146883
0.000146881
0.000146878
0.000146874
0.000146869
0.000146863
0.000146854
0.000146843
0.000146829
0.00014681
0.000146786
0.000146755
0.000146714
0.000146662
0.000146595
0.000146509
0.000146399
0.00014626
0.000146084
0.000145865
0.000145592
0.000145259
0.000144856
0.000144381
0.000143842
0.000143273
0.00046628
0.000468027
0.00046967
0.000471115
0.000472338
0.000473351
0.000474177
0.000474843
0.000475374
0.000475796
0.000476128
0.000476388
0.000476592
0.00047675
0.000476873
0.000476968
0.000477041
0.000477098
0.000477142
0.000477175
0.000477201
0.000477221
0.000477236
0.000477247
0.000477256
0.000477262
0.000477267
0.00047727
0.000477272
0.000477273
0.000477273
0.000477272
0.00047727
0.000477267
0.000477262
0.000477256
0.000477247
0.000477236
0.000477221
0.000477201
0.000477175
0.000477142
0.000477098
0.000477041
0.000476968
0.000476873
0.00047675
0.000476592
0.000476388
0.000476128
0.000475796
0.000475374
0.000474843
0.000474177
0.000473351
0.000472338
0.000471115
0.00046967
0.000468027
0.00046628
0.00134389
0.00134852
0.00135284
0.00135663
0.00135984
0.00136249
0.00136465
0.0013664
0.00136779
0.00136889
0.00136976
0.00137044
0.00137097
0.00137138
0.0013717
0.00137195
0.00137215
0.00137229
0.00137241
0.0013725
0.00137256
0.00137262
0.00137266
0.00137269
0.00137271
0.00137272
0.00137274
0.00137275
0.00137275
0.00137275
0.00137275
0.00137275
0.00137275
0.00137274
0.00137272
0.00137271
0.00137269
0.00137266
0.00137262
0.00137256
0.0013725
0.00137241
0.00137229
0.00137215
0.00137195
0.0013717
0.00137138
0.00137097
0.00137044
0.00136976
0.00136889
0.00136779
0.0013664
0.00136465
0.00136249
0.00135984
0.00135663
0.00135284
0.00134852
0.00134389
0.00337991
0.00339033
0.00339997
0.0034084
0.00341551
0.0034214
0.00342619
0.00343005
0.00343313
0.00343558
0.0034375
0.00343901
0.00344019
0.00344111
0.00344182
0.00344237
0.0034428
0.00344313
0.00344338
0.00344358
0.00344373
0.00344384
0.00344393
0.003444
0.00344405
0.00344409
0.00344411
0.00344413
0.00344414
0.00344415
0.00344415
0.00344414
0.00344413
0.00344411
0.00344409
0.00344405
0.003444
0.00344393
0.00344384
0.00344373
0.00344358
0.00344338
0.00344313
0.0034428
0.00344237
0.00344182
0.00344111
0.00344019
0.00343901
0.0034375
0.00343558
0.00343313
0.00343005
0.00342619
0.0034214
0.00341551
0.0034084
0.00339997
0.00339033
0.00337991
0.00734895
0.0073686
0.0073866
0.00740229
0.00741552
0.00742645
0.00743535
0.00744253
0.00744825
0.00745279
0.00745637
0.00745917
0.00746136
0.00746307
0.00746439
0.00746542
0.00746622
0.00746683
0.00746731
0.00746767
0.00746796
0.00746817
0.00746834
0.00746846
0.00746856
0.00746863
0.00746868
0.00746871
0.00746873
0.00746874
0.00746874
0.00746873
0.00746871
0.00746868
0.00746863
0.00746856
0.00746846
0.00746834
0.00746817
0.00746796
0.00746767
0.00746731
0.00746683
0.00746622
0.00746542
0.00746439
0.00746307
0.00746136
0.00745917
0.00745637
0.00745279
0.00744825
0.00744253
0.00743535
0.00742645
0.00741552
0.00740229
0.0073866
0.0073686
0.00734895
0.0138156
0.0138468
0.013875
0.0138996
0.0139203
0.0139374
0.0139513
0.0139625
0.0139714
0.0139785
0.0139841
0.0139885
0.0139919
0.0139946
0.0139967
0.0139983
0.0139996
0.0140005
0.0140013
0.0140019
0.0140023
0.0140026
0.0140029
0.0140031
0.0140032
0.0140034
0.0140034
0.0140035
0.0140035
0.0140035
0.0140035
0.0140035
0.0140035
0.0140034
0.0140034
0.0140032
0.0140031
0.0140029
0.0140026
0.0140023
0.0140019
0.0140013
0.0140005
0.0139996
0.0139983
0.0139967
0.0139946
0.0139919
0.0139885
0.0139841
0.0139785
0.0139714
0.0139625
0.0139513
0.0139374
0.0139203
0.0138996
0.013875
0.0138468
0.0138156
0.0227227
0.0227653
0.0228036
0.0228367
0.0228645
0.0228875
0.0229062
0.0229213
0.0229334
0.0229429
0.0229505
0.0229564
0.022961
0.0229646
0.0229674
0.0229696
0.0229713
0.0229726
0.0229736
0.0229744
0.022975
0.0229755
0.0229759
0.0229761
0.0229763
0.0229765
0.0229766
0.0229767
0.0229767
0.0229767
0.0229767
0.0229767
0.0229767
0.0229766
0.0229765
0.0229763
0.0229761
0.0229759
0.0229755
0.022975
0.0229744
0.0229736
0.0229726
0.0229713
0.0229696
0.0229674
0.0229646
0.022961
0.0229564
0.0229505
0.0229429
0.0229334
0.0229213
0.0229062
0.0228875
0.0228645
0.0228367
0.0228036
0.0227653
0.0227227
0.0334085
0.0334607
0.0335069
0.0335468
0.0335804
0.033608
0.0336306
0.0336488
0.0336633
0.0336749
0.033684
0.0336912
0.0336968
0.0337011
0.0337046
0.0337072
0.0337093
0.0337109
0.0337121
0.0337131
0.0337138
0.0337144
0.0337148
0.0337151
0.0337154
0.0337156
0.0337157
0.0337158
0.0337159
0.0337159
0.0337159
0.0337159
0.0337158
0.0337157
0.0337156
0.0337154
0.0337151
0.0337148
0.0337144
0.0337138
0.0337131
0.0337121
0.0337109
0.0337093
0.0337072
0.0337046
0.0337011
0.0336968
0.0336912
0.033684
0.0336749
0.0336633
0.0336488
0.0336306
0.033608
0.0335804
0.0335468
0.0335069
0.0334607
0.0334085
0.0450534
0.045113
0.0451653
0.0452103
0.045248
0.0452791
0.0453046
0.0453251
0.0453415
0.0453545
0.0453648
0.0453729
0.0453793
0.0453842
0.0453881
0.0453911
0.0453935
0.0453953
0.0453967
0.0453978
0.0453986
0.0453993
0.0453998
0.0454002
0.0454005
0.0454007
0.0454008
0.0454009
0.045401
0.0454011
0.0454011
0.045401
0.0454009
0.0454008
0.0454007
0.0454005
0.0454002
0.0453998
0.0453993
0.0453986
0.0453978
0.0453967
0.0453953
0.0453935
0.0453911
0.0453881
0.0453842
0.0453793
0.0453729
0.0453648
0.0453545
0.0453415
0.0453251
0.0453046
0.0452791
0.045248
0.0452103
0.0451653
0.045113
0.0450534
0.0570791
0.0571448
0.0572019
0.0572508
0.0572919
0.0573258
0.0573535
0.0573758
0.0573937
0.057408
0.0574193
0.0574281
0.0574351
0.0574406
0.0574448
0.0574482
0.0574508
0.0574528
0.0574543
0.0574555
0.0574565
0.0574572
0.0574578
0.0574582
0.0574585
0.0574587
0.0574589
0.057459
0.0574591
0.0574592
0.0574592
0.0574591
0.057459
0.0574589
0.0574587
0.0574585
0.0574582
0.0574578
0.0574572
0.0574565
0.0574555
0.0574543
0.0574528
0.0574508
0.0574482
0.0574448
0.0574406
0.0574351
0.0574281
0.0574193
0.057408
0.0573937
0.0573758
0.0573535
0.0573258
0.0572919
0.0572508
0.0572019
0.0571448
0.0570791
0.069225
0.0692962
0.0693578
0.0694103
0.0694544
0.0694908
0.0695206
0.0695447
0.069564
0.0695794
0.0695915
0.0696011
0.0696087
0.0696146
0.0696193
0.0696229
0.0696257
0.0696279
0.0696296
0.0696309
0.069632
0.0696327
0.0696334
0.0696338
0.0696342
0.0696345
0.0696346
0.0696348
0.0696349
0.0696349
0.0696349
0.0696349
0.0696348
0.0696346
0.0696345
0.0696342
0.0696338
0.0696334
0.0696327
0.069632
0.0696309
0.0696296
0.0696279
0.0696257
0.0696229
0.0696193
0.0696146
0.0696087
0.0696011
0.0695915
0.0695794
0.069564
0.0695447
0.0695206
0.0694908
0.0694544
0.0694103
0.0693578
0.0692962
0.069225
0.0814299
0.0815066
0.0815724
0.0816286
0.0816757
0.0817147
0.0817466
0.0817724
0.0817931
0.0818096
0.0818227
0.081833
0.0818412
0.0818476
0.0818526
0.0818565
0.0818596
0.081862
0.0818638
0.0818653
0.0818664
0.0818673
0.081868
0.0818685
0.0818689
0.0818692
0.0818694
0.0818695
0.0818696
0.0818697
0.0818697
0.0818696
0.0818695
0.0818694
0.0818692
0.0818689
0.0818685
0.081868
0.0818673
0.0818664
0.0818653
0.0818638
0.081862
0.0818596
0.0818565
0.0818526
0.0818476
0.0818412
0.081833
0.0818227
0.0818096
0.0817931
0.0817724
0.0817466
0.0817147
0.0816757
0.0816286
0.0815724
0.0815066
0.0814299
0.0937072
0.0937894
0.0938597
0.0939195
0.0939697
0.0940113
0.0940453
0.0940729
0.0940951
0.0941128
0.0941269
0.094138
0.0941468
0.0941537
0.0941591
0.0941634
0.0941667
0.0941693
0.0941713
0.0941729