/*--------------------------------*- C++ -*----------------------------------*\
| =========                 |                                                 |
| \\      /  F ield         | foam-extend: Open Source CFD                    |
|  \\    /   O peration     | Version:     4.0                                |
|   \\  /    A nd           | Web:         http://www.foam-extend.org         |
|    \\/     M anipulation  |                                                 |
\*---------------------------------------------------------------------------*/
FoamFile
{
    version     2.0;
    format      ascii;
    class       volScalarField;
    location    "1380";
    object      psiE;
}
// * * * * * * * * * * * * * * * * * * * * * * * * * * * * * * * * * * * * * //

dimensions      [0 0 0 0 0 0 0];

internalField   nonuniform List<scalar> 
6960
(
0.346985
0.346997
0.346998
0.346997
0.346995
0.346994
0.346993
0.346992
0.346991
0.34699
0.34699
0.346989
0.346989
0.346988
0.346988
0.346987
0.346987
0.346987
0.346987
0.346987
0.346986
0.346986
0.346986
0.346986
0.346986
0.346986
0.346986
0.346986
0.346986
0.346986
0.346986
0.346986
0.346986
0.346986
0.346986
0.346986
0.346986
0.346986
0.346986
0.346986
0.346987
0.346987
0.346987
0.346987
0.346987
0.346988
0.346988
0.346989
0.346989
0.34699
0.34699
0.346991
0.346992
0.346993
0.346994
0.346995
0.346997
0.346998
0.346997
0.346985
0.864138
0.864175
0.864176
0.86417
0.864164
0.864158
0.864154
0.86415
0.864146
0.864143
0.864141
0.864139
0.864137
0.864135
0.864134
0.864133
0.864132
0.864131
0.86413
0.864129
0.864128
0.864128
0.864127
0.864127
0.864127
0.864126
0.864126
0.864126
0.864126
0.864126
0.864126
0.864126
0.864126
0.864126
0.864126
0.864127
0.864127
0.864127
0.864128
0.864128
0.864129
0.86413
0.864131
0.864132
0.864133
0.864134
0.864135
0.864137
0.864139
0.864141
0.864143
0.864146
0.86415
0.864154
0.864158
0.864164
0.86417
0.864176
0.864175
0.864138
1.30436
1.30441
1.30441
1.30439
1.30438
1.30437
1.30436
1.30435
1.30435
1.30434
1.30434
1.30433
1.30433
1.30433
1.30432
1.30432
1.30432
1.30432
1.30431
1.30431
1.30431
1.30431
1.30431
1.30431
1.30431
1.30431
1.30431
1.30431
1.30431
1.30431
1.30431
1.30431
1.30431
1.30431
1.30431
1.30431
1.30431
1.30431
1.30431
1.30431
1.30431
1.30431
1.30432
1.30432
1.30432
1.30432
1.30433
1.30433
1.30433
1.30434
1.30434
1.30435
1.30435
1.30436
1.30437
1.30438
1.30439
1.30441
1.30441
1.30436
1.68866
1.68872
1.6887
1.68868
1.68867
1.68865
1.68863
1.68862
1.68861
1.6886
1.6886
1.68859
1.68858
1.68858
1.68857
1.68857
1.68857
1.68856
1.68856
1.68856
1.68856
1.68856
1.68856
1.68855
1.68855
1.68855
1.68855
1.68855
1.68855
1.68855
1.68855
1.68855
1.68855
1.68855
1.68855
1.68855
1.68855
1.68856
1.68856
1.68856
1.68856
1.68856
1.68856
1.68857
1.68857
1.68857
1.68858
1.68858
1.68859
1.6886
1.6886
1.68861
1.68862
1.68863
1.68865
1.68867
1.68868
1.6887
1.68872
1.68866
2.02188
2.02191
2.02189
2.02186
2.02184
2.02181
2.02179
2.02178
2.02176
2.02175
2.02174
2.02173
2.02172
2.02172
2.02171
2.02171
2.0217
2.0217
2.02169
2.02169
2.02169
2.02169
2.02168
2.02168
2.02168
2.02168
2.02168
2.02168
2.02168
2.02168
2.02168
2.02168
2.02168
2.02168
2.02168
2.02168
2.02168
2.02168
2.02169
2.02169
2.02169
2.02169
2.0217
2.0217
2.02171
2.02171
2.02172
2.02172
2.02173
2.02174
2.02175
2.02176
2.02178
2.02179
2.02181
2.02184
2.02186
2.02189
2.02191
2.02188
2.3058
2.3058
2.30577
2.30573
2.30569
2.30566
2.30564
2.30562
2.3056
2.30559
2.30557
2.30556
2.30555
2.30554
2.30554
2.30553
2.30552
2.30552
2.30552
2.30551
2.30551
2.30551
2.3055
2.3055
2.3055
2.3055
2.3055
2.3055
2.3055
2.3055
2.3055
2.3055
2.3055
2.3055
2.3055
2.3055
2.3055
2.3055
2.30551
2.30551
2.30551
2.30552
2.30552
2.30552
2.30553
2.30554
2.30554
2.30555
2.30556
2.30557
2.30559
2.3056
2.30562
2.30564
2.30566
2.30569
2.30573
2.30577
2.3058
2.3058
2.54361
2.54358
2.54353
2.54348
2.54344
2.5434
2.54337
2.54335
2.54333
2.54331
2.54329
2.54328
2.54327
2.54326
2.54325
2.54324
2.54324
2.54323
2.54323
2.54322
2.54322
2.54322
2.54321
2.54321
2.54321
2.54321
2.54321
2.5432
2.5432
2.5432
2.5432
2.5432
2.5432
2.54321
2.54321
2.54321
2.54321
2.54321
2.54322
2.54322
2.54322
2.54323
2.54323
2.54324
2.54324
2.54325
2.54326
2.54327
2.54328
2.54329
2.54331
2.54333
2.54335
2.54337
2.5434
2.54344
2.54348
2.54353
2.54358
2.54361
2.74094
2.74087
2.7408
2.74075
2.7407
2.74066
2.74063
2.7406
2.74057
2.74055
2.74054
2.74052
2.74051
2.7405
2.74049
2.74048
2.74047
2.74047
2.74046
2.74046
2.74045
2.74045
2.74044
2.74044
2.74044
2.74044
2.74044
2.74044
2.74043
2.74043
2.74043
2.74043
2.74044
2.74044
2.74044
2.74044
2.74044
2.74044
2.74045
2.74045
2.74046
2.74046
2.74047
2.74047
2.74048
2.74049
2.7405
2.74051
2.74052
2.74054
2.74055
2.74057
2.7406
2.74063
2.74066
2.7407
2.74075
2.7408
2.74087
2.74094
2.90507
2.90496
2.90488
2.90482
2.90477
2.90472
2.90469
2.90466
2.90463
2.90461
2.90459
2.90458
2.90456
2.90455
2.90454
2.90453
2.90452
2.90451
2.90451
2.9045
2.9045
2.90449
2.90449
2.90449
2.90449
2.90448
2.90448
2.90448
2.90448
2.90448
2.90448
2.90448
2.90448
2.90448
2.90448
2.90449
2.90449
2.90449
2.90449
2.9045
2.9045
2.90451
2.90451
2.90452
2.90453
2.90454
2.90455
2.90456
2.90458
2.90459
2.90461
2.90463
2.90466
2.90469
2.90472
2.90477
2.90482
2.90488
2.90496
2.90507
3.04351
3.04338
3.04329
3.04323
3.04317
3.04313
3.04309
3.04305
3.04303
3.043
3.04298
3.04297
3.04295
3.04294
3.04293
3.04292
3.04291
3.0429
3.04289
3.04289
3.04288
3.04288
3.04288
3.04287
3.04287
3.04287
3.04287
3.04287
3.04286
3.04286
3.04286
3.04286
3.04287
3.04287
3.04287
3.04287
3.04287
3.04288
3.04288
3.04288
3.04289
3.04289
3.0429
3.04291
3.04292
3.04293
3.04294
3.04295
3.04297
3.04298
3.043
3.04303
3.04305
3.04309
3.04313
3.04317
3.04323
3.04329
3.04338
3.04351
3.16289
3.16273
3.16264
3.16257
3.16251
3.16246
3.16242
3.16239
3.16236
3.16234
3.16232
3.1623
3.16228
3.16227
3.16226
3.16225
3.16224
3.16223
3.16222
3.16222
3.16221
3.16221
3.1622
3.1622
3.1622
3.1622
3.16219
3.16219
3.16219
3.16219
3.16219
3.16219
3.16219
3.16219
3.1622
3.1622
3.1622
3.1622
3.16221
3.16221
3.16222
3.16222
3.16223
3.16224
3.16225
3.16226
3.16227
3.16228
3.1623
3.16232
3.16234
3.16236
3.16239
3.16242
3.16246
3.16251
3.16257
3.16264
3.16273
3.16289
3.26836
3.26819
3.2681
3.26802
3.26796
3.26791
3.26787
3.26784
3.26781
3.26778
3.26776
3.26774
3.26773
3.26771
3.2677
3.26769
3.26768
3.26767
3.26767
3.26766
3.26765
3.26765
3.26765
3.26764
3.26764
3.26764
3.26764
3.26763
3.26763
3.26763
3.26763
3.26763
3.26763
3.26764
3.26764
3.26764
3.26764
3.26765
3.26765
3.26765
3.26766
3.26767
3.26767
3.26768
3.26769
3.2677
3.26771
3.26773
3.26774
3.26776
3.26778
3.26781
3.26784
3.26787
3.26791
3.26796
3.26802
3.2681
3.26819
3.26836
3.3637
3.36353
3.36342
3.36335
3.36329
3.36324
3.3632
3.36316
3.36313
3.3631
3.36308
3.36306
3.36305
3.36303
3.36302
3.36301
3.363
3.36299
3.36298
3.36298
3.36297
3.36297
3.36296
3.36296
3.36296
3.36295
3.36295
3.36295
3.36295
3.36295
3.36295
3.36295
3.36295
3.36295
3.36295
3.36296
3.36296
3.36296
3.36297
3.36297
3.36298
3.36298
3.36299
3.363
3.36301
3.36302
3.36303
3.36305
3.36306
3.36308
3.3631
3.36313
3.36316
3.3632
3.36324
3.36329
3.36335
3.36342
3.36353
3.3637
3.45155
3.45137
3.45126
3.45119
3.45112
3.45107
3.45103
3.45099
3.45096
3.45094
3.45091
3.45089
3.45088
3.45086
3.45085
3.45084
3.45083
3.45082
3.45081
3.45081
3.4508
3.4508
3.45079
3.45079
3.45079
3.45078
3.45078
3.45078
3.45078
3.45078
3.45078
3.45078
3.45078
3.45078
3.45078
3.45079
3.45079
3.45079
3.4508
3.4508
3.45081
3.45081
3.45082
3.45083
3.45084
3.45085
3.45086
3.45088
3.45089
3.45091
3.45094
3.45096
3.45099
3.45103
3.45107
3.45112
3.45119
3.45126
3.45137
3.45155
3.53374
3.53356
3.53345
3.53337
3.53331
3.53326
3.53321
3.53318
3.53315
3.53312
3.5331
3.53308
3.53306
3.53305
3.53303
3.53302
3.53301
3.533
3.533
3.53299
3.53298
3.53298
3.53297
3.53297
3.53297
3.53297
3.53296
3.53296
3.53296
3.53296
3.53296
3.53296
3.53296
3.53296
3.53297
3.53297
3.53297
3.53297
3.53298
3.53298
3.53299
3.533
3.533
3.53301
3.53302
3.53303
3.53305
3.53306
3.53308
3.5331
3.53312
3.53315
3.53318
3.53321
3.53326
3.53331
3.53337
3.53345
3.53356
3.53374
3.61158
3.6114
3.61129
3.61121
3.61115
3.6111
3.61105
3.61102
3.61099
3.61096
3.61094
3.61092
3.6109
3.61088
3.61087
3.61086
3.61085
3.61084
3.61083
3.61083
3.61082
3.61082
3.61081
3.61081
3.6108
3.6108
3.6108
3.6108
3.6108
3.6108
3.6108
3.6108
3.6108
3.6108
3.6108
3.6108
3.61081
3.61081
3.61082
3.61082
3.61083
3.61083
3.61084
3.61085
3.61086
3.61087
3.61088
3.6109
3.61092
3.61094
3.61096
3.61099
3.61102
3.61105
3.6111
3.61115
3.61121
3.61129
3.6114
3.61158
3.68603
3.68585
3.68574
3.68566
3.6856
3.68555
3.6855
3.68546
3.68543
3.6854
3.68538
3.68536
3.68534
3.68533
3.68532
3.6853
3.68529
3.68528
3.68528
3.68527
3.68526
3.68526
3.68526
3.68525
3.68525
3.68525
3.68524
3.68524
3.68524
3.68524
3.68524
3.68524
3.68524
3.68524
3.68525
3.68525
3.68525
3.68526
3.68526
3.68526
3.68527
3.68528
3.68528
3.68529
3.6853
3.68532
3.68533
3.68534
3.68536
3.68538
3.6854
3.68543
3.68546
3.6855
3.68555
3.6856
3.68566
3.68574
3.68585
3.68603
3.7578
3.75763
3.75751
3.75743
3.75737
3.75732
3.75727
3.75723
3.7572
3.75717
3.75715
3.75713
3.75711
3.7571
3.75708
3.75707
3.75706
3.75705
3.75705
3.75704
3.75703
3.75703
3.75702
3.75702
3.75702
3.75701
3.75701
3.75701
3.75701
3.75701
3.75701
3.75701
3.75701
3.75701
3.75701
3.75702
3.75702
3.75702
3.75703
3.75703
3.75704
3.75705
3.75705
3.75706
3.75707
3.75708
3.7571
3.75711
3.75713
3.75715
3.75717
3.7572
3.75723
3.75727
3.75732
3.75737
3.75743
3.75751
3.75763
3.7578
3.82746
3.82728
3.82717
3.82709
3.82702
3.82697
3.82692
3.82689
3.82685
3.82683
3.8268
3.82678
3.82677
3.82675
3.82674
3.82672
3.82671
3.82671
3.8267
3.82669
3.82668
3.82668
3.82667
3.82667
3.82667
3.82667
3.82666
3.82666
3.82666
3.82666
3.82666
3.82666
3.82666
3.82666
3.82667
3.82667
3.82667
3.82667
3.82668
3.82668
3.82669
3.8267
3.82671
3.82671
3.82672
3.82674
3.82675
3.82677
3.82678
3.8268
3.82683
3.82685
3.82689
3.82692
3.82697
3.82702
3.82709
3.82717
3.82728
3.82746
3.89544
3.89527
3.89515
3.89507
3.89501
3.89495
3.89491
3.89487
3.89484
3.89481
3.89479
3.89477
3.89475
3.89473
3.89472
3.89471
3.8947
3.89469
3.89468
3.89467
3.89467
3.89466
3.89466
3.89465
3.89465
3.89465
3.89465
3.89464
3.89464
3.89464
3.89464
3.89464
3.89464
3.89465
3.89465
3.89465
3.89465
3.89466
3.89466
3.89467
3.89467
3.89468
3.89469
3.8947
3.89471
3.89472
3.89473
3.89475
3.89477
3.89479
3.89481
3.89484
3.89487
3.89491
3.89495
3.89501
3.89507
3.89515
3.89527
3.89544
3.96212
3.96195
3.96184
3.96175
3.96169
3.96163
3.96159
3.96155
3.96152
3.96149
3.96147
3.96145
3.96143
3.96141
3.9614
3.96139
3.96138
3.96137
3.96136
3.96135
3.96135
3.96134
3.96134
3.96133
3.96133
3.96133
3.96132
3.96132
3.96132
3.96132
3.96132
3.96132
3.96132
3.96132
3.96133
3.96133
3.96133
3.96134
3.96134
3.96135
3.96135
3.96136
3.96137
3.96138
3.96139
3.9614
3.96141
3.96143
3.96145
3.96147
3.96149
3.96152
3.96155
3.96159
3.96163
3.96169
3.96175
3.96184
3.96195
3.96212
4.0278
4.02763
4.02752
4.02744
4.02737
4.02732
4.02727
4.02723
4.0272
4.02717
4.02715
4.02713
4.02711
4.02709
4.02708
4.02707
4.02706
4.02705
4.02704
4.02703
4.02703
4.02702
4.02702
4.02701
4.02701
4.02701
4.02701
4.027
4.027
4.027
4.027
4.027
4.027
4.02701
4.02701
4.02701
4.02701
4.02702
4.02702
4.02703
4.02703
4.02704
4.02705
4.02706
4.02707
4.02708
4.02709
4.02711
4.02713
4.02715
4.02717
4.0272
4.02723
4.02727
4.02732
4.02737
4.02744
4.02752
4.02763
4.0278
4.09274
4.09258
4.09247
4.09238
4.09232
4.09226
4.09222
4.09218
4.09215
4.09212
4.09209
4.09207
4.09206
4.09204
4.09203
4.09201
4.092
4.09199
4.09199
4.09198
4.09197
4.09197
4.09196
4.09196
4.09195
4.09195
4.09195
4.09195
4.09195
4.09195
4.09195
4.09195
4.09195
4.09195
4.09195
4.09195
4.09196
4.09196
4.09197
4.09197
4.09198
4.09199
4.09199
4.092
4.09201
4.09203
4.09204
4.09206
4.09207
4.09209
4.09212
4.09215
4.09218
4.09222
4.09226
4.09232
4.09238
4.09247
4.09258
4.09274
4.15717
4.15701
4.1569
4.15682
4.15675
4.1567
4.15665
4.15661
4.15658
4.15655
4.15653
4.15651
4.15649
4.15647
4.15646
4.15645
4.15644
4.15643
4.15642
4.15641
4.1564
4.1564
4.15639
4.15639
4.15639
4.15638
4.15638
4.15638
4.15638
4.15638
4.15638
4.15638
4.15638
4.15638
4.15638
4.15639
4.15639
4.15639
4.1564
4.1564
4.15641
4.15642
4.15643
4.15644
4.15645
4.15646
4.15647
4.15649
4.15651
4.15653
4.15655
4.15658
4.15661
4.15665
4.1567
4.15675
4.15682
4.1569
4.15701
4.15717
4.22129
4.22113
4.22102
4.22094
4.22087
4.22082
4.22077
4.22073
4.2207
4.22067
4.22064
4.22062
4.22061
4.22059
4.22058
4.22056
4.22055
4.22054
4.22053
4.22053
4.22052
4.22052
4.22051
4.22051
4.2205
4.2205
4.2205
4.2205
4.2205
4.2205
4.2205
4.2205
4.2205
4.2205
4.2205
4.2205
4.22051
4.22051
4.22052
4.22052
4.22053
4.22053
4.22054
4.22055
4.22056
4.22058
4.22059
4.22061
4.22062
4.22064
4.22067
4.2207
4.22073
4.22077
4.22082
4.22087
4.22094
4.22102
4.22113
4.22129
4.28526
4.28511
4.285
4.28491
4.28485
4.28479
4.28475
4.28471
4.28468
4.28465
4.28462
4.2846
4.28458
4.28457
4.28455
4.28454
4.28453
4.28452
4.28451
4.2845
4.2845
4.28449
4.28449
4.28448
4.28448
4.28448
4.28448
4.28447
4.28447
4.28447
4.28447
4.28447
4.28447
4.28448
4.28448
4.28448
4.28448
4.28449
4.28449
4.2845
4.2845
4.28451
4.28452
4.28453
4.28454
4.28455
4.28457
4.28458
4.2846
4.28462
4.28465
4.28468
4.28471
4.28475
4.28479
4.28485
4.28491
4.285
4.28511
4.28526
4.34925
4.3491
4.34899
4.34891
4.34884
4.34879
4.34874
4.3487
4.34867
4.34864
4.34862
4.3486
4.34858
4.34856
4.34855
4.34853
4.34852
4.34851
4.34851
4.3485
4.34849
4.34849
4.34848
4.34848
4.34847
4.34847
4.34847
4.34847
4.34847
4.34847
4.34847
4.34847
4.34847
4.34847
4.34847
4.34847
4.34848
4.34848
4.34849
4.34849
4.3485
4.34851
4.34851
4.34852
4.34853
4.34855
4.34856
4.34858
4.3486
4.34862
4.34864
4.34867
4.3487
4.34874
4.34879
4.34884
4.34891
4.34899
4.3491
4.34925
4.41341
4.41326
4.41315
4.41307
4.413
4.41295
4.4129
4.41286
4.41283
4.4128
4.41277
4.41275
4.41273
4.41272
4.4127
4.41269
4.41268
4.41267
4.41266
4.41265
4.41265
4.41264
4.41264
4.41263
4.41263
4.41263
4.41262
4.41262
4.41262
4.41262
4.41262
4.41262
4.41262
4.41262
4.41263
4.41263
4.41263
4.41264
4.41264
4.41265
4.41265
4.41266
4.41267
4.41268
4.41269
4.4127
4.41272
4.41273
4.41275
4.41277
4.4128
4.41283
4.41286
4.4129
4.41295
4.413
4.41307
4.41315
4.41326
4.41341
4.47785
4.47771
4.4776
4.47752
4.47745
4.4774
4.47735
4.47731
4.47728
4.47725
4.47722
4.4772
4.47718
4.47717
4.47715
4.47714
4.47713
4.47712
4.47711
4.4771
4.4771
4.47709
4.47709
4.47708
4.47708
4.47708
4.47707
4.47707
4.47707
4.47707
4.47707
4.47707
4.47707
4.47707
4.47708
4.47708
4.47708
4.47709
4.47709
4.4771
4.4771
4.47711
4.47712
4.47713
4.47714
4.47715
4.47717
4.47718
4.4772
4.47722
4.47725
4.47728
4.47731
4.47735
4.4774
4.47745
4.47752
4.4776
4.47771
4.47785
4.54271
4.54257
4.54246
4.54238
4.54232
4.54226
4.54222
4.54218
4.54214
4.54211
4.54209
4.54207
4.54205
4.54203
4.54202
4.54201
4.54199
4.54198
4.54198
4.54197
4.54196
4.54196
4.54195
4.54195
4.54194
4.54194
4.54194
4.54194
4.54194
4.54194
4.54194
4.54194
4.54194
4.54194
4.54194
4.54194
4.54195
4.54195
4.54196
4.54196
4.54197
4.54198
4.54198
4.54199
4.54201
4.54202
4.54203
4.54205
4.54207
4.54209
4.54211
4.54214
4.54218
4.54222
4.54226
4.54232
4.54238
4.54246
4.54257
4.54271
4.6081
4.60797
4.60786
4.60778
4.60771
4.60766
4.60761
4.60757
4.60754
4.60751
4.60749
4.60746
4.60745
4.60743
4.60741
4.6074
4.60739
4.60738
4.60737
4.60737
4.60736
4.60735
4.60735
4.60734
4.60734
4.60734
4.60734
4.60733
4.60733
4.60733
4.60733
4.60733
4.60733
4.60734
4.60734
4.60734
4.60734
4.60735
4.60735
4.60736
4.60737
4.60737
4.60738
4.60739
4.6074
4.60741
4.60743
4.60745
4.60746
4.60749
4.60751
4.60754
4.60757
4.60761
4.60766
4.60771
4.60778
4.60786
4.60797
4.6081
4.67414
4.67401
4.6739
4.67382
4.67375
4.6737
4.67365
4.67361
4.67358
4.67355
4.67352
4.6735
4.67348
4.67347
4.67345
4.67344
4.67343
4.67342
4.67341
4.6734
4.6734
4.67339
4.67339
4.67338
4.67338
4.67338
4.67337
4.67337
4.67337
4.67337
4.67337
4.67337
4.67337
4.67337
4.67338
4.67338
4.67338
4.67339
4.67339
4.6734
4.6734
4.67341
4.67342
4.67343
4.67344
4.67345
4.67347
4.67348
4.6735
4.67352
4.67355
4.67358
4.67361
4.67365
4.6737
4.67375
4.67382
4.6739
4.67401
4.67414
4.74092
4.74079
4.74068
4.7406
4.74054
4.74048
4.74044
4.7404
4.74036
4.74033
4.74031
4.74029
4.74027
4.74025
4.74024
4.74022
4.74021
4.7402
4.74019
4.74019
4.74018
4.74017
4.74017
4.74016
4.74016
4.74016
4.74016
4.74015
4.74015
4.74015
4.74015
4.74015
4.74015
4.74016
4.74016
4.74016
4.74016
4.74017
4.74017
4.74018
4.74019
4.74019
4.7402
4.74021
4.74022
4.74024
4.74025
4.74027
4.74029
4.74031
4.74033
4.74036
4.7404
4.74044
4.74048
4.74054
4.7406
4.74068
4.74079
4.74092
4.80854
4.80842
4.80831
4.80823
4.80816
4.80811
4.80806
4.80802
4.80799
4.80796
4.80794
4.80791
4.8079
4.80788
4.80786
4.80785
4.80784
4.80783
4.80782
4.80781
4.80781
4.8078
4.8078
4.80779
4.80779
4.80779
4.80778
4.80778
4.80778
4.80778
4.80778
4.80778
4.80778
4.80778
4.80779
4.80779
4.80779
4.8078
4.8078
4.80781
4.80781
4.80782
4.80783
4.80784
4.80785
4.80786
4.80788
4.8079
4.80791
4.80794
4.80796
4.80799
4.80802
4.80806
4.80811
4.80816
4.80823
4.80831
4.80842
4.80854
4.8771
4.87698
4.87688
4.8768
4.87673
4.87668
4.87663
4.8766
4.87656
4.87653
4.87651
4.87649
4.87647
4.87645
4.87643
4.87642
4.87641
4.8764
4.87639
4.87638
4.87638
4.87637
4.87637
4.87636
4.87636
4.87636
4.87635
4.87635
4.87635
4.87635
4.87635
4.87635
4.87635
4.87635
4.87636
4.87636
4.87636
4.87637
4.87637
4.87638
4.87638
4.87639
4.8764
4.87641
4.87642
4.87643
4.87645
4.87647
4.87649
4.87651
4.87653
4.87656
4.8766
4.87663
4.87668
4.87673
4.8768
4.87688
4.87698
4.8771
4.9467
4.94659
4.94649
4.94641
4.94634
4.94629
4.94624
4.9462
4.94617
4.94614
4.94611
4.94609
4.94607
4.94606
4.94604
4.94603
4.94602
4.94601
4.946
4.94599
4.94598
4.94598
4.94597
4.94597
4.94597
4.94596
4.94596
4.94596
4.94596
4.94596
4.94596
4.94596
4.94596
4.94596
4.94596
4.94597
4.94597
4.94597
4.94598
4.94598
4.94599
4.946
4.94601
4.94602
4.94603
4.94604
4.94606
4.94607
4.94609
4.94611
4.94614
4.94617
4.9462
4.94624
4.94629
4.94634
4.94641
4.94649
4.94659
4.9467
5.01743
5.01732
5.01722
5.01714
5.01708
5.01702
5.01698
5.01694
5.0169
5.01687
5.01685
5.01683
5.01681
5.01679
5.01678
5.01676
5.01675
5.01674
5.01673
5.01673
5.01672
5.01671
5.01671
5.0167
5.0167
5.0167
5.01669
5.01669
5.01669
5.01669
5.01669
5.01669
5.01669
5.01669
5.0167
5.0167
5.0167
5.01671
5.01671
5.01672
5.01673
5.01673
5.01674
5.01675
5.01676
5.01678
5.01679
5.01681
5.01683
5.01685
5.01687
5.0169
5.01694
5.01698
5.01702
5.01708
5.01714
5.01722
5.01732
5.01743
5.08938
5.08927
5.08917
5.0891
5.08903
5.08898
5.08893
5.08889
5.08886
5.08883
5.0888
5.08878
5.08876
5.08875
5.08873
5.08872
5.08871
5.0887
5.08869
5.08868
5.08867
5.08867
5.08866
5.08866
5.08865
5.08865
5.08865
5.08865
5.08865
5.08865
5.08865
5.08865
5.08865
5.08865
5.08865
5.08865
5.08866
5.08866
5.08867
5.08867
5.08868
5.08869
5.0887
5.08871
5.08872
5.08873
5.08875
5.08876
5.08878
5.0888
5.08883
5.08886
5.08889
5.08893
5.08898
5.08903
5.0891
5.08917
5.08927
5.08938
5.16264
5.16254
5.16244
5.16236
5.16229
5.16224
5.16219
5.16216
5.16212
5.16209
5.16207
5.16205
5.16203
5.16201
5.16199
5.16198
5.16197
5.16196
5.16195
5.16194
5.16194
5.16193
5.16192
5.16192
5.16192
5.16191
5.16191
5.16191
5.16191
5.16191
5.16191
5.16191
5.16191
5.16191
5.16191
5.16192
5.16192
5.16192
5.16193
5.16194
5.16194
5.16195
5.16196
5.16197
5.16198
5.16199
5.16201
5.16203
5.16205
5.16207
5.16209
5.16212
5.16216
5.16219
5.16224
5.16229
5.16236
5.16244
5.16254
5.16264
5.23729
5.23719
5.2371
5.23702
5.23696
5.2369
5.23686
5.23682
5.23678
5.23675
5.23673
5.23671
5.23669
5.23667
5.23666
5.23664
5.23663
5.23662
5.23661
5.2366
5.2366
5.23659
5.23659
5.23658
5.23658
5.23658
5.23657
5.23657
5.23657
5.23657
5.23657
5.23657
5.23657
5.23657
5.23658
5.23658
5.23658
5.23659
5.23659
5.2366
5.2366
5.23661
5.23662
5.23663
5.23664
5.23666
5.23667
5.23669
5.23671
5.23673
5.23675
5.23678
5.23682
5.23686
5.2369
5.23696
5.23702
5.2371
5.23719
5.23729
5.31344
5.31334
5.31324
5.31317
5.3131
5.31305
5.313
5.31297
5.31293
5.3129
5.31288
5.31285
5.31284
5.31282
5.3128
5.31279
5.31278
5.31277
5.31276
5.31275
5.31274
5.31274
5.31273
5.31273
5.31273
5.31272
5.31272
5.31272
5.31272
5.31272
5.31272
5.31272
5.31272
5.31272
5.31272
5.31273
5.31273
5.31273
5.31274
5.31274
5.31275
5.31276
5.31277
5.31278
5.31279
5.3128
5.31282
5.31284
5.31285
5.31288
5.3129
5.31293
5.31297
5.313
5.31305
5.3131
5.31317
5.31324
5.31334
5.31344
5.39115
5.39106
5.39097
5.39089
5.39083
5.39077
5.39073
5.39069
5.39065
5.39063
5.3906
5.39058
5.39056
5.39054
5.39053
5.39051
5.3905
5.39049
5.39048
5.39047
5.39047
5.39046
5.39046
5.39045
5.39045
5.39044
5.39044
5.39044
5.39044
5.39044
5.39044
5.39044
5.39044
5.39044
5.39044
5.39045
5.39045
5.39046
5.39046
5.39047
5.39047
5.39048
5.39049
5.3905
5.39051
5.39053
5.39054
5.39056
5.39058
5.3906
5.39063
5.39065
5.39069
5.39073
5.39077
5.39083
5.39089
5.39097
5.39106
5.39115
5.47053
5.47044
5.47035
5.47027
5.47021
5.47016
5.47011
5.47007
5.47004
5.47001
5.46999
5.46996
5.46994
5.46993
5.46991
5.4699
5.46989
5.46988
5.46987
5.46986
5.46985
5.46985
5.46984
5.46984
5.46983
5.46983
5.46983
5.46983
5.46983
5.46982
5.46982
5.46983
5.46983
5.46983
5.46983
5.46983
5.46984
5.46984
5.46985
5.46985
5.46986
5.46987
5.46988
5.46989
5.4699
5.46991
5.46993
5.46994
5.46996
5.46999
5.47001
5.47004
5.47007
5.47011
5.47016
5.47021
5.47027
5.47035
5.47044
5.47053
5.55166
5.55157
5.55149
5.55141
5.55135
5.5513
5.55125
5.55121
5.55118
5.55115
5.55112
5.5511
5.55108
5.55106
5.55105
5.55104
5.55102
5.55101
5.55101
5.551
5.55099
5.55098
5.55098
5.55097
5.55097
5.55097
5.55097
5.55096
5.55096
5.55096
5.55096
5.55096
5.55096
5.55097
5.55097
5.55097
5.55097
5.55098
5.55098
5.55099
5.551
5.55101
5.55101
5.55102
5.55104
5.55105
5.55106
5.55108
5.5511
5.55112
5.55115
5.55118
5.55121
5.55125
5.5513
5.55135
5.55141
5.55149
5.55157
5.55166
5.63463
5.63455
5.63446
5.63439
5.63433
5.63427
5.63423
5.63419
5.63416
5.63413
5.6341
5.63408
5.63406
5.63404
5.63403
5.63402
5.634
5.63399
5.63398
5.63398
5.63397
5.63396
5.63396
5.63395
5.63395
5.63395
5.63394
5.63394
5.63394
5.63394
5.63394
5.63394
5.63394
5.63394
5.63395
5.63395
5.63395
5.63396
5.63396
5.63397
5.63398
5.63398
5.63399
5.634
5.63402
5.63403
5.63404
5.63406
5.63408
5.6341
5.63413
5.63416
5.63419
5.63423
5.63427
5.63433
5.63439
5.63446
5.63455
5.63463
5.71954
5.71946
5.71937
5.7193
5.71924
5.71919
5.71914
5.7191
5.71907
5.71904
5.71901
5.71899
5.71897
5.71896
5.71894
5.71893
5.71891
5.7189
5.7189
5.71889
5.71888
5.71887
5.71887
5.71886
5.71886
5.71886
5.71886
5.71885
5.71885
5.71885
5.71885
5.71885
5.71885
5.71886
5.71886
5.71886
5.71886
5.71887
5.71887
5.71888
5.71889
5.7189
5.7189
5.71891
5.71893
5.71894
5.71896
5.71897
5.71899
5.71901
5.71904
5.71907
5.7191
5.71914
5.71919
5.71924
5.7193
5.71937
5.71946
5.71954
5.80646
5.80639
5.8063
5.80623
5.80617
5.80612
5.80607
5.80604
5.806
5.80597
5.80595
5.80593
5.80591
5.80589
5.80587
5.80586
5.80585
5.80584
5.80583
5.80582
5.80581
5.80581
5.8058
5.8058
5.80579
5.80579
5.80579
5.80579
5.80578
5.80578
5.80578
5.80578
5.80579
5.80579
5.80579
5.80579
5.8058
5.8058
5.80581
5.80581
5.80582
5.80583
5.80584
5.80585
5.80586
5.80587
5.80589
5.80591
5.80593
5.80595
5.80597
5.806
5.80604
5.80607
5.80612
5.80617
5.80623
5.8063
5.80639
5.80646
5.8955
5.89543
5.89535
5.89528
5.89522
5.89516
5.89512
5.89508
5.89505
5.89502
5.89499
5.89497
5.89495
5.89494
5.89492
5.89491
5.89489
5.89488
5.89488
5.89487
5.89486
5.89485
5.89485
5.89484
5.89484
5.89484
5.89483
5.89483
5.89483
5.89483
5.89483
5.89483
5.89483
5.89483
5.89484
5.89484
5.89484
5.89485
5.89485
5.89486
5.89487
5.89488
5.89488
5.89489
5.89491
5.89492
5.89494
5.89495
5.89497
5.89499
5.89502
5.89505
5.89508
5.89512
5.89516
5.89522
5.89528
5.89535
5.89543
5.8955
5.98675
5.98668
5.9866
5.98653
5.98647
5.98642
5.98638
5.98634
5.9863
5.98628
5.98625
5.98623
5.98621
5.98619
5.98618
5.98616
5.98615
5.98614
5.98613
5.98612
5.98611
5.98611
5.9861
5.9861
5.98609
5.98609
5.98609
5.98609
5.98609
5.98609
5.98609
5.98609
5.98609
5.98609
5.98609
5.98609
5.9861
5.9861
5.98611
5.98611
5.98612
5.98613
5.98614
5.98615
5.98616
5.98618
5.98619
5.98621
5.98623
5.98625
5.98628
5.9863
5.98634
5.98638
5.98642
5.98647
5.98653
5.9866
5.98668
5.98675
6.0803
6.08023
6.08015
6.08008
6.08002
6.07997
6.07993
6.07989
6.07986
6.07983
6.07981
6.07978
6.07976
6.07975
6.07973
6.07972
6.07971
6.0797
6.07969
6.07968
6.07967
6.07966
6.07966
6.07965
6.07965
6.07965
6.07965
6.07964
6.07964
6.07964
6.07964
6.07964
6.07964
6.07965
6.07965
6.07965
6.07965
6.07966
6.07966
6.07967
6.07968
6.07969
6.0797
6.07971
6.07972
6.07973
6.07975
6.07976
6.07978
6.07981
6.07983
6.07986
6.07989
6.07993
6.07997
6.08002
6.08008
6.08015
6.08023
6.0803
6.17624
6.17618
6.1761
6.17604
6.17598
6.17593
6.17588
6.17585
6.17581
6.17579
6.17576
6.17574
6.17572
6.1757
6.17569
6.17567
6.17566
6.17565
6.17564
6.17563
6.17562
6.17562
6.17561
6.17561
6.1756
6.1756
6.1756
6.1756
6.1756
6.1756
6.1756
6.1756
6.1756
6.1756
6.1756
6.1756
6.17561
6.17561
6.17562
6.17562
6.17563
6.17564
6.17565
6.17566
6.17567
6.17569
6.1757
6.17572
6.17574
6.17576
6.17579
6.17581
6.17585
6.17588
6.17593
6.17598
6.17604
6.1761
6.17618
6.17624
6.27468
6.27462
6.27455
6.27448
6.27443
6.27438
6.27433
6.2743
6.27426
6.27423
6.27421
6.27419
6.27417
6.27415
6.27413
6.27412
6.27411
6.2741
6.27409
6.27408
6.27407
6.27407
6.27406
6.27406
6.27405
6.27405
6.27405
6.27405
6.27404
6.27404
6.27404
6.27404
6.27405
6.27405
6.27405
6.27405
6.27406
6.27406
6.27407
6.27407
6.27408
6.27409
6.2741
6.27411
6.27412
6.27413
6.27415
6.27417
6.27419
6.27421
6.27423
6.27426
6.2743
6.27433
6.27438
6.27443
6.27448
6.27455
6.27462
6.27468
6.37572
6.37566
6.37559
6.37552
6.37547
6.37542
6.37538
6.37534
6.37531
6.37528
6.37525
6.37523
6.37521
6.37519
6.37518
6.37516
6.37515
6.37514
6.37513
6.37512
6.37512
6.37511
6.3751
6.3751
6.3751
6.37509
6.37509
6.37509
6.37509
6.37509
6.37509
6.37509
6.37509
6.37509
6.37509
6.3751
6.3751
6.3751
6.37511
6.37512
6.37512
6.37513
6.37514
6.37515
6.37516
6.37518
6.37519
6.37521
6.37523
6.37525
6.37528
6.37531
6.37534
6.37538
6.37542
6.37547
6.37552
6.37559
6.37566
6.37572
6.47944
6.47939
6.47932
6.47926
6.4792
6.47915
6.47911
6.47908
6.47904
6.47901
6.47899
6.47897
6.47895
6.47893
6.47891
6.4789
6.47889
6.47888
6.47887
6.47886
6.47885
6.47885
6.47884
6.47884
6.47883
6.47883
6.47883
6.47883
6.47882
6.47882
6.47882
6.47882
6.47883
6.47883
6.47883
6.47883
6.47884
6.47884
6.47885
6.47885
6.47886
6.47887
6.47888
6.47889
6.4789
6.47891
6.47893
6.47895
6.47897
6.47899
6.47901
6.47904
6.47908
6.47911
6.47915
6.4792
6.47926
6.47932
6.47939
6.47944
6.58597
6.58592
6.58585
6.58579
6.58574
6.58569
6.58565
6.58561
6.58558
6.58555
6.58552
6.5855
6.58548
6.58547
6.58545
6.58544
6.58542
6.58541
6.5854
6.5854
6.58539
6.58538
6.58538
6.58537
6.58537
6.58536
6.58536
6.58536
6.58536
6.58536
6.58536
6.58536
6.58536
6.58536
6.58536
6.58537
6.58537
6.58538
6.58538
6.58539
6.5854
6.5854
6.58541
6.58542
6.58544
6.58545
6.58547
6.58548
6.5855
6.58552
6.58555
6.58558
6.58561
6.58565
6.58569
6.58574
6.58579
6.58585
6.58592
6.58597
6.6954
6.69535
6.69528
6.69522
6.69517
6.69512
6.69508
6.69505
6.69501
6.69499
6.69496
6.69494
6.69492
6.6949
6.69489
6.69487
6.69486
6.69485
6.69484
6.69483
6.69483
6.69482
6.69481
6.69481
6.6948
6.6948
6.6948
6.6948
6.6948
6.6948
6.6948
6.6948
6.6948
6.6948
6.6948
6.6948
6.69481
6.69481
6.69482
6.69483
6.69483
6.69484
6.69485
6.69486
6.69487
6.69489
6.6949
6.69492
6.69494
6.69496
6.69499
6.69501
6.69505
6.69508
6.69512
6.69517
6.69522
6.69528
6.69535
6.6954
6.80783
6.80779
6.80772
6.80767
6.80761
6.80757
6.80753
6.80749
6.80746
6.80743
6.80741
6.80738
6.80736
6.80735
6.80733
6.80732
6.80731
6.8073
6.80729
6.80728
6.80727
6.80726
6.80726
6.80725
6.80725
6.80725
6.80724
6.80724
6.80724
6.80724
6.80724
6.80724
6.80724
6.80724
6.80725
6.80725
6.80725
6.80726
6.80726
6.80727
6.80728
6.80729
6.8073
6.80731
6.80732
6.80733
6.80735
6.80736
6.80738
6.80741
6.80743
6.80746
6.80749
6.80753
6.80757
6.80761
6.80767
6.80772
6.80779
6.80783
6.92339
6.92334
6.92328
6.92323
6.92317
6.92313
6.92309
6.92305
6.92302
6.92299
6.92297
6.92295
6.92293
6.92291
6.9229
6.92288
6.92287
6.92286
6.92285
6.92284
6.92283
6.92283
6.92282
6.92282
6.92281
6.92281
6.92281
6.92281
6.9228
6.9228
6.9228
6.9228
6.92281
6.92281
6.92281
6.92281
6.92282
6.92282
6.92283
6.92283
6.92284
6.92285
6.92286
6.92287
6.92288
6.9229
6.92291
6.92293
6.92295
6.92297
6.92299
6.92302
6.92305
6.92309
6.92313
6.92317
6.92323
6.92328
6.92334
6.92339
7.04217
7.04213
7.04207
7.04201
7.04196
7.04192
7.04188
7.04184
7.04181
7.04179
7.04176
7.04174
7.04172
7.0417
7.04169
7.04167
7.04166
7.04165
7.04164
7.04163
7.04163
7.04162
7.04161
7.04161
7.0416
7.0416
7.0416
7.0416
7.0416
7.0416
7.0416
7.0416
7.0416
7.0416
7.0416
7.0416
7.04161
7.04161
7.04162
7.04163
7.04163
7.04164
7.04165
7.04166
7.04167
7.04169
7.0417
7.04172
7.04174
7.04176
7.04179
7.04181
7.04184
7.04188
7.04192
7.04196
7.04201
7.04207
7.04213
7.04217
7.16429
7.16425
7.1642
7.16414
7.1641
7.16405
7.16401
7.16398
7.16395
7.16392
7.16389
7.16387
7.16385
7.16384
7.16382
7.16381
7.1638
7.16378
7.16378
7.16377
7.16376
7.16375
7.16375
7.16374
7.16374
7.16374
7.16373
7.16373
7.16373
7.16373
7.16373
7.16373
7.16373
7.16373
7.16374
7.16374
7.16374
7.16375
7.16375
7.16376
7.16377
7.16378
7.16378
7.1638
7.16381
7.16382
7.16384
7.16385
7.16387
7.16389
7.16392
7.16395
7.16398
7.16401
7.16405
7.1641
7.16414
7.1642
7.16425
7.16429
7.28987
7.28984
7.28978
7.28973
7.28968
7.28964
7.2896
7.28957
7.28954
7.28951
7.28949
7.28947
7.28945
7.28943
7.28941
7.2894
7.28939
7.28938
7.28937
7.28936
7.28935
7.28935
7.28934
7.28934
7.28933
7.28933
7.28933
7.28932
7.28932
7.28932
7.28932
7.28932
7.28932
7.28933
7.28933
7.28933
7.28934
7.28934
7.28935
7.28935
7.28936
7.28937
7.28938
7.28939
7.2894
7.28941
7.28943
7.28945
7.28947
7.28949
7.28951
7.28954
7.28957
7.2896
7.28964
7.28968
7.28973
7.28978
7.28984
7.28987
7.41903
7.419
7.41895
7.4189
7.41885
7.41881
7.41877
7.41874
7.41871
7.41868
7.41866
7.41864
7.41862
7.4186
7.41858
7.41857
7.41856
7.41855
7.41854
7.41853
7.41852
7.41852