/*--------------------------------*- C++ -*----------------------------------*\
| =========                 |                                                 |
| \\      /  F ield         | foam-extend: Open Source CFD                    |
|  \\    /   O peration     | Version:     4.0                                |
|   \\  /    A nd           | Web:         http://www.foam-extend.org         |
|    \\/     M anipulation  |                                                 |
\*---------------------------------------------------------------------------*/
FoamFile
{
    version     2.0;
    format      ascii;
    class       volScalarField;
    location    "17";
    object      p;
}
// * * * * * * * * * * * * * * * * * * * * * * * * * * * * * * * * * * * * * //

dimensions      [0 2 -2 0 0 0 0];

internalField   nonuniform List<scalar> 
6960
(
2.55708e-12
6.21402e-12
6.09692e-12
6.04197e-12
5.92232e-12
5.86897e-12
5.832e-12
5.84991e-12
5.89262e-12
5.96603e-12
6.03693e-12
6.09872e-12
6.1297e-12
6.13328e-12
6.10742e-12
6.06496e-12
6.01627e-12
5.97559e-12
5.94837e-12
5.93929e-12
5.94753e-12
5.96861e-12
5.99488e-12
6.01955e-12
6.03708e-12
6.04525e-12
6.04434e-12
6.03564e-12
6.02201e-12
6.00744e-12
5.9947e-12
5.98523e-12
5.97966e-12
5.97756e-12
5.97825e-12
5.9814e-12
5.98597e-12
5.99103e-12
5.99598e-12
6.00035e-12
6.00301e-12
6.00338e-12
6.00053e-12
5.9954e-12
5.98805e-12
5.98012e-12
5.97193e-12
5.9677e-12
5.96529e-12
5.9682e-12
5.97093e-12
5.98062e-12
5.98222e-12
5.99182e-12
5.98023e-12
5.98961e-12
5.95958e-12
5.98206e-12
5.94126e-12
5.98095e-12
6.5967e-12
6.08242e-12
6.00978e-12
6.03255e-12
5.98956e-12
5.98471e-12
5.95991e-12
5.95525e-12
5.94805e-12
5.95827e-12
5.96756e-12
5.98438e-12
5.99806e-12
6.00974e-12
6.01227e-12
6.01193e-12
6.00559e-12
5.99612e-12
5.98757e-12
5.98255e-12
5.97839e-12
5.97771e-12
5.98122e-12
5.98571e-12
5.98995e-12
5.99398e-12
5.99576e-12
5.9958e-12
5.99551e-12
5.99366e-12
5.99106e-12
5.99002e-12
5.98965e-12
5.98947e-12
5.99025e-12
5.99076e-12
5.99028e-12
5.98987e-12
5.98855e-12
5.98628e-12
5.98418e-12
5.98289e-12
5.98174e-12
5.98216e-12
5.98278e-12
5.985e-12
5.98686e-12
5.98899e-12
5.98811e-12
5.98917e-12
5.98524e-12
5.98313e-12
5.97553e-12
5.97828e-12
5.96784e-12
5.9806e-12
5.9636e-12
5.99078e-12
5.95783e-12
5.98887e-12
7.72795e-12
5.97244e-12
5.91918e-12
6.0001e-12
6.01682e-12
6.05822e-12
6.05428e-12
6.04799e-12
6.01404e-12
5.98262e-12
5.94436e-12
5.92054e-12
5.91009e-12
5.91655e-12
5.93125e-12
5.95714e-12
5.98195e-12
5.99941e-12
6.01012e-12
6.01406e-12
6.00661e-12
5.99369e-12
5.98108e-12
5.9692e-12
5.96096e-12
5.95879e-12
5.95987e-12
5.96454e-12
5.97333e-12
5.98166e-12
5.98823e-12
5.99485e-12
5.99928e-12
6.00089e-12
6.00132e-12
5.99904e-12
5.99382e-12
5.98837e-12
5.98205e-12
5.97543e-12
5.97083e-12
5.96971e-12
5.97139e-12
5.97731e-12
5.98417e-12
5.9934e-12
6.00089e-12
6.00587e-12
6.00334e-12
6.00147e-12
5.99163e-12
5.98331e-12
5.97054e-12
5.97275e-12
5.96414e-12
5.98318e-12
5.97194e-12
6.00475e-12
5.97414e-12
5.99132e-12
6.1143e-12
5.99166e-12
5.92708e-12
5.99406e-12
5.99694e-12
6.0336e-12
6.03201e-12
6.03586e-12
6.01543e-12
5.99826e-12
5.97105e-12
5.9531e-12
5.94184e-12
5.9425e-12
5.94834e-12
5.96433e-12
5.98075e-12
5.99318e-12
6.00204e-12
6.00726e-12
6.00411e-12
5.99664e-12
5.98879e-12
5.98055e-12
5.97442e-12
5.97249e-12
5.97245e-12
5.97488e-12
5.98055e-12
5.9857e-12
5.98925e-12
5.9927e-12
5.99426e-12
5.99381e-12
5.99318e-12
5.9914e-12
5.9885e-12
5.9868e-12
5.9854e-12
5.98406e-12
5.98372e-12
5.98475e-12
5.98589e-12
5.98816e-12
5.98884e-12
5.99042e-12
5.9905e-12
5.99032e-12
5.98595e-12
5.98651e-12
5.98244e-12
5.98352e-12
5.97813e-12
5.98715e-12
5.97762e-12
5.9952e-12
5.97396e-12
6.00395e-12
5.9679e-12
5.98792e-12
5.84206e-12
6.02422e-12
5.95332e-12
6.00207e-12
5.98677e-12
6.01088e-12
6.00477e-12
6.01107e-12
6.00064e-12
5.99747e-12
5.98531e-12
5.97969e-12
5.97511e-12
5.97625e-12
5.97728e-12
5.98437e-12
5.9905e-12
5.99429e-12
5.99727e-12
5.99995e-12
5.99814e-12
5.9949e-12
5.99246e-12
5.98972e-12
5.98794e-12
5.98825e-12
5.98844e-12
5.9891e-12
5.99104e-12
5.99143e-12
5.99e-12
5.98859e-12
5.98621e-12
5.98342e-12
5.98222e-12
5.98203e-12
5.98289e-12
5.98629e-12
5.99056e-12
5.99438e-12
5.99747e-12
5.99903e-12
5.99768e-12
5.99428e-12
5.98781e-12
5.98157e-12
5.97562e-12
5.97218e-12
5.96933e-12
5.97438e-12
5.97786e-12
5.9869e-12
5.98751e-12
5.99871e-12
5.98624e-12
5.99857e-12
5.97018e-12
5.99714e-12
5.9592e-12
5.99144e-12
6.06039e-12
6.03351e-12
5.96196e-12
6.00277e-12
5.98094e-12
5.99991e-12
5.99179e-12
5.99849e-12
5.99145e-12
5.99316e-12
5.98667e-12
5.98586e-12
5.98405e-12
5.9857e-12
5.98535e-12
5.98931e-12
5.99179e-12
5.99267e-12
5.99366e-12
5.99544e-12
5.99425e-12
5.99269e-12
5.99214e-12
5.99116e-12
5.99051e-12
5.99103e-12
5.99081e-12
5.9906e-12
5.99134e-12
5.99088e-12
5.98929e-12
5.98827e-12
5.98687e-12
5.98536e-12
5.98518e-12
5.98546e-12
5.98602e-12
5.98803e-12
5.99007e-12
5.99133e-12
5.992e-12
5.99185e-12
5.99007e-12
5.98774e-12
5.98392e-12
5.98121e-12
5.97899e-12
5.97852e-12
5.97747e-12
5.98163e-12
5.98264e-12
5.98717e-12
5.98378e-12
5.99047e-12
5.97745e-12
5.98984e-12
5.96622e-12
5.9955e-12
5.96076e-12
5.99431e-12
5.59794e-12
6.03373e-12
5.9648e-12
6.00238e-12
5.9775e-12
5.99392e-12
5.98424e-12
5.99048e-12
5.98412e-12
5.98726e-12
5.98263e-12
5.98353e-12
5.98277e-12
5.98479e-12
5.98415e-12
5.9872e-12
5.98863e-12
5.98875e-12
5.98925e-12
5.99089e-12
5.99005e-12
5.98906e-12
5.98901e-12
5.9883e-12
5.98759e-12
5.98775e-12
5.98718e-12
5.98683e-12
5.98787e-12
5.98845e-12
5.98866e-12
5.98994e-12
5.99095e-12
5.9914e-12
5.99213e-12
5.99193e-12
5.99045e-12
5.98908e-12
5.98699e-12
5.98436e-12
5.98219e-12
5.98119e-12
5.98078e-12
5.98221e-12
5.98354e-12
5.98654e-12
5.98875e-12
5.99086e-12
5.98916e-12
5.98989e-12
5.98518e-12
5.98354e-12
5.97551e-12
5.97966e-12
5.96866e-12
5.98412e-12
5.96602e-12
5.99641e-12
5.96383e-12
5.98916e-12
5.51455e-12
6.03402e-12
5.96608e-12
6.00394e-12
5.97799e-12
5.99362e-12
5.98313e-12
5.98903e-12
5.98254e-12
5.98586e-12
5.98158e-12
5.98289e-12
5.98241e-12
5.98463e-12
5.98403e-12
5.98693e-12
5.98814e-12
5.98808e-12
5.98837e-12
5.9898e-12
5.98888e-12
5.98791e-12
5.98789e-12
5.98727e-12
5.98668e-12
5.98701e-12
5.98668e-12
5.9866e-12
5.98789e-12
5.98872e-12
5.98914e-12
5.99048e-12
5.99142e-12
5.99165e-12
5.99203e-12
5.99149e-12
5.98978e-12
5.98838e-12
5.98655e-12
5.9845e-12
5.9831e-12
5.98295e-12
5.98319e-12
5.98496e-12
5.98606e-12
5.98838e-12
5.9893e-12
5.99016e-12
5.98711e-12
5.98725e-12
5.98237e-12
5.98189e-12
5.9752e-12
5.98151e-12
5.97161e-12
5.98775e-12
5.96817e-12
5.99665e-12
5.96314e-12
5.98468e-12
5.99323e-12
6.03429e-12
5.96594e-12
6.00501e-12
5.97926e-12
5.99514e-12
5.98479e-12
5.99079e-12
5.98431e-12
5.98763e-12
5.98336e-12
5.9847e-12
5.98423e-12
5.9865e-12
5.98594e-12
5.98881e-12
5.98997e-12
5.98982e-12
5.98996e-12
5.99119e-12
5.99011e-12
5.98905e-12
5.98904e-12
5.98858e-12
5.98825e-12
5.98888e-12
5.98881e-12
5.98881e-12
5.98987e-12
5.99012e-12
5.98962e-12
5.98981e-12
5.98954e-12
5.9888e-12
5.98869e-12
5.98835e-12
5.98762e-12
5.98785e-12
5.98805e-12
5.98798e-12
5.98809e-12
5.98848e-12
5.98816e-12
5.98817e-12
5.98676e-12
5.98619e-12
5.98472e-12
5.98413e-12
5.98118e-12
5.98283e-12
5.98063e-12
5.98336e-12
5.97912e-12
5.98701e-12
5.97632e-12
5.99109e-12
5.96854e-12
5.996e-12
5.9616e-12
5.98608e-12
6.20349e-12
6.03225e-12
5.96521e-12
6.00451e-12
5.97923e-12
5.99557e-12
5.98561e-12
5.99181e-12
5.98542e-12
5.98867e-12
5.98431e-12
5.98552e-12
5.98495e-12
5.98716e-12
5.98661e-12
5.98951e-12
5.99073e-12
5.99066e-12
5.99083e-12
5.99206e-12
5.99099e-12
5.98992e-12
5.9899e-12
5.98945e-12
5.98913e-12
5.98975e-12
5.98965e-12
5.98954e-12
5.99039e-12
5.99036e-12
5.98953e-12
5.98938e-12
5.98886e-12
5.988e-12
5.98794e-12
5.98784e-12
5.98749e-12
5.98813e-12
5.98869e-12
5.98882e-12
5.98889e-12
5.98897e-12
5.98815e-12
5.98753e-12
5.98562e-12
5.98468e-12
5.98328e-12
5.98302e-12
5.98084e-12
5.98317e-12
5.98172e-12
5.98465e-12
5.98029e-12
5.98743e-12
5.97595e-12
5.99001e-12
5.96748e-12
5.99561e-12
5.96176e-12
5.98865e-12
5.96528e-12
6.02933e-12
5.96473e-12
6.00369e-12
5.97868e-12
5.99533e-12
5.98555e-12
5.99187e-12
5.98544e-12
5.98855e-12
5.984e-12
5.985e-12
5.98425e-12
5.98637e-12
5.98582e-12
5.98879e-12
5.99014e-12
5.99027e-12
5.9906e-12
5.99195e-12
5.99094e-12
5.98988e-12
5.9898e-12
5.98923e-12
5.98877e-12
5.98924e-12
5.98903e-12
5.98888e-12
5.98977e-12
5.9899e-12
5.98934e-12
5.98955e-12
5.9894e-12
5.98886e-12
5.98897e-12
5.98885e-12
5.98825e-12
5.98841e-12
5.98834e-12
5.98782e-12
5.98734e-12
5.98714e-12
5.98638e-12
5.98622e-12
5.98508e-12
5.98507e-12
5.98454e-12
5.9849e-12
5.9829e-12
5.98487e-12
5.98266e-12
5.98451e-12
5.97925e-12
5.98562e-12
5.97421e-12
5.98856e-12
5.96713e-12
5.99571e-12
5.96256e-12
5.98875e-12
5.79618e-12
6.02737e-12
5.96411e-12
6.0032e-12
5.97837e-12
5.99528e-12
5.98564e-12
5.99206e-12
5.98559e-12
5.98855e-12
5.98378e-12
5.98454e-12
5.98358e-12
5.98558e-12
5.98501e-12
5.98804e-12
5.98953e-12
5.98984e-12
5.99033e-12
5.99178e-12
5.99083e-12
5.98976e-12
5.9896e-12
5.98892e-12
5.98835e-12
5.98873e-12
5.98848e-12
5.98836e-12
5.98936e-12
5.98966e-12
5.98933e-12
5.98975e-12
5.98979e-12
5.98936e-12
5.98949e-12
5.98927e-12
5.98847e-12
5.98836e-12
5.98803e-12
5.9873e-12
5.98673e-12
5.98659e-12
5.98602e-12
5.98619e-12
5.98539e-12
5.98571e-12
5.98533e-12
5.98571e-12
5.98348e-12
5.98513e-12
5.98249e-12
5.98404e-12
5.97863e-12
5.98511e-12
5.974e-12
5.98868e-12
5.96747e-12
5.99587e-12
5.96284e-12
5.98779e-12
5.87286e-12
6.02595e-12
5.9631e-12
6.00273e-12
5.97814e-12
5.9954e-12
5.98599e-12
5.99261e-12
5.98615e-12
5.98902e-12
5.98404e-12
5.98457e-12
5.98336e-12
5.98521e-12
5.98458e-12
5.98765e-12
5.98925e-12
5.98971e-12
5.99035e-12
5.9919e-12
5.991e-12
5.98992e-12
5.9897e-12
5.98895e-12
5.9883e-12
5.98862e-12
5.98837e-12
5.98827e-12
5.98929e-12
5.98964e-12
5.98933e-12
5.98976e-12
5.98977e-12
5.9893e-12
5.98938e-12
5.98913e-12
5.98833e-12
5.98828e-12
5.98803e-12
5.98742e-12
5.98697e-12
5.98692e-12
5.9864e-12
5.98653e-12
5.98562e-12
5.98578e-12
5.9852e-12
5.98542e-12
5.98309e-12
5.98474e-12
5.98217e-12
5.98396e-12
5.97874e-12
5.98547e-12
5.97441e-12
5.98913e-12
5.96765e-12
5.99589e-12
5.96279e-12
5.98743e-12
5.96631e-12
6.02415e-12
5.96207e-12
6.00207e-12
5.97776e-12
5.99541e-12
5.98632e-12
5.9932e-12
5.98683e-12
5.98964e-12
5.98449e-12
5.98477e-12
5.98331e-12
5.98496e-12
5.98425e-12
5.98731e-12
5.98901e-12
5.98963e-12
5.99042e-12
5.99208e-12
5.99126e-12
5.99019e-12
5.98994e-12
5.98911e-12
5.98838e-12
5.98864e-12
5.98835e-12
5.98823e-12
5.98925e-12
5.98959e-12
5.98928e-12
5.98968e-12
5.98967e-12
5.98918e-12
5.98925e-12
5.98901e-12
5.98826e-12
5.98827e-12
5.9881e-12
5.98757e-12
5.98717e-12
5.98713e-12
5.98655e-12
5.98659e-12
5.98557e-12
5.98561e-12
5.98495e-12
5.98515e-12
5.98286e-12
5.9846e-12
5.98216e-12
5.98408e-12
5.97892e-12
5.98569e-12
5.97454e-12
5.98921e-12
5.96759e-12
5.99585e-12
5.9628e-12
5.98753e-12
5.96383e-12
6.022e-12
5.96116e-12
6.00128e-12
5.97724e-12
5.99527e-12
5.98653e-12
5.99371e-12
5.98748e-12
5.99026e-12
5.98495e-12
5.98498e-12
5.98325e-12
5.98468e-12
5.98385e-12
5.98689e-12
5.98867e-12
5.98945e-12
5.99041e-12
5.99221e-12
5.99148e-12
5.99045e-12
5.99016e-12
5.98927e-12
5.98845e-12
5.98863e-12
5.98827e-12
5.98812e-12
5.98913e-12
5.98948e-12
5.9892e-12
5.98963e-12
5.98964e-12
5.98917e-12
5.98924e-12
5.98902e-12
5.98828e-12
5.9883e-12
5.98813e-12
5.9876e-12
5.9872e-12
5.98712e-12
5.98652e-12
5.98653e-12
5.98549e-12
5.98552e-12
5.98487e-12
5.9851e-12
5.98286e-12
5.98465e-12
5.98224e-12
5.98417e-12
5.97899e-12
5.98572e-12
5.9745e-12
5.98915e-12
5.96752e-12
5.99583e-12
5.96289e-12
5.98761e-12
5.93504e-12
6.01997e-12
5.96025e-12
6.00041e-12
5.97662e-12
5.99502e-12
5.98666e-12
5.99417e-12
5.98811e-12
5.9909e-12
5.98544e-12
5.98522e-12
5.9832e-12
5.9844e-12
5.98341e-12
5.98641e-12
5.98826e-12
5.98919e-12
5.99032e-12
5.99228e-12
5.99167e-12
5.99068e-12
5.99038e-12
5.98942e-12
5.98851e-12
5.98859e-12
5.98817e-12
5.98799e-12
5.98898e-12
5.98936e-12
5.98912e-12
5.98959e-12
5.98964e-12
5.98919e-12
5.98928e-12
5.98905e-12
5.98831e-12
5.98831e-12
5.98813e-12
5.98759e-12
5.98717e-12
5.9871e-12
5.98649e-12
5.9865e-12
5.98547e-12
5.9855e-12
5.98487e-12
5.98512e-12
5.9829e-12
5.98469e-12
5.98228e-12
5.98421e-12
5.979e-12
5.98571e-12
5.97448e-12
5.98913e-12
5.96749e-12
5.99585e-12
5.96297e-12
5.9876e-12
5.93034e-12
6.01815e-12
5.95928e-12
5.99948e-12
5.97592e-12
5.99468e-12
5.9867e-12
5.99458e-12
5.98874e-12
5.99157e-12
5.98599e-12
5.98553e-12
5.98321e-12
5.98414e-12
5.98297e-12
5.9859e-12
5.9878e-12
5.98887e-12
5.99019e-12
5.99232e-12
5.99184e-12
5.99092e-12
5.9906e-12
5.98959e-12
5.98858e-12
5.98857e-12
5.98808e-12
5.98785e-12
5.98883e-12
5.98923e-12
5.98903e-12
5.98954e-12
5.98963e-12
5.98921e-12
5.9893e-12
5.98908e-12
5.98833e-12
5.98832e-12
5.98813e-12
5.98759e-12
5.98717e-12
5.98709e-12
5.98648e-12
5.98649e-12
5.98546e-12
5.9855e-12
5.98485e-12
5.98512e-12
5.98291e-12
5.9847e-12
5.98229e-12
5.98423e-12
5.97902e-12
5.98573e-12
5.97448e-12
5.98915e-12
5.96748e-12
5.99588e-12
5.96302e-12
5.98757e-12
5.9387e-12
6.01643e-12
5.95829e-12
5.99848e-12
5.97512e-12
5.99423e-12
5.98667e-12
5.99495e-12
5.98936e-12
5.99229e-12
5.98661e-12
5.98592e-12
5.9833e-12
5.98394e-12
5.98256e-12
5.98538e-12
5.98731e-12
5.98852e-12
5.99001e-12
5.99232e-12
5.99199e-12
5.99115e-12
5.99085e-12
5.98978e-12
5.98868e-12
5.98857e-12
5.988e-12
5.98772e-12
5.98868e-12
5.98909e-12
5.98893e-12
5.98948e-12
5.98961e-12
5.98921e-12
5.98931e-12
5.98909e-12
5.98834e-12
5.98833e-12
5.98814e-12
5.98759e-12
5.98717e-12
5.98709e-12
5.98648e-12
5.98648e-12
5.98545e-12
5.98548e-12
5.98483e-12
5.9851e-12
5.98289e-12
5.9847e-12
5.9823e-12
5.98426e-12
5.97905e-12
5.98576e-12
5.9745e-12
5.98917e-12
5.96746e-12
5.99591e-12
5.96305e-12
5.98756e-12
5.94478e-12
6.01475e-12
5.95733e-12
5.99743e-12
5.97424e-12
5.99366e-12
5.98653e-12
5.99525e-12
5.98997e-12
5.99303e-12
5.9873e-12
5.98639e-12
5.98346e-12
5.98379e-12
5.98217e-12
5.98486e-12
5.98679e-12
5.98811e-12
5.98978e-12
5.99229e-12
5.99213e-12
5.99139e-12
5.99111e-12
5.99e-12
5.98881e-12
5.98859e-12
5.98794e-12
5.98759e-12
5.98853e-12
5.98895e-12
5.98881e-12
5.9894e-12
5.98957e-12
5.9892e-12
5.98932e-12
5.98911e-12
5.98835e-12
5.98833e-12
5.98814e-12
5.9876e-12
5.98718e-12
5.9871e-12
5.98649e-12
5.98648e-12
5.98543e-12
5.98545e-12
5.98479e-12
5.98507e-12
5.98288e-12
5.9847e-12
5.98231e-12
5.98429e-12
5.97908e-12
5.9858e-12
5.97452e-12
5.9892e-12
5.96743e-12
5.99596e-12
5.96305e-12
5.98756e-12
5.94749e-12
6.01314e-12
5.95641e-12
5.99634e-12
5.97328e-12
5.99298e-12
5.98629e-12
5.99547e-12
5.99054e-12
5.99379e-12
5.98804e-12
5.98695e-12
5.98371e-12
5.98371e-12
5.98182e-12
5.98434e-12
5.98624e-12
5.98767e-12
5.98951e-12
5.99221e-12
5.99223e-12
5.99161e-12
5.99137e-12
5.99024e-12
5.98897e-12
5.98865e-12
5.9879e-12
5.98748e-12
5.98838e-12
5.9888e-12
5.98869e-12
5.98931e-12
5.98952e-12
5.98919e-12
5.98932e-12
5.98912e-12
5.98837e-12
5.98834e-12
5.98815e-12
5.98761e-12
5.98719e-12
5.98711e-12
5.98649e-12
5.98647e-12
5.98542e-12
5.98542e-12
5.98476e-12
5.98504e-12
5.98286e-12
5.98469e-12
5.98232e-12
5.98433e-12
5.97912e-12
5.98584e-12
5.97454e-12
5.98922e-12
5.9674e-12
5.99601e-12
5.96303e-12
5.98758e-12
5.9495e-12
6.01166e-12
5.95554e-12
5.99522e-12
5.97225e-12
5.99219e-12
5.98594e-12
5.99559e-12
5.99106e-12
5.99454e-12
5.98883e-12
5.98758e-12
5.98403e-12
5.98371e-12
5.98151e-12
5.98383e-12
5.98567e-12
5.98717e-12
5.98917e-12
5.99208e-12
5.9923e-12
5.99182e-12
5.99164e-12
5.9905e-12
5.98915e-12
5.98873e-12
5.98788e-12
5.98738e-12
5.98823e-12
5.98864e-12
5.98855e-12
5.98921e-12
5.98947e-12
5.98916e-12
5.98932e-12
5.98913e-12
5.98838e-12
5.98835e-12
5.98816e-12
5.98762e-12
5.98721e-12
5.98713e-12
5.9865e-12
5.98647e-12
5.9854e-12
5.9854e-12
5.98472e-12
5.98501e-12
5.98283e-12
5.98468e-12
5.98233e-12
5.98436e-12
5.97916e-12
5.98588e-12
5.97457e-12
5.98925e-12
5.96736e-12
5.99608e-12
5.96299e-12
5.98761e-12
5.95176e-12
6.01032e-12
5.95475e-12
5.99409e-12
5.97116e-12
5.99127e-12
5.98546e-12
5.99561e-12
5.99151e-12
5.99529e-12
5.98966e-12
5.98828e-12
5.98445e-12
5.98378e-12
5.98126e-12
5.98334e-12
5.98509e-12
5.98664e-12
5.98879e-12
5.9919e-12
5.99233e-12
5.992e-12
5.99191e-12
5.99077e-12
5.98937e-12
5.98883e-12
5.98788e-12
5.98729e-12
5.98808e-12
5.98848e-12
5.98841e-12
5.9891e-12
5.9894e-12
5.98913e-12
5.98931e-12
5.98913e-12
5.98839e-12
5.98836e-12
5.98817e-12
5.98763e-12
5.98722e-12
5.98714e-12
5.98651e-12
5.98647e-12
5.98539e-12
5.98537e-12
5.98468e-12
5.98497e-12
5.9828e-12
5.98467e-12
5.98234e-12
5.98439e-12
5.9792e-12
5.98593e-12
5.9746e-12
5.98929e-12
5.96732e-12
5.99617e-12
5.96292e-12
5.98765e-12
5.95409e-12
6.00916e-12
5.95404e-12
5.99295e-12
5.97002e-12
5.99024e-12
5.98486e-12
5.99551e-12
5.99189e-12
5.99601e-12
5.99051e-12
5.98905e-12
5.98496e-12
5.98394e-12
5.98107e-12
5.98288e-12
5.9845e-12
5.98607e-12
5.98835e-12
5.99167e-12
5.99232e-12
5.99216e-12
5.99217e-12
5.99106e-12
5.9896e-12
5.98897e-12
5.98792e-12
5.98723e-12
5.98795e-12
5.98832e-12
5.98825e-12
5.98897e-12
5.98931e-12
5.98908e-12
5.98929e-12
5.98913e-12
5.9884e-12
5.98837e-12
5.98818e-12
5.98765e-12
5.98723e-12
5.98715e-12
5.98652e-12
5.98647e-12
5.98538e-12
5.98534e-12
5.98464e-12
5.98493e-12
5.98277e-12
5.98465e-12
5.98234e-12
5.98442e-12
5.97924e-12
5.98597e-12
5.97464e-12
5.98933e-12
5.96728e-12
5.99627e-12
5.96281e-12
5.98771e-12
5.95632e-12
6.00818e-12
5.95346e-12
5.99184e-12
5.96884e-12
5.98911e-12
5.98414e-12
5.99528e-12
5.99216e-12
5.99668e-12
5.99138e-12
5.98988e-12
5.98556e-12
5.9842e-12
5.98096e-12
5.98246e-12
5.98392e-12
5.98548e-12
5.98786e-12
5.99137e-12
5.99225e-12
5.99229e-12
5.99242e-12
5.99136e-12
5.98986e-12
5.98914e-12
5.98798e-12
5.98718e-12
5.98782e-12
5.98816e-12
5.98809e-12
5.98884e-12
5.98922e-12
5.98903e-12
5.98926e-12
5.98913e-12
5.9884e-12
5.98838e-12
5.98819e-12
5.98766e-12
5.98724e-12
5.98717e-12
5.98653e-12
5.98647e-12
5.98538e-12
5.98532e-12
5.9846e-12
5.98489e-12
5.98274e-12
5.98463e-12
5.98235e-12
5.98444e-12
5.97928e-12
5.98602e-12
5.97469e-12
5.98937e-12
5.96723e-12
5.9964e-12
5.96268e-12
5.98778e-12
5.95836e-12
6.00741e-12
5.953e-12
5.99078e-12
5.96766e-12
5.98787e-12
5.98328e-12
5.9949e-12
5.99233e-12
5.99729e-12
5.99225e-12
5.99077e-12
5.98624e-12
5.98456e-12
5.98094e-12
5.9821e-12
5.98336e-12
5.98486e-12
5.98732e-12
5.99102e-12
5.99213e-12
5.99237e-12
5.99266e-12
5.99166e-12
5.99014e-12
5.98934e-12
5.98807e-12
5.98716e-12
5.98771e-12
5.98801e-12
5.98793e-12
5.98869e-12
5.98911e-12
5.98896e-12
5.98922e-12
5.98912e-12
5.9884e-12
5.98838e-12
5.9882e-12
5.98767e-12
5.98726e-12
5.98719e-12
5.98655e-12
5.98648e-12
5.98538e-12
5.9853e-12
5.98456e-12
5.98485e-12
5.9827e-12
5.9846e-12
5.98234e-12
5.98447e-12
5.97933e-12
5.98607e-12
5.97475e-12
5.98942e-12
5.96718e-12
5.99654e-12
5.9625e-12
5.98788e-12
5.96021e-12
6.00686e-12
5.95271e-12
5.98978e-12
5.96648e-12
5.98655e-12
5.9823e-12
5.99438e-12
5.99237e-12
5.99782e-12
5.99309e-12
5.99169e-12
5.98701e-12
5.98502e-12
5.98102e-12
5.98181e-12
5.98282e-12
5.98423e-12
5.98674e-12
5.9906e-12
5.99195e-12
5.99241e-12
5.99286e-12
5.99196e-12
5.99043e-12
5.98956e-12
5.98819e-12
5.98717e-12
5.98762e-12
5.98786e-12
5.98776e-12
5.98853e-12
5.989e-12
5.98888e-12
5.98917e-12
5.9891e-12
5.9884e-12
5.98838e-12
5.9882e-12
5.98768e-12
5.98727e-12
5.98721e-12
5.98656e-12
5.98649e-12
5.98538e-12
5.98528e-12
5.98452e-12
5.98481e-12
5.98266e-12
5.98456e-12
5.98233e-12
5.98448e-12
5.97938e-12
5.98612e-12
5.97481e-12
5.98948e-12
5.96713e-12
5.99672e-12
5.96229e-12
5.98799e-12
5.96189e-12
6.00656e-12
5.95259e-12
5.98887e-12
5.96534e-12
5.98515e-12
5.9812e-12
5.99371e-12
5.99226e-12
5.99825e-12
5.9939e-12
5.99265e-12
5.98785e-12
5.98559e-12
5.98119e-12
5.98159e-12
5.98232e-12
5.98361e-12
5.98612e-12
5.99013e-12
5.9917e-12
5.99239e-12
5.99303e-12
5.99225e-12
5.99074e-12
5.98981e-12
5.98835e-12
5.98721e-12
5.98755e-12
5.98773e-12
5.9876e-12
5.98837e-12
5.98887e-12
5.98879e-12
5.98912e-12
5.98907e-12
5.98839e-12
5.98837e-12
5.98821e-12
5.98769e-12
5.98729e-12
5.98722e-12
5.98659e-12
5.9865e-12
5.98538e-12
5.98526e-12
5.98449e-12
5.98476e-12
5.98261e-12
5.98452e-12
5.98232e-12
5.98449e-12
5.97942e-12
5.98617e-12
5.97488e-12
5.98955e-12
5.96707e-12
5.99691e-12
5.96204e-12
5.98812e-12
5.96339e-12
6.00651e-12
5.95267e-12
5.98807e-12
5.96426e-12
5.9837e-12
5.98e-12
5.99287e-12
5.99201e-12
5.99856e-12
5.99466e-12
5.99362e-12
5.98877e-12
5.98626e-12
5.98148e-12
5.98147e-12
5.98188e-12
5.98299e-12
5.98548e-12
5.9896e-12
5.9914e-12
5.99232e-12
5.99317e-12
5.99252e-12
5.99106e-12
5.99009e-12
5.98854e-12
5.98728e-12
5.9875e-12
5.98761e-12
5.98744e-12
5.9882e-12
5.98873e-12
5.98869e-12
5.98905e-12
5.98903e-12
5.98838e-12
5.98836e-12
5.98821e-12
5.9877e-12
5.9873e-12
5.98724e-12
5.98661e-12
5.98652e-12
5.98539e-12
5.98525e-12
5.98445e-12
5.98472e-12
5.98256e-12
5.98447e-12
5.98229e-12
5.9845e-12
5.97947e-12
5.98622e-12
5.97496e-12
5.98962e-12
5.96702e-12
5.99714e-12
5.96174e-12
5.98828e-12
5.96474e-12
6.00672e-12
5.95297e-12
5.98741e-12
5.96326e-12
5.98222e-12
5.9787e-12
5.99188e-12
5.99159e-12
5.99874e-12
5.99534e-12
5.99458e-12
5.98974e-12
5.98703e-12
5.98189e-12
5.98145e-12
5.9815e-12
5.98239e-12
5.98481e-12
5.98902e-12
5.99102e-12
5.99218e-12
5.99325e-12
5.99277e-12
5.99137e-12
5.99038e-12
5.98875e-12
5.98738e-12
5.98749e-12
5.98751e-12
5.98729e-12
5.98804e-12
5.98858e-12
5.98858e-12
5.98897e-12
5.98899e-12
5.98835e-12
5.98835e-12
5.9882e-12
5.9877e-12
5.98731e-12
5.98726e-12
5.98663e-12
5.98654e-12
5.9854e-12
5.98524e-12
5.98442e-12
5.98467e-12
5.98251e-12
5.98441e-12
5.98227e-12
5.9845e-12
5.97951e-12
5.98627e-12
5.97505e-12
5.98971e-12
5.96696e-12
5.99741e-12
5.96139e-12
5.98847e-12
5.96593e-12
6.00719e-12
5.95349e-12
5.98692e-12
5.96238e-12
5.98073e-12
5.97733e-12
5.99074e-12
5.991e-12
5.99876e-12
5.99592e-12
5.99551e-12
5.99075e-12
5.98789e-12
5.98242e-12
5.98154e-12
5.98121e-12
5.98184e-12
5.98413e-12
5.98839e-12
5.99058e-12
5.99198e-12
5.99328e-12
5.99299e-12
5.99169e-12
5.99069e-12
5.989e-12
5.98752e-12
5.9875e-12
5.98743e-12
5.98715e-12
5.98787e-12
5.98843e-12
5.98846e-12
5.98888e-12
5.98893e-12
5.98833e-12
5.98833e-12
5.98819e-12
5.9877e-12
5.98731e-12
5.98728e-12
5.98665e-12
5.98656e-12
5.98542e-12
5.98524e-12
5.98439e-12
5.98463e-12
5.98246e-12
5.98435e-12
5.98223e-12
5.98448e-12
5.97955e-12
5.98631e-12
5.97514e-12
5.98979e-12
5.96689e-12
5.99771e-12
5.96099e-12
5.98868e-12
5.96696e-12
6.00793e-12
5.95425e-12
5.9866e-12
5.96166e-12
5.97927e-12
5.97591e-12
5.98945e-12
5.99024e-12
5.99861e-12
5.99638e-12
5.9964e-12
5.99179e-12
5.98884e-12
5.98306e-12
5.98175e-12
5.98101e-12
5.98134e-12
5.98346e-12
5.98773e-12
5.99008e-12
5.99171e-12
5.99325e-12
5.99317e-12
5.99198e-12
5.99101e-12
5.98928e-12
5.98769e-12
5.98755e-12
5.98738e-12
5.98702e-12
5.9877e-12
5.98827e-12
5.98833e-12
5.98877e-12
5.98887e-12
5.98829e-12
5.9883e-12
5.98818e-12
5.9877e-12
5.98732e-12
5.98729e-12
5.98668e-12
5.98659e-12
5.98544e-12
5.98525e-12
5.98437e-12
5.98459e-12
5.98241e-12
5.98428e-12
5.98219e-12
5.98446e-12
5.97959e-12
5.98634e-12
5.97524e-12
5.98989e-12
5.96683e-12
5.99805e-12
5.96053e-12
5.98893e-12
5.96785e-12
6.00891e-12
5.95526e-12
5.98649e-12
5.9611e-12
5.97785e-12
5.97446e-12
5.98803e-12
5.9893e-12
5.99828e-12
5.99669e-12
5.99721e-12
5.99284e-12
5.98987e-12
5.98382e-12
5.98209e-12
5.98092e-12
5.9809e-12
5.98281e-12
5.98703e-12
5.98952e-12
5.99136e-12
5.99315e-12
5.9933e-12
5.99226e-12
5.99134e-12
5.98958e-12
5.9879e-12
5.98763e-12
5.98735e-12
5.98692e-12
5.98755e-12
5.98811e-12
5.98819e-12
5.98866e-12
5.98879e-12
5.98824e-12
5.98826e-12
5.98815e-12
5.98769e-12
5.98731e-12
5.9873e-12
5.9867e-12
5.98661e-12
5.98547e-12
5.98526e-12
5.98436e-12
5.98455e-12
5.98236e-12
5.9842e-12
5.98214e-12
5.98442e-12
5.97962e-12
5.98637e-12
5.97535e-12
5.98999e-12
5.96677e-12
5.99843e-12
5.96001e-12
5.98921e-12
5.9686e-12
6.01013e-12
5.95653e-12
5.9866e-12
5.96076e-12
5.97652e-12
5.97301e-12
5.9865e-12
5.9882e-12
5.99776e-12
5.99685e-12
5.99793e-12
5.99386e-12
5.99095e-12
5.98469e-12
5.98256e-12
5.98094e-12
5.98055e-12
5.98219e-12
5.98633e-12
5.98891e-12
5.99095e-12
5.99299e-12
5.99338e-12
5.99251e-12
5.99166e-12
5.9899e-12
5.98814e-12
5.98774e-12
5.98735e-12
5.98683e-12
5.9874e-12
5.98796e-12
5.98805e-12
5.98854e-12
5.98871e-12
5.98818e-12
5.98822e-12
5.98813e-12
5.98767e-12
5.98731e-12
5.98731e-12
5.98672e-12
5.98664e-12
5.98551e-12
5.98528e-12
5.98435e-12
5.98452e-12
5.98231e-12
5.98412e-12
5.98208e-12
5.98438e-12
5.97965e-12
5.98638e-12
5.97547e-12
5.9901e-12
5.9667e-12
5.99886e-12
5.95943e-12
5.98952e-12
5.96919e-12
6.01157e-12
5.95804e-12
5.98694e-12
5.96065e-12
5.9753e-12
5.97161e-12
5.98488e-12
5.98694e-12
5.99705e-12
5.99684e-12
5.99852e-12
5.99484e-12
5.99206e-12
5.98566e-12
5.98316e-12
5.9811e-12
5.9803e-12
5.98162e-12
5.98561e-12
5.98826e-12
5.99047e-12
5.99275e-12
5.9934e-12
5.99273e-12
5.99197e-12
5.99024e-12
5.98841e-12
5.98789e-12
5.98739e-12
5.98678e-12
5.98727e-12
5.9878e-12
5.98791e-12
5.98841e-12
5.98861e-12
5.98812e-12
5.98817e-12
5.98809e-12
5.98765e-12
5.98729e-12
5.98731e-12
5.98674e-12
5.98667e-12
5.98554e-12
5.9853e-12
5.98435e-12
5.98449e-12
5.98226e-12
5.98404e-12
5.98202e-12
5.98432e-12
5.97967e-12
5.98638e-12
5.97559e-12
5.9902e-12
5.96664e-12
5.99935e-12
5.95878e-12
5.98988e-12
5.96964e-12
6.01318e-12
5.95978e-12
5.98752e-12
5.96081e-12
5.97424e-12
5.97028e-12
5.9832e-12
5.98554e-12
5.99613e-12
5.99663e-12
5.99898e-12
5.99576e-12
5.99319e-12
5.98672e-12
5.98389e-12
5.98138e-12
5.98016e-12
5.98112e-12
5.98492e-12
5.98757e-12
5.98993e-12
5.99243e-12
5.99335e-12
5.99289e-12
5.99226e-12
5.99058e-12
5.98871e-12
5.98808e-12
5.98747e-12
5.98675e-12
5.98716e-12
5.98766e-12
5.98776e-12
5.98828e-12
5.98851e-12
5.98805e-12
5.98811e-12
5.98804e-12
5.98762e-12
5.98727e-12
5.98731e-12
5.98676e-12
5.9867e-12
5.98559e-12
5.98534e-12
5.98436e-12
5.98447e-12
5.98222e-12
5.98395e-12
5.98195e-12
5.98425e-12
5.97968e-12
5.98637e-12
5.97572e-12
5.99031e-12
5.96657e-12
5.99989e-12
5.95805e-12
5.99028e-12
5.96993e-12
6.01493e-12
5.96175e-12
5.98833e-12
5.96125e-12
5.97336e-12
5.96906e-12
5.98148e-12
5.98402e-12
5.99502e-12
5.99622e-12
5.99927e-12
5.99658e-12
5.99432e-12
5.98785e-12
5.98474e-12
5.98181e-12
5.98014e-12
5.98071e-12
5.98425e-12
5.98686e-12
5.98933e-12
5.99204e-12
5.99323e-12
5.99301e-12
5.99252e-12
5.99091e-12
5.98902e-12
5.9883e-12
5.98758e-12
5.98675e-12
5.98707e-12
5.98752e-12
5.98762e-12
5.98814e-12
5.9884e-12
5.98797e-12
5.98804e-12
5.98799e-12
5.98758e-12
5.98724e-12
5.98729e-12
5.98677e-12
5.98672e-12
5.98563e-12
5.98538e-12
5.98438e-12
5.98446e-12
5.98219e-12
5.98386e-12
5.98188e-12
5.98416e-12
5.97969e-12
5.98633e-12
5.97585e-12
5.99041e-12
5.96651e-12
6.00049e-12
5.95725e-12
5.99073e-12
5.97005e-12
6.01678e-12
5.96392e-12
5.98938e-12
5.96198e-12
5.9727e-12
5.968e-12
5.97978e-12
5.98241e-12
5.99373e-12
5.9956e-12
5.99937e-12
5.99728e-12
5.99541e-12
5.98903e-12
5.9857e-12
5.98237e-12
5.98026e-12
5.98039e-12
5.98362e-12
5.98615e-12
5.98869e-12
5.99158e-12
5.99304e-12
5.99306e-12
5.99275e-12
5.99124e-12
5.98936e-12
5.98854e-12
5.98772e-12
5.98679e-12
5.987e-12
5.9874e-12
5.98749e-12
5.988e-12
5.98828e-12
5.98788e-12
5.98796e-12
5.98792e-12
5.98753e-12
5.98721e-12
5.98727e-12
5.98678e-12
5.98675e-12
5.98568e-12
5.98542e-12
5.98441e-12
5.98446e-12
5.98217e-12
5.98377e-12
5.9818e-12
5.98406e-12
5.9797e-12
5.98627e-12
5.97598e-12
5.99051e-12
5.96644e-12
6.00115e-12
5.95636e-12
5.99122e-12
5.97002e-12
6.01868e-12
5.96625e-12
5.99065e-12
5.96302e-12
5.97227e-12
5.96714e-12
5.97812e-12
5.98074e-12
5.99228e-12
5.99478e-12
5.99927e-12
5.99784e-12
5.99643e-12
5.99024e-12
5.98676e-12
5.98307e-12
5.98052e-12
5.98019e-12
5.98307e-12
5.98545e-12
5.98802e-12
5.99105e-12
5.99277e-12
5.99305e-12
5.99293e-12
5.99156e-12
5.9897e-12
5.98882e-12
5.9879e-12
5.98687e-12
5.98697e-12
5.98731e-12
5.98737e-12
5.98787e-12
5.98816e-12
5.98779e-12
5.98788e-12
5.98785e-12
5.98748e-12
5.98716e-12
5.98724e-12
5.98678e-12
5.98677e-12
5.98573e-12
5.98548e-12
5.98445e-12
5.98447e-12
5.98217e-12
5.98369e-12
5.98172e-12
5.98394e-12
5.97969e-12
5.98619e-12
5.97612e-12
5.9906e-12
5.96638e-12
6.00187e-12
5.95539e-12
5.99178e-12
5.96981e-12
6.02057e-12
5.96872e-12
5.99212e-12
5.96436e-12
5.97212e-12
5.96651e-12
5.97654e-12
5.97905e-12
5.99068e-12
5.99376e-12
5.99896e-12
5.99822e-12
5.99736e-12
5.99145e-12
5.98789e-12
5.98389e-12
5.98093e-12
5.98011e-12
5.98259e-12
5.98478e-12
5.98732e-12
5.99047e-12
5.99242e-12
5.99297e-12
5.99306e-12
5.99184e-12
5.99004e-12
5.98911e-12
5.98811e-12
5.98698e-12
5.98696e-12
5.98723e-12
5.98726e-12
5.98774e-12
5.98804e-12
5.9877e-12
5.98779e-12
5.98777e-12
5.98742e-12
5.98711e-12
5.9872e-12
5.98677e-12
5.98678e-12
5.98578e-12
5.98554e-12
5.9845e-12
5.98449e-12
5.98217e-12
5.98361e-12
5.98165e-12
5.98381e-12
5.97969e-12
5.98608e-12
5.97626e-12
5.99067e-12
5.96632e-12
6.00266e-12
5.95432e-12
5.99239e-12
5.96943e-12
6.0224e-12
5.97128e-12
5.99376e-12
5.96601e-12
5.97224e-12
5.96614e-12
5.9751e-12
5.97739e-12
5.98896e-12
5.99255e-12
5.99844e-12
5.99842e-12
5.99816e-12
5.99262e-12
5.98908e-12
5.98483e-12
5.98148e-12
5.98018e-12
5.98221e-12
5.98416e-12
5.98662e-12
5.98983e-12
5.992e-12
5.99281e-12
5.99313e-12
5.99209e-12
5.99038e-12
5.98942e-12
5.98835e-12
5.98713e-12
5.98699e-12
5.98717e-12
5.98716e-12
5.98762e-12
5.98792e-12
5.98761e-12
5.9877e-12
5.98769e-12
5.98735e-12
5.98704e-12
5.98715e-12
5.98675e-12
5.98679e-12
5.98583e-12
5.9856e-12
5.98456e-12
5.98452e-12
5.98219e-12
5.98353e-12
5.98158e-12
5.98367e-12
5.97967e-12
5.98594e-12
5.97641e-12
5.99072e-12
5.96626e-12
6.00352e-12
5.95315e-12
5.99307e-12
5.96888e-12
6.02411e-12
5.97388e-12
5.99553e-12
5.96793e-12
5.97265e-12
5.96608e-12
5.97383e-12
5.97579e-12
5.98717e-12
5.99118e-12
5.9977e-12
5.99841e-12
5.99882e-12
5.99374e-12
5.9903e-12
5.98587e-12
5.98218e-12
5.98038e-12
5.98194e-12
5.9836e-12
5.98593e-12
5.98916e-12
5.99152e-12
5.99259e-12
5.99313e-12
5.9923e-12
5.9907e-12
5.98973e-12
5.98861e-12
5.98731e-12
5.98705e-12
5.98715e-12
5.98709e-12
5.98751e-12
5.98781e-12
5.98751e-12
5.9876e-12
5.9876e-12
5.98727e-12
5.98697e-12
5.98709e-12
5.98673e-12
5.98679e-12
5.98588e-12
5.98567e-12
5.98463e-12
5.98456e-12
5.98223e-12
5.98347e-12
5.98151e-12