/*--------------------------------*- C++ -*----------------------------------*\
| =========                 |                                                 |
| \\      /  F ield         | foam-extend: Open Source CFD                    |
|  \\    /   O peration     | Version:     4.0                                |
|   \\  /    A nd           | Web:         http://www.foam-extend.org         |
|    \\/     M anipulation  |                                                 |
\*---------------------------------------------------------------------------*/
FoamFile
{
    version     2.0;
    format      ascii;
    class       surfaceScalarField;
    location    "17";
    object      phi;
}
// * * * * * * * * * * * * * * * * * * * * * * * * * * * * * * * * * * * * * //

dimensions      [0 3 -1 0 0 0 0];

internalField   nonuniform List<scalar> 
13744
(
-6.46132e-31
-3.63532e-27
1.51429e-30
-2.15757e-30
-2.05297e-31
1.71789e-30
-1.69794e-31
-3.41845e-32
-1.11822e-31
-5.74475e-32
2.62836e-32
-1.40021e-31
2.74018e-32
-6.98508e-34
2.82373e-32
-8.39414e-34
-2.65589e-32
5.39116e-32
-1.36075e-31
1.10113e-31
-1.95392e-31
5.95544e-32
-1.69586e-31
-2.60735e-32
-2.15584e-31
4.58079e-32
-2.28461e-31
1.41449e-32
-1.44569e-31
-8.41057e-32
-1.28372e-31
-1.57319e-32
-1.55205e-31
2.66217e-32
-4.93319e-32
-1.04692e-31
3.3321e-32
-8.13181e-32
-3.49888e-32
6.76757e-32
-7.53032e-32
4.07774e-32
-4.34396e-32
-3.18944e-32
-5.40051e-32
1.05387e-32
-6.89752e-32
1.42571e-32
-6.89489e-32
8.04422e-34
-9.27075e-32
2.41759e-32
-6.77176e-32
-2.45151e-32
-6.89834e-33
-6.06982e-32
-1.65028e-32
9.98347e-33
-3.40096e-32
1.7736e-32
4.10681e-33
-3.84375e-32
2.34647e-32
-1.87668e-32
2.90787e-32
-5.16876e-33
5.2624e-32
-2.38561e-32
4.58388e-32
6.83469e-33
3.80134e-32
8.30247e-33
6.86735e-32
-3.0522e-32
7.40344e-32
-5.19012e-33
5.30325e-32
2.10762e-32
6.27091e-32
-9.24549e-33
8.18455e-32
-1.86591e-32
8.36172e-32
-1.3374e-33
7.22249e-32
1.15984e-32
6.71879e-32
5.44084e-33
9.68981e-32
-2.93825e-32
1.24969e-31
-2.79975e-32
9.98488e-32
2.52146e-32
1.22602e-31
-2.27225e-32
1.86854e-31
-6.38844e-32
1.79494e-31
7.49672e-33
9.50843e-32
8.45474e-32
1.11831e-31
-1.65695e-32
9.17822e-32
2.02892e-32
7.88582e-32
1.32137e-32
2.88388e-32
5.04854e-32
9.92788e-32
-7.01187e-32
-3.14009e-32
1.31009e-31
-6.40811e-33
-2.45512e-32
3.47454e-31
-3.53664e-31
3.47666e-31
-2.32041e-30
-3.633e-27
-1.03211e-30
-3.44809e-30
3.59681e-33
6.83395e-31
-7.60351e-32
4.35134e-32
-6.63763e-32
-6.63068e-32
-1.05444e-31
-9.56545e-32
-2.49503e-31
1.42421e-31
-3.84441e-31
1.3619e-31
-5.1223e-31
1.81878e-31
-6.43479e-31
2.41385e-31
-6.42069e-31
6.06414e-32
-4.99976e-31
-1.70575e-31
-4.40873e-31
-1.2311e-32
-3.59638e-31
-6.72506e-32
-1.95445e-31
-2.47528e-31
-1.62822e-31
-4.87601e-32
-2.16122e-31
8.09197e-32
-1.22043e-31
-1.97968e-31
-6.44955e-32
-1.41997e-31
-1.9131e-31
1.9652e-31
-2.61395e-31
1.11873e-31
-2.11622e-31
-8.03663e-32
-1.89362e-31
-1.02797e-32
-1.60978e-31
-1.24357e-32
-1.11549e-31
-4.78322e-32
-9.29851e-32
6.21593e-33
-2.0254e-32
-9.72896e-32
8.29043e-32
-1.62843e-31
8.38703e-32
9.38781e-33
6.66215e-32
3.65196e-32
1.16967e-31
-8.78147e-32
1.46676e-31
-4.81337e-32
1.62074e-31
-2.06777e-32
2.01118e-31
-6.16719e-32
2.05171e-31
4.00034e-33
2.11018e-31
3.03162e-33
2.65265e-31
-8.40152e-32
2.86558e-31
-2.59024e-32
2.73808e-31
3.53502e-32
3.00242e-31
-3.45978e-32
3.41023e-31
-5.86728e-32
3.60099e-31
-1.99931e-32
3.61575e-31
1.12472e-32
3.73925e-31
-6.30751e-33
4.30113e-31
-8.46891e-32
4.78183e-31
-7.53647e-32
4.53397e-31
5.04047e-32
4.85974e-31
-5.50074e-32
5.62502e-31
-1.40338e-31
5.36035e-31
3.44242e-32
4.11744e-31
2.09134e-31
4.05273e-31
-9.67093e-33
3.7312e-31
5.35768e-32
3.22099e-31
6.53602e-32
2.60758e-31
1.12953e-31
3.10795e-31
-1.18908e-31
8.24701e-32
3.60628e-31
1.80654e-31
-1.21919e-31
3.96649e-31
-5.6882e-31
7.44564e-31
-2.37579e-30
-3.63063e-27
-1.56043e-30
-4.26413e-30
1.5978e-31
-1.0377e-30
-7.13203e-32
2.78302e-31
-8.12208e-32
-5.4875e-32
-3.28312e-31
1.57406e-31
-5.51927e-31
3.63326e-31
-7.86341e-31
3.70026e-31
-9.44532e-31
3.41423e-31
-1.04914e-30
3.49781e-31
-9.95394e-31
7.31609e-33
-8.08756e-31
-3.55027e-31
-6.6355e-31
-1.57917e-31
-5.09589e-31
-2.19957e-31
-3.26656e-31
-4.30356e-31
-2.71456e-31
-1.02692e-31
-2.99277e-31
1.10098e-31
-2.44127e-31
-2.50126e-31
-2.24559e-31
-1.5845e-31
-3.31721e-31
3.02834e-31
-3.84582e-31
1.65788e-31
-3.31519e-31
-1.32689e-31
-2.73663e-31
-6.8482e-32
-2.01766e-31
-8.30601e-32
-1.13207e-31
-1.37445e-31
-4.34183e-32
-6.0458e-32
6.00075e-32
-1.98582e-31
1.71204e-31
-2.73311e-31
2.00135e-31
-1.91382e-32
2.08737e-31
2.81629e-32
2.60353e-31
-1.38738e-31
3.00137e-31
-8.67741e-32
3.32039e-31
-5.25903e-32
3.79356e-31
-1.08673e-31
4.05508e-31
-2.15181e-32
4.36517e-31
-2.70416e-32
5.00697e-31
-1.47425e-31
5.41373e-31
-6.549e-32
5.58096e-31
1.90796e-32
6.02166e-31
-7.77314e-32
6.58422e-31
-1.14485e-31
6.99029e-31
-5.94469e-32
7.24651e-31
-1.34046e-32
7.60853e-31
-4.10362e-32
8.25868e-31
-1.48806e-31
8.78266e-31
-1.26187e-31
8.72023e-31
5.8051e-32
9.04267e-31
-8.65521e-32
9.52749e-31
-1.87923e-31
9.17332e-31
6.96964e-32
8.07016e-31
3.19446e-31
7.65686e-31
3.18904e-32
7.22286e-31
9.73118e-32
6.29827e-31
1.58715e-31
5.65888e-31
1.78152e-31
5.39892e-31
-9.11965e-32
2.50661e-31
6.5137e-31
4.38065e-31
-3.08094e-31
1.99769e-31
-3.29575e-31
9.44547e-31
-4.24108e-30
-3.62638e-27
-3.45835e-31
-8.1765e-30
3.38878e-31
-1.72295e-30
-5.99249e-32
6.73114e-31
-1.17523e-31
3.00566e-33
-6.06211e-31
6.48034e-31
-9.29793e-31
6.84127e-31
-1.27086e-30
7.09517e-31
-1.4467e-30
5.18928e-31
-1.5038e-30
4.05682e-31
-1.37016e-30
-1.2473e-31
-1.11156e-30
-6.11345e-31
-8.66068e-31
-4.04006e-31
-6.36372e-31
-4.47899e-31
-4.38266e-31
-6.27746e-31
-3.74768e-31
-1.65865e-31
-3.95722e-31
1.33418e-31
-3.89887e-31
-2.56347e-31
-4.1485e-31
-1.34553e-31
-5.08122e-31
3.99437e-31
-5.39639e-31
1.97833e-31
-4.70927e-31
-2.00004e-31
-3.65985e-31
-1.72165e-31
-2.39705e-31
-2.08911e-31
-1.03104e-31
-2.72536e-31
2.08384e-32
-1.84802e-31
1.55648e-31
-3.3314e-31
2.73737e-31
-3.90735e-31
3.24253e-31
-6.82537e-32
3.52991e-31
1.26975e-33
4.05205e-31
-1.89018e-31
4.55882e-31
-1.36097e-31
5.07778e-31
-1.03648e-31
5.70787e-31
-1.70649e-31
6.26312e-31
-7.61305e-32
6.89684e-31
-8.92736e-32
7.71393e-31
-2.28503e-31
8.34437e-31
-1.28236e-31
8.79554e-31
-2.48993e-32
9.38191e-31
-1.35544e-31
1.00462e-30
-1.80369e-31
1.05905e-30
-1.12527e-31
1.10312e-30
-5.64189e-32
1.15893e-30
-9.55714e-32
1.23517e-30
-2.23319e-31
1.29713e-30
-1.8639e-31
1.31775e-30
3.864e-32
1.35924e-30
-1.26851e-31
1.39174e-30
-2.20178e-31
1.35103e-30
1.11203e-31
1.25067e-30
4.19927e-31
1.1708e-30
1.12383e-31
1.10317e-30
1.65452e-31
9.59384e-31
3.03561e-31
8.76653e-31
2.62297e-31
7.76668e-31
1.07142e-32
4.12918e-31
1.01697e-30
7.17566e-31
-6.1095e-31
-2.66932e-33
3.91779e-31
9.4198e-31
-8.65098e-30
-3.61774e-27
-1.56122e-30
-1.52694e-29
5.56564e-31
-3.83805e-30
1.80518e-32
1.20879e-30
-9.96628e-32
1.20769e-31
-8.67834e-31
1.4097e-30
-1.32612e-30
1.14932e-30
-1.81311e-30
1.19758e-30
-2.03129e-30
7.40736e-31
-2.05092e-30
4.30019e-31
-1.82909e-30
-3.41731e-31
-1.4775e-30
-9.64224e-31
-1.10296e-30
-7.74943e-31
-7.69816e-31
-7.79789e-31
-5.34979e-31
-8.61321e-31
-4.52136e-31
-2.46629e-31
-4.66767e-31
1.48546e-31
-5.20209e-31
-2.03639e-31
-6.03788e-31
-5.06491e-32
-6.96962e-31
4.93876e-31
-7.17682e-31
2.20125e-31
-6.38572e-31
-2.77472e-31
-4.85297e-31
-3.2423e-31
-2.9762e-31
-3.93868e-31
-1.02778e-31
-4.64903e-31
8.58218e-32
-3.7154e-31
2.60851e-31
-5.06658e-31
3.92221e-31
-5.20418e-31
4.67992e-31
-1.43098e-31
5.17829e-31
-4.75528e-32
5.69576e-31
-2.39504e-31
6.29322e-31
-1.93775e-31
6.99825e-31
-1.72141e-31
7.78074e-31
-2.46723e-31
8.63358e-31
-1.60092e-31
9.60028e-31
-1.84937e-31
1.06068e-30
-3.27969e-31
1.14785e-30
-2.14207e-31
1.2235e-30
-1.00234e-31
1.29866e-30
-2.09833e-31
1.37787e-30
-2.58806e-31
1.44908e-30
-1.83009e-31
1.5156e-30
-1.21356e-31
1.59371e-30
-1.72016e-31
1.68459e-30
-3.11877e-31
1.75715e-30
-2.57586e-31
1.80613e-30
-9.07847e-33
1.85349e-30
-1.73405e-31
1.86877e-30
-2.34542e-31
1.81716e-30
1.62578e-31
1.72577e-30
5.10828e-31
1.60103e-30
2.36846e-31
1.51123e-30
2.55475e-31
1.31173e-30
5.03885e-31
1.21765e-30
3.58076e-31
1.03767e-30
1.9294e-31
6.04327e-31
1.45267e-30
1.02018e-30
-1.02468e-30
-2.10454e-31
1.62377e-30
7.31578e-31
-1.10129e-29
-3.60672e-27
-2.3219e-30
-2.39616e-29
7.516e-31
-6.91051e-30
9.02881e-32
1.88037e-30
-8.57354e-32
3.00115e-31
-1.14334e-30
2.47472e-30
-1.7478e-30
1.75507e-30
-2.38965e-30
1.8425e-30
-2.65606e-30
1.01037e-30
-2.64003e-30
4.12424e-31
-2.32733e-30
-6.54689e-31
-1.87671e-30
-1.41208e-30
-1.36566e-30
-1.28147e-30
-9.21441e-31
-1.2216e-30
-6.43449e-31
-1.13861e-30
-5.37525e-31
-3.51763e-31
-5.44649e-31
1.5734e-31
-6.57831e-31
-9.0318e-32
-8.01575e-31
9.39661e-32
-8.96487e-31
5.90056e-31
-9.07506e-31
2.31794e-31
-8.18003e-31
-3.65752e-31
-6.1502e-31
-5.26135e-31
-3.63037e-31
-6.4516e-31
-1.05993e-31
-7.20423e-31
1.5179e-31
-6.27913e-31
3.72075e-31
-7.23714e-31
5.21817e-31
-6.68792e-31
6.27419e-31
-2.47327e-31
7.02184e-31
-1.21219e-31
7.56088e-31
-2.92417e-31
8.25964e-31
-2.61731e-31
9.14646e-31
-2.58512e-31
1.00628e-30
-3.37764e-31
1.11832e-30
-2.70259e-31
1.24514e-30
-3.10551e-31
1.36236e-30
-4.43604e-31
1.47322e-30
-3.24546e-31
1.58139e-30
-2.07835e-31
1.67834e-30
-3.06061e-31
1.77782e-30
-3.57607e-31
1.87536e-30
-2.79123e-31
1.97293e-30
-2.17902e-31
2.0807e-30
-2.77687e-31
2.18901e-30
-4.1849e-31
2.27145e-30
-3.37696e-31
2.34211e-30
-7.81326e-32
2.38676e-30
-2.1688e-31
2.37479e-30
-2.21569e-31
2.30383e-30
2.33996e-31
2.21824e-30
5.96115e-31
2.04744e-30
4.06989e-31
1.94457e-30
3.58572e-31
1.69118e-30
7.5813e-31
1.59807e-30
4.53044e-31
1.32888e-30
4.64866e-31
8.27787e-31
1.95714e-30
1.32773e-30
-1.52196e-30
-4.14281e-31
3.36758e-30
3.17355e-31
-1.34029e-29
-3.59332e-27
-2.2988e-30
-3.50658e-29
9.26634e-31
-1.01359e-29
1.65053e-31
2.63267e-30
-7.32941e-32
5.41303e-31
-1.43139e-30
3.81797e-30
-2.19717e-30
2.52352e-30
-3.00536e-30
2.65188e-30
-3.32842e-30
1.33606e-30
-3.27843e-30
3.67701e-31
-2.87125e-30
-1.05913e-30
-2.31365e-30
-1.9646e-30
-1.65647e-30
-1.93482e-30
-1.09119e-30
-1.78682e-30
-7.62477e-31
-1.46598e-30
-6.29382e-31
-4.83991e-31
-6.28074e-31
1.56271e-31
-8.02556e-31
8.27714e-32
-1.00966e-30
3.06894e-31
-1.10911e-30
6.90065e-31
-1.1116e-30
2.36604e-31
-1.01117e-30
-4.65363e-31
-7.55929e-31
-7.78345e-31
-4.3523e-31
-9.62943e-31
-1.10826e-31
-1.04395e-30
2.21311e-31
-9.59646e-31
4.9141e-31
-9.9189e-31
6.62696e-31
-8.39439e-31
8.0004e-31
-3.83507e-31
9.0077e-31
-2.21231e-31
9.57195e-31
-3.48034e-31
1.03739e-30
-3.39408e-31
1.14506e-30
-3.65889e-31
1.25171e-30
-4.42646e-31
1.39298e-30
-4.10257e-31
1.55332e-30
-4.69297e-31
1.69075e-30
-5.80042e-31
1.82884e-30
-4.61805e-31
1.97242e-30
-3.50868e-31
2.09327e-30
-4.26314e-31
2.21361e-30
-4.76549e-31
2.33753e-30
-4.01659e-31
2.46478e-30
-3.43254e-31
2.6017e-30
-4.12625e-31
2.7261e-30
-5.4026e-31
2.81955e-30
-4.29096e-31
2.91212e-30
-1.6837e-31
2.95822e-30
-2.61329e-31
2.92067e-30
-1.83497e-31
2.83503e-30
3.19179e-31
2.75552e-30
6.75182e-31
2.53988e-30
6.21826e-31
2.41886e-30
4.79172e-31
2.10557e-30
1.07204e-30
2.00385e-30
5.56725e-31
1.63663e-30
8.35063e-31
1.0633e-30
2.53345e-30
1.63483e-30
-2.09064e-30
-6.13098e-31
5.61725e-30
-2.95745e-31
-1.60949e-29
-3.57722e-27
-2.87658e-30
-4.82894e-29
1.07321e-30
-1.40856e-29
2.43336e-31
3.4609e-30
-6.06411e-32
8.4656e-31
-1.73031e-30
5.49059e-30
-2.67283e-30
3.46823e-30
-3.66011e-30
3.6399e-30
-4.0489e-30
1.72455e-30
-3.96767e-30
2.86396e-31
-3.4631e-30
-1.56481e-30
-2.79066e-30
-2.6318e-30
-1.97776e-30
-2.74698e-30
-1.28145e-30
-2.47983e-30
-8.93908e-31
-1.85286e-30
-7.29154e-31
-6.46661e-31
-7.18409e-31
1.47065e-31
-9.55462e-31
3.24484e-31
-1.2287e-30
5.81232e-31
-1.33541e-30
7.96734e-31
-1.3304e-30
2.33514e-31
-1.21803e-30
-5.75874e-31
-9.07725e-31
-1.08808e-30
-5.13861e-31
-1.35581e-30
-1.16926e-31
-1.44134e-30
2.94245e-31
-1.36891e-30
6.17877e-31
-1.3149e-30
8.13104e-31
-1.03307e-30
9.83157e-31
-5.52142e-31
1.11019e-30
-3.46764e-31
1.16956e-30
-4.05997e-31
1.26102e-30
-4.29871e-31
1.38993e-30
-4.915e-31
1.51545e-30
-5.66213e-31
1.69092e-30
-5.83238e-31
1.8902e-30
-6.67204e-31
2.05305e-30
-7.42046e-31
2.22205e-30
-6.29805e-31
2.40279e-30
-5.30828e-31
2.54707e-30
-5.69722e-31
2.68608e-30
-6.14844e-31
2.83297e-30
-5.47567e-31
2.98692e-30
-4.95517e-31
3.1511e-30
-5.74227e-31
3.29246e-30
-6.78787e-31
3.40009e-30
-5.33672e-31
3.52006e-30
-2.85854e-31
3.57439e-30
-3.13729e-31
3.51707e-30
-1.25108e-31
3.4212e-30
4.15137e-31
3.34597e-30
7.493e-31
3.08335e-30
8.83802e-31
2.9323e-30
6.29403e-31
2.55324e-30
1.45185e-30
2.42831e-30
6.83637e-31
1.96404e-30
1.30267e-30
1.30839e-30
3.19337e-30
1.95954e-30
-2.7382e-30
-8.10502e-31
8.38956e-30
-1.10626e-30
-1.85684e-29
-3.55865e-27
-4.21407e-30
-6.26378e-29
1.19077e-30
-1.94871e-29
3.22782e-31
4.32356e-30
-4.71002e-32
1.21887e-30
-2.04002e-30
7.48682e-30
-3.17475e-30
4.60138e-30
-4.35525e-30
4.82114e-30
-4.81979e-30
2.1924e-30
-4.71126e-30
1.81068e-31
-4.10664e-30
-2.16497e-30
-3.31134e-30
-3.42409e-30
-2.33249e-30
-3.72093e-30
-1.49448e-30
-3.3183e-30
-1.03882e-30
-2.30796e-30
-8.36893e-31
-8.48863e-31
-8.15135e-31
1.26146e-31
-1.11549e-30
6.24754e-31
-1.45744e-30
9.23749e-31
-1.57474e-30
9.14755e-31
-1.56403e-30
2.2351e-31
-1.43946e-30
-6.98343e-31
-1.07215e-30
-1.45482e-30
-6.0124e-31
-1.82609e-30
-1.26649e-31
-1.91382e-30
3.6871e-31
-1.8618e-30
7.50859e-31
-1.69403e-30
9.74393e-31
-1.25508e-30
1.18031e-30
-7.56758e-31
1.33609e-30
-5.01676e-31
1.40048e-30
-4.69603e-31
1.5047e-30
-5.33465e-31
1.6562e-30
-6.4119e-31
1.80208e-30
-7.09951e-31
2.01299e-30
-7.92416e-31
2.25241e-30
-9.05288e-31
2.44201e-30
-9.3023e-31
2.6431e-30
-8.30308e-31
2.86251e-30
-7.49975e-31
3.03218e-30
-7.39265e-31
3.19271e-30
-7.74949e-31
3.36568e-30
-7.19244e-31
3.55049e-30
-6.7827e-31
3.74536e-30
-7.66347e-31
3.9076e-30
-8.37869e-31
4.03104e-30
-6.53461e-31
4.17946e-30
-4.31845e-31
4.23984e-30
-3.71899e-31
4.16083e-30
-4.53518e-32
4.04977e-30
5.25861e-31
3.97485e-30
8.23122e-31
3.66163e-30
1.19579e-30
3.47814e-30
8.12124e-31
3.03309e-30
1.89746e-30
2.88404e-30
8.34535e-31
2.32349e-30
1.86658e-30
1.57714e-30
3.94439e-30
2.30874e-30
-3.46564e-30
-1.01085e-30
1.17115e-29
-2.11716e-30
-2.07757e-29
-3.53788e-27
-5.14112e-30
-7.82792e-29
1.28071e-30
-2.59114e-29
4.00621e-31
5.19363e-30
-3.38312e-32
1.65202e-30
-2.36104e-30
9.81463e-30
-3.7041e-30
5.95067e-30
-5.09264e-30
6.20925e-30
-5.6439e-30
2.74799e-30
-5.51292e-30
5.19503e-32
-4.80607e-30
-2.86957e-30
-3.87961e-30
-4.34465e-30
-2.72407e-30
-4.88018e-30
-1.73267e-30
-4.30682e-30
-1.19838e-30
-2.84027e-30
-9.52925e-31
-1.09139e-30
-9.18145e-31
9.34902e-32
-1.28215e-30
9.90128e-31
-1.69538e-30
1.34194e-30
-1.82722e-30
1.05095e-30
-1.81315e-30
2.11446e-31
-1.67639e-30
-8.33065e-31
-1.25041e-30
-1.87804e-30
-6.98495e-31
-2.37538e-30
-1.40643e-31
-2.47062e-30
4.44754e-31
-2.44465e-30
8.91328e-31
-2.1385e-30
1.14859e-30
-1.51053e-30
1.39431e-30
-1.00008e-30
1.5817e-30
-6.87285e-31
1.65333e-30
-5.39012e-31
1.77135e-30
-6.48379e-31
1.94591e-30
-8.12879e-31
2.1127e-30
-8.74424e-31
2.3593e-30
-1.03641e-30
2.63928e-30
-1.18367e-30
2.85686e-30
-1.14645e-30
3.09178e-30
-1.06372e-30
3.35229e-30
-1.00933e-30
3.55097e-30
-9.36543e-31
3.73736e-30
-9.60174e-31
3.94107e-30
-9.22101e-31
4.16116e-30
-8.95936e-31
4.39027e-30
-9.92675e-31
4.57574e-30
-1.01993e-30
4.7155e-30
-7.90003e-31
4.89076e-30
-6.03495e-31
4.95411e-30
-4.32685e-31
4.85049e-30
5.93747e-32
4.72032e-30
6.56059e-31
4.64357e-30
8.98508e-31
4.27777e-30
1.55981e-30
4.06308e-30
1.02574e-30
3.54959e-30
2.41125e-30
3.3774e-30
1.00864e-30
2.71296e-30
2.53509e-30
1.87174e-30
4.79064e-30
2.67073e-30
-4.26008e-30
-1.21144e-30
1.55968e-29
-3.32855e-30
-2.33456e-29
-3.51452e-27
-5.53804e-30
-9.60934e-29
1.33791e-30
-3.27872e-29
4.7708e-31
6.06053e-30
-2.10372e-32
2.14964e-30
-2.69227e-30
1.24868e-29
-4.26075e-30
7.52005e-30
-5.87281e-30
7.82725e-30
-6.52337e-30
3.40211e-30
-6.37581e-30
-9.03885e-32
-5.56539e-30
-3.68057e-30
-4.49955e-30
-5.40672e-30
-3.15623e-30
-6.21725e-30
-1.99903e-30
-5.46137e-30
-1.37468e-30
-3.46295e-30
-1.07848e-30
-1.38857e-30
-1.02816e-30
4.50926e-32
-1.45574e-30
1.42169e-30
-1.94278e-30
1.83039e-30
-2.09326e-30
1.20434e-30
-2.0783e-30
1.98105e-31
-1.92937e-30
-9.79865e-31
-1.44287e-30
-2.36234e-30
-8.05673e-31
-3.01262e-30
-1.58616e-31
-3.11281e-30
5.22783e-31
-3.12628e-30
1.03971e-30
-2.65467e-30
1.3359e-30
-1.80551e-30
1.62464e-30
-1.28716e-30
1.84568e-30
-9.07205e-31
1.92621e-30
-6.17586e-31
2.05902e-30
-7.77729e-31
2.25772e-30
-1.00972e-30
2.44723e-30
-1.06151e-30
2.73167e-30
-1.31856e-30
3.05499e-30
-1.50439e-30
3.304e-30
-1.39423e-30
3.576e-30
-1.33503e-30
3.88034e-30
-1.31284e-30
4.11066e-30
-1.1664e-30
4.32482e-30
-1.17357e-30
4.56083e-30
-1.15664e-30
4.81705e-30
-1.14987e-30
5.08149e-30
-1.25375e-30
5.29103e-30
-1.22571e-30
5.44879e-30
-9.43989e-31
5.65132e-30
-8.02463e-31
5.71946e-30
-4.98144e-31
5.59216e-30
1.88272e-31
5.44376e-30
8.04564e-31
5.36349e-30
9.77326e-31
4.9438e-30
1.97769e-30
4.69396e-30
1.27451e-30
4.10612e-30
2.99883e-30
3.90471e-30
1.2126e-30
3.12822e-30
3.31616e-30
2.18796e-30
5.73636e-30
3.04156e-30
-5.10848e-30
-1.40627e-30
2.0048e-29
-4.73483e-30
-2.62821e-29
-3.48824e-27
-6.22392e-30
-1.16156e-28
1.35493e-30
-4.03607e-29
5.52595e-31
6.85764e-30
-7.89163e-33
2.71241e-30
-3.03183e-30
1.55128e-29
-4.84336e-30
9.33504e-30
-6.69567e-30
9.67914e-30
-7.45969e-30
4.16994e-30
-7.30289e-30
-2.44243e-31
-6.38864e-30
-4.59199e-30
-5.17529e-30
-6.62065e-30
-3.63304e-30
-7.75236e-30
-2.29705e-30
-6.7938e-30
-1.57007e-30
-4.18801e-30
-1.2149e-30
-1.74226e-30
-1.14578e-30
-2.65557e-32
-1.63623e-30
1.91257e-30
-2.19922e-30
2.39479e-30
-2.37266e-30
1.37789e-30
-2.3596e-30
1.84775e-31
-2.19868e-30
-1.13851e-30
-1.65012e-30
-2.90859e-30
-9.2354e-31
-3.73757e-30
-1.81299e-31
-3.85458e-30
6.02168e-31
-3.90511e-30
1.19552e-30
-3.24608e-30
1.53609e-30
-2.14454e-30
1.87125e-30
-1.62049e-30
2.12822e-30
-1.16164e-30
2.2197e-30
-7.06886e-31
2.36866e-30
-9.23235e-31
2.59304e-30
-1.2303e-30
2.80769e-30
-1.27328e-30
3.1326e-30
-1.64052e-30
3.50232e-30
-1.87197e-30
3.78638e-30
-1.67668e-30
4.09852e-30
-1.64654e-30
4.44906e-30
-1.66257e-30
4.71314e-30
-1.42897e-30
4.9566e-30
-1.41674e-30
5.2261e-30
-1.42445e-30
5.51945e-30
-1.44045e-30
5.82061e-30
-1.55128e-30
6.05613e-30
-1.45718e-30
6.23445e-30
-1.11756e-30
6.46579e-30
-1.02924e-30
6.54093e-30
-5.7012e-31
6.39095e-30
3.39517e-31
6.22459e-30
9.70043e-31
6.1374e-30
1.063e-30
5.66175e-30
2.45117e-30
5.37048e-30
1.56408e-30
4.70377e-30
3.66546e-30
4.46559e-30
1.45288e-30
3.57329e-30
4.21296e-30
2.52725e-30
6.78796e-30
3.42759e-30
-6.00313e-30
-1.59453e-30
2.50739e-29
-6.32915e-30
-2.90058e-29
-3.45923e-27
-7.32887e-30
-1.37824e-28
1.32722e-30
-4.902e-29
6.24939e-31
7.56267e-30
5.62067e-33
3.32956e-30
-3.37866e-30
1.88983e-29
-5.45119e-30
1.14134e-29
-7.56128e-30
1.17962e-29
-8.45431e-30
5.06399e-30
-8.29717e-30
-3.95792e-31
-7.27998e-30
-5.60649e-30
-5.91151e-30
-7.98471e-30
-4.15906e-30
-9.49975e-30
-2.63055e-30
-8.31787e-30
-1.7871e-30
-5.02964e-30
-1.36356e-30
-2.16461e-30
-1.27153e-30
-1.18588e-31
-1.82329e-30
2.46348e-30
-2.46399e-30
3.03684e-30
-2.66488e-30
1.57921e-30
-2.65699e-30
1.78553e-31
-2.48478e-30
-1.30898e-30
-1.87301e-30
-3.51815e-30
-1.05322e-30
-4.55509e-30
-2.09781e-31
-4.69595e-30
6.81988e-31
-4.79435e-30
1.35845e-30
-3.92012e-30
1.74972e-30
-2.53428e-30
2.1354e-30
-2.00414e-30
2.43125e-30
-1.45504e-30
2.53637e-30
-8.08889e-31
2.70308e-30
-1.08722e-30
2.95453e-30
-1.4795e-30
3.19642e-30
-1.51252e-30
3.56384e-30
-2.00561e-30
3.98227e-30
-2.2882e-30
4.30444e-30
-1.99668e-30
4.65949e-30
-2.00054e-30
5.05862e-30
-2.06074e-30
5.35912e-30
-1.72914e-30
5.63454e-30
-1.69154e-30
5.93998e-30
-1.72826e-30
6.27294e-30
-1.77035e-30
6.61315e-30
-1.88778e-30
6.8773e-30
-1.71666e-30
7.07839e-30
-1.31392e-30
7.3394e-30
-1.28539e-30
7.42201e-30
-6.48714e-31
7.24926e-30
5.13744e-31
7.06336e-30
1.15613e-30
6.96526e-30
1.15873e-30
6.43131e-30
2.98263e-30
6.09359e-30
1.89962e-30
5.34459e-30
4.41383e-30
5.06393e-30
1.73523e-30
4.05224e-30
5.22931e-30
2.89279e-30
7.95378e-30
3.8318e-30
-6.93588e-30
-1.77829e-30
3.06881e-29
-8.10717e-30
-3.14627e-29
-3.42776e-27
-8.42918e-30
-1.60845e-28
1.25157e-30
-5.87009e-29
6.9115e-31
8.11338e-30
1.90451e-32
4.00344e-30
-3.73197e-30
2.26536e-29
-6.08346e-30
1.37639e-29
-8.46945e-30
1.41829e-29
-9.5086e-30
6.10883e-30
-9.36174e-30
-5.38716e-31
-8.24384e-30
-6.7247e-30
-6.71315e-30
-9.50993e-30
-4.73927e-30
-1.14694e-29
-3.00385e-30
-1.00507e-29
-2.02877e-30
-6.00198e-30
-1.52619e-30
-2.66554e-30
-1.40611e-30
-2.34221e-31
-2.01675e-30
3.07464e-30
-2.73645e-30
3.75571e-30
-2.96955e-30
1.81505e-30
-2.97056e-30
1.82074e-31
-2.78799e-30
-1.48908e-30
-2.11227e-30
-4.19146e-30
-1.19566e-30
-5.46865e-30
-2.44919e-31
-5.64289e-30
7.61786e-31
-5.79732e-30
1.52857e-30
-4.68433e-30
1.97745e-30
-2.98117e-30
2.41827e-30
-2.44282e-30
2.75628e-30
-1.79051e-30
2.87793e-30
-9.25534e-31
3.06409e-30
-1.27139e-30
3.344e-30
-1.75669e-30
3.61518e-30
-1.78029e-30
4.02705e-30
-2.41407e-30
4.49649e-30
-2.75505e-30
4.86002e-30
-2.3582e-30
5.261e-30
-2.40013e-30
5.71148e-30
-2.50955e-30
6.05153e-30
-2.06782e-30
6.36189e-30
-2.00151e-30
6.70592e-30
-2.07111e-30
7.08101e-30
-2.14294e-30
7.46257e-30
-2.26547e-30
7.75779e-30
-2.00628e-30
7.98369e-30
-1.53383e-30
8.27495e-30
-1.57134e-30
8.36544e-30
-7.3539e-31
8.17003e-30
7.11161e-31
7.96307e-30
1.36303e-30
7.85046e-30
1.26933e-30
7.25592e-30
3.5738e-30
6.86731e-30
2.2858e-30
6.03167e-30
5.24857e-30
5.7027e-30
2.06596e-30
4.5659e-30
6.37089e-30
3.28598e-30
9.24062e-30
4.25289e-30
-7.89598e-30
-1.95723e-30
3.69032e-29
-1.0064e-29
-3.40126e-29
-3.39375e-27
-9.43055e-30
-1.85447e-28
1.12429e-30
-6.92564e-29
7.48915e-31
8.49095e-30
3.20213e-32
4.72546e-30
-4.08993e-30
2.67769e-29
-6.73847e-30
1.64189e-29
-9.41942e-30
1.68675e-29
-1.06234e-29
7.31444e-30
-1.04994e-29
-6.57591e-31
-9.28458e-30
-7.9355e-30
-7.58526e-30
-1.12052e-29
-5.37875e-30
-1.36652e-29
-3.42155e-30
-1.20051e-29
-2.29863e-30
-7.12168e-30
-1.70491e-30
-3.25879e-30
-1.55047e-30
-3.87494e-31
-2.21641e-30
3.73901e-30
-3.0158e-30
4.5587e-30
-3.28598e-30
2.08722e-30
-3.29992e-30
1.9877e-31
-3.10846e-30
-1.67755e-30
-2.3685e-30
-4.92999e-30
-1.35164e-30
-6.48191e-30
-2.8748e-31
-6.70483e-30
8.40821e-31
-6.92528e-30
1.70553e-30
-5.54697e-30
2.21955e-30
-3.49254e-30
2.72053e-30
-2.94158e-30
3.1043e-30
-2.17178e-30
3.24573e-30
-1.06678e-30
3.45322e-30
-1.47563e-30
3.76306e-30
-2.06255e-30
4.06578e-30
-2.07975e-30
4.52423e-30
-2.86907e-30
5.04729e-30
-3.27472e-30
5.45584e-30
-2.76379e-30
5.90609e-30
-2.84929e-30
6.41079e-30
-3.01326e-30
6.79357e-30
-2.44879e-30
7.14186e-30
-2.3488e-30
7.52705e-30
-2.45449e-30
7.94649e-30
-2.55928e-30
8.37151e-30
-2.68621e-30
8.70017e-30
-2.32976e-30
8.95315e-30
-1.78101e-30
9.27535e-30
-1.88758e-30
9.37467e-30
-8.29843e-31
9.15714e-30
9.31487e-31
8.92811e-30
1.59211e-30
8.79722e-30
1.39782e-30
8.13984e-30
4.22846e-30
7.6951e-30
2.72785e-30
6.76773e-30
6.17499e-30
6.38367e-30
2.45192e-30
5.11537e-30
7.64443e-30
3.7081e-30
1.06551e-29
4.69061e-30
-8.87102e-30
-2.12946e-30
4.37284e-29
-1.21929e-29
-3.67192e-29
-3.35702e-27
-1.05042e-29
-2.11668e-28
9.37505e-31
-8.06965e-29
7.95334e-31
8.6195e-30
4.35786e-32
5.47671e-30
-4.45138e-30
3.12741e-29
-7.41472e-30
1.93783e-29
-1.041e-29
1.98661e-29
-1.17994e-29
8.71098e-30
-1.17125e-29
-7.37429e-31
-1.04065e-29
-9.23595e-30
-8.53333e-30
-1.3067e-29
-6.08366e-30
-1.61131e-29
-3.88906e-30
-1.41959e-29
-2.60054e-30
-8.40671e-30
-1.90221e-30
-3.95381e-30
-1.70581e-30
-5.80501e-31
-2.42218e-30
4.46227e-30
-3.3012e-30
5.43793e-30
-3.61335e-30
2.40445e-30
-3.64462e-30
2.31676e-31
-3.44608e-30
-1.87311e-30
-2.64213e-30
-5.72986e-30
-1.52207e-30
-7.6007e-30
-3.38467e-31
-7.88551e-30
9.18344e-31
-8.18117e-30
1.88899e-30
-6.51667e-30
2.47625e-30
-4.07705e-30
3.0429e-30
-3.50475e-30
3.47638e-30
-2.60288e-30
3.64128e-30
-1.22794e-30
3.87232e-30
-1.70204e-30
4.21381e-30
-2.39945e-30
4.55043e-30
-2.41262e-30
5.0577e-30
-3.3724e-30
5.63707e-30
-3.84991e-30
6.09444e-30
-3.21907e-30
6.59746e-30
-3.35037e-30
7.15937e-30
-3.57354e-30
7.58823e-30
-2.87728e-30
7.97748e-30
-2.73718e-30
8.40645e-30
-2.88199e-30
8.87256e-30
-3.02253e-30
9.34322e-30
-3.15255e-30
9.70784e-30
-2.68882e-30
9.99042e-30
-2.05688e-30
1.03443e-29
-2.23461e-30
1.04537e-29
-9.33519e-31
1.02147e-29
1.17367e-30
9.96269e-30
1.84501e-30
9.80922e-30
1.54951e-30
9.0866e-30
4.94756e-30
8.57977e-30
3.23145e-30
7.55544e-30
7.19817e-30
7.10884e-30
2.90015e-30
5.70281e-30
9.0559e-30
4.16088e-30
1.22047e-29
5.14612e-30
-9.84788e-30
-2.29373e-30
5.11744e-29
-1.44858e-29
-3.94191e-29
-3.3176e-27
-1.17104e-29
-2.39357e-28
6.84191e-31
-9.3093e-29
8.26873e-31
8.48473e-30
5.27796e-32
6.24371e-30
-4.81419e-30
3.61441e-29
-8.10943e-30
2.26765e-29
-1.14394e-29
2.31978e-29
-1.30365e-29
1.03086e-29
-1.30034e-29
-7.6636e-31
-1.1614e-29
-1.06151e-29
-9.563e-30
-1.51199e-29
-6.86007e-30
-1.88082e-29
-4.41222e-30
-1.66385e-29
-2.93915e-30
-9.8766e-30
-2.12108e-30
-4.77007e-30
-1.87359e-30
-8.24673e-31
-2.63414e-30
5.22224e-30
-3.5918e-30
6.39816e-30
-3.95079e-30
2.76639e-30
-4.00413e-30
2.87625e-31
-3.80071e-30
-2.07334e-30
-2.9336e-30
-6.59403e-30
-1.70771e-30
-8.82438e-30
-3.98759e-31
-9.19193e-30
9.93464e-31
-9.5685e-30
2.07841e-30
-7.59708e-30
2.74764e-30
-4.74331e-30
3.38604e-30
-4.14079e-30
3.87376e-30
-3.08784e-30
4.06628e-30
-1.41719e-30
4.32336e-30
-1.95596e-30
4.69835e-30
-2.77182e-30
5.07145e-30
-2.78252e-30
5.62978e-30
-3.92626e-30
6.26817e-30
-4.48446e-30
6.7784e-30
-3.72645e-30
7.33782e-30
-3.90812e-30
7.96004e-30
-4.19375e-30
8.43853e-30
-3.35387e-30
8.87205e-30
-3.16989e-30
9.34758e-30
-3.35573e-30
9.86274e-30
-3.53464e-30
1.03813e-29
-3.66555e-30
1.07846e-29
-3.08598e-30
1.10995e-29
-2.36395e-30
1.14859e-29
-2.61353e-30
1.16065e-29
-1.04785e-30
1.13469e-29
1.43748e-30
1.10709e-29
2.12084e-30
1.08901e-29
1.72804e-30
1.00999e-29
5.7344e-30
9.52452e-30
3.80364e-30
8.39792e-30
8.3232e-30
7.88066e-30
3.41886e-30
6.33034e-30
1.06116e-29
4.64601e-30
1.38975e-29
5.6205e-30
-1.08134e-29
-2.44936e-30
5.92506e-29
-1.6934e-29
-4.20641e-29
-3.27551e-27
-1.30123e-29
-2.68405e-28
3.58032e-31
-1.06463e-28
8.38865e-31
8.00875e-30
5.78145e-32
7.03086e-30
-5.17785e-30
4.13834e-29
-8.82121e-30
2.6314e-29
-1.25057e-29
2.68878e-29
-1.43343e-29
1.21436e-29
-1.4374e-29
-7.19696e-31
-1.29112e-29
-1.20739e-29
-1.06797e-29
-1.73389e-29
-7.7143e-30
-2.1765e-29
-4.99717e-30
-1.93503e-29
-3.31942e-30
-1.15497e-29
-2.36486e-30
-5.72263e-30
-2.05569e-30
-1.13256e-30
-2.85251e-30
6.02358e-30
-3.8867e-30
7.43309e-30
-4.29709e-30
3.18181e-30
-4.37749e-30
3.71566e-31
-4.17194e-30
-2.27554e-30
-3.2431e-30
-7.51964e-30
-1.90943e-30
-1.01546e-29
-4.69497e-31
-1.06245e-29
1.06511e-30
-1.10995e-29
2.27319e-30
-8.80156e-30
3.0338e-30
-5.50057e-30
3.75063e-30
-4.85447e-30
4.29756e-30
-3.63143e-30
4.52237e-30
-1.63839e-30
4.80839e-30
-2.23812e-30
5.2189e-30
-3.17772e-30
5.63111e-30
-3.19012e-30
6.24289e-30
-4.53367e-30
6.94311e-30
-5.17982e-30
7.51037e-30
-4.29042e-30
8.13011e-30
-4.52577e-30
8.8159e-30
-4.87848e-30
9.34778e-30
-3.88408e-30
9.82903e-30
-3.65034e-30
1.0354e-29
-3.87923e-30
1.09207e-29
-4.09793e-30
1.14895e-29
-4.2295e-30
1.19342e-29
-3.52356e-30
1.22842e-29
-2.70608e-30
1.27041e-29
-3.02559e-30
1.28374e-29
-1.17439e-30
1.25579e-29
1.7202e-30
1.22569e-29
2.42291e-30
1.20439e-29
1.93889e-30
1.11835e-29
6.59133e-30
1.05328e-29
4.45045e-30
9.29831e-30
9.55574e-30
8.70163e-30
4.01665e-30
7.00005e-30
1.23188e-29
5.16533e-30
1.5741e-29
6.11467e-30
-1.17529e-29
-2.59563e-30
6.79681e-29
-1.95282e-29
-4.46977e-29
-3.23081e-27
-1.43933e-29
-2.9871e-28
-4.78835e-32
-1.20805e-28
8.2586e-31
7.13743e-30
5.65439e-32
7.79703e-30
-5.54002e-30
4.69773e-29
-9.54643e-30
3.032e-29
-1.3606e-29
3.09502e-29
-1.56917e-29
1.42338e-29
-1.58256e-29
-5.79146e-31
-1.4302e-29
-1.35886e-29
-1.18896e-29
-1.97465e-29
-8.65354e-30
-2.49987e-29
-5.65092e-30
-2.23486e-29
-3.74715e-30
-1.34503e-29
-2.63766e-30
-6.82869e-30
-2.25424e-30
-1.51359e-30
-3.07761e-30
6.84615e-30
-4.18505e-30
8.54237e-30
-4.65116e-30
3.64921e-30
-4.76374e-30
4.88499e-31
-4.55907e-30
-2.47605e-30
-3.57068e-30
-8.50284e-30
-2.12784e-30
-1.15926e-29
-5.51608e-31
-1.21965e-29
1.13233e-30
-1.27788e-29
2.47269e-30
-1.01375e-29
3.3347e-30
-6.35948e-30
4.13731e-30
-5.65377e-30
4.74908e-30
-4.23858e-30
5.01143e-30
-1.89778e-30
5.32963e-30
-2.55197e-30
5.77786e-30
-3.62254e-30
6.23205e-30
-3.63908e-30
6.89969e-30
-5.19625e-30
7.66455e-30
-5.9401e-30
8.29323e-30
-4.91607e-30
8.97731e-30
-5.20812e-30
9.73012e-30
-5.62901e-30
1.03194e-29
-4.47231e-30
1.08521e-29
-4.18201e-30
1.14296e-29
-4.45493e-30
1.20503e-29
-4.71505e-30
1.26718e-29
-4.84526e-30
1.31607e-29
-4.0058e-30
1.35488e-29
-3.08595e-30
1.4003e-29
-3.47147e-30
1.41506e-29
-1.31434e-30
1.38523e-29
2.02369e-30
1.35255e-29
2.75131e-30
1.32749e-29
2.1878e-30
1.23417e-29
7.52101e-30
1.16083e-29
5.17951e-30
1.02599e-29
1.09016e-29
9.5744e-30
4.70364e-30
7.71412e-30
1.41848e-29
5.72071e-30
1.77429e-29
6.62954e-30
-1.26514e-29
-2.73169e-30
7.73374e-29
-2.2258e-29
-4.7342e-29
-3.18345e-27
-1.58668e-29
-3.30178e-28
-5.43598e-31
-1.36126e-28
7.81669e-31
5.82476e-30
4.59678e-32
8.53099e-30
-5.90021e-30
5.29332e-29
-1.02827e-29
3.47003e-29
-1.47371e-29
3.54088e-29
-1.7107e-29
1.66083e-29
-1.7359e-29
-3.19683e-31
-1.57903e-29
-1.51522e-29
-1.31986e-29
-2.23318e-29
-9.68517e-30
-2.85036e-29
-6.38114e-30
-2.56456e-29
-4.22882e-30
-1.55988e-29
-2.94407e-30
-8.11097e-30
-2.47196e-30
-1.98484e-30
-3.30996e-30
7.68226e-30
-4.48565e-30
9.71797e-30
-5.0113e-30
4.17985e-30
-5.1615e-30
6.41481e-31
-4.96129e-30
-2.67151e-30
-3.91625e-30
-9.54312e-30
-2.36356e-30
-1.31406e-29
-6.46125e-31
-1.39094e-29
1.19388e-30
-1.46158e-29
2.67599e-30
-1.16153e-29
3.65018e-30
-7.3296e-30
4.5465e-30
-6.54604e-30
5.22935e-30
-4.91845e-30
5.53519e-30
-2.19997e-30
5.88922e-30
-2.90199e-30
6.37767e-30
-4.10574e-30
6.87685e-30
-4.13305e-30
7.60287e-30
-5.91688e-30
8.43538e-30
-6.76706e-30
9.13003e-30
-5.60683e-30
9.88269e-30
-5.95813e-30
1.07062e-29
-6.44993e-30
1.13571e-29
-5.1204e-30
1.19451e-29
-4.76863e-30