/*--------------------------------*- C++ -*----------------------------------*\
| =========                 |                                                 |
| \\      /  F ield         | foam-extend: Open Source CFD                    |
|  \\    /   O peration     | Version:     4.0                                |
|   \\  /    A nd           | Web:         http://www.foam-extend.org         |
|    \\/     M anipulation  |                                                 |
\*---------------------------------------------------------------------------*/
FoamFile
{
    version     2.0;
    format      ascii;
    class       volScalarField;
    location    "8";
    object      dC1;
}
// * * * * * * * * * * * * * * * * * * * * * * * * * * * * * * * * * * * * * //

dimensions      [0 -1 0 0 0 0 0];

internalField   nonuniform List<scalar> 
6960
(
-6.74027e-11
4.63211e-11
2.93212e-11
-4.70464e-12
-1.66836e-12
-6.23532e-13
-3.39676e-13
-1.81636e-13
-1.25771e-13
-7.30839e-14
-5.28085e-14
-3.50241e-14
-2.2083e-14
-1.90785e-14
-1.22298e-14
-6.81746e-15
-1.25767e-14
-8.38912e-15
-1.13624e-14
-1.63064e-16
-1.96371e-15
1.72778e-15
1.0339e-15
-4.996e-16
-3.407e-15
-5.64132e-15
4.9856e-15
-2.56392e-15
8.97546e-15
-4.43048e-15
-3.29251e-15
-9.67976e-16
3.73312e-15
-7.01522e-15
-2.38351e-15
-4.09048e-15
-9.07607e-15
2.95944e-15
-9.44037e-15
-2.06779e-15
-9.05873e-15
-8.86444e-15
-4.41314e-15
-9.00321e-15
-1.52205e-14
-2.06501e-14
-2.46782e-14
-3.96037e-14
-2.89282e-14
-4.83259e-14
-7.52558e-14
-1.26454e-13
-1.76876e-13
-3.52867e-13
-6.28934e-13
-1.67299e-12
-4.69822e-12
2.93321e-11
4.63205e-11
-6.77372e-11
-1.48476e-10
1.1298e-10
5.14844e-11
-9.55034e-12
-3.4726e-12
-1.28784e-12
-6.99343e-13
-3.79165e-13
-2.42653e-13
-1.56698e-13
-1.06644e-13
-7.72819e-14
-5.67046e-14
-4.13385e-14
-3.26301e-14
-2.50459e-14
-2.13302e-14
-1.24449e-14
-1.01481e-14
-9.90874e-15
-6.85563e-15
-9.78384e-16
-8.98587e-16
4.78784e-16
3.88578e-16
3.54577e-15
2.60209e-15
4.16681e-15
6.84522e-15
3.89272e-15
4.76702e-15
1.51962e-15
2.52229e-15
4.09395e-15
2.77556e-15
3.63598e-15
1.10675e-15
1.00267e-15
-1.40513e-15
-5.38805e-15
-7.53217e-15
-9.652e-15
-1.47035e-14
-1.7885e-14
-2.21698e-14
-3.08781e-14
-4.21885e-14
-5.47409e-14
-7.68413e-14
-1.07192e-13
-1.55945e-13
-2.44318e-13
-3.79027e-13
-7.00537e-13
-1.28999e-12
-3.47059e-12
-9.55076e-12
5.14817e-11
1.12979e-10
-1.48298e-10
-1.12518e-10
9.86549e-11
2.87192e-11
-8.7054e-12
-3.27815e-12
-1.20005e-12
-6.56274e-13
-3.52444e-13
-2.25375e-13
-1.42542e-13
-1.00482e-13
-7.11653e-14
-5.1209e-14
-3.75568e-14
-2.78007e-14
-2.18506e-14
-1.53801e-14
-1.10884e-14
-8.74995e-15
-4.93355e-15
-4.19803e-15
-4.29518e-15
-9.29812e-16
-1.45023e-15
3.57353e-16
2.19963e-15
2.83107e-15
2.18575e-15
3.38965e-15
3.38271e-15
2.27249e-15
4.23966e-15
2.48065e-15
1.15533e-15
7.97973e-16
5.6552e-16
-1.5786e-15
-1.92901e-15
-2.55004e-15
-5.50254e-15
-6.60236e-15
-1.0162e-14
-1.26878e-14
-1.64972e-14
-2.23883e-14
-2.82795e-14
-3.70398e-14
-5.22707e-14
-7.07281e-14
-1.00957e-13
-1.44027e-13
-2.24567e-13
-3.51563e-13
-6.57082e-13
-1.19784e-12
-3.27959e-12
-8.70509e-12
2.87196e-11
9.8656e-11
-1.12467e-10
-3.66464e-11
4.29272e-11
5.50582e-12
-6.82836e-12
-2.64605e-12
-9.57835e-13
-5.26235e-13
-2.78076e-13
-1.79717e-13
-1.12865e-13
-7.86073e-14
-5.40054e-14
-4.03878e-14
-2.97019e-14
-2.4189e-14
-1.67644e-14
-1.29445e-14
-1.06755e-14
-6.57113e-15
-5.67602e-15
-3.25781e-15
-1.59248e-15
-3.43475e-16
5.89806e-16
1.02002e-15
1.24206e-15
1.34961e-15
1.20043e-15
2.39739e-15
2.34882e-15
2.498e-15
1.88738e-15
2.92127e-15
1.84228e-15
2.26902e-15
9.12465e-16
4.51028e-16
-2.0782e-15
-2.30371e-15
-2.77903e-15
-4.25701e-15
-7.69523e-15
-7.39686e-15
-1.34337e-14
-1.7205e-14
-2.35298e-14
-2.98442e-14
-3.95968e-14
-5.53758e-14
-7.85344e-14
-1.12594e-13
-1.77695e-13
-2.78531e-13
-5.24164e-13
-9.57484e-13
-2.64537e-12
-6.82929e-12
5.5053e-12
4.29264e-11
-3.66248e-11
1.50858e-12
1.22088e-11
-5.48183e-12
-4.73144e-12
-1.87574e-12
-6.71668e-13
-3.70023e-13
-1.95073e-13
-1.25799e-13
-7.82013e-14
-5.6153e-14
-3.84172e-14
-2.76862e-14
-2.0213e-14
-1.49707e-14
-1.25247e-14
-9.2322e-15
-6.31786e-15
-5.44356e-15
-4.19109e-15
-2.83107e-15
-2.42514e-15
-2.31412e-15
-3.60822e-16
4.51028e-17
1.66533e-16
3.08781e-16
8.70831e-16
1.28716e-15
1.3739e-15
1.49186e-15
1.63758e-15
4.54498e-16
1.37043e-15
1.38778e-16
-3.95517e-16
-8.32667e-16
-5.16948e-16
-1.87003e-15
-2.99413e-15
-3.54924e-15
-4.56232e-15
-7.9832e-15
-1.0044e-14
-1.12896e-14
-1.45092e-14
-2.13198e-14
-2.89178e-14
-3.79592e-14
-5.50671e-14
-7.89334e-14
-1.26624e-13
-1.95313e-13
-3.7002e-13
-6.73055e-13
-1.87761e-12
-4.73131e-12
-5.48207e-12
1.22093e-11
1.51789e-12
1.02161e-11
5.89698e-13
-6.34375e-12
-2.54327e-12
-1.02955e-12
-3.68889e-13
-2.01276e-13
-1.05166e-13
-6.80601e-14
-4.28269e-14
-2.95701e-14
-1.96961e-14
-1.58866e-14
-1.12757e-14
-8.60076e-15
-6.60583e-15
-5.36376e-15
-3.81986e-15
-3.54231e-15
-1.86656e-15
-1.88738e-15
-8.18789e-16
2.77556e-16
-1.13451e-15
-1.30451e-15
5.72459e-16
6.66134e-16
1.43288e-15
1.34268e-15
1.42247e-16
3.98986e-16
3.7817e-16
1.20043e-15
-5.6552e-16
6.73073e-16
2.18575e-16
8.32667e-17
-1.15533e-15
-6.45317e-16
-1.14839e-15
-1.80411e-15
-3.08087e-15
-4.34028e-15
-4.48946e-15
-6.89379e-15
-1.01551e-14
-1.11924e-14
-1.50886e-14
-2.03969e-14
-3.00246e-14
-4.18138e-14
-6.80289e-14
-1.04958e-13
-2.02036e-13
-3.67421e-13
-1.02792e-12
-2.54419e-12
-6.34409e-12
5.88706e-13
1.02191e-11
1.1083e-12
1.24397e-13
-7.06574e-13
-3.02879e-13
-1.20494e-13
-4.16993e-14
-2.39149e-14
-1.24796e-14
-7.93809e-15
-4.99253e-15
-3.30638e-15
-3.10169e-15
-1.19349e-15
-1.78677e-15
-1.28023e-15
4.16334e-16
-3.71231e-16
2.01228e-16
7.97973e-17
7.77156e-16
-8.25728e-16
4.96131e-16
6.93889e-18
1.76595e-15
-3.33067e-16
-4.12864e-16
-7.5287e-16
-7.66748e-16
-6.55725e-16
-1.52656e-16
-6.93889e-18
-1.80411e-16
-5.72459e-16
8.29198e-16
-1.11716e-15
-1.22818e-15
1.83881e-16
8.32667e-17
7.14706e-16
-8.91648e-16
-7.73687e-16
-9.22873e-16
4.54498e-16
-2.15106e-16
-3.36536e-16
-1.38778e-17
-2.35922e-15
-2.54657e-15
-2.67147e-15
-3.34802e-15
-5.37417e-15
-7.52176e-15
-1.283e-14
-2.29781e-14
-4.19317e-14
-1.21726e-13
-3.01256e-13
-7.06723e-13
1.23661e-13
1.1089e-12
-1.73483e-11
5.3561e-12
8.46113e-12
1.97571e-12
8.3665e-13
2.96627e-13
1.64261e-13
8.44047e-14
5.42101e-14
3.41185e-14
2.34812e-14
1.67887e-14
1.22125e-14
9.67282e-15
6.74807e-15
3.9968e-15
3.61516e-15
1.42594e-15
2.41474e-15
1.11369e-15
2.00187e-15
-5.27356e-16
4.82253e-16
-1.46411e-15
1.42247e-15
4.51028e-17
7.91034e-16
2.25514e-16
4.16334e-17
-1.12063e-15
-5.16948e-16
-8.7777e-16
3.40006e-16
1.94289e-16
2.15106e-16
1.48145e-15
1.59595e-16
-1.52656e-16
-9.57567e-16
1.53696e-15
1.9984e-15
2.18228e-15
2.28637e-15
3.63598e-15
5.85643e-15
6.4497e-15
1.00718e-14
1.33435e-14
1.64209e-14
2.35922e-14
3.40908e-14
5.51607e-14
8.55288e-14
1.62828e-13
2.96319e-13
8.36175e-13
1.9756e-12
8.46099e-12
5.35647e-12
-1.73476e-11
-3.96629e-11
1.2845e-11
1.91339e-11
4.26859e-12
1.82759e-12
6.53047e-13
3.606e-13
1.8708e-13
1.21594e-13
7.35106e-14
5.17988e-14
3.52496e-14
2.70339e-14
1.89397e-14
1.55848e-14
1.09773e-14
8.76035e-15
7.29972e-15
4.98906e-15
3.87884e-15
2.53964e-15
1.8284e-15
1.67921e-15
1.00614e-15
4.09395e-16
-7.04298e-16
-1.30798e-15
1.9082e-16
-2.74086e-16
6.59195e-16
5.13478e-16
2.25514e-16
-9.71445e-17
-3.1225e-17
1.02349e-15
-5.20417e-17
5.6205e-16
2.16147e-15
2.95597e-15
2.94903e-15
4.14946e-15
5.4054e-15
7.76462e-15
8.70484e-15
1.04083e-14
1.52309e-14
1.79232e-14
2.58508e-14
3.56867e-14
5.20278e-14
7.45584e-14
1.19526e-13
1.85671e-13
3.61575e-13
6.53342e-13
1.82994e-12
4.26935e-12
1.91344e-11
1.28447e-11
-3.96653e-11
-6.27674e-11
2.07454e-11
3.0088e-11
6.58208e-12
2.86281e-12
1.02641e-12
5.68753e-13
2.92332e-13
1.88193e-13
1.16813e-13
8.37629e-14
5.61079e-14
4.14321e-14
3.02154e-14
2.27596e-14
1.70836e-14
1.39402e-14
9.33975e-15
8.51749e-15
6.47052e-15
5.11743e-15
3.88578e-15
2.52229e-15
1.92554e-15
7.18176e-16
1.39125e-15
8.8124e-16
-3.81639e-17
-6.83481e-16
-1.11369e-15
-9.64506e-16
-1.26635e-15
-8.25728e-16
-6.52256e-16
3.01842e-16
1.62717e-15
1.60982e-15
2.158e-15
3.51802e-15
4.29864e-15
6.075e-15
8.01789e-15
9.53751e-15
1.39819e-14
1.75138e-14
2.19789e-14
2.96672e-14
4.24209e-14
5.57367e-14
8.24306e-14
1.16625e-13
1.8921e-13
2.92533e-13
5.66276e-13
1.02586e-12
2.86112e-12
6.58127e-12
3.00883e-11
2.07449e-11
-6.27699e-11
-8.52611e-11
2.82422e-11
4.07044e-11
8.92352e-12
3.93775e-12
1.41971e-12
7.85656e-13
4.05974e-13
2.63282e-13
1.60663e-13
1.12878e-13
7.85622e-14
5.76379e-14
4.02421e-14
3.19293e-14
2.49349e-14
1.83603e-14
1.52829e-14
1.05541e-14
8.84362e-15
5.46091e-15
5.01335e-15
3.1225e-15
2.5778e-15
1.92901e-15
6.07153e-16
-8.88178e-16
-1.1241e-15
1.73472e-17
-3.67761e-16
1.11022e-16
-4.996e-16
-4.92661e-16
9.47159e-16
2.11636e-16
1.20043e-15
1.68268e-15
2.63331e-15
4.58661e-15
7.5287e-15
8.08381e-15
1.16122e-14
1.49464e-14
1.88738e-14
2.46435e-14
3.30708e-14
4.28685e-14
5.76414e-14
7.8007e-14
1.14058e-13
1.62193e-13
2.6245e-13
4.05901e-13
7.89188e-13
1.4205e-12
3.93766e-12
8.92323e-12
4.07037e-11
2.82436e-11
-8.52653e-11
-1.06707e-10
3.50455e-11
5.07699e-11
1.1327e-11
5.07244e-12
1.84592e-12
1.02592e-12
5.28563e-13
3.40842e-13
2.09593e-13
1.47604e-13
9.86988e-14
7.55888e-14
5.51434e-14
4.23238e-14
3.11071e-14
2.54033e-14
1.94914e-14
1.51545e-14
1.05645e-14
9.12465e-15
6.49134e-15
5.12437e-15
2.41127e-15
1.54043e-15
1.16226e-15
1.17614e-15
5.82867e-16
-4.44089e-16
-7.28584e-17
-2.50494e-15
6.2797e-16
1.12063e-15
1.49186e-16
8.91648e-16
2.33841e-15
4.50334e-15
5.55112e-15
6.92155e-15
7.03951e-15
1.15845e-14
1.46307e-14
1.74583e-14
2.41474e-14
3.14436e-14
4.09603e-14
5.38285e-14
7.49609e-14
9.95731e-14
1.47177e-13
2.09534e-13
3.4131e-13
5.27786e-13
1.0232e-12
1.84506e-12
5.07215e-12
1.13284e-11
5.07699e-11
3.50442e-11
-1.06709e-10
-1.2712e-10
4.1105e-11
6.02799e-11
1.38257e-11
6.28228e-12
2.3079e-12
1.28354e-12
6.59972e-13
4.27471e-13
2.62557e-13
1.84523e-13
1.26885e-13
9.28771e-14
6.73038e-14
5.25795e-14
3.95552e-14
3.13603e-14
2.27179e-14
1.78919e-14
1.42525e-14
1.17788e-14
8.78464e-15
4.51722e-15
5.34295e-15
3.79211e-15
1.77289e-15
2.67147e-16
1.41553e-15
5.34295e-16
5.06539e-16
1.26288e-15
-8.7777e-16
-1.02696e-15
1.63411e-15
2.27596e-15
2.16493e-15
3.60129e-15
5.49213e-15
7.26849e-15
1.20355e-14
1.38084e-14
1.8225e-14
2.49141e-14
3.08538e-14
3.97599e-14
5.19966e-14
6.77861e-14
9.36889e-14
1.27495e-13
1.84682e-13
2.61596e-13
4.26173e-13
6.60746e-13
1.28529e-12
2.30704e-12
6.28281e-12
1.38242e-11
6.02808e-11
4.11078e-11
-1.27124e-10
-1.46696e-10
4.64691e-11
6.93084e-11
1.64496e-11
7.58767e-12
2.81532e-12
1.57117e-12
8.11868e-13
5.24546e-13
3.22315e-13
2.27568e-13
1.5379e-13
1.15071e-13
8.32182e-14
6.40009e-14
4.71047e-14
3.80043e-14
2.92405e-14
2.35124e-14
1.78017e-14
1.25837e-14
9.53751e-15
9.79772e-15
4.86763e-15
2.9525e-15
3.79557e-15
1.89432e-15
-8.04912e-16
6.17562e-16
-5.86337e-16
-1.04083e-17
1.79023e-15
3.35496e-15
1.3288e-15
1.87003e-15
4.98213e-15
5.64132e-15
7.10543e-15
1.09114e-14
1.31839e-14
1.87524e-14
2.36894e-14
2.84738e-14
3.68421e-14
4.73996e-14
6.33105e-14
8.03524e-14
1.14898e-13
1.5303e-13
2.2805e-13
3.23394e-13
5.25167e-13
8.12704e-13
1.57026e-12
2.81671e-12
7.58656e-12
1.64511e-11
6.93055e-11
4.64667e-11
-1.46698e-10
-1.65634e-10
5.11885e-11
7.79261e-11
1.92279e-11
9.0013e-12
3.38216e-12
1.88976e-12
9.765e-13
6.30631e-13
3.86784e-13
2.73479e-13
1.85199e-13
1.3858e-13
9.87682e-14
7.70148e-14
5.92894e-14
4.55469e-14
3.45939e-14
2.77764e-14
2.16702e-14
1.82424e-14
1.41241e-14
7.34135e-15
8.11157e-15
5.90153e-15
2.05738e-15
2.90046e-15
1.22125e-15
-7.28584e-17
1.69309e-15
1.11369e-15
-1.7937e-15
-1.13104e-15
1.36349e-15
4.19456e-15
5.61357e-15
7.56686e-15
1.15567e-14
1.23027e-14
1.70454e-14
1.95989e-14
2.68986e-14
3.43059e-14
4.72816e-14
5.86649e-14
7.91207e-14
1.02602e-13
1.36967e-13
1.86611e-13
2.72317e-13
3.86868e-13
6.3036e-13
9.76861e-13
1.89018e-12
3.38058e-12
9.00243e-12
1.92286e-11
7.79263e-11
5.11895e-11
-1.65639e-10
-1.84081e-10
5.53085e-11
8.61927e-11
2.21806e-11
1.05417e-11
4.00961e-12
2.24893e-12
1.16615e-12
7.52842e-13
4.63629e-13
3.25826e-13
2.2049e-13
1.65406e-13
1.2056e-13
9.16212e-14
7.03222e-14
5.49422e-14
4.18381e-14
3.31853e-14
2.57017e-14
1.97273e-14
1.45994e-14
1.1293e-14
7.56686e-15
6.85216e-15
4.80171e-15
1.97412e-15
2.97332e-15
2.83107e-15
1.56125e-16
7.97973e-17
2.01922e-15
2.9525e-15
3.61863e-15
4.25701e-15
6.30399e-15
8.78464e-15
9.70404e-15
1.59282e-14
1.96509e-14
2.71901e-14
3.55063e-14
4.28997e-14
5.23054e-14
6.98955e-14
9.18848e-14
1.18554e-13
1.67085e-13
2.2234e-13
3.2668e-13
4.62873e-13
7.54112e-13
1.16606e-12
2.24917e-12
4.01131e-12
1.05412e-11
2.21782e-11
8.61941e-11
5.53073e-11
-1.84088e-10
-2.02125e-10
5.88372e-11
9.41349e-11
2.53099e-11
1.22169e-11
4.71279e-12
2.65018e-12
1.37727e-12
8.89944e-13
5.47673e-13
3.85955e-13
2.63328e-13
1.95784e-13
1.40846e-13
1.0952e-13
8.08728e-14
6.58223e-14
4.90059e-14
3.83409e-14
2.96291e-14
2.37137e-14
1.82319e-14
1.54772e-14
1.09114e-14
6.62317e-15
6.13398e-15
3.75741e-15
3.03924e-15
6.93889e-16
2.36963e-15
2.55351e-15
1.34615e-15
3.00107e-15
3.47292e-15
5.39152e-15
7.76115e-15
1.03008e-14
1.45439e-14
1.75068e-14
2.57919e-14
3.05832e-14
3.81153e-14
5.13339e-14
6.47989e-14
8.22536e-14
1.09992e-13
1.4095e-13
1.94598e-13
2.60306e-13
3.84654e-13
5.48259e-13
8.88421e-13
1.37809e-12
2.65034e-12
4.71082e-12
1.22164e-11
2.53133e-11
9.41344e-11
5.88371e-11
-2.02127e-10
-2.19779e-10
6.17756e-11
1.01738e-10
2.86283e-11
1.40345e-11
5.49004e-12
3.09849e-12
1.61722e-12
1.04609e-12
6.43097e-13
4.54265e-13
3.07018e-13
2.29091e-13
1.65434e-13
1.28734e-13
9.69121e-14
7.46625e-14
5.97265e-14
4.82114e-14
3.52079e-14
2.91954e-14
2.25583e-14
1.80932e-14
1.25212e-14
1.05402e-14
7.09849e-15
6.12357e-15
4.38885e-15
3.53537e-15
1.13798e-15
7.87564e-16
4.38191e-15
3.48332e-15
5.90847e-15
7.82707e-15
8.61464e-15
1.33643e-14
1.78642e-14
2.39669e-14
2.72074e-14
3.66443e-14
4.69277e-14
5.72459e-14
7.82152e-14
9.64125e-14
1.2703e-13
1.66686e-13
2.28768e-13
3.09617e-13
4.54987e-13
6.43888e-13
1.04612e-12
1.61638e-12
3.09746e-12
5.4932e-12
1.4036e-11
2.86279e-11
1.01741e-10
6.17762e-11
-2.19784e-10
-2.37035e-10
6.4107e-11
1.08999e-10
3.21221e-11
1.59988e-11
6.35591e-12
3.59818e-12
1.88599e-12
1.21603e-12
7.52728e-13
5.28466e-13
3.58068e-13
2.68369e-13
1.94261e-13
1.48662e-13
1.12944e-13
8.93279e-14
6.94757e-14
5.3596e-14
4.42285e-14
3.31402e-14
2.566e-14
1.9474e-14
1.58762e-14
1.13035e-14
7.87564e-15
4.46171e-15
4.69416e-15
3.48332e-15
3.3272e-15
2.72005e-15
4.54844e-15
5.06192e-15
5.40193e-15
8.25728e-15
1.26218e-14
1.47382e-14
1.90889e-14
2.55143e-14
3.42434e-14
4.10852e-14
5.37209e-14
6.98677e-14
8.6018e-14
1.13382e-13
1.49925e-13
1.92565e-13
2.6926e-13
3.59501e-13
5.27578e-13
7.50566e-13
1.21789e-12
1.88561e-12
3.59971e-12
6.35456e-12
1.59974e-11
3.21223e-11
1.08996e-10
6.4107e-11
-2.37039e-10
-2.53847e-10
6.581e-11
1.15866e-10
3.57899e-11
1.81143e-11
7.30783e-12
4.15508e-12
2.18534e-12
1.41638e-12
8.72018e-13
6.15133e-13
4.19602e-13
3.12056e-13
2.25854e-13
1.73445e-13
1.31225e-13
1.03587e-13
7.87252e-14
6.48717e-14
4.88429e-14
4.04399e-14
3.09544e-14
2.36998e-14
1.91097e-14
1.38535e-14
1.37043e-14
1.06512e-14
4.63518e-15
5.44356e-15
5.08621e-15
4.43048e-15
2.17881e-15
7.21298e-15
9.88098e-15
1.00406e-14
1.44607e-14
1.94601e-14
2.44665e-14
2.83176e-14
3.84727e-14
4.89053e-14
6.42229e-14
7.81181e-14
1.05482e-13
1.32099e-13
1.75342e-13
2.26496e-13
3.13097e-13
4.17704e-13
6.15577e-13
8.74155e-13
1.41565e-12
2.18491e-12
4.15399e-12
7.30926e-12
1.81135e-11
3.57901e-11
1.15867e-10
6.58089e-11
-2.53851e-10
-2.70163e-10
6.68626e-11
1.22313e-10
3.96109e-11
2.03747e-11
8.35885e-12
4.77119e-12
2.52193e-12
1.63285e-12
1.00904e-12
7.10942e-13
4.83433e-13
3.59653e-13
2.60496e-13
2.03757e-13
1.53506e-13
1.2133e-13
9.30818e-14
7.40762e-14
5.97439e-14
4.42112e-14
3.68837e-14
2.85813e-14
2.35575e-14
1.95885e-14
1.03424e-14
7.87218e-15
8.64933e-15
5.12784e-15
5.51642e-15
8.43423e-15
8.31279e-15
6.4844e-15
8.21218e-15
1.41276e-14
1.53211e-14
2.17673e-14
3.00801e-14
3.80633e-14
4.63067e-14
5.99416e-14
7.45168e-14
9.43204e-14
1.18818e-13
1.51417e-13
2.02293e-13
2.61874e-13
3.58803e-13
4.837e-13
7.10782e-13
1.00871e-12
1.63255e-12
2.5227e-12
4.77198e-12
8.3555e-12
2.038e-11
3.96092e-11
1.22312e-10
6.68621e-11
-2.70167e-10
-2.85928e-10
6.72449e-11
1.28295e-10
4.35712e-11
2.27927e-11
9.5017e-12
5.454e-12
2.90056e-12
1.87695e-12
1.16537e-12
8.20892e-13
5.61284e-13
4.17028e-13
3.02817e-13
2.32526e-13
1.76192e-13
1.39052e-13
1.09565e-13
8.51472e-14
6.37962e-14
5.58061e-14
4.07209e-14
3.36398e-14
2.43451e-14
1.83707e-14
1.68927e-14
1.2039e-14
8.66321e-15
7.44196e-15
5.37417e-15
3.61863e-15
7.43502e-15
9.33975e-15
1.4086e-14
1.48041e-14
2.22773e-14
2.46747e-14
2.94938e-14
4.21607e-14
5.63855e-14
6.60548e-14
8.65592e-14
1.06463e-13
1.38414e-13
1.75641e-13
2.30597e-13
2.9891e-13
4.15092e-13
5.59226e-13
8.21909e-13
1.16341e-12
1.878e-12
2.89975e-12
5.44926e-12
9.50646e-12
2.27858e-11
4.35729e-11
1.28295e-10
6.72448e-11
-2.85929e-10
-3.01062e-10
6.69346e-11
1.3377e-10
4.76578e-11
2.53509e-11
1.07588e-11
6.19849e-12
3.31058e-12
2.15089e-12
1.33253e-12
9.3919e-13
6.40748e-13
4.76421e-13
3.45335e-13
2.68282e-13
2.02796e-13
1.5804e-13
1.21032e-13
9.92366e-14
7.91416e-14
6.14855e-14
5.25309e-14
3.91527e-14
3.1336e-14
2.51153e-14
1.90091e-14
1.54841e-14
1.21327e-14
1.232e-14
9.95384e-15
9.62425e-15
1.18898e-14
1.30625e-14
1.41276e-14
1.84401e-14
2.34986e-14
3.30048e-14
3.97252e-14
4.78263e-14
5.89043e-14
7.9492e-14
9.62563e-14
1.25136e-13
1.61857e-13
2.034e-13
2.70114e-13
3.48152e-13
4.79304e-13
6.40134e-13
9.36983e-13
1.33359e-12
2.14739e-12
3.31209e-12
6.20386e-12
1.07578e-11
2.53549e-11
4.76539e-11
1.33769e-10
6.69338e-11
-3.01072e-10
-3.15526e-10
6.59217e-11
1.38694e-10
5.18339e-11
2.80531e-11
1.21183e-11
7.02175e-12
3.77741e-12
2.44834e-12
1.5282e-12
1.0759e-12
7.3086e-13
5.48069e-13
3.97602e-13
3.07226e-13
2.30288e-13
1.85928e-13
1.43961e-13
1.11904e-13
9.04658e-14
7.15643e-14
5.30444e-14
4.46483e-14
3.73486e-14
2.70443e-14
2.23224e-14
1.69552e-14
1.55674e-14
1.13277e-14
1.05402e-14
1.31145e-14
1.06165e-14
1.36245e-14
1.87593e-14
2.37657e-14
2.69507e-14
3.373e-14
4.72886e-14
5.66873e-14
7.55125e-14
8.73017e-14
1.16258e-13
1.42306e-13
1.81605e-13
2.28741e-13
3.04208e-13
3.96076e-13
5.44433e-13
7.36015e-13
1.07555e-12
1.5259e-12
2.45265e-12
3.77716e-12
7.01899e-12
1.21182e-11
2.80552e-11
5.18363e-11
1.38694e-10
6.59222e-11
-3.15528e-10
-3.29244e-10
6.41935e-11
1.43037e-10
5.60895e-11
3.0893e-11
1.3587e-11
7.91535e-12
4.28271e-12
2.78517e-12
1.7364e-12
1.22442e-12
8.40009e-13
6.22176e-13
4.53082e-13
3.48263e-13
2.64198e-13
2.08777e-13
1.63314e-13
1.31398e-13
1.04174e-13
8.40404e-14
6.60028e-14
5.35232e-14
3.98917e-14
3.31575e-14
2.56635e-14
2.17708e-14
1.57756e-14
1.351e-14
1.44607e-14
1.05679e-14
1.59109e-14
1.77636e-14
1.9304e-14
2.2933e-14
3.37161e-14
4.18832e-14
4.72573e-14
6.52325e-14
8.27775e-14
1.03431e-13
1.28397e-13
1.60327e-13
2.09902e-13
2.69201e-13
3.50969e-13
4.54553e-13
6.2567e-13
8.36428e-13
1.22507e-12
1.73704e-12
2.78523e-12
4.28285e-12
7.91646e-12
1.35852e-11
3.08871e-11
5.60866e-11
1.43038e-10
6.41904e-11
-3.29248e-10
-3.4216e-10
6.17384e-11
1.46755e-10
6.03892e-11
3.38568e-11
1.517e-11
8.89053e-12
4.84452e-12
3.15507e-12
1.97385e-12
1.39233e-12
9.53095e-13
7.10786e-13
5.17003e-13
4.01283e-13
3.04836e-13
2.39267e-13
1.8217e-13
1.47923e-13
1.14003e-13
9.27626e-14
7.69732e-14
5.61842e-14
4.78437e-14
3.87815e-14
2.9976e-14
2.57676e-14
2.01922e-14
1.82458e-14
1.42907e-14
1.97065e-14
1.80689e-14
2.01263e-14
2.84703e-14
3.26197e-14
3.866e-14
4.65739e-14
6.13641e-14
7.69593e-14
9.00356e-14
1.18659e-13
1.50428e-13
1.88478e-13
2.40277e-13
2.98251e-13
4.00954e-13
5.15005e-13
7.08503e-13
9.53251e-13
1.39276e-12
1.97611e-12
3.15535e-12
4.84403e-12
8.8922e-12
1.51711e-11
3.38589e-11
6.03912e-11
1.46755e-10
6.17384e-11
-3.42166e-10
-3.54222e-10
5.85708e-11
1.49813e-10
6.46997e-11
3.69383e-11
1.68676e-11
9.95026e-12
5.45921e-12
3.56077e-12
2.23513e-12
1.57448e-12
1.07932e-12
8.06979e-13
5.8669e-13
4.5353e-13
3.44599e-13
2.70572e-13
2.15442e-13
1.69999e-13
1.37283e-13
1.07775e-13
8.62817e-14
7.4489e-14
5.42968e-14
4.47697e-14
3.67172e-14
2.90913e-14
2.55213e-14
2.16424e-14
2.37622e-14
1.91756e-14
1.97169e-14
2.40502e-14
2.74676e-14
3.51941e-14
4.46934e-14
5.59101e-14
7.10959e-14
8.29337e-14
1.10519e-13
1.30871e-13
1.70166e-13
2.10342e-13
2.71502e-13
3.46903e-13
4.51819e-13
5.88335e-13
8.05658e-13
1.08082e-12
1.57805e-12
2.23551e-12
3.55842e-12
5.45781e-12
9.9505e-12
1.68686e-11
3.69393e-11
6.47003e-11
1.49811e-10
5.85685e-11
-3.54225e-10
-3.65377e-10
5.46771e-11
1.52182e-10
6.9003e-11
4.01316e-11
1.86836e-11
1.10936e-11
6.13194e-12
4.00836e-12
2.52576e-12
1.78456e-12
1.22643e-12
9.098e-13
6.63452e-13
5.14068e-13
3.88033e-13
3.10797e-13
2.38604e-13
1.91364e-13
1.50893e-13
1.25712e-13
9.66137e-14
7.80348e-14
6.36921e-14
5.19862e-14
4.3382e-14
3.4802e-14
2.81268e-14
2.64441e-14
2.15973e-14
2.49523e-14
2.83523e-14
2.82066e-14
3.34247e-14
3.87572e-14
5.17329e-14
6.46774e-14
7.59046e-14
1.02088e-13
1.22621e-13
1.56444e-13
1.9339e-13
2.37647e-13
3.08722e-13
3.91357e-13
5.14075e-13
6.61575e-13
9.13322e-13
1.22398e-12
1.77751e-12
2.52234e-12
4.01035e-12
6.13233e-12
1.10911e-11
1.86835e-11
4.01311e-11
6.90027e-11
1.52184e-10
5.46798e-11
-3.65381e-10
-3.75576e-10
5.00822e-11
1.53842e-10
7.32471e-11
4.34086e-11
2.06141e-11
1.23216e-11
6.86327e-12
4.4979e-12
2.84338e-12
2.00591e-12
1.38107e-12
1.03031e-12
7.54237e-13
5.77476e-13
4.37539e-13
3.48818e-13
2.72005e-13
2.23353e-13
1.73174e-13
1.36221e-13
1.14242e-13
8.65696e-14
7.11237e-14
5.78253e-14
4.46101e-14
3.97876e-14
3.48298e-14
3.13916e-14
2.80297e-14
2.79915e-14
2.8276e-14
3.72584e-14
4.41557e-14
5.29368e-14
5.9612e-14
6.82024e-14
9.13748e-14
1.08916e-13
1.40315e-13
1.73004e-13
2.16202e-13
2.7487e-13
3.47014e-13
4.35832e-13
5.81233e-13
7.53987e-13
1.02476e-12
1.3822e-12
2.00671e-12
2.84479e-12
4.49668e-12
6.86587e-12
1.23256e-11
2.0614e-11
4.34146e-11
7.3249e-11
1.53843e-10
5.00755e-11
-3.75587e-10
-3.84785e-10
4.47901e-11
1.54761e-10
7.74092e-11
4.67735e-11
2.26539e-11
1.36464e-11
7.66602e-12
5.03186e-12
3.18821e-12
2.25547e-12
1.55539e-12
1.15961e-12
8.44755e-13
6.59705e-13
5.02577e-13
3.94244e-13
3.10939e-13
2.42417e-13
1.99937e-13
1.59824e-13
1.24064e-13
1.06158e-13
8.57266e-14
6.93022e-14
5.81722e-14
4.79755e-14
4.00929e-14
3.34663e-14
3.74041e-14
3.38791e-14
3.68455e-14
3.97599e-14
4.16264e-14
5.1105e-14
6.90628e-14
8.67188e-14
1.0068e-13
1.30514e-13
1.59595e-13
1.91458e-13
2.5021e-13
3.05971e-13
3.97921e-13
5.01672e-13
6.55e-13
8.47104e-13
1.16154e-12
1.55632e-12
2.25597e-12
3.19104e-12
5.03317e-12
7.6648e-12
1.3647e-11
2.26554e-11
4.6765e-11
7.74104e-11
1.54755e-10
4.47937e-11
-3.84787e-10
-3.92955e-10
3.88313e-11
1.54919e-10
8.14506e-11
5.01805e-11
2.48144e-11
1.50647e-11
8.52828e-12
5.61681e-12
3.57504e-12
2.53179e-12
1.74965e-12
1.30016e-12
9.56929e-13
7.33007e-13
5.61846e-13
4.45116e-13
3.4741e-13
2.82833e-13
2.19352e-13
1.8226e-13
1.49269e-13
1.18738e-13
9.3623e-14
7.96412e-14
6.19713e-14
5.14658e-14
4.65947e-14
4.12344e-14
3.50622e-14
3.65333e-14
3.89862e-14
4.45546e-14
5.61981e-14
6.48301e-14
7.30908e-14
9.21242e-14
1.20653e-13
1.41186e-13
1.80644e-13
2.26173e-13
2.76477e-13
3.50178e-13
4.40075e-13
5.62599e-13
7.36348e-13
9.53668e-13
1.3026e-12
1.75056e-12
2.52957e-12
3.5764e-12
5.61639e-12
8.52821e-12
1.50584e-11
2.48134e-11
5.01843e-11
8.14497e-11
1.54923e-10
3.88291e-11
-3.92962e-10
-4.00056e-10
3.2224e-11
1.54304e-10
8.53265e-11
5.36378e-11
2.70689e-11
1.65629e-11
9.46462e-12
6.25259e-12
4.00114e-12
2.82595e-12
1.9586e-12
1.46331e-12
1.06725e-12
8.31436e-13
6.32879e-13
4.97598e-13
3.91045e-13
3.15536e-13
2.53988e-13
2.05076e-13
1.61978e-13
1.33119e-13
1.08143e-13
8.71317e-14
7.55992e-14
6.19678e-14
5.13548e-14
5.10529e-14
4.76806e-14
4.86972e-14
4.69139e-14
5.67463e-14
6.0868e-14
7.358e-14
9.3564e-14
1.10176e-13
1.30656e-13
1.67633e-13
2.03067e-13
2.51892e-13
3.16407e-13
3.90087e-13
5.08628e-13
6.2815e-13
8.29819e-13
1.06851e-12
1.45944e-12
1.95635e-12
2.83025e-12
3.9976e-12
6.25019e-12
9.4666e-12
1.65655e-11
2.70682e-11
5.36403e-11
8.53266e-11
1.54303e-10
3.22215e-11
-4.0006e-10
-4.06071e-10
2.50104e-11
1.52909e-10
8.90029e-11
5.71083e-11
2.94324e-11
1.81654e-11
1.04737e-11
6.93896e-12
4.4497e-12
3.15692e-12
2.19762e-12
1.63811e-12
1.19912e-12
9.28708e-13
7.08888e-13
5.64063e-13
4.41189e-13
3.49835e-13
2.81219e-13
2.27214e-13
1.86032e-13
1.45536e-13
1.23592e-13
9.99478e-14
8.18477e-14
7.11479e-14
6.27658e-14
5.2687e-14
4.83294e-14
5.54348e-14
6.07084e-14
5.77836e-14
6.79144e-14
8.07722e-14
9.98854e-14
1.22891e-13
1.50085e-13
1.80949e-13
2.28914e-13
2.80276e-13
3.5345e-13
4.38607e-13
5.54636e-13
7.12128e-13
9.27952e-13
1.20288e-12
1.63709e-12
2.19508e-12
3.15753e-12
4.45449e-12
6.94126e-12
1.04741e-11
1.8168e-11
2.94364e-11
5.71075e-11
8.90024e-11
1.52913e-10
2.50122e-11
-4.0608e-10
-4.10977e-10
1.72095e-11
1.50739e-10
9.24393e-11
6.05645e-11
3.18992e-11
1.98585e-11
1.15565e-11
7.68806e-12
4.9597e-12
3.52016e-12
2.44573e-12
1.82912e-12
1.34806e-12
1.04054e-12
7.94635e-13
6.30333e-13
4.90243e-13
3.99576e-13
3.18259e-13
2.61048e-13
2.06765e-13
1.72196e-13
1.35895e-13
1.18402e-13
9.50386e-14
8.40161e-14
7.06588e-14
6.36054e-14
6.20649e-14
5.60316e-14
5.55354e-14
6.94236e-14
8.72531e-14
9.67733e-14
1.13597e-13
1.38365e-13
1.72046e-13
2.0986e-13
2.56961e-13
3.14977e-13
3.9951e-13
4.96308e-13
6.35256e-13
7.94913e-13
1.04098e-12
1.34375e-12
1.82668e-12
2.44886e-12
3.51934e-12
4.95587e-12
7.68587e-12
1.15557e-11
1.98554e-11
3.18959e-11
6.05654e-11
9.24467e-11
1.50733e-10
1.7206e-11
-4.10979e-10
-4.14748e-10
8.88479e-12
1.4777e-10
9.55962e-11
6.39939e-11
3.44305e-11
2.16425e-11
1.27225e-11
8.48691e-12
5.49718e-12
3.91247e-12
2.73163e-12
2.03308e-12
1.50041e-12
1.16138e-12
8.85191e-13
7.00211e-13
5.57231e-13
4.48086e-13
3.56305e-13
2.87152e-13
2.37522e-13
1.95791e-13
1.61943e-13
1.3009e-13
1.11071e-13
8.87138e-14
7.87773e-14
7.22027e-14
6.9722e-14
6.97983e-14
7.84095e-14
8.60492e-14
8.65211e-14
1.11921e-13
1.29449e-13
1.5684e-13
1.87926e-13
2.35111e-13
2.92957e-13
3.58828e-13
4.44849e-13
5.527e-13
7.02622e-13
8.88529e-13
1.16218e-12
1.50446e-12
2.03605e-12
2.72999e-12
3.908e-12
5.50033e-12
8.4915e-12
1.2721e-11
2.16438e-11
3.44313e-11
6.39953e-11
9.55906e-11
1.47773e-10
8.88086e-12
-4.14758e-10
-4.17392e-10
6.58293e-14
1.44046e-10
9.84373e-11
6.73626e-11
3.7057e-11
2.35134e-11
1.39562e-11
9.35522e-12
6.09029e-12
4.33098e-12
3.0381e-12
2.27052e-12
1.67096e-12
1.2987e-12
9.9391e-13
7.9137e-13
6.1906e-13
4.95194e-13
4.00256e-13
3.33289e-13
2.60687e-13
2.15564e-13
1.74489e-13
1.44933e-13
1.22829e-13
1.11147e-13
9.4133e-14
8.67778e-14
8.06299e-14
8.16916e-14
8.02379e-14
8.70762e-14
1.10068e-13
1.19762e-13
1.48208e-13
1.75665e-13
2.18138e-13
2.61527e-13
3.25195e-13
3.96148e-13
4.9849e-13
6.20979e-13
7.90149e-13
9.90878e-13
1.29679e-12
1.66917e-12
2.27432e-12
3.0356e-12
4.33666e-12
6.09249e-12
9.35078e-12
1.39628e-11
2.351e-11
3.70578e-11
6.73581e-11
9.84362e-11
1.44046e-10
6.69534e-14
-4.17393e-10
-4.18906e-10
-9.17943e-12
1.39534e-10
1.00913e-10
7.06341e-11
3.97328e-11
2.54643e-11
1.52758e-11
1.02804e-11
6.72799e-12
4.80919e-12
3.36659e-12
2.5256e-12
1.86583e-12
1.43683e-12
1.10914e-12
8.81292e-13
6.94608e-13
5.59372e-13
4.45168e-13
3.58564e-13
2.98407e-13
2.42618e-13
2.03993e-13
1.71741e-13
1.38899e-13
1.15581e-13
1.00146e-13
9.45077e-14
9.46326e-14
8.63441e-14
1.01325e-13
1.04073e-13
1.14003e-13
1.43083e-13
1.64899e-13
2.01231e-13
2.46077e-13
2.92991e-13
3.61801e-13
4.53377e-13
5.61079e-13
6.89174e-13
8.77732e-13
1.10972e-12
1.43609e-12
1.86468e-12
2.52042e-12
3.36602e-12
4.80186e-12
6.72617e-12
1.02852e-11
1.52735e-11
2.54678e-11
3.97351e-11
7.06354e-11
1.00915e-10
1.39537e-10
-9.18573e-12
-4.1891e-10
-4.19278e-10
-1.88207e-11
1.34307e-10
1.03004e-10
7.37865e-11
4.24635e-11
2.75079e-11
1.66771e-11
1.12844e-11
7.42319e-12
5.30253e-12
3.73924e-12
2.79047e-12
2.07031e-12
1.61248e-12
1.23437e-12
9.81108e-13
7.71116e-13
6.25468e-13
5.08343e-13
4.11851e-13
3.28799e-13
2.72067e-13
2.15578e-13
1.82698e-13
1.54068e-13
1.37015e-13
1.29986e-13
1.12566e-13
1.0078e-13
1.0577e-13
1.0696e-13
1.17958e-13
1.37106e-13
1.5548e-13
1.86597e-13
2.26187e-13
2.69351e-13
3.37855e-13
4.14641e-13
4.92155e-13
6.25167e-13
7.76417e-13
9.77527e-13
1.232e-12
1.61247e-12
2.06886e-12
2.79898e-12
3.74026e-12
5.30816e-12
7.41968e-12
1.12737e-11
1.66811e-11
2.75022e-11
4.24597e-11
7.37917e-11
1.03002e-10
1.34309e-10
-1.88166e-11
-4.19292e-10
-4.18552e-10
-2.87702e-11
1.28356e-10
1.04665e-10
7.68042e-11
4.52209e-11
2.96005e-11
1.8153e-11
1.23222e-11
8.16016e-12
5.84555e-12
4.12768e-12
3.10022e-12
2.29673e-12
1.77407e-12
1.36826e-12
1.08718e-12
8.59264e-13
6.93012e-13
5.49932e-13
4.57013e-13
3.74346e-13
3.0204e-13
2.61055e-13
2.16185e-13
1.85834e-13
1.52104e-13
1.26985e-13
1.16487e-13
1.15689e-13
1.21049e-13
1.2217e-13
1.36859e-13
1.53547e-13
1.74732e-13
2.14655e-13
2.4895e-13
3.0765e-13
3.7206e-13
4.50813e-13
5.62213e-13
6.93025e-13
8.55309e-13
1.09832e-12
1.37073e-12
1.78393e-12
2.3046e-12
3.09113e-12
4.12825e-12
5.84816e-12
8.15891e-12
1.23351e-11
1.81531e-11
2.96108e-11
4.52267e-11
7.679e-11
1.0467e-10
1.28347e-10
-2.87719e-11
-4.18551e-10
-4.16716e-10
-3.89878e-11
1.21706e-10
1.05862e-10
7.95997e-11
4.7997e-11
3.17897e-11
1.97133e-11
1.34688e-11
8.95688e-12
6.44275e-12
4.56133e-12
3.42177e-12
2.54837e-12
1.98376e-12
1.51951e-12
1.20801e-12
9.56131e-13
7.7012e-13
6.25507e-13
5.09138e-13
4.12753e-13
3.45675e-13
2.81688e-13
2.35149e-13
1.96135e-13
1.73833e-13
1.55397e-13
1.46699e-13
1.40176e-13
1.30743e-13
1.3638e-13
1.55802e-13
1.71616e-13
2.02241e-13
2.30451e-13
2.84755e-13
3.3918e-13
4.12861e-13
5.12763e-13
6.23432e-13
7.75335e-13
9.5712e-13
1.20885e-12
1.52569e-12
1.97196e-12
2.53716e-12
3.4276e-12
4.56069e-12
6.43822e-12
8.95731e-12
1.34622e-11
1.97085e-11
3.17812e-11
4.79958e-11
7.96195e-11
1.05861e-10
1.21715e-10
-3.8991e-11
-4.16727e-10
-4.13818e-10
-4.94074e-11
1.1442e-10
1.06573e-10
8.22325e-11
5.07622e-11
3.40035e-11
2.13332e-11
1.46563e-11
9.81792e-12
7.06984e-12
5.02593e-12
3.78116e-12
2.81195e-12
2.1846e-12