/*--------------------------------*- C++ -*----------------------------------*\
| =========                 |                                                 |
| \\      /  F ield         | foam-extend: Open Source CFD                    |
|  \\    /   O peration     | Version:     4.0                                |
|   \\  /    A nd           | Web:         http://www.foam-extend.org         |
|    \\/     M anipulation  |                                                 |
\*---------------------------------------------------------------------------*/
FoamFile
{
    version     2.0;
    format      ascii;
    class       surfaceScalarField;
    location    "8";
    object      phi;
}
// * * * * * * * * * * * * * * * * * * * * * * * * * * * * * * * * * * * * * //

dimensions      [0 3 -1 0 0 0 0];

internalField   nonuniform List<scalar> 
13744
(
-1.59597e-08
1.596e-08
7.91839e-09
-2.38781e-08
1.06825e-10
7.81157e-09
3.59569e-11
7.0866e-11
7.18514e-12
2.87685e-11
3.6625e-12
3.5183e-12
1.61015e-12
2.05236e-12
1.04575e-12
5.65104e-13
7.0709e-13
3.37508e-13
5.79516e-13
1.27676e-13
5.07583e-13
7.03881e-14
4.76791e-13
3.4639e-14
4.62475e-13
1.42109e-14
4.52723e-13
4.88498e-15
4.47789e-13
3.33067e-15
4.40886e-13
6.66134e-15
4.30692e-13
7.99361e-15
4.18146e-13
1.70974e-14
4.02136e-13
1.5099e-14
3.80211e-13
2.17604e-14
3.56124e-13
2.5091e-14
3.27958e-13
2.59792e-14
2.94599e-13
3.53051e-14
2.59477e-13
3.68594e-14
2.21468e-13
3.61933e-14
1.793e-13
4.26326e-14
1.36747e-13
4.19664e-14
9.27322e-14
4.24105e-14
4.59489e-14
4.15223e-14
-1.88792e-15
4.86278e-14
-4.06643e-14
3.53051e-14
-9.71156e-14
5.88418e-14
-1.36534e-13
4.17444e-14
-1.74279e-13
3.75255e-14
-2.26079e-13
5.55112e-14
-2.59285e-13
2.9754e-14
-2.89611e-13
3.26406e-14
-3.32604e-13
3.59712e-14
-3.55956e-13
2.4647e-14
-3.75287e-13
2.02061e-14
-4.06917e-13
3.24185e-14
-4.18047e-13
1.53211e-14
-4.25771e-13
8.88178e-15
-4.45546e-13
1.9984e-14
-4.4762e-13
1.77636e-15
-4.47756e-13
3.33067e-15
-4.67179e-13
1.9984e-14
-4.76615e-13
1.22125e-14
-5.02561e-13
2.4647e-14
-5.84197e-13
8.12683e-14
-7.06945e-13
1.24567e-13
-1.04073e-12
3.39506e-13
-1.61469e-12
5.70433e-13
-3.66215e-12
2.0457e-12
-7.1798e-12
3.51541e-12
-3.5961e-11
2.87839e-11
-1.06825e-10
7.08615e-11
-7.91838e-09
7.81156e-09
1.59597e-08
-2.38781e-08
1.59597e-08
7.60306e-08
-6.00707e-08
1.05479e-08
4.16046e-08
3.3128e-10
1.80282e-08
1.15398e-10
2.86757e-10
2.48884e-11
1.19282e-10
1.32585e-11
1.51603e-11
6.00003e-12
9.30855e-12
4.00535e-12
2.55951e-12
2.6199e-12
1.7224e-12
2.10703e-12
6.42153e-13
1.7403e-12
4.42091e-13
1.58084e-12
1.86962e-13
1.4576e-12
1.34115e-13
1.39883e-12
7.10543e-14
1.3405e-12
6.59472e-14
1.29661e-12
4.92939e-14
1.25131e-12
5.77316e-14
1.20043e-12
5.9952e-14
1.14008e-12
7.39409e-14
1.07737e-12
7.81597e-14
1.00028e-12
9.4813e-14
9.14764e-13
1.11688e-13
8.2434e-13
1.23901e-13
7.21753e-13
1.36113e-13
6.11675e-13
1.54765e-13
4.99899e-13
1.53211e-13
3.78523e-13
1.60538e-13
2.53403e-13
1.7053e-13
1.31145e-13
1.72307e-13
1.64831e-15
1.77636e-13
-1.40833e-13
1.84519e-13
-2.39172e-13
1.52767e-13
-3.77927e-13
1.75193e-13
-5.1262e-13
1.75859e-13
-5.97813e-13
1.36113e-13
-7.21226e-13
1.59428e-13
-8.37158e-13
1.44773e-13
-9.00974e-13
1.10356e-13
-9.99809e-13
1.1724e-13
-1.09037e-12
1.13687e-13
-1.12664e-12
6.79456e-14
-1.20019e-12
8.43769e-14
-1.2643e-12
6.77236e-14
-1.28289e-12
3.61933e-14
-1.34003e-12
5.66214e-14
-1.41173e-12
6.43929e-14
-1.44397e-12
4.92939e-14
-1.5804e-12
1.40998e-13
-1.75307e-12
1.9873e-13
-2.09334e-12
4.19664e-13
-2.61955e-12
6.4726e-13
-4.01812e-12
1.72662e-12
-5.986e-12
2.54419e-12
-1.32575e-11
9.32077e-12
-2.49003e-11
1.5161e-11
-1.15383e-10
1.1926e-10
-3.31277e-10
2.86761e-10
-1.0548e-08
1.80282e-08
-7.60306e-08
4.16046e-08
-6.00709e-08
5.06581e-08
-1.10729e-07
1.80119e-08
7.42509e-08
5.5904e-10
3.54811e-08
2.02269e-10
6.43514e-10
4.76522e-11
2.73903e-10
2.58568e-11
3.69484e-11
1.21266e-11
2.30475e-11
8.11025e-12
6.57935e-12
5.2507e-12
4.58383e-12
4.12182e-12
1.77247e-12
3.26825e-12
1.29319e-12
2.87038e-12
5.90306e-13
2.54781e-12
4.64351e-13
2.37463e-12
2.42084e-13
2.21619e-12
2.15494e-13
2.10579e-12
1.68199e-13
1.99437e-12
1.6448e-13
1.89227e-12
1.68698e-13
1.77963e-12
1.92901e-13
1.66616e-12
2.09666e-13
1.53808e-12
2.39364e-13
1.40142e-12
2.51799e-13
1.25477e-12
2.69174e-13
1.09666e-12
2.93487e-13
9.28504e-13
3.09697e-13
7.5478e-13
3.30902e-13
5.71836e-13
3.4811e-13
3.84004e-13
3.60822e-13
1.95548e-13
3.55882e-13
-4.28373e-16
3.70481e-13
-1.98314e-13
3.78031e-13
-3.75803e-13
3.28848e-13
-5.70864e-13
3.74534e-13
-7.60542e-13
3.61433e-13
-9.20956e-13
2.98483e-13
-1.09584e-12
3.35287e-13
-1.26067e-12
3.1497e-13
-1.394e-12
2.38698e-13
-1.53735e-12
2.71339e-13
-1.67237e-12
2.36366e-13
-1.77271e-12
1.65035e-13
-1.8919e-12
2.05003e-13
-2.00055e-12
1.76748e-13
-2.09846e-12
1.33948e-13
-2.21549e-12
1.78857e-13
-2.3807e-12
2.48856e-13
-2.54063e-12
2.14884e-13
-2.86972e-12
4.75842e-13
-3.27417e-12
6.05516e-13
-4.11459e-12
1.26121e-12
-5.25023e-12
1.78113e-12
-8.11616e-12
4.60171e-12
-1.21189e-11
6.54488e-12
-2.58554e-11
2.30544e-11
-4.76568e-11
3.69632e-11
-2.02259e-10
2.73873e-10
-5.59037e-10
6.43539e-10
-1.80119e-08
3.54811e-08
-5.06581e-08
7.42508e-08
-1.10729e-07
1.26647e-08
-1.23393e-07
1.5081e-08
7.18345e-08
7.84679e-10
4.97774e-08
2.94799e-10
1.13341e-09
7.5723e-11
4.92972e-10
4.14259e-11
7.124e-11
2.0062e-11
4.44042e-11
1.3364e-11
1.32739e-11
8.62494e-12
9.32864e-12
6.62054e-12
3.77511e-12
5.10251e-12
2.81129e-12
4.34289e-12
1.34719e-12
3.73164e-12
1.07181e-12
3.37922e-12
5.87466e-13
3.07299e-12
5.3374e-13
2.86158e-12
3.65543e-13
2.65932e-12
3.70103e-13
2.48946e-12
3.38592e-13
2.31443e-12
3.60493e-13
2.14534e-12
3.64455e-13
1.96601e-12
4.03394e-13
1.7818e-12
4.3472e-13
1.58558e-12
4.70327e-13
1.38144e-12
4.95383e-13
1.16698e-12
5.37103e-13
9.44738e-13
5.47076e-13
7.15255e-13
5.77038e-13
4.80645e-13
5.88125e-13
2.42193e-13
5.93315e-13
-1.21309e-15
6.19326e-13
-2.38803e-13
6.20186e-13
-4.79232e-13
5.69201e-13
-7.13915e-13
6.07224e-13
-9.43108e-13
5.99009e-13
-1.16622e-12
5.16713e-13
-1.38037e-12
5.47038e-13
-1.58415e-12
5.16129e-13
-1.78121e-12
4.38418e-13
-1.96508e-12
4.47765e-13
-2.1443e-12
4.27949e-13
-2.31448e-12
3.42082e-13
-2.48897e-12
3.80258e-13
-2.65825e-12
3.52947e-13
-2.86115e-12
3.46501e-13
-3.07208e-12
3.87945e-13
-3.37807e-12
5.40606e-13
-3.73142e-12
5.65541e-13
-4.34208e-12
1.08641e-12
-5.10122e-12
1.36342e-12
-6.62031e-12
2.78681e-12
-8.62441e-12
3.79123e-12
-1.33627e-11
9.33306e-12
-2.00612e-11
1.32445e-11
-4.14242e-11
4.44178e-11
-7.572e-11
7.12641e-11
-2.94796e-10
4.9294e-10
-7.84674e-10
1.13341e-09
-1.5081e-08
4.97774e-08
-1.26647e-08
7.18345e-08
-1.23394e-07
9.38892e-09
-1.32782e-07
9.82703e-09
7.13964e-08
1.02039e-09
5.8584e-08
3.92416e-10
1.76136e-09
1.08889e-10
7.76489e-10
5.98399e-11
1.2029e-10
2.97372e-11
7.45009e-11
1.97265e-11
2.32794e-11
1.27226e-11
1.63245e-11
9.59581e-12
6.90036e-12
7.24792e-12
5.16003e-12
6.0097e-12
2.58565e-12
5.02526e-12
2.05234e-12
4.43457e-12
1.19224e-12
3.9349e-12
1.02414e-12
3.5891e-12
7.17339e-13
3.27414e-12
6.81977e-13
3.0195e-12
5.85367e-13
2.77086e-12
6.16267e-13
2.5423e-12
5.99633e-13
2.30933e-12
6.47501e-13
2.07854e-12
6.66954e-13
1.83905e-12
7.04985e-13
1.5951e-12
7.46193e-13
1.34244e-12
7.87958e-13
1.08396e-12
8.05715e-13
8.18911e-13
8.40933e-13
5.49412e-13
8.56631e-13
2.76378e-13
8.70488e-13
-2.02116e-16
8.9182e-13
-2.73609e-13
8.87117e-13
-5.47357e-13
8.50221e-13
-8.17209e-13
8.80135e-13
-1.08246e-12
8.47915e-13
-1.34101e-12
7.81014e-13
-1.59379e-12
7.95435e-13
-1.83783e-12
7.57809e-13
-2.07734e-12
6.80105e-13
-2.30819e-12
6.79842e-13
-2.54152e-12
6.52539e-13
-2.77039e-12
5.73312e-13
-3.0189e-12
6.27087e-13
-3.27334e-12
6.06718e-13
-3.58809e-12
6.58707e-13
-3.93386e-12
7.30336e-13
-4.43371e-12
1.04747e-12
-5.02452e-12
1.15255e-12
-6.0088e-12
2.07128e-12
-7.24697e-12
2.59865e-12
-9.59514e-12
5.12749e-12
-1.27221e-11
6.91635e-12
-1.97256e-11
1.63479e-11
-2.97358e-11
2.32463e-11
-5.98379e-11
7.45237e-11
-1.08886e-10
1.203e-10
-3.92412e-10
7.76463e-10
-1.02038e-09
1.76139e-09
-9.82702e-09
5.8584e-08
-9.38891e-09
7.13964e-08
-1.32783e-07
1.56318e-08
-1.48414e-07
8.36798e-09
7.86602e-08
1.27104e-09
6.5681e-08
4.95035e-10
2.53738e-09
1.46803e-10
1.12474e-09
8.09064e-11
1.86183e-10
4.10421e-11
1.14375e-10
2.71309e-11
3.71947e-11
1.75075e-11
2.5958e-11
1.30323e-11
1.13774e-11
9.70252e-12
8.48562e-12
7.88017e-12
4.41746e-12
6.44669e-12
3.49714e-12
5.56301e-12
2.06168e-12
4.82921e-12
1.75949e-12
4.31909e-12
1.23111e-12
3.86992e-12
1.13557e-12
3.51498e-12
9.48987e-13
3.18215e-12
9.51669e-13
2.88807e-12
8.90579e-13
2.59832e-12
9.31956e-13
2.32067e-12
9.36473e-13
2.04036e-12
9.81947e-13
1.76057e-12
1.02161e-12
1.47529e-12
1.06812e-12
1.18784e-12
1.09654e-12
8.95101e-13
1.12917e-12
5.99374e-13
1.16043e-12
3.01464e-13
1.16085e-12
5.21403e-16
1.2004e-12
-2.99931e-13
1.19942e-12
-5.95428e-13
1.13908e-12
-8.93057e-13
1.17686e-12
-1.1876e-12
1.1574e-12
-1.47207e-12
1.06721e-12
-1.75903e-12
1.08535e-12
-2.0405e-12
1.04398e-12
-2.31772e-12
9.55427e-13
-2.59703e-12
9.652e-13
-2.88869e-12
9.54025e-13
-3.18002e-12
8.55663e-13
-3.51424e-12
9.59621e-13
-3.87057e-12
9.6053e-13
-4.31637e-12
1.10435e-12
-4.82805e-12
1.24538e-12
-5.56365e-12
1.77027e-12
-6.44428e-12
2.02957e-12
-7.87925e-12
3.49845e-12
-9.70314e-12
4.42719e-12
-1.30301e-11
8.45517e-12
-1.75071e-11
1.13901e-11
-2.71316e-11
2.5956e-11
-4.10391e-11
3.71712e-11
-8.09043e-11
1.14388e-10
-1.46801e-10
1.86203e-10
-4.9503e-10
1.1247e-09
-1.27103e-09
2.53738e-09
-8.36797e-09
6.5681e-08
-1.56318e-08
7.86602e-08
-1.48414e-07
1.64867e-08
-1.64901e-07
8.70767e-09
8.64392e-08
1.52964e-09
7.2859e-08
6.02757e-10
3.46425e-09
1.89165e-10
1.53833e-09
1.04472e-10
2.70883e-10
5.3893e-11
1.64947e-10
3.5528e-11
5.55621e-11
2.29543e-11
3.85166e-11
1.69207e-11
1.74132e-11
1.24678e-11
1.29425e-11
9.96425e-12
6.90804e-12
8.01221e-12
5.43681e-12
6.78478e-12
3.30464e-12
5.77961e-12
2.76766e-12
5.07768e-12
1.92401e-12
4.47347e-12
1.73916e-12
4.00347e-12
1.41519e-12
3.57605e-12
1.37067e-12
3.20906e-12
1.26688e-12
2.85848e-12
1.2835e-12
2.53227e-12
1.27097e-12
2.21088e-12
1.30745e-12
1.89707e-12
1.34268e-12
1.58231e-12
1.37942e-12
1.26953e-12
1.40823e-12
9.54113e-13
1.45245e-12
6.37726e-13
1.46922e-12
3.20412e-13
1.48096e-12
7.09609e-16
1.5209e-12
-3.18671e-13
1.50245e-12
-6.333e-13
1.45807e-12
-9.51689e-13
1.49531e-12
-1.26914e-12
1.46909e-12
-1.57874e-12
1.37423e-12
-1.89531e-12
1.40313e-12
-2.21094e-12
1.35158e-12
-2.52903e-12
1.26318e-12
-2.85704e-12
1.28651e-12
-3.20966e-12
1.30976e-12
-3.57369e-12
1.21328e-12
-4.00262e-12
1.39761e-12
-4.47411e-12
1.43349e-12
-5.07472e-12
1.69474e-12
-5.77837e-12
1.9488e-12
-6.78547e-12
2.7913e-12
-8.00965e-12
3.26421e-12
-9.9633e-12
5.46399e-12
-1.24685e-11
6.92657e-12
-1.69184e-11
1.29044e-11
-2.2954e-11
1.74269e-11
-3.55288e-11
3.85395e-11
-5.38898e-11
5.55155e-11
-1.0447e-10
1.64963e-10
-1.89164e-10
2.70898e-10
-6.0275e-10
1.53829e-09
-1.52963e-09
3.46427e-09
-8.70767e-09
7.2859e-08
-1.64867e-08
8.64392e-08
-1.64901e-07
1.44135e-08
-1.79314e-07
8.75472e-09
9.2098e-08
1.78904e-09
7.98247e-08
7.15191e-10
4.5381e-09
2.35731e-10
2.01778e-09
1.30423e-10
3.76186e-10
6.82319e-11
2.27151e-10
4.48854e-11
7.8914e-11
2.90474e-11
5.43625e-11
2.12562e-11
2.52012e-11
1.55471e-11
1.86481e-11
1.2271e-11
1.01991e-11
9.73526e-12
7.97595e-12
8.11655e-12
4.90942e-12
6.80492e-12
4.08246e-12
5.8851e-12
2.84947e-12
5.10609e-12
2.51974e-12
4.50646e-12
2.01392e-12
3.97378e-12
1.90248e-12
3.52608e-12
1.70686e-12
3.10953e-12
1.69657e-12
2.73159e-12
1.64917e-12
2.36745e-12
1.67356e-12
2.01941e-12
1.68421e-12
1.67608e-12
1.73413e-12
1.33956e-12
1.74733e-12
1.00383e-12
1.78508e-12
6.69685e-13
1.8093e-12
3.35945e-13
1.82155e-12
8.10323e-16
1.84422e-12
-3.33537e-13
1.84131e-12
-6.65315e-13
1.78921e-12
-1.00104e-12
1.82611e-12
-1.33845e-12
1.80676e-12
-1.67268e-12
1.71159e-12
-2.01745e-12
1.74747e-12
-2.36689e-12
1.70065e-12
-2.72861e-12
1.63222e-12
-3.10793e-12
1.66828e-12
-3.52614e-12
1.71365e-12
-3.9717e-12
1.65331e-12
-4.50552e-12
1.92526e-12
-5.10621e-12
2.03529e-12
-5.88243e-12
2.48131e-12
-6.80362e-12
2.87233e-12
-8.11677e-12
4.09211e-12
-9.73305e-12
4.87526e-12
-1.22701e-11
7.99316e-12
-1.55475e-11
1.02097e-11
-2.12544e-11
1.86117e-11
-2.90472e-11
2.52212e-11
-4.48859e-11
5.43774e-11
-6.82292e-11
7.88675e-11
-1.30421e-10
2.27164e-10
-2.35729e-10
3.762e-10
-7.15185e-10
2.01774e-09
-1.78903e-09
4.53812e-09
-8.75471e-09
7.98247e-08
-1.44135e-08
9.20979e-08
-1.79315e-07
1.28115e-08
-1.92126e-07
8.42138e-09
9.64881e-08
2.04619e-09
8.61999e-08
8.31643e-10
5.75266e-09
2.86304e-10
2.56311e-09
1.5868e-10
5.03817e-10
8.40267e-11
3.01792e-10
5.51867e-11
1.07747e-10
3.5781e-11
7.37678e-11
2.60391e-11
3.49462e-11
1.89459e-11
2.5742e-11
1.48092e-11
1.43277e-11
1.1627e-11
1.11692e-11
9.57162e-12
6.97001e-12
7.9197e-12
5.72887e-12
6.75665e-12
4.01737e-12
5.78369e-12
3.48753e-12
5.03989e-12
2.77425e-12
4.39095e-12
2.56403e-12
3.8544e-12
2.25204e-12
3.36587e-12
2.18748e-12
2.93198e-12
2.08009e-12
2.52231e-12
2.08785e-12
2.1384e-12
2.06637e-12
1.76573e-12
2.10122e-12
1.40551e-12
2.10768e-12
1.05003e-12
2.14806e-12
6.99054e-13
2.15255e-12
3.50114e-13
2.16627e-12
1.02085e-15
2.19989e-12
-3.47255e-13
2.19018e-12
-6.94569e-13
2.1375e-12
-1.04685e-12
2.18525e-12
-1.40386e-12
2.17277e-12
-1.76234e-12
2.07261e-12
-2.13623e-12
2.129e-12
-2.52129e-12
2.09179e-12
-2.92907e-12
2.04605e-12
-3.36413e-12
2.09758e-12
-3.85409e-12
2.22529e-12
-4.38899e-12
2.21218e-12
-5.03886e-12
2.57198e-12
-5.78347e-12
2.76768e-12
-6.75412e-12
3.44433e-12
-7.91836e-12
4.03014e-12
-9.57152e-12
5.76273e-12
-1.1625e-11
6.92843e-12
-1.48083e-11
1.11739e-11
-1.89461e-11
1.43524e-11
-2.60377e-11
2.57098e-11
-3.5781e-11
3.49613e-11
-5.51871e-11
7.37913e-11
-8.40243e-11
1.07696e-10
-1.58678e-10
3.0181e-10
-2.86302e-10
5.03836e-10
-8.31636e-10
2.56307e-09
-2.04618e-09
5.75266e-09
-8.42137e-09
8.61999e-08
-1.28115e-08
9.64881e-08
-1.92126e-07
1.19066e-08
-2.04032e-07
8.08055e-09
1.00314e-07
2.29959e-09
9.19808e-08
9.51478e-10
7.10075e-09
3.40743e-10
3.17386e-09
1.89203e-10
6.55356e-10
1.01273e-10
3.89722e-10
6.64334e-11
1.42589e-10
4.31608e-11
9.70351e-11
3.12769e-11
4.68351e-11
2.26731e-11
3.43396e-11
1.75886e-11
1.94069e-11
1.36981e-11
1.50406e-11
1.1161e-11
9.51042e-12
9.13543e-12
7.75075e-12
7.70395e-12
5.43455e-12
6.51792e-12
4.6775e-12
5.61521e-12
3.65685e-12
4.83867e-12
3.32162e-12
4.20462e-12
2.86799e-12
3.63746e-12
2.75847e-12
3.14264e-12
2.56657e-12
2.68378e-12
2.54229e-12
2.26138e-12
2.49338e-12
1.85754e-12
2.50313e-12
1.4725e-12
2.48658e-12
1.09656e-12
2.51534e-12
7.28442e-13
2.52691e-12
3.64286e-13
2.53732e-12
1.25586e-15
2.57033e-12
-3.61069e-13
2.55919e-12
-7.2368e-13
2.49697e-12
-1.09297e-12
2.54837e-12
-1.47042e-12
2.53627e-12
-1.85398e-12
2.44847e-12
-2.25897e-12
2.51886e-12
-2.68245e-12
2.51848e-12
-3.13968e-12
2.49207e-12
-3.63556e-12
2.60002e-12
-4.20408e-12
2.76558e-12
-4.83673e-12
2.83488e-12
-5.6141e-12
3.35718e-12
-6.51747e-12
3.68962e-12
-7.70143e-12
4.63424e-12
-9.13402e-12
5.46656e-12
-1.11608e-11
7.78517e-12
-1.36962e-11
9.46621e-12
-1.75877e-11
1.50686e-11
-2.26733e-11
1.94309e-11
-3.12757e-11
3.43122e-11
-4.3161e-11
4.68576e-11
-6.64339e-11
9.70556e-11
-1.0127e-10
1.42541e-10
-1.89201e-10
3.89736e-10
-3.40741e-10
6.55367e-10
-9.51472e-10
3.17381e-09
-2.29959e-09
7.10078e-09
-8.08054e-09
9.19808e-08
-1.19066e-08
1.00314e-07
-2.04033e-07
1.1111e-08
-2.15143e-07
7.81737e-09
1.03608e-07
2.54745e-09
9.72507e-08
1.07417e-09
8.57405e-09
3.98942e-10
3.84909e-09
2.21983e-10
8.32312e-10
1.19988e-10
4.91717e-10
7.86423e-11
1.83933e-10
5.12029e-11
1.24485e-10
3.69831e-11
6.10524e-11
2.6741e-11
4.45923e-11
2.06204e-11
2.55421e-11
1.59592e-11
1.9711e-11
1.28948e-11
1.2565e-11
1.04617e-11
1.01902e-11
8.73621e-12
7.16935e-12
7.31747e-12
6.09428e-12
6.24073e-12
4.73657e-12
5.32482e-12
4.25571e-12
4.58412e-12
3.61904e-12
3.93111e-12
3.39881e-12
3.36978e-12
3.14546e-12
2.85741e-12
3.0502e-12
2.39314e-12
2.94904e-12
1.95561e-12
2.93484e-12
1.54382e-12
2.90132e-12
1.14598e-12
2.91882e-12
7.59578e-13
2.9035e-12
3.79285e-13
2.90762e-12
1.48199e-15
2.93911e-12
-3.75705e-13
2.9286e-12
-7.54507e-13
2.87733e-12
-1.14196e-12
2.94427e-12
-1.5413e-12
2.94439e-12
-1.9519e-12
2.86583e-12
-2.39049e-12
2.97433e-12
-2.85578e-12
2.98326e-12
-3.36671e-12
3.01528e-12
-3.9291e-12
3.1618e-12
-4.58328e-12
3.44514e-12
-5.32286e-12
3.56129e-12
-6.23952e-12
4.27386e-12
-7.31686e-12
4.75361e-12
-8.73367e-12
6.06665e-12
-1.04602e-11
7.1927e-12
-1.28945e-11
1.02231e-11
-1.59573e-11
1.25322e-11
-2.06197e-11
1.97301e-11
-2.67413e-11
2.55519e-11
-3.69822e-11
4.45359e-11
-5.12033e-11
6.10593e-11
-7.86429e-11
1.2449e-10
-1.19986e-10
1.83878e-10
-2.21981e-10
4.91743e-10
-3.9894e-10
8.32314e-10
-1.07416e-09
3.84902e-09
-2.54744e-09
8.57405e-09
-7.81736e-09
9.72507e-08
-1.1111e-08
1.03608e-07
-2.15144e-07
1.02402e-08
-2.25384e-07
7.57463e-09
1.06273e-07
2.78778e-09
1.02038e-07
1.19921e-09
1.01626e-08
4.60814e-10
4.58747e-09
2.57029e-10
1.0361e-09
1.40206e-10
6.0855e-10
9.18416e-11
2.32294e-10
5.9931e-11
1.56385e-10
4.31766e-11
7.78005e-11
3.11653e-11
5.6592e-11
2.39177e-11
3.27753e-11
1.84214e-11
2.52108e-11
1.47828e-11
1.62189e-11
1.19072e-11
1.30633e-11
9.86117e-12
9.215e-12
8.18946e-12
7.76584e-12
6.9229e-12
6.00169e-12
5.85525e-12
5.31476e-12
4.9981e-12
4.47723e-12
4.25164e-12
4.15817e-12
3.61762e-12
3.77308e-12
3.04693e-12
3.6226e-12
2.53695e-12
3.46412e-12
2.06268e-12
3.4258e-12
1.62166e-12
3.33829e-12
1.19988e-12
3.34224e-12
7.93543e-13
3.32519e-12
3.95644e-13
3.3096e-12
1.71861e-15
3.32691e-12
-3.91651e-13
3.31969e-12
-7.88159e-13
3.27794e-12
-1.19545e-12
3.34853e-12
-1.61865e-12
3.36984e-12
-2.05876e-12
3.30501e-12
-2.53405e-12
3.44293e-12
-3.04496e-12
3.49659e-12
-3.61452e-12
3.5785e-12
-4.24944e-12
3.80047e-12
-4.99706e-12
4.17774e-12
-5.85327e-12
4.43837e-12
-6.9216e-12
5.32784e-12
-8.18862e-12
6.02243e-12
-9.8587e-12
7.71237e-12
-1.19057e-11
9.23689e-12
-1.47823e-11
1.30925e-11
-1.84197e-11
1.61547e-11
-2.39171e-11
2.52208e-11
-3.11656e-11
3.27992e-11
-4.31759e-11
5.65609e-11
-5.99316e-11
7.78198e-11
-9.18422e-11
1.5642e-10
-1.40204e-10
2.32254e-10
-2.57027e-10
6.08564e-10
-4.60811e-10
1.03611e-09
-1.1992e-09
4.58743e-09
-2.78777e-09
1.01626e-08
-7.57462e-09
1.02038e-07
-1.02402e-08
1.06273e-07
-2.25384e-07
9.34126e-09
-2.34725e-07
7.31844e-09
1.08296e-07
3.01881e-09
1.06337e-07
1.32603e-09
1.18554e-08
5.26271e-10
5.38723e-09
2.9436e-10
1.268e-09
1.61971e-10
7.40939e-10
1.06067e-10
2.88201e-10
6.93745e-11
1.93088e-10
4.988e-11
9.7296e-11
3.59642e-11
7.05115e-11
2.7495e-11
4.12523e-11
2.10968e-11
3.15998e-11
1.68347e-11
2.04689e-11
1.34803e-11
1.64123e-11
1.1086e-11
1.16069e-11
9.14009e-12
9.71403e-12
7.66708e-12
7.48648e-12
6.4347e-12
6.55991e-12
5.45078e-12
5.46699e-12
4.6026e-12
5.00697e-12
3.88936e-12
4.48202e-12
3.25505e-12
4.25442e-12
2.69513e-12
4.02429e-12
2.18059e-12
3.93266e-12
1.70751e-12
3.81532e-12
1.25943e-12
3.78213e-12
8.31076e-13
3.74539e-12
4.13735e-13
3.71995e-12
1.95313e-15
3.74579e-12
-4.09306e-13
3.74092e-12
-8.25379e-13
3.68167e-12
-1.25452e-12
3.77346e-12
-1.704e-12
3.81103e-12
-2.1765e-12
3.77571e-12
-2.69192e-12
3.95916e-12
-3.25272e-12
4.04616e-12
-3.88618e-12
4.21166e-12
-4.60027e-12
4.51381e-12
-5.44945e-12
5.0293e-12
-6.43274e-12
5.4078e-12
-7.66568e-12
6.58439e-12
-9.13905e-12
7.4982e-12
-1.10836e-11
9.68405e-12
-1.34788e-11
1.16325e-11
-1.68341e-11
1.64485e-11
-2.10951e-11
2.04332e-11
-2.74944e-11
3.16287e-11
-3.59645e-11
4.12681e-11
-4.98796e-11
7.04676e-11
-6.93753e-11
9.73353e-11
-1.06068e-10
1.93104e-10
-1.61969e-10
2.88143e-10
-2.94358e-10
7.40964e-10
-5.26268e-10
1.26801e-09
-1.32602e-09
5.38717e-09
-3.0188e-09
1.18554e-08
-7.31843e-09
1.06337e-07
-9.34125e-09
1.08296e-07
-2.34725e-07
8.4493e-09
-2.43174e-07
7.04631e-09
1.09699e-07
3.23897e-09
1.10145e-07
1.45406e-09
1.36403e-08
5.95216e-10
6.24607e-09
3.33995e-10
1.52924e-09
1.85331e-10
8.89589e-10
1.21359e-10
3.5218e-10
7.9567e-11
2.34873e-10
5.71189e-11
1.19753e-10
4.11578e-11
8.64768e-11
3.1368e-11
5.10314e-11
2.3998e-11
3.89885e-11
1.9061e-11
2.541e-11
1.51896e-11
2.02978e-11
1.24179e-11
1.43716e-11
1.01753e-11
1.19594e-11
8.47825e-12
9.17502e-12
7.06734e-12
7.95868e-12
5.9457e-12
6.57741e-12
4.98703e-12
5.95841e-12
4.18753e-12
5.29032e-12
3.48391e-12
4.96535e-12
2.86937e-12
4.63274e-12
2.31081e-12
4.48735e-12
1.80248e-12
4.32234e-12
1.32544e-12
4.26664e-12
8.72715e-13
4.19879e-12
4.33856e-13
4.16352e-12
2.21748e-15
4.16133e-12
-4.28973e-13
4.1659e-12
-8.66684e-13
4.12773e-12
-1.32004e-12
4.23329e-12
-1.79845e-12
4.29376e-12
-2.30649e-12
4.27323e-12
-2.86589e-12
4.50977e-12
-3.4812e-12
4.66391e-12
-4.18427e-12
4.90946e-12
-4.98456e-12
5.3061e-12
-5.9441e-12
5.97742e-12
-7.06537e-12
6.52991e-12
-8.47679e-12
7.98074e-12
-1.0174e-11
9.19672e-12
-1.24155e-11
1.19046e-11
-1.5188e-11
1.44126e-11
-1.90602e-11
2.03313e-11
-2.39965e-11
2.53611e-11
-3.13675e-11
3.90001e-11
-4.11581e-11
5.10679e-11
-5.71188e-11
8.643e-11
-7.9568e-11
1.19757e-10
-1.2136e-10
2.34896e-10
-1.8533e-10
3.52122e-10
-3.33994e-10
8.89614e-10
-5.95213e-10
1.52923e-09
-1.45405e-09
6.24601e-09
-3.23897e-09
1.36403e-08
-7.0463e-09
1.10145e-07
-8.44929e-09
1.09699e-07
-2.43174e-07
7.56334e-09
-2.50738e-07
6.76053e-09
1.10502e-07
3.44681e-09
1.13458e-07
1.58267e-09
1.55044e-08
6.67526e-10
7.16121e-09
3.75951e-10
1.8208e-09
2.10337e-10
1.05521e-09
1.37761e-10
4.24751e-10
9.05447e-11
2.82093e-10
6.49213e-11
1.45374e-10
4.67681e-11
1.04623e-10
3.55541e-11
6.22547e-11
2.71388e-11
4.73923e-11
2.14726e-11
3.10694e-11
1.70438e-11
2.47248e-11
1.38638e-11
1.75666e-11
1.13008e-11
1.45251e-11
9.36124e-12
1.11137e-11
7.75722e-12
9.55194e-12
6.48618e-12
7.853e-12
5.40773e-12
7.04613e-12
4.51441e-12
6.1718e-12
3.73536e-12
5.73526e-12
3.06123e-12
5.32056e-12
2.45453e-12
5.10224e-12
1.90751e-12
4.86586e-12
1.39856e-12
4.7786e-12
9.18939e-13
4.67485e-12
4.5617e-13
4.62497e-12
2.49863e-15
4.64296e-12
-4.50842e-13
4.61339e-12
-9.12524e-13
4.5896e-12
-1.39265e-12
4.71008e-12
-1.90296e-12
4.79553e-12
-2.44996e-12
4.84662e-12
-3.05743e-12
5.13456e-12
-3.73227e-12
5.35182e-12
-4.51105e-12
5.70117e-12
-5.40511e-12
6.20294e-12
-6.48429e-12
7.07223e-12
-7.75522e-12
7.80736e-12
-9.3597e-12
9.59298e-12
-1.12994e-11
1.11413e-11
-1.38614e-11
1.44795e-11
-1.70422e-11
1.75931e-11
-2.14717e-11
2.47471e-11
-2.71373e-11
3.10257e-11
-3.55536e-11
4.74118e-11
-4.67685e-11
6.22716e-11
-6.49215e-11
1.04577e-10
-9.05459e-11
1.4539e-10
-1.37762e-10
2.82106e-10
-2.10337e-10
4.24689e-10
-3.75949e-10
1.05523e-09
-6.67523e-10
1.82081e-09
-1.58266e-09
7.16115e-09
-3.4468e-09
1.55045e-08
-6.76052e-09
1.13458e-07
-7.56333e-09
1.10502e-07
-2.50738e-07
6.67867e-09
-2.57416e-07
6.46079e-09
1.1072e-07
3.64088e-09
1.16278e-07
1.7112e-09
1.74341e-08
7.43052e-10
8.12936e-09
4.20234e-10
2.14363e-09
2.37039e-10
1.23842e-09
1.55319e-10
5.06478e-10
1.02346e-10
3.3507e-10
7.33166e-11
1.74401e-10
5.28186e-11
1.25138e-10
4.00712e-11
7.50073e-11
3.05335e-11
5.69343e-11
2.40809e-11
3.75382e-11
1.90521e-11
2.97489e-11
1.54312e-11
2.11819e-11
1.25228e-11
1.74337e-11
1.0321e-11
1.33116e-11
8.50837e-12
1.13912e-11
7.07552e-12
9.28556e-12
5.86733e-12
8.25379e-12
4.87219e-12
7.18548e-12
4.01124e-12
6.60472e-12
3.27212e-12
6.0514e-12
2.61286e-12
5.74819e-12
2.02349e-12
5.45574e-12
1.4794e-12
5.31717e-12
9.70116e-13
5.2021e-12
4.80963e-13
5.10325e-12
2.73417e-15
5.10037e-12
-4.75071e-13
5.09581e-12
-9.63299e-13
5.06438e-12
-1.473e-12
5.22558e-12
-2.01831e-12
5.35576e-12
-2.60803e-12
5.41199e-12
-3.26799e-12
5.78011e-12
-4.00775e-12
6.0775e-12
-4.86873e-12
6.55805e-12
-5.86456e-12
7.199e-12
-7.07335e-12
8.281e-12
-8.50632e-12
9.23269e-12
-1.03194e-11
1.1404e-11
-1.25212e-11
1.33483e-11
-1.54289e-11
1.73802e-11
-1.90505e-11
2.12065e-11
-2.40798e-11
2.97846e-11
-3.05322e-11
3.74784e-11
-4.00708e-11
5.69489e-11
-5.2819e-11
7.50219e-11
-7.3317e-11
1.25091e-10
-1.02347e-10
1.74421e-10
-1.5532e-10
3.35078e-10
-2.37039e-10
5.06422e-10
-4.20233e-10
1.23842e-09
-7.43049e-10
2.14361e-09
-1.7112e-09
8.1293e-09
-3.64087e-09
1.74341e-08
-6.46078e-09
1.16278e-07
-6.67866e-09
1.1072e-07
-2.57416e-07
5.7961e-09
-2.63212e-07
6.14623e-09
1.1037e-07
3.8198e-09
1.18605e-07
1.83896e-09
1.9415e-08
8.21607e-10
9.14671e-09
4.66838e-10
2.49838e-09
2.65481e-10
1.43976e-09
1.74076e-10
5.97859e-10
1.15009e-10
3.94145e-10
8.23355e-11
2.07083e-10
5.93336e-11
1.48119e-10
4.49385e-11
8.93821e-11
3.41975e-11
6.76616e-11
2.68979e-11
4.48327e-11
2.12244e-11
3.54301e-11
1.7128e-11
2.528e-11
1.38477e-11
2.07136e-11
1.13626e-11
1.58062e-11
9.32491e-12
1.34168e-11
7.71712e-12
1.09066e-11
6.36867e-12
9.59024e-12
5.26308e-12
8.27609e-12
4.31328e-12
7.55616e-12
3.50346e-12
6.85359e-12
2.78693e-12
6.47098e-12
2.1512e-12
6.10265e-12
1.56864e-12
5.89758e-12
1.02658e-12
5.72149e-12
5.08378e-13
5.63765e-12
3.02002e-15
5.60197e-12
-5.01974e-13
5.60498e-12
-1.01936e-12
5.5943e-12
-1.56165e-12
5.74886e-12
-2.14546e-12
5.925e-12
-2.78179e-12
6.06236e-12
-3.49898e-12
6.51459e-12
-4.30934e-12
6.89305e-12
-5.25952e-12
7.51185e-12
-6.3657e-12
8.2994e-12
-7.71469e-12
9.61336e-12
-9.32285e-12
1.08479e-11
-1.13609e-11
1.34477e-11
-1.38459e-11
1.5829e-11
-1.71257e-11
2.06641e-11
-2.12228e-11
2.53076e-11
-2.68966e-11
3.54564e-11
-3.41962e-11
4.47807e-11
-4.49383e-11
6.76915e-11
-5.9334e-11
8.9414e-11
-8.23362e-11
1.48077e-10
-1.15011e-10
2.07099e-10
-1.74077e-10
3.94157e-10
-2.65481e-10
5.97812e-10
-4.66837e-10
1.43977e-09
-8.21604e-10
2.4984e-09
-1.83896e-09
9.14664e-09
-3.81979e-09
1.9415e-08
-6.14623e-09
1.18605e-07
-5.79609e-09
1.1037e-07
-2.63212e-07
4.91877e-09
-2.68131e-07
5.81679e-09
1.09472e-07
3.98224e-09
1.20439e-07
1.9652e-09
2.1432e-08
9.02967e-10
1.02089e-08
5.1574e-10
2.88563e-09
2.95705e-10
1.6598e-09
1.94076e-10
6.99512e-10
1.28574e-10
4.59623e-10
9.20093e-11
2.43636e-10
6.63384e-11
1.73801e-10
5.01761e-11
1.05559e-10
3.81466e-11
7.96971e-11
2.99363e-11
5.3034e-11
2.35707e-11
4.17854e-11
1.89623e-11
2.98804e-11
1.5282e-11
2.43895e-11
1.24916e-11
1.8583e-11
1.02113e-11
1.56941e-11
8.41447e-12
1.26915e-11
6.91457e-12
1.11059e-11
5.68947e-12
9.50081e-12
4.64333e-12
8.60073e-12
3.75677e-12
7.7407e-12
2.97794e-12
7.25703e-12
2.29152e-12
6.77943e-12
1.66682e-12
6.52226e-12
1.08889e-12
6.31702e-12
5.38558e-13
6.18456e-12
3.33937e-15
6.14114e-12
-5.31618e-13
6.13946e-12
-1.0812e-12
6.1512e-12
-1.65926e-12
6.34166e-12
-2.28516e-12
6.55639e-12
-2.97242e-12
6.74987e-12
-3.75194e-12
7.27582e-12
-4.63899e-12
7.77284e-12
-5.68579e-12
8.55146e-12
-6.91144e-12
9.5314e-12
-8.41179e-12
1.11264e-11
-1.02092e-11
1.26439e-11
-1.24898e-11
1.5725e-11
-1.52801e-11
1.86195e-11
-1.89601e-11
2.43443e-11
-2.35691e-11
2.9911e-11
-2.9935e-11
4.18347e-11
-3.81454e-11
5.29907e-11
-5.01759e-11
7.97206e-11
-6.63389e-11
1.0559e-10
-9.20102e-11
1.73763e-10
-1.28576e-10
2.43666e-10
-1.94078e-10
4.59658e-10
-2.95705e-10
6.99439e-10
-5.15739e-10
1.6598e-09
-9.02964e-10
2.88561e-09
-1.96519e-09
1.02089e-08
-3.98223e-09
2.1432e-08
-5.81678e-09
1.20439e-07
-4.91876e-09
1.09472e-07
-2.68131e-07
4.04981e-09
-2.72181e-07
5.47293e-09
1.08049e-07
4.12692e-09
1.21785e-07
2.08913e-09
2.34698e-08
9.86863e-10
1.13112e-08
5.669e-10
3.30558e-09
3.27742e-10
1.89896e-09
2.1536e-10
8.11892e-10
1.43079e-10
5.31924e-10
1.0237e-10
2.84361e-10
7.38591e-11
2.02301e-10
5.58044e-11
1.23615e-10
4.23975e-11
9.31129e-11
3.32095e-11
6.22391e-11
2.61019e-11
4.88921e-11
2.09428e-11
3.50514e-11
1.68327e-11
2.85063e-11
1.37134e-11
2.17163e-11
1.11721e-11
1.82352e-11
9.17142e-12
1.46918e-11
7.50804e-12
1.27593e-11
6.15377e-12
1.08638e-11
5.00339e-12
9.73714e-12
4.03361e-12
8.71743e-12
3.18698e-12
8.10181e-12
2.4454e-12
7.53014e-12
1.77467e-12
7.20025e-12
1.15732e-12
6.92189e-12
5.71789e-13
6.76223e-12
3.6514e-15
6.71286e-12
-5.64259e-13
6.70252e-12
-1.14919e-12
6.72707e-12
-1.7665e-12
6.95265e-12
-2.43838e-12
7.23542e-12
-3.18115e-12
7.47821e-12
-4.02831e-12
8.13406e-12
-4.99863e-12
8.74635e-12
-6.1499e-12
9.69958e-12
-7.50477e-12
1.08825e-11
-9.16846e-12
1.27827e-11
-1.11699e-11
1.46582e-11
-1.37116e-11
1.82607e-11
-1.68307e-11
2.17312e-11
-2.09407e-11
2.84465e-11
-2.61003e-11
3.50719e-11
-3.32081e-11
4.89308e-11
-4.23964e-11
6.21871e-11
-5.58043e-11
9.31307e-11
-7.38597e-11
1.23636e-10
-1.02371e-10
2.0227e-10
-1.43081e-10
2.84366e-10
-2.15362e-10
5.31923e-10
-3.27742e-10
8.11815e-10
-5.66899e-10
1.89897e-09
-9.8686e-10
3.30557e-09
-2.08913e-09
1.13112e-08
-4.12692e-09
2.34698e-08
-5.47292e-09
1.21785e-07
-4.0498e-09
1.08049e-07
-2.72181e-07
3.19222e-09
-2.75373e-07
5.11537e-09
1.06125e-07
4.25264e-09
1.22648e-07
2.20994e-09
2.55125e-08
1.07298e-09
1.24482e-08
6.20256e-10
3.7583e-09
3.61616e-10
2.1576e-09
2.37966e-10
9.35526e-10
1.58564e-10
6.11322e-10
1.1345e-10
3.29461e-10
8.19225e-11
2.3384e-10
6.1845e-11
1.43689e-10
4.69674e-11
1.07978e-10
3.67312e-11
7.24695e-11
2.88291e-11
5.6801e-11
2.30785e-11
4.07934e-11
1.85073e-11
3.30671e-11
1.50341e-11
2.51754e-11
1.22123e-11
2.10729e-11
9.99185e-12
1.6909e-11
8.15239e-12
1.45862e-11
6.6585e-12
1.23481e-11
5.39559e-12
1.1027e-11
4.33559e-12
9.78071e-12
3.41546e-12
9.01049e-12
2.61381e-12
8.31378e-12
1.89277e-12
7.9227e-12
1.23241e-12
7.60031e-12
6.08293e-13
7.40484e-12
3.96089e-15
7.31507e-12
-6.00121e-13
7.31508e-12
-1.22376e-12
7.33714e-12
-1.88399e-12
7.61504e-12
-2.60615e-12
7.95455e-12
-3.4092e-12
8.29443e-12
-4.32986e-12
9.06055e-12
-5.39036e-12
9.81217e-12
-6.65449e-12
1.09716e-11
-8.14893e-12
1.2382e-11
-9.98855e-12
1.46341e-11
-1.221e-11
1.68676e-11
-1.50323e-11
2.1079e-11
-1.85052e-11
2.52131e-11
-2.30765e-11
3.30256e-11
-2.88275e-11
4.083e-11
-3.67297e-11
5.68402e-11
-4.69664e-11
7.24142e-11
-6.1845e-11
1.0801e-10
-8.19231e-11
1.43721e-10
-1.13452e-10
2.33796e-10
-1.58566e-10
3.29477e-10
-2.37967e-10
6.1134e-10
-3.61617e-10
9.35472e-10
-6.20255e-10
2.1576e-09
-1.07298e-09
3.75829e-09
-2.20993e-09
1.24481e-08
-4.25264e-09
2.55125e-08
-5.11536e-09
1.22648e-07
-3.19221e-09
1.06125e-07
-2.75373e-07
2.34903e-09
-2.77722e-07
4.74502e-09
1.03729e-07
4.35827e-09
1.23035e-07
2.32675e-09
2.7544e-08
1.16096e-09
1.3614e-08
6.75722e-10
4.24355e-09
3.97341e-10
2.436e-09
2.61927e-10
1.07096e-09
1.75065e-10
6.98183e-10
1.25281e-10
3.7925e-10
9.05556e-11
2.6856e-10