/*--------------------------------*- C++ -*----------------------------------*\
| =========                 |                                                 |
| \\      /  F ield         | foam-extend: Open Source CFD                    |
|  \\    /   O peration     | Version:     4.0                                |
|   \\  /    A nd           | Web:         http://www.foam-extend.org         |
|    \\/     M anipulation  |                                                 |
\*---------------------------------------------------------------------------*/
FoamFile
{
    version     2.0;
    format      ascii;
    class       volVectorField;
    location    "8";
    object      U;
}
// * * * * * * * * * * * * * * * * * * * * * * * * * * * * * * * * * * * * * //

dimensions      [0 1 -1 0 0 0 0];

internalField   nonuniform List<vector> 
6960
(
(-5.40319e-06 -482.776 0)
(-4.69738e-06 -482.761 0)
(1.3902e-06 -482.761 0)
(7.02926e-07 -482.761 0)
(8.03653e-08 -482.761 0)
(6.34774e-08 -482.761 0)
(1.71261e-08 -482.761 0)
(1.63586e-08 -482.761 0)
(7.24142e-09 -482.761 0)
(7.68943e-09 -482.761 0)
(5.08563e-09 -482.761 0)
(5.49179e-09 -482.761 0)
(4.58978e-09 -482.761 0)
(4.82853e-09 -482.761 0)
(4.45141e-09 -482.761 0)
(4.53565e-09 -482.761 0)
(4.30652e-09 -482.761 0)
(4.25945e-09 -482.761 0)
(4.04161e-09 -482.761 0)
(3.88339e-09 -482.761 0)
(3.62386e-09 -482.761 0)
(3.37306e-09 -482.761 0)
(3.0556e-09 -482.761 0)
(2.72662e-09 -482.761 0)
(2.35448e-09 -482.761 0)
(1.96615e-09 -482.761 0)
(1.54962e-09 -482.761 0)
(1.1217e-09 -482.761 0)
(6.77116e-10 -482.761 0)
(2.27823e-10 -482.761 0)
(-2.24837e-10 -482.761 0)
(-6.75035e-10 -482.761 0)
(-1.12083e-09 -482.761 0)
(-1.54662e-09 -482.761 0)
(-1.96431e-09 -482.761 0)
(-2.35377e-09 -482.761 0)
(-2.72385e-09 -482.761 0)
(-3.054e-09 -482.761 0)
(-3.37259e-09 -482.761 0)
(-3.62125e-09 -482.761 0)
(-3.88296e-09 -482.761 0)
(-4.04212e-09 -482.761 0)
(-4.25739e-09 -482.761 0)
(-4.3054e-09 -482.761 0)
(-4.53511e-09 -482.761 0)
(-4.44876e-09 -482.761 0)
(-4.82743e-09 -482.761 0)
(-4.58971e-09 -482.761 0)
(-5.48875e-09 -482.761 0)
(-5.08399e-09 -482.761 0)
(-7.68947e-09 -482.761 0)
(-7.23884e-09 -482.761 0)
(-1.63563e-08 -482.761 0)
(-1.71245e-08 -482.761 0)
(-6.34724e-08 -482.761 0)
(-8.03602e-08 -482.761 0)
(-7.0292e-07 -482.761 0)
(-1.39019e-06 -482.761 0)
(4.6974e-06 -482.761 0)
(5.4032e-06 -482.776 0)
(0.00046162 30.7688 0)
(0.000463981 30.7836 0)
(4.3448e-06 30.7836 0)
(2.06727e-06 30.7836 0)
(2.77185e-07 30.7836 0)
(2.06339e-07 30.7836 0)
(6.29653e-08 30.7836 0)
(5.57066e-08 30.7836 0)
(2.63547e-08 30.7836 0)
(2.57958e-08 30.7836 0)
(1.70269e-08 30.7836 0)
(1.73769e-08 30.7836 0)
(1.41358e-08 30.7836 0)
(1.44064e-08 30.7836 0)
(1.30023e-08 30.7836 0)
(1.29926e-08 30.7836 0)
(1.21687e-08 30.7836 0)
(1.19248e-08 30.7836 0)
(1.1193e-08 30.7836 0)
(1.07003e-08 30.7836 0)
(9.94068e-09 30.7836 0)
(9.1977e-09 30.7836 0)
(8.31316e-09 30.7836 0)
(7.4118e-09 30.7836 0)
(6.36668e-09 30.7836 0)
(5.31824e-09 30.7836 0)
(4.19711e-09 30.7836 0)
(3.01765e-09 30.7836 0)
(1.83326e-09 30.7836 0)
(6.51122e-10 30.7836 0)
(-6.87789e-10 30.7836 0)
(-1.81444e-09 30.7836 0)
(-2.91857e-09 30.7836 0)
(-4.28506e-09 30.7836 0)
(-5.31307e-09 30.7836 0)
(-6.26831e-09 30.7836 0)
(-7.50046e-09 30.7836 0)
(-8.30864e-09 30.7836 0)
(-9.1e-09 30.7836 0)
(-1.00298e-08 30.7836 0)
(-1.0699e-08 30.7836 0)
(-1.1098e-08 30.7836 0)
(-1.20155e-08 30.7836 0)
(-1.21656e-08 30.7836 0)
(-1.28948e-08 30.7836 0)
(-1.30914e-08 30.7836 0)
(-1.44033e-08 30.7836 0)
(-1.40393e-08 30.7836 0)
(-1.74652e-08 30.7836 0)
(-1.70225e-08 30.7836 0)
(-2.56997e-08 30.7836 0)
(-2.64444e-08 30.7836 0)
(-5.57004e-08 30.7836 0)
(-6.28648e-08 30.7836 0)
(-2.06422e-07 30.7836 0)
(-2.77171e-07 30.7836 0)
(-2.06716e-06 30.7836 0)
(-4.34487e-06 30.7836 0)
(-0.000463981 30.7836 0)
(-0.00046162 30.7688 0)
(0.000398788 86.0509 0)
(0.00040257 86.0435 0)
(6.99874e-06 86.0435 0)
(3.40142e-06 86.0434 0)
(5.23131e-07 86.0434 0)
(3.73471e-07 86.0434 0)
(1.25279e-07 86.0434 0)
(1.04899e-07 86.0434 0)
(5.20444e-08 86.0434 0)
(4.79473e-08 86.0434 0)
(3.14949e-08 86.0434 0)
(3.05717e-08 86.0434 0)
(2.42335e-08 86.0434 0)
(2.38942e-08 86.0434 0)
(2.10259e-08 86.0434 0)
(2.06121e-08 86.0434 0)
(1.89622e-08 86.0434 0)
(1.83523e-08 86.0434 0)
(1.70449e-08 86.0434 0)
(1.6167e-08 86.0434 0)
(1.4905e-08 86.0434 0)
(1.37388e-08 86.0434 0)
(1.23555e-08 86.0434 0)
(1.09769e-08 86.0434 0)
(9.41432e-09 86.0434 0)
(7.84473e-09 86.0434 0)
(6.1744e-09 86.0434 0)
(4.44643e-09 86.0434 0)
(2.69118e-09 86.0434 0)
(9.36056e-10 86.0434 0)
(-9.62873e-10 86.0434 0)
(-2.67044e-09 86.0434 0)
(-4.35665e-09 86.0434 0)
(-6.24633e-09 86.0434 0)
(-7.83667e-09 86.0434 0)
(-9.32607e-09 86.0434 0)
(-1.10502e-08 86.0434 0)
(-1.23485e-08 86.0434 0)
(-1.36516e-08 86.0434 0)
(-1.4979e-08 86.0434 0)
(-1.61647e-08 86.0434 0)
(-1.69618e-08 86.0434 0)
(-1.84286e-08 86.0434 0)
(-1.89572e-08 86.0434 0)
(-2.05249e-08 86.0434 0)
(-2.11001e-08 86.0434 0)
(-2.38896e-08 86.0434 0)
(-2.41483e-08 86.0434 0)
(-3.06449e-08 86.0434 0)
(-3.14886e-08 86.0434 0)
(-4.78631e-08 86.0434 0)
(-5.21198e-08 86.0434 0)
(-1.0489e-07 86.0434 0)
(-1.25188e-07 86.0434 0)
(-3.73536e-07 86.0434 0)
(-5.2311e-07 86.0434 0)
(-3.40131e-06 86.0434 0)
(-6.99878e-06 86.0435 0)
(-0.00040257 86.0435 0)
(-0.000398788 86.0509 0)
(0.000187096 20.0737 0)
(0.000192271 20.0659 0)
(9.52945e-06 20.0659 0)
(4.67517e-06 20.0659 0)
(8.16156e-07 20.0659 0)
(5.63974e-07 20.0659 0)
(2.03637e-07 20.0659 0)
(1.63676e-07 20.0659 0)
(8.41732e-08 20.0659 0)
(7.4053e-08 20.0659 0)
(4.84559e-08 20.0659 0)
(4.50826e-08 20.0659 0)
(3.48972e-08 20.0659 0)
(3.33317e-08 20.0659 0)
(2.85837e-08 20.0659 0)
(2.74474e-08 20.0659 0)
(2.47549e-08 20.0659 0)
(2.36219e-08 20.0659 0)
(2.16614e-08 20.0659 0)
(2.03553e-08 20.0659 0)
(1.85953e-08 20.0659 0)
(1.70538e-08 20.0659 0)
(1.52439e-08 20.0659 0)
(1.34858e-08 20.0659 0)
(1.15371e-08 20.0659 0)
(9.58621e-09 20.0659 0)
(7.52229e-09 20.0659 0)
(5.4228e-09 20.0659 0)
(3.27021e-09 20.0659 0)
(1.11648e-09 20.0659 0)
(-1.11996e-09 20.0659 0)
(-3.25206e-09 20.0659 0)
(-5.37275e-09 20.0659 0)
(-7.5483e-09 20.0659 0)
(-9.5757e-09 20.0659 0)
(-1.14896e-08 20.0659 0)
(-1.35139e-08 20.0659 0)
(-1.52348e-08 20.0659 0)
(-1.70078e-08 20.0659 0)
(-1.86244e-08 20.0659 0)
(-2.03522e-08 20.0659 0)
(-2.16205e-08 20.0659 0)
(-2.36539e-08 20.0659 0)
(-2.47484e-08 20.0659 0)
(-2.74015e-08 20.0659 0)
(-2.86134e-08 20.0659 0)
(-3.3326e-08 20.0659 0)
(-3.4854e-08 20.0659 0)
(-4.51114e-08 20.0659 0)
(-4.84485e-08 20.0659 0)
(-7.40116e-08 20.0659 0)
(-8.42051e-08 20.0659 0)
(-1.63666e-07 20.0659 0)
(-2.03587e-07 20.0659 0)
(-5.63992e-07 20.0659 0)
(-8.16131e-07 20.0659 0)
(-4.67509e-06 20.0659 0)
(-9.52944e-06 20.0659 0)
(-0.000192271 20.0659 0)
(-0.000187096 20.0737 0)
(0.000120004 -3.19835 0)
(0.000126753 -3.19938 0)
(1.2158e-05 -3.19939 0)
(5.8947e-06 -3.19941 0)
(1.14951e-06 -3.19941 0)
(7.74252e-07 -3.19941 0)
(2.95886e-07 -3.19941 0)
(2.30723e-07 -3.19941 0)
(1.21945e-07 -3.19941 0)
(1.03643e-07 -3.19941 0)
(6.76819e-08 -3.19941 0)
(6.0855e-08 -3.19941 0)
(4.61811e-08 -3.19941 0)
(4.28689e-08 -3.19941 0)
(3.58976e-08 -3.19941 0)
(3.37533e-08 -3.19941 0)
(2.98394e-08 -3.19941 0)
(2.80514e-08 -3.19941 0)
(2.53558e-08 -3.19941 0)
(2.35844e-08 -3.19941 0)
(2.13286e-08 -3.19941 0)
(1.94315e-08 -3.19941 0)
(1.72523e-08 -3.19941 0)
(1.51926e-08 -3.19941 0)
(1.29453e-08 -3.19941 0)
(1.0725e-08 -3.19941 0)
(8.39222e-09 -3.19941 0)
(6.04526e-09 -3.19941 0)
(3.63805e-09 -3.19941 0)
(1.23621e-09 -3.19941 0)
(-1.23053e-09 -3.19941 0)
(-3.61897e-09 -3.19941 0)
(-6.00596e-09 -3.19941 0)
(-8.40175e-09 -3.19941 0)
(-1.07124e-08 -3.19941 0)
(-1.29097e-08 -3.19941 0)
(-1.5205e-08 -3.19941 0)
(-1.72415e-08 -3.19941 0)
(-1.93979e-08 -3.19941 0)
(-2.13423e-08 -3.19941 0)
(-2.35804e-08 -3.19941 0)
(-2.5328e-08 -3.19941 0)
(-2.80685e-08 -3.19941 0)
(-2.98317e-08 -3.19941 0)
(-3.37199e-08 -3.19941 0)
(-3.59125e-08 -3.19941 0)
(-4.28624e-08 -3.19941 0)
(-4.61511e-08 -3.19941 0)
(-6.08694e-08 -3.19941 0)
(-6.76741e-08 -3.19941 0)
(-1.03616e-07 -3.19941 0)
(-1.21963e-07 -3.19941 0)
(-2.30712e-07 -3.19941 0)
(-2.95849e-07 -3.19941 0)
(-7.74255e-07 -3.19941 0)
(-1.14948e-06 -3.19941 0)
(-5.89463e-06 -3.19941 0)
(-1.2158e-05 -3.19939 0)
(-0.000126753 -3.19938 0)
(-0.000120004 -3.19835 0)
(0.000128192 -1.47722 0)
(0.000136584 -1.47624 0)
(1.47978e-05 -1.47625 0)
(7.08197e-06 -1.47627 0)
(1.51593e-06 -1.47627 0)
(1.0005e-06 -1.47627 0)
(3.99767e-07 -1.47627 0)
(3.04662e-07 -1.47627 0)
(1.64519e-07 -1.47627 0)
(1.36235e-07 -1.47627 0)
(8.89331e-08 -1.47627 0)
(7.78211e-08 -1.47627 0)
(5.8147e-08 -1.47627 0)
(5.26582e-08 -1.47627 0)
(4.31858e-08 -1.47627 0)
(3.9799e-08 -1.47627 0)
(3.45158e-08 -1.47627 0)
(3.19591e-08 -1.47627 0)
(2.8458e-08 -1.47627 0)
(2.6182e-08 -1.47627 0)
(2.34226e-08 -1.47627 0)
(2.11768e-08 -1.47627 0)
(1.86624e-08 -1.47627 0)
(1.63502e-08 -1.47627 0)
(1.38632e-08 -1.47627 0)
(1.14484e-08 -1.47627 0)
(8.93157e-09 -1.47627 0)
(6.42347e-09 -1.47627 0)
(3.85934e-09 -1.47627 0)
(1.31194e-09 -1.47627 0)
(-1.30461e-09 -1.47627 0)
(-3.83756e-09 -1.47627 0)
(-6.37991e-09 -1.47627 0)
(-8.93999e-09 -1.47627 0)
(-1.1434e-08 -1.47627 0)
(-1.38246e-08 -1.47627 0)
(-1.63624e-08 -1.47627 0)
(-1.86501e-08 -1.47627 0)
(-2.11407e-08 -1.47627 0)
(-2.34364e-08 -1.47627 0)
(-2.61771e-08 -1.47627 0)
(-2.84281e-08 -1.47627 0)
(-3.19766e-08 -1.47627 0)
(-3.45072e-08 -1.47627 0)
(-3.97634e-08 -1.47627 0)
(-4.32015e-08 -1.47627 0)
(-5.26511e-08 -1.47627 0)
(-5.81153e-08 -1.47627 0)
(-7.78369e-08 -1.47627 0)
(-8.89254e-08 -1.47627 0)
(-1.36207e-07 -1.47627 0)
(-1.6454e-07 -1.47627 0)
(-3.0465e-07 -1.47627 0)
(-3.99728e-07 -1.47627 0)
(-1.0005e-06 -1.47627 0)
(-1.5159e-06 -1.47627 0)
(-7.0819e-06 -1.47627 0)
(-1.47978e-05 -1.47625 0)
(-0.000136584 -1.47624 0)
(-0.000128192 -1.47722 0)
(0.000127536 0.888979 0)
(0.000137491 0.889259 0)
(1.73083e-05 0.889255 0)
(8.2396e-06 0.889235 0)
(1.90863e-06 0.889234 0)
(1.23923e-06 0.889234 0)
(5.13253e-07 0.889234 0)
(3.84251e-07 0.889234 0)
(2.11134e-07 0.889234 0)
(1.71382e-07 0.889234 0)
(1.11976e-07 0.889234 0)
(9.58976e-08 0.889234 0)
(7.08259e-08 0.889234 0)
(6.28095e-08 0.889234 0)
(5.06156e-08 0.889234 0)
(4.57977e-08 0.889234 0)
(3.90245e-08 0.889234 0)
(3.56009e-08 0.889234 0)
(3.12363e-08 0.889234 0)
(2.84151e-08 0.889234 0)
(2.51361e-08 0.889234 0)
(2.25403e-08 0.889234 0)
(1.97051e-08 0.889234 0)
(1.71658e-08 0.889234 0)
(1.4476e-08 0.889234 0)
(1.19109e-08 0.889234 0)
(9.26112e-09 0.889234 0)
(6.64838e-09 0.889234 0)
(3.98698e-09 0.889234 0)
(1.35542e-09 0.889234 0)
(-1.34586e-09 0.889234 0)
(-3.96296e-09 0.889234 0)
(-6.60252e-09 0.889234 0)
(-9.26675e-09 0.889234 0)
(-1.18948e-08 0.889234 0)
(-1.44365e-08 0.889234 0)
(-1.71762e-08 0.889234 0)
(-1.96917e-08 0.889234 0)
(-2.25038e-08 0.889234 0)
(-2.51484e-08 0.889234 0)
(-2.84093e-08 0.889234 0)
(-3.12062e-08 0.889234 0)
(-3.56173e-08 0.889234 0)
(-3.9015e-08 0.889234 0)
(-4.57619e-08 0.889234 0)
(-5.06307e-08 0.889234 0)
(-6.28019e-08 0.889234 0)
(-7.07946e-08 0.889234 0)
(-9.59135e-08 0.889234 0)
(-1.11969e-07 0.889234 0)
(-1.71356e-07 0.889234 0)
(-2.11155e-07 0.889234 0)
(-3.8424e-07 0.889234 0)
(-5.13215e-07 0.889234 0)
(-1.23923e-06 0.889234 0)
(-1.9086e-06 0.889234 0)
(-8.23953e-06 0.889235 0)
(-1.73082e-05 0.889255 0)
(-0.000137491 0.889259 0)
(-0.000127536 0.888979 0)
(0.000112575 0.792236 0)
(0.000123968 0.792076 0)
(1.96359e-05 0.792071 0)
(9.35628e-06 0.79205 0)
(2.32156e-06 0.792049 0)
(1.48743e-06 0.792048 0)
(6.34611e-07 0.792048 0)
(4.68425e-07 0.792048 0)
(2.6113e-07 0.792048 0)
(2.08686e-07 0.792048 0)
(1.36592e-07 0.792048 0)
(1.1499e-07 0.792048 0)
(8.42153e-08 0.792048 0)
(7.33868e-08 0.792048 0)
(5.83002e-08 0.792048 0)
(5.1898e-08 0.792048 0)
(4.35381e-08 0.792048 0)
(3.9165e-08 0.792048 0)
(3.38872e-08 0.792048 0)
(3.04817e-08 0.792048 0)
(2.66633e-08 0.792048 0)
(2.37077e-08 0.792048 0)
(2.05538e-08 0.792048 0)
(1.77962e-08 0.792048 0)
(1.49217e-08 0.792048 0)
(1.22286e-08 0.792048 0)
(9.47318e-09 0.792048 0)
(6.78725e-09 0.792048 0)
(4.06172e-09 0.792048 0)
(1.37996e-09 0.792048 0)
(-1.36699e-09 0.792048 0)
(-4.03594e-09 0.792048 0)
(-6.74208e-09 0.792048 0)
(-9.47325e-09 0.792048 0)
(-1.22108e-08 0.792048 0)
(-1.48842e-08 0.792048 0)
(-1.7802e-08 0.792048 0)
(-2.05392e-08 0.792048 0)
(-2.36738e-08 0.792048 0)
(-2.66713e-08 0.792048 0)
(-3.04751e-08 0.792048 0)
(-3.38599e-08 0.792048 0)
(-3.91774e-08 0.792048 0)
(-4.35278e-08 0.792048 0)
(-5.18651e-08 0.792048 0)
(-5.83118e-08 0.792048 0)
(-7.33789e-08 0.792048 0)
(-8.41874e-08 0.792048 0)
(-1.15003e-07 0.792048 0)
(-1.36585e-07 0.792048 0)
(-2.08664e-07 0.792048 0)
(-2.61149e-07 0.792048 0)
(-4.68415e-07 0.792048 0)
(-6.34577e-07 0.792048 0)
(-1.48743e-06 0.792048 0)
(-2.32153e-06 0.792049 0)
(-9.35621e-06 0.79205 0)
(-1.96358e-05 0.792071 0)
(-0.000123968 0.792076 0)
(-0.000112575 0.792236 0)
(9.73126e-05 0.299814 0)
(0.000110012 0.299719 0)
(2.1769e-05 0.299716 0)
(1.0422e-05 0.299692 0)
(2.74966e-06 0.299691 0)
(1.74264e-06 0.299691 0)
(7.62491e-07 0.299691 0)
(5.5636e-07 0.299691 0)
(3.13999e-07 0.299691 0)
(2.47834e-07 0.299691 0)
(1.62601e-07 0.299691 0)
(1.35014e-07 0.299691 0)
(9.82979e-08 0.299691 0)
(8.44223e-08 0.299691 0)
(6.63085e-08 0.299691 0)
(5.81944e-08 0.299691 0)
(4.817e-08 0.299691 0)
(4.27768e-08 0.299691 0)
(3.65422e-08 0.299691 0)
(3.25155e-08 0.299691 0)
(2.81362e-08 0.299691 0)
(2.48052e-08 0.299691 0)
(2.13264e-08 0.299691 0)
(1.83491e-08 0.299691 0)
(1.52943e-08 0.299691 0)
(1.24809e-08 0.299691 0)
(9.6314e-09 0.299691 0)
(6.88583e-09 0.299691 0)
(4.1117e-09 0.299691 0)
(1.39604e-09 0.299691 0)
(-1.37973e-09 0.299691 0)
(-4.08423e-09 0.299691 0)
(-6.84144e-09 0.299691 0)
(-9.62593e-09 0.299691 0)
(-1.24617e-08 0.299691 0)
(-1.52589e-08 0.299691 0)
(-1.83503e-08 0.299691 0)
(-2.13107e-08 0.299691 0)
(-2.4774e-08 0.299691 0)
(-2.814e-08 0.299691 0)
(-3.2508e-08 0.299691 0)
(-3.65177e-08 0.299691 0)
(-4.27854e-08 0.299691 0)
(-4.81591e-08 0.299691 0)
(-5.81645e-08 0.299691 0)
(-6.63168e-08 0.299691 0)
(-8.44143e-08 0.299691 0)
(-9.82734e-08 0.299691 0)
(-1.35025e-07 0.299691 0)
(-1.62595e-07 0.299691 0)
(-2.47816e-07 0.299691 0)
(-3.14017e-07 0.299691 0)
(-5.56351e-07 0.299691 0)
(-7.62462e-07 0.299691 0)
(-1.74264e-06 0.299691 0)
(-2.74963e-06 0.299691 0)
(-1.0422e-05 0.299692 0)
(-2.1769e-05 0.299716 0)
(-0.000110012 0.299719 0)
(-9.73125e-05 0.299814 0)
(8.55574e-05 0.100816 0)
(9.94236e-05 0.100844 0)
(2.36949e-05 0.100841 0)
(1.14314e-05 0.100817 0)
(3.1888e-06 0.100815 0)
(2.003e-06 0.100815 0)
(8.95918e-07 0.100815 0)
(6.47465e-07 0.100815 0)
(3.69386e-07 0.100815 0)
(2.88603e-07 0.100815 0)
(1.89876e-07 0.100815 0)
(1.55904e-07 0.100815 0)
(1.13054e-07 0.100815 0)
(9.59301e-08 0.100815 0)
(7.46791e-08 0.100815 0)
(6.47427e-08 0.100815 0)
(5.29883e-08 0.100815 0)
(4.65128e-08 0.100815 0)
(3.9282e-08 0.100815 0)
(3.45988e-08 0.100815 0)
(2.96362e-08 0.100815 0)
(2.5911e-08 0.100815 0)
(2.20963e-08 0.100815 0)
(1.88912e-08 0.100815 0)
(1.56525e-08 0.100815 0)
(1.27176e-08 0.100815 0)
(9.77541e-09 0.100815 0)
(6.97277e-09 0.100815 0)
(4.1544e-09 0.100815 0)
(1.40981e-09 0.100815 0)
(-1.39054e-09 0.100815 0)
(-4.1252e-09 0.100815 0)
(-6.9285e-09 0.100815 0)
(-9.76513e-09 0.100815 0)
(-1.26968e-08 0.100815 0)
(-1.56184e-08 0.100815 0)
(-1.88885e-08 0.100815 0)
(-2.20795e-08 0.100815 0)
(-2.58818e-08 0.100815 0)
(-2.96367e-08 0.100815 0)
(-3.45905e-08 0.100815 0)
(-3.92596e-08 0.100815 0)
(-4.65182e-08 0.100815 0)
(-5.29769e-08 0.100815 0)
(-6.47153e-08 0.100815 0)
(-7.46849e-08 0.100815 0)
(-9.59218e-08 0.100815 0)
(-1.13033e-07 0.100815 0)
(-1.55913e-07 0.100815 0)
(-1.89871e-07 0.100815 0)
(-2.88589e-07 0.100815 0)
(-3.69402e-07 0.100815 0)
(-6.47458e-07 0.100815 0)
(-8.95892e-07 0.100815 0)
(-2.00299e-06 0.100815 0)
(-3.18877e-06 0.100815 0)
(-1.14313e-05 0.100817 0)
(-2.36949e-05 0.100841 0)
(-9.94236e-05 0.100844 0)
(-8.55574e-05 0.100816 0)
(7.55938e-05 0.0548087 0)
(9.0473e-05 0.054882 0)
(2.53994e-05 0.0548797 0)
(1.23802e-05 0.0548535 0)
(3.63557e-06 0.0548522 0)
(2.26703e-06 0.0548514 0)
(1.03419e-06 0.0548513 0)
(7.41336e-07 0.0548512 0)
(4.27051e-07 0.0548512 0)
(3.30847e-07 0.0548512 0)
(2.18331e-07 0.0548512 0)
(1.77614e-07 0.0548512 0)
(1.28469e-07 0.0548512 0)
(1.07914e-07 0.0548512 0)
(8.34314e-08 0.0548512 0)
(7.15736e-08 0.0548512 0)
(5.80314e-08 0.0548512 0)
(5.04161e-08 0.0548512 0)
(4.21528e-08 0.0548512 0)
(3.6779e-08 0.0548512 0)
(3.12106e-08 0.0548512 0)
(2.70705e-08 0.0548512 0)
(2.29059e-08 0.0548512 0)
(1.94611e-08 0.0548512 0)
(1.60304e-08 0.0548512 0)
(1.29674e-08 0.0548512 0)
(9.92814e-09 0.0548512 0)
(7.06484e-09 0.0548512 0)
(4.19996e-09 0.0548512 0)
(1.42452e-09 0.0548512 0)
(-1.40251e-09 0.0548512 0)
(-4.16902e-09 0.0548512 0)
(-7.02035e-09 0.0548512 0)
(-9.91346e-09 0.0548512 0)
(-1.2945e-08 0.0548512 0)
(-1.59973e-08 0.0548512 0)
(-1.9455e-08 0.0548512 0)
(-2.28881e-08 0.0548512 0)
(-2.70429e-08 0.0548512 0)
(-3.12081e-08 0.0548512 0)
(-3.677e-08 0.0548512 0)
(-4.21322e-08 0.0548512 0)
(-5.04189e-08 0.0548512 0)
(-5.80195e-08 0.0548512 0)
(-7.15481e-08 0.0548512 0)
(-8.34352e-08 0.0548512 0)
(-1.07906e-07 0.0548512 0)
(-1.28449e-07 0.0548512 0)
(-1.77622e-07 0.0548512 0)
(-2.18327e-07 0.0548512 0)
(-3.30837e-07 0.0548512 0)
(-4.27066e-07 0.0548512 0)
(-7.41329e-07 0.0548512 0)
(-1.03417e-06 0.0548513 0)
(-2.26702e-06 0.0548514 0)
(-3.63554e-06 0.0548522 0)
(-1.23801e-05 0.0548535 0)
(-2.53994e-05 0.0548797 0)
(-9.04729e-05 0.054882 0)
(-7.55937e-05 0.0548087 0)
(6.6249e-05 0.0348775 0)
(8.19821e-05 0.0349606 0)
(2.68747e-05 0.0349589 0)
(1.32644e-05 0.0349317 0)
(4.08695e-06 0.0349302 0)
(2.53355e-06 0.0349292 0)
(1.17679e-06 0.0349291 0)
(8.37685e-07 0.034929 0)
(4.86834e-07 0.034929 0)
(3.7447e-07 0.0349289 0)
(2.4791e-07 0.0349289 0)
(2.00115e-07 0.0349289 0)
(1.44528e-07 0.0349289 0)
(1.20375e-07 0.0349289 0)
(9.2575e-08 0.0349289 0)
(7.87028e-08 0.0349289 0)
(6.33196e-08 0.0349289 0)
(5.45102e-08 0.0349289 0)
(4.518e-08 0.0349289 0)
(3.90821e-08 0.0349289 0)
(3.2885e-08 0.0349289 0)
(2.83087e-08 0.0349289 0)
(2.37788e-08 0.0349289 0)
(2.00804e-08 0.0349289 0)
(1.64469e-08 0.0349289 0)
(1.32464e-08 0.0349289 0)
(1.01023e-08 0.0349289 0)
(7.17135e-09 0.0349289 0)
(4.254e-09 0.0349289 0)
(1.44202e-09 0.0349289 0)
(-1.41735e-09 0.0349289 0)
(-4.2213e-09 0.0349289 0)
(-7.12648e-09 0.0349289 0)
(-1.00834e-08 0.0349289 0)
(-1.32223e-08 0.0349289 0)
(-1.64146e-08 0.0349289 0)
(-2.0071e-08 0.0349289 0)
(-2.37599e-08 0.0349289 0)
(-2.82826e-08 0.0349289 0)
(-3.28798e-08 0.0349289 0)
(-3.90723e-08 0.0349289 0)
(-4.5161e-08 0.0349289 0)
(-5.45106e-08 0.0349289 0)
(-6.33074e-08 0.0349289 0)
(-7.86792e-08 0.0349289 0)
(-9.25769e-08 0.0349289 0)
(-1.20367e-07 0.0349289 0)
(-1.44512e-07 0.0349289 0)
(-2.00122e-07 0.0349289 0)
(-2.47907e-07 0.0349289 0)
(-3.74463e-07 0.0349289 0)
(-4.86849e-07 0.034929 0)
(-8.3768e-07 0.034929 0)
(-1.17677e-06 0.0349291 0)
(-2.53354e-06 0.0349292 0)
(-4.08692e-06 0.0349302 0)
(-1.32644e-05 0.0349317 0)
(-2.68747e-05 0.0349589 0)
(-8.1982e-05 0.0349606 0)
(-6.62489e-05 0.0348775 0)
(5.73981e-05 0.0190316 0)
(7.38262e-05 0.0191222 0)
(2.81192e-05 0.0191212 0)
(1.40803e-05 0.0190931 0)
(4.54018e-06 0.0190913 0)
(2.80152e-06 0.0190902 0)
(1.32331e-06 0.0190901 0)
(9.36301e-07 0.0190899 0)
(5.48629e-07 0.0190899 0)
(4.19407e-07 0.0190899 0)
(2.78579e-07 0.0190899 0)
(2.23387e-07 0.0190899 0)
(1.61226e-07 0.0190899 0)
(1.33313e-07 0.0190899 0)
(1.02115e-07 0.0190899 0)
(8.61387e-08 0.0190899 0)
(6.8864e-08 0.0190899 0)
(5.88076e-08 0.0190899 0)
(4.8377e-08 0.0190899 0)
(4.1522e-08 0.0190899 0)
(3.46732e-08 0.0190899 0)
(2.96389e-08 0.0190899 0)
(2.47274e-08 0.0190899 0)
(2.07604e-08 0.0190899 0)
(1.69121e-08 0.0190899 0)
(1.35629e-08 0.0190899 0)
(1.03047e-08 0.0190899 0)
(7.29725e-09 0.0190899 0)
(4.31952e-09 0.0190899 0)
(1.46328e-09 0.0190899 0)
(-1.43599e-09 0.0190899 0)
(-4.28504e-09 0.0190899 0)
(-7.25191e-09 0.0190899 0)
(-1.02817e-08 0.0190899 0)
(-1.35372e-08 0.0190899 0)
(-1.68803e-08 0.0190899 0)
(-2.07477e-08 0.0190899 0)
(-2.47076e-08 0.0190899 0)
(-2.96142e-08 0.0190899 0)
(-3.46654e-08 0.0190899 0)
(-4.15114e-08 0.0190899 0)
(-4.83596e-08 0.0190899 0)
(-5.88058e-08 0.0190899 0)
(-6.88514e-08 0.0190899 0)
(-8.61171e-08 0.0190899 0)
(-1.02115e-07 0.0190899 0)
(-1.33304e-07 0.0190899 0)
(-1.61211e-07 0.0190899 0)
(-2.23393e-07 0.0190899 0)
(-2.78577e-07 0.0190899 0)
(-4.19403e-07 0.0190899 0)
(-5.48644e-07 0.0190899 0)
(-9.36297e-07 0.0190899 0)
(-1.32329e-06 0.0190901 0)
(-2.80151e-06 0.0190902 0)
(-4.54015e-06 0.0190913 0)
(-1.40802e-05 0.0190931 0)
(-2.81192e-05 0.0191212 0)
(-7.38261e-05 0.0191222 0)
(-5.7398e-05 0.0190316 0)
(4.91048e-05 0.00940956 0)
(6.60719e-05 0.00950804 0)
(2.91346e-05 0.00950777 0)
(1.48243e-05 0.00947899 0)
(4.99263e-06 0.00947692 0)
(3.06998e-06 0.00947559 0)
(1.47337e-06 0.00947542 0)
(1.03701e-06 0.00947527 0)
(6.12355e-07 0.00947524 0)
(4.65618e-07 0.00947521 0)
(3.10317e-07 0.0094752 0)
(2.47421e-07 0.00947519 0)
(1.78558e-07 0.00947519 0)
(1.46727e-07 0.00947518 0)
(1.12054e-07 0.00947518 0)
(9.38866e-08 0.00947518 0)
(7.46706e-08 0.00947518 0)
(6.33152e-08 0.00947518 0)
(5.17511e-08 0.00947518 0)
(4.4106e-08 0.00947518 0)
(3.65825e-08 0.00947518 0)
(3.1068e-08 0.00947518 0)
(2.57583e-08 0.00947518 0)
(2.15069e-08 0.00947518 0)
(1.7431e-08 0.00947518 0)
(1.39213e-08 0.00947518 0)
(1.05388e-08 0.00947518 0)
(7.44501e-09 0.00947518 0)
(4.39806e-09 0.00947518 0)
(1.48887e-09 0.00947518 0)
(-1.45895e-09 0.00947518 0)
(-4.36181e-09 0.00947518 0)
(-7.39911e-09 0.00947518 0)
(-1.05117e-08 0.00947518 0)
(-1.38939e-08 0.00947518 0)
(-1.73997e-08 0.00947518 0)
(-2.14911e-08 0.00947518 0)
(-2.57375e-08 0.00947518 0)
(-3.10447e-08 0.00947518 0)
(-3.65723e-08 0.00947518 0)
(-4.40947e-08 0.00947518 0)
(-5.17351e-08 0.00947518 0)
(-6.33114e-08 0.00947518 0)
(-7.46578e-08 0.00947518 0)
(-9.38666e-08 0.00947518 0)
(-1.12052e-07 0.00947518 0)
(-1.46719e-07 0.00947518 0)
(-1.78545e-07 0.00947519 0)
(-2.47426e-07 0.00947519 0)
(-3.10316e-07 0.0094752 0)
(-4.65617e-07 0.00947521 0)
(-6.1237e-07 0.00947524 0)
(-1.03701e-06 0.00947527 0)
(-1.47336e-06 0.00947542 0)
(-3.06997e-06 0.00947559 0)
(-4.9926e-06 0.00947692 0)
(-1.48243e-05 0.00947899 0)
(-2.91345e-05 0.00950777 0)
(-6.60719e-05 0.00950804 0)
(-4.91047e-05 0.00940956 0)
(4.13509e-05 0.00477665 0)
(5.87057e-05 0.00488098 0)
(2.99242e-05 0.00488145 0)
(1.54938e-05 0.00485216 0)
(5.44165e-06 0.0048498 0)
(3.33798e-06 0.00484829 0)
(1.62663e-06 0.00484808 0)
(1.13966e-06 0.00484791 0)
(6.77948e-07 0.00484787 0)
(5.13069e-07 0.00484783 0)
(3.43108e-07 0.00484782 0)
(2.7221e-07 0.00484781 0)
(1.96523e-07 0.00484781 0)
(1.6062e-07 0.0048478 0)
(1.22395e-07 0.0048478 0)
(1.0195e-07 0.0048478 0)
(8.07436e-08 0.0048478 0)
(6.80373e-08 0.0048478 0)
(5.53066e-08 0.00484779 0)
(4.68383e-08 0.00484779 0)
(3.8617e-08 0.00484779 0)
(3.25999e-08 0.00484779 0)
(2.68749e-08 0.00484779 0)
(2.2323e-08 0.00484779 0)
(1.80065e-08 0.00484779 0)
(1.4324e-08 0.00484779 0)
(1.08062e-08 0.00484779 0)
(7.61587e-09 0.00484779 0)
(4.4904e-09 0.00484779 0)
(1.51905e-09 0.00484779 0)
(-1.4865e-09 0.00484779 0)
(-4.45235e-09 0.00484779 0)
(-7.56933e-09 0.00484779 0)
(-1.07753e-08 0.00484779 0)
(-1.42948e-08 0.00484779 0)
(-1.79754e-08 0.00484779 0)
(-2.23042e-08 0.00484779 0)
(-2.6853e-08 0.00484779 0)
(-3.25777e-08 0.00484779 0)
(-3.86045e-08 0.00484779 0)
(-4.68263e-08 0.00484779 0)
(-5.5292e-08 0.00484779 0)
(-6.80317e-08 0.0048478 0)
(-8.07307e-08 0.0048478 0)
(-1.01932e-07 0.0048478 0)
(-1.22392e-07 0.0048478 0)
(-1.60611e-07 0.0048478 0)
(-1.96512e-07 0.00484781 0)
(-2.72214e-07 0.00484781 0)
(-3.43108e-07 0.00484782 0)
(-5.13071e-07 0.00484783 0)
(-6.77963e-07 0.00484787 0)
(-1.13966e-06 0.00484791 0)
(-1.62662e-06 0.00484808 0)
(-3.33796e-06 0.00484829 0)
(-5.44163e-06 0.0048498 0)
(-1.54937e-05 0.00485216 0)
(-2.99241e-05 0.00488145 0)
(-5.87056e-05 0.00488098 0)
(-4.13508e-05 0.00477665 0)
(3.4094e-05 0.00261635 0)
(5.16904e-05 0.00272445 0)
(3.0493e-05 0.0027257 0)
(1.60861e-05 0.00269605 0)
(5.88463e-06 0.00269341 0)
(3.60455e-06 0.00269171 0)
(1.78273e-06 0.00269146 0)
(1.2441e-06 0.00269126 0)
(7.45344e-07 0.00269121 0)
(5.61734e-07 0.00269117 0)
(3.76942e-07 0.00269115 0)
(2.9775e-07 0.00269114 0)
(2.15121e-07 0.00269114 0)
(1.74993e-07 0.00269113 0)
(1.33141e-07 0.00269113 0)
(1.10331e-07 0.00269113 0)
(8.70858e-08 0.00269112 0)
(7.29768e-08 0.00269112 0)
(5.90464e-08 0.00269112 0)
(4.97216e-08 0.00269112 0)
(4.07789e-08 0.00269112 0)
(3.42367e-08 0.00269112 0)
(2.80792e-08 0.00269112 0)
(2.32104e-08 0.00269112 0)
(1.86398e-08 0.00269112 0)
(1.47719e-08 0.00269112 0)
(1.11081e-08 0.00269112 0)
(7.81052e-09 0.00269112 0)
(4.59695e-09 0.00269112 0)
(1.55391e-09 0.00269112 0)
(-1.51878e-09 0.00269112 0)
(-4.55705e-09 0.00269112 0)
(-7.76324e-09 0.00269112 0)
(-1.10734e-08 0.00269112 0)
(-1.4741e-08 0.00269112 0)
(-1.86087e-08 0.00269112 0)
(-2.31887e-08 0.00269112 0)
(-2.80562e-08 0.00269112 0)
(-3.42155e-08 0.00269112 0)
(-4.07644e-08 0.00269112 0)
(-4.97089e-08 0.00269112 0)
(-5.90329e-08 0.00269112 0)
(-7.29695e-08 0.00269112 0)
(-8.70729e-08 0.00269112 0)
(-1.10315e-07 0.00269113 0)
(-1.33136e-07 0.00269113 0)
(-1.74984e-07 0.00269113 0)
(-2.15112e-07 0.00269114 0)
(-2.97754e-07 0.00269114 0)
(-3.76944e-07 0.00269115 0)
(-5.61738e-07 0.00269117 0)
(-7.45359e-07 0.00269121 0)
(-1.2441e-06 0.00269126 0)
(-1.78272e-06 0.00269146 0)
(-3.60454e-06 0.00269171 0)
(-5.8846e-06 0.00269341 0)
(-1.6086e-05 0.00269605 0)
(-3.04929e-05 0.0027257 0)
(-5.16903e-05 0.00272445 0)
(-3.40939e-05 0.00261635 0)
(2.73093e-05 0.001523 0)
(4.50077e-05 0.00163364 0)
(3.08471e-05 0.00163568 0)
(1.65991e-05 0.00160586 0)
(6.31888e-06 0.00160292 0)
(3.8687e-06 0.00160103 0)
(1.94127e-06 0.00160073 0)
(1.35016e-06 0.0016005 0)
(8.14478e-07 0.00160044 0)
(6.11582e-07 0.00160039 0)
(4.11808e-07 0.00160037 0)
(3.24038e-07 0.00160036 0)
(2.34352e-07 0.00160035 0)
(1.89848e-07 0.00160035 0)
(1.44294e-07 0.00160034 0)
(1.19034e-07 0.00160034 0)
(9.37e-08 0.00160034 0)
(7.81362e-08 0.00160034 0)
(6.29725e-08 0.00160034 0)
(5.27579e-08 0.00160034 0)
(4.30701e-08 0.00160034 0)
(3.59799e-08 0.00160034 0)
(2.93723e-08 0.00160034 0)
(2.41702e-08 0.00160033 0)
(1.93319e-08 0.00160033 0)
(1.52659e-08 0.00160033 0)
(1.14448e-08 0.00160033 0)
(8.02933e-09 0.00160033 0)
(4.71786e-09 0.00160033 0)
(1.59354e-09 0.00160033 0)
(-1.55589e-09 0.00160033 0)
(-4.67611e-09 0.00160033 0)
(-7.98123e-09 0.00160033 0)
(-1.14065e-08 0.00160033 0)
(-1.52331e-08 0.00160033 0)
(-1.93007e-08 0.00160033 0)
(-2.41458e-08 0.00160033 0)
(-2.93482e-08 0.00160033 0)
(-3.59595e-08 0.00160034 0)
(-4.30537e-08 0.00160034 0)
(-5.27445e-08 0.00160034 0)
(-6.296e-08 0.00160034 0)
(-7.81275e-08 0.00160034 0)
(-9.36872e-08 0.00160034 0)
(-1.19019e-07 0.00160034 0)
(-1.44288e-07 0.00160034 0)
(-1.89839e-07 0.00160035 0)
(-2.34345e-07 0.00160035 0)
(-3.24042e-07 0.00160036 0)
(-4.1181e-07 0.00160037 0)
(-6.11588e-07 0.00160039 0)
(-8.14493e-07 0.00160044 0)
(-1.35017e-06 0.0016005 0)
(-1.94127e-06 0.00160073 0)
(-3.86869e-06 0.00160103 0)
(-6.31886e-06 0.00160292 0)
(-1.6599e-05 0.00160586 0)
(-3.0847e-05 0.00163568 0)
(-4.50077e-05 0.00163364 0)
(-2.73093e-05 0.001523 0)
(2.09856e-05 0.000942788 0)
(3.86536e-05 0.00105521 0)
(3.09939e-05 0.00105806 0)
(1.7031e-05 0.00102822 0)
(6.7417e-06 0.00102499 0)
(4.12938e-06 0.0010229 0)
(2.10184e-06 0.00102256 0)
(1.45767e-06 0.00102229 0)
(8.85275e-07 0.00102222 0)
(6.62582e-07 0.00102216 0)
(4.47693e-07 0.00102214 0)
(3.51071e-07 0.00102212 0)
(2.54216e-07 0.00102211 0)
(2.05186e-07 0.00102211 0)
(1.55856e-07 0.0010221 0)
(1.28061e-07 0.0010221 0)
(1.00589e-07 0.0010221 0)
(8.35178e-08 0.0010221 0)
(6.7087e-08 0.0010221 0)
(5.59489e-08 0.0010221 0)
(4.54919e-08 0.0010221 0)
(3.78308e-08 0.00102209 0)
(3.07553e-08 0.00102209 0)
(2.52032e-08 0.00102209 0)
(2.00836e-08 0.00102209 0)
(1.58065e-08 0.00102209 0)
(1.18168e-08 0.00102209 0)
(8.27262e-09 0.00102209 0)
(4.85334e-09 0.00102209 0)
(1.638e-09 0.00102209 0)
(-1.59788e-09 0.00102209 0)
(-4.80973e-09 0.00102209 0)
(-8.22359e-09 0.00102209 0)
(-1.1775e-08 0.00102209 0)
(-1.57718e-08 0.00102209 0)
(-2.0052e-08 0.00102209 0)
(-2.51762e-08 0.00102209 0)
(-3.07302e-08 0.00102209 0)
(-3.7811e-08 0.00102209 0)
(-4.54738e-08 0.0010221 0)
(-5.59348e-08 0.0010221 0)
(-6.70755e-08 0.0010221 0)
(-8.35079e-08 0.0010221 0)
(-1.00576e-07 0.0010221 0)
(-1.28047e-07 0.0010221 0)
(-1.5585e-07 0.0010221 0)
(-2.05177e-07 0.00102211 0)
(-2.5421e-07 0.00102211 0)
(-3.51074e-07 0.00102212 0)
(-4.47696e-07 0.00102214 0)
(-6.62591e-07 0.00102216 0)
(-8.8529e-07 0.00102222 0)
(-1.45767e-06 0.00102229 0)
(-2.10183e-06 0.00102256 0)
(-4.12936e-06 0.0010229 0)
(-6.74168e-06 0.00102499 0)
(-1.7031e-05 0.00102822 0)
(-3.09939e-05 0.00105806 0)
(-3.86535e-05 0.00105521 0)
(-2.09856e-05 0.000942788 0)
(1.51154e-05 0.000634456 0)
(3.26282e-05 0.000748084 0)
(3.09418e-05 0.000751763 0)
(1.73806e-05 0.000722048 0)
(7.15035e-06 0.00071854 0)
(4.38548e-06 0.000716239 0)
(2.26396e-06 0.000715846 0)
(1.56642e-06 0.000715539 0)
(9.5765e-07 0.000715462 0)
(7.14695e-07 0.000715393 0)
(4.84581e-07 0.00071537 0)
(3.78842e-07 0.000715348 0)
(2.74712e-07 0.00071534 0)
(2.2101e-07 0.000715331 0)
(1.6783e-07 0.000715327 0)
(1.37414e-07 0.000715324 0)
(1.07754e-07 0.000715322 0)
(8.91238e-08 0.00071532 0)
(7.13917e-08 0.000715319 0)
(5.92962e-08 0.000715318 0)
(4.80458e-08 0.000715317 0)
(3.97904e-08 0.000715317 0)
(3.2229e-08 0.000715317 0)
(2.63101e-08 0.000715316 0)
(2.08953e-08 0.000715316 0)
(1.63941e-08 0.000715316 0)
(1.22244e-08 0.000715316 0)
(8.54063e-09 0.000715316 0)
(5.00355e-09 0.000715316 0)
(1.68725e-09 0.000715316 0)
(-1.64473e-09 0.000715316 0)
(-4.95803e-09 0.000715316 0)
(-8.49062e-09 0.000715316 0)
(-1.21791e-08 0.000715316 0)
(-1.63575e-08 0.000715316 0)
(-2.08632e-08 0.000715316 0)
(-2.62806e-08 0.000715316 0)
(-3.22029e-08 0.000715317 0)
(-3.97712e-08 0.000715317 0)
(-4.80261e-08 0.000715317 0)
(-5.92813e-08 0.000715318 0)
(-7.13811e-08 0.000715319 0)