/*--------------------------------*- C++ -*----------------------------------*\
| =========                 |                                                 |
| \\      /  F ield         | foam-extend: Open Source CFD                    |
|  \\    /   O peration     | Version:     4.0                                |
|   \\  /    A nd           | Web:         http://www.foam-extend.org         |
|    \\/     M anipulation  |                                                 |
\*---------------------------------------------------------------------------*/
FoamFile
{
    version     2.0;
    format      ascii;
    class       volVectorField;
    location    "17";
    object      U;
}
// * * * * * * * * * * * * * * * * * * * * * * * * * * * * * * * * * * * * * //

dimensions      [0 1 -1 0 0 0 0];

internalField   nonuniform List<vector> 
6960
(
(-3.62083e-06 -221.728 0)
(-2.61819e-06 -221.72 0)
(1.32034e-06 -221.72 0)
(4.40616e-07 -221.72 0)
(1.83134e-07 -221.72 0)
(9.78576e-08 -221.72 0)
(5.90229e-08 -221.72 0)
(3.72543e-08 -221.72 0)
(2.57075e-08 -221.72 0)
(1.77949e-08 -221.72 0)
(1.32328e-08 -221.72 0)
(9.70878e-09 -221.72 0)
(7.53623e-09 -221.72 0)
(5.74771e-09 -221.72 0)
(4.57364e-09 -221.72 0)
(3.57941e-09 -221.72 0)
(2.88828e-09 -221.72 0)
(2.29686e-09 -221.72 0)
(1.86545e-09 -221.72 0)
(1.49601e-09 -221.72 0)
(1.21518e-09 -221.72 0)
(9.74683e-10 -221.72 0)
(7.85476e-10 -221.72 0)
(6.23469e-10 -221.72 0)
(4.91645e-10 -221.72 0)
(3.75935e-10 -221.72 0)
(2.77498e-10 -221.72 0)
(1.89966e-10 -221.72 0)
(1.11443e-10 -221.72 0)
(3.67432e-11 -221.72 0)
(-3.47189e-11 -221.72 0)
(-1.11442e-10 -221.72 0)
(-1.92015e-10 -221.72 0)
(-2.77624e-10 -221.72 0)
(-3.75591e-10 -221.72 0)
(-4.91852e-10 -221.72 0)
(-6.227e-10 -221.72 0)
(-7.85371e-10 -221.72 0)
(-9.75163e-10 -221.72 0)
(-1.21381e-09 -221.72 0)
(-1.49544e-09 -221.72 0)
(-1.86647e-09 -221.72 0)
(-2.29624e-09 -221.72 0)
(-2.88858e-09 -221.72 0)
(-3.58073e-09 -221.72 0)
(-4.57274e-09 -221.72 0)
(-5.74766e-09 -221.72 0)
(-7.53756e-09 -221.72 0)
(-9.70786e-09 -221.72 0)
(-1.32339e-08 -221.72 0)
(-1.77973e-08 -221.72 0)
(-2.57059e-08 -221.72 0)
(-3.72526e-08 -221.72 0)
(-5.90229e-08 -221.72 0)
(-9.78578e-08 -221.72 0)
(-1.83135e-07 -221.72 0)
(-4.40617e-07 -221.72 0)
(-1.32034e-06 -221.72 0)
(2.61819e-06 -221.72 0)
(3.62082e-06 -221.728 0)
(0.000206612 15.6067 0)
(0.000209572 15.6133 0)
(3.89052e-06 15.6133 0)
(1.30105e-06 15.6133 0)
(5.51552e-07 15.6133 0)
(2.95316e-07 15.6133 0)
(1.78278e-07 15.6133 0)
(1.12688e-07 15.6133 0)
(7.77516e-08 15.6133 0)
(5.38713e-08 15.6133 0)
(4.0043e-08 15.6133 0)
(2.94109e-08 15.6133 0)
(2.28083e-08 15.6133 0)
(1.74116e-08 15.6133 0)
(1.38532e-08 15.6133 0)
(1.0839e-08 15.6133 0)
(8.74688e-09 15.6133 0)
(6.9635e-09 15.6133 0)
(5.64512e-09 15.6133 0)
(4.53238e-09 15.6133 0)
(3.68564e-09 15.6133 0)
(2.94801e-09 15.6133 0)
(2.37929e-09 15.6133 0)
(1.89367e-09 15.6133 0)
(1.48426e-09 15.6133 0)
(1.13887e-09 15.6133 0)
(8.45617e-10 15.6133 0)
(5.70706e-10 15.6133 0)
(3.40529e-10 15.6133 0)
(1.27878e-10 15.6133 0)
(-1.42562e-10 15.6133 0)
(-3.34594e-10 15.6133 0)
(-5.32677e-10 15.6133 0)
(-8.89928e-10 15.6133 0)
(-1.13785e-09 15.6133 0)
(-1.44093e-09 15.6133 0)
(-1.93531e-09 15.6133 0)
(-2.37893e-09 15.6133 0)
(-2.90544e-09 15.6133 0)
(-3.72557e-09 15.6133 0)
(-4.53072e-09 15.6133 0)
(-5.60418e-09 15.6133 0)
(-7.00568e-09 15.6133 0)
(-8.74768e-09 15.6133 0)
(-1.07989e-08 15.6133 0)
(-1.38946e-08 15.6133 0)
(-1.74114e-08 15.6133 0)
(-2.27681e-08 15.6133 0)
(-2.94522e-08 15.6133 0)
(-4.00462e-08 15.6133 0)
(-5.38344e-08 15.6133 0)
(-7.77909e-08 15.6133 0)
(-1.12683e-07 15.6133 0)
(-1.78235e-07 15.6133 0)
(-2.95361e-07 15.6133 0)
(-5.51555e-07 15.6133 0)
(-1.30101e-06 15.6133 0)
(-3.89056e-06 15.6133 0)
(-0.000209572 15.6133 0)
(-0.000206612 15.6067 0)
(0.000169988 41.0506 0)
(0.000174606 41.0468 0)
(6.14197e-06 41.0468 0)
(2.14388e-06 41.0468 0)
(9.26677e-07 41.0468 0)
(4.9721e-07 41.0468 0)
(3.00457e-07 41.0468 0)
(1.90144e-07 41.0468 0)
(1.31181e-07 41.0468 0)
(9.09804e-08 41.0468 0)
(6.75974e-08 41.0468 0)
(4.96814e-08 41.0468 0)
(3.85187e-08 41.0468 0)
(2.94183e-08 41.0468 0)
(2.33929e-08 41.0468 0)
(1.83178e-08 41.0468 0)
(1.47742e-08 41.0468 0)
(1.17614e-08 41.0468 0)
(9.53948e-09 41.0468 0)
(7.65731e-09 41.0468 0)
(6.22147e-09 41.0468 0)
(4.98415e-09 41.0468 0)
(4.01865e-09 41.0468 0)
(3.19454e-09 41.0468 0)
(2.5106e-09 41.0468 0)
(1.92348e-09 41.0468 0)
(1.42424e-09 41.0468 0)
(9.68032e-10 41.0468 0)
(5.72673e-10 41.0468 0)
(2.02182e-10 41.0468 0)
(-2.10487e-10 41.0468 0)
(-5.67435e-10 41.0468 0)
(-9.39674e-10 41.0468 0)
(-1.46266e-09 41.0468 0)
(-1.92184e-09 41.0468 0)
(-2.47372e-09 41.0468 0)
(-3.22855e-09 41.0468 0)
(-4.01801e-09 41.0468 0)
(-4.94847e-09 41.0468 0)
(-6.25276e-09 41.0468 0)
(-7.65463e-09 41.0468 0)
(-9.50654e-09 41.0468 0)
(-1.17964e-08 41.0468 0)
(-1.47755e-08 41.0468 0)
(-1.82862e-08 41.0468 0)
(-2.34268e-08 41.0468 0)
(-2.9418e-08 41.0468 0)
(-3.84867e-08 41.0468 0)
(-4.9715e-08 41.0468 0)
(-6.76025e-08 41.0468 0)
(-9.09537e-08 41.0468 0)
(-1.31211e-07 41.0468 0)
(-1.90137e-07 41.0468 0)
(-3.00419e-07 41.0468 0)
(-4.97249e-07 41.0468 0)
(-9.26682e-07 41.0468 0)
(-2.14385e-06 41.0468 0)
(-6.14201e-06 41.0468 0)
(-0.000174606 41.0468 0)
(-0.000169988 41.0506 0)
(6.44305e-05 10.1496 0)
(7.05145e-05 10.1458 0)
(8.16185e-06 10.1458 0)
(2.95226e-06 10.1458 0)
(1.30762e-06 10.1458 0)
(7.03344e-07 10.1458 0)
(4.25514e-07 10.1458 0)
(2.69626e-07 10.1458 0)
(1.8601e-07 10.1458 0)
(1.29132e-07 10.1458 0)
(9.59084e-08 10.1458 0)
(7.05353e-08 10.1458 0)
(5.46721e-08 10.1458 0)
(4.17749e-08 10.1458 0)
(3.32025e-08 10.1458 0)
(2.60166e-08 10.1458 0)
(2.0974e-08 10.1458 0)
(1.66973e-08 10.1458 0)
(1.35468e-08 10.1458 0)
(1.08725e-08 10.1458 0)
(8.82797e-09 10.1458 0)
(7.08012e-09 10.1458 0)
(5.70429e-09 10.1458 0)
(4.5306e-09 10.1458 0)
(3.56704e-09 10.1458 0)
(2.73007e-09 10.1458 0)
(2.01756e-09 10.1458 0)
(1.37808e-09 10.1458 0)
(8.1036e-10 10.1458 0)
(2.73256e-10 10.1458 0)
(-2.68959e-10 10.1458 0)
(-8.0763e-10 10.1458 0)
(-1.3731e-09 10.1458 0)
(-2.03602e-09 10.1458 0)
(-2.72787e-09 10.1458 0)
(-3.55058e-09 10.1458 0)
(-4.54295e-09 10.1458 0)
(-5.70337e-09 10.1458 0)
(-7.06527e-09 10.1458 0)
(-8.8367e-09 10.1458 0)
(-1.08689e-08 10.1458 0)
(-1.35358e-08 10.1458 0)
(-1.67114e-08 10.1458 0)
(-2.09756e-08 10.1458 0)
(-2.60073e-08 10.1458 0)
(-3.32149e-08 10.1458 0)
(-4.17745e-08 10.1458 0)
(-5.46622e-08 10.1458 0)
(-7.05472e-08 10.1458 0)
(-9.59152e-08 10.1458 0)
(-1.29129e-07 10.1458 0)
(-1.86018e-07 10.1458 0)
(-2.69616e-07 10.1458 0)
(-4.25497e-07 10.1458 0)
(-7.03362e-07 10.1458 0)
(-1.30762e-06 10.1458 0)
(-2.95226e-06 10.1458 0)
(-8.16187e-06 10.1458 0)
(-7.05145e-05 10.1458 0)
(-6.44305e-05 10.1496 0)
(2.73992e-05 -1.13967 0)
(3.48798e-05 -1.14026 0)
(1.00789e-05 -1.14026 0)
(3.72915e-06 -1.14027 0)
(1.69347e-06 -1.14027 0)
(9.13498e-07 -1.14027 0)
(5.53395e-07 -1.14027 0)
(3.51127e-07 -1.14027 0)
(2.42253e-07 -1.14027 0)
(1.68336e-07 -1.14027 0)
(1.24988e-07 -1.14027 0)
(9.19864e-08 -1.14027 0)
(7.12744e-08 -1.14027 0)
(5.44892e-08 -1.14027 0)
(4.32911e-08 -1.14027 0)
(3.39372e-08 -1.14027 0)
(2.73502e-08 -1.14027 0)
(2.1778e-08 -1.14027 0)
(1.76667e-08 -1.14027 0)
(1.41803e-08 -1.14027 0)
(1.15101e-08 -1.14027 0)
(9.23435e-09 -1.14027 0)
(7.43742e-09 -1.14027 0)
(5.90589e-09 -1.14027 0)
(4.65125e-09 -1.14027 0)
(3.55921e-09 -1.14027 0)
(2.62912e-09 -1.14027 0)
(1.79805e-09 -1.14027 0)
(1.05562e-09 -1.14027 0)
(3.51642e-10 -1.14027 0)
(-3.41535e-10 -1.14027 0)
(-1.05349e-09 -1.14027 0)
(-1.80234e-09 -1.14027 0)
(-2.64131e-09 -1.14027 0)
(-3.5565e-09 -1.14027 0)
(-4.64137e-09 -1.14027 0)
(-5.91036e-09 -1.14027 0)
(-7.43621e-09 -1.14027 0)
(-9.22645e-09 -1.14027 0)
(-1.15102e-08 -1.14027 0)
(-1.41759e-08 -1.14027 0)
(-1.76637e-08 -1.14027 0)
(-2.17848e-08 -1.14027 0)
(-2.73523e-08 -1.14027 0)
(-3.39363e-08 -1.14027 0)
(-4.32961e-08 -1.14027 0)
(-5.44885e-08 -1.14027 0)
(-7.12725e-08 -1.14027 0)
(-9.19904e-08 -1.14027 0)
(-1.24996e-07 -1.14027 0)
(-1.68343e-07 -1.14027 0)
(-2.42251e-07 -1.14027 0)
(-3.51115e-07 -1.14027 0)
(-5.53385e-07 -1.14027 0)
(-9.1351e-07 -1.14027 0)
(-1.69348e-06 -1.14027 0)
(-3.72915e-06 -1.14027 0)
(-1.00789e-05 -1.14026 0)
(-3.48798e-05 -1.14026 0)
(-2.73992e-05 -1.13967 0)
(2.71638e-05 -0.656779 0)
(3.59477e-05 -0.656341 0)
(1.18815e-05 -0.656341 0)
(4.48656e-06 -0.656348 0)
(2.08328e-06 -0.656349 0)
(1.12742e-06 -0.656349 0)
(6.84029e-07 -0.656349 0)
(4.34636e-07 -0.656349 0)
(2.99912e-07 -0.656349 0)
(2.08603e-07 -0.656349 0)
(1.54847e-07 -0.656349 0)
(1.14044e-07 -0.656349 0)
(8.8335e-08 -0.656349 0)
(6.75684e-08 -0.656349 0)
(5.36644e-08 -0.656349 0)
(4.20858e-08 -0.656349 0)
(3.39074e-08 -0.656349 0)
(2.70062e-08 -0.656349 0)
(2.19031e-08 -0.656349 0)
(1.75832e-08 -0.656349 0)
(1.42691e-08 -0.656349 0)
(1.14493e-08 -0.656349 0)
(9.21945e-09 -0.656349 0)
(7.32082e-09 -0.656349 0)
(5.76479e-09 -0.656349 0)
(4.41157e-09 -0.656349 0)
(3.25871e-09 -0.656349 0)
(2.22903e-09 -0.656349 0)
(1.30822e-09 -0.656349 0)
(4.34978e-10 -0.656349 0)
(-4.22873e-10 -0.656349 0)
(-1.30563e-09 -0.656349 0)
(-2.23487e-09 -0.656349 0)
(-3.27191e-09 -0.656349 0)
(-4.40844e-09 -0.656349 0)
(-5.75412e-09 -0.656349 0)
(-7.32476e-09 -0.656349 0)
(-9.21794e-09 -0.656349 0)
(-1.14409e-08 -0.656349 0)
(-1.42681e-08 -0.656349 0)
(-1.75782e-08 -0.656349 0)
(-2.19006e-08 -0.656349 0)
(-2.70133e-08 -0.656349 0)
(-3.39097e-08 -0.656349 0)
(-4.20857e-08 -0.656349 0)
(-5.36694e-08 -0.656349 0)
(-6.75676e-08 -0.656349 0)
(-8.83335e-08 -0.656349 0)
(-1.14048e-07 -0.656349 0)
(-1.54856e-07 -0.656349 0)
(-2.08612e-07 -0.656349 0)
(-2.99909e-07 -0.656349 0)
(-4.34622e-07 -0.656349 0)
(-6.84019e-07 -0.656349 0)
(-1.12743e-06 -0.656349 0)
(-2.08329e-06 -0.656349 0)
(-4.48656e-06 -0.656348 0)
(-1.18815e-05 -0.656341 0)
(-3.59477e-05 -0.656341 0)
(-2.71638e-05 -0.656779 0)
(2.39135e-05 0.326753 0)
(3.38622e-05 0.326913 0)
(1.35292e-05 0.326912 0)
(5.2284e-06 0.326905 0)
(2.47597e-06 0.326904 0)
(1.34481e-06 0.326904 0)
(8.1733e-07 0.326904 0)
(5.20132e-07 0.326904 0)
(3.58988e-07 0.326904 0)
(2.49943e-07 0.326904 0)
(1.85494e-07 0.326904 0)
(1.36717e-07 0.326904 0)
(1.05863e-07 0.326904 0)
(8.10202e-08 0.326904 0)
(6.43277e-08 0.326904 0)
(5.04684e-08 0.326904 0)
(4.06499e-08 0.326904 0)
(3.23848e-08 0.326904 0)
(2.62598e-08 0.326904 0)
(2.10838e-08 0.326904 0)
(1.71064e-08 0.326904 0)
(1.37275e-08 0.326904 0)
(1.10518e-08 0.326904 0)
(8.77572e-09 0.326904 0)
(6.90955e-09 0.326904 0)
(5.28791e-09 0.326904 0)
(3.906e-09 0.326904 0)
(2.67231e-09 0.326904 0)
(1.56786e-09 0.326904 0)
(5.20303e-10 0.326904 0)
(-5.06247e-10 0.326904 0)
(-1.56486e-09 0.326904 0)
(-2.68003e-09 0.326904 0)
(-3.91944e-09 0.326904 0)
(-5.28443e-09 0.326904 0)
(-6.89876e-09 0.326904 0)
(-8.77842e-09 0.326904 0)
(-1.105e-08 0.326904 0)
(-1.37192e-08 0.326904 0)
(-1.71036e-08 0.326904 0)
(-2.10782e-08 0.326904 0)
(-2.62585e-08 0.326904 0)
(-3.23916e-08 0.326904 0)
(-4.06525e-08 0.326904 0)
(-5.04697e-08 0.326904 0)
(-6.43321e-08 0.326904 0)
(-8.10192e-08 0.326904 0)
(-1.05862e-07 0.326904 0)
(-1.3672e-07 0.326904 0)
(-1.85504e-07 0.326904 0)
(-2.49954e-07 0.326904 0)
(-3.58984e-07 0.326904 0)
(-5.20116e-07 0.326904 0)
(-8.17319e-07 0.326904 0)
(-1.34482e-06 0.326904 0)
(-2.47598e-06 0.326904 0)
(-5.2284e-06 0.326905 0)
(-1.35292e-05 0.326912 0)
(-3.38622e-05 0.326913 0)
(-2.39135e-05 0.326753 0)
(1.43595e-05 0.209827 0)
(2.53315e-05 0.209798 0)
(1.50175e-05 0.209797 0)
(5.95222e-06 0.20979 0)
(2.87037e-06 0.209789 0)
(1.56534e-06 0.209789 0)
(9.53187e-07 0.209789 0)
(6.07583e-07 0.209789 0)
(4.19477e-07 0.209789 0)
(2.92362e-07 0.209789 0)
(2.16939e-07 0.209789 0)
(1.60014e-07 0.209789 0)
(1.23867e-07 0.209789 0)
(9.48517e-08 0.209789 0)
(7.5287e-08 0.209789 0)
(5.90906e-08 0.209789 0)
(4.75822e-08 0.209789 0)
(3.79176e-08 0.209789 0)
(3.07402e-08 0.209789 0)
(2.46848e-08 0.209789 0)
(2.00241e-08 0.209789 0)
(1.60711e-08 0.209789 0)
(1.29362e-08 0.209789 0)
(1.02718e-08 0.209789 0)
(8.08663e-09 0.209789 0)
(6.18904e-09 0.209789 0)
(4.57152e-09 0.209789 0)
(3.1284e-09 0.209789 0)
(1.83473e-09 0.209789 0)
(6.07457e-10 0.209789 0)
(-5.91152e-10 0.209789 0)
(-1.83146e-09 0.209789 0)
(-3.139e-09 0.209789 0)
(-4.58378e-09 0.209789 0)
(-6.1853e-09 0.209789 0)
(-8.07705e-09 0.209789 0)
(-1.02719e-08 0.209789 0)
(-1.29341e-08 0.209789 0)
(-1.60642e-08 0.209789 0)
(-2.00183e-08 0.209789 0)
(-2.46788e-08 0.209789 0)
(-3.07413e-08 0.209789 0)
(-3.79228e-08 0.209789 0)
(-4.7585e-08 0.209789 0)
(-5.90944e-08 0.209789 0)
(-7.52898e-08 0.209789 0)
(-9.48505e-08 0.209789 0)
(-1.23868e-07 0.209789 0)
(-1.60014e-07 0.209789 0)
(-2.1695e-07 0.209789 0)
(-2.92375e-07 0.209789 0)
(-4.1947e-07 0.209789 0)
(-6.07566e-07 0.209789 0)
(-9.53179e-07 0.209789 0)
(-1.56535e-06 0.209789 0)
(-2.87038e-06 0.209789 0)
(-5.95223e-06 0.20979 0)
(-1.50175e-05 0.209797 0)
(-2.53316e-05 0.209798 0)
(-1.43595e-05 0.209827 0)
(4.97778e-06 -0.12648 0)
(1.68434e-05 -0.126456 0)
(1.6357e-05 -0.126457 0)
(6.65597e-06 -0.126464 0)
(3.26522e-06 -0.126465 0)
(1.78863e-06 -0.126465 0)
(1.09147e-06 -0.126465 0)
(6.96949e-07 -0.126465 0)
(4.81369e-07 -0.126465 0)
(3.35862e-07 -0.126465 0)
(2.49188e-07 -0.126465 0)
(1.83943e-07 -0.126465 0)
(1.42355e-07 -0.126465 0)
(1.0907e-07 -0.126465 0)
(8.65487e-08 -0.126465 0)
(6.79575e-08 -0.126465 0)
(5.47089e-08 -0.126465 0)
(4.36086e-08 -0.126465 0)
(3.53474e-08 -0.126465 0)
(2.83891e-08 -0.126465 0)
(2.30247e-08 -0.126465 0)
(1.84818e-08 -0.126465 0)
(1.48741e-08 -0.126465 0)
(1.18105e-08 -0.126465 0)
(9.29701e-09 -0.126465 0)
(7.11586e-09 -0.126465 0)
(5.25607e-09 -0.126465 0)
(3.5976e-09 -0.126465 0)
(2.1092e-09 -0.126465 0)
(6.97024e-10 -0.126465 0)
(-6.78784e-10 -0.126465 0)
(-2.10562e-09 -0.126465 0)
(-3.61078e-09 -0.126465 0)
(-5.26703e-09 -0.126465 0)
(-7.11192e-09 -0.126465 0)
(-9.28867e-09 -0.126465 0)
(-1.1808e-08 -0.126465 0)
(-1.48717e-08 -0.126465 0)
(-1.84764e-08 -0.126465 0)
(-2.30161e-08 -0.126465 0)
(-2.83827e-08 -0.126465 0)
(-3.53509e-08 -0.126465 0)
(-4.36123e-08 -0.126465 0)
(-5.47119e-08 -0.126465 0)
(-6.79636e-08 -0.126465 0)
(-8.65498e-08 -0.126465 0)
(-1.09069e-07 -0.126465 0)
(-1.42357e-07 -0.126465 0)
(-1.83941e-07 -0.126465 0)
(-2.49199e-07 -0.126465 0)
(-3.35877e-07 -0.126465 0)
(-4.81359e-07 -0.126465 0)
(-6.96931e-07 -0.126465 0)
(-1.09146e-06 -0.126465 0)
(-1.78864e-06 -0.126465 0)
(-3.26523e-06 -0.126465 0)
(-6.65598e-06 -0.126464 0)
(-1.6357e-05 -0.126457 0)
(-1.68435e-05 -0.126456 0)
(-4.9778e-06 -0.12648 0)
(-2.10691e-06 -0.370799 0)
(1.05278e-05 -0.370679 0)
(1.75536e-05 -0.370679 0)
(7.33932e-06 -0.370686 0)
(3.6592e-06 -0.370687 0)
(2.01425e-06 -0.370687 0)
(1.23203e-06 -0.370687 0)
(7.88176e-07 -0.370687 0)
(5.4465e-07 -0.370687 0)
(3.80442e-07 -0.370688 0)
(2.82247e-07 -0.370688 0)
(2.08512e-07 -0.370688 0)
(1.61332e-07 -0.370688 0)
(1.23682e-07 -0.370688 0)
(9.81189e-08 -0.370688 0)
(7.70744e-08 -0.370688 0)
(6.20346e-08 -0.370688 0)
(4.9462e-08 -0.370688 0)
(4.00848e-08 -0.370688 0)
(3.21995e-08 -0.370688 0)
(2.61107e-08 -0.370688 0)
(2.09618e-08 -0.370688 0)
(1.68675e-08 -0.370688 0)
(1.33935e-08 -0.370688 0)
(1.05418e-08 -0.370688 0)
(8.06928e-09 -0.370688 0)
(5.96042e-09 -0.370688 0)
(4.08037e-09 -0.370688 0)
(2.3916e-09 -0.370688 0)
(7.8927e-10 -0.370688 0)
(-7.69607e-10 -0.370688 0)
(-2.38763e-09 -0.370688 0)
(-4.0954e-09 -0.370688 0)
(-5.97035e-09 -0.370688 0)
(-8.06523e-09 -0.370688 0)
(-1.05344e-08 -0.370688 0)
(-1.33888e-08 -0.370688 0)
(-1.68647e-08 -0.370688 0)
(-2.09574e-08 -0.370688 0)
(-2.60999e-08 -0.370688 0)
(-3.21929e-08 -0.370688 0)
(-4.00901e-08 -0.370688 0)
(-4.94645e-08 -0.370688 0)
(-6.20376e-08 -0.370688 0)
(-7.70823e-08 -0.370688 0)
(-9.81188e-08 -0.370688 0)
(-1.2368e-07 -0.370688 0)
(-1.61336e-07 -0.370688 0)
(-2.08508e-07 -0.370688 0)
(-2.82258e-07 -0.370688 0)
(-3.8046e-07 -0.370688 0)
(-5.44638e-07 -0.370687 0)
(-7.88159e-07 -0.370687 0)
(-1.23202e-06 -0.370687 0)
(-2.01426e-06 -0.370687 0)
(-3.65922e-06 -0.370687 0)
(-7.33933e-06 -0.370686 0)
(-1.75536e-05 -0.370679 0)
(-1.05279e-05 -0.370679 0)
(2.10688e-06 -0.370799 0)
(-7.28347e-06 -0.586084 0)
(5.99691e-06 -0.585887 0)
(1.86094e-05 -0.585887 0)
(8.00219e-06 -0.585894 0)
(4.0509e-06 -0.585895 0)
(2.24173e-06 -0.585895 0)
(1.37468e-06 -0.585895 0)
(8.812e-07 -0.585895 0)
(6.09299e-07 -0.585895 0)
(4.26101e-07 -0.585895 0)
(3.16118e-07 -0.585895 0)
(2.33726e-07 -0.585896 0)
(1.80807e-07 -0.585896 0)
(1.38693e-07 -0.585896 0)
(1.10003e-07 -0.585896 0)
(8.64465e-08 -0.585896 0)
(6.95638e-08 -0.585896 0)
(5.54816e-08 -0.585896 0)
(4.49559e-08 -0.585896 0)
(3.61191e-08 -0.585896 0)
(2.92848e-08 -0.585896 0)
(2.35132e-08 -0.585896 0)
(1.8918e-08 -0.585896 0)
(1.50222e-08 -0.585896 0)
(1.18223e-08 -0.585896 0)
(9.0503e-09 -0.585896 0)
(6.68532e-09 -0.585896 0)
(4.57723e-09 -0.585896 0)
(2.68219e-09 -0.585896 0)
(8.84276e-10 -0.585896 0)
(-8.6365e-10 -0.585896 0)
(-2.67783e-09 -0.585896 0)
(-4.59345e-09 -0.585896 0)
(-6.6944e-09 -0.585896 0)
(-9.04622e-09 -0.585896 0)
(-1.18155e-08 -0.585896 0)
(-1.50156e-08 -0.585896 0)
(-1.8915e-08 -0.585896 0)
(-2.35094e-08 -0.585896 0)
(-2.92721e-08 -0.585896 0)
(-3.61124e-08 -0.585896 0)
(-4.49626e-08 -0.585896 0)
(-5.54834e-08 -0.585896 0)
(-6.95669e-08 -0.585896 0)
(-8.64557e-08 -0.585896 0)
(-1.10002e-07 -0.585896 0)
(-1.38691e-07 -0.585896 0)
(-1.80811e-07 -0.585896 0)
(-2.33721e-07 -0.585896 0)
(-3.16129e-07 -0.585895 0)
(-4.26119e-07 -0.585895 0)
(-6.09284e-07 -0.585895 0)
(-8.81183e-07 -0.585895 0)
(-1.37467e-06 -0.585895 0)
(-2.24174e-06 -0.585895 0)
(-4.05092e-06 -0.585895 0)
(-8.00221e-06 -0.585894 0)
(-1.86094e-05 -0.585887 0)
(-5.99693e-06 -0.585887 0)
(7.28344e-06 -0.586084 0)
(-1.06689e-05 -0.823643 0)
(3.13582e-06 -0.823369 0)
(1.95271e-05 -0.823367 0)
(8.64401e-06 -0.823374 0)
(4.43883e-06 -0.823375 0)
(2.47054e-06 -0.823376 0)
(1.51922e-06 -0.823376 0)
(9.75942e-07 -0.823376 0)
(6.75285e-07 -0.823376 0)
(4.72828e-07 -0.823376 0)
(3.50803e-07 -0.823376 0)
(2.5959e-07 -0.823376 0)
(2.00784e-07 -0.823376 0)
(1.5411e-07 -0.823376 0)
(1.22208e-07 -0.823376 0)
(9.60789e-08 -0.823376 0)
(7.73012e-08 -0.823376 0)
(6.16715e-08 -0.823376 0)
(4.99642e-08 -0.823376 0)
(4.01509e-08 -0.823376 0)
(3.25495e-08 -0.823376 0)
(2.61383e-08 -0.823376 0)
(2.10277e-08 -0.823376 0)
(1.66982e-08 -0.823376 0)
(1.31398e-08 -0.823376 0)
(1.006e-08 -0.823376 0)
(7.43153e-09 -0.823376 0)
(5.08873e-09 -0.823376 0)
(2.98132e-09 -0.823376 0)
(9.82158e-10 -0.823376 0)
(-9.60979e-10 -0.823376 0)
(-2.97656e-09 -0.823376 0)
(-5.10556e-09 -0.823376 0)
(-7.43994e-09 -0.823376 0)
(-1.00559e-08 -0.823376 0)
(-1.31334e-08 -0.823376 0)
(-1.66901e-08 -0.823376 0)
(-2.10244e-08 -0.823376 0)
(-2.61348e-08 -0.823376 0)
(-3.25354e-08 -0.823376 0)
(-4.01442e-08 -0.823376 0)
(-4.99719e-08 -0.823376 0)
(-6.16729e-08 -0.823376 0)
(-7.73043e-08 -0.823376 0)
(-9.60891e-08 -0.823376 0)
(-1.22206e-07 -0.823376 0)
(-1.54108e-07 -0.823376 0)
(-2.00789e-07 -0.823376 0)
(-2.59583e-07 -0.823376 0)
(-3.50814e-07 -0.823376 0)
(-4.72847e-07 -0.823376 0)
(-6.7527e-07 -0.823376 0)
(-9.75925e-07 -0.823376 0)
(-1.51921e-06 -0.823376 0)
(-2.47054e-06 -0.823376 0)
(-4.43885e-06 -0.823375 0)
(-8.64403e-06 -0.823374 0)
(-1.95271e-05 -0.823367 0)
(-3.13585e-06 -0.823369 0)
(1.06689e-05 -0.823643 0)
(-1.19166e-05 -1.06904 0)
(2.29526e-06 -1.06868 0)
(2.03106e-05 -1.06868 0)
(9.26355e-06 -1.06869 0)
(4.82142e-06 -1.06869 0)
(2.70009e-06 -1.06869 0)
(1.66541e-06 -1.06869 0)
(1.07231e-06 -1.06869 0)
(7.42575e-07 -1.06869 0)
(5.20614e-07 -1.06869 0)
(3.863e-07 -1.06869 0)
(2.86106e-07 -1.06869 0)
(2.21268e-07 -1.06869 0)
(1.69939e-07 -1.06869 0)
(1.34737e-07 -1.06869 0)
(1.05977e-07 -1.06869 0)
(8.52513e-08 -1.06869 0)
(6.80357e-08 -1.06869 0)
(5.51132e-08 -1.06869 0)
(4.42981e-08 -1.06869 0)
(3.59076e-08 -1.06869 0)
(2.88393e-08 -1.06869 0)
(2.31985e-08 -1.06869 0)
(1.84232e-08 -1.06869 0)
(1.44957e-08 -1.06869 0)
(1.10994e-08 -1.06869 0)
(8.19987e-09 -1.06869 0)
(5.61546e-09 -1.06869 0)
(3.28934e-09 -1.06869 0)
(1.08307e-09 -1.06869 0)
(-1.06176e-09 -1.06869 0)
(-3.28417e-09 -1.06869 0)
(-5.63223e-09 -1.06869 0)
(-8.20791e-09 -1.06869 0)
(-1.10955e-08 -1.06869 0)
(-1.44894e-08 -1.06869 0)
(-1.84141e-08 -1.06869 0)
(-2.31949e-08 -1.06869 0)
(-2.88359e-08 -1.06869 0)
(-3.58926e-08 -1.06869 0)
(-4.42914e-08 -1.06869 0)
(-5.51215e-08 -1.06869 0)
(-6.80371e-08 -1.06869 0)
(-8.52544e-08 -1.06869 0)
(-1.05987e-07 -1.06869 0)
(-1.34736e-07 -1.06869 0)
(-1.69937e-07 -1.06869 0)
(-2.21273e-07 -1.06869 0)
(-2.861e-07 -1.06869 0)
(-3.8631e-07 -1.06869 0)
(-5.20632e-07 -1.06869 0)
(-7.42559e-07 -1.06869 0)
(-1.07229e-06 -1.06869 0)
(-1.66541e-06 -1.06869 0)
(-2.7001e-06 -1.06869 0)
(-4.82144e-06 -1.06869 0)
(-9.26357e-06 -1.06869 0)
(-2.03106e-05 -1.06868 0)
(-2.29529e-06 -1.06868 0)
(1.19165e-05 -1.06904 0)
(-1.07739e-05 -1.27935 0)
(3.73223e-06 -1.27891 0)
(2.09638e-05 -1.27891 0)
(9.85889e-06 -1.27891 0)
(5.19705e-06 -1.27891 0)
(2.92975e-06 -1.27891 0)
(1.81299e-06 -1.27891 0)
(1.17019e-06 -1.27891 0)
(8.11122e-07 -1.27891 0)
(5.6944e-07 -1.27891 0)
(4.22606e-07 -1.27891 0)
(3.13277e-07 -1.27891 0)
(2.42265e-07 -1.27891 0)
(1.86183e-07 -1.27891 0)
(1.47597e-07 -1.27891 0)
(1.16145e-07 -1.27891 0)
(9.34184e-08 -1.27891 0)
(7.45783e-08 -1.27891 0)
(6.04066e-08 -1.27891 0)
(4.85638e-08 -1.27891 0)
(3.93617e-08 -1.27891 0)
(3.16188e-08 -1.27891 0)
(2.54325e-08 -1.27891 0)
(2.01989e-08 -1.27891 0)
(1.58915e-08 -1.27891 0)
(1.21698e-08 -1.27891 0)
(8.99121e-09 -1.27891 0)
(6.158e-09 -1.27891 0)
(3.6066e-09 -1.27891 0)
(1.18718e-09 -1.27891 0)
(-1.16612e-09 -1.27891 0)
(-3.60104e-09 -1.27891 0)
(-6.17403e-09 -1.27891 0)
(-8.99919e-09 -1.27891 0)
(-1.2166e-08 -1.27891 0)
(-1.58849e-08 -1.27891 0)
(-2.01894e-08 -1.27891 0)
(-2.54286e-08 -1.27891 0)
(-3.16148e-08 -1.27891 0)
(-3.93465e-08 -1.27891 0)
(-4.85573e-08 -1.27891 0)
(-6.04148e-08 -1.27891 0)
(-7.45801e-08 -1.27891 0)
(-9.34215e-08 -1.27891 0)
(-1.16155e-07 -1.27891 0)
(-1.47597e-07 -1.27891 0)
(-1.86181e-07 -1.27891 0)
(-2.42269e-07 -1.27891 0)
(-3.13271e-07 -1.27891 0)
(-4.22615e-07 -1.27891 0)
(-5.69457e-07 -1.27891 0)
(-8.11106e-07 -1.27891 0)
(-1.17017e-06 -1.27891 0)
(-1.81299e-06 -1.27891 0)
(-2.92976e-06 -1.27891 0)
(-5.19706e-06 -1.27891 0)
(-9.85891e-06 -1.27891 0)
(-2.09638e-05 -1.27891 0)
(-3.73226e-06 -1.27891 0)
(1.07739e-05 -1.27935 0)
(-7.37416e-06 -1.40792 0)
(7.31813e-06 -1.40741 0)
(2.14894e-05 -1.40741 0)
(1.04272e-05 -1.40742 0)
(5.564e-06 -1.40742 0)
(3.15881e-06 -1.40742 0)
(1.96168e-06 -1.40742 0)
(1.26946e-06 -1.40742 0)
(8.80873e-07 -1.40742 0)
(6.19286e-07 -1.40742 0)
(4.59712e-07 -1.40742 0)
(3.41103e-07 -1.40742 0)
(2.63776e-07 -1.40742 0)
(2.02848e-07 -1.40742 0)
(1.60792e-07 -1.40742 0)
(1.26588e-07 -1.40742 0)
(1.01807e-07 -1.40742 0)
(8.13032e-08 -1.40742 0)
(6.58477e-08 -1.40742 0)
(5.2951e-08 -1.40742 0)
(4.29146e-08 -1.40742 0)
(3.4479e-08 -1.40742 0)
(2.77317e-08 -1.40742 0)
(2.20271e-08 -1.40742 0)
(1.73285e-08 -1.40742 0)
(1.32722e-08 -1.40742 0)
(9.80643e-09 -1.40742 0)
(6.71697e-09 -1.40742 0)
(3.93349e-09 -1.40742 0)
(1.2946e-09 -1.40742 0)
(-1.27414e-09 -1.40742 0)
(-3.92755e-09 -1.40742 0)
(-6.73164e-09 -1.40742 0)
(-9.81461e-09 -1.40742 0)
(-1.32686e-08 -1.40742 0)
(-1.73213e-08 -1.40742 0)
(-2.20176e-08 -1.40742 0)
(-2.77275e-08 -1.40742 0)
(-3.44741e-08 -1.40742 0)
(-4.28998e-08 -1.40742 0)
(-5.29447e-08 -1.40742 0)
(-6.58554e-08 -1.40742 0)
(-8.13058e-08 -1.40742 0)
(-1.0181e-07 -1.40742 0)
(-1.26597e-07 -1.40742 0)
(-1.60793e-07 -1.40742 0)
(-2.02846e-07 -1.40742 0)
(-2.63779e-07 -1.40742 0)
(-3.41097e-07 -1.40742 0)
(-4.59721e-07 -1.40742 0)
(-6.19301e-07 -1.40742 0)
(-8.80859e-07 -1.40742 0)
(-1.26944e-06 -1.40742 0)
(-1.96167e-06 -1.40742 0)
(-3.15882e-06 -1.40742 0)
(-5.56401e-06 -1.40742 0)
(-1.04272e-05 -1.40742 0)
(-2.14894e-05 -1.40741 0)
(-7.31816e-06 -1.40741 0)
(7.37412e-06 -1.40792 0)
(-2.27375e-06 -1.42204 0)
(1.25008e-05 -1.42151 0)
(2.18892e-05 -1.4215 0)
(1.09645e-05 -1.42151 0)
(5.92051e-06 -1.42151 0)
(3.38652e-06 -1.42151 0)
(2.11113e-06 -1.42151 0)
(1.36997e-06 -1.42151 0)
(9.51765e-07 -1.42151 0)
(6.70122e-07 -1.42151 0)
(4.9761e-07 -1.42151 0)
(3.6958e-07 -1.42151 0)
(2.85803e-07 -1.42151 0)
(2.19937e-07 -1.42151 0)
(1.74326e-07 -1.42151 0)
(1.37309e-07 -1.42151 0)
(1.10421e-07 -1.42151 0)
(8.82141e-08 -1.42151 0)
(7.14402e-08 -1.42151 0)
(5.74629e-08 -1.42151 0)
(4.6569e-08 -1.42151 0)
(3.74223e-08 -1.42151 0)
(3.00982e-08 -1.42151 0)
(2.39094e-08 -1.42151 0)
(1.88082e-08 -1.42151 0)
(1.44078e-08 -1.42151 0)
(1.06463e-08 -1.42151 0)
(7.29299e-09 -1.42151 0)
(4.27039e-09 -1.42151 0)
(1.40544e-09 -1.42151 0)
(-1.38587e-09 -1.42151 0)
(-4.26409e-09 -1.42151 0)
(-7.3058e-09 -1.42151 0)
(-1.06549e-08 -1.42151 0)
(-1.44045e-08 -1.42151 0)
(-1.88002e-08 -1.42151 0)
(-2.39004e-08 -1.42151 0)
(-3.00938e-08 -1.42151 0)
(-3.74163e-08 -1.42151 0)
(-4.6555e-08 -1.42151 0)
(-5.74569e-08 -1.42151 0)
(-7.14468e-08 -1.42151 0)
(-8.82177e-08 -1.42151 0)
(-1.10424e-07 -1.42151 0)
(-1.37318e-07 -1.42151 0)
(-1.74328e-07 -1.42151 0)
(-2.19934e-07 -1.42151 0)
(-2.85804e-07 -1.42151 0)
(-3.69575e-07 -1.42151 0)
(-4.97618e-07 -1.42151 0)
(-6.70135e-07 -1.42151 0)
(-9.51752e-07 -1.42151 0)
(-1.36996e-06 -1.42151 0)
(-2.11113e-06 -1.42151 0)
(-3.38653e-06 -1.42151 0)
(-5.92053e-06 -1.42151 0)
(-1.09646e-05 -1.42151 0)
(-2.18892e-05 -1.4215 0)
(-1.25008e-05 -1.42151 0)
(2.27371e-06 -1.42204 0)
(3.6524e-06 -1.31797 0)
(1.84093e-05 -1.31744 0)
(2.21636e-05 -1.31744 0)
(1.1466e-05 -1.31744 0)
(6.26479e-06 -1.31745 0)
(3.61206e-06 -1.31745 0)
(2.26099e-06 -1.31745 0)
(1.47157e-06 -1.31745 0)
(1.02372e-06 -1.31745 0)
(7.21916e-07 -1.31745 0)
(5.36284e-07 -1.31745 0)
(3.98704e-07 -1.31745 0)
(3.08346e-07 -1.31745 0)
(2.37451e-07 -1.31745 0)
(1.88203e-07 -1.31745 0)
(1.48314e-07 -1.31745 0)
(1.19264e-07 -1.31745 0)
(9.53145e-08 -1.31745 0)
(7.71872e-08 -1.31745 0)
(6.21024e-08 -1.31745 0)
(5.03274e-08 -1.31745 0)
(4.0451e-08 -1.31745 0)
(3.2534e-08 -1.31745 0)
(2.58476e-08 -1.31745 0)
(2.03321e-08 -1.31745 0)
(1.55777e-08 -1.31745 0)
(1.15118e-08 -1.31745 0)
(7.88668e-09 -1.31745 0)
(4.61763e-09 -1.31745 0)
(1.51975e-09 -1.31745 0)
(-1.50124e-09 -1.31745 0)
(-4.61101e-09 -1.31745 0)
(-7.89735e-09 -1.31745 0)
(-1.15209e-08 -1.31745 0)
(-1.55747e-08 -1.31745 0)
(-2.03232e-08 -1.31745 0)
(-2.58394e-08 -1.31745 0)
(-3.25293e-08 -1.31745 0)
(-4.04437e-08 -1.31745 0)
(-5.03146e-08 -1.31745 0)
(-6.20967e-08 -1.31745 0)
(-7.71925e-08 -1.31745 0)
(-9.53193e-08 -1.31745 0)
(-1.19267e-07 -1.31745 0)
(-1.4832e-07 -1.31745 0)
(-1.88206e-07 -1.31745 0)
(-2.37449e-07 -1.31745 0)
(-3.08346e-07 -1.31745 0)
(-3.98701e-07 -1.31745 0)
(-5.36291e-07 -1.31745 0)
(-7.21926e-07 -1.31745 0)
(-1.02371e-06 -1.31745 0)
(-1.47156e-06 -1.31745 0)
(-2.26099e-06 -1.31745 0)
(-3.61207e-06 -1.31745 0)
(-6.2648e-06 -1.31745 0)
(-1.14661e-05 -1.31744 0)
(-2.21636e-05 -1.31744 0)
(-1.84094e-05 -1.31744 0)
(-3.65243e-06 -1.31797 0)
(9.42677e-06 -1.12409 0)
(2.40704e-05 -1.12361 0)
(2.23122e-05 -1.1236 0)
(1.19261e-05 -1.12361 0)
(6.59498e-06 -1.12361 0)
(3.83455e-06 -1.12361 0)
(2.41087e-06 -1.12361 0)
(1.57407e-06 -1.12361 0)
(1.09666e-06 -1.12361 0)
(7.74626e-07 -1.12361 0)
(5.75717e-07 -1.12361 0)
(4.28469e-07 -1.12361 0)
(3.31404e-07 -1.12361 0)
(2.55393e-07 -1.12361 0)
(2.02424e-07 -1.12361 0)
(1.59604e-07 -1.12361 0)
(1.28339e-07 -1.12361 0)
(1.02608e-07 -1.12361 0)
(8.30917e-08 -1.12361 0)
(6.68722e-08 -1.12361 0)
(5.41923e-08 -1.12361 0)
(4.35672e-08 -1.12361 0)
(3.50408e-08 -1.12361 0)
(2.78432e-08 -1.12361 0)
(2.19014e-08 -1.12361 0)
(1.67831e-08 -1.12361 0)
(1.24035e-08 -1.12361 0)
(8.49864e-09 -1.12361 0)
(4.97553e-09 -1.12361 0)
(1.63757e-09 -1.12361 0)
(-1.62017e-09 -1.12361 0)
(-4.9687e-09 -1.12361 0)
(-8.5071e-09 -1.12361 0)
(-1.2413e-08 -1.12361 0)
(-1.67804e-08 -1.12361 0)
(-2.18919e-08 -1.12361 0)
(-2.78359e-08 -1.12361 0)
(-3.50359e-08 -1.12361 0)
(-4.35589e-08 -1.12361 0)
(-5.41809e-08 -1.12361 0)
(-6.68669e-08 -1.12361 0)
(-8.30958e-08 -1.12361 0)
(-1.02613e-07 -1.12361 0)
(-1.28342e-07 -1.12361 0)
(-1.59609e-07 -1.12361 0)
(-2.02429e-07 -1.12361 0)
(-2.55391e-07 -1.12361 0)
(-3.31403e-07 -1.12361 0)
(-4.28466e-07 -1.12361 0)
(-5.75723e-07 -1.12361 0)
(-7.74634e-07 -1.12361 0)
(-1.09665e-06 -1.12361 0)
(-1.57406e-06 -1.12361 0)
(-2.41087e-06 -1.12361 0)
(-3.83456e-06 -1.12361 0)
(-6.59499e-06 -1.12361 0)
(-1.19261e-05 -1.12361 0)
(-2.23123e-05 -1.1236 0)
(-2.40705e-05 -1.12361 0)
(-9.42681e-06 -1.12409 0)
(1.42243e-05 -0.888084 0)
(2.86634e-05 -0.887675 0)
(2.2335e-05 -0.887669 0)
(1.23387e-05 -0.887673 0)
(6.90921e-06 -0.887676 0)
(4.05305e-06 -0.887677 0)
(2.56035e-06 -0.887678 0)
(1.67726e-06 -0.887678 0)
(1.17048e-06 -0.887678 0)
(8.28205e-07 -0.887678 0)
(6.15885e-07 -0.887678 0)
(4.58862e-07 -0.887678 0)
(3.54974e-07 -0.887678 0)
(2.73762e-07 -0.887678 0)
(2.16993e-07 -0.887678 0)
(1.71183e-07 -0.887678 0)
(1.3765e-07 -0.887678 0)
(1.10096e-07 -0.887678 0)
(8.91567e-08 -0.887678 0)
(7.17749e-08 -0.887678 0)
(5.8166e-08 -0.887678 0)
(4.67731e-08 -0.887678 0)
(3.76205e-08 -0.887678 0)
(2.98976e-08 -0.887678 0)
(2.35176e-08 -0.887678 0)
(1.80248e-08 -0.887678 0)
(1.33223e-08 -0.887678 0)
(9.12941e-09 -0.887678 0)
(5.34442e-09 -0.887678 0)
(1.75895e-09 -0.887678 0)
(-1.74261e-09 -0.887678 0)
(-5.33751e-09 -0.887678 0)
(-9.13581e-09 -0.887678 0)
(-1.33319e-08 -0.887678 0)
(-1.80224e-08 -0.887678 0)
(-2.35077e-08 -0.887678 0)
(-2.98912e-08 -0.887678 0)
(-3.76155e-08 -0.887678 0)
(-4.6764e-08 -0.887678 0)
(-5.81559e-08 -0.887678 0)
(-7.17699e-08 -0.887678 0)
(-8.91595e-08 -0.887678 0)
(-1.10103e-07 -0.887678 0)
(-1.37653e-07 -0.887678 0)
(-1.71187e-07 -0.887678 0)
(-2.16998e-07 -0.887678 0)
(-2.7376e-07 -0.887678 0)
(-3.54971e-07 -0.887678 0)
(-4.58862e-07 -0.887678 0)
(-6.1589e-07 -0.887678 0)
(-8.2821e-07 -0.887678 0)
(-1.17047e-06 -0.887678 0)
(-1.67725e-06 -0.887678 0)
(-2.56034e-06 -0.887678 0)
(-4.05306e-06 -0.887677 0)
(-6.90922e-06 -0.887676 0)
(-1.23388e-05 -0.887673 0)
(-2.2335e-05 -0.887669 0)
(-2.86634e-05 -0.887675 0)
(-1.42243e-05 -0.888084 0)
(1.75532e-05 -0.656659 0)
(3.17017e-05 -0.656329 0)