/*--------------------------------*- C++ -*----------------------------------*\
| =========                 |                                                 |
| \\      /  F ield         | foam-extend: Open Source CFD                    |
|  \\    /   O peration     | Version:     4.0                                |
|   \\  /    A nd           | Web:         http://www.foam-extend.org         |
|    \\/     M anipulation  |                                                 |
\*---------------------------------------------------------------------------*/
FoamFile
{
    version     2.0;
    format      ascii;
    class       volVectorField;
    location    "17";
    object      U;
}
// * * * * * * * * * * * * * * * * * * * * * * * * * * * * * * * * * * * * * //

dimensions      [0 1 -1 0 0 0 0];

internalField   nonuniform List<vector> 
6960
(
(-3.23326e-06 -98.9356 0)
(-2.37111e-06 -98.932 0)
(7.21417e-07 -98.932 0)
(7.83432e-08 -98.932 0)
(1.86867e-07 -98.932 0)
(5.13495e-08 -98.932 0)
(7.76059e-08 -98.932 0)
(3.10699e-08 -98.932 0)
(3.70093e-08 -98.932 0)
(1.81484e-08 -98.932 0)
(1.97001e-08 -98.932 0)
(1.11123e-08 -98.932 0)
(1.13488e-08 -98.932 0)
(7.11509e-09 -98.932 0)
(6.91521e-09 -98.932 0)
(4.69584e-09 -98.932 0)
(4.38007e-09 -98.932 0)
(3.15244e-09 -98.932 0)
(2.84387e-09 -98.932 0)
(2.12948e-09 -98.932 0)
(1.86658e-09 -98.932 0)
(1.42919e-09 -98.932 0)
(1.21866e-09 -98.932 0)
(9.35819e-10 -98.932 0)
(7.69572e-10 -98.932 0)
(5.74847e-10 -98.932 0)
(4.40673e-10 -98.932 0)
(2.94101e-10 -98.932 0)
(1.79281e-10 -98.932 0)
(5.40468e-11 -98.932 0)
(-5.35279e-11 -98.932 0)
(-1.7919e-10 -98.932 0)
(-2.9519e-10 -98.932 0)
(-4.3975e-10 -98.932 0)
(-5.74621e-10 -98.932 0)
(-7.70128e-10 -98.932 0)
(-9.34975e-10 -98.932 0)
(-1.2185e-09 -98.932 0)
(-1.42964e-09 -98.932 0)
(-1.86559e-09 -98.932 0)
(-2.12915e-09 -98.932 0)
(-2.8444e-09 -98.932 0)
(-3.15153e-09 -98.932 0)
(-4.37985e-09 -98.932 0)
(-4.69673e-09 -98.932 0)
(-6.91454e-09 -98.932 0)
(-7.1151e-09 -98.932 0)
(-1.13497e-08 -98.932 0)
(-1.11114e-08 -98.932 0)
(-1.97e-08 -98.932 0)
(-1.81491e-08 -98.932 0)
(-3.70082e-08 -98.932 0)
(-3.10694e-08 -98.932 0)
(-7.76063e-08 -98.932 0)
(-5.13481e-08 -98.932 0)
(-1.86866e-07 -98.932 0)
(-7.83441e-08 -98.932 0)
(-7.21417e-07 -98.932 0)
(2.37111e-06 -98.932 0)
(3.23327e-06 -98.9356 0)
(9.896e-05 -2.69465 0)
(0.000101466 -2.69088 0)
(2.09386e-06 -2.69088 0)
(2.29525e-07 -2.69088 0)
(5.5207e-07 -2.69088 0)
(1.56755e-07 -2.69088 0)
(2.31306e-07 -2.69088 0)
(9.46567e-08 -2.69088 0)
(1.10864e-07 -2.69088 0)
(5.52379e-08 -2.69088 0)
(5.91871e-08 -2.69088 0)
(3.37933e-08 -2.69088 0)
(3.41647e-08 -2.69088 0)
(2.16149e-08 -2.69088 0)
(2.08543e-08 -2.69088 0)
(1.42513e-08 -2.69088 0)
(1.32235e-08 -2.69088 0)
(9.56541e-09 -2.69088 0)
(8.5911e-09 -2.69088 0)
(6.45685e-09 -2.69088 0)
(5.64664e-09 -2.69088 0)
(4.32975e-09 -2.69088 0)
(3.68677e-09 -2.69088 0)
(2.83862e-09 -2.69088 0)
(2.32649e-09 -2.69088 0)
(1.74204e-09 -2.69088 0)
(1.33627e-09 -2.69088 0)
(8.8892e-10 -2.69088 0)
(5.43954e-10 -2.69088 0)
(1.72414e-10 -2.69088 0)
(-1.81125e-10 -2.69088 0)
(-5.40762e-10 -2.69088 0)
(-8.70129e-10 -2.69088 0)
(-1.3555e-09 -2.69088 0)
(-1.74137e-09 -2.69088 0)
(-2.30615e-09 -2.69088 0)
(-2.85807e-09 -2.69088 0)
(-3.68627e-09 -2.69088 0)
(-4.30912e-09 -2.69088 0)
(-5.66569e-09 -2.69088 0)
(-6.45587e-09 -2.69088 0)
(-8.57069e-09 -2.69088 0)
(-9.58471e-09 -2.69088 0)
(-1.32229e-08 -2.69088 0)
(-1.4232e-08 -2.69088 0)
(-2.08743e-08 -2.69088 0)
(-2.1615e-08 -2.69088 0)
(-3.41453e-08 -2.69088 0)
(-3.38125e-08 -2.69088 0)
(-5.91868e-08 -2.69088 0)
(-5.52179e-08 -2.69088 0)
(-1.10882e-07 -2.69088 0)
(-9.46552e-08 -2.69088 0)
(-2.31285e-07 -2.69088 0)
(-1.56773e-07 -2.69088 0)
(-5.52069e-07 -2.69088 0)
(-2.29505e-07 -2.69088 0)
(-2.09388e-06 -2.69088 0)
(-0.000101466 -2.69088 0)
(-9.89599e-05 -2.69465 0)
(9.32598e-05 17.5816 0)
(9.72243e-05 17.5804 0)
(3.2815e-06 17.5804 0)
(3.70828e-07 17.5804 0)
(9.13493e-07 17.5804 0)
(2.66251e-07 17.5804 0)
(3.85654e-07 17.5804 0)
(1.60595e-07 17.5804 0)
(1.85612e-07 17.5804 0)
(9.36674e-08 17.5804 0)
(9.93391e-08 17.5804 0)
(5.7262e-08 17.5804 0)
(5.74412e-08 17.5804 0)
(3.66012e-08 17.5804 0)
(3.51047e-08 17.5804 0)
(2.4119e-08 17.5804 0)
(2.22826e-08 17.5804 0)
(1.6178e-08 17.5804 0)
(1.44889e-08 17.5804 0)
(1.09178e-08 17.5804 0)
(9.5255e-09 17.5804 0)
(7.32112e-09 17.5804 0)
(6.22278e-09 17.5804 0)
(4.79637e-09 17.5804 0)
(3.92953e-09 17.5804 0)
(2.94434e-09 17.5804 0)
(2.25468e-09 17.5804 0)
(1.50422e-09 17.5804 0)
(9.1729e-10 17.5804 0)
(2.86185e-10 17.5804 0)
(-2.93919e-10 17.5804 0)
(-9.13929e-10 17.5804 0)
(-1.48734e-09 17.5804 0)
(-2.27224e-09 17.5804 0)
(-2.94322e-09 17.5804 0)
(-3.9101e-09 17.5804 0)
(-4.81426e-09 17.5804 0)
(-6.22194e-09 17.5804 0)
(-7.30125e-09 17.5804 0)
(-9.54277e-09 17.5804 0)
(-1.09162e-08 17.5804 0)
(-1.44694e-08 17.5804 0)
(-1.61957e-08 17.5804 0)
(-2.22815e-08 17.5804 0)
(-2.41012e-08 17.5804 0)
(-3.51236e-08 17.5804 0)
(-3.66012e-08 17.5804 0)
(-5.74234e-08 17.5804 0)
(-5.72796e-08 17.5804 0)
(-9.93385e-08 17.5804 0)
(-9.36486e-08 17.5804 0)
(-1.85629e-07 17.5804 0)
(-1.60593e-07 17.5804 0)
(-3.85634e-07 17.5804 0)
(-2.66266e-07 17.5804 0)
(-9.13491e-07 17.5804 0)
(-3.70809e-07 17.5804 0)
(-3.28152e-06 17.5804 0)
(-9.72243e-05 17.5804 0)
(-9.32598e-05 17.5816 0)
(4.26373e-05 6.46494 0)
(4.79104e-05 6.46304 0)
(4.31063e-06 6.46304 0)
(4.92879e-07 6.46303 0)
(1.2704e-06 6.46303 0)
(3.79709e-07 6.46303 0)
(5.40529e-07 6.46303 0)
(2.28878e-07 6.46303 0)
(2.61238e-07 6.46303 0)
(1.33446e-07 6.46303 0)
(1.40158e-07 6.46303 0)
(8.15313e-08 6.46303 0)
(8.11832e-08 6.46303 0)
(5.20827e-08 6.46303 0)
(4.96735e-08 6.46303 0)
(3.43037e-08 6.46303 0)
(3.15617e-08 6.46303 0)
(2.29963e-08 6.46303 0)
(2.05392e-08 6.46303 0)
(1.55154e-08 6.46303 0)
(1.3507e-08 6.46303 0)
(1.0404e-08 6.46303 0)
(8.82839e-09 6.46303 0)
(6.81189e-09 6.46303 0)
(5.57835e-09 6.46303 0)
(4.18262e-09 6.46303 0)
(3.19798e-09 6.46303 0)
(2.13905e-09 6.46303 0)
(1.30041e-09 6.46303 0)
(4.00274e-10 6.46303 0)
(-4.02784e-10 6.46303 0)
(-1.29811e-09 6.46303 0)
(-2.13311e-09 6.46303 0)
(-3.20477e-09 6.46303 0)
(-4.18106e-09 6.46303 0)
(-5.56891e-09 6.46303 0)
(-6.81915e-09 6.46303 0)
(-8.82718e-09 6.46303 0)
(-1.0394e-08 6.46303 0)
(-1.35134e-08 6.46303 0)
(-1.55132e-08 6.46303 0)
(-2.05297e-08 6.46303 0)
(-2.30033e-08 6.46303 0)
(-3.15602e-08 6.46303 0)
(-3.42965e-08 6.46303 0)
(-4.96822e-08 6.46303 0)
(-5.20827e-08 6.46303 0)
(-8.1176e-08 6.46303 0)
(-8.15382e-08 6.46303 0)
(-1.40158e-07 6.46303 0)
(-1.33438e-07 6.46303 0)
(-2.61244e-07 6.46303 0)
(-2.28874e-07 6.46303 0)
(-5.40518e-07 6.46303 0)
(-3.79713e-07 6.46303 0)
(-1.2704e-06 6.46303 0)
(-4.92871e-07 6.46303 0)
(-4.31064e-06 6.46304 0)
(-4.79103e-05 6.46304 0)
(-4.26373e-05 6.46494 0)
(1.70598e-05 0.552893 0)
(2.35525e-05 0.552356 0)
(5.24333e-06 0.552355 0)
(5.95809e-07 0.552351 0)
(1.62207e-06 0.552351 0)
(4.96986e-07 0.552351 0)
(6.958e-07 0.552351 0)
(2.99487e-07 0.552351 0)
(3.37721e-07 0.552351 0)
(1.74581e-07 0.552351 0)
(1.81647e-07 0.552351 0)
(1.06613e-07 0.552351 0)
(1.05395e-07 0.552351 0)
(6.8068e-08 0.552351 0)
(6.45681e-08 0.552351 0)
(4.48104e-08 0.552351 0)
(4.10655e-08 0.552351 0)
(3.00262e-08 0.552351 0)
(2.6744e-08 0.552351 0)
(2.0253e-08 0.552351 0)
(1.75952e-08 0.552351 0)
(1.35791e-08 0.552351 0)
(1.15053e-08 0.552351 0)
(8.88824e-09 0.552351 0)
(7.27252e-09 0.552351 0)
(5.4578e-09 0.552351 0)
(4.16838e-09 0.552351 0)
(2.79229e-09 0.552351 0)
(1.69453e-09 0.552351 0)
(5.20121e-10 0.552351 0)
(-5.19776e-10 0.552351 0)
(-1.69263e-09 0.552351 0)
(-2.79218e-09 0.552351 0)
(-4.16948e-09 0.552351 0)
(-5.4558e-09 0.552351 0)
(-7.26797e-09 0.552351 0)
(-8.88992e-09 0.552351 0)
(-1.15037e-08 0.552351 0)
(-1.35739e-08 0.552351 0)
(-1.75959e-08 0.552351 0)
(-2.02501e-08 0.552351 0)
(-2.67394e-08 0.552351 0)
(-3.00276e-08 0.552351 0)
(-4.10636e-08 0.552351 0)
(-4.48087e-08 0.552351 0)
(-6.45717e-08 0.552351 0)
(-6.8068e-08 0.552351 0)
(-1.05393e-07 0.552351 0)
(-1.06615e-07 0.552351 0)
(-1.81646e-07 0.552351 0)
(-1.74577e-07 0.552351 0)
(-3.37721e-07 0.552351 0)
(-2.99483e-07 0.552351 0)
(-6.95795e-07 0.552351 0)
(-4.96983e-07 0.552351 0)
(-1.62207e-06 0.552351 0)
(-5.95807e-07 0.552351 0)
(-5.24333e-06 0.552355 0)
(-2.35525e-05 0.552356 0)
(-1.70598e-05 0.552893 0)
(1.05481e-05 0.0795205 0)
(1.81677e-05 0.0795909 0)
(6.08209e-06 0.0795907 0)
(6.85225e-07 0.0795867 0)
(1.96778e-06 0.0795865 0)
(6.17916e-07 0.0795865 0)
(8.51332e-07 0.0795865 0)
(3.72399e-07 0.0795865 0)
(4.15034e-07 0.0795865 0)
(2.17076e-07 0.0795865 0)
(2.23805e-07 0.0795865 0)
(1.32517e-07 0.0795865 0)
(1.30082e-07 0.0795865 0)
(8.45653e-08 0.0795865 0)
(7.9794e-08 0.0795865 0)
(5.56453e-08 0.0795865 0)
(5.07986e-08 0.0795865 0)
(3.72722e-08 0.0795865 0)
(3.31067e-08 0.0795865 0)
(2.51335e-08 0.0795865 0)
(2.17924e-08 0.0795865 0)
(1.68487e-08 0.0795865 0)
(1.42553e-08 0.0795865 0)
(1.10267e-08 0.0795865 0)
(9.01333e-09 0.0795865 0)
(6.7708e-09 0.0795865 0)
(5.16642e-09 0.0795865 0)
(3.46459e-09 0.0795865 0)
(2.09984e-09 0.0795865 0)
(6.45354e-10 0.0795865 0)
(-6.43975e-10 0.0795865 0)
(-2.09783e-09 0.0795865 0)
(-3.46639e-09 0.0795865 0)
(-5.16571e-09 0.0795865 0)
(-6.76837e-09 0.0795865 0)
(-9.0098e-09 0.0795865 0)
(-1.10267e-08 0.0795865 0)
(-1.42533e-08 0.0795865 0)
(-1.68443e-08 0.0795865 0)
(-2.17912e-08 0.0795865 0)
(-2.51301e-08 0.0795865 0)
(-3.31032e-08 0.0795865 0)
(-3.72719e-08 0.0795865 0)
(-5.07964e-08 0.0795865 0)
(-5.56451e-08 0.0795865 0)
(-7.97964e-08 0.0795865 0)
(-8.45652e-08 0.0795865 0)
(-1.30082e-07 0.0795865 0)
(-1.32516e-07 0.0795865 0)
(-2.23803e-07 0.0795865 0)
(-2.17073e-07 0.0795865 0)
(-4.15032e-07 0.0795865 0)
(-3.72394e-07 0.0795865 0)
(-8.51327e-07 0.0795865 0)
(-6.1791e-07 0.0795865 0)
(-1.96778e-06 0.0795865 0)
(-6.85224e-07 0.0795867 0)
(-6.0821e-06 0.0795907 0)
(-1.81677e-05 0.0795909 0)
(-1.05481e-05 0.0795205 0)
(5.11626e-06 0.391692 0)
(1.37498e-05 0.391718 0)
(6.81e-06 0.391717 0)
(7.63818e-07 0.391713 0)
(2.30676e-06 0.391713 0)
(7.42313e-07 0.391713 0)
(1.00697e-06 0.391713 0)
(4.47579e-07 0.391713 0)
(4.9315e-07 0.391713 0)
(2.60932e-07 0.391713 0)
(2.66631e-07 0.391713 0)
(1.59249e-07 0.391713 0)
(1.55251e-07 0.391713 0)
(1.01582e-07 0.391713 0)
(9.53563e-08 0.391713 0)
(6.68147e-08 0.391713 0)
(6.07656e-08 0.391713 0)
(4.47382e-08 0.391713 0)
(3.96314e-08 0.391713 0)
(3.01604e-08 0.391713 0)
(2.61009e-08 0.391713 0)
(2.02154e-08 0.391713 0)
(1.708e-08 0.391713 0)
(1.32285e-08 0.391713 0)
(1.08024e-08 0.391713 0)
(8.12257e-09 0.391713 0)
(6.19241e-09 0.391713 0)
(4.15684e-09 0.391713 0)
(2.51639e-09 0.391713 0)
(7.74697e-10 0.391713 0)
(-7.72411e-10 0.391713 0)
(-2.51425e-09 0.391713 0)
(-4.16027e-09 0.391713 0)
(-6.1901e-09 0.391713 0)
(-8.1197e-09 0.391713 0)
(-1.07996e-08 0.391713 0)
(-1.3227e-08 0.391713 0)
(-1.70777e-08 0.391713 0)
(-2.02117e-08 0.391713 0)
(-2.6098e-08 0.391713 0)
(-3.01564e-08 0.391713 0)
(-3.96286e-08 0.391713 0)
(-4.47365e-08 0.391713 0)
(-6.0763e-08 0.391713 0)
(-6.68158e-08 0.391713 0)
(-9.53576e-08 0.391713 0)
(-1.01582e-07 0.391713 0)
(-1.55252e-07 0.391713 0)
(-1.59247e-07 0.391713 0)
(-2.6663e-07 0.391713 0)
(-2.60931e-07 0.391713 0)
(-4.93146e-07 0.391713 0)
(-4.47573e-07 0.391713 0)
(-1.00697e-06 0.391713 0)
(-7.42305e-07 0.391713 0)
(-2.30676e-06 0.391713 0)
(-7.63819e-07 0.391713 0)
(-6.81001e-06 0.391717 0)
(-1.37498e-05 0.391718 0)
(-5.11624e-06 0.391692 0)
(-2.80398e-06 0.364725 0)
(6.72679e-06 0.364664 0)
(7.42379e-06 0.364664 0)
(8.31183e-07 0.364659 0)
(2.63824e-06 0.364659 0)
(8.69971e-07 0.364659 0)
(1.16256e-06 0.364659 0)
(5.24982e-07 0.364659 0)
(5.72033e-07 0.364659 0)
(3.06147e-07 0.364659 0)
(3.10124e-07 0.364659 0)
(1.86816e-07 0.364659 0)
(1.80905e-07 0.364659 0)
(1.19125e-07 0.364659 0)
(1.1126e-07 0.364659 0)
(7.83244e-08 0.364659 0)
(7.09709e-08 0.364659 0)
(5.24285e-08 0.364659 0)
(4.63214e-08 0.364659 0)
(3.53366e-08 0.364659 0)
(3.0523e-08 0.364659 0)
(2.36816e-08 0.364659 0)
(1.99815e-08 0.364659 0)
(1.5495e-08 0.364659 0)
(1.26409e-08 0.364659 0)
(9.51405e-09 0.364659 0)
(7.24695e-09 0.364659 0)
(4.86961e-09 0.364659 0)
(2.94444e-09 0.364659 0)
(9.07996e-10 0.364659 0)
(-9.04567e-10 0.364659 0)
(-2.94223e-09 0.364659 0)
(-4.8751e-09 0.364659 0)
(-7.24255e-09 0.364659 0)
(-9.51077e-09 0.364659 0)
(-1.26394e-08 0.364659 0)
(-1.54914e-08 0.364659 0)
(-1.99787e-08 0.364659 0)
(-2.36791e-08 0.364659 0)
(-3.0518e-08 0.364659 0)
(-3.53321e-08 0.364659 0)
(-4.632e-08 0.364659 0)
(-5.24248e-08 0.364659 0)
(-7.09679e-08 0.364659 0)
(-7.83273e-08 0.364659 0)
(-1.1126e-07 0.364659 0)
(-1.19125e-07 0.364659 0)
(-1.80908e-07 0.364659 0)
(-1.86813e-07 0.364659 0)
(-3.10122e-07 0.364659 0)
(-3.06148e-07 0.364659 0)
(-5.72027e-07 0.364659 0)
(-5.24976e-07 0.364659 0)
(-1.16256e-06 0.364659 0)
(-8.69961e-07 0.364659 0)
(-2.63824e-06 0.364659 0)
(-8.31185e-07 0.364659 0)
(-7.4238e-06 0.364664 0)
(-6.72678e-06 0.364664 0)
(2.80399e-06 0.364725 0)
(-1.10144e-05 0.238411 0)
(-6.98081e-07 0.238354 0)
(7.9286e-06 0.238354 0)
(8.86778e-07 0.23835 0)
(2.96143e-06 0.238349 0)
(1.00066e-06 0.238349 0)
(1.31793e-06 0.238349 0)
(6.04553e-07 0.238349 0)
(6.51646e-07 0.238349 0)
(3.52714e-07 0.238349 0)
(3.54278e-07 0.238349 0)
(2.15223e-07 0.238349 0)
(2.07048e-07 0.238349 0)
(1.372e-07 0.238349 0)
(1.2751e-07 0.238349 0)
(9.01797e-08 0.238349 0)
(8.14189e-08 0.238349 0)
(6.03473e-08 0.238349 0)
(5.31803e-08 0.238349 0)
(4.06653e-08 0.238349 0)
(3.50614e-08 0.238349 0)
(2.72493e-08 0.238349 0)
(2.29613e-08 0.238349 0)
(1.78277e-08 0.238349 0)
(1.45301e-08 0.238349 0)
(1.09463e-08 0.238349 0)
(8.33083e-09 0.238349 0)
(5.60337e-09 0.238349 0)
(3.3843e-09 0.238349 0)
(1.0455e-09 0.238349 0)
(-1.04093e-09 0.238349 0)
(-3.38204e-09 0.238349 0)
(-5.61091e-09 0.238349 0)
(-8.32428e-09 0.238349 0)
(-1.09426e-08 0.238349 0)
(-1.45299e-08 0.238349 0)
(-1.78221e-08 0.238349 0)
(-2.29581e-08 0.238349 0)
(-2.72481e-08 0.238349 0)
(-3.50543e-08 0.238349 0)
(-4.06603e-08 0.238349 0)
(-5.31804e-08 0.238349 0)
(-6.03417e-08 0.238349 0)
(-8.14156e-08 0.238349 0)
(-9.01844e-08 0.238349 0)
(-1.27509e-07 0.238349 0)
(-1.372e-07 0.238349 0)
(-2.07053e-07 0.238349 0)
(-2.15218e-07 0.238349 0)
(-3.54276e-07 0.238349 0)
(-3.52716e-07 0.238349 0)
(-6.51638e-07 0.238349 0)
(-6.04546e-07 0.238349 0)
(-1.31793e-06 0.238349 0)
(-1.00065e-06 0.238349 0)
(-2.96142e-06 0.238349 0)
(-8.86782e-07 0.23835 0)
(-7.9286e-06 0.238354 0)
(6.98095e-07 0.238354 0)
(1.10144e-05 0.238411 0)
(-1.85043e-05 0.159581 0)
(-7.51081e-06 0.159549 0)
(8.32884e-06 0.15955 0)
(9.30929e-07 0.159546 0)
(3.27552e-06 0.159545 0)
(1.13414e-06 0.159546 0)
(1.47288e-06 0.159545 0)
(6.86224e-07 0.159545 0)
(7.31944e-07 0.159545 0)
(4.00621e-07 0.159545 0)
(3.99088e-07 0.159545 0)
(2.44472e-07 0.159545 0)
(2.33684e-07 0.159545 0)
(1.55813e-07 0.159545 0)
(1.44112e-07 0.159545 0)
(1.02386e-07 0.159545 0)
(9.21139e-08 0.159545 0)
(6.84988e-08 0.159545 0)
(6.02114e-08 0.159545 0)
(4.61495e-08 0.159545 0)
(3.97186e-08 0.159545 0)
(3.09209e-08 0.159545 0)
(2.60215e-08 0.159545 0)
(2.02283e-08 0.159545 0)
(1.64711e-08 0.159545 0)
(1.24202e-08 0.159545 0)
(9.4448e-09 0.159545 0)
(6.35862e-09 0.159545 0)
(3.83629e-09 0.159545 0)
(1.1874e-09 0.159545 0)
(-1.18178e-09 0.159545 0)
(-3.83396e-09 0.159545 0)
(-6.36799e-09 0.159545 0)
(-9.43627e-09 0.159545 0)
(-1.2416e-08 0.159545 0)
(-1.64721e-08 0.159545 0)
(-2.02208e-08 0.159545 0)
(-2.60178e-08 0.159545 0)
(-3.09208e-08 0.159545 0)
(-3.97095e-08 0.159545 0)
(-4.61442e-08 0.159545 0)
(-6.02128e-08 0.159545 0)
(-6.84914e-08 0.159545 0)
(-9.21104e-08 0.159545 0)
(-1.02392e-07 0.159545 0)
(-1.44109e-07 0.159545 0)
(-1.55813e-07 0.159545 0)
(-2.3369e-07 0.159545 0)
(-2.44464e-07 0.159545 0)
(-3.99086e-07 0.159545 0)
(-4.00624e-07 0.159545 0)
(-7.31934e-07 0.159545 0)
(-6.86216e-07 0.159545 0)
(-1.47288e-06 0.159545 0)
(-1.13413e-06 0.159546 0)
(-3.27551e-06 0.159545 0)
(-9.30934e-07 0.159546 0)
(-8.32884e-06 0.15955 0)
(7.51082e-06 0.159549 0)
(1.85044e-05 0.159581 0)
(-2.54658e-05 0.116712 0)
(-1.39019e-05 0.116693 0)
(8.62748e-06 0.116694 0)
(9.64413e-07 0.11669 0)
(3.57971e-06 0.116689 0)
(1.27014e-06 0.11669 0)
(1.62721e-06 0.116689 0)
(7.69917e-07 0.116689 0)
(8.12879e-07 0.116689 0)
(4.4985e-07 0.116689 0)
(4.44545e-07 0.116689 0)
(2.74563e-07 0.116689 0)
(2.60814e-07 0.116689 0)
(1.74968e-07 0.116689 0)
(1.61069e-07 0.116689 0)
(1.14947e-07 0.116689 0)
(1.0306e-07 0.116689 0)
(7.68868e-08 0.116689 0)
(6.74182e-08 0.116689 0)
(5.17924e-08 0.116689 0)
(4.44973e-08 0.116689 0)
(3.46986e-08 0.116689 0)
(2.91638e-08 0.116689 0)
(2.26983e-08 0.116689 0)
(1.84653e-08 0.116689 0)
(1.39367e-08 0.116689 0)
(1.05896e-08 0.116689 0)
(7.13589e-09 0.116689 0)
(4.30071e-09 0.116689 0)
(1.33378e-09 0.116689 0)
(-1.32719e-09 0.116689 0)
(-4.29831e-09 0.116689 0)
(-7.14692e-09 0.116689 0)
(-1.05792e-08 0.116689 0)
(-1.39322e-08 0.116689 0)
(-1.84674e-08 0.116689 0)
(-2.26889e-08 0.116689 0)
(-2.91596e-08 0.116689 0)
(-3.46994e-08 0.116689 0)
(-4.44864e-08 0.116689 0)
(-5.17867e-08 0.116689 0)
(-6.74207e-08 0.116689 0)
(-7.68778e-08 0.116689 0)
(-1.03056e-07 0.116689 0)
(-1.14955e-07 0.116689 0)
(-1.61065e-07 0.116689 0)
(-1.74968e-07 0.116689 0)
(-2.60822e-07 0.116689 0)
(-2.74554e-07 0.116689 0)
(-4.44543e-07 0.116689 0)
(-4.49854e-07 0.116689 0)
(-8.12867e-07 0.116689 0)
(-7.69909e-07 0.116689 0)
(-1.62721e-06 0.116689 0)
(-1.27012e-06 0.11669 0)
(-3.57971e-06 0.116689 0)
(-9.6442e-07 0.11669 0)
(-8.62748e-06 0.116694 0)
(1.39019e-05 0.116693 0)
(2.54659e-05 0.116712 0)
(-3.2137e-05 0.0842028 0)
(-2.01076e-05 0.084189 0)
(8.82802e-06 0.0841906 0)
(9.88167e-07 0.0841874 0)
(3.87321e-06 0.0841866 0)
(1.40836e-06 0.0841869 0)
(1.78071e-06 0.0841867 0)
(8.5554e-07 0.0841867 0)
(8.94392e-07 0.0841867 0)
(5.00379e-07 0.0841867 0)
(4.90638e-07 0.0841866 0)
(3.05494e-07 0.0841866 0)
(2.8844e-07 0.0841866 0)
(1.94669e-07 0.0841866 0)
(1.78386e-07 0.0841866 0)
(1.27868e-07 0.0841866 0)
(1.14262e-07 0.0841866 0)
(8.55152e-08 0.0841866 0)
(7.48038e-08 0.0841866 0)
(5.75968e-08 0.0841866 0)
(4.93999e-08 0.0841866 0)
(3.85845e-08 0.0841866 0)
(3.239e-08 0.0841866 0)
(2.52392e-08 0.0841866 0)
(2.05139e-08 0.0841866 0)
(1.5497e-08 0.0841866 0)
(1.1766e-08 0.0841866 0)
(7.93571e-09 0.0841866 0)
(4.77788e-09 0.0841866 0)
(1.48472e-09 0.0841866 0)
(-1.47721e-09 0.0841866 0)
(-4.7754e-09 0.0841866 0)
(-7.94825e-09 0.0841866 0)
(-1.17538e-08 0.0841866 0)
(-1.54921e-08 0.0841866 0)
(-2.05169e-08 0.0841866 0)
(-2.5228e-08 0.0841866 0)
(-3.23854e-08 0.0841866 0)
(-3.85862e-08 0.0841866 0)
(-4.93872e-08 0.0841866 0)
(-5.75907e-08 0.0841866 0)
(-7.48074e-08 0.0841866 0)
(-8.55047e-08 0.0841866 0)
(-1.14257e-07 0.0841866 0)
(-1.27877e-07 0.0841866 0)
(-1.7838e-07 0.0841866 0)
(-1.94669e-07 0.0841866 0)
(-2.8845e-07 0.0841866 0)
(-3.05484e-07 0.0841866 0)
(-4.90636e-07 0.0841866 0)
(-5.00385e-07 0.0841867 0)
(-8.94379e-07 0.0841867 0)
(-8.55531e-07 0.0841867 0)
(-1.78071e-06 0.0841867 0)
(-1.40834e-06 0.0841869 0)
(-3.87321e-06 0.0841866 0)
(-9.88175e-07 0.0841874 0)
(-8.82801e-06 0.0841906 0)
(2.01076e-05 0.084189 0)
(3.2137e-05 0.0842028 0)
(-3.85565e-05 0.0547352 0)
(-2.61639e-05 0.0547258 0)
(8.93499e-06 0.0547279 0)
(1.00334e-06 0.0547253 0)
(4.15523e-06 0.0547244 0)
(1.54852e-06 0.0547247 0)
(1.93314e-06 0.0547245 0)
(9.42987e-07 0.0547245 0)
(9.76423e-07 0.0547245 0)
(5.52181e-07 0.0547245 0)
(5.37353e-07 0.0547245 0)
(3.37263e-07 0.0547245 0)
(3.16562e-07 0.0547244 0)
(2.14918e-07 0.0547244 0)
(1.96066e-07 0.0547244 0)
(1.41153e-07 0.0547244 0)
(1.25722e-07 0.0547244 0)
(9.43874e-08 0.0547244 0)
(8.23715e-08 0.0547244 0)
(6.35656e-08 0.0547244 0)
(5.44289e-08 0.0547244 0)
(4.25808e-08 0.0547244 0)
(3.5702e-08 0.0547244 0)
(2.78526e-08 0.0547244 0)
(2.26181e-08 0.0547244 0)
(1.71019e-08 0.0547244 0)
(1.29747e-08 0.0547244 0)
(8.75863e-09 0.0547244 0)
(5.26812e-09 0.0547244 0)
(1.64033e-09 0.0547244 0)
(-1.63196e-09 0.0547244 0)
(-5.26557e-09 0.0547244 0)
(-8.77255e-09 0.0547244 0)
(-1.29608e-08 0.0547244 0)
(-1.70966e-08 0.0547244 0)
(-2.2622e-08 0.0547244 0)
(-2.78396e-08 0.0547244 0)
(-3.56969e-08 0.0547244 0)
(-4.25834e-08 0.0547244 0)
(-5.44146e-08 0.0547244 0)
(-6.35593e-08 0.0547244 0)
(-8.23763e-08 0.0547244 0)
(-9.43754e-08 0.0547244 0)
(-1.25717e-07 0.0547244 0)
(-1.41163e-07 0.0547244 0)
(-1.96059e-07 0.0547244 0)
(-2.14918e-07 0.0547244 0)
(-3.16573e-07 0.0547244 0)
(-3.37251e-07 0.0547245 0)
(-5.37351e-07 0.0547245 0)
(-5.52189e-07 0.0547245 0)
(-9.76408e-07 0.0547245 0)
(-9.42978e-07 0.0547245 0)
(-1.93314e-06 0.0547245 0)
(-1.5485e-06 0.0547247 0)
(-4.15522e-06 0.0547244 0)
(-1.00335e-06 0.0547253 0)
(-8.93499e-06 0.0547279 0)
(2.6164e-05 0.0547258 0)
(3.85566e-05 0.0547352 0)
(-4.47007e-05 0.0276032 0)
(-3.20438e-05 0.0275987 0)
(8.95384e-06 0.0276014 0)
(1.01141e-06 0.0275994 0)
(4.42498e-06 0.0275985 0)
(1.69027e-06 0.0275988 0)
(2.08425e-06 0.0275986 0)
(1.03214e-06 0.0275986 0)
(1.0589e-06 0.0275985 0)
(6.05222e-07 0.0275985 0)
(5.84673e-07 0.0275985 0)
(3.69861e-07 0.0275985 0)
(3.45178e-07 0.0275985 0)
(2.35717e-07 0.0275985 0)
(2.14112e-07 0.0275985 0)
(1.54804e-07 0.0275985 0)
(1.37444e-07 0.0275985 0)
(1.03507e-07 0.0275985 0)
(9.01245e-08 0.0275985 0)
(6.97017e-08 0.0275985 0)
(5.95868e-08 0.0275985 0)
(4.66896e-08 0.0275985 0)
(3.91017e-08 0.0275985 0)
(3.05399e-08 0.0275985 0)
(2.47793e-08 0.0275985 0)
(1.87525e-08 0.0275985 0)
(1.42165e-08 0.0275985 0)
(9.60515e-09 0.0275985 0)
(5.77173e-09 0.0275985 0)
(1.80071e-09 0.0275985 0)
(-1.79154e-09 0.0275985 0)
(-5.76911e-09 0.0275985 0)
(-9.62037e-09 0.0275985 0)
(-1.42009e-08 0.0275985 0)
(-1.87468e-08 0.0275985 0)
(-2.4784e-08 0.0275985 0)
(-3.05253e-08 0.0275985 0)
(-3.9096e-08 0.0275985 0)
(-4.66931e-08 0.0275985 0)
(-5.9571e-08 0.0275985 0)
(-6.96951e-08 0.0275985 0)
(-9.01303e-08 0.0275985 0)
(-1.03493e-07 0.0275985 0)
(-1.3744e-07 0.0275985 0)
(-1.54815e-07 0.0275985 0)
(-2.14103e-07 0.0275985 0)
(-2.35716e-07 0.0275985 0)
(-3.4519e-07 0.0275985 0)
(-3.69848e-07 0.0275985 0)
(-5.84671e-07 0.0275985 0)
(-6.0523e-07 0.0275985 0)
(-1.05888e-06 0.0275985 0)
(-1.03213e-06 0.0275986 0)
(-2.08425e-06 0.0275986 0)
(-1.69025e-06 0.0275988 0)
(-4.42498e-06 0.0275985 0)
(-1.01141e-06 0.0275994 0)
(-8.95383e-06 0.0276014 0)
(3.20438e-05 0.0275987 0)
(4.47007e-05 0.0276032 0)
(-5.05535e-05 0.00193457 0)
(-3.77275e-05 0.00193524 0)
(8.89067e-06 0.00193837 0)
(1.01423e-06 0.00193731 0)
(4.68172e-06 0.00193627 0)
(1.83329e-06 0.00193667 0)
(2.23378e-06 0.0019364 0)
(1.12286e-06 0.00193645 0)
(1.14174e-06 0.00193636 0)
(6.59461e-07 0.00193636 0)
(6.32578e-07 0.00193633 0)
(4.03279e-07 0.00193633 0)
(3.74285e-07 0.00193631 0)
(2.57065e-07 0.00193631 0)
(2.32525e-07 0.0019363 0)
(1.68825e-07 0.0019363 0)
(1.49432e-07 0.0019363 0)
(1.12876e-07 0.0019363 0)
(9.80657e-08 0.0019363 0)
(7.60076e-08 0.0019363 0)
(6.48761e-08 0.0019363 0)
(5.09131e-08 0.00193629 0)
(4.25908e-08 0.00193629 0)
(3.33028e-08 0.00193629 0)
(2.69986e-08 0.00193629 0)
(2.04498e-08 0.00193629 0)
(1.54922e-08 0.00193629 0)
(1.04758e-08 0.00193629 0)
(6.28905e-09 0.00193629 0)
(1.96598e-09 0.00193629 0)
(-1.95604e-09 0.00193629 0)
(-6.28635e-09 0.00193629 0)
(-1.04922e-08 0.00193629 0)
(-1.5475e-08 0.00193629 0)
(-2.04437e-08 0.00193629 0)
(-2.70041e-08 0.00193629 0)
(-3.32865e-08 0.00193629 0)
(-4.25846e-08 0.00193629 0)
(-5.09173e-08 0.00193629 0)
(-6.48588e-08 0.0019363 0)
(-7.60007e-08 0.0019363 0)
(-9.80726e-08 0.0019363 0)
(-1.12862e-07 0.0019363 0)
(-1.49428e-07 0.0019363 0)
(-1.68837e-07 0.0019363 0)
(-2.32515e-07 0.0019363 0)
(-2.57065e-07 0.00193631 0)
(-3.74298e-07 0.00193631 0)
(-4.03265e-07 0.00193633 0)
(-6.32575e-07 0.00193633 0)
(-6.5947e-07 0.00193636 0)
(-1.14173e-06 0.00193636 0)
(-1.12285e-06 0.00193645 0)
(-2.23378e-06 0.0019364 0)
(-1.83327e-06 0.00193667 0)
(-4.68171e-06 0.00193627 0)
(-1.01424e-06 0.00193731 0)
(-8.89066e-06 0.00193837 0)
(3.77275e-05 0.00193524 0)
(5.05535e-05 0.00193457 0)
(-5.61004e-05 -0.0237161 0)
(-4.31964e-05 -0.0237097 0)
(8.75238e-06 -0.023706 0)
(1.01407e-06 -0.0237061 0)
(4.9247e-06 -0.0237072 0)
(1.97722e-06 -0.0237068 0)
(2.38144e-06 -0.0237071 0)
(1.21501e-06 -0.023707 0)
(1.22487e-06 -0.0237071 0)
(7.1485e-07 -0.0237071 0)
(6.81043e-07 -0.0237071 0)
(4.37505e-07 -0.0237071 0)
(4.03879e-07 -0.0237072 0)
(2.78962e-07 -0.0237072 0)
(2.51308e-07 -0.0237072 0)
(1.83217e-07 -0.0237072 0)
(1.61689e-07 -0.0237072 0)
(1.22499e-07 -0.0237072 0)
(1.06198e-07 -0.0237072 0)
(8.24858e-08 -0.0237072 0)
(7.0299e-08 -0.0237072 0)
(5.52532e-08 -0.0237072 0)
(4.61711e-08 -0.0237072 0)
(3.61427e-08 -0.0237072 0)
(2.92774e-08 -0.0237072 0)
(2.21947e-08 -0.0237072 0)
(1.68025e-08 -0.0237072 0)
(1.13712e-08 -0.0237072 0)
(6.8204e-09 -0.0237072 0)
(2.13622e-09 -0.0237072 0)
(-2.12558e-09 -0.0237072 0)
(-6.81762e-09 -0.0237072 0)
(-1.13886e-08 -0.0237072 0)
(-1.67838e-08 -0.0237072 0)
(-2.21883e-08 -0.0237072 0)
(-2.92836e-08 -0.0237072 0)
(-3.61248e-08 -0.0237072 0)
(-4.61644e-08 -0.0237072 0)
(-5.52581e-08 -0.0237072 0)
(-7.02803e-08 -0.0237072 0)
(-8.24788e-08 -0.0237072 0)
(-1.06206e-07 -0.0237072 0)
(-1.22483e-07 -0.0237072 0)
(-1.61684e-07 -0.0237072 0)
(-1.8323e-07 -0.0237072 0)
(-2.51297e-07 -0.0237072 0)
(-2.78961e-07 -0.0237072 0)
(-4.03893e-07 -0.0237072 0)
(-4.3749e-07 -0.0237071 0)
(-6.8104e-07 -0.0237071 0)
(-7.14861e-07 -0.0237071 0)
(-1.22485e-06 -0.0237071 0)
(-1.215e-06 -0.023707 0)
(-2.38144e-06 -0.0237071 0)
(-1.97719e-06 -0.0237068 0)
(-4.92469e-06 -0.0237072 0)
(-1.01408e-06 -0.0237061 0)
(-8.75237e-06 -0.023706 0)
(4.31964e-05 -0.0237097 0)
(5.61004e-05 -0.0237161 0)
(-6.13121e-05 -0.0508622 0)
(-4.8417e-05 -0.050849 0)
(8.54662e-06 -0.0508448 0)
(1.01364e-06 -0.0508436 0)
(5.15324e-06 -0.0508449 0)
(2.12168e-06 -0.0508443 0)
(2.52693e-06 -0.0508447 0)
(1.30842e-06 -0.0508446 0)
(1.30818e-06 -0.0508447 0)
(7.71335e-07 -0.0508447 0)
(7.3004e-07 -0.0508448 0)
(4.72522e-07 -0.0508448 0)
(4.33953e-07 -0.0508448 0)
(3.01404e-07 -0.0508448 0)
(2.7046e-07 -0.0508448 0)
(1.97983e-07 -0.0508448 0)
(1.74216e-07 -0.0508448 0)
(1.32377e-07 -0.0508448 0)
(1.14524e-07 -0.0508448 0)
(8.91388e-08 -0.0508448 0)
(7.58579e-08 -0.0508448 0)
(5.97119e-08 -0.0508448 0)
(4.98445e-08 -0.0508448 0)
(3.90611e-08 -0.0508448 0)
(3.16168e-08 -0.0508448 0)
(2.39884e-08 -0.0508448 0)
(1.81483e-08 -0.0508448 0)
(1.22919e-08 -0.0508448 0)
(7.36609e-09 -0.0508448 0)
(2.31156e-09 -0.0508448 0)
(-2.30027e-09 -0.0508448 0)
(-7.36324e-09 -0.0508448 0)
(-1.23102e-08 -0.0508448 0)
(-1.81281e-08 -0.0508448 0)
(-2.39816e-08 -0.0508448 0)
(-3.16236e-08 -0.0508448 0)
(-3.90417e-08 -0.0508448 0)
(-4.98372e-08 -0.0508448 0)
(-5.97175e-08 -0.0508448 0)
(-7.58379e-08 -0.0508448 0)
(-8.91316e-08 -0.0508448 0)
(-1.14532e-07 -0.0508448 0)
(-1.3236e-07 -0.0508448 0)
(-1.74211e-07 -0.0508448 0)
(-1.97996e-07 -0.0508448 0)
(-2.70448e-07 -0.0508448 0)
(-3.01403e-07 -0.0508448 0)
(-4.33969e-07 -0.0508448 0)
(-4.72506e-07 -0.0508448 0)
(-7.30037e-07 -0.0508448 0)
(-7.71347e-07 -0.0508447 0)
(-1.30816e-06 -0.0508447 0)
(-1.30841e-06 -0.0508446 0)
(-2.52693e-06 -0.0508447 0)
(-2.12165e-06 -0.0508443 0)
(-5.15323e-06 -0.0508449 0)
(-1.01365e-06 -0.0508436 0)
(-8.54661e-06 -0.0508448 0)
(4.8417e-05 -0.050849 0)
(6.13121e-05 -0.0508622 0)
(-6.61374e-05 -0.0810038 0)
(-5.3333e-05 -0.0809815 0)
(8.28185e-06 -0.0809767 0)
(1.01611e-06 -0.0809743 0)
(5.36667e-06 -0.0809756 0)
(2.26629e-06 -0.080975 0)
(2.66993e-06 -0.0809753 0)
(1.4029e-06 -0.0809753 0)
(1.39156e-06 -0.0809754 0)
(8.28853e-07 -0.0809754 0)
(7.79535e-07 -0.0809755 0)
(5.08311e-07 -0.0809755 0)
(4.64499e-07 -0.0809755 0)
(3.24386e-07 -0.0809755 0)
(2.89982e-07 -0.0809755 0)
(2.13121e-07 -0.0809755 0)
(1.87016e-07 -0.0809755 0)
(1.42512e-07 -0.0809755 0)
(1.23045e-07 -0.0809755 0)
(9.59686e-08 -0.0809755 0)
(8.15548e-08 -0.0809755 0)
(6.42911e-08 -0.0809755 0)
(5.36125e-08 -0.0809755 0)
(4.20595e-08 -0.0809755 0)
(3.40182e-08 -0.0809755 0)
(2.58316e-08 -0.0809755 0)
(1.95301e-08 -0.0809755 0)
(1.32383e-08 -0.0809755 0)
(7.92648e-09 -0.0809755 0)
(2.49207e-09 -0.0809755 0)
(-2.48023e-09 -0.0809755 0)
(-7.92351e-09 -0.0809755 0)
(-1.32573e-08 -0.0809755 0)
(-1.95087e-08 -0.0809755 0)
(-2.58246e-08 -0.0809755 0)
(-3.40255e-08 -0.0809755 0)
(-4.20385e-08 -0.0809755 0)
(-5.36046e-08 -0.0809755 0)
(-6.42973e-08 -0.0809755 0)
(-8.15336e-08 -0.0809755 0)
(-9.59614e-08 -0.0809755 0)
(-1.23055e-07 -0.0809755 0)
(-1.42494e-07 -0.0809755 0)
(-1.87011e-07 -0.0809755 0)
(-2.13135e-07 -0.0809755 0)
(-2.89968e-07 -0.0809755 0)
(-3.24385e-07 -0.0809755 0)
(-4.64515e-07 -0.0809755 0)
(-5.08294e-07 -0.0809755 0)
(-7.79533e-07 -0.0809755 0)
(-8.28866e-07 -0.0809754 0)
(-1.39154e-06 -0.0809754 0)
(-1.40288e-06 -0.0809753 0)
(-2.66994e-06 -0.0809753 0)
(-2.26626e-06 -0.080975 0)
(-5.36666e-06 -0.0809756 0)
(-1.01613e-06 -0.0809743 0)
(-8.28184e-06 -0.0809767 0)
(5.3333e-05 -0.0809815 0)
(6.61374e-05 -0.0810038 0)
(-7.04967e-05 -0.115641 0)
(-5.78598e-05 -0.115607 0)
(7.96732e-06 -0.115602 0)
(1.02512e-06 -0.115598 0)
(5.5644e-06 -0.115599 0)
(2.41065e-06 -0.115598 0)
(2.81011e-06 -0.115599 0)
(1.49825e-06 -0.115599 0)
(1.47491e-06 -0.115599 0)
(8.87333e-07 -0.115599 0)
(8.29492e-07 -0.115599 0)
(5.44848e-07 -0.115599 0)
(4.95506e-07 -0.115599 0)
(3.47904e-07 -0.115599 0)
(3.09871e-07 -0.115599 0)
(2.28633e-07 -0.115599 0)
(2.0009e-07 -0.115599 0)
(1.52906e-07 -0.115599 0)
(1.31765e-07 -0.115599 0)
(1.02977e-07 -0.115599 0)
(8.73918e-08 -0.115599 0)
(6.89926e-08 -0.115599 0)
(5.74769e-08 -0.115599 0)
(4.51391e-08 -0.115599 0)
(3.64827e-08 -0.115599 0)
(2.77255e-08 -0.115599 0)
(2.09489e-08 -0.115599 0)
(1.4211e-08 -0.115599 0)
(8.50189e-09 -0.115599 0)
(2.67789e-09 -0.115599 0)
(-2.66556e-09 -0.115599 0)
(-8.4988e-09 -0.115599 0)
(-1.42307e-08 -0.115599 0)
(-2.09263e-08 -0.115599 0)
(-2.77182e-08 -0.115599 0)
(-3.64904e-08 -0.115599 0)
(-4.51168e-08 -0.115599 0)
(-5.74685e-08 -0.115599 0)
(-6.89993e-08 -0.115599 0)
(-8.73696e-08 -0.115599 0)
(-1.0297e-07 -0.115599 0)
(-1.31776e-07 -0.115599 0)
(-1.52887e-07 -0.115599 0)
(-2.00085e-07 -0.115599 0)
(-2.28647e-07 -0.115599 0)
(-3.09856e-07 -0.115599 0)