/*--------------------------------*- C++ -*----------------------------------*\
| =========                 |                                                 |
| \\      /  F ield         | foam-extend: Open Source CFD                    |
|  \\    /   O peration     | Version:     4.0                                |
|   \\  /    A nd           | Web:         http://www.foam-extend.org         |
|    \\/     M anipulation  |                                                 |
\*---------------------------------------------------------------------------*/
FoamFile
{
    version     2.0;
    format      ascii;
    class       regIOobject;
    location    "21/uniform";
    object      profilingInfo;
}
// * * * * * * * * * * * * * * * * * * * * * * * * * * * * * * * * * * * * * //

profilingInfo
(

    {
        id              5;
        parentId        4;
        description     "Foam::Time::writeObject - outputTime";
        calls           21;
        totalTime       1.80554;
        childTime       0;
        onStack         1;
    }

    {
        id              4;
        parentId        1;
        description     "Foam::Time::writeObject";
        calls           21;
        totalTime       1.80619;
        childTime       1.80554;
        onStack         1;
    }

    {
        id              1;
        description     "application::main";
        calls           1;
        totalTime       164.249;
        childTime       1.80629;
        onStack         1;
    }

    {
        id              3;
        parentId        2;
        description     "functionObjectList::read";
        calls           1;
        totalTime       6e-06;
        childTime       0;
        onStack         0;
    }

    {
        id              6;
        parentId        1;
        description     "functionObjects_.end()";
        calls           20;
        totalTime       4.3e-05;
        childTime       0;
        onStack         0;
    }

    {
        id              7;
        parentId        1;
        description     "functionObjects_.execute()";
        calls           20;
        totalTime       3.3e-05;
        childTime       0;
        onStack         0;
    }

    {
        id              2;
        parentId        1;
        description     "functionObjects_.start()";
        calls           1;
        totalTime       1.8e-05;
        childTime       6e-06;
        onStack         0;
    }
);


// ************************************************************************* //
