/*--------------------------------*- C++ -*----------------------------------*\
| =========                 |                                                 |
| \\      /  F ield         | foam-extend: Open Source CFD                    |
|  \\    /   O peration     | Version:     4.0                                |
|   \\  /    A nd           | Web:         http://www.foam-extend.org         |
|    \\/     M anipulation  |                                                 |
\*---------------------------------------------------------------------------*/
FoamFile
{
    version     2.0;
    format      ascii;
    class       volScalarField;
    location    "1620";
    object      cMinus;
}
// * * * * * * * * * * * * * * * * * * * * * * * * * * * * * * * * * * * * * //

dimensions      [0 0 0 0 0 0 0];

internalField   nonuniform List<scalar> 
6960
(
8.39658e-24
8.39823e-24
8.39876e-24
8.39902e-24
8.39921e-24
8.39938e-24
8.39956e-24
8.39973e-24
8.39991e-24
8.4001e-24
8.40029e-24
8.40048e-24
8.40067e-24
8.40086e-24
8.40104e-24
8.40121e-24
8.40138e-24
8.40154e-24
8.40169e-24
8.40183e-24
8.40195e-24
8.40207e-24
8.40218e-24
8.40227e-24
8.40235e-24
8.40241e-24
8.40247e-24
8.40251e-24
8.40254e-24
8.40255e-24
8.40255e-24
8.40254e-24
8.40251e-24
8.40247e-24
8.40241e-24
8.40235e-24
8.40227e-24
8.40218e-24
8.40207e-24
8.40195e-24
8.40183e-24
8.40169e-24
8.40154e-24
8.40138e-24
8.40121e-24
8.40104e-24
8.40086e-24
8.40067e-24
8.40048e-24
8.40029e-24
8.4001e-24
8.39991e-24
8.39973e-24
8.39956e-24
8.39938e-24
8.39921e-24
8.39902e-24
8.39876e-24
8.39823e-24
8.39658e-24
2.32525e-23
2.32574e-23
2.32592e-23
2.32602e-23
2.3261e-23
2.32617e-23
2.32624e-23
2.32632e-23
2.32639e-23
2.32647e-23
2.32654e-23
2.32661e-23
2.32668e-23
2.32675e-23
2.32682e-23
2.32688e-23
2.32694e-23
2.327e-23
2.32705e-23
2.3271e-23
2.32715e-23
2.32719e-23
2.32722e-23
2.32725e-23
2.32728e-23
2.32731e-23
2.32732e-23
2.32734e-23
2.32735e-23
2.32735e-23
2.32735e-23
2.32735e-23
2.32734e-23
2.32732e-23
2.32731e-23
2.32728e-23
2.32725e-23
2.32722e-23
2.32719e-23
2.32715e-23
2.3271e-23
2.32705e-23
2.327e-23
2.32694e-23
2.32688e-23
2.32682e-23
2.32675e-23
2.32668e-23
2.32661e-23
2.32654e-23
2.32647e-23
2.32639e-23
2.32632e-23
2.32624e-23
2.32617e-23
2.3261e-23
2.32602e-23
2.32592e-23
2.32574e-23
2.32525e-23
5.58901e-23
5.59025e-23
5.59075e-23
5.59107e-23
5.59134e-23
5.5916e-23
5.59186e-23
5.59211e-23
5.59236e-23
5.5926e-23
5.59284e-23
5.59307e-23
5.59329e-23
5.59351e-23
5.59371e-23
5.59391e-23
5.59409e-23
5.59426e-23
5.59442e-23
5.59457e-23
5.5947e-23
5.59483e-23
5.59493e-23
5.59503e-23
5.59511e-23
5.59518e-23
5.59523e-23
5.59527e-23
5.5953e-23
5.59531e-23
5.59531e-23
5.5953e-23
5.59527e-23
5.59523e-23
5.59518e-23
5.59511e-23
5.59503e-23
5.59493e-23
5.59483e-23
5.5947e-23
5.59457e-23
5.59442e-23
5.59426e-23
5.59409e-23
5.59391e-23
5.59371e-23
5.59351e-23
5.59329e-23
5.59307e-23
5.59284e-23
5.5926e-23
5.59236e-23
5.59211e-23
5.59186e-23
5.5916e-23
5.59134e-23
5.59107e-23
5.59075e-23
5.59025e-23
5.58901e-23
1.2812e-22
1.2815e-22
1.28163e-22
1.28173e-22
1.28182e-22
1.2819e-22
1.28198e-22
1.28205e-22
1.28213e-22
1.2822e-22
1.28227e-22
1.28234e-22
1.28241e-22
1.28247e-22
1.28253e-22
1.28258e-22
1.28264e-22
1.28269e-22
1.28273e-22
1.28277e-22
1.28281e-22
1.28284e-22
1.28287e-22
1.2829e-22
1.28292e-22
1.28294e-22
1.28296e-22
1.28297e-22
1.28297e-22
1.28298e-22
1.28298e-22
1.28297e-22
1.28297e-22
1.28296e-22
1.28294e-22
1.28292e-22
1.2829e-22
1.28287e-22
1.28284e-22
1.28281e-22
1.28277e-22
1.28273e-22
1.28269e-22
1.28264e-22
1.28258e-22
1.28253e-22
1.28247e-22
1.28241e-22
1.28234e-22
1.28227e-22
1.2822e-22
1.28213e-22
1.28205e-22
1.28198e-22
1.2819e-22
1.28182e-22
1.28173e-22
1.28163e-22
1.2815e-22
1.2812e-22
2.9075e-22
2.90821e-22
2.90857e-22
2.90884e-22
2.9091e-22
2.90934e-22
2.90957e-22
2.90979e-22
2.91001e-22
2.91022e-22
2.91042e-22
2.91062e-22
2.9108e-22
2.91098e-22
2.91114e-22
2.9113e-22
2.91144e-22
2.91158e-22
2.9117e-22
2.91181e-22
2.91191e-22
2.91201e-22
2.91209e-22
2.91216e-22
2.91222e-22
2.91227e-22
2.91231e-22
2.91234e-22
2.91236e-22
2.91237e-22
2.91237e-22
2.91236e-22
2.91234e-22
2.91231e-22
2.91227e-22
2.91222e-22
2.91216e-22
2.91209e-22
2.91201e-22
2.91191e-22
2.91181e-22
2.9117e-22
2.91158e-22
2.91144e-22
2.9113e-22
2.91114e-22
2.91098e-22
2.9108e-22
2.91062e-22
2.91042e-22
2.91022e-22
2.91001e-22
2.90979e-22
2.90957e-22
2.90934e-22
2.9091e-22
2.90884e-22
2.90857e-22
2.90821e-22
2.9075e-22
6.64208e-22
6.64378e-22
6.64473e-22
6.6455e-22
6.64621e-22
6.6469e-22
6.64756e-22
6.64819e-22
6.64881e-22
6.6494e-22
6.64996e-22
6.6505e-22
6.65101e-22
6.65149e-22
6.65194e-22
6.65236e-22
6.65275e-22
6.65312e-22
6.65345e-22
6.65376e-22
6.65403e-22
6.65428e-22
6.6545e-22
6.65469e-22
6.65486e-22
6.65499e-22
6.6551e-22
6.65518e-22
6.65523e-22
6.65526e-22
6.65526e-22
6.65523e-22
6.65518e-22
6.6551e-22
6.65499e-22
6.65486e-22
6.65469e-22
6.6545e-22
6.65428e-22
6.65403e-22
6.65376e-22
6.65345e-22
6.65312e-22
6.65275e-22
6.65236e-22
6.65194e-22
6.65149e-22
6.65101e-22
6.6505e-22
6.64996e-22
6.6494e-22
6.64881e-22
6.64819e-22
6.64756e-22
6.6469e-22
6.64621e-22
6.6455e-22
6.64473e-22
6.64378e-22
6.64208e-22
1.53957e-21
1.53999e-21
1.54024e-21
1.54045e-21
1.54065e-21
1.54084e-21
1.54103e-21
1.54121e-21
1.54138e-21
1.54154e-21
1.54169e-21
1.54184e-21
1.54198e-21
1.54211e-21
1.54223e-21
1.54235e-21
1.54246e-21
1.54255e-21
1.54264e-21
1.54273e-21
1.5428e-21
1.54287e-21
1.54293e-21
1.54298e-21
1.54302e-21
1.54306e-21
1.54309e-21
1.54311e-21
1.54312e-21
1.54313e-21
1.54313e-21
1.54312e-21
1.54311e-21
1.54309e-21
1.54306e-21
1.54302e-21
1.54298e-21
1.54293e-21
1.54287e-21
1.5428e-21
1.54273e-21
1.54264e-21
1.54255e-21
1.54246e-21
1.54235e-21
1.54223e-21
1.54211e-21
1.54198e-21
1.54184e-21
1.54169e-21
1.54154e-21
1.54138e-21
1.54121e-21
1.54103e-21
1.54084e-21
1.54065e-21
1.54045e-21
1.54024e-21
1.53999e-21
1.53957e-21
3.63482e-21
3.63585e-21
3.63652e-21
3.63711e-21
3.63766e-21
3.63819e-21
3.6387e-21
3.6392e-21
3.63967e-21
3.64012e-21
3.64054e-21
3.64095e-21
3.64133e-21
3.64169e-21
3.64202e-21
3.64233e-21
3.64262e-21
3.64289e-21
3.64313e-21
3.64336e-21
3.64356e-21
3.64374e-21
3.6439e-21
3.64403e-21
3.64415e-21
3.64425e-21
3.64433e-21
3.64439e-21
3.64443e-21
3.64444e-21
3.64444e-21
3.64443e-21
3.64439e-21
3.64433e-21
3.64425e-21
3.64415e-21
3.64403e-21
3.6439e-21
3.64374e-21
3.64356e-21
3.64336e-21
3.64313e-21
3.64289e-21
3.64262e-21
3.64233e-21
3.64202e-21
3.64169e-21
3.64133e-21
3.64095e-21
3.64054e-21
3.64012e-21
3.63967e-21
3.6392e-21
3.6387e-21
3.63819e-21
3.63766e-21
3.63711e-21
3.63652e-21
3.63585e-21
3.63482e-21
8.75792e-21
8.76052e-21
8.76232e-21
8.76393e-21
8.76547e-21
8.76696e-21
8.76838e-21
8.76975e-21
8.77105e-21
8.77229e-21
8.77347e-21
8.77459e-21
8.77563e-21
8.77662e-21
8.77754e-21
8.77839e-21
8.77918e-21
8.77991e-21
8.78058e-21
8.78119e-21
8.78173e-21
8.78222e-21
8.78265e-21
8.78303e-21
8.78335e-21
8.78362e-21
8.78383e-21
8.78398e-21
8.78409e-21
8.78414e-21
8.78414e-21
8.78409e-21
8.78398e-21
8.78383e-21
8.78362e-21
8.78335e-21
8.78303e-21
8.78265e-21
8.78222e-21
8.78173e-21
8.78119e-21
8.78058e-21
8.77991e-21
8.77918e-21
8.77839e-21
8.77754e-21
8.77662e-21
8.77563e-21
8.77459e-21
8.77347e-21
8.77229e-21
8.77105e-21
8.76975e-21
8.76838e-21
8.76696e-21
8.76547e-21
8.76393e-21
8.76232e-21
8.76052e-21
8.75792e-21
2.15583e-20
2.1565e-20
2.15699e-20
2.15744e-20
2.15787e-20
2.15829e-20
2.15868e-20
2.15907e-20
2.15943e-20
2.15978e-20
2.1601e-20
2.16041e-20
2.1607e-20
2.16098e-20
2.16123e-20
2.16147e-20
2.16169e-20
2.16189e-20
2.16207e-20
2.16224e-20
2.16239e-20
2.16252e-20
2.16264e-20
2.16275e-20
2.16283e-20
2.16291e-20
2.16296e-20
2.16301e-20
2.16304e-20
2.16305e-20
2.16305e-20
2.16304e-20
2.16301e-20
2.16296e-20
2.16291e-20
2.16283e-20
2.16275e-20
2.16264e-20
2.16252e-20
2.16239e-20
2.16224e-20
2.16207e-20
2.16189e-20
2.16169e-20
2.16147e-20
2.16123e-20
2.16098e-20
2.1607e-20
2.16041e-20
2.1601e-20
2.15978e-20
2.15943e-20
2.15907e-20
2.15868e-20
2.15829e-20
2.15787e-20
2.15744e-20
2.15699e-20
2.1565e-20
2.15583e-20
5.42498e-20
5.42676e-20
5.42812e-20
5.42938e-20
5.4306e-20
5.43178e-20
5.4329e-20
5.43398e-20
5.43501e-20
5.43599e-20
5.43691e-20
5.43778e-20
5.43859e-20
5.43936e-20
5.44007e-20
5.44073e-20
5.44135e-20
5.44191e-20
5.44242e-20
5.44289e-20
5.44331e-20
5.44368e-20
5.44401e-20
5.4443e-20
5.44455e-20
5.44475e-20
5.44491e-20
5.44503e-20
5.44511e-20
5.44515e-20
5.44515e-20
5.44511e-20
5.44503e-20
5.44491e-20
5.44475e-20
5.44455e-20
5.4443e-20
5.44401e-20
5.44368e-20
5.44331e-20
5.44289e-20
5.44242e-20
5.44191e-20
5.44135e-20
5.44073e-20
5.44007e-20
5.43936e-20
5.43859e-20
5.43778e-20
5.43691e-20
5.43599e-20
5.43501e-20
5.43398e-20
5.4329e-20
5.43178e-20
5.4306e-20
5.42938e-20
5.42812e-20
5.42676e-20
5.42498e-20
1.39618e-19
1.39666e-19
1.39704e-19
1.3974e-19
1.39775e-19
1.39809e-19
1.39841e-19
1.39872e-19
1.39901e-19
1.39929e-19
1.39956e-19
1.3998e-19
1.40004e-19
1.40025e-19
1.40046e-19
1.40064e-19
1.40082e-19
1.40098e-19
1.40112e-19
1.40125e-19
1.40137e-19
1.40148e-19
1.40157e-19
1.40165e-19
1.40172e-19
1.40178e-19
1.40183e-19
1.40186e-19
1.40188e-19
1.40189e-19
1.40189e-19
1.40188e-19
1.40186e-19
1.40183e-19
1.40178e-19
1.40172e-19
1.40165e-19
1.40157e-19
1.40148e-19
1.40137e-19
1.40125e-19
1.40112e-19
1.40098e-19
1.40082e-19
1.40064e-19
1.40046e-19
1.40025e-19
1.40004e-19
1.3998e-19
1.39956e-19
1.39929e-19
1.39901e-19
1.39872e-19
1.39841e-19
1.39809e-19
1.39775e-19
1.3974e-19
1.39704e-19
1.39666e-19
1.39618e-19
3.67606e-19
3.67739e-19
3.67848e-19
3.67952e-19
3.68054e-19
3.68151e-19
3.68245e-19
3.68335e-19
3.6842e-19
3.685e-19
3.68577e-19
3.68648e-19
3.68716e-19
3.68778e-19
3.68837e-19
3.68891e-19
3.68941e-19
3.68987e-19
3.69029e-19
3.69067e-19
3.69102e-19
3.69132e-19
3.69159e-19
3.69182e-19
3.69202e-19
3.69219e-19
3.69232e-19
3.69242e-19
3.69248e-19
3.69251e-19
3.69251e-19
3.69248e-19
3.69242e-19
3.69232e-19
3.69219e-19
3.69202e-19
3.69182e-19
3.69159e-19
3.69132e-19
3.69102e-19
3.69067e-19
3.69029e-19
3.68987e-19
3.68941e-19
3.68891e-19
3.68837e-19
3.68778e-19
3.68716e-19
3.68648e-19
3.68577e-19
3.685e-19
3.6842e-19
3.68335e-19
3.68245e-19
3.68151e-19
3.68054e-19
3.67952e-19
3.67848e-19
3.67739e-19
3.67606e-19
9.90443e-19
9.90819e-19
9.91137e-19
9.91443e-19
9.91742e-19
9.9203e-19
9.92307e-19
9.92571e-19
9.92822e-19
9.93059e-19
9.93284e-19
9.93495e-19
9.93692e-19
9.93877e-19
9.94049e-19
9.94208e-19
9.94355e-19
9.9449e-19
9.94613e-19
9.94724e-19
9.94825e-19
9.94914e-19
9.94993e-19
9.95061e-19
9.9512e-19
9.95168e-19
9.95206e-19
9.95235e-19
9.95254e-19
9.95264e-19
9.95264e-19
9.95254e-19
9.95235e-19
9.95206e-19
9.95168e-19
9.9512e-19
9.95061e-19
9.94993e-19
9.94914e-19
9.94825e-19
9.94724e-19
9.94613e-19
9.9449e-19
9.94355e-19
9.94208e-19
9.94049e-19
9.93877e-19
9.93692e-19
9.93495e-19
9.93284e-19
9.93059e-19
9.92822e-19
9.92571e-19
9.92307e-19
9.9203e-19
9.91742e-19
9.91443e-19
9.91137e-19
9.90819e-19
9.90443e-19
2.73127e-18
2.73236e-18
2.7333e-18
2.73422e-18
2.73512e-18
2.73598e-18
2.73681e-18
2.7376e-18
2.73836e-18
2.73907e-18
2.73974e-18
2.74037e-18
2.74096e-18
2.74151e-18
2.74203e-18
2.7425e-18
2.74294e-18
2.74335e-18
2.74371e-18
2.74405e-18
2.74435e-18
2.74461e-18
2.74485e-18
2.74505e-18
2.74523e-18
2.74537e-18
2.74548e-18
2.74557e-18
2.74563e-18
2.74565e-18
2.74565e-18
2.74563e-18
2.74557e-18
2.74548e-18
2.74537e-18
2.74523e-18
2.74505e-18
2.74485e-18
2.74461e-18
2.74435e-18
2.74405e-18
2.74371e-18
2.74335e-18
2.74294e-18
2.7425e-18
2.74203e-18
2.74151e-18
2.74096e-18
2.74037e-18
2.73974e-18
2.73907e-18
2.73836e-18
2.7376e-18
2.73681e-18
2.73598e-18
2.73512e-18
2.73422e-18
2.7333e-18
2.73236e-18
2.73127e-18
7.70986e-18
7.71308e-18
7.71593e-18
7.71873e-18
7.72146e-18
7.72411e-18
7.72664e-18
7.72906e-18
7.73136e-18
7.73353e-18
7.73558e-18
7.73751e-18
7.73931e-18
7.741e-18
7.74256e-18
7.74401e-18
7.74535e-18
7.74657e-18
7.74769e-18
7.7487e-18
7.74961e-18
7.75043e-18
7.75114e-18
7.75176e-18
7.75229e-18
7.75273e-18
7.75307e-18
7.75333e-18
7.75351e-18
7.75359e-18
7.75359e-18
7.75351e-18
7.75333e-18
7.75307e-18
7.75273e-18
7.75229e-18
7.75176e-18
7.75114e-18
7.75043e-18
7.74961e-18
7.7487e-18
7.74769e-18
7.74657e-18
7.74535e-18
7.74401e-18
7.74256e-18
7.741e-18
7.73931e-18
7.73751e-18
7.73558e-18
7.73353e-18
7.73136e-18
7.72906e-18
7.72664e-18
7.72411e-18
7.72146e-18
7.71873e-18
7.71593e-18
7.71308e-18
7.70986e-18
2.22794e-17
2.22891e-17
2.22979e-17
2.23066e-17
2.23151e-17
2.23234e-17
2.23313e-17
2.23388e-17
2.23459e-17
2.23527e-17
2.23591e-17
2.23651e-17
2.23707e-17
2.23759e-17
2.23807e-17
2.23852e-17
2.23894e-17
2.23932e-17
2.23967e-17
2.23998e-17
2.24026e-17
2.24052e-17
2.24074e-17
2.24093e-17
2.24109e-17
2.24123e-17
2.24134e-17
2.24142e-17
2.24147e-17
2.2415e-17
2.2415e-17
2.24147e-17
2.24142e-17
2.24134e-17
2.24123e-17
2.24109e-17
2.24093e-17
2.24074e-17
2.24052e-17
2.24026e-17
2.23998e-17
2.23967e-17
2.23932e-17
2.23894e-17
2.23852e-17
2.23807e-17
2.23759e-17
2.23707e-17
2.23651e-17
2.23591e-17
2.23527e-17
2.23459e-17
2.23388e-17
2.23313e-17
2.23234e-17
2.23151e-17
2.23066e-17
2.22979e-17
2.22891e-17
2.22794e-17
6.5907e-17
6.59372e-17
6.59649e-17
6.59924e-17
6.60194e-17
6.60455e-17
6.60706e-17
6.60945e-17
6.61172e-17
6.61386e-17
6.61588e-17
6.61778e-17
6.61955e-17
6.62121e-17
6.62275e-17
6.62417e-17
6.62548e-17
6.62669e-17
6.62778e-17
6.62878e-17
6.62967e-17
6.63047e-17
6.63117e-17
6.63178e-17
6.63229e-17
6.63272e-17
6.63306e-17
6.63332e-17
6.63349e-17
6.63357e-17
6.63357e-17
6.63349e-17
6.63332e-17
6.63306e-17
6.63272e-17
6.63229e-17
6.63178e-17
6.63117e-17
6.63047e-17
6.62967e-17
6.62878e-17
6.62778e-17
6.62669e-17
6.62548e-17
6.62417e-17
6.62275e-17
6.62121e-17
6.61955e-17
6.61778e-17
6.61588e-17
6.61386e-17
6.61172e-17
6.60945e-17
6.60706e-17
6.60455e-17
6.60194e-17
6.59924e-17
6.59649e-17
6.59372e-17
6.5907e-17
1.99567e-16
1.99663e-16
1.99752e-16
1.99841e-16
1.99928e-16
2.00013e-16
2.00094e-16
2.00171e-16
2.00244e-16
2.00314e-16
2.00379e-16
2.0044e-16
2.00498e-16
2.00551e-16
2.00601e-16
2.00647e-16
2.00689e-16
2.00728e-16
2.00763e-16
2.00795e-16
2.00824e-16
2.0085e-16
2.00873e-16
2.00892e-16
2.00909e-16
2.00923e-16
2.00934e-16
2.00942e-16
2.00947e-16
2.0095e-16
2.0095e-16
2.00947e-16
2.00942e-16
2.00934e-16
2.00923e-16
2.00909e-16
2.00892e-16
2.00873e-16
2.0085e-16
2.00824e-16
2.00795e-16
2.00763e-16
2.00728e-16
2.00689e-16
2.00647e-16
2.00601e-16
2.00551e-16
2.00498e-16
2.0044e-16
2.00379e-16
2.00314e-16
2.00244e-16
2.00171e-16
2.00094e-16
2.00013e-16
1.99928e-16
1.99841e-16
1.99752e-16
1.99663e-16
1.99567e-16
6.18427e-16
6.18737e-16
6.19029e-16
6.19321e-16
6.19609e-16
6.19888e-16
6.20155e-16
6.2041e-16
6.20652e-16
6.2088e-16
6.21096e-16
6.21298e-16
6.21487e-16
6.21663e-16
6.21827e-16
6.21978e-16
6.22118e-16
6.22245e-16
6.22362e-16
6.22468e-16
6.22563e-16
6.22647e-16
6.22721e-16
6.22786e-16
6.22841e-16
6.22886e-16
6.22922e-16
6.22949e-16
6.22967e-16
6.22976e-16
6.22976e-16
6.22967e-16
6.22949e-16
6.22922e-16
6.22886e-16
6.22841e-16
6.22786e-16
6.22721e-16
6.22647e-16
6.22563e-16
6.22468e-16
6.22362e-16
6.22245e-16
6.22118e-16
6.21978e-16
6.21827e-16
6.21663e-16
6.21487e-16
6.21298e-16
6.21096e-16
6.2088e-16
6.20652e-16
6.2041e-16
6.20155e-16
6.19888e-16
6.19609e-16
6.19321e-16
6.19029e-16
6.18737e-16
6.18427e-16
1.9606e-15
1.96162e-15
1.9626e-15
1.96358e-15
1.96455e-15
1.96548e-15
1.96638e-15
1.96724e-15
1.96805e-15
1.96882e-15
1.96954e-15
1.97022e-15
1.97086e-15
1.97145e-15
1.972e-15
1.97251e-15
1.97298e-15
1.97341e-15
1.9738e-15
1.97415e-15
1.97447e-15
1.97475e-15
1.975e-15
1.97522e-15
1.9754e-15
1.97556e-15
1.97568e-15
1.97577e-15
1.97583e-15
1.97586e-15
1.97586e-15
1.97583e-15
1.97577e-15
1.97568e-15
1.97556e-15
1.9754e-15
1.97522e-15
1.975e-15
1.97475e-15
1.97447e-15
1.97415e-15
1.9738e-15
1.97341e-15
1.97298e-15
1.97251e-15
1.972e-15
1.97145e-15
1.97086e-15
1.97022e-15
1.96954e-15
1.96882e-15
1.96805e-15
1.96724e-15
1.96638e-15
1.96548e-15
1.96455e-15
1.96358e-15
1.9626e-15
1.96162e-15
1.9606e-15
6.35601e-15
6.35946e-15
6.36279e-15
6.36615e-15
6.36947e-15
6.37269e-15
6.37577e-15
6.37871e-15
6.3815e-15
6.38413e-15
6.38661e-15
6.38893e-15
6.39111e-15
6.39313e-15
6.39502e-15
6.39676e-15
6.39836e-15
6.39983e-15
6.40117e-15
6.40238e-15
6.40347e-15
6.40444e-15
6.4053e-15
6.40604e-15
6.40666e-15
6.40719e-15
6.4076e-15
6.40791e-15
6.40811e-15
6.40822e-15
6.40822e-15
6.40811e-15
6.40791e-15
6.4076e-15
6.40719e-15
6.40666e-15
6.40604e-15
6.4053e-15
6.40444e-15
6.40347e-15
6.40238e-15
6.40117e-15
6.39983e-15
6.39836e-15
6.39676e-15
6.39502e-15
6.39313e-15
6.39111e-15
6.38893e-15
6.38661e-15
6.38413e-15
6.3815e-15
6.37871e-15
6.37577e-15
6.37269e-15
6.36947e-15
6.36615e-15
6.36279e-15
6.35946e-15
6.35601e-15
2.10573e-14
2.10692e-14
2.10807e-14
2.10925e-14
2.1104e-14
2.11153e-14
2.1126e-14
2.11363e-14
2.1146e-14
2.11552e-14
2.11639e-14
2.1172e-14
2.11796e-14
2.11867e-14
2.11932e-14
2.11993e-14
2.12049e-14
2.121e-14
2.12147e-14
2.12189e-14
2.12227e-14
2.12261e-14
2.12291e-14
2.12316e-14
2.12338e-14
2.12356e-14
2.12371e-14
2.12382e-14
2.12389e-14
2.12392e-14
2.12392e-14
2.12389e-14
2.12382e-14
2.12371e-14
2.12356e-14
2.12338e-14
2.12316e-14
2.12291e-14
2.12261e-14
2.12227e-14
2.12189e-14
2.12147e-14
2.121e-14
2.12049e-14
2.11993e-14
2.11932e-14
2.11867e-14
2.11796e-14
2.1172e-14
2.11639e-14
2.11552e-14
2.1146e-14
2.11363e-14
2.1126e-14
2.11153e-14
2.1104e-14
2.10925e-14
2.10807e-14
2.10692e-14
2.10573e-14
7.12331e-14
7.12747e-14
7.13157e-14
7.13574e-14
7.13986e-14
7.14385e-14
7.14768e-14
7.15133e-14
7.15479e-14
7.15805e-14
7.16113e-14
7.16401e-14
7.1667e-14
7.16922e-14
7.17155e-14
7.1737e-14
7.17569e-14
7.17751e-14
7.17916e-14
7.18067e-14
7.18201e-14
7.18321e-14
7.18427e-14
7.18518e-14
7.18596e-14
7.1866e-14
7.18712e-14
7.1875e-14
7.18775e-14
7.18788e-14
7.18788e-14
7.18775e-14
7.1875e-14
7.18712e-14
7.1866e-14
7.18596e-14
7.18518e-14
7.18427e-14
7.18321e-14
7.18201e-14
7.18067e-14
7.17916e-14
7.17751e-14
7.17569e-14
7.1737e-14
7.17155e-14
7.16922e-14
7.1667e-14
7.16401e-14
7.16113e-14
7.15805e-14
7.15479e-14
7.15133e-14
7.14768e-14
7.14385e-14
7.13986e-14
7.13574e-14
7.13157e-14
7.12747e-14
7.12331e-14
2.45792e-13
2.45941e-13
2.46088e-13
2.46239e-13
2.46388e-13
2.46532e-13
2.46671e-13
2.46803e-13
2.46928e-13
2.47046e-13
2.47157e-13
2.47261e-13
2.47358e-13
2.47449e-13
2.47533e-13
2.47611e-13
2.47683e-13
2.47748e-13
2.47808e-13
2.47862e-13
2.47911e-13
2.47954e-13
2.47992e-13
2.48025e-13
2.48053e-13
2.48077e-13
2.48095e-13
2.48109e-13
2.48118e-13
2.48123e-13
2.48123e-13
2.48118e-13
2.48109e-13
2.48095e-13
2.48077e-13
2.48053e-13
2.48025e-13
2.47992e-13
2.47954e-13
2.47911e-13
2.47862e-13
2.47808e-13
2.47748e-13
2.47683e-13
2.47611e-13
2.47533e-13
2.47449e-13
2.47358e-13
2.47261e-13
2.47157e-13
2.47046e-13
2.46928e-13
2.46803e-13
2.46671e-13
2.46532e-13
2.46388e-13
2.46239e-13
2.46088e-13
2.45941e-13
2.45792e-13
8.63964e-13
8.64502e-13
8.65043e-13
8.65595e-13
8.66142e-13
8.66673e-13
8.67181e-13
8.67665e-13
8.68124e-13
8.68558e-13
8.68965e-13
8.69348e-13
8.69705e-13
8.70038e-13
8.70346e-13
8.70632e-13
8.70895e-13
8.71135e-13
8.71355e-13
8.71553e-13
8.71732e-13
8.7189e-13
8.7203e-13
8.72151e-13
8.72254e-13
8.72339e-13
8.72406e-13
8.72457e-13
8.72491e-13
8.72507e-13
8.72507e-13
8.72491e-13
8.72457e-13
8.72406e-13
8.72339e-13
8.72254e-13
8.72151e-13
8.7203e-13
8.7189e-13
8.71732e-13
8.71553e-13
8.71355e-13
8.71135e-13
8.70895e-13
8.70632e-13
8.70346e-13
8.70038e-13
8.69705e-13
8.69348e-13
8.68965e-13
8.68558e-13
8.68124e-13
8.67665e-13
8.67181e-13
8.66673e-13
8.66142e-13
8.65595e-13
8.65043e-13
8.64502e-13
8.63964e-13
3.08868e-12
3.09066e-12
3.09267e-12
3.09472e-12
3.09676e-12
3.09874e-12
3.10063e-12
3.10243e-12
3.10414e-12
3.10575e-12
3.10727e-12
3.10869e-12
3.11002e-12
3.11126e-12
3.11241e-12
3.11347e-12
3.11445e-12
3.11534e-12
3.11616e-12
3.11689e-12
3.11756e-12
3.11815e-12
3.11866e-12
3.11911e-12
3.1195e-12
3.11981e-12
3.12006e-12
3.12025e-12
3.12038e-12
3.12044e-12
3.12044e-12
3.12038e-12
3.12025e-12
3.12006e-12
3.11981e-12
3.1195e-12
3.11911e-12
3.11866e-12
3.11815e-12
3.11756e-12
3.11689e-12
3.11616e-12
3.11534e-12
3.11445e-12
3.11347e-12
3.11241e-12
3.11126e-12
3.11002e-12
3.10869e-12
3.10727e-12
3.10575e-12
3.10414e-12
3.10243e-12
3.10063e-12
3.09874e-12
3.09676e-12
3.09472e-12
3.09267e-12
3.09066e-12
3.08868e-12
1.12089e-11
1.12163e-11
1.12239e-11
1.12316e-11
1.12393e-11
1.12467e-11
1.12539e-11
1.12607e-11
1.12671e-11
1.12732e-11
1.12789e-11
1.12842e-11
1.12892e-11
1.12939e-11
1.12982e-11
1.13022e-11
1.13059e-11
1.13093e-11
1.13123e-11
1.13151e-11
1.13176e-11
1.13198e-11
1.13218e-11
1.13235e-11
1.13249e-11
1.13261e-11
1.1327e-11
1.13277e-11
1.13282e-11
1.13284e-11
1.13284e-11
1.13282e-11
1.13277e-11
1.1327e-11
1.13261e-11
1.13249e-11
1.13235e-11
1.13218e-11
1.13198e-11
1.13176e-11
1.13151e-11
1.13123e-11
1.13093e-11
1.13059e-11
1.13022e-11
1.12982e-11
1.12939e-11
1.12892e-11
1.12842e-11
1.12789e-11
1.12732e-11
1.12671e-11
1.12607e-11
1.12539e-11
1.12467e-11
1.12393e-11
1.12316e-11
1.12239e-11
1.12163e-11
1.12089e-11
4.11978e-11
4.12256e-11
4.12542e-11
4.12837e-11
4.13129e-11
4.13412e-11
4.13683e-11
4.13942e-11
4.14186e-11
4.14417e-11
4.14634e-11
4.14838e-11
4.15028e-11
4.15205e-11
4.15369e-11
4.15521e-11
4.1566e-11
4.15788e-11
4.15905e-11
4.1601e-11
4.16105e-11
4.16189e-11
4.16263e-11
4.16327e-11
4.16382e-11
4.16427e-11
4.16463e-11
4.1649e-11
4.16507e-11
4.16516e-11
4.16516e-11
4.16507e-11
4.1649e-11
4.16463e-11
4.16427e-11
4.16382e-11
4.16327e-11
4.16263e-11
4.16189e-11
4.16105e-11
4.1601e-11
4.15905e-11
4.15788e-11
4.1566e-11
4.15521e-11
4.15369e-11
4.15205e-11
4.15028e-11
4.14838e-11
4.14634e-11
4.14417e-11
4.14186e-11
4.13942e-11
4.13683e-11
4.13412e-11
4.13129e-11
4.12837e-11
4.12542e-11
4.12256e-11
4.11978e-11
1.5294e-10
1.53045e-10
1.53155e-10
1.53268e-10
1.53379e-10
1.53488e-10
1.53591e-10
1.5369e-10
1.53784e-10
1.53872e-10
1.53955e-10
1.54033e-10
1.54106e-10
1.54173e-10
1.54236e-10
1.54294e-10
1.54348e-10
1.54396e-10
1.54441e-10
1.54481e-10
1.54517e-10
1.5455e-10
1.54578e-10
1.54602e-10
1.54623e-10
1.54641e-10
1.54654e-10
1.54664e-10
1.54671e-10
1.54675e-10
1.54675e-10
1.54671e-10
1.54664e-10
1.54654e-10
1.54641e-10
1.54623e-10
1.54602e-10
1.54578e-10
1.5455e-10
1.54517e-10
1.54481e-10
1.54441e-10
1.54396e-10
1.54348e-10
1.54294e-10
1.54236e-10
1.54173e-10
1.54106e-10
1.54033e-10
1.53955e-10
1.53872e-10
1.53784e-10
1.5369e-10
1.53591e-10
1.53488e-10
1.53379e-10
1.53268e-10
1.53155e-10
1.53045e-10
1.5294e-10
5.71631e-10
5.72032e-10
5.72454e-10
5.72887e-10
5.73316e-10
5.73732e-10
5.74131e-10
5.7451e-10
5.74869e-10
5.75208e-10
5.75527e-10
5.75826e-10
5.76105e-10
5.76364e-10
5.76605e-10
5.76827e-10
5.77032e-10
5.7722e-10
5.7739e-10
5.77545e-10
5.77683e-10
5.77807e-10
5.77915e-10
5.78009e-10
5.78089e-10
5.78155e-10
5.78208e-10
5.78247e-10
5.78273e-10
5.78286e-10
5.78286e-10
5.78273e-10
5.78247e-10
5.78208e-10
5.78155e-10
5.78089e-10
5.78009e-10
5.77915e-10
5.77807e-10
5.77683e-10
5.77545e-10
5.7739e-10
5.7722e-10
5.77032e-10
5.76827e-10
5.76605e-10
5.76364e-10
5.76105e-10
5.75826e-10
5.75527e-10
5.75208e-10
5.74869e-10
5.7451e-10
5.74131e-10
5.73732e-10
5.73316e-10
5.72887e-10
5.72454e-10
5.72032e-10
5.71631e-10
2.14311e-09
2.14464e-09
2.14626e-09
2.14792e-09
2.14957e-09
2.15117e-09
2.15269e-09
2.15415e-09
2.15553e-09
2.15683e-09
2.15805e-09
2.15919e-09
2.16026e-09
2.16126e-09
2.16218e-09
2.16303e-09
2.16381e-09
2.16453e-09
2.16519e-09
2.16578e-09
2.16631e-09
2.16678e-09
2.1672e-09
2.16756e-09
2.16786e-09
2.16812e-09
2.16832e-09
2.16847e-09
2.16857e-09
2.16862e-09
2.16862e-09
2.16857e-09
2.16847e-09
2.16832e-09
2.16812e-09
2.16786e-09
2.16756e-09
2.1672e-09
2.16678e-09
2.16631e-09
2.16578e-09
2.16519e-09
2.16453e-09
2.16381e-09
2.16303e-09
2.16218e-09
2.16126e-09
2.16026e-09
2.15919e-09
2.15805e-09
2.15683e-09
2.15553e-09
2.15415e-09
2.15269e-09
2.15117e-09
2.14957e-09
2.14792e-09
2.14626e-09
2.14464e-09
2.14311e-09
8.02483e-09
8.03065e-09
8.03681e-09
8.04316e-09
8.04944e-09
8.05553e-09
8.06136e-09
8.0669e-09
8.07215e-09
8.07711e-09
8.08176e-09
8.08612e-09
8.0902e-09
8.09399e-09
8.0975e-09
8.10075e-09
8.10373e-09
8.10647e-09
8.10896e-09
8.11121e-09
8.11323e-09
8.11503e-09
8.11661e-09
8.11798e-09
8.11915e-09
8.12011e-09
8.12088e-09
8.12145e-09
8.12183e-09
8.12202e-09
8.12202e-09
8.12183e-09
8.12145e-09
8.12088e-09
8.12011e-09
8.11915e-09
8.11798e-09
8.11661e-09
8.11503e-09
8.11323e-09
8.11121e-09
8.10896e-09
8.10647e-09
8.10373e-09
8.10075e-09
8.0975e-09
8.09399e-09
8.0902e-09
8.08612e-09
8.08176e-09
8.07711e-09
8.07215e-09
8.0669e-09
8.06136e-09
8.05553e-09
8.04944e-09
8.04316e-09
8.03681e-09
8.03065e-09
8.02483e-09
2.9863e-08
2.98849e-08
2.99082e-08
2.99321e-08
2.99558e-08
2.99788e-08
3.00007e-08
3.00217e-08
3.00414e-08
3.00601e-08
3.00777e-08
3.00941e-08
3.01094e-08
3.01237e-08
3.0137e-08
3.01492e-08
3.01604e-08
3.01707e-08
3.01801e-08
3.01886e-08
3.01962e-08
3.0203e-08
3.02089e-08
3.02141e-08
3.02185e-08
3.02221e-08
3.0225e-08
3.02271e-08
3.02286e-08
3.02293e-08
3.02293e-08
3.02286e-08
3.02271e-08
3.0225e-08
3.02221e-08
3.02185e-08
3.02141e-08
3.02089e-08
3.0203e-08
3.01962e-08
3.01886e-08
3.01801e-08
3.01707e-08
3.01604e-08
3.01492e-08
3.0137e-08
3.01237e-08
3.01094e-08
3.00941e-08
3.00777e-08
3.00601e-08
3.00414e-08
3.00217e-08
3.00007e-08
2.99788e-08
2.99558e-08
2.99321e-08
2.99082e-08
2.98849e-08
2.9863e-08
1.09817e-07
1.09898e-07
1.09985e-07
1.10074e-07
1.10162e-07
1.10247e-07
1.10328e-07
1.10406e-07
1.10479e-07
1.10548e-07
1.10613e-07
1.10674e-07
1.10731e-07
1.10784e-07
1.10833e-07
1.10878e-07
1.1092e-07
1.10958e-07
1.10992e-07
1.11024e-07
1.11052e-07
1.11077e-07
1.11099e-07
1.11118e-07
1.11134e-07
1.11148e-07
1.11158e-07
1.11166e-07
1.11172e-07
1.11174e-07
1.11174e-07
1.11172e-07
1.11166e-07
1.11158e-07
1.11148e-07
1.11134e-07
1.11118e-07
1.11099e-07
1.11077e-07
1.11052e-07
1.11024e-07
1.10992e-07
1.10958e-07
1.1092e-07
1.10878e-07
1.10833e-07
1.10784e-07
1.10731e-07
1.10674e-07
1.10613e-07
1.10548e-07
1.10479e-07
1.10406e-07
1.10328e-07
1.10247e-07
1.10162e-07
1.10074e-07
1.09985e-07
1.09898e-07
1.09817e-07
3.96498e-07
3.96791e-07
3.97104e-07
3.97426e-07
3.97744e-07
3.98052e-07
3.98346e-07
3.98626e-07
3.98891e-07
3.99141e-07
3.99376e-07
3.99596e-07
3.99801e-07
3.99992e-07
4.00169e-07
4.00333e-07
4.00483e-07
4.00621e-07
4.00746e-07
4.0086e-07
4.00961e-07
4.01052e-07
4.01131e-07
4.012e-07
4.01259e-07
4.01307e-07
4.01346e-07
4.01374e-07
4.01393e-07
4.01403e-07
4.01403e-07
4.01393e-07
4.01374e-07
4.01346e-07
4.01307e-07
4.01259e-07
4.012e-07
4.01131e-07
4.01052e-07
4.00961e-07
4.0086e-07
4.00746e-07
4.00621e-07
4.00483e-07
4.00333e-07
4.00169e-07
3.99992e-07
3.99801e-07
3.99596e-07
3.99376e-07
3.99141e-07
3.98891e-07
3.98626e-07
3.98346e-07
3.98052e-07
3.97744e-07
3.97426e-07
3.97104e-07
3.96791e-07
3.96498e-07
1.39527e-06
1.39629e-06
1.39739e-06
1.39852e-06
1.39963e-06
1.40071e-06
1.40174e-06
1.40272e-06
1.40365e-06
1.40452e-06
1.40534e-06
1.40611e-06
1.40683e-06
1.4075e-06
1.40812e-06
1.40869e-06
1.40921e-06
1.40969e-06
1.41013e-06
1.41053e-06
1.41088e-06
1.4112e-06
1.41148e-06
1.41172e-06
1.41192e-06
1.41209e-06
1.41223e-06
1.41233e-06
1.41239e-06
1.41243e-06
1.41243e-06
1.41239e-06
1.41233e-06
1.41223e-06
1.41209e-06
1.41192e-06
1.41172e-06
1.41148e-06
1.4112e-06
1.41088e-06
1.41053e-06
1.41013e-06
1.40969e-06
1.40921e-06
1.40869e-06
1.40812e-06
1.4075e-06
1.40683e-06
1.40611e-06
1.40534e-06
1.40452e-06
1.40365e-06
1.40272e-06
1.40174e-06
1.40071e-06
1.39963e-06
1.39852e-06
1.39739e-06
1.39629e-06
1.39527e-06
4.7459e-06
4.74937e-06
4.75306e-06
4.75685e-06
4.76059e-06
4.7642e-06
4.76765e-06
4.77094e-06
4.77404e-06
4.77697e-06
4.77972e-06
4.7823e-06
4.7847e-06
4.78694e-06
4.78902e-06
4.79093e-06
4.79269e-06
4.7943e-06
4.79577e-06
4.79709e-06
4.79828e-06
4.79934e-06
4.80027e-06
4.80108e-06
4.80176e-06
4.80233e-06
4.80278e-06
4.80312e-06
4.80334e-06
4.80345e-06
4.80345e-06
4.80334e-06
4.80312e-06
4.80278e-06
4.80233e-06
4.80176e-06
4.80108e-06
4.80027e-06
4.79934e-06
4.79828e-06
4.79709e-06
4.79577e-06
4.7943e-06
4.79269e-06
4.79093e-06
4.78902e-06
4.78694e-06
4.7847e-06
4.7823e-06
4.77972e-06
4.77697e-06
4.77404e-06
4.77094e-06
4.76765e-06
4.7642e-06
4.76059e-06
4.75685e-06
4.75306e-06
4.74937e-06
4.7459e-06
1.54584e-05
1.54695e-05
1.54813e-05
1.54934e-05
1.55053e-05
1.55167e-05
1.55277e-05
1.55382e-05
1.5548e-05
1.55573e-05
1.55661e-05
1.55743e-05
1.55819e-05
1.5589e-05
1.55956e-05
1.56017e-05
1.56073e-05
1.56124e-05
1.56171e-05
1.56213e-05
1.5625e-05
1.56284e-05
1.56314e-05
1.56339e-05
1.56361e-05
1.56379e-05
1.56393e-05
1.56404e-05
1.56411e-05
1.56414e-05
1.56414e-05
1.56411e-05
1.56404e-05
1.56393e-05
1.56379e-05
1.56361e-05
1.56339e-05
1.56314e-05
1.56284e-05
1.5625e-05
1.56213e-05
1.56171e-05
1.56124e-05
1.56073e-05
1.56017e-05
1.55956e-05
1.5589e-05
1.55819e-05
1.55743e-05
1.55661e-05
1.55573e-05
1.5548e-05
1.55382e-05
1.55277e-05
1.55167e-05
1.55053e-05
1.54934e-05
1.54813e-05
1.54695e-05
1.54584e-05
4.77127e-05
4.77459e-05
4.77812e-05
4.78172e-05
4.78526e-05
4.78867e-05
4.79194e-05
4.79505e-05
4.79799e-05
4.80076e-05
4.80336e-05
4.80579e-05
4.80807e-05
4.81018e-05
4.81214e-05
4.81395e-05
4.81561e-05
4.81713e-05
4.81851e-05
4.81977e-05
4.82089e-05
4.82189e-05
4.82277e-05
4.82353e-05
4.82417e-05
4.82471e-05
4.82513e-05
4.82545e-05
4.82566e-05
4.82576e-05
4.82576e-05
4.82566e-05
4.82545e-05
4.82513e-05
4.82471e-05
4.82417e-05
4.82353e-05
4.82277e-05
4.82189e-05
4.82089e-05
4.81977e-05
4.81851e-05
4.81713e-05
4.81561e-05
4.81395e-05
4.81214e-05
4.81018e-05
4.80807e-05
4.80579e-05
4.80336e-05
4.80076e-05
4.79799e-05
4.79505e-05
4.79194e-05
4.78867e-05
4.78526e-05
4.78172e-05
4.77812e-05
4.77459e-05
4.77127e-05
0.000137923
0.000138015
0.000138113
0.000138212
0.000138309
0.000138403
0.000138493
0.000138578
0.000138659
0.000138735
0.000138807
0.000138873
0.000138936
0.000138994
0.000139048
0.000139097
0.000139143
0.000139184
0.000139222
0.000139257
0.000139288
0.000139315
0.000139339
0.00013936
0.000139378
0.000139392
0.000139404
0.000139413
0.000139418
0.000139421
0.000139421
0.000139418
0.000139413
0.000139404
0.000139392
0.000139378
0.00013936
0.000139339
0.000139315
0.000139288
0.000139257
0.000139222
0.000139184
0.000139143
0.000139097
0.000139048
0.000138994