/*--------------------------------*- C++ -*----------------------------------*\
| =========                 |                                                 |
| \\      /  F ield         | foam-extend: Open Source CFD                    |
|  \\    /   O peration     | Version:     4.0                                |
|   \\  /    A nd           | Web:         http://www.foam-extend.org         |
|    \\/     M anipulation  |                                                 |
\*---------------------------------------------------------------------------*/
FoamFile
{
    version     2.0;
    format      ascii;
    class       volScalarField;
    location    "1620";
    object      cPlus;
}
// * * * * * * * * * * * * * * * * * * * * * * * * * * * * * * * * * * * * * //

dimensions      [0 0 0 0 0 0 0];

internalField   nonuniform List<scalar> 
6960
(
0.349794
0.349792
0.34979
0.349787
0.349784
0.349781
0.349778
0.349775
0.349773
0.34977
0.349768
0.349766
0.349764
0.349763
0.349761
0.349759
0.349758
0.349757
0.349756
0.349755
0.349754
0.349753
0.349752
0.349752
0.349751
0.349751
0.34975
0.34975
0.34975
0.34975
0.34975
0.34975
0.34975
0.34975
0.349751
0.349751
0.349752
0.349752
0.349753
0.349754
0.349755
0.349756
0.349757
0.349758
0.349759
0.349761
0.349763
0.349764
0.349766
0.349768
0.34977
0.349773
0.349775
0.349778
0.349781
0.349784
0.349787
0.34979
0.349792
0.349794
0.125929
0.125927
0.125925
0.125922
0.12592
0.125918
0.125915
0.125913
0.125911
0.125909
0.125907
0.125906
0.125904
0.125903
0.125901
0.1259
0.125899
0.125898
0.125897
0.125896
0.125895
0.125895
0.125894
0.125893
0.125893
0.125893
0.125892
0.125892
0.125892
0.125892
0.125892
0.125892
0.125892
0.125892
0.125893
0.125893
0.125893
0.125894
0.125895
0.125895
0.125896
0.125897
0.125898
0.125899
0.1259
0.125901
0.125903
0.125904
0.125906
0.125907
0.125909
0.125911
0.125913
0.125915
0.125918
0.12592
0.125922
0.125925
0.125927
0.125929
0.0536429
0.0536418
0.0536403
0.0536386
0.0536369
0.0536353
0.0536337
0.0536323
0.0536309
0.0536296
0.0536283
0.0536272
0.0536261
0.0536251
0.0536242
0.0536234
0.0536226
0.0536219
0.0536213
0.0536207
0.0536202
0.0536197
0.0536193
0.053619
0.0536187
0.0536184
0.0536182
0.0536181
0.053618
0.0536179
0.0536179
0.053618
0.0536181
0.0536182
0.0536184
0.0536187
0.053619
0.0536193
0.0536197
0.0536202
0.0536207
0.0536213
0.0536219
0.0536226
0.0536234
0.0536242
0.0536251
0.0536261
0.0536272
0.0536283
0.0536296
0.0536309
0.0536323
0.0536337
0.0536353
0.0536369
0.0536386
0.0536403
0.0536418
0.0536429
0.0251225
0.0251219
0.025121
0.02512
0.025119
0.025118
0.0251171
0.0251162
0.0251154
0.0251146
0.0251139
0.0251132
0.0251126
0.025112
0.0251114
0.0251109
0.0251105
0.0251101
0.0251097
0.0251093
0.025109
0.0251088
0.0251085
0.0251083
0.0251081
0.025108
0.0251079
0.0251078
0.0251077
0.0251077
0.0251077
0.0251077
0.0251078
0.0251079
0.025108
0.0251081
0.0251083
0.0251085
0.0251088
0.025109
0.0251093
0.0251097
0.0251101
0.0251105
0.0251109
0.0251114
0.025112
0.0251126
0.0251132
0.0251139
0.0251146
0.0251154
0.0251162
0.0251171
0.025118
0.025119
0.02512
0.025121
0.0251219
0.0251225
0.0129948
0.0129946
0.0129941
0.0129936
0.0129931
0.0129926
0.0129922
0.0129917
0.0129913
0.0129909
0.0129905
0.0129902
0.0129899
0.0129896
0.0129893
0.012989
0.0129888
0.0129886
0.0129884
0.0129882
0.0129881
0.0129879
0.0129878
0.0129877
0.0129876
0.0129876
0.0129875
0.0129874
0.0129874
0.0129874
0.0129874
0.0129874
0.0129874
0.0129875
0.0129876
0.0129876
0.0129877
0.0129878
0.0129879
0.0129881
0.0129882
0.0129884
0.0129886
0.0129888
0.012989
0.0129893
0.0129896
0.0129899
0.0129902
0.0129905
0.0129909
0.0129913
0.0129917
0.0129922
0.0129926
0.0129931
0.0129936
0.0129941
0.0129946
0.0129948
0.00772596
0.00772591
0.00772577
0.00772559
0.00772541
0.00772523
0.00772506
0.0077249
0.00772474
0.00772459
0.00772446
0.00772433
0.00772421
0.0077241
0.007724
0.0077239
0.00772382
0.00772374
0.00772367
0.0077236
0.00772355
0.00772349
0.00772345
0.00772341
0.00772338
0.00772335
0.00772333
0.00772331
0.0077233
0.0077233
0.0077233
0.0077233
0.00772331
0.00772333
0.00772335
0.00772338
0.00772341
0.00772345
0.00772349
0.00772355
0.0077236
0.00772367
0.00772374
0.00772382
0.0077239
0.007724
0.0077241
0.00772421
0.00772433
0.00772446
0.00772459
0.00772474
0.0077249
0.00772506
0.00772523
0.00772541
0.00772559
0.00772577
0.00772591
0.00772596
0.00544819
0.00544828
0.00544831
0.00544833
0.00544833
0.00544834
0.00544834
0.00544834
0.00544834
0.00544834
0.00544834
0.00544834
0.00544834
0.00544834
0.00544835
0.00544835
0.00544835
0.00544835
0.00544835
0.00544835
0.00544835
0.00544835
0.00544835
0.00544835
0.00544835
0.00544835
0.00544835
0.00544835
0.00544835
0.00544835
0.00544835
0.00544835
0.00544835
0.00544835
0.00544835
0.00544835
0.00544835
0.00544835
0.00544835
0.00544835
0.00544835
0.00544835
0.00544835
0.00544835
0.00544835
0.00544835
0.00544834
0.00544834
0.00544834
0.00544834
0.00544834
0.00544834
0.00544834
0.00544834
0.00544834
0.00544833
0.00544833
0.00544831
0.00544828
0.00544819
0.00448512
0.00448529
0.00448542
0.00448553
0.00448565
0.00448575
0.00448585
0.00448594
0.00448603
0.00448611
0.00448619
0.00448626
0.00448633
0.00448639
0.00448645
0.0044865
0.00448655
0.0044866
0.00448664
0.00448667
0.00448671
0.00448674
0.00448676
0.00448678
0.0044868
0.00448682
0.00448683
0.00448684
0.00448685
0.00448685
0.00448685
0.00448685
0.00448684
0.00448683
0.00448682
0.0044868
0.00448678
0.00448676
0.00448674
0.00448671
0.00448667
0.00448664
0.0044866
0.00448655
0.0044865
0.00448645
0.00448639
0.00448633
0.00448626
0.00448619
0.00448611
0.00448603
0.00448594
0.00448585
0.00448575
0.00448565
0.00448553
0.00448542
0.00448529
0.00448512
0.00409529
0.0040955
0.00409568
0.00409586
0.00409602
0.00409618
0.00409633
0.00409647
0.00409661
0.00409673
0.00409685
0.00409696
0.00409706
0.00409716
0.00409725
0.00409733
0.0040974
0.00409747
0.00409753
0.00409759
0.00409764
0.00409768
0.00409772
0.00409775
0.00409778
0.00409781
0.00409783
0.00409784
0.00409785
0.00409785
0.00409785
0.00409785
0.00409784
0.00409783
0.00409781
0.00409778
0.00409775
0.00409772
0.00409768
0.00409764
0.00409759
0.00409753
0.00409747
0.0040974
0.00409733
0.00409725
0.00409716
0.00409706
0.00409696
0.00409685
0.00409673
0.00409661
0.00409647
0.00409633
0.00409618
0.00409602
0.00409586
0.00409568
0.0040955
0.00409529
0.00395181
0.00395203
0.00395225
0.00395245
0.00395264
0.00395283
0.003953
0.00395317
0.00395333
0.00395348
0.00395361
0.00395374
0.00395386
0.00395398
0.00395408
0.00395418
0.00395426
0.00395434
0.00395442
0.00395448
0.00395454
0.00395459
0.00395464
0.00395468
0.00395471
0.00395474
0.00395476
0.00395478
0.00395479
0.0039548
0.0039548
0.00395479
0.00395478
0.00395476
0.00395474
0.00395471
0.00395468
0.00395464
0.00395459
0.00395454
0.00395448
0.00395442
0.00395434
0.00395426
0.00395418
0.00395408
0.00395398
0.00395386
0.00395374
0.00395361
0.00395348
0.00395333
0.00395317
0.003953
0.00395283
0.00395264
0.00395245
0.00395225
0.00395203
0.00395181
0.00391262
0.00391286
0.00391308
0.0039133
0.00391351
0.00391371
0.0039139
0.00391408
0.00391425
0.0039144
0.00391455
0.00391469
0.00391482
0.00391494
0.00391506
0.00391516
0.00391525
0.00391534
0.00391542
0.00391549
0.00391555
0.00391561
0.00391566
0.0039157
0.00391574
0.00391577
0.00391579
0.00391581
0.00391582
0.00391583
0.00391583
0.00391582
0.00391581
0.00391579
0.00391577
0.00391574
0.0039157
0.00391566
0.00391561
0.00391555
0.00391549
0.00391542
0.00391534
0.00391525
0.00391516
0.00391506
0.00391494
0.00391482
0.00391469
0.00391455
0.0039144
0.00391425
0.00391408
0.0039139
0.00391371
0.00391351
0.0039133
0.00391308
0.00391286
0.00391262
0.00391726
0.0039175
0.00391774
0.00391796
0.00391818
0.00391839
0.00391858
0.00391877
0.00391895
0.00391911
0.00391927
0.00391941
0.00391955
0.00391967
0.00391979
0.0039199
0.00392
0.00392009
0.00392017
0.00392024
0.00392031
0.00392037
0.00392042
0.00392046
0.0039205
0.00392053
0.00392056
0.00392057
0.00392059
0.00392059
0.00392059
0.00392059
0.00392057
0.00392056
0.00392053
0.0039205
0.00392046
0.00392042
0.00392037
0.00392031
0.00392024
0.00392017
0.00392009
0.00392
0.0039199
0.00391979
0.00391967
0.00391955
0.00391941
0.00391927
0.00391911
0.00391895
0.00391877
0.00391858
0.00391839
0.00391818
0.00391796
0.00391774
0.0039175
0.00391726
0.00394061
0.00394087
0.00394111
0.00394134
0.00394156
0.00394177
0.00394197
0.00394216
0.00394234
0.00394251
0.00394267
0.00394282
0.00394296
0.00394309
0.00394321
0.00394332
0.00394342
0.00394351
0.00394359
0.00394367
0.00394374
0.0039438
0.00394385
0.0039439
0.00394393
0.00394397
0.00394399
0.00394401
0.00394402
0.00394403
0.00394403
0.00394402
0.00394401
0.00394399
0.00394397
0.00394393
0.0039439
0.00394385
0.0039438
0.00394374
0.00394367
0.00394359
0.00394351
0.00394342
0.00394332
0.00394321
0.00394309
0.00394296
0.00394282
0.00394267
0.00394251
0.00394234
0.00394216
0.00394197
0.00394177
0.00394156
0.00394134
0.00394111
0.00394087
0.00394061
0.00397256
0.00397282
0.00397306
0.00397329
0.00397352
0.00397374
0.00397394
0.00397414
0.00397432
0.00397449
0.00397466
0.00397481
0.00397495
0.00397508
0.0039752
0.00397531
0.00397541
0.00397551
0.00397559
0.00397567
0.00397574
0.0039758
0.00397585
0.0039759
0.00397594
0.00397597
0.003976
0.00397602
0.00397603
0.00397604
0.00397604
0.00397603
0.00397602
0.003976
0.00397597
0.00397594
0.0039759
0.00397585
0.0039758
0.00397574
0.00397567
0.00397559
0.00397551
0.00397541
0.00397531
0.0039752
0.00397508
0.00397495
0.00397481
0.00397466
0.00397449
0.00397432
0.00397414
0.00397394
0.00397374
0.00397352
0.00397329
0.00397306
0.00397282
0.00397256
0.00400918
0.00400944
0.00400968
0.00400992
0.00401015
0.00401037
0.00401058
0.00401078
0.00401097
0.00401114
0.00401131
0.00401146
0.0040116
0.00401174
0.00401186
0.00401197
0.00401208
0.00401217
0.00401226
0.00401234
0.00401241
0.00401247
0.00401252
0.00401257
0.00401261
0.00401265
0.00401267
0.00401269
0.0040127
0.00401271
0.00401271
0.0040127
0.00401269
0.00401267
0.00401265
0.00401261
0.00401257
0.00401252
0.00401247
0.00401241
0.00401234
0.00401226
0.00401217
0.00401208
0.00401197
0.00401186
0.00401174
0.0040116
0.00401146
0.00401131
0.00401114
0.00401097
0.00401078
0.00401058
0.00401037
0.00401015
0.00400992
0.00400968
0.00400944
0.00400918
0.00404907
0.00404933
0.00404958
0.00404983
0.00405006
0.00405028
0.0040505
0.0040507
0.00405089
0.00405106
0.00405123
0.00405139
0.00405153
0.00405167
0.00405179
0.00405191
0.00405201
0.00405211
0.0040522
0.00405228
0.00405235
0.00405241
0.00405247
0.00405252
0.00405256
0.00405259
0.00405262
0.00405264
0.00405265
0.00405266
0.00405266
0.00405265
0.00405264
0.00405262
0.00405259
0.00405256
0.00405252
0.00405247
0.00405241
0.00405235
0.00405228
0.0040522
0.00405211
0.00405201
0.00405191
0.00405179
0.00405167
0.00405153
0.00405139
0.00405123
0.00405106
0.00405089
0.0040507
0.0040505
0.00405028
0.00405006
0.00404983
0.00404958
0.00404933
0.00404907
0.00409184
0.00409211
0.00409236
0.00409261
0.00409285
0.00409307
0.00409329
0.00409349
0.00409369
0.00409387
0.00409404
0.0040942
0.00409434
0.00409448
0.00409461
0.00409473
0.00409483
0.00409493
0.00409502
0.0040951
0.00409517
0.00409524
0.00409529
0.00409534
0.00409539
0.00409542
0.00409545
0.00409547
0.00409548
0.00409549
0.00409549
0.00409548
0.00409547
0.00409545
0.00409542
0.00409539
0.00409534
0.00409529
0.00409524
0.00409517
0.0040951
0.00409502
0.00409493
0.00409483
0.00409473
0.00409461
0.00409448
0.00409434
0.0040942
0.00409404
0.00409387
0.00409369
0.00409349
0.00409329
0.00409307
0.00409285
0.00409261
0.00409236
0.00409211
0.00409184
0.0041375
0.00413777
0.00413803
0.00413828
0.00413852
0.00413875
0.00413897
0.00413918
0.00413938
0.00413956
0.00413974
0.0041399
0.00414005
0.00414019
0.00414032
0.00414044
0.00414054
0.00414064
0.00414074
0.00414082
0.00414089
0.00414096
0.00414101
0.00414106
0.00414111
0.00414114
0.00414117
0.00414119
0.0041412
0.00414121
0.00414121
0.0041412
0.00414119
0.00414117
0.00414114
0.00414111
0.00414106
0.00414101
0.00414096
0.00414089
0.00414082
0.00414074
0.00414064
0.00414054
0.00414044
0.00414032
0.00414019
0.00414005
0.0041399
0.00413974
0.00413956
0.00413938
0.00413918
0.00413897
0.00413875
0.00413852
0.00413828
0.00413803
0.00413777
0.0041375
0.00418622
0.0041865
0.00418677
0.00418702
0.00418727
0.00418751
0.00418773
0.00418794
0.00418814
0.00418833
0.0041885
0.00418867
0.00418882
0.00418896
0.0041891
0.00418922
0.00418933
0.00418943
0.00418952
0.00418961
0.00418968
0.00418975
0.00418981
0.00418986
0.0041899
0.00418994
0.00418996
0.00418998
0.00419
0.00419001
0.00419001
0.00419
0.00418998
0.00418996
0.00418994
0.0041899
0.00418986
0.00418981
0.00418975
0.00418968
0.00418961
0.00418952
0.00418943
0.00418933
0.00418922
0.0041891
0.00418896
0.00418882
0.00418867
0.0041885
0.00418833
0.00418814
0.00418794
0.00418773
0.00418751
0.00418727
0.00418702
0.00418677
0.0041865
0.00418622
0.00423828
0.00423857
0.00423884
0.0042391
0.00423935
0.00423959
0.00423982
0.00424003
0.00424024
0.00424043
0.00424061
0.00424078
0.00424093
0.00424108
0.00424121
0.00424133
0.00424145
0.00424155
0.00424165
0.00424173
0.00424181
0.00424188
0.00424194
0.00424199
0.00424203
0.00424207
0.0042421
0.00424212
0.00424213
0.00424214
0.00424214
0.00424213
0.00424212
0.0042421
0.00424207
0.00424203
0.00424199
0.00424194
0.00424188
0.00424181
0.00424173
0.00424165
0.00424155
0.00424145
0.00424133
0.00424121
0.00424108
0.00424093
0.00424078
0.00424061
0.00424043
0.00424024
0.00424003
0.00423982
0.00423959
0.00423935
0.0042391
0.00423884
0.00423857
0.00423828
0.004294
0.00429429
0.00429456
0.00429483
0.00429508
0.00429533
0.00429556
0.00429578
0.00429599
0.00429619
0.00429637
0.00429654
0.0042967
0.00429685
0.00429698
0.00429711
0.00429723
0.00429733
0.00429743
0.00429752
0.00429759
0.00429766
0.00429772
0.00429778
0.00429782
0.00429786
0.00429789
0.00429791
0.00429792
0.00429793
0.00429793
0.00429792
0.00429791
0.00429789
0.00429786
0.00429782
0.00429778
0.00429772
0.00429766
0.00429759
0.00429752
0.00429743
0.00429733
0.00429723
0.00429711
0.00429698
0.00429685
0.0042967
0.00429654
0.00429637
0.00429619
0.00429599
0.00429578
0.00429556
0.00429533
0.00429508
0.00429483
0.00429456
0.00429429
0.004294
0.00435374
0.00435404
0.00435432
0.00435459
0.00435485
0.0043551
0.00435534
0.00435556
0.00435578
0.00435598
0.00435616
0.00435634
0.0043565
0.00435665
0.00435679
0.00435692
0.00435704
0.00435715
0.00435725
0.00435734
0.00435742
0.00435749
0.00435755
0.0043576
0.00435765
0.00435769
0.00435772
0.00435774
0.00435775
0.00435776
0.00435776
0.00435775
0.00435774
0.00435772
0.00435769
0.00435765
0.0043576
0.00435755
0.00435749
0.00435742
0.00435734
0.00435725
0.00435715
0.00435704
0.00435692
0.00435679
0.00435665
0.0043565
0.00435634
0.00435616
0.00435598
0.00435578
0.00435556
0.00435534
0.0043551
0.00435485
0.00435459
0.00435432
0.00435404
0.00435374
0.00441794
0.00441825
0.00441853
0.00441881
0.00441908
0.00441934
0.00441958
0.00441981
0.00442003
0.00442023
0.00442042
0.0044206
0.00442077
0.00442093
0.00442107
0.0044212
0.00442132
0.00442143
0.00442153
0.00442163
0.00442171
0.00442178
0.00442184
0.0044219
0.00442195
0.00442198
0.00442201
0.00442204
0.00442205
0.00442206
0.00442206
0.00442205
0.00442204
0.00442201
0.00442198
0.00442195
0.0044219
0.00442184
0.00442178
0.00442171
0.00442163
0.00442153
0.00442143
0.00442132
0.0044212
0.00442107
0.00442093
0.00442077
0.0044206
0.00442042
0.00442023
0.00442003
0.00441981
0.00441958
0.00441934
0.00441908
0.00441881
0.00441853
0.00441825
0.00441794
0.0044871
0.00448742
0.00448772
0.004488
0.00448828
0.00448854
0.00448879
0.00448902
0.00448925
0.00448946
0.00448965
0.00448984
0.00449001
0.00449017
0.00449031
0.00449045
0.00449057
0.00449069
0.00449079
0.00449088
0.00449097
0.00449104
0.00449111
0.00449116
0.00449121
0.00449125
0.00449128
0.00449131
0.00449132
0.00449133
0.00449133
0.00449132
0.00449131
0.00449128
0.00449125
0.00449121
0.00449116
0.00449111
0.00449104
0.00449097
0.00449088
0.00449079
0.00449069
0.00449057
0.00449045
0.00449031
0.00449017
0.00449001
0.00448984
0.00448965
0.00448946
0.00448925
0.00448902
0.00448879
0.00448854
0.00448828
0.004488
0.00448772
0.00448742
0.0044871
0.00456181
0.00456214
0.00456244
0.00456273
0.00456302
0.00456329
0.00456354
0.00456378
0.00456401
0.00456423
0.00456443
0.00456462
0.0045648
0.00456496
0.00456511
0.00456525
0.00456538
0.00456549
0.0045656
0.0045657
0.00456578
0.00456586
0.00456593
0.00456598
0.00456603
0.00456607
0.00456611
0.00456613
0.00456615
0.00456616
0.00456616
0.00456615
0.00456613
0.00456611
0.00456607
0.00456603
0.00456598
0.00456593
0.00456586
0.00456578
0.0045657
0.0045656
0.00456549
0.00456538
0.00456525
0.00456511
0.00456496
0.0045648
0.00456462
0.00456443
0.00456423
0.00456401
0.00456378
0.00456354
0.00456329
0.00456302
0.00456273
0.00456244
0.00456214
0.00456181
0.00464274
0.00464307
0.00464339
0.00464369
0.00464398
0.00464426
0.00464452
0.00464477
0.00464501
0.00464523
0.00464544
0.00464563
0.00464581
0.00464598
0.00464614
0.00464628
0.00464641
0.00464653
0.00464664
0.00464674
0.00464683
0.00464691
0.00464698
0.00464704
0.00464709
0.00464713
0.00464716
0.00464719
0.00464721
0.00464721
0.00464721
0.00464721
0.00464719
0.00464716
0.00464713
0.00464709
0.00464704
0.00464698
0.00464691
0.00464683
0.00464674
0.00464664
0.00464653
0.00464641
0.00464628
0.00464614
0.00464598
0.00464581
0.00464563
0.00464544
0.00464523
0.00464501
0.00464477
0.00464452
0.00464426
0.00464398
0.00464369
0.00464339
0.00464307
0.00464274
0.00473069
0.00473103
0.00473136
0.00473167
0.00473197
0.00473225
0.00473253
0.00473278
0.00473303
0.00473326
0.00473347
0.00473367
0.00473386
0.00473403
0.00473419
0.00473434
0.00473448
0.0047346
0.00473471
0.00473482
0.00473491
0.00473499
0.00473506
0.00473512
0.00473517
0.00473522
0.00473525
0.00473528
0.0047353
0.0047353
0.0047353
0.0047353
0.00473528
0.00473525
0.00473522
0.00473517
0.00473512
0.00473506
0.00473499
0.00473491
0.00473482
0.00473471
0.0047346
0.00473448
0.00473434
0.00473419
0.00473403
0.00473386
0.00473367
0.00473347
0.00473326
0.00473303
0.00473278
0.00473253
0.00473225
0.00473197
0.00473167
0.00473136
0.00473103
0.00473069
0.00482659
0.00482695
0.00482729
0.00482761
0.00482792
0.00482822
0.0048285
0.00482877
0.00482902
0.00482925
0.00482948
0.00482968
0.00482988
0.00483006
0.00483022
0.00483038
0.00483052
0.00483065
0.00483076
0.00483087
0.00483096
0.00483105
0.00483112
0.00483119
0.00483124
0.00483128
0.00483132
0.00483135
0.00483136
0.00483137
0.00483137
0.00483136
0.00483135
0.00483132
0.00483128
0.00483124
0.00483119
0.00483112
0.00483105
0.00483096
0.00483087
0.00483076
0.00483065
0.00483052
0.00483038
0.00483022
0.00483006
0.00482988
0.00482968
0.00482948
0.00482925
0.00482902
0.00482877
0.0048285
0.00482822
0.00482792
0.00482761
0.00482729
0.00482695
0.00482659
0.00493159
0.00493196
0.00493231
0.00493265
0.00493297
0.00493328
0.00493357
0.00493385
0.00493411
0.00493435
0.00493458
0.0049348
0.004935
0.00493519
0.00493536
0.00493552
0.00493566
0.0049358
0.00493592
0.00493603
0.00493613
0.00493621
0.00493629
0.00493636
0.00493641
0.00493646
0.0049365
0.00493652
0.00493654
0.00493655
0.00493655
0.00493654
0.00493652
0.0049365
0.00493646
0.00493641
0.00493636
0.00493629
0.00493621
0.00493613
0.00493603
0.00493592
0.0049358
0.00493566
0.00493552
0.00493536
0.00493519
0.004935
0.0049348
0.00493458
0.00493435
0.00493411
0.00493385
0.00493357
0.00493328
0.00493297
0.00493265
0.00493231
0.00493196
0.00493159
0.00504704
0.00504742
0.00504779
0.00504813
0.00504847
0.00504879
0.00504909
0.00504938
0.00504965
0.00504991
0.00505015
0.00505037
0.00505058
0.00505078
0.00505096
0.00505112
0.00505127
0.00505141
0.00505154
0.00505165
0.00505176
0.00505185
0.00505193
0.005052
0.00505205
0.0050521
0.00505214
0.00505217
0.00505219
0.0050522
0.0050522
0.00505219
0.00505217
0.00505214
0.0050521
0.00505205
0.005052
0.00505193
0.00505185
0.00505176
0.00505165
0.00505154
0.00505141
0.00505127
0.00505112
0.00505096
0.00505078
0.00505058
0.00505037
0.00505015
0.00504991
0.00504965
0.00504938
0.00504909
0.00504879
0.00504847
0.00504813
0.00504779
0.00504742
0.00504704
0.00517457
0.00517498
0.00517536
0.00517572
0.00517607
0.00517641
0.00517673
0.00517703
0.00517731
0.00517758
0.00517783
0.00517806
0.00517828
0.00517849
0.00517867
0.00517885
0.00517901
0.00517915
0.00517928
0.0051794
0.00517951
0.0051796
0.00517969
0.00517976
0.00517982
0.00517987
0.00517991
0.00517994
0.00517996
0.00517997
0.00517997
0.00517996
0.00517994
0.00517991
0.00517987
0.00517982
0.00517976
0.00517969
0.0051796
0.00517951
0.0051794
0.00517928
0.00517915
0.00517901
0.00517885
0.00517867
0.00517849
0.00517828
0.00517806
0.00517783
0.00517758
0.00517731
0.00517703
0.00517673
0.00517641
0.00517607
0.00517572
0.00517536
0.00517498
0.00517457
0.00531624
0.00531667
0.00531706
0.00531745
0.00531781
0.00531817
0.0053185
0.00531882
0.00531911
0.00531939
0.00531966
0.0053199
0.00532013
0.00532035
0.00532054
0.00532072
0.00532089
0.00532104
0.00532118
0.00532131
0.00532142
0.00532152
0.00532161
0.00532168
0.00532175
0.0053218
0.00532184
0.00532187
0.0053219
0.00532191
0.00532191
0.0053219
0.00532187
0.00532184
0.0053218
0.00532175
0.00532168
0.00532161
0.00532152
0.00532142
0.00532131
0.00532118
0.00532104
0.00532089
0.00532072
0.00532054
0.00532035
0.00532013
0.0053199
0.00531966
0.00531939
0.00531911
0.00531882
0.0053185
0.00531817
0.00531781
0.00531745
0.00531706
0.00531667
0.00531624
0.00547456
0.00547501
0.00547543
0.00547583
0.00547622
0.00547659
0.00547694
0.00547727
0.00547759
0.00547788
0.00547816
0.00547842
0.00547866
0.00547889
0.00547909
0.00547929
0.00547946
0.00547962
0.00547977
0.0054799
0.00548002
0.00548012
0.00548022
0.0054803
0.00548036
0.00548042
0.00548047
0.0054805
0.00548052
0.00548053
0.00548053
0.00548052
0.0054805
0.00548047
0.00548042
0.00548036
0.0054803
0.00548022
0.00548012
0.00548002
0.0054799
0.00547977
0.00547962
0.00547946
0.00547929
0.00547909
0.00547889
0.00547866
0.00547842
0.00547816
0.00547788
0.00547759
0.00547727
0.00547694
0.00547659
0.00547622
0.00547583
0.00547543
0.00547501
0.00547456
0.00565271
0.00565319
0.00565363
0.00565406
0.00565447
0.00565486
0.00565524
0.00565559
0.00565592
0.00565624
0.00565653
0.00565681
0.00565706
0.0056573
0.00565752
0.00565772
0.00565791
0.00565808
0.00565824
0.00565838
0.0056585
0.00565861
0.00565871
0.0056588
0.00565887
0.00565893
0.00565898
0.00565901
0.00565904
0.00565905
0.00565905
0.00565904
0.00565901
0.00565898
0.00565893
0.00565887
0.0056588
0.00565871
0.00565861
0.0056585
0.00565838
0.00565824
0.00565808
0.00565791
0.00565772
0.00565752
0.0056573
0.00565706
0.00565681
0.00565653
0.00565624
0.00565592
0.00565559
0.00565524
0.00565486
0.00565447
0.00565406
0.00565363
0.00565319
0.00565271
0.00585477
0.00585528
0.00585576
0.00585621
0.00585665
0.00585707
0.00585747
0.00585785
0.0058582
0.00585854
0.00585885
0.00585915
0.00585942
0.00585968
0.00585991
0.00586013
0.00586033
0.00586051
0.00586068
0.00586083
0.00586096
0.00586108
0.00586118
0.00586127
0.00586135
0.00586142
0.00586147
0.0058615
0.00586153
0.00586154
0.00586154
0.00586153
0.0058615
0.00586147
0.00586142
0.00586135
0.00586127
0.00586118
0.00586108
0.00586096
0.00586083
0.00586068
0.00586051
0.00586033
0.00586013
0.00585991
0.00585968
0.00585942
0.00585915
0.00585885
0.00585854
0.0058582
0.00585785
0.00585747
0.00585707
0.00585665
0.00585621
0.00585576
0.00585528
0.00585477
0.00608606
0.00608661
0.00608712
0.00608761
0.00608808
0.00608854
0.00608896
0.00608937
0.00608975
0.00609012
0.00609045
0.00609077
0.00609106
0.00609134
0.00609159
0.00609182
0.00609204
0.00609224
0.00609241
0.00609258
0.00609272
0.00609285
0.00609296
0.00609306
0.00609314
0.00609321
0.00609326
0.00609331
0.00609333
0.00609335
0.00609335
0.00609333
0.00609331
0.00609326
0.00609321
0.00609314
0.00609306
0.00609296
0.00609285
0.00609272
0.00609258
0.00609241
0.00609224
0.00609204
0.00609182
0.00609159
0.00609134
0.00609106
0.00609077
0.00609045
0.00609012
0.00608975
0.00608937
0.00608896
0.00608854
0.00608808
0.00608761
0.00608712
0.00608661
0.00608606
0.00635363
0.00635422
0.00635478
0.00635531
0.00635582
0.00635631
0.00635678
0.00635722
0.00635764
0.00635803
0.0063584
0.00635874
0.00635906
0.00635936
0.00635963
0.00635989
0.00636012
0.00636033
0.00636053
0.0063607
0.00636086
0.006361
0.00636112
0.00636123
0.00636132
0.00636139
0.00636145
0.0063615
0.00636153
0.00636154
0.00636154
0.00636153
0.0063615
0.00636145
0.00636139
0.00636132
0.00636123
0.00636112
0.006361
0.00636086
0.0063607
0.00636053
0.00636033
0.00636012
0.00635989
0.00635963
0.00635936
0.00635906
0.00635874
0.0063584
0.00635803
0.00635764
0.00635722
0.00635678
0.00635631
0.00635582
0.00635531
0.00635478
0.00635422
0.00635363
0.00666704
0.00666769
0.0066683
0.00666888
0.00666944
0.00666998
0.0066705
0.00667098
0.00667144
0.00667187
0.00667227
0.00667265
0.006673
0.00667333
0.00667363
0.00667391
0.00667417
0.0066744
0.00667461
0.00667481
0.00667498
0.00667513
0.00667527
0.00667539
0.00667548
0.00667557
0.00667563
0.00667568
0.00667571
0.00667573
0.00667573
0.00667571
0.00667568
0.00667563
0.00667557
0.00667548
0.00667539
0.00667527
0.00667513
0.00667498
0.00667481
0.00667461
0.0066744
0.00667417
0.00667391
0.00667363
0.00667333
0.006673
0.00667265
0.00667227
0.00667187
0.00667144
0.00667098
0.0066705
0.00666998
0.00666944
0.00666888
0.0066683
0.00666769
0.00666704
0.00703956
0.00704028
0.00704096
0.00704161
0.00704224
0.00704284
0.00704341
0.00704395
0.00704446
0.00704494
0.00704539
0.00704581
0.0070462
0.00704657
0.0070469
0.00704722
0.0070475
0.00704776
0.007048
0.00704822
0.00704841
0.00704858
0.00704873
0.00704886
0.00704897
0.00704906
0.00704913
0.00704919
0.00704922
0.00704924
0.00704924
0.00704922
0.00704919
0.00704913
0.00704906
0.00704897
0.00704886
0.00704873
0.00704858
0.00704841
0.00704822
0.007048
0.00704776
0.0070475
0.00704722
0.0070469
0.00704657
0.0070462
0.00704581
0.00704539
0.00704494
0.00704446
0.00704395
0.00704341
0.00704284
0.00704224
0.00704161
0.00704096
0.00704028
0.00703956
0.00749003
0.00749085
0.00749161
0.00749235
0.00749306
0.00749374
0.00749439
0.007495
0.00749558
0.00749612
0.00749663
0.00749711
0.00749755
0.00749797
0.00749835
0.0074987
0.00749902
0.00749932
0.00749959
0.00749983
0.00750005
0.00750025
0.00750042
0.00750056
0.00750069
0.00750079
0.00750088
0.00750094
0.00750098
0.007501
0.007501
0.00750098
0.00750094
0.00750088
0.00750079
0.00750069
0.00750056
0.00750042
0.00750025
0.00750005
0.00749983
0.00749959
0.00749932
0.00749902
0.0074987
0.00749835
0.00749797
0.00749755
0.00749711
0.00749663
0.00749612
0.00749558
0.007495
0.00749439
0.00749374
0.00749306
0.00749235
0.00749161
0.00749085
0.00749003
0.00804564
0.00804658
0.00804746
0.00804831
0.00804913
0.00804992
0.00805067
0.00805138
0.00805205
0.00805268
0.00805327
0.00805382
0.00805433
0.00805481
0.00805525
0.00805566
0.00805604
0.00805638
0.00805669
0.00805697
0.00805723
0.00805745
0.00805765
0.00805782
0.00805796
0.00805808
0.00805818
0.00805825
0.0080583
0.00805832
0.00805832
0.0080583
0.00805825
0.00805818
0.00805808
0.00805796
0.00805782
0.00805765
0.00805745
0.00805723
0.00805697
0.00805669
0.00805638
0.00805604
0.00805566
0.00805525
0.00805481
0.00805433
0.00805382
0.00805327
0.00805268
0.00805205
0.00805138
0.00805067
0.00804992
0.00804913
0.00804831
0.00804746
0.00804658
0.00804564
0.00874592
0.00874702
0.00874806
0.00874907
0.00875004
0.00875097
0.00875185
0.00875269
0.00875349
0.00875423
0.00875493
0.00875558
0.00875619
0.00875676
0.00875728
0.00875777
0.00875821
0.00875862
0.00875899
0.00875932
0.00875962
0.00875988
0.00876012
0.00876032
0.00876049
0.00876063
0.00876075
0.00876083
0.00876089
0.00876092
0.00876092
0.00876089
0.00876083
0.00876075
0.00876063
0.00876049
0.00876032
0.00876012
0.00875988
0.00875962
0.00875932
0.00875899
0.00875862
0.00875821
0.00875777
0.00875728
0.00875676
0.00875619
0.00875558
0.00875493
0.00875423
0.00875349
0.00875269
0.00875185
0.00875097
0.00875004
0.00874907
0.00874806
0.00874702
0.00874592
0.0096475
0.00964882
0.00965008
0.0096513
0.00965248
0.00965361
0.00965468
0.0096557
0.00965666
0.00965757
0.00965842
0.00965921
0.00965995
0.00966063
0.00966127
0.00966186
0.0096624
0.00966289
0.00966334
0.00966374
0.00966411
0.00966443
0.00966471
0.00966496
0.00966517
0.00966534
0.00966548
0.00966558
0.00966565
0.00966568
0.00966568
0.00966565
0.00966558
0.00966548
0.00966534
0.00966517
0.00966496
0.00966471
0.00966443
0.00966411
0.00966374
0.00966334
0.00966289
0.0096624
0.00966186
0.00966127
0.00966063
0.00965995
0.00965921
0.00965842
0.00965757
0.00965666
0.0096557
0.00965468
0.00965361
0.00965248
0.0096513
0.00965008
0.00964882
0.0096475
0.0108281
0.0108297
0.0108313
0.0108328
0.0108342
0.0108356
0.010837
0.0108382
0.0108394
0.0108405
0.0108416
0.0108426
0.0108435
0.0108443
0.0108451
0.0108459
0.0108465
0.0108471
0.0108477
0.0108482
0.0108486
0.010849
0.0108494
0.0108497
0.01085
0.0108502
0.0108503
0.0108505
0.0108506
0.0108506
0.0108506
0.0108506
0.0108505
0.0108503
0.0108502
0.01085
0.0108497
0.0108494
0.010849
0.0108486
0.0108482
0.0108477
0.0108471
0.0108465
0.0108459
0.0108451
0.0108443
0.0108435
0.0108426
0.0108416
0.0108405
0.0108394
0.0108382
0.010837
0.0108356
0.0108342
0.0108328
0.0108313
0.0108297
0.0108281
0.0123854
0.0123875
0.0123894
0.0123913
0.0123931
0.0123949
0.0123966
0.0123982
0.0123997
0.0124011
0.0124024
0.0124036
0.0124048
0.0124059
0.0124068
0.0124078
0.0124086
0.0124094
0.0124101
0.0124107
0.0124113
0.0124118
0.0124122
0.0124126
0.0124129
0.0124132
0.0124134
0.0124136
0.0124137
0.0124137
0.0124137
0.0124137
0.0124136
0.0124134
0.0124132
0.0124129
0.0124126
0.0124122
0.0124118
0.0124113
0.0124107
0.0124101
0.0124094
0.0124086
0.0124078
0.0124068
0.0124059
0.0124048
0.0124036
0.0124024
0.0124011
0.0123997
0.0123982
0.0123966
0.0123949
0.0123931
0.0123913
0.0123894
0.0123875
0.0123854
0.0144263
0.0144289
0.0144313
0.0144337
0.014436
0.0144383
0.0144404
0.0144424
0.0144442
0.014446
0.0144477
0.0144492
0.0144507
0.014452
0.0144533
0.0144544
0.0144555
0.0144565
0.0144574
0.0144581
0.0144589
0.0144595
0.0144601
0.0144605
0.0144609
0.0144613
0.0144616