/*--------------------------------*- C++ -*----------------------------------*\
| =========                 |                                                 |
| \\      /  F ield         | foam-extend: Open Source CFD                    |
|  \\    /   O peration     | Version:     4.0                                |
|   \\  /    A nd           | Web:         http://www.foam-extend.org         |
|    \\/     M anipulation  |                                                 |
\*---------------------------------------------------------------------------*/
FoamFile
{
    version     2.0;
    format      ascii;
    class       volScalarField;
    location    "4";
    object      cMinus;
}
// * * * * * * * * * * * * * * * * * * * * * * * * * * * * * * * * * * * * * //

dimensions      [0 -3 0 0 0 0 0];

internalField   nonuniform List<scalar> 
6960
(
3.55619e-06
2.0094e-06
-8.23662e-07
-4.00878e-06
-5.9601e-06
-5.50842e-06
-2.97463e-06
1.52962e-07
2.47551e-06
3.47525e-06
3.40004e-06
2.76415e-06
1.98861e-06
1.29936e-06
7.70627e-07
3.97419e-07
1.46882e-07
-1.61549e-08
-1.20211e-07
-1.85806e-07
-2.26834e-07
-2.52364e-07
-2.68197e-07
-2.77994e-07
-2.84044e-07
-2.87764e-07
-2.90035e-07
-2.91387e-07
-2.92142e-07
-2.92481e-07
-2.92483e-07
-2.92143e-07
-2.91387e-07
-2.90033e-07
-2.87764e-07
-2.84043e-07
-2.77995e-07
-2.68198e-07
-2.52364e-07
-2.26832e-07
-1.85803e-07
-1.20207e-07
-1.61512e-08
1.46885e-07
3.97418e-07
7.70627e-07
1.29936e-06
1.98861e-06
2.76415e-06
3.40004e-06
3.47525e-06
2.47551e-06
1.52964e-07
-2.97463e-06
-5.50842e-06
-5.9601e-06
-4.00878e-06
-8.23658e-07
2.0094e-06
3.55619e-06
3.64387e-06
2.0585e-06
-8.45147e-07
-4.10952e-06
-6.10932e-06
-5.6463e-06
-3.04932e-06
1.56334e-07
2.53701e-06
3.56195e-06
3.48512e-06
2.83352e-06
2.03871e-06
1.33225e-06
7.90294e-07
4.07721e-07
1.50888e-07
-1.62568e-08
-1.22937e-07
-1.90191e-07
-2.32258e-07
-2.58435e-07
-2.7467e-07
-2.84716e-07
-2.9092e-07
-2.94736e-07
-2.97064e-07
-2.98451e-07
-2.99226e-07
-2.99573e-07
-2.99575e-07
-2.99226e-07
-2.98451e-07
-2.97062e-07
-2.94735e-07
-2.90919e-07
-2.84718e-07
-2.74672e-07
-2.58435e-07
-2.32256e-07
-1.90188e-07
-1.22933e-07
-1.6253e-08
1.50891e-07
4.0772e-07
7.90293e-07
1.33225e-06
2.03871e-06
2.83353e-06
3.48512e-06
3.56195e-06
2.53701e-06
1.56336e-07
-3.04931e-06
-5.6463e-06
-6.10932e-06
-4.10952e-06
-8.45143e-07
2.0585e-06
3.64388e-06
3.72683e-06
2.10362e-06
-8.68652e-07
-4.20939e-06
-6.25556e-06
-5.78148e-06
-3.12351e-06
1.58002e-07
2.59594e-06
3.64655e-06
3.56912e-06
2.90276e-06
2.08925e-06
1.36589e-06
8.10774e-07
4.18826e-07
1.55642e-07
-1.56637e-08
-1.25018e-07
-1.93966e-07
-2.37099e-07
-2.63943e-07
-2.80593e-07
-2.90897e-07
-2.97262e-07
-3.01176e-07
-3.03565e-07
-3.04987e-07
-3.05783e-07
-3.06139e-07
-3.06141e-07
-3.05783e-07
-3.04988e-07
-3.03563e-07
-3.01175e-07
-2.97261e-07
-2.90899e-07
-2.80595e-07
-2.63943e-07
-2.37097e-07
-1.93964e-07
-1.25014e-07
-1.56598e-08
1.55644e-07
4.18825e-07
8.10773e-07
1.36588e-06
2.08925e-06
2.90276e-06
3.56912e-06
3.64655e-06
2.59594e-06
1.58004e-07
-3.12351e-06
-5.78148e-06
-6.25555e-06
-4.20939e-06
-8.68648e-07
2.10363e-06
3.72683e-06
3.80473e-06
2.14452e-06
-8.94294e-07
-4.30833e-06
-6.39862e-06
-5.91378e-06
-3.19715e-06
1.57877e-07
2.65216e-06
3.72891e-06
3.65194e-06
2.9718e-06
2.14025e-06
1.40027e-06
8.32114e-07
4.30775e-07
1.61194e-07
-1.43296e-08
-1.26404e-07
-1.97086e-07
-2.41312e-07
-2.68842e-07
-2.85922e-07
-2.96494e-07
-3.03024e-07
-3.07042e-07
-3.09494e-07
-3.10954e-07
-3.11771e-07
-3.12137e-07
-3.12139e-07
-3.11771e-07
-3.10955e-07
-3.09492e-07
-3.07041e-07
-3.03023e-07
-2.96495e-07
-2.85923e-07
-2.68842e-07
-2.4131e-07
-1.97083e-07
-1.264e-07
-1.43257e-08
1.61197e-07
4.30775e-07
8.32113e-07
1.40027e-06
2.14025e-06
2.9718e-06
3.65194e-06
3.72891e-06
2.65216e-06
1.57879e-07
-3.19715e-06
-5.91378e-06
-6.39862e-06
-4.30832e-06
-8.94289e-07
2.14452e-06
3.80473e-06
3.87726e-06
2.18092e-06
-9.22182e-07
-4.40626e-06
-6.53834e-06
-6.04303e-06
-3.2702e-06
1.55884e-07
2.70551e-06
3.80886e-06
3.73347e-06
3.0406e-06
2.19169e-06
1.43545e-06
8.54347e-07
4.4362e-07
1.67592e-07
-1.22038e-08
-1.2705e-07
-1.99502e-07
-2.44852e-07
-2.73089e-07
-2.90612e-07
-3.01461e-07
-3.08165e-07
-3.1229e-07
-3.14808e-07
-3.16308e-07
-3.17147e-07
-3.17523e-07
-3.17525e-07
-3.17147e-07
-3.16309e-07
-3.14806e-07
-3.12289e-07
-3.08164e-07
-3.01463e-07
-2.90614e-07
-2.73089e-07
-2.4485e-07
-1.995e-07
-1.27046e-07
-1.21999e-08
1.67594e-07
4.4362e-07
8.54346e-07
1.43545e-06
2.1917e-06
3.0406e-06
3.73347e-06
3.80887e-06
2.70551e-06
1.55886e-07
-3.27019e-06
-6.04303e-06
-6.53834e-06
-4.40626e-06
-9.22178e-07
2.18093e-06
3.87727e-06
3.94411e-06
2.21261e-06
-9.52424e-07
-4.50314e-06
-6.67454e-06
-6.16908e-06
-3.34259e-06
1.51945e-07
2.75585e-06
3.88627e-06
3.81361e-06
3.10911e-06
2.24358e-06
1.47143e-06
8.77518e-07
4.57402e-07
1.74884e-07
-9.24101e-09
-1.26907e-07
-2.01172e-07
-2.47673e-07
-2.76639e-07
-2.94621e-07
-3.05758e-07
-3.12641e-07
-3.16878e-07
-3.19465e-07
-3.21007e-07
-3.2187e-07
-3.22256e-07
-3.22258e-07
-3.2187e-07
-3.21008e-07
-3.19463e-07
-3.16877e-07
-3.1264e-07
-3.05759e-07
-2.94622e-07
-2.76639e-07
-2.47671e-07
-2.01169e-07
-1.26903e-07
-9.2371e-09
1.74887e-07
4.57401e-07
8.77517e-07
1.47143e-06
2.24358e-06
3.10911e-06
3.81361e-06
3.88627e-06
2.75586e-06
1.51947e-07
-3.34258e-06
-6.16908e-06
-6.67454e-06
-4.50314e-06
-9.52419e-07
2.21261e-06
3.94411e-06
4.00497e-06
2.23933e-06
-9.8512e-07
-4.59891e-06
-6.80706e-06
-6.29176e-06
-3.41427e-06
1.45995e-07
2.80304e-06
3.96098e-06
3.89225e-06
3.17728e-06
2.29589e-06
1.50824e-06
9.01658e-07
4.72169e-07
1.83116e-07
-5.39132e-09
-1.25931e-07
-2.02047e-07
-2.49732e-07
-2.79448e-07
-2.97905e-07
-3.0934e-07
-3.16411e-07
-3.20764e-07
-3.23424e-07
-3.25009e-07
-3.25897e-07
-3.26294e-07
-3.26296e-07
-3.25897e-07
-3.2501e-07
-3.23422e-07
-3.20764e-07
-3.1641e-07
-3.09341e-07
-2.97906e-07
-2.79448e-07
-2.4973e-07
-2.02044e-07
-1.25926e-07
-5.38742e-09
1.83119e-07
4.72169e-07
9.01657e-07
1.50824e-06
2.29589e-06
3.17728e-06
3.89225e-06
3.96099e-06
2.80304e-06
1.45997e-07
-3.41426e-06
-6.29176e-06
-6.80706e-06
-4.59891e-06
-9.85116e-07
2.23933e-06
4.00497e-06
4.05953e-06
2.26085e-06
-1.02037e-06
-4.6935e-06
-6.93573e-06
-6.41092e-06
-3.48518e-06
1.37966e-07
2.84693e-06
4.03285e-06
3.96929e-06
3.24504e-06
2.34862e-06
1.5459e-06
9.26809e-07
4.87962e-07
1.92338e-07
-6.10699e-10
-1.24073e-07
-2.02084e-07
-2.50984e-07
-2.81475e-07
-3.00421e-07
-3.12167e-07
-3.19432e-07
-3.23908e-07
-3.26643e-07
-3.28274e-07
-3.29187e-07
-3.29596e-07
-3.29598e-07
-3.29187e-07
-3.28275e-07
-3.26641e-07
-3.23907e-07
-3.19431e-07
-3.12168e-07
-3.00423e-07
-2.81475e-07
-2.50982e-07
-2.02082e-07
-1.24068e-07
-6.06831e-10
1.92341e-07
4.87961e-07
9.26809e-07
1.5459e-06
2.34862e-06
3.24504e-06
3.96929e-06
4.03285e-06
2.84693e-06
1.37968e-07
-3.48518e-06
-6.41092e-06
-6.93573e-06
-4.69349e-06
-1.02036e-06
2.26086e-06
4.05953e-06
4.10751e-06
2.27696e-06
-1.05825e-06
-4.78685e-06
-7.06041e-06
-6.52641e-06
-3.55528e-06
1.27805e-07
2.88739e-06
4.10174e-06
4.0446e-06
3.31234e-06
2.40175e-06
1.58442e-06
9.52999e-07
5.04826e-07
2.02591e-07
5.1493e-09
-1.2129e-07
-2.01239e-07
-2.51387e-07
-2.82675e-07
-3.0213e-07
-3.14196e-07
-3.21665e-07
-3.26268e-07
-3.29082e-07
-3.30761e-07
-3.31701e-07
-3.32122e-07
-3.32124e-07
-3.31701e-07
-3.30762e-07
-3.2908e-07
-3.26267e-07
-3.21664e-07
-3.14198e-07
-3.02131e-07
-2.82675e-07
-2.51385e-07
-2.01237e-07
-1.21286e-07
5.15312e-09
2.02593e-07
5.04826e-07
9.52998e-07
1.58442e-06
2.40175e-06
3.31234e-06
4.04461e-06
4.10174e-06
2.88739e-06
1.27807e-07
-3.55527e-06
-6.52641e-06
-7.06041e-06
-4.78685e-06
-1.05825e-06
2.27697e-06
4.10751e-06
4.14861e-06
2.28745e-06
-1.09885e-06
-4.87893e-06
-7.18095e-06
-6.63809e-06
-3.62449e-06
1.15456e-07
2.92431e-06
4.1675e-06
4.1181e-06
3.37912e-06
2.45528e-06
1.62381e-06
9.80267e-07
5.22799e-07
2.13923e-07
1.19308e-08
-1.17537e-07
-1.99469e-07
-2.50899e-07
-2.8301e-07
-3.02989e-07
-3.1539e-07
-3.23069e-07
-3.27805e-07
-3.30702e-07
-3.32431e-07
-3.33399e-07
-3.33833e-07
-3.33835e-07
-3.33399e-07
-3.32432e-07
-3.307e-07
-3.27804e-07
-3.23068e-07
-3.15391e-07
-3.02991e-07
-2.8301e-07
-2.50897e-07
-1.99467e-07
-1.17532e-07
1.19346e-08
2.13925e-07
5.22799e-07
9.80266e-07
1.62381e-06
2.45528e-06
3.37912e-06
4.1181e-06
4.1675e-06
2.92431e-06
1.15458e-07
-3.62449e-06
-6.63809e-06
-7.18095e-06
-4.87892e-06
-1.09885e-06
2.28745e-06
4.14861e-06
4.18257e-06
2.29211e-06
-1.14226e-06
-4.96965e-06
-7.29722e-06
-6.74584e-06
-3.69277e-06
1.00881e-07
2.95755e-06
4.23e-06
4.18965e-06
3.44532e-06
2.50917e-06
1.6641e-06
1.00864e-06
5.41926e-07
2.26373e-07
1.97804e-08
-1.12772e-07
-1.96731e-07
-2.49478e-07
-2.82437e-07
-3.0296e-07
-3.15707e-07
-3.23607e-07
-3.28481e-07
-3.31465e-07
-3.33246e-07
-3.34244e-07
-3.34692e-07
-3.34694e-07
-3.34244e-07
-3.33247e-07
-3.31463e-07
-3.2848e-07
-3.23606e-07
-3.15709e-07
-3.02962e-07
-2.82437e-07
-2.49476e-07
-1.96729e-07
-1.12767e-07
1.97842e-08
2.26376e-07
5.41925e-07
1.00863e-06
1.6641e-06
2.50917e-06
3.44532e-06
4.18966e-06
4.23e-06
2.95756e-06
1.00883e-07
-3.69277e-06
-6.74583e-06
-7.29722e-06
-4.96965e-06
-1.14225e-06
2.29211e-06
4.18257e-06
4.20912e-06
2.29075e-06
-1.18852e-06
-5.05899e-06
-7.4091e-06
-6.84952e-06
-3.76006e-06
8.40366e-08
2.98702e-06
4.2891e-06
4.25917e-06
3.51086e-06
2.5634e-06
1.70528e-06
1.03814e-06
5.62237e-07
2.39988e-07
2.87379e-08
-1.06952e-07
-1.92985e-07
-2.47085e-07
-2.80919e-07
-3.02004e-07
-3.15111e-07
-3.23239e-07
-3.28258e-07
-3.31332e-07
-3.33169e-07
-3.34198e-07
-3.3466e-07
-3.34662e-07
-3.34198e-07
-3.33169e-07
-3.3133e-07
-3.28258e-07
-3.23238e-07
-3.15112e-07
-3.02006e-07
-2.80919e-07
-2.47083e-07
-1.92983e-07
-1.06947e-07
2.87415e-08
2.39991e-07
5.62237e-07
1.03814e-06
1.70528e-06
2.5634e-06
3.51086e-06
4.25917e-06
4.2891e-06
2.98703e-06
8.40388e-08
-3.76006e-06
-6.84952e-06
-7.40909e-06
-5.05898e-06
-1.18852e-06
2.29076e-06
4.20912e-06
4.228e-06
2.2832e-06
-1.23771e-06
-5.14687e-06
-7.51645e-06
-6.94901e-06
-3.8263e-06
6.48982e-08
3.01261e-06
4.34468e-06
4.32652e-06
3.57568e-06
2.61795e-06
1.74737e-06
1.0688e-06
5.83776e-07
2.54803e-07
3.88473e-08
-1.00037e-07
-1.88191e-07
-2.4368e-07
-2.78417e-07
-3.00084e-07
-3.13564e-07
-3.21931e-07
-3.27101e-07
-3.3027e-07
-3.32164e-07
-3.33226e-07
-3.33703e-07
-3.33705e-07
-3.33227e-07
-3.32165e-07
-3.30268e-07
-3.27101e-07
-3.2193e-07
-3.13566e-07
-3.00086e-07
-2.78417e-07
-2.43678e-07
-1.88188e-07
-1.00032e-07
3.88508e-08
2.54806e-07
5.83776e-07
1.0688e-06
1.74737e-06
2.61795e-06
3.57568e-06
4.32652e-06
4.34468e-06
3.01261e-06
6.49004e-08
-3.82629e-06
-6.94901e-06
-7.51645e-06
-5.14687e-06
-1.2377e-06
2.2832e-06
4.228e-06
4.23898e-06
2.26928e-06
-1.28987e-06
-5.23326e-06
-7.61919e-06
-7.04422e-06
-3.89142e-06
4.34383e-08
3.03422e-06
4.3966e-06
4.39161e-06
3.63971e-06
2.67279e-06
1.79036e-06
1.10065e-06
6.06571e-07
2.70862e-07
5.01454e-08
-9.19856e-08
-1.8231e-07
-2.39227e-07
-2.74895e-07
-2.97165e-07
-3.11032e-07
-3.19647e-07
-3.24975e-07
-3.28243e-07
-3.30198e-07
-3.31294e-07
-3.31787e-07
-3.31788e-07
-3.31295e-07
-3.30198e-07
-3.28241e-07
-3.24974e-07
-3.19646e-07
-3.11034e-07
-2.97166e-07
-2.74895e-07
-2.39225e-07
-1.82307e-07
-9.19806e-08
5.01489e-08
2.70865e-07
6.06571e-07
1.10065e-06
1.79036e-06
2.67279e-06
3.63971e-06
4.39161e-06
4.39661e-06
3.03422e-06
4.34406e-08
-3.89142e-06
-7.04422e-06
-7.61919e-06
-5.23325e-06
-1.28987e-06
2.26929e-06
4.23898e-06
4.24183e-06
2.24886e-06
-1.34505e-06
-5.31809e-06
-7.71721e-06
-7.13503e-06
-3.95537e-06
1.96473e-08
3.05177e-06
4.44477e-06
4.45432e-06
3.70287e-06
2.72788e-06
1.83426e-06
1.13369e-06
6.30658e-07
2.88196e-07
6.26735e-08
-8.27628e-08
-1.75305e-07
-2.33689e-07
-2.70317e-07
-2.93211e-07
-3.07481e-07
-3.16354e-07
-3.21847e-07
-3.25218e-07
-3.27237e-07
-3.28369e-07
-3.28878e-07
-3.2888e-07
-3.2837e-07
-3.27237e-07
-3.25216e-07
-3.21846e-07
-3.16354e-07
-3.07482e-07
-2.93212e-07
-2.70317e-07
-2.33687e-07
-1.75302e-07
-8.27578e-08
6.26769e-08
2.88199e-07
6.30658e-07
1.13369e-06
1.83426e-06
2.72788e-06
3.70287e-06
4.45432e-06
4.44477e-06
3.05177e-06
1.96497e-08
-3.95537e-06
-7.13503e-06
-7.71721e-06
-5.31809e-06
-1.34505e-06
2.24886e-06
4.24184e-06
4.23634e-06
2.22178e-06
-1.40329e-06
-5.40134e-06
-7.81042e-06
-7.22137e-06
-4.01809e-06
-6.48682e-09
3.06518e-06
4.48904e-06
4.51454e-06
3.76508e-06
2.78319e-06
1.87906e-06
1.16796e-06
6.56063e-07
3.06846e-07
7.6465e-08
-7.23298e-08
-1.67141e-07
-2.27032e-07
-2.6465e-07
-2.88189e-07
-3.02878e-07
-3.1202e-07
-3.17685e-07
-3.21165e-07
-3.2325e-07
-3.2442e-07
-3.24946e-07
-3.24948e-07
-3.24421e-07
-3.2325e-07
-3.21163e-07
-3.17684e-07
-3.1202e-07
-3.02879e-07
-2.88191e-07
-2.64651e-07
-2.2703e-07
-1.67138e-07
-7.23248e-08
7.64683e-08
3.06849e-07
6.56063e-07
1.16796e-06
1.87906e-06
2.78319e-06
3.76508e-06
4.51454e-06
4.48904e-06
3.06518e-06
-6.48435e-09
-4.01809e-06
-7.22136e-06
-7.81042e-06
-5.40134e-06
-1.40328e-06
2.22178e-06
4.23635e-06
4.22232e-06
2.18792e-06
-1.4646e-06
-5.48294e-06
-7.89875e-06
-7.30313e-06
-4.07953e-06
-3.49575e-08
3.07439e-06
4.52933e-06
4.57216e-06
3.82627e-06
2.83867e-06
1.92475e-06
1.20345e-06
6.82817e-07
3.26838e-07
9.15576e-08
-6.0654e-08
-1.57784e-07
-2.19223e-07
-2.57863e-07
-2.8207e-07
-2.97193e-07
-3.06615e-07
-3.12459e-07
-3.16053e-07
-3.18207e-07
-3.19418e-07
-3.19962e-07
-3.19963e-07
-3.19418e-07
-3.18207e-07
-3.16051e-07
-3.12459e-07
-3.06615e-07
-2.97194e-07
-2.82071e-07
-2.57863e-07
-2.19221e-07
-1.57781e-07
-6.0649e-08
9.15609e-08
3.26841e-07
6.82817e-07
1.20345e-06
1.92475e-06
2.83867e-06
3.82627e-06
4.57216e-06
4.52933e-06
3.07439e-06
-3.4955e-08
-4.07953e-06
-7.30313e-06
-7.89875e-06
-5.48294e-06
-1.46459e-06
2.18792e-06
4.22232e-06
4.19957e-06
2.14717e-06
-1.529e-06
-5.56286e-06
-7.98214e-06
-7.38025e-06
-4.13961e-06
-6.57608e-08
3.07933e-06
4.56551e-06
4.62708e-06
3.88635e-06
2.89429e-06
1.97132e-06
1.2402e-06
7.10938e-07
3.48209e-07
1.07981e-07
-4.77004e-08
-1.47202e-07
-2.10231e-07
-2.49924e-07
-2.74823e-07
-2.90396e-07
-3.00111e-07
-3.06142e-07
-3.09854e-07
-3.12082e-07
-3.13334e-07
-3.13897e-07
-3.13899e-07
-3.13335e-07
-3.12082e-07
-3.09852e-07
-3.06141e-07
-3.0011e-07
-2.90398e-07
-2.74824e-07
-2.49924e-07
-2.10229e-07
-1.47199e-07
-4.76955e-08
1.07984e-07
3.48212e-07
7.10938e-07
1.2402e-06
1.97132e-06
2.89429e-06
3.88635e-06
4.62708e-06
4.56551e-06
3.07933e-06
-6.57581e-08
-4.13961e-06
-7.38025e-06
-7.98214e-06
-5.56286e-06
-1.529e-06
2.14718e-06
4.19958e-06
4.16795e-06
2.09945e-06
-1.59651e-06
-5.64106e-06
-8.06052e-06
-7.45267e-06
-4.19829e-06
-9.88735e-08
3.07996e-06
4.59751e-06
4.67917e-06
3.94524e-06
2.94998e-06
2.01876e-06
1.27819e-06
7.40455e-07
3.70983e-07
1.25769e-07
-3.34402e-08
-1.35364e-07
-2.00026e-07
-2.40806e-07
-2.6642e-07
-2.82462e-07
-2.9248e-07
-2.98706e-07
-3.02543e-07
-3.04847e-07
-3.06144e-07
-3.06727e-07
-3.06728e-07
-3.06144e-07
-3.04847e-07
-3.02541e-07
-2.98706e-07
-2.92479e-07
-2.82463e-07
-2.66421e-07
-2.40805e-07
-2.00024e-07
-1.3536e-07
-3.34353e-08
1.25773e-07
3.70986e-07
7.40456e-07
1.27819e-06
2.01876e-06
2.94998e-06
3.94524e-06
4.67917e-06
4.59751e-06
3.07996e-06
-9.88707e-08
-4.19828e-06
-7.45267e-06
-8.06052e-06
-5.64105e-06
-1.59651e-06
2.09946e-06
4.16795e-06
4.1273e-06
2.04467e-06
-1.66712e-06
-5.71749e-06
-8.13386e-06
-7.52034e-06
-4.2555e-06
-1.34275e-07
3.07624e-06
4.62521e-06
4.72835e-06
4.00284e-06
3.0057e-06
2.06704e-06
1.31745e-06
7.7138e-07
3.95189e-07
1.44948e-07
-1.7842e-08
-1.22242e-07
-1.88581e-07
-2.30481e-07
-2.56836e-07
-2.73364e-07
-2.83698e-07
-2.90129e-07
-2.94095e-07
-2.96479e-07
-2.97822e-07
-2.98426e-07
-2.98427e-07
-2.97823e-07
-2.96479e-07
-2.94093e-07
-2.90129e-07
-2.83698e-07
-2.73365e-07
-2.56837e-07
-2.30481e-07
-1.88579e-07
-1.22239e-07
-1.78371e-08
1.44951e-07
3.95192e-07
7.71381e-07
1.31745e-06
2.06703e-06
3.0057e-06
4.00284e-06
4.72835e-06
4.62522e-06
3.07625e-06
-1.34272e-07
-4.25549e-06
-7.52034e-06
-8.13385e-06
-5.71749e-06
-1.66712e-06
2.04468e-06
4.1273e-06
4.0775e-06
1.98277e-06
-1.74082e-06
-5.79213e-06
-8.20212e-06
-7.5832e-06
-4.31118e-06
-1.71926e-07
3.06815e-06
4.64856e-06
4.7745e-06
4.05907e-06
3.06138e-06
2.11614e-06
1.35795e-06
8.03736e-07
4.20846e-07
1.65547e-07
-8.80967e-10
-1.07809e-07
-1.7587e-07
-2.18925e-07
-2.46047e-07
-2.63079e-07
-2.73742e-07
-2.80386e-07
-2.84488e-07
-2.86956e-07
-2.88348e-07
-2.88974e-07
-2.88975e-07
-2.88348e-07
-2.86956e-07
-2.84487e-07
-2.80386e-07
-2.73742e-07
-2.63079e-07
-2.46048e-07
-2.18924e-07
-1.75868e-07
-1.07806e-07
-8.76064e-10
1.6555e-07
4.20849e-07
8.03736e-07
1.35795e-06
2.11613e-06
3.06138e-06
4.05907e-06
4.7745e-06
4.64856e-06
3.06815e-06
-1.71923e-07
-4.31118e-06
-7.5832e-06
-8.20211e-06
-5.79212e-06
-1.74082e-06
1.98278e-06
4.07751e-06
4.01845e-06
1.91371e-06
-1.81759e-06
-5.86493e-06
-8.26528e-06
-7.64123e-06
-4.36528e-06
-2.1179e-07
3.05567e-06
4.66746e-06
4.81753e-06
4.11383e-06
3.11697e-06
2.16602e-06
1.39972e-06
8.37526e-07
4.4798e-07
1.87586e-07
1.74703e-08
-9.20414e-08
-1.61869e-07
-2.06115e-07
-2.3403e-07
-2.51585e-07
-2.62592e-07
-2.69458e-07
-2.73702e-07
-2.76258e-07
-2.777e-07
-2.78349e-07
-2.7835e-07
-2.77701e-07
-2.76258e-07
-2.737e-07
-2.69458e-07
-2.62591e-07
-2.51586e-07
-2.34031e-07
-2.06114e-07
-1.61867e-07
-9.20379e-08
1.74752e-08
1.87589e-07
4.47983e-07
8.37527e-07
1.39972e-06
2.16602e-06
3.11697e-06
4.11383e-06
4.81753e-06
4.66746e-06
3.05568e-06
-2.11787e-07
-4.36528e-06
-7.64123e-06
-8.26528e-06
-5.86493e-06
-1.81759e-06
1.91372e-06
4.01845e-06
3.95006e-06
1.83746e-06
-1.8974e-06
-5.93588e-06
-8.32334e-06
-7.69441e-06
-4.41775e-06
-2.5381e-07
3.0388e-06
4.68185e-06
4.85731e-06
4.16703e-06
3.1724e-06
2.21667e-06
1.44272e-06
8.72768e-07
4.76604e-07
2.11092e-07
3.72322e-08
-7.49151e-08
-1.46557e-07
-1.9203e-07
-2.20765e-07
-2.38864e-07
-2.50228e-07
-2.57326e-07
-2.61718e-07
-2.64367e-07
-2.65862e-07
-2.66535e-07
-2.66536e-07
-2.65863e-07
-2.64367e-07
-2.61717e-07
-2.57325e-07
-2.50227e-07
-2.38865e-07
-2.20766e-07
-1.92029e-07
-1.46555e-07
-7.49115e-08
3.72371e-08
2.11094e-07
4.76607e-07
8.72768e-07
1.44272e-06
2.21667e-06
3.1724e-06
4.16703e-06
4.85731e-06
4.68185e-06
3.0388e-06
-2.53807e-07
-4.41775e-06
-7.6944e-06
-8.32333e-06
-5.93587e-06
-1.8974e-06
1.83747e-06
3.95006e-06
3.87226e-06
1.75402e-06
-1.98021e-06
-6.00494e-06
-8.37629e-06
-7.74272e-06
-4.46853e-06
-2.97934e-07
3.01754e-06
4.69166e-06
4.89378e-06
4.21858e-06
3.2276e-06
2.26803e-06
1.48696e-06
9.09459e-07
5.06738e-07
2.36079e-07
5.84281e-08
-5.64112e-08
-1.29913e-07
-1.76651e-07
-2.06235e-07
-2.24899e-07
-2.36633e-07
-2.43973e-07
-2.4852e-07
-2.51266e-07
-2.52817e-07
-2.53516e-07
-2.53517e-07
-2.52818e-07
-2.51266e-07
-2.48519e-07
-2.43973e-07
-2.36633e-07
-2.24899e-07
-2.06236e-07
-1.76651e-07
-1.29911e-07
-5.64075e-08
5.8433e-08
2.36082e-07
5.06741e-07
9.0946e-07
1.48696e-06
2.26802e-06
3.2276e-06
4.21858e-06
4.89378e-06
4.69166e-06
3.01754e-06
-2.97931e-07
-4.46853e-06
-7.74271e-06
-8.37629e-06
-6.00493e-06
-1.98021e-06
1.75403e-06
3.87226e-06
3.78501e-06
1.66339e-06
-2.06598e-06
-6.07209e-06
-8.42416e-06
-7.78616e-06
-4.51757e-06
-3.44089e-07
2.99191e-06
4.69686e-06
4.92681e-06
4.26837e-06
3.28249e-06
2.32006e-06
1.53242e-06
9.4761e-07
5.38389e-07
2.6257e-07
8.10738e-08
-3.65095e-08
-1.11921e-07
-1.59962e-07
-1.90424e-07
-2.09672e-07
-2.21793e-07
-2.29385e-07
-2.34095e-07
-2.36941e-07
-2.38551e-07
-2.39277e-07
-2.39278e-07
-2.38552e-07
-2.36942e-07
-2.34094e-07
-2.29385e-07
-2.21793e-07
-2.09673e-07
-1.90425e-07
-1.59961e-07
-1.11919e-07
-3.65058e-08
8.10786e-08
2.62572e-07
5.38392e-07
9.47611e-07
1.53242e-06
2.32006e-06
3.28249e-06
4.26837e-06
4.92682e-06
4.69686e-06
2.99191e-06
-3.44086e-07
-4.51756e-06
-7.78616e-06
-8.42416e-06
-6.07208e-06
-2.06598e-06
1.6634e-06
3.78502e-06
3.68831e-06
1.5656e-06
-2.15465e-06
-6.13731e-06
-8.46698e-06
-7.82475e-06
-4.56481e-06
-3.92209e-07
2.96195e-06
4.69739e-06
4.95634e-06
4.3163e-06
3.337e-06
2.37272e-06
1.57907e-06
9.8721e-07
5.71572e-07
2.90573e-07
1.05188e-07
-1.51956e-08
-9.25638e-08
-1.41947e-07
-1.73316e-07
-1.93172e-07
-2.05695e-07
-2.13551e-07
-2.1843e-07
-2.21382e-07
-2.23054e-07
-2.23808e-07
-2.23808e-07
-2.23054e-07
-2.21383e-07
-2.18429e-07
-2.1355e-07
-2.05695e-07
-1.93173e-07
-1.73317e-07
-1.41946e-07
-9.25612e-08
-1.51917e-08
1.05193e-07
2.90575e-07
5.71575e-07
9.87211e-07
1.57907e-06
2.37272e-06
3.337e-06
4.3163e-06
4.95634e-06
4.69739e-06
2.96195e-06
-3.92206e-07
-4.5648e-06
-7.82474e-06
-8.46697e-06
-6.13731e-06
-2.15465e-06
1.56561e-06
3.68831e-06
3.58214e-06
1.4607e-06
-2.24616e-06
-6.20059e-06
-8.50477e-06
-7.8585e-06
-4.61021e-06
-4.42206e-07
2.92768e-06
4.69322e-06
4.98226e-06
4.36227e-06
3.39103e-06
2.42596e-06
1.62689e-06
1.02826e-06
6.06286e-07
3.20105e-07
1.30782e-07
7.54639e-09
-7.18289e-08
-1.22595e-07
-1.54902e-07
-1.75388e-07
-1.88329e-07
-1.96459e-07
-2.01515e-07
-2.04579e-07
-2.06315e-07
-2.07098e-07
-2.07098e-07
-2.06315e-07
-2.04579e-07
-2.01515e-07
-1.96459e-07
-1.88328e-07
-1.75388e-07
-1.54903e-07
-1.22593e-07
-7.18263e-08
7.55038e-09
1.30787e-07
3.20108e-07
6.06289e-07
1.02826e-06
1.62689e-06
2.42596e-06
3.39103e-06
4.36227e-06
4.98226e-06
4.69322e-06
2.92768e-06
-4.42202e-07
-4.61021e-06
-7.8585e-06
-8.50477e-06
-6.20059e-06
-2.24615e-06
1.46071e-06
3.58214e-06
3.46653e-06
1.34875e-06
-2.34043e-06
-6.26192e-06
-8.5376e-06
-7.88745e-06
-4.65373e-06
-4.93997e-07
2.88917e-06
4.68433e-06
5.00449e-06
4.40618e-06
3.44451e-06
2.4797e-06
1.67586e-06
1.07075e-06
6.42541e-07
3.51171e-07
1.5787e-07
3.17266e-08
-4.9704e-08
-1.01893e-07
-1.35171e-07
-1.56309e-07
-1.69685e-07
-1.78102e-07
-1.83343e-07
-1.86523e-07
-1.88327e-07
-1.89141e-07
-1.89141e-07
-1.88327e-07
-1.86524e-07
-1.83343e-07
-1.78102e-07
-1.69685e-07
-1.56309e-07
-1.35171e-07
-1.01892e-07
-4.97013e-08
3.17307e-08
1.57875e-07
3.51174e-07
6.42544e-07
1.07075e-06
1.67586e-06
2.4797e-06
3.44452e-06
4.40618e-06
5.00449e-06
4.68433e-06
2.88918e-06
-4.93994e-07
-4.65372e-06
-7.88745e-06
-8.5376e-06
-6.26191e-06
-2.34043e-06
1.34876e-06
3.46654e-06
3.34155e-06
1.22984e-06
-2.4374e-06
-6.32129e-06
-8.56553e-06
-7.91164e-06
-4.69532e-06
-5.47484e-07
2.84648e-06
4.67071e-06
5.02296e-06
4.44793e-06
3.49734e-06
2.53391e-06
1.72592e-06
1.11466e-06
6.8033e-07
3.83781e-07
1.86458e-07
5.73566e-08
-2.61809e-08
-7.98346e-08
-1.14114e-07
-1.3593e-07
-1.49758e-07
-1.58474e-07
-1.63909e-07
-1.6721e-07
-1.69084e-07
-1.69931e-07
-1.69931e-07
-1.69085e-07
-1.67211e-07
-1.63909e-07
-1.58473e-07
-1.49758e-07
-1.3593e-07
-1.14115e-07
-7.98332e-08
-2.61782e-08
5.73608e-08
1.86463e-07
3.83784e-07
6.80333e-07
1.11466e-06
1.72592e-06
2.53391e-06
3.49734e-06
4.44793e-06
5.02296e-06
4.67071e-06
2.84648e-06
-5.4748e-07
-4.69532e-06
-7.91164e-06
-8.56553e-06
-6.32128e-06
-2.43739e-06
1.22984e-06
3.34155e-06
3.20725e-06
1.10406e-06
-2.53696e-06
-6.37869e-06
-8.58864e-06
-7.93114e-06
-4.73495e-06
-6.0257e-07
2.79969e-06
4.65235e-06
5.03758e-06
4.48741e-06
3.54944e-06
2.58849e-06
1.77706e-06
1.15998e-06
7.19656e-07
4.17935e-07
2.16556e-07
8.44419e-08
-1.25114e-09
-5.64127e-08
-9.17277e-08
-1.14246e-07
-1.28544e-07
-1.37571e-07
-1.43208e-07
-1.46636e-07
-1.48585e-07
-1.49466e-07
-1.49466e-07
-1.48586e-07
-1.46637e-07
-1.43208e-07
-1.3757e-07
-1.28544e-07
-1.14246e-07
-9.17285e-08
-5.64113e-08
-1.24838e-09
8.44463e-08
2.16561e-07
4.17937e-07
7.19658e-07
1.15998e-06
1.77706e-06
2.58848e-06
3.54944e-06
4.48741e-06
5.03758e-06
4.65235e-06
2.79969e-06
-6.02567e-07
-4.73494e-06
-7.93113e-06
-8.58863e-06
-6.37869e-06
-2.53695e-06
1.10406e-06
3.20726e-06
3.06376e-06
9.71533e-07
-2.63903e-06
-6.43414e-06
-8.60701e-06
-7.94599e-06
-4.77257e-06
-6.59144e-07
2.74887e-06
4.62926e-06
5.04829e-06
4.52452e-06
3.60068e-06
2.64338e-06
1.82921e-06
1.20669e-06
7.60504e-07
4.53637e-07
2.48165e-07
1.1299e-07
2.5089e-08
-3.16224e-08
-6.80073e-08
-9.12528e-08
-1.0604e-07
-1.15391e-07
-1.2124e-07
-1.24801e-07
-1.26828e-07
-1.27745e-07
-1.27745e-07
-1.26829e-07
-1.24802e-07
-1.2124e-07
-1.15391e-07
-1.0604e-07
-9.12526e-08
-6.80081e-08
-3.16209e-08
2.50918e-08
1.12994e-07
2.4817e-07
4.53639e-07
7.60506e-07
1.20669e-06
1.82921e-06
2.64338e-06
3.60068e-06
4.52452e-06
5.04829e-06
4.62926e-06
2.74888e-06
-6.59141e-07
-4.77257e-06
-7.94599e-06
-8.607e-06
-6.43414e-06
-2.63902e-06
9.71539e-07
3.06376e-06
2.91118e-06
8.32401e-07
-2.74351e-06
-6.48765e-06
-8.62074e-06
-7.95629e-06
-4.80816e-06
-7.171e-07
2.69414e-06
4.60145e-06
5.05504e-06
4.55915e-06
3.65098e-06
2.6985e-06
1.88234e-06
1.25475e-06
8.0287e-07
4.90881e-07
2.8129e-07
1.43001e-07
5.28439e-08
-5.46222e-09
-4.29512e-08
-6.69508e-08
-8.22465e-08
-9.19353e-08
-9.80045e-08
-1.01706e-07
-1.03814e-07
-1.04768e-07
-1.04768e-07
-1.03815e-07
-1.01707e-07
-9.80047e-08
-9.19353e-08
-8.22463e-08
-6.69506e-08
-4.29518e-08
-5.46073e-09
5.28467e-08
1.43006e-07
2.81295e-07
4.90883e-07
8.02872e-07
1.25475e-06
1.88234e-06
2.6985e-06
3.65098e-06
4.55915e-06
5.05504e-06
4.60145e-06
2.69414e-06
-7.17097e-07
-4.80816e-06
-7.95629e-06
-8.62073e-06
-6.48764e-06
-2.7435e-06
8.32407e-07
2.91119e-06
2.74968e-06
6.86818e-07
-2.85029e-06
-6.53921e-06
-8.62994e-06
-7.96212e-06
-4.8417e-06
-7.76316e-07
2.63559e-06
4.56895e-06
5.05774e-06
4.59121e-06
3.70023e-06
2.75377e-06
1.93639e-06
1.30414e-06
8.46733e-07
5.29666e-07
3.15928e-07
1.7448e-07
8.2013e-08
2.2069e-08
-1.65603e-08
-4.13408e-08
-5.71649e-08
-6.72057e-08
-7.35055e-08
-7.73526e-08
-7.95463e-08
-8.05397e-08
-8.05401e-08
-7.9547e-08
-7.73539e-08
-7.35058e-08
-6.72059e-08
-5.71646e-08
-4.13405e-08
-1.65609e-08
2.20706e-08
8.20159e-08
1.74484e-07
3.15932e-07
5.29668e-07
8.46735e-07
1.30414e-06
1.93639e-06
2.75377e-06
3.70023e-06
4.59121e-06
5.05775e-06
4.56895e-06
2.63559e-06
-7.76313e-07
-4.84169e-06
-7.96211e-06
-8.62993e-06
-6.53921e-06
-2.85028e-06
6.86824e-07
2.74968e-06
2.57942e-06
5.34955e-07
-2.95926e-06
-6.58886e-06
-8.63473e-06
-7.96357e-06
-4.87315e-06
-8.36678e-07
2.57335e-06
4.5318e-06
5.05638e-06
4.62058e-06
3.74833e-06
2.8091e-06
1.99129e-06
1.35482e-06
8.92081e-07
5.69979e-07
3.52077e-07
2.07421e-07
1.12597e-07
5.09689e-08
1.11635e-08
-1.44262e-08
-3.07989e-08
-4.12069e-08
-4.77473e-08
-5.17471e-08
-5.40304e-08
-5.5065e-08
-5.50655e-08
-5.40311e-08
-5.17485e-08
-4.77477e-08
-4.12071e-08
-3.07986e-08
-1.44259e-08
1.1163e-08
5.09704e-08
1.126e-07
2.07426e-07
3.52081e-07
5.69981e-07
8.92083e-07
1.35482e-06
1.99129e-06
2.8091e-06
3.74833e-06
4.62058e-06
5.05638e-06
4.53181e-06
2.57335e-06
-8.36675e-07
-4.87314e-06
-7.96357e-06
-8.63473e-06
-6.58885e-06
-2.95926e-06
5.34962e-07
2.57943e-06
2.40062e-06
3.77005e-07
-3.07031e-06
-6.63661e-06
-8.63525e-06
-7.96076e-06
-4.9025e-06
-8.98056e-07
2.50753e-06
4.49006e-06
5.05088e-06
4.64718e-06
3.79515e-06
2.8644e-06
2.04698e-06
1.40676e-06
9.38887e-07
6.11814e-07
3.89729e-07
2.41824e-07
1.4459e-07
8.12346e-08
4.02153e-08
1.37882e-08
-3.15479e-09
-1.39449e-08
-2.07367e-08
-2.48963e-08
-2.72733e-08
-2.83513e-08
-2.83518e-08
-2.72741e-08
-2.48977e-08
-2.07372e-08
-1.39451e-08
-3.15432e-09
1.37886e-08
4.02149e-08
8.12362e-08
1.44594e-07
2.41829e-07
3.89733e-07
6.11816e-07
9.38889e-07
1.40676e-06
2.04698e-06
2.8644e-06
3.79515e-06
4.64718e-06
5.05088e-06
4.49006e-06
2.50754e-06
-8.98053e-07
-4.9025e-06
-7.96075e-06
-8.63525e-06
-6.63661e-06
-3.07031e-06
3.77011e-07
2.40062e-06
2.21349e-06
2.13173e-07
-3.18331e-06
-6.68251e-06
-8.63164e-06
-7.9538e-06
-4.92974e-06
-9.60329e-07
2.43829e-06
4.44377e-06
5.04122e-06
4.6709e-06
3.8406e-06
2.91957e-06
2.1034e-06
1.4599e-06
9.87131e-07
6.55152e-07
4.28879e-07
2.77681e-07
1.77991e-07
1.1286e-07
7.05895e-08
4.3295e-08
2.57602e-08
1.45719e-08
7.51775e-09
3.19085e-09
7.1567e-10
-4.07684e-10
-4.08196e-10
7.14879e-10
3.18947e-09
7.51719e-09
1.45716e-08
2.57608e-08
4.32955e-08
7.05893e-08
1.12861e-07
1.77994e-07
2.77686e-07
4.28883e-07
6.55154e-07
9.87133e-07
1.4599e-06
2.1034e-06
2.91957e-06
3.8406e-06
4.6709e-06
5.04123e-06
4.44378e-06
2.4383e-06
-9.60326e-07
-4.92974e-06
-7.9538e-06
-8.63163e-06
-6.6825e-06
-3.18331e-06
2.13179e-07
2.2135e-06
2.01829e-06
4.3684e-08
-3.29814e-06
-6.72657e-06
-8.62405e-06
-7.94283e-06
-4.95487e-06
-1.02336e-06
2.36576e-06
4.39302e-06
5.02738e-06
4.69165e-06
3.88454e-06
2.97451e-06
2.16046e-06
1.51421e-06
1.03678e-06
6.99981e-07
4.69514e-07
3.14986e-07
2.12789e-07
1.45838e-07
1.02278e-07
7.40861e-08
5.59364e-08
4.43336e-08
3.70055e-08
3.25037e-08
2.99256e-08
2.87547e-08
2.87541e-08
2.99248e-08
3.25023e-08
3.70048e-08
4.43333e-08
5.5937e-08
7.40867e-08
1.02278e-07
1.4584e-07
2.12792e-07
3.14991e-07
4.69518e-07
6.99983e-07
1.03678e-06
1.51421e-06
2.16046e-06
2.97451e-06
3.88454e-06
4.69165e-06
5.02738e-06
4.39303e-06
2.36577e-06
-1.02336e-06
-4.95486e-06
-7.94282e-06
-8.62404e-06
-6.72656e-06
-3.29814e-06
4.36904e-08
2.0183e-06
1.8153e-06
-1.31223e-07
-3.41468e-06
-6.76884e-06
-8.61263e-06
-7.92798e-06
-4.97787e-06
-1.08703e-06
2.29011e-06
4.33788e-06
5.00933e-06
4.70934e-06
3.92688e-06
3.0291e-06
2.21809e-06
1.56962e-06
1.0878e-06
7.46274e-07
5.11623e-07
3.53728e-07
2.48977e-07
1.8016e-07
1.3527e-07
1.0615e-07
8.73628e-08
7.53283e-08
6.77143e-08
6.30295e-08
6.03437e-08
5.91228e-08
5.91222e-08
6.03429e-08
6.30282e-08
6.77136e-08
7.5328e-08
8.73635e-08
1.06151e-07
1.35271e-07
1.80162e-07
2.4898e-07
3.53732e-07
5.11626e-07
7.46277e-07
1.0878e-06
1.56962e-06
2.21809e-06
3.0291e-06
3.92688e-06
4.70934e-06
5.00933e-06
4.33788e-06
2.29011e-06
-1.08703e-06
-4.97787e-06
-7.92797e-06
-8.61263e-06
-6.76883e-06
-3.41467e-06
-1.31217e-07
1.81531e-06
1.60482e-06
-3.11292e-07
-3.53277e-06
-6.80937e-06
-8.59758e-06
-7.90939e-06
-4.99876e-06
-1.1512e-06
2.21149e-06
4.27845e-06
4.98705e-06
4.72387e-06
3.96748e-06
3.08326e-06
2.2762e-06
1.62608e-06
1.14015e-06
7.94015e-07
5.55187e-07
3.93895e-07
2.86544e-07
2.15815e-07
1.69556e-07
1.39476e-07
1.20026e-07
1.07543e-07
9.96302e-08
9.47541e-08
9.19554e-08
9.06823e-08
9.06816e-08
9.19546e-08
9.47529e-08
9.96294e-08
1.07542e-07
1.20027e-07
1.39477e-07
1.69556e-07
2.15816e-07
2.86547e-07
3.939e-07
5.5519e-07
7.94017e-07
1.14015e-06
1.62608e-06
2.2762e-06
3.08326e-06
3.96748e-06
4.72387e-06
4.98705e-06
4.27845e-06
2.21149e-06
-1.1512e-06
-4.99875e-06
-7.90939e-06
-8.59757e-06
-6.80936e-06
-3.53277e-06
-3.11286e-07
1.60482e-06
1.38717e-06
-4.96255e-07
-3.6523e-06
-6.8482e-06
-8.57904e-06
-7.88723e-06