/*--------------------------------*- C++ -*----------------------------------*\
| =========                 |                                                 |
| \\      /  F ield         | foam-extend: Open Source CFD                    |
|  \\    /   O peration     | Version:     4.0                                |
|   \\  /    A nd           | Web:         http://www.foam-extend.org         |
|    \\/     M anipulation  |                                                 |
\*---------------------------------------------------------------------------*/
FoamFile
{
    version     2.0;
    format      ascii;
    class       surfaceScalarField;
    location    "9";
    object      phi;
}
// * * * * * * * * * * * * * * * * * * * * * * * * * * * * * * * * * * * * * //

dimensions      [0 3 -1 0 0 0 0];

internalField   nonuniform List<scalar> 
13744
(
-1.59991e-41
-2.89011e-38
4.30512e-44
-2.16503e-41
5.56025e-43
-8.48391e-42
-1.68612e-43
-5.06759e-42
-3.47762e-43
3.92017e-42
8.35805e-44
9.98855e-42
5.35299e-43
4.14675e-42
2.9948e-43
-7.3936e-42
-3.52586e-43
-9.31639e-42
-9.14334e-43
8.53821e-43
-1.05616e-42
1.43993e-41
-6.83958e-43
2.50047e-41
-1.47715e-43
2.85924e-41
2.91553e-43
2.49918e-41
5.257e-43
1.55164e-41
5.0345e-43
2.0448e-42
3.04032e-43
-9.08867e-42
7.99822e-44
-9.86793e-42
-9.76439e-45
1.86944e-42
4.56163e-44
1.79777e-41
1.5993e-43
2.5388e-41
2.45382e-43
1.66409e-41
2.08165e-43
-1.91438e-42
2.81227e-44
-1.56742e-41
-1.88314e-43
-1.61841e-41
-3.1583e-43
-7.23281e-42
-3.24943e-43
1.14403e-42
-2.38277e-43
3.6718e-42
-8.7959e-44
2.50381e-42
-2.17755e-44
8.0981e-43
-9.80563e-44
1.89444e-42
-1.42337e-43
7.42614e-42
-8.78999e-44
1.38455e-41
2.53277e-44
1.48003e-41
1.24188e-43
6.5429e-42
1.42781e-43
-5.22512e-42
8.3749e-44
-1.00738e-41
-3.34271e-44
-4.67229e-42
-9.07087e-44
4.97236e-42
-4.31843e-44
8.29527e-42
-3.07708e-44
2.32887e-42
-7.78662e-44
-3.64538e-42
-5.19703e-44
-1.64793e-42
-9.09294e-45
4.51977e-42
-7.0277e-45
8.23646e-42
7.60122e-45
8.17746e-42
1.17342e-44
6.64424e-42
-1.33585e-44
6.89964e-42
-1.3654e-44
1.02078e-41
4.4649e-44
1.43112e-41
8.77625e-44
1.64086e-41
6.2382e-44
1.52916e-41
6.29663e-44
1.22229e-41
9.48e-44
7.83541e-42
1.03314e-43
3.38463e-42
1.72068e-43
5.41748e-43
1.7161e-43
-1.29643e-42
1.25256e-43
-2.69348e-42
2.06466e-43
-4.38552e-42
-1.10068e-41
-2.77097e-41
-2.88777e-38
-6.39555e-42
-5.29943e-41
1.3506e-42
-3.47306e-41
-8.08765e-43
-2.44304e-41
-6.64549e-43
-4.93029e-42
3.68891e-43
1.69783e-41
1.52259e-42
1.0737e-41
5.95691e-43
-1.50423e-41
-1.23048e-42
-2.19442e-41
-2.64667e-42
1.06163e-42
-2.78707e-42
3.53117e-41
-1.67095e-42
6.65951e-41
-1.67456e-43
7.91269e-41
9.43372e-43
6.80768e-41
1.44595e-42
3.98117e-41
1.29739e-42
5.24324e-42
7.68546e-43
-1.84717e-41
2.73435e-43
-1.7561e-41
1.41808e-43
6.20931e-42
2.78356e-43
3.53078e-41
4.75743e-43
5.00447e-41
5.70553e-43
3.74472e-41
3.95718e-43
1.97109e-42
-5.25014e-44
-3.41683e-41
-5.41549e-43
-4.8937e-41
-8.01264e-43
-3.80983e-41
-8.0294e-43
-1.79584e-41
-6.23621e-43
-5.86676e-42
-2.94386e-43
-5.65185e-42
-1.17012e-43
-1.31612e-41
-2.36212e-43
-1.53019e-41
-3.31698e-43
-3.31414e-42
-2.5065e-43
1.30497e-41
5.54235e-45
1.80606e-41
2.49619e-43
5.0125e-42
3.21257e-43
-1.31446e-41
2.41246e-43
-2.0103e-41
-1.3537e-44
-1.58471e-41
-1.86445e-43
-7.82584e-42
-1.18909e-43
-6.80978e-42
-9.91595e-44
-1.50752e-41
-1.89847e-43
-1.83331e-41
-1.31277e-43
-7.25843e-42
-7.46602e-44
7.08851e-42
-1.35879e-43
1.50855e-41
-1.13696e-43
1.80282e-41
-4.12293e-44
1.69962e-41
-3.4011e-44
1.34877e-41
-1.86353e-44
1.25618e-41
7.18531e-44
1.75185e-41
1.25648e-43
2.72909e-41
6.1329e-44
3.57542e-41
8.88491e-44
3.77151e-41
2.0102e-43
2.67733e-41
2.39872e-43
6.91178e-42
3.31322e-43
-7.15498e-42
2.76033e-43
-8.76826e-42
1.68821e-43
-1.90868e-43
3.16472e-43
8.52547e-42
4.50767e-43
-4.17849e-41
-2.88344e-38
-1.14938e-41
-8.69961e-41
1.83464e-42
-5.58997e-41
-1.59774e-42
-3.20906e-41
-7.70846e-43
-1.04578e-41
7.17036e-43
1.85821e-41
2.37721e-42
8.51433e-42
6.20372e-43
-2.35321e-41
-2.27592e-42
-2.40296e-41
-4.32225e-42
1.52361e-41
-4.24867e-42
6.16079e-41
-2.36712e-42
1.02158e-40
1.68018e-44
1.19597e-40
1.64942e-42
1.05835e-40
2.28951e-42
6.57837e-41
1.97175e-42
1.51408e-41
1.1637e-42
-1.67291e-41
4.98684e-43
-9.42483e-42
3.95489e-43
2.72385e-41
5.87989e-43
6.13546e-41
7.71599e-43
6.82665e-41
7.62958e-43
3.97367e-41
3.9434e-43
-1.11923e-41
-2.7652e-43
-5.56277e-41
-9.34091e-43
-7.06487e-41
-1.23704e-42
-5.53424e-41
-1.20216e-42
-3.12173e-41
-9.62931e-43
-1.71771e-41
-5.07836e-43
-1.54463e-41
-2.18133e-43
-2.4014e-41
-3.20086e-43
-2.86686e-41
-4.5567e-43
-1.70032e-41
-4.0128e-43
1.4596e-42
-4.49551e-44
1.11407e-41
3.26659e-43
3.13522e-42
4.58869e-43
-1.26424e-41
3.89537e-43
-2.40363e-41
2.52251e-44
-3.20458e-41
-2.66858e-43
-3.2789e-41
-1.99404e-43
-2.84676e-41
-1.5928e-43
-2.50567e-41
-2.57025e-43
-1.53886e-41
-1.71086e-43
3.76279e-42
-1.37349e-43
1.82494e-41
-3.03113e-43
2.57412e-41
-3.00285e-43
3.39541e-41
-1.46653e-43
3.68876e-41
-6.72194e-44
2.89039e-41
-1.0089e-44
2.11395e-41
9.22396e-44
2.68222e-41
1.28745e-43
4.55156e-41
2.29862e-44
6.14306e-41
6.36473e-44
6.2777e-41
2.38229e-43
4.20968e-41
3.12824e-43
1.01574e-41
4.12686e-43
-9.35114e-42
3.13609e-43
-9.14218e-42
1.66023e-43
6.60938e-42
3.32118e-43
2.40249e-41
2.03203e-41
-6.13418e-41
-2.87636e-38
-1.71798e-41
-1.2244e-40
2.01741e-42
-6.83541e-41
-2.4543e-42
-2.43089e-41
-8.08965e-43
-6.16218e-42
1.06084e-42
2.18938e-41
3.08125e-42
-2.1019e-43
4.4482e-43
-3.78062e-41
-3.43322e-42
-2.43332e-41
-5.94736e-42
3.80785e-41
-5.5254e-42
9.52174e-41
-2.85436e-42
1.36256e-40
3.41328e-43
1.50302e-40
2.38959e-42
1.33816e-40
3.08593e-42
8.97992e-41
2.58675e-42
3.21655e-41
1.54061e-42
-2.78604e-42
7.51595e-43
1.19396e-41
6.83298e-43
6.04155e-41
8.88515e-43
9.5339e-41
9.99354e-43
8.42974e-41
8.47716e-43
2.72413e-41
2.82626e-43
-4.33714e-41
-5.79411e-43
-8.56004e-41
-1.36381e-42
-8.33118e-41
-1.67787e-42
-5.34679e-41
-1.5864e-42
-2.85802e-41
-1.28057e-42
-2.13045e-41
-7.05431e-43
-2.14696e-41
-3.01458e-43
-2.77982e-41
-3.7233e-43
-3.24546e-41
-5.50494e-43
-2.44208e-41
-5.3806e-43
-9.50837e-42
-8.57193e-44
2.47961e-42
4.09634e-43
5.42315e-43
5.88101e-43
-1.24364e-41
5.17259e-43
-2.9309e-41
4.55083e-44
-4.84392e-41
-3.53063e-43
-5.27842e-41
-2.73566e-43
-3.89484e-41
-2.0129e-43
-2.00875e-41
-3.01321e-43
3.39151e-42
-1.96159e-43
2.95959e-41
-1.90129e-43
4.18038e-41
-4.61737e-43
4.56767e-41
-4.89821e-43
5.70934e-41
-2.67324e-43
6.51734e-41
-1.10256e-43
5.74566e-41
5.45018e-45
4.75685e-41
1.21386e-43
5.32303e-41
1.30318e-43
7.28163e-41
-2.44903e-44
8.54212e-41
1.61044e-44
8.05322e-41
2.41369e-43
5.45584e-41
3.51136e-43
2.14739e-41
4.67265e-43
3.6788e-42
3.39736e-43
2.40209e-42
1.65025e-43
1.49047e-41
3.50459e-43
3.30248e-41
3.46416e-41
-8.09949e-41
-2.86678e-38
-2.36681e-41
-1.55889e-40
1.89026e-42
-7.57814e-41
-3.3896e-42
-8.34496e-42
-8.19064e-43
4.39905e-42
1.36627e-42
3.22821e-41
3.64142e-42
-6.76965e-42
1.17662e-43
-5.80484e-41
-4.64953e-42
-3.58906e-41
-7.5078e-42
5.34025e-41
-6.65078e-42
1.29901e-40
-3.18713e-42
1.75886e-40
7.62594e-43
1.82764e-40
3.14842e-42
1.5758e-40
3.84416e-42
1.09226e-40
3.15974e-42
4.97567e-41
1.91026e-42
1.56333e-41
1.02544e-42
3.67712e-41
9.77739e-43
9.3728e-41
1.14286e-42
1.27439e-40
1.1327e-42
9.78659e-41
8.29476e-43
1.10189e-41
9.98326e-44
-8.17356e-41
-9.09063e-43
-1.22226e-40
-1.79534e-42
-9.77264e-41
-2.11794e-42
-4.48177e-41
-1.96761e-42
-1.27355e-41
-1.58597e-42
-1.14186e-41
-8.88225e-43
-1.6674e-41
-3.70215e-43
-2.38334e-41
-4.05737e-43
-2.87976e-41
-6.29795e-43
-2.25992e-41
-6.65755e-43
-1.09594e-41
-1.16607e-43
-1.46129e-42
4.96809e-43
-5.90145e-42
7.04995e-43
-2.15432e-41
6.23581e-43
-3.95805e-41
5.48282e-44
-5.71119e-41
-4.32553e-43
-5.37837e-41
-3.3156e-43
-2.9197e-41
-2.21773e-43
-2.50285e-42
-3.24967e-43
2.71004e-41
-2.11719e-43
5.92432e-41
-2.37421e-43
7.23611e-41
-6.10122e-43
7.34001e-41
-6.73739e-43
8.57734e-41
-3.92851e-43
1.00087e-40
-1.5724e-43
9.94662e-41
2.60844e-44
9.27363e-41
1.52307e-43
9.36698e-41
1.23369e-43
1.01201e-40
-8.23188e-44
1.00759e-40
-4.36247e-44
9.18309e-41
2.27714e-43
7.14876e-41
3.6869e-43
4.67352e-41
4.9752e-43
3.22864e-41
3.49631e-43
2.3593e-41
1.61028e-43
2.26604e-41
3.71546e-43
3.2352e-41
3.36223e-41
-1.0049e-40
-2.85536e-38
-3.06662e-41
-1.90795e-40
1.44193e-42
-8.48196e-41
-4.41198e-42
6.8758e-42
-8.31464e-43
1.30028e-41
1.60673e-42
4.72029e-41
4.05868e-42
-7.22816e-42
-3.29258e-43
-8.03336e-41
-5.88417e-42
-6.27258e-41
-8.98729e-42
4.86623e-41
-7.64765e-42
1.52836e-40
-3.41242e-42
2.17118e-40
1.23705e-42
2.22723e-40
3.90797e-42
1.83982e-40
4.57206e-42
1.22986e-40
3.70546e-42
5.79472e-41
2.2776e-42
2.52318e-41
1.31072e-42
5.23578e-41
1.26066e-42
1.14488e-40
1.33549e-42
1.45647e-40
1.16662e-42
1.03709e-40
7.17521e-43
-2.01598e-42
-1.303e-43
-1.12011e-40
-1.23381e-42
-1.57414e-40
-2.20047e-42
-1.20513e-40
-2.54266e-42
-4.47814e-41
-2.34633e-42
5.61279e-42
-1.8872e-42
1.26841e-41
-1.06381e-42
4.1441e-42
-4.30472e-43
-1.06857e-41
-4.27611e-43
-2.14914e-41
-7.01252e-43
-1.58784e-41
-7.9262e-43
-4.76271e-42
-1.48901e-43
-1.03099e-42
5.80228e-43
-1.57018e-41
8.1416e-43
-3.7049e-41
7.23931e-43
-4.92172e-41
6.86821e-44
-5.31419e-41
-4.99846e-43
-3.55098e-41
-3.7883e-43
-4.01447e-42
-2.29481e-43
1.98752e-41
-3.32637e-43
4.59942e-41
-2.18791e-43
8.10259e-41
-2.81383e-43
9.79235e-41
-7.49166e-43
1.00099e-40
-8.44874e-43
1.15765e-40
-5.099e-43
1.38124e-40
-2.01096e-43
1.461e-40
4.3498e-44
1.41034e-40
1.68359e-43
1.31513e-40
9.75785e-44
1.21177e-40
-1.46418e-43
1.08279e-40
-9.97104e-44
1.03059e-40
2.13859e-43
9.62199e-41
3.73264e-43
8.14769e-41
5.00707e-43
6.71759e-41
3.32804e-43
4.7314e-41
1.43035e-43
2.8883e-41
3.89777e-43
2.46033e-41
1.73817e-41
-1.20107e-40
-2.84272e-38
-3.80667e-41
-2.3874e-40
6.55439e-43
-1.03472e-40
-5.53073e-42
1.69564e-41
-8.66643e-43
1.4489e-41
1.76914e-42
5.85554e-41
4.33617e-42
-7.92145e-42
-8.79359e-43
-1.03307e-40
-7.11672e-42
-9.83985e-41
-1.03767e-41
2.57954e-41
-8.52841e-42
1.56156e-40
-3.56039e-42
2.4702e-40
1.73038e-42
2.60966e-40
4.64724e-42
2.10286e-40
5.26861e-42
1.29299e-40
4.23183e-42
5.01753e-41
2.64461e-42
1.53071e-41
1.59856e-42
4.79664e-41
1.52141e-42
1.14289e-40
1.46828e-42
1.43905e-40
1.11712e-42
9.76232e-41
5.29621e-43
-1.3644e-41
-3.97886e-43
-1.32247e-40
-1.54773e-42
-1.86793e-40
-2.56722e-42
-1.50081e-40
-2.93383e-42
-5.86148e-41
-2.71005e-42
1.64528e-41
-2.18658e-42
4.24089e-41
-1.2448e-42
3.77136e-41
-4.94249e-43
1.17166e-41
-4.44335e-43
-1.29401e-41
-7.68109e-43
-1.28489e-41
-9.25337e-43
-2.42451e-42
-1.94235e-43
-2.03986e-42
6.5439e-43
-2.31455e-41
9.25234e-43
-4.56663e-41
8.35993e-43
-4.8787e-41
9.86733e-44
-3.94995e-41
-5.56752e-43
-1.16343e-41
-4.27125e-43
2.09747e-41
-2.37299e-43
3.63835e-41
-3.31053e-43
5.39959e-41
-2.17063e-43
8.81686e-41
-3.19525e-43
1.08485e-40
-8.75992e-43
1.15803e-40
-9.9793e-43
1.39214e-40
-6.13151e-43
1.68487e-40
-2.43719e-43
1.77772e-40
4.67339e-44
1.67647e-40
1.59395e-43
1.48658e-40
5.37159e-44
1.29624e-40
-2.05979e-43
1.15058e-40
-1.39695e-43
1.18408e-40
2.06538e-43
1.22521e-40
3.65842e-43
1.12524e-40
4.75842e-43
9.54151e-41
2.84792e-43
6.53839e-41
1.02448e-43
3.24762e-41
3.98812e-43
1.56568e-41
-2.53797e-42
-1.39915e-40
-2.829e-38
-4.58741e-41
-3.13217e-40
-4.85728e-43
-1.39402e-40
-6.75893e-42
2.14653e-41
-9.45132e-43
9.40489e-42
1.84908e-42
6.10975e-41
4.48795e-42
-1.81493e-41
-1.5167e-42
-1.30952e-40
-8.34284e-42
-1.3578e-40
-1.16847e-41
-2.97798e-42
-9.3093e-42
1.44579e-40
-3.64894e-42
2.56171e-40
2.22376e-42
2.79233e-40
5.34986e-42
2.20657e-40
5.92611e-42
1.21117e-40
4.73918e-42
2.52357e-41
3.01167e-42
-1.56819e-41
1.88448e-42
2.0568e-41
1.75765e-42
9.23083e-41
1.55261e-42
1.24484e-40
1.00813e-42
7.94552e-41
2.87042e-43
-3.14914e-41
-6.97463e-43
-1.53608e-40
-1.85748e-42
-2.15138e-40
-2.8974e-42
-1.81366e-40
-3.2792e-42
-7.98397e-41
-3.04261e-42
1.70354e-41
-2.48004e-42
6.54308e-41
-1.44212e-42
7.17128e-41
-5.78027e-43
3.82435e-41
-4.68345e-43
-4.47486e-42
-8.34548e-43
-1.86403e-41
-1.06248e-42
-1.29489e-41
-2.50295e-43
-9.06421e-42
7.23145e-43
-2.27829e-41
1.04438e-42
-3.72238e-41
9.64082e-43
-3.45882e-41
1.43748e-43
-2.47487e-41
-6.08955e-43
1.01763e-42
-4.84121e-43
2.93087e-41
-2.53689e-43
3.68067e-41
-3.27471e-43
4.73271e-41
-2.08525e-43
7.97782e-41
-3.47973e-43
1.02053e-40
-9.85812e-43
1.14434e-40
-1.13376e-42
1.43909e-40
-7.10898e-43
1.72682e-40
-2.95247e-43
1.73435e-40
3.28484e-44
1.56044e-40
1.348e-43
1.38545e-40
6.84775e-45
1.2829e-40
-2.52385e-43
1.23024e-40
-1.64151e-43
1.3301e-40
2.02292e-43
1.39165e-40
3.46289e-43
1.27749e-40
4.27509e-43
1.07721e-40
2.0976e-43
7.18046e-41
3.85637e-44
3.17326e-41
3.96398e-43
1.05467e-41
-1.14217e-41
-1.59863e-40
-2.81396e-38
-5.4096e-41
-4.20529e-40
-1.99133e-42
-1.9725e-40
-8.11078e-42
1.95507e-41
-1.09286e-42
4.33844e-43
1.84104e-42
5.77062e-41
4.53609e-42
-3.86252e-41
-2.21611e-42
-1.66872e-40
-9.56055e-42
-1.74531e-40
-1.29353e-41
-2.87015e-41
-1.0023e-41
1.29957e-40
-3.70041e-42
2.47772e-40
2.70813e-42
2.67044e-40
6.01289e-42
1.98221e-40
6.54271e-42
8.74537e-41
5.22553e-42
-1.70132e-41
3.37733e-42
-6.15599e-41
2.16945e-42
-2.2347e-41
1.97572e-42
5.65922e-41
1.60178e-42
9.46578e-41
8.56533e-43
5.09264e-41
4.81049e-45
-6.28365e-41
-1.02101e-42
-1.88811e-40
-2.16407e-42
-2.51111e-40
-3.19556e-42
-2.12442e-40
-3.57857e-42
-1.00378e-40
-3.33803e-42
1.01395e-41
-2.76266e-42
7.34611e-41
-1.65904e-42
9.24062e-41
-6.95577e-43
5.93954e-41
-5.17445e-43
2.66891e-42
-9.08309e-43
-2.92539e-41
-1.19443e-42
-3.19176e-41
-2.99062e-43
-1.98976e-41
7.98363e-43
-1.54141e-41
1.16961e-42
-1.57518e-41
1.09538e-42
-1.34118e-41
1.90197e-43
-1.72637e-41
-6.63319e-43
-6.19392e-42
-5.49943e-43
1.33981e-41
-2.78482e-43
1.58996e-41
-3.25052e-43
2.43127e-41
-1.96236e-43
5.80999e-41
-3.67752e-43
8.15758e-41
-1.08255e-42
9.29379e-41
-1.26422e-42
1.17847e-40
-8.18371e-43
1.36309e-40
-3.61255e-43
1.26433e-40
1.44771e-44
1.09935e-40
1.19362e-43
1.07547e-40
-2.47013e-44
1.16416e-40
-2.86095e-43
1.22517e-40
-1.84185e-43
1.35196e-40
1.9435e-43
1.38869e-40
3.17112e-43
1.24148e-40
3.64475e-43
1.02394e-40
1.18324e-43
6.49509e-41
-3.84819e-44
2.57791e-41
3.89244e-43
1.06012e-41
-3.90818e-42
-1.79891e-40
-2.79736e-38
-6.27245e-41
-5.55631e-40
-3.86609e-42
-2.75849e-40
-9.59669e-42
8.87481e-42
-1.33438e-42
-1.16111e-41
1.73588e-42
5.60151e-41
4.49815e-42
-5.92361e-41
-2.95043e-42
-2.06499e-40
-1.07617e-41
-2.16889e-40
-1.4153e-41
-5.26505e-41
-1.07149e-41
1.1894e-40
-3.7531e-42
2.33812e-40
3.17015e-42
2.32937e-40
6.64473e-42
1.4303e-40
7.13207e-42
2.35318e-41
5.69721e-42
-7.78754e-41
3.74292e-42
-1.15022e-40
2.45832e-42
-6.70125e-41
2.18503e-42
2.05022e-41
1.6236e-42
6.192e-41
6.65619e-43
1.33723e-41
-3.12717e-43
-1.09391e-40
-1.35802e-42
-2.40343e-40
-2.45638e-42
-2.97532e-40
-3.45987e-42
-2.45493e-40
-3.84042e-42
-1.20145e-40
-3.6055e-42
-2.64563e-42
-3.03577e-42
6.57862e-41
-1.89212e-42
9.43926e-41
-8.49967e-43
6.8759e-41
-6.0378e-43
8.98857e-42
-9.96927e-43
-3.33617e-41
-1.31232e-42
-4.33285e-41
-3.22397e-43
-2.59712e-41
8.9032e-43
-6.75671e-42
1.29394e-42
3.53536e-42
1.21073e-42
1.1619e-42
2.19955e-43
-2.18383e-41
-7.26902e-43
-3.03789e-41
-6.20712e-43
-2.16222e-41
-3.04877e-43
-2.27287e-41
-3.20568e-43
-1.29355e-41
-1.8255e-43
2.48774e-41
-3.89377e-43
4.75297e-41
-1.18487e-42
4.91374e-41
-1.40792e-42
5.90142e-41
-9.42403e-43
6.45134e-41
-4.31669e-43
5.24969e-41
1.27833e-44
4.8668e-41
1.32922e-43
6.57296e-41
-3.32491e-44
8.88726e-41
-3.11826e-43
1.0054e-40
-2.06983e-43
1.16259e-40
1.80743e-43
1.22021e-40
2.82065e-43
1.07219e-40
2.95184e-43
8.50125e-41
2.31776e-44
4.88796e-41
-1.11834e-43
1.6265e-41
3.90277e-43
1.29827e-41
1.10146e-41
-1.99953e-40
-2.77909e-38
-7.17514e-41
-7.06529e-40
-6.11845e-42
-3.67698e-40
-1.12212e-41
-1.01692e-41
-1.68168e-42
-2.75083e-41
1.52796e-42
6.07801e-41
4.37999e-42
-6.8192e-41
-3.70657e-42
-2.3732e-40
-1.19394e-41
-2.58445e-40
-1.53524e-41
-7.91019e-41
-1.14241e-41
1.09096e-40
-3.85155e-42
2.2443e-40
3.58498e-42
1.98772e-40
7.24991e-42
7.70448e-41
7.7162e-42
-5.8705e-41
6.17524e-42
-1.53527e-40
4.12138e-42
-1.70681e-40
2.75882e-42
-1.02681e-40
2.38916e-42
-5.5869e-42
1.61598e-42
3.1223e-41
4.29846e-43
-3.0714e-41
-6.66581e-43
-1.65084e-40
-1.69959e-42
-2.98294e-40
-2.72102e-42
-3.47492e-40
-3.68499e-42
-2.82192e-40
-4.07352e-42
-1.45663e-40
-3.86008e-42
-2.36591e-41
-3.30676e-42
4.72892e-41
-2.13593e-42
8.44404e-41
-1.03158e-42
7.06261e-41
-7.2369e-43
1.95408e-41
-1.10229e-42
-1.98386e-41
-1.41787e-42
-3.20838e-41
-3.20859e-43
-1.7768e-41
9.96824e-43
1.1353e-43
1.41099e-42
8.33253e-42
1.29959e-42
-1.7469e-42
2.22248e-43
-3.93447e-41
-8.05015e-43
-6.18912e-41
-6.93954e-43
-6.16001e-41
-3.26541e-43
-6.7006e-41
-3.10066e-43
-5.79391e-41
-1.71909e-43
-1.96148e-41
-4.29497e-43
-2.83286e-42
-1.31465e-42
-1.47661e-41
-1.57515e-42
-1.78427e-41
-1.07322e-42
-1.61015e-41
-4.8737e-43
-1.95891e-41
3.88747e-44
-7.95179e-42
1.73985e-43
1.97882e-41
-2.37194e-44
4.43617e-41
-3.28578e-43
5.57961e-41
-2.25857e-43
7.84316e-41
1.67297e-43
9.38167e-41
2.4437e-43
8.44668e-41
2.25159e-43
6.4836e-41
-6.5629e-44
3.23361e-41
-1.69388e-43
7.10264e-42
4.07075e-43
1.28796e-41
1.88576e-41
-2.19996e-40
-2.75885e-38
-8.11698e-41
-8.62185e-40
-8.76791e-42
-4.62207e-40
-1.29888e-41
-3.08801e-41
-2.13282e-42
-4.61251e-41
1.22389e-42
7.06931e-41
4.18298e-42
-6.21961e-41
-4.49127e-42
-2.48491e-40
-1.31036e-41
-2.8706e-40
-1.65438e-41
-1.03293e-40
-1.21683e-41
9.89923e-41
-4.02282e-42
2.23815e-40
3.92625e-42
1.8341e-40
7.81763e-42
2.95654e-41
8.30736e-42
-1.31977e-40
6.68738e-42
-2.27011e-40
4.53824e-42
-2.21249e-40
3.08107e-42
-1.27021e-40
2.58347e-42
-2.07527e-41
1.56969e-42
4.63298e-42
1.44416e-43
-7.50225e-41
-1.05513e-42
-2.17654e-40
-2.04173e-42
-3.47278e-40
-2.95637e-42
-3.89167e-40
-3.87269e-42
-3.19317e-40
-4.2823e-42
-1.80064e-40
-4.10787e-42
-5.39138e-41
-3.57929e-42
2.55333e-41
-2.38478e-42
7.69701e-41
-1.22455e-42
7.9232e-41
-8.60926e-43
4.34033e-41
-1.22043e-42
1.58871e-41
-1.52431e-42
5.53253e-42
-3.17539e-43
9.54151e-42
1.09925e-42
9.73114e-42
1.51497e-42
7.7475e-43
1.36546e-42
-2.1387e-41
2.01292e-43
-6.62178e-41
-8.96851e-43
-9.10974e-41
-7.70743e-43
-9.19647e-41
-3.45656e-43
-1.02443e-40
-2.98962e-43
-1.01641e-40
-1.74027e-43
-7.25609e-41
-4.98749e-43
-6.63686e-41
-1.47538e-42
-8.55187e-41
-1.75618e-42
-8.62696e-41
-1.19381e-42
-7.46276e-41
-5.20492e-43
-6.73604e-41
8.23442e-44
-4.96592e-41
2.24713e-43
-2.38585e-41
-3.4619e-45
-5.40894e-42
-3.28351e-43
4.33223e-42
-2.26508e-43
3.45242e-41
1.64713e-43
6.0914e-41
2.09599e-43
6.09973e-41
1.58707e-43
4.98044e-41
-1.45619e-43
2.40807e-41
-2.14298e-43
2.42453e-42
4.3399e-43
8.22906e-42
1.48425e-41
-2.39949e-40
-2.73595e-38
-9.09687e-41
-1.01616e-39
-1.18419e-41
-5.50885e-40
-1.49122e-41
-4.33173e-41
-2.6837e-42
-6.24436e-41
8.41737e-43
8.24933e-41
3.91709e-42
-4.75407e-41
-5.31768e-42
-2.40199e-40
-1.42824e-41
-2.92418e-40
-1.77472e-41
-1.09891e-40
-1.29506e-41
9.94666e-41
-4.26585e-42
2.36345e-40
4.18405e-42
1.92894e-40
8.33057e-42
1.73023e-41
8.90012e-42
-1.69196e-40
7.24942e-42
-2.72008e-40
5.01617e-42
-2.5361e-40
3.43484e-42
-1.4152e-40
2.76275e-42
-3.08611e-41
1.47841e-42
-1.74913e-41
-1.88345e-43
-1.10578e-40
-1.47223e-42
-2.54003e-40
-2.38671e-42
-3.75275e-40
-3.17642e-42
-4.1315e-40
-4.03704e-42
-3.48765e-40
-4.46841e-42
-2.15711e-40
-4.33998e-42
-8.58456e-41
-3.84354e-42
1.01792e-41
-2.62982e-42
8.56096e-41
-1.4166e-42
1.08961e-40
-1.0018e-42
8.83676e-41
-1.34753e-42
7.13153e-41
-1.64726e-42
6.21929e-41
-3.43153e-43
5.40945e-41
1.16927e-42
3.08814e-41
1.59588e-42
-3.73881e-42
1.41778e-42
-4.34509e-41
1.73434e-43
-9.30163e-41
-9.92782e-43
-1.114e-40
-8.53495e-43
-1.05234e-40
-3.75329e-43
-1.1985e-40
-3.04801e-43
-1.34384e-40
-1.99277e-43
-1.22337e-40
-5.90142e-43
-1.2549e-40
-1.64474e-42
-1.39588e-40
-1.92867e-42
-1.23567e-40
-1.29811e-42
-9.69851e-41
-5.44775e-43
-8.61828e-41
1.21509e-43
-7.29662e-41
2.71226e-43
-5.28344e-41
2.58186e-44
-3.80783e-41
-3.06944e-43
-3.01744e-41
-2.02726e-43
1.04787e-42
1.82477e-43
3.15182e-41
1.88992e-43
4.07106e-41
1.01876e-43
4.30927e-41
-2.23277e-43
2.70509e-41
-2.64433e-43
4.91362e-42
4.5665e-43
4.26182e-42
1.02219e-41
-2.59736e-40
-2.70968e-38
-1.01131e-40
-1.16505e-39
-1.53667e-41
-6.30575e-40
-1.70133e-41
-4.17154e-41
-3.34114e-42
-7.02543e-41
3.98275e-43
9.643e-41
3.60298e-42
-3.24091e-41
-6.18558e-42
-2.22828e-40
-1.55013e-41
-2.75601e-40
-1.89911e-41
-8.54191e-41
-1.37797e-41
1.29743e-40
-4.56941e-42
2.72438e-40
4.36948e-42
2.25567e-40
8.78662e-42
3.82872e-41
9.48446e-42
-1.6088e-40
7.85465e-42
-2.70147e-40
5.55479e-42
-2.53264e-40
3.82209e-42
-1.42804e-40
2.92952e-42
-3.83524e-41
1.34816e-42
-3.41092e-41
-5.58725e-43
-1.30748e-40
-1.91226e-42
-2.67062e-40
-2.74228e-42
-3.78443e-40
-3.40136e-42
-4.15654e-40
-4.19648e-42
-3.61045e-40
-4.63327e-42
-2.36976e-40
-4.53998e-42
-1.0358e-40
-4.07864e-42
1.22703e-41
-2.85823e-42
1.17048e-40
-1.60466e-42
1.64209e-40
-1.14761e-42
1.55012e-40
-1.48664e-42
1.40343e-40
-1.79551e-42
1.27346e-40
-4.1643e-43
1.09247e-40
1.18327e-42
6.86458e-41
1.63848e-42
1.1621e-41
1.45882e-42
-4.76017e-41
1.53863e-43
-1.05466e-40
-1.07903e-42
-1.17936e-40
-9.4225e-43
-1.01964e-40
-4.30848e-43
-1.17952e-40
-3.44905e-43
-1.46462e-40
-2.48229e-43
-1.48172e-40
-6.82222e-43
-1.53328e-40
-1.79497e-42
-1.55822e-40
-2.08076e-42
-1.23984e-40
-1.39742e-42
-9.05115e-41
-5.80381e-43
-8.33483e-41
1.46605e-43
-7.36967e-41
3.15954e-43
-5.1681e-41
6.42066e-44
-3.51402e-41
-2.74308e-43
-3.20284e-41
-1.64567e-43
-9.19907e-42
2.22882e-43
1.60333e-41
1.94755e-43
2.91856e-41
6.1408e-44
4.36011e-41
-3.07715e-43
3.7173e-41
-3.36765e-43
1.58776e-41
4.66639e-43
1.22824e-41
2.23592e-41
-2.79281e-40
-2.67998e-38
-1.11637e-40
-1.30762e-39
-1.93641e-41
-7.03077e-40
-1.93162e-41
-2.82969e-41
-4.12336e-42
-6.73949e-41
-1.04063e-43
1.16055e-40
3.25905e-42
-1.918e-41
-7.07638e-42
-2.07041e-40
-1.67595e-41
-2.48457e-40
-2.02945e-41
-3.22942e-41
-1.46784e-41
1.9911e-40
-4.94027e-42
3.42873e-40
4.49709e-42
2.82089e-40
9.20642e-42
8.24053e-41
1.00657e-41
-1.18887e-40
8.48634e-42
-2.26161e-40
6.12975e-42
-2.15879e-40
4.23104e-42
-1.22125e-40
3.09077e-42
-3.57276e-41
1.19525e-42
-4.11931e-41
-9.54482e-43
-1.34984e-40
-2.37431e-42
-2.59548e-40
-3.11773e-42
-3.6071e-40
-3.64419e-42
-3.97186e-40
-4.36049e-42
-3.4937e-40
-4.77702e-42
-2.30439e-40
-4.69645e-42
-9.2863e-41
-4.2674e-42
3.95891e-41
-3.05959e-42
1.69692e-40
-1.79348e-42
2.37562e-40
-1.31306e-42
2.35323e-40
-1.64896e-42
2.15811e-40
-1.97053e-42
1.93104e-40
-5.3619e-43
1.66973e-40
1.13541e-42
1.1981e-40
1.63015e-42
5.30889e-41
1.47859e-42
-2.00972e-41
1.42578e-43
-9.05127e-41
-1.14858e-42
-1.05741e-40
-1.03243e-42
-8.50118e-41
-5.1343e-43
-9.87845e-41
-4.17681e-43
-1.29551e-40
-3.08723e-43
-1.31415e-40
-7.5986e-43
-1.32296e-40
-1.92331e-42
-1.29918e-40
-2.22527e-42
-9.7734e-41
-1.50639e-42
-6.90377e-41
-6.28164e-43
-6.40101e-41
1.70494e-43
-4.69017e-41
3.69218e-43
-1.43666e-41
1.05105e-43
4.17117e-42
-2.50831e-43
-1.84758e-42
-1.31368e-43
8.40157e-42
2.77834e-43
2.37138e-41
2.27971e-43
3.28924e-41
3.92863e-44
4.97715e-41
-3.99076e-43
4.91283e-41
-4.28881e-43
3.58121e-41
4.69636e-43
4.03336e-41
5.77321e-41
-2.9851e-40
-2.64765e-38
-1.22471e-40
-1.44711e-39
-2.38547e-41
-7.73417e-40
-2.18375e-41
-1.0214e-41
-5.04824e-42
-5.80233e-41
-6.77384e-43
1.42935e-40
2.88686e-42
-4.43086e-42
-7.9691e-42
-1.95585e-40
-1.80302e-41
-2.24391e-40
-2.16485e-41
2.99508e-41
-1.56673e-41
2.92944e-40
-5.40717e-42
4.44583e-40
4.56156e-42
3.64542e-40
9.61202e-42
1.43155e-40
1.06661e-41
-6.37036e-41
9.14265e-42
-1.64445e-40
6.71847e-42
-1.54395e-40
4.64212e-42
-7.59495e-41
3.2455e-42
-1.20732e-41
1.03055e-42
-3.31303e-41
-1.36852e-42
-1.27657e-40
-2.86008e-42
-2.41223e-40
-3.51672e-42
-3.30156e-40
-3.90388e-42
-3.60811e-40
-4.52469e-42
-3.13008e-40
-4.89702e-42
-1.94128e-40
-4.80927e-42
-5.25064e-41
-4.40934e-42
8.98832e-41
-3.23456e-42
2.352e-40
-1.99144e-42
3.15745e-40
-1.51499e-42
3.16463e-40
-1.84923e-42
2.89335e-40
-2.1726e-42
2.53884e-40
-6.88438e-43
2.20142e-40
1.03996e-42
1.7484e-40
1.57115e-42
1.12849e-40
1.46258e-42
3.73654e-41
1.22548e-43
-4.4406e-41
-1.20814e-42
-7.08268e-41
-1.11533e-42
-5.34617e-41
-6.01764e-43
-6.22996e-41
-4.98678e-43
-8.19319e-41
-3.68058e-43
-7.19857e-41
-8.33866e-43
-6.98706e-41
-2.05927e-42
-7.64079e-41
-2.38717e-42
-5.77511e-41
-1.62421e-42
-3.65158e-41
-6.65628e-43
-2.61265e-41
2.13268e-43
5.18983e-42
4.32457e-43
4.68101e-41
1.35914e-43
6.21293e-41
-2.51553e-43
4.6482e-41
-1.17569e-43
4.86731e-41
3.3043e-43
5.59507e-41
2.71516e-43
5.46953e-41
2.94035e-44
6.30146e-41
-4.84068e-43
6.30677e-41
-5.18587e-43
6.32605e-41
4.77948e-43
8.29324e-41
1.04666e-40
-3.17345e-40
-2.61371e-38
-1.33617e-40
-1.59235e-39
-2.88631e-41
-8.48783e-40
-2.45882e-41
5.6152e-42
-6.12266e-42
-4.94086e-41
-1.33457e-42
1.7314e-40
2.47051e-42
1.42452e-41
-8.86256e-42
-1.85239e-40
-1.92891e-41
-2.10662e-40
-2.30242e-41
7.75358e-41
-1.67406e-41
3.78982e-40
-5.99244e-42
5.5333e-40
4.53647e-42
4.63842e-40
9.99861e-42
2.16261e-40
1.13045e-41
-9.03264e-42
9.8463e-42
-1.09411e-40
7.32859e-42
-9.22784e-41
5.0462e-42
-1.58809e-41
3.37958e-42
3.19538e-41
8.44058e-43
-9.69326e-42
-1.80543e-42
-1.14598e-40
-3.36881e-42
-2.21696e-40
-3.93201e-42
-2.94884e-40
-4.16871e-42
-3.12484e-40
-4.67897e-42
-2.59417e-40
-4.99128e-42
-1.3974e-40
-4.88687e-42
2.80597e-42
-4.51861e-42
1.48667e-40
-3.39584e-42
3.00356e-40
-2.20858e-42
3.85646e-40
-1.76491e-42
3.85692e-40
-2.0996e-42
3.51068e-40
-2.40454e-42
3.03622e-40
-8.58769e-43
2.6292e-40
9.21317e-43
2.23058e-40
1.47731e-42
1.74809e-40
1.40574e-42
1.08887e-40
7.37513e-44
2.36743e-41
-1.27231e-42
-1.39941e-41
-1.182e-42
-3.82749e-42
-6.65833e-43
-8.47313e-42
-5.61509e-43
-1.48333e-41
-4.28332e-43
5.79367e-42
-9.34807e-43
4.52636e-42
-2.23651e-42
-1.64318e-41
-2.57672e-42
-9.04341e-42
-1.73531e-42
1.23581e-41
-6.74076e-43
3.06089e-41
2.7605e-43
6.81065e-41
4.9351e-43
1.07196e-40
1.49343e-43
1.14709e-40
-2.74019e-43
9.45679e-41
-1.24839e-43
9.75979e-41
3.62852e-43
1.0238e-40
2.99632e-43
9.0426e-41
2.08293e-44
8.67017e-41
-5.4878e-43
8.36653e-41
-5.87991e-43
9.26475e-41
4.94627e-43
1.21707e-40
1.42652e-40
-3.35702e-40
-2.57883e-38
-1.45056e-40
-1.75364e-39
-3.44121e-41
-9.36932e-40
-2.75794e-41
1.46242e-41
-7.34519e-42
-4.693e-41
-2.07758e-42
1.99471e-40
1.98961e-42
3.25295e-41
-9.78226e-42
-1.75608e-40
-2.05444e-41
-2.08699e-40
-2.44015e-41
9.72236e-41
-1.78662e-41
4.28913e-40
-6.68326e-42
6.3417e-40
4.40206e-42
5.52553e-40
1.03366e-41
2.88924e-40
1.19755e-41
4.07262e-41
1.06253e-41
-6.92987e-41
7.99661e-42
-4.74462e-41
5.45755e-42
3.50753e-41
3.47744e-42
7.66622e-41
6.08878e-43
1.6834e-41
-2.28031e-42
-1.02392e-40
-3.89617e-42
-2.05607e-40
-4.34913e-42
-2.60729e-40
-4.42709e-42
-2.61763e-40
-4.82058e-42
-2.03552e-40
-5.06478e-42
-8.73678e-41
-4.93993e-42
5.05366e-41
-4.61027e-42
1.95225e-40
-3.55893e-42
3.493e-40
-2.4563e-42
4.35594e-40
-2.0703e-42
4.32919e-40
-2.40651e-42
3.92034e-40
-2.66929e-42
3.35998e-40
-1.03935e-42
2.90668e-40
7.99874e-43
2.56552e-40
1.37201e-42
2.23736e-40
1.32006e-42
1.74031e-40
-7.92195e-45
9.57537e-41
-1.34977e-42
5.56054e-41
-1.23122e-42
6.08816e-41
-6.96664e-43
5.41813e-41
-6.05719e-43
4.81049e-41
-5.05022e-43
6.69782e-41
-1.0803e-42
6.00085e-41
-2.45615e-42
3.54924e-41
-2.77982e-42
4.76246e-41
-1.83232e-42
7.66278e-41
-6.68332e-43
9.44613e-41
3.32495e-43
1.21265e-40
5.37359e-43
1.46224e-40
1.5125e-43
1.45638e-40
-3.01944e-43
1.27042e-40
-1.4443e-43
1.36984e-40
3.68655e-43
1.45094e-40
2.98623e-43
1.29936e-40
2.82998e-45
1.20388e-40
-6.00785e-43
1.11597e-40
-6.4854e-43
1.14984e-40
5.0891e-43
1.39226e-40
1.58472e-40
-3.53503e-40
-2.54328e-38
-1.56758e-40
-1.93686e-39
-4.05151e-41
-1.04295e-39
-3.08237e-41
1.42718e-41
-8.71744e-42
-5.23145e-41
-2.90261e-42
2.16191e-40
1.42967e-42
4.09654e-41
-1.07657e-41
-1.73824e-40
-2.18371e-41
-2.19084e-40
-2.57926e-41
9.0743e-41
-1.90171e-41
4.3558e-40
-7.4393e-42
6.63308e-40
4.1745e-42
5.97449e-40
1.06104e-41
3.36821e-40
1.26602e-41
8.04563e-41
1.14863e-41
-3.8885e-41
8.75277e-42
-2.21952e-41
5.9017e-42
5.81845e-41
3.5384e-42
9.41529e-41
3.06312e-43
2.4143e-41
-2.80566e-42
-1.00446e-40
-4.43836e-42
-1.94863e-40
-4.75909e-42
-2.32009e-40
-4.67898e-42
-2.20237e-40
-4.9603e-42
-1.62714e-40
-5.13089e-42
-5.61709e-41
-4.9775e-42
7.22012e-41
-4.69042e-42
2.1262e-40
-3.73183e-42
3.67663e-40
-2.74399e-42
4.55136e-40
-2.43691e-42
4.5152e-40
-2.77092e-42
4.07974e-40
-2.96629e-42
3.48061e-40
-1.2283e-42
3.01098e-40
6.84407e-43
2.71751e-40
1.27437e-42
2.51384e-40
1.22924e-42
2.18138e-40
-1.05104e-43
1.53477e-40
-1.43759e-42
1.20249e-40
-1.27781e-42
1.23512e-40
-7.23348e-43
1.0509e-40
-6.60344e-43
8.24248e-41
-6.06593e-43
8.95294e-41
-1.24847e-42
8.34028e-41
-2.68146e-42
7.30679e-41
-2.97778e-42
1.03183e-40
-1.93506e-42
1.38409e-40
-6.92763e-43
1.44412e-40
3.47569e-43
1.50759e-40
5.56623e-43
1.59126e-40
1.53367e-43
1.52093e-40
-3.20151e-43
1.35829e-40
-1.63165e-43
1.52818e-40
3.61288e-43
1.6895e-40
2.77697e-43
1.61294e-40
-3.50253e-44
1.54757e-40
-6.74731e-43
1.37888e-40
-7.37714e-43
1.23213e-40
5.05646e-43
1.33341e-40
1.54388e-40
-3.70677e-40
-2.50709e-38
-1.6869e-40
-2.1412e-39
-4.71747e-41
-1.16671e-39
-3.43322e-41
3.98315e-42
-1.02518e-41
-6.53196e-41
-3.81627e-42
2.2128e-40
7.78518e-43
3.20475e-41
-1.18414e-41
-1.89206e-40
-2.32117e-41
-2.43535e-40
-2.72377e-41
6.81353e-41
-2.02044e-41
4.12548e-40
-8.23345e-42
6.43412e-40
3.90082e-42
5.84188e-40
1.08539e-41
3.38384e-40
1.33615e-41
9.78354e-41
1.24144e-41
-1.5402e-41
9.58749e-42
-9.06556e-42
6.38369e-42
5.13381e-41
3.57558e-42
6.98342e-41
-5.19376e-44
-5.3698e-42
-3.37477e-42
-1.19822e-40
-4.99438e-42
-1.94257e-40
-5.1692e-42
-2.14052e-40
-4.94054e-42
-1.97565e-40
-5.11795e-42
-1.48577e-40
-5.20538e-42
-5.59459e-41
-5.00688e-42
6.07348e-41
-4.7594e-42
1.9439e-40
-3.91334e-42
3.48289e-40
-3.07179e-42
4.38567e-40
-2.86365e-42
4.40235e-40
-3.18884e-42
4.0161e-40
-3.29244e-42
3.43216e-40
-1.42683e-42
2.9637e-40
5.73497e-43
2.69857e-40
1.19186e-42
2.57398e-40
1.15342e-42
2.36417e-40
-1.95106e-43
1.8435e-40
-1.53205e-42
1.58676e-40
-1.35083e-42
1.5773e-40
-7.93469e-43
1.21758e-40
-7.54856e-43
7.83567e-41
-7.18264e-43