/*--------------------------------*- C++ -*----------------------------------*\
| =========                 |                                                 |
| \\      /  F ield         | foam-extend: Open Source CFD                    |
|  \\    /   O peration     | Version:     4.0                                |
|   \\  /    A nd           | Web:         http://www.foam-extend.org         |
|    \\/     M anipulation  |                                                 |
\*---------------------------------------------------------------------------*/
FoamFile
{
    version     2.0;
    format      ascii;
    class       surfaceScalarField;
    location    "21";
    object      phi;
}
// * * * * * * * * * * * * * * * * * * * * * * * * * * * * * * * * * * * * * //

dimensions      [0 3 -1 0 0 0 0];

internalField   nonuniform List<scalar> 
13744
(
-7.343e-09
7.34333e-09
3.46751e-09
-1.08105e-08
8.50421e-11
3.38247e-09
3.03354e-11
5.47047e-11
1.53724e-11
1.49614e-11
8.64691e-12
6.72545e-12
5.46708e-12
3.17874e-12
3.59783e-12
1.87139e-12
2.50043e-12
1.09662e-12
1.79661e-12
7.03271e-13
1.32699e-12
4.66349e-13
1.00467e-12
3.22575e-13
7.72631e-13
2.30094e-13
6.03642e-13
1.68532e-13
4.76324e-13
1.27953e-13
3.80215e-13
9.73666e-14
3.04332e-13
7.66609e-14
2.45811e-13
5.92859e-14
1.98891e-13
4.76841e-14
1.60704e-13
3.83582e-14
1.30195e-13
3.08087e-14
1.05399e-13
2.54796e-14
8.40889e-14
2.15383e-14
6.69983e-14
1.61537e-14
5.2519e-14
1.58762e-14
3.93458e-14
1.21569e-14
2.84362e-14
1.12133e-14
1.86702e-14
8.77076e-15
8.782e-15
9.9365e-15
-9.24397e-16
9.71445e-15
-6.52367e-15
7.77156e-15
-2.06351e-14
1.58207e-14
-2.8313e-14
5.9952e-15
-3.70826e-14
9.49241e-15
-5.46803e-14
1.82077e-14
-6.70724e-14
1.25455e-14
-8.20049e-14
1.55986e-14
-1.07653e-13
2.58682e-14
-1.30279e-13
2.20934e-14
-1.58579e-13
2.90878e-14
-2.01122e-13
4.18554e-14
-2.45837e-13
4.4964e-14
-3.02171e-13
5.63993e-14
-3.82461e-13
8.09908e-14
-4.7639e-13
9.15934e-14
-6.01481e-13
1.26066e-13
-7.74727e-13
1.72917e-13
-1.00449e-12
2.31537e-13
-1.32463e-12
3.193e-13
-1.79869e-12
4.73954e-13
-2.50039e-12
7.03049e-13
-3.5957e-12
1.09579e-12
-5.46938e-12
1.87234e-12
-8.64706e-12
3.17613e-12
-1.53703e-11
6.7229e-12
-3.03375e-11
1.49682e-11
-8.50421e-11
5.47065e-11
-3.46751e-09
3.38247e-09
7.343e-09
-1.08105e-08
7.343e-09
3.34939e-08
-2.61506e-08
4.40513e-09
1.82783e-08
2.57687e-10
7.52992e-09
9.28167e-11
2.19578e-10
4.78173e-11
5.99624e-11
2.67619e-11
2.77801e-11
1.70662e-11
1.28767e-11
1.11621e-11
7.76873e-12
7.81617e-12
4.44272e-12
5.57928e-12
2.94043e-12
4.15033e-12
1.9007e-12
3.12402e-12
1.34981e-12
2.41368e-12
9.43357e-13
1.88003e-12
7.00662e-13
1.48833e-12
5.19085e-13
1.18266e-12
3.99791e-13
9.51964e-13
3.05811e-13
7.65849e-13
2.42528e-13
6.19572e-13
1.93234e-13
5.02279e-13
1.56208e-13
4.06392e-13
1.25622e-13
3.27142e-13
1.00919e-13
2.63833e-13
8.53762e-14
2.08868e-13
7.14984e-14
1.62427e-13
6.04516e-14
1.24085e-13
5.27911e-14
8.87061e-14
4.41314e-14
5.6697e-14
4.29101e-14
2.92957e-14
3.41949e-14
5.32631e-16
3.76366e-14
-3.39773e-14
3.99125e-14
-5.03167e-14
3.01426e-14
-8.8323e-14
4.59632e-14
-1.29735e-13
4.99045e-14
-1.56465e-13
4.65739e-14
-2.09089e-13
6.63913e-14
-2.70012e-13
7.43294e-14
-3.2145e-13
7.64389e-14
-4.0663e-13
1.11022e-13
-5.08359e-13
1.28564e-13
-6.13813e-13
1.48714e-13
-7.65936e-13
2.00506e-13
-9.57924e-13
2.46081e-13
-1.17696e-12
2.97595e-13
-1.48854e-12
4.06841e-13
-1.886e-12
5.22138e-13
-2.4075e-12
6.94611e-13
-3.12347e-12
9.44966e-13
-4.1557e-12
1.35497e-12
-5.57307e-12
1.88993e-12
-7.81607e-12
2.94359e-12
-1.11682e-11
4.44617e-12
-1.70606e-11
7.76657e-12
-2.67623e-11
1.28799e-11
-4.78234e-11
2.77846e-11
-9.28106e-11
5.99502e-11
-2.57687e-10
2.19579e-10
-4.40514e-09
7.52992e-09
-3.34939e-08
1.82783e-08
-2.61509e-08
2.11639e-08
-4.73144e-08
7.5661e-09
3.1876e-08
4.27622e-10
1.46684e-08
1.58299e-10
4.88897e-10
8.28018e-11
1.35461e-10
4.63317e-11
6.42521e-11
2.96595e-11
2.95462e-11
1.93626e-11
1.80726e-11
1.36016e-11
1.02038e-11
9.68896e-12
6.85027e-12
7.2246e-12
4.36409e-12
5.42799e-12
3.13993e-12
4.20313e-12
2.1696e-12
3.26705e-12
1.63963e-12
2.59096e-12
1.19163e-12
2.05706e-12
9.37611e-13
1.65609e-12
7.06879e-13
1.33167e-12
5.68906e-13
1.07897e-12
4.48891e-13
8.72564e-13
3.62793e-13
7.07024e-13
2.93071e-13
5.69647e-13
2.41585e-13
4.58062e-13
1.9354e-13
3.63117e-13
1.6695e-13
2.83267e-13
1.4172e-13
2.14859e-13
1.20737e-13
1.54221e-13
1.13826e-13
9.93597e-14
9.87266e-14
4.9593e-14
9.27314e-14
-5.50167e-16
8.88456e-14
-5.12514e-14
8.59868e-14
-9.58029e-14
7.20812e-14
-1.53575e-13
1.05527e-13
-2.17201e-13
1.12854e-13
-2.80392e-13
1.0647e-13
-3.6348e-13
1.47438e-13
-4.61276e-13
1.74194e-13
-5.67209e-13
1.80883e-13
-7.07417e-13
2.47496e-13
-8.75633e-13
2.99177e-13
-1.07643e-12
3.48999e-13
-1.33182e-12
4.50584e-13
-1.65896e-12
5.77982e-13
-2.05462e-12
6.94805e-13
-2.59132e-12
9.42718e-13
-3.26993e-12
1.20118e-12
-4.1999e-12
1.62376e-12
-5.42708e-12
2.17104e-12
-7.22651e-12
3.15065e-12
-9.68567e-12
4.3538e-12
-1.36014e-11
6.8596e-12
-1.93656e-11
1.02123e-11
-2.96574e-11
1.80594e-11
-4.63324e-11
2.95542e-11
-8.2805e-11
6.42593e-11
-1.58297e-10
1.35447e-10
-4.27622e-10
4.88905e-10
-7.56611e-09
1.46684e-08
-2.11639e-08
3.1876e-08
-4.73148e-08
3.13039e-09
-5.04448e-08
5.98792e-09
2.90185e-08
5.90175e-10
2.00661e-08
2.26583e-10
8.52493e-10
1.20325e-10
2.41719e-10
6.74659e-11
1.17108e-10
4.32751e-11
5.37436e-11
2.82544e-11
3.30919e-11
1.98754e-11
1.85858e-11
1.41524e-11
1.25824e-11
1.05627e-11
7.95325e-12
7.93204e-12
5.78152e-12
6.14731e-12
3.95007e-12
4.77489e-12
3.01034e-12
3.78923e-12
2.18323e-12
3.0076e-12
1.7141e-12
2.42127e-12
1.29496e-12
1.94662e-12
1.04237e-12
1.57807e-12
8.12215e-13
1.27487e-12
6.6061e-13
1.03354e-12
5.32088e-13
8.32985e-13
4.42788e-13
6.68935e-13
3.62647e-13
5.30544e-13
3.03441e-13
4.14372e-13
2.53072e-13
3.13356e-13
2.1913e-13
2.25272e-13
1.91947e-13
1.45557e-13
1.78735e-13
7.13459e-14
1.62859e-13
-1.03813e-15
1.59078e-13
-7.03238e-14
1.65066e-13
-1.45147e-13
1.50747e-13
-2.24374e-13
1.83093e-13
-3.12181e-13
2.03657e-13
-4.14774e-13
2.09607e-13
-5.31032e-13
2.63508e-13
-6.68976e-13
3.12687e-13
-8.33997e-13
3.51261e-13
-1.03408e-12
4.47923e-13
-1.27474e-12
5.3979e-13
-1.57896e-12
6.53061e-13
-1.94682e-12
8.1837e-13
-2.42086e-12
1.04919e-12
-3.00862e-12
1.28535e-12
-3.78974e-12
1.72379e-12
-4.77449e-12
2.18333e-12
-6.14722e-12
2.9998e-12
-7.93075e-12
3.95845e-12
-1.0561e-11
5.78201e-12
-1.41522e-11
7.94447e-12
-1.98751e-11
1.25836e-11
-2.82542e-11
1.85941e-11
-4.32765e-11
3.30788e-11
-6.74669e-11
5.37462e-11
-1.20325e-10
1.17111e-10
-2.26584e-10
2.41704e-10
-5.90174e-10
8.52498e-10
-5.98792e-09
2.00661e-08
-3.13039e-09
2.90185e-08
-5.04451e-08
9.92178e-10
-5.1437e-08
3.36136e-09
2.66493e-08
7.51416e-10
2.26761e-08
2.9756e-10
1.30634e-09
1.60454e-10
3.78825e-10
9.02363e-11
1.8733e-10
5.79665e-11
8.60048e-11
3.78785e-11
5.31752e-11
2.66671e-11
2.97962e-11
1.89914e-11
2.02507e-11
1.41821e-11
1.27637e-11
1.06492e-11
9.30542e-12
8.256e-12
6.34529e-12
6.41202e-12
4.8546e-12
5.08949e-12
3.5032e-12
4.03898e-12
2.77203e-12
3.25198e-12
2.08137e-12
2.61398e-12
1.68198e-12
2.11912e-12
1.30801e-12
1.71176e-12
1.07049e-12
1.38767e-12
8.58182e-13
1.11815e-12
7.10335e-13
8.97937e-13
5.79054e-13
7.12012e-13
4.92606e-13
5.56015e-13
4.15695e-13
4.20465e-13
3.58855e-13
3.02233e-13
3.10661e-13
1.95157e-13
2.81598e-13
9.55219e-14
2.59029e-13
-6.78921e-16
2.60666e-13
-9.49046e-14
2.51642e-13
-1.94513e-13
2.44704e-13
-3.01077e-13
2.86528e-13
-4.19215e-13
3.21462e-13
-5.56258e-13
3.48853e-13
-7.12612e-13
4.17937e-13
-8.98223e-13
4.95687e-13
-1.11917e-12
5.70387e-13
-1.38834e-12
7.15671e-13
-1.71184e-12
8.63018e-13
-2.12001e-12
1.05967e-12
-2.61424e-12
1.31457e-12
-3.25173e-12
1.68473e-12
-4.04003e-12
2.07257e-12
-5.09016e-12
2.77336e-12
-6.41175e-12
3.508e-12
-8.25564e-12
4.83766e-12
-1.06476e-11
6.34404e-12
-1.41801e-11
9.31594e-12
-1.8991e-11
1.27507e-11
-2.66668e-11
2.02593e-11
-3.78784e-11
2.98e-11
-5.7968e-11
5.31703e-11
-9.02376e-11
8.60122e-11
-1.60455e-10
1.87331e-10
-2.9756e-10
3.78815e-10
-7.51416e-10
1.30635e-09
-3.36135e-09
2.26761e-08
-9.92178e-10
2.66493e-08
-5.14373e-08
3.31773e-09
-5.47547e-08
2.45627e-09
2.75108e-08
9.14822e-10
2.42175e-08
3.71431e-10
1.84974e-09
2.03253e-10
5.47004e-10
1.14714e-10
2.75869e-10
7.37886e-11
1.26936e-10
4.82759e-11
7.86958e-11
3.40076e-11
4.40641e-11
2.42298e-11
3.0028e-11
1.80999e-11
1.88906e-11
1.35933e-11
1.38149e-11
1.05403e-11
9.39793e-12
8.18657e-12
7.20746e-12
6.49852e-12
5.18636e-12
5.15693e-12
4.10494e-12
4.15226e-12
3.08237e-12
3.33727e-12
2.49775e-12
2.70527e-12
1.94258e-12
2.18519e-12
1.59865e-12
1.77125e-12
1.26948e-12
1.42694e-12
1.05305e-12
1.14595e-12
8.56287e-13
9.08467e-13
7.28882e-13
7.09235e-13
6.15265e-13
5.36419e-13
5.2832e-13
3.85487e-13
4.67931e-13
2.48774e-13
4.24633e-13
1.21888e-13
3.90535e-13
-4.45859e-16
3.81119e-13
-1.21958e-13
3.76074e-13
-2.47305e-13
3.79516e-13
-3.84081e-13
4.25805e-13
-5.3565e-13
4.6841e-13
-7.08763e-13
5.21215e-13
-9.0916e-13
6.21808e-13
-1.14701e-12
7.31949e-13
-1.42741e-12
8.48349e-13
-1.77204e-12
1.06579e-12
-2.18604e-12
1.27393e-12
-2.7056e-12
1.58197e-12
-3.3376e-12
1.95076e-12
-4.15272e-12
2.50309e-12
-5.15745e-12
3.07374e-12
-6.49932e-12
4.11275e-12
-8.18701e-12
5.19765e-12
-1.05391e-11
7.19269e-12
-1.35913e-11
9.40223e-12
-1.80983e-11
1.38197e-11
-2.42285e-11
1.88837e-11
-3.40073e-11
3.00415e-11
-4.82766e-11
4.40744e-11
-7.37897e-11
7.86792e-11
-1.14716e-10
1.26943e-10
-2.03254e-10
2.75871e-10
-3.71431e-10
5.46988e-10
-9.14822e-10
1.84974e-09
-2.45627e-09
2.42175e-08
-3.31773e-09
2.75108e-08
-5.47551e-08
3.25282e-09
-5.80076e-08
2.38733e-09
2.83763e-08
1.07847e-09
2.55264e-08
4.48493e-10
2.47971e-09
2.48771e-10
7.46725e-10
1.4097e-10
3.83666e-10
9.07967e-11
1.77108e-10
5.94891e-11
1.09995e-10
4.19287e-11
6.16235e-11
2.98919e-11
4.20661e-11
2.23348e-11
2.64501e-11
1.67788e-11
1.93728e-11
1.30115e-11
1.31675e-11
1.01074e-11
1.01143e-11
8.02341e-12
7.27911e-12
6.36732e-12
5.76487e-12
5.12658e-12
4.32962e-12
4.12022e-12
3.50358e-12
3.33967e-12
2.725e-12
2.69746e-12
2.23366e-12
2.18625e-12
1.78694e-12
1.76107e-12
1.48315e-12
1.41411e-12
1.21048e-12
1.12091e-12
1.0242e-12
8.74946e-13
8.59365e-13
6.61688e-13
7.45137e-13
4.75455e-13
6.51066e-13
3.068e-13
5.87291e-13
1.50299e-13
5.50286e-13
-4.43377e-16
5.28928e-13
-1.50399e-13
5.27627e-13
-3.05164e-13
5.26777e-13
-4.73817e-13
5.95766e-13
-6.60731e-13
6.57998e-13
-8.74409e-13
7.34614e-13
-1.12168e-12
8.64295e-13
-1.41527e-12
1.03103e-12
-1.76162e-12
1.19389e-12
-2.18717e-12
1.48536e-12
-2.69842e-12
1.78794e-12
-3.34009e-12
2.2226e-12
-4.12061e-12
2.71896e-12
-5.1271e-12
3.50717e-12
-6.36795e-12
4.31844e-12
-8.02434e-12
5.77096e-12
-1.01079e-11
7.28199e-12
-1.30101e-11
1.00968e-11
-1.67765e-11
1.31689e-11
-2.23329e-11
1.93818e-11
-2.98905e-11
2.64435e-11
-4.19283e-11
4.2076e-11
-5.94899e-11
6.16326e-11
-9.0798e-11
1.09993e-10
-1.40972e-10
1.7711e-10
-2.48773e-10
3.83673e-10
-4.48493e-10
7.46712e-10
-1.07847e-09
2.47971e-09
-2.38733e-09
2.55264e-08
-3.25282e-09
2.83762e-08
-5.80079e-08
1.80225e-09
-5.98098e-08
2.19273e-09
2.79858e-08
1.24011e-09
2.6479e-08
5.2883e-10
3.191e-09
2.97051e-10
9.78503e-10
1.6907e-10
5.11645e-10
1.09046e-10
2.37132e-10
7.15618e-11
1.47487e-10
5.04632e-11
8.27234e-11
3.60031e-11
5.65286e-11
2.69061e-11
3.55441e-11
2.02208e-11
2.60564e-11
1.56815e-11
1.77045e-11
1.2184e-11
1.36063e-11
9.6717e-12
9.78473e-12
7.67616e-12
7.7624e-12
6.17985e-12
5.82538e-12
4.96677e-12
4.71549e-12
4.02547e-12
3.66207e-12
3.25123e-12
3.00697e-12
2.63478e-12
2.39589e-12
2.12221e-12
1.98836e-12
1.70381e-12
1.62433e-12
1.3504e-12
1.37652e-12
1.05394e-12
1.15682e-12
7.96921e-13
9.97934e-13
5.72584e-13
8.75463e-13
3.69478e-13
7.8847e-13
1.80917e-13
7.33549e-13
-4.57905e-16
7.12326e-13
-1.80852e-13
7.03906e-13
-3.6793e-13
7.17634e-13
-5.70732e-13
7.98233e-13
-7.95536e-13
8.84411e-13
-1.05359e-12
9.94892e-13
-1.35122e-12
1.16877e-12
-1.7048e-12
1.38299e-12
-2.12308e-12
1.61322e-12
-2.6358e-12
1.99924e-12
-3.25203e-12
2.41129e-12
-4.02625e-12
2.99643e-12
-4.96721e-12
3.67318e-12
-6.18018e-12
4.7224e-12
-7.67715e-12
5.81094e-12
-9.67276e-12
7.76482e-12
-1.21843e-11
9.78434e-12
-1.56803e-11
1.35892e-11
-2.02181e-11
1.77026e-11
-2.69037e-11
2.60658e-11
-3.60018e-11
3.55391e-11
-5.04628e-11
5.65336e-11
-7.15625e-11
8.2735e-11
-1.09048e-10
1.47472e-10
-1.69072e-10
2.37141e-10
-2.97052e-10
5.11648e-10
-5.2883e-10
9.78482e-10
-1.24011e-09
3.191e-09
-2.19273e-09
2.6479e-08
-1.80224e-09
2.79858e-08
-5.98101e-08
4.97627e-10
-6.03074e-08
1.80924e-09
2.66742e-08
1.3992e-09
2.68891e-08
6.12382e-10
3.97781e-09
3.48117e-10
1.24277e-09
1.9908e-10
6.60691e-10
1.28591e-10
3.0762e-10
8.45384e-11
1.91536e-10
5.9645e-11
1.07616e-10
4.25895e-11
7.35823e-11
3.18342e-11
4.62987e-11
2.39352e-11
3.39514e-11
1.85629e-11
2.30811e-11
1.44264e-11
1.77475e-11
1.14513e-11
1.27654e-11
9.08981e-12
1.01217e-11
7.31727e-12
7.59092e-12
5.8811e-12
6.15438e-12
4.76603e-12
4.77039e-12
3.84927e-12
3.92863e-12
3.11906e-12
3.1263e-12
2.5121e-12
2.60372e-12
2.01652e-12
2.12716e-12
1.5981e-12
1.79329e-12
1.24707e-12
1.50433e-12
9.42847e-13
1.30669e-12
6.77355e-13
1.13944e-12
4.37071e-13
1.03456e-12
2.13967e-13
9.55225e-13
-4.34183e-16
9.2679e-13
-2.13791e-13
9.20642e-13
-4.35579e-13
9.39162e-13
-6.7531e-13
1.03999e-12
-9.41094e-13
1.15054e-12
-1.24682e-12
1.2944e-12
-1.59894e-12
1.51247e-12
-2.01738e-12
1.79902e-12
-2.51321e-12
2.11296e-12
-3.12016e-12
2.60642e-12
-3.84998e-12
3.13679e-12
-4.76708e-12
3.91403e-12
-5.88162e-12
4.77807e-12
-7.31749e-12
6.15902e-12
-9.09109e-12
7.58978e-12
-1.14525e-11
1.01295e-11
-1.44265e-11
1.27686e-11
-1.85616e-11
1.77287e-11
-2.39323e-11
2.30713e-11
-3.18313e-11
3.39625e-11
-4.25882e-11
4.62959e-11
-5.96446e-11
7.35984e-11
-8.4539e-11
1.07629e-10
-1.28593e-10
1.9153e-10
-1.99082e-10
3.07623e-10
-3.48118e-10
6.60686e-10
-6.12382e-10
1.24275e-09
-1.3992e-09
3.97782e-09
-1.80924e-09
2.68891e-08
-4.97625e-10
2.66741e-08
-6.03077e-08
-5.26108e-10
-5.97813e-08
1.40287e-09
2.47452e-08
1.55574e-09
2.67362e-08
6.99103e-10
4.83444e-09
4.01983e-10
1.53989e-09
2.31059e-10
8.31608e-10
1.49486e-10
3.89195e-10
9.84637e-11
2.42557e-10
6.9509e-11
1.3657e-10
4.96783e-11
9.34123e-11
3.71401e-11
5.88399e-11
2.79387e-11
4.31636e-11
2.16685e-11
2.9343e-11
1.68449e-11
2.2572e-11
1.33707e-11
1.62379e-11
1.0615e-11
1.288e-11
8.54433e-12
9.6701e-12
6.86766e-12
7.82786e-12
5.56497e-12
6.08463e-12
4.49451e-12
4.99259e-12
3.64148e-12
3.99003e-12
2.93268e-12
3.30719e-12
2.35377e-12
2.69793e-12
1.86521e-12
2.28046e-12
1.4553e-12
1.92049e-12
1.10016e-12
1.65615e-12
7.90302e-13
1.45271e-12
5.09903e-13
1.31259e-12
2.49614e-13
1.22065e-12
-3.80298e-16
1.1744e-12
-2.49383e-13
1.16734e-12
-5.08439e-13
1.19598e-12
-7.88065e-13
1.3161e-12
-1.09813e-12
1.45992e-12
-1.45508e-12
1.65591e-12
-1.86606e-12
1.93615e-12
-2.35454e-12
2.28968e-12
-2.93395e-12
2.68829e-12
-3.64263e-12
3.315e-12
-4.4952e-12
3.98621e-12
-5.56621e-12
4.98276e-12
-6.86825e-12
6.08525e-12
-8.54448e-12
7.83449e-12
-1.06165e-11
9.65928e-12
-1.3372e-11
1.28795e-11
-1.6845e-11
1.62419e-11
-2.16673e-11
2.2546e-11
-2.79354e-11
2.93456e-11
-3.71368e-11
4.31646e-11
-4.96771e-11
5.88382e-11
-6.95085e-11
9.34285e-11
-9.84642e-11
1.36584e-10
-1.49488e-10
2.42554e-10
-2.31062e-10
3.89198e-10
-4.01984e-10
8.31608e-10
-6.99103e-10
1.53987e-09
-1.55574e-09
4.83445e-09
-1.40287e-09
2.67362e-08
5.26109e-10
2.47452e-08
-5.97816e-08
-1.51824e-09
-5.82631e-08
1.02269e-09
2.22042e-08
1.70952e-09
2.60494e-08
7.8899e-10
5.75497e-09
4.58644e-10
1.87024e-09
2.65064e-10
1.02519e-09
1.71783e-10
4.82472e-10
1.13383e-10
3.00956e-10
8.00906e-11
1.69865e-10
5.72978e-11
1.16204e-10
4.28457e-11
7.32898e-11
3.22486e-11
5.37512e-11
2.50124e-11
3.65865e-11
1.94507e-11
2.81281e-11
1.54386e-11
2.02511e-11
1.2259e-11
1.60588e-11
9.86675e-12
1.20569e-11
7.93116e-12
9.76564e-12
6.42606e-12
7.58588e-12
5.19009e-12
6.23306e-12
4.20452e-12
4.96446e-12
3.38598e-12
4.13179e-12
2.71722e-12
3.36867e-12
2.15306e-12
2.84706e-12
1.67962e-12
2.38701e-12
1.26966e-12
2.06646e-12
9.11955e-13
1.80484e-12
5.88364e-13
1.63723e-12
2.88013e-13
1.51579e-12
-3.19121e-16
1.45871e-12
-2.87722e-13
1.45617e-12
-5.86941e-13
1.49581e-12
-9.09554e-13
1.63976e-12
-1.26733e-12
1.81719e-12
-1.67944e-12
2.07179e-12
-2.15388e-12
2.40379e-12
-2.71787e-12
2.8527e-12
-3.38738e-12
3.36218e-12
-4.20575e-12
4.13574e-12
-5.19072e-12
4.97325e-12
-6.42752e-12
6.21998e-12
-7.93181e-12
7.58473e-12
-9.86685e-12
9.76559e-12
-1.22607e-11
1.2058e-11
-1.544e-11
1.6066e-11
-1.94507e-11
2.02482e-11
-2.50111e-11
2.81095e-11
-3.22451e-11
3.65741e-11
-4.28421e-11
5.37602e-11
-5.72966e-11
7.32925e-11
-8.00901e-11
1.16214e-10
-1.13384e-10
1.69878e-10
-1.71786e-10
3.00959e-10
-2.65066e-10
4.82483e-10
-4.58645e-10
1.02519e-09
-7.88991e-10
1.87022e-09
-1.70952e-09
5.75498e-09
-1.02269e-09
2.60494e-08
1.51824e-09
2.22042e-08
-5.82634e-08
-2.55089e-09
-5.57122e-08
6.56057e-10
1.89973e-08
1.86022e-09
2.48452e-08
8.82051e-10
6.73314e-09
5.18077e-10
2.23421e-09
3.01141e-10
1.24213e-09
1.95534e-10
5.88083e-10
1.29342e-10
3.67151e-10
9.14262e-11
2.07782e-10
6.54768e-11
1.4215e-10
4.89738e-11
8.9789e-11
3.6883e-11
6.58461e-11
2.86086e-11
4.4854e-11
2.22553e-11
3.44894e-11
1.76643e-11
2.48352e-11
1.40292e-11
1.96908e-11
1.12907e-11
1.47958e-11
9.07656e-12
1.19773e-11
7.3534e-12
9.30379e-12
5.93925e-12
7.64674e-12
4.81093e-12
6.09618e-12
3.87418e-12
5.06393e-12
3.10861e-12
4.136e-12
2.46302e-12
3.49114e-12
1.92114e-12
2.93223e-12
1.45213e-12
2.54289e-12
1.04292e-12
2.21689e-12
6.72814e-13
2.00293e-12
3.29354e-13
1.86405e-12
-2.42645e-16
1.79586e-12
-3.28995e-13
1.78162e-12
-6.71479e-13
1.83501e-12
-1.04037e-12
2.00932e-12
-1.44951e-12
2.22838e-12
-1.92101e-12
2.53671e-12
-2.46379e-12
2.95209e-12
-3.10909e-12
3.50169e-12
-3.87573e-12
4.12329e-12
-4.81218e-12
5.07119e-12
-5.93982e-12
6.09926e-12
-7.35507e-12
7.63536e-12
-9.07727e-12
9.31189e-12
-1.12907e-11
1.19848e-11
-1.40311e-11
1.47934e-11
-1.76658e-11
1.96976e-11
-2.22551e-11
2.48387e-11
-2.86074e-11
3.44594e-11
-3.68792e-11
4.48521e-11
-4.89699e-11
6.58521e-11
-6.54757e-11
8.97982e-11
-9.14257e-11
1.42177e-10
-1.29342e-10
2.0779e-10
-1.95537e-10
3.67153e-10
-3.01144e-10
5.88082e-10
-5.18079e-10
1.24212e-09
-8.82051e-10
2.23419e-09
-1.86022e-09
6.73314e-09
-6.56055e-10
2.48452e-08
2.5509e-09
1.89973e-08
-5.57125e-08
-3.57222e-09
-5.214e-08
3.07284e-10
1.51178e-08
2.00761e-09
2.31449e-08
9.78284e-10
7.76246e-09
5.8024e-10
2.63225e-09
3.39332e-10
1.48303e-09
2.20786e-10
7.06624e-10
1.46385e-10
4.41551e-10
1.03552e-10
2.50612e-10
7.42451e-11
1.71461e-10
5.55479e-11
1.0849e-10
4.18607e-11
7.95354e-11
3.24724e-11
5.42518e-11
2.52707e-11
4.16864e-11
2.00576e-11
3.00558e-11
1.59335e-11
2.38176e-11
1.28225e-11
1.79091e-11
1.03091e-11
1.44977e-11
8.35127e-12
1.1273e-11
6.74554e-12
9.25194e-12
5.46352e-12
7.37486e-12
4.39961e-12
6.12736e-12
3.52979e-12
4.99974e-12
2.79659e-12
4.22206e-12
2.18103e-12
3.54228e-12
1.64847e-12
3.07218e-12
1.18382e-12
2.68421e-12
7.63696e-13
2.43043e-12
3.73855e-13
2.24779e-12
-1.74223e-16
2.16387e-12
-3.73415e-13
2.15766e-12
-7.62449e-13
2.23642e-12
-1.18114e-12
2.42729e-12
-1.64559e-12
2.68764e-12
-2.18091e-12
3.07798e-12
-2.79727e-12
3.56905e-12
-3.53009e-12
4.22672e-12
-4.40126e-12
4.99826e-12
-5.46478e-12
6.13174e-12
-6.74604e-12
7.38042e-12
-8.35314e-12
9.24219e-12
-1.03099e-11
1.1268e-11
-1.28224e-11
1.44992e-11
-1.59357e-11
1.79084e-11
-2.00591e-11
2.3824e-11
-2.52704e-11
3.00477e-11
-3.24712e-11
4.16608e-11
-4.18568e-11
5.42319e-11
-5.55437e-11
7.95381e-11
-7.42441e-11
1.08499e-10
-1.03552e-10
1.71473e-10
-1.46385e-10
2.5063e-10
-2.2079e-10
4.41557e-10
-3.39335e-10
7.06639e-10
-5.80241e-10
1.48303e-09
-9.78285e-10
2.63223e-09
-2.00761e-09
7.76246e-09
-3.07282e-10
2.31449e-08
3.57222e-09
1.51178e-08
-5.21403e-08
-4.50324e-09
-4.76367e-08
8.54017e-12
1.0606e-08
2.15164e-09
2.10018e-08
1.07768e-09
8.83642e-09
6.45066e-10
3.06487e-09
3.7967e-10
1.74844e-09
2.47585e-10
8.38718e-10
1.64556e-10
5.24586e-10
1.16506e-10
2.98659e-10
8.3633e-11
2.04334e-10
6.25922e-11
1.29536e-10
4.72013e-11
9.4922e-11
3.66193e-11
6.48337e-11
2.85097e-11
4.97957e-11
2.26287e-11
3.59349e-11
1.79804e-11
2.84625e-11
1.44691e-11
2.14203e-11
1.16344e-11
1.73233e-11
9.4242e-12
1.34767e-11
7.61267e-12
1.10664e-11
6.16533e-12
8.83384e-12
4.96473e-12
7.33441e-12
3.98277e-12
5.9841e-12
3.15534e-12
5.05245e-12
2.46053e-12
4.23822e-12
1.85964e-12
3.67083e-12
1.33534e-12
3.20827e-12
8.61398e-13
2.89867e-12
4.21722e-13
2.69481e-12
-8.97296e-17
2.59442e-12
-4.21176e-13
2.5808e-12
-8.60305e-13
2.66378e-12
-1.33257e-12
2.90594e-12
-1.85648e-12
3.21346e-12
-2.46042e-12
3.67346e-12
-3.15594e-12
4.25789e-12
-3.98286e-12
5.05877e-12
-4.96647e-12
5.97875e-12
-6.16659e-12
7.33817e-12
-7.61308e-12
8.83123e-12
-9.42626e-12
1.10572e-11
-1.16352e-11
1.34752e-11
-1.44689e-11
1.73315e-11
-1.79827e-11
2.14262e-11
-2.26302e-11
2.84714e-11
-2.85092e-11
3.59259e-11
-3.66181e-11
4.9768e-11
-4.71972e-11
6.48156e-11
-6.25878e-11
9.49287e-11
-8.36322e-11
1.29545e-10
-1.16506e-10
2.04352e-10
-1.64557e-10
2.98677e-10
-2.47588e-10
5.24591e-10
-3.79673e-10
8.38715e-10
-6.45067e-10
1.74843e-09
-1.07768e-09
3.06485e-09
-2.15164e-09
8.83643e-09
-8.53808e-12
2.10018e-08
4.50324e-09
1.0606e-08
-4.7637e-08
-5.23686e-09
-4.23999e-08
-1.89635e-10
5.55878e-09
2.2924e-09
1.85197e-08
1.18022e-09
9.94861e-09
7.12464e-10
3.53262e-09
4.22173e-10
2.03871e-09
2.7597e-10
9.84913e-10
1.839e-10
6.16653e-10
1.30325e-10
3.52243e-10
9.36716e-11
2.40989e-10
7.01318e-11
1.53069e-10
5.29251e-11
1.12129e-10
4.10656e-11
7.66903e-11
3.19854e-11
5.88762e-11
2.53883e-11
4.25299e-11
2.01786e-11
3.36766e-11
1.62375e-11
2.53584e-11
1.30583e-11
2.05106e-11
1.0577e-11
1.5963e-11
8.5446e-12
1.3088e-11
6.91959e-12
1.04455e-11
5.57216e-12
8.67088e-12
4.46967e-12
7.09278e-12
3.54098e-12
5.98295e-12
2.76096e-12
5.01949e-12
2.08664e-12
4.35098e-12
1.4982e-12
3.79482e-12
9.66446e-13
3.43103e-12
4.73209e-13
3.18207e-12
-1.79685e-17
3.05862e-12
-4.72571e-13
3.05218e-12
-9.6546e-13
3.15586e-12
-1.49537e-12
3.43005e-12
-2.08325e-12
3.80257e-12
-2.76084e-12
4.35906e-12
-3.54144e-12
5.04348e-12
-4.46955e-12
5.98452e-12
-5.57395e-12
7.08705e-12
-6.92082e-12
8.67789e-12
-8.54494e-12
1.0454e-11
-1.05792e-11
1.30881e-11
-1.30592e-11
1.59587e-11
-1.62373e-11
2.05135e-11
-2.01811e-11
2.53677e-11
-2.53899e-11
3.36769e-11
-3.19849e-11
4.25238e-11
-4.10645e-11
5.88507e-11
-5.29209e-11
7.66613e-11
-7.01273e-11
1.1214e-10
-9.3671e-11
1.53088e-10
-1.30325e-10
2.4101e-10
-1.839e-10
3.52248e-10
-2.75973e-10
6.16657e-10
-4.22176e-10
9.8492e-10
-7.12465e-10
2.03871e-09
-1.18022e-09
3.5326e-09
-2.2924e-09
9.94861e-09
1.89637e-10
1.85197e-08
5.23687e-09
5.55877e-09
-4.24002e-08
-5.61813e-09
-3.67817e-08
-2.2512e-10
1.65773e-10
2.43003e-09
1.58646e-08
1.28581e-09
1.10928e-08
7.82315e-10
4.03612e-09
4.66851e-10
2.35419e-09
3.05976e-10
1.14579e-09
2.04456e-10
7.18167e-10
1.45046e-10
4.1164e-10
1.04392e-10
2.81644e-10
7.81923e-11
1.79276e-10
5.90529e-11
1.31265e-10
4.58283e-11
8.99141e-11
3.57117e-11
6.89947e-11
2.83478e-11
4.98886e-11
2.25373e-11
3.94795e-11
1.81354e-11
2.97654e-11
1.4587e-11
2.40555e-11
1.18148e-11
1.87273e-11
9.54552e-12
1.53693e-11
7.72972e-12
1.22707e-11
6.22474e-12
1.01813e-11
4.99274e-12
8.32045e-12
3.95533e-12
7.01633e-12
3.08375e-12
5.90105e-12
2.33054e-12
5.10238e-12
1.6732e-12
4.45588e-12
1.07932e-12
4.02814e-12
5.28548e-13
3.73759e-12
6.20588e-17
3.59234e-12
-5.27844e-13
3.58344e-12
-1.07842e-12
3.71801e-12
-1.67032e-12
4.01659e-12
-2.32698e-12
4.45964e-12
-3.08358e-12
5.11082e-12
-3.95564e-12
5.9176e-12
-4.99242e-12
7.01781e-12
-6.2265e-12
8.31604e-12
-7.7309e-12
1.01929e-11
-9.54581e-12
1.22648e-11
-1.18171e-11
1.53595e-11
-1.45879e-11
1.87283e-11
-1.81352e-11
2.40507e-11
-2.25398e-11
2.977e-11
-2.83494e-11
3.94895e-11
-3.57111e-11
4.98862e-11
-4.58272e-11
6.89689e-11
-5.90486e-11
8.98863e-11
-7.81876e-11
1.31279e-10
-1.04392e-10
1.79293e-10
-1.45045e-10
2.8166e-10
-2.04457e-10
4.11674e-10
-3.0598e-10
7.18189e-10
-4.66854e-10
1.14579e-09
-7.82316e-10
2.35417e-09
-1.28581e-09
4.03609e-09
-2.43003e-09
1.10928e-08
2.25123e-10
1.58646e-08
5.61813e-09
1.65754e-10
-3.6782e-08
-5.46366e-09
-3.13181e-08
-3.50811e-11
-5.26281e-09
2.56461e-09
1.32649e-08
1.39429e-09
1.22632e-08
8.54469e-10
4.57593e-09
5.13696e-10
2.69496e-09
3.37634e-10
1.32185e-09
2.26266e-10
8.29542e-10
1.60704e-10
4.77214e-10
1.15827e-10
3.26519e-10
8.67997e-11
2.08295e-10
6.56064e-11
1.52469e-10
5.09249e-11
1.04595e-10
3.97031e-11
8.02164e-11
3.15188e-11
5.80857e-11
2.50661e-11
4.59394e-11
2.01706e-11
3.46629e-11
1.6227e-11
2.80041e-11
1.31429e-11
2.18142e-11
1.06198e-11
1.78947e-11
8.59937e-12
1.42926e-11
6.92537e-12
1.18586e-11
5.5544e-12
9.68951e-12
4.40034e-12
8.17382e-12
3.43041e-12
6.86056e-12
2.59254e-12
5.93582e-12
1.86115e-12
5.18202e-12
1.20055e-12
4.69146e-12
5.88023e-13
4.34367e-12
1.3107e-16
4.17784e-12
-5.87261e-13
4.16955e-12
-1.19973e-12
4.32051e-12
-1.85825e-12
4.68397e-12
-2.58889e-12
5.19063e-12
-3.43012e-12
5.9537e-12
-4.40047e-12
6.88515e-12
-5.55394e-12
8.17807e-12
-6.92703e-12
9.7009e-12
-8.60051e-12
1.18589e-11
-1.06201e-11
1.42806e-11
-1.31453e-11
1.78884e-11
-1.6228e-11
2.181e-11
-2.01705e-11
2.7996e-11
-2.50687e-11
3.46666e-11
-3.15204e-11
4.59365e-11
-3.97025e-11
5.80673e-11
-5.09238e-11
8.01831e-11
-6.5602e-11
1.04576e-10
-8.67951e-11
1.52464e-10
-1.15826e-10
2.08324e-10
-1.60704e-10
3.2653e-10
-2.26266e-10
4.77225e-10
-3.37638e-10
8.29552e-10
-5.13699e-10
1.32186e-09
-8.5447e-10
2.69495e-09
-1.39429e-09
4.57592e-09
-2.56461e-09
1.22631e-08
3.50837e-11
1.32649e-08
5.46366e-09
-5.26282e-09
-3.13184e-08
-4.62994e-09
-2.66881e-08
4.22889e-10
-1.03156e-08
2.69601e-09
1.09918e-08
1.50535e-09
1.34538e-08
9.28743e-10
5.15255e-09
5.62684e-10
3.06102e-09
3.70965e-10
1.51357e-09
2.49365e-10
9.51141e-10
1.77337e-10
5.49236e-10
1.28006e-10
3.7585e-10
9.59808e-11
2.40329e-10
7.26076e-11
1.75832e-10
5.63737e-11
1.20833e-10
4.39745e-11
9.26126e-11
3.49136e-11
6.71384e-11
2.77753e-11
5.3079e-11
2.23516e-11
4.00796e-11
1.79853e-11
3.23631e-11
1.45671e-11
2.52328e-11
1.17723e-11
2.06774e-11
9.53239e-12
1.65273e-11
7.67723e-12
1.37075e-11
6.15725e-12
1.12092e-11
4.87802e-12
9.44744e-12
3.80256e-12
7.94059e-12
2.87384e-12
6.87153e-12
2.063e-12
6.00012e-12
1.33073e-12
5.42503e-12
6.51945e-13
5.03301e-12
1.7608e-16
4.82775e-12
-6.51166e-13
4.81689e-12
-1.32989e-12
4.9997e-12
-2.06008e-12
5.4099e-12
-2.87021e-12
5.99929e-12
-3.80207e-12
6.88102e-12
-4.87796e-12
7.95906e-12
-6.15669e-12
9.45359e-12
-7.67874e-12
1.12097e-11
-9.53346e-12
1.3716e-11
-1.17726e-11
1.65232e-11
-1.45695e-11
2.06848e-11
-1.79864e-11
2.52208e-11
-2.23516e-11
3.2368e-11
-2.77778e-11
4.00989e-11
-3.49152e-11
5.30835e-11
-4.39739e-11
6.71226e-11
-5.63723e-11
9.25871e-11
-7.26032e-11
1.20804e-10
-9.59763e-11
1.75837e-10
-1.28006e-10
2.4035e-10
-1.77336e-10
3.75871e-10
-2.49365e-10
5.49255e-10
-3.70969e-10
9.5117e-10
-5.62687e-10
1.51357e-09
-9.28744e-10
3.06101e-09
-1.50535e-09
5.15252e-09
-2.69601e-09
1.34538e-08
-4.22887e-10
1.09918e-08
4.62994e-09
-1.03157e-08
-2.66884e-08
-3.10568e-09
-2.35825e-08
1.14473e-09
-1.45661e-08
2.82358e-09
9.31292e-09
1.61848e-09
1.46589e-08
1.00492e-09
5.76611e-09
6.13772e-10
3.45217e-09
4.05983e-10
1.72136e-09
2.73786e-10
1.08333e-09
1.94978e-10
6.28036e-10
1.40963e-10
4.2986e-10
1.05762e-10
2.7553e-10
8.00794e-11
2.01528e-10
6.21932e-11
1.38721e-10
4.85413e-11
1.06272e-10
3.85451e-11
7.71365e-11
3.06753e-11
6.09421e-11
2.4687e-11
4.60653e-11
1.98691e-11
3.71867e-11
1.60933e-11
2.90136e-11
1.30078e-11
2.37767e-11
1.05328e-11
1.90027e-11
8.48368e-12
1.57562e-11
6.80394e-12
1.2902e-11
5.39059e-12
1.08674e-11
4.20195e-12
9.12722e-12
3.17579e-12
7.88105e-12
2.27963e-12
6.89362e-12
1.47048e-12
6.22678e-12
7.20579e-13
5.77172e-12
2.08508e-16
5.54315e-12
-7.19842e-13
5.54033e-12
-1.46952e-12
5.7535e-12
-2.27673e-12
6.2175e-12
-3.17229e-12
6.89441e-12
-4.20117e-12
7.91767e-12
-5.39032e-12
9.15115e-12
-6.80342e-12
1.08611e-11
-8.48489e-12
1.29039e-11
-1.05338e-11
1.57672e-11
-1.30083e-11
1.89991e-11
-1.60955e-11
2.37607e-11
-1.98702e-11
2.90078e-11
-2.46872e-11
3.71766e-11
-3.06776e-11
4.6082e-11
-3.85466e-11
6.09468e-11
-4.85408e-11
7.71108e-11
-6.21917e-11
1.06241e-10
-8.0075e-11
1.3867e-10
-1.05758e-10
2.01525e-10
-1.40963e-10
2.75561e-10
-1.94977e-10
4.2988e-10
-2.73786e-10
6.28065e-10
-4.05986e-10
1.08335e-09
-6.13775e-10
1.72137e-09
-1.00492e-09
3.45214e-09
-1.61848e-09
5.76609e-09
-2.82358e-09
1.46589e-08
-1.14473e-09
9.31292e-09
3.10569e-09
-1.45661e-08
-2.35828e-08
-1.07064e-09
-2.25118e-08
2.06382e-09
-1.77005e-08
2.94607e-09
8.43067e-09
1.73291e-09
1.58721e-08
1.08273e-09
6.41629e-09
6.66898e-10
3.86799e-09
4.42691e-10
1.94557e-09
2.99558e-10
1.22648e-09
2.1366e-10
7.13957e-10
1.54729e-10
4.88796e-10
1.16172e-10
3.14082e-10
8.80447e-11
2.29638e-10
6.84028e-11
1.58361e-10
5.34196e-11
1.21262e-10
4.24264e-11
8.81343e-11
3.37772e-11
6.9614e-11
2.71859e-11
5.26627e-11
2.18859e-11
4.24719e-11
1.77278e-11
3.3166e-11
1.43315e-11
2.71576e-11
1.1605e-11
2.17304e-11
9.34825e-12
1.80265e-11
7.49735e-12
1.4741e-11
5.94032e-12
1.24279e-11
4.63033e-12
1.04281e-11
3.4998e-12
9.03129e-12
2.51208e-12
7.88552e-12
1.62045e-12
7.11622e-12
7.94269e-13
6.59856e-12
2.38204e-16
6.34228e-12
-7.93591e-13
6.33235e-12
-1.61934e-12
6.56581e-12
-2.50922e-12
7.10412e-12
-3.49645e-12
7.87763e-12
-4.62925e-12
9.04618e-12
-5.93988e-12
1.04606e-11
-7.49688e-12
1.24274e-11
-9.3491e-12
1.47475e-11
-1.16059e-11
1.8019e-11
-1.43322e-11
2.17225e-11
-1.77297e-11
2.71689e-11
-2.18871e-11
3.31549e-11
-2.71864e-11
4.24808e-11
-3.37792e-11
5.26743e-11
-4.24279e-11
6.9587e-11
-5.34193e-11
8.81214e-11
-6.8401e-11
1.21222e-10
-8.80403e-11
1.58334e-10
-1.16168e-10
2.29654e-10
-1.54728e-10
3.14112e-10
-2.13659e-10
4.88811e-10
-2.99559e-10
7.13966e-10
-4.42694e-10
1.2265e-09
-6.669e-10
1.94557e-09
-1.08273e-09
3.86798e-09
-1.73292e-09
6.41627e-09
-2.94607e-09
1.58721e-08
-2.06382e-09
8.43065e-09
1.07065e-09
-1.77005e-08
-2.25121e-08
1.13755e-09
-2.36494e-08
3.05968e-09
-1.96227e-08
3.06157e-09
8.4288e-09
1.84767e-09
1.7086e-08
1.16189e-09
7.10206e-09
7.21972e-10
4.30791e-09
4.81082e-10
2.18646e-09
3.26706e-10