/*--------------------------------*- C++ -*----------------------------------*\
| =========                 |                                                 |
| \\      /  F ield         | foam-extend: Open Source CFD                    |
|  \\    /   O peration     | Version:     4.0                                |
|   \\  /    A nd           | Web:         http://www.foam-extend.org         |
|    \\/     M anipulation  |                                                 |
\*---------------------------------------------------------------------------*/
FoamFile
{
    version     2.0;
    format      ascii;
    class       volScalarField;
    location    "930";
    object      cMinus;
}
// * * * * * * * * * * * * * * * * * * * * * * * * * * * * * * * * * * * * * //

dimensions      [0 0 0 0 0 0 0];

internalField   nonuniform List<scalar> 
6960
(
1.09553e-22
1.09298e-22
1.09301e-22
1.09285e-22
1.09259e-22
1.09226e-22
1.09188e-22
1.09146e-22
1.09103e-22
1.09058e-22
1.09013e-22
1.08968e-22
1.08923e-22
1.0888e-22
1.08839e-22
1.08799e-22
1.08762e-22
1.08726e-22
1.08694e-22
1.08663e-22
1.08636e-22
1.08611e-22
1.08589e-22
1.08569e-22
1.08553e-22
1.08539e-22
1.08528e-22
1.0852e-22
1.08514e-22
1.08512e-22
1.08512e-22
1.08514e-22
1.0852e-22
1.08528e-22
1.08539e-22
1.08553e-22
1.08569e-22
1.08589e-22
1.08611e-22
1.08636e-22
1.08663e-22
1.08694e-22
1.08726e-22
1.08762e-22
1.08799e-22
1.08839e-22
1.0888e-22
1.08923e-22
1.08968e-22
1.09013e-22
1.09058e-22
1.09103e-22
1.09146e-22
1.09188e-22
1.09226e-22
1.09259e-22
1.09285e-22
1.09301e-22
1.09298e-22
1.09553e-22
4.92196e-22
4.91872e-22
4.91682e-22
4.91462e-22
4.91255e-22
4.91068e-22
4.90899e-22
4.90748e-22
4.90611e-22
4.90486e-22
4.90371e-22
4.90264e-22
4.90166e-22
4.90075e-22
4.8999e-22
4.89912e-22
4.8984e-22
4.89774e-22
4.89713e-22
4.89658e-22
4.89609e-22
4.89565e-22
4.89526e-22
4.89492e-22
4.89463e-22
4.8944e-22
4.89421e-22
4.89407e-22
4.89397e-22
4.89393e-22
4.89393e-22
4.89397e-22
4.89407e-22
4.89421e-22
4.8944e-22
4.89463e-22
4.89492e-22
4.89526e-22
4.89565e-22
4.89609e-22
4.89658e-22
4.89713e-22
4.89774e-22
4.8984e-22
4.89912e-22
4.8999e-22
4.90075e-22
4.90166e-22
4.90264e-22
4.90371e-22
4.90486e-22
4.90611e-22
4.90748e-22
4.90899e-22
4.91068e-22
4.91255e-22
4.91462e-22
4.91682e-22
4.91872e-22
4.92196e-22
1.92551e-21
1.92491e-21
1.92444e-21
1.92381e-21
1.92319e-21
1.92262e-21
1.92209e-21
1.92161e-21
1.92116e-21
1.92075e-21
1.92037e-21
1.92002e-21
1.91969e-21
1.91938e-21
1.9191e-21
1.91884e-21
1.9186e-21
1.91838e-21
1.91817e-21
1.91799e-21
1.91783e-21
1.91768e-21
1.91755e-21
1.91744e-21
1.91735e-21
1.91727e-21
1.9172e-21
1.91716e-21
1.91713e-21
1.91711e-21
1.91711e-21
1.91713e-21
1.91716e-21
1.9172e-21
1.91727e-21
1.91735e-21
1.91744e-21
1.91755e-21
1.91768e-21
1.91783e-21
1.91799e-21
1.91817e-21
1.91838e-21
1.9186e-21
1.91884e-21
1.9191e-21
1.91938e-21
1.91969e-21
1.92002e-21
1.92037e-21
1.92075e-21
1.92116e-21
1.92161e-21
1.92209e-21
1.92262e-21
1.92319e-21
1.92381e-21
1.92444e-21
1.92491e-21
1.92551e-21
7.29519e-21
7.29494e-21
7.2946e-21
7.29344e-21
7.29207e-21
7.29066e-21
7.28924e-21
7.28786e-21
7.28652e-21
7.28523e-21
7.284e-21
7.28283e-21
7.28172e-21
7.28068e-21
7.27971e-21
7.27881e-21
7.27797e-21
7.27719e-21
7.27649e-21
7.27585e-21
7.27527e-21
7.27475e-21
7.2743e-21
7.27391e-21
7.27357e-21
7.2733e-21
7.27308e-21
7.27291e-21
7.27281e-21
7.27275e-21
7.27275e-21
7.27281e-21
7.27291e-21
7.27308e-21
7.2733e-21
7.27357e-21
7.27391e-21
7.2743e-21
7.27475e-21
7.27527e-21
7.27585e-21
7.27649e-21
7.27719e-21
7.27797e-21
7.27881e-21
7.27971e-21
7.28068e-21
7.28172e-21
7.28283e-21
7.284e-21
7.28523e-21
7.28652e-21
7.28786e-21
7.28924e-21
7.29066e-21
7.29207e-21
7.29344e-21
7.2946e-21
7.29494e-21
7.29519e-21
2.79846e-20
2.79918e-20
2.79965e-20
2.79971e-20
2.79959e-20
2.79936e-20
2.79906e-20
2.79872e-20
2.79835e-20
2.79796e-20
2.79758e-20
2.7972e-20
2.79683e-20
2.79648e-20
2.79615e-20
2.79583e-20
2.79554e-20
2.79527e-20
2.79503e-20
2.7948e-20
2.7946e-20
2.79442e-20
2.79426e-20
2.79412e-20
2.794e-20
2.7939e-20
2.79382e-20
2.79377e-20
2.79373e-20
2.79371e-20
2.79371e-20
2.79373e-20
2.79377e-20
2.79382e-20
2.7939e-20
2.794e-20
2.79412e-20
2.79426e-20
2.79442e-20
2.7946e-20
2.7948e-20
2.79503e-20
2.79527e-20
2.79554e-20
2.79583e-20
2.79615e-20
2.79648e-20
2.79683e-20
2.7972e-20
2.79758e-20
2.79796e-20
2.79835e-20
2.79872e-20
2.79906e-20
2.79936e-20
2.79959e-20
2.79971e-20
2.79965e-20
2.79918e-20
2.79846e-20
1.10192e-19
1.10255e-19
1.10298e-19
1.10321e-19
1.10333e-19
1.10337e-19
1.10336e-19
1.1033e-19
1.10321e-19
1.10311e-19
1.10299e-19
1.10287e-19
1.10275e-19
1.10263e-19
1.10252e-19
1.10241e-19
1.10231e-19
1.10222e-19
1.10213e-19
1.10205e-19
1.10198e-19
1.10192e-19
1.10186e-19
1.10181e-19
1.10177e-19
1.10173e-19
1.10171e-19
1.10169e-19
1.10167e-19
1.10167e-19
1.10167e-19
1.10167e-19
1.10169e-19
1.10171e-19
1.10173e-19
1.10177e-19
1.10181e-19
1.10186e-19
1.10192e-19
1.10198e-19
1.10205e-19
1.10213e-19
1.10222e-19
1.10231e-19
1.10241e-19
1.10252e-19
1.10263e-19
1.10275e-19
1.10287e-19
1.10299e-19
1.10311e-19
1.10321e-19
1.1033e-19
1.10336e-19
1.10337e-19
1.10333e-19
1.10321e-19
1.10298e-19
1.10255e-19
1.10192e-19
4.47277e-19
4.47673e-19
4.47952e-19
4.48135e-19
4.48254e-19
4.48325e-19
4.48361e-19
4.4837e-19
4.48361e-19
4.48338e-19
4.48308e-19
4.48272e-19
4.48234e-19
4.48195e-19
4.48157e-19
4.4812e-19
4.48085e-19
4.48052e-19
4.48021e-19
4.47993e-19
4.47968e-19
4.47945e-19
4.47925e-19
4.47907e-19
4.47893e-19
4.4788e-19
4.47871e-19
4.47863e-19
4.47858e-19
4.47856e-19
4.47856e-19
4.47858e-19
4.47863e-19
4.47871e-19
4.4788e-19
4.47893e-19
4.47907e-19
4.47925e-19
4.47945e-19
4.47968e-19
4.47993e-19
4.48021e-19
4.48052e-19
4.48085e-19
4.4812e-19
4.48157e-19
4.48195e-19
4.48234e-19
4.48272e-19
4.48308e-19
4.48338e-19
4.48361e-19
4.4837e-19
4.48361e-19
4.48325e-19
4.48254e-19
4.48135e-19
4.47952e-19
4.47673e-19
4.47277e-19
1.87412e-18
1.87639e-18
1.87801e-18
1.87916e-18
1.87996e-18
1.8805e-18
1.88084e-18
1.88102e-18
1.88109e-18
1.88109e-18
1.88103e-18
1.88093e-18
1.88082e-18
1.8807e-18
1.88057e-18
1.88045e-18
1.88032e-18
1.88021e-18
1.8801e-18
1.88e-18
1.87991e-18
1.87983e-18
1.87976e-18
1.8797e-18
1.87964e-18
1.8796e-18
1.87956e-18
1.87954e-18
1.87952e-18
1.87951e-18
1.87951e-18
1.87952e-18
1.87954e-18
1.87956e-18
1.8796e-18
1.87964e-18
1.8797e-18
1.87976e-18
1.87983e-18
1.87991e-18
1.88e-18
1.8801e-18
1.88021e-18
1.88032e-18
1.88045e-18
1.88057e-18
1.8807e-18
1.88082e-18
1.88093e-18
1.88103e-18
1.88109e-18
1.88109e-18
1.88102e-18
1.88084e-18
1.8805e-18
1.87996e-18
1.87916e-18
1.87801e-18
1.87639e-18
1.87412e-18
8.10947e-18
8.12195e-18
8.13097e-18
8.13765e-18
8.14251e-18
8.14592e-18
8.1482e-18
8.14963e-18
8.15043e-18
8.15079e-18
8.15084e-18
8.15069e-18
8.15041e-18
8.15004e-18
8.14964e-18
8.14922e-18
8.14881e-18
8.1484e-18
8.14802e-18
8.14767e-18
8.14735e-18
8.14706e-18
8.1468e-18
8.14658e-18
8.14639e-18
8.14623e-18
8.1461e-18
8.14601e-18
8.14595e-18
8.14592e-18
8.14592e-18
8.14595e-18
8.14601e-18
8.1461e-18
8.14623e-18
8.14639e-18
8.14658e-18
8.1468e-18
8.14706e-18
8.14735e-18
8.14767e-18
8.14802e-18
8.1484e-18
8.14881e-18
8.14922e-18
8.14964e-18
8.15004e-18
8.15041e-18
8.15069e-18
8.15084e-18
8.15079e-18
8.15043e-18
8.14963e-18
8.1482e-18
8.14592e-18
8.14251e-18
8.13765e-18
8.13097e-18
8.12195e-18
8.10947e-18
3.62335e-17
3.6301e-17
3.63506e-17
3.63884e-17
3.64165e-17
3.64367e-17
3.64507e-17
3.646e-17
3.64658e-17
3.64691e-17
3.64708e-17
3.64712e-17
3.64708e-17
3.64699e-17
3.64688e-17
3.64674e-17
3.64661e-17
3.64647e-17
3.64634e-17
3.64621e-17
3.6461e-17
3.64599e-17
3.6459e-17
3.64582e-17
3.64575e-17
3.64569e-17
3.64565e-17
3.64561e-17
3.64559e-17
3.64558e-17
3.64558e-17
3.64559e-17
3.64561e-17
3.64565e-17
3.64569e-17
3.64575e-17
3.64582e-17
3.6459e-17
3.64599e-17
3.6461e-17
3.64621e-17
3.64634e-17
3.64647e-17
3.64661e-17
3.64674e-17
3.64688e-17
3.64699e-17
3.64708e-17
3.64712e-17
3.64708e-17
3.64691e-17
3.64658e-17
3.646e-17
3.64507e-17
3.64367e-17
3.64165e-17
3.63884e-17
3.63506e-17
3.6301e-17
3.62335e-17
1.67073e-16
1.67437e-16
1.6771e-16
1.67922e-16
1.68082e-16
1.68198e-16
1.68281e-16
1.68337e-16
1.68375e-16
1.68398e-16
1.68412e-16
1.68419e-16
1.68421e-16
1.68421e-16
1.68418e-16
1.68414e-16
1.6841e-16
1.68405e-16
1.68401e-16
1.68396e-16
1.68392e-16
1.68388e-16
1.68385e-16
1.68382e-16
1.6838e-16
1.68378e-16
1.68376e-16
1.68375e-16
1.68374e-16
1.68373e-16
1.68373e-16
1.68374e-16
1.68375e-16
1.68376e-16
1.68378e-16
1.6838e-16
1.68382e-16
1.68385e-16
1.68388e-16
1.68392e-16
1.68396e-16
1.68401e-16
1.68405e-16
1.6841e-16
1.68414e-16
1.68418e-16
1.68421e-16
1.68421e-16
1.68419e-16
1.68412e-16
1.68398e-16
1.68375e-16
1.68337e-16
1.68281e-16
1.68198e-16
1.68082e-16
1.67922e-16
1.6771e-16
1.67437e-16
1.67073e-16
7.94205e-16
7.96185e-16
7.97699e-16
7.98889e-16
7.99793e-16
8.0046e-16
8.00939e-16
8.01274e-16
8.01502e-16
8.01652e-16
8.01747e-16
8.01803e-16
8.01832e-16
8.01844e-16
8.01844e-16
8.01836e-16
8.01824e-16
8.0181e-16
8.01795e-16
8.0178e-16
8.01765e-16
8.01752e-16
8.0174e-16
8.01729e-16
8.0172e-16
8.01712e-16
8.01706e-16
8.01701e-16
8.01698e-16
8.01697e-16
8.01697e-16
8.01698e-16
8.01701e-16
8.01706e-16
8.01712e-16
8.0172e-16
8.01729e-16
8.0174e-16
8.01752e-16
8.01765e-16
8.0178e-16
8.01795e-16
8.0181e-16
8.01824e-16
8.01836e-16
8.01844e-16
8.01844e-16
8.01832e-16
8.01803e-16
8.01747e-16
8.01652e-16
8.01502e-16
8.01274e-16
8.00939e-16
8.0046e-16
7.99793e-16
7.98889e-16
7.97699e-16
7.96185e-16
7.94205e-16
3.88624e-15
3.8971e-15
3.90558e-15
3.91231e-15
3.91746e-15
3.92128e-15
3.92405e-15
3.92602e-15
3.92737e-15
3.92829e-15
3.9289e-15
3.92928e-15
3.92951e-15
3.92964e-15
3.92969e-15
3.9297e-15
3.92968e-15
3.92964e-15
3.9296e-15
3.92955e-15
3.9295e-15
3.92945e-15
3.92941e-15
3.92937e-15
3.92933e-15
3.9293e-15
3.92928e-15
3.92926e-15
3.92925e-15
3.92925e-15
3.92925e-15
3.92925e-15
3.92926e-15
3.92928e-15
3.9293e-15
3.92933e-15
3.92937e-15
3.92941e-15
3.92945e-15
3.9295e-15
3.92955e-15
3.9296e-15
3.92964e-15
3.92968e-15
3.9297e-15
3.92969e-15
3.92964e-15
3.92951e-15
3.92928e-15
3.9289e-15
3.92829e-15
3.92737e-15
3.92602e-15
3.92405e-15
3.92128e-15
3.91746e-15
3.91231e-15
3.90558e-15
3.8971e-15
3.88624e-15
1.95345e-14
1.95948e-14
1.96429e-14
1.96813e-14
1.97108e-14
1.97328e-14
1.97489e-14
1.97604e-14
1.97684e-14
1.97739e-14
1.97777e-14
1.97801e-14
1.97817e-14
1.97826e-14
1.97832e-14
1.97834e-14
1.97835e-14
1.97834e-14
1.97833e-14
1.97832e-14
1.9783e-14
1.97829e-14
1.97827e-14
1.97826e-14
1.97824e-14
1.97823e-14
1.97822e-14
1.97822e-14
1.97821e-14
1.97821e-14
1.97821e-14
1.97821e-14
1.97822e-14
1.97822e-14
1.97823e-14
1.97824e-14
1.97826e-14
1.97827e-14
1.97829e-14
1.9783e-14
1.97832e-14
1.97833e-14
1.97834e-14
1.97835e-14
1.97834e-14
1.97832e-14
1.97826e-14
1.97817e-14
1.97801e-14
1.97777e-14
1.97739e-14
1.97684e-14
1.97604e-14
1.97489e-14
1.97328e-14
1.97108e-14
1.96813e-14
1.96429e-14
1.95948e-14
1.95345e-14
1.00602e-13
1.00941e-13
1.01216e-13
1.01437e-13
1.01608e-13
1.01736e-13
1.0183e-13
1.01897e-13
1.01944e-13
1.01977e-13
1.02e-13
1.02015e-13
1.02025e-13
1.02032e-13
1.02036e-13
1.02038e-13
1.02039e-13
1.0204e-13
1.0204e-13
1.02039e-13
1.02039e-13
1.02038e-13
1.02038e-13
1.02037e-13
1.02037e-13
1.02036e-13
1.02036e-13
1.02036e-13
1.02036e-13
1.02036e-13
1.02036e-13
1.02036e-13
1.02036e-13
1.02036e-13
1.02036e-13
1.02037e-13
1.02037e-13
1.02038e-13
1.02038e-13
1.02039e-13
1.02039e-13
1.0204e-13
1.0204e-13
1.02039e-13
1.02038e-13
1.02036e-13
1.02032e-13
1.02025e-13
1.02015e-13
1.02e-13
1.01977e-13
1.01944e-13
1.01897e-13
1.0183e-13
1.01736e-13
1.01608e-13
1.01437e-13
1.01216e-13
1.00941e-13
1.00602e-13
5.29084e-13
5.3101e-13
5.32601e-13
5.33886e-13
5.3488e-13
5.35626e-13
5.36175e-13
5.3657e-13
5.36851e-13
5.37048e-13
5.37184e-13
5.37277e-13
5.3734e-13
5.37381e-13
5.37408e-13
5.37424e-13
5.37434e-13
5.3744e-13
5.37442e-13
5.37442e-13
5.37442e-13
5.3744e-13
5.37439e-13
5.37437e-13
5.37435e-13
5.37434e-13
5.37433e-13
5.37432e-13
5.37431e-13
5.37431e-13
5.37431e-13
5.37431e-13
5.37432e-13
5.37433e-13
5.37434e-13
5.37435e-13
5.37437e-13
5.37439e-13
5.3744e-13
5.37442e-13
5.37442e-13
5.37442e-13
5.3744e-13
5.37434e-13
5.37424e-13
5.37408e-13
5.37381e-13
5.3734e-13
5.37277e-13
5.37184e-13
5.37048e-13
5.36851e-13
5.3657e-13
5.36175e-13
5.35626e-13
5.3488e-13
5.33886e-13
5.32601e-13
5.3101e-13
5.29084e-13
2.83034e-12
2.84137e-12
2.85063e-12
2.85813e-12
2.86395e-12
2.86832e-12
2.87154e-12
2.87387e-12
2.87554e-12
2.87671e-12
2.87753e-12
2.87809e-12
2.87847e-12
2.87873e-12
2.8789e-12
2.87901e-12
2.87908e-12
2.87913e-12
2.87915e-12
2.87916e-12
2.87917e-12
2.87917e-12
2.87916e-12
2.87916e-12
2.87915e-12
2.87915e-12
2.87914e-12
2.87914e-12
2.87914e-12
2.87914e-12
2.87914e-12
2.87914e-12
2.87914e-12
2.87914e-12
2.87915e-12
2.87915e-12
2.87916e-12
2.87916e-12
2.87917e-12
2.87917e-12
2.87916e-12
2.87915e-12
2.87913e-12
2.87908e-12
2.87901e-12
2.8789e-12
2.87873e-12
2.87847e-12
2.87809e-12
2.87753e-12
2.87671e-12
2.87554e-12
2.87387e-12
2.87154e-12
2.86832e-12
2.86395e-12
2.85813e-12
2.85063e-12
2.84137e-12
2.83034e-12
1.53284e-11
1.53919e-11
1.54459e-11
1.54898e-11
1.55238e-11
1.55495e-11
1.55684e-11
1.55821e-11
1.5592e-11
1.55989e-11
1.56038e-11
1.56072e-11
1.56095e-11
1.56111e-11
1.56122e-11
1.56129e-11
1.56134e-11
1.56136e-11
1.56138e-11
1.56139e-11
1.5614e-11
1.5614e-11
1.5614e-11
1.5614e-11
1.5614e-11
1.5614e-11
1.5614e-11
1.5614e-11
1.5614e-11
1.5614e-11
1.5614e-11
1.5614e-11
1.5614e-11
1.5614e-11
1.5614e-11
1.5614e-11
1.5614e-11
1.5614e-11
1.5614e-11
1.5614e-11
1.56139e-11
1.56138e-11
1.56136e-11
1.56134e-11
1.56129e-11
1.56122e-11
1.56111e-11
1.56095e-11
1.56072e-11
1.56038e-11
1.55989e-11
1.5592e-11
1.55821e-11
1.55684e-11
1.55495e-11
1.55238e-11
1.54898e-11
1.54459e-11
1.53919e-11
1.53284e-11
8.35766e-11
8.39419e-11
8.42559e-11
8.45116e-11
8.47102e-11
8.48601e-11
8.49709e-11
8.50514e-11
8.51091e-11
8.51501e-11
8.51789e-11
8.5199e-11
8.5213e-11
8.52226e-11
8.52292e-11
8.52336e-11
8.52366e-11
8.52386e-11
8.52398e-11
8.52406e-11
8.52411e-11
8.52414e-11
8.52415e-11
8.52415e-11
8.52415e-11
8.52415e-11
8.52415e-11
8.52414e-11
8.52414e-11
8.52414e-11
8.52414e-11
8.52414e-11
8.52414e-11
8.52415e-11
8.52415e-11
8.52415e-11
8.52415e-11
8.52415e-11
8.52414e-11
8.52411e-11
8.52406e-11
8.52398e-11
8.52386e-11
8.52366e-11
8.52336e-11
8.52292e-11
8.52226e-11
8.5213e-11
8.5199e-11
8.51789e-11
8.51501e-11
8.51091e-11
8.50514e-11
8.49709e-11
8.48601e-11
8.47102e-11
8.45116e-11
8.42559e-11
8.39419e-11
8.35766e-11
4.55816e-10
4.57903e-10
4.59713e-10
4.61189e-10
4.62336e-10
4.63203e-10
4.63844e-10
4.64311e-10
4.64646e-10
4.64885e-10
4.65053e-10
4.65171e-10
4.65254e-10
4.65311e-10
4.6535e-10
4.65377e-10
4.65395e-10
4.65408e-10
4.65416e-10
4.65421e-10
4.65425e-10
4.65427e-10
4.65428e-10
4.65429e-10
4.65429e-10
4.65429e-10
4.65429e-10
4.65429e-10
4.65429e-10
4.65429e-10
4.65429e-10
4.65429e-10
4.65429e-10
4.65429e-10
4.65429e-10
4.65429e-10
4.65429e-10
4.65428e-10
4.65427e-10
4.65425e-10
4.65421e-10
4.65416e-10
4.65408e-10
4.65395e-10
4.65377e-10
4.6535e-10
4.65311e-10
4.65254e-10
4.65171e-10
4.65053e-10
4.64885e-10
4.64646e-10
4.64311e-10
4.63844e-10
4.63203e-10
4.62336e-10
4.61189e-10
4.59713e-10
4.57903e-10
4.55816e-10
2.46818e-09
2.47993e-09
2.49019e-09
2.49856e-09
2.50508e-09
2.51e-09
2.51365e-09
2.51631e-09
2.51822e-09
2.51959e-09
2.52055e-09
2.52123e-09
2.5217e-09
2.52204e-09
2.52227e-09
2.52242e-09
2.52253e-09
2.52261e-09
2.52266e-09
2.52269e-09
2.52272e-09
2.52273e-09
2.52274e-09
2.52274e-09
2.52275e-09
2.52275e-09
2.52275e-09
2.52275e-09
2.52275e-09
2.52275e-09
2.52275e-09
2.52275e-09
2.52275e-09
2.52275e-09
2.52275e-09
2.52275e-09
2.52274e-09
2.52274e-09
2.52273e-09
2.52272e-09
2.52269e-09
2.52266e-09
2.52261e-09
2.52253e-09
2.52242e-09
2.52227e-09
2.52204e-09
2.5217e-09
2.52123e-09
2.52055e-09
2.51959e-09
2.51822e-09
2.51631e-09
2.51365e-09
2.51e-09
2.50508e-09
2.49856e-09
2.49019e-09
2.47993e-09
2.46818e-09
1.31572e-08
1.32218e-08
1.32786e-08
1.33249e-08
1.3361e-08
1.33882e-08
1.34084e-08
1.34232e-08
1.34338e-08
1.34414e-08
1.34468e-08
1.34506e-08
1.34532e-08
1.34551e-08
1.34564e-08
1.34573e-08
1.34579e-08
1.34584e-08
1.34587e-08
1.34589e-08
1.3459e-08
1.34591e-08
1.34592e-08
1.34592e-08
1.34592e-08
1.34592e-08
1.34593e-08
1.34593e-08
1.34593e-08
1.34593e-08
1.34593e-08
1.34593e-08
1.34593e-08
1.34593e-08
1.34592e-08
1.34592e-08
1.34592e-08
1.34592e-08
1.34591e-08
1.3459e-08
1.34589e-08
1.34587e-08
1.34584e-08
1.34579e-08
1.34573e-08
1.34564e-08
1.34551e-08
1.34532e-08
1.34506e-08
1.34468e-08
1.34414e-08
1.34338e-08
1.34232e-08
1.34084e-08
1.33882e-08
1.3361e-08
1.33249e-08
1.32786e-08
1.32218e-08
1.31572e-08
6.83942e-08
6.87379e-08
6.90408e-08
6.92882e-08
6.94808e-08
6.96265e-08
6.97345e-08
6.98134e-08
6.98703e-08
6.9911e-08
6.99399e-08
6.99604e-08
6.99748e-08
6.99849e-08
6.9992e-08
6.99969e-08
7.00004e-08
7.00028e-08
7.00045e-08
7.00056e-08
7.00064e-08
7.00069e-08
7.00073e-08
7.00075e-08
7.00077e-08
7.00078e-08
7.00079e-08
7.00079e-08
7.00079e-08
7.00079e-08
7.00079e-08
7.00079e-08
7.00079e-08
7.00079e-08
7.00078e-08
7.00077e-08
7.00075e-08
7.00073e-08
7.00069e-08
7.00064e-08
7.00056e-08
7.00045e-08
7.00028e-08
7.00004e-08
6.99969e-08
6.9992e-08
6.99849e-08
6.99748e-08
6.99604e-08
6.99399e-08
6.9911e-08
6.98703e-08
6.98134e-08
6.97345e-08
6.96265e-08
6.94808e-08
6.92882e-08
6.90408e-08
6.87379e-08
6.83942e-08
3.43043e-07
3.44792e-07
3.46336e-07
3.47596e-07
3.48578e-07
3.49321e-07
3.49872e-07
3.50275e-07
3.50565e-07
3.50774e-07
3.50922e-07
3.51027e-07
3.51101e-07
3.51153e-07
3.51189e-07
3.51215e-07
3.51233e-07
3.51246e-07
3.51255e-07
3.51261e-07
3.51265e-07
3.51268e-07
3.5127e-07
3.51272e-07
3.51273e-07
3.51273e-07
3.51274e-07
3.51274e-07
3.51274e-07
3.51274e-07
3.51274e-07
3.51274e-07
3.51274e-07
3.51274e-07
3.51273e-07
3.51273e-07
3.51272e-07
3.5127e-07
3.51268e-07
3.51265e-07
3.51261e-07
3.51255e-07
3.51246e-07
3.51233e-07
3.51215e-07
3.51189e-07
3.51153e-07
3.51101e-07
3.51027e-07
3.50922e-07
3.50774e-07
3.50565e-07
3.50275e-07
3.49872e-07
3.49321e-07
3.48578e-07
3.47596e-07
3.46336e-07
3.44792e-07
3.43043e-07
1.64098e-06
1.64938e-06
1.6568e-06
1.66286e-06
1.66757e-06
1.67114e-06
1.67379e-06
1.67573e-06
1.67713e-06
1.67813e-06
1.67884e-06
1.67935e-06
1.67971e-06
1.67996e-06
1.68014e-06
1.68027e-06
1.68036e-06
1.68042e-06
1.68046e-06
1.68049e-06
1.68052e-06
1.68053e-06
1.68054e-06
1.68055e-06
1.68055e-06
1.68056e-06
1.68056e-06
1.68056e-06
1.68056e-06
1.68056e-06
1.68056e-06
1.68056e-06
1.68056e-06
1.68056e-06
1.68056e-06
1.68055e-06
1.68055e-06
1.68054e-06
1.68053e-06
1.68052e-06
1.68049e-06
1.68046e-06
1.68042e-06
1.68036e-06
1.68027e-06
1.68014e-06
1.67996e-06
1.67971e-06
1.67935e-06
1.67884e-06
1.67813e-06
1.67713e-06
1.67573e-06
1.67379e-06
1.67114e-06
1.66757e-06
1.66286e-06
1.6568e-06
1.64938e-06
1.64098e-06
7.39215e-06
7.42975e-06
7.46292e-06
7.48997e-06
7.51103e-06
7.52697e-06
7.5388e-06
7.54746e-06
7.55372e-06
7.55821e-06
7.56141e-06
7.56368e-06
7.5653e-06
7.56644e-06
7.56725e-06
7.56782e-06
7.56822e-06
7.56851e-06
7.56871e-06
7.56885e-06
7.56895e-06
7.56902e-06
7.56907e-06
7.56911e-06
7.56913e-06
7.56915e-06
7.56916e-06
7.56917e-06
7.56917e-06
7.56918e-06
7.56918e-06
7.56917e-06
7.56917e-06
7.56916e-06
7.56915e-06
7.56913e-06
7.56911e-06
7.56907e-06
7.56902e-06
7.56895e-06
7.56885e-06
7.56871e-06
7.56851e-06
7.56822e-06
7.56782e-06
7.56725e-06
7.56644e-06
7.5653e-06
7.56368e-06
7.56141e-06
7.55821e-06
7.55372e-06
7.54746e-06
7.5388e-06
7.52697e-06
7.51103e-06
7.48997e-06
7.46292e-06
7.42975e-06
7.39215e-06
3.09294e-05
3.10837e-05
3.12195e-05
3.13301e-05
3.14161e-05
3.14813e-05
3.15297e-05
3.15651e-05
3.15907e-05
3.16091e-05
3.16222e-05
3.16315e-05
3.16382e-05
3.16429e-05
3.16462e-05
3.16486e-05
3.16503e-05
3.16515e-05
3.16523e-05
3.16529e-05
3.16533e-05
3.16536e-05
3.16539e-05
3.1654e-05
3.16541e-05
3.16542e-05
3.16542e-05
3.16543e-05
3.16543e-05
3.16543e-05
3.16543e-05
3.16543e-05
3.16543e-05
3.16542e-05
3.16542e-05
3.16541e-05
3.1654e-05
3.16539e-05
3.16536e-05
3.16533e-05
3.16529e-05
3.16523e-05
3.16515e-05
3.16503e-05
3.16486e-05
3.16462e-05
3.16429e-05
3.16382e-05
3.16315e-05
3.16222e-05
3.16091e-05
3.15907e-05
3.15651e-05
3.15297e-05
3.14813e-05
3.14161e-05
3.13301e-05
3.12195e-05
3.10837e-05
3.09294e-05
0.000118422
0.000118993
0.000119493
0.000119899
0.000120216
0.000120455
0.000120633
0.000120764
0.000120858
0.000120926
0.000120974
0.000121009
0.000121033
0.00012105
0.000121063
0.000121072
0.000121078
0.000121082
0.000121086
0.000121088
0.000121089
0.000121091
0.000121091
0.000121092
0.000121092
0.000121093
0.000121093
0.000121093
0.000121093
0.000121093
0.000121093
0.000121093
0.000121093
0.000121093
0.000121093
0.000121092
0.000121092
0.000121091
0.000121091
0.000121089
0.000121088
0.000121086
0.000121082
0.000121078
0.000121072
0.000121063
0.00012105
0.000121033
0.000121009
0.000120974
0.000120926
0.000120858
0.000120764
0.000120633
0.000120455
0.000120216
0.000119899
0.000119493
0.000118993
0.000118422
0.000408327
0.00041019
0.000411817
0.000413137
0.000414163
0.00041494
0.000415517
0.00041594
0.000416246
0.000416466
0.000416624
0.000416736
0.000416816
0.000416873
0.000416913
0.000416942
0.000416963
0.000416978
0.000416988
0.000416996
0.000417001
0.000417005
0.000417008
0.00041701
0.000417011
0.000417012
0.000417013
0.000417013
0.000417014
0.000417014
0.000417014
0.000417014
0.000417013
0.000417013
0.000417012
0.000417011
0.00041701
0.000417008
0.000417005
0.000417001
0.000416996
0.000416988
0.000416978
0.000416963
0.000416942
0.000416913
0.000416873
0.000416816
0.000416736
0.000416624
0.000416466
0.000416246
0.00041594
0.000415517
0.00041494
0.000414163
0.000413137
0.000411817
0.00041019
0.000408327
0.00124701
0.00125228
0.00125685
0.00126055
0.00126342
0.0012656
0.00126722
0.0012684
0.00126926
0.00126988
0.00127032
0.00127064
0.00127087
0.00127103
0.00127114
0.00127122
0.00127128
0.00127132
0.00127135
0.00127137
0.00127139
0.0012714
0.00127141
0.00127142
0.00127142
0.00127142
0.00127142
0.00127143
0.00127143
0.00127143
0.00127143
0.00127143
0.00127143
0.00127142
0.00127142
0.00127142
0.00127142
0.00127141
0.0012714
0.00127139
0.00127137
0.00127135
0.00127132
0.00127128
0.00127122
0.00127114
0.00127103
0.00127087
0.00127064
0.00127032
0.00126988
0.00126926
0.0012684
0.00126722
0.0012656
0.00126342
0.00126055
0.00125685
0.00125228
0.00124701
0.0033202
0.00333283
0.0033437
0.00335248
0.0033593
0.00336447
0.0033683
0.00337111
0.00337316
0.00337462
0.00337568
0.00337643
0.00337697
0.00337735
0.00337762
0.00337782
0.00337796
0.00337806
0.00337813
0.00337819
0.00337823
0.00337825
0.00337827
0.00337829
0.0033783
0.0033783
0.00337831
0.00337831
0.00337832
0.00337832
0.00337832
0.00337832
0.00337831
0.00337831
0.0033783
0.0033783
0.00337829
0.00337827
0.00337825
0.00337823
0.00337819
0.00337813
0.00337806
0.00337796
0.00337782
0.00337762
0.00337735
0.00337697
0.00337643
0.00337568
0.00337462
0.00337316
0.00337111
0.0033683
0.00336447
0.0033593
0.00335248
0.0033437
0.00333283
0.0033202
0.00761748
0.00764274
0.00766431
0.0076817
0.00769519
0.0077054
0.007713
0.00771856
0.0077226
0.00772552
0.00772761
0.0077291
0.00773017
0.00773093
0.00773148
0.00773187
0.00773216
0.00773236
0.00773251
0.00773261
0.00773269
0.00773274
0.00773279
0.00773281
0.00773284
0.00773285
0.00773286
0.00773287
0.00773287
0.00773288
0.00773288
0.00773287
0.00773287
0.00773286
0.00773285
0.00773284
0.00773281
0.00773279
0.00773274
0.00773269
0.00773261
0.00773251
0.00773236
0.00773216
0.00773187
0.00773148
0.00773093
0.00773017
0.0077291
0.00772761
0.00772552
0.0077226
0.00771856
0.007713
0.0077054
0.00769519
0.0076817
0.00766431
0.00764274
0.00761748
0.0150138
0.015056
0.0150916
0.0151203
0.0151425
0.0151594
0.0151719
0.0151811
0.0151877
0.0151925
0.015196
0.0151985
0.0152003
0.0152015
0.0152024
0.0152031
0.0152036
0.0152039
0.0152041
0.0152043
0.0152045
0.0152046
0.0152046
0.0152047
0.0152047
0.0152047
0.0152048
0.0152048
0.0152048
0.0152048
0.0152048
0.0152048
0.0152048
0.0152048
0.0152047
0.0152047
0.0152047
0.0152046
0.0152046
0.0152045
0.0152043
0.0152041
0.0152039
0.0152036
0.0152031
0.0152024
0.0152015
0.0152003
0.0151985
0.015196
0.0151925
0.0151877
0.0151811
0.0151719
0.0151594
0.0151425
0.0151203
0.0150916
0.015056
0.0150138
0.0256552
0.025715
0.0257651
0.0258052
0.0258363
0.0258599
0.0258774
0.0258902
0.0258996
0.0259064
0.0259112
0.0259147
0.0259172
0.025919
0.0259203
0.0259212
0.0259219
0.0259224
0.0259227
0.025923
0.0259232
0.0259233
0.0259234
0.0259235
0.0259236
0.0259236
0.0259236
0.0259236
0.0259237
0.0259237
0.0259237
0.0259237
0.0259236
0.0259236
0.0259236
0.0259236
0.0259235
0.0259234
0.0259233
0.0259232
0.025923
0.0259227
0.0259224
0.0259219
0.0259212
0.0259203
0.025919
0.0259172
0.0259147
0.0259112
0.0259064
0.0258996
0.0258902
0.0258774
0.0258599
0.0258363
0.0258052
0.0257651
0.025715
0.0256552
0.0388001
0.038875
0.038937
0.0389865
0.0390249
0.039054
0.0390756
0.0390915
0.0391031
0.0391115
0.0391176
0.0391219
0.039125
0.0391273
0.0391289
0.0391301
0.0391309
0.0391315
0.039132
0.0391323
0.0391325
0.0391327
0.0391328
0.0391329
0.039133
0.039133
0.0391331
0.0391331
0.0391331
0.0391331
0.0391331
0.0391331
0.0391331
0.0391331
0.039133
0.039133
0.0391329
0.0391328
0.0391327
0.0391325
0.0391323
0.039132
0.0391315
0.0391309
0.0391301
0.0391289
0.0391273
0.039125
0.0391219
0.0391176
0.0391115
0.0391031
0.0390915
0.0390756
0.039054
0.0390249
0.0389865
0.038937
0.038875
0.0388001
0.0533453
0.0534317
0.0535026
0.053559
0.0536028
0.053636
0.0536607
0.0536789
0.0536922
0.0537018
0.0537087
0.0537137
0.0537173
0.0537199
0.0537218
0.0537232
0.0537241
0.0537249
0.0537254
0.0537258
0.0537261
0.0537263
0.0537264
0.0537265
0.0537266
0.0537267
0.0537267
0.0537267
0.0537268
0.0537268
0.0537268
0.0537268
0.0537267
0.0537267
0.0537267
0.0537266
0.0537265
0.0537264
0.0537263
0.0537261
0.0537258
0.0537254
0.0537249
0.0537241
0.0537232
0.0537218
0.0537199
0.0537173
0.0537137
0.0537087
0.0537018
0.0536922
0.0536789
0.0536607
0.053636
0.0536028
0.053559
0.0535026
0.0534317
0.0533453
0.0684392
0.0685348
0.0686126
0.0686744
0.0687223
0.0687586
0.0687857
0.0688057
0.0688204
0.068831
0.0688387
0.0688442
0.0688482
0.0688511
0.0688532
0.0688547
0.0688558
0.0688566
0.0688572
0.0688576
0.068858
0.0688582
0.0688584
0.0688585
0.0688586
0.0688587
0.0688587
0.0688587
0.0688588
0.0688588
0.0688588
0.0688588
0.0688587
0.0688587
0.0688587
0.0688586
0.0688585
0.0688584
0.0688582
0.068858
0.0688576
0.0688572
0.0688566
0.0688558
0.0688547
0.0688532
0.0688511
0.0688482
0.0688442
0.0688387
0.068831
0.0688204
0.0688057
0.0687857
0.0687586
0.0687223
0.0686744
0.0686126
0.0685348
0.0684392
0.0836696
0.0837734
0.0838572
0.0839238
0.0839754
0.0840145
0.0840438
0.0840655
0.0840813
0.0840928
0.0841012
0.0841072
0.0841116
0.0841148
0.0841171
0.0841187
0.08412
0.0841209
0.0841215
0.084122
0.0841224
0.0841226
0.0841228
0.084123
0.0841231
0.0841231
0.0841232
0.0841232
0.0841233
0.0841233
0.0841233
0.0841233
0.0841232
0.0841232
0.0841231
0.0841231
0.084123
0.0841228
0.0841226
0.0841224
0.084122
0.0841215
0.0841209
0.08412
0.0841187
0.0841171
0.0841148
0.0841116
0.0841072
0.0841012
0.0840928
0.0840813
0.0840655
0.0840438
0.0840145
0.0839754
0.0839238
0.0838572
0.0837734
0.0836696
0.0989233
0.0990349
0.0991248
0.099196
0.0992512
0.0992932
0.0993246
0.0993479
0.099365
0.0993774
0.0993865
0.099393
0.0993978
0.0994013
0.0994038
0.0994056
0.099407
0.0994079
0.0994087
0.0994092
0.0994096
0.0994099
0.0994101
0.0994103
0.0994104
0.0994105
0.0994105
0.0994106
0.0994106
0.0994106
0.0994106
0.0994106
0.0994106
0.0994105
0.0994105
0.0994104
0.0994103
0.0994101
0.0994099
0.0994096
0.0994092
0.0994087
0.0994079
0.099407
0.0994056
0.0994038
0.0994013
0.0993978
0.099393
0.0993865
0.0993774
0.099365
0.0993479
0.0993246
0.0992932
0.0992512
0.099196
0.0991248
0.0990349
0.0989233
0.114206
0.114326
0.114422
0.114498
0.114556
0.114601
0.114635
0.11466
0.114678
0.114692
0.114702
0.114709
0.114714
0.114718
0.11472
0.114722
0.114724
0.114725
0.114726
0.114726
0.114727
0.114727
0.114727
0.114727
0.114728
0.114728
0.114728
0.114728
0.114728
0.114728
0.114728
0.114728
0.114728
0.114728
0.114728
0.114728
0.114727
0.114727
0.114727
0.114727
0.114726
0.114726
0.114725
0.114724
0.114722
0.11472
0.114718
0.114714
0.114709
0.114702
0.114692
0.114678
0.11466
0.114635
0.114601
0.114556
0.114498
0.114422
0.114326
0.114206
0.129545
0.129672
0.129774
0.129855
0.129918
0.129966
0.130002
0.130028
0.130048
0.130063
0.130073
0.130081
0.130086
0.130091
0.130094
0.130096
0.130097
0.130099
0.130099
0.1301
0.130101
0.130101
0.130101
0.130101
0.130101
0.130102
0.130102
0.130102
0.130102
0.130102
0.130102
0.130102
0.130102
0.130102
0.130102
0.130101
0.130101
0.130101
0.130101
0.130101
0.1301
0.130099
0.130099
0.130097
0.130096
0.130094
0.130091
0.130086
0.130081
0.130073
0.130063
0.130048
0.130028
0.130002
0.129966
0.129918
0.129855
0.129774
0.129672
0.129545
0.144957
0.145092
0.1452
0.145286
0.145352
0.145403
0.145441
0.14547
0.145491
0.145507
0.145518
0.145526
0.145532
0.145537
0.14554
0.145542
0.145544
0.145545
0.145546
0.145547
0.145548
0.145548
0.145548
0.145548
0.145549
0.145549
0.145549
0.145549
0.145549
0.145549
0.145549
0.145549
0.145549
0.145549
0.145549
0.145549
0.145548
0.145548
0.145548
0.145548
0.145547
0.145546
0.145545
0.145544
0.145542
0.14554
0.145537
0.145532
0.145526
0.145518
0.145507
0.145491
0.14547
0.145441
0.145403
0.145352
0.145286
0.1452
0.145092
0.144957
0.160446
0.160589
0.160703
0.160793
0.160864
0.160918
0.160958
0.160989
0.161011
0.161028
0.16104
0.161049
0.161056
0.16106
0.161064
0.161067
0.161068
0.16107
0.161071
0.161072
0.161072
0.161073
0.161073
0.161073
0.161073
0.161074
0.161074
0.161074
0.161074
0.161074
0.161074
0.161074
0.161074
0.161074
0.161074
0.161073
0.161073
0.161073
0.161073
0.161072
0.161072
0.161071
0.16107
0.161068
0.161067
0.161064
0.16106
0.161056
0.161049
0.16104
0.161028
0.161011
0.160989
0.160958
0.160918
0.160864
0.160793
0.160703
0.160589
0.160446
0.17601
0.17616
0.17628
0.176375
0.176449
0.176506
0.17655
0.176582
0.176606
0.176624
0.176637
0.176646
0.176653
0.176659
0.176662
0.176665
0.176667
0.176669
0.17667
0.176671
0.176671
0.176672
0.176672
0.176673
0.176673