/*--------------------------------*- C++ -*----------------------------------*\
| =========                 |                                                 |
| \\      /  F ield         | foam-extend: Open Source CFD                    |
|  \\    /   O peration     | Version:     4.0                                |
|   \\  /    A nd           | Web:         http://www.foam-extend.org         |
|    \\/     M anipulation  |                                                 |
\*---------------------------------------------------------------------------*/
FoamFile
{
    version     2.0;
    format      ascii;
    class       volScalarField;
    location    "16";
    object      dC1;
}
// * * * * * * * * * * * * * * * * * * * * * * * * * * * * * * * * * * * * * //

dimensions      [0 -1 0 0 0 0 0];

internalField   nonuniform List<scalar> 
6960
(
5.54196e-13
5.53817e-13
5.5419e-13
5.53382e-13
5.53812e-13
5.54538e-13
5.54233e-13
5.53127e-13
5.53869e-13
5.53187e-13
5.53787e-13
5.54364e-13
5.54258e-13
5.53697e-13
5.53986e-13
5.53497e-13
5.54069e-13
5.54365e-13
5.53497e-13
5.53872e-13
5.54942e-13
5.5509e-13
5.54649e-13
5.54152e-13
5.54246e-13
5.53726e-13
5.5413e-13
5.54817e-13
5.53424e-13
5.53232e-13
5.52897e-13
5.53579e-13
5.53909e-13
5.53246e-13
5.5411e-13
5.54746e-13
5.52806e-13
5.5305e-13
5.53387e-13
5.5479e-13
5.53963e-13
5.53782e-13
5.53251e-13
5.54412e-13
5.54709e-13
5.54585e-13
5.5446e-13
5.53881e-13
5.52719e-13
5.54406e-13
5.54025e-13
5.54229e-13
5.54276e-13
5.53264e-13
5.54486e-13
5.53566e-13
5.53998e-13
5.54798e-13
5.53934e-13
5.52757e-13
4.26608e-14
4.27978e-14
4.27076e-14
4.26647e-14
4.26586e-14
4.27935e-14
4.26803e-14
4.27631e-14
4.26707e-14
4.279e-14
4.26777e-14
4.27258e-14
4.27466e-14
4.26256e-14
4.27106e-14
4.27362e-14
4.26143e-14
4.26256e-14
4.26321e-14
4.25697e-14
4.27145e-14
4.26894e-14
4.27076e-14
4.27505e-14
4.26061e-14
4.27046e-14
4.26616e-14
4.25792e-14
4.25311e-14
4.27648e-14
4.26833e-14
4.26616e-14
4.27102e-14
4.28039e-14
4.27171e-14
4.26603e-14
4.26651e-14
4.26039e-14
4.26013e-14
4.27379e-14
4.27735e-14
4.27228e-14
4.26564e-14
4.26963e-14
4.2597e-14
4.27549e-14
4.28121e-14
4.25684e-14
4.2649e-14
4.26967e-14
4.27475e-14
4.26261e-14
4.26829e-14
4.26577e-14
4.27102e-14
4.27007e-14
4.27275e-14
4.26529e-14
4.26937e-14
4.2672e-14
-1.44499e-13
-1.44501e-13
-1.445e-13
-1.44536e-13
-1.44499e-13
-1.44558e-13
-1.44499e-13
-1.44472e-13
-1.44488e-13
-1.44557e-13
-1.44538e-13
-1.4453e-13
-1.44463e-13
-1.44499e-13
-1.44525e-13
-1.44494e-13
-1.44504e-13
-1.44511e-13
-1.44483e-13
-1.44511e-13
-1.44457e-13
-1.4447e-13
-1.44553e-13
-1.44509e-13
-1.44471e-13
-1.44517e-13
-1.44499e-13
-1.44482e-13
-1.44479e-13
-1.44519e-13
-1.44447e-13
-1.44505e-13
-1.44456e-13
-1.44524e-13
-1.44505e-13
-1.44519e-13
-1.44471e-13
-1.44449e-13
-1.44489e-13
-1.44482e-13
-1.44548e-13
-1.4452e-13
-1.44525e-13
-1.44526e-13
-1.4452e-13
-1.44457e-13
-1.44543e-13
-1.4445e-13
-1.445e-13
-1.44494e-13
-1.44541e-13
-1.44484e-13
-1.44508e-13
-1.4448e-13
-1.44514e-13
-1.44513e-13
-1.44595e-13
-1.44469e-13
-1.4453e-13
-1.44465e-13
-2.87981e-13
-2.87932e-13
-2.87952e-13
-2.87981e-13
-2.87963e-13
-2.87977e-13
-2.87946e-13
-2.87993e-13
-2.87979e-13
-2.87941e-13
-2.87952e-13
-2.87975e-13
-2.88017e-13
-2.87976e-13
-2.8797e-13
-2.87992e-13
-2.87955e-13
-2.87989e-13
-2.88001e-13
-2.8796e-13
-2.87998e-13
-2.87979e-13
-2.87946e-13
-2.87942e-13
-2.87961e-13
-2.87939e-13
-2.87963e-13
-2.87995e-13
-2.87975e-13
-2.87975e-13
-2.87996e-13
-2.87971e-13
-2.87985e-13
-2.87956e-13
-2.88001e-13
-2.87966e-13
-2.88012e-13
-2.87995e-13
-2.87946e-13
-2.87962e-13
-2.87943e-13
-2.87974e-13
-2.87972e-13
-2.87971e-13
-2.87946e-13
-2.88004e-13
-2.87986e-13
-2.88006e-13
-2.87963e-13
-2.87995e-13
-2.87964e-13
-2.87985e-13
-2.87943e-13
-2.87938e-13
-2.8797e-13
-2.87973e-13
-2.87937e-13
-2.87981e-13
-2.87971e-13
-2.87984e-13
-3.84666e-13
-3.84694e-13
-3.84665e-13
-3.84652e-13
-3.84714e-13
-3.84652e-13
-3.84676e-13
-3.8466e-13
-3.84663e-13
-3.84674e-13
-3.8467e-13
-3.8468e-13
-3.84688e-13
-3.84679e-13
-3.84705e-13
-3.84715e-13
-3.84655e-13
-3.84636e-13
-3.84652e-13
-3.84682e-13
-3.84639e-13
-3.84672e-13
-3.84687e-13
-3.84662e-13
-3.84661e-13
-3.84661e-13
-3.84665e-13
-3.84653e-13
-3.84646e-13
-3.84675e-13
-3.84657e-13
-3.8469e-13
-3.84657e-13
-3.84682e-13
-3.84643e-13
-3.84677e-13
-3.84686e-13
-3.84661e-13
-3.8469e-13
-3.84669e-13
-3.84716e-13
-3.84679e-13
-3.84684e-13
-3.84665e-13
-3.8467e-13
-3.84656e-13
-3.84678e-13
-3.84678e-13
-3.84653e-13
-3.84672e-13
-3.84704e-13
-3.84681e-13
-3.84671e-13
-3.84703e-13
-3.84654e-13
-3.84678e-13
-3.84699e-13
-3.84688e-13
-3.84675e-13
-3.84649e-13
-4.57958e-13
-4.57955e-13
-4.57967e-13
-4.57983e-13
-4.57951e-13
-4.57985e-13
-4.57968e-13
-4.57981e-13
-4.57944e-13
-4.57962e-13
-4.5795e-13
-4.57988e-13
-4.57958e-13
-4.57952e-13
-4.57953e-13
-4.57946e-13
-4.57941e-13
-4.57992e-13
-4.57957e-13
-4.57969e-13
-4.57954e-13
-4.57997e-13
-4.57954e-13
-4.57968e-13
-4.57948e-13
-4.57997e-13
-4.57967e-13
-4.57983e-13
-4.57957e-13
-4.57983e-13
-4.57971e-13
-4.57965e-13
-4.57974e-13
-4.57946e-13
-4.57968e-13
-4.57987e-13
-4.5796e-13
-4.57966e-13
-4.57954e-13
-4.57964e-13
-4.57938e-13
-4.57969e-13
-4.57968e-13
-4.57968e-13
-4.57972e-13
-4.57964e-13
-4.57982e-13
-4.57953e-13
-4.57988e-13
-4.57945e-13
-4.57959e-13
-4.57967e-13
-4.57952e-13
-4.57939e-13
-4.57971e-13
-4.57964e-13
-4.57941e-13
-4.57975e-13
-4.57972e-13
-4.57967e-13
-5.37049e-13
-5.37057e-13
-5.37031e-13
-5.37038e-13
-5.37045e-13
-5.37034e-13
-5.37037e-13
-5.37045e-13
-5.37054e-13
-5.37041e-13
-5.37029e-13
-5.37055e-13
-5.3706e-13
-5.37047e-13
-5.37054e-13
-5.37056e-13
-5.37046e-13
-5.37047e-13
-5.37057e-13
-5.37023e-13
-5.37038e-13
-5.37043e-13
-5.37035e-13
-5.37028e-13
-5.37041e-13
-5.37035e-13
-5.37044e-13
-5.37052e-13
-5.37056e-13
-5.3704e-13
-5.37051e-13
-5.37035e-13
-5.37041e-13
-5.37034e-13
-5.37057e-13
-5.37043e-13
-5.37051e-13
-5.37031e-13
-5.37041e-13
-5.37033e-13
-5.37054e-13
-5.37045e-13
-5.37034e-13
-5.37056e-13
-5.37031e-13
-5.37039e-13
-5.37016e-13
-5.37037e-13
-5.37045e-13
-5.37043e-13
-5.37034e-13
-5.37053e-13
-5.37046e-13
-5.37053e-13
-5.37049e-13
-5.37047e-13
-5.37029e-13
-5.37038e-13
-5.37046e-13
-5.37048e-13
-6.18476e-13
-6.18468e-13
-6.1848e-13
-6.18482e-13
-6.1848e-13
-6.18491e-13
-6.18502e-13
-6.18482e-13
-6.18474e-13
-6.18471e-13
-6.1849e-13
-6.18479e-13
-6.18457e-13
-6.18471e-13
-6.18475e-13
-6.18463e-13
-6.18483e-13
-6.18492e-13
-6.18471e-13
-6.18458e-13
-6.18465e-13
-6.18488e-13
-6.18473e-13
-6.18494e-13
-6.18447e-13
-6.18506e-13
-6.18487e-13
-6.18479e-13
-6.18483e-13
-6.18479e-13
-6.18467e-13
-6.18511e-13
-6.18476e-13
-6.1848e-13
-6.18483e-13
-6.18499e-13
-6.18488e-13
-6.18494e-13
-6.18488e-13
-6.18481e-13
-6.18484e-13
-6.18482e-13
-6.18495e-13
-6.18455e-13
-6.18493e-13
-6.18463e-13
-6.18491e-13
-6.18467e-13
-6.18468e-13
-6.18473e-13
-6.18508e-13
-6.18473e-13
-6.18488e-13
-6.18479e-13
-6.18469e-13
-6.18491e-13
-6.18458e-13
-6.18473e-13
-6.1846e-13
-6.18479e-13
-6.30726e-13
-6.30773e-13
-6.30722e-13
-6.30735e-13
-6.30711e-13
-6.30733e-13
-6.30738e-13
-6.30733e-13
-6.30739e-13
-6.30776e-13
-6.30758e-13
-6.30729e-13
-6.3078e-13
-6.30713e-13
-6.30735e-13
-6.30728e-13
-6.30742e-13
-6.30697e-13
-6.30757e-13
-6.30766e-13
-6.30754e-13
-6.30728e-13
-6.30749e-13
-6.30729e-13
-6.30766e-13
-6.30719e-13
-6.30728e-13
-6.30723e-13
-6.30732e-13
-6.30729e-13
-6.30713e-13
-6.30722e-13
-6.30714e-13
-6.30716e-13
-6.30707e-13
-6.30736e-13
-6.30741e-13
-6.30722e-13
-6.30721e-13
-6.30745e-13
-6.30754e-13
-6.30727e-13
-6.30735e-13
-6.30723e-13
-6.30745e-13
-6.30726e-13
-6.30739e-13
-6.30755e-13
-6.30711e-13
-6.3071e-13
-6.30707e-13
-6.30754e-13
-6.30723e-13
-6.30732e-13
-6.30723e-13
-6.30744e-13
-6.3073e-13
-6.30758e-13
-6.30754e-13
-6.30733e-13
-4.33258e-13
-4.33207e-13
-4.3324e-13
-4.33255e-13
-4.33247e-13
-4.33248e-13
-4.33223e-13
-4.33243e-13
-4.3323e-13
-4.33204e-13
-4.33217e-13
-4.33222e-13
-4.33203e-13
-4.33264e-13
-4.33237e-13
-4.33243e-13
-4.33217e-13
-4.33255e-13
-4.33223e-13
-4.33227e-13
-4.33253e-13
-4.33217e-13
-4.33212e-13
-4.33257e-13
-4.33229e-13
-4.33248e-13
-4.33227e-13
-4.3326e-13
-4.33232e-13
-4.33238e-13
-4.33257e-13
-4.33212e-13
-4.33277e-13
-4.3325e-13
-4.33237e-13
-4.33221e-13
-4.33216e-13
-4.3327e-13
-4.33225e-13
-4.33237e-13
-4.33224e-13
-4.33231e-13
-4.33238e-13
-4.33229e-13
-4.33235e-13
-4.33256e-13
-4.33237e-13
-4.33217e-13
-4.33258e-13
-4.33267e-13
-4.33205e-13
-4.33222e-13
-4.33233e-13
-4.33232e-13
-4.33257e-13
-4.33222e-13
-4.33248e-13
-4.33238e-13
-4.33247e-13
-4.33237e-13
9.26082e-14
9.26078e-14
9.26169e-14
9.26039e-14
9.25943e-14
9.26143e-14
9.26008e-14
9.2603e-14
9.26139e-14
9.26021e-14
9.2629e-14
9.25813e-14
9.25861e-14
9.26269e-14
9.26191e-14
9.25861e-14
9.25883e-14
9.26351e-14
9.26147e-14
9.26178e-14
9.26451e-14
9.26182e-14
9.25713e-14
9.26225e-14
9.26152e-14
9.26186e-14
9.26199e-14
9.26152e-14
9.26165e-14
9.2623e-14
9.26112e-14
9.25839e-14
9.26347e-14
9.2603e-14
9.26112e-14
9.25887e-14
9.25831e-14
9.26342e-14
9.25943e-14
9.26173e-14
9.26338e-14
9.26104e-14
9.26303e-14
9.2613e-14
9.25926e-14
9.26108e-14
9.25965e-14
9.26021e-14
9.25974e-14
9.26425e-14
9.25909e-14
9.2564e-14
9.26217e-14
9.25917e-14
9.26338e-14
9.26073e-14
9.26169e-14
9.2626e-14
9.26342e-14
9.26004e-14
8.30807e-13
8.30812e-13
8.30823e-13
8.30785e-13
8.30813e-13
8.30793e-13
8.30833e-13
8.30818e-13
8.30764e-13
8.30792e-13
8.3076e-13
8.30833e-13
8.30805e-13
8.30799e-13
8.30795e-13
8.30828e-13
8.30831e-13
8.30774e-13
8.3078e-13
8.30795e-13
8.30762e-13
8.30801e-13
8.30812e-13
8.30792e-13
8.3081e-13
8.30783e-13
8.3081e-13
8.30812e-13
8.30792e-13
8.30776e-13
8.3081e-13
8.30814e-13
8.30779e-13
8.30818e-13
8.30798e-13
8.30794e-13
8.30817e-13
8.30827e-13
8.3079e-13
8.308e-13
8.3079e-13
8.308e-13
8.30814e-13
8.30818e-13
8.30806e-13
8.30812e-13
8.30833e-13
8.30783e-13
8.30827e-13
8.30792e-13
8.30787e-13
8.3081e-13
8.30786e-13
8.30812e-13
8.30788e-13
8.30793e-13
8.30791e-13
8.30784e-13
8.30827e-13
8.30772e-13
1.26628e-12
1.26629e-12
1.26629e-12
1.26631e-12
1.26631e-12
1.26632e-12
1.26631e-12
1.26626e-12
1.26632e-12
1.2663e-12
1.26634e-12
1.2663e-12
1.26625e-12
1.2663e-12
1.26628e-12
1.26629e-12
1.26625e-12
1.26627e-12
1.26627e-12
1.2663e-12
1.2663e-12
1.26632e-12
1.26629e-12
1.26632e-12
1.26632e-12
1.26631e-12
1.26629e-12
1.26629e-12
1.2663e-12
1.26631e-12
1.2663e-12
1.26629e-12
1.26633e-12
1.26629e-12
1.26628e-12
1.26631e-12
1.26634e-12
1.26628e-12
1.26631e-12
1.26629e-12
1.26628e-12
1.26629e-12
1.26628e-12
1.26629e-12
1.26625e-12
1.2663e-12
1.26628e-12
1.26631e-12
1.26629e-12
1.26628e-12
1.26634e-12
1.26625e-12
1.2663e-12
1.2663e-12
1.26631e-12
1.26627e-12
1.26629e-12
1.2663e-12
1.26629e-12
1.26635e-12
7.63208e-13
7.63171e-13
7.63209e-13
7.63196e-13
7.63164e-13
7.63199e-13
7.63127e-13
7.63228e-13
7.63212e-13
7.63167e-13
7.63142e-13
7.63196e-13
7.63266e-13
7.63216e-13
7.63219e-13
7.63205e-13
7.63209e-13
7.63208e-13
7.63205e-13
7.63189e-13
7.63224e-13
7.63154e-13
7.63195e-13
7.63166e-13
7.63167e-13
7.63155e-13
7.63174e-13
7.6316e-13
7.63214e-13
7.63203e-13
7.63178e-13
7.63211e-13
7.63149e-13
7.6317e-13
7.63238e-13
7.63241e-13
7.63126e-13
7.63151e-13
7.63165e-13
7.63169e-13
7.63198e-13
7.63156e-13
7.63176e-13
7.63161e-13
7.63225e-13
7.63143e-13
7.63203e-13
7.63163e-13
7.63173e-13
7.63174e-13
7.6315e-13
7.63188e-13
7.63209e-13
7.63186e-13
7.63208e-13
7.63209e-13
7.63218e-13
7.63176e-13
7.63123e-13
7.63203e-13
-6.68998e-13
-6.68904e-13
-6.6898e-13
-6.68954e-13
-6.68982e-13
-6.68982e-13
-6.68917e-13
-6.68974e-13
-6.69006e-13
-6.68935e-13
-6.68907e-13
-6.68952e-13
-6.69019e-13
-6.69013e-13
-6.69004e-13
-6.68941e-13
-6.68961e-13
-6.68963e-13
-6.68899e-13
-6.68945e-13
-6.69006e-13
-6.68979e-13
-6.68922e-13
-6.68932e-13
-6.69005e-13
-6.68923e-13
-6.68933e-13
-6.68915e-13
-6.68989e-13
-6.68993e-13
-6.68907e-13
-6.6898e-13
-6.68974e-13
-6.68918e-13
-6.68979e-13
-6.6901e-13
-6.68865e-13
-6.68922e-13
-6.68965e-13
-6.6896e-13
-6.68984e-13
-6.68942e-13
-6.68897e-13
-6.68943e-13
-6.68975e-13
-6.68917e-13
-6.69024e-13
-6.68911e-13
-6.68948e-13
-6.68984e-13
-6.68932e-13
-6.68907e-13
-6.68982e-13
-6.68918e-13
-6.68989e-13
-6.68956e-13
-6.68989e-13
-6.68956e-13
-6.68902e-13
-6.69025e-13
-2.01625e-12
-2.01631e-12
-2.01632e-12
-2.0163e-12
-2.01624e-12
-2.0163e-12
-2.0163e-12
-2.01633e-12
-2.01629e-12
-2.01628e-12
-2.01628e-12
-2.01633e-12
-2.0163e-12
-2.01625e-12
-2.01628e-12
-2.01627e-12
-2.01628e-12
-2.01633e-12
-2.01632e-12
-2.01627e-12
-2.01624e-12
-2.01627e-12
-2.0163e-12
-2.01631e-12
-2.01624e-12
-2.01633e-12
-2.01637e-12
-2.0163e-12
-2.0163e-12
-2.01623e-12
-2.01633e-12
-2.01626e-12
-2.01626e-12
-2.01628e-12
-2.0163e-12
-2.01626e-12
-2.01635e-12
-2.01632e-12
-2.01627e-12
-2.01629e-12
-2.01629e-12
-2.01631e-12
-2.01632e-12
-2.0163e-12
-2.01624e-12
-2.01633e-12
-2.01622e-12
-2.01636e-12
-2.01628e-12
-2.01626e-12
-2.01629e-12
-2.01628e-12
-2.01629e-12
-2.01637e-12
-2.01627e-12
-2.01632e-12
-2.01632e-12
-2.01627e-12
-2.0163e-12
-2.01624e-12
-2.14305e-12
-2.14304e-12
-2.14296e-12
-2.14306e-12
-2.14312e-12
-2.14297e-12
-2.14297e-12
-2.143e-12
-2.14303e-12
-2.14305e-12
-2.14308e-12
-2.14298e-12
-2.14306e-12
-2.14304e-12
-2.14305e-12
-2.14306e-12
-2.14311e-12
-2.14304e-12
-2.14309e-12
-2.14311e-12
-2.14307e-12
-2.14302e-12
-2.14305e-12
-2.14305e-12
-2.14308e-12
-2.14306e-12
-2.14298e-12
-2.14309e-12
-2.14302e-12
-2.14305e-12
-2.14295e-12
-2.14314e-12
-2.14303e-12
-2.14305e-12
-2.143e-12
-2.14305e-12
-2.1431e-12
-2.14307e-12
-2.14296e-12
-2.14307e-12
-2.14302e-12
-2.14301e-12
-2.14303e-12
-2.14307e-12
-2.14309e-12
-2.14302e-12
-2.14306e-12
-2.14301e-12
-2.14302e-12
-2.14299e-12
-2.14309e-12
-2.14318e-12
-2.14312e-12
-2.14301e-12
-2.14305e-12
-2.14302e-12
-2.14306e-12
-2.14308e-12
-2.143e-12
-2.14308e-12
-9.99686e-13
-9.99555e-13
-9.99663e-13
-9.99558e-13
-9.99578e-13
-9.99616e-13
-9.99739e-13
-9.99708e-13
-9.9965e-13
-9.9961e-13
-9.9961e-13
-9.9966e-13
-9.99564e-13
-9.99644e-13
-9.99537e-13
-9.99523e-13
-9.9957e-13
-9.99625e-13
-9.99589e-13
-9.99615e-13
-9.99617e-13
-9.99658e-13
-9.99603e-13
-9.99572e-13
-9.9957e-13
-9.99591e-13
-9.99716e-13
-9.99591e-13
-9.99612e-13
-9.99683e-13
-9.99766e-13
-9.99506e-13
-9.99609e-13
-9.99648e-13
-9.99712e-13
-9.99655e-13
-9.9965e-13
-9.99581e-13
-9.99719e-13
-9.99493e-13
-9.99676e-13
-9.99634e-13
-9.99676e-13
-9.9966e-13
-9.99651e-13
-9.99659e-13
-9.99686e-13
-9.997e-13
-9.99638e-13
-9.99759e-13
-9.99588e-13
-9.99441e-13
-9.9952e-13
-9.99617e-13
-9.99622e-13
-9.99578e-13
-9.99586e-13
-9.99657e-13
-9.99703e-13
-9.99594e-13
4.44482e-13
4.4436e-13
4.4439e-13
4.44435e-13
4.44446e-13
4.44353e-13
4.44475e-13
4.4443e-13
4.44468e-13
4.44401e-13
4.44344e-13
4.44487e-13
4.44414e-13
4.44425e-13
4.44219e-13
4.4429e-13
4.44405e-13
4.44462e-13
4.44408e-13
4.44349e-13
4.44433e-13
4.44433e-13
4.44277e-13
4.44326e-13
4.44307e-13
4.44274e-13
4.44418e-13
4.44431e-13
4.4443e-13
4.44457e-13
4.44419e-13
4.44369e-13
4.44399e-13
4.4448e-13
4.44557e-13
4.44445e-13
4.44505e-13
4.44375e-13
4.44477e-13
4.44253e-13
4.44396e-13
4.44489e-13
4.4444e-13
4.44463e-13
4.44398e-13
4.44444e-13
4.44458e-13
4.44439e-13
4.44325e-13
4.44487e-13
4.44457e-13
4.44349e-13
4.44336e-13
4.44413e-13
4.44418e-13
4.44346e-13
4.44404e-13
4.44465e-13
4.44521e-13
4.44397e-13
1.30203e-12
1.30201e-12
1.30209e-12
1.30205e-12
1.30204e-12
1.30209e-12
1.30208e-12
1.30215e-12
1.30196e-12
1.30197e-12
1.30211e-12
1.30201e-12
1.30205e-12
1.30199e-12
1.30222e-12
1.30217e-12
1.30198e-12
1.30206e-12
1.30204e-12
1.30218e-12
1.30209e-12
1.30209e-12
1.30224e-12
1.30206e-12
1.30217e-12
1.30217e-12
1.30206e-12
1.30201e-12
1.30201e-12
1.30206e-12
1.30207e-12
1.30202e-12
1.30203e-12
1.30198e-12
1.30197e-12
1.30201e-12
1.30196e-12
1.30206e-12
1.30203e-12
1.30204e-12
1.30212e-12
1.302e-12
1.30205e-12
1.30209e-12
1.30212e-12
1.30203e-12
1.30204e-12
1.30198e-12
1.30213e-12
1.30205e-12
1.30196e-12
1.30201e-12
1.30212e-12
1.30206e-12
1.3021e-12
1.30212e-12
1.30194e-12
1.30211e-12
1.30196e-12
1.30211e-12
1.41574e-12
1.41576e-12
1.41563e-12
1.41569e-12
1.41567e-12
1.41566e-12
1.41564e-12
1.41568e-12
1.41576e-12
1.41579e-12
1.41569e-12
1.41569e-12
1.41566e-12
1.41574e-12
1.41569e-12
1.41567e-12
1.41582e-12
1.41565e-12
1.41569e-12
1.41559e-12
1.41555e-12
1.41561e-12
1.41555e-12
1.41566e-12
1.41567e-12
1.41573e-12
1.41567e-12
1.41577e-12
1.41563e-12
1.41569e-12
1.41572e-12
1.41572e-12
1.41569e-12
1.4157e-12
1.41574e-12
1.41566e-12
1.41583e-12
1.41578e-12
1.4156e-12
1.41572e-12
1.41556e-12
1.41572e-12
1.41573e-12
1.41557e-12
1.41572e-12
1.41578e-12
1.41573e-12
1.41576e-12
1.41567e-12
1.41569e-12
1.41571e-12
1.41572e-12
1.41565e-12
1.41563e-12
1.41567e-12
1.41566e-12
1.41582e-12
1.41563e-12
1.4158e-12
1.41569e-12
1.11012e-12
1.11005e-12
1.11023e-12
1.11001e-12
1.11e-12
1.11013e-12
1.11019e-12
1.11004e-12
1.11002e-12
1.11006e-12
1.1101e-12
1.11017e-12
1.11016e-12
1.11012e-12
1.10997e-12
1.11017e-12
1.10995e-12
1.11007e-12
1.11e-12
1.11015e-12
1.11033e-12
1.11004e-12
1.11011e-12
1.11008e-12
1.11018e-12
1.10995e-12
1.11007e-12
1.11005e-12
1.11001e-12
1.11007e-12
1.11013e-12
1.11001e-12
1.11016e-12
1.11015e-12
1.11002e-12
1.11019e-12
1.10996e-12
1.10994e-12
1.1101e-12
1.11013e-12
1.11023e-12
1.10998e-12
1.11007e-12
1.11011e-12
1.11005e-12
1.11011e-12
1.10996e-12
1.11009e-12
1.11e-12
1.11009e-12
1.11009e-12
1.11011e-12
1.11011e-12
1.11007e-12
1.11005e-12
1.11008e-12
1.10997e-12
1.11e-12
1.11002e-12
1.10992e-12
7.2494e-13
7.2496e-13
7.25026e-13
7.24977e-13
7.25102e-13
7.25063e-13
7.24937e-13
7.25055e-13
7.25026e-13
7.25017e-13
7.24922e-13
7.24909e-13
7.25019e-13
7.2495e-13
7.25088e-13
7.25025e-13
7.25042e-13
7.25059e-13
7.25056e-13
7.25012e-13
7.24787e-13
7.25144e-13
7.25065e-13
7.25103e-13
7.2486e-13
7.2507e-13
7.25123e-13
7.2506e-13
7.25215e-13
7.25086e-13
7.24909e-13
7.24972e-13
7.24958e-13
7.24954e-13
7.25062e-13
7.24874e-13
7.25075e-13
7.24986e-13
7.25026e-13
7.25018e-13
7.24898e-13
7.25055e-13
7.25039e-13
7.25068e-13
7.25144e-13
7.25029e-13
7.25078e-13
7.25014e-13
7.25073e-13
7.24963e-13
7.2506e-13
7.25115e-13
7.25025e-13
7.25078e-13
7.252e-13
7.24883e-13
7.25083e-13
7.25088e-13
7.25096e-13
7.25112e-13
4.22969e-13
4.23134e-13
4.22906e-13
4.23119e-13
4.23036e-13
4.2304e-13
4.23117e-13
4.22986e-13
4.23025e-13
4.23121e-13
4.23204e-13
4.23062e-13
4.23012e-13
4.23034e-13
4.23071e-13
4.22975e-13
4.23107e-13
4.23067e-13
4.23054e-13
4.22988e-13
4.23128e-13
4.22889e-13
4.23145e-13
4.22857e-13
4.23182e-13
4.23037e-13
4.22939e-13
4.23121e-13
4.22836e-13
4.23177e-13
4.23067e-13
4.23113e-13
4.23094e-13
4.23109e-13
4.2312e-13
4.23145e-13
4.23084e-13
4.23045e-13
4.23044e-13
4.22915e-13
4.23086e-13
4.23053e-13
4.23046e-13
4.2289e-13
4.23071e-13
4.22888e-13
4.23014e-13
4.22935e-13
4.22969e-13
4.23082e-13
4.23038e-13
4.22909e-13
4.2303e-13
4.23011e-13
4.22894e-13
4.23019e-13
4.22959e-13
4.23001e-13
4.22939e-13
4.22952e-13
2.29514e-13
2.29321e-13
2.29528e-13
2.29276e-13
2.29266e-13
2.29457e-13
2.29469e-13
2.29464e-13
2.29341e-13
2.29173e-13
2.29342e-13
2.29414e-13
2.29389e-13
2.29525e-13
2.29291e-13
2.29495e-13
2.29202e-13
2.29376e-13
2.29373e-13
2.29453e-13
2.29377e-13
2.29415e-13
2.29258e-13
2.29423e-13
2.2932e-13
2.29314e-13
2.29326e-13
2.29348e-13
2.29419e-13
2.2934e-13
2.29391e-13
2.29461e-13
2.29287e-13
2.29363e-13
2.2934e-13
2.29439e-13
2.29252e-13
2.29446e-13
2.29325e-13
2.2954e-13
2.2922e-13
2.29409e-13
2.29294e-13
2.29428e-13
2.29267e-13
2.29529e-13
2.29371e-13
2.29374e-13
2.29457e-13
2.29398e-13
2.29323e-13
2.2941e-13
2.29395e-13
2.29411e-13
2.29471e-13
2.2945e-13
2.29399e-13
2.29291e-13
2.29604e-13
2.29473e-13
1.17309e-13
1.17479e-13
1.17405e-13
1.17544e-13
1.17562e-13
1.17387e-13
1.17184e-13
1.17229e-13
1.17463e-13
1.17559e-13
1.17549e-13
1.17588e-13
1.17553e-13
1.17193e-13
1.17509e-13
1.1718e-13
1.17553e-13
1.17448e-13
1.17393e-13
1.17428e-13
1.17414e-13
1.17378e-13
1.17439e-13
1.17459e-13
1.17586e-13
1.17376e-13
1.17554e-13
1.17442e-13
1.17448e-13
1.17361e-13
1.1744e-13
1.1725e-13
1.17555e-13
1.17384e-13
1.17398e-13
1.1746e-13
1.17426e-13
1.17471e-13
1.17385e-13
1.17453e-13
1.17475e-13
1.17453e-13
1.17416e-13
1.17534e-13
1.1754e-13
1.17262e-13
1.17335e-13
1.17573e-13
1.17256e-13
1.17583e-13
1.17553e-13
1.17442e-13
1.17334e-13
1.1724e-13
1.17409e-13
1.17527e-13
1.17391e-13
1.17504e-13
1.1723e-13
1.17481e-13
5.62146e-14
5.62523e-14
5.60801e-14
5.62653e-14
5.60407e-14
5.61478e-14
5.64089e-14
5.63547e-14
5.60376e-14
5.62705e-14
5.62185e-14
5.6143e-14
5.61951e-14
5.65073e-14
5.62527e-14
5.64041e-14
5.62965e-14
5.61161e-14
5.63377e-14
5.6107e-14
5.63698e-14
5.63161e-14
5.62553e-14
5.61573e-14
5.60958e-14
5.62662e-14
5.6029e-14
5.61569e-14
5.61317e-14
5.63278e-14
5.63295e-14
5.63456e-14
5.60099e-14
5.62215e-14
5.62436e-14
5.61118e-14
5.62454e-14
5.60554e-14
5.63763e-14
5.61747e-14
5.63308e-14
5.61977e-14
5.63217e-14
5.59826e-14
5.61079e-14
5.62736e-14
5.63247e-14
5.61825e-14
5.63109e-14
5.60953e-14
5.61677e-14
5.6369e-14
5.6235e-14
5.64149e-14
5.62432e-14
5.61291e-14
5.63434e-14
5.6114e-14
5.62389e-14
5.60619e-14
2.40866e-14
2.40155e-14
2.40806e-14
2.39856e-14
2.39544e-14
2.40892e-14
2.40532e-14
2.39409e-14
2.42649e-14
2.40576e-14
2.39374e-14
2.4071e-14
2.39214e-14
2.38381e-14
2.38676e-14
2.39418e-14
2.39487e-14
2.39986e-14
2.39179e-14
2.41391e-14
2.38078e-14
2.39218e-14
2.39891e-14
2.39106e-14
2.39843e-14
2.39643e-14
2.41582e-14
2.40966e-14
2.39904e-14
2.39557e-14
2.39353e-14
2.39353e-14
2.40242e-14
2.39652e-14
2.39409e-14
2.4081e-14
2.39396e-14
2.41491e-14
2.38117e-14
2.39799e-14
2.4058e-14
2.39266e-14
2.39817e-14
2.41382e-14
2.40641e-14
2.38832e-14
2.39153e-14
2.40923e-14
2.39891e-14
2.41296e-14
2.38542e-14
2.38225e-14
2.414e-14
2.39726e-14
2.38459e-14
2.39309e-14
2.40125e-14
2.41517e-14
2.41846e-14
2.40637e-14
7.34005e-15
7.59809e-15
7.7412e-15
7.39296e-15
7.79975e-15
7.57597e-15
7.49921e-15
7.70781e-15
7.50918e-15
7.46929e-15
7.61804e-15
7.51742e-15
7.63452e-15
7.47276e-15
7.67008e-15
7.41985e-15
7.62541e-15
7.71518e-15
7.50918e-15
7.52783e-15
7.75118e-15
7.76375e-15
7.81059e-15
7.52697e-15
7.4476e-15
7.65317e-15
7.43242e-15
7.63105e-15
7.57163e-15
7.43112e-15
7.55515e-15
7.62368e-15
7.79888e-15
7.62845e-15
7.62715e-15
7.69827e-15
7.69784e-15
7.50008e-15
7.55515e-15
7.83098e-15
7.47709e-15
7.70781e-15
7.45974e-15
7.33788e-15
7.55168e-15
7.64363e-15
7.65837e-15
7.31316e-15
7.53217e-15
7.48533e-15
7.78847e-15
7.61977e-15
7.58161e-15
7.45758e-15
7.73773e-15
7.55038e-15
7.63365e-15
7.51049e-15
7.4077e-15
7.46408e-15
-3.11383e-16
-2.14672e-16
-4.98733e-16
-1.89952e-16
-5.85035e-16
-4.21104e-16
-2.49366e-16
-5.39499e-16
-5.13044e-16
-5.14779e-16
-4.52763e-16
-3.92481e-16
-5.3603e-16
-3.3697e-16
-3.64726e-16
-3.25261e-16
-6.48787e-16
-4.49727e-16
-3.24827e-16
-5.48606e-16
-5.89806e-16
-6.99094e-16
-7.08635e-16
-2.65413e-16
-2.6975e-16
-7.05165e-16
-3.84675e-16
-5.80265e-16
-4.27176e-16
-3.7817e-16
-4.31512e-16
-7.27716e-16
-5.65086e-16
-4.2067e-16
-3.98986e-16
-4.40186e-16
-5.13912e-16
-4.64472e-16
-4.22839e-16
-8.25295e-16
-3.34802e-16
-4.21538e-16
-1.66967e-16
-2.92735e-16
-5.52943e-16
-2.91e-16
-5.37764e-16
-3.30899e-16
-4.31946e-16
-2.13371e-16
-5.30392e-16
-4.89626e-16
-5.34729e-16
-3.85109e-16
-6.50088e-16
-2.89265e-16
-4.59268e-16
-3.7817e-16
-3.51282e-16
-4.65773e-16
-4.04494e-15
-4.2826e-15
-4.2453e-15
-4.4153e-15
-4.17808e-15
-4.27392e-15
-4.16507e-15
-4.15423e-15
-4.20454e-15
-4.13645e-15
-4.22275e-15
-4.25614e-15
-4.20844e-15
-4.21494e-15
-4.31773e-15
-4.33984e-15
-4.14209e-15
-4.35329e-15
-4.14209e-15
-4.0805e-15
-4.04494e-15
-3.85239e-15
-4.16464e-15
-4.08484e-15
-4.33377e-15
-3.84545e-15
-4.12647e-15
-4.0393e-15
-4.30472e-15
-4.05231e-15
-4.0753e-15
-3.87104e-15
-4.18632e-15
-3.96211e-15
-4.27046e-15
-4.26091e-15
-4.35372e-15
-4.159e-15
-4.1629e-15
-3.86713e-15
-4.27349e-15
-4.30905e-15
-4.47732e-15
-4.1976e-15
-4.09308e-15
-4.35979e-15
-4.04928e-15
-4.20627e-15
-4.17982e-15
-4.26742e-15
-4.14859e-15
-4.01632e-15
-4.15163e-15
-4.06532e-15
-4.00287e-15
-4.31816e-15
-4.03974e-15
-4.14686e-15
-4.31816e-15
-4.25701e-15
-5.84168e-15
-5.48433e-15
-5.6192e-15
-5.49474e-15
-5.68209e-15
-5.49213e-15
-5.92712e-15
-5.81306e-15
-5.59362e-15
-5.67211e-15
-5.53333e-15
-5.50514e-15
-5.63568e-15
-5.5689e-15
-5.60966e-15
-5.48823e-15
-5.68426e-15
-5.49907e-15
-5.84645e-15
-5.79528e-15
-5.69857e-15
-5.87421e-15
-5.66691e-15
-5.89459e-15
-5.48606e-15
-5.90413e-15
-5.73283e-15
-5.83301e-15
-5.59969e-15
-5.79484e-15
-5.81566e-15
-5.70941e-15
-5.57323e-15
-5.89242e-15
-5.67255e-15
-5.67255e-15
-5.4106e-15
-5.92842e-15
-5.77836e-15
-5.94446e-15
-5.66561e-15
-5.60012e-15
-5.50168e-15
-5.71635e-15
-5.75972e-15
-5.83908e-15
-5.92798e-15
-5.6101e-15
-5.63655e-15
-5.78357e-15
-5.73023e-15
-5.78747e-15
-5.57367e-15
-5.96658e-15
-5.75061e-15
-5.68339e-15
-5.84081e-15
-5.60402e-15
-5.42058e-15
-5.71678e-15
-6.01385e-15
-6.21421e-15
-6.08758e-15
-6.26842e-15
-6.13095e-15
-6.17258e-15
-5.95964e-15
-5.99e-15
-6.19079e-15
-6.06893e-15
-6.29271e-15
-6.36036e-15
-6.04464e-15
-6.27536e-15
-6.22896e-15
-6.29358e-15
-6.12965e-15
-6.20901e-15
-6.30702e-15
-6.16391e-15
-6.17215e-15
-6.1548e-15
-5.99651e-15
-6.2411e-15
-6.13702e-15
-6.12401e-15
-6.12227e-15
-6.09105e-15
-6.24804e-15
-6.02253e-15
-6.09148e-15
-6.26148e-15
-6.19903e-15
-6.0286e-15
-5.97005e-15
-5.82607e-15
-6.51042e-15
-6.12704e-15
-5.9848e-15
-6.04117e-15
-6.23069e-15
-6.11143e-15
-6.17822e-15
-6.13572e-15
-6.1084e-15
-5.88288e-15
-6.22679e-15
-6.25758e-15
-6.04941e-15
-6.21551e-15
-6.28924e-15
-6.05072e-15
-6.10709e-15
-5.94056e-15
-6.05115e-15
-6.22896e-15
-5.88288e-15
-6.2038e-15
-6.37728e-15
-6.0299e-15
-6.19166e-15
-6.2411e-15
-6.04768e-15
-6.33304e-15
-6.01038e-15
-6.21898e-15
-6.20771e-15
-5.97742e-15
-5.89979e-15
-5.84689e-15
-5.9501e-15
-5.80569e-15
-6.20771e-15
-6.14309e-15
-5.89633e-15
-6.01906e-15
-6.05158e-15
-6.14135e-15
-5.79658e-15
-5.81479e-15
-6.27406e-15
-6.00778e-15
-6.245e-15
-5.84992e-15
-6.11317e-15
-6.03857e-15
-6.03857e-15
-6.17345e-15
-6.02209e-15
-6.21942e-15
-5.96398e-15
-5.95661e-15
-5.97482e-15
-6.14135e-15
-6.05809e-15
-6.23286e-15
-5.81349e-15
-5.71375e-15
-6.12357e-15
-5.91367e-15
-5.77186e-15
-6.01125e-15
-6.15697e-15
-5.98523e-15
-5.97309e-15
-6.00735e-15
-5.87507e-15
-6.16261e-15
-5.91758e-15
-6.08021e-15
-5.8278e-15
-6.16391e-15
-6.23633e-15
-6.10319e-15
-6.30138e-15
-6.05896e-15
-6.42021e-15
-5.95487e-15
-6.00691e-15
-6.24761e-15
-5.68903e-15
-5.38155e-15
-5.55849e-15
-5.58191e-15
-5.84385e-15
-5.37678e-15
-5.71461e-15
-5.75581e-15
-5.73109e-15
-5.95487e-15
-5.70247e-15
-5.75061e-15
-5.74931e-15
-5.78227e-15
-5.82607e-15
-5.58277e-15
-5.7827e-15
-5.50688e-15
-5.86293e-15
-6.01342e-15
-5.65607e-15
-5.49691e-15
-5.46134e-15
-5.75581e-15
-5.98306e-15
-5.72459e-15
-5.63482e-15
-5.7415e-15
-5.82997e-15
-5.65607e-15
-5.88462e-15
-5.87291e-15
-5.9037e-15
-5.67688e-15
-5.88375e-15
-5.74887e-15
-5.7415e-15
-5.92755e-15
-5.85252e-15
-5.86033e-15
-5.94316e-15
-5.94013e-15
-5.67775e-15
-5.83301e-15
-5.83041e-15
-5.73586e-15
-6.00995e-15
-5.55805e-15
-6.0273e-15
-5.56976e-15
-5.89069e-15
-5.6526e-15
-5.68599e-15
-5.6964e-15
-5.35466e-15
-5.78487e-15
-5.48086e-15
-5.80222e-15
-5.81696e-15
-5.7454e-15
-5.24797e-15
-5.37808e-15
-5.44747e-15
-5.21458e-15
-5.04588e-15
-5.56022e-15
-5.1608e-15
-5.28397e-15
-5.38024e-15
-5.21805e-15
-5.34208e-15
-5.37808e-15
-5.22542e-15
-4.96695e-15
-4.97475e-15
-5.4904e-15
-5.30565e-15
-5.5793e-15
-5.21024e-15
-5.03157e-15
-5.1621e-15
-5.4904e-15
-5.5368e-15
-5.44963e-15
-5.01682e-15
-5.11396e-15
-5.23062e-15
-5.37244e-15
-5.47522e-15
-5.1942e-15
-5.13608e-15
-5.26966e-15
-5.09055e-15
-5.43229e-15
-5.16037e-15
-5.42361e-15
-5.58277e-15
-5.20244e-15
-5.3217e-15
-5.05932e-15
-5.09055e-15
-5.11093e-15
-5.24754e-15
-5.05021e-15
-4.97996e-15
-5.30869e-15
-5.10182e-15
-5.36984e-15
-4.97649e-15
-5.52509e-15
-5.35813e-15
-5.25318e-15
-5.04241e-15
-5.30912e-15
-5.34772e-15
-5.26879e-15
-5.47045e-15
-5.23366e-15
-5.15039e-15
-5.22412e-15
-4.94873e-15
-4.85809e-15
-4.43178e-15
-4.91751e-15
-5.00034e-15
-4.83207e-15
-4.85853e-15
-4.76529e-15
-4.70847e-15
-4.69503e-15
-4.78784e-15
-4.79998e-15
-4.77049e-15
-5.0385e-15
-4.9045e-15
-4.81342e-15
-4.88411e-15
-4.33204e-15
-4.80171e-15
-5.12958e-15
-4.84075e-15
-4.81993e-15
-4.83988e-15
-4.56146e-15
-5.04458e-15
-4.8273e-15
-4.70197e-15
-4.67595e-15
-4.5749e-15
-4.90233e-15
-4.79955e-15
-4.83251e-15
-4.8672e-15
-4.61176e-15
-4.83728e-15
-4.7063e-15
-4.81429e-15
-4.80085e-15
-4.87631e-15
-4.78177e-15
-4.58227e-15
-4.78393e-15
-4.9548e-15
-5.01986e-15
-4.90016e-15
-4.57837e-15
-4.6998e-15
-4.93485e-15
-4.87804e-15
-4.45867e-15
-4.64732e-15
-4.705e-15
-4.85029e-15
-4.87631e-15
-4.76702e-15
-4.59268e-15
-4.86633e-15
-4.58054e-15
-4.81212e-15
-4.70544e-15
-4.10089e-15
-4.47038e-15
-4.44349e-15
-4.38408e-15
-4.30819e-15
-4.25484e-15
-4.26785e-15
-4.57707e-15
-4.50031e-15
-4.4899e-15
-4.31643e-15
-4.34461e-15
-4.37237e-15
-4.17765e-15
-4.0766e-15
-4.18329e-15
-4.22709e-15
-4.79478e-15
-4.4049e-15
-3.94086e-15
-4.68289e-15
-4.09785e-15
-4.49207e-15
-4.64082e-15
-4.22795e-15
-4.5389e-15
-4.40099e-15
-4.2852e-15
-4.58748e-15
-4.39666e-15
-4.55972e-15
-4.08527e-15
-4.21625e-15
-4.48773e-15
-4.25267e-15
-4.45087e-15
-4.19239e-15
-4.12734e-15
-4.25614e-15
-4.038e-15
-4.46388e-15
-4.50291e-15
-4.42962e-15
-4.25354e-15
-4.45e-15
-4.55625e-15
-4.61783e-15
-4.36587e-15
-4.40099e-15
-4.41184e-15
-4.30081e-15
-4.40229e-15
-4.44046e-15
-4.19066e-15
-4.50291e-15
-4.60049e-15
-4.05535e-15
-4.60829e-15
-4.10045e-15
-4.44176e-15
-4.12864e-15
-3.75351e-15
-3.9569e-15
-3.82593e-15
-4.00548e-15
-3.87234e-15
-3.96341e-15
-4.02326e-15
-3.64726e-15
-3.79688e-15
-3.91657e-15
-3.88665e-15
-4.12777e-15
-3.92438e-15
-4.16941e-15
-4.01068e-15
-3.66981e-15
-3.82507e-15
-3.9504e-15
-4.0714e-15
-3.6247e-15
-3.76348e-15
-3.86626e-15
-3.698e-15
-4.02412e-15
-3.81075e-15
-3.85499e-15
-4.17331e-15
-3.72705e-15
-3.79037e-15
-3.6967e-15
-3.87017e-15
-3.9955e-15
-3.88231e-15
-3.83374e-15
-3.84805e-15
-3.85412e-15
-3.84501e-15
-3.63641e-15
-4.06836e-15
-3.76262e-15
-3.75177e-15
-3.80815e-15
-3.77172e-15
-3.88708e-15
-3.73356e-15
-3.93305e-15
-3.57527e-15
-3.65073e-15
-3.75264e-15
-3.81683e-15
-3.86757e-15
-3.92394e-15
-4.10522e-15
-3.80295e-15
-3.74527e-15
-3.72402e-15
-3.99463e-15
-4.01979e-15
-3.75654e-15