/*--------------------------------*- C++ -*----------------------------------*\
| =========                 |                                                 |
| \\      /  F ield         | foam-extend: Open Source CFD                    |
|  \\    /   O peration     | Version:     4.0                                |
|   \\  /    A nd           | Web:         http://www.foam-extend.org         |
|    \\/     M anipulation  |                                                 |
\*---------------------------------------------------------------------------*/
FoamFile
{
    version     2.0;
    format      ascii;
    class       volScalarField;
    location    "16";
    object      dC2;
}
// * * * * * * * * * * * * * * * * * * * * * * * * * * * * * * * * * * * * * //

dimensions      [0 -1 0 0 0 0 0];

internalField   nonuniform List<scalar> 
6960
(
5.01876e-14
5.01876e-14
5.01876e-14
5.01876e-14
5.01876e-14
5.01876e-14
5.01876e-14
5.01876e-14
5.01876e-14
5.01876e-14
5.01876e-14
5.01876e-14
5.01876e-14
5.01876e-14
5.01876e-14
5.01876e-14
5.01876e-14
5.01876e-14
5.01876e-14
5.01876e-14
5.01876e-14
5.01876e-14
5.01876e-14
5.01876e-14
5.01876e-14
5.01876e-14
5.01876e-14
5.01876e-14
5.01876e-14
5.01876e-14
5.01876e-14
5.01876e-14
5.01876e-14
5.01876e-14
5.01876e-14
5.01876e-14
5.01876e-14
5.01876e-14
5.01876e-14
5.01876e-14
5.01876e-14
5.01876e-14
5.01876e-14
5.01876e-14
5.01876e-14
5.01876e-14
5.01876e-14
5.01876e-14
5.01876e-14
5.01876e-14
5.01876e-14
5.01876e-14
5.01876e-14
5.01876e-14
5.01876e-14
5.01876e-14
5.01876e-14
5.01876e-14
5.01876e-14
5.01876e-14
1.35105e-13
1.35105e-13
1.35105e-13
1.35105e-13
1.35105e-13
1.35105e-13
1.35105e-13
1.35105e-13
1.35105e-13
1.35105e-13
1.35105e-13
1.35105e-13
1.35105e-13
1.35105e-13
1.35105e-13
1.35105e-13
1.35105e-13
1.35105e-13
1.35105e-13
1.35105e-13
1.35105e-13
1.35105e-13
1.35105e-13
1.35105e-13
1.35105e-13
1.35105e-13
1.35105e-13
1.35105e-13
1.35105e-13
1.35105e-13
1.35105e-13
1.35105e-13
1.35105e-13
1.35105e-13
1.35105e-13
1.35105e-13
1.35105e-13
1.35105e-13
1.35105e-13
1.35105e-13
1.35105e-13
1.35105e-13
1.35105e-13
1.35105e-13
1.35105e-13
1.35105e-13
1.35105e-13
1.35105e-13
1.35105e-13
1.35105e-13
1.35105e-13
1.35105e-13
1.35105e-13
1.35105e-13
1.35105e-13
1.35105e-13
1.35105e-13
1.35105e-13
1.35105e-13
1.35105e-13
2.81933e-13
2.81933e-13
2.81933e-13
2.81933e-13
2.81933e-13
2.81933e-13
2.81933e-13
2.81933e-13
2.81933e-13
2.81933e-13
2.81933e-13
2.81933e-13
2.81933e-13
2.81933e-13
2.81933e-13
2.81933e-13
2.81933e-13
2.81933e-13
2.81933e-13
2.81933e-13
2.81933e-13
2.81933e-13
2.81933e-13
2.81933e-13
2.81933e-13
2.81933e-13
2.81933e-13
2.81933e-13
2.81933e-13
2.81933e-13
2.81933e-13
2.81933e-13
2.81933e-13
2.81933e-13
2.81933e-13
2.81933e-13
2.81933e-13
2.81933e-13
2.81933e-13
2.81933e-13
2.81933e-13
2.81933e-13
2.81933e-13
2.81933e-13
2.81933e-13
2.81933e-13
2.81933e-13
2.81933e-13
2.81933e-13
2.81933e-13
2.81933e-13
2.81933e-13
2.81933e-13
2.81933e-13
2.81933e-13
2.81933e-13
2.81933e-13
2.81933e-13
2.81933e-13
2.81933e-13
5.00282e-13
5.00282e-13
5.00282e-13
5.00283e-13
5.00282e-13
5.00282e-13
5.00282e-13
5.00282e-13
5.00282e-13
5.00283e-13
5.00283e-13
5.00282e-13
5.00282e-13
5.00282e-13
5.00282e-13
5.00282e-13
5.00282e-13
5.00282e-13
5.00282e-13
5.00282e-13
5.00282e-13
5.00282e-13
5.00283e-13
5.00282e-13
5.00282e-13
5.00282e-13
5.00282e-13
5.00282e-13
5.00282e-13
5.00282e-13
5.00282e-13
5.00283e-13
5.00282e-13
5.00282e-13
5.00282e-13
5.00282e-13
5.00282e-13
5.00282e-13
5.00282e-13
5.00282e-13
5.00282e-13
5.00283e-13
5.00282e-13
5.00282e-13
5.00282e-13
5.00283e-13
5.00282e-13
5.00282e-13
5.00282e-13
5.00282e-13
5.00282e-13
5.00283e-13
5.00282e-13
5.00282e-13
5.00282e-13
5.00282e-13
5.00282e-13
5.00282e-13
5.00282e-13
5.00282e-13
8.044e-13
8.044e-13
8.044e-13
8.044e-13
8.044e-13
8.044e-13
8.044e-13
8.044e-13
8.044e-13
8.044e-13
8.04399e-13
8.044e-13
8.044e-13
8.044e-13
8.044e-13
8.044e-13
8.044e-13
8.044e-13
8.044e-13
8.044e-13
8.044e-13
8.044e-13
8.04399e-13
8.044e-13
8.044e-13
8.04399e-13
8.044e-13
8.044e-13
8.044e-13
8.044e-13
8.044e-13
8.044e-13
8.044e-13
8.04399e-13
8.044e-13
8.044e-13
8.044e-13
8.044e-13
8.044e-13
8.044e-13
8.044e-13
8.044e-13
8.044e-13
8.044e-13
8.044e-13
8.044e-13
8.044e-13
8.044e-13
8.044e-13
8.044e-13
8.044e-13
8.044e-13
8.044e-13
8.044e-13
8.044e-13
8.044e-13
8.044e-13
8.044e-13
8.044e-13
8.044e-13
1.19753e-12
1.19753e-12
1.19753e-12
1.19753e-12
1.19753e-12
1.19753e-12
1.19753e-12
1.19753e-12
1.19753e-12
1.19753e-12
1.19753e-12
1.19753e-12
1.19753e-12
1.19753e-12
1.19753e-12
1.19753e-12
1.19753e-12
1.19753e-12
1.19753e-12
1.19753e-12
1.19753e-12
1.19753e-12
1.19753e-12
1.19753e-12
1.19753e-12
1.19753e-12
1.19753e-12
1.19753e-12
1.19753e-12
1.19753e-12
1.19753e-12
1.19753e-12
1.19753e-12
1.19753e-12
1.19753e-12
1.19753e-12
1.19753e-12
1.19753e-12
1.19753e-12
1.19753e-12
1.19753e-12
1.19753e-12
1.19753e-12
1.19753e-12
1.19753e-12
1.19753e-12
1.19753e-12
1.19753e-12
1.19753e-12
1.19753e-12
1.19753e-12
1.19753e-12
1.19753e-12
1.19753e-12
1.19753e-12
1.19753e-12
1.19753e-12
1.19753e-12
1.19753e-12
1.19753e-12
1.60331e-12
1.60331e-12
1.60331e-12
1.60331e-12
1.60331e-12
1.60331e-12
1.60331e-12
1.60331e-12
1.60331e-12
1.60331e-12
1.60331e-12
1.60331e-12
1.60331e-12
1.60331e-12
1.60331e-12
1.60331e-12
1.60331e-12
1.60331e-12
1.60331e-12
1.60331e-12
1.60331e-12
1.60331e-12
1.60331e-12
1.60331e-12
1.60331e-12
1.60331e-12
1.60331e-12
1.60331e-12
1.60331e-12
1.60331e-12
1.60331e-12
1.60331e-12
1.60331e-12
1.60331e-12
1.60331e-12
1.60331e-12
1.60331e-12
1.60331e-12
1.60331e-12
1.60331e-12
1.60331e-12
1.60331e-12
1.60331e-12
1.60331e-12
1.60331e-12
1.60331e-12
1.60331e-12
1.60331e-12
1.60331e-12
1.60331e-12
1.60331e-12
1.60331e-12
1.60331e-12
1.60331e-12
1.60331e-12
1.60331e-12
1.60331e-12
1.60331e-12
1.60331e-12
1.60331e-12
1.70088e-12
1.70087e-12
1.70087e-12
1.70087e-12
1.70088e-12
1.70087e-12
1.70088e-12
1.70087e-12
1.70087e-12
1.70087e-12
1.70087e-12
1.70087e-12
1.70088e-12
1.70087e-12
1.70088e-12
1.70087e-12
1.70087e-12
1.70088e-12
1.70087e-12
1.70087e-12
1.70087e-12
1.70087e-12
1.70087e-12
1.70087e-12
1.70087e-12
1.70087e-12
1.70087e-12
1.70087e-12
1.70087e-12
1.70087e-12
1.70087e-12
1.70087e-12
1.70088e-12
1.70087e-12
1.70087e-12
1.70087e-12
1.70087e-12
1.70087e-12
1.70087e-12
1.70088e-12
1.70087e-12
1.70087e-12
1.70087e-12
1.70087e-12
1.70087e-12
1.70087e-12
1.70087e-12
1.70087e-12
1.70087e-12
1.70087e-12
1.70088e-12
1.70087e-12
1.70088e-12
1.70087e-12
1.70087e-12
1.70087e-12
1.70087e-12
1.70087e-12
1.70087e-12
1.70087e-12
8.13342e-13
8.13345e-13
8.13345e-13
8.13344e-13
8.13344e-13
8.13346e-13
8.13343e-13
8.13346e-13
8.13344e-13
8.13347e-13
8.13349e-13
8.13345e-13
8.13347e-13
8.13346e-13
8.13345e-13
8.13345e-13
8.13347e-13
8.13342e-13
8.13344e-13
8.13346e-13
8.13348e-13
8.13345e-13
8.13347e-13
8.13346e-13
8.13347e-13
8.13345e-13
8.13345e-13
8.13345e-13
8.13347e-13
8.13344e-13
8.13346e-13
8.13346e-13
8.13342e-13
8.13346e-13
8.13342e-13
8.13346e-13
8.13347e-13
8.13346e-13
8.13346e-13
8.13344e-13
8.13343e-13
8.13344e-13
8.13346e-13
8.13343e-13
8.13345e-13
8.13346e-13
8.13344e-13
8.13348e-13
8.13344e-13
8.13343e-13
8.13345e-13
8.13347e-13
8.13346e-13
8.13345e-13
8.13345e-13
8.13345e-13
8.13345e-13
8.13348e-13
8.13346e-13
8.13342e-13
-1.61353e-12
-1.61353e-12
-1.61353e-12
-1.61353e-12
-1.61353e-12
-1.61353e-12
-1.61352e-12
-1.61353e-12
-1.61353e-12
-1.61353e-12
-1.61353e-12
-1.61353e-12
-1.61353e-12
-1.61353e-12
-1.61353e-12
-1.61353e-12
-1.61353e-12
-1.61352e-12
-1.61353e-12
-1.61353e-12
-1.61353e-12
-1.61353e-12
-1.61354e-12
-1.61353e-12
-1.61353e-12
-1.61353e-12
-1.61353e-12
-1.61353e-12
-1.61353e-12
-1.61353e-12
-1.61353e-12
-1.61353e-12
-1.61353e-12
-1.61352e-12
-1.61353e-12
-1.61353e-12
-1.61353e-12
-1.61353e-12
-1.61353e-12
-1.61353e-12
-1.61352e-12
-1.61353e-12
-1.61353e-12
-1.61352e-12
-1.61353e-12
-1.61353e-12
-1.61353e-12
-1.61353e-12
-1.61352e-12
-1.61352e-12
-1.61353e-12
-1.61353e-12
-1.61353e-12
-1.61353e-12
-1.61353e-12
-1.61353e-12
-1.61353e-12
-1.61353e-12
-1.61353e-12
-1.61353e-12
-4.60554e-12
-4.60553e-12
-4.60553e-12
-4.60554e-12
-4.60553e-12
-4.60553e-12
-4.60554e-12
-4.60554e-12
-4.60554e-12
-4.60554e-12
-4.60553e-12
-4.60553e-12
-4.60553e-12
-4.60553e-12
-4.60554e-12
-4.60553e-12
-4.60553e-12
-4.60554e-12
-4.60554e-12
-4.60554e-12
-4.60553e-12
-4.60554e-12
-4.60552e-12
-4.60553e-12
-4.60553e-12
-4.60554e-12
-4.60554e-12
-4.60554e-12
-4.60554e-12
-4.60554e-12
-4.60554e-12
-4.60553e-12
-4.60554e-12
-4.60554e-12
-4.60553e-12
-4.60554e-12
-4.60554e-12
-4.60554e-12
-4.60554e-12
-4.60553e-12
-4.60554e-12
-4.60554e-12
-4.60553e-12
-4.60554e-12
-4.60554e-12
-4.60553e-12
-4.60553e-12
-4.60553e-12
-4.60553e-12
-4.60554e-12
-4.60553e-12
-4.60553e-12
-4.60553e-12
-4.60553e-12
-4.60554e-12
-4.60554e-12
-4.60554e-12
-4.60554e-12
-4.60554e-12
-4.60554e-12
-4.96169e-12
-4.96171e-12
-4.9617e-12
-4.9617e-12
-4.96171e-12
-4.96171e-12
-4.96171e-12
-4.96171e-12
-4.96169e-12
-4.96171e-12
-4.96171e-12
-4.96171e-12
-4.96171e-12
-4.96171e-12
-4.9617e-12
-4.96171e-12
-4.96171e-12
-4.9617e-12
-4.9617e-12
-4.9617e-12
-4.96171e-12
-4.9617e-12
-4.96171e-12
-4.96171e-12
-4.9617e-12
-4.96171e-12
-4.9617e-12
-4.96171e-12
-4.9617e-12
-4.9617e-12
-4.9617e-12
-4.96171e-12
-4.9617e-12
-4.96171e-12
-4.96171e-12
-4.96171e-12
-4.9617e-12
-4.9617e-12
-4.9617e-12
-4.96171e-12
-4.9617e-12
-4.9617e-12
-4.96172e-12
-4.96171e-12
-4.9617e-12
-4.96171e-12
-4.96171e-12
-4.96171e-12
-4.96171e-12
-4.96172e-12
-4.9617e-12
-4.9617e-12
-4.9617e-12
-4.96171e-12
-4.9617e-12
-4.9617e-12
-4.96169e-12
-4.96169e-12
-4.96171e-12
-4.96169e-12
-3.54193e-13
-3.54178e-13
-3.54203e-13
-3.54214e-13
-3.54208e-13
-3.54209e-13
-3.54203e-13
-3.54189e-13
-3.54214e-13
-3.54205e-13
-3.54216e-13
-3.54195e-13
-3.54201e-13
-3.54187e-13
-3.54206e-13
-3.54199e-13
-3.54199e-13
-3.54195e-13
-3.54193e-13
-3.54215e-13
-3.54199e-13
-3.54226e-13
-3.54198e-13
-3.54211e-13
-3.54219e-13
-3.54221e-13
-3.54205e-13
-3.54196e-13
-3.542e-13
-3.54211e-13
-3.54213e-13
-3.54212e-13
-3.54213e-13
-3.54213e-13
-3.54189e-13
-3.54198e-13
-3.54224e-13
-3.54204e-13
-3.5422e-13
-3.54201e-13
-3.54211e-13
-3.54212e-13
-3.54182e-13
-3.54197e-13
-3.54195e-13
-3.5421e-13
-3.54201e-13
-3.5421e-13
-3.54204e-13
-3.54188e-13
-3.54236e-13
-3.54187e-13
-3.54208e-13
-3.54202e-13
-3.54209e-13
-3.54203e-13
-3.54206e-13
-3.54209e-13
-3.54191e-13
-3.54201e-13
5.90167e-12
5.90167e-12
5.90166e-12
5.90168e-12
5.90168e-12
5.90167e-12
5.90171e-12
5.90166e-12
5.90167e-12
5.9017e-12
5.90171e-12
5.90167e-12
5.90167e-12
5.90166e-12
5.90166e-12
5.90166e-12
5.90168e-12
5.90167e-12
5.90167e-12
5.9017e-12
5.90167e-12
5.90169e-12
5.90167e-12
5.9017e-12
5.9017e-12
5.90171e-12
5.90168e-12
5.90169e-12
5.90166e-12
5.90168e-12
5.9017e-12
5.90168e-12
5.9017e-12
5.9017e-12
5.90165e-12
5.90166e-12
5.90173e-12
5.9017e-12
5.9017e-12
5.90168e-12
5.90167e-12
5.90169e-12
5.90168e-12
5.90168e-12
5.90166e-12
5.90171e-12
5.90166e-12
5.90171e-12
5.90168e-12
5.90168e-12
5.90171e-12
5.90167e-12
5.90167e-12
5.90168e-12
5.90169e-12
5.90167e-12
5.90168e-12
5.90169e-12
5.90171e-12
5.90166e-12
7.22653e-12
7.22649e-12
7.22652e-12
7.22651e-12
7.22652e-12
7.22649e-12
7.22648e-12
7.22652e-12
7.22654e-12
7.22647e-12
7.22648e-12
7.2265e-12
7.22651e-12
7.22655e-12
7.22652e-12
7.22649e-12
7.22651e-12
7.2265e-12
7.22648e-12
7.22648e-12
7.22653e-12
7.22653e-12
7.22647e-12
7.22647e-12
7.22652e-12
7.22649e-12
7.22648e-12
7.22647e-12
7.2265e-12
7.22651e-12
7.22648e-12
7.22652e-12
7.22651e-12
7.22651e-12
7.22651e-12
7.2265e-12
7.22643e-12
7.22647e-12
7.22651e-12
7.2265e-12
7.22653e-12
7.22647e-12
7.22645e-12
7.22649e-12
7.22653e-12
7.22646e-12
7.22654e-12
7.22649e-12
7.22649e-12
7.22651e-12
7.2265e-12
7.22648e-12
7.22652e-12
7.22648e-12
7.2265e-12
7.2265e-12
7.2265e-12
7.22649e-12
7.22646e-12
7.22655e-12
2.62864e-12
2.62869e-12
2.62869e-12
2.62867e-12
2.62862e-12
2.62872e-12
2.62869e-12
2.62874e-12
2.62869e-12
2.62868e-12
2.62868e-12
2.62872e-12
2.6287e-12
2.62866e-12
2.62864e-12
2.62869e-12
2.62867e-12
2.62871e-12
2.6287e-12
2.62868e-12
2.62866e-12
2.62866e-12
2.62871e-12
2.6287e-12
2.62863e-12
2.62869e-12
2.62873e-12
2.62868e-12
2.62871e-12
2.62866e-12
2.62873e-12
2.62866e-12
2.62867e-12
2.62867e-12
2.62871e-12
2.6287e-12
2.62872e-12
2.62867e-12
2.62868e-12
2.62868e-12
2.62868e-12
2.62872e-12
2.62871e-12
2.62865e-12
2.62866e-12
2.6287e-12
2.62865e-12
2.62873e-12
2.62868e-12
2.62867e-12
2.62865e-12
2.62868e-12
2.62867e-12
2.62874e-12
2.62867e-12
2.62872e-12
2.62869e-12
2.62865e-12
2.62871e-12
2.62862e-12
-2.25276e-12
-2.25273e-12
-2.25285e-12
-2.25271e-12
-2.25272e-12
-2.25282e-12
-2.25282e-12
-2.25281e-12
-2.25279e-12
-2.25277e-12
-2.25275e-12
-2.2528e-12
-2.25273e-12
-2.25274e-12
-2.25273e-12
-2.25274e-12
-2.25271e-12
-2.25279e-12
-2.25271e-12
-2.25273e-12
-2.25275e-12
-2.25278e-12
-2.25276e-12
-2.25276e-12
-2.25271e-12
-2.25274e-12
-2.25286e-12
-2.25276e-12
-2.25277e-12
-2.25275e-12
-2.25285e-12
-2.25268e-12
-2.25275e-12
-2.25279e-12
-2.25277e-12
-2.25276e-12
-2.25274e-12
-2.25273e-12
-2.25284e-12
-2.25272e-12
-2.25276e-12
-2.25279e-12
-2.25276e-12
-2.25276e-12
-2.25274e-12
-2.25278e-12
-2.25279e-12
-2.25279e-12
-2.25277e-12
-2.25282e-12
-2.25273e-12
-2.25265e-12
-2.25269e-12
-2.2528e-12
-2.25277e-12
-2.25275e-12
-2.25276e-12
-2.2527e-12
-2.2528e-12
-2.25273e-12
-3.46086e-12
-3.461e-12
-3.4609e-12
-3.46097e-12
-3.46098e-12
-3.4609e-12
-3.46081e-12
-3.46088e-12
-3.46092e-12
-3.46099e-12
-3.46098e-12
-3.46096e-12
-3.46102e-12
-3.46091e-12
-3.46102e-12
-3.46107e-12
-3.461e-12
-3.46096e-12
-3.46099e-12
-3.46098e-12
-3.4609e-12
-3.46092e-12
-3.46099e-12
-3.46096e-12
-3.46103e-12
-3.46101e-12
-3.46084e-12
-3.46099e-12
-3.46091e-12
-3.46092e-12
-3.46083e-12
-3.46106e-12
-3.46098e-12
-3.46091e-12
-3.46086e-12
-3.46091e-12
-3.46093e-12
-3.461e-12
-3.46082e-12
-3.46107e-12
-3.46088e-12
-3.46091e-12
-3.46089e-12
-3.46089e-12
-3.46094e-12
-3.46093e-12
-3.46089e-12
-3.46089e-12
-3.46095e-12
-3.46082e-12
-3.46099e-12
-3.46112e-12
-3.461e-12
-3.46095e-12
-3.46095e-12
-3.461e-12
-3.46102e-12
-3.4609e-12
-3.46089e-12
-3.46097e-12
-2.22814e-12
-2.22804e-12
-2.22805e-12
-2.22809e-12
-2.2281e-12
-2.22804e-12
-2.2282e-12
-2.22807e-12
-2.22816e-12
-2.22805e-12
-2.22804e-12
-2.22815e-12
-2.22808e-12
-2.22812e-12
-2.22782e-12
-2.22794e-12
-2.22807e-12
-2.2281e-12
-2.22808e-12
-2.22805e-12
-2.22812e-12
-2.22818e-12
-2.22792e-12
-2.22803e-12
-2.22795e-12
-2.22791e-12
-2.22808e-12
-2.22812e-12
-2.22816e-12
-2.2281e-12
-2.2281e-12
-2.2281e-12
-2.22805e-12
-2.22818e-12
-2.22824e-12
-2.22816e-12
-2.22819e-12
-2.22801e-12
-2.22817e-12
-2.22793e-12
-2.22809e-12
-2.22815e-12
-2.22813e-12
-2.22814e-12
-2.22806e-12
-2.22807e-12
-2.2282e-12
-2.22813e-12
-2.22796e-12
-2.22816e-12
-2.22811e-12
-2.22801e-12
-2.22799e-12
-2.22808e-12
-2.22804e-12
-2.22804e-12
-2.22813e-12
-2.22813e-12
-2.22819e-12
-2.2281e-12
-1.00884e-12
-1.00885e-12
-1.00894e-12
-1.00887e-12
-1.00889e-12
-1.00892e-12
-1.00887e-12
-1.00897e-12
-1.00876e-12
-1.00874e-12
-1.00896e-12
-1.00882e-12
-1.00884e-12
-1.00878e-12
-1.00907e-12
-1.00901e-12
-1.00875e-12
-1.00883e-12
-1.00891e-12
-1.00907e-12
-1.00893e-12
-1.00891e-12
-1.00911e-12
-1.00894e-12
-1.00897e-12
-1.00902e-12
-1.00894e-12
-1.00881e-12
-1.00883e-12
-1.0089e-12
-1.00894e-12
-1.00885e-12
-1.00886e-12
-1.00876e-12
-1.00878e-12
-1.00882e-12
-1.00875e-12
-1.0089e-12
-1.00883e-12
-1.00891e-12
-1.00892e-12
-1.00877e-12
-1.0088e-12
-1.00893e-12
-1.00898e-12
-1.00886e-12
-1.00884e-12
-1.00878e-12
-1.00897e-12
-1.00885e-12
-1.00874e-12
-1.00881e-12
-1.00898e-12
-1.00891e-12
-1.00891e-12
-1.00893e-12
-1.00877e-12
-1.00895e-12
-1.00874e-12
-1.00896e-12
-5.58695e-13
-5.58772e-13
-5.58532e-13
-5.58626e-13
-5.58517e-13
-5.58676e-13
-5.58602e-13
-5.58664e-13
-5.58699e-13
-5.58723e-13
-5.58666e-13
-5.5864e-13
-5.58553e-13
-5.58753e-13
-5.58599e-13
-5.58572e-13
-5.58876e-13
-5.58558e-13
-5.58621e-13
-5.58441e-13
-5.58426e-13
-5.58489e-13
-5.5837e-13
-5.58603e-13
-5.58669e-13
-5.58701e-13
-5.58621e-13
-5.58737e-13
-5.58624e-13
-5.58636e-13
-5.58744e-13
-5.5868e-13
-5.58638e-13
-5.58623e-13
-5.58651e-13
-5.58589e-13
-5.58755e-13
-5.58749e-13
-5.58518e-13
-5.58632e-13
-5.58483e-13
-5.58711e-13
-5.58653e-13
-5.58455e-13
-5.58648e-13
-5.58724e-13
-5.58702e-13
-5.58702e-13
-5.58649e-13
-5.58643e-13
-5.58667e-13
-5.58687e-13
-5.58555e-13
-5.58575e-13
-5.58594e-13
-5.58591e-13
-5.58767e-13
-5.58454e-13
-5.58824e-13
-5.58575e-13
-5.05926e-13
-5.05876e-13
-5.06117e-13
-5.05973e-13
-5.0585e-13
-5.06008e-13
-5.06001e-13
-5.05831e-13
-5.05945e-13
-5.05964e-13
-5.06038e-13
-5.06003e-13
-5.06079e-13
-5.05834e-13
-5.05748e-13
-5.0601e-13
-5.05802e-13
-5.05924e-13
-5.05903e-13
-5.06016e-13
-5.06323e-13
-5.05847e-13
-5.05994e-13
-5.05966e-13
-5.06092e-13
-5.05812e-13
-5.05933e-13
-5.05891e-13
-5.05821e-13
-5.05888e-13
-5.05922e-13
-5.05956e-13
-5.06024e-13
-5.06047e-13
-5.05925e-13
-5.06143e-13
-5.05789e-13
-5.05775e-13
-5.061e-13
-5.05954e-13
-5.0613e-13
-5.05823e-13
-5.05845e-13
-5.05938e-13
-5.05814e-13
-5.05998e-13
-5.05813e-13
-5.05883e-13
-5.0585e-13
-5.05987e-13
-5.0595e-13
-5.05908e-13
-5.0588e-13
-5.05795e-13
-5.05863e-13
-5.05901e-13
-5.05825e-13
-5.05945e-13
-5.05839e-13
-5.05776e-13
-4.79048e-13
-4.79094e-13
-4.79181e-13
-4.791e-13
-4.7927e-13
-4.79185e-13
-4.78992e-13
-4.79207e-13
-4.79119e-13
-4.79149e-13
-4.78879e-13
-4.7892e-13
-4.79127e-13
-4.79003e-13
-4.79217e-13
-4.79045e-13
-4.79168e-13
-4.79102e-13
-4.79052e-13
-4.79128e-13
-4.78737e-13
-4.79411e-13
-4.79268e-13
-4.79233e-13
-4.78809e-13
-4.79192e-13
-4.79221e-13
-4.79137e-13
-4.79389e-13
-4.79149e-13
-4.78979e-13
-4.79054e-13
-4.79009e-13
-4.79049e-13
-4.79104e-13
-4.78943e-13
-4.79214e-13
-4.79153e-13
-4.79185e-13
-4.79074e-13
-4.79025e-13
-4.79214e-13
-4.79236e-13
-4.79213e-13
-4.79215e-13
-4.79174e-13
-4.79263e-13
-4.79166e-13
-4.79356e-13
-4.79028e-13
-4.79114e-13
-4.79251e-13
-4.79161e-13
-4.79284e-13
-4.79399e-13
-4.7903e-13
-4.79254e-13
-4.79327e-13
-4.79276e-13
-4.79262e-13
-3.8538e-13
-3.85541e-13
-3.85147e-13
-3.85521e-13
-3.85466e-13
-3.85316e-13
-3.85561e-13
-3.85319e-13
-3.85444e-13
-3.85555e-13
-3.85578e-13
-3.85455e-13
-3.85218e-13
-3.85413e-13
-3.85407e-13
-3.85279e-13
-3.85371e-13
-3.8537e-13
-3.85476e-13
-3.85343e-13
-3.85515e-13
-3.85234e-13
-3.85431e-13
-3.85194e-13
-3.85606e-13
-3.85317e-13
-3.85227e-13
-3.8541e-13
-3.85102e-13
-3.85529e-13
-3.85444e-13
-3.8548e-13
-3.85345e-13
-3.85466e-13
-3.85491e-13
-3.85401e-13
-3.85401e-13
-3.85437e-13
-3.85378e-13
-3.85261e-13
-3.85519e-13
-3.85423e-13
-3.85459e-13
-3.85214e-13
-3.85414e-13
-3.85096e-13
-3.85337e-13
-3.85273e-13
-3.85316e-13
-3.85504e-13
-3.85355e-13
-3.85203e-13
-3.8534e-13
-3.85367e-13
-3.85153e-13
-3.85427e-13
-3.85261e-13
-3.85285e-13
-3.8511e-13
-3.85288e-13
-2.63723e-13
-2.63429e-13
-2.63643e-13
-2.63371e-13
-2.63289e-13
-2.63678e-13
-2.63602e-13
-2.63608e-13
-2.6344e-13
-2.63233e-13
-2.63427e-13
-2.63509e-13
-2.63512e-13
-2.63677e-13
-2.63317e-13
-2.63757e-13
-2.63294e-13
-2.63555e-13
-2.63539e-13
-2.63536e-13
-2.6334e-13
-2.63636e-13
-2.63288e-13
-2.63621e-13
-2.63367e-13
-2.63498e-13
-2.63537e-13
-2.63466e-13
-2.63564e-13
-2.633e-13
-2.63595e-13
-2.63505e-13
-2.63316e-13
-2.63447e-13
-2.63428e-13
-2.63549e-13
-2.6337e-13
-2.63506e-13
-2.63401e-13
-2.63692e-13
-2.63209e-13
-2.63488e-13
-2.63382e-13
-2.63505e-13
-2.63289e-13
-2.63782e-13
-2.63436e-13
-2.63411e-13
-2.63568e-13
-2.63489e-13
-2.63324e-13
-2.63484e-13
-2.63438e-13
-2.6351e-13
-2.63632e-13
-2.63593e-13
-2.63593e-13
-2.6343e-13
-2.63767e-13
-2.63638e-13
-1.57137e-13
-1.57315e-13
-1.572e-13
-1.57373e-13
-1.5752e-13
-1.57255e-13
-1.56965e-13
-1.5705e-13
-1.57379e-13
-1.57333e-13
-1.57581e-13
-1.57461e-13
-1.5751e-13
-1.56974e-13
-1.57343e-13
-1.5701e-13
-1.57551e-13
-1.57225e-13
-1.57179e-13
-1.57255e-13
-1.57262e-13
-1.57212e-13
-1.57352e-13
-1.57265e-13
-1.5745e-13
-1.57335e-13
-1.57564e-13
-1.57327e-13
-1.57306e-13
-1.5712e-13
-1.5721e-13
-1.57005e-13
-1.57516e-13
-1.57262e-13
-1.57282e-13
-1.57245e-13
-1.57366e-13
-1.57339e-13
-1.57236e-13
-1.57331e-13
-1.5737e-13
-1.57362e-13
-1.5725e-13
-1.57503e-13
-1.57435e-13
-1.57111e-13
-1.57283e-13
-1.57476e-13
-1.572e-13
-1.57445e-13
-1.57415e-13
-1.57303e-13
-1.57198e-13
-1.57013e-13
-1.57257e-13
-1.5745e-13
-1.57207e-13
-1.57413e-13
-1.57009e-13
-1.57337e-13
-8.28676e-14
-8.29209e-14
-8.27212e-14
-8.29044e-14
-8.27274e-14
-8.26997e-14
-8.30858e-14
-8.31155e-14
-8.25693e-14
-8.30698e-14
-8.27275e-14
-8.26291e-14
-8.2864e-14
-8.3339e-14
-8.30504e-14
-8.31971e-14
-8.30226e-14
-8.28075e-14
-8.30682e-14
-8.26999e-14
-8.31115e-14
-8.3055e-14
-8.29347e-14
-8.28617e-14
-8.27642e-14
-8.29924e-14
-8.24683e-14
-8.26423e-14
-8.27413e-14
-8.31312e-14
-8.30587e-14
-8.30572e-14
-8.26304e-14
-8.27694e-14
-8.29136e-14
-8.26835e-14
-8.28457e-14
-8.26563e-14
-8.30439e-14
-8.27455e-14
-8.30069e-14
-8.2926e-14
-8.30319e-14
-8.2561e-14
-8.26955e-14
-8.30813e-14
-8.30598e-14
-8.26896e-14
-8.29621e-14
-8.27816e-14
-8.28533e-14
-8.31458e-14
-8.30163e-14
-8.31378e-14
-8.301e-14
-8.28113e-14
-8.28469e-14
-8.27137e-14
-8.29248e-14
-8.26986e-14
-3.76875e-14
-3.76048e-14
-3.76944e-14
-3.75617e-14
-3.75671e-14
-3.77417e-14
-3.76683e-14
-3.73773e-14
-3.78128e-14
-3.75085e-14
-3.74733e-14
-3.77214e-14
-3.76171e-14
-3.74513e-14
-3.7345e-14
-3.7459e-14
-3.74438e-14
-3.75597e-14
-3.73185e-14
-3.78221e-14
-3.73347e-14
-3.74314e-14
-3.75417e-14
-3.75112e-14
-3.75839e-14
-3.754e-14
-3.79278e-14
-3.76591e-14
-3.76417e-14
-3.75326e-14
-3.73634e-14
-3.76057e-14
-3.74746e-14
-3.7552e-14
-3.75293e-14
-3.75001e-14
-3.74513e-14
-3.79421e-14
-3.73759e-14
-3.77348e-14
-3.76545e-14
-3.76005e-14
-3.75239e-14
-3.7889e-14
-3.77581e-14
-3.73847e-14
-3.74892e-14
-3.78157e-14
-3.7522e-14
-3.78303e-14
-3.74344e-14
-3.73416e-14
-3.76277e-14
-3.7667e-14
-3.72713e-14
-3.74638e-14
-3.77189e-14
-3.78873e-14
-3.78526e-14
-3.76822e-14
-1.23458e-14
-1.24746e-14
-1.28253e-14
-1.21786e-14
-1.2752e-14
-1.2476e-14
-1.2345e-14
-1.28981e-14
-1.25121e-14
-1.25572e-14
-1.25796e-14
-1.2498e-14
-1.27687e-14
-1.23663e-14
-1.26132e-14
-1.24478e-14
-1.27645e-14
-1.28469e-14
-1.24117e-14
-1.25986e-14
-1.27686e-14
-1.27103e-14
-1.29609e-14
-1.26035e-14
-1.23152e-14
-1.27946e-14
-1.24331e-14
-1.25695e-14
-1.2742e-14
-1.2351e-14
-1.26007e-14
-1.26133e-14
-1.28449e-14
-1.26155e-14
-1.28205e-14
-1.26284e-14
-1.27966e-14
-1.24137e-14
-1.25737e-14
-1.29125e-14
-1.24264e-14
-1.262e-14
-1.25884e-14
-1.24662e-14
-1.24459e-14
-1.2641e-14
-1.26026e-14
-1.22531e-14
-1.24913e-14
-1.23786e-14
-1.29053e-14
-1.27666e-14
-1.26257e-14
-1.24509e-14
-1.28167e-14
-1.24764e-14
-1.25402e-14
-1.24072e-14
-1.23554e-14
-1.25306e-14
-9.1359e-17
-3.1767e-17
3.78539e-16
-4.38644e-16
3.71719e-16
5.96558e-17
-5.28531e-17
2.18868e-16
2.03923e-16
2.26087e-16
2.48815e-17
-5.03919e-18
3.11252e-16
7.05426e-17
8.79698e-17
-1.31846e-17
3.92085e-16
2.06262e-16
-1.59346e-16
2.13786e-16
2.90632e-16
6.35972e-16
5.04861e-16
-1.07262e-16
-1.69499e-16
6.16926e-16
-3.4489e-17
4.10348e-16
-2.32545e-17
4.47753e-19
1.53839e-16
5.31166e-16
3.50527e-16
-2.94231e-17
9.23771e-17
2.68836e-16
2.41169e-16
1.50594e-16
4.10756e-18
8.13044e-16
1.28311e-16
5.53325e-17
-1.59045e-16
-1.2619e-16
2.47191e-16
-2.16066e-16
1.34634e-16
-3.75486e-17
5.53359e-17
-5.87204e-17
2.76876e-16
4.06099e-16
3.89315e-16
1.09484e-16
1.67414e-16
-5.08595e-17
9.14973e-17
6.81603e-17
-2.24912e-16
2.63719e-16
6.05445e-15
6.31516e-15
6.25556e-15
6.42729e-15
6.20211e-15
6.32204e-15
6.1218e-15
6.09982e-15
6.15066e-15
6.0611e-15
6.27916e-15
6.27219e-15
6.00961e-15
6.21661e-15
6.32221e-15
6.37686e-15
6.21927e-15
6.50032e-15
6.01229e-15
6.05584e-15
5.97877e-15
5.61136e-15
6.1025e-15
5.99908e-15
6.41887e-15
5.6561e-15
6.17355e-15
5.8198e-15
6.43274e-15
6.11205e-15
6.00813e-15
5.68107e-15
6.12542e-15
5.9205e-15
6.27667e-15
6.34225e-15
6.32204e-15
5.96189e-15
6.07635e-15
5.49252e-15
6.23266e-15
6.30863e-15
6.73275e-15
6.34424e-15
5.97744e-15
6.33376e-15
5.87707e-15
6.16636e-15
6.20741e-15
6.30536e-15
6.13642e-15
5.98723e-15
6.14587e-15
5.93007e-15
5.94828e-15
6.39688e-15
5.9763e-15
6.22179e-15
6.58067e-15
6.15236e-15
8.82093e-15
8.45181e-15
8.52727e-15
8.36e-15
8.54382e-15
8.40011e-15
9.17016e-15
8.77524e-15
8.40332e-15
8.54231e-15
8.55635e-15
8.50244e-15
8.52241e-15
8.50396e-15
8.35837e-15
8.24636e-15
8.51237e-15
8.29368e-15
8.88958e-15
8.61951e-15
8.52194e-15
8.92923e-15
8.51595e-15
8.94674e-15
8.29396e-15
8.74314e-15
8.65361e-15
8.86256e-15
8.36558e-15
8.82897e-15
8.92969e-15
8.69376e-15
8.51426e-15
8.94894e-15
8.69772e-15
8.75985e-15
8.24787e-15
8.73269e-15
8.90386e-15
8.95153e-15
8.55586e-15
8.58223e-15
8.2259e-15
8.62076e-15
8.77612e-15
8.82303e-15
8.95168e-15
8.58194e-15
8.65228e-15
8.82228e-15
8.53532e-15
8.85823e-15
8.62424e-15
8.99677e-15
8.86413e-15
8.50347e-15
8.79132e-15
8.61548e-15
8.11615e-15
8.64087e-15
9.16553e-15
9.50944e-15
9.26686e-15
9.54653e-15
9.30801e-15
9.49722e-15
9.0555e-15
9.26765e-15
9.61905e-15
9.63566e-15
9.51271e-15
9.68997e-15
9.27615e-15
9.53586e-15
9.43291e-15
9.70862e-15
9.32783e-15
9.50908e-15
9.38741e-15
9.44841e-15
9.32174e-15
9.47516e-15
9.37376e-15
9.41731e-15
9.5656e-15
9.45527e-15
9.27978e-15
9.36118e-15
9.55907e-15
9.21232e-15
9.14469e-15
9.79695e-15
9.40908e-15
9.43191e-15
9.27029e-15
8.97924e-15
9.88743e-15
9.64417e-15
9.21678e-15
9.19888e-15
9.59424e-15
9.42609e-15
9.43228e-15
9.31641e-15
9.531e-15
8.96525e-15
9.55717e-15
9.68776e-15
9.34607e-15
9.38276e-15
9.5556e-15
9.34704e-15
9.42411e-15
9.27795e-15
9.39713e-15
9.58027e-15
9.04661e-15
9.63535e-15
9.86899e-15
9.29363e-15
9.34507e-15
9.51109e-15
9.32405e-15
9.41239e-15
9.31729e-15
9.47646e-15
9.24124e-15
9.25833e-15
9.1802e-15
9.00995e-15
9.29675e-15
8.93572e-15
9.57433e-15
9.30295e-15
9.07947e-15
9.18491e-15
9.30991e-15
9.50045e-15
8.93965e-15
8.93323e-15
9.44223e-15
9.22929e-15
9.55002e-15
9.03597e-15
9.31041e-15
9.2867e-15
9.38817e-15
9.31328e-15
9.20815e-15
9.46997e-15
9.15014e-15
9.11637e-15
9.21811e-15
9.39438e-15
9.3374e-15
9.57931e-15
8.86012e-15
8.96802e-15
9.40986e-15
9.08931e-15
8.97212e-15
9.17831e-15
9.40597e-15
9.19434e-15
9.28208e-15
9.28933e-15
8.95643e-15
9.39447e-15
9.21213e-15
9.36936e-15
9.16486e-15
9.59062e-15
9.4297e-15
9.32814e-15
9.45405e-15
9.10397e-15
9.66326e-15
9.11382e-15
9.10969e-15
9.60297e-15
8.70557e-15
8.36221e-15
8.52208e-15
8.6094e-15
9.01708e-15
8.26439e-15
8.78702e-15
8.91751e-15
8.76536e-15
9.23856e-15
8.77683e-15
8.60396e-15
8.54287e-15
8.99736e-15
9.08804e-15
8.62083e-15
8.99071e-15
8.50581e-15
9.1617e-15
9.1845e-15
8.922e-15
8.34141e-15
8.38974e-15
8.61209e-15
9.04229e-15
8.89669e-15
8.85439e-15
8.51517e-15
8.97142e-15
8.79705e-15
8.88056e-15
8.77927e-15
8.70194e-15
8.66313e-15
8.64859e-15
8.74317e-15
8.61554e-15
9.28465e-15
8.80658e-15
8.91171e-15
9.12959e-15
9.06282e-15
8.76504e-15
8.77205e-15
9.14855e-15
8.97251e-15
9.06984e-15
8.63754e-15
9.18992e-15
8.50172e-15
8.97738e-15
8.55626e-15
8.75643e-15
8.72625e-15
8.28449e-15
8.85055e-15
8.50246e-15
9.02547e-15
8.85964e-15
8.62928e-15
8.03032e-15
8.40627e-15
8.4239e-15
8.00589e-15
7.78549e-15
8.41088e-15
8.14155e-15
7.91621e-15
8.14209e-15
8.04802e-15
8.22923e-15
8.17408e-15
7.96419e-15
7.53115e-15
7.87867e-15
8.39897e-15
8.12614e-15
8.64958e-15
8.06243e-15
7.71285e-15
7.66437e-15
8.55914e-15
8.36979e-15
8.49359e-15
7.6979e-15
7.81195e-15
8.28303e-15
8.42173e-15
8.38478e-15
7.81899e-15
7.883e-15
8.15332e-15
7.87099e-15
8.2908e-15
8.04116e-15
8.25655e-15
8.26128e-15
7.85773e-15
8.17072e-15
7.89163e-15
8.02565e-15
7.77345e-15
7.98788e-15
7.79621e-15
7.73211e-15
8.16123e-15
7.81391e-15
8.06404e-15
7.7113e-15
8.50069e-15
8.19959e-15
8.1292e-15
7.82188e-15
8.11201e-15
8.24925e-15
8.18251e-15
8.31124e-15
7.87366e-15
7.75433e-15
7.97604e-15
7.39951e-15
7.20505e-15
6.944e-15
7.52049e-15
7.65668e-15
7.39399e-15
7.26273e-15
7.24738e-15
7.25436e-15
7.37062e-15
7.28056e-15
7.17437e-15
7.35797e-15
7.72167e-15
7.51512e-15
7.23944e-15
7.55002e-15
6.84276e-15
7.3237e-15
7.98464e-15
7.40781e-15
7.36581e-15
7.25663e-15
6.91623e-15
7.94754e-15
7.50815e-15
7.14235e-15
7.27842e-15
6.94344e-15
7.48161e-15
7.37553e-15
7.39435e-15
7.62049e-15
7.08718e-15
7.54771e-15
7.12165e-15
7.49876e-15
7.55666e-15
7.56807e-15
7.38523e-15
7.29684e-15
7.44945e-15
7.55286e-15
7.73449e-15
7.47435e-15
7.08941e-15
7.33717e-15
7.23101e-15
7.62335e-15
7.07675e-15
7.08136e-15
7.44222e-15
7.59405e-15
7.4178e-15
7.23136e-15
7.14313e-15
7.70786e-15
7.23301e-15
7.64115e-15
7.41372e-15
6.32765e-15
6.88783e-15
7.07834e-15
6.6276e-15
6.32682e-15
6.36034e-15
6.41861e-15
6.97545e-15
6.76182e-15
6.94823e-15
6.72151e-15
6.54751e-15
6.8235e-15
6.34646e-15
6.33967e-15
6.58999e-15
6.67213e-15
7.1752e-15
6.69569e-15
6.13432e-15
7.25498e-15
6.48394e-15
6.71459e-15
7.22895e-15
6.33059e-15
6.86088e-15
6.84131e-15
6.64299e-15
6.90158e-15
6.64521e-15
7.12918e-15
6.53061e-15
6.52139e-15
6.81973e-15
6.53735e-15
6.98394e-15
6.46011e-15
6.48503e-15
6.4377e-15
6.42188e-15
6.91889e-15
6.78528e-15
6.483e-15
6.60995e-15
6.82207e-15
6.93961e-15
6.95471e-15
6.73126e-15
6.67705e-15
6.80895e-15
6.77687e-15
6.63437e-15
6.85298e-15
6.5478e-15
6.78061e-15
7.28198e-15
6.18906e-15
7.10628e-15
6.37938e-15
6.80302e-15
6.2074e-15
5.68536e-15
6.0894e-15
5.85582e-15
6.17241e-15
5.99244e-15
6.03663e-15
6.30076e-15
5.71809e-15
5.7376e-15
5.87083e-15
5.9717e-15
6.32875e-15
6.13012e-15
6.46605e-15
6.07341e-15
5.80966e-15
5.81635e-15
6.029e-15
6.41546e-15
5.63087e-15
5.72741e-15
6.08469e-15
5.67137e-15
6.30852e-15
5.69884e-15
5.87313e-15
6.43255e-15
5.75627e-15
5.90161e-15
5.79363e-15
5.92292e-15
6.21191e-15
5.77958e-15
5.8827e-15
5.72987e-15
5.80173e-15
5.9706e-15
5.7813e-15
6.09593e-15
5.86459e-15
5.71751e-15
5.71985e-15
5.87107e-15
5.69242e-15
5.80163e-15
5.98575e-15
5.65623e-15
5.68707e-15
5.67167e-15
6.03089e-15
6.10997e-15
5.94745e-15
6.33348e-15
5.70063e-15
5.68333e-15
5.89882e-15
6.06097e-15
6.17257e-15
5.76352e-15
5.25187e-15
5.71173e-15
5.01008e-15
5.5412e-15
5.68304e-15
5.67824e-15
5.65903e-15
4.61494e-15
5.45352e-15
5.53195e-15
5.51822e-15
5.63367e-15
4.88607e-15
5.14559e-15
4.83233e-15
5.2648e-15
5.59174e-15
5.48672e-15
5.5585e-15
4.99972e-15
5.71026e-15
5.4757e-15
5.09821e-15
5.32154e-15
4.93445e-15
5.44109e-15
5.08465e-15
5.02649e-15