/*--------------------------------*- C++ -*----------------------------------*\
| =========                 |                                                 |
| \\      /  F ield         | foam-extend: Open Source CFD                    |
|  \\    /   O peration     | Version:     4.0                                |
|   \\  /    A nd           | Web:         http://www.foam-extend.org         |
|    \\/     M anipulation  |                                                 |
\*---------------------------------------------------------------------------*/
FoamFile
{
    version     2.0;
    format      ascii;
    class       volVectorField;
    location    "16";
    object      U;
}
// * * * * * * * * * * * * * * * * * * * * * * * * * * * * * * * * * * * * * //

dimensions      [0 1 -1 0 0 0 0];

internalField   nonuniform List<vector> 
6960
(
(-4.5339e-07 -223.607 0)
(8.40917e-07 -223.6 0)
(1.82743e-06 -223.6 0)
(6.6218e-07 -223.6 0)
(2.07338e-07 -223.6 0)
(1.07623e-07 -223.6 0)
(5.02403e-08 -223.6 0)
(2.82367e-08 -223.6 0)
(1.22316e-08 -223.6 0)
(4.51694e-09 -223.6 0)
(-1.84408e-09 -223.6 0)
(-5.3445e-09 -223.6 0)
(-8.33622e-09 -223.6 0)
(-1.00639e-08 -223.6 0)
(-1.14788e-08 -223.6 0)
(-1.22224e-08 -223.6 0)
(-1.27178e-08 -223.6 0)
(-1.28008e-08 -223.6 0)
(-1.26725e-08 -223.6 0)
(-1.22653e-08 -223.6 0)
(-1.16818e-08 -223.6 0)
(-1.08985e-08 -223.6 0)
(-9.97215e-09 -223.6 0)
(-8.90166e-09 -223.6 0)
(-7.72325e-09 -223.6 0)
(-6.44508e-09 -223.6 0)
(-5.09278e-09 -223.6 0)
(-3.67878e-09 -223.6 0)
(-2.22446e-09 -223.6 0)
(-7.43644e-10 -223.6 0)
(7.44202e-10 -223.6 0)
(2.22408e-09 -223.6 0)
(3.67778e-09 -223.6 0)
(5.0916e-09 -223.6 0)
(6.44328e-09 -223.6 0)
(7.72158e-09 -223.6 0)
(8.90068e-09 -223.6 0)
(9.97066e-09 -223.6 0)
(1.08967e-08 -223.6 0)
(1.16815e-08 -223.6 0)
(1.22656e-08 -223.6 0)
(1.26722e-08 -223.6 0)
(1.28009e-08 -223.6 0)
(1.27177e-08 -223.6 0)
(1.22222e-08 -223.6 0)
(1.14794e-08 -223.6 0)
(1.00646e-08 -223.6 0)
(8.33763e-09 -223.6 0)
(5.34676e-09 -223.6 0)
(1.846e-09 -223.6 0)
(-4.51449e-09 -223.6 0)
(-1.22284e-08 -223.6 0)
(-2.8234e-08 -223.6 0)
(-5.02385e-08 -223.6 0)
(-1.07621e-07 -223.6 0)
(-2.07337e-07 -223.6 0)
(-6.62179e-07 -223.6 0)
(-1.82743e-06 -223.6 0)
(-8.40919e-07 -223.6 0)
(4.53388e-07 -223.607 0)
(0.000218827 14.3197 0)
(0.000222639 14.3265 0)
(5.37088e-06 14.3265 0)
(1.94745e-06 14.3265 0)
(6.24238e-07 14.3265 0)
(3.24565e-07 14.3265 0)
(1.52931e-07 14.3265 0)
(8.64962e-08 14.3265 0)
(3.84899e-08 14.3265 0)
(1.51607e-08 14.3265 0)
(-3.92067e-09 14.3265 0)
(-1.44877e-08 14.3265 0)
(-2.34773e-08 14.3265 0)
(-2.86959e-08 14.3265 0)
(-3.29539e-08 14.3265 0)
(-3.52361e-08 14.3265 0)
(-3.6756e-08 14.3265 0)
(-3.7056e-08 14.3265 0)
(-3.67416e-08 14.3265 0)
(-3.55895e-08 14.3265 0)
(-3.39155e-08 14.3265 0)
(-3.16681e-08 14.3265 0)
(-2.8984e-08 14.3265 0)
(-2.58762e-08 14.3265 0)
(-2.24657e-08 14.3265 0)
(-1.87473e-08 14.3265 0)
(-1.48109e-08 14.3265 0)
(-1.07083e-08 14.3265 0)
(-6.46957e-09 14.3265 0)
(-2.14703e-09 14.3265 0)
(2.12787e-09 14.3265 0)
(6.47444e-09 14.3265 0)
(1.075e-08 14.3265 0)
(1.47629e-08 14.3265 0)
(1.8742e-08 14.3265 0)
(2.25053e-08 14.3265 0)
(2.58287e-08 14.3265 0)
(2.89797e-08 14.3265 0)
(3.17073e-08 14.3265 0)
(3.38702e-08 14.3265 0)
(3.55901e-08 14.3265 0)
(3.67851e-08 14.3265 0)
(3.70118e-08 14.3265 0)
(3.67556e-08 14.3265 0)
(3.52803e-08 14.3265 0)
(3.29111e-08 14.3265 0)
(2.86979e-08 14.3265 0)
(2.35259e-08 14.3265 0)
(1.44496e-08 14.3265 0)
(3.92634e-09 14.3265 0)
(-1.5109e-08 14.3265 0)
(-3.85251e-08 14.3265 0)
(-8.64885e-08 14.3265 0)
(-1.52881e-07 14.3265 0)
(-3.24604e-07 14.3265 0)
(-6.24232e-07 14.3265 0)
(-1.9474e-06 14.3265 0)
(-5.37093e-06 14.3265 0)
(-0.000222639 14.3265 0)
(-0.000218827 14.3197 0)
(0.000191013 40.1749 0)
(0.000196958 40.1714 0)
(8.47947e-06 40.1713 0)
(3.18471e-06 40.1713 0)
(1.04371e-06 40.1713 0)
(5.45496e-07 40.1713 0)
(2.59498e-07 40.1713 0)
(1.48076e-07 40.1713 0)
(6.77796e-08 40.1713 0)
(2.85794e-08 40.1713 0)
(-3.34423e-09 40.1713 0)
(-2.10986e-08 40.1713 0)
(-3.6132e-08 40.1713 0)
(-4.49157e-08 40.1713 0)
(-5.20758e-08 40.1713 0)
(-5.59556e-08 40.1713 0)
(-5.85789e-08 40.1713 0)
(-5.91925e-08 40.1713 0)
(-5.87831e-08 40.1713 0)
(-5.70106e-08 40.1713 0)
(-5.43836e-08 40.1713 0)
(-5.08077e-08 40.1713 0)
(-4.65306e-08 40.1713 0)
(-4.1562e-08 40.1713 0)
(-3.60896e-08 40.1713 0)
(-3.01266e-08 40.1713 0)
(-2.38091e-08 40.1713 0)
(-1.72101e-08 40.1713 0)
(-1.0403e-08 40.1713 0)
(-3.46408e-09 40.1713 0)
(3.44849e-09 40.1713 0)
(1.04065e-08 40.1713 0)
(1.72445e-08 40.1713 0)
(2.37644e-08 40.1713 0)
(3.01181e-08 40.1713 0)
(3.61206e-08 40.1713 0)
(4.15182e-08 40.1713 0)
(4.65237e-08 40.1713 0)
(5.08384e-08 40.1713 0)
(5.43433e-08 40.1713 0)
(5.70116e-08 40.1713 0)
(5.88205e-08 40.1713 0)
(5.91539e-08 40.1713 0)
(5.8578e-08 40.1713 0)
(5.59939e-08 40.1713 0)
(5.20395e-08 40.1713 0)
(4.49189e-08 40.1713 0)
(3.61776e-08 40.1713 0)
(2.10698e-08 40.1713 0)
(3.35339e-09 40.1713 0)
(-2.85288e-08 40.1713 0)
(-6.78037e-08 40.1713 0)
(-1.48064e-07 40.1713 0)
(-2.59451e-07 40.1713 0)
(-5.45526e-07 40.1713 0)
(-1.04371e-06 40.1713 0)
(-3.18467e-06 40.1713 0)
(-8.4795e-06 40.1713 0)
(-0.000196958 40.1714 0)
(-0.000191013 40.1749 0)
(9.30903e-05 9.62807 0)
(0.000100854 9.62434 0)
(1.1204e-05 9.62434 0)
(4.34959e-06 9.62433 0)
(1.46251e-06 9.62433 0)
(7.69744e-07 9.62433 0)
(3.69908e-07 9.62433 0)
(2.1322e-07 9.62433 0)
(1.00454e-07 9.62433 0)
(4.51859e-08 9.62433 0)
(3.40505e-10 9.62433 0)
(-2.46902e-08 9.62433 0)
(-4.58038e-08 9.62433 0)
(-5.82123e-08 9.62433 0)
(-6.83257e-08 9.62433 0)
(-7.38722e-08 9.62433 0)
(-7.76818e-08 9.62433 0)
(-7.87156e-08 9.62433 0)
(-7.83293e-08 9.62433 0)
(-7.60809e-08 9.62433 0)
(-7.26628e-08 9.62433 0)
(-6.79348e-08 9.62433 0)
(-6.22615e-08 9.62433 0)
(-5.56449e-08 9.62433 0)
(-4.83312e-08 9.62433 0)
(-4.03608e-08 9.62433 0)
(-3.19084e-08 9.62433 0)
(-2.3062e-08 9.62433 0)
(-1.39463e-08 9.62433 0)
(-4.65582e-09 9.62433 0)
(4.65033e-09 9.62433 0)
(1.39465e-08 9.62433 0)
(2.3075e-08 9.62433 0)
(3.18814e-08 9.62433 0)
(4.03493e-08 9.62433 0)
(4.83397e-08 9.62433 0)
(5.5619e-08 9.62433 0)
(6.22523e-08 9.62433 0)
(6.79429e-08 9.62433 0)
(7.26417e-08 9.62433 0)
(7.60822e-08 9.62433 0)
(7.83464e-08 9.62433 0)
(7.86968e-08 9.62433 0)
(7.76806e-08 9.62433 0)
(7.38905e-08 9.62433 0)
(6.83099e-08 9.62433 0)
(5.82166e-08 9.62433 0)
(4.5832e-08 9.62433 0)
(2.46846e-08 9.62433 0)
(-3.28172e-10 9.62433 0)
(-4.51511e-08 9.62433 0)
(-1.00454e-07 9.62433 0)
(-2.13203e-07 9.62433 0)
(-3.69877e-07 9.62433 0)
(-7.69751e-07 9.62433 0)
(-1.4625e-06 9.62433 0)
(-4.34956e-06 9.62433 0)
(-1.1204e-05 9.62434 0)
(-0.000100854 9.62434 0)
(-9.30903e-05 9.62807 0)
(6.23493e-05 -1.45993 0)
(7.17366e-05 -1.46045 0)
(1.36648e-05 -1.46045 0)
(5.44213e-06 -1.46046 0)
(1.87864e-06 -1.46046 0)
(9.96698e-07 -1.46046 0)
(4.84002e-07 -1.46046 0)
(2.81924e-07 -1.46046 0)
(1.36587e-07 -1.46046 0)
(6.50819e-08 -1.46046 0)
(7.26037e-09 -1.46046 0)
(-2.51195e-08 -1.46046 0)
(-5.23469e-08 -1.46046 0)
(-6.84316e-08 -1.46046 0)
(-8.15436e-08 -1.46046 0)
(-8.88317e-08 -1.46046 0)
(-9.39095e-08 -1.46046 0)
(-9.54705e-08 -1.46046 0)
(-9.52371e-08 -1.46046 0)
(-9.26613e-08 -1.46046 0)
(-8.86197e-08 -1.46046 0)
(-8.29321e-08 -1.46046 0)
(-7.6068e-08 -1.46046 0)
(-6.80251e-08 -1.46046 0)
(-5.91105e-08 -1.46046 0)
(-4.93807e-08 -1.46046 0)
(-3.90512e-08 -1.46046 0)
(-2.82277e-08 -1.46046 0)
(-1.70738e-08 -1.46046 0)
(-5.70385e-09 -1.46046 0)
(5.702e-09 -1.46046 0)
(1.70727e-08 -1.46046 0)
(2.82331e-08 -1.46046 0)
(3.90286e-08 -1.46046 0)
(4.93663e-08 -1.46046 0)
(5.91101e-08 -1.46046 0)
(6.80036e-08 -1.46046 0)
(7.60566e-08 -1.46046 0)
(8.29317e-08 -1.46046 0)
(8.86043e-08 -1.46046 0)
(9.26629e-08 -1.46046 0)
(9.52476e-08 -1.46046 0)
(9.54579e-08 -1.46046 0)
(9.39078e-08 -1.46046 0)
(8.88435e-08 -1.46046 0)
(8.15346e-08 -1.46046 0)
(6.84366e-08 -1.46046 0)
(5.23708e-08 -1.46046 0)
(2.51229e-08 -1.46046 0)
(-7.24521e-09 -1.46046 0)
(-6.50495e-08 -1.46046 0)
(-1.36575e-07 -1.46046 0)
(-2.81903e-07 -1.46046 0)
(-4.83974e-07 -1.46046 0)
(-9.96697e-07 -1.46046 0)
(-1.87863e-06 -1.46046 0)
(-5.44211e-06 -1.46046 0)
(-1.36648e-05 -1.46045 0)
(-7.17366e-05 -1.46045 0)
(-6.23493e-05 -1.45993 0)
(6.74723e-05 -0.856287 0)
(7.82657e-05 -0.855804 0)
(1.58498e-05 -0.855805 0)
(6.47197e-06 -0.855813 0)
(2.29036e-06 -0.855814 0)
(1.22569e-06 -0.855814 0)
(6.01548e-07 -0.855814 0)
(3.54087e-07 -0.855814 0)
(1.76145e-07 -0.855814 0)
(8.82673e-08 -0.855814 0)
(1.74346e-08 -0.855814 0)
(-2.23574e-08 -0.855814 0)
(-5.57233e-08 -0.855814 0)
(-7.55319e-08 -0.855814 0)
(-9.16858e-08 -0.855814 0)
(-1.00788e-07 -0.855814 0)
(-1.07216e-07 -0.855814 0)
(-1.09412e-07 -0.855814 0)
(-1.09461e-07 -0.855814 0)
(-1.06709e-07 -0.855814 0)
(-1.02215e-07 -0.855814 0)
(-9.57617e-08 -0.855814 0)
(-8.7916e-08 -0.855814 0)
(-7.86734e-08 -0.855814 0)
(-6.84007e-08 -0.855814 0)
(-5.71645e-08 -0.855814 0)
(-4.52211e-08 -0.855814 0)
(-3.26942e-08 -0.855814 0)
(-1.97785e-08 -0.855814 0)
(-6.60808e-09 -0.855814 0)
(6.60636e-09 -0.855814 0)
(1.97771e-08 -0.855814 0)
(3.26994e-08 -0.855814 0)
(4.51958e-08 -0.855814 0)
(5.71477e-08 -0.855814 0)
(6.83989e-08 -0.855814 0)
(7.86491e-08 -0.855814 0)
(8.79029e-08 -0.855814 0)
(9.57603e-08 -0.855814 0)
(1.02198e-07 -0.855814 0)
(1.06711e-07 -0.855814 0)
(1.09472e-07 -0.855814 0)
(1.09399e-07 -0.855814 0)
(1.07214e-07 -0.855814 0)
(1.008e-07 -0.855814 0)
(9.16761e-08 -0.855814 0)
(7.55376e-08 -0.855814 0)
(5.57499e-08 -0.855814 0)
(2.23622e-08 -0.855814 0)
(-1.74169e-08 -0.855814 0)
(-8.82306e-08 -0.855814 0)
(-1.76131e-07 -0.855814 0)
(-3.54063e-07 -0.855814 0)
(-6.01516e-07 -0.855814 0)
(-1.22569e-06 -0.855814 0)
(-2.29035e-06 -0.855814 0)
(-6.47194e-06 -0.855813 0)
(-1.58498e-05 -0.855805 0)
(-7.82657e-05 -0.855804 0)
(-6.74723e-05 -0.856287 0)
(6.89158e-05 0.247848 0)
(8.08565e-05 0.248035 0)
(1.77205e-05 0.248034 0)
(7.44044e-06 0.248024 0)
(2.69588e-06 0.248024 0)
(1.45596e-06 0.248023 0)
(7.22242e-07 0.248023 0)
(4.29542e-07 0.248023 0)
(2.19037e-07 0.248023 0)
(1.14683e-07 0.248023 0)
(3.08244e-08 0.248023 0)
(-1.64331e-08 0.248023 0)
(-5.59524e-08 0.248023 0)
(-7.95292e-08 0.248023 0)
(-9.87654e-08 0.248023 0)
(-1.0975e-07 0.248023 0)
(-1.17609e-07 0.248023 0)
(-1.20549e-07 0.248023 0)
(-1.21007e-07 0.248023 0)
(-1.1823e-07 0.248023 0)
(-1.13453e-07 0.248023 0)
(-1.06426e-07 0.248023 0)
(-9.78088e-08 0.248023 0)
(-8.7593e-08 0.248023 0)
(-7.6203e-08 0.248023 0)
(-6.3714e-08 0.248023 0)
(-5.04203e-08 0.248023 0)
(-3.64616e-08 0.248023 0)
(-2.20615e-08 0.248023 0)
(-7.37173e-09 0.248023 0)
(7.37036e-09 0.248023 0)
(2.20598e-08 0.248023 0)
(3.64661e-08 0.248023 0)
(5.03933e-08 0.248023 0)
(6.36949e-08 0.248023 0)
(7.61993e-08 0.248023 0)
(8.7567e-08 0.248023 0)
(9.7794e-08 0.248023 0)
(1.06423e-07 0.248023 0)
(1.13436e-07 0.248023 0)
(1.18232e-07 0.248023 0)
(1.21018e-07 0.248023 0)
(1.20535e-07 0.248023 0)
(1.17606e-07 0.248023 0)
(1.09762e-07 0.248023 0)
(9.87557e-08 0.248023 0)
(7.95353e-08 0.248023 0)
(5.59807e-08 0.248023 0)
(1.64395e-08 0.248023 0)
(-3.08046e-08 0.248023 0)
(-1.14644e-07 0.248023 0)
(-2.1902e-07 0.248023 0)
(-4.29514e-07 0.248023 0)
(-7.22207e-07 0.248023 0)
(-1.45596e-06 0.248023 0)
(-2.69587e-06 0.248024 0)
(-7.44041e-06 0.248024 0)
(-1.77206e-05 0.248034 0)
(-8.08565e-05 0.248035 0)
(-6.89158e-05 0.247848 0)
(6.32979e-05 0.264778 0)
(7.61315e-05 0.26475 0)
(1.92774e-05 0.264749 0)
(8.34244e-06 0.264739 0)
(3.0934e-06 0.264738 0)
(1.68665e-06 0.264738 0)
(8.45703e-07 0.264738 0)
(5.08049e-07 0.264738 0)
(2.65108e-07 0.264737 0)
(1.4421e-07 0.264737 0)
(4.73324e-08 0.264737 0)
(-7.43293e-09 0.264737 0)
(-5.31122e-08 0.264737 0)
(-8.04966e-08 0.264737 0)
(-1.02851e-07 0.264737 0)
(-1.15783e-07 0.264737 0)
(-1.2515e-07 0.264737 0)
(-1.28939e-07 0.264737 0)
(-1.29929e-07 0.264737 0)
(-1.27275e-07 0.264737 0)
(-1.22384e-07 0.264737 0)
(-1.1497e-07 0.264737 0)
(-1.05786e-07 0.264737 0)
(-9.48193e-08 0.264737 0)
(-8.25475e-08 0.264737 0)
(-6.90542e-08 0.264737 0)
(-5.46686e-08 0.264737 0)
(-3.95439e-08 0.264737 0)
(-2.39314e-08 0.264737 0)
(-7.99792e-09 0.264737 0)
(7.99742e-09 0.264737 0)
(2.39293e-08 0.264737 0)
(3.95463e-08 0.264737 0)
(5.46415e-08 0.264737 0)
(6.90332e-08 0.264737 0)
(8.25407e-08 0.264737 0)
(9.4793e-08 0.264737 0)
(1.0577e-07 0.264737 0)
(1.14965e-07 0.264737 0)
(1.22367e-07 0.264737 0)
(1.27277e-07 0.264737 0)
(1.29939e-07 0.264737 0)
(1.28926e-07 0.264737 0)
(1.25147e-07 0.264737 0)
(1.15794e-07 0.264737 0)
(1.02843e-07 0.264737 0)
(8.0503e-08 0.264737 0)
(5.31405e-08 0.264737 0)
(7.44205e-09 0.264737 0)
(-4.73108e-08 0.264737 0)
(-1.44169e-07 0.264737 0)
(-2.65087e-07 0.264737 0)
(-5.08019e-07 0.264738 0)
(-8.45667e-07 0.264738 0)
(-1.68665e-06 0.264738 0)
(-3.09338e-06 0.264738 0)
(-8.34241e-06 0.264739 0)
(-1.92774e-05 0.264749 0)
(-7.61315e-05 0.26475 0)
(-6.3298e-05 0.264778 0)
(5.69001e-05 0.0741109 0)
(7.03945e-05 0.0740999 0)
(2.05392e-05 0.0740997 0)
(9.17325e-06 0.0740882 0)
(3.48107e-06 0.0740872 0)
(1.91679e-06 0.0740868 0)
(9.7147e-07 0.0740867 0)
(5.89298e-07 0.0740867 0)
(3.14141e-07 0.0740867 0)
(1.76666e-07 0.0740867 0)
(6.6802e-08 0.0740867 0)
(4.49848e-09 0.0740867 0)
(-4.73387e-08 0.0740866 0)
(-7.85646e-08 0.0740866 0)
(-1.04069e-07 0.0740866 0)
(-1.19008e-07 0.0740866 0)
(-1.29958e-07 0.0740866 0)
(-1.34695e-07 0.0740866 0)
(-1.36335e-07 0.0740866 0)
(-1.33945e-07 0.0740866 0)
(-1.29098e-07 0.0740866 0)
(-1.21478e-07 0.0740866 0)
(-1.11924e-07 0.0740866 0)
(-1.0042e-07 0.0740866 0)
(-8.74924e-08 0.0740866 0)
(-7.32332e-08 0.0740866 0)
(-5.80037e-08 0.0740866 0)
(-4.19685e-08 0.0740866 0)
(-2.54046e-08 0.0740866 0)
(-8.49164e-09 0.0740866 0)
(8.49196e-09 0.0740866 0)
(2.5402e-08 0.0740866 0)
(4.19688e-08 0.0740866 0)
(5.79768e-08 0.0740866 0)
(7.32104e-08 0.0740866 0)
(8.74825e-08 0.0740866 0)
(1.00393e-07 0.0740866 0)
(1.11907e-07 0.0740866 0)
(1.2147e-07 0.0740866 0)
(1.29082e-07 0.0740866 0)
(1.33947e-07 0.0740866 0)
(1.36343e-07 0.0740866 0)
(1.34683e-07 0.0740866 0)
(1.29954e-07 0.0740866 0)
(1.19018e-07 0.0740866 0)
(1.04062e-07 0.0740866 0)
(7.85711e-08 0.0740866 0)
(4.73665e-08 0.0740866 0)
(-4.4869e-09 0.0740867 0)
(-6.67789e-08 0.0740867 0)
(-1.76624e-07 0.0740867 0)
(-3.14117e-07 0.0740867 0)
(-5.89266e-07 0.0740867 0)
(-9.71433e-07 0.0740867 0)
(-1.91678e-06 0.0740868 0)
(-3.48105e-06 0.0740872 0)
(-9.17322e-06 0.0740882 0)
(-2.05392e-05 0.0740997 0)
(-7.03945e-05 0.0740999 0)
(-5.69001e-05 0.0741109 0)
(5.16599e-05 -0.00329809 0)
(6.56022e-05 -0.00325941 0)
(2.15233e-05 -0.00325899 0)
(9.93003e-06 -0.00327132 0)
(3.85708e-06 -0.00327246 0)
(2.14531e-06 -0.00327296 0)
(1.09901e-06 -0.00327308 0)
(6.72908e-07 -0.00327314 0)
(3.65856e-07 -0.00327316 0)
(2.11811e-07 -0.00327318 0)
(8.90203e-08 -0.00327319 0)
(1.91609e-08 -0.00327319 0)
(-3.88229e-08 -0.0032732 0)
(-7.3918e-08 -0.0032732 0)
(-1.02598e-07 -0.0032732 0)
(-1.196e-07 -0.0032732 0)
(-1.32199e-07 -0.0032732 0)
(-1.37977e-07 -0.0032732 0)
(-1.40376e-07 -0.0032732 0)
(-1.38384e-07 -0.00327321 0)
(-1.33731e-07 -0.00327321 0)
(-1.26073e-07 -0.00327321 0)
(-1.16334e-07 -0.00327321 0)
(-1.04492e-07 -0.00327321 0)
(-9.11221e-08 -0.00327321 0)
(-7.6321e-08 -0.00327321 0)
(-6.04805e-08 -0.00327321 0)
(-4.37751e-08 -0.00327321 0)
(-2.65048e-08 -0.00327321 0)
(-8.86073e-09 -0.00327321 0)
(8.86164e-09 -0.00327321 0)
(2.65018e-08 -0.00327321 0)
(4.37736e-08 -0.00327321 0)
(6.04538e-08 -0.00327321 0)
(7.62968e-08 -0.00327321 0)
(9.11096e-08 -0.00327321 0)
(1.04466e-07 -0.00327321 0)
(1.16316e-07 -0.00327321 0)
(1.26064e-07 -0.00327321 0)
(1.33715e-07 -0.00327321 0)
(1.38385e-07 -0.00327321 0)
(1.40383e-07 -0.0032732 0)
(1.37966e-07 -0.0032732 0)
(1.32195e-07 -0.0032732 0)
(1.19609e-07 -0.0032732 0)
(1.02592e-07 -0.0032732 0)
(7.39246e-08 -0.0032732 0)
(3.88501e-08 -0.0032732 0)
(-1.91474e-08 -0.00327319 0)
(-8.8996e-08 -0.00327319 0)
(-2.11769e-07 -0.00327318 0)
(-3.65829e-07 -0.00327316 0)
(-6.72874e-07 -0.00327314 0)
(-1.09897e-06 -0.00327308 0)
(-2.1453e-06 -0.00327296 0)
(-3.85706e-06 -0.00327246 0)
(-9.93e-06 -0.00327132 0)
(-2.15233e-05 -0.00325899 0)
(-6.56022e-05 -0.00325941 0)
(-5.16599e-05 -0.00329809 0)
(4.69432e-05 -0.0192453 0)
(6.11386e-05 -0.0191891 0)
(2.22467e-05 -0.0191881 0)
(1.06107e-05 -0.0192012 0)
(4.21961e-06 -0.0192025 0)
(2.37105e-06 -0.0192031 0)
(1.2277e-06 -0.0192032 0)
(7.58434e-07 -0.0192033 0)
(4.19917e-07 -0.0192034 0)
(2.49352e-07 -0.0192034 0)
(1.13722e-07 -0.0192034 0)
(3.63024e-08 -0.0192034 0)
(-2.78063e-08 -0.0192034 0)
(-6.67924e-08 -0.0192034 0)
(-9.86665e-08 -0.0192034 0)
(-1.17782e-07 -0.0192034 0)
(-1.32088e-07 -0.0192034 0)
(-1.38992e-07 -0.0192034 0)
(-1.42251e-07 -0.0192034 0)
(-1.40776e-07 -0.0192034 0)
(-1.36455e-07 -0.0192034 0)
(-1.28915e-07 -0.0192034 0)
(-1.1916e-07 -0.0192034 0)
(-1.07163e-07 -0.0192034 0)
(-9.35458e-08 -0.0192034 0)
(-7.84081e-08 -0.0192034 0)
(-6.21703e-08 -0.0192034 0)
(-4.5015e-08 -0.0192034 0)
(-2.72631e-08 -0.0192034 0)
(-9.11557e-09 -0.0192034 0)
(9.11691e-09 -0.0192034 0)
(2.72598e-08 -0.0192034 0)
(4.50119e-08 -0.0192034 0)
(6.21438e-08 -0.0192034 0)
(7.83828e-08 -0.0192034 0)
(9.35309e-08 -0.0192034 0)
(1.07137e-07 -0.0192034 0)
(1.19141e-07 -0.0192034 0)
(1.28904e-07 -0.0192034 0)
(1.3644e-07 -0.0192034 0)
(1.40778e-07 -0.0192034 0)
(1.42257e-07 -0.0192034 0)
(1.38982e-07 -0.0192034 0)
(1.32084e-07 -0.0192034 0)
(1.17789e-07 -0.0192034 0)
(9.86614e-08 -0.0192034 0)
(6.67989e-08 -0.0192034 0)
(2.78329e-08 -0.0192034 0)
(-3.62875e-08 -0.0192034 0)
(-1.13697e-07 -0.0192034 0)
(-2.49309e-07 -0.0192034 0)
(-4.19888e-07 -0.0192034 0)
(-7.58398e-07 -0.0192033 0)
(-1.22767e-06 -0.0192032 0)
(-2.37104e-06 -0.0192031 0)
(-4.21959e-06 -0.0192025 0)
(-1.06107e-05 -0.0192012 0)
(-2.22467e-05 -0.0191881 0)
(-6.11386e-05 -0.0191891 0)
(-4.69432e-05 -0.0192453 0)
(4.23041e-05 -0.0256157 0)
(5.65792e-05 -0.0255565 0)
(2.27299e-05 -0.025555 0)
(1.12134e-05 -0.0255687 0)
(4.56694e-06 -0.0255702 0)
(2.59281e-06 -0.0255709 0)
(1.3569e-06 -0.0255711 0)
(8.45378e-07 -0.0255712 0)
(4.75941e-07 -0.0255712 0)
(2.88949e-07 -0.0255712 0)
(1.40598e-07 -0.0255712 0)
(5.56264e-08 -0.0255713 0)
(-1.45755e-08 -0.0255713 0)
(-5.74676e-08 -0.0255713 0)
(-9.25482e-08 -0.0255713 0)
(-1.13819e-07 -0.0255713 0)
(-1.29884e-07 -0.0255713 0)
(-1.37989e-07 -0.0255713 0)
(-1.42195e-07 -0.0255713 0)
(-1.41346e-07 -0.0255713 0)
(-1.37478e-07 -0.0255713 0)
(-1.30193e-07 -0.0255713 0)
(-1.20573e-07 -0.0255713 0)
(-1.08586e-07 -0.0255713 0)
(-9.48944e-08 -0.0255713 0)
(-7.96033e-08 -0.0255713 0)
(-6.31585e-08 -0.0255713 0)
(-4.57497e-08 -0.0255713 0)
(-2.77167e-08 -0.0255713 0)
(-9.26861e-09 -0.0255713 0)
(9.27024e-09 -0.0255713 0)
(2.77129e-08 -0.0255713 0)
(4.57451e-08 -0.0255713 0)
(6.31323e-08 -0.0255713 0)
(7.9577e-08 -0.0255713 0)
(9.48774e-08 -0.0255713 0)
(1.08559e-07 -0.0255713 0)
(1.20554e-07 -0.0255713 0)
(1.30181e-07 -0.0255713 0)
(1.37464e-07 -0.0255713 0)
(1.41347e-07 -0.0255713 0)
(1.422e-07 -0.0255713 0)
(1.3798e-07 -0.0255713 0)
(1.29879e-07 -0.0255713 0)
(1.13825e-07 -0.0255713 0)
(9.25438e-08 -0.0255713 0)
(5.74739e-08 -0.0255713 0)
(1.46011e-08 -0.0255713 0)
(-5.56105e-08 -0.0255713 0)
(-1.40572e-07 -0.0255712 0)
(-2.88906e-07 -0.0255712 0)
(-4.7591e-07 -0.0255712 0)
(-8.45341e-07 -0.0255712 0)
(-1.35686e-06 -0.0255711 0)
(-2.59279e-06 -0.0255709 0)
(-4.56692e-06 -0.0255702 0)
(-1.12134e-05 -0.0255687 0)
(-2.27299e-05 -0.025555 0)
(-5.65792e-05 -0.0255565 0)
(-4.23041e-05 -0.0256157 0)
(3.77574e-05 -0.02679 0)
(5.19636e-05 -0.0267288 0)
(2.29972e-05 -0.0267268 0)
(1.17369e-05 -0.026741 0)
(4.89747e-06 -0.0267427 0)
(2.80936e-06 -0.0267435 0)
(1.48591e-06 -0.0267437 0)
(9.33214e-07 -0.0267439 0)
(5.33515e-07 -0.0267439 0)
(3.30231e-07 -0.0267439 0)
(1.69306e-07 -0.0267439 0)
(7.68041e-08 -0.026744 0)
(5.50387e-10 -0.026744 0)
(-4.62567e-08 -0.026744 0)
(-8.45492e-08 -0.026744 0)
(-1.08011e-07 -0.026744 0)
(-1.25876e-07 -0.026744 0)
(-1.35246e-07 -0.026744 0)
(-1.40475e-07 -0.026744 0)
(-1.40344e-07 -0.026744 0)
(-1.37034e-07 -0.026744 0)
(-1.30123e-07 -0.026744 0)
(-1.20769e-07 -0.026744 0)
(-1.08932e-07 -0.026744 0)
(-9.53159e-08 -0.026744 0)
(-8.00294e-08 -0.026744 0)
(-6.35419e-08 -0.026744 0)
(-4.60488e-08 -0.026744 0)
(-2.79075e-08 -0.026744 0)
(-9.3339e-09 -0.026744 0)
(9.33567e-09 -0.026744 0)
(2.79032e-08 -0.026744 0)
(4.60428e-08 -0.026744 0)
(6.35161e-08 -0.026744 0)
(8.00023e-08 -0.026744 0)
(9.52971e-08 -0.026744 0)
(1.08905e-07 -0.026744 0)
(1.20749e-07 -0.026744 0)
(1.3011e-07 -0.026744 0)
(1.37021e-07 -0.026744 0)
(1.40346e-07 -0.026744 0)
(1.40478e-07 -0.026744 0)
(1.35237e-07 -0.026744 0)
(1.25871e-07 -0.026744 0)
(1.08015e-07 -0.026744 0)
(8.45456e-08 -0.026744 0)
(4.62629e-08 -0.026744 0)
(-5.25727e-10 -0.026744 0)
(-7.67872e-08 -0.026744 0)
(-1.6928e-07 -0.0267439 0)
(-3.30189e-07 -0.0267439 0)
(-5.33483e-07 -0.0267439 0)
(-9.33176e-07 -0.0267439 0)
(-1.48587e-06 -0.0267437 0)
(-2.80934e-06 -0.0267435 0)
(-4.89745e-06 -0.0267427 0)
(-1.17369e-05 -0.026741 0)
(-2.29971e-05 -0.0267268 0)
(-5.19636e-05 -0.0267288 0)
(-3.77574e-05 -0.02679 0)
(3.33643e-05 -0.0166497 0)
(4.73789e-05 -0.0165884 0)
(2.30747e-05 -0.0165859 0)
(1.2181e-05 -0.0166005 0)
(5.20984e-06 -0.0166024 0)
(3.01955e-06 -0.0166034 0)
(1.61406e-06 -0.0166036 0)
(1.02141e-06 -0.0166037 0)
(5.9222e-07 -0.0166038 0)
(3.72819e-07 -0.0166038 0)
(1.99493e-07 -0.0166038 0)
(9.94925e-08 -0.0166039 0)
(1.72369e-08 -0.0166039 0)
(-3.34888e-08 -0.0166039 0)
(-7.49925e-08 -0.0166039 0)
(-1.00673e-07 -0.0166039 0)
(-1.20372e-07 -0.0166039 0)
(-1.31059e-07 -0.0166039 0)
(-1.37373e-07 -0.0166039 0)
(-1.38038e-07 -0.0166039 0)
(-1.35372e-07 -0.0166039 0)
(-1.28935e-07 -0.0166039 0)
(-1.19953e-07 -0.0166039 0)
(-1.08384e-07 -0.0166039 0)
(-9.49679e-08 -0.0166039 0)
(-7.98171e-08 -0.0166039 0)
(-6.34231e-08 -0.0166039 0)
(-4.59864e-08 -0.0166039 0)
(-2.78801e-08 -0.0166039 0)
(-9.32638e-09 -0.0166039 0)
(9.32814e-09 -0.0166039 0)
(2.78754e-08 -0.0166039 0)
(4.5979e-08 -0.0166039 0)
(6.33977e-08 -0.0166039 0)
(7.97895e-08 -0.0166039 0)
(9.49475e-08 -0.0166039 0)
(1.08357e-07 -0.0166039 0)
(1.19933e-07 -0.0166039 0)
(1.28921e-07 -0.0166039 0)
(1.3536e-07 -0.0166039 0)
(1.38039e-07 -0.0166039 0)
(1.37375e-07 -0.0166039 0)
(1.31052e-07 -0.0166039 0)
(1.20367e-07 -0.0166039 0)
(1.00676e-07 -0.0166039 0)
(7.49895e-08 -0.0166039 0)
(3.34948e-08 -0.0166039 0)
(-1.72133e-08 -0.0166039 0)
(-9.94749e-08 -0.0166039 0)
(-1.99466e-07 -0.0166038 0)
(-3.72777e-07 -0.0166038 0)
(-5.92186e-07 -0.0166038 0)
(-1.02138e-06 -0.0166037 0)
(-1.61402e-06 -0.0166036 0)
(-3.01953e-06 -0.0166034 0)
(-5.20982e-06 -0.0166024 0)
(-1.21809e-05 -0.0166005 0)
(-2.30747e-05 -0.0165859 0)
(-4.73789e-05 -0.0165884 0)
(-3.33643e-05 -0.0166497 0)
(2.90901e-05 0.00524178 0)
(4.28153e-05 0.00529861 0)
(2.29886e-05 0.00530171 0)
(1.25465e-05 0.00528678 0)
(5.50296e-06 0.00528464 0)
(3.22235e-06 0.00528358 0)
(1.74074e-06 0.0052833 0)
(1.10949e-06 0.00528314 0)
(6.5166e-07 0.00528309 0)
(4.16349e-07 0.00528305 0)
(2.30817e-07 0.00528303 0)
(1.23359e-07 0.00528301 0)
(3.51569e-08 0.00528301 0)
(-1.94873e-08 0.005283 0)
(-6.41963e-08 0.005283 0)
(-9.21179e-08 0.00528299 0)
(-1.13675e-07 0.00528299 0)
(-1.25723e-07 0.00528299 0)
(-1.3317e-07 0.00528299 0)
(-1.34693e-07 0.00528298 0)
(-1.3274e-07 0.00528298 0)
(-1.26855e-07 0.00528298 0)
(-1.18332e-07 0.00528298 0)
(-1.07124e-07 0.00528298 0)
(-9.40072e-08 0.00528298 0)
(-7.90966e-08 0.00528298 0)
(-6.29047e-08 0.00528298 0)
(-4.56363e-08 0.00528298 0)
(-2.76792e-08 0.00528298 0)
(-9.26093e-09 0.00528298 0)
(9.26253e-09 0.00528298 0)
(2.7674e-08 0.00528298 0)
(4.56275e-08 0.00528298 0)
(6.28798e-08 0.00528298 0)
(7.90687e-08 0.00528298 0)
(9.39854e-08 0.00528298 0)
(1.07098e-07 0.00528298 0)
(1.18312e-07 0.00528298 0)
(1.26841e-07 0.00528298 0)
(1.32728e-07 0.00528298 0)
(1.34693e-07 0.00528298 0)
(1.33171e-07 0.00528299 0)
(1.25716e-07 0.00528299 0)
(1.1367e-07 0.00528299 0)
(9.21205e-08 0.00528299 0)
(6.41941e-08 0.005283 0)
(1.94932e-08 0.005283 0)
(-3.51344e-08 0.00528301 0)
(-1.23341e-07 0.00528301 0)
(-2.3079e-07 0.00528303 0)
(-4.16309e-07 0.00528305 0)
(-6.51626e-07 0.00528309 0)
(-1.10945e-06 0.00528314 0)
(-1.7407e-06 0.0052833 0)
(-3.22233e-06 0.00528358 0)
(-5.50294e-06 0.00528464 0)
(-1.25464e-05 0.00528678 0)
(-2.29885e-05 0.00530171 0)
(-4.28153e-05 0.00529861 0)
(-2.90902e-05 0.00524178 0)
(2.48579e-05 0.0330272 0)
(3.82181e-05 0.0330756 0)
(2.27633e-05 0.0330793 0)
(1.28353e-05 0.0330641 0)
(5.7761e-06 0.0330618 0)
(3.41691e-06 0.0330606 0)
(1.86542e-06 0.0330603 0)
(1.19702e-06 0.0330601 0)
(7.11496e-07 0.03306 0)
(4.60505e-07 0.03306 0)
(2.62977e-07 0.0330599 0)
(1.48104e-07 0.0330599 0)
(5.40147e-08 0.0330599 0)
(-4.54638e-09 0.0330599 0)
(-5.24521e-08 0.0330599 0)
(-8.26328e-08 0.0330599 0)
(-1.06066e-07 0.0330599 0)
(-1.19508e-07 0.0330599 0)
(-1.28125e-07 0.0330599 0)
(-1.30554e-07 0.0330599 0)
(-1.29368e-07 0.0330599 0)
(-1.24096e-07 0.0330599 0)
(-1.16097e-07 0.0330599 0)
(-1.05322e-07 0.0330599 0)
(-9.25797e-08 0.0330599 0)
(-7.7989e-08 0.0330599 0)
(-6.2082e-08 0.0330599 0)
(-4.50672e-08 0.0330599 0)
(-2.73462e-08 0.0330599 0)
(-9.15139e-09 0.0330599 0)
(9.15271e-09 0.0330599 0)
(2.73404e-08 0.0330599 0)
(4.5057e-08 0.0330599 0)
(6.20575e-08 0.0330599 0)
(7.79609e-08 0.0330599 0)
(9.25566e-08 0.0330599 0)
(1.05296e-07 0.0330599 0)
(1.16077e-07 0.0330599 0)
(1.24081e-07 0.0330599 0)
(1.29357e-07 0.0330599 0)
(1.30554e-07 0.0330599 0)
(1.28126e-07 0.0330599 0)
(1.19502e-07 0.0330599 0)
(1.06061e-07 0.0330599 0)
(8.26345e-08 0.0330599 0)
(5.24506e-08 0.0330599 0)
(4.5523e-09 0.0330599 0)
(-5.39934e-08 0.0330599 0)
(-1.48085e-07 0.0330599 0)
(-2.6295e-07 0.0330599 0)
(-4.60465e-07 0.03306 0)
(-7.11461e-07 0.03306 0)
(-1.19698e-06 0.0330601 0)
(-1.86538e-06 0.0330603 0)
(-3.41689e-06 0.0330606 0)
(-5.77607e-06 0.0330618 0)
(-1.28353e-05 0.0330641 0)
(-2.27633e-05 0.0330793 0)
(-3.82181e-05 0.0330756 0)
(-2.4858e-05 0.0330272 0)
(2.06212e-05 0.0578 0)
(3.35594e-05 0.0578389 0)
(2.24204e-05 0.0578431 0)
(1.30505e-05 0.0578278 0)
(6.02883e-06 0.0578253 0)
(3.60263e-06 0.057824 0)
(1.98773e-06 0.0578236 0)
(1.28369e-06 0.0578234 0)
(7.71465e-07 0.0578233 0)
(5.05037e-07 0.0578233 0)
(2.9573e-07 0.0578233 0)
(1.73485e-07 0.0578232 0)
(7.35662e-08 0.0578232 0)
(1.10885e-08 0.0578232 0)
(-4.00044e-08 0.0578232 0)
(-7.24598e-08 0.0578232 0)
(-9.77816e-08 0.0578232 0)
(-1.12644e-07 0.0578232 0)
(-1.2246e-07 0.0578232 0)
(-1.25831e-07 0.0578232 0)
(-1.25452e-07 0.0578232 0)
(-1.20838e-07 0.0578232 0)
(-1.13412e-07 0.0578232 0)
(-1.03122e-07 0.0578232 0)
(-9.08106e-08 0.0578232 0)
(-7.65985e-08 0.0578232 0)
(-6.1037e-08 0.0578232 0)
(-4.43382e-08 0.0578232 0)
(-2.69167e-08 0.0578232 0)
(-9.00969e-09 0.0578232 0)
(9.01058e-09 0.0578232 0)
(2.69103e-08 0.0578232 0)
(4.43265e-08 0.0578232 0)
(6.10129e-08 0.0578232 0)
(7.65703e-08 0.0578232 0)
(9.07864e-08 0.0578232 0)
(1.03097e-07 0.0578232 0)
(1.13392e-07 0.0578232 0)
(1.20822e-07 0.0578232 0)
(1.25441e-07 0.0578232 0)
(1.25831e-07 0.0578232 0)
(1.2246e-07 0.0578232 0)
(1.1264e-07 0.0578232 0)
(9.77772e-08 0.0578232 0)
(7.24607e-08 0.0578232 0)
(4.00037e-08 0.0578232 0)
(-1.10825e-08 0.0578232 0)
(-7.3546e-08 0.0578232 0)
(-1.73466e-07 0.0578232 0)
(-2.95703e-07 0.0578233 0)
(-5.04998e-07 0.0578233 0)
(-7.7143e-07 0.0578233 0)
(-1.28365e-06 0.0578234 0)
(-1.98769e-06 0.0578236 0)
(-3.60261e-06 0.057824 0)
(-6.0288e-06 0.0578253 0)
(-1.30505e-05 0.0578278 0)
(-2.24204e-05 0.0578431 0)
(-3.35594e-05 0.0578389 0)
(-2.06212e-05 0.0578 0)
(1.64039e-05 0.0720881 0)
(2.88773e-05 0.0721197 0)
(2.19776e-05 0.0721245 0)
(1.31957e-05 0.0721091 0)
(6.26099e-06 0.0721064 0)
(3.77912e-06 0.072105 0)
(2.1074e-06 0.0721046 0)
(1.36929e-06 0.0721044 0)
(8.31392e-07 0.0721043 0)
(5.49772e-07 0.0721042 0)
(3.28904e-07 0.0721042 0)
(1.99325e-07 0.0721042 0)
(9.36298e-08 0.0721041 0)
(2.72323e-08 0.0721041 0)
(-2.70399e-08 0.0721041 0)
(-6.17851e-08 0.0721041 0)
(-8.90065e-08 0.0721041 0)
(-1.05312e-07 0.0721041 0)
(-1.16348e-07 0.0721041 0)
(-1.2069e-07 0.0721041 0)
(-1.21145e-07 0.0721041 0)
(-1.17224e-07 0.0721041 0)
(-1.10406e-07 0.0721041 0)
(-1.0064e-07 0.0721041 0)
(-8.87989e-08 0.0721041 0)
(-7.50072e-08 0.0721041 0)
(-5.98343e-08 0.0721041 0)
(-4.34959e-08 0.0721041 0)
(-2.64189e-08 0.0721041 0)
(-8.84526e-09 0.0721041 0)
(8.84556e-09 0.0721041 0)
(2.64118e-08 0.0721041 0)
(4.34828e-08 0.0721041 0)
(5.98106e-08 0.0721041 0)
(7.49791e-08 0.0721041 0)
(8.87737e-08 0.0721041 0)
(1.00615e-07 0.0721041 0)
(1.10386e-07 0.0721041 0)
(1.17208e-07 0.0721041 0)
(1.21135e-07 0.0721041 0)
(1.20689e-07 0.0721041 0)
(1.16347e-07 0.0721041 0)
(1.05308e-07 0.0721041 0)
(8.90024e-08 0.0721041 0)
(6.17854e-08 0.0721041 0)
(2.70401e-08 0.0721041 0)
(-2.72261e-08 0.0721041 0)
(-9.36108e-08 0.0721041 0)
(-1.99305e-07 0.0721042 0)
(-3.28877e-07 0.0721042 0)
(-5.49734e-07 0.0721042 0)
(-8.31356e-07 0.0721043 0)
(-1.36925e-06 0.0721044 0)
(-2.10736e-06 0.0721046 0)
(-3.7791e-06 0.072105 0)
(-6.26097e-06 0.0721064 0)
(-1.31957e-05 0.0721091 0)
(-2.19775e-05 0.0721245 0)
(-2.88773e-05 0.0721197 0)
(-1.64039e-05 0.0720881 0)
(1.22994e-05 0.0733955 0)
(2.42751e-05 0.0734244 0)
(2.14485e-05 0.0734297 0)
(1.32748e-05 0.0734144 0)
(6.47259e-06 0.0734116 0)
(3.94615e-06 0.07341 0)
(2.22429e-06 0.0734096 0)
(1.45369e-06 0.0734093 0)
(8.91178e-07 0.0734092 0)
(5.94612e-07 0.0734091 0)
(3.62394e-07 0.0734091 0)
(2.25511e-07 0.0734091 0)
(1.14087e-07 0.0734091 0)
(4.37615e-08 0.073409 0)
(-1.36855e-08 0.073409 0)
(-5.07374e-08 0.073409 0)
(-7.98686e-08 0.073409 0)
(-9.76372e-08 0.073409 0)
(-1.09911e-07 0.073409 0)
(-1.15246e-07 0.073409 0)
(-1.16559e-07 0.073409 0)
(-1.13356e-07 0.073409 0)
(-1.07173e-07 0.073409 0)
(-9.79587e-08 0.073409 0)
(-8.66158e-08 0.073409 0)
(-7.32745e-08 0.073409 0)
(-5.85208e-08 0.073409 0)
(-4.2574e-08 0.073409 0)
(-2.58732e-08 0.073409 0)
(-8.66487e-09 0.073409 0)
(8.66447e-09 0.073409 0)
(2.58653e-08 0.073409 0)
(4.25595e-08 0.073409 0)
(5.84975e-08 0.073409 0)
(7.32466e-08 0.073409 0)
(8.65897e-08 0.073409 0)
(9.79341e-08 0.073409 0)
(1.07152e-07 0.073409 0)
(1.13339e-07 0.073409 0)