/*--------------------------------*- C++ -*----------------------------------*\
| =========                 |                                                 |
| \\      /  F ield         | foam-extend: Open Source CFD                    |
|  \\    /   O peration     | Version:     4.0                                |
|   \\  /    A nd           | Web:         http://www.foam-extend.org         |
|    \\/     M anipulation  |                                                 |
\*---------------------------------------------------------------------------*/
FoamFile
{
    version     2.0;
    format      ascii;
    class       volScalarField;
    location    "420";
    object      cPlus;
}
// * * * * * * * * * * * * * * * * * * * * * * * * * * * * * * * * * * * * * //

dimensions      [0 0 0 0 0 0 0];

internalField   nonuniform List<scalar> 
6960
(
0.221724
0.22166
0.22161
0.221577
0.221556
0.221544
0.221537
0.221532
0.22153
0.221528
0.221527
0.221526
0.221526
0.221526
0.221526
0.221525
0.221525
0.221525
0.221525
0.221525
0.221525
0.221525
0.221525
0.221525
0.221525
0.221525
0.221525
0.221525
0.221525
0.221525
0.221525
0.221525
0.221525
0.221525
0.221525
0.221525
0.221525
0.221525
0.221525
0.221525
0.221525
0.221525
0.221525
0.221525
0.221525
0.221526
0.221526
0.221526
0.221526
0.221527
0.221528
0.22153
0.221532
0.221537
0.221544
0.221556
0.221577
0.22161
0.22166
0.221724
0.0534969
0.0534762
0.053459
0.0534477
0.0534407
0.0534364
0.0534339
0.0534323
0.0534314
0.0534309
0.0534305
0.0534303
0.0534301
0.05343
0.05343
0.0534299
0.0534299
0.0534299
0.0534298
0.0534298
0.0534298
0.0534298
0.0534298
0.0534298
0.0534298
0.0534297
0.0534297
0.0534297
0.0534297
0.0534297
0.0534297
0.0534297
0.0534297
0.0534297
0.0534297
0.0534298
0.0534298
0.0534298
0.0534298
0.0534298
0.0534298
0.0534298
0.0534299
0.0534299
0.0534299
0.05343
0.05343
0.0534301
0.0534303
0.0534305
0.0534309
0.0534314
0.0534323
0.0534339
0.0534364
0.0534407
0.0534477
0.053459
0.0534762
0.0534969
0.0231661
0.0231656
0.0231641
0.0231629
0.0231621
0.0231617
0.0231613
0.0231612
0.0231611
0.023161
0.0231609
0.0231609
0.0231609
0.0231609
0.0231609
0.0231609
0.0231609
0.0231609
0.0231609
0.0231609
0.0231609
0.0231609
0.0231609
0.023161
0.023161
0.023161
0.023161
0.023161
0.023161
0.023161
0.023161
0.023161
0.023161
0.023161
0.023161
0.023161
0.023161
0.0231609
0.0231609
0.0231609
0.0231609
0.0231609
0.0231609
0.0231609
0.0231609
0.0231609
0.0231609
0.0231609
0.0231609
0.0231609
0.023161
0.0231611
0.0231612
0.0231613
0.0231617
0.0231621
0.0231629
0.0231641
0.0231656
0.0231661
0.0175374
0.0175437
0.0175473
0.0175495
0.0175508
0.0175515
0.017552
0.0175522
0.0175524
0.0175525
0.0175525
0.0175526
0.0175526
0.0175527
0.0175527
0.0175527
0.0175527
0.0175527
0.0175527
0.0175528
0.0175528
0.0175528
0.0175528
0.0175528
0.0175528
0.0175528
0.0175528
0.0175528
0.0175528
0.0175528
0.0175528
0.0175528
0.0175528
0.0175528
0.0175528
0.0175528
0.0175528
0.0175528
0.0175528
0.0175528
0.0175528
0.0175527
0.0175527
0.0175527
0.0175527
0.0175527
0.0175527
0.0175526
0.0175526
0.0175525
0.0175525
0.0175524
0.0175522
0.017552
0.0175515
0.0175508
0.0175495
0.0175473
0.0175437
0.0175374
0.0166678
0.0166761
0.0166812
0.0166843
0.0166862
0.0166873
0.016688
0.0166884
0.0166886
0.0166888
0.0166889
0.0166889
0.016689
0.016689
0.016689
0.0166891
0.0166891
0.0166891
0.0166891
0.0166891
0.0166892
0.0166892
0.0166892
0.0166892
0.0166892
0.0166892
0.0166892
0.0166892
0.0166892
0.0166892
0.0166892
0.0166892
0.0166892
0.0166892
0.0166892
0.0166892
0.0166892
0.0166892
0.0166892
0.0166892
0.0166891
0.0166891
0.0166891
0.0166891
0.0166891
0.016689
0.016689
0.016689
0.0166889
0.0166889
0.0166888
0.0166886
0.0166884
0.016688
0.0166873
0.0166862
0.0166843
0.0166812
0.0166761
0.0166678
0.0167131
0.016722
0.0167276
0.016731
0.0167331
0.0167343
0.0167351
0.0167355
0.0167357
0.0167359
0.016736
0.0167361
0.0167361
0.0167362
0.0167362
0.0167362
0.0167363
0.0167363
0.0167363
0.0167363
0.0167363
0.0167363
0.0167364
0.0167364
0.0167364
0.0167364
0.0167364
0.0167364
0.0167364
0.0167364
0.0167364
0.0167364
0.0167364
0.0167364
0.0167364
0.0167364
0.0167364
0.0167364
0.0167363
0.0167363
0.0167363
0.0167363
0.0167363
0.0167363
0.0167362
0.0167362
0.0167362
0.0167361
0.0167361
0.016736
0.0167359
0.0167357
0.0167355
0.0167351
0.0167343
0.0167331
0.016731
0.0167276
0.016722
0.0167131
0.0169429
0.0169521
0.0169579
0.0169615
0.0169636
0.0169649
0.0169657
0.0169661
0.0169664
0.0169666
0.0169667
0.0169667
0.0169668
0.0169668
0.0169669
0.0169669
0.0169669
0.0169669
0.016967
0.016967
0.016967
0.016967
0.016967
0.016967
0.016967
0.0169671
0.0169671
0.0169671
0.0169671
0.0169671
0.0169671
0.0169671
0.0169671
0.0169671
0.0169671
0.016967
0.016967
0.016967
0.016967
0.016967
0.016967
0.016967
0.0169669
0.0169669
0.0169669
0.0169669
0.0169668
0.0169668
0.0169667
0.0169667
0.0169666
0.0169664
0.0169661
0.0169657
0.0169649
0.0169636
0.0169615
0.0169579
0.0169521
0.0169429
0.0172246
0.017234
0.01724
0.0172437
0.017246
0.0172473
0.0172481
0.0172485
0.0172488
0.017249
0.0172491
0.0172492
0.0172492
0.0172493
0.0172493
0.0172493
0.0172493
0.0172494
0.0172494
0.0172494
0.0172494
0.0172494
0.0172495
0.0172495
0.0172495
0.0172495
0.0172495
0.0172495
0.0172495
0.0172495
0.0172495
0.0172495
0.0172495
0.0172495
0.0172495
0.0172495
0.0172495
0.0172495
0.0172494
0.0172494
0.0172494
0.0172494
0.0172494
0.0172493
0.0172493
0.0172493
0.0172493
0.0172492
0.0172492
0.0172491
0.017249
0.0172488
0.0172485
0.0172481
0.0172473
0.017246
0.0172437
0.01724
0.017234
0.0172246
0.0175371
0.0175469
0.017553
0.0175569
0.0175592
0.0175605
0.0175613
0.0175618
0.0175621
0.0175623
0.0175624
0.0175625
0.0175625
0.0175626
0.0175626
0.0175626
0.0175626
0.0175627
0.0175627
0.0175627
0.0175627
0.0175627
0.0175628
0.0175628
0.0175628
0.0175628
0.0175628
0.0175628
0.0175628
0.0175628
0.0175628
0.0175628
0.0175628
0.0175628
0.0175628
0.0175628
0.0175628
0.0175628
0.0175627
0.0175627
0.0175627
0.0175627
0.0175627
0.0175626
0.0175626
0.0175626
0.0175626
0.0175625
0.0175625
0.0175624
0.0175623
0.0175621
0.0175618
0.0175613
0.0175605
0.0175592
0.0175569
0.017553
0.0175469
0.0175371
0.0178798
0.0178899
0.0178963
0.0179002
0.0179026
0.017904
0.0179049
0.0179054
0.0179057
0.0179058
0.017906
0.017906
0.0179061
0.0179061
0.0179062
0.0179062
0.0179062
0.0179063
0.0179063
0.0179063
0.0179063
0.0179063
0.0179064
0.0179064
0.0179064
0.0179064
0.0179064
0.0179064
0.0179064
0.0179064
0.0179064
0.0179064
0.0179064
0.0179064
0.0179064
0.0179064
0.0179064
0.0179064
0.0179063
0.0179063
0.0179063
0.0179063
0.0179063
0.0179062
0.0179062
0.0179062
0.0179061
0.0179061
0.017906
0.017906
0.0179058
0.0179057
0.0179054
0.0179049
0.017904
0.0179026
0.0179002
0.0178963
0.0178899
0.0178798
0.0182562
0.0182667
0.0182733
0.0182774
0.0182799
0.0182813
0.0182822
0.0182827
0.018283
0.0182832
0.0182833
0.0182834
0.0182835
0.0182835
0.0182835
0.0182836
0.0182836
0.0182836
0.0182837
0.0182837
0.0182837
0.0182837
0.0182837
0.0182837
0.0182838
0.0182838
0.0182838
0.0182838
0.0182838
0.0182838
0.0182838
0.0182838
0.0182838
0.0182838
0.0182838
0.0182838
0.0182837
0.0182837
0.0182837
0.0182837
0.0182837
0.0182837
0.0182836
0.0182836
0.0182836
0.0182835
0.0182835
0.0182835
0.0182834
0.0182833
0.0182832
0.018283
0.0182827
0.0182822
0.0182813
0.0182799
0.0182774
0.0182733
0.0182667
0.0182562
0.0186712
0.0186821
0.018689
0.0186932
0.0186958
0.0186973
0.0186982
0.0186987
0.0186991
0.0186993
0.0186994
0.0186995
0.0186995
0.0186996
0.0186996
0.0186997
0.0186997
0.0186997
0.0186997
0.0186998
0.0186998
0.0186998
0.0186998
0.0186998
0.0186998
0.0186999
0.0186999
0.0186999
0.0186999
0.0186999
0.0186999
0.0186999
0.0186999
0.0186999
0.0186999
0.0186998
0.0186998
0.0186998
0.0186998
0.0186998
0.0186998
0.0186997
0.0186997
0.0186997
0.0186997
0.0186996
0.0186996
0.0186995
0.0186995
0.0186994
0.0186993
0.0186991
0.0186987
0.0186982
0.0186973
0.0186958
0.0186932
0.018689
0.0186821
0.0186712
0.0191309
0.0191423
0.0191494
0.0191539
0.0191566
0.0191581
0.0191591
0.0191596
0.01916
0.0191602
0.0191603
0.0191604
0.0191605
0.0191605
0.0191606
0.0191606
0.0191606
0.0191607
0.0191607
0.0191607
0.0191607
0.0191607
0.0191608
0.0191608
0.0191608
0.0191608
0.0191608
0.0191608
0.0191608
0.0191608
0.0191608
0.0191608
0.0191608
0.0191608
0.0191608
0.0191608
0.0191608
0.0191608
0.0191607
0.0191607
0.0191607
0.0191607
0.0191607
0.0191606
0.0191606
0.0191606
0.0191605
0.0191605
0.0191604
0.0191603
0.0191602
0.01916
0.0191596
0.0191591
0.0191581
0.0191566
0.0191539
0.0191494
0.0191423
0.0191309
0.0196428
0.0196547
0.0196622
0.0196669
0.0196697
0.0196714
0.0196723
0.0196729
0.0196733
0.0196735
0.0196736
0.0196737
0.0196738
0.0196739
0.0196739
0.0196739
0.019674
0.019674
0.019674
0.0196741
0.0196741
0.0196741
0.0196741
0.0196741
0.0196741
0.0196742
0.0196742
0.0196742
0.0196742
0.0196742
0.0196742
0.0196742
0.0196742
0.0196742
0.0196742
0.0196741
0.0196741
0.0196741
0.0196741
0.0196741
0.0196741
0.019674
0.019674
0.019674
0.0196739
0.0196739
0.0196739
0.0196738
0.0196737
0.0196736
0.0196735
0.0196733
0.0196729
0.0196723
0.0196714
0.0196697
0.0196669
0.0196622
0.0196547
0.0196428
0.0202164
0.0202289
0.0202368
0.0202417
0.0202447
0.0202464
0.0202475
0.0202481
0.0202485
0.0202487
0.0202488
0.0202489
0.020249
0.0202491
0.0202491
0.0202492
0.0202492
0.0202492
0.0202492
0.0202493
0.0202493
0.0202493
0.0202493
0.0202494
0.0202494
0.0202494
0.0202494
0.0202494
0.0202494
0.0202494
0.0202494
0.0202494
0.0202494
0.0202494
0.0202494
0.0202494
0.0202494
0.0202493
0.0202493
0.0202493
0.0202493
0.0202492
0.0202492
0.0202492
0.0202492
0.0202491
0.0202491
0.020249
0.0202489
0.0202488
0.0202487
0.0202485
0.0202481
0.0202475
0.0202464
0.0202447
0.0202417
0.0202368
0.0202289
0.0202164
0.0208635
0.0208768
0.0208852
0.0208903
0.0208935
0.0208953
0.0208964
0.0208971
0.0208975
0.0208977
0.0208979
0.020898
0.0208981
0.0208981
0.0208982
0.0208982
0.0208982
0.0208983
0.0208983
0.0208983
0.0208984
0.0208984
0.0208984
0.0208984
0.0208984
0.0208984
0.0208985
0.0208985
0.0208985
0.0208985
0.0208985
0.0208985
0.0208985
0.0208985
0.0208984
0.0208984
0.0208984
0.0208984
0.0208984
0.0208984
0.0208983
0.0208983
0.0208983
0.0208982
0.0208982
0.0208982
0.0208981
0.0208981
0.020898
0.0208979
0.0208977
0.0208975
0.0208971
0.0208964
0.0208953
0.0208935
0.0208903
0.0208852
0.0208768
0.0208635
0.0215996
0.0216137
0.0216226
0.0216281
0.0216315
0.0216334
0.0216346
0.0216353
0.0216357
0.021636
0.0216362
0.0216363
0.0216364
0.0216364
0.0216365
0.0216365
0.0216365
0.0216366
0.0216366
0.0216366
0.0216367
0.0216367
0.0216367
0.0216367
0.0216367
0.0216368
0.0216368
0.0216368
0.0216368
0.0216368
0.0216368
0.0216368
0.0216368
0.0216368
0.0216368
0.0216367
0.0216367
0.0216367
0.0216367
0.0216367
0.0216366
0.0216366
0.0216366
0.0216365
0.0216365
0.0216365
0.0216364
0.0216364
0.0216363
0.0216362
0.021636
0.0216357
0.0216353
0.0216346
0.0216334
0.0216315
0.0216281
0.0216226
0.0216137
0.0215996
0.0224446
0.0224597
0.0224693
0.0224752
0.0224788
0.0224809
0.0224822
0.0224829
0.0224834
0.0224837
0.0224838
0.022484
0.022484
0.0224841
0.0224842
0.0224842
0.0224843
0.0224843
0.0224843
0.0224844
0.0224844
0.0224844
0.0224844
0.0224845
0.0224845
0.0224845
0.0224845
0.0224845
0.0224845
0.0224845
0.0224845
0.0224845
0.0224845
0.0224845
0.0224845
0.0224845
0.0224845
0.0224844
0.0224844
0.0224844
0.0224844
0.0224843
0.0224843
0.0224843
0.0224842
0.0224842
0.0224841
0.022484
0.022484
0.0224838
0.0224837
0.0224834
0.0224829
0.0224822
0.0224809
0.0224788
0.0224752
0.0224693
0.0224597
0.0224446
0.0234253
0.0234418
0.0234521
0.0234585
0.0234624
0.0234647
0.0234661
0.0234669
0.0234674
0.0234677
0.0234679
0.023468
0.0234681
0.0234682
0.0234683
0.0234683
0.0234684
0.0234684
0.0234684
0.0234685
0.0234685
0.0234685
0.0234685
0.0234686
0.0234686
0.0234686
0.0234686
0.0234686
0.0234686
0.0234686
0.0234686
0.0234686
0.0234686
0.0234686
0.0234686
0.0234686
0.0234686
0.0234685
0.0234685
0.0234685
0.0234685
0.0234684
0.0234684
0.0234684
0.0234683
0.0234683
0.0234682
0.0234681
0.023468
0.0234679
0.0234677
0.0234674
0.0234669
0.0234661
0.0234647
0.0234624
0.0234585
0.0234521
0.0234418
0.0234253
0.0245786
0.0245966
0.0246079
0.024615
0.0246192
0.0246218
0.0246233
0.0246242
0.0246247
0.024625
0.0246253
0.0246254
0.0246255
0.0246256
0.0246257
0.0246257
0.0246258
0.0246258
0.0246258
0.0246259
0.0246259
0.024626
0.024626
0.024626
0.024626
0.024626
0.0246261
0.0246261
0.0246261
0.0246261
0.0246261
0.0246261
0.0246261
0.0246261
0.024626
0.024626
0.024626
0.024626
0.024626
0.0246259
0.0246259
0.0246258
0.0246258
0.0246258
0.0246257
0.0246257
0.0246256
0.0246255
0.0246254
0.0246253
0.024625
0.0246247
0.0246242
0.0246233
0.0246218
0.0246192
0.024615
0.0246079
0.0245966
0.0245786
0.0259561
0.0259761
0.0259887
0.0259965
0.0260012
0.0260041
0.0260057
0.0260067
0.0260073
0.0260077
0.0260079
0.0260081
0.0260082
0.0260083
0.0260084
0.0260085
0.0260085
0.0260086
0.0260086
0.0260086
0.0260087
0.0260087
0.0260088
0.0260088
0.0260088
0.0260088
0.0260088
0.0260088
0.0260089
0.0260089
0.0260089
0.0260089
0.0260088
0.0260088
0.0260088
0.0260088
0.0260088
0.0260088
0.0260087
0.0260087
0.0260086
0.0260086
0.0260086
0.0260085
0.0260085
0.0260084
0.0260083
0.0260082
0.0260081
0.0260079
0.0260077
0.0260073
0.0260067
0.0260057
0.0260041
0.0260012
0.0259965
0.0259887
0.0259761
0.0259561
0.0276329
0.0276554
0.0276696
0.0276785
0.0276839
0.0276871
0.0276889
0.0276901
0.0276907
0.0276912
0.0276914
0.0276916
0.0276918
0.0276919
0.027692
0.027692
0.0276921
0.0276922
0.0276922
0.0276923
0.0276923
0.0276923
0.0276924
0.0276924
0.0276924
0.0276925
0.0276925
0.0276925
0.0276925
0.0276925
0.0276925
0.0276925
0.0276925
0.0276925
0.0276925
0.0276924
0.0276924
0.0276924
0.0276923
0.0276923
0.0276923
0.0276922
0.0276922
0.0276921
0.027692
0.027692
0.0276919
0.0276918
0.0276916
0.0276914
0.0276912
0.0276907
0.0276901
0.0276889
0.0276871
0.0276839
0.0276785
0.0276696
0.0276554
0.0276329
0.0297212
0.0297472
0.0297636
0.0297739
0.0297801
0.0297838
0.029786
0.0297873
0.029788
0.0297885
0.0297889
0.0297891
0.0297892
0.0297894
0.0297895
0.0297895
0.0297896
0.0297897
0.0297897
0.0297898
0.0297899
0.0297899
0.0297899
0.02979
0.02979
0.02979
0.0297901
0.0297901
0.0297901
0.0297901
0.0297901
0.0297901
0.0297901
0.0297901
0.02979
0.02979
0.02979
0.0297899
0.0297899
0.0297899
0.0297898
0.0297897
0.0297897
0.0297896
0.0297895
0.0297895
0.0297894
0.0297892
0.0297891
0.0297889
0.0297885
0.029788
0.0297873
0.029786
0.0297838
0.0297801
0.0297739
0.0297636
0.0297472
0.0297212
0.032393
0.0324238
0.0324433
0.0324556
0.032463
0.0324674
0.03247
0.0324715
0.0324725
0.0324731
0.0324734
0.0324737
0.0324739
0.032474
0.0324742
0.0324743
0.0324743
0.0324744
0.0324745
0.0324746
0.0324746
0.0324747
0.0324747
0.0324748
0.0324748
0.0324749
0.0324749
0.0324749
0.0324749
0.0324749
0.0324749
0.0324749
0.0324749
0.0324749
0.0324749
0.0324748
0.0324748
0.0324747
0.0324747
0.0324746
0.0324746
0.0324745
0.0324744
0.0324743
0.0324743
0.0324742
0.032474
0.0324739
0.0324737
0.0324734
0.0324731
0.0324725
0.0324715
0.03247
0.0324674
0.032463
0.0324556
0.0324433
0.0324238
0.032393
0.0359119
0.0359496
0.0359736
0.0359886
0.0359977
0.0360031
0.0360064
0.0360083
0.0360094
0.0360102
0.0360106
0.0360109
0.0360112
0.0360114
0.0360115
0.0360116
0.0360117
0.0360118
0.0360119
0.036012
0.0360121
0.0360122
0.0360122
0.0360123
0.0360123
0.0360124
0.0360124
0.0360124
0.0360124
0.0360125
0.0360125
0.0360124
0.0360124
0.0360124
0.0360124
0.0360123
0.0360123
0.0360122
0.0360122
0.0360121
0.036012
0.0360119
0.0360118
0.0360117
0.0360116
0.0360115
0.0360114
0.0360112
0.0360109
0.0360106
0.0360102
0.0360094
0.0360083
0.0360064
0.0360031
0.0359977
0.0359886
0.0359736
0.0359496
0.0359119
0.0406648
0.0407123
0.0407428
0.0407618
0.0407734
0.0407803
0.0407844
0.0407868
0.0407883
0.0407892
0.0407898
0.0407902
0.0407905
0.0407907
0.0407909
0.0407911
0.0407912
0.0407913
0.0407915
0.0407916
0.0407917
0.0407918
0.0407918
0.0407919
0.040792
0.040792
0.0407921
0.0407921
0.0407921
0.0407921
0.0407921
0.0407921
0.0407921
0.0407921
0.040792
0.040792
0.0407919
0.0407918
0.0407918
0.0407917
0.0407916
0.0407915
0.0407913
0.0407912
0.0407911
0.0407909
0.0407907
0.0407905
0.0407902
0.0407898
0.0407892
0.0407883
0.0407868
0.0407844
0.0407803
0.0407734
0.0407618
0.0407428
0.0407123
0.0406648
0.0471623
0.0472235
0.0472629
0.0472876
0.0473026
0.0473115
0.0473168
0.04732
0.0473219
0.0473231
0.0473239
0.0473244
0.0473248
0.0473251
0.0473254
0.0473256
0.0473257
0.0473259
0.0473261
0.0473262
0.0473263
0.0473265
0.0473266
0.0473267
0.0473267
0.0473268
0.0473269
0.0473269
0.0473269
0.0473269
0.0473269
0.0473269
0.0473269
0.0473269
0.0473268
0.0473267
0.0473267
0.0473266
0.0473265
0.0473263
0.0473262
0.0473261
0.0473259
0.0473257
0.0473256
0.0473254
0.0473251
0.0473248
0.0473244
0.0473239
0.0473231
0.0473219
0.04732
0.0473168
0.0473115
0.0473026
0.0472876
0.0472629
0.0472235
0.0471623
0.0559575
0.0560367
0.0560878
0.0561198
0.0561393
0.0561509
0.0561578
0.056162
0.0561645
0.056166
0.056167
0.0561677
0.0561682
0.0561686
0.0561689
0.0561692
0.0561694
0.0561696
0.0561698
0.05617
0.0561702
0.0561703
0.0561705
0.0561706
0.0561707
0.0561708
0.0561709
0.0561709
0.056171
0.056171
0.056171
0.056171
0.0561709
0.0561709
0.0561708
0.0561707
0.0561706
0.0561705
0.0561703
0.0561702
0.05617
0.0561698
0.0561696
0.0561694
0.0561692
0.0561689
0.0561686
0.0561682
0.0561677
0.056167
0.056166
0.0561645
0.056162
0.0561578
0.0561509
0.0561393
0.0561198
0.0560878
0.0560367
0.0559575
0.0674655
0.067566
0.0676309
0.0676717
0.0676965
0.0677113
0.0677201
0.0677254
0.0677285
0.0677305
0.0677318
0.0677327
0.0677333
0.0677338
0.0677342
0.0677346
0.0677349
0.0677352
0.0677354
0.0677356
0.0677358
0.067736
0.0677362
0.0677363
0.0677365
0.0677366
0.0677367
0.0677367
0.0677368
0.0677368
0.0677368
0.0677368
0.0677367
0.0677367
0.0677366
0.0677365
0.0677363
0.0677362
0.067736
0.0677358
0.0677356
0.0677354
0.0677352
0.0677349
0.0677346
0.0677342
0.0677338
0.0677333
0.0677327
0.0677318
0.0677305
0.0677285
0.0677254
0.0677201
0.0677113
0.0676965
0.0676717
0.0676309
0.067566
0.0674655
0.0817638
0.0818871
0.0819667
0.0820167
0.0820472
0.0820655
0.0820763
0.0820828
0.0820868
0.0820892
0.0820908
0.0820919
0.0820927
0.0820933
0.0820938
0.0820942
0.0820945
0.0820949
0.0820952
0.0820954
0.0820957
0.0820959
0.0820961
0.0820963
0.0820964
0.0820966
0.0820967
0.0820968
0.0820968
0.0820968
0.0820968
0.0820968
0.0820968
0.0820967
0.0820966
0.0820964
0.0820963
0.0820961
0.0820959
0.0820957
0.0820954
0.0820952
0.0820949
0.0820945
0.0820942
0.0820938
0.0820933
0.0820927
0.0820919
0.0820908
0.0820892
0.0820868
0.0820828
0.0820763
0.0820655
0.0820472
0.0820167
0.0819667
0.0818871
0.0817638
0.0985293
0.0986746
0.0987684
0.0988273
0.0988633
0.0988849
0.0988978
0.0989055
0.0989102
0.0989131
0.098915
0.0989163
0.0989172
0.0989179
0.0989185
0.098919
0.0989194
0.0989198
0.0989201
0.0989204
0.0989207
0.0989209
0.0989212
0.0989214
0.0989216
0.0989217
0.0989218
0.0989219
0.098922
0.098922
0.098922
0.098922
0.0989219
0.0989218
0.0989217
0.0989216
0.0989214
0.0989212
0.0989209
0.0989207
0.0989204
0.0989201
0.0989198
0.0989194
0.098919
0.0989185
0.0989179
0.0989172
0.0989163
0.098915
0.0989131
0.0989102
0.0989055
0.0988978
0.0988849
0.0988633
0.0988273
0.0987684
0.0986746
0.0985293
0.117173
0.117339
0.117445
0.117512
0.117553
0.117578
0.117593
0.117602
0.117607
0.11761
0.117613
0.117614
0.117615
0.117616
0.117617
0.117617
0.117618
0.117618
0.117618
0.117619
0.117619
0.117619
0.11762
0.11762
0.11762
0.11762
0.11762
0.11762
0.11762
0.11762
0.11762
0.11762
0.11762
0.11762
0.11762
0.11762
0.11762
0.11762
0.117619
0.117619
0.117619
0.117618
0.117618
0.117618
0.117617
0.117617
0.117616
0.117615
0.117614
0.117613
0.11761
0.117607
0.117602
0.117593
0.117578
0.117553
0.117512
0.117445
0.117339
0.117173
0.137069
0.137252
0.13737
0.137444
0.13749
0.137517
0.137534
0.137543
0.137549
0.137553
0.137556
0.137557
0.137558
0.137559
0.13756
0.137561
0.137561
0.137562
0.137562
0.137562
0.137563
0.137563
0.137563
0.137563
0.137564
0.137564
0.137564
0.137564
0.137564
0.137564
0.137564
0.137564
0.137564
0.137564
0.137564
0.137564
0.137563
0.137563
0.137563
0.137563
0.137562
0.137562
0.137562
0.137561
0.137561
0.13756
0.137559
0.137558
0.137557
0.137556
0.137553
0.137549
0.137543
0.137534
0.137517
0.13749
0.137444
0.13737
0.137252
0.137069
0.15771
0.157908
0.158036
0.158117
0.158167
0.158197
0.158215
0.158226
0.158233
0.158237
0.15824
0.158242
0.158243
0.158244
0.158245
0.158245
0.158246
0.158246
0.158247
0.158247
0.158247
0.158248
0.158248
0.158248
0.158248
0.158248
0.158249
0.158249
0.158249
0.158249
0.158249
0.158249
0.158249
0.158249
0.158248
0.158248
0.158248
0.158248
0.158248
0.158247
0.158247
0.158247
0.158246
0.158246
0.158245
0.158245
0.158244
0.158243
0.158242
0.15824
0.158237
0.158233
0.158226
0.158215
0.158197
0.158167
0.158117
0.158036
0.157908
0.15771
0.178756
0.178968
0.179105
0.179192
0.179246
0.179278
0.179298
0.17931
0.179317
0.179322
0.179325
0.179327
0.179328
0.179329
0.17933
0.17933
0.179331
0.179332
0.179332
0.179332
0.179333
0.179333
0.179333
0.179334
0.179334
0.179334
0.179334
0.179334
0.179334
0.179334
0.179334
0.179334
0.179334
0.179334
0.179334
0.179334
0.179334
0.179333
0.179333
0.179333
0.179332
0.179332
0.179332
0.179331
0.17933
0.17933
0.179329
0.179328
0.179327
0.179325
0.179322
0.179317
0.17931
0.179298
0.179278
0.179246
0.179192
0.179105
0.178968
0.178756
0.199995
0.20022
0.200366
0.200459
0.200517
0.200552
0.200573
0.200586
0.200594
0.200599
0.200602
0.200604
0.200605
0.200606
0.200607
0.200608
0.200608
0.200609
0.200609
0.20061
0.20061
0.20061
0.200611
0.200611
0.200611
0.200611
0.200612
0.200612
0.200612
0.200612
0.200612
0.200612
0.200612
0.200612
0.200611
0.200611
0.200611
0.200611
0.20061
0.20061
0.20061
0.200609
0.200609
0.200608
0.200608
0.200607
0.200606
0.200605
0.200604
0.200602
0.200599
0.200594
0.200586
0.200573
0.200552
0.200517
0.200459
0.200366
0.20022
0.199995
0.221303
0.221539
0.221694
0.221792
0.221853
0.221891
0.221914
0.221928
0.221936
0.221941
0.221945
0.221947
0.221949
0.22195
0.221951
0.221951
0.221952
0.221952
0.221953
0.221953
0.221954
0.221954
0.221954
0.221954
0.221955
0.221955
0.221955
0.221955
0.221955
0.221955
0.221955
0.221955
0.221955
0.221955
0.221955
0.221955
0.221954
0.221954
0.221954
0.221954
0.221953
0.221953
0.221952
0.221952
0.221951
0.221951
0.22195
0.221949
0.221947
0.221945
0.221941
0.221936
0.221928
0.221914
0.221891
0.221853
0.221792
0.221694
0.221539
0.221303
0.242597
0.242845
0.243007
0.243111
0.243176
0.243216
0.24324
0.243255
0.243264
0.24327
0.243274
0.243276
0.243278
0.243279
0.24328
0.243281
0.243281
0.243282
0.243282
0.243283
0.243283
0.243284
0.243284
0.243284
0.243284
0.243284
0.243285
0.243285
0.243285
0.243285
0.243285
0.243285
0.243285
0.243285
0.243284
0.243284
0.243284
0.243284
0.243284
0.243283
0.243283
0.243282
0.243282
0.243281
0.243281
0.24328
0.243279
0.243278
0.243276
0.243274
0.24327
0.243264
0.243255
0.24324
0.243216
0.243176
0.243111
0.243007
0.242845
0.242597
0.263824
0.264081
0.264251
0.264361
0.264429
0.264472
0.264498
0.264514
0.264524
0.26453
0.264534
0.264536
0.264538
0.264539
0.26454
0.264541
0.264542
0.264542
0.264543
0.264543
0.264543
0.264544
0.264544
0.264544
0.264544
0.264545
0.264545
0.264545
0.264545
0.264545
0.264545
0.264545
0.264545
0.264545
0.264545
0.264544
0.264544
0.264544
0.264544
0.264543
0.264543
0.264543
0.264542
0.264542
0.264541
0.26454
0.264539
0.264538
0.264536
0.264534
0.26453
0.264524
0.264514
0.264498
0.264472
0.264429
0.264361
0.264251
0.264081
0.263824
0.28494
0.285207
0.285384
0.285499
0.285571
0.285616
0.285644
0.285661
0.285671
0.285678
0.285682
0.285685
0.285687
0.285688
0.285689
0.28569
0.285691
0.285691
0.285692
0.285692
0.285692
0.285693
0.285693
0.285693
0.285693
0.285694
0.285694
0.285694
0.285694
0.285694
0.285694
0.285694
0.285694
0.285694
0.285694
0.285693
0.285693
0.285693
0.285693
0.285692
0.285692
0.285692
0.285691
0.285691
0.28569
0.285689
0.285688
0.285687
0.285685
0.285682
0.285678
0.285671
0.285661
0.285644
0.285616
0.285571
0.285499
0.285384
0.285207
0.28494
0.305912
0.306188
0.306372
0.306492
0.306568
0.306615
0.306644
0.306662
0.306674
0.306681
0.306685
0.306688
0.30669
0.306692
0.306693
0.306694
0.306694
0.306695
0.306695
0.306696
0.306696
0.306696
0.306697
0.306697
0.306697
0.306697
0.306697
0.306697
0.306698
0.306698
0.306698
0.306698
0.306697
0.306697
0.306697
0.306697
0.306697
0.306697
0.306696
0.306696
0.306696
0.306695
0.306695
0.306694
0.306694
0.306693
0.306692
0.30669
0.306688
0.306685
0.306681
0.306674
0.306662
0.306644
0.306615
0.306568
0.306492
0.306372
0.306188
0.305912
0.32671
0.326994
0.327185
0.32731
0.327389
0.327439
0.32747
0.32749
0.327502
0.327509
0.327514
0.327517
0.32752
0.327521
0.327522
0.327523
0.327524
0.327524
0.327525
0.327525
0.327525
0.327526
0.327526
0.327526
0.327526
0.327526
0.327527
0.327527
0.327527
0.327527
0.327527
0.327527
0.327527
0.327527
0.327526
0.327526
0.327526
0.327526
0.327526
0.327525
0.327525
0.327525
0.327524
0.327524
0.327523
0.327522
0.327521
0.32752
0.327517
0.327514
0.327509
0.327502
0.32749
0.32747
0.327439
0.327389
0.32731
0.327185
0.326994
0.32671
0.34731
0.347601
0.347798
0.347928
0.348011
0.348064
0.348097
0.348117
0.34813
0.348138
0.348143
0.348147
0.348149
0.34815
0.348152
0.348152
0.348153
0.348154
0.348154
0.348154
0.348155
0.348155
0.348155
0.348156
0.348156
0.348156
0.348156
0.348156
0.348156
0.348156
0.348156
0.348156
0.348156
0.348156
0.348156
0.348156
0.348156
0.348155
0.348155
0.348155
0.348154
0.348154
0.348154
0.348153
0.348152
0.348152
0.34815
0.348149
0.348147
0.348143
0.348138
0.34813
0.348117
0.348097
0.348064
0.348011
0.347928
0.347798
0.347601
0.34731
0.367688
0.367986
0.368189
0.368324
0.36841
0.368465
0.3685
0.368522
0.368535
0.368544
0.36855
0.368553
0.368556
0.368557
0.368558
0.368559
0.36856
0.368561
0.368561
0.368561
0.368562
0.368562
0.368562
0.368562
0.368563
0.368563
0.368563
0.368563
0.368563
0.368563
0.368563
0.368563
0.368563
0.368563
0.368563
0.368563
0.368562
0.368562
0.368562
0.368562
0.368561
0.368561
0.368561
0.36856
0.368559
0.368558
0.368557
0.368556
0.368553
0.36855
0.368544
0.368535
0.368522
0.3685
0.368465
0.36841
0.368324
0.368189
0.367986
0.367688
0.387824
0.388128
0.388337
0.388476
0.388566
0.388624
0.38866
0.388683
0.388697
0.388707
0.388713
0.388717
0.388719
0.388721
0.388722
0.388723
0.388724
0.388724
0.388725
0.388725
0.388725
0.388726
0.388726
0.388726
0.388726
0.388726
0.388726
0.388727
0.388727
0.388727
0.388727
0.388727
0.388727
0.388726
0.388726
0.388726
0.388726
0.388726
0.388726
0.388725
0.388725
0.388725
0.388724
0.388724
0.388723
0.388722
0.388721
0.388719
0.388717
0.388713
0.388707
0.388697
0.388683
0.38866
0.388624
0.388566
0.388476
0.388337
0.388128
0.387824
0.4077
0.408009
0.408223
0.408366
0.40846
0.40852
0.408558
0.408582
0.408598
0.408607
0.408614
0.408618
0.408621
0.408622
0.408624
0.408625
0.408625
0.408626
0.408626
0.408627
0.408627
0.408627
0.408627
0.408628
0.408628
0.408628
0.408628
0.408628
0.408628
0.408628
0.408628
0.408628
0.408628
0.408628
0.408628
0.408628
0.408628
0.408627
0.408627
0.408627
0.408627
0.408626
0.408626
0.408625
0.408625
0.408624
0.408622
0.408621
0.408618
0.408614
0.408607
0.408598
0.408582
0.408558
0.40852
0.40846
0.408366
0.408223
0.408009
0.4077
0.427297
0.427611
0.42783
0.427977
0.428074
0.428137
0.428177
0.428202
0.428219
0.428229
0.428236
0.42824
0.428243
0.428245
0.428246
0.428247
0.428248
0.428249
0.428249
0.428249
0.42825
0.42825
0.42825
0.42825
0.42825
0.428251
0.428251
0.428251
0.428251
0.428251
0.428251
0.428251
0.428251
0.428251
0.428251
0.42825
0.42825
0.42825
0.42825
0.42825
0.428249
0.428249
0.428249
0.428248
0.428247
0.428246
0.428245
0.428243
0.42824
0.428236
0.428229
0.428219
0.428202
0.428177
0.428137
0.428074
0.427977
0.42783
0.427611
0.427297
0.446601
0.446919
0.447142
0.447294
0.447394
0.447459
0.447501
0.447528
0.447545
0.447556
0.447563
0.447568
0.447571
0.447573
0.447574
0.447575
0.447576
0.447577
0.447577
0.447577
0.447578
0.447578
0.447578
0.447578
0.447578
0.447579
0.447579
0.447579
0.447579
0.447579
0.447579
0.447579
0.447579
0.447579
0.447579
0.447578
0.447578
0.447578
0.447578
0.447578
0.447577
0.447577
0.447577
0.447576
0.447575
0.447574
0.447573
0.447571
0.447568
0.447563
0.447556
0.447545
0.447528
0.447501
0.447459
0.447394
0.447294
0.447142
0.446919
0.446601
0.465598
0.465919
0.466146
0.466301
0.466404
0.466472
0.466516
0.466544
0.466562
0.466574
0.466582
0.466587
0.46659
0.466592
0.466594
0.466595
0.466595
0.466596
0.466596
0.466597
0.466597
0.466597
0.466597
0.466597
0.466597
0.466598
0.466598
0.466598
0.466598
0.466598
0.466598
0.466598
0.466598
0.466598
0.466598
0.466597
0.466597
0.466597
0.466597
0.466597
0.466597
0.466596
0.466596
0.466595
0.466595
0.466594
0.466592
0.46659
0.466587
0.466582
0.466574
0.466562
0.466544
0.466516
0.466472
0.466404
0.466301
0.466146
0.465919
0.465598
0.484274
0.484597
0.484828
0.484987
0.485093
0.485163
0.485209
0.485239
0.485258
0.48527
0.485278
0.485283
0.485287
0.485289
0.485291
0.485292
0.485293
0.485293
0.485294
0.485294
0.485294
0.485294
0.485295
0.485295
0.485295
0.485295
0.485295
0.485295
0.485295
0.485295
0.485295
0.485295
0.485295
0.485295
0.485295
0.485295
0.485295
0.485295
0.485294
0.485294
0.485294
0.485294
0.485293
0.485293
0.485292
0.485291
0.485289
0.485287
0.485283
0.485278
0.48527
0.485258
0.485239
0.485209
0.485163
0.485093
0.484987
0.484828
0.484597
0.484274
0.502617
0.502943
0.503177
0.503339
0.503448
0.503521
0.503569
0.5036
0.50362
0.503633
0.503641
0.503647
0.503651
0.503653
0.503655
0.503656
0.503657
0.503657
0.503658
0.503658
0.503658
0.503658
0.503658
0.503659
0.503659
0.503659
0.503659
0.503659
0.503659
0.503659
0.503659
0.503659
0.503659
0.503659
0.503659
0.503659
0.503659
0.503658
0.503658
0.503658
0.503658
0.503658
0.503657
0.503657
0.503656
0.503655
0.503653
0.503651
0.503647
0.503641
0.503633
0.50362
0.5036
0.503569
0.503521
0.503448
0.503339
0.503177
0.502943
0.502617
0.520619
0.520946
0.521182
0.521347
0.52146
0.521535
0.521584
0.521617
0.521638
0.521652
0.521661
0.521667