/*--------------------------------*- C++ -*----------------------------------*\
| =========                 |                                                 |
| \\      /  F ield         | foam-extend: Open Source CFD                    |
|  \\    /   O peration     | Version:     4.0                                |
|   \\  /    A nd           | Web:         http://www.foam-extend.org         |
|    \\/     M anipulation  |                                                 |
\*---------------------------------------------------------------------------*/
FoamFile
{
    version     2.0;
    format      ascii;
    class       volScalarField;
    location    "3";
    object      cMinus;
}
// * * * * * * * * * * * * * * * * * * * * * * * * * * * * * * * * * * * * * //

dimensions      [0 -3 0 0 0 0 0];

internalField   nonuniform List<scalar> 
6960
(
-1.4993e-35
-2.15872e-35
-2.38406e-35
-2.36222e-35
-1.69911e-35
-2.2126e-35
-1.68772e-35
-3.53231e-35
-3.6481e-35
-5.93579e-35
-6.08302e-35
-7.45938e-35
-7.02852e-35
-7.33246e-35
-6.44462e-35
-6.21364e-35
-5.27482e-35
-4.51653e-35
-3.89239e-35
-2.20126e-35
-2.09885e-35
5.34509e-36
2.36342e-36
3.07182e-35
2.66048e-35
4.84017e-35
4.6166e-35
6.0657e-35
6.01637e-35
6.96246e-35
6.27071e-35
6.55709e-35
4.60205e-35
4.6016e-35
2.25404e-35
2.91336e-35
1.1646e-35
2.27835e-35
5.79813e-36
9.32415e-36
-1.56775e-35
-2.23267e-35
-5.14977e-35
-5.96172e-35
-8.46106e-35
-8.87125e-35
-1.08762e-34
-1.08322e-34
-1.24863e-34
-1.15596e-34
-1.25262e-34
-1.05437e-34
-1.07207e-34
-8.62751e-35
-8.24356e-35
-6.82396e-35
-5.77849e-35
-4.78095e-35
-3.21238e-35
-2.21871e-35
-1.65951e-35
-2.38703e-35
-2.63427e-35
-2.61048e-35
-1.87608e-35
-2.44697e-35
-1.86626e-35
-3.90875e-35
-4.03585e-35
-6.56546e-35
-6.72644e-35
-8.247e-35
-7.76925e-35
-8.10517e-35
-7.12322e-35
-6.86827e-35
-5.83092e-35
-4.99156e-35
-4.30334e-35
-2.43072e-35
-2.32007e-35
5.94796e-36
2.62895e-36
3.39963e-35
2.9434e-35
5.35326e-35
5.10544e-35
6.70738e-35
6.65189e-35
7.69801e-35
6.93059e-35
7.24786e-35
5.08364e-35
5.08573e-35
2.48937e-35
3.22178e-35
1.28751e-35
2.52023e-35
6.39795e-36
1.02934e-35
-1.73739e-35
-2.47181e-35
-5.69777e-35
-6.59341e-35
-9.35673e-35
-9.80843e-35
-1.2026e-34
-1.19758e-34
-1.3806e-34
-1.27787e-34
-1.38484e-34
-1.16545e-34
-1.18511e-34
-9.53684e-35
-9.112e-35
-7.5432e-35
-6.38555e-35
-5.28301e-35
-3.54794e-35
-2.44816e-35
-1.83578e-35
-2.63802e-35
-2.90929e-35
-2.88391e-35
-2.0718e-35
-2.70689e-35
-2.06567e-35
-4.32632e-35
-4.46628e-35
-7.26154e-35
-7.43768e-35
-9.11636e-35
-8.58728e-35
-8.95847e-35
-7.87351e-35
-7.59236e-35
-6.44679e-35
-5.51776e-35
-4.75844e-35
-2.6849e-35
-2.56382e-35
6.62069e-36
2.94614e-36
3.76326e-35
3.25865e-35
5.92129e-35
5.64703e-35
7.41639e-35
7.35394e-35
8.50958e-35
7.65877e-35
8.00994e-35
5.61589e-35
5.62096e-35
2.75137e-35
3.56382e-35
1.42526e-35
2.78751e-35
7.0603e-36
1.1346e-35
-1.92615e-35
-2.73805e-35
-6.30398e-35
-7.29233e-35
-1.03462e-34
-1.08445e-34
-1.32967e-34
-1.32404e-34
-1.52651e-34
-1.41277e-34
-1.5311e-34
-1.28844e-34
-1.31016e-34
-1.05437e-34
-1.00721e-34
-8.33798e-35
-7.05516e-35
-5.83597e-35
-3.91698e-35
-2.70024e-35
-2.02986e-35
-2.91414e-35
-3.21179e-35
-3.18535e-35
-2.28853e-35
-2.99558e-35
-2.28883e-35
-4.79019e-35
-4.94479e-35
-8.03198e-35
-8.22483e-35
-1.0077e-34
-9.49174e-35
-9.90187e-35
-8.7041e-35
-8.39434e-35
-7.12982e-35
-6.10146e-35
-5.26311e-35
-2.96686e-35
-2.83262e-35
7.3728e-36
3.32542e-36
4.16726e-35
3.61054e-35
6.55101e-35
6.2479e-35
8.20072e-35
8.13037e-35
9.40599e-35
8.46318e-35
8.85159e-35
6.20486e-35
6.21344e-35
3.04357e-35
3.94374e-35
1.57998e-35
3.0832e-35
7.79241e-36
1.24884e-35
-2.13652e-35
-3.03494e-35
-6.97544e-35
-8.06661e-35
-1.14407e-34
-1.19912e-34
-1.47025e-34
-1.46409e-34
-1.68803e-34
-1.56226e-34
-1.69307e-34
-1.42481e-34
-1.44869e-34
-1.166e-34
-1.1135e-34
-9.21729e-35
-7.79454e-35
-6.44556e-35
-4.32315e-35
-2.97739e-35
-2.24367e-35
-3.21811e-35
-3.54478e-35
-3.51801e-35
-2.52889e-35
-3.31671e-35
-2.53908e-35
-5.30629e-35
-5.47756e-35
-8.88576e-35
-9.09705e-35
-1.11397e-34
-1.04929e-34
-1.09461e-34
-9.62479e-35
-9.28379e-35
-7.88842e-35
-6.7499e-35
-5.82355e-35
-3.28008e-35
-3.12935e-35
8.21527e-36
3.77938e-36
4.6168e-35
4.00404e-35
7.25007e-35
6.91547e-35
9.06941e-35
8.99007e-35
1.03972e-34
9.35281e-35
9.78215e-35
6.85745e-35
6.87017e-35
3.37007e-35
4.36638e-35
1.75409e-35
3.4107e-35
8.60238e-36
1.37275e-35
-2.37137e-35
-3.36657e-35
-7.72012e-35
-8.92548e-35
-1.26528e-34
-1.32621e-34
-1.62597e-34
-1.61937e-34
-1.86706e-34
-1.72812e-34
-1.87269e-34
-1.57624e-34
-1.60236e-34
-1.28994e-34
-1.2313e-34
-1.01913e-34
-8.61184e-35
-7.1182e-35
-4.77057e-35
-3.28233e-35
-2.47941e-35
-3.55295e-35
-3.91161e-35
-3.88548e-35
-2.79582e-35
-3.67451e-35
-2.82025e-35
-5.88137e-35
-6.07167e-35
-9.83309e-35
-1.00648e-34
-1.23167e-34
-1.16025e-34
-1.21034e-34
-1.06467e-34
-1.02716e-34
-8.73217e-35
-7.47131e-35
-6.44681e-35
-3.62854e-35
-3.45721e-35
9.16082e-36
4.32305e-36
5.11778e-35
4.44486e-35
8.02719e-35
7.65821e-35
1.00327e-34
9.94311e-35
1.14944e-34
1.03378e-34
1.08122e-34
7.58149e-35
7.59911e-35
3.73558e-35
4.83728e-35
1.95045e-35
3.77389e-35
9.49929e-36
1.50705e-35
-2.63401e-35
-3.73765e-35
-8.54708e-35
-9.87944e-35
-1.39966e-34
-1.46723e-34
-1.79868e-34
-1.79177e-34
-2.06576e-34
-1.91241e-34
-2.07215e-34
-1.74462e-34
-1.77307e-34
-1.42775e-34
-1.36204e-34
-1.12715e-34
-9.51624e-35
-7.86111e-35
-5.26382e-35
-3.61809e-35
-2.73948e-35
-3.92208e-35
-4.31603e-35
-4.29182e-35
-3.09272e-35
-4.07382e-35
-3.13682e-35
-6.52317e-35
-6.73522e-35
-1.08856e-34
-1.11397e-34
-1.36217e-34
-1.28337e-34
-1.33876e-34
-1.17825e-34
-1.13701e-34
-9.67202e-35
-8.27513e-35
-7.14094e-35
-4.01681e-35
-3.81985e-35
1.02242e-35
4.97454e-36
5.677e-35
4.93959e-35
8.89234e-35
8.48577e-35
1.11023e-34
1.10009e-34
1.27103e-34
1.14296e-34
1.19536e-34
8.38589e-35
8.4093e-35
4.14553e-35
5.36279e-35
2.17233e-35
4.17714e-35
1.04934e-35
1.65248e-35
-2.92824e-35
-4.15356e-35
-9.46663e-35
-1.09404e-34
-1.54885e-34
-1.62391e-34
-1.99048e-34
-1.98344e-34
-2.28658e-34
-2.11746e-34
-2.29395e-34
-1.93212e-34
-1.96295e-34
-1.58119e-34
-1.50733e-34
-1.2471e-34
-1.05181e-34
-8.68241e-35
-5.80805e-35
-3.98805e-35
-3.0266e-35
-4.32926e-35
-4.76223e-35
-4.74161e-35
-3.42344e-35
-4.52018e-35
-3.49395e-35
-7.24056e-35
-7.4775e-35
-1.20564e-34
-1.23354e-34
-1.50704e-34
-1.42016e-34
-1.48144e-34
-1.30466e-34
-1.25935e-34
-1.07205e-34
-9.17214e-35
-7.91515e-35
-4.45006e-35
-4.22132e-35
1.14225e-35
5.75555e-36
6.30223e-35
5.49585e-35
9.85689e-35
9.4092e-35
1.22913e-34
1.21764e-34
1.40593e-34
1.26413e-34
1.322e-34
9.28078e-35
9.31108e-35
4.6062e-35
5.95018e-35
2.42358e-35
4.62542e-35
1.15961e-35
1.8098e-35
-3.25844e-35
-4.62053e-35
-1.04905e-34
-1.21221e-34
-1.71467e-34
-1.79823e-34
-2.20375e-34
-2.19682e-34
-2.53232e-34
-2.34595e-34
-2.54092e-34
-2.14122e-34
-2.17446e-34
-1.75229e-34
-1.669e-34
-1.38046e-34
-1.16292e-34
-9.59124e-35
-6.40902e-35
-4.396e-35
-3.34378e-35
-4.77873e-35
-5.2549e-35
-5.24001e-35
-3.79241e-35
-5.01999e-35
-3.89768e-35
-8.04373e-35
-8.30917e-35
-1.33605e-34
-1.36671e-34
-1.66806e-34
-1.57233e-34
-1.64016e-34
-1.44554e-34
-1.3958e-34
-1.1892e-34
-1.01747e-34
-8.77996e-35
-4.93427e-35
-4.66624e-35
1.27756e-35
6.69213e-36
7.00242e-35
6.12246e-35
1.09338e-34
1.04411e-34
1.36149e-34
1.34844e-34
1.55577e-34
1.39875e-34
1.46267e-34
1.02777e-34
1.03162e-34
5.12486e-35
6.60783e-35
2.70863e-35
5.12438e-35
1.28204e-35
1.97975e-35
-3.62965e-35
-5.14575e-35
-1.16321e-34
-1.34399e-34
-1.89923e-34
-1.99243e-34
-2.44122e-34
-2.4347e-34
-2.80617e-34
-2.60091e-34
-2.81633e-34
-2.37477e-34
-2.41041e-34
-1.94335e-34
-1.84915e-34
-1.52893e-34
-1.28628e-34
-1.05979e-34
-7.0732e-35
-4.84616e-35
-3.6944e-35
-5.2752e-35
-5.7993e-35
-5.79288e-35
-4.2047e-35
-5.58059e-35
-4.355e-35
-8.94439e-35
-9.24251e-35
-1.48151e-34
-1.51522e-34
-1.84725e-34
-1.74182e-34
-1.81695e-34
-1.60277e-34
-1.54821e-34
-1.32028e-34
-1.1297e-34
-9.74745e-35
-5.47625e-35
-5.1598e-35
1.43068e-35
7.81556e-36
7.78787e-35
6.82962e-35
1.21381e-34
1.15961e-34
1.50902e-34
1.49417e-34
1.72241e-34
1.54851e-34
1.61912e-34
1.139e-34
1.14383e-34
5.70994e-35
7.34534e-35
3.03267e-35
5.68045e-35
1.41806e-35
2.16306e-35
-4.04774e-35
-5.73752e-35
-1.29068e-34
-1.49117e-34
-2.1049e-34
-2.20908e-34
-2.70597e-34
-2.70027e-34
-3.11176e-34
-2.88583e-34
-3.12387e-34
-2.63601e-34
-2.674e-34
-2.15702e-34
-2.05015e-34
-1.69442e-34
-1.4234e-34
-1.1714e-34
-7.80784e-35
-5.34327e-35
-4.08223e-35
-5.82396e-35
-6.40132e-35
-6.40684e-35
-4.66615e-35
-6.21048e-35
-4.8741e-35
-9.95605e-35
-1.02917e-34
-1.64398e-34
-1.68106e-34
-2.04691e-34
-1.93085e-34
-2.01415e-34
-1.77851e-34
-1.71869e-34
-1.46721e-34
-1.25554e-34
-1.08315e-34
-6.08386e-35
-5.70786e-35
1.60433e-35
9.16341e-36
8.67045e-35
7.62918e-35
1.34867e-34
1.28907e-34
1.67367e-34
1.65672e-34
1.90793e-34
1.71531e-34
1.79331e-34
1.26326e-34
1.26926e-34
6.37121e-35
8.17379e-35
3.40175e-35
6.30094e-35
1.5693e-35
2.36043e-35
-4.51948e-35
-6.40544e-35
-1.4332e-34
-1.65577e-34
-2.3344e-34
-2.4511e-34
-3.00154e-34
-2.99718e-34
-3.45326e-34
-3.20471e-34
-3.46782e-34
-2.92869e-34
-2.9689e-34
-2.39635e-34
-2.27474e-34
-1.87912e-34
-1.57597e-34
-1.29525e-34
-8.62105e-35
-5.89259e-35
-4.51148e-35
-6.43088e-35
-7.06757e-35
-7.0894e-35
-5.18346e-35
-6.91947e-35
-5.46451e-35
-1.10942e-34
-1.1473e-34
-1.82568e-34
-1.8665e-34
-2.26964e-34
-2.14194e-34
-2.23439e-34
-1.97522e-34
-1.90967e-34
-1.63214e-34
-1.39685e-34
-1.20479e-34
-6.7661e-35
-6.31703e-35
1.80166e-35
1.07808e-35
9.66386e-35
8.5349e-35
1.49994e-34
1.4344e-34
1.85769e-34
1.8383e-34
2.11474e-34
1.90131e-34
1.98752e-34
1.4023e-34
1.40969e-34
7.12005e-35
9.10596e-35
3.82293e-35
6.99418e-35
1.73759e-35
2.57248e-35
-5.05271e-35
-7.16066e-35
-1.59278e-34
-1.84013e-34
-2.59084e-34
-2.72184e-34
-3.33199e-34
-3.32961e-34
-3.83543e-34
-3.56214e-34
-3.85303e-34
-3.2571e-34
-3.29933e-34
-2.66482e-34
-2.52602e-34
-2.08554e-34
-1.74594e-34
-1.43283e-34
-9.52197e-35
-6.50003e-35
-4.98688e-35
-7.10258e-35
-7.80546e-35
-7.84908e-35
-5.76438e-35
-7.71891e-35
-6.13739e-35
-1.23769e-34
-1.28052e-34
-2.02917e-34
-2.07415e-34
-2.51843e-34
-2.378e-34
-2.4807e-34
-2.19573e-34
-2.12395e-34
-1.81758e-34
-1.55581e-34
-1.34152e-34
-7.53335e-35
-6.9948e-35
2.0264e-35
1.27218e-35
1.0784e-34
9.5628e-35
1.66986e-34
1.59781e-34
2.06362e-34
2.04138e-34
2.34555e-34
2.109e-34
2.20432e-34
1.5581e-34
1.56715e-34
7.96969e-35
1.01566e-34
4.30445e-35
7.76968e-35
1.92495e-35
2.79972e-35
-5.65656e-35
-8.01607e-35
-1.77172e-34
-2.04691e-34
-2.87776e-34
-3.02514e-34
-3.70194e-34
-3.70236e-34
-4.26375e-34
-3.96339e-34
-4.28512e-34
-3.62617e-34
-3.67012e-34
-2.96643e-34
-2.80757e-34
-2.31653e-34
-1.93549e-34
-1.58581e-34
-1.05209e-34
-7.17221e-35
-5.51368e-35
-7.8464e-35
-8.62332e-35
-8.69556e-35
-6.41784e-35
-8.62195e-35
-6.9058e-35
-1.38249e-34
-1.43102e-34
-2.25739e-34
-2.30697e-34
-2.7967e-34
-2.64233e-34
-2.75655e-34
-2.44328e-34
-2.36474e-34
-2.02643e-34
-1.73492e-34
-1.49543e-34
-8.39757e-35
-7.74964e-35
2.2829e-35
1.50517e-35
1.20491e-34
1.07315e-34
1.86105e-34
1.78184e-34
2.29438e-34
2.26883e-34
2.60347e-34
2.34119e-34
2.44663e-34
1.73294e-34
1.74399e-34
8.93556e-35
1.13428e-34
4.85596e-35
8.6383e-35
2.13368e-35
3.04249e-35
-6.34164e-35
-8.98669e-35
-1.97265e-34
-2.27917e-34
-3.19924e-34
-3.3654e-34
-4.1167e-34
-4.12094e-34
-4.74448e-34
-4.41453e-34
-4.77051e-34
-4.04161e-34
-4.08683e-34
-3.30579e-34
-3.12347e-34
-2.57535e-34
-2.14714e-34
-1.75606e-34
-1.16292e-34
-7.91651e-35
-6.09778e-35
-8.67059e-35
-9.5305e-35
-9.63986e-35
-7.15417e-35
-9.64387e-35
-7.78505e-35
-1.54622e-34
-1.60131e-34
-2.5137e-34
-2.56839e-34
-3.10833e-34
-2.93871e-34
-3.06592e-34
-2.72162e-34
-2.63575e-34
-2.26201e-34
-1.93705e-34
-1.66897e-34
-9.37255e-35
-8.59113e-35
2.57629e-35
1.78485e-35
1.34805e-34
1.20629e-34
2.0765e-34
1.98941e-34
2.55335e-34
2.52389e-34
2.89204e-34
2.60111e-34
2.71782e-34
1.92945e-34
1.94288e-34
1.00357e-34
1.26842e-34
5.48873e-35
9.61244e-35
2.36632e-35
3.30092e-35
-7.12029e-35
-1.009e-34
-2.19861e-34
-2.54045e-34
-3.55993e-34
-3.74769e-34
-4.58236e-34
-4.5917e-34
-5.28486e-34
-4.92255e-34
-5.31661e-34
-4.50997e-34
-4.55586e-34
-3.68822e-34
-3.47841e-34
-2.86573e-34
-2.38372e-34
-1.94571e-34
-1.286e-34
-8.74121e-35
-6.74575e-35
-9.58435e-35
-1.05375e-34
-1.06945e-34
-7.98534e-35
-1.08024e-34
-8.7931e-35
-1.73167e-34
-1.79433e-34
-2.80196e-34
-2.86233e-34
-3.45777e-34
-3.2715e-34
-3.41337e-34
-3.03505e-34
-2.94125e-34
-2.52821e-34
-2.16554e-34
-1.86494e-34
-1.04742e-34
-9.53012e-35
2.91261e-35
2.12063e-35
1.5103e-34
1.35822e-34
2.31967e-34
2.22391e-34
2.84436e-34
2.81032e-34
3.21532e-34
2.89244e-34
3.02172e-34
2.15066e-34
2.16695e-34
1.1291e-34
1.42037e-34
6.21599e-35
1.07063e-34
2.62571e-35
3.57481e-35
-8.00693e-35
-1.13462e-34
-2.45309e-34
-2.83479e-34
-3.96518e-34
-4.17781e-34
-5.10593e-34
-5.12194e-34
-5.89318e-34
-5.49553e-34
-5.93196e-34
-5.03885e-34
-5.08459e-34
-4.11986e-34
-3.87779e-34
-3.19196e-34
-2.64847e-34
-2.15719e-34
-1.42278e-34
-9.65556e-35
-7.46495e-35
-1.0598e-34
-1.16561e-34
-1.18739e-34
-8.92525e-35
-1.21183e-34
-9.95106e-35
-1.94207e-34
-2.01345e-34
-3.12662e-34
-3.1933e-34
-3.85015e-34
-3.64568e-34
-3.80413e-34
-3.38853e-34
-3.28616e-34
-2.82948e-34
-2.42427e-34
-2.08659e-34
-1.17211e-34
-1.05789e-34
3.29897e-35
2.5238e-35
1.69451e-34
1.53193e-34
2.59457e-34
2.48924e-34
3.17185e-34
3.13242e-34
3.57793e-34
3.21942e-34
3.36273e-34
2.40005e-34
2.41976e-34
1.27262e-34
1.5928e-34
7.05323e-35
1.1936e-34
2.91504e-35
3.86357e-35
-9.01835e-35
-1.27792e-34
-2.74012e-34
-3.1669e-34
-4.42113e-34
-4.66248e-34
-5.69546e-34
-5.72009e-34
-6.57904e-34
-6.1428e-34
-6.62641e-34
-5.63703e-34
-5.68153e-34
-4.60777e-34
-4.32779e-34
-3.55893e-34
-2.94507e-34
-2.3932e-34
-1.57488e-34
-1.06699e-34
-8.26361e-35
-1.1723e-34
-1.28997e-34
-1.31944e-34
-9.99005e-35
-1.36156e-34
-1.12838e-34
-2.18119e-34
-2.26264e-34
-3.49278e-34
-3.56649e-34
-4.2913e-34
-4.067e-34
-4.24424e-34
-3.78782e-34
-3.6762e-34
-3.17102e-34
-2.71772e-34
-2.33771e-34
-1.31343e-34
-1.17514e-34
3.74378e-35
3.00794e-35
1.90404e-34
1.7309e-34
2.90583e-34
2.78995e-34
3.5409e-34
3.49511e-34
3.98518e-34
3.58689e-34
3.7459e-34
2.68166e-34
2.70546e-34
1.43701e-34
1.78877e-34
8.01862e-35
1.33202e-34
3.23782e-35
4.16607e-35
-1.01742e-34
-1.44165e-34
-3.06433e-34
-3.54216e-34
-4.93485e-34
-5.20942e-34
-6.36024e-34
-6.3959e-34
-7.35348e-34
-6.87515e-34
-7.41134e-34
-6.31468e-34
-6.35651e-34
-5.16015e-34
-4.83556e-34
-3.97227e-34
-3.27772e-34
-2.65685e-34
-1.74416e-34
-1.17959e-34
-9.15088e-35
-1.29724e-34
-1.42833e-34
-1.46746e-34
-1.11985e-34
-1.53225e-34
-1.28204e-34
-2.45339e-34
-2.54647e-34
-3.90634e-34
-3.98787e-34
-4.78797e-34
-4.54206e-34
-4.74064e-34
-4.23954e-34
-4.11798e-34
-3.55885e-34
-3.0511e-34
-2.62263e-34
-1.47388e-34
-1.30634e-34
4.25696e-35
3.58939e-35
2.14279e-34
1.95919e-34
3.25883e-34
3.13129e-34
3.95739e-34
3.90409e-34
4.44315e-34
4.00041e-34
4.17701e-34
3.00016e-34
3.02885e-34
1.62564e-34
2.01188e-34
9.13347e-35
1.48802e-34
3.59797e-35
4.48044e-35
-1.14975e-34
-1.62905e-34
-3.43108e-34
-3.96681e-34
-5.5145e-34
-5.82756e-34
-7.11099e-34
-7.16063e-34
-8.22928e-34
-7.70508e-34
-8.29993e-34
-7.08358e-34
-7.12092e-34
-5.78647e-34
-5.40931e-34
-4.43845e-34
-3.65123e-34
-2.95162e-34
-1.93267e-34
-1.30463e-34
-1.0137e-34
-1.43604e-34
-1.58236e-34
-1.6336e-34
-1.25727e-34
-1.72718e-34
-1.45956e-34
-2.76377e-34
-2.87028e-34
-4.3741e-34
-4.46434e-34
-5.34788e-34
-5.07847e-34
-5.30137e-34
-4.75139e-34
-4.61917e-34
-3.99997e-34
-3.43048e-34
-2.94645e-34
-1.65631e-34
-1.45327e-34
4.85029e-35
4.28777e-35
2.41528e-34
2.22161e-34
3.65981e-34
3.51936e-34
4.42807e-34
4.36589e-34
4.95883e-34
4.4664e-34
4.66273e-34
3.36094e-34
3.39548e-34
1.84247e-34
2.26629e-34
1.04228e-34
1.66403e-34
3.99979e-35
4.80394e-35
-1.30151e-34
-1.8439e-34
-3.84658e-34
-4.4481e-34
-6.16946e-34
-6.5272e-34
-7.96008e-34
-8.02733e-34
-9.22125e-34
-8.64709e-34
-9.30743e-34
-7.95743e-34
-7.98792e-34
-6.4977e-34
-6.05851e-34
-4.96489e-34
-4.07107e-34
-3.28149e-34
-2.14275e-34
-1.44359e-34
-1.12334e-34
-1.59031e-34
-1.75397e-34
-1.82033e-34
-1.4138e-34
-1.95021e-34
-1.66498e-34
-3.11827e-34
-3.2403e-34
-4.90391e-34
-5.00387e-34
-5.97993e-34
-5.68504e-34
-5.93568e-34
-5.33228e-34
-5.18868e-34
-4.50254e-34
-3.86291e-34
-3.31502e-34
-1.86405e-34
-1.61797e-34
5.53773e-35
5.12672e-35
2.72684e-34
2.52376e-34
4.116e-34
3.96126e-34
4.96077e-34
4.88807e-34
5.54025e-34
4.9922e-34
5.21071e-34
3.77028e-34
3.81181e-34
2.09217e-34
2.55687e-34
1.19161e-34
1.86285e-34
4.44802e-35
5.13266e-35
-1.47587e-34
-2.09063e-34
-4.31799e-34
-4.99438e-34
-6.91058e-34
-7.32028e-34
-8.92183e-34
-9.01111e-34
-1.03465e-33
-9.71803e-34
-1.04515e-33
-8.95213e-34
-8.97278e-34
-7.30659e-34
-6.79412e-34
-5.56014e-34
-4.54348e-34
-3.65093e-34
-2.377e-34
-1.59806e-34
-1.24529e-34
-1.76186e-34
-1.94532e-34
-2.03047e-34
-1.59246e-34
-2.20586e-34
-1.90311e-34
-3.52382e-34
-3.6638e-34
-5.50486e-34
-5.61566e-34
-6.69438e-34
-6.37189e-34
-6.65428e-34
-5.99257e-34
-5.83684e-34
-5.07607e-34
-4.35661e-34
-3.7352e-34
-2.10096e-34
-1.80273e-34
6.33587e-35
6.13464e-35
3.08369e-34
2.87225e-34
4.63584e-34
4.46526e-34
5.5645e-34
5.47934e-34
6.19664e-34
5.58631e-34
5.82981e-34
4.23544e-34
4.28531e-34
2.38019e-34
2.88927e-34
1.36477e-34
2.08769e-34
4.94787e-35
5.46121e-35
-1.67653e-34
-2.37442e-34
-4.85363e-34
-5.61536e-34
-7.7504e-34
-8.22065e-34
-1.00128e-33
-1.01295e-33
-1.16249e-33
-1.09375e-33
-1.17527e-33
-1.00862e-33
-1.00932e-33
-8.22789e-34
-7.62874e-34
-6.23402e-34
-5.07562e-34
-4.06506e-34
-2.63836e-34
-1.76987e-34
-1.38096e-34
-1.9527e-34
-2.15882e-34
-2.26727e-34
-1.79675e-34
-2.4994e-34
-2.17962e-34
-3.9885e-34
-4.14926e-34
-6.18743e-34
-6.31036e-34
-7.50307e-34
-7.15079e-34
-7.46958e-34
-6.74428e-34
-6.57572e-34
-5.73162e-34
-4.92117e-34
-4.21493e-34
-2.37155e-34
-2.01015e-34
7.26441e-35
7.34574e-35
3.49308e-34
3.27486e-34
5.22914e-34
5.04097e-34
6.24973e-34
6.14977e-34
6.93864e-34
6.25852e-34
6.53021e-34
4.7649e-34
4.8247e-34
2.71298e-34
3.27011e-34
1.56584e-34
2.34222e-34
5.50499e-35
5.78234e-35
-1.90784e-34
-2.70137e-34
-5.46315e-34
-6.3223e-34
-8.70344e-34
-9.24436e-34
-1.12523e-33
-1.1403e-33
-1.30796e-33
-1.23282e-33
-1.3235e-33
-1.13812e-33
-1.13698e-33
-9.27877e-34
-8.57701e-34
-6.99787e-34
-5.67565e-34
-4.52962e-34
-2.93013e-34
-1.96104e-34
-1.53193e-34
-2.16507e-34
-2.39721e-34
-2.53447e-34
-2.03079e-34
-2.83707e-34
-2.50123e-34
-4.52179e-34
-4.7066e-34
-6.96382e-34
-7.10031e-34
-8.41964e-34
-8.03532e-34
-8.39594e-34
-7.60143e-34
-7.41935e-34
-6.48215e-34
-5.5678e-34
-4.76349e-34
-2.68102e-34
-2.24319e-34
8.34686e-35
8.80117e-35
3.96356e-34
3.74074e-34
5.90733e-34
5.69959e-34
7.02856e-34
6.91102e-34
7.77852e-34
7.02015e-34
7.32369e-34
5.36849e-34
5.44013e-34
3.09811e-34
3.70709e-34
1.79958e-34
2.63066e-34
6.12547e-35
6.08647e-35
-2.17493e-34
-3.07861e-34
-6.15774e-34
-7.1283e-34
-9.78651e-34
-1.041e-33
-1.26624e-33
-1.28553e-33
-1.47373e-33
-1.39168e-33
-1.49259e-33
-1.28622e-33
-1.28264e-33
-1.04792e-33
-9.6558e-34
-7.86472e-34
-6.35292e-34
-5.05118e-34
-3.25601e-34
-2.17381e-34
-1.69996e-34
-2.40148e-34
-2.66358e-34
-2.83641e-34
-2.29942e-34
-3.22619e-34
-2.87588e-34
-5.13477e-34
-5.3474e-34
-7.84811e-34
-7.99981e-34
-9.4599e-34
-9.04125e-34
-9.45007e-34
-8.58033e-34
-8.3841e-34
-7.34279e-34
-6.30959e-34
-5.39168e-34
-3.03546e-34
-2.50518e-34
9.6112e-35
1.05504e-34
4.50513e-34
4.28068e-34
6.68376e-34
6.45424e-34
7.91502e-34
7.77659e-34
8.73043e-34
7.88426e-34
8.22388e-34
6.0577e-34
6.14341e-34
3.54451e-34
4.20922e-34
2.07161e-34
2.95785e-34
6.81584e-35
6.36106e-35
-2.48382e-34
-3.51454e-34
-6.95041e-34
-8.04858e-34
-1.10191e-33
-1.17394e-33
-1.42693e-33
-1.45141e-33
-1.66293e-33
-1.57342e-33
-1.6858e-33
-1.45585e-33
-1.44909e-33
-1.18524e-33
-1.08847e-33
-8.84963e-34
-7.11811e-34
-5.63715e-34
-3.62018e-34
-2.4107e-34
-1.887e-34
-2.66473e-34
-2.96145e-34
-3.17809e-34
-2.60835e-34
-3.67535e-34
-3.31296e-34
-5.84039e-34
-6.08526e-34
-8.85667e-34
-9.02545e-34
-1.06421e-33
-1.01869e-33
-1.06513e-33
-9.70002e-34
-9.4891e-34
-8.33123e-34
-7.16184e-34
-6.1121e-34
-3.44195e-34
-2.79989e-34
1.10909e-34
1.26532e-34
5.12953e-34
4.9074e-34
7.574e-34
7.32018e-34
8.92541e-34
8.76211e-34
9.81073e-34
8.866e-34
9.24654e-34
6.8459e-34
6.94834e-34
4.06268e-34
4.78704e-34
2.38851e-34
3.32935e-34
7.58302e-35
6.58994e-35
-2.84162e-34
-4.01904e-34
-7.85631e-34
-9.10088e-34
-1.24239e-33
-1.32576e-33
-1.6103e-33
-1.64116e-33
-1.8792e-33
-1.78166e-33
-1.90688e-33
-1.65044e-33
-1.63956e-33
-1.34253e-33
-1.22863e-33
-9.96995e-34
-7.98347e-34
-6.29595e-34
-4.02729e-34
-2.67451e-34
-2.09521e-34
-2.95793e-34
-3.29479e-34
-3.56528e-34
-2.96428e-34
-4.1947e-34
-3.82364e-34
-6.65386e-34
-6.93608e-34
-1.00085e-33
-1.01965e-33
-1.19874e-33
-1.14934e-33
-1.20223e-33
-1.09827e-33
-1.07567e-33
-9.46823e-34
-8.14248e-34
-6.93945e-34
-3.90874e-34
-3.1316e-34
1.28258e-34
1.51811e-34
5.85059e-34
5.63593e-34
8.59627e-34
8.31531e-34
1.00786e-33
9.88576e-34
1.10383e-33
9.98292e-34
1.041e-33
7.74874e-34
7.87099e-34
4.66504e-34
5.45285e-34
2.75803e-34
3.75154e-34
8.43421e-35
6.75238e-35
-3.25669e-34
-4.60372e-34
-8.89307e-34
-1.03059e-33
-1.40271e-33
-1.49941e-33
-1.81986e-33
-1.85854e-33
-2.12678e-33
-2.02063e-33
-2.16023e-33
-1.87398e-33
-1.85783e-33
-1.52295e-33
-1.38869e-33
-1.12457e-33
-8.96298e-34
-7.0371e-34
-4.48257e-34
-2.96835e-34
-2.327e-34
-3.28458e-34
-3.66809e-34
-4.0047e-34
-3.37513e-34
-4.79622e-34
-4.42113e-34
-7.593e-34
-7.91849e-34
-1.13257e-33
-1.15353e-33
-1.35203e-33
-1.29856e-33
-1.35892e-33
-1.24544e-33
-1.2213e-33
-1.07781e-33
-9.2725e-34
-7.89091e-34
-4.44544e-34
-3.50511e-34
1.48638e-34
1.82206e-34
6.68455e-34
6.484e-34
9.77186e-34
9.46054e-34
1.13967e-33
1.11686e-33
1.24352e-33
1.12554e-33
1.17354e-33
8.78449e-34
8.9302e-34
5.36623e-34
6.22106e-34
3.18929e-34
4.23173e-34
9.37677e-35
6.82202e-35
-3.73891e-34
-5.28224e-34
-1.00812e-33
-1.16876e-33
-1.58594e-33
-1.69831e-33
-2.0597e-33
-2.10795e-33
-2.41062e-33
-2.29525e-33
-2.45097e-33
-2.13116e-33
-2.10829e-33
-1.73016e-33
-1.5717e-33
-1.27e-33
-1.00727e-33
-7.87142e-34
-4.9919e-34
-3.29569e-34
-2.585e-34
-3.64856e-34
-4.08648e-34
-4.50414e-34
-3.85026e-34
-5.494e-34
-5.12109e-34
-8.67873e-34
-9.05435e-34
-1.28339e-33
-1.3068e-33
-1.52693e-33
-1.46922e-33
-1.53826e-33
-1.41454e-33
-1.38887e-33
-1.22892e-33
-1.05765e-33
-8.98654e-34
-5.06324e-34
-3.92586e-34
1.72621e-34
2.18756e-34
7.65055e-34
7.47257e-34
1.11257e-33
1.07804e-33
1.29053e-33
1.26352e-33
1.40266e-33
1.2707e-33
1.32473e-33
9.97455e-34
1.0148e-33
6.1835e-34
7.10852e-34
3.69299e-34
4.7783e-34
1.04181e-34
6.7655e-35
-4.29993e-34
-6.07072e-34
-1.14447e-33
-1.32743e-33
-1.79564e-33
-1.92647e-33
-2.33459e-33
-2.39454e-33
-2.73649e-33
-2.61133e-33
-2.78512e-33
-2.42744e-33
-2.39608e-33
-1.96845e-33
-1.78117e-33
-1.43595e-33
-1.13309e-33
-8.81113e-34
-5.56183e-34
-3.66034e-34
-2.87214e-34
-4.05419e-34
-4.55576e-34
-5.07268e-34
-4.40074e-34
-6.30474e-34
-5.94213e-34
-9.93559e-34
-1.03693e-33
-1.45631e-33
-1.48249e-33
-1.72673e-33
-1.66467e-33
-1.74382e-33
-1.60914e-33
-1.58197e-33
-1.40352e-33
-1.20834e-33
-1.02498e-33
-5.77519e-34
-4.39995e-34
2.00894e-34
2.62714e-34
8.77115e-34
8.62643e-34
1.26871e-33
1.23035e-33
1.46342e-33
1.43141e-33
1.5842e-33
1.43652e-33
1.49746e-33
1.1344e-33
1.155e-33
7.13725e-34
8.13495e-34
4.28171e-34
5.40085e-34
1.15651e-34
6.54085e-35
-4.9535e-34
-6.98812e-34
-1.30115e-33
-1.50988e-33
-2.03596e-33
-2.18857e-33
-2.6501e-33
-2.72433e-33
-3.11117e-33
-2.97563e-33
-3.16967e-33
-2.76924e-33
-2.72718e-33
-2.24281e-33
-2.02122e-33
-1.62551e-33
-1.27587e-33
-9.8701e-34
-6.19969e-34
-4.06657e-34
-3.19164e-34
-4.5063e-34
-5.08255e-34
-5.72086e-34
-5.03967e-34
-7.24814e-34
-6.90632e-34
-1.13924e-33
-1.18935e-33
-1.65479e-33
-1.68412e-33
-1.95528e-33
-1.88881e-33
-1.97977e-33
-1.8334e-33
-1.80479e-33
-1.60552e-33
-1.3827e-33
-1.17081e-33
-6.5965e-34
-4.93424e-34
2.34279e-34
3.15587e-34
1.00729e-33
9.9749e-34
1.44902e-33
1.40635e-33
1.66181e-33
1.62384e-33
1.79156e-33
1.6262e-33
1.69504e-33
1.29221e-33
1.31665e-33
8.25154e-34
9.32345e-34
4.97022e-34
6.11038e-34
1.28242e-34
6.09553e-35
-5.71588e-34
-8.05684e-34
-1.48143e-33
-1.71995e-33
-2.31175e-33
-2.49006e-33
-3.01274e-33
-3.10435e-33
-3.54257e-33
-3.3961e-33
-3.61282e-33
-3.16406e-33
-3.10858e-33
-2.55905e-33
-2.29658e-33
-1.84222e-33
-1.438e-33
-1.1064e-33
-6.91366e-34
-4.51907e-34
-3.54703e-34
-5.01025e-34
-5.6744e-34
-6.46101e-34
-5.78258e-34
-8.3475e-34
-8.03986e-34
-1.30831e-33
-1.36622e-33
-1.88289e-33
-1.91581e-33
-2.21704e-33
-2.14619e-33
-2.25097e-33
-2.09221e-33
-2.06228e-33
-1.83955e-33
-1.58471e-33
-1.33936e-33
-7.54491e-34
-5.53641e-34
2.73766e-34
3.79187e-34
1.15872e-33
1.15527e-33
1.65752e-33
1.61e-33
1.88976e-33
1.84469e-33
2.02871e-33
1.84347e-33
1.92136e-33
1.47433e-33
1.50328e-33
9.5548e-34
1.0701e-33
5.77585e-34
6.91948e-34
1.42005e-34
5.36392e-35
-6.60628e-34
-9.30324e-34
-1.68911e-33
-1.96215e-33
-2.62864e-33
-2.83735e-33
-3.43013e-33
-3.54288e-33
-4.03993e-33
-3.88205e-33
-4.12417e-33
-3.62069e-33
-3.54845e-33
-2.92398e-33
-2.61278e-33
-2.0902e-33
-1.62224e-33
-1.24105e-33
-7.71286e-34
-5.02299e-34
-3.94218e-34
-5.57201e-34
-6.33993e-34
-7.30755e-34
-6.6479e-34
-9.63041e-34
-9.37386e-34
-1.50475e-33
-1.5717e-33
-2.14532e-33
-2.18236e-33
-2.5172e-33
-2.44215e-33
-2.56312e-33
-2.39131e-33
-2.36025e-33
-2.11103e-33
-1.81905e-33
-1.53437e-33
-8.64107e-34
-6.21503e-34
3.20543e-34
4.55699e-34
1.33511e-33
1.34008e-33
1.89892e-33
1.84592e-33
2.152e-33
2.09848e-33
2.30027e-33
2.09265e-33
2.18095e-33
1.68481e-33
1.71903e-33
1.10806e-33
1.22993e-33
6.71893e-34
7.84252e-34
1.56973e-34
4.26447e-35
-7.64741e-34
-1.07585e-33
-1.92867e-33
-2.24172e-33
-2.99325e-33
-3.23793e-33
-3.91118e-33
-4.0496e-33
-4.61413e-33
-4.44441e-33
-4.71497e-33
-4.14946e-33
-4.05633e-33
-3.34554e-33
-2.97621e-33
-2.3742e-33
-1.83172e-33
-1.39296e-33
-8.6074e-34
-5.58402e-34
-4.38132e-34
-6.19824e-34
-7.089e-34
-8.27732e-34
-7.65751e-34
-1.11295e-33
-1.09453e-33
-1.73323e-33
-1.81066e-33
-2.4476e-33
-2.48936e-33
-2.86181e-33
-2.7829e-33
-2.92288e-33
-2.73744e-33
-2.70549e-33
-2.42635e-33
-2.09118e-33
-1.76025e-33
-9.90904e-34
-6.97965e-34
3.76039e-34
5.4775e-34
1.54083e-33
1.55678e-33
2.17877e-33
2.11955e-33
2.45407e-33
2.39046e-33
2.6116e-33
2.37882e-33
2.47907e-33
1.9284e-33
1.96875e-33
1.28685e-33
1.41554e-33
7.82328e-34
8.89593e-34
1.73149e-34
2.69603e-35
-8.86613e-34
-1.24593e-33
-2.20531e-33
-2.56485e-33
-3.41328e-33
-3.70058e-33
-4.46631e-33
-4.63589e-33
-5.27786e-33
-5.09601e-33
-5.39839e-33
-4.76246e-33
-4.64337e-33
-3.83298e-33
-3.39431e-33
-2.69968e-33
-2.07005e-33
-1.5644e-33
-9.60855e-34
-6.20838e-34
-4.86905e-34
-6.89633e-34
-7.9329e-34
-9.39011e-34
-8.83741e-34
-1.28834e-33
-1.27979e-33
-1.99925e-33
-2.08883e-33
-2.79612e-33
-2.84334e-33
-3.25791e-33
-3.1757e-33
-3.33806e-33
-3.13851e-33
-3.10601e-33
-2.79301e-33
-2.40757e-33
-2.02211e-33
-1.13768e-33
-7.84083e-34
4.41975e-34
6.58502e-34
1.78105e-33
1.81114e-33
2.50357e-33
2.43729e-33
2.8024e-33
2.72678e-33
2.96896e-33
2.70787e-33
2.8219e-33
2.21067e-33
2.25814e-33
1.49654e-33
1.63124e-33
9.11684e-34
1.00984e-33
1.90497e-34
5.3361e-36
-1.02942e-33
-1.4449e-33
-2.52514e-33
-2.93875e-33
-3.89775e-33
-4.23558e-33
-5.10775e-33
-5.31509e-33
-6.04606e-33
-5.85194e-33
-6.18985e-33
-5.47389e-33
-5.3226e-33
-4.39712e-33
-3.87569e-33
-3.07296e-33
-2.34133e-33
-1.7579e-33
-1.07288e-33
-6.90288e-34
-5.41036e-34
-7.67453e-34
-8.88463e-34
-1.06691e-33
-1.02185e-33
-1.4938e-33
-1.49839e-33
-2.3093e-33
-2.41294e-33
-3.19839e-33
-3.25193e-33
-3.71373e-33
-3.62907e-33
-3.81779e-33
-3.60383e-33
-3.57124e-33
-3.21984e-33
-2.77577e-33
-2.32599e-33
-1.3077e-33
-8.81022e-34
5.20422e-34
7.91757e-34
2.06187e-33
2.10997e-33
2.88095e-33
2.80663e-33
3.20456e-33
3.11463e-33
3.37962e-33
3.0867e-33
3.21663e-33
2.53818e-33
2.59388e-33
1.74264e-33
1.88212e-33
1.06322e-33
1.14713e-33
2.08926e-34
-2.37696e-35
-1.19693e-33
-1.67788e-33
-2.89531e-33
-3.3719e-33
-4.4572e-33
-4.85502e-33
-5.84983e-33
-6.10289e-33
-6.93622e-33
-6.7299e-33
-7.10746e-33
-6.30039e-33
-6.10926e-33
-5.05059e-33
-4.43036e-33
-3.50132e-33
-2.65024e-33
-1.97631e-33
-1.19817e-33
-7.67489e-34
-6.01064e-34
-8.54198e-34
-9.95912e-34
-1.21417e-33
-1.18377e-33
-1.73474e-33
-1.75651e-33
-2.67096e-33
-2.79089e-33
-3.66312e-33
-3.72402e-33
-4.23883e-33
-4.15296e-33
-4.37281e-33
-4.14435e-33
-4.11226e-33
-3.71726e-33
-3.20469e-33
-2.6789e-33
-1.50475e-33
-9.9006e-34
6.13877e-34
9.5209e-34
2.39052e-33
2.46135e-33
3.31991e-33
3.2364e-33
3.66937e-33
3.56239e-33
3.8521e-33
3.52338e-33
3.67166e-33
2.91864e-33
2.98383e-33
2.03167e-33
2.1741e-33
1.24077e-33
1.30388e-33
2.28267e-34
-6.22528e-35
-1.39357e-33
-1.95092e-33
-3.32419e-33
-3.87422e-33
-5.104e-33
-5.57307e-33
-6.70937e-33
-7.01773e-33
-7.96888e-33
-7.7507e-33
-8.17243e-33
-7.26149e-33
-7.02115e-33
-5.80812e-33
-5.06993e-33
-3.99317e-33
-3.00213e-33
-2.22287e-33
-1.33826e-33
-8.53241e-34
-6.67569e-34
-9.50891e-34
-1.11737e-33
-1.38399e-33
-1.37387e-33
-2.0176e-33
-2.06148e-33
-3.09318e-33
-3.23197e-33
-4.2005e-33
-4.27002e-33
-4.84441e-33
-4.75905e-33
-5.01568e-33
-4.77295e-33
-4.74208e-33
-4.29749e-33
-3.70479e-33
-3.08907e-33
-1.73324e-33
-1.11259e-33
7.25346e-34
1.145e-33
2.77553e-33
2.87483e-33
3.831e-33
3.73697e-33
4.20715e-33
4.07988e-33
4.39627e-33
4.02734e-33
4.19684e-33
3.36112e-33
3.43718e-33
2.3713e-33
2.51408e-33
1.44877e-33
1.48284e-33
2.48249e-34
-1.12441e-34
-1.62462e-33
-2.27114e-33
-3.82158e-33
-4.45738e-33
-5.85259e-33
-6.40636e-33
-7.70609e-33
-8.08127e-33
-9.16815e-33
-8.93882e-33
-9.40965e-33
-8.38011e-33
-8.07909e-33
-6.6869e-33
-5.80784e-33
-4.55818e-33
-3.4031e-33
-2.50116e-33
-1.4948e-33
-9.48406e-34
-7.41171e-34
-1.05867e-33
-1.25482e-33
-1.58017e-33
-1.59737e-33
-2.34998e-33
-2.422e-33
-3.58646e-33
-3.74709e-33
-4.82241e-33
-4.90208e-33
-5.54352e-33
-5.46099e-33
-5.76118e-33
-5.50478e-33
-5.47606e-33
-4.97495e-33
-4.28832e-33
-3.56609e-33
-1.99826e-33
-1.2501e-33
8.58458e-34
1.3771e-33
3.227e-33
3.36174e-33
4.42665e-33
4.32052e-33
4.82997e-33
4.67857e-33
5.02372e-33
4.60961e-33
4.80367e-33
3.87631e-33
3.96474e-33
2.7706e-33
2.91016e-33
1.69244e-33
1.6871e-33
2.6847e-34
-1.77184e-34
-1.89629e-33