/*--------------------------------*- C++ -*----------------------------------*\
| =========                 |                                                 |
| \\      /  F ield         | foam-extend: Open Source CFD                    |
|  \\    /   O peration     | Version:     4.0                                |
|   \\  /    A nd           | Web:         http://www.foam-extend.org         |
|    \\/     M anipulation  |                                                 |
\*---------------------------------------------------------------------------*/
FoamFile
{
    version     2.0;
    format      ascii;
    class       volVectorField;
    location    "9";
    object      bodyForce;
}
// * * * * * * * * * * * * * * * * * * * * * * * * * * * * * * * * * * * * * //

dimensions      [1 -2 -2 0 0 0 0];

internalField   nonuniform List<vector> 
6960
(
(-1.75178e-31 -3.7273e-15 -0)
(-2.02838e-31 -3.7273e-15 -0)
(2.85817e-31 -3.7273e-15 -0)
(-3.87236e-31 -3.7273e-15 -0)
(-2.39717e-31 -3.7273e-15 -0)
(8.3901e-31 -3.7273e-15 -0)
(4.14895e-31 -3.7273e-15 -0)
(6.45393e-32 -3.7273e-15 -0)
(-2.39717e-31 -3.7273e-15 -0)
(-2.48937e-31 -3.7273e-15 -0)
(-3.04257e-31 -3.7273e-15 -0)
(-1.65958e-31 -3.7273e-15 -0)
(-1.84398e-32 -3.7273e-15 -0)
(-2.67377e-31 -3.7273e-15 -0)
(5.53194e-32 -3.7273e-15 -0)
(1.01419e-31 -3.7273e-15 -0)
(2.39717e-31 -3.7273e-15 -0)
(4.14895e-31 -3.7273e-15 -0)
(1.10639e-31 -3.7273e-15 -0)
(-2.76597e-31 -3.7273e-15 -0)
(-4.79435e-31 -3.7273e-15 -0)
(-1.65958e-31 -3.7273e-15 -0)
(1.38298e-31 -3.7273e-15 -0)
(1.93618e-31 -3.7273e-15 -0)
(-0 -3.7273e-15 -0)
(8.29791e-32 -3.7273e-15 -0)
(-7.37592e-32 -3.7273e-15 -0)
(4.60995e-32 -3.7273e-15 -0)
(1.47518e-31 -3.7273e-15 -0)
(1.65958e-31 -3.7273e-15 -0)
(-1.38298e-31 -3.7273e-15 -0)
(-2.67377e-31 -3.7273e-15 -0)
(1.10639e-31 -3.7273e-15 -0)
(1.19859e-31 -3.7273e-15 -0)
(2.76597e-32 -3.7273e-15 -0)
(-6.45393e-32 -3.7273e-15 -0)
(2.02838e-31 -3.7273e-15 -0)
(-2.95037e-31 -3.7273e-15 -0)
(-2.12058e-31 -3.7273e-15 -0)
(2.12058e-31 -3.7273e-15 -0)
(1.10639e-31 -3.7273e-15 -0)
(-1.19859e-31 -3.7273e-15 -0)
(3.68796e-32 -3.7273e-15 -0)
(2.30497e-31 -3.7273e-15 -0)
(-1.01419e-31 -3.7273e-15 -0)
(2.76597e-32 -3.7273e-15 -0)
(3.13476e-31 -3.7273e-15 -0)
(1.10639e-31 -3.7273e-15 -0)
(-4.60995e-32 -3.7273e-15 -0)
(-1.47518e-31 -3.7273e-15 -0)
(-4.60995e-32 -3.7273e-15 -0)
(4.33335e-31 -3.7273e-15 -0)
(3.04257e-31 -3.7273e-15 -0)
(-1.47518e-31 -3.7273e-15 -0)
(-2.39717e-31 -3.7273e-15 -0)
(-9.2199e-32 -3.7273e-15 -0)
(-6.63832e-31 -3.7273e-15 -0)
(-7.46812e-31 -3.7273e-15 -0)
(-9.2199e-32 -3.7273e-15 -0)
(-5.53194e-32 -3.7273e-15 -0)
(-4.29657e-31 -3.72729e-15 -0)
(-5.37072e-31 -3.72729e-15 -0)
(7.87705e-31 -3.72729e-15 -0)
(-1.21736e-30 -3.72729e-15 -0)
(-6.80291e-31 -3.72729e-15 -0)
(2.57794e-30 -3.72729e-15 -0)
(1.21736e-30 -3.72729e-15 -0)
(1.43219e-31 -3.72729e-15 -0)
(-6.80291e-31 -3.72729e-15 -0)
(-7.519e-31 -3.72729e-15 -0)
(-9.30924e-31 -3.72729e-15 -0)
(-5.01267e-31 -3.72729e-15 -0)
(-3.58048e-32 -3.72729e-15 -0)
(-8.59315e-31 -3.72729e-15 -0)
(2.14829e-31 -3.72729e-15 -0)
(2.86438e-31 -3.72729e-15 -0)
(7.16096e-31 -3.72729e-15 -0)
(1.32478e-30 -3.72729e-15 -0)
(3.22243e-31 -3.72729e-15 -0)
(-9.30924e-31 -3.72729e-15 -0)
(-1.43219e-30 -3.72729e-15 -0)
(-4.65462e-31 -3.72729e-15 -0)
(3.93853e-31 -3.72729e-15 -0)
(6.80291e-31 -3.72729e-15 -0)
(3.58048e-32 -3.72729e-15 -0)
(2.14829e-31 -3.72729e-15 -0)
(-2.50633e-31 -3.72729e-15 -0)
(1.79024e-31 -3.72729e-15 -0)
(4.29657e-31 -3.72729e-15 -0)
(5.01267e-31 -3.72729e-15 -0)
(-5.01267e-31 -3.72729e-15 -0)
(-8.59315e-31 -3.72729e-15 -0)
(3.93853e-31 -3.72729e-15 -0)
(2.86438e-31 -3.72729e-15 -0)
(3.58048e-32 -3.72729e-15 -0)
(-7.16096e-32 -3.72729e-15 -0)
(5.72876e-31 -3.72729e-15 -0)
(-8.95119e-31 -3.72729e-15 -0)
(-5.72876e-31 -3.72729e-15 -0)
(6.08681e-31 -3.72729e-15 -0)
(2.86438e-31 -3.72729e-15 -0)
(-3.58048e-31 -3.72729e-15 -0)
(7.16096e-32 -3.72729e-15 -0)
(7.519e-31 -3.72729e-15 -0)
(-2.50633e-31 -3.72729e-15 -0)
(-0 -3.72729e-15 -0)
(9.66729e-31 -3.72729e-15 -0)
(3.93853e-31 -3.72729e-15 -0)
(-1.79024e-31 -3.72729e-15 -0)
(-4.29657e-31 -3.72729e-15 -0)
(-1.07414e-31 -3.72729e-15 -0)
(1.28897e-30 -3.72729e-15 -0)
(8.95119e-31 -3.72729e-15 -0)
(-4.29657e-31 -3.72729e-15 -0)
(-7.87705e-31 -3.72729e-15 -0)
(-2.14829e-31 -3.72729e-15 -0)
(-1.96926e-30 -3.72729e-15 -0)
(-2.36312e-30 -3.72729e-15 -0)
(-2.14829e-31 -3.72729e-15 -0)
(-1.07414e-31 -3.72729e-15 -0)
(-8.34271e-31 -3.72729e-15 -0)
(-9.73316e-31 -3.72729e-15 -0)
(1.49474e-30 -3.72729e-15 -0)
(-1.98139e-30 -3.72729e-15 -0)
(-1.18188e-30 -3.72729e-15 -0)
(4.27564e-30 -3.72729e-15 -0)
(1.91187e-30 -3.72729e-15 -0)
(3.12852e-31 -3.72729e-15 -0)
(-1.0776e-30 -3.72729e-15 -0)
(-1.35569e-30 -3.72729e-15 -0)
(-1.5295e-30 -3.72729e-15 -0)
(-7.29987e-31 -3.72729e-15 -0)
(-1.39045e-31 -3.72729e-15 -0)
(-1.45997e-30 -3.72729e-15 -0)
(5.21419e-31 -3.72729e-15 -0)
(3.12852e-31 -3.72729e-15 -0)
(1.14712e-30 -3.72729e-15 -0)
(2.43329e-30 -3.72729e-15 -0)
(4.17136e-31 -3.72729e-15 -0)
(-1.49474e-30 -3.72729e-15 -0)
(-2.25948e-30 -3.72729e-15 -0)
(-9.03794e-31 -3.72729e-15 -0)
(5.90942e-31 -3.72729e-15 -0)
(1.21665e-30 -3.72729e-15 -0)
(-1.73806e-31 -3.72729e-15 -0)
(3.12852e-31 -3.72729e-15 -0)
(-2.08568e-31 -3.72729e-15 -0)
(1.73806e-31 -3.72729e-15 -0)
(6.60465e-31 -3.72729e-15 -0)
(1.00808e-30 -3.72729e-15 -0)
(-7.29987e-31 -3.72729e-15 -0)
(-1.42521e-30 -3.72729e-15 -0)
(5.90942e-31 -3.72729e-15 -0)
(5.56181e-31 -3.72729e-15 -0)
(-0 -3.72729e-15 -0)
(-1.39045e-31 -3.72729e-15 -0)
(9.73316e-31 -3.72729e-15 -0)
(-1.59902e-30 -3.72729e-15 -0)
(-9.38555e-31 -3.72729e-15 -0)
(1.0776e-30 -3.72729e-15 -0)
(5.21419e-31 -3.72729e-15 -0)
(-6.60465e-31 -3.72729e-15 -0)
(1.04284e-31 -3.72729e-15 -0)
(1.18188e-30 -3.72729e-15 -0)
(-3.47613e-31 -3.72729e-15 -0)
(1.39045e-31 -3.72729e-15 -0)
(1.56426e-30 -3.72729e-15 -0)
(5.90942e-31 -3.72729e-15 -0)
(-2.7809e-31 -3.72729e-15 -0)
(-7.29987e-31 -3.72729e-15 -0)
(-2.08568e-31 -3.72729e-15 -0)
(2.18996e-30 -3.72729e-15 -0)
(1.5295e-30 -3.72729e-15 -0)
(-7.29987e-31 -3.72729e-15 -0)
(-1.25141e-30 -3.72729e-15 -0)
(-4.86658e-31 -3.72729e-15 -0)
(-3.37185e-30 -3.72729e-15 -0)
(-3.8585e-30 -3.72729e-15 -0)
(-3.47613e-31 -3.72729e-15 -0)
(-2.08568e-31 -3.72729e-15 -0)
(-1.07994e-30 -3.72729e-15 -0)
(-1.48492e-30 -3.72729e-15 -0)
(1.8899e-30 -3.72729e-15 -0)
(-2.76735e-30 -3.72729e-15 -0)
(-1.68741e-30 -3.72729e-15 -0)
(6.14218e-30 -3.72729e-15 -0)
(2.96984e-30 -3.72729e-15 -0)
(2.69986e-31 -3.72729e-15 -0)
(-1.68741e-30 -3.72729e-15 -0)
(-1.8899e-30 -3.72729e-15 -0)
(-2.29488e-30 -3.72729e-15 -0)
(-8.77454e-31 -3.72729e-15 -0)
(-2.02489e-31 -3.72729e-15 -0)
(-2.09239e-30 -3.72729e-15 -0)
(7.42461e-31 -3.72729e-15 -0)
(6.07468e-31 -3.72729e-15 -0)
(1.55242e-30 -3.72729e-15 -0)
(3.23983e-30 -3.72729e-15 -0)
(6.07468e-31 -3.72729e-15 -0)
(-2.15989e-30 -3.72729e-15 -0)
(-3.17233e-30 -3.72729e-15 -0)
(-1.21494e-30 -3.72729e-15 -0)
(8.77454e-31 -3.72729e-15 -0)
(1.48492e-30 -3.72729e-15 -0)
(-1.34993e-31 -3.72729e-15 -0)
(5.39972e-31 -3.72729e-15 -0)
(-2.69986e-31 -3.72729e-15 -0)
(2.69986e-31 -3.72729e-15 -0)
(9.4495e-31 -3.72729e-15 -0)
(1.34993e-30 -3.72729e-15 -0)
(-1.07994e-30 -3.72729e-15 -0)
(-2.02489e-30 -3.72729e-15 -0)
(8.77454e-31 -3.72729e-15 -0)
(9.4495e-31 -3.72729e-15 -0)
(6.74964e-32 -3.72729e-15 -0)
(-4.04979e-31 -3.72729e-15 -0)
(1.55242e-30 -3.72729e-15 -0)
(-2.29488e-30 -3.72729e-15 -0)
(-1.34993e-30 -3.72729e-15 -0)
(1.61991e-30 -3.72729e-15 -0)
(7.42461e-31 -3.72729e-15 -0)
(-1.01245e-30 -3.72729e-15 -0)
(1.34993e-31 -3.72729e-15 -0)
(1.75491e-30 -3.72729e-15 -0)
(-6.74964e-31 -3.72729e-15 -0)
(2.02489e-31 -3.72729e-15 -0)
(2.15989e-30 -3.72729e-15 -0)
(8.09957e-31 -3.72729e-15 -0)
(-2.69986e-31 -3.72729e-15 -0)
(-1.07994e-30 -3.72729e-15 -0)
(-2.02489e-31 -3.72729e-15 -0)
(3.23983e-30 -3.72729e-15 -0)
(2.15989e-30 -3.72729e-15 -0)
(-1.07994e-30 -3.72729e-15 -0)
(-1.8899e-30 -3.72729e-15 -0)
(-7.42461e-31 -3.72729e-15 -0)
(-4.72475e-30 -3.72729e-15 -0)
(-5.39972e-30 -3.72729e-15 -0)
(-4.72475e-31 -3.72729e-15 -0)
(-4.04979e-31 -3.72729e-15 -0)
(-1.24506e-30 -3.72728e-15 -0)
(-2.03141e-30 -3.72728e-15 -0)
(2.228e-30 -3.72728e-15 -0)
(-3.53858e-30 -3.72728e-15 -0)
(-2.09694e-30 -3.72728e-15 -0)
(7.92905e-30 -3.72728e-15 -0)
(3.93176e-30 -3.72728e-15 -0)
(3.93176e-31 -3.72728e-15 -0)
(-2.35906e-30 -3.72728e-15 -0)
(-2.42459e-30 -3.72728e-15 -0)
(-2.81776e-30 -3.72728e-15 -0)
(-1.31059e-30 -3.72728e-15 -0)
(-0 -3.72728e-15 -0)
(-2.81776e-30 -3.72728e-15 -0)
(1.04847e-30 -3.72728e-15 -0)
(7.86352e-31 -3.72728e-15 -0)
(2.09694e-30 -3.72728e-15 -0)
(4.39047e-30 -3.72728e-15 -0)
(7.20823e-31 -3.72728e-15 -0)
(-2.88329e-30 -3.72728e-15 -0)
(-4.06282e-30 -3.72728e-15 -0)
(-1.70376e-30 -3.72728e-15 -0)
(1.17953e-30 -3.72728e-15 -0)
(2.03141e-30 -3.72728e-15 -0)
(-2.62117e-31 -3.72728e-15 -0)
(7.20823e-31 -3.72728e-15 -0)
(-4.58705e-31 -3.72728e-15 -0)
(4.58705e-31 -3.72728e-15 -0)
(1.31059e-30 -3.72728e-15 -0)
(1.5727e-30 -3.72728e-15 -0)
(-1.76929e-30 -3.72728e-15 -0)
(-2.55564e-30 -3.72728e-15 -0)
(1.31059e-30 -3.72728e-15 -0)
(1.17953e-30 -3.72728e-15 -0)
(6.55293e-32 -3.72728e-15 -0)
(-3.93176e-31 -3.72728e-15 -0)
(1.96588e-30 -3.72728e-15 -0)
(-3.14541e-30 -3.72728e-15 -0)
(-1.63823e-30 -3.72728e-15 -0)
(2.29353e-30 -3.72728e-15 -0)
(8.51881e-31 -3.72728e-15 -0)
(-1.37612e-30 -3.72728e-15 -0)
(1.31059e-31 -3.72728e-15 -0)
(2.35906e-30 -3.72728e-15 -0)
(-8.51882e-31 -3.72728e-15 -0)
(2.62117e-31 -3.72728e-15 -0)
(3.01435e-30 -3.72728e-15 -0)
(9.17411e-31 -3.72728e-15 -0)
(-3.93176e-31 -3.72728e-15 -0)
(-1.24506e-30 -3.72728e-15 -0)
(-4.58705e-31 -3.72728e-15 -0)
(4.19388e-30 -3.72728e-15 -0)
(2.81776e-30 -3.72728e-15 -0)
(-1.44165e-30 -3.72728e-15 -0)
(-2.42459e-30 -3.72728e-15 -0)
(-8.51882e-31 -3.72728e-15 -0)
(-6.35635e-30 -3.72728e-15 -0)
(-7.07717e-30 -3.72728e-15 -0)
(-5.89764e-31 -3.72728e-15 -0)
(-3.27647e-31 -3.72728e-15 -0)
(-1.39963e-30 -3.72728e-15 -0)
(-2.41754e-30 -3.72728e-15 -0)
(2.79926e-30 -3.72728e-15 -0)
(-4.07165e-30 -3.72728e-15 -0)
(-2.54478e-30 -3.72728e-15 -0)
(9.92465e-30 -3.72728e-15 -0)
(4.83509e-30 -3.72728e-15 -0)
(3.81717e-31 -3.72728e-15 -0)
(-3.18098e-30 -3.72728e-15 -0)
(-2.67202e-30 -3.72728e-15 -0)
(-3.30822e-30 -3.72728e-15 -0)
(-2.16307e-30 -3.72728e-15 -0)
(1.27239e-31 -3.72728e-15 -0)
(-3.30822e-30 -3.72728e-15 -0)
(1.27239e-30 -3.72728e-15 -0)
(1.27239e-30 -3.72728e-15 -0)
(2.16307e-30 -3.72728e-15 -0)
(5.34404e-30 -3.72728e-15 -0)
(1.14515e-30 -3.72728e-15 -0)
(-3.43546e-30 -3.72728e-15 -0)
(-5.2168e-30 -3.72728e-15 -0)
(-2.03583e-30 -3.72728e-15 -0)
(1.39963e-30 -3.72728e-15 -0)
(2.2903e-30 -3.72728e-15 -0)
(-2.54478e-31 -3.72728e-15 -0)
(1.27239e-30 -3.72728e-15 -0)
(-3.81717e-31 -3.72728e-15 -0)
(2.54478e-31 -3.72728e-15 -0)
(1.52687e-30 -3.72728e-15 -0)
(2.03583e-30 -3.72728e-15 -0)
(-2.03583e-30 -3.72728e-15 -0)
(-3.43546e-30 -3.72728e-15 -0)
(1.39963e-30 -3.72728e-15 -0)
(1.39963e-30 -3.72728e-15 -0)
(5.08957e-31 -3.72728e-15 -0)
(-3.81717e-31 -3.72728e-15 -0)
(2.41754e-30 -3.72728e-15 -0)
(-3.94441e-30 -3.72728e-15 -0)
(-2.41754e-30 -3.72728e-15 -0)
(2.79926e-30 -3.72728e-15 -0)
(1.39963e-30 -3.72728e-15 -0)
(-1.65411e-30 -3.72728e-15 -0)
(1.27239e-31 -3.72728e-15 -0)
(2.79926e-30 -3.72728e-15 -0)
(-1.14515e-30 -3.72728e-15 -0)
(5.08957e-31 -3.72728e-15 -0)
(3.68994e-30 -3.72728e-15 -0)
(1.27239e-30 -3.72728e-15 -0)
(-5.08957e-31 -3.72728e-15 -0)
(-2.03583e-30 -3.72728e-15 -0)
(-2.54478e-31 -3.72728e-15 -0)
(5.34404e-30 -3.72728e-15 -0)
(3.43546e-30 -3.72728e-15 -0)
(-1.78135e-30 -3.72728e-15 -0)
(-3.05374e-30 -3.72728e-15 -0)
(-1.01791e-30 -3.72728e-15 -0)
(-7.88883e-30 -3.72728e-15 -0)
(-8.90674e-30 -3.72728e-15 -0)
(-7.63435e-31 -3.72728e-15 -0)
(-6.36196e-31 -3.72728e-15 -0)
(-1.72943e-30 -3.72727e-15 -0)
(-2.59415e-30 -3.72727e-15 -0)
(3.33533e-30 -3.72727e-15 -0)
(-5.31183e-30 -3.72727e-15 -0)
(-2.71768e-30 -3.72727e-15 -0)
(1.17354e-29 -3.72727e-15 -0)
(5.68242e-30 -3.72727e-15 -0)
(4.94124e-31 -3.72727e-15 -0)
(-3.82946e-30 -3.72727e-15 -0)
(-3.45887e-30 -3.72727e-15 -0)
(-3.82946e-30 -3.72727e-15 -0)
(-2.22356e-30 -3.72727e-15 -0)
(-3.70593e-31 -3.72727e-15 -0)
(-3.82946e-30 -3.72727e-15 -0)
(1.97649e-30 -3.72727e-15 -0)
(1.11178e-30 -3.72727e-15 -0)
(2.96474e-30 -3.72727e-15 -0)
(6.67067e-30 -3.72727e-15 -0)
(6.17655e-31 -3.72727e-15 -0)
(-3.95299e-30 -3.72727e-15 -0)
(-5.68242e-30 -3.72727e-15 -0)
(-2.84121e-30 -3.72727e-15 -0)
(1.48237e-30 -3.72727e-15 -0)
(2.96474e-30 -3.72727e-15 -0)
(-3.70593e-31 -3.72727e-15 -0)
(1.48237e-30 -3.72727e-15 -0)
(-3.70593e-31 -3.72727e-15 -0)
(1.23531e-31 -3.72727e-15 -0)
(1.85296e-30 -3.72727e-15 -0)
(2.84121e-30 -3.72727e-15 -0)
(-2.96474e-30 -3.72727e-15 -0)
(-4.07652e-30 -3.72727e-15 -0)
(1.85296e-30 -3.72727e-15 -0)
(1.6059e-30 -3.72727e-15 -0)
(3.70593e-31 -3.72727e-15 -0)
(-3.70593e-31 -3.72727e-15 -0)
(3.08827e-30 -3.72727e-15 -0)
(-4.81771e-30 -3.72727e-15 -0)
(-2.96474e-30 -3.72727e-15 -0)
(3.82946e-30 -3.72727e-15 -0)
(1.48237e-30 -3.72727e-15 -0)
(-1.97649e-30 -3.72727e-15 -0)
(2.47062e-31 -3.72727e-15 -0)
(3.2118e-30 -3.72727e-15 -0)
(-1.35884e-30 -3.72727e-15 -0)
(6.17655e-31 -3.72727e-15 -0)
(4.44711e-30 -3.72727e-15 -0)
(1.35884e-30 -3.72727e-15 -0)
(-6.17655e-31 -3.72727e-15 -0)
(-1.97649e-30 -3.72727e-15 -0)
(-4.94124e-31 -3.72727e-15 -0)
(6.30008e-30 -3.72727e-15 -0)
(3.95299e-30 -3.72727e-15 -0)
(-2.22356e-30 -3.72727e-15 -0)
(-3.45887e-30 -3.72727e-15 -0)
(-1.11178e-30 -3.72727e-15 -0)
(-9.38835e-30 -3.72727e-15 -0)
(-1.08707e-29 -3.72727e-15 -0)
(-9.88247e-31 -3.72727e-15 -0)
(-7.41186e-31 -3.72727e-15 -0)
(-2.51855e-30 -3.72727e-15 -0)
(-3.1182e-30 -3.72727e-15 -0)
(4.6773e-30 -3.72727e-15 -0)
(-6.2364e-30 -3.72727e-15 -0)
(-3.35806e-30 -3.72727e-15 -0)
(1.41518e-29 -3.72727e-15 -0)
(6.2364e-30 -3.72727e-15 -0)
(4.79723e-31 -3.72727e-15 -0)
(-4.43744e-30 -3.72727e-15 -0)
(-3.95771e-30 -3.72727e-15 -0)
(-4.6773e-30 -3.72727e-15 -0)
(-2.75841e-30 -3.72727e-15 -0)
(-0 -3.72727e-15 -0)
(-4.6773e-30 -3.72727e-15 -0)
(2.15875e-30 -3.72727e-15 -0)
(1.67903e-30 -3.72727e-15 -0)
(3.35806e-30 -3.72727e-15 -0)
(7.55564e-30 -3.72727e-15 -0)
(9.59446e-31 -3.72727e-15 -0)
(-5.03709e-30 -3.72727e-15 -0)
(-6.83605e-30 -3.72727e-15 -0)
(-2.63848e-30 -3.72727e-15 -0)
(1.5591e-30 -3.72727e-15 -0)
(2.87834e-30 -3.72727e-15 -0)
(-3.59792e-31 -3.72727e-15 -0)
(2.03882e-30 -3.72727e-15 -0)
(-8.39515e-31 -3.72727e-15 -0)
(-1.19931e-31 -3.72727e-15 -0)
(2.75841e-30 -3.72727e-15 -0)
(3.47799e-30 -3.72727e-15 -0)
(-3.1182e-30 -3.72727e-15 -0)
(-5.51681e-30 -3.72727e-15 -0)
(1.5591e-30 -3.72727e-15 -0)
(3.1182e-30 -3.72727e-15 -0)
(5.99654e-31 -3.72727e-15 -0)
(-9.59446e-31 -3.72727e-15 -0)
(3.95771e-30 -3.72727e-15 -0)
(-5.75668e-30 -3.72727e-15 -0)
(-3.59792e-30 -3.72727e-15 -0)
(4.31751e-30 -3.72727e-15 -0)
(2.03882e-30 -3.72727e-15 -0)
(-2.39861e-30 -3.72727e-15 -0)
(3.59792e-31 -3.72727e-15 -0)
(3.71785e-30 -3.72727e-15 -0)
(-1.79896e-30 -3.72727e-15 -0)
(1.07938e-30 -3.72727e-15 -0)
(5.03709e-30 -3.72727e-15 -0)
(1.31924e-30 -3.72727e-15 -0)
(-5.99654e-31 -3.72727e-15 -0)
(-2.39861e-30 -3.72727e-15 -0)
(-9.59446e-31 -3.72727e-15 -0)
(7.55564e-30 -3.72727e-15 -0)
(5.03709e-30 -3.72727e-15 -0)
(-2.99827e-30 -3.72727e-15 -0)
(-4.07765e-30 -3.72727e-15 -0)
(-1.5591e-30 -3.72727e-15 -0)
(-1.11536e-29 -3.72727e-15 -0)
(-1.2113e-29 -3.72727e-15 -0)
(-1.43917e-30 -3.72727e-15 -0)
(-9.59446e-31 -3.72727e-15 -0)
(-3.49306e-30 -3.72726e-15 -0)
(-3.49306e-30 -3.72726e-15 -0)
(5.35603e-30 -3.72726e-15 -0)
(-7.219e-30 -3.72726e-15 -0)
(-3.95881e-30 -3.72726e-15 -0)
(1.53695e-29 -3.72726e-15 -0)
(7.68474e-30 -3.72726e-15 -0)
(9.31484e-31 -3.72726e-15 -0)
(-5.5889e-30 -3.72726e-15 -0)
(-4.42455e-30 -3.72726e-15 -0)
(-4.65742e-30 -3.72726e-15 -0)
(-3.72594e-30 -3.72726e-15 -0)
(-0 -3.72726e-15 -0)
(-5.12316e-30 -3.72726e-15 -0)
(2.32871e-30 -3.72726e-15 -0)
(2.32871e-30 -3.72726e-15 -0)
(3.95881e-30 -3.72726e-15 -0)
(8.15048e-30 -3.72726e-15 -0)
(1.16435e-30 -3.72726e-15 -0)
(-5.12316e-30 -3.72726e-15 -0)
(-8.15048e-30 -3.72726e-15 -0)
(-3.72594e-30 -3.72726e-15 -0)
(1.86297e-30 -3.72726e-15 -0)
(3.72594e-30 -3.72726e-15 -0)
(-2.32871e-31 -3.72726e-15 -0)
(2.32871e-30 -3.72726e-15 -0)
(-4.65742e-31 -3.72726e-15 -0)
(-2.32871e-31 -3.72726e-15 -0)
(2.79445e-30 -3.72726e-15 -0)
(4.42455e-30 -3.72726e-15 -0)
(-3.72594e-30 -3.72726e-15 -0)
(-6.28752e-30 -3.72726e-15 -0)
(1.6301e-30 -3.72726e-15 -0)
(3.02732e-30 -3.72726e-15 -0)
(9.31484e-31 -3.72726e-15 -0)
(-9.31484e-31 -3.72726e-15 -0)
(3.95881e-30 -3.72726e-15 -0)
(-6.28752e-30 -3.72726e-15 -0)
(-3.95881e-30 -3.72726e-15 -0)
(5.35603e-30 -3.72726e-15 -0)
(2.09584e-30 -3.72726e-15 -0)
(-2.79445e-30 -3.72726e-15 -0)
(4.65742e-31 -3.72726e-15 -0)
(4.19168e-30 -3.72726e-15 -0)
(-1.6301e-30 -3.72726e-15 -0)
(1.16435e-30 -3.72726e-15 -0)
(6.05465e-30 -3.72726e-15 -0)
(1.16435e-30 -3.72726e-15 -0)
(-9.31484e-31 -3.72726e-15 -0)
(-2.56158e-30 -3.72726e-15 -0)
(-1.16435e-30 -3.72726e-15 -0)
(9.08197e-30 -3.72726e-15 -0)
(5.82177e-30 -3.72726e-15 -0)
(-3.72594e-30 -3.72726e-15 -0)
(-4.89029e-30 -3.72726e-15 -0)
(-1.39723e-30 -3.72726e-15 -0)
(-1.30408e-29 -3.72726e-15 -0)
(-1.4438e-29 -3.72726e-15 -0)
(-1.6301e-30 -3.72726e-15 -0)
(-1.16435e-30 -3.72726e-15 -0)
(-4.06951e-30 -3.72725e-15 -0)
(-3.84343e-30 -3.72725e-15 -0)
(5.6521e-30 -3.72725e-15 -0)
(-8.13903e-30 -3.72725e-15 -0)
(-4.52168e-30 -3.72725e-15 -0)
(1.78606e-29 -3.72725e-15 -0)
(8.5912e-30 -3.72725e-15 -0)
(1.13042e-30 -3.72725e-15 -0)
(-6.10427e-30 -3.72725e-15 -0)
(-5.19994e-30 -3.72725e-15 -0)
(-5.42602e-30 -3.72725e-15 -0)
(-4.06951e-30 -3.72725e-15 -0)
(-1.13042e-30 -3.72725e-15 -0)
(-5.6521e-30 -3.72725e-15 -0)
(2.71301e-30 -3.72725e-15 -0)
(2.26084e-30 -3.72725e-15 -0)
(4.97385e-30 -3.72725e-15 -0)
(1.01738e-29 -3.72725e-15 -0)
(6.78252e-31 -3.72725e-15 -0)
(-6.10427e-30 -3.72725e-15 -0)
(-8.81728e-30 -3.72725e-15 -0)
(-4.06951e-30 -3.72725e-15 -0)
(1.58259e-30 -3.72725e-15 -0)
(4.52168e-30 -3.72725e-15 -0)
(-0 -3.72725e-15 -0)
(2.03476e-30 -3.72725e-15 -0)
(-6.78252e-31 -3.72725e-15 -0)
(4.52168e-31 -3.72725e-15 -0)
(3.16518e-30 -3.72725e-15 -0)
(4.97385e-30 -3.72725e-15 -0)
(-4.2956e-30 -3.72725e-15 -0)
(-7.23469e-30 -3.72725e-15 -0)
(1.58259e-30 -3.72725e-15 -0)
(3.39126e-30 -3.72725e-15 -0)
(1.13042e-30 -3.72725e-15 -0)
(-1.13042e-30 -3.72725e-15 -0)
(4.97385e-30 -3.72725e-15 -0)
(-7.00861e-30 -3.72725e-15 -0)
(-4.74777e-30 -3.72725e-15 -0)
(6.10427e-30 -3.72725e-15 -0)
(2.48693e-30 -3.72725e-15 -0)
(-2.93909e-30 -3.72725e-15 -0)
(-0 -3.72725e-15 -0)
(4.74777e-30 -3.72725e-15 -0)
(-2.03476e-30 -3.72726e-15 -0)
(1.58259e-30 -3.72726e-15 -0)
(6.78253e-30 -3.72726e-15 -0)
(1.58259e-30 -3.72726e-15 -0)
(-1.35651e-30 -3.72726e-15 -0)
(-2.71301e-30 -3.72726e-15 -0)
(-9.04337e-31 -3.72726e-15 -0)
(9.72162e-30 -3.72726e-15 -0)
(6.33036e-30 -3.72726e-15 -0)
(-3.84343e-30 -3.72726e-15 -0)
(-5.42602e-30 -3.72726e-15 -0)
(-1.80867e-30 -3.72726e-15 -0)
(-1.42433e-29 -3.72726e-15 -0)
(-1.69563e-29 -3.72726e-15 -0)
(-2.03476e-30 -3.72726e-15 -0)
(-1.13042e-30 -3.72726e-15 -0)
(-4.82889e-30 -3.72725e-15 -0)
(-4.17041e-30 -3.72725e-15 -0)
(7.68233e-30 -3.72725e-15 -0)
(-9.43829e-30 -3.72725e-15 -0)
(-5.48738e-30 -3.72725e-15 -0)
(1.95351e-29 -3.72725e-15 -0)
(9.43829e-30 -3.72725e-15 -0)
(1.53647e-30 -3.72725e-15 -0)
(-7.02384e-30 -3.72725e-15 -0)
(-5.48738e-30 -3.72725e-15 -0)
(-5.92637e-30 -3.72725e-15 -0)
(-5.04839e-30 -3.72725e-15 -0)
(-2.19495e-31 -3.72725e-15 -0)
(-6.58485e-30 -3.72725e-15 -0)
(2.85344e-30 -3.72725e-15 -0)
(3.07293e-30 -3.72725e-15 -0)
(5.48738e-30 -3.72725e-15 -0)
(1.09748e-29 -3.72725e-15 -0)
(8.77981e-31 -3.72725e-15 -0)
(-6.14586e-30 -3.72725e-15 -0)
(-9.87728e-30 -3.72725e-15 -0)
(-5.26788e-30 -3.72725e-15 -0)
(1.53647e-30 -3.72725e-15 -0)
(5.70687e-30 -3.72725e-15 -0)
(-0 -3.72725e-15 -0)
(1.75596e-30 -3.72725e-15 -0)
(-1.09748e-30 -3.72725e-15 -0)
(4.3899e-31 -3.72725e-15 -0)
(4.3899e-30 -3.72725e-15 -0)
(5.70687e-30 -3.72725e-15 -0)
(-5.70687e-30 -3.72725e-15 -0)
(-9.2188e-30 -3.72725e-15 -0)
(2.63394e-30 -3.72725e-15 -0)
(4.6094e-30 -3.72725e-15 -0)
(6.58485e-31 -3.72725e-15 -0)
(-2.19495e-30 -3.72725e-15 -0)
(6.14586e-30 -3.72725e-15 -0)
(-7.24334e-30 -3.72725e-15 -0)
(-5.26788e-30 -3.72725e-15 -0)
(6.36536e-30 -3.72725e-15 -0)
(2.19495e-30 -3.72725e-15 -0)
(-3.51192e-30 -3.72725e-15 -0)
(8.77981e-31 -3.72725e-15 -0)
(5.26788e-30 -3.72725e-15 -0)
(-2.41445e-30 -3.72725e-15 -0)
(1.97546e-30 -3.72725e-15 -0)
(7.68233e-30 -3.72725e-15 -0)
(1.53647e-30 -3.72725e-15 -0)
(-1.31697e-30 -3.72725e-15 -0)
(-3.07293e-30 -3.72725e-15 -0)
(-1.31697e-30 -3.72725e-15 -0)
(1.11943e-29 -3.72725e-15 -0)
(7.68233e-30 -3.72725e-15 -0)
(-4.6094e-30 -3.72725e-15 -0)
(-6.14587e-30 -3.72725e-15 -0)
(-1.97546e-30 -3.72725e-15 -0)
(-1.60231e-29 -3.72725e-15 -0)
(-1.88766e-29 -3.72725e-15 -0)
(-2.63394e-30 -3.72725e-15 -0)
(-1.53647e-30 -3.72725e-15 -0)
(-5.54055e-30 -3.72724e-15 -0)
(-4.68816e-30 -3.72724e-15 -0)
(7.45844e-30 -3.72724e-15 -0)
(-1.06549e-29 -3.72724e-15 -0)
(-5.54055e-30 -3.72724e-15 -0)
(2.1736e-29 -3.72724e-15 -0)
(1.04418e-29 -3.72724e-15 -0)
(1.49169e-30 -3.72724e-15 -0)
(-7.88463e-30 -3.72724e-15 -0)
(-5.96675e-30 -3.72724e-15 -0)
(-5.75365e-30 -3.72724e-15 -0)
(-5.96675e-30 -3.72724e-15 -0)
(-1.49169e-30 -3.72724e-15 -0)
(-6.17985e-30 -3.72724e-15 -0)
(2.98337e-30 -3.72724e-15 -0)
(2.98337e-30 -3.72724e-15 -0)
(6.81914e-30 -3.72724e-15 -0)
(1.10811e-29 -3.72724e-15 -0)
(1.70479e-30 -3.72724e-15 -0)
(-6.81914e-30 -3.72724e-15 -0)
(-1.10811e-29 -3.72724e-15 -0)
(-5.54055e-30 -3.72724e-15 -0)
(1.49169e-30 -3.72724e-15 -0)
(6.39294e-30 -3.72724e-15 -0)
(2.13098e-31 -3.72724e-15 -0)
(1.70478e-30 -3.72724e-15 -0)
(-1.70478e-30 -3.72724e-15 -0)
(8.52392e-31 -3.72724e-15 -0)
(5.11435e-30 -3.72724e-15 -0)
(6.39294e-30 -3.72724e-15 -0)
(-6.60604e-30 -3.72724e-15 -0)
(-1.04418e-29 -3.72724e-15 -0)
(2.77028e-30 -3.72724e-15 -0)
(4.90126e-30 -3.72724e-15 -0)
(8.52393e-31 -3.72724e-15 -0)
(-2.34408e-30 -3.72724e-15 -0)
(7.03224e-30 -3.72724e-15 -0)
(-7.88463e-30 -3.72724e-15 -0)
(-6.60604e-30 -3.72724e-15 -0)
(7.67153e-30 -3.72724e-15 -0)
(2.98337e-30 -3.72724e-15 -0)
(-3.83577e-30 -3.72724e-15 -0)
(1.06549e-30 -3.72724e-15 -0)
(6.39294e-30 -3.72724e-15 -0)
(-3.83577e-30 -3.72724e-15 -0)
(1.91788e-30 -3.72724e-15 -0)
(9.37632e-30 -3.72724e-15 -0)
(1.49169e-30 -3.72724e-15 -0)
(-1.70479e-30 -3.72724e-15 -0)
(-4.04887e-30 -3.72724e-15 -0)
(-6.39295e-31 -3.72724e-15 -0)
(1.25728e-29 -3.72724e-15 -0)
(8.09773e-30 -3.72724e-15 -0)
(-4.47506e-30 -3.72724e-15 -0)
(-7.03224e-30 -3.72724e-15 -0)
(-2.77028e-30 -3.72724e-15 -0)
(-1.7261e-29 -3.72724e-15 -0)
(-2.06705e-29 -3.72724e-15 -0)
(-3.19647e-30 -3.72724e-15 -0)
(-1.49169e-30 -3.72724e-15 -0)
(-5.99974e-30 -3.72724e-15 -0)
(-5.37908e-30 -3.72724e-15 -0)
(8.48239e-30 -3.72724e-15 -0)
(-1.13788e-29 -3.72724e-15 -0)
(-7.03418e-30 -3.72724e-15 -0)
(2.37921e-29 -3.72724e-15 -0)
(1.24133e-29 -3.72724e-15 -0)
(1.6551e-30 -3.72724e-15 -0)
(-9.10305e-30 -3.72724e-15 -0)
(-6.41351e-30 -3.72724e-15 -0)
(-6.41351e-30 -3.72724e-15 -0)
(-6.41351e-30 -3.72724e-15 -0)
(-1.44821e-30 -3.72724e-15 -0)
(-7.24106e-30 -3.72724e-15 -0)
(2.48265e-30 -3.72724e-15 -0)
(4.34464e-30 -3.72724e-15 -0)
(8.48239e-30 -3.72724e-15 -0)
(1.17926e-29 -3.72724e-15 -0)
(1.44821e-30 -3.72724e-15 -0)
(-8.06861e-30 -3.72724e-15 -0)
(-1.24133e-29 -3.72724e-15 -0)
(-5.58596e-30 -3.72724e-15 -0)
(1.6551e-30 -3.72724e-15 -0)
(6.41351e-30 -3.72724e-15 -0)
(6.20663e-31 -3.72724e-15 -0)
(1.86199e-30 -3.72724e-15 -0)
(-1.6551e-30 -3.72724e-15 -0)
(8.2755e-31 -3.72724e-15 -0)
(5.99974e-30 -3.72724e-15 -0)
(6.6204e-30 -3.72724e-15 -0)
(-8.48239e-30 -3.72724e-15 -0)
(-1.26201e-29 -3.72724e-15 -0)
(3.93086e-30 -3.72724e-15 -0)
(6.20663e-30 -3.72724e-15 -0)
(4.13775e-31 -3.72724e-15 -0)
(-2.68954e-30 -3.72724e-15 -0)
(7.65484e-30 -3.72724e-15 -0)
(-8.48239e-30 -3.72724e-15 -0)
(-8.06862e-30 -3.72724e-15 -0)
(8.2755e-30 -3.72724e-15 -0)
(4.34464e-30 -3.72724e-15 -0)
(-3.51709e-30 -3.72724e-15 -0)
(6.20663e-31 -3.72724e-15 -0)
(6.20663e-30 -3.72724e-15 -0)
(-3.10331e-30 -3.72724e-15 -0)
(2.68954e-30 -3.72724e-15 -0)
(1.01375e-29 -3.72724e-15 -0)
(6.20663e-31 -3.72724e-15 -0)
(-2.27576e-30 -3.72724e-15 -0)
(-4.55153e-30 -3.72724e-15 -0)
(-1.03444e-30 -3.72724e-15 -0)
(1.40684e-29 -3.72724e-15 -0)
(9.30994e-30 -3.72724e-15 -0)
(-4.34464e-30 -3.72724e-15 -0)
(-7.44795e-30 -3.72724e-15 -0)
(-3.51709e-30 -3.72724e-15 -0)
(-1.92405e-29 -3.72724e-15 -0)
(-2.29645e-29 -3.72724e-15 -0)
(-3.51709e-30 -3.72724e-15 -0)
(-1.86199e-30 -3.72724e-15 -0)
(-6.02574e-30 -3.72723e-15 -0)
(-5.62402e-30 -3.72723e-15 -0)
(8.83775e-30 -3.72723e-15 -0)
(-1.28549e-29 -3.72723e-15 -0)
(-6.82917e-30 -3.72723e-15 -0)
(2.57098e-29 -3.72723e-15 -0)
(1.28549e-29 -3.72723e-15 -0)
(1.60686e-30 -3.72723e-15 -0)
(-9.64118e-30 -3.72723e-15 -0)
(-7.6326e-30 -3.72723e-15 -0)
(-6.02574e-30 -3.72723e-15 -0)
(-7.6326e-30 -3.72723e-15 -0)
(-2.81201e-30 -3.72723e-15 -0)
(-6.82917e-30 -3.72723e-15 -0)
(3.21373e-30 -3.72723e-15 -0)
(4.82059e-30 -3.72723e-15 -0)
(9.23947e-30 -3.72723e-15 -0)
(1.28549e-29 -3.72723e-15 -0)
(2.4103e-30 -3.72723e-15 -0)
(-8.83775e-30 -3.72723e-15 -0)
(-1.44618e-29 -3.72723e-15 -0)
(-6.02574e-30 -3.72723e-15 -0)
(2.00858e-30 -3.72723e-15 -0)
(7.6326e-30 -3.72723e-15 -0)
(-0 -3.72723e-15 -0)
(1.20515e-30 -3.72723e-15 -0)
(-2.00858e-30 -3.72723e-15 -0)
(2.00858e-30 -3.72723e-15 -0)
(6.82917e-30 -3.72723e-15 -0)
(6.82917e-30 -3.72723e-15 -0)
(-1.04446e-29 -3.72723e-15 -0)
(-1.32566e-29 -3.72723e-15 -0)
(4.82059e-30 -3.72723e-15 -0)
(6.82917e-30 -3.72723e-15 -0)
(-0 -3.72723e-15 -0)
(-2.4103e-30 -3.72723e-15 -0)
(8.03432e-30 -3.72723e-15 -0)
(-9.23947e-30 -3.72723e-15 -0)
(-8.43604e-30 -3.72723e-15 -0)
(8.83775e-30 -3.72723e-15 -0)
(5.22231e-30 -3.72723e-15 -0)
(-3.61544e-30 -3.72723e-15 -0)
(-0 -3.72723e-15 -0)
(8.03432e-30 -3.72723e-15 -0)
(-4.01716e-30 -3.72723e-15 -0)
(1.60686e-30 -3.72723e-15 -0)
(1.24532e-29 -3.72723e-15 -0)
(8.03432e-31 -3.72723e-15 -0)
(-3.21373e-30 -3.72723e-15 -0)
(-4.82059e-30 -3.72723e-15 -0)
(-8.03432e-31 -3.72723e-15 -0)
(1.44618e-29 -3.72723e-15 -0)
(9.64119e-30 -3.72723e-15 -0)
(-3.61544e-30 -3.72723e-15 -0)
(-7.23089e-30 -3.72723e-15 -0)
(-4.41888e-30 -3.72723e-15 -0)
(-2.08892e-29 -3.72723e-15 -0)
(-2.53081e-29 -3.72723e-15 -0)
(-4.01716e-30 -3.72723e-15 -0)
(-1.20515e-30 -3.72723e-15 -0)
(-7.02015e-30 -3.72722e-15 -0)
(-5.46011e-30 -3.72722e-15 -0)
(7.80016e-30 -3.72722e-15 -0)
(-1.36503e-29 -3.72722e-15 -0)
(-7.80016e-30 -3.72722e-15 -0)
(2.76906e-29 -3.72722e-15 -0)
(1.56003e-29 -3.72722e-15 -0)
(1.56003e-30 -3.72722e-15 -0)
(-1.17002e-29 -3.72722e-15 -0)
(-7.02015e-30 -3.72722e-15 -0)
(-6.24013e-30 -3.72722e-15 -0)
(-8.97019e-30 -3.72722e-15 -0)
(-3.12007e-30 -3.72722e-15 -0)
(-7.80016e-30 -3.72722e-15 -0)
(3.51007e-30 -3.72722e-15 -0)
(5.46011e-30 -3.72722e-15 -0)
(1.01402e-29 -3.72722e-15 -0)
(1.40403e-29 -3.72722e-15 -0)
(1.17002e-30 -3.72722e-15 -0)
(-9.7502e-30 -3.72722e-15 -0)
(-1.40403e-29 -3.72722e-15 -0)
(-6.63014e-30 -3.72722e-15 -0)
(1.56003e-30 -3.72722e-15 -0)
(8.58018e-30 -3.72722e-15 -0)
(1.17002e-30 -3.72722e-15 -0)
(-0 -3.72722e-15 -0)
(-3.51007e-30 -3.72722e-15 -0)
(2.73006e-30 -3.72722e-15 -0)
(8.19017e-30 -3.72722e-15 -0)
(7.02015e-30 -3.72722e-15 -0)
(-1.05302e-29 -3.72722e-15 -0)
(-1.48203e-29 -3.72722e-15 -0)
(4.6801e-30 -3.72722e-15 -0)
(7.80016e-30 -3.72722e-15 -0)
(-0 -3.72722e-15 -0)
(-3.12007e-30 -3.72722e-15 -0)
(9.3602e-30 -3.72722e-15 -0)
(-1.01402e-29 -3.72722e-15 -0)
(-9.75021e-30 -3.72722e-15 -0)
(9.3602e-30 -3.72722e-15 -0)
(5.85012e-30 -3.72722e-15 -0)
(-3.51007e-30 -3.72722e-15 -0)
(-0 -3.72722e-15 -0)
(8.97019e-30 -3.72722e-15 -0)
(-3.90008e-30 -3.72722e-15 -0)
(1.95004e-30 -3.72722e-15 -0)
(1.36503e-29 -3.72722e-15 -0)
(3.90008e-31 -3.72722e-15 -0)
(-5.07011e-30 -3.72722e-15 -0)
(-5.85012e-30 -3.72722e-15 -0)
(-3.90008e-31 -3.72722e-15 -0)
(1.63803e-29 -3.72722e-15 -0)
(1.09202e-29 -3.72722e-15 -0)
(-3.51007e-30 -3.72722e-15 -0)
(-7.41016e-30 -3.72722e-15 -0)
(-5.07011e-30 -3.72722e-15 -0)
(-2.22305e-29 -3.72722e-15 -0)
(-2.80806e-29 -3.72722e-15 -0)
(-5.07011e-30 -3.72722e-15 -0)
(-1.56003e-30 -3.72722e-15 -0)
(-6.05827e-30 -3.72722e-15 -0)
(-6.43691e-30 -3.72722e-15 -0)
(8.33012e-30 -3.72722e-15 -0)
(-1.24952e-29 -3.72722e-15 -0)
(-7.19419e-30 -3.72722e-15 -0)
(2.80195e-29 -3.72722e-15 -0)
(1.62816e-29 -3.72722e-15 -0)
(1.13592e-30 -3.72722e-15 -0)
(-1.21165e-29 -3.72722e-15 -0)
(-7.19419e-30 -3.72722e-15 -0)
(-6.05827e-30 -3.72722e-15 -0)
(-1.02233e-29 -3.72722e-15 -0)
(-5.30098e-30 -3.72722e-15 -0)
(-7.19419e-30 -3.72722e-15 -0)
(4.5437e-30 -3.72722e-15 -0)
(6.05827e-30 -3.72722e-15 -0)
(1.0602e-29 -3.72722e-15 -0)
(1.43884e-29 -3.72722e-15 -0)
(2.65049e-30 -3.72721e-15 -0)
(-1.09806e-29 -3.72721e-15 -0)
(-1.62816e-29 -3.72721e-15 -0)
(-6.81555e-30 -3.72721e-15 -0)
(2.27185e-30 -3.72721e-15 -0)
(9.46604e-30 -3.72721e-15 -0)
(7.57283e-31 -3.72721e-15 -0)
(-1.13592e-30 -3.72721e-15 -0)
(-3.40777e-30 -3.72721e-15 -0)
(3.02913e-30 -3.72721e-15 -0)
(1.0602e-29 -3.72721e-15 -0)
(9.0874e-30 -3.72721e-15 -0)
(-1.36311e-29 -3.72721e-15 -0)
(-1.74175e-29 -3.72721e-15 -0)
(6.05827e-30 -3.72722e-15 -0)
(7.57283e-30 -3.72722e-15 -0)
(-1.13592e-30 -3.72722e-15 -0)
(-3.02913e-30 -3.72722e-15 -0)
(9.84468e-30 -3.72722e-15 -0)
(-9.84468e-30 -3.72722e-15 -0)
(-9.46604e-30 -3.72722e-15 -0)
(1.0602e-29 -3.72722e-15 -0)
(6.81555e-30 -3.72722e-15 -0)
(-4.5437e-30 -3.72722e-15 -0)
(-7.57283e-31 -3.72722e-15 -0)
(9.84468e-30 -3.72722e-15 -0)
(-4.5437e-30 -3.72722e-15 -0)
(1.13593e-30 -3.72722e-15 -0)
(1.55243e-29 -3.72722e-15 -0)
(3.78642e-31 -3.72722e-15 -0)
(-4.92234e-30 -3.72722e-15 -0)
(-6.43691e-30 -3.72722e-15 -0)
(-1.13593e-30 -3.72722e-15 -0)
(1.81748e-29 -3.72722e-15 -0)
(1.13593e-29 -3.72722e-15 -0)
(-3.40778e-30 -3.72722e-15 -0)
(-7.57284e-30 -3.72722e-15 -0)
(-6.05827e-30 -3.72722e-15 -0)
(-2.38544e-29 -3.72722e-15 -0)
(-2.83981e-29 -3.72722e-15 -0)
(-6.05827e-30 -3.72722e-15 -0)
(-1.89321e-30 -3.72722e-15 -0)
(-5.51409e-30 -3.72721e-15 -0)
(-7.71973e-30 -3.72721e-15 -0)
(8.08734e-30 -3.72721e-15 -0)