/*--------------------------------*- C++ -*----------------------------------*\
| =========                 |                                                 |
| \\      /  F ield         | foam-extend: Open Source CFD                    |
|  \\    /   O peration     | Version:     4.0                                |
|   \\  /    A nd           | Web:         http://www.foam-extend.org         |
|    \\/     M anipulation  |                                                 |
\*---------------------------------------------------------------------------*/
FoamFile
{
    version     2.0;
    format      ascii;
    class       volScalarField;
    location    "9";
    object      p;
}
// * * * * * * * * * * * * * * * * * * * * * * * * * * * * * * * * * * * * * //

dimensions      [0 2 -2 0 0 0 0];

internalField   nonuniform List<scalar> 
6960
(
3.75606e-10
5.62478e-10
5.53556e-10
5.56371e-10
5.54288e-10
5.55531e-10
5.54663e-10
5.55158e-10
5.54674e-10
5.54834e-10
5.54578e-10
5.54634e-10
5.54501e-10
5.54553e-10
5.54554e-10
5.54626e-10
5.54629e-10
5.54656e-10
5.54677e-10
5.54702e-10
5.54676e-10
5.54642e-10
5.54634e-10
5.5465e-10
5.54639e-10
5.54611e-10
5.5461e-10
5.54641e-10
5.5465e-10
5.54624e-10
5.54611e-10
5.54636e-10
5.54653e-10
5.54631e-10
5.5461e-10
5.54631e-10
5.54662e-10
5.54652e-10
5.54622e-10
5.54628e-10
5.54657e-10
5.54655e-10
5.54619e-10
5.54607e-10
5.54632e-10
5.54647e-10
5.54627e-10
5.54614e-10
5.54632e-10
5.54654e-10
5.54645e-10
5.54629e-10
5.54626e-10
5.54636e-10
5.54624e-10
5.5462e-10
5.54606e-10
5.54626e-10
5.54606e-10
5.5464e-10
5.35884e-10
5.62317e-10
5.53516e-10
5.56376e-10
5.54286e-10
5.55533e-10
5.54662e-10
5.55159e-10
5.54674e-10
5.54834e-10
5.54578e-10
5.54633e-10
5.54501e-10
5.54553e-10
5.54554e-10
5.54626e-10
5.54629e-10
5.54656e-10
5.54677e-10
5.54702e-10
5.54676e-10
5.54642e-10
5.54634e-10
5.5465e-10
5.54639e-10
5.54611e-10
5.5461e-10
5.54641e-10
5.5465e-10
5.54624e-10
5.54611e-10
5.54635e-10
5.54653e-10
5.54631e-10
5.5461e-10
5.54631e-10
5.54662e-10
5.54652e-10
5.54623e-10
5.54628e-10
5.54657e-10
5.54655e-10
5.54619e-10
5.54607e-10
5.54632e-10
5.54647e-10
5.54627e-10
5.54614e-10
5.54632e-10
5.54655e-10
5.54645e-10
5.5463e-10
5.54626e-10
5.54637e-10
5.54624e-10
5.5462e-10
5.54606e-10
5.54626e-10
5.54606e-10
5.5464e-10
5.62327e-10
5.62092e-10
5.53482e-10
5.56381e-10
5.54283e-10
5.55534e-10
5.54662e-10
5.5516e-10
5.54674e-10
5.54835e-10
5.54578e-10
5.54633e-10
5.545e-10
5.54553e-10
5.54553e-10
5.54626e-10
5.54629e-10
5.54657e-10
5.54677e-10
5.54702e-10
5.54676e-10
5.54642e-10
5.54634e-10
5.54649e-10
5.54639e-10
5.54611e-10
5.5461e-10
5.54641e-10
5.5465e-10
5.54624e-10
5.54611e-10
5.54635e-10
5.54653e-10
5.54631e-10
5.5461e-10
5.54631e-10
5.54662e-10
5.54652e-10
5.54623e-10
5.54628e-10
5.54657e-10
5.54655e-10
5.54619e-10
5.54607e-10
5.54632e-10
5.54647e-10
5.54627e-10
5.54614e-10
5.54632e-10
5.54655e-10
5.54646e-10
5.5463e-10
5.54626e-10
5.54637e-10
5.54625e-10
5.5462e-10
5.54606e-10
5.54626e-10
5.54606e-10
5.5464e-10
5.49669e-10
5.61861e-10
5.53453e-10
5.56383e-10
5.54279e-10
5.55536e-10
5.54662e-10
5.55161e-10
5.54675e-10
5.54836e-10
5.54578e-10
5.54634e-10
5.545e-10
5.54552e-10
5.54553e-10
5.54626e-10
5.54628e-10
5.54656e-10
5.54677e-10
5.54702e-10
5.54676e-10
5.54642e-10
5.54634e-10
5.54649e-10
5.54639e-10
5.54611e-10
5.5461e-10
5.54641e-10
5.5465e-10
5.54624e-10
5.54611e-10
5.54635e-10
5.54653e-10
5.54631e-10
5.5461e-10
5.54631e-10
5.54662e-10
5.54652e-10
5.54623e-10
5.54628e-10
5.54657e-10
5.54655e-10
5.54619e-10
5.54607e-10
5.54632e-10
5.54646e-10
5.54627e-10
5.54614e-10
5.54632e-10
5.54654e-10
5.54646e-10
5.5463e-10
5.54626e-10
5.54637e-10
5.54625e-10
5.54621e-10
5.54606e-10
5.54626e-10
5.54606e-10
5.5464e-10
5.44482e-10
5.61644e-10
5.53424e-10
5.56383e-10
5.54275e-10
5.55536e-10
5.54662e-10
5.55163e-10
5.54676e-10
5.54838e-10
5.54579e-10
5.54634e-10
5.545e-10
5.54552e-10
5.54552e-10
5.54625e-10
5.54628e-10
5.54656e-10
5.54677e-10
5.54702e-10
5.54676e-10
5.54642e-10
5.54634e-10
5.5465e-10
5.54639e-10
5.54611e-10
5.5461e-10
5.54641e-10
5.5465e-10
5.54624e-10
5.54611e-10
5.54635e-10
5.54653e-10
5.54631e-10
5.5461e-10
5.54631e-10
5.54662e-10
5.54652e-10
5.54623e-10
5.54628e-10
5.54657e-10
5.54655e-10
5.54619e-10
5.54607e-10
5.54632e-10
5.54646e-10
5.54627e-10
5.54614e-10
5.54632e-10
5.54654e-10
5.54646e-10
5.5463e-10
5.54626e-10
5.54637e-10
5.54625e-10
5.54621e-10
5.54606e-10
5.54626e-10
5.54606e-10
5.5464e-10
5.45108e-10
5.61432e-10
5.53394e-10
5.56381e-10
5.5427e-10
5.55536e-10
5.54661e-10
5.55165e-10
5.54678e-10
5.5484e-10
5.54581e-10
5.54635e-10
5.545e-10
5.54551e-10
5.54551e-10
5.54624e-10
5.54627e-10
5.54656e-10
5.54677e-10
5.54702e-10
5.54676e-10
5.54643e-10
5.54635e-10
5.5465e-10
5.54639e-10
5.54611e-10
5.5461e-10
5.54641e-10
5.5465e-10
5.54624e-10
5.54611e-10
5.54635e-10
5.54652e-10
5.54631e-10
5.5461e-10
5.54631e-10
5.54661e-10
5.54652e-10
5.54623e-10
5.54628e-10
5.54657e-10
5.54655e-10
5.5462e-10
5.54607e-10
5.54632e-10
5.54646e-10
5.54627e-10
5.54614e-10
5.54632e-10
5.54654e-10
5.54645e-10
5.5463e-10
5.54626e-10
5.54637e-10
5.54625e-10
5.54621e-10
5.54606e-10
5.54626e-10
5.54606e-10
5.5464e-10
5.4603e-10
5.61219e-10
5.53364e-10
5.56377e-10
5.54265e-10
5.55535e-10
5.54661e-10
5.55167e-10
5.5468e-10
5.54843e-10
5.54582e-10
5.54636e-10
5.545e-10
5.54551e-10
5.5455e-10
5.54623e-10
5.54626e-10
5.54656e-10
5.54677e-10
5.54702e-10
5.54677e-10
5.54643e-10
5.54635e-10
5.5465e-10
5.54639e-10
5.54611e-10
5.5461e-10
5.54641e-10
5.5465e-10
5.54624e-10
5.54611e-10
5.54635e-10
5.54652e-10
5.54631e-10
5.54611e-10
5.54631e-10
5.54661e-10
5.54652e-10
5.54623e-10
5.54628e-10
5.54657e-10
5.54655e-10
5.5462e-10
5.54607e-10
5.54632e-10
5.54646e-10
5.54627e-10
5.54613e-10
5.54632e-10
5.54654e-10
5.54645e-10
5.5463e-10
5.54627e-10
5.54637e-10
5.54625e-10
5.54621e-10
5.54606e-10
5.54626e-10
5.54606e-10
5.5464e-10
5.46356e-10
5.61005e-10
5.53336e-10
5.56371e-10
5.54259e-10
5.55534e-10
5.5466e-10
5.55169e-10
5.54682e-10
5.54846e-10
5.54585e-10
5.54638e-10
5.54501e-10
5.54551e-10
5.54549e-10
5.54621e-10
5.54625e-10
5.54655e-10
5.54677e-10
5.54702e-10
5.54677e-10
5.54644e-10
5.54635e-10
5.5465e-10
5.54639e-10
5.54611e-10
5.5461e-10
5.54641e-10
5.5465e-10
5.54624e-10
5.54612e-10
5.54635e-10
5.54652e-10
5.54631e-10
5.54611e-10
5.54631e-10
5.54661e-10
5.54652e-10
5.54623e-10
5.54628e-10
5.54657e-10
5.54655e-10
5.5462e-10
5.54608e-10
5.54632e-10
5.54646e-10
5.54626e-10
5.54613e-10
5.54632e-10
5.54654e-10
5.54645e-10
5.5463e-10
5.54627e-10
5.54637e-10
5.54625e-10
5.54621e-10
5.54606e-10
5.54626e-10
5.54606e-10
5.5464e-10
5.46536e-10
5.60791e-10
5.53308e-10
5.56363e-10
5.54252e-10
5.55532e-10
5.54659e-10
5.55171e-10
5.54685e-10
5.54849e-10
5.54587e-10
5.5464e-10
5.54502e-10
5.5455e-10
5.54548e-10
5.5462e-10
5.54624e-10
5.54654e-10
5.54676e-10
5.54702e-10
5.54678e-10
5.54645e-10
5.54636e-10
5.5465e-10
5.54639e-10
5.54611e-10
5.54611e-10
5.5464e-10
5.54649e-10
5.54624e-10
5.54612e-10
5.54635e-10
5.54652e-10
5.54631e-10
5.54611e-10
5.54631e-10
5.54661e-10
5.54651e-10
5.54623e-10
5.54628e-10
5.54657e-10
5.54655e-10
5.5462e-10
5.54608e-10
5.54632e-10
5.54645e-10
5.54626e-10
5.54613e-10
5.54631e-10
5.54653e-10
5.54645e-10
5.54631e-10
5.54627e-10
5.54638e-10
5.54625e-10
5.54621e-10
5.54607e-10
5.54626e-10
5.54606e-10
5.5464e-10
5.46753e-10
5.60578e-10
5.53281e-10
5.56352e-10
5.54245e-10
5.55529e-10
5.54658e-10
5.55172e-10
5.54688e-10
5.54853e-10
5.54591e-10
5.54642e-10
5.54502e-10
5.5455e-10
5.54546e-10
5.54618e-10
5.54622e-10
5.54653e-10
5.54676e-10
5.54702e-10
5.54678e-10
5.54646e-10
5.54637e-10
5.5465e-10
5.54639e-10
5.54612e-10
5.54611e-10
5.5464e-10
5.54649e-10
5.54625e-10
5.54612e-10
5.54635e-10
5.54652e-10
5.54631e-10
5.54611e-10
5.54631e-10
5.5466e-10
5.54651e-10
5.54624e-10
5.54629e-10
5.54657e-10
5.54655e-10
5.54621e-10
5.54608e-10
5.54632e-10
5.54645e-10
5.54626e-10
5.54613e-10
5.54631e-10
5.54653e-10
5.54645e-10
5.54631e-10
5.54627e-10
5.54638e-10
5.54626e-10
5.54622e-10
5.54607e-10
5.54626e-10
5.54606e-10
5.5464e-10
5.46994e-10
5.60366e-10
5.53256e-10
5.5634e-10
5.54237e-10
5.55526e-10
5.54657e-10
5.55174e-10
5.54692e-10
5.54857e-10
5.54594e-10
5.54644e-10
5.54504e-10
5.5455e-10
5.54545e-10
5.54616e-10
5.54621e-10
5.54652e-10
5.54675e-10
5.54702e-10
5.54678e-10
5.54647e-10
5.54637e-10
5.5465e-10
5.54639e-10
5.54612e-10
5.54611e-10
5.5464e-10
5.54649e-10
5.54625e-10
5.54613e-10
5.54635e-10
5.54651e-10
5.54631e-10
5.54611e-10
5.54631e-10
5.5466e-10
5.54651e-10
5.54624e-10
5.54629e-10
5.54657e-10
5.54655e-10
5.54621e-10
5.54609e-10
5.54632e-10
5.54645e-10
5.54626e-10
5.54613e-10
5.54631e-10
5.54652e-10
5.54645e-10
5.54631e-10
5.54628e-10
5.54638e-10
5.54626e-10
5.54622e-10
5.54607e-10
5.54627e-10
5.54606e-10
5.5464e-10
5.47235e-10
5.60156e-10
5.53232e-10
5.56326e-10
5.54228e-10
5.55521e-10
5.54655e-10
5.55176e-10
5.54695e-10
5.54862e-10
5.54598e-10
5.54647e-10
5.54505e-10
5.5455e-10
5.54543e-10
5.54614e-10
5.54619e-10
5.54651e-10
5.54674e-10
5.54701e-10
5.54679e-10
5.54648e-10
5.54638e-10
5.54651e-10
5.54639e-10
5.54612e-10
5.54611e-10
5.5464e-10
5.54649e-10
5.54625e-10
5.54613e-10
5.54635e-10
5.54651e-10
5.54631e-10
5.54611e-10
5.54631e-10
5.54659e-10
5.54651e-10
5.54624e-10
5.54629e-10
5.54657e-10
5.54655e-10
5.54622e-10
5.54609e-10
5.54632e-10
5.54644e-10
5.54626e-10
5.54613e-10
5.5463e-10
5.54652e-10
5.54645e-10
5.54631e-10
5.54628e-10
5.54638e-10
5.54626e-10
5.54622e-10
5.54607e-10
5.54627e-10
5.54606e-10
5.5464e-10
5.47472e-10
5.59946e-10
5.53209e-10
5.5631e-10
5.54219e-10
5.55516e-10
5.54653e-10
5.55177e-10
5.54699e-10
5.54867e-10
5.54602e-10
5.5465e-10
5.54507e-10
5.5455e-10
5.54542e-10
5.54612e-10
5.54617e-10
5.5465e-10
5.54674e-10
5.54701e-10
5.54679e-10
5.54649e-10
5.54639e-10
5.54651e-10
5.54639e-10
5.54612e-10
5.54611e-10
5.54639e-10
5.54648e-10
5.54625e-10
5.54613e-10
5.54635e-10
5.54651e-10
5.54631e-10
5.54612e-10
5.54631e-10
5.54659e-10
5.5465e-10
5.54624e-10
5.54629e-10
5.54656e-10
5.54655e-10
5.54622e-10
5.5461e-10
5.54632e-10
5.54644e-10
5.54626e-10
5.54613e-10
5.5463e-10
5.54651e-10
5.54644e-10
5.54631e-10
5.54628e-10
5.54638e-10
5.54626e-10
5.54623e-10
5.54607e-10
5.54627e-10
5.54606e-10
5.5464e-10
5.47707e-10
5.59739e-10
5.53188e-10
5.56292e-10
5.5421e-10
5.5551e-10
5.5465e-10
5.55178e-10
5.54703e-10
5.54872e-10
5.54607e-10
5.54654e-10
5.54509e-10
5.5455e-10
5.5454e-10
5.54609e-10
5.54615e-10
5.54648e-10
5.54673e-10
5.54701e-10
5.5468e-10
5.5465e-10
5.5464e-10
5.54651e-10
5.54639e-10
5.54613e-10
5.54612e-10
5.54639e-10
5.54648e-10
5.54625e-10
5.54614e-10
5.54635e-10
5.54651e-10
5.54631e-10
5.54612e-10
5.5463e-10
5.54658e-10
5.5465e-10
5.54625e-10
5.5463e-10
5.54656e-10
5.54655e-10
5.54623e-10
5.54611e-10
5.54632e-10
5.54644e-10
5.54625e-10
5.54613e-10
5.5463e-10
5.54651e-10
5.54644e-10
5.54632e-10
5.54629e-10
5.54639e-10
5.54627e-10
5.54623e-10
5.54608e-10
5.54627e-10
5.54606e-10
5.5464e-10
5.47942e-10
5.59533e-10
5.53168e-10
5.56272e-10
5.542e-10
5.55503e-10
5.54648e-10
5.55179e-10
5.54707e-10
5.54877e-10
5.54612e-10
5.54658e-10
5.54511e-10
5.54551e-10
5.54539e-10
5.54607e-10
5.54612e-10
5.54647e-10
5.54672e-10
5.547e-10
5.5468e-10
5.54651e-10
5.54641e-10
5.54652e-10
5.5464e-10
5.54613e-10
5.54612e-10
5.54639e-10
5.54648e-10
5.54626e-10
5.54614e-10
5.54635e-10
5.5465e-10
5.54631e-10
5.54612e-10
5.5463e-10
5.54657e-10
5.5465e-10
5.54625e-10
5.5463e-10
5.54656e-10
5.54655e-10
5.54623e-10
5.54611e-10
5.54632e-10
5.54643e-10
5.54625e-10
5.54613e-10
5.54629e-10
5.5465e-10
5.54644e-10
5.54632e-10
5.54629e-10
5.54639e-10
5.54627e-10
5.54623e-10
5.54608e-10
5.54627e-10
5.54606e-10
5.5464e-10
5.48174e-10
5.5933e-10
5.5315e-10
5.5625e-10
5.5419e-10
5.55495e-10
5.54644e-10
5.55179e-10
5.54711e-10
5.54882e-10
5.54618e-10
5.54662e-10
5.54514e-10
5.54551e-10
5.54538e-10
5.54604e-10
5.5461e-10
5.54645e-10
5.5467e-10
5.54699e-10
5.5468e-10
5.54652e-10
5.54642e-10
5.54652e-10
5.5464e-10
5.54614e-10
5.54612e-10
5.54639e-10
5.54647e-10
5.54626e-10
5.54615e-10
5.54635e-10
5.5465e-10
5.54631e-10
5.54613e-10
5.5463e-10
5.54657e-10
5.54649e-10
5.54625e-10
5.5463e-10
5.54656e-10
5.54655e-10
5.54624e-10
5.54612e-10
5.54632e-10
5.54643e-10
5.54625e-10
5.54613e-10
5.54629e-10
5.54649e-10
5.54643e-10
5.54632e-10
5.54629e-10
5.54639e-10
5.54627e-10
5.54624e-10
5.54608e-10
5.54627e-10
5.54606e-10
5.5464e-10
5.48405e-10
5.59129e-10
5.53134e-10
5.56226e-10
5.5418e-10
5.55486e-10
5.54641e-10
5.55179e-10
5.54715e-10
5.54888e-10
5.54623e-10
5.54666e-10
5.54517e-10
5.54552e-10
5.54537e-10
5.54602e-10
5.54608e-10
5.54643e-10
5.54669e-10
5.54698e-10
5.5468e-10
5.54653e-10
5.54643e-10
5.54652e-10
5.5464e-10
5.54614e-10
5.54613e-10
5.54638e-10
5.54647e-10
5.54626e-10
5.54615e-10
5.54635e-10
5.5465e-10
5.54631e-10
5.54613e-10
5.5463e-10
5.54656e-10
5.54649e-10
5.54626e-10
5.54631e-10
5.54656e-10
5.54654e-10
5.54625e-10
5.54613e-10
5.54632e-10
5.54642e-10
5.54625e-10
5.54613e-10
5.54629e-10
5.54649e-10
5.54643e-10
5.54632e-10
5.5463e-10
5.54639e-10
5.54628e-10
5.54624e-10
5.54608e-10
5.54627e-10
5.54606e-10
5.5464e-10
5.48634e-10
5.58931e-10
5.5312e-10
5.562e-10
5.54169e-10
5.55476e-10
5.54636e-10
5.55178e-10
5.54718e-10
5.54893e-10
5.54629e-10
5.54671e-10
5.5452e-10
5.54554e-10
5.54536e-10
5.546e-10
5.54605e-10
5.54641e-10
5.54667e-10
5.54698e-10
5.5468e-10
5.54654e-10
5.54644e-10
5.54653e-10
5.5464e-10
5.54615e-10
5.54613e-10
5.54638e-10
5.54646e-10
5.54626e-10
5.54616e-10
5.54635e-10
5.54649e-10
5.54631e-10
5.54613e-10
5.5463e-10
5.54655e-10
5.54648e-10
5.54626e-10
5.54631e-10
5.54656e-10
5.54654e-10
5.54625e-10
5.54613e-10
5.54632e-10
5.54642e-10
5.54625e-10
5.54613e-10
5.54628e-10
5.54648e-10
5.54643e-10
5.54632e-10
5.5463e-10
5.5464e-10
5.54628e-10
5.54625e-10
5.54609e-10
5.54627e-10
5.54606e-10
5.5464e-10
5.4886e-10
5.58737e-10
5.53108e-10
5.56173e-10
5.54159e-10
5.55465e-10
5.54632e-10
5.55177e-10
5.54722e-10
5.54899e-10
5.54635e-10
5.54676e-10
5.54524e-10
5.54555e-10
5.54535e-10
5.54597e-10
5.54603e-10
5.54639e-10
5.54666e-10
5.54696e-10
5.5468e-10
5.54655e-10
5.54645e-10
5.54653e-10
5.54641e-10
5.54616e-10
5.54613e-10
5.54638e-10
5.54646e-10
5.54627e-10
5.54617e-10
5.54636e-10
5.54649e-10
5.54631e-10
5.54614e-10
5.5463e-10
5.54654e-10
5.54648e-10
5.54626e-10
5.54631e-10
5.54655e-10
5.54654e-10
5.54626e-10
5.54614e-10
5.54632e-10
5.54642e-10
5.54625e-10
5.54613e-10
5.54628e-10
5.54647e-10
5.54642e-10
5.54632e-10
5.5463e-10
5.5464e-10
5.54628e-10
5.54625e-10
5.54609e-10
5.54627e-10
5.54606e-10
5.5464e-10
5.49085e-10
5.58545e-10
5.53098e-10
5.56143e-10
5.54148e-10
5.55453e-10
5.54626e-10
5.55175e-10
5.54725e-10
5.54904e-10
5.54641e-10
5.54682e-10
5.54528e-10
5.54557e-10
5.54534e-10
5.54595e-10
5.546e-10
5.54637e-10
5.54664e-10
5.54695e-10
5.5468e-10
5.54656e-10
5.54646e-10
5.54654e-10
5.54641e-10
5.54616e-10
5.54614e-10
5.54638e-10
5.54646e-10
5.54627e-10
5.54617e-10
5.54636e-10
5.54648e-10
5.54631e-10
5.54614e-10
5.5463e-10
5.54653e-10
5.54647e-10
5.54627e-10
5.54632e-10
5.54655e-10
5.54654e-10
5.54627e-10
5.54615e-10
5.54632e-10
5.54641e-10
5.54624e-10
5.54613e-10
5.54627e-10
5.54646e-10
5.54642e-10
5.54632e-10
5.5463e-10
5.5464e-10
5.54629e-10
5.54626e-10
5.54609e-10
5.54627e-10
5.54606e-10
5.5464e-10
5.49306e-10
5.58357e-10
5.53091e-10
5.56113e-10
5.54137e-10
5.5544e-10
5.54621e-10
5.55172e-10
5.54728e-10
5.54909e-10
5.54648e-10
5.54687e-10
5.54532e-10
5.54559e-10
5.54534e-10
5.54592e-10
5.54597e-10
5.54635e-10
5.54662e-10
5.54694e-10
5.5468e-10
5.54657e-10
5.54647e-10
5.54654e-10
5.54642e-10
5.54617e-10
5.54615e-10
5.54637e-10
5.54645e-10
5.54627e-10
5.54618e-10
5.54636e-10
5.54648e-10
5.54631e-10
5.54615e-10
5.54629e-10
5.54653e-10
5.54647e-10
5.54627e-10
5.54632e-10
5.54655e-10
5.54654e-10
5.54627e-10
5.54616e-10
5.54632e-10
5.54641e-10
5.54624e-10
5.54613e-10
5.54627e-10
5.54645e-10
5.54641e-10
5.54633e-10
5.54631e-10
5.5464e-10
5.54629e-10
5.54626e-10
5.5461e-10
5.54627e-10
5.54606e-10
5.5464e-10
5.49524e-10
5.58172e-10
5.53086e-10
5.56081e-10
5.54126e-10
5.55426e-10
5.54614e-10
5.55169e-10
5.5473e-10
5.54914e-10
5.54654e-10
5.54693e-10
5.54537e-10
5.54561e-10
5.54534e-10
5.5459e-10
5.54595e-10
5.54633e-10
5.5466e-10
5.54692e-10
5.5468e-10
5.54658e-10
5.54649e-10
5.54655e-10
5.54642e-10
5.54618e-10
5.54615e-10
5.54637e-10
5.54645e-10
5.54627e-10
5.54618e-10
5.54636e-10
5.54648e-10
5.54631e-10
5.54615e-10
5.54629e-10
5.54652e-10
5.54646e-10
5.54627e-10
5.54632e-10
5.54654e-10
5.54654e-10
5.54628e-10
5.54617e-10
5.54632e-10
5.5464e-10
5.54624e-10
5.54613e-10
5.54626e-10
5.54644e-10
5.54641e-10
5.54633e-10
5.54631e-10
5.5464e-10
5.54629e-10
5.54627e-10
5.5461e-10
5.54627e-10
5.54606e-10
5.5464e-10
5.4974e-10
5.57992e-10
5.53084e-10
5.56047e-10
5.54116e-10
5.55411e-10
5.54608e-10
5.55165e-10
5.54732e-10
5.54918e-10
5.54661e-10
5.54699e-10
5.54542e-10
5.54564e-10
5.54534e-10
5.54588e-10
5.54592e-10
5.5463e-10
5.54658e-10
5.54691e-10
5.5468e-10
5.54659e-10
5.5465e-10
5.54655e-10
5.54642e-10
5.54619e-10
5.54616e-10
5.54637e-10
5.54644e-10
5.54628e-10
5.54619e-10
5.54636e-10
5.54647e-10
5.54631e-10
5.54616e-10
5.54629e-10
5.54651e-10
5.54646e-10
5.54627e-10
5.54632e-10
5.54654e-10
5.54654e-10
5.54629e-10
5.54618e-10
5.54632e-10
5.5464e-10
5.54624e-10
5.54614e-10
5.54626e-10
5.54644e-10
5.5464e-10
5.54633e-10
5.54631e-10
5.5464e-10
5.5463e-10
5.54627e-10
5.54611e-10
5.54628e-10
5.54606e-10
5.5464e-10
5.49952e-10
5.57816e-10
5.53084e-10
5.56012e-10
5.54106e-10
5.55395e-10
5.546e-10
5.5516e-10
5.54734e-10
5.54922e-10
5.54667e-10
5.54705e-10
5.54548e-10
5.54567e-10
5.54534e-10
5.54587e-10
5.5459e-10
5.54628e-10
5.54656e-10
5.54689e-10
5.54679e-10
5.5466e-10
5.54651e-10
5.54656e-10
5.54643e-10
5.5462e-10
5.54616e-10
5.54637e-10
5.54644e-10
5.54628e-10
5.5462e-10
5.54636e-10
5.54647e-10
5.54631e-10
5.54616e-10
5.54629e-10
5.5465e-10
5.54645e-10
5.54628e-10
5.54633e-10
5.54654e-10
5.54653e-10
5.5463e-10
5.54619e-10
5.54633e-10
5.5464e-10
5.54624e-10
5.54614e-10
5.54626e-10
5.54643e-10
5.54639e-10
5.54633e-10
5.54631e-10
5.54641e-10
5.5463e-10
5.54628e-10
5.54611e-10
5.54628e-10
5.54606e-10
5.5464e-10
5.5016e-10
5.57644e-10
5.53087e-10
5.55976e-10
5.54096e-10
5.55379e-10
5.54593e-10
5.55154e-10
5.54735e-10
5.54926e-10
5.54674e-10
5.54711e-10
5.54554e-10
5.54571e-10
5.54535e-10
5.54585e-10
5.54588e-10
5.54626e-10
5.54653e-10
5.54687e-10
5.54678e-10
5.54661e-10
5.54652e-10
5.54656e-10
5.54643e-10
5.54621e-10
5.54617e-10
5.54636e-10
5.54643e-10
5.54628e-10
5.5462e-10
5.54636e-10
5.54646e-10
5.54632e-10
5.54617e-10
5.54629e-10
5.54649e-10
5.54645e-10
5.54628e-10
5.54633e-10
5.54653e-10
5.54653e-10
5.5463e-10
5.5462e-10
5.54633e-10
5.54639e-10
5.54624e-10
5.54614e-10
5.54625e-10
5.54642e-10
5.54639e-10
5.54633e-10
5.54631e-10
5.54641e-10
5.5463e-10
5.54628e-10
5.54612e-10
5.54628e-10
5.54607e-10
5.5464e-10
5.50365e-10
5.57477e-10
5.53093e-10
5.55939e-10
5.54087e-10
5.55361e-10
5.54585e-10
5.55147e-10
5.54736e-10
5.54929e-10
5.5468e-10
5.54718e-10
5.5456e-10
5.54575e-10
5.54536e-10
5.54584e-10
5.54585e-10
5.54623e-10
5.54651e-10
5.54685e-10
5.54678e-10
5.54661e-10
5.54653e-10
5.54657e-10
5.54644e-10
5.54622e-10
5.54618e-10
5.54636e-10
5.54643e-10
5.54629e-10
5.54621e-10
5.54636e-10
5.54646e-10
5.54632e-10
5.54617e-10
5.54629e-10
5.54648e-10
5.54644e-10
5.54628e-10
5.54633e-10
5.54653e-10
5.54653e-10
5.54631e-10
5.54621e-10
5.54633e-10
5.54639e-10
5.54624e-10
5.54614e-10
5.54625e-10
5.54641e-10
5.54638e-10
5.54632e-10
5.54632e-10
5.54641e-10
5.54631e-10
5.54629e-10
5.54612e-10
5.54628e-10
5.54607e-10
5.5464e-10
5.50566e-10
5.57315e-10
5.53101e-10
5.55901e-10
5.54078e-10
5.55343e-10
5.54576e-10
5.5514e-10
5.54736e-10
5.54932e-10
5.54686e-10
5.54724e-10
5.54566e-10
5.54579e-10
5.54538e-10
5.54582e-10
5.54583e-10
5.54621e-10
5.54648e-10
5.54682e-10
5.54677e-10
5.54662e-10
5.54654e-10
5.54657e-10
5.54645e-10
5.54623e-10
5.54619e-10
5.54636e-10
5.54643e-10
5.54629e-10
5.54622e-10
5.54636e-10
5.54646e-10
5.54632e-10
5.54618e-10
5.54629e-10
5.54647e-10
5.54644e-10
5.54629e-10
5.54633e-10
5.54652e-10
5.54653e-10
5.54632e-10
5.54622e-10
5.54633e-10
5.54639e-10
5.54624e-10
5.54615e-10
5.54625e-10
5.5464e-10
5.54637e-10
5.54632e-10
5.54632e-10
5.54641e-10
5.54631e-10
5.54629e-10
5.54613e-10
5.54628e-10
5.54607e-10
5.5464e-10
5.50762e-10
5.57157e-10
5.53113e-10
5.55862e-10
5.5407e-10
5.55324e-10
5.54568e-10
5.55131e-10
5.54736e-10
5.54934e-10
5.54692e-10
5.5473e-10
5.54573e-10
5.54583e-10
5.54539e-10
5.54582e-10
5.54582e-10
5.54619e-10
5.54646e-10
5.5468e-10
5.54676e-10
5.54662e-10
5.54654e-10
5.54658e-10
5.54645e-10
5.54624e-10
5.5462e-10
5.54636e-10
5.54642e-10
5.54629e-10
5.54623e-10
5.54636e-10
5.54645e-10
5.54632e-10
5.54619e-10
5.54629e-10
5.54646e-10
5.54643e-10
5.54629e-10
5.54633e-10
5.54652e-10
5.54652e-10
5.54632e-10
5.54623e-10
5.54634e-10
5.54639e-10
5.54625e-10
5.54615e-10
5.54624e-10
5.54639e-10
5.54637e-10
5.54632e-10
5.54632e-10
5.54641e-10
5.54631e-10
5.5463e-10
5.54614e-10
5.54629e-10
5.54607e-10
5.5464e-10
5.50954e-10
5.57005e-10
5.53127e-10
5.55823e-10
5.54063e-10
5.55304e-10
5.54559e-10
5.55122e-10
5.54735e-10
5.54936e-10
5.54697e-10
5.54736e-10
5.54579e-10
5.54588e-10
5.54542e-10
5.54581e-10
5.5458e-10
5.54616e-10
5.54643e-10
5.54678e-10
5.54675e-10
5.54663e-10
5.54655e-10
5.54658e-10
5.54646e-10
5.54625e-10
5.54621e-10
5.54636e-10
5.54642e-10
5.5463e-10
5.54623e-10
5.54636e-10
5.54645e-10
5.54632e-10
5.54619e-10
5.54629e-10
5.54646e-10
5.54642e-10
5.54629e-10
5.54634e-10
5.54651e-10
5.54652e-10
5.54633e-10
5.54624e-10
5.54634e-10
5.54638e-10
5.54625e-10
5.54615e-10
5.54624e-10
5.54638e-10
5.54636e-10
5.54632e-10
5.54632e-10
5.54641e-10
5.54632e-10
5.5463e-10
5.54614e-10
5.54629e-10
5.54607e-10
5.5464e-10
5.51142e-10
5.56858e-10
5.53144e-10
5.55782e-10
5.54056e-10
5.55284e-10
5.5455e-10
5.55112e-10
5.54733e-10
5.54937e-10
5.54703e-10
5.54742e-10
5.54586e-10
5.54593e-10
5.54544e-10
5.54581e-10
5.54578e-10
5.54614e-10
5.54641e-10
5.54675e-10
5.54673e-10
5.54663e-10
5.54656e-10
5.54659e-10
5.54646e-10
5.54626e-10
5.54621e-10
5.54636e-10
5.54641e-10
5.5463e-10
5.54624e-10
5.54636e-10
5.54644e-10
5.54632e-10
5.5462e-10
5.54629e-10
5.54645e-10
5.54642e-10
5.54629e-10
5.54634e-10
5.54651e-10
5.54652e-10
5.54634e-10
5.54625e-10
5.54634e-10
5.54638e-10
5.54625e-10
5.54616e-10
5.54624e-10
5.54637e-10
5.54635e-10
5.54632e-10
5.54632e-10
5.5464e-10
5.54632e-10
5.54631e-10
5.54615e-10
5.54629e-10
5.54608e-10
5.5464e-10
5.51324e-10
5.56716e-10
5.53163e-10
5.55742e-10
5.54051e-10
5.55263e-10
5.5454e-10
5.55101e-10
5.54731e-10
5.54937e-10
5.54707e-10
5.54748e-10
5.54593e-10
5.54598e-10
5.54547e-10
5.54581e-10
5.54577e-10
5.54612e-10
5.54638e-10
5.54672e-10
5.54672e-10
5.54663e-10
5.54657e-10
5.54659e-10
5.54647e-10
5.54627e-10
5.54622e-10
5.54636e-10
5.54641e-10
5.5463e-10
5.54625e-10
5.54636e-10
5.54644e-10
5.54633e-10
5.54621e-10
5.54629e-10
5.54644e-10
5.54641e-10
5.54629e-10
5.54634e-10
5.5465e-10
5.54651e-10
5.54634e-10
5.54626e-10
5.54635e-10
5.54638e-10
5.54625e-10
5.54616e-10
5.54623e-10
5.54636e-10
5.54635e-10
5.54632e-10
5.54631e-10
5.5464e-10
5.54632e-10
5.54631e-10
5.54615e-10
5.5463e-10
5.54608e-10
5.5464e-10
5.51502e-10
5.56579e-10
5.53186e-10
5.55701e-10
5.54047e-10
5.55241e-10
5.54531e-10
5.55089e-10
5.54728e-10
5.54936e-10
5.54712e-10
5.54753e-10
5.546e-10
5.54603e-10
5.5455e-10
5.54582e-10
5.54576e-10
5.5461e-10
5.54636e-10
5.5467e-10
5.5467e-10
5.54663e-10
5.54657e-10
5.54659e-10
5.54647e-10
5.54629e-10
5.54623e-10
5.54636e-10
5.54641e-10
5.54631e-10
5.54625e-10
5.54636e-10
5.54644e-10
5.54633e-10
5.54622e-10
5.54629e-10
5.54643e-10
5.54641e-10
5.5463e-10
5.54634e-10
5.5465e-10
5.54651e-10
5.54635e-10
5.54627e-10
5.54635e-10
5.54638e-10
5.54626e-10
5.54617e-10
5.54623e-10
5.54635e-10
5.54634e-10
5.54631e-10
5.54631e-10
5.5464e-10
5.54632e-10
5.54632e-10
5.54616e-10
5.5463e-10
5.54608e-10
5.5464e-10
5.51675e-10
5.56448e-10
5.53211e-10
5.5566e-10
5.54044e-10
5.55219e-10
5.54522e-10
5.55076e-10
5.54724e-10
5.54934e-10
5.54716e-10
5.54758e-10
5.54607e-10
5.54609e-10
5.54554e-10
5.54582e-10
5.54576e-10
5.54609e-10
5.54633e-10
5.54667e-10
5.54669e-10
5.54663e-10
5.54657e-10
5.5466e-10
5.54648e-10
5.5463e-10
5.54624e-10
5.54636e-10
5.5464e-10
5.54631e-10
5.54626e-10
5.54636e-10
5.54643e-10
5.54633e-10
5.54622e-10
5.5463e-10
5.54643e-10
5.5464e-10
5.5463e-10
5.54634e-10
5.54649e-10
5.5465e-10
5.54635e-10
5.54628e-10
5.54635e-10
5.54638e-10
5.54626e-10
5.54617e-10
5.54623e-10
5.54634e-10
5.54633e-10
5.54631e-10
5.54631e-10
5.5464e-10
5.54632e-10
5.54632e-10
5.54617e-10
5.5463e-10
5.54608e-10
5.5464e-10
5.51842e-10
5.56322e-10
5.53239e-10
5.55619e-10
5.54042e-10
5.55197e-10
5.54513e-10
5.55063e-10
5.5472e-10
5.54932e-10
5.54719e-10
5.54763e-10
5.54614e-10
5.54615e-10
5.54558e-10
5.54584e-10
5.54576e-10
5.54607e-10
5.54631e-10
5.54664e-10
5.54667e-10
5.54662e-10
5.54658e-10
5.5466e-10
5.54648e-10
5.54631e-10
5.54625e-10
5.54636e-10
5.5464e-10
5.54631e-10
5.54627e-10
5.54637e-10
5.54643e-10
5.54634e-10
5.54623e-10
5.5463e-10
5.54642e-10
5.5464e-10
5.5463e-10
5.54634e-10
5.54648e-10
5.5465e-10
5.54636e-10
5.54629e-10
5.54636e-10
5.54638e-10
5.54626e-10
5.54618e-10
5.54623e-10
5.54634e-10
5.54633e-10
5.54631e-10
5.54631e-10
5.5464e-10
5.54632e-10
5.54633e-10
5.54617e-10
5.54631e-10
5.54609e-10
5.5464e-10
5.52005e-10
5.56201e-10
5.53269e-10
5.55578e-10
5.54042e-10
5.55175e-10
5.54504e-10
5.55049e-10
5.54716e-10
5.54929e-10
5.54722e-10
5.54767e-10
5.54621e-10
5.54621e-10
5.54562e-10
5.54585e-10
5.54576e-10
5.54606e-10
5.54629e-10
5.54662e-10
5.54665e-10
5.54662e-10
5.54658e-10
5.5466e-10
5.54649e-10
5.54632e-10
5.54627e-10
5.54636e-10
5.5464e-10
5.54632e-10
5.54628e-10
5.54637e-10
5.54643e-10
5.54634e-10
5.54624e-10
5.5463e-10
5.54641e-10
5.54639e-10
5.5463e-10
5.54634e-10
5.54648e-10
5.54649e-10
5.54636e-10
5.5463e-10
5.54636e-10
5.54638e-10
5.54627e-10
5.54619e-10
5.54623e-10
5.54633e-10
5.54632e-10
5.5463e-10
5.54631e-10
5.54639e-10
5.54632e-10
5.54633e-10
5.54618e-10
5.54631e-10
5.54609e-10
5.5464e-10
5.52161e-10
5.56086e-10
5.53302e-10
5.55537e-10
5.54043e-10
5.55153e-10
5.54495e-10
5.55035e-10
5.54711e-10
5.54925e-10
5.54724e-10
5.54771e-10
5.54627e-10
5.54626e-10
5.54567e-10
5.54587e-10
5.54576e-10
5.54605e-10
5.54627e-10
5.54659e-10
5.54664e-10
5.54662e-10
5.54658e-10
5.5466e-10
5.54649e-10
5.54633e-10
5.54628e-10
5.54636e-10
5.5464e-10
5.54632e-10
5.54628e-10
5.54637e-10
5.54643e-10
5.54634e-10
5.54625e-10
5.5463e-10
5.54641e-10
5.54639e-10
5.5463e-10
5.54634e-10
5.54647e-10
5.54649e-10
5.54637e-10
5.54631e-10
5.54636e-10
5.54638e-10
5.54627e-10
5.54619e-10
5.54623e-10
5.54632e-10
5.54631e-10
5.5463e-10
5.5463e-10
5.54639e-10
5.54632e-10
5.54634e-10
5.54618e-10
5.54632e-10
5.54609e-10
5.5464e-10
5.52313e-10
5.55977e-10
5.53337e-10
5.55496e-10
5.54046e-10
5.55131e-10
5.54487e-10
5.5502e-10
5.54705e-10
5.5492e-10
5.54726e-10
5.54774e-10
5.54634e-10
5.54632e-10
5.54571e-10
5.54589e-10
5.54577e-10
5.54604e-10
5.54625e-10
5.54656e-10
5.54662e-10
5.54661e-10
5.54658e-10
5.5466e-10
5.5465e-10
5.54634e-10
5.54629e-10
5.54636e-10
5.5464e-10
5.54633e-10
5.54629e-10
5.54637e-10
5.54642e-10
5.54634e-10
5.54626e-10
5.54631e-10
5.5464e-10
5.54638e-10
5.54631e-10
5.54634e-10
5.54646e-10
5.54648e-10
5.54637e-10
5.54631e-10
5.54636e-10
5.54638e-10
5.54628e-10
5.5462e-10
5.54623e-10
5.54632e-10
5.54631e-10
5.5463e-10
5.5463e-10
5.54638e-10
5.54632e-10
5.54634e-10
5.54619e-10
5.54632e-10
5.5461e-10
5.5464e-10
5.52458e-10
5.55872e-10
5.53374e-10
5.55455e-10
5.5405e-10
5.55108e-10
5.5448e-10
5.55004e-10
5.54699e-10
5.54914e-10
5.54727e-10
5.54777e-10
5.5464e-10
5.54638e-10
5.54576e-10
5.54592e-10
5.54578e-10
5.54604e-10
5.54623e-10
5.54654e-10
5.5466e-10
5.5466e-10
5.54658e-10
5.5466e-10
5.5465e-10
5.54635e-10
5.5463e-10
5.54637e-10
5.54639e-10
5.54633e-10
5.5463e-10
5.54637e-10
5.54642e-10
5.54635e-10
5.54626e-10
5.54631e-10
5.5464e-10
5.54638e-10
5.54631e-10
5.54634e-10
5.54645e-10
5.54647e-10
5.54637e-10
5.54632e-10
5.54637e-10
5.54638e-10
5.54628e-10
5.54621e-10
5.54624e-10
5.54631e-10
5.5463e-10
5.54629e-10
5.5463e-10
5.54638e-10
5.54632e-10
5.54634e-10
5.5462e-10
5.54632e-10
5.5461e-10
5.5464e-10
5.52598e-10
5.55773e-10
5.53413e-10
5.55416e-10
5.54056e-10
5.55086e-10
5.54473e-10
5.54989e-10
5.54693e-10
5.54908e-10
5.54728e-10
5.54779e-10
5.54646e-10
5.54644e-10
5.54581e-10
5.54594e-10
5.54579e-10
5.54603e-10
5.54621e-10
5.54651e-10
5.54658e-10
5.54659e-10
5.54658e-10
5.5466e-10
5.5465e-10
5.54637e-10
5.54631e-10
5.54637e-10
5.54639e-10
5.54633e-10
5.5463e-10
5.54637e-10
5.54642e-10
5.54635e-10
5.54627e-10
5.54631e-10
5.54639e-10
5.54638e-10
5.54631e-10
5.54634e-10
5.54645e-10
5.54647e-10
5.54638e-10
5.54633e-10
5.54637e-10
5.54638e-10
5.54629e-10
5.54622e-10
5.54624e-10
5.54631e-10
5.5463e-10
5.54629e-10
5.54629e-10
5.54637e-10
5.54632e-10
5.54634e-10
5.5462e-10
5.54633e-10
5.54611e-10
5.5464e-10
5.52732e-10
5.55679e-10
5.53453e-10
5.55376e-10
5.54064e-10
5.55064e-10
5.54467e-10
5.54973e-10
5.54687e-10
5.54901e-10
5.54727e-10
5.5478e-10
5.54651e-10
5.54649e-10
5.54586e-10
5.54597e-10
5.54581e-10
5.54603e-10
5.5462e-10
5.54649e-10
5.54656e-10
5.54658e-10
5.54657e-10
5.54659e-10
5.54651e-10
5.54638e-10
5.54632e-10
5.54637e-10
5.54639e-10
5.54634e-10
5.54631e-10
5.54637e-10
5.54642e-10
5.54635e-10
5.54628e-10
5.54632e-10
5.54639e-10
5.54637e-10
5.54631e-10
5.54634e-10
5.54644e-10
5.54646e-10
5.54638e-10
5.54633e-10
5.54637e-10
5.54638e-10
5.5463e-10
5.54622e-10
5.54624e-10
5.5463e-10
5.54629e-10
5.54629e-10
5.54629e-10
5.54637e-10
5.54631e-10
5.54634e-10
5.54621e-10
5.54633e-10
5.54611e-10
5.5464e-10
5.52861e-10
5.55591e-10
5.53496e-10
5.55337e-10
5.54073e-10
5.55043e-10
5.54461e-10
5.54956e-10
5.5468e-10
5.54893e-10
5.54727e-10
5.54781e-10
5.54657e-10
5.54654e-10
5.54592e-10
5.546e-10
5.54583e-10
5.54604e-10
5.54619e-10
5.54647e-10
5.54654e-10
5.54657e-10
5.54657e-10
5.54659e-10
5.54651e-10
5.54639e-10
5.54633e-10
5.54637e-10
5.54639e-10
5.54634e-10
5.54632e-10
5.54637e-10
5.54642e-10
5.54636e-10
5.54629e-10
5.54632e-10
5.54639e-10
5.54637e-10
5.54631e-10
5.54634e-10
5.54643e-10
5.54645e-10
5.54638e-10
5.54634e-10
5.54637e-10
5.54638e-10
5.5463e-10
5.54623e-10
5.54625e-10
5.5463e-10
5.54629e-10
5.54628e-10
5.54629e-10
5.54636e-10
5.54631e-10