/*--------------------------------*- C++ -*----------------------------------*\
| =========                 |                                                 |
| \\      /  F ield         | foam-extend: Open Source CFD                    |
|  \\    /   O peration     | Version:     4.0                                |
|   \\  /    A nd           | Web:         http://www.foam-extend.org         |
|    \\/     M anipulation  |                                                 |
\*---------------------------------------------------------------------------*/
FoamFile
{
    version     2.0;
    format      ascii;
    class       surfaceScalarField;
    location    "9";
    object      phi;
}
// * * * * * * * * * * * * * * * * * * * * * * * * * * * * * * * * * * * * * //

dimensions      [0 3 -1 0 0 0 0];

internalField   nonuniform List<scalar> 
13744
(
-2.57057e-25
-4.19475e-22
-5.29475e-26
-2.24732e-25
1.15077e-26
-6.93878e-26
-2.46238e-27
3.41693e-26
-1.82987e-26
-1.70139e-26
3.65957e-27
3.64186e-27
-7.90963e-28
-8.26107e-27
1.95565e-26
-2.2401e-26
2.95633e-26
-1.44487e-26
4.11641e-26
-2.52737e-26
4.89766e-26
-9.77765e-27
3.85223e-26
-1.29127e-27
2.41859e-26
1.03065e-26
-1.12109e-27
2.77679e-26
-2.82629e-26
3.20806e-26
-4.98814e-26
3.59198e-26
-6.45843e-26
2.82958e-26
-6.21769e-26
1.31044e-26
-4.61846e-26
-3.02104e-27
-1.82048e-26
-2.29401e-26
1.55786e-26
-3.59016e-26
4.53479e-26
-4.29957e-26
6.62535e-26
-4.10919e-26
7.18723e-26
-2.95927e-26
6.20214e-26
-1.31934e-26
3.96248e-26
6.2595e-27
1.01239e-26
2.3119e-26
-1.8333e-26
3.44589e-26
-3.99619e-26
3.77316e-26
-5.04233e-26
3.20191e-26
-4.82476e-26
1.94387e-26
-3.49877e-26
2.93761e-27
-1.4093e-26
-1.31565e-26
8.92511e-27
-2.52427e-26
2.91537e-26
-3.06191e-26
4.28431e-26
-2.76073e-26
4.75016e-26
-1.75351e-26
4.26179e-26
-3.01096e-27
2.8374e-26
1.2218e-26
7.8267e-27
2.36704e-26
-1.58009e-26
3.04782e-26
-3.91963e-26
2.9294e-26
-5.81108e-26
2.25903e-26
-7.11553e-26
1.25693e-26
-7.35565e-26
-1.2472e-28
-6.54663e-26
-7.54568e-27
-4.66434e-26
-1.59216e-26
-1.71374e-26
-1.77672e-26
1.61712e-26
-1.82225e-26
5.21833e-26
-1.87879e-26
7.94897e-26
-1.41618e-26
9.3317e-26
-1.44958e-26
8.85237e-26
-8.2179e-27
6.48457e-26
-4.42847e-27
2.84581e-26
1.2222e-27
-7.31916e-27
2.76454e-27
-3.43428e-26
4.64785e-27
-3.46132e-26
-6.11701e-27
-2.75013e-26
-7.26225e-29
-1.2426e-26
-3.81111e-25
-4.19042e-22
-1.57144e-25
-5.38789e-25
4.13249e-26
-2.57697e-25
-1.78045e-26
1.23189e-25
-5.18705e-26
-5.67149e-26
1.38362e-27
3.61818e-26
-1.7508e-27
-3.57118e-26
5.10901e-26
-6.65124e-26
8.36346e-26
-5.59735e-26
1.23533e-25
-9.46131e-26
1.48722e-25
-4.37716e-26
1.23014e-25
-2.23891e-26
8.12793e-26
2.58789e-26
6.53203e-27
8.67515e-26
-7.47341e-26
1.08572e-25
-1.43713e-25
1.30237e-25
-1.91394e-25
1.07095e-25
-1.89686e-25
6.12927e-26
-1.46042e-25
5.37917e-27
-6.47834e-26
-6.39357e-26
3.50305e-26
-1.11511e-25
1.25578e-25
-1.41593e-25
1.90883e-25
-1.39935e-25
2.12112e-25
-1.07667e-25
1.87659e-25
-5.75958e-26
1.2478e-25
4.68586e-27
3.95172e-26
6.10889e-26
-4.46398e-26
1.03219e-25
-1.10593e-25
1.213e-25
-1.45225e-25
1.11433e-25
-1.43609e-25
7.80982e-26
-1.08727e-25
2.81534e-26
-4.96415e-26
-2.62025e-26
1.8038e-26
-7.37943e-26
8.01682e-26
-1.03563e-25
1.25075e-25
-1.06402e-25
1.44859e-25
-8.28459e-26
1.35878e-25
-3.72835e-26
9.69194e-26
1.90279e-26
3.61633e-26
7.14317e-26
-3.7726e-26
1.12777e-25
-1.12981e-25
1.2579e-25
-1.7723e-25
1.15146e-25
-2.23172e-25
8.11644e-26
-2.35018e-25
2.93376e-26
-2.12999e-25
-1.48253e-26
-1.53559e-25
-6.57766e-26
-6.1825e-26
-8.84619e-26
4.50329e-26
-1.0151e-25
1.58108e-25
-9.68888e-26
2.44475e-25
-6.87277e-26
2.87079e-25
-4.58161e-26
2.72354e-25
-4.53096e-27
1.97e-25
2.38796e-26
8.66738e-26
4.0323e-26
-2.57125e-26
3.46409e-26
-1.04185e-25
1.42609e-26
-1.09368e-25
-3.71081e-26
-8.14524e-26
-2.28371e-26
-5.60336e-26
-5.4174e-25
-4.18376e-22
-2.35931e-25
-1.02012e-24
7.37752e-26
-5.16248e-25
-3.84822e-26
2.43861e-25
-8.63076e-26
-1.08124e-25
-5.98055e-27
1.05199e-25
-4.19436e-27
-7.87127e-26
7.83042e-26
-1.15607e-25
1.35218e-25
-1.2062e-25
2.07236e-25
-1.96258e-25
2.5247e-25
-9.9472e-26
2.14924e-25
-6.87135e-26
1.46828e-25
3.85243e-26
2.25609e-26
1.58837e-25
-1.1429e-25
2.11964e-25
-2.34584e-25
2.64777e-25
-3.19376e-25
2.22184e-25
-3.22763e-25
1.4054e-25
-2.54483e-25
3.00222e-26
-1.20979e-25
-1.05648e-25
4.55343e-26
-2.0156e-25
1.99489e-25
-2.66632e-25
3.12777e-25
-2.68912e-25
3.53664e-25
-2.15535e-25
3.18235e-25
-1.27048e-25
2.17133e-25
-1.37193e-26
7.68911e-26
9.23464e-26
-6.3771e-26
1.7791e-25
-1.76246e-25
2.22576e-25
-2.38218e-25
2.17768e-25
-2.40726e-25
1.67739e-25
-1.8717e-25
8.12285e-26
-9.14989e-26
-2.25112e-26
2.09458e-26
-1.24257e-25
1.26921e-25
-1.99481e-25
2.06461e-25
-2.25087e-25
2.45777e-25
-1.95139e-25
2.36756e-25
-1.11716e-25
1.75595e-25
5.21599e-27
7.48606e-26
1.28517e-25
-5.18521e-26
2.36791e-25
-1.83451e-25
2.87655e-25
-2.99271e-25
2.82975e-25
-3.84197e-25
2.12934e-25
-4.1012e-25
9.48413e-26
-3.76602e-25
-2.45393e-26
-2.75237e-25
-1.59585e-25
-1.18199e-25
-2.29357e-25
6.82139e-26
-2.68031e-25
2.64485e-25
-2.42681e-25
4.15698e-25
-1.60062e-25
4.90662e-25
-7.16408e-26
4.67225e-25
4.50134e-26
3.37873e-25
1.23896e-25
1.50723e-25
1.484e-25
-4.36063e-26
1.11696e-25
-1.75795e-25
2.48237e-26
-1.89361e-25
-1.0749e-25
-1.37976e-25
-8.49623e-26
-1.3562e-25
-7.55765e-25
-4.17554e-22
-3.16182e-25
-1.71632e-24
1.05733e-25
-8.44935e-25
-6.12673e-26
3.90941e-25
-1.23087e-25
-1.71014e-25
-1.56638e-26
2.0903e-25
-9.2822e-27
-1.36544e-25
1.02597e-25
-1.69426e-25
1.84899e-25
-2.08823e-25
2.91546e-25
-3.296e-25
3.59668e-25
-1.76861e-25
3.12657e-25
-1.39816e-25
2.1962e-25
4.82385e-26
4.59347e-26
2.43713e-25
-1.47919e-25
3.42229e-25
-3.22537e-25
4.3899e-25
-4.48324e-25
3.73161e-25
-4.60576e-25
2.5047e-25
-3.7045e-25
7.07748e-26
-1.85756e-25
-1.47614e-25
4.82432e-26
-3.05308e-25
2.68035e-25
-4.17082e-25
4.32787e-25
-4.27162e-25
4.9703e-25
-3.52717e-25
4.53735e-25
-2.216e-25
3.16214e-25
-4.97806e-26
1.21279e-25
1.15518e-25
-7.69997e-26
2.56938e-25
-2.38208e-25
3.40171e-25
-3.30327e-25
3.50192e-25
-3.3978e-25
2.88223e-25
-2.69728e-25
1.62815e-25
-1.38543e-25
-7.54056e-28
1.88947e-26
-1.74943e-25
1.70238e-25
-3.16672e-25
2.87007e-25
-3.82253e-25
3.49097e-25
-3.53287e-25
3.43147e-25
-2.25512e-25
2.6196e-25
-2.87638e-26
1.21856e-25
1.95112e-25
-5.89474e-26
4.02301e-25
-2.49899e-25
5.14347e-25
-4.21732e-25
5.24782e-25
-5.50526e-25
4.05706e-25
-5.94904e-25
1.93389e-25
-5.52752e-25
-4.06012e-26
-4.10093e-25
-3.01186e-25
-1.86206e-25
-4.44324e-25
8.35617e-26
-5.20263e-25
3.68154e-25
-4.57128e-25
5.89653e-25
-2.87039e-25
7.01625e-25
-8.9227e-26
6.72145e-25
1.44302e-25
4.89005e-25
2.99469e-25
2.22853e-25
3.2867e-25
-5.74054e-26
2.35703e-25
-2.47536e-25
3.68843e-26
-2.72696e-25
-2.1844e-25
-1.98099e-25
-1.89376e-25
-2.5518e-25
-9.76387e-25
-4.16498e-22
-4.05346e-25
-2.6233e-24
1.36856e-25
-1.25046e-24
-8.60973e-26
5.59487e-25
-1.61975e-25
-2.43993e-25
-2.75131e-26
3.48358e-25
-1.71145e-26
-2.08442e-25
1.2385e-25
-2.26462e-25
2.32446e-25
-3.20894e-25
3.76092e-25
-4.94389e-25
4.69938e-25
-2.77193e-25
4.15943e-25
-2.37514e-25
2.9963e-25
5.31543e-26
7.68851e-26
3.39228e-25
-1.75187e-25
4.98322e-25
-4.07025e-25
6.52522e-25
-5.77732e-25
5.60777e-25
-6.028e-25
3.92836e-25
-4.93913e-25
1.29801e-25
-2.594e-25
-1.87332e-25
4.26473e-26
-4.20619e-25
3.30641e-25
-5.91377e-25
5.50454e-25
-6.13949e-25
6.41984e-25
-5.19508e-25
5.94213e-25
-3.42471e-25
4.22327e-25
-1.05572e-25
1.73125e-25
1.28093e-25
-8.3878e-26
3.37845e-25
-2.96139e-25
4.72232e-25
-4.21366e-25
5.0795e-25
-4.4073e-25
4.40127e-25
-3.56489e-25
2.74782e-25
-1.90966e-25
4.17611e-26
1.1606e-26
-2.23084e-25
2.09758e-25
-4.53129e-25
3.6627e-25
-5.7735e-25
4.54307e-25
-5.58421e-25
4.5453e-25
-3.81279e-25
3.55615e-25
-8.62477e-26
1.77023e-25
2.68183e-25
-5.87359e-26
6.07492e-25
-3.11604e-25
8.06029e-25
-5.43479e-25
8.42614e-25
-7.20777e-25
6.62928e-25
-7.88012e-25
3.28828e-25
-7.40421e-25
-6.01344e-26
-5.57722e-25
-4.89319e-25
-2.66188e-25
-7.34516e-25
8.9996e-26
-8.61156e-25
4.6751e-25
-7.44183e-25
7.64614e-25
-4.53428e-25
9.18577e-25
-1.00767e-25
8.86454e-25
2.93324e-25
6.50697e-25
5.52798e-25
3.04162e-25
5.8513e-25
-6.56089e-26
4.10768e-25
-3.18032e-25
5.35836e-26
-3.5858e-25
-3.69344e-25
-2.61649e-25
-3.37821e-25
-4.19294e-25
-1.19519e-24
-4.1522e-22
-4.99541e-25
-3.73213e-24
1.6689e-25
-1.73576e-24
-1.12978e-25
7.44214e-25
-2.02812e-25
-3.25505e-25
-4.14796e-26
5.23617e-25
-2.78666e-26
-2.93303e-25
1.41777e-25
-2.84904e-25
2.77447e-25
-4.56814e-25
4.60382e-25
-6.902e-25
5.82853e-25
-4.01808e-25
5.24566e-25
-3.63767e-25
3.86968e-25
5.10099e-26
1.15856e-25
4.4281e-25
-1.95399e-25
6.78778e-25
-4.8725e-25
9.04643e-25
-7.06895e-25
7.85635e-25
-7.49014e-25
5.69434e-25
-6.24863e-25
2.09525e-25
-3.42322e-25
-2.21892e-25
2.80135e-26
-5.44918e-25
3.86455e-25
-7.87541e-25
6.65024e-25
-8.28259e-25
7.88043e-25
-7.16063e-25
7.39558e-25
-4.90867e-25
5.35723e-25
-1.8329e-25
2.32944e-25
1.27326e-25
-8.37834e-26
4.17843e-25
-3.49462e-25
6.16521e-25
-5.10912e-25
6.89934e-25
-5.43364e-25
6.23782e-25
-4.47469e-25
4.18926e-25
-2.49002e-25
1.0788e-25
-1.33721e-27
-2.65543e-25
2.44939e-25
-6.06341e-25
4.43653e-25
-8.09325e-25
5.60825e-25
-8.11339e-25
5.7045e-25
-5.81591e-25
4.56358e-25
-1.70917e-25
2.40516e-25
3.43999e-25
-5.06456e-26
8.49663e-25
-3.67611e-25
1.16198e-24
-6.63282e-25
1.23791e-24
-8.93644e-25
9.879e-25
-9.88332e-25
5.05373e-25
-9.38939e-25
-7.93838e-26
-7.18109e-25
-7.21576e-25
-3.58839e-25
-1.0999e-24
8.6199e-26
-1.29276e-24
5.60849e-25
-1.10741e-24
9.38878e-25
-6.63159e-25
1.14023e-24
-1.09098e-25
1.10961e-24
4.91131e-25
8.23312e-25
8.85286e-25
3.95739e-25
9.21166e-25
-6.67838e-26
6.40997e-25
-3.86007e-25
7.8325e-26
-4.46315e-25
-5.58953e-25
-3.28487e-25
-5.31685e-25
-6.32422e-25
-1.41569e-24
-4.13714e-22
-5.96977e-25
-5.03911e-24
1.95616e-25
-2.30163e-24
-1.41947e-25
9.39382e-25
-2.45456e-25
-4.1384e-25
-5.75493e-26
7.3514e-25
-4.17456e-26
-3.89973e-25
1.56016e-25
-3.4276e-25
3.19392e-25
-6.16534e-25
5.43837e-25
-9.16467e-25
6.97927e-25
-5.52062e-25
6.38295e-25
-5.20595e-25
4.81776e-25
3.94431e-26
1.63378e-25
5.51712e-25
-2.07723e-25
8.82022e-25
-5.62263e-25
1.19455e-24
-8.34966e-25
1.04836e-24
-8.98696e-25
7.82133e-25
-7.63251e-25
3.12442e-25
-4.34972e-25
-2.48334e-25
3.5032e-27
-6.75628e-25
4.34467e-25
-1.00362e-24
7.75564e-25
-1.0691e-24
9.34561e-25
-9.42532e-25
8.89536e-25
-6.67935e-25
6.56596e-25
-2.85037e-25
3.01268e-25
1.10568e-25
-7.60056e-26
4.9418e-25
-3.97469e-25
7.70748e-25
-5.98401e-25
8.949e-25
-6.47355e-25
8.39336e-25
-5.42624e-25
5.96888e-25
-3.12891e-25
2.0039e-25
-2.04136e-26
-2.99093e-25
2.75141e-25
-7.73567e-25
5.18451e-25
-1.07683e-24
6.67996e-25
-1.11259e-24
6.90435e-25
-8.28927e-25
5.64036e-25
-2.86572e-25
3.12597e-25
4.18491e-25
-3.39658e-26
1.12562e-24
-4.16826e-25
1.58099e-24
-7.79808e-25
1.71179e-24
-1.06778e-24
1.38389e-24
-1.19478e-24
7.2757e-25
-1.14773e-24
-9.39546e-26
-8.91372e-25
-9.94743e-25
-4.65011e-25
-1.53967e-24
7.07038e-26
-1.81663e-24
6.46342e-25
-1.5503e-24
1.11065e-24
-9.20607e-25
1.36525e-24
-1.17856e-25
1.34104e-24
7.35851e-25
1.00721e-24
1.29759e-24
4.9869e-25
1.33987e-24
-5.94759e-26
9.30784e-25
-4.50165e-25
1.15124e-25
-5.35188e-25
-7.85305e-25
-3.98461e-25
-7.72075e-25
-8.99453e-25
-1.63911e-24
-4.11976e-22
-6.97734e-25
-6.54128e-24
2.22836e-25
-2.94884e-24
-1.7306e-25
1.1388e-24
-2.89767e-25
-5.07122e-25
-7.57167e-26
9.83032e-25
-5.89721e-26
-4.97119e-25
1.6616e-25
-3.97858e-25
3.57703e-25
-7.99868e-25
6.25802e-25
-1.17242e-24
8.14602e-25
-7.29333e-25
7.56856e-25
-7.10053e-25
5.84187e-25
1.59076e-26
2.20022e-25
6.62918e-25
-2.11246e-25
1.10624e-24
-6.30997e-25
1.52123e-24
-9.60974e-25
1.34949e-24
-1.05122e-24
1.03282e-24
-9.08966e-25
4.41149e-25
-5.37793e-25
-2.63521e-25
-3.1778e-26
-8.10003e-25
4.73561e-25
-1.23749e-24
8.81003e-25
-1.33534e-24
1.08075e-24
-1.19895e-24
1.04381e-24
-8.74742e-25
7.85085e-25
-4.12878e-25
3.78631e-25
7.51391e-26
-5.97829e-26
5.63982e-25
-4.3936e-25
9.32416e-25
-6.83163e-25
1.12135e-24
-7.52283e-25
1.08671e-24
-6.41849e-25
8.10178e-25
-3.82855e-25
3.22094e-25
-4.61308e-26
-3.20312e-25
2.99658e-25
-9.51729e-25
5.89877e-25
-1.37813e-24
7.75085e-25
-1.46244e-24
8.13955e-25
-1.1257e-24
6.78479e-25
-4.37216e-25
3.93558e-25
4.87139e-25
-7.91307e-27
1.43158e-24
-4.5805e-25
2.06126e-24
-8.91613e-25
2.26499e-24
-1.24173e-24
1.85416e-24
-1.4062e-24
1.00035e-24
-1.36619e-24
-9.87558e-26
-1.07766e-24
-1.30476e-24
-5.85631e-25
-2.05228e-24
4.19326e-26
-2.4339e-24
7.22028e-25
-2.0764e-24
1.27802e-24
-1.23062e-24
1.59218e-24
-1.31457e-25
1.58009e-24
1.02475e-24
1.20272e-24
1.78975e-24
6.14128e-25
1.84413e-24
-4.21786e-26
1.28484e-24
-5.09139e-25
1.68634e-25
-6.24427e-25
-1.04575e-24
-4.71375e-25
-1.05979e-24
-1.22557e-24
-1.86466e-24
-4.10006e-22
-8.0199e-25
-8.23413e-24
2.48364e-25
-3.67819e-24
-2.06386e-25
1.33586e-24
-3.35593e-25
-6.0335e-25
-9.59701e-26
1.26715e-24
-7.97697e-26
-6.13229e-25
1.71781e-25
-4.47837e-25
3.91744e-25
-1.00646e-24
7.05552e-25
-1.45703e-24
9.32244e-25
-9.34958e-25
8.79905e-25
-9.34191e-25
6.94299e-25
-2.2314e-26
2.86359e-25
7.73125e-25
-2.04997e-25
1.34934e-24
-6.92292e-25
1.88334e-24
-1.08383e-24
1.6894e-24
-1.20584e-24
1.32333e-24
-1.06181e-24
5.98307e-25
-6.51192e-25
-2.64155e-25
-7.87495e-26
-9.45088e-25
5.02539e-25
-1.48678e-24
9.80156e-25
-1.62563e-24
1.22571e-24
-1.48518e-24
1.20192e-24
-1.1122e-24
9.21253e-25
-5.68805e-25
4.65546e-25
1.8344e-26
-3.43227e-26
6.24234e-25
-4.74269e-25
1.09877e-24
-7.64443e-25
1.36749e-24
-8.57643e-25
1.36553e-24
-7.44976e-25
1.06011e-24
-4.59089e-25
4.75792e-25
-7.90059e-26
-3.25566e-25
3.17736e-25
-1.13736e-24
6.57068e-25
-1.71106e-24
8.81276e-25
-1.86081e-24
9.4041e-25
-1.4742e-24
7.99472e-25
-6.27009e-25
4.83681e-25
5.44962e-25
2.83323e-26
1.7631e-24
-4.90006e-25
2.60036e-24
-9.97143e-25
2.89778e-24
-1.41392e-24
2.40186e-24
-1.62132e-24
1.32892e-24
-1.59365e-24
-8.80448e-26
-1.27708e-24
-1.64671e-24
-7.21654e-25
-2.63539e-24
-1.77669e-27
-3.14514e-24
7.85818e-25
-2.68913e-24
1.43889e-24
-1.59844e-24
1.81942e-24
-1.55072e-25
1.82601e-24
1.3542e-24
1.4101e-24
2.3611e-24
7.43172e-25
2.43657e-24
-1.33235e-26
1.70816e-24
-5.61473e-25
2.44155e-25
-7.13172e-25
-1.33687e-24
-5.46977e-25
-1.39527e-24
-1.61619e-24
-2.09146e-24
-4.07803e-22
-9.09686e-25
-1.01118e-23
2.72032e-25
-4.49034e-24
-2.42e-25
1.52349e-24
-3.82767e-25
-7.00409e-25
-1.18282e-25
1.58707e-24
-1.04356e-25
-7.36598e-25
1.72438e-25
-4.90161e-25
4.20838e-25
-1.23575e-24
7.82296e-25
-1.769e-24
1.05014e-24
-1.17021e-24
1.00702e-24
-1.19502e-24
8.12155e-25
-7.80958e-26
3.62949e-25
8.78744e-25
-1.87975e-25
1.60892e-24
-7.44906e-25
2.27925e-24
-1.20233e-24
2.06829e-24
-1.36169e-24
1.65539e-24
-1.22149e-24
7.86612e-25
-7.75519e-25
-2.46784e-25
-1.38333e-25
-1.07773e-24
5.20147e-25
-1.74888e-24
1.07173e-24
-1.93837e-24
1.3684e-24
-1.80083e-24
1.36331e-24
-1.38105e-24
1.06508e-24
-7.54703e-25
5.6249e-25
-6.25075e-26
1.18164e-27
6.71786e-25
-5.01273e-25
1.2668e-24
-8.41406e-25
1.63115e-24
-9.62848e-25
1.67507e-24
-8.51767e-25
1.34779e-24
-5.41744e-25
6.64241e-25
-1.19551e-25
-3.1102e-25
3.28593e-25
-1.32659e-24
7.19101e-25
-2.07296e-24
9.85667e-25
-2.30718e-24
1.06911e-24
-1.87649e-24
9.26723e-25
-8.60233e-25
5.83211e-25
5.86529e-25
7.55982e-26
2.11506e-24
-5.11357e-25
3.19508e-24
-1.09474e-24
3.60987e-24
-1.58264e-24
3.02995e-24
-1.83875e-24
1.71874e-24
-1.8293e-24
-5.54385e-26
-1.48968e-24
-2.01478e-24
-8.74027e-25
-3.28576e-24
-6.21475e-26
-3.95033e-24
8.35498e-25
-3.39182e-24
1.59104e-24
-2.02969e-24
2.0452e-24
-1.94642e-25
2.07788e-24
1.71965e-24
1.62952e-24
3.0102e-24
8.86923e-25
3.11946e-24
2.87189e-26
2.20598e-24
-6.05606e-25
3.47658e-25
-8.00459e-25
-1.65444e-24
-6.24942e-25
-1.77852e-24
-2.07691e-24
-2.31885e-24
-4.05368e-22
-1.02069e-24
-1.2167e-23
2.93684e-25
-5.3857e-24
-2.79988e-25
1.69427e-24
-4.31101e-25
-7.9609e-25
-1.42605e-25
1.94206e-24
-1.32937e-25
-8.65321e-25
1.67697e-25
-5.22125e-25
4.44271e-25
-1.48701e-24
8.55181e-25
-2.10672e-24
1.16749e-24
-1.43628e-24
1.13769e-24
-1.49448e-24
9.37725e-25
-1.54453e-25
4.50309e-25
9.75907e-25
-1.59159e-25
1.88225e-24
-7.87528e-25
2.70694e-24
-1.31516e-24
2.4861e-24
-1.51777e-24
2.03063e-24
-1.38759e-24
1.00877e-24
-9.11049e-25
-2.07825e-25
-2.11432e-25
-1.20459e-24
5.25082e-25
-2.02092e-24
1.15434e-24
-2.27172e-24
1.50766e-24
-2.14529e-24
1.52729e-24
-1.6818e-24
1.21647e-24
-9.72317e-25
6.69893e-25
-1.70072e-25
4.7537e-26
7.03373e-25
-5.19407e-25
1.43324e-24
-9.13144e-25
1.90984e-24
-1.06722e-24
2.01427e-24
-9.61905e-25
1.67402e-24
-6.30916e-25
8.90124e-25
-1.68257e-25
-2.72668e-25
3.31423e-25
-1.51515e-24
7.74993e-25
-2.46064e-24
1.08727e-24
-2.80058e-24
1.19926e-24
-2.33442e-24
1.05985e-24
-1.14125e-24
6.9233e-25
6.05982e-25
1.34697e-25
2.48163e-24
-5.20724e-25
3.84151e-24
-1.18264e-24
4.40034e-24
-1.74604e-24
3.74114e-24
-2.05691e-24
2.17546e-24
-2.07219e-24
6.07309e-27
-1.71539e-24
-2.40227e-24
-1.04365e-24
-3.99931e-24
-1.40941e-25
-4.84876e-24
8.68738e-25
-4.18761e-24
1.73203e-24
-2.53034e-24
2.26754e-24
-2.56896e-25
2.3346e-24
2.11559e-24
1.86102e-24
3.7348e-24
1.04645e-24
3.89472e-24
8.56328e-26
2.78372e-24
-6.39869e-25
4.85796e-25
-8.85206e-25
-1.99333e-24
-7.04859e-25
-2.20909e-24
-2.61344e-24
-2.54627e-24
-4.02704e-22
-1.13486e-24
-1.43917e-23
3.1318e-25
-6.36445e-24
-3.20438e-25
1.84041e-24
-4.80383e-25
-8.88118e-25
-1.68862e-25
2.33104e-24
-1.65699e-25
-9.97287e-25
1.57133e-25
-5.40875e-25
4.61303e-25
-1.75928e-24
9.23295e-25
-2.46827e-24
1.28341e-24
-1.73424e-24
1.27131e-24
-1.83441e-24
1.07089e-24
-2.54521e-25
5.48903e-25
1.06048e-24
-1.17534e-25
2.1663e-24
-8.18788e-25
3.16403e-24
-1.42089e-24
2.94253e-24
-1.67295e-24
2.45048e-24
-1.55957e-24
1.26746e-24
-1.05795e-24
-1.43588e-25
-2.98908e-25
-1.32214e-24
5.16019e-25
-2.29977e-24
1.22652e-24
-2.62356e-24
1.64221e-24
-2.51767e-24
1.69305e-24
-2.01475e-24
1.37519e-24
-1.22322e-24
7.88117e-25
-3.06936e-25
1.05536e-25
7.15639e-25
-5.27674e-25
1.59456e-24
-9.78679e-25
2.20068e-24
-1.17002e-24
2.38164e-24
-1.07499e-24
2.03932e-24
-7.26641e-25
1.156e-24
-2.25588e-25
-2.06355e-25
3.25414e-25
-1.69838e-24
8.23711e-25
-2.87039e-24
1.18501e-24
-3.33951e-24
1.32996e-24
-2.84951e-24
1.19837e-24
-1.47444e-24
8.11135e-25
5.97058e-25
2.06401e-25
2.8563e-24
-5.16705e-25
4.53488e-24
-1.25899e-24
5.26762e-24
-1.90213e-24
4.53781e-24
-2.27405e-24
2.70488e-24
-2.32119e-24
1.04099e-25
-1.954e-24
-2.80157e-24
-1.23136e-24
-4.77096e-24
-2.39932e-25
-5.83905e-24
8.8311e-25
-5.07941e-24
1.8593e-24
-3.10669e-24
2.48426e-24
-3.4935e-25
2.59489e-24
2.53546e-24
2.10454e-24
4.53173e-24
1.22278e-24
4.76377e-24
1.59145e-25
3.44701e-24
-6.62479e-25
6.65908e-25
-9.66197e-25
-2.34751e-24
-7.86218e-25
-2.68598e-24
-3.23156e-24
-2.77315e-24
-3.99814e-22
-1.25207e-24
-1.67763e-23
3.3039e-25
-7.42654e-24
-3.63449e-25
1.95384e-24
-5.30373e-25
-9.74184e-25
-1.96948e-25
2.75254e-24
-2.02801e-25
-1.13019e-24
1.40348e-25
-5.43425e-25
4.71173e-25
-2.05135e-24
9.85671e-25
-2.85135e-24
1.39692e-24
-2.065e-24
1.40713e-24
-2.21649e-24
1.21144e-24
-3.81533e-25
6.59116e-25
1.12807e-24
-6.21046e-26
2.45769e-24
-8.37274e-25
3.64772e-24
-1.518e-24
3.43698e-24
-1.82596e-24
2.91619e-24
-1.73671e-24
1.5653e-24
-1.21629e-24
-5.03026e-26
-4.01564e-25
-1.42667e-24
4.91618e-25
-2.58206e-24
1.28672e-24
-2.9915e-24
1.77066e-24
-2.91678e-24
1.85964e-24
-2.37987e-24
1.54091e-24
-1.50876e-24
9.17446e-25
-4.75577e-25
1.75943e-25
7.05166e-25
-5.25051e-25
1.747e-24
-1.03697e-24
2.50042e-24
-1.27038e-24
2.77526e-24
-1.19054e-24
2.44382e-24
-8.28878e-25
1.46425e-24
-2.91957e-25
-1.07825e-25
3.09757e-25
-1.87122e-24
8.64184e-25
-3.29791e-24
1.27773e-24
-3.92192e-24
1.46021e-24
-3.42293e-24
1.34167e-24
-1.86414e-24
9.39618e-25
5.53138e-25
2.91421e-25
3.23185e-24
-4.97898e-25
5.26959e-24
-1.32188e-24
6.20934e-24
-2.04875e-24
5.42195e-24
-2.48823e-24
3.31286e-24
-2.57497e-24
2.4681e-25
-2.20513e-24
-3.20413e-24
-1.43787e-24
-5.59466e-24
-3.60875e-25
-6.91895e-24
8.76103e-25
-6.06981e-24
1.97009e-24
-3.76528e-24
2.69297e-24
-4.80302e-25
2.85725e-24
2.97165e-24
2.35979e-24
5.39683e-24
1.41684e-24
5.72748e-24
2.51011e-25
4.20151e-24
-6.71547e-25
8.96009e-25
-1.04207e-24
-2.70995e-24
-8.68396e-25
-3.20758e-24
-3.937e-24
-2.99891e-24
-3.96702e-22
-1.37216e-24
-1.93101e-23
3.45202e-25
-8.57171e-24
-4.09122e-25
2.02625e-24
-5.80805e-25
-1.05198e-24
-2.26722e-25
3.20469e-24
-2.44369e-25
-1.2615e-24
1.16976e-25
-5.26683e-25
4.73111e-25
-2.36179e-24
1.0413e-24
-3.25336e-24
1.50697e-24
-2.42932e-24
1.54432e-24
-2.64224e-24
1.35902e-24
-5.38787e-25
7.81237e-25
1.17406e-24
8.08409e-27
2.75271e-24
-8.41545e-25
4.15479e-24
-1.60487e-24
3.96853e-24
-1.97536e-24
3.42873e-24
-1.91817e-24
1.90482e-24
-1.38597e-24
7.58455e-26
-5.20117e-25
-1.51435e-24
4.50552e-25
-2.86414e-24
1.33333e-24
-3.37285e-24
1.89148e-24
-3.34113e-24
2.02596e-24
-2.77687e-24
1.71315e-24
-1.83003e-24
1.05807e-24
-6.78319e-25
2.59477e-25
6.68516e-25
-5.10507e-25
1.88659e-24
-1.08693e-24
2.80542e-24
-1.36738e-24
3.19277e-24
-1.30796e-24
2.88724e-24
-9.37498e-25
1.81702e-24
-3.67722e-25
2.72343e-26
2.83664e-25
-2.02827e-24
8.95307e-25
-3.73835e-24
1.3642e-24
-4.54514e-24
1.58888e-24
-4.05537e-24
1.489e-24
-2.31459e-24
1.07764e-24
4.67289e-25
3.90378e-25
3.6004e-24
-4.62925e-25
6.03918e-24
-1.36932e-24
7.22233e-24
-2.18364e-24
6.39503e-24
-2.69733e-24
4.00523e-24
-2.83198e-24
4.42892e-25
-2.46819e-24
-3.60049e-24
-1.66377e-24
-6.46329e-24
-5.05478e-25
-8.08537e-24
8.4515e-25
-7.16101e-24
2.06148e-24
-4.51287e-24
2.89105e-24
-6.58815e-25
3.11992e-24
3.41548e-24
2.62631e-24
6.32488e-24
1.62945e-24
6.78608e-24
3.6299e-25
5.05293e-24
-6.65077e-25
1.18477e-24
-1.11133e-24
-3.07262e-24
-9.50645e-25
-3.77162e-24
-4.73534e-24
-3.223e-24
-3.93371e-22
-1.49497e-24
-2.19813e-23
3.57516e-25
-9.79947e-24
-4.57567e-25
2.0492e-24
-6.3138e-25
-1.11923e-24
-2.58008e-25
3.68516e-24
-2.90488e-25
-1.38851e-24
8.67002e-26
-4.87481e-25
4.66348e-25
-2.68891e-24
1.08912e-24
-3.67128e-24
1.61239e-24
-2.82773e-24
1.6819e-24
-3.11292e-24
1.51316e-24
-7.2962e-25
9.15437e-25
1.19364e-24
9.39231e-26
3.04731e-24
-8.30147e-25
4.6816e-24
-1.67977e-24
4.53591e-24
-2.11958e-24
3.9888e-24
-2.10291e-24
2.2884e-24
-1.56674e-24
2.3868e-25
-6.55177e-25
-1.58122e-24
3.91523e-25
-3.14217e-24
1.36467e-24
-3.76465e-24
2.00304e-24
-3.78889e-24
2.19076e-24
-3.2051e-24
1.8913e-24
-2.18784e-24
1.21005e-24
-9.17279e-25
3.56797e-25
6.02274e-25
-4.83015e-25
2.00916e-24
-1.1274e-24
3.11166e-24
-1.46e-24
3.63128e-24
-1.42657e-24
3.36885e-24
-1.05228e-24
2.21616e-24
-4.53166e-25
2.03132e-25
2.46378e-25
-2.1638e-24
9.15961e-25
-4.18627e-24
1.44311e-24
-5.20582e-24
1.71473e-24
-4.74702e-24
1.63947e-24
-2.82979e-24
1.22493e-24
3.3234e-25
5.03779e-25
3.95338e-24
-4.10461e-25
6.83625e-24
-1.39931e-24
8.30253e-24
-2.3044e-24
7.45796e-24
-2.89901e-24
4.78772e-24
-3.09043e-24
7.01482e-25
-2.74236e-24
-3.98029e-24
-1.90944e-24
-7.36865e-24
-6.75361e-25
-9.33423e-24
7.87653e-25
-8.3547e-24
2.13043e-24
-5.35631e-24
3.07563e-24
-8.9469e-25
3.38089e-24
3.85709e-24
2.90341e-24
7.30947e-24
1.86129e-24
7.939e-24
4.96826e-25
6.00688e-24
-6.40982e-25
1.54149e-24
-1.17228e-24
-3.42638e-24
-1.03208e-24
-4.37505e-24
-5.6319e-24
-3.44487e-24
-3.89828e-22
-1.62031e-24
-2.47768e-23
3.67249e-25
-1.11091e-23
-5.089e-25
2.01418e-24
-6.8177e-25
-1.17375e-24
-2.90591e-25
4.19115e-24
-3.41193e-25
-1.50831e-24
4.92618e-26
-4.22615e-25
4.50126e-25
-3.03075e-24
1.12806e-24
-4.10172e-24
1.71195e-24
-3.26052e-24
1.81876e-24
-3.62953e-24
1.67325e-24
-9.57366e-25
1.06175e-24
1.18181e-24
1.96217e-25
3.33713e-24
-8.01639e-25
5.22404e-24
-1.74092e-24
5.13743e-24
-2.25688e-24
4.59676e-24
-2.28969e-24
2.71826e-24
-1.75817e-24
4.4199e-25
-8.07218e-25
-1.62323e-24
3.13284e-25
-3.41207e-24
1.37906e-24
-4.16368e-24
2.10357e-24
-4.25787e-24
2.35264e-24
-3.66353e-24
2.07457e-24
-2.58262e-24
1.37334e-24
-1.19432e-24
4.68482e-25
5.03099e-25
-4.4156e-25
2.11041e-24
-1.15721e-24
3.41476e-24
-1.54715e-24
4.08741e-24
-1.54558e-24
3.88735e-24
-1.17288e-24
2.66313e-24
-5.48485e-25
4.24107e-25
1.97193e-25
-2.27176e-24
9.25022e-25
-4.63564e-24
1.51309e-24
-5.89992e-24
1.83638e-24
-5.49745e-24
1.79203e-24
-3.4135e-24
1.38103e-24
1.40949e-25
6.31988e-25
4.28162e-24
-3.3926e-25
7.6525e-24
-1.40982e-24
9.4449e-24
-2.40853e-24
8.61093e-24
-3.09074e-24
5.66585e-24
-3.34828e-24
1.0321e-24
-3.02657e-24
-4.33228e-24
-2.17506e-24
-8.30142e-24
-8.72018e-25
-1.06604e-23
7.01018e-25
-9.65195e-24
2.17375e-24
-6.30247e-24
3.24362e-24
-1.19842e-24
3.63785e-24
4.28551e-24
3.1901e-24
8.34297e-24
2.11286e-24
9.1848e-24
6.5421e-25
7.06875e-24
-5.97091e-25
1.97603e-24
-1.22312e-24
-3.76101e-24
-1.11165e-24
-5.01397e-24
-6.63156e-24
-3.66403e-24
-3.86078e-22
-1.74799e-24
-2.76825e-23
3.74328e-25
-1.24998e-23
-5.63247e-25
1.91271e-24
-7.31612e-25
-1.21349e-24
-3.24216e-25
4.71933e-24
-3.96463e-25
-1.6178e-24
4.47338e-27
-3.28883e-25
4.2371e-25
-3.38506e-24
1.15702e-24
-4.54091e-24
1.80432e-24
-3.72771e-24
1.95366e-24
-4.19272e-24
1.8385e-24
-1.22532e-24
1.22004e-24
1.13348e-24
3.1566e-25
3.61748e-24
-7.5461e-25
5.77753e-24
-1.78647e-24
5.77104e-24
-2.38539e-24
5.25257e-24
-2.47709e-24
3.19639e-24
-1.95962e-24
6.89486e-25
-9.76556e-25
-1.63627e-24
2.14672e-25
-3.66956e-24
1.37477e-24
-4.56642e-24
2.19123e-24
-4.74557e-24
2.51004e-24
-4.15077e-24
2.26199e-24
-3.01446e-24
1.54772e-24
-1.511e-24
5.95013e-25
3.67783e-25
-3.85166e-25
2.18594e-24
-1.17512e-24
3.70999e-24
-1.62764e-24
4.55725e-24
-1.66407e-24
4.44091e-24
-1.29886e-24
3.15896e-24
-6.5377e-25
6.9425e-25
1.35469e-25
-2.34591e-24
9.21378e-25
-5.07985e-24
1.57273e-24
-6.62265e-24
1.95236e-24
-6.30555e-24
1.94545e-24
-4.06903e-24
1.54529e-24
-1.14298e-25
7.75195e-25
4.57537e-24
-2.48193e-25
8.47868e-24
-1.39886e-24
1.06434e-23
-2.49342e-24
9.85332e-24
-3.26981e-24
6.6448e-24
-3.60322e-24
1.44453e-24
-3.31944e-24
-4.6444e-24
-2.46055e-24
-9.25108e-24
-1.09677e-24
-1.20576e-23
5.82693e-25
-1.10531e-23
2.18817e-24
-7.35814e-24
3.39171e-24
-1.58113e-24
3.8882e-24
4.68859e-24
3.48511e-24
9.4164e-24
2.38441e-24
1.0521e-23
8.36755e-25
8.2436e-24
-5.3117e-25
2.49876e-24
-1.26182e-24
-4.06518e-24
-1.18816e-24
-5.68358e-24
-7.73862e-24
-3.87998e-24
-3.82129e-22
-1.87777e-24
-3.06831e-23
3.78695e-25
-1.39704e-23
-6.20739e-25
1.73645e-24
-7.80511e-25
-1.23655e-24
-3.58594e-25
5.26583e-24
-4.56214e-25
-1.7137e-24
-4.77679e-26
-2.03139e-25
3.86404e-25
-3.74933e-24
1.1749e-24
-4.98469e-24
1.88812e-24
-4.22901e-24
2.0852e-24
-4.80277e-24
2.00795e-24
-1.53669e-24
1.39e-24
1.04345e-24
4.52804e-25
3.8834e-24
-6.87707e-25
6.33707e-24
-1.8145e-24
6.43422e-24
-2.50307e-24
5.95578e-24
-2.66346e-24
3.72449e-24
-2.17021e-24
9.84751e-25
-1.16331e-24
-1.61622e-24
9.4626e-26
-3.91021e-24
1.35009e-24
-4.96914e-24
2.26406e-24
-5.24912e-24
2.66123e-24
-4.66502e-24
2.45243e-24
-3.483e-24
1.73281e-24
-1.8685e-24
7.36751e-25
1.93314e-25
-3.12903e-25
2.23129e-24
-1.17992e-24
3.99229e-24
-1.70022e-24
5.03636e-24
-1.78102e-24
5.02707e-24
-1.42963e-24
3.70416e-24
-7.68994e-25
1.01742e-24
6.06525e-26
-2.37984e-24
9.03949e-25
-5.51177e-24
1.62055e-24
-7.36843e-24
2.06108e-24
-7.16943e-24
2.09835e-24
-4.79923e-24
1.71688e-24
-4.40785e-25
9.33388e-25
4.82438e-24
-1.36282e-25
9.30462e-24
-1.36449e-24
1.18908e-23
-2.55644e-24
1.11836e-23
-3.43331e-24
7.72927e-24
-3.85266e-24
1.94877e-24
-3.61927e-24
-4.90376e-24
-2.76551e-24
-1.0206e-23
-1.35071e-24
-1.35183e-23
4.30218e-25
-1.25577e-23
2.17031e-24
-8.52988e-24
3.51634e-24
-2.05451e-24
4.12901e-24
5.05303e-24
3.78681e-24
1.05193e-23
2.67596e-24
1.19439e-23
1.04595e-24
9.53599e-24
-4.40944e-25
3.12044e-24
-1.28623e-24
-4.32641e-24
-1.26022e-24
-6.378e-24
-8.95659e-24
-4.09225e-24
-3.77987e-22
-2.00941e-24
-3.37621e-23
3.80302e-25
-1.55197e-23
-6.81521e-25
1.47732e-24
-8.2804e-25
-1.24128e-24
-3.93395e-25
5.82622e-24
-5.20285e-25
-1.79258e-24
-1.07468e-25
-4.23445e-26
3.37564e-25
-4.12075e-24
1.18062e-24
-5.4285e-24
1.96187e-24
-4.76378e-24
2.21187e-24
-5.45953e-24
2.18045e-24
-1.89454e-24
1.57109e-24
9.06527e-25
6.08037e-25
4.12961e-24
-5.99668e-25
6.89716e-24
-1.82309e-24
7.12399e-24
-2.60776e-24
6.70545e-24
-2.84696e-24
4.30397e-24
-2.38883e-24
1.33119e-24
-1.3674e-24
-1.55901e-24
-4.77729e-26
-4.12948e-24
1.30333e-24
-5.36785e-24
2.32003e-24
-5.76529e-24
2.80432e-24
-5.20404e-24
2.64454e-24
-3.98743e-24
1.92804e-24
-2.26758e-24
8.9392e-25
-2.30554e-26
-2.23912e-25
2.24205e-24
-1.17034e-24
4.25635e-24
-1.76355e-24
5.51976e-24
-1.8953e-24
5.6427e-24
-1.56448e-24
4.29864e-24
-8.93996e-25
1.39715e-24
-2.77064e-26
-2.36703e-24
8.71706e-25
-5.92373e-24
1.65508e-24
-8.1309e-24
2.16083e-24
-8.08638e-24
2.24915e-24
-5.6063e-24
1.89472e-24
-8.45747e-25
1.10632e-24
5.01801e-24
-2.73922e-27
1.01193e-23
-1.30486e-24
1.31789e-23
-2.59489e-24
1.25993e-23
-3.57817e-24
8.92337e-24
-4.09373e-24
2.55483e-24
-3.924e-24
-5.09682e-24
-3.08919e-24
-1.11532e-23
-1.63466e-24
-1.50337e-23
2.41268e-25
-1.41643e-23
2.1168e-24
-9.82388e-24
3.61376e-24
-2.63067e-24
4.35701e-24
5.36441e-24
4.0932e-24
1.16399e-23
2.98717e-24
1.34485e-23
1.28311e-24
1.09498e-23
-3.24126e-25
3.85213e-24
-1.29401e-24
-4.53115e-24
-1.32628e-24
-7.0903e-24
-1.02879e-23
-4.3004e-24
-3.73661e-22
-2.14262e-24
-3.69025e-23
3.7911e-25
-1.71464e-23
-7.45748e-25
1.12762e-24
-8.7374e-25
-1.22633e-24
-4.28258e-25
6.39544e-24
-5.8844e-25
-1.85086e-24
-1.74522e-25
1.56369e-25
2.76617e-25
-4.49624e-24
1.17311e-24
-5.86741e-24
2.02406e-24
-5.33104e-24
2.33199e-24
-6.16235e-24
2.35467e-24
-2.30177e-24
1.76258e-24
7.17533e-25
7.81548e-25
4.35065e-24
-4.89349e-25
7.45189e-24
-1.81033e-24
7.83692e-24
-2.69718e-24
7.50015e-24
-3.02549e-24
4.93587e-24
-2.6141e-24
1.73198e-24
-1.58847e-24
-1.46059e-24
-2.13275e-25
-4.32271e-24
1.23286e-24
-5.75841e-24
2.35704e-24
-6.29057e-24
2.93727e-24
-5.76521e-24
2.83675e-24
-4.52644e-24
2.13264e-24
-2.70853e-24
1.06658e-24
-2.83737e-25
-1.17427e-25
2.21387e-24
-1.14518e-24
4.49661e-24
-1.81626e-24
6.00195e-24
-2.00567e-24
6.28398e-24
-1.70253e-24
4.94161e-24
-1.02846e-24
1.83654e-24
-1.29931e-25
-2.301e-24
8.23693e-25
-6.30764e-24
1.67484e-24
-8.90287e-24
2.24984e-24
-9.05273e-24
2.39612e-24
-6.49172e-24
2.07749e-24
-1.33613e-24
1.29349e-24
5.14528e-24
1.52991e-25
1.09107e-23