/*--------------------------------*- C++ -*----------------------------------*\
| =========                 |                                                 |
| \\      /  F ield         | foam-extend: Open Source CFD                    |
|  \\    /   O peration     | Version:     4.0                                |
|   \\  /    A nd           | Web:         http://www.foam-extend.org         |
|    \\/     M anipulation  |                                                 |
\*---------------------------------------------------------------------------*/
FoamFile
{
    version     2.0;
    format      ascii;
    class       volScalarField;
    location    "1660";
    object      cMinus;
}
// * * * * * * * * * * * * * * * * * * * * * * * * * * * * * * * * * * * * * //

dimensions      [0 0 0 0 0 0 0];

internalField   nonuniform List<scalar> 
6960
(
8.23358e-24
8.23508e-24
8.23557e-24
8.23581e-24
8.23598e-24
8.23614e-24
8.23631e-24
8.23647e-24
8.23664e-24
8.23682e-24
8.23699e-24
8.23717e-24
8.23735e-24
8.23752e-24
8.23769e-24
8.23785e-24
8.23801e-24
8.23816e-24
8.2383e-24
8.23843e-24
8.23855e-24
8.23866e-24
8.23875e-24
8.23884e-24
8.23891e-24
8.23898e-24
8.23903e-24
8.23906e-24
8.23909e-24
8.2391e-24
8.2391e-24
8.23909e-24
8.23906e-24
8.23903e-24
8.23898e-24
8.23891e-24
8.23884e-24
8.23875e-24
8.23866e-24
8.23855e-24
8.23843e-24
8.2383e-24
8.23816e-24
8.23801e-24
8.23785e-24
8.23769e-24
8.23752e-24
8.23735e-24
8.23717e-24
8.23699e-24
8.23682e-24
8.23664e-24
8.23647e-24
8.23631e-24
8.23614e-24
8.23598e-24
8.23581e-24
8.23557e-24
8.23508e-24
8.23358e-24
2.27515e-23
2.27559e-23
2.27575e-23
2.27584e-23
2.27591e-23
2.27598e-23
2.27605e-23
2.27612e-23
2.27618e-23
2.27625e-23
2.27632e-23
2.27638e-23
2.27645e-23
2.27651e-23
2.27657e-23
2.27663e-23
2.27669e-23
2.27674e-23
2.27679e-23
2.27683e-23
2.27687e-23
2.27691e-23
2.27694e-23
2.27697e-23
2.277e-23
2.27702e-23
2.27704e-23
2.27705e-23
2.27706e-23
2.27706e-23
2.27706e-23
2.27706e-23
2.27705e-23
2.27704e-23
2.27702e-23
2.277e-23
2.27697e-23
2.27694e-23
2.27691e-23
2.27687e-23
2.27683e-23
2.27679e-23
2.27674e-23
2.27669e-23
2.27663e-23
2.27657e-23
2.27651e-23
2.27645e-23
2.27638e-23
2.27632e-23
2.27625e-23
2.27618e-23
2.27612e-23
2.27605e-23
2.27598e-23
2.27591e-23
2.27584e-23
2.27575e-23
2.27559e-23
2.27515e-23
5.4529e-23
5.45401e-23
5.45446e-23
5.45474e-23
5.45499e-23
5.45522e-23
5.45545e-23
5.45568e-23
5.4559e-23
5.45612e-23
5.45634e-23
5.45655e-23
5.45675e-23
5.45694e-23
5.45713e-23
5.45731e-23
5.45747e-23
5.45763e-23
5.45777e-23
5.45791e-23
5.45803e-23
5.45814e-23
5.45824e-23
5.45833e-23
5.4584e-23
5.45846e-23
5.45851e-23
5.45855e-23
5.45857e-23
5.45858e-23
5.45858e-23
5.45857e-23
5.45855e-23
5.45851e-23
5.45846e-23
5.4584e-23
5.45833e-23
5.45824e-23
5.45814e-23
5.45803e-23
5.45791e-23
5.45777e-23
5.45763e-23
5.45747e-23
5.45731e-23
5.45713e-23
5.45694e-23
5.45675e-23
5.45655e-23
5.45634e-23
5.45612e-23
5.4559e-23
5.45568e-23
5.45545e-23
5.45522e-23
5.45499e-23
5.45474e-23
5.45446e-23
5.45401e-23
5.4529e-23
1.24579e-22
1.24606e-22
1.24618e-22
1.24626e-22
1.24634e-22
1.24641e-22
1.24648e-22
1.24655e-22
1.24662e-22
1.24668e-22
1.24674e-22
1.24681e-22
1.24686e-22
1.24692e-22
1.24697e-22
1.24702e-22
1.24707e-22
1.24712e-22
1.24716e-22
1.24719e-22
1.24723e-22
1.24726e-22
1.24729e-22
1.24731e-22
1.24733e-22
1.24735e-22
1.24736e-22
1.24737e-22
1.24738e-22
1.24738e-22
1.24738e-22
1.24738e-22
1.24737e-22
1.24736e-22
1.24735e-22
1.24733e-22
1.24731e-22
1.24729e-22
1.24726e-22
1.24723e-22
1.24719e-22
1.24716e-22
1.24712e-22
1.24707e-22
1.24702e-22
1.24697e-22
1.24692e-22
1.24686e-22
1.24681e-22
1.24674e-22
1.24668e-22
1.24662e-22
1.24655e-22
1.24648e-22
1.24641e-22
1.24634e-22
1.24626e-22
1.24618e-22
1.24606e-22
1.24579e-22
2.81656e-22
2.81719e-22
2.81751e-22
2.81775e-22
2.81797e-22
2.81818e-22
2.81839e-22
2.81858e-22
2.81878e-22
2.81896e-22
2.81914e-22
2.81932e-22
2.81948e-22
2.81964e-22
2.81978e-22
2.81992e-22
2.82005e-22
2.82017e-22
2.82028e-22
2.82038e-22
2.82047e-22
2.82056e-22
2.82063e-22
2.8207e-22
2.82075e-22
2.8208e-22
2.82083e-22
2.82086e-22
2.82088e-22
2.82089e-22
2.82089e-22
2.82088e-22
2.82086e-22
2.82083e-22
2.8208e-22
2.82075e-22
2.8207e-22
2.82063e-22
2.82056e-22
2.82047e-22
2.82038e-22
2.82028e-22
2.82017e-22
2.82005e-22
2.81992e-22
2.81978e-22
2.81964e-22
2.81948e-22
2.81932e-22
2.81914e-22
2.81896e-22
2.81878e-22
2.81858e-22
2.81839e-22
2.81818e-22
2.81797e-22
2.81775e-22
2.81751e-22
2.81719e-22
2.81656e-22
6.40847e-22
6.40998e-22
6.41081e-22
6.41148e-22
6.4121e-22
6.4127e-22
6.41328e-22
6.41384e-22
6.41438e-22
6.41489e-22
6.41539e-22
6.41586e-22
6.41631e-22
6.41674e-22
6.41714e-22
6.41752e-22
6.41787e-22
6.41819e-22
6.41849e-22
6.41876e-22
6.41901e-22
6.41923e-22
6.41943e-22
6.4196e-22
6.41974e-22
6.41987e-22
6.41996e-22
6.42004e-22
6.42008e-22
6.42011e-22
6.42011e-22
6.42008e-22
6.42004e-22
6.41996e-22
6.41987e-22
6.41974e-22
6.4196e-22
6.41943e-22
6.41923e-22
6.41901e-22
6.41876e-22
6.41849e-22
6.41819e-22
6.41787e-22
6.41752e-22
6.41714e-22
6.41674e-22
6.41631e-22
6.41586e-22
6.41539e-22
6.41489e-22
6.41438e-22
6.41384e-22
6.41328e-22
6.4127e-22
6.4121e-22
6.41148e-22
6.41081e-22
6.40998e-22
6.40847e-22
1.47915e-21
1.47952e-21
1.47974e-21
1.47992e-21
1.4801e-21
1.48026e-21
1.48042e-21
1.48058e-21
1.48073e-21
1.48087e-21
1.48101e-21
1.48113e-21
1.48126e-21
1.48137e-21
1.48148e-21
1.48158e-21
1.48168e-21
1.48176e-21
1.48184e-21
1.48192e-21
1.48198e-21
1.48204e-21
1.48209e-21
1.48214e-21
1.48218e-21
1.48221e-21
1.48224e-21
1.48226e-21
1.48227e-21
1.48228e-21
1.48228e-21
1.48227e-21
1.48226e-21
1.48224e-21
1.48221e-21
1.48218e-21
1.48214e-21
1.48209e-21
1.48204e-21
1.48198e-21
1.48192e-21
1.48184e-21
1.48176e-21
1.48168e-21
1.48158e-21
1.48148e-21
1.48137e-21
1.48126e-21
1.48113e-21
1.48101e-21
1.48087e-21
1.48073e-21
1.48058e-21
1.48042e-21
1.48026e-21
1.4801e-21
1.47992e-21
1.47974e-21
1.47952e-21
1.47915e-21
3.4769e-21
3.47781e-21
3.47838e-21
3.47889e-21
3.47936e-21
3.47982e-21
3.48027e-21
3.48069e-21
3.4811e-21
3.48149e-21
3.48186e-21
3.48221e-21
3.48255e-21
3.48286e-21
3.48315e-21
3.48343e-21
3.48368e-21
3.48392e-21
3.48413e-21
3.48433e-21
3.48451e-21
3.48467e-21
3.48481e-21
3.48493e-21
3.48503e-21
3.48512e-21
3.48519e-21
3.48524e-21
3.48528e-21
3.48529e-21
3.48529e-21
3.48528e-21
3.48524e-21
3.48519e-21
3.48512e-21
3.48503e-21
3.48493e-21
3.48481e-21
3.48467e-21
3.48451e-21
3.48433e-21
3.48413e-21
3.48392e-21
3.48368e-21
3.48343e-21
3.48315e-21
3.48286e-21
3.48255e-21
3.48221e-21
3.48186e-21
3.48149e-21
3.4811e-21
3.48069e-21
3.48027e-21
3.47982e-21
3.47936e-21
3.47889e-21
3.47838e-21
3.47781e-21
3.4769e-21
8.33971e-21
8.342e-21
8.34355e-21
8.34493e-21
8.34625e-21
8.34752e-21
8.34875e-21
8.34992e-21
8.35105e-21
8.35212e-21
8.35314e-21
8.35411e-21
8.35502e-21
8.35587e-21
8.35667e-21
8.35742e-21
8.35811e-21
8.35875e-21
8.35934e-21
8.35987e-21
8.36035e-21
8.36078e-21
8.36116e-21
8.36149e-21
8.36177e-21
8.36201e-21
8.3622e-21
8.36234e-21
8.36243e-21
8.36247e-21
8.36247e-21
8.36243e-21
8.36234e-21
8.3622e-21
8.36201e-21
8.36177e-21
8.36149e-21
8.36116e-21
8.36078e-21
8.36035e-21
8.35987e-21
8.35934e-21
8.35875e-21
8.35811e-21
8.35742e-21
8.35667e-21
8.35587e-21
8.35502e-21
8.35411e-21
8.35314e-21
8.35212e-21
8.35105e-21
8.34992e-21
8.34875e-21
8.34752e-21
8.34625e-21
8.34493e-21
8.34355e-21
8.342e-21
8.33971e-21
2.04343e-20
2.04402e-20
2.04444e-20
2.04482e-20
2.04519e-20
2.04555e-20
2.04589e-20
2.04621e-20
2.04653e-20
2.04682e-20
2.04711e-20
2.04737e-20
2.04762e-20
2.04786e-20
2.04808e-20
2.04829e-20
2.04848e-20
2.04865e-20
2.04881e-20
2.04896e-20
2.04909e-20
2.04921e-20
2.04931e-20
2.0494e-20
2.04948e-20
2.04954e-20
2.04959e-20
2.04963e-20
2.04966e-20
2.04967e-20
2.04967e-20
2.04966e-20
2.04963e-20
2.04959e-20
2.04954e-20
2.04948e-20
2.0494e-20
2.04931e-20
2.04921e-20
2.04909e-20
2.04896e-20
2.04881e-20
2.04865e-20
2.04848e-20
2.04829e-20
2.04808e-20
2.04786e-20
2.04762e-20
2.04737e-20
2.04711e-20
2.04682e-20
2.04653e-20
2.04621e-20
2.04589e-20
2.04555e-20
2.04519e-20
2.04482e-20
2.04444e-20
2.04402e-20
2.04343e-20
5.11801e-20
5.11956e-20
5.12072e-20
5.12178e-20
5.12282e-20
5.12381e-20
5.12477e-20
5.12569e-20
5.12657e-20
5.1274e-20
5.12819e-20
5.12894e-20
5.12964e-20
5.1303e-20
5.13091e-20
5.13148e-20
5.13201e-20
5.1325e-20
5.13295e-20
5.13335e-20
5.13372e-20
5.13404e-20
5.13433e-20
5.13458e-20
5.1348e-20
5.13497e-20
5.13511e-20
5.13522e-20
5.13529e-20
5.13532e-20
5.13532e-20
5.13529e-20
5.13522e-20
5.13511e-20
5.13497e-20
5.1348e-20
5.13458e-20
5.13433e-20
5.13404e-20
5.13372e-20
5.13335e-20
5.13295e-20
5.1325e-20
5.13201e-20
5.13148e-20
5.13091e-20
5.1303e-20
5.12964e-20
5.12894e-20
5.12819e-20
5.1274e-20
5.12657e-20
5.12569e-20
5.12477e-20
5.12381e-20
5.12282e-20
5.12178e-20
5.12072e-20
5.11956e-20
5.11801e-20
1.31089e-19
1.3113e-19
1.31162e-19
1.31193e-19
1.31222e-19
1.3125e-19
1.31278e-19
1.31304e-19
1.31329e-19
1.31352e-19
1.31375e-19
1.31396e-19
1.31416e-19
1.31434e-19
1.31452e-19
1.31468e-19
1.31483e-19
1.31497e-19
1.31509e-19
1.31521e-19
1.31531e-19
1.3154e-19
1.31548e-19
1.31555e-19
1.31561e-19
1.31566e-19
1.3157e-19
1.31573e-19
1.31575e-19
1.31576e-19
1.31576e-19
1.31575e-19
1.31573e-19
1.3157e-19
1.31566e-19
1.31561e-19
1.31555e-19
1.31548e-19
1.3154e-19
1.31531e-19
1.31521e-19
1.31509e-19
1.31497e-19
1.31483e-19
1.31468e-19
1.31452e-19
1.31434e-19
1.31416e-19
1.31396e-19
1.31375e-19
1.31352e-19
1.31329e-19
1.31304e-19
1.31278e-19
1.3125e-19
1.31222e-19
1.31193e-19
1.31162e-19
1.3113e-19
1.31089e-19
3.43472e-19
3.43586e-19
3.43678e-19
3.43765e-19
3.4385e-19
3.43932e-19
3.44011e-19
3.44086e-19
3.44158e-19
3.44226e-19
3.44291e-19
3.44352e-19
3.44409e-19
3.44462e-19
3.44512e-19
3.44558e-19
3.44601e-19
3.44641e-19
3.44677e-19
3.44709e-19
3.44739e-19
3.44765e-19
3.44788e-19
3.44808e-19
3.44826e-19
3.4484e-19
3.44851e-19
3.4486e-19
3.44865e-19
3.44868e-19
3.44868e-19
3.44865e-19
3.4486e-19
3.44851e-19
3.4484e-19
3.44826e-19
3.44808e-19
3.44788e-19
3.44765e-19
3.44739e-19
3.44709e-19
3.44677e-19
3.44641e-19
3.44601e-19
3.44558e-19
3.44512e-19
3.44462e-19
3.44409e-19
3.44352e-19
3.44291e-19
3.44226e-19
3.44158e-19
3.44086e-19
3.44011e-19
3.43932e-19
3.4385e-19
3.43765e-19
3.43678e-19
3.43586e-19
3.43472e-19
9.20856e-19
9.21177e-19
9.21442e-19
9.21697e-19
9.21946e-19
9.22187e-19
9.22418e-19
9.22639e-19
9.2285e-19
9.2305e-19
9.23239e-19
9.23417e-19
9.23584e-19
9.2374e-19
9.23886e-19
9.24021e-19
9.24146e-19
9.24261e-19
9.24366e-19
9.24461e-19
9.24547e-19
9.24624e-19
9.24691e-19
9.2475e-19
9.248e-19
9.24841e-19
9.24874e-19
9.24899e-19
9.24915e-19
9.24924e-19
9.24924e-19
9.24915e-19
9.24899e-19
9.24874e-19
9.24841e-19
9.248e-19
9.2475e-19
9.24691e-19
9.24624e-19
9.24547e-19
9.24461e-19
9.24366e-19
9.24261e-19
9.24146e-19
9.24021e-19
9.23886e-19
9.2374e-19
9.23584e-19
9.23417e-19
9.23239e-19
9.2305e-19
9.2285e-19
9.22639e-19
9.22418e-19
9.22187e-19
9.21946e-19
9.21697e-19
9.21442e-19
9.21177e-19
9.20856e-19
2.52668e-18
2.5276e-18
2.52839e-18
2.52915e-18
2.52989e-18
2.53061e-18
2.5313e-18
2.53196e-18
2.53259e-18
2.53318e-18
2.53375e-18
2.53427e-18
2.53477e-18
2.53524e-18
2.53567e-18
2.53607e-18
2.53644e-18
2.53678e-18
2.5371e-18
2.53738e-18
2.53763e-18
2.53786e-18
2.53806e-18
2.53824e-18
2.53838e-18
2.53851e-18
2.5386e-18
2.53868e-18
2.53873e-18
2.53875e-18
2.53875e-18
2.53873e-18
2.53868e-18
2.5386e-18
2.53851e-18
2.53838e-18
2.53824e-18
2.53806e-18
2.53786e-18
2.53763e-18
2.53738e-18
2.5371e-18
2.53678e-18
2.53644e-18
2.53607e-18
2.53567e-18
2.53524e-18
2.53477e-18
2.53427e-18
2.53375e-18
2.53318e-18
2.53259e-18
2.53196e-18
2.5313e-18
2.53061e-18
2.52989e-18
2.52915e-18
2.52839e-18
2.5276e-18
2.52668e-18
7.09623e-18
7.09894e-18
7.10129e-18
7.1036e-18
7.10585e-18
7.10804e-18
7.11014e-18
7.11214e-18
7.11405e-18
7.11586e-18
7.11757e-18
7.11917e-18
7.12068e-18
7.12209e-18
7.1234e-18
7.12462e-18
7.12574e-18
7.12677e-18
7.12772e-18
7.12857e-18
7.12934e-18
7.13003e-18
7.13064e-18
7.13116e-18
7.13161e-18
7.13198e-18
7.13228e-18
7.1325e-18
7.13265e-18
7.13272e-18
7.13272e-18
7.13265e-18
7.1325e-18
7.13228e-18
7.13198e-18
7.13161e-18
7.13116e-18
7.13064e-18
7.13003e-18
7.12934e-18
7.12857e-18
7.12772e-18
7.12677e-18
7.12574e-18
7.12462e-18
7.1234e-18
7.12209e-18
7.12068e-18
7.11917e-18
7.11757e-18
7.11586e-18
7.11405e-18
7.11214e-18
7.11014e-18
7.10804e-18
7.10585e-18
7.1036e-18
7.10129e-18
7.09894e-18
7.09623e-18
2.04012e-17
2.04093e-17
2.04165e-17
2.04236e-17
2.04306e-17
2.04374e-17
2.04439e-17
2.04501e-17
2.0456e-17
2.04616e-17
2.04669e-17
2.04718e-17
2.04765e-17
2.04808e-17
2.04849e-17
2.04887e-17
2.04921e-17
2.04953e-17
2.04982e-17
2.05009e-17
2.05032e-17
2.05054e-17
2.05072e-17
2.05088e-17
2.05102e-17
2.05114e-17
2.05123e-17
2.0513e-17
2.05134e-17
2.05136e-17
2.05136e-17
2.05134e-17
2.0513e-17
2.05123e-17
2.05114e-17
2.05102e-17
2.05088e-17
2.05072e-17
2.05054e-17
2.05032e-17
2.05009e-17
2.04982e-17
2.04953e-17
2.04921e-17
2.04887e-17
2.04849e-17
2.04808e-17
2.04765e-17
2.04718e-17
2.04669e-17
2.04616e-17
2.0456e-17
2.04501e-17
2.04439e-17
2.04374e-17
2.04306e-17
2.04236e-17
2.04165e-17
2.04093e-17
2.04012e-17
6.00387e-17
6.00637e-17
6.00863e-17
6.01087e-17
6.01307e-17
6.01521e-17
6.01726e-17
6.01922e-17
6.02108e-17
6.02285e-17
6.02451e-17
6.02608e-17
6.02754e-17
6.02891e-17
6.03019e-17
6.03137e-17
6.03246e-17
6.03347e-17
6.03438e-17
6.03521e-17
6.03596e-17
6.03662e-17
6.03721e-17
6.03772e-17
6.03816e-17
6.03852e-17
6.0388e-17
6.03902e-17
6.03916e-17
6.03923e-17
6.03923e-17
6.03916e-17
6.03902e-17
6.0388e-17
6.03852e-17
6.03816e-17
6.03772e-17
6.03721e-17
6.03662e-17
6.03596e-17
6.03521e-17
6.03438e-17
6.03347e-17
6.03246e-17
6.03137e-17
6.03019e-17
6.02891e-17
6.02754e-17
6.02608e-17
6.02451e-17
6.02285e-17
6.02108e-17
6.01922e-17
6.01726e-17
6.01521e-17
6.01307e-17
6.01087e-17
6.00863e-17
6.00637e-17
6.00387e-17
1.8085e-16
1.80929e-16
1.81001e-16
1.81073e-16
1.81144e-16
1.81212e-16
1.81278e-16
1.81341e-16
1.81401e-16
1.81458e-16
1.81511e-16
1.81562e-16
1.81609e-16
1.81653e-16
1.81694e-16
1.81732e-16
1.81767e-16
1.81799e-16
1.81828e-16
1.81855e-16
1.81879e-16
1.819e-16
1.81919e-16
1.81936e-16
1.81949e-16
1.81961e-16
1.8197e-16
1.81977e-16
1.81982e-16
1.81984e-16
1.81984e-16
1.81982e-16
1.81977e-16
1.8197e-16
1.81961e-16
1.81949e-16
1.81936e-16
1.81919e-16
1.819e-16
1.81879e-16
1.81855e-16
1.81828e-16
1.81799e-16
1.81767e-16
1.81732e-16
1.81694e-16
1.81653e-16
1.81609e-16
1.81562e-16
1.81511e-16
1.81458e-16
1.81401e-16
1.81341e-16
1.81278e-16
1.81212e-16
1.81144e-16
1.81073e-16
1.81001e-16
1.80929e-16
1.8085e-16
5.57485e-16
5.57738e-16
5.57973e-16
5.58208e-16
5.58441e-16
5.58667e-16
5.58883e-16
5.5909e-16
5.59286e-16
5.59472e-16
5.59648e-16
5.59812e-16
5.59967e-16
5.60111e-16
5.60245e-16
5.6037e-16
5.60484e-16
5.6059e-16
5.60686e-16
5.60773e-16
5.60851e-16
5.60921e-16
5.60983e-16
5.61036e-16
5.61082e-16
5.6112e-16
5.6115e-16
5.61172e-16
5.61187e-16
5.61194e-16
5.61194e-16
5.61187e-16
5.61172e-16
5.6115e-16
5.6112e-16
5.61082e-16
5.61036e-16
5.60983e-16
5.60921e-16
5.60851e-16
5.60773e-16
5.60686e-16
5.6059e-16
5.60484e-16
5.6037e-16
5.60245e-16
5.60111e-16
5.59967e-16
5.59812e-16
5.59648e-16
5.59472e-16
5.59286e-16
5.5909e-16
5.58883e-16
5.58667e-16
5.58441e-16
5.58208e-16
5.57973e-16
5.57738e-16
5.57485e-16
1.75809e-15
1.75892e-15
1.7597e-15
1.76049e-15
1.76127e-15
1.76202e-15
1.76274e-15
1.76344e-15
1.76409e-15
1.76471e-15
1.7653e-15
1.76585e-15
1.76637e-15
1.76685e-15
1.7673e-15
1.76771e-15
1.7681e-15
1.76845e-15
1.76877e-15
1.76906e-15
1.76932e-15
1.76955e-15
1.76976e-15
1.76994e-15
1.77009e-15
1.77022e-15
1.77032e-15
1.77039e-15
1.77044e-15
1.77046e-15
1.77046e-15
1.77044e-15
1.77039e-15
1.77032e-15
1.77022e-15
1.77009e-15
1.76994e-15
1.76976e-15
1.76955e-15
1.76932e-15
1.76906e-15
1.76877e-15
1.76845e-15
1.7681e-15
1.76771e-15
1.7673e-15
1.76685e-15
1.76637e-15
1.76585e-15
1.7653e-15
1.76471e-15
1.76409e-15
1.76344e-15
1.76274e-15
1.76202e-15
1.76127e-15
1.76049e-15
1.7597e-15
1.75892e-15
1.75809e-15
5.66952e-15
5.67229e-15
5.67494e-15
5.67763e-15
5.68028e-15
5.68285e-15
5.68532e-15
5.68768e-15
5.68992e-15
5.69204e-15
5.69404e-15
5.69591e-15
5.69767e-15
5.69931e-15
5.70084e-15
5.70225e-15
5.70355e-15
5.70475e-15
5.70584e-15
5.70683e-15
5.70772e-15
5.70852e-15
5.70922e-15
5.70982e-15
5.71034e-15
5.71077e-15
5.71111e-15
5.71136e-15
5.71153e-15
5.71161e-15
5.71161e-15
5.71153e-15
5.71136e-15
5.71111e-15
5.71077e-15
5.71034e-15
5.70982e-15
5.70922e-15
5.70852e-15
5.70772e-15
5.70683e-15
5.70584e-15
5.70475e-15
5.70355e-15
5.70225e-15
5.70084e-15
5.69931e-15
5.69767e-15
5.69591e-15
5.69404e-15
5.69204e-15
5.68992e-15
5.68768e-15
5.68532e-15
5.68285e-15
5.68028e-15
5.67763e-15
5.67494e-15
5.67229e-15
5.66952e-15
1.86846e-14
1.8694e-14
1.87032e-14
1.87125e-14
1.87217e-14
1.87307e-14
1.87393e-14
1.87474e-14
1.87552e-14
1.87626e-14
1.87695e-14
1.8776e-14
1.87821e-14
1.87878e-14
1.87931e-14
1.8798e-14
1.88025e-14
1.88067e-14
1.88105e-14
1.88139e-14
1.8817e-14
1.88197e-14
1.88222e-14
1.88243e-14
1.88261e-14
1.88275e-14
1.88287e-14
1.88296e-14
1.88302e-14
1.88305e-14
1.88305e-14
1.88302e-14
1.88296e-14
1.88287e-14
1.88275e-14
1.88261e-14
1.88243e-14
1.88222e-14
1.88197e-14
1.8817e-14
1.88139e-14
1.88105e-14
1.88067e-14
1.88025e-14
1.8798e-14
1.87931e-14
1.87878e-14
1.87821e-14
1.8776e-14
1.87695e-14
1.87626e-14
1.87552e-14
1.87474e-14
1.87393e-14
1.87307e-14
1.87217e-14
1.87125e-14
1.87032e-14
1.8694e-14
1.86846e-14
6.28788e-14
6.29117e-14
6.2944e-14
6.2977e-14
6.30095e-14
6.30412e-14
6.30715e-14
6.31005e-14
6.3128e-14
6.3154e-14
6.31785e-14
6.32015e-14
6.32231e-14
6.32432e-14
6.32619e-14
6.32792e-14
6.32952e-14
6.33098e-14
6.33232e-14
6.33353e-14
6.33462e-14
6.33559e-14
6.33644e-14
6.33719e-14
6.33782e-14
6.33834e-14
6.33876e-14
6.33907e-14
6.33927e-14
6.33938e-14
6.33938e-14
6.33927e-14
6.33907e-14
6.33876e-14
6.33834e-14
6.33782e-14
6.33719e-14
6.33644e-14
6.33559e-14
6.33462e-14
6.33353e-14
6.33232e-14
6.33098e-14
6.32952e-14
6.32792e-14
6.32619e-14
6.32432e-14
6.32231e-14
6.32015e-14
6.31785e-14
6.3154e-14
6.3128e-14
6.31005e-14
6.30715e-14
6.30412e-14
6.30095e-14
6.2977e-14
6.2944e-14
6.29117e-14
6.28788e-14
2.15858e-13
2.15975e-13
2.16091e-13
2.16209e-13
2.16326e-13
2.1644e-13
2.16549e-13
2.16653e-13
2.16752e-13
2.16846e-13
2.16934e-13
2.17017e-13
2.17094e-13
2.17166e-13
2.17234e-13
2.17296e-13
2.17353e-13
2.17406e-13
2.17454e-13
2.17497e-13
2.17536e-13
2.17571e-13
2.17602e-13
2.17629e-13
2.17651e-13
2.1767e-13
2.17685e-13
2.17696e-13
2.17703e-13
2.17707e-13
2.17707e-13
2.17703e-13
2.17696e-13
2.17685e-13
2.1767e-13
2.17651e-13
2.17629e-13
2.17602e-13
2.17571e-13
2.17536e-13
2.17497e-13
2.17454e-13
2.17406e-13
2.17353e-13
2.17296e-13
2.17234e-13
2.17166e-13
2.17094e-13
2.17017e-13
2.16934e-13
2.16846e-13
2.16752e-13
2.16653e-13
2.16549e-13
2.1644e-13
2.16326e-13
2.16209e-13
2.16091e-13
2.15975e-13
2.15858e-13
7.54967e-13
7.55387e-13
7.55809e-13
7.56242e-13
7.5667e-13
7.57086e-13
7.57485e-13
7.57865e-13
7.58226e-13
7.58568e-13
7.5889e-13
7.59192e-13
7.59475e-13
7.59738e-13
7.59984e-13
7.6021e-13
7.6042e-13
7.60612e-13
7.60787e-13
7.60945e-13
7.61088e-13
7.61215e-13
7.61327e-13
7.61424e-13
7.61507e-13
7.61575e-13
7.6163e-13
7.6167e-13
7.61697e-13
7.61711e-13
7.61711e-13
7.61697e-13
7.6167e-13
7.6163e-13
7.61575e-13
7.61507e-13
7.61424e-13
7.61327e-13
7.61215e-13
7.61088e-13
7.60945e-13
7.60787e-13
7.60612e-13
7.6042e-13
7.6021e-13
7.59984e-13
7.59738e-13
7.59475e-13
7.59192e-13
7.5889e-13
7.58568e-13
7.58226e-13
7.57865e-13
7.57485e-13
7.57086e-13
7.5667e-13
7.56242e-13
7.55809e-13
7.55387e-13
7.54967e-13
2.68602e-12
2.68756e-12
2.68913e-12
2.69073e-12
2.69231e-12
2.69385e-12
2.69533e-12
2.69674e-12
2.69808e-12
2.69935e-12
2.70054e-12
2.70166e-12
2.7027e-12
2.70368e-12
2.70459e-12
2.70543e-12
2.7062e-12
2.70691e-12
2.70756e-12
2.70815e-12
2.70867e-12
2.70914e-12
2.70956e-12
2.70992e-12
2.71022e-12
2.71048e-12
2.71068e-12
2.71083e-12
2.71093e-12
2.71098e-12
2.71098e-12
2.71093e-12
2.71083e-12
2.71068e-12
2.71048e-12
2.71022e-12
2.70992e-12
2.70956e-12
2.70914e-12
2.70867e-12
2.70815e-12
2.70756e-12
2.70691e-12
2.7062e-12
2.70543e-12
2.70459e-12
2.70368e-12
2.7027e-12
2.70166e-12
2.70054e-12
2.69935e-12
2.69808e-12
2.69674e-12
2.69533e-12
2.69385e-12
2.69231e-12
2.69073e-12
2.68913e-12
2.68756e-12
2.68602e-12
9.70295e-12
9.70866e-12
9.7145e-12
9.72051e-12
9.72646e-12
9.73224e-12
9.73778e-12
9.74307e-12
9.74809e-12
9.75283e-12
9.7573e-12
9.76149e-12
9.76541e-12
9.76907e-12
9.77247e-12
9.77562e-12
9.77852e-12
9.78118e-12
9.7836e-12
9.7858e-12
9.78778e-12
9.78954e-12
9.79109e-12
9.79243e-12
9.79358e-12
9.79453e-12
9.79528e-12
9.79584e-12
9.79622e-12
9.7964e-12
9.7964e-12
9.79622e-12
9.79584e-12
9.79528e-12
9.79453e-12
9.79358e-12
9.79243e-12
9.79109e-12
9.78954e-12
9.78778e-12
9.7858e-12
9.7836e-12
9.78118e-12
9.77852e-12
9.77562e-12
9.77247e-12
9.76907e-12
9.76541e-12
9.76149e-12
9.7573e-12
9.75283e-12
9.74809e-12
9.74307e-12
9.73778e-12
9.73224e-12
9.72646e-12
9.72051e-12
9.7145e-12
9.70866e-12
9.70295e-12
3.5509e-11
3.55304e-11
3.55525e-11
3.55752e-11
3.55978e-11
3.56196e-11
3.56407e-11
3.56607e-11
3.56797e-11
3.56976e-11
3.57145e-11
3.57304e-11
3.57452e-11
3.57591e-11
3.57719e-11
3.57838e-11
3.57948e-11
3.58049e-11
3.5814e-11
3.58224e-11
3.58298e-11
3.58365e-11
3.58424e-11
3.58474e-11
3.58518e-11
3.58553e-11
3.58582e-11
3.58603e-11
3.58617e-11
3.58624e-11
3.58624e-11
3.58617e-11
3.58603e-11
3.58582e-11
3.58553e-11
3.58518e-11
3.58474e-11
3.58424e-11
3.58365e-11
3.58298e-11
3.58224e-11
3.5814e-11
3.58049e-11
3.57948e-11
3.57838e-11
3.57719e-11
3.57591e-11
3.57452e-11
3.57304e-11
3.57145e-11
3.56976e-11
3.56797e-11
3.56607e-11
3.56407e-11
3.56196e-11
3.55978e-11
3.55752e-11
3.55525e-11
3.55304e-11
3.5509e-11
1.31299e-10
1.3138e-10
1.31464e-10
1.31551e-10
1.31637e-10
1.31721e-10
1.31801e-10
1.31877e-10
1.31949e-10
1.32018e-10
1.32082e-10
1.32143e-10
1.32199e-10
1.32252e-10
1.32301e-10
1.32346e-10
1.32388e-10
1.32426e-10
1.32461e-10
1.32493e-10
1.32522e-10
1.32547e-10
1.32569e-10
1.32589e-10
1.32605e-10
1.32619e-10
1.32629e-10
1.32638e-10
1.32643e-10
1.32646e-10
1.32646e-10
1.32643e-10
1.32638e-10
1.32629e-10
1.32619e-10
1.32605e-10
1.32589e-10
1.32569e-10
1.32547e-10
1.32522e-10
1.32493e-10
1.32461e-10
1.32426e-10
1.32388e-10
1.32346e-10
1.32301e-10
1.32252e-10
1.32199e-10
1.32143e-10
1.32082e-10
1.32018e-10
1.31949e-10
1.31877e-10
1.31801e-10
1.31721e-10
1.31637e-10
1.31551e-10
1.31464e-10
1.3138e-10
1.31299e-10
4.89017e-10
4.89325e-10
4.89647e-10
4.89979e-10
4.90308e-10
4.90628e-10
4.90934e-10
4.91226e-10
4.91503e-10
4.91765e-10
4.92011e-10
4.92243e-10
4.92459e-10
4.92661e-10
4.92848e-10
4.93021e-10
4.93181e-10
4.93327e-10
4.93461e-10
4.93582e-10
4.9369e-10
4.93787e-10
4.93872e-10
4.93946e-10
4.94009e-10
4.94061e-10
4.94103e-10
4.94134e-10
4.94154e-10
4.94164e-10
4.94164e-10
4.94154e-10
4.94134e-10
4.94103e-10
4.94061e-10
4.94009e-10
4.93946e-10
4.93872e-10
4.93787e-10
4.9369e-10
4.93582e-10
4.93461e-10
4.93327e-10
4.93181e-10
4.93021e-10
4.92848e-10
4.92661e-10
4.92459e-10
4.92243e-10
4.92011e-10
4.91765e-10
4.91503e-10
4.91226e-10
4.90934e-10
4.90628e-10
4.90308e-10
4.89979e-10
4.89647e-10
4.89325e-10
4.89017e-10
1.82787e-09
1.82904e-09
1.83027e-09
1.83155e-09
1.8328e-09
1.83403e-09
1.8352e-09
1.83632e-09
1.83738e-09
1.83838e-09
1.83932e-09
1.8402e-09
1.84103e-09
1.8418e-09
1.84252e-09
1.84318e-09
1.84379e-09
1.84435e-09
1.84486e-09
1.84532e-09
1.84573e-09
1.8461e-09
1.84643e-09
1.84671e-09
1.84695e-09
1.84715e-09
1.84731e-09
1.84743e-09
1.84751e-09
1.84754e-09
1.84754e-09
1.84751e-09
1.84743e-09
1.84731e-09
1.84715e-09
1.84695e-09
1.84671e-09
1.84643e-09
1.8461e-09
1.84573e-09
1.84532e-09
1.84486e-09
1.84435e-09
1.84379e-09
1.84318e-09
1.84252e-09
1.8418e-09
1.84103e-09
1.8402e-09
1.83932e-09
1.83838e-09
1.83738e-09
1.83632e-09
1.8352e-09
1.83403e-09
1.8328e-09
1.83155e-09
1.83027e-09
1.82904e-09
1.82787e-09
6.82808e-09
6.83251e-09
6.8372e-09
6.84204e-09
6.84684e-09
6.85149e-09
6.85595e-09
6.8602e-09
6.86424e-09
6.86804e-09
6.87163e-09
6.87499e-09
6.87813e-09
6.88106e-09
6.88378e-09
6.8863e-09
6.88862e-09
6.89074e-09
6.89268e-09
6.89444e-09
6.89602e-09
6.89742e-09
6.89866e-09
6.89973e-09
6.90064e-09
6.9014e-09
6.902e-09
6.90245e-09
6.90275e-09
6.9029e-09
6.9029e-09
6.90275e-09
6.90245e-09
6.902e-09
6.9014e-09
6.90064e-09
6.89973e-09
6.89866e-09
6.89742e-09
6.89602e-09
6.89444e-09
6.89268e-09
6.89074e-09
6.88862e-09
6.8863e-09
6.88378e-09
6.88106e-09
6.87813e-09
6.87499e-09
6.87163e-09
6.86804e-09
6.86424e-09
6.8602e-09
6.85595e-09
6.85149e-09
6.84684e-09
6.84204e-09
6.8372e-09
6.83251e-09
6.82808e-09
2.53673e-08
2.5384e-08
2.54017e-08
2.54199e-08
2.5438e-08
2.54555e-08
2.54723e-08
2.54884e-08
2.55035e-08
2.55179e-08
2.55314e-08
2.5544e-08
2.55558e-08
2.55669e-08
2.55771e-08
2.55866e-08
2.55953e-08
2.56033e-08
2.56106e-08
2.56172e-08
2.56231e-08
2.56284e-08
2.56331e-08
2.56371e-08
2.56405e-08
2.56434e-08
2.56456e-08
2.56473e-08
2.56484e-08
2.5649e-08
2.5649e-08
2.56484e-08
2.56473e-08
2.56456e-08
2.56434e-08
2.56405e-08
2.56371e-08
2.56331e-08
2.56284e-08
2.56231e-08
2.56172e-08
2.56106e-08
2.56033e-08
2.55953e-08
2.55866e-08
2.55771e-08
2.55669e-08
2.55558e-08
2.5544e-08
2.55314e-08
2.55179e-08
2.55035e-08
2.54884e-08
2.54723e-08
2.54555e-08
2.5438e-08
2.54199e-08
2.54017e-08
2.5384e-08
2.53673e-08
9.32099e-08
9.32715e-08
9.33372e-08
9.34049e-08
9.34719e-08
9.35368e-08
9.35991e-08
9.36584e-08
9.37147e-08
9.37677e-08
9.38177e-08
9.38645e-08
9.39084e-08
9.39492e-08
9.39871e-08
9.40221e-08
9.40544e-08
9.4084e-08
9.4111e-08
9.41355e-08
9.41574e-08
9.4177e-08
9.41942e-08
9.42091e-08
9.42218e-08
9.42323e-08
9.42407e-08
9.42469e-08
9.42511e-08
9.42531e-08
9.42531e-08
9.42511e-08
9.42469e-08
9.42407e-08
9.42323e-08
9.42218e-08
9.42091e-08
9.41942e-08
9.4177e-08
9.41574e-08
9.41355e-08
9.4111e-08
9.4084e-08
9.40544e-08
9.40221e-08
9.39871e-08
9.39492e-08
9.39084e-08
9.38645e-08
9.38177e-08
9.37677e-08
9.37147e-08
9.36584e-08
9.35991e-08
9.35368e-08
9.34719e-08
9.34049e-08
9.33372e-08
9.32715e-08
9.32099e-08
3.36596e-07
3.36819e-07
3.37058e-07
3.37303e-07
3.37546e-07
3.37781e-07
3.38006e-07
3.38221e-07
3.38424e-07
3.38616e-07
3.38797e-07
3.38966e-07
3.39125e-07
3.39272e-07
3.39409e-07
3.39536e-07
3.39653e-07
3.3976e-07
3.39857e-07
3.39946e-07
3.40025e-07
3.40096e-07
3.40158e-07
3.40212e-07
3.40258e-07
3.40296e-07
3.40326e-07
3.40349e-07
3.40363e-07
3.40371e-07
3.40371e-07
3.40363e-07
3.40349e-07
3.40326e-07
3.40296e-07
3.40258e-07
3.40212e-07
3.40158e-07
3.40096e-07
3.40025e-07
3.39946e-07
3.39857e-07
3.3976e-07
3.39653e-07
3.39536e-07
3.39409e-07
3.39272e-07
3.39125e-07
3.38966e-07
3.38797e-07
3.38616e-07
3.38424e-07
3.38221e-07
3.38006e-07
3.37781e-07
3.37546e-07
3.37303e-07
3.37058e-07
3.36819e-07
3.36596e-07
1.18603e-06
1.18681e-06
1.18765e-06
1.18851e-06
1.18936e-06
1.19019e-06
1.19098e-06
1.19173e-06
1.19244e-06
1.19312e-06
1.19375e-06
1.19434e-06
1.1949e-06
1.19542e-06
1.1959e-06
1.19634e-06
1.19675e-06
1.19712e-06
1.19747e-06
1.19778e-06
1.19805e-06
1.1983e-06
1.19852e-06
1.19871e-06
1.19887e-06
1.199e-06
1.19911e-06
1.19919e-06
1.19924e-06
1.19926e-06
1.19926e-06
1.19924e-06
1.19919e-06
1.19911e-06
1.199e-06
1.19887e-06
1.19871e-06
1.19852e-06
1.1983e-06
1.19805e-06
1.19778e-06
1.19747e-06
1.19712e-06
1.19675e-06
1.19634e-06
1.1959e-06
1.19542e-06
1.1949e-06
1.19434e-06
1.19375e-06
1.19312e-06
1.19244e-06
1.19173e-06
1.19098e-06
1.19019e-06
1.18936e-06
1.18851e-06
1.18765e-06
1.18681e-06
1.18603e-06
4.04473e-06
4.04738e-06
4.05021e-06
4.05311e-06
4.05598e-06
4.05876e-06
4.06142e-06
4.06395e-06
4.06635e-06
4.06861e-06
4.07074e-06
4.07274e-06
4.07461e-06
4.07635e-06
4.07796e-06
4.07945e-06
4.08083e-06
4.08209e-06
4.08324e-06
4.08428e-06
4.08521e-06
4.08604e-06
4.08677e-06
4.08741e-06
4.08795e-06
4.08839e-06
4.08875e-06
4.08902e-06
4.08919e-06
4.08928e-06
4.08928e-06
4.08919e-06
4.08902e-06
4.08875e-06
4.08839e-06
4.08795e-06
4.08741e-06
4.08677e-06
4.08604e-06
4.08521e-06
4.08428e-06
4.08324e-06
4.08209e-06
4.08083e-06
4.07945e-06
4.07796e-06
4.07635e-06
4.07461e-06
4.07274e-06
4.07074e-06
4.06861e-06
4.06635e-06
4.06395e-06
4.06142e-06
4.05876e-06
4.05598e-06
4.05311e-06
4.05021e-06
4.04738e-06
4.04473e-06
1.32284e-05
1.32369e-05
1.3246e-05
1.32553e-05
1.32645e-05
1.32734e-05
1.32819e-05
1.329e-05
1.32976e-05
1.33049e-05
1.33117e-05
1.3318e-05
1.3324e-05
1.33296e-05
1.33347e-05
1.33395e-05
1.33439e-05
1.33479e-05
1.33516e-05
1.33549e-05
1.33579e-05
1.33605e-05
1.33629e-05
1.33649e-05
1.33666e-05
1.3368e-05
1.33692e-05
1.337e-05
1.33706e-05
1.33709e-05
1.33709e-05
1.33706e-05
1.337e-05
1.33692e-05
1.3368e-05
1.33666e-05
1.33649e-05
1.33629e-05
1.33605e-05
1.33579e-05
1.33549e-05
1.33516e-05
1.33479e-05
1.33439e-05
1.33395e-05
1.33347e-05
1.33296e-05
1.3324e-05
1.3318e-05
1.33117e-05
1.33049e-05
1.32976e-05
1.329e-05
1.32819e-05
1.32734e-05
1.32645e-05
1.32553e-05
1.3246e-05
1.32369e-05
1.32284e-05
4.10647e-05
4.10904e-05
4.11178e-05
4.11458e-05
4.11733e-05
4.11999e-05
4.12254e-05
4.12497e-05
4.12727e-05
4.12944e-05
4.13148e-05
4.13339e-05
4.13518e-05
4.13684e-05
4.13838e-05
4.13981e-05
4.14113e-05
4.14233e-05
4.14343e-05
4.14443e-05
4.14532e-05
4.14611e-05
4.14681e-05
4.14742e-05
4.14794e-05
4.14836e-05
4.1487e-05
4.14896e-05
4.14912e-05
4.14921e-05
4.14921e-05
4.14912e-05
4.14896e-05
4.1487e-05
4.14836e-05
4.14794e-05
4.14742e-05
4.14681e-05
4.14611e-05
4.14532e-05
4.14443e-05
4.14343e-05
4.14233e-05
4.14113e-05
4.13981e-05
4.13838e-05
4.13684e-05
4.13518e-05
4.13339e-05
4.13148e-05
4.12944e-05
4.12727e-05
4.12497e-05
4.12254e-05
4.11999e-05
4.11733e-05
4.11458e-05
4.11178e-05
4.10904e-05
4.10647e-05
0.000119611
0.000119683
0.000119759
0.000119837
0.000119913
0.000119987
0.000120058
0.000120125
0.000120189
0.000120249
0.000120306
0.000120359
0.000120408
0.000120454
0.000120497
0.000120537
0.000120573
0.000120606
0.000120637
0.000120664
0.000120689
0.000120711
0.000120731
0.000120747
0.000120762
0.000120773
0.000120783
0.00012079
0.000120795
0.000120797
0.000120797
0.000120795
0.00012079
0.000120783
0.000120773
0.000120762
0.000120747
0.000120731
0.000120711
0.000120689
0.000120664
0.000120637
0.000120606
0.000120573
0.000120537
0.000120497
0.000120454
0.000120408