/*--------------------------------*- C++ -*----------------------------------*\
| =========                 |                                                 |
| \\      /  F ield         | foam-extend: Open Source CFD                    |
|  \\    /   O peration     | Version:     4.0                                |
|   \\  /    A nd           | Web:         http://www.foam-extend.org         |
|    \\/     M anipulation  |                                                 |
\*---------------------------------------------------------------------------*/
FoamFile
{
    version     2.0;
    format      ascii;
    class       volScalarField;
    location    "1660";
    object      psiE;
}
// * * * * * * * * * * * * * * * * * * * * * * * * * * * * * * * * * * * * * //

dimensions      [0 0 0 0 0 0 0];

internalField   nonuniform List<scalar> 
6960
(
0.325327
0.325328
0.325329
0.325331
0.325332
0.325334
0.325335
0.325336
0.325338
0.325339
0.32534
0.325341
0.325342
0.325343
0.325344
0.325345
0.325346
0.325346
0.325347
0.325348
0.325348
0.325349
0.325349
0.32535
0.32535
0.32535
0.32535
0.32535
0.325351
0.325351
0.325351
0.325351
0.32535
0.32535
0.32535
0.32535
0.32535
0.325349
0.325349
0.325348
0.325348
0.325347
0.325346
0.325346
0.325345
0.325344
0.325343
0.325342
0.325341
0.32534
0.325339
0.325338
0.325336
0.325335
0.325334
0.325332
0.325331
0.325329
0.325328
0.325327
0.796902
0.796906
0.796912
0.796918
0.796923
0.796929
0.796935
0.79694
0.796945
0.79695
0.796954
0.796959
0.796963
0.796967
0.79697
0.796973
0.796976
0.796979
0.796982
0.796984
0.796986
0.796988
0.79699
0.796991
0.796992
0.796993
0.796994
0.796995
0.796995
0.796995
0.796995
0.796995
0.796995
0.796994
0.796993
0.796992
0.796991
0.79699
0.796988
0.796986
0.796984
0.796982
0.796979
0.796976
0.796973
0.79697
0.796967
0.796963
0.796959
0.796954
0.79695
0.796945
0.79694
0.796935
0.796929
0.796923
0.796918
0.796912
0.796906
0.796902
1.21035
1.21036
1.21037
1.21038
1.21039
1.21041
1.21042
1.21043
1.21044
1.21045
1.21046
1.21046
1.21047
1.21048
1.21049
1.21049
1.2105
1.2105
1.21051
1.21051
1.21052
1.21052
1.21053
1.21053
1.21053
1.21053
1.21053
1.21053
1.21054
1.21054
1.21054
1.21054
1.21053
1.21053
1.21053
1.21053
1.21053
1.21053
1.21052
1.21052
1.21051
1.21051
1.2105
1.2105
1.21049
1.21049
1.21048
1.21047
1.21046
1.21046
1.21045
1.21044
1.21043
1.21042
1.21041
1.21039
1.21038
1.21037
1.21036
1.21035
1.60347
1.60349
1.6035
1.60352
1.60354
1.60356
1.60358
1.60359
1.60361
1.60362
1.60364
1.60365
1.60366
1.60368
1.60369
1.6037
1.60371
1.60372
1.60372
1.60373
1.60374
1.60374
1.60375
1.60375
1.60376
1.60376
1.60376
1.60376
1.60377
1.60377
1.60377
1.60377
1.60376
1.60376
1.60376
1.60376
1.60375
1.60375
1.60374
1.60374
1.60373
1.60372
1.60372
1.60371
1.6037
1.60369
1.60368
1.60366
1.60365
1.60364
1.60362
1.60361
1.60359
1.60358
1.60356
1.60354
1.60352
1.6035
1.60349
1.60347
1.99211
1.99212
1.99215
1.99217
1.9922
1.99223
1.99225
1.99227
1.9923
1.99232
1.99234
1.99236
1.99237
1.99239
1.99241
1.99242
1.99243
1.99245
1.99246
1.99247
1.99248
1.99248
1.99249
1.9925
1.9925
1.99251
1.99251
1.99251
1.99251
1.99252
1.99252
1.99251
1.99251
1.99251
1.99251
1.9925
1.9925
1.99249
1.99248
1.99248
1.99247
1.99246
1.99245
1.99243
1.99242
1.99241
1.99239
1.99237
1.99236
1.99234
1.99232
1.9923
1.99227
1.99225
1.99223
1.9922
1.99217
1.99215
1.99212
1.99211
2.38346
2.38349
2.38352
2.38355
2.38359
2.38362
2.38365
2.38368
2.38371
2.38374
2.38377
2.38379
2.38381
2.38384
2.38386
2.38387
2.38389
2.38391
2.38392
2.38394
2.38395
2.38396
2.38397
2.38398
2.38398
2.38399
2.38399
2.384
2.384
2.384
2.384
2.384
2.384
2.38399
2.38399
2.38398
2.38398
2.38397
2.38396
2.38395
2.38394
2.38392
2.38391
2.38389
2.38387
2.38386
2.38384
2.38381
2.38379
2.38377
2.38374
2.38371
2.38368
2.38365
2.38362
2.38359
2.38355
2.38352
2.38349
2.38346
2.78094
2.78097
2.78101
2.78106
2.7811
2.78114
2.78118
2.78122
2.78126
2.78129
2.78132
2.78135
2.78138
2.78141
2.78144
2.78146
2.78148
2.7815
2.78152
2.78153
2.78155
2.78156
2.78157
2.78158
2.78159
2.7816
2.78161
2.78161
2.78161
2.78161
2.78161
2.78161
2.78161
2.78161
2.7816
2.78159
2.78158
2.78157
2.78156
2.78155
2.78153
2.78152
2.7815
2.78148
2.78146
2.78144
2.78141
2.78138
2.78135
2.78132
2.78129
2.78126
2.78122
2.78118
2.78114
2.7811
2.78106
2.78101
2.78097
2.78094
3.18617
3.1862
3.18625
3.1863
3.18636
3.18641
3.18645
3.1865
3.18654
3.18659
3.18663
3.18666
3.1867
3.18673
3.18676
3.18679
3.18682
3.18684
3.18686
3.18688
3.1869
3.18691
3.18693
3.18694
3.18695
3.18696
3.18697
3.18697
3.18697
3.18698
3.18698
3.18697
3.18697
3.18697
3.18696
3.18695
3.18694
3.18693
3.18691
3.1869
3.18688
3.18686
3.18684
3.18682
3.18679
3.18676
3.18673
3.1867
3.18666
3.18663
3.18659
3.18654
3.1865
3.18645
3.18641
3.18636
3.1863
3.18625
3.1862
3.18617
3.59992
3.59996
3.60002
3.60008
3.60014
3.6002
3.60025
3.60031
3.60036
3.60041
3.60045
3.6005
3.60054
3.60058
3.60061
3.60065
3.60068
3.6007
3.60073
3.60075
3.60077
3.60079
3.60081
3.60082
3.60084
3.60085
3.60085
3.60086
3.60086
3.60086
3.60086
3.60086
3.60086
3.60085
3.60085
3.60084
3.60082
3.60081
3.60079
3.60077
3.60075
3.60073
3.6007
3.60068
3.60065
3.60061
3.60058
3.60054
3.6005
3.60045
3.60041
3.60036
3.60031
3.60025
3.6002
3.60014
3.60008
3.60002
3.59996
3.59992
4.02257
4.02262
4.02268
4.02275
4.02282
4.02289
4.02296
4.02302
4.02308
4.02314
4.02319
4.02324
4.02329
4.02333
4.02337
4.02341
4.02344
4.02348
4.02351
4.02353
4.02356
4.02358
4.0236
4.02361
4.02363
4.02364
4.02365
4.02365
4.02366
4.02366
4.02366
4.02366
4.02365
4.02365
4.02364
4.02363
4.02361
4.0236
4.02358
4.02356
4.02353
4.02351
4.02348
4.02344
4.02341
4.02337
4.02333
4.02329
4.02324
4.02319
4.02314
4.02308
4.02302
4.02296
4.02289
4.02282
4.02275
4.02268
4.02262
4.02257
4.45432
4.45437
4.45444
4.45452
4.4546
4.45468
4.45475
4.45482
4.45489
4.45496
4.45502
4.45507
4.45513
4.45518
4.45522
4.45527
4.45531
4.45534
4.45538
4.45541
4.45543
4.45546
4.45548
4.4555
4.45551
4.45552
4.45554
4.45554
4.45555
4.45555
4.45555
4.45555
4.45554
4.45554
4.45552
4.45551
4.4555
4.45548
4.45546
4.45543
4.45541
4.45538
4.45534
4.45531
4.45527
4.45522
4.45518
4.45513
4.45507
4.45502
4.45496
4.45489
4.45482
4.45475
4.45468
4.4546
4.45452
4.45444
4.45437
4.45432
4.89525
4.89531
4.89539
4.89548
4.89557
4.89566
4.89574
4.89582
4.8959
4.89597
4.89603
4.8961
4.89616
4.89621
4.89627
4.89631
4.89636
4.8964
4.89644
4.89647
4.8965
4.89653
4.89655
4.89657
4.89659
4.8966
4.89661
4.89662
4.89663
4.89663
4.89663
4.89663
4.89662
4.89661
4.8966
4.89659
4.89657
4.89655
4.89653
4.8965
4.89647
4.89644
4.8964
4.89636
4.89631
4.89627
4.89621
4.89616
4.8961
4.89603
4.89597
4.8959
4.89582
4.89574
4.89566
4.89557
4.89548
4.89539
4.89531
4.89525
5.34542
5.34549
5.34558
5.34567
5.34577
5.34587
5.34596
5.34605
5.34613
5.34621
5.34628
5.34636
5.34642
5.34648
5.34654
5.34659
5.34664
5.34669
5.34673
5.34677
5.3468
5.34683
5.34686
5.34688
5.3469
5.34691
5.34693
5.34694
5.34694
5.34695
5.34695
5.34694
5.34694
5.34693
5.34691
5.3469
5.34688
5.34686
5.34683
5.3468
5.34677
5.34673
5.34669
5.34664
5.34659
5.34654
5.34648
5.34642
5.34636
5.34628
5.34621
5.34613
5.34605
5.34596
5.34587
5.34577
5.34567
5.34558
5.34549
5.34542
5.80483
5.8049
5.805
5.8051
5.80521
5.80532
5.80542
5.80551
5.80561
5.80569
5.80578
5.80585
5.80593
5.80599
5.80606
5.80611
5.80617
5.80622
5.80626
5.8063
5.80634
5.80637
5.8064
5.80643
5.80645
5.80647
5.80648
5.80649
5.8065
5.8065
5.8065
5.8065
5.80649
5.80648
5.80647
5.80645
5.80643
5.8064
5.80637
5.80634
5.8063
5.80626
5.80622
5.80617
5.80611
5.80606
5.80599
5.80593
5.80585
5.80578
5.80569
5.80561
5.80551
5.80542
5.80532
5.80521
5.8051
5.805
5.8049
5.80483
6.27345
6.27353
6.27364
6.27376
6.27387
6.27399
6.2741
6.2742
6.2743
6.2744
6.27449
6.27457
6.27465
6.27472
6.27479
6.27486
6.27492
6.27497
6.27502
6.27506
6.2751
6.27514
6.27517
6.2752
6.27522
6.27524
6.27525
6.27527
6.27527
6.27528
6.27528
6.27527
6.27527
6.27525
6.27524
6.27522
6.2752
6.27517
6.27514
6.2751
6.27506
6.27502
6.27497
6.27492
6.27486
6.27479
6.27472
6.27465
6.27457
6.27449
6.2744
6.2743
6.2742
6.2741
6.27399
6.27387
6.27376
6.27364
6.27353
6.27345
6.75126
6.75134
6.75146
6.75158
6.75171
6.75183
6.75195
6.75207
6.75218
6.75228
6.75237
6.75247
6.75255
6.75263
6.75271
6.75277
6.75284
6.7529
6.75295
6.753
6.75304
6.75308
6.75311
6.75314
6.75317
6.75319
6.7532
6.75322
6.75323
6.75323
6.75323
6.75323
6.75322
6.7532
6.75319
6.75317
6.75314
6.75311
6.75308
6.75304
6.753
6.75295
6.7529
6.75284
6.75277
6.75271
6.75263
6.75255
6.75247
6.75237
6.75228
6.75218
6.75207
6.75195
6.75183
6.75171
6.75158
6.75146
6.75134
6.75126
7.23816
7.23825
7.23838
7.23851
7.23865
7.23878
7.23891
7.23903
7.23915
7.23926
7.23936
7.23946
7.23955
7.23964
7.23972
7.23979
7.23986
7.23992
7.23998
7.24003
7.24008
7.24012
7.24016
7.24019
7.24022
7.24024
7.24026
7.24027
7.24028
7.24028
7.24028
7.24028
7.24027
7.24026
7.24024
7.24022
7.24019
7.24016
7.24012
7.24008
7.24003
7.23998
7.23992
7.23986
7.23979
7.23972
7.23964
7.23955
7.23946
7.23936
7.23926
7.23915
7.23903
7.23891
7.23878
7.23865
7.23851
7.23838
7.23825
7.23816
7.73406
7.73416
7.73429
7.73444
7.73458
7.73472
7.73486
7.73499
7.73512
7.73524
7.73535
7.73545
7.73555
7.73564
7.73573
7.73581
7.73588
7.73595
7.73601
7.73607
7.73612
7.73616
7.7362
7.73623
7.73626
7.73629
7.7363
7.73632
7.73633
7.73633
7.73633
7.73633
7.73632
7.7363
7.73629
7.73626
7.73623
7.7362
7.73616
7.73612
7.73607
7.73601
7.73595
7.73588
7.73581
7.73573
7.73564
7.73555
7.73545
7.73535
7.73524
7.73512
7.73499
7.73486
7.73472
7.73458
7.73444
7.73429
7.73416
7.73406
8.23882
8.23892
8.23906
8.23922
8.23937
8.23952
8.23967
8.23981
8.23994
8.24007
8.24019
8.2403
8.24041
8.2405
8.2406
8.24068
8.24076
8.24083
8.2409
8.24095
8.24101
8.24106
8.2411
8.24113
8.24116
8.24119
8.24121
8.24123
8.24124
8.24124
8.24124
8.24124
8.24123
8.24121
8.24119
8.24116
8.24113
8.2411
8.24106
8.24101
8.24095
8.2409
8.24083
8.24076
8.24068
8.2406
8.2405
8.24041
8.2403
8.24019
8.24007
8.23994
8.23981
8.23967
8.23952
8.23937
8.23922
8.23906
8.23892
8.23882
8.75225
8.75237
8.75252
8.75268
8.75285
8.75301
8.75316
8.75331
8.75345
8.75359
8.75371
8.75383
8.75394
8.75405
8.75414
8.75423
8.75432
8.75439
8.75446
8.75453
8.75458
8.75463
8.75468
8.75472
8.75475
8.75478
8.7548
8.75481
8.75482
8.75483
8.75483
8.75482
8.75481
8.7548
8.75478
8.75475
8.75472
8.75468
8.75463
8.75458
8.75453
8.75446
8.75439
8.75432
8.75423
8.75414
8.75405
8.75394
8.75383
8.75371
8.75359
8.75345
8.75331
8.75316
8.75301
8.75285
8.75268
8.75252
8.75237
8.75225
9.27416
9.27427
9.27443
9.27461
9.27478
9.27495
9.27512
9.27527
9.27542
9.27556
9.2757
9.27582
9.27594
9.27605
9.27615
9.27625
9.27634
9.27642
9.27649
9.27656
9.27662
9.27667
9.27672
9.27676
9.27679
9.27682
9.27685
9.27686
9.27687
9.27688
9.27688
9.27687
9.27686
9.27685
9.27682
9.27679
9.27676
9.27672
9.27667
9.27662
9.27656
9.27649
9.27642
9.27634
9.27625
9.27615
9.27605
9.27594
9.27582
9.2757
9.27556
9.27542
9.27527
9.27512
9.27495
9.27478
9.27461
9.27443
9.27427
9.27416
9.80425
9.80438
9.80455
9.80473
9.80491
9.80509
9.80527
9.80543
9.80559
9.80574
9.80588
9.80601
9.80614
9.80625
9.80636
9.80646
9.80655
9.80664
9.80672
9.80679
9.80685
9.80691
9.80696
9.807
9.80704
9.80707
9.80709
9.80711
9.80712
9.80713
9.80713
9.80712
9.80711
9.80709
9.80707
9.80704
9.807
9.80696
9.80691
9.80685
9.80679
9.80672
9.80664
9.80655
9.80646
9.80636
9.80625
9.80614
9.80601
9.80588
9.80574
9.80559
9.80543
9.80527
9.80509
9.80491
9.80473
9.80455
9.80438
9.80425
10.3422
10.3424
10.3425
10.3427
10.3429
10.3431
10.3433
10.3435
10.3436
10.3438
10.3439
10.3441
10.3442
10.3443
10.3444
10.3446
10.3446
10.3447
10.3448
10.3449
10.345
10.345
10.3451
10.3451
10.3452
10.3452
10.3452
10.3452
10.3452
10.3452
10.3452
10.3452
10.3452
10.3452
10.3452
10.3452
10.3451
10.3451
10.345
10.345
10.3449
10.3448
10.3447
10.3446
10.3446
10.3444
10.3443
10.3442
10.3441
10.3439
10.3438
10.3436
10.3435
10.3433
10.3431
10.3429
10.3427
10.3425
10.3424
10.3422
10.8877
10.8878
10.888
10.8882
10.8884
10.8886
10.8888
10.889
10.8892
10.8893
10.8895
10.8896
10.8898
10.8899
10.89
10.8901
10.8902
10.8903
10.8904
10.8905
10.8906
10.8906
10.8907
10.8907
10.8908
10.8908
10.8908
10.8909
10.8909
10.8909
10.8909
10.8909
10.8909
10.8908
10.8908
10.8908
10.8907
10.8907
10.8906
10.8906
10.8905
10.8904
10.8903
10.8902
10.8901
10.89
10.8899
10.8898
10.8896
10.8895
10.8893
10.8892
10.889
10.8888
10.8886
10.8884
10.8882
10.888
10.8878
10.8877
11.4402
11.4404
11.4406
11.4408
11.441
11.4412
11.4414
11.4416
11.4418
11.4419
11.4421
11.4423
11.4424
11.4425
11.4427
11.4428
11.4429
11.443
11.4431
11.4432
11.4432
11.4433
11.4433
11.4434
11.4434
11.4435
11.4435
11.4435
11.4435
11.4435
11.4435
11.4435
11.4435
11.4435
11.4435
11.4434
11.4434
11.4433
11.4433
11.4432
11.4432
11.4431
11.443
11.4429
11.4428
11.4427
11.4425
11.4424
11.4423
11.4421
11.4419
11.4418
11.4416
11.4414
11.4412
11.441
11.4408
11.4406
11.4404
11.4402
11.9993
11.9995
11.9997
11.9999
12.0001
12.0003
12.0005
12.0007
12.0009
12.0011
12.0013
12.0014
12.0016
12.0017
12.0018
12.002
12.0021
12.0022
12.0023
12.0023
12.0024
12.0025
12.0025
12.0026
12.0026
12.0027
12.0027
12.0027
12.0027
12.0028
12.0028
12.0027
12.0027
12.0027
12.0027
12.0026
12.0026
12.0025
12.0025
12.0024
12.0023
12.0023
12.0022
12.0021
12.002
12.0018
12.0017
12.0016
12.0014
12.0013
12.0011
12.0009
12.0007
12.0005
12.0003
12.0001
11.9999
11.9997
11.9995
11.9993
12.5643
12.5645
12.5647
12.5649
12.5651
12.5654
12.5656
12.5658
12.566
12.5662
12.5663
12.5665
12.5667
12.5668
12.5669
12.5671
12.5672
12.5673
12.5674
12.5675
12.5675
12.5676
12.5677
12.5677
12.5678
12.5678
12.5678
12.5679
12.5679
12.5679
12.5679
12.5679
12.5679
12.5678
12.5678
12.5678
12.5677
12.5677
12.5676
12.5675
12.5675
12.5674
12.5673
12.5672
12.5671
12.5669
12.5668
12.5667
12.5665
12.5663
12.5662
12.566
12.5658
12.5656
12.5654
12.5651
12.5649
12.5647
12.5645
12.5643
13.1346
13.1347
13.1349
13.1352
13.1354
13.1356
13.1359
13.1361
13.1363
13.1365
13.1366
13.1368
13.137
13.1371
13.1373
13.1374
13.1375
13.1376
13.1377
13.1378
13.1379
13.138
13.138
13.1381
13.1381
13.1382
13.1382
13.1382
13.1382
13.1383
13.1383
13.1382
13.1382
13.1382
13.1382
13.1381
13.1381
13.138
13.138
13.1379
13.1378
13.1377
13.1376
13.1375
13.1374
13.1373
13.1371
13.137
13.1368
13.1366
13.1365
13.1363
13.1361
13.1359
13.1356
13.1354
13.1352
13.1349
13.1347
13.1346
13.7092
13.7094
13.7096
13.7099
13.7101
13.7103
13.7106
13.7108
13.711
13.7112
13.7114
13.7116
13.7117
13.7119
13.712
13.7122
13.7123
13.7124
13.7125
13.7126
13.7127
13.7127
13.7128
13.7129
13.7129
13.713
13.713
13.713
13.713
13.713
13.713
13.713
13.713
13.713
13.713
13.7129
13.7129
13.7128
13.7127
13.7127
13.7126
13.7125
13.7124
13.7123
13.7122
13.712
13.7119
13.7117
13.7116
13.7114
13.7112
13.711
13.7108
13.7106
13.7103
13.7101
13.7099
13.7096
13.7094
13.7092
14.2874
14.2876
14.2878
14.288
14.2883
14.2885
14.2888
14.289
14.2892
14.2894
14.2896
14.2898
14.29
14.2901
14.2903
14.2904
14.2905
14.2906
14.2907
14.2908
14.2909
14.291
14.2911
14.2911
14.2912
14.2912
14.2913
14.2913
14.2913
14.2913
14.2913
14.2913
14.2913
14.2913
14.2912
14.2912
14.2911
14.2911
14.291
14.2909
14.2908
14.2907
14.2906
14.2905
14.2904
14.2903
14.2901
14.29
14.2898
14.2896
14.2894
14.2892
14.289
14.2888
14.2885
14.2883
14.288
14.2878
14.2876
14.2874
14.868
14.8681
14.8684
14.8686
14.8689
14.8691
14.8694
14.8696
14.8698
14.87
14.8702
14.8704
14.8706
14.8708
14.8709
14.8711
14.8712
14.8713
14.8714
14.8715
14.8716
14.8717
14.8718
14.8718
14.8719
14.8719
14.8719
14.872
14.872
14.872
14.872
14.872
14.872
14.8719
14.8719
14.8719
14.8718
14.8718
14.8717
14.8716
14.8715
14.8714
14.8713
14.8712
14.8711
14.8709
14.8708
14.8706
14.8704
14.8702
14.87
14.8698
14.8696
14.8694
14.8691
14.8689
14.8686
14.8684
14.8681
14.868
15.4497
15.4499
15.4502
15.4504
15.4507
15.4509
15.4512
15.4514
15.4517
15.4519
15.4521
15.4523
15.4524
15.4526
15.4528
15.4529
15.453
15.4532
15.4533
15.4534
15.4535
15.4535
15.4536
15.4537
15.4537
15.4538
15.4538
15.4538
15.4539
15.4539
15.4539
15.4539
15.4538
15.4538
15.4538
15.4537
15.4537
15.4536
15.4535
15.4535
15.4534
15.4533
15.4532
15.453
15.4529
15.4528
15.4526
15.4524
15.4523
15.4521
15.4519
15.4517
15.4514
15.4512
15.4509
15.4507
15.4504
15.4502
15.4499
15.4497
16.0313
16.0315
16.0317
16.032
16.0323
16.0325
16.0328
16.033
16.0332
16.0335
16.0337
16.0339
16.034
16.0342
16.0344
16.0345
16.0346
16.0348
16.0349
16.035
16.0351
16.0352
16.0352
16.0353
16.0354
16.0354
16.0354
16.0355
16.0355
16.0355
16.0355
16.0355
16.0355
16.0354
16.0354
16.0354
16.0353
16.0352
16.0352
16.0351
16.035
16.0349
16.0348
16.0346
16.0345
16.0344
16.0342
16.034
16.0339
16.0337
16.0335
16.0332
16.033
16.0328
16.0325
16.0323
16.032
16.0317
16.0315
16.0313
16.611
16.6112
16.6114
16.6117
16.6119
16.6122
16.6125
16.6127
16.6129
16.6132
16.6134
16.6136
16.6138
16.6139
16.6141
16.6142
16.6144
16.6145
16.6146
16.6147
16.6148
16.6149
16.615
16.615
16.6151
16.6151
16.6152
16.6152
16.6152
16.6152
16.6152
16.6152
16.6152
16.6152
16.6151
16.6151
16.615
16.615
16.6149
16.6148
16.6147
16.6146
16.6145
16.6144
16.6142
16.6141
16.6139
16.6138
16.6136
16.6134
16.6132
16.6129
16.6127
16.6125
16.6122
16.6119
16.6117
16.6114
16.6112
16.611
17.1869
17.1871
17.1873
17.1876
17.1879
17.1881
17.1884
17.1887
17.1889
17.1891
17.1893
17.1895
17.1897
17.1899
17.19
17.1902
17.1903
17.1905
17.1906
17.1907
17.1908
17.1909
17.1909
17.191
17.1911
17.1911
17.1911
17.1912
17.1912
17.1912
17.1912
17.1912
17.1912
17.1911
17.1911
17.1911
17.191
17.1909
17.1909
17.1908
17.1907
17.1906
17.1905
17.1903
17.1902
17.19
17.1899
17.1897
17.1895
17.1893
17.1891
17.1889
17.1887
17.1884
17.1881
17.1879
17.1876
17.1873
17.1871
17.1869
17.7569
17.7571
17.7573
17.7576
17.7579
17.7581
17.7584
17.7586
17.7589
17.7591
17.7593
17.7595
17.7597
17.7599
17.76
17.7602
17.7603
17.7604
17.7606
17.7607
17.7608
17.7609
17.7609
17.761
17.761
17.7611
17.7611
17.7612
17.7612
17.7612
17.7612
17.7612
17.7612
17.7611
17.7611
17.761
17.761
17.7609
17.7609
17.7608
17.7607
17.7606
17.7604
17.7603
17.7602
17.76
17.7599
17.7597
17.7595
17.7593
17.7591
17.7589
17.7586
17.7584
17.7581
17.7579
17.7576
17.7573
17.7571
17.7569
18.3183
18.3185
18.3188
18.319
18.3193
18.3196
18.3198
18.3201
18.3203
18.3205
18.3208
18.321
18.3211
18.3213
18.3215
18.3216
18.3218
18.3219
18.322
18.3221
18.3222
18.3223
18.3224
18.3224
18.3225
18.3225
18.3226
18.3226
18.3226
18.3226
18.3226
18.3226
18.3226
18.3226
18.3225
18.3225
18.3224
18.3224
18.3223
18.3222
18.3221
18.322
18.3219
18.3218
18.3216
18.3215
18.3213
18.3211
18.321
18.3208
18.3205
18.3203
18.3201
18.3198
18.3196
18.3193
18.319
18.3188
18.3185
18.3183
18.8683
18.8685
18.8687
18.869
18.8693
18.8695
18.8698
18.87
18.8703
18.8705
18.8707
18.8709
18.8711
18.8713
18.8714
18.8716
18.8717
18.8718
18.8719
18.8721
18.8722
18.8722
18.8723
18.8724
18.8724
18.8725
18.8725
18.8725
18.8726
18.8726
18.8726
18.8726
18.8725
18.8725
18.8725
18.8724
18.8724
18.8723
18.8722
18.8722
18.8721
18.8719
18.8718
18.8717
18.8716
18.8714
18.8713
18.8711
18.8709
18.8707
18.8705
18.8703
18.87
18.8698
18.8695
18.8693
18.869
18.8687
18.8685
18.8683
19.4032
19.4034
19.4037
19.4039
19.4042
19.4045
19.4047
19.4049
19.4052
19.4054
19.4056
19.4058
19.406
19.4061
19.4063
19.4065
19.4066
19.4067
19.4068
19.4069
19.407
19.4071
19.4072
19.4073
19.4073
19.4074
19.4074
19.4074
19.4074
19.4074
19.4074
19.4074
19.4074
19.4074
19.4074
19.4073
19.4073
19.4072
19.4071
19.407
19.4069
19.4068
19.4067
19.4066
19.4065
19.4063
19.4061
19.406
19.4058
19.4056
19.4054
19.4052
19.4049
19.4047
19.4045
19.4042
19.4039
19.4037
19.4034
19.4032
19.919
19.9192
19.9194
19.9197
19.9199
19.9202
19.9204
19.9207
19.9209
19.9211
19.9213
19.9215
19.9217
19.9218
19.922
19.9221
19.9223
19.9224
19.9225
19.9226
19.9227
19.9228
19.9228
19.9229
19.923
19.923
19.923
19.9231
19.9231
19.9231
19.9231
19.9231
19.9231
19.923
19.923
19.923
19.9229
19.9228
19.9228
19.9227
19.9226
19.9225
19.9224
19.9223
19.9221
19.922
19.9218
19.9217
19.9215
19.9213
19.9211
19.9209
19.9207
19.9204
19.9202
19.9199
19.9197
19.9194
19.9192
19.919
20.4107
20.4108
20.4111
20.4113
20.4115
20.4118
20.412
20.4122
20.4125
20.4127
20.4128
20.413
20.4132
20.4134
20.4135
20.4137
20.4138
20.4139
20.414
20.4141
20.4142
20.4143
20.4143
20.4144
20.4145
20.4145
20.4145
20.4146
20.4146
20.4146
20.4146
20.4146
20.4146
20.4145
20.4145
20.4145
20.4144
20.4143
20.4143
20.4142
20.4141
20.414
20.4139
20.4138
20.4137
20.4135
20.4134
20.4132
20.413
20.4128
20.4127
20.4125
20.4122
20.412
20.4118
20.4115
20.4113
20.4111
20.4108
20.4107
20.8724
20.8726
20.8728
20.8731
20.8733
20.8735
20.8737
20.8739
20.8741
20.8743
20.8745
20.8747
20.8748
20.875
20.8751
20.8753
20.8754
20.8755
20.8756
20.8757
20.8758
20.8759
20.8759
20.876
20.876
20.8761
20.8761
20.8761
20.8761
20.8762
20.8762
20.8761
20.8761
20.8761
20.8761
20.876
20.876
20.8759
20.8759
20.8758
20.8757
20.8756
20.8755
20.8754
20.8753
20.8751
20.875
20.8748
20.8747
20.8745
20.8743
20.8741
20.8739
20.8737
20.8735
20.8733
20.8731
20.8728
20.8726
20.8724
21.2979
21.2981
21.2983
21.2985
21.2987
21.2989
21.2991
21.2993
21.2995
21.2996
21.2998
21.3
21.3001
21.3003
21.3004
21.3005
21.3006
21.3007
21.3008
21.3009
21.301
21.3011
21.3011
21.3012
21.3012
21.3013
21.3013
21.3013
21.3013
21.3013
21.3013
21.3013
21.3013
21.3013
21.3013
21.3012
21.3012
21.3011
21.3011
21.301
21.3009
21.3008
21.3007
21.3006
21.3005
21.3004
21.3003
21.3001
21.3
21.2998
21.2996
21.2995
21.2993
21.2991
21.2989
21.2987
21.2985
21.2983
21.2981
21.2979
21.6804
21.6805
21.6807
21.6809
21.6811
21.6813
21.6814
21.6816
21.6818
21.6819
21.6821
21.6822
21.6824
21.6825
21.6826
21.6827
21.6828
21.6829
21.683
21.6831
21.6831
21.6832
21.6833
21.6833
21.6833
21.6834
21.6834
21.6834
21.6834
21.6835
21.6835
21.6834
21.6834
21.6834
21.6834
21.6833
21.6833
21.6833
21.6832
21.6831
21.6831
21.683
21.6829
21.6828
21.6827
21.6826
21.6825
21.6824
21.6822
21.6821
21.6819
21.6818
21.6816
21.6814
21.6813
21.6811
21.6809
21.6807
21.6805
21.6804
22.0142
22.0143
22.0145
22.0146
22.0148
22.0149
22.0151
22.0152
22.0154
22.0155
22.0156
22.0158
22.0159
22.016
22.0161
22.0162
22.0163
22.0164
22.0164
22.0165
22.0166
22.0166
22.0167
22.0167
22.0167
22.0168
22.0168
22.0168
22.0168
22.0168
22.0168
22.0168
22.0168
22.0168
22.0168
22.0167
22.0167
22.0167
22.0166
22.0166
22.0165
22.0164
22.0164
22.0163
22.0162
22.0161
22.016
22.0159
22.0158
22.0156
22.0155
22.0154
22.0152
22.0151
22.0149
22.0148
22.0146
22.0145
22.0143
22.0142
22.2962
22.2963
22.2964
22.2966
22.2967
22.2968
22.297
22.2971
22.2972
22.2973
22.2974
22.2975
22.2976
22.2977
22.2978
22.2979
22.298
22.298
22.2981
22.2982
22.2982
22.2983
22.2983
22.2983
22.2984
22.2984
22.2984
22.2984
22.2984
22.2984
22.2984
22.2984
22.2984
22.2984
22.2984
22.2984
22.2983
22.2983
22.2983
22.2982
22.2982
22.2981
22.298
22.298
22.2979
22.2978
22.2977
22.2976
22.2975
22.2974
22.2973
22.2972
22.2971
22.297
22.2968
22.2967
22.2966
22.2964
22.2963
22.2962
22.5275
22.5276
22.5277
22.5278
22.5279
22.528
22.5281
22.5282
22.5283
22.5284
22.5285
22.5285
22.5286
22.5287
22.5288
22.5288
22.5289
22.529
22.529
22.5291
22.5291
22.5292
22.5292
22.5292
22.5293
22.5293
22.5293
22.5293
22.5293
22.5293
22.5293
22.5293
22.5293
22.5293
22.5293
22.5293
22.5292
22.5292
22.5292
22.5291
22.5291
22.529
22.529
22.5289
22.5288
22.5288
22.5287
22.5286
22.5285
22.5285
22.5284
22.5283
22.5282
22.5281
22.528
22.5279
22.5278
22.5277
22.5276
22.5275
22.7133
22.7134
22.7134
22.7135
22.7136
22.7137
22.7137
22.7138
22.7139
22.714
22.714
22.7141
22.7142
22.7142
22.7143
22.7144
22.7144
22.7145
22.7145
22.7146
22.7146
22.7146
22.7147
22.7147
22.7147
22.7147
22.7147
22.7148
22.7148
22.7148
22.7148
22.7148
22.7148
22.7147
22.7147
22.7147
22.7147
22.7147
22.7146
22.7146
22.7146
22.7145
22.7145
22.7144
22.7144
22.7143
22.7142
22.7142
22.7141
22.714
22.714
22.7139
22.7138
22.7137
22.7137
22.7136
22.7135
22.7134
22.7134
22.7133
22.8618
22.8618
22.8618
22.8619
22.862
22.862
22.8621
22.8621
22.8622
22.8623
22.8623
22.8624
22.8624
22.8625
22.8626
22.8626
22.8626
22.8627
22.8627
22.8628
22.8628
22.8628
22.8629
22.8629
22.8629
22.8629
22.8629
22.8629
22.8629
22.8629
22.8629
22.8629
22.8629
22.8629
22.8629
22.8629
22.8629
22.8629
22.8628
22.8628
22.8628
22.8627
22.8627
22.8626
22.8626
22.8626
22.8625
22.8624
22.8624
22.8623
22.8623
22.8622
22.8621
22.8621
22.862
22.862
22.8619
22.8618
22.8618
22.8618
22.9817
22.9817
22.9817
22.9818
22.9818
22.9819
22.9819
22.982
22.982
22.9821
22.9821
22.9822
22.9822
22.9823
22.9823
22.9824
22.9824
22.9825
22.9825
22.9825
22.9825
22.9826
22.9826
22.9826
22.9826
22.9827
22.9827
22.9827
22.9827
22.9827
22.9827
22.9827
22.9827
22.9827
22.9827
22.9826
22.9826
22.9826
22.9826
22.9825
22.9825
22.9825
22.9825
22.9824
22.9824
22.9823
22.9823
22.9822
22.9822
22.9821
22.9821
22.982
22.982
22.9819
22.9819
22.9818
22.9818
22.9817
22.9817
22.9817
23.0808
23.0808
23.0809
23.0809
23.0809
23.081
23.081
23.0811
23.0811
23.0812
23.0812
23.0812
23.0813
23.0813
23.0814
23.0814
23.0814
23.0815
23.0815
23.0815
23.0816
23.0816
23.0816
23.0816
23.0816
23.0817
23.0817
23.0817
23.0817
23.0817
23.0817
23.0817
23.0817
23.0817
23.0817
23.0816
23.0816
23.0816
23.0816
23.0816
23.0815
23.0815
23.0815
23.0814
23.0814
23.0814
23.0813
23.0813
23.0812
23.0812
23.0812
23.0811
23.0811
23.081
23.081
23.0809
23.0809
23.0809
23.0808
23.0808
23.1651
23.1651
23.1651
23.1651
23.1652
23.1652
23.1652
23.1653
23.1653
23.1653
23.1654
23.1654
23.1655
23.1655
23.1655
23.1656
23.1656
23.1656
23.1657
23.1657
23.1657
23.1658
23.1658
23.1658
23.1658
23.1658
23.1658
23.1658
23.1658
23.1658
23.1658
23.1658
23.1658
23.1658
23.1658
23.1658
23.1658
23.1658
23.1658
23.1657
23.1657
23.1657
23.1656
23.1656
23.1656
23.1655
23.1655
23.1655
23.1654
23.1654
23.1653
23.1653
23.1653
23.1652
23.1652
23.1652
23.1651
23.1651
23.1651
23.1651
23.2385
23.2385
23.2385
23.2386
23.2386
23.2386
23.2386
23.2387
23.2387
23.2388
23.2388
23.2388
23.2389
23.2389
23.2389
23.239
23.239
23.2391
23.2391
23.2391
23.2391
23.2392
23.2392
23.2392
23.2392
23.2392
23.2392
23.2392
23.2392
23.2392
23.2392
23.2392
23.2392
23.2392
23.2392
23.2392
23.2392
23.2392
23.2392
23.2391
23.2391
23.2391
23.2391
23.239
23.239
23.2389
23.2389
23.2389
23.2388
23.2388
23.2388
23.2387
23.2387
23.2386
23.2386
23.2386
23.2386
23.2385
23.2385
23.2385
23.3039
23.3039
23.3039
23.3039
23.304
23.304
23.304
23.3041
23.3041
23.3041
23.3042
23.3042
23.3042
23.3043
23.3043
23.3044
23.3044
23.3044
23.3045
23.3045
23.3045
23.3045
23.3045
23.3046
23.3046
23.3046
23.3046
23.3046
23.3046
23.3046
23.3046
23.3046
23.3046
23.3046
23.3046
23.3046
23.3046
23.3045
23.3045
23.3045
23.3045
23.3045
23.3044
23.3044
23.3044
23.3043
23.3043
23.3042
23.3042
23.3042
23.3041
23.3041
23.3041
23.304
23.304
23.304
23.3039
23.3039
23.3039
23.3039
23.3631
23.3631
23.3631
23.3631
23.3631
23.3632
23.3632
23.3632
23.3633
23.3633
23.3633
23.3634
23.3634
23.3635
23.3635
23.3635
23.3636
23.3636
23.3636
23.3636
23.3637
23.3637
23.3637
23.3637
23.3637
23.3638
23.3638
23.3638
23.3638
23.3638
23.3638
23.3638
23.3638
23.3638
23.3638
23.3637
23.3637
23.3637
23.3637
23.3637
23.3636
23.3636
23.3636
23.3636
23.3635
23.3635
23.3635
23.3634
23.3634
23.3633
23.3633
23.3633
23.3632
23.3632
23.3632
23.3631
23.3631
23.3631
23.3631
23.3631
23.4173
23.4173
23.4173
23.4174
23.4174
23.4174
23.4174
23.4175
23.4175
23.4175
23.4176
23.4176
23.4176
23.4177
23.4177
23.4178
23.4178
23.4178
23.4178
23.4179
23.4179
23.4179
23.4179
23.418
23.418
23.418
23.418
23.418
23.418
23.418
23.418
23.418
23.418
23.418
23.418
23.418
23.418
23.4179
23.4179
23.4179
23.4179
23.4178
23.4178
23.4178
23.4178
23.4177
23.4177
23.4176
23.4176
23.4176
23.4175
23.4175
23.4175
23.4174
23.4174
23.4174
23.4174
23.4173
23.4173
23.4173
23.4675
23.4675
23.4675
23.4675
23.4675
23.4676
23.4676
23.4676
23.4677
23.4677
23.4677
23.4678
23.4678
23.4679
23.4679
23.4679
23.468
23.468
23.468
23.4681
23.4681
23.4681
23.4681
23.4681
23.4682
23.4682
23.4682
23.4682
23.4682
23.4682
23.4682
23.4682
23.4682
23.4682
23.4682
23.4682
23.4681
23.4681
23.4681
23.4681
23.4681
23.468
23.468
23.468
23.4679
23.4679
23.4679
23.4678
23.4678
23.4677
23.4677
23.4677
23.4676
23.4676
23.4676
23.4675
23.4675
23.4675
23.4675
23.4675
23.5143
23.5143
23.5143
23.5143
23.5143
23.5144
23.5144
23.5144
23.5145
23.5145
23.5145
23.5146
23.5146
23.5146
23.5147
23.5147
23.5148
23.5148
23.5148
23.5149
23.5149
23.5149
23.5149
23.5149
23.515
23.515
23.515
23.515
23.515
23.515
23.515
23.515
23.515
23.515
23.515
23.515
23.5149
23.5149
23.5149
23.5149
23.5149
23.5148
23.5148
23.5148
23.5147
23.5147
23.5146
23.5146
23.5146
23.5145
23.5145
23.5145
23.5144
23.5144
23.5144
23.5143
23.5143
23.5143
23.5143
23.5143
23.5582
23.5582
23.5582
23.5582
23.5582
23.5583
23.5583
23.5583
23.5584
23.5584
23.5584
23.5585
23.5585
23.5586
23.5586
23.5586
23.5587
23.5587
23.5587
23.5588
23.5588
23.5588
23.5589
23.5589
23.5589
23.5589
23.5589
23.5589
23.5589
23.5589
23.5589
23.5589
23.5589
23.5589
23.5589
23.5589
23.5589
23.5589
23.5588
23.5588
23.5588
23.5587
23.5587
23.5587
23.5586
23.5586
23.5586
23.5585
23.5585
23.5584
23.5584
23.5584
23.5583
23.5583
23.5583
23.5582
23.5582
23.5582
23.5582
23.5582
23.5996
23.5996
23.5997
23.5997
23.5997
23.5997
23.5997
23.5998
23.5998
23.5998
23.5999
23.5999
23.6
23.6
23.6001
23.6001
23.6001
23.6002
23.6002
23.6002
23.6003
23.6003
23.6003
23.6003
23.6003
23.6004
23.6004
23.6004
23.6004
23.6004
23.6004
23.6004
23.6004
23.6004
23.6004
23.6003
23.6003
23.6003
23.6003
23.6003
23.6002
23.6002
23.6002
23.6001
23.6001
23.6001
23.6
23.6
23.5999
23.5999
23.5998
23.5998
23.5998
23.5997
23.5997
23.5997
23.5997
23.5997
23.5996
23.5996
23.6389
23.6389
23.6389
23.639
23.639
23.639
23.639
23.6391
23.6391
23.6391
23.6392
23.6392
23.6393
23.6393
23.6394
23.6394
23.6394
23.6395
23.6395
23.6395
23.6396
23.6396
23.6396
23.6396
23.6397
23.6397
23.6397
23.6397
23.6397
23.6397
23.6397
23.6397
23.6397
23.6397
23.6397
23.6397
23.6396
23.6396
23.6396
23.6396
23.6395
23.6395
23.6395
23.6394
23.6394
23.6394
23.6393
23.6393
23.6392
23.6392
23.6391
23.6391
23.6391
23.639
23.639
23.639
23.639
23.6389
23.6389
23.6389
23.6763
23.6763
23.6763
23.6764
23.6764
23.6764
23.6764
23.6765
23.6765
23.6765
23.6766
23.6766
23.6767
23.6767
23.6768