/*--------------------------------*- C++ -*----------------------------------*\
| =========                 |                                                 |
| \\      /  F ield         | foam-extend: Open Source CFD                    |
|  \\    /   O peration     | Version:     4.0                                |
|   \\  /    A nd           | Web:         http://www.foam-extend.org         |
|    \\/     M anipulation  |                                                 |
\*---------------------------------------------------------------------------*/
FoamFile
{
    version     2.0;
    format      ascii;
    class       volVectorField;
    location    "26";
    object      U;
}
// * * * * * * * * * * * * * * * * * * * * * * * * * * * * * * * * * * * * * //

dimensions      [0 1 -1 0 0 0 0];

internalField   nonuniform List<vector> 
6960
(
(1.54926e-05 -212.118 0)
(3.85898e-05 -212.112 0)
(4.55274e-05 -212.112 0)
(4.20639e-05 -212.112 0)
(3.57189e-05 -212.112 0)
(2.85089e-05 -212.112 0)
(2.1525e-05 -212.112 0)
(1.53518e-05 -212.112 0)
(1.01621e-05 -212.112 0)
(5.94144e-06 -212.112 0)
(2.5785e-06 -212.112 0)
(-5.52778e-08 -212.112 0)
(-2.0872e-06 -212.112 0)
(-3.62416e-06 -212.112 0)
(-4.75562e-06 -212.112 0)
(-5.55191e-06 -212.112 0)
(-6.06967e-06 -212.112 0)
(-6.35339e-06 -212.112 0)
(-6.4393e-06 -212.112 0)
(-6.35674e-06 -212.112 0)
(-6.13038e-06 -212.112 0)
(-5.78108e-06 -212.112 0)
(-5.32707e-06 -212.112 0)
(-4.78441e-06 -212.112 0)
(-4.1676e-06 -212.112 0)
(-3.48987e-06 -212.112 0)
(-2.76349e-06 -212.112 0)
(-2e-06 -212.112 0)
(-1.21039e-06 -212.112 0)
(-4.05242e-07 -212.112 0)
(4.05052e-07 -212.112 0)
(1.2102e-06 -212.112 0)
(1.99982e-06 -212.112 0)
(2.76331e-06 -212.112 0)
(3.4897e-06 -212.112 0)
(4.16746e-06 -212.112 0)
(4.78429e-06 -212.112 0)
(5.32698e-06 -212.112 0)
(5.78101e-06 -212.112 0)
(6.13033e-06 -212.112 0)
(6.35672e-06 -212.112 0)
(6.43932e-06 -212.112 0)
(6.35344e-06 -212.112 0)
(6.06975e-06 -212.112 0)
(5.55202e-06 -212.112 0)
(4.75577e-06 -212.112 0)
(3.62433e-06 -212.112 0)
(2.0874e-06 -212.112 0)
(5.54979e-08 -212.112 0)
(-2.57826e-06 -212.112 0)
(-5.94117e-06 -212.112 0)
(-1.01618e-05 -212.112 0)
(-1.53515e-05 -212.112 0)
(-2.15247e-05 -212.112 0)
(-2.85086e-05 -212.112 0)
(-3.57186e-05 -212.112 0)
(-4.20637e-05 -212.112 0)
(-4.55272e-05 -212.112 0)
(-3.85896e-05 -212.112 0)
(-1.54926e-05 -212.118 0)
(0.000253246 14.4561 0)
(0.000321189 14.4625 0)
(0.000134028 14.4625 0)
(0.000124024 14.4625 0)
(0.000105461 14.4625 0)
(8.42653e-05 14.4625 0)
(6.36904e-05 14.4625 0)
(4.54764e-05 14.4625 0)
(3.01459e-05 14.4625 0)
(1.76658e-05 14.4625 0)
(7.71393e-06 14.4625 0)
(-8.5709e-08 14.4625 0)
(-6.1068e-06 14.4625 0)
(-1.06639e-05 14.4625 0)
(-1.4021e-05 14.4625 0)
(-1.63855e-05 14.4625 0)
(-1.7925e-05 14.4625 0)
(-1.87709e-05 14.4625 0)
(-1.90307e-05 14.4625 0)
(-1.8791e-05 14.4625 0)
(-1.81251e-05 14.4625 0)
(-1.70948e-05 14.4625 0)
(-1.57541e-05 14.4625 0)
(-1.41505e-05 14.4625 0)
(-1.23271e-05 14.4625 0)
(-1.0323e-05 14.4625 0)
(-8.17473e-06 14.4625 0)
(-5.91643e-06 14.4625 0)
(-3.58064e-06 14.4625 0)
(-1.19881e-06 14.4625 0)
(1.19823e-06 14.4625 0)
(3.58009e-06 14.4625 0)
(5.91592e-06 14.4625 0)
(8.17417e-06 14.4625 0)
(1.03225e-05 14.4625 0)
(1.23267e-05 14.4625 0)
(1.41501e-05 14.4625 0)
(1.57538e-05 14.4625 0)
(1.70947e-05 14.4625 0)
(1.8125e-05 14.4625 0)
(1.8791e-05 14.4625 0)
(1.90308e-05 14.4625 0)
(1.8771e-05 14.4625 0)
(1.79252e-05 14.4625 0)
(1.63859e-05 14.4625 0)
(1.40214e-05 14.4625 0)
(1.06644e-05 14.4625 0)
(6.10742e-06 14.4625 0)
(8.63181e-08 14.4625 0)
(-7.7132e-06 14.4625 0)
(-1.7665e-05 14.4625 0)
(-3.0145e-05 14.4625 0)
(-4.54756e-05 14.4625 0)
(-6.36895e-05 14.4625 0)
(-8.42645e-05 14.4625 0)
(-0.00010546 14.4625 0)
(-0.000124023 14.4625 0)
(-0.000134028 14.4625 0)
(-0.000321189 14.4625 0)
(-0.000253246 14.4561 0)
(0.0002545 38.437 0)
(0.000364908 38.4336 0)
(0.000218252 38.4336 0)
(0.000202571 38.4336 0)
(0.000172534 38.4336 0)
(0.000138049 38.4336 0)
(0.000104482 38.4336 0)
(7.47098e-05 38.4336 0)
(4.96131e-05 38.4336 0)
(2.91577e-05 38.4336 0)
(1.2829e-05 38.4336 0)
(2.0055e-08 38.4336 0)
(-9.87606e-06 38.4336 0)
(-1.73719e-05 38.4336 0)
(-2.28984e-05 38.4336 0)
(-2.67951e-05 38.4336 0)
(-2.93362e-05 38.4336 0)
(-3.07377e-05 38.4336 0)
(-3.11753e-05 38.4336 0)
(-3.07919e-05 38.4336 0)
(-2.97075e-05 38.4336 0)
(-2.80238e-05 38.4336 0)
(-2.58296e-05 38.4336 0)
(-2.3203e-05 38.4336 0)
(-2.02149e-05 38.4336 0)
(-1.69297e-05 38.4336 0)
(-1.34073e-05 38.4336 0)
(-9.70382e-06 38.4336 0)
(-5.87294e-06 38.4336 0)
(-1.96631e-06 38.4336 0)
(1.96537e-06 38.4336 0)
(5.87202e-06 38.4336 0)
(9.70296e-06 38.4336 0)
(1.34064e-05 38.4336 0)
(1.69289e-05 38.4336 0)
(2.02143e-05 38.4336 0)
(2.32024e-05 38.4336 0)
(2.58291e-05 38.4336 0)
(2.80235e-05 38.4336 0)
(2.97073e-05 38.4336 0)
(3.07918e-05 38.4336 0)
(3.11754e-05 38.4336 0)
(3.07379e-05 38.4336 0)
(2.93366e-05 38.4336 0)
(2.67957e-05 38.4336 0)
(2.28991e-05 38.4336 0)
(1.73728e-05 38.4336 0)
(9.87705e-06 38.4336 0)
(-1.90231e-08 38.4336 0)
(-1.28278e-05 38.4336 0)
(-2.91564e-05 38.4336 0)
(-4.96117e-05 38.4336 0)
(-7.47084e-05 38.4336 0)
(-0.00010448 38.4336 0)
(-0.000138048 38.4336 0)
(-0.000172533 38.4336 0)
(-0.00020257 38.4336 0)
(-0.000218252 38.4336 0)
(-0.000364907 38.4336 0)
(-0.0002545 38.437 0)
(0.000188272 9.08826 0)
(0.000338171 9.08472 0)
(0.000296954 9.08472 0)
(0.000276504 9.08472 0)
(0.000235963 9.08472 0)
(0.00018911 9.08472 0)
(0.000143354 9.08472 0)
(0.000102681 9.08473 0)
(6.83325e-05 9.08472 0)
(4.02954e-05 9.08472 0)
(1.78864e-05 9.08472 0)
(2.89021e-07 9.08472 0)
(-1.33199e-05 9.08472 0)
(-2.36376e-05 9.08472 0)
(-3.12522e-05 9.08472 0)
(-3.66279e-05 9.08472 0)
(-4.01403e-05 9.08472 0)
(-4.20854e-05 9.08472 0)
(-4.27048e-05 9.08472 0)
(-4.21946e-05 9.08472 0)
(-4.07198e-05 9.08472 0)
(-3.84202e-05 9.08472 0)
(-3.54179e-05 9.08472 0)
(-3.18207e-05 9.08472 0)
(-2.77258e-05 9.08472 0)
(-2.32219e-05 9.08472 0)
(-1.83914e-05 9.08472 0)
(-1.33119e-05 9.08472 0)
(-8.05683e-06 9.08472 0)
(-2.69755e-06 9.08472 0)
(2.69628e-06 9.08472 0)
(8.05558e-06 9.08472 0)
(1.33106e-05 9.08472 0)
(1.83903e-05 9.08472 0)
(2.32208e-05 9.08472 0)
(2.77248e-05 9.08472 0)
(3.18199e-05 9.08472 0)
(3.54173e-05 9.08472 0)
(3.84198e-05 9.08472 0)
(4.07195e-05 9.08472 0)
(4.21945e-05 9.08472 0)
(4.27049e-05 9.08472 0)
(4.20857e-05 9.08472 0)
(4.01408e-05 9.08472 0)
(3.66286e-05 9.08472 0)
(3.12531e-05 9.08472 0)
(2.36387e-05 9.08472 0)
(1.33212e-05 9.08472 0)
(-2.87572e-07 9.08472 0)
(-1.78847e-05 9.08472 0)
(-4.02936e-05 9.08472 0)
(-6.83306e-05 9.08472 0)
(-0.000102679 9.08473 0)
(-0.000143352 9.08472 0)
(-0.000189108 9.08472 0)
(-0.000235961 9.08472 0)
(-0.000276502 9.08472 0)
(-0.000296953 9.08472 0)
(-0.00033817 9.08472 0)
(-0.000188272 9.08826 0)
(0.000184376 -1.51185 0)
(0.000370623 -1.5123 0)
(0.000369685 -1.5123 0)
(0.000345303 -1.5123 0)
(0.000295311 -1.5123 0)
(0.000237112 -1.5123 0)
(0.000180061 -1.5123 0)
(0.000129221 -1.5123 0)
(8.61977e-05 -1.5123 0)
(5.10221e-05 -1.5123 0)
(2.28678e-05 -1.5123 0)
(7.31959e-07 -1.5123 0)
(-1.64055e-05 -1.5123 0)
(-2.94122e-05 -1.5123 0)
(-3.90219e-05 -1.5123 0)
(-4.58156e-05 -1.5123 0)
(-5.02642e-05 -1.5123 0)
(-5.27391e-05 -1.5123 0)
(-5.3544e-05 -1.5123 0)
(-5.29255e-05 -1.5123 0)
(-5.10914e-05 -1.5123 0)
(-4.82178e-05 -1.5123 0)
(-4.44584e-05 -1.5123 0)
(-3.99491e-05 -1.5123 0)
(-3.48124e-05 -1.5123 0)
(-2.91601e-05 -1.5123 0)
(-2.30961e-05 -1.5123 0)
(-1.6718e-05 -1.5123 0)
(-1.01187e-05 -1.5123 0)
(-3.38796e-06 -1.5123 0)
(3.38636e-06 -1.5123 0)
(1.01171e-05 -1.5123 0)
(1.67165e-05 -1.5123 0)
(2.30946e-05 -1.5123 0)
(2.91587e-05 -1.5123 0)
(3.48112e-05 -1.5123 0)
(3.99481e-05 -1.5123 0)
(4.44577e-05 -1.5123 0)
(4.82172e-05 -1.5123 0)
(5.10911e-05 -1.5123 0)
(5.29254e-05 -1.5123 0)
(5.35441e-05 -1.5123 0)
(5.27395e-05 -1.5123 0)
(5.02648e-05 -1.5123 0)
(4.58166e-05 -1.5123 0)
(3.90231e-05 -1.5123 0)
(2.94136e-05 -1.5123 0)
(1.64072e-05 -1.5123 0)
(-7.30129e-07 -1.5123 0)
(-2.28657e-05 -1.5123 0)
(-5.10198e-05 -1.5123 0)
(-8.61953e-05 -1.5123 0)
(-0.000129218 -1.5123 0)
(-0.000180059 -1.5123 0)
(-0.000237109 -1.5123 0)
(-0.000295309 -1.5123 0)
(-0.000345301 -1.5123 0)
(-0.000369684 -1.5123 0)
(-0.000370622 -1.5123 0)
(-0.000184376 -1.51185 0)
(0.000212275 -0.924584 0)
(0.00043152 -0.924089 0)
(0.00043607 -0.924078 0)
(0.000408638 -0.92408 0)
(0.000350292 -0.924078 0)
(0.000281828 -0.924077 0)
(0.000214438 -0.924078 0)
(0.000154214 -0.924079 0)
(0.000103136 -0.924079 0)
(6.12983e-05 -0.92408 0)
(2.77595e-05 -0.924081 0)
(1.35494e-06 -0.924081 0)
(-1.91121e-05 -0.924082 0)
(-3.46637e-05 -0.924082 0)
(-4.61679e-05 -0.924083 0)
(-5.43133e-05 -0.924083 0)
(-5.96596e-05 -0.924083 0)
(-6.26487e-05 -0.924084 0)
(-6.36426e-05 -0.924084 0)
(-6.29355e-05 -0.924084 0)
(-6.07753e-05 -0.924084 0)
(-5.73724e-05 -0.924084 0)
(-5.29106e-05 -0.924084 0)
(-4.7552e-05 -0.924085 0)
(-4.14433e-05 -0.924085 0)
(-3.4718e-05 -0.924085 0)
(-2.75004e-05 -0.924085 0)
(-1.99072e-05 -0.924085 0)
(-1.20494e-05 -0.924085 0)
(-4.03449e-06 -0.924085 0)
(4.03258e-06 -0.924085 0)
(1.20475e-05 -0.924085 0)
(1.99053e-05 -0.924085 0)
(2.74987e-05 -0.924085 0)
(3.47164e-05 -0.924085 0)
(4.14419e-05 -0.924085 0)
(4.75508e-05 -0.924085 0)
(5.29097e-05 -0.924084 0)
(5.73718e-05 -0.924084 0)
(6.07749e-05 -0.924084 0)
(6.29353e-05 -0.924084 0)
(6.36428e-05 -0.924084 0)
(6.26492e-05 -0.924084 0)
(5.96604e-05 -0.924083 0)
(5.43145e-05 -0.924083 0)
(4.61693e-05 -0.924083 0)
(3.46654e-05 -0.924082 0)
(1.91141e-05 -0.924082 0)
(-1.35276e-06 -0.924081 0)
(-2.7757e-05 -0.924081 0)
(-6.12956e-05 -0.92408 0)
(-0.000103133 -0.924079 0)
(-0.000154211 -0.924079 0)
(-0.000214435 -0.924078 0)
(-0.000281826 -0.924077 0)
(-0.000350289 -0.924078 0)
(-0.000408636 -0.92408 0)
(-0.000436069 -0.924078 0)
(-0.000431519 -0.924089 0)
(-0.000212275 -0.924584 0)
(0.00023407 0.153883 0)
(0.000482775 0.154095 0)
(0.000495773 0.154109 0)
(0.000466229 0.154108 0)
(0.000400662 0.154111 0)
(0.000323069 0.154112 0)
(0.000246341 0.154111 0)
(0.000177563 0.15411 0)
(0.000119084 0.154109 0)
(7.10894e-05 0.154108 0)
(3.25489e-05 0.154107 0)
(2.16231e-06 0.154106 0)
(-2.14226e-05 0.154105 0)
(-3.93657e-05 0.154105 0)
(-5.26569e-05 0.154104 0)
(-6.20832e-05 0.154104 0)
(-6.82859e-05 0.154103 0)
(-7.17724e-05 0.154103 0)
(-7.29586e-05 0.154103 0)
(-7.21832e-05 0.154102 0)
(-6.97319e-05 0.154102 0)
(-6.58469e-05 0.154102 0)
(-6.07403e-05 0.154102 0)
(-5.45989e-05 0.154102 0)
(-4.75918e-05 0.154102 0)
(-3.98734e-05 0.154102 0)
(-3.15868e-05 0.154102 0)
(-2.28667e-05 0.154102 0)
(-1.38414e-05 0.154101 0)
(-4.63457e-06 0.154101 0)
(4.63238e-06 0.154101 0)
(1.38392e-05 0.154101 0)
(2.28646e-05 0.154102 0)
(3.15848e-05 0.154102 0)
(3.98716e-05 0.154102 0)
(4.75902e-05 0.154102 0)
(5.45975e-05 0.154102 0)
(6.07392e-05 0.154102 0)
(6.58462e-05 0.154102 0)
(6.97314e-05 0.154102 0)
(7.21831e-05 0.154102 0)
(7.29588e-05 0.154103 0)
(7.17729e-05 0.154103 0)
(6.82868e-05 0.154103 0)
(6.20845e-05 0.154104 0)
(5.26585e-05 0.154104 0)
(3.93676e-05 0.154105 0)
(2.14248e-05 0.154105 0)
(-2.1598e-06 0.154106 0)
(-3.25461e-05 0.154107 0)
(-7.10863e-05 0.154108 0)
(-0.000119081 0.154109 0)
(-0.00017756 0.15411 0)
(-0.000246338 0.154111 0)
(-0.000323066 0.154112 0)
(-0.000400659 0.154111 0)
(-0.000466226 0.154108 0)
(-0.000495771 0.154109 0)
(-0.000482774 0.154095 0)
(-0.00023407 0.153883 0)
(0.000246441 0.201411 0)
(0.000520945 0.201417 0)
(0.000548543 0.201437 0)
(0.000517832 0.201438 0)
(0.000446215 0.201441 0)
(0.000360671 0.201442 0)
(0.00027565 0.201441 0)
(0.000199181 0.20144 0)
(0.000133987 0.201438 0)
(8.03644e-05 0.201437 0)
(3.72242e-05 0.201435 0)
(3.15695e-06 0.201434 0)
(-2.33229e-05 0.201433 0)
(-4.3496e-05 0.201432 0)
(-5.84608e-05 0.201432 0)
(-6.90931e-05 0.201431 0)
(-7.61085e-05 0.201431 0)
(-8.00741e-05 0.20143 0)
(-8.1456e-05 0.20143 0)
(-8.06335e-05 0.20143 0)
(-7.79273e-05 0.20143 0)
(-7.36095e-05 0.201429 0)
(-6.79182e-05 0.201429 0)
(-6.10635e-05 0.201429 0)
(-5.32354e-05 0.201429 0)
(-4.46073e-05 0.201429 0)
(-3.53403e-05 0.201429 0)
(-2.55858e-05 0.201429 0)
(-1.54879e-05 0.201429 0)
(-5.18601e-06 0.201429 0)
(5.18356e-06 0.201429 0)
(1.54855e-05 0.201429 0)
(2.55834e-05 0.201429 0)
(3.53381e-05 0.201429 0)
(4.46052e-05 0.201429 0)
(5.32336e-05 0.201429 0)
(6.10619e-05 0.201429 0)
(6.7917e-05 0.201429 0)
(7.36087e-05 0.201429 0)
(7.79268e-05 0.20143 0)
(8.06333e-05 0.20143 0)
(8.14562e-05 0.20143 0)
(8.00747e-05 0.20143 0)
(7.61095e-05 0.201431 0)
(6.90946e-05 0.201431 0)
(5.84627e-05 0.201432 0)
(4.34982e-05 0.201432 0)
(2.33254e-05 0.201433 0)
(-3.15414e-06 0.201434 0)
(-3.7221e-05 0.201435 0)
(-8.03609e-05 0.201437 0)
(-0.000133984 0.201438 0)
(-0.000199177 0.20144 0)
(-0.000275646 0.201441 0)
(-0.000360667 0.201442 0)
(-0.000446212 0.201441 0)
(-0.000517829 0.201438 0)
(-0.000548541 0.201437 0)
(-0.000520944 0.201417 0)
(-0.000246441 0.201411 0)
(0.000255284 0.0479431 0)
(0.000551846 0.0479653 0)
(0.000594192 0.047991 0)
(0.000563248 0.0479935 0)
(0.000486777 0.0479982 0)
(0.000394493 0.0479993 0)
(0.000302258 0.0479984 0)
(0.000218994 0.0479966 0)
(0.000147796 0.0479945 0)
(8.90953e-05 0.0479925 0)
(4.1774e-05 0.0479907 0)
(4.34027e-06 0.0479893 0)
(-2.4802e-05 0.047988 0)
(-4.70362e-05 0.047987 0)
(-6.35562e-05 0.0479862 0)
(-7.5316e-05 0.0479854 0)
(-8.3098e-05 0.0479849 0)
(-8.75236e-05 0.0479844 0)
(-8.91039e-05 0.0479839 0)
(-8.82559e-05 0.0479836 0)
(-8.53325e-05 0.0479833 0)
(-8.06329e-05 0.047983 0)
(-7.44193e-05 0.0479828 0)
(-6.69234e-05 0.0479826 0)
(-5.83544e-05 0.0479824 0)
(-4.89034e-05 0.0479823 0)
(-3.8748e-05 0.0479822 0)
(-2.8055e-05 0.0479821 0)
(-1.69835e-05 0.0479821 0)
(-5.68692e-06 0.047982 0)
(5.68423e-06 0.047982 0)
(1.69808e-05 0.0479821 0)
(2.80524e-05 0.0479821 0)
(3.87455e-05 0.0479822 0)
(4.89011e-05 0.0479823 0)
(5.83524e-05 0.0479824 0)
(6.69217e-05 0.0479826 0)
(7.4418e-05 0.0479828 0)
(8.0632e-05 0.047983 0)
(8.53319e-05 0.0479833 0)
(8.82557e-05 0.0479836 0)
(8.91041e-05 0.0479839 0)
(8.75242e-05 0.0479844 0)
(8.30992e-05 0.0479849 0)
(7.53176e-05 0.0479854 0)
(6.35582e-05 0.0479862 0)
(4.70386e-05 0.047987 0)
(2.48047e-05 0.047988 0)
(-4.33719e-06 0.0479893 0)
(-4.17706e-05 0.0479907 0)
(-8.90915e-05 0.0479925 0)
(-0.000147792 0.0479945 0)
(-0.00021899 0.0479966 0)
(-0.000302253 0.0479984 0)
(-0.000394489 0.0479993 0)
(-0.000486774 0.0479982 0)
(-0.000563245 0.0479935 0)
(-0.00059419 0.047991 0)
(-0.000551844 0.0479653 0)
(-0.000255284 0.0479431 0)
(0.000262379 -0.00383786 0)
(0.000577193 -0.00376725 0)
(0.000632575 -0.00373497 0)
(0.000602315 -0.00373003 0)
(0.000522205 -0.00372409 0)
(0.000424417 -0.0037227 0)
(0.000326074 -0.00372379 0)
(0.000236936 -0.00372605 0)
(0.000160467 -0.00372863 0)
(9.72569e-05 -0.0037311 0)
(4.61873e-05 -0.00373328 0)
(5.71226e-06 -0.00373513 0)
(-2.58514e-05 -0.00373667 0)
(-4.99718e-05 -0.00373795 0)
(-6.79237e-05 -0.00373901 0)
(-8.07295e-05 -0.00373989 0)
(-8.92302e-05 -0.00374062 0)
(-9.40953e-05 -0.00374125 0)
(-9.58768e-05 -0.00374178 0)
(-9.50255e-05 -0.00374223 0)
(-9.19232e-05 -0.00374262 0)
(-8.68942e-05 -0.00374295 0)
(-8.02228e-05 -0.00374323 0)
(-7.21598e-05 -0.00374347 0)
(-6.29325e-05 -0.00374366 0)
(-5.2748e-05 -0.00374382 0)
(-4.1799e-05 -0.00374395 0)
(-3.02666e-05 -0.00374404 0)
(-1.83232e-05 -0.0037441 0)
(-6.13571e-06 -0.00374413 0)
(6.13281e-06 -0.00374413 0)
(1.83204e-05 -0.0037441 0)
(3.02638e-05 -0.00374404 0)
(4.17963e-05 -0.00374395 0)
(5.27455e-05 -0.00374382 0)
(6.29304e-05 -0.00374366 0)
(7.2158e-05 -0.00374347 0)
(8.02214e-05 -0.00374323 0)
(8.68932e-05 -0.00374295 0)
(9.19226e-05 -0.00374262 0)
(9.50253e-05 -0.00374223 0)
(9.5877e-05 -0.00374178 0)
(9.4096e-05 -0.00374125 0)
(8.92314e-05 -0.00374062 0)
(8.07312e-05 -0.00373989 0)
(6.79259e-05 -0.00373901 0)
(4.99744e-05 -0.00373795 0)
(2.58543e-05 -0.00373667 0)
(-5.70893e-06 -0.00373513 0)
(-4.61836e-05 -0.00373328 0)
(-9.72529e-05 -0.0037311 0)
(-0.000160463 -0.00372863 0)
(-0.000236932 -0.00372605 0)
(-0.00032607 -0.00372379 0)
(-0.000424413 -0.0037227 0)
(-0.000522202 -0.00372409 0)
(-0.000602312 -0.00373003 0)
(-0.000632573 -0.00373497 0)
(-0.000577192 -0.00376725 0)
(-0.000262379 -0.00383786 0)
(0.000267081 -0.0032252 0)
(0.000596304 -0.00313563 0)
(0.000663594 -0.00309631 0)
(0.000634916 -0.00308853 0)
(0.000552389 -0.00308119 0)
(0.000450351 -0.00307942 0)
(0.000347026 -0.00308068 0)
(0.000252955 -0.00308339 0)
(0.000171964 -0.00308649 0)
(0.000104827 -0.00308948 0)
(5.04534e-05 -0.00309213 0)
(7.27133e-06 -0.00309439 0)
(-2.64657e-05 -0.00309626 0)
(-5.2292e-05 -0.00309782 0)
(-7.15491e-05 -0.00309911 0)
(-8.53165e-05 -0.00310019 0)
(-9.44862e-05 -0.00310109 0)
(-9.97696e-05 -0.00310185 0)
(-0.000101755 -0.0031025 0)
(-0.000100922 -0.00310305 0)
(-9.76805e-05 -0.00310352 0)
(-9.23757e-05 -0.00310392 0)
(-8.5312e-05 -0.00310427 0)
(-7.6758e-05 -0.00310456 0)
(-6.69568e-05 -0.0031048 0)
(-5.61303e-05 -0.00310499 0)
(-4.44848e-05 -0.00310514 0)
(-3.22143e-05 -0.00310526 0)
(-1.95035e-05 -0.00310533 0)
(-6.53113e-06 -0.00310537 0)
(6.52804e-06 -0.00310537 0)
(1.95005e-05 -0.00310533 0)
(3.22113e-05 -0.00310526 0)
(4.4482e-05 -0.00310514 0)
(5.61277e-05 -0.00310499 0)
(6.69545e-05 -0.0031048 0)
(7.67561e-05 -0.00310456 0)
(8.53105e-05 -0.00310427 0)
(9.23746e-05 -0.00310392 0)
(9.76798e-05 -0.00310352 0)
(0.000100922 -0.00310305 0)
(0.000101755 -0.0031025 0)
(9.97704e-05 -0.00310185 0)
(9.44875e-05 -0.00310109 0)
(8.53184e-05 -0.00310019 0)
(7.15514e-05 -0.00309911 0)
(5.22948e-05 -0.00309782 0)
(2.64689e-05 -0.00309626 0)
(-7.26778e-06 -0.00309439 0)
(-5.04494e-05 -0.00309213 0)
(-0.000104823 -0.00308948 0)
(-0.000171959 -0.00308649 0)
(-0.00025295 -0.00308339 0)
(-0.000347022 -0.00308068 0)
(-0.000450347 -0.00307942 0)
(-0.000552385 -0.00308119 0)
(-0.000634913 -0.00308853 0)
(-0.000663592 -0.00309631 0)
(-0.000596302 -0.00313563 0)
(-0.000267081 -0.0032252 0)
(0.000268949 -0.000353823 0)
(0.000608727 -0.000257464 0)
(0.000687211 -0.000210688 0)
(0.000660985 -0.000199693 0)
(0.000577257 -0.000190793 0)
(0.000472231 -0.000188572 0)
(0.000365062 -0.000189991 0)
(0.000267008 -0.000193157 0)
(0.000182258 -0.000196824 0)
(0.000111787 -0.000200373 0)
(5.45622e-05 -0.000203525 0)
(9.01414e-06 -0.000206215 0)
(-2.66431e-05 -0.00020846 0)
(-5.3991e-05 -0.000210322 0)
(-7.44234e-05 -0.000211867 0)
(-8.90661e-05 -0.000213154 0)
(-9.88538e-05 -0.000214234 0)
(-0.000104533 -0.000215148 0)
(-0.000106724 -0.000215924 0)
(-0.000105933 -0.000216587 0)
(-0.000102591 -0.000217154 0)
(-9.70649e-05 -0.000217639 0)
(-8.96756e-05 -0.000218051 0)
(-8.07077e-05 -0.000218397 0)
(-7.04184e-05 -0.000218685 0)
(-5.90428e-05 -0.000218919 0)
(-4.67996e-05 -0.000219102 0)
(-3.38939e-05 -0.000219237 0)
(-2.05217e-05 -0.000219326 0)
(-6.87232e-06 -0.00021937 0)
(6.86907e-06 -0.00021937 0)
(2.05185e-05 -0.000219326 0)
(3.38908e-05 -0.000219237 0)
(4.67966e-05 -0.000219102 0)
(5.90401e-05 -0.000218919 0)
(7.0416e-05 -0.000218685 0)
(8.07056e-05 -0.000218397 0)
(8.9674e-05 -0.000218051 0)
(9.70638e-05 -0.000217639 0)
(0.000102591 -0.000217155 0)
(0.000105933 -0.000216587 0)
(0.000106724 -0.000215924 0)
(0.000104534 -0.000215148 0)
(9.88552e-05 -0.000214235 0)
(8.90681e-05 -0.000213154 0)
(7.44258e-05 -0.000211867 0)
(5.3994e-05 -0.000210322 0)
(2.66465e-05 -0.00020846 0)
(-9.0104e-06 -0.000206215 0)
(-5.4558e-05 -0.000203526 0)
(-0.000111783 -0.000200373 0)
(-0.000182254 -0.000196825 0)
(-0.000267003 -0.000193157 0)
(-0.000365057 -0.000189991 0)
(-0.000472227 -0.000188572 0)
(-0.000577253 -0.000190793 0)
(-0.000660982 -0.000199692 0)
(-0.000687208 -0.000210688 0)
(-0.000608725 -0.000257464 0)
(-0.000268949 -0.000353823 0)
(0.000268023 -0.00188913 0)
(0.000614535 -0.00178443 0)
(0.000703455 -0.00172984 0)
(0.000680512 -0.0017153 0)
(0.000596786 -0.00170467 0)
(0.000490028 -0.00170193 0)
(0.000380152 -0.00170348 0)
(0.000279073 -0.00170712 0)
(0.000191331 -0.00171138 0)
(0.000118123 -0.00171552 0)
(5.85044e-05 -0.0017192 0)
(1.09353e-05 -0.00172236 0)
(-2.63858e-05 -0.001725 0)
(-5.50685e-05 -0.00172719 0)
(-7.65443e-05 -0.00172901 0)
(-9.19746e-05 -0.00173053 0)
(-0.000102328 -0.0017318 0)
(-0.000108381 -0.00173288 0)
(-0.000110779 -0.0017338 0)
(-0.000110052 -0.00173458 0)
(-0.00010665 -0.00173525 0)
(-0.000100956 -0.00173582 0)
(-9.33085e-05 -0.00173631 0)
(-8.40041e-05 -0.00173672 0)
(-7.33132e-05 -0.00173706 0)
(-6.14822e-05 -0.00173734 0)
(-4.87404e-05 -0.00173755 0)
(-3.53034e-05 -0.00173771 0)
(-2.13767e-05 -0.00173782 0)
(-7.15886e-06 -0.00173787 0)
(7.15548e-06 -0.00173787 0)
(2.13733e-05 -0.00173782 0)
(3.53001e-05 -0.00173771 0)
(4.87373e-05 -0.00173755 0)
(6.14794e-05 -0.00173734 0)
(7.33107e-05 -0.00173706 0)
(8.4002e-05 -0.00173672 0)
(9.33068e-05 -0.00173631 0)
(0.000100955 -0.00173582 0)
(0.000106649 -0.00173525 0)
(0.000110052 -0.00173458 0)
(0.00011078 -0.0017338 0)
(0.000108382 -0.00173288 0)
(0.00010233 -0.0017318 0)
(9.19766e-05 -0.00173053 0)
(7.65468e-05 -0.00172901 0)
(5.50715e-05 -0.00172719 0)
(2.63892e-05 -0.001725 0)
(-1.09314e-05 -0.00172236 0)
(-5.85e-05 -0.0017192 0)
(-0.000118118 -0.00171552 0)
(-0.000191326 -0.00171138 0)
(-0.000279068 -0.00170712 0)
(-0.000380147 -0.00170348 0)
(-0.000490023 -0.00170193 0)
(-0.000596782 -0.00170467 0)
(-0.000680508 -0.0017153 0)
(-0.000703452 -0.00172984 0)
(-0.000614533 -0.00178443 0)
(-0.000268023 -0.00188913 0)
(0.000264458 -0.00455367 0)
(0.000613955 -0.00443855 0)
(0.000712439 -0.00437588 0)
(0.000693557 -0.00435746 0)
(0.000611007 -0.00434496 0)
(0.000503752 -0.00434161 0)
(0.000392297 -0.00434327 0)
(0.000289143 -0.00434739 0)
(0.000199173 -0.00435225 0)
(0.000123826 -0.00435701 0)
(6.22714e-05 -0.00436126 0)
(1.30271e-05 -0.00436491 0)
(-2.57005e-05 -0.00436796 0)
(-5.55304e-05 -0.00437051 0)
(-7.79172e-05 -0.00437262 0)
(-9.40468e-05 -0.00437439 0)
(-0.000104914 -0.00437587 0)
(-0.000111317 -0.00437713 0)
(-0.000113924 -0.0043782 0)
(-0.000113282 -0.00437911 0)
(-0.000109859 -0.00437989 0)
(-0.000104052 -0.00438056 0)
(-9.62127e-05 -0.00438113 0)
(-8.66492e-05 -0.0043816 0)
(-7.56427e-05 -0.004382 0)
(-6.34495e-05 -0.00438232 0)
(-5.03084e-05 -0.00438258 0)
(-3.64434e-05 -0.00438276 0)
(-2.20687e-05 -0.00438288 0)
(-7.39089e-06 -0.00438295 0)
(7.3874e-06 -0.00438295 0)
(2.20652e-05 -0.00438288 0)
(3.644e-05 -0.00438276 0)
(5.03052e-05 -0.00438258 0)
(6.34466e-05 -0.00438232 0)
(7.56401e-05 -0.004382 0)
(8.6647e-05 -0.0043816 0)
(9.6211e-05 -0.00438113 0)
(0.000104051 -0.00438056 0)
(0.000109858 -0.00437989 0)
(0.000113282 -0.00437911 0)
(0.000113924 -0.0043782 0)
(0.000111318 -0.00437713 0)
(0.000104915 -0.00437587 0)
(9.40488e-05 -0.00437439 0)
(7.79198e-05 -0.00437262 0)
(5.55335e-05 -0.00437051 0)
(2.57041e-05 -0.00436796 0)
(-1.30231e-05 -0.00436491 0)
(-6.22669e-05 -0.00436126 0)
(-0.000123821 -0.00435701 0)
(-0.000199168 -0.00435225 0)
(-0.000289138 -0.00434739 0)
(-0.000392292 -0.00434327 0)
(-0.000503747 -0.00434161 0)
(-0.000611002 -0.00434496 0)
(-0.000693554 -0.00435746 0)
(-0.000712436 -0.00437588 0)
(-0.000613953 -0.00443855 0)
(-0.000264457 -0.00455367 0)
(0.000258396 -0.00778468 0)
(0.000607254 -0.0076589 0)
(0.000714371 -0.00758797 0)
(0.000700261 -0.0075654 0)
(0.000620012 -0.00755086 0)
(0.000513462 -0.00754682 0)
(0.000401531 -0.00754855 0)
(0.000297234 -0.00755313 0)
(0.00020579 -0.00755861 0)
(0.000128893 -0.00756401 0)
(6.5856e-05 -0.00756885 0)
(1.52791e-05 -0.00757302 0)
(-2.45997e-05 -0.00757651 0)
(-5.53904e-05 -0.00757943 0)
(-7.85564e-05 -0.00758186 0)
(-9.52972e-05 -0.00758389 0)
(-0.000106625 -0.0075856 0)
(-0.000113355 -0.00758704 0)
(-0.000116171 -0.00758827 0)
(-0.000115637 -0.00758932 0)
(-0.000112231 -0.00759023 0)
(-0.000106365 -0.007591 0)
(-9.83987e-05 -0.00759165 0)
(-8.86522e-05 -0.0075922 0)
(-7.74149e-05 -0.00759266 0)
(-6.49516e-05 -0.00759303 0)
(-5.15087e-05 -0.00759332 0)
(-3.73178e-05 -0.00759354 0)
(-2.26001e-05 -0.00759368 0)
(-7.56919e-06 -0.00759375 0)
(7.56561e-06 -0.00759375 0)
(2.25966e-05 -0.00759368 0)
(3.73144e-05 -0.00759354 0)
(5.15054e-05 -0.00759332 0)
(6.49486e-05 -0.00759303 0)
(7.74123e-05 -0.00759266 0)
(8.86499e-05 -0.0075922 0)
(9.8397e-05 -0.00759165 0)
(0.000106364 -0.007591 0)
(0.00011223 -0.00759023 0)
(0.000115636 -0.00758932 0)
(0.000116172 -0.00758827 0)
(0.000113356 -0.00758704 0)
(0.000106626 -0.0075856 0)
(9.52994e-05 -0.00758389 0)
(7.85591e-05 -0.00758186 0)
(5.53937e-05 -0.00757943 0)
(2.46034e-05 -0.00757651 0)
(-1.5275e-05 -0.00757302 0)
(-6.58514e-05 -0.00756885 0)
(-0.000128888 -0.00756401 0)
(-0.000205784 -0.00755861 0)
(-0.000297229 -0.00755313 0)
(-0.000401525 -0.00754855 0)
(-0.000513457 -0.00754682 0)
(-0.000620007 -0.00755086 0)
(-0.000700257 -0.0075654 0)
(-0.000714368 -0.00758797 0)
(-0.000607252 -0.0076589 0)
(-0.000258396 -0.00778468 0)
(0.00025001 -0.0130133 0)
(0.000594784 -0.0128768 0)
(0.000709564 -0.0127976 0)
(0.000700857 -0.0127706 0)
(0.000623969 -0.0127538 0)
(0.000519271 -0.012749 0)
(0.000407924 -0.0127507 0)
(0.000303389 -0.0127558 0)
(0.000211201 -0.0127619 0)
(0.00013333 -0.0127679 0)
(6.92522e-05 -0.0127734 0)
(1.76778e-05 -0.0127781 0)
(-2.31021e-05 -0.012782 0)
(-5.4671e-05 -0.0127854 0)
(-7.84868e-05 -0.0127881 0)
(-9.57522e-05 -0.0127904 0)
(-0.000107488 -0.0127924 0)
(-0.000114522 -0.012794 0)
(-0.000117549 -0.0127954 0)
(-0.000117141 -0.0127966 0)
(-0.00011379 -0.0127977 0)
(-0.000107916 -0.0127985 0)
(-9.98869e-05 -0.0127993 0)
(-9.00312e-05 -0.0127999 0)
(-7.86455e-05 -0.0128004 0)
(-6.60014e-05 -0.0128009 0)
(-5.23516e-05 -0.0128012 0)
(-3.79339e-05 -0.0128014 0)
(-2.29754e-05 -0.0128016 0)
(-7.69523e-06 -0.0128017 0)
(7.69159e-06 -0.0128017 0)
(2.29718e-05 -0.0128016 0)
(3.79305e-05 -0.0128014 0)
(5.23483e-05 -0.0128012 0)
(6.59983e-05 -0.0128009 0)
(7.86428e-05 -0.0128004 0)
(9.00289e-05 -0.0127999 0)
(9.98851e-05 -0.0127993 0)
(0.000107914 -0.0127985 0)
(0.000113789 -0.0127977 0)
(0.000117141 -0.0127966 0)
(0.000117549 -0.0127954 0)
(0.000114523 -0.012794 0)
(0.00010749 -0.0127924 0)
(9.57544e-05 -0.0127904 0)
(7.84896e-05 -0.0127881 0)
(5.46743e-05 -0.0127854 0)
(2.31059e-05 -0.012782 0)
(-1.76736e-05 -0.0127781 0)
(-6.92475e-05 -0.0127734 0)
(-0.000133325 -0.0127679 0)
(-0.000211196 -0.0127619 0)
(-0.000303383 -0.0127558 0)
(-0.000407919 -0.0127507 0)
(-0.000519266 -0.012749 0)
(-0.000623965 -0.0127538 0)
(-0.000700853 -0.0127706 0)
(-0.000709561 -0.0127976 0)
(-0.000594782 -0.0128768 0)
(-0.000250009 -0.0130133 0)
(0.00023954 -0.0225633 0)
(0.000577032 -0.0224151 0)
(0.000698458 -0.0223274 0)
(0.000695683 -0.0222958 0)
(0.000623132 -0.0222767 0)
(0.000521357 -0.0222709 0)
(0.000411594 -0.0222726 0)
(0.000307677 -0.0222781 0)
(0.000215444 -0.0222848 0)
(0.000137149 -0.0222915 0)
(7.24556e-05 -0.0222976 0)
(2.02063e-05 -0.0223029 0)
(-2.12339e-05 -0.0223073 0)
(-5.34045e-05 -0.022311 0)
(-7.7745e-05 -0.0223141 0)
(-9.5451e-05 -0.0223167 0)
(-0.000107545 -0.0223189 0)
(-0.00011486 -0.0223208 0)
(-0.000118096 -0.0223224 0)
(-0.000117834 -0.0223237 0)
(-0.000114574 -0.0223249 0)
(-0.00010874 -0.0223259 0)
(-0.000100709 -0.0223268 0)
(-9.08144e-05 -0.0223275 0)
(-7.93589e-05 -0.0223281 0)
(-6.66192e-05 -0.0223286 0)
(-5.28532e-05 -0.0223289 0)
(-3.83034e-05 -0.0223292 0)
(-2.32016e-05 -0.0223294 0)
(-7.77138e-06 -0.0223295 0)
(7.7677e-06 -0.0223295 0)
(2.31979e-05 -0.0223294 0)
(3.82999e-05 -0.0223292 0)
(5.28499e-05 -0.0223289 0)
(6.66161e-05 -0.0223286 0)
(7.93562e-05 -0.0223281 0)
(9.08121e-05 -0.0223275 0)
(0.000100707 -0.0223268 0)
(0.000108738 -0.0223259 0)
(0.000114573 -0.0223249 0)
(0.000117834 -0.0223237 0)
(0.000118096 -0.0223224 0)
(0.000114861 -0.0223208 0)
(0.000107547 -0.0223189 0)
(9.54532e-05 -0.0223167 0)
(7.77478e-05 -0.0223141 0)
(5.34078e-05 -0.022311 0)
(2.12377e-05 -0.0223073 0)
(-2.0202e-05 -0.0223029 0)
(-7.24509e-05 -0.0222976 0)
(-0.000137144 -0.0222915 0)
(-0.000215439 -0.0222848 0)
(-0.000307671 -0.0222781 0)
(-0.000411589 -0.0222726 0)
(-0.000521352 -0.0222709 0)
(-0.000623127 -0.0222767 0)
(-0.000695679 -0.0222958 0)
(-0.000698455 -0.0223274 0)
(-0.00057703 -0.0224151 0)
(-0.000239539 -0.0225633 0)
(0.000227331 -0.0393522 0)
(0.000554665 -0.0391891 0)
(0.000681629 -0.0390932 0)
(0.000685197 -0.0390567 0)
(0.000617846 -0.039035 0)
(0.000519966 -0.0390283 0)
(0.000412708 -0.0390299 0)
(0.000310204 -0.0390357 0)
(0.000218577 -0.039043 0)
(0.000140374 -0.0390504 0)
(7.54638e-05 -0.0390571 0)
(2.28435e-05 -0.0390629 0)
(-1.90291e-05 -0.0390679 0)
(-5.16344e-05 -0.039072 0)
(-7.6381e-05 -0.0390755 0)
(-9.44478e-05 -0.0390784 0)
(-0.000106852 -0.0390809 0)
(-0.000114425 -0.039083 0)
(-0.00011787 -0.0390847 0)
(-0.000117771 -0.0390863 0)
(-0.000114633 -0.0390876 0)
(-0.000108885 -0.0390887 0)
(-0.000100909 -0.0390897 0)
(-9.10412e-05 -0.0390905 0)
(-7.95892e-05 -0.0390912 0)
(-6.68336e-05 -0.0390917 0)
(-5.3036e-05 -0.0390921 0)
(-3.84425e-05 -0.0390925 0)
(-2.32884e-05 -0.0390927 0)
(-7.8009e-06 -0.0390928 0)
(7.7972e-06 -0.0390928 0)
(2.32848e-05 -0.0390927 0)
(3.8439e-05 -0.0390925 0)
(5.30326e-05 -0.0390921 0)
(6.68305e-05 -0.0390917 0)
(7.95865e-05 -0.0390912 0)
(9.10389e-05 -0.0390905 0)
(0.000100907 -0.0390897 0)
(0.000108884 -0.0390887 0)
(0.000114632 -0.0390876 0)
(0.000117771 -0.0390863 0)
(0.00011787 -0.0390847 0)
(0.000114426 -0.039083 0)
(0.000106854 -0.0390809 0)
(9.44501e-05 -0.0390784 0)
(7.63838e-05 -0.0390755 0)
(5.16377e-05 -0.039072 0)
(1.90329e-05 -0.0390679 0)
(-2.28393e-05 -0.0390629 0)
(-7.5459e-05 -0.0390571 0)
(-0.000140368 -0.0390504 0)
(-0.000218572 -0.039043 0)
(-0.000310198 -0.0390357 0)
(-0.000412703 -0.0390299 0)
(-0.00051996 -0.0390283 0)
(-0.000617842 -0.039035 0)
(-0.000685193 -0.0390567 0)
(-0.000681626 -0.0390932 0)
(-0.000554663 -0.0391891 0)
(-0.00022733 -0.0393522 0)
(0.000213858 -0.0648107 0)
(0.000528554 -0.0646279 0)
(0.000659801 -0.064524 0)
(0.000669986 -0.0644825 0)
(0.000608561 -0.0644582 0)
(0.000515421 -0.0644503 0)
(0.000411486 -0.0644517 0)
(0.000311108 -0.0644579 0)
(0.000220678 -0.0644658 0)
(0.000143036 -0.0644738 0)
(7.82763e-05 -0.0644811 0)
(2.55647e-05 -0.0644875 0)
(-1.65305e-05 -0.064493 0)
(-4.94163e-05 -0.0644976 0)
(-7.44591e-05 -0.0645014 0)
(-9.28126e-05 -0.0645047 0)