/*--------------------------------*- C++ -*----------------------------------*\
| =========                 |                                                 |
| \\      /  F ield         | foam-extend: Open Source CFD                    |
|  \\    /   O peration     | Version:     4.0                                |
|   \\  /    A nd           | Web:         http://www.foam-extend.org         |
|    \\/     M anipulation  |                                                 |
\*---------------------------------------------------------------------------*/
FoamFile
{
    version     2.0;
    format      ascii;
    class       volScalarField;
    location    "16";
    object      cMinus;
}
// * * * * * * * * * * * * * * * * * * * * * * * * * * * * * * * * * * * * * //

dimensions      [0 -3 0 0 0 0 0];

internalField   nonuniform List<scalar> 
6960
(
5.20023e-08
5.19851e-08
5.19693e-08
5.1955e-08
5.1942e-08
5.19304e-08
5.192e-08
5.19109e-08
5.19028e-08
5.18958e-08
5.18896e-08
5.18844e-08
5.18799e-08
5.1876e-08
5.18727e-08
5.187e-08
5.18677e-08
5.18658e-08
5.18642e-08
5.18629e-08
5.18619e-08
5.1861e-08
5.18603e-08
5.18597e-08
5.18593e-08
5.1859e-08
5.18587e-08
5.18585e-08
5.18584e-08
5.18584e-08
5.18584e-08
5.18584e-08
5.18585e-08
5.18587e-08
5.1859e-08
5.18593e-08
5.18597e-08
5.18603e-08
5.1861e-08
5.18619e-08
5.18629e-08
5.18642e-08
5.18658e-08
5.18677e-08
5.187e-08
5.18727e-08
5.1876e-08
5.18799e-08
5.18844e-08
5.18896e-08
5.18958e-08
5.19028e-08
5.19109e-08
5.192e-08
5.19304e-08
5.1942e-08
5.1955e-08
5.19693e-08
5.19851e-08
5.20023e-08
5.28761e-08
5.28585e-08
5.28425e-08
5.2828e-08
5.28148e-08
5.2803e-08
5.27925e-08
5.27831e-08
5.2775e-08
5.27678e-08
5.27616e-08
5.27562e-08
5.27516e-08
5.27477e-08
5.27444e-08
5.27416e-08
5.27393e-08
5.27374e-08
5.27358e-08
5.27344e-08
5.27333e-08
5.27325e-08
5.27318e-08
5.27312e-08
5.27308e-08
5.27304e-08
5.27302e-08
5.273e-08
5.27299e-08
5.27298e-08
5.27298e-08
5.27299e-08
5.273e-08
5.27302e-08
5.27304e-08
5.27308e-08
5.27312e-08
5.27318e-08
5.27325e-08
5.27333e-08
5.27344e-08
5.27358e-08
5.27374e-08
5.27393e-08
5.27416e-08
5.27444e-08
5.27477e-08
5.27516e-08
5.27562e-08
5.27616e-08
5.27678e-08
5.2775e-08
5.27831e-08
5.27925e-08
5.2803e-08
5.28148e-08
5.2828e-08
5.28425e-08
5.28585e-08
5.28761e-08
5.383e-08
5.38122e-08
5.37959e-08
5.37811e-08
5.37678e-08
5.37558e-08
5.37451e-08
5.37356e-08
5.37273e-08
5.37201e-08
5.37137e-08
5.37083e-08
5.37036e-08
5.36997e-08
5.36963e-08
5.36935e-08
5.36911e-08
5.36891e-08
5.36875e-08
5.36862e-08
5.36851e-08
5.36842e-08
5.36835e-08
5.36829e-08
5.36824e-08
5.36821e-08
5.36818e-08
5.36816e-08
5.36815e-08
5.36815e-08
5.36815e-08
5.36815e-08
5.36816e-08
5.36818e-08
5.36821e-08
5.36824e-08
5.36829e-08
5.36835e-08
5.36842e-08
5.36851e-08
5.36862e-08
5.36875e-08
5.36891e-08
5.36911e-08
5.36935e-08
5.36963e-08
5.36997e-08
5.37036e-08
5.37083e-08
5.37137e-08
5.37201e-08
5.37273e-08
5.37356e-08
5.37451e-08
5.37558e-08
5.37678e-08
5.37811e-08
5.37959e-08
5.38122e-08
5.383e-08
5.48691e-08
5.4851e-08
5.48345e-08
5.48195e-08
5.48059e-08
5.47937e-08
5.47829e-08
5.47733e-08
5.47648e-08
5.47574e-08
5.4751e-08
5.47455e-08
5.47408e-08
5.47367e-08
5.47333e-08
5.47304e-08
5.4728e-08
5.4726e-08
5.47244e-08
5.4723e-08
5.47219e-08
5.4721e-08
5.47203e-08
5.47197e-08
5.47192e-08
5.47189e-08
5.47186e-08
5.47184e-08
5.47183e-08
5.47182e-08
5.47182e-08
5.47183e-08
5.47184e-08
5.47186e-08
5.47189e-08
5.47192e-08
5.47197e-08
5.47203e-08
5.4721e-08
5.47219e-08
5.4723e-08
5.47244e-08
5.4726e-08
5.4728e-08
5.47304e-08
5.47333e-08
5.47367e-08
5.47408e-08
5.47455e-08
5.4751e-08
5.47574e-08
5.47648e-08
5.47733e-08
5.47829e-08
5.47937e-08
5.48059e-08
5.48195e-08
5.48345e-08
5.4851e-08
5.48691e-08
5.59985e-08
5.59801e-08
5.59634e-08
5.59481e-08
5.59343e-08
5.5922e-08
5.5911e-08
5.59012e-08
5.58927e-08
5.58852e-08
5.58787e-08
5.58731e-08
5.58682e-08
5.58642e-08
5.58607e-08
5.58578e-08
5.58553e-08
5.58533e-08
5.58516e-08
5.58502e-08
5.58491e-08
5.58482e-08
5.58474e-08
5.58469e-08
5.58464e-08
5.5846e-08
5.58458e-08
5.58456e-08
5.58454e-08
5.58454e-08
5.58454e-08
5.58454e-08
5.58456e-08
5.58458e-08
5.5846e-08
5.58464e-08
5.58469e-08
5.58474e-08
5.58482e-08
5.58491e-08
5.58502e-08
5.58516e-08
5.58533e-08
5.58553e-08
5.58578e-08
5.58607e-08
5.58642e-08
5.58682e-08
5.58731e-08
5.58787e-08
5.58852e-08
5.58927e-08
5.59012e-08
5.5911e-08
5.5922e-08
5.59343e-08
5.59481e-08
5.59634e-08
5.59801e-08
5.59985e-08
5.72238e-08
5.72052e-08
5.71882e-08
5.71727e-08
5.71587e-08
5.71462e-08
5.7135e-08
5.71251e-08
5.71164e-08
5.71088e-08
5.71022e-08
5.70966e-08
5.70917e-08
5.70875e-08
5.7084e-08
5.70811e-08
5.70786e-08
5.70765e-08
5.70748e-08
5.70734e-08
5.70723e-08
5.70713e-08
5.70706e-08
5.707e-08
5.70695e-08
5.70691e-08
5.70689e-08
5.70687e-08
5.70685e-08
5.70685e-08
5.70685e-08
5.70685e-08
5.70687e-08
5.70689e-08
5.70691e-08
5.70695e-08
5.707e-08
5.70706e-08
5.70713e-08
5.70723e-08
5.70734e-08
5.70748e-08
5.70765e-08
5.70786e-08
5.70811e-08
5.7084e-08
5.70875e-08
5.70917e-08
5.70966e-08
5.71022e-08
5.71088e-08
5.71164e-08
5.71251e-08
5.7135e-08
5.71462e-08
5.71587e-08
5.71727e-08
5.71882e-08
5.72052e-08
5.72238e-08
5.85511e-08
5.85322e-08
5.85149e-08
5.84993e-08
5.84851e-08
5.84724e-08
5.8461e-08
5.8451e-08
5.84422e-08
5.84345e-08
5.84278e-08
5.8422e-08
5.84171e-08
5.84129e-08
5.84093e-08
5.84063e-08
5.84038e-08
5.84017e-08
5.83999e-08
5.83985e-08
5.83974e-08
5.83964e-08
5.83957e-08
5.8395e-08
5.83946e-08
5.83942e-08
5.83939e-08
5.83937e-08
5.83936e-08
5.83935e-08
5.83935e-08
5.83936e-08
5.83937e-08
5.83939e-08
5.83942e-08
5.83946e-08
5.8395e-08
5.83957e-08
5.83964e-08
5.83974e-08
5.83985e-08
5.83999e-08
5.84017e-08
5.84038e-08
5.84063e-08
5.84093e-08
5.84129e-08
5.84171e-08
5.8422e-08
5.84278e-08
5.84345e-08
5.84422e-08
5.8451e-08
5.8461e-08
5.84724e-08
5.84851e-08
5.84993e-08
5.85149e-08
5.85322e-08
5.85511e-08
5.99867e-08
5.99675e-08
5.995e-08
5.99341e-08
5.99198e-08
5.99069e-08
5.98954e-08
5.98852e-08
5.98763e-08
5.98685e-08
5.98617e-08
5.98558e-08
5.98508e-08
5.98465e-08
5.98429e-08
5.98399e-08
5.98373e-08
5.98352e-08
5.98334e-08
5.9832e-08
5.98308e-08
5.98299e-08
5.98291e-08
5.98285e-08
5.9828e-08
5.98276e-08
5.98273e-08
5.98271e-08
5.9827e-08
5.98269e-08
5.98269e-08
5.9827e-08
5.98271e-08
5.98273e-08
5.98276e-08
5.9828e-08
5.98285e-08
5.98291e-08
5.98299e-08
5.98308e-08
5.9832e-08
5.98334e-08
5.98352e-08
5.98373e-08
5.98399e-08
5.98429e-08
5.98465e-08
5.98508e-08
5.98558e-08
5.98617e-08
5.98685e-08
5.98763e-08
5.98852e-08
5.98954e-08
5.99069e-08
5.99198e-08
5.99341e-08
5.995e-08
5.99675e-08
5.99867e-08
6.15375e-08
6.15181e-08
6.15004e-08
6.14842e-08
6.14697e-08
6.14566e-08
6.1445e-08
6.14347e-08
6.14256e-08
6.14177e-08
6.14108e-08
6.14049e-08
6.13998e-08
6.13955e-08
6.13918e-08
6.13887e-08
6.13861e-08
6.1384e-08
6.13822e-08
6.13807e-08
6.13795e-08
6.13786e-08
6.13778e-08
6.13771e-08
6.13766e-08
6.13763e-08
6.1376e-08
6.13758e-08
6.13756e-08
6.13756e-08
6.13756e-08
6.13756e-08
6.13758e-08
6.1376e-08
6.13763e-08
6.13766e-08
6.13771e-08
6.13778e-08
6.13786e-08
6.13795e-08
6.13807e-08
6.13822e-08
6.1384e-08
6.13861e-08
6.13887e-08
6.13918e-08
6.13955e-08
6.13998e-08
6.14049e-08
6.14108e-08
6.14177e-08
6.14256e-08
6.14347e-08
6.1445e-08
6.14566e-08
6.14697e-08
6.14842e-08
6.15004e-08
6.15181e-08
6.15375e-08
6.32109e-08
6.31913e-08
6.31733e-08
6.3157e-08
6.31422e-08
6.3129e-08
6.31172e-08
6.31067e-08
6.30975e-08
6.30895e-08
6.30825e-08
6.30765e-08
6.30714e-08
6.3067e-08
6.30633e-08
6.30602e-08
6.30575e-08
6.30554e-08
6.30535e-08
6.30521e-08
6.30509e-08
6.30499e-08
6.30491e-08
6.30484e-08
6.30479e-08
6.30475e-08
6.30473e-08
6.30471e-08
6.30469e-08
6.30469e-08
6.30469e-08
6.30469e-08
6.30471e-08
6.30473e-08
6.30475e-08
6.30479e-08
6.30484e-08
6.30491e-08
6.30499e-08
6.30509e-08
6.30521e-08
6.30535e-08
6.30554e-08
6.30575e-08
6.30602e-08
6.30633e-08
6.3067e-08
6.30714e-08
6.30765e-08
6.30825e-08
6.30895e-08
6.30975e-08
6.31067e-08
6.31172e-08
6.3129e-08
6.31422e-08
6.3157e-08
6.31733e-08
6.31913e-08
6.32109e-08
6.50148e-08
6.49949e-08
6.49768e-08
6.49602e-08
6.49453e-08
6.49319e-08
6.49199e-08
6.49093e-08
6.49e-08
6.48919e-08
6.48849e-08
6.48788e-08
6.48735e-08
6.48691e-08
6.48653e-08
6.48622e-08
6.48595e-08
6.48573e-08
6.48555e-08
6.4854e-08
6.48527e-08
6.48517e-08
6.48509e-08
6.48503e-08
6.48498e-08
6.48494e-08
6.48491e-08
6.48489e-08
6.48487e-08
6.48487e-08
6.48487e-08
6.48487e-08
6.48489e-08
6.48491e-08
6.48494e-08
6.48498e-08
6.48503e-08
6.48509e-08
6.48517e-08
6.48527e-08
6.4854e-08
6.48555e-08
6.48573e-08
6.48595e-08
6.48622e-08
6.48653e-08
6.48691e-08
6.48735e-08
6.48788e-08
6.48849e-08
6.48919e-08
6.49e-08
6.49093e-08
6.49199e-08
6.49319e-08
6.49453e-08
6.49602e-08
6.49768e-08
6.49949e-08
6.50148e-08
6.69578e-08
6.69377e-08
6.69193e-08
6.69026e-08
6.68874e-08
6.68739e-08
6.68617e-08
6.6851e-08
6.68416e-08
6.68334e-08
6.68262e-08
6.68201e-08
6.68148e-08
6.68103e-08
6.68065e-08
6.68033e-08
6.68006e-08
6.67983e-08
6.67965e-08
6.6795e-08
6.67937e-08
6.67927e-08
6.67919e-08
6.67912e-08
6.67907e-08
6.67903e-08
6.679e-08
6.67898e-08
6.67897e-08
6.67896e-08
6.67896e-08
6.67897e-08
6.67898e-08
6.679e-08
6.67903e-08
6.67907e-08
6.67912e-08
6.67919e-08
6.67927e-08
6.67937e-08
6.6795e-08
6.67965e-08
6.67983e-08
6.68006e-08
6.68033e-08
6.68065e-08
6.68103e-08
6.68148e-08
6.68201e-08
6.68262e-08
6.68334e-08
6.68416e-08
6.6851e-08
6.68617e-08
6.68739e-08
6.68874e-08
6.69026e-08
6.69193e-08
6.69377e-08
6.69578e-08
6.90491e-08
6.90287e-08
6.90101e-08
6.89932e-08
6.89778e-08
6.89641e-08
6.89519e-08
6.8941e-08
6.89315e-08
6.89231e-08
6.89159e-08
6.89097e-08
6.89043e-08
6.88998e-08
6.88959e-08
6.88926e-08
6.88899e-08
6.88877e-08
6.88858e-08
6.88842e-08
6.8883e-08
6.8882e-08
6.88811e-08
6.88805e-08
6.88799e-08
6.88795e-08
6.88792e-08
6.8879e-08
6.88789e-08
6.88788e-08
6.88788e-08
6.88789e-08
6.8879e-08
6.88792e-08
6.88795e-08
6.88799e-08
6.88805e-08
6.88811e-08
6.8882e-08
6.8883e-08
6.88842e-08
6.88858e-08
6.88877e-08
6.88899e-08
6.88926e-08
6.88959e-08
6.88998e-08
6.89043e-08
6.89097e-08
6.89159e-08
6.89231e-08
6.89315e-08
6.8941e-08
6.89519e-08
6.89641e-08
6.89778e-08
6.89932e-08
6.90101e-08
6.90287e-08
6.90491e-08
7.12986e-08
7.1278e-08
7.12591e-08
7.1242e-08
7.12265e-08
7.12126e-08
7.12002e-08
7.11892e-08
7.11795e-08
7.11711e-08
7.11638e-08
7.11575e-08
7.11521e-08
7.11474e-08
7.11435e-08
7.11402e-08
7.11375e-08
7.11352e-08
7.11333e-08
7.11317e-08
7.11305e-08
7.11294e-08
7.11286e-08
7.11279e-08
7.11274e-08
7.1127e-08
7.11267e-08
7.11265e-08
7.11263e-08
7.11262e-08
7.11262e-08
7.11263e-08
7.11265e-08
7.11267e-08
7.1127e-08
7.11274e-08
7.11279e-08
7.11286e-08
7.11294e-08
7.11305e-08
7.11317e-08
7.11333e-08
7.11352e-08
7.11375e-08
7.11402e-08
7.11435e-08
7.11474e-08
7.11521e-08
7.11575e-08
7.11638e-08
7.11711e-08
7.11795e-08
7.11892e-08
7.12002e-08
7.12126e-08
7.12265e-08
7.1242e-08
7.12591e-08
7.1278e-08
7.12986e-08
7.37169e-08
7.3696e-08
7.3677e-08
7.36596e-08
7.3644e-08
7.36299e-08
7.36174e-08
7.36063e-08
7.35965e-08
7.3588e-08
7.35806e-08
7.35742e-08
7.35687e-08
7.3564e-08
7.35601e-08
7.35568e-08
7.3554e-08
7.35516e-08
7.35497e-08
7.35481e-08
7.35468e-08
7.35458e-08
7.35449e-08
7.35443e-08
7.35437e-08
7.35433e-08
7.3543e-08
7.35428e-08
7.35427e-08
7.35426e-08
7.35426e-08
7.35427e-08
7.35428e-08
7.3543e-08
7.35433e-08
7.35437e-08
7.35443e-08
7.35449e-08
7.35458e-08
7.35468e-08
7.35481e-08
7.35497e-08
7.35516e-08
7.3554e-08
7.35568e-08
7.35601e-08
7.3564e-08
7.35687e-08
7.35742e-08
7.35806e-08
7.3588e-08
7.35965e-08
7.36063e-08
7.36174e-08
7.36299e-08
7.3644e-08
7.36596e-08
7.3677e-08
7.3696e-08
7.37169e-08
7.63157e-08
7.62946e-08
7.62753e-08
7.62578e-08
7.62419e-08
7.62277e-08
7.62151e-08
7.62038e-08
7.6194e-08
7.61853e-08
7.61778e-08
7.61714e-08
7.61658e-08
7.61611e-08
7.61571e-08
7.61538e-08
7.61509e-08
7.61486e-08
7.61466e-08
7.6145e-08
7.61437e-08
7.61427e-08
7.61418e-08
7.61411e-08
7.61406e-08
7.61402e-08
7.61398e-08
7.61396e-08
7.61395e-08
7.61394e-08
7.61394e-08
7.61395e-08
7.61396e-08
7.61398e-08
7.61402e-08
7.61406e-08
7.61411e-08
7.61418e-08
7.61427e-08
7.61437e-08
7.6145e-08
7.61466e-08
7.61486e-08
7.61509e-08
7.61538e-08
7.61571e-08
7.61611e-08
7.61658e-08
7.61714e-08
7.61778e-08
7.61853e-08
7.6194e-08
7.62038e-08
7.62151e-08
7.62277e-08
7.62419e-08
7.62578e-08
7.62753e-08
7.62946e-08
7.63157e-08
7.91074e-08
7.90861e-08
7.90667e-08
7.90489e-08
7.90329e-08
7.90186e-08
7.90058e-08
7.89944e-08
7.89844e-08
7.89757e-08
7.89681e-08
7.89616e-08
7.8956e-08
7.89512e-08
7.89472e-08
7.89438e-08
7.89409e-08
7.89385e-08
7.89366e-08
7.89349e-08
7.89336e-08
7.89325e-08
7.89317e-08
7.8931e-08
7.89304e-08
7.893e-08
7.89297e-08
7.89295e-08
7.89293e-08
7.89293e-08
7.89293e-08
7.89293e-08
7.89295e-08
7.89297e-08
7.893e-08
7.89304e-08
7.8931e-08
7.89317e-08
7.89325e-08
7.89336e-08
7.89349e-08
7.89366e-08
7.89385e-08
7.89409e-08
7.89438e-08
7.89472e-08
7.89512e-08
7.8956e-08
7.89616e-08
7.89681e-08
7.89757e-08
7.89844e-08
7.89944e-08
7.90058e-08
7.90186e-08
7.90329e-08
7.90489e-08
7.90667e-08
7.90861e-08
7.91074e-08
8.21058e-08
8.20843e-08
8.20646e-08
8.20467e-08
8.20305e-08
8.2016e-08
8.2003e-08
8.19916e-08
8.19815e-08
8.19727e-08
8.1965e-08
8.19584e-08
8.19527e-08
8.19479e-08
8.19438e-08
8.19404e-08
8.19375e-08
8.19351e-08
8.19331e-08
8.19314e-08
8.19301e-08
8.1929e-08
8.19281e-08
8.19274e-08
8.19269e-08
8.19265e-08
8.19261e-08
8.19259e-08
8.19258e-08
8.19257e-08
8.19257e-08
8.19258e-08
8.19259e-08
8.19261e-08
8.19265e-08
8.19269e-08
8.19274e-08
8.19281e-08
8.1929e-08
8.19301e-08
8.19314e-08
8.19331e-08
8.19351e-08
8.19375e-08
8.19404e-08
8.19438e-08
8.19479e-08
8.19527e-08
8.19584e-08
8.1965e-08
8.19727e-08
8.19815e-08
8.19916e-08
8.2003e-08
8.2016e-08
8.20305e-08
8.20467e-08
8.20646e-08
8.20843e-08
8.21058e-08
8.53254e-08
8.53036e-08
8.52838e-08
8.52657e-08
8.52493e-08
8.52347e-08
8.52216e-08
8.521e-08
8.51998e-08
8.51909e-08
8.51832e-08
8.51765e-08
8.51708e-08
8.51659e-08
8.51618e-08
8.51583e-08
8.51554e-08
8.51529e-08
8.51509e-08
8.51493e-08
8.51479e-08
8.51468e-08
8.51459e-08
8.51452e-08
8.51447e-08
8.51442e-08
8.51439e-08
8.51437e-08
8.51435e-08
8.51434e-08
8.51434e-08
8.51435e-08
8.51437e-08
8.51439e-08
8.51442e-08
8.51447e-08
8.51452e-08
8.51459e-08
8.51468e-08
8.51479e-08
8.51493e-08
8.51509e-08
8.51529e-08
8.51554e-08
8.51583e-08
8.51618e-08
8.51659e-08
8.51708e-08
8.51765e-08
8.51832e-08
8.51909e-08
8.51998e-08
8.521e-08
8.52216e-08
8.52347e-08
8.52493e-08
8.52657e-08
8.52838e-08
8.53036e-08
8.53254e-08
8.87822e-08
8.87603e-08
8.87402e-08
8.8722e-08
8.87055e-08
8.86907e-08
8.86775e-08
8.86658e-08
8.86555e-08
8.86465e-08
8.86387e-08
8.86319e-08
8.86261e-08
8.86212e-08
8.8617e-08
8.86135e-08
8.86106e-08
8.86081e-08
8.86061e-08
8.86044e-08
8.8603e-08
8.86019e-08
8.8601e-08
8.86003e-08
8.85997e-08
8.85993e-08
8.8599e-08
8.85987e-08
8.85986e-08
8.85985e-08
8.85985e-08
8.85986e-08
8.85987e-08
8.8599e-08
8.85993e-08
8.85997e-08
8.86003e-08
8.8601e-08
8.86019e-08
8.8603e-08
8.86044e-08
8.86061e-08
8.86081e-08
8.86106e-08
8.86135e-08
8.8617e-08
8.86212e-08
8.86261e-08
8.86319e-08
8.86387e-08
8.86465e-08
8.86555e-08
8.86658e-08
8.86775e-08
8.86907e-08
8.87055e-08
8.8722e-08
8.87402e-08
8.87603e-08
8.87822e-08
9.24938e-08
9.24717e-08
9.24514e-08
9.2433e-08
9.24163e-08
9.24014e-08
9.2388e-08
9.23762e-08
9.23658e-08
9.23568e-08
9.23489e-08
9.23421e-08
9.23362e-08
9.23312e-08
9.2327e-08
9.23235e-08
9.23205e-08
9.2318e-08
9.2316e-08
9.23143e-08
9.23129e-08
9.23118e-08
9.23108e-08
9.23101e-08
9.23096e-08
9.23091e-08
9.23088e-08
9.23085e-08
9.23084e-08
9.23083e-08
9.23083e-08
9.23084e-08
9.23085e-08
9.23088e-08
9.23091e-08
9.23096e-08
9.23101e-08
9.23108e-08
9.23118e-08
9.23129e-08
9.23143e-08
9.2316e-08
9.2318e-08
9.23205e-08
9.23235e-08
9.2327e-08
9.23312e-08
9.23362e-08
9.23421e-08
9.23489e-08
9.23568e-08
9.23658e-08
9.23762e-08
9.2388e-08
9.24014e-08
9.24163e-08
9.2433e-08
9.24514e-08
9.24717e-08
9.24938e-08
9.6479e-08
9.64567e-08
9.64362e-08
9.64176e-08
9.64008e-08
9.63857e-08
9.63723e-08
9.63604e-08
9.63499e-08
9.63407e-08
9.63327e-08
9.63259e-08
9.632e-08
9.63149e-08
9.63107e-08
9.63071e-08
9.63041e-08
9.63016e-08
9.62995e-08
9.62978e-08
9.62964e-08
9.62953e-08
9.62943e-08
9.62936e-08
9.6293e-08
9.62926e-08
9.62923e-08
9.6292e-08
9.62919e-08
9.62918e-08
9.62918e-08
9.62919e-08
9.6292e-08
9.62923e-08
9.62926e-08
9.6293e-08
9.62936e-08
9.62943e-08
9.62953e-08
9.62964e-08
9.62978e-08
9.62995e-08
9.63016e-08
9.63041e-08
9.63071e-08
9.63107e-08
9.63149e-08
9.632e-08
9.63259e-08
9.63327e-08
9.63407e-08
9.63499e-08
9.63604e-08
9.63723e-08
9.63857e-08
9.64008e-08
9.64176e-08
9.64362e-08
9.64567e-08
9.6479e-08
1.00759e-07
1.00736e-07
1.00715e-07
1.00697e-07
1.0068e-07
1.00664e-07
1.00651e-07
1.00639e-07
1.00628e-07
1.00619e-07
1.00611e-07
1.00604e-07
1.00598e-07
1.00593e-07
1.00589e-07
1.00585e-07
1.00582e-07
1.0058e-07
1.00577e-07
1.00576e-07
1.00574e-07
1.00573e-07
1.00572e-07
1.00571e-07
1.00571e-07
1.0057e-07
1.0057e-07
1.0057e-07
1.0057e-07
1.0057e-07
1.0057e-07
1.0057e-07
1.0057e-07
1.0057e-07
1.0057e-07
1.00571e-07
1.00571e-07
1.00572e-07
1.00573e-07
1.00574e-07
1.00576e-07
1.00577e-07
1.0058e-07
1.00582e-07
1.00585e-07
1.00589e-07
1.00593e-07
1.00598e-07
1.00604e-07
1.00611e-07
1.00619e-07
1.00628e-07
1.00639e-07
1.00651e-07
1.00664e-07
1.0068e-07
1.00697e-07
1.00715e-07
1.00736e-07
1.00759e-07
1.05355e-07
1.05332e-07
1.05311e-07
1.05292e-07
1.05275e-07
1.0526e-07
1.05246e-07
1.05234e-07
1.05224e-07
1.05214e-07
1.05206e-07
1.05199e-07
1.05193e-07
1.05188e-07
1.05184e-07
1.0518e-07
1.05177e-07
1.05174e-07
1.05172e-07
1.05171e-07
1.05169e-07
1.05168e-07
1.05167e-07
1.05166e-07
1.05166e-07
1.05165e-07
1.05165e-07
1.05165e-07
1.05164e-07
1.05164e-07
1.05164e-07
1.05164e-07
1.05165e-07
1.05165e-07
1.05165e-07
1.05166e-07
1.05166e-07
1.05167e-07
1.05168e-07
1.05169e-07
1.05171e-07
1.05172e-07
1.05174e-07
1.05177e-07
1.0518e-07
1.05184e-07
1.05188e-07
1.05193e-07
1.05199e-07
1.05206e-07
1.05214e-07
1.05224e-07
1.05234e-07
1.05246e-07
1.0526e-07
1.05275e-07
1.05292e-07
1.05311e-07
1.05332e-07
1.05355e-07
1.10293e-07
1.1027e-07
1.10249e-07
1.1023e-07
1.10213e-07
1.10197e-07
1.10183e-07
1.10171e-07
1.1016e-07
1.10151e-07
1.10143e-07
1.10136e-07
1.1013e-07
1.10125e-07
1.1012e-07
1.10117e-07
1.10113e-07
1.10111e-07
1.10109e-07
1.10107e-07
1.10105e-07
1.10104e-07
1.10103e-07
1.10103e-07
1.10102e-07
1.10102e-07
1.10101e-07
1.10101e-07
1.10101e-07
1.10101e-07
1.10101e-07
1.10101e-07
1.10101e-07
1.10101e-07
1.10102e-07
1.10102e-07
1.10103e-07
1.10103e-07
1.10104e-07
1.10105e-07
1.10107e-07
1.10109e-07
1.10111e-07
1.10113e-07
1.10117e-07
1.1012e-07
1.10125e-07
1.1013e-07
1.10136e-07
1.10143e-07
1.10151e-07
1.1016e-07
1.10171e-07
1.10183e-07
1.10197e-07
1.10213e-07
1.1023e-07
1.10249e-07
1.1027e-07
1.10293e-07
1.15599e-07
1.15576e-07
1.15555e-07
1.15536e-07
1.15519e-07
1.15503e-07
1.15489e-07
1.15477e-07
1.15466e-07
1.15457e-07
1.15448e-07
1.15441e-07
1.15435e-07
1.1543e-07
1.15425e-07
1.15422e-07
1.15419e-07
1.15416e-07
1.15414e-07
1.15412e-07
1.15411e-07
1.15409e-07
1.15408e-07
1.15408e-07
1.15407e-07
1.15407e-07
1.15406e-07
1.15406e-07
1.15406e-07
1.15406e-07
1.15406e-07
1.15406e-07
1.15406e-07
1.15406e-07
1.15407e-07
1.15407e-07
1.15408e-07
1.15408e-07
1.15409e-07
1.15411e-07
1.15412e-07
1.15414e-07
1.15416e-07
1.15419e-07
1.15422e-07
1.15425e-07
1.1543e-07
1.15435e-07
1.15441e-07
1.15448e-07
1.15457e-07
1.15466e-07
1.15477e-07
1.15489e-07
1.15503e-07
1.15519e-07
1.15536e-07
1.15555e-07
1.15576e-07
1.15599e-07
1.21304e-07
1.21281e-07
1.2126e-07
1.2124e-07
1.21223e-07
1.21207e-07
1.21193e-07
1.21181e-07
1.2117e-07
1.2116e-07
1.21152e-07
1.21145e-07
1.21139e-07
1.21133e-07
1.21129e-07
1.21125e-07
1.21122e-07
1.21119e-07
1.21117e-07
1.21115e-07
1.21114e-07
1.21113e-07
1.21112e-07
1.21111e-07
1.2111e-07
1.2111e-07
1.2111e-07
1.21109e-07
1.21109e-07
1.21109e-07
1.21109e-07
1.21109e-07
1.21109e-07
1.2111e-07
1.2111e-07
1.2111e-07
1.21111e-07
1.21112e-07
1.21113e-07
1.21114e-07
1.21115e-07
1.21117e-07
1.21119e-07
1.21122e-07
1.21125e-07
1.21129e-07
1.21133e-07
1.21139e-07
1.21145e-07
1.21152e-07
1.2116e-07
1.2117e-07
1.21181e-07
1.21193e-07
1.21207e-07
1.21223e-07
1.2124e-07
1.2126e-07
1.21281e-07
1.21304e-07
1.2744e-07
1.27417e-07
1.27395e-07
1.27376e-07
1.27358e-07
1.27342e-07
1.27328e-07
1.27316e-07
1.27304e-07
1.27295e-07
1.27286e-07
1.27279e-07
1.27273e-07
1.27268e-07
1.27263e-07
1.27259e-07
1.27256e-07
1.27254e-07
1.27251e-07
1.2725e-07
1.27248e-07
1.27247e-07
1.27246e-07
1.27245e-07
1.27245e-07
1.27244e-07
1.27244e-07
1.27243e-07
1.27243e-07
1.27243e-07
1.27243e-07
1.27243e-07
1.27243e-07
1.27244e-07
1.27244e-07
1.27245e-07
1.27245e-07
1.27246e-07
1.27247e-07
1.27248e-07
1.2725e-07
1.27251e-07
1.27254e-07
1.27256e-07
1.27259e-07
1.27263e-07
1.27268e-07
1.27273e-07
1.27279e-07
1.27286e-07
1.27295e-07
1.27304e-07
1.27316e-07
1.27328e-07
1.27342e-07
1.27358e-07
1.27376e-07
1.27395e-07
1.27417e-07
1.2744e-07
1.34042e-07
1.34019e-07
1.33997e-07
1.33977e-07
1.3396e-07
1.33944e-07
1.33929e-07
1.33917e-07
1.33906e-07
1.33896e-07
1.33888e-07
1.3388e-07
1.33874e-07
1.33869e-07
1.33864e-07
1.3386e-07
1.33857e-07
1.33855e-07
1.33852e-07
1.33851e-07
1.33849e-07
1.33848e-07
1.33847e-07
1.33846e-07
1.33845e-07
1.33845e-07
1.33845e-07
1.33844e-07
1.33844e-07
1.33844e-07
1.33844e-07
1.33844e-07
1.33844e-07
1.33845e-07
1.33845e-07
1.33845e-07
1.33846e-07
1.33847e-07
1.33848e-07
1.33849e-07
1.33851e-07
1.33852e-07
1.33855e-07
1.33857e-07
1.3386e-07
1.33864e-07
1.33869e-07
1.33874e-07
1.3388e-07
1.33888e-07
1.33896e-07
1.33906e-07
1.33917e-07
1.33929e-07
1.33944e-07
1.3396e-07
1.33977e-07
1.33997e-07
1.34019e-07
1.34042e-07
1.4115e-07
1.41127e-07
1.41105e-07
1.41085e-07
1.41067e-07
1.41051e-07
1.41037e-07
1.41024e-07
1.41013e-07
1.41003e-07
1.40995e-07
1.40988e-07
1.40981e-07
1.40976e-07
1.40971e-07
1.40967e-07
1.40964e-07
1.40962e-07
1.40959e-07
1.40957e-07
1.40956e-07
1.40955e-07
1.40954e-07
1.40953e-07
1.40952e-07
1.40952e-07
1.40951e-07
1.40951e-07
1.40951e-07
1.40951e-07
1.40951e-07
1.40951e-07
1.40951e-07
1.40951e-07
1.40952e-07
1.40952e-07
1.40953e-07
1.40954e-07
1.40955e-07
1.40956e-07
1.40957e-07
1.40959e-07
1.40962e-07
1.40964e-07
1.40967e-07
1.40971e-07
1.40976e-07
1.40981e-07
1.40988e-07
1.40995e-07
1.41003e-07
1.41013e-07
1.41024e-07
1.41037e-07
1.41051e-07
1.41067e-07
1.41085e-07
1.41105e-07
1.41127e-07
1.4115e-07
1.48808e-07
1.48784e-07
1.48763e-07
1.48743e-07
1.48725e-07
1.48708e-07
1.48694e-07
1.48681e-07
1.4867e-07
1.4866e-07
1.48652e-07
1.48644e-07
1.48638e-07
1.48632e-07
1.48628e-07
1.48624e-07
1.48621e-07
1.48618e-07
1.48616e-07
1.48614e-07
1.48612e-07
1.48611e-07
1.4861e-07
1.48609e-07
1.48609e-07
1.48608e-07
1.48608e-07
1.48608e-07
1.48608e-07
1.48607e-07
1.48607e-07
1.48608e-07
1.48608e-07
1.48608e-07
1.48608e-07
1.48609e-07
1.48609e-07
1.4861e-07
1.48611e-07
1.48612e-07
1.48614e-07
1.48616e-07
1.48618e-07
1.48621e-07
1.48624e-07
1.48628e-07
1.48632e-07
1.48638e-07
1.48644e-07
1.48652e-07
1.4866e-07
1.4867e-07
1.48681e-07
1.48694e-07
1.48708e-07
1.48725e-07
1.48743e-07
1.48763e-07
1.48784e-07
1.48808e-07
1.57064e-07
1.5704e-07
1.57018e-07
1.56998e-07
1.56979e-07
1.56963e-07
1.56949e-07
1.56936e-07
1.56925e-07
1.56915e-07
1.56906e-07
1.56899e-07
1.56892e-07
1.56887e-07
1.56882e-07
1.56878e-07
1.56875e-07
1.56872e-07
1.5687e-07
1.56868e-07
1.56867e-07
1.56865e-07
1.56864e-07
1.56863e-07
1.56863e-07
1.56862e-07
1.56862e-07
1.56862e-07
1.56862e-07
1.56861e-07
1.56861e-07
1.56862e-07
1.56862e-07
1.56862e-07
1.56862e-07
1.56863e-07
1.56863e-07
1.56864e-07
1.56865e-07
1.56867e-07
1.56868e-07
1.5687e-07
1.56872e-07
1.56875e-07
1.56878e-07
1.56882e-07
1.56887e-07
1.56892e-07
1.56899e-07
1.56906e-07
1.56915e-07
1.56925e-07
1.56936e-07
1.56949e-07
1.56963e-07
1.56979e-07
1.56998e-07
1.57018e-07
1.5704e-07
1.57064e-07
1.6597e-07
1.65945e-07
1.65923e-07
1.65903e-07
1.65885e-07
1.65869e-07
1.65854e-07
1.65841e-07
1.6583e-07
1.6582e-07
1.65811e-07
1.65804e-07
1.65797e-07
1.65792e-07
1.65787e-07
1.65783e-07
1.6578e-07
1.65777e-07
1.65775e-07
1.65773e-07
1.65771e-07
1.6577e-07
1.65769e-07
1.65768e-07
1.65768e-07
1.65767e-07
1.65767e-07
1.65767e-07
1.65766e-07
1.65766e-07
1.65766e-07
1.65766e-07
1.65767e-07
1.65767e-07
1.65767e-07
1.65768e-07
1.65768e-07
1.65769e-07
1.6577e-07
1.65771e-07
1.65773e-07
1.65775e-07
1.65777e-07
1.6578e-07
1.65783e-07
1.65787e-07
1.65792e-07
1.65797e-07
1.65804e-07
1.65811e-07
1.6582e-07
1.6583e-07
1.65841e-07
1.65854e-07
1.65869e-07
1.65885e-07
1.65903e-07
1.65923e-07
1.65945e-07
1.6597e-07
1.75585e-07
1.75561e-07
1.75539e-07
1.75518e-07
1.755e-07
1.75484e-07
1.75469e-07
1.75456e-07
1.75445e-07
1.75435e-07
1.75426e-07
1.75418e-07
1.75412e-07
1.75406e-07
1.75402e-07
1.75398e-07
1.75394e-07
1.75392e-07
1.75389e-07
1.75387e-07
1.75386e-07
1.75385e-07
1.75384e-07
1.75383e-07
1.75382e-07
1.75382e-07
1.75381e-07
1.75381e-07
1.75381e-07
1.75381e-07
1.75381e-07
1.75381e-07
1.75381e-07
1.75381e-07
1.75382e-07
1.75382e-07
1.75383e-07
1.75384e-07
1.75385e-07
1.75386e-07
1.75387e-07
1.75389e-07
1.75392e-07
1.75394e-07
1.75398e-07
1.75402e-07
1.75406e-07
1.75412e-07
1.75418e-07
1.75426e-07
1.75435e-07
1.75445e-07
1.75456e-07
1.75469e-07
1.75484e-07
1.755e-07
1.75518e-07
1.75539e-07
1.75561e-07
1.75585e-07
1.85976e-07
1.85951e-07
1.85929e-07
1.85909e-07
1.8589e-07
1.85874e-07
1.85859e-07
1.85846e-07
1.85834e-07
1.85824e-07
1.85816e-07
1.85808e-07
1.85801e-07
1.85796e-07
1.85791e-07
1.85787e-07
1.85784e-07
1.85781e-07
1.85779e-07
1.85777e-07
1.85775e-07
1.85774e-07
1.85773e-07
1.85772e-07
1.85772e-07
1.85771e-07
1.85771e-07
1.8577e-07
1.8577e-07
1.8577e-07
1.8577e-07
1.8577e-07
1.8577e-07
1.85771e-07
1.85771e-07
1.85772e-07
1.85772e-07
1.85773e-07
1.85774e-07
1.85775e-07
1.85777e-07
1.85779e-07
1.85781e-07
1.85784e-07
1.85787e-07
1.85791e-07
1.85796e-07
1.85801e-07
1.85808e-07
1.85816e-07
1.85824e-07
1.85834e-07
1.85846e-07
1.85859e-07
1.85874e-07
1.8589e-07
1.85909e-07
1.85929e-07
1.85951e-07
1.85976e-07
1.97214e-07
1.97189e-07
1.97167e-07
1.97146e-07
1.97128e-07
1.97111e-07
1.97097e-07
1.97083e-07
1.97072e-07
1.97062e-07
1.97053e-07
1.97045e-07
1.97039e-07
1.97033e-07
1.97028e-07
1.97024e-07
1.97021e-07
1.97018e-07
1.97016e-07
1.97014e-07
1.97012e-07
1.97011e-07
1.9701e-07
1.97009e-07
1.97009e-07
1.97008e-07
1.97008e-07
1.97007e-07
1.97007e-07
1.97007e-07
1.97007e-07
1.97007e-07
1.97007e-07
1.97008e-07
1.97008e-07
1.97009e-07
1.97009e-07
1.9701e-07
1.97011e-07
1.97012e-07
1.97014e-07
1.97016e-07
1.97018e-07
1.97021e-07
1.97024e-07
1.97028e-07
1.97033e-07
1.97039e-07
1.97045e-07
1.97053e-07
1.97062e-07
1.97072e-07
1.97083e-07
1.97097e-07
1.97111e-07
1.97128e-07
1.97146e-07
1.97167e-07
1.97189e-07
1.97214e-07
2.0938e-07
2.09356e-07
2.09333e-07
2.09313e-07
2.09294e-07
2.09278e-07
2.09263e-07
2.09249e-07
2.09238e-07
2.09228e-07
2.09219e-07
2.09211e-07
2.09205e-07
2.09199e-07
2.09194e-07
2.0919e-07
2.09187e-07
2.09184e-07
2.09182e-07
2.0918e-07
2.09178e-07
2.09177e-07
2.09176e-07
2.09175e-07
2.09174e-07
2.09174e-07
2.09173e-07
2.09173e-07
2.09173e-07
2.09173e-07
2.09173e-07
2.09173e-07
2.09173e-07
2.09173e-07
2.09174e-07
2.09174e-07
2.09175e-07
2.09176e-07
2.09177e-07
2.09178e-07
2.0918e-07
2.09182e-07
2.09184e-07
2.09187e-07
2.0919e-07
2.09194e-07
2.09199e-07
2.09205e-07
2.09211e-07
2.09219e-07
2.09228e-07
2.09238e-07
2.09249e-07
2.09263e-07
2.09278e-07
2.09294e-07
2.09313e-07
2.09333e-07
2.09356e-07
2.0938e-07
2.22566e-07
2.22541e-07
2.22518e-07
2.22498e-07
2.22479e-07
2.22462e-07
2.22448e-07
2.22434e-07
2.22423e-07
2.22412e-07
2.22403e-07
2.22396e-07
2.22389e-07
2.22383e-07
2.22379e-07
2.22375e-07
2.22371e-07
2.22368e-07
2.22366e-07
2.22364e-07
2.22362e-07
2.22361e-07
2.2236e-07
2.22359e-07
2.22359e-07
2.22358e-07
2.22358e-07
2.22357e-07
2.22357e-07
2.22357e-07
2.22357e-07
2.22357e-07
2.22357e-07
2.22358e-07
2.22358e-07
2.22359e-07
2.22359e-07
2.2236e-07
2.22361e-07
2.22362e-07
2.22364e-07
2.22366e-07
2.22368e-07
2.22371e-07
2.22375e-07
2.22379e-07
2.22383e-07
2.22389e-07
2.22396e-07
2.22403e-07
2.22412e-07
2.22423e-07
2.22434e-07
2.22448e-07
2.22462e-07
2.22479e-07
2.22498e-07
2.22518e-07
2.22541e-07
2.22566e-07
2.36871e-07
2.36846e-07
2.36823e-07
2.36802e-07
2.36784e-07
2.36767e-07
2.36752e-07
2.36739e-07
2.36727e-07
2.36717e-07
2.36708e-07
2.367e-07
2.36693e-07
2.36688e-07
2.36683e-07
2.36679e-07
2.36675e-07
2.36672e-07
2.3667e-07
2.36668e-07
2.36666e-07
2.36665e-07
2.36664e-07
2.36663e-07
2.36663e-07
2.36662e-07
2.36662e-07
2.36661e-07
2.36661e-07
2.36661e-07
2.36661e-07
2.36661e-07
2.36661e-07
2.36662e-07
2.36662e-07
2.36663e-07
2.36663e-07
2.36664e-07
2.36665e-07
2.36666e-07
2.36668e-07
2.3667e-07
2.36672e-07
2.36675e-07
2.36679e-07
2.36683e-07
2.36688e-07
2.36693e-07
2.367e-07
2.36708e-07
2.36717e-07
2.36727e-07
2.36739e-07
2.36752e-07
2.36767e-07
2.36784e-07
2.36802e-07
2.36823e-07
2.36846e-07
2.36871e-07
2.52408e-07
2.52383e-07
2.5236e-07
2.5234e-07
2.52321e-07
2.52304e-07
2.52289e-07
2.52275e-07
2.52264e-07
2.52253e-07
2.52244e-07
2.52237e-07
2.5223e-07
2.52224e-07
2.52219e-07
2.52215e-07
2.52212e-07
2.52209e-07
2.52206e-07
2.52204e-07
2.52203e-07
2.52202e-07
2.522e-07
2.522e-07
2.52199e-07
2.52198e-07
2.52198e-07
2.52198e-07
2.52198e-07
2.52197e-07
2.52197e-07
2.52198e-07
2.52198e-07
2.52198e-07
2.52198e-07
2.52199e-07
2.522e-07
2.522e-07
2.52202e-07
2.52203e-07
2.52204e-07
2.52206e-07
2.52209e-07
2.52212e-07
2.52215e-07
2.52219e-07
2.52224e-07
2.5223e-07
2.52237e-07
2.52244e-07
2.52253e-07
2.52264e-07
2.52275e-07
2.52289e-07
2.52304e-07
2.52321e-07
2.5234e-07
2.5236e-07
2.52383e-07
2.52408e-07
2.69304e-07
2.69279e-07
2.69256e-07
2.69236e-07
2.69217e-07
2.692e-07
2.69185e-07
2.69171e-07
2.69159e-07
2.69149e-07
2.6914e-07
2.69132e-07
2.69125e-07
2.6912e-07
2.69115e-07
2.69111e-07
2.69107e-07
2.69104e-07
2.69102e-07
2.691e-07
2.69098e-07
2.69097e-07
2.69096e-07
2.69095e-07
2.69094e-07
2.69094e-07
2.69093e-07
2.69093e-07
2.69093e-07
2.69093e-07
2.69093e-07
2.69093e-07
2.69093e-07
2.69093e-07
2.69094e-07
2.69094e-07
2.69095e-07
2.69096e-07
2.69097e-07
2.69098e-07
2.691e-07
2.69102e-07
2.69104e-07
2.69107e-07
2.69111e-07
2.69115e-07
2.6912e-07
2.69125e-07
2.69132e-07
2.6914e-07
2.69149e-07
2.69159e-07
2.69171e-07
2.69185e-07